;
;	File 'topol.top' was generated
;	By user: muralika.m (21947)
;	On host: zeus
;	At date: Fri Mar 14 20:06:27 2025
;
;	This is a standalone topology file
;
;	Created by:
;	                    :-) GROMACS - gmx pdb2gmx, 2019.6 (-:
;	
;	Executable:   /home/muralika.m/.conda/envs/muralika/bin/gmx_mpi
;	Data prefix:  /home/muralika.m/.conda/envs/muralika
;	Working dir:  /rg/mendels_prj/muralika.m/ub/New_mutns/YYCPETGTWY
;	Command line:
;	  gmx_mpi pdb2gmx -f YYCPETGTWY.pdb -o processed_structure.gro -p topol.top -asp -glu -ter
;	Force field was read from the standard GROMACS share directory.
;

; Include forcefield parameters
#include "charmm22star.ff/forcefield.itp"

[ moleculetype ]
; Name            nrexcl
Protein_chain_A     3

[ atoms ]
;   nr       type  resnr residue  atom   cgnr     charge       mass  typeB    chargeB      massB
; residue   0 TYR rtp TYR  q +1.0
     1        NH3      0    TYR      N      1       -0.3    14.0027
     2         HC      0    TYR     H1      2       0.33      1.008
     3         HC      0    TYR     H2      3       0.33      1.008
     4         HC      0    TYR     H3      4       0.33      1.008
     5        CT1      0    TYR     CA      5       0.21     12.011
     6         HB      0    TYR     HA      6        0.1      1.008
     7        CT2      0    TYR     CB      7      -0.18     12.011
     8         HA      0    TYR    HB1      8       0.09      1.008
     9         HA      0    TYR    HB2      9       0.09      1.008
    10         CA      0    TYR     CG     10          0     12.011
    11         CA      0    TYR    CD1     11     -0.115     12.011
    12         HP      0    TYR    HD1     12      0.115      1.008
    13         CA      0    TYR    CE1     13     -0.115     12.011
    14         HP      0    TYR    HE1     14      0.115      1.008
    15         CA      0    TYR     CZ     15       0.11     12.011
    16        OH1      0    TYR     OH     16      -0.54     15.999
    17          H      0    TYR     HH     17       0.43      1.008
    18         CA      0    TYR    CD2     18     -0.115     12.011
    19         HP      0    TYR    HD2     19      0.115      1.008
    20         CA      0    TYR    CE2     20     -0.115     12.011
    21         HP      0    TYR    HE2     21      0.115      1.008
    22          C      0    TYR      C     22       0.51     12.011
    23          O      0    TYR      O     23      -0.51     15.999   ; qtot 1
; residue   1 TYR rtp TYR  q  0.0
    24        NH1      1    TYR      N     24      -0.47     14.007
    25          H      1    TYR     HN     25       0.31      1.008
    26        CT1      1    TYR     CA     26       0.07     12.011
    27         HB      1    TYR     HA     27       0.09      1.008
    28        CT2      1    TYR     CB     28      -0.18     12.011
    29         HA      1    TYR    HB1     29       0.09      1.008
    30         HA      1    TYR    HB2     30       0.09      1.008
    31         CA      1    TYR     CG     31          0     12.011
    32         CA      1    TYR    CD1     32     -0.115     12.011
    33         HP      1    TYR    HD1     33      0.115      1.008
    34         CA      1    TYR    CE1     34     -0.115     12.011
    35         HP      1    TYR    HE1     35      0.115      1.008
    36         CA      1    TYR     CZ     36       0.11     12.011
    37        OH1      1    TYR     OH     37      -0.54     15.999
    38          H      1    TYR     HH     38       0.43      1.008
    39         CA      1    TYR    CD2     39     -0.115     12.011
    40         HP      1    TYR    HD2     40      0.115      1.008
    41         CA      1    TYR    CE2     41     -0.115     12.011
    42         HP      1    TYR    HE2     42      0.115      1.008
    43          C      1    TYR      C     43       0.51     12.011
    44          O      1    TYR      O     44      -0.51     15.999   ; qtot 1
; residue   2 CYS rtp CYS  q  0.0
    45        NH1      2    CYS      N     45      -0.47     14.007
    46          H      2    CYS     HN     46       0.31      1.008
    47        CT1      2    CYS     CA     47       0.07     12.011
    48         HB      2    CYS     HA     48       0.09      1.008
    49        CT2      2    CYS     CB     49      -0.11     12.011
    50         HA      2    CYS    HB1     50       0.09      1.008
    51         HA      2    CYS    HB2     51       0.09      1.008
    52          S      2    CYS     SG     52      -0.23      32.06
    53         HS      2    CYS    HG1     53       0.16      1.008
    54          C      2    CYS      C     54       0.51     12.011
    55          O      2    CYS      O     55      -0.51     15.999   ; qtot 1
; residue   3 PRO rtp PRO  q  0.0
    56          N      3    PRO      N     56      -0.29     14.007
    57        CP3      3    PRO     CD     57          0     12.011
    58         HA      3    PRO    HD1     58       0.09      1.008
    59         HA      3    PRO    HD2     59       0.09      1.008
    60        CP1      3    PRO     CA     60       0.02     12.011
    61         HB      3    PRO     HA     61       0.09      1.008
    62        CP2      3    PRO     CB     62      -0.18     12.011
    63         HA      3    PRO    HB1     63       0.09      1.008
    64         HA      3    PRO    HB2     64       0.09      1.008
    65        CP2      3    PRO     CG     65      -0.18     12.011
    66         HA      3    PRO    HG1     66       0.09      1.008
    67         HA      3    PRO    HG2     67       0.09      1.008
    68          C      3    PRO      C     68       0.51     12.011
    69          O      3    PRO      O     69      -0.51     15.999   ; qtot 1
; residue   4 GLU rtp GLU  q -1.0
    70        NH1      4    GLU      N     70      -0.47     14.007
    71          H      4    GLU     HN     71       0.31      1.008
    72        CT1      4    GLU     CA     72       0.07     12.011
    73         HB      4    GLU     HA     73       0.09      1.008
    74        CT2      4    GLU     CB     74      -0.18     12.011
    75         HA      4    GLU    HB1     75       0.09      1.008
    76         HA      4    GLU    HB2     76       0.09      1.008
    77        CT2      4    GLU     CG     77      -0.28     12.011
    78         HA      4    GLU    HG1     78       0.05      1.008
    79         HA      4    GLU    HG2     79       0.05      1.008
    80         CC      4    GLU     CD     80       0.56     12.011
    81         OC      4    GLU    OE1     81      -0.69     15.999
    82         OC      4    GLU    OE2     82      -0.69     15.999
    83          C      4    GLU      C     83       0.51     12.011
    84          O      4    GLU      O     84      -0.51     15.999   ; qtot 0
; residue   5 THR rtp THR  q  0.0
    85        NH1      5    THR      N     85      -0.47     14.007
    86          H      5    THR     HN     86       0.31      1.008
    87        CT1      5    THR     CA     87       0.07     12.011
    88         HB      5    THR     HA     88       0.09      1.008
    89        CT1      5    THR     CB     89       0.14     12.011
    90         HA      5    THR     HB     90       0.09      1.008
    91        OH1      5    THR    OG1     91      -0.66     15.999
    92          H      5    THR    HG1     92       0.43      1.008
    93        CT3      5    THR    CG2     93      -0.27     12.011
    94         HA      5    THR   HG21     94       0.09      1.008
    95         HA      5    THR   HG22     95       0.09      1.008
    96         HA      5    THR   HG23     96       0.09      1.008
    97          C      5    THR      C     97       0.51     12.011
    98          O      5    THR      O     98      -0.51     15.999   ; qtot 0
; residue   6 GLY rtp GLY  q  0.0
    99        NH1      6    GLY      N     99      -0.47     14.007
   100          H      6    GLY     HN    100       0.31      1.008
   101        CT2      6    GLY     CA    101      -0.02     12.011
   102         HB      6    GLY    HA1    102       0.09      1.008
   103         HB      6    GLY    HA2    103       0.09      1.008
   104          C      6    GLY      C    104       0.51     12.011
   105          O      6    GLY      O    105      -0.51     15.999   ; qtot 0
; residue   7 THR rtp THR  q  0.0
   106        NH1      7    THR      N    106      -0.47     14.007
   107          H      7    THR     HN    107       0.31      1.008
   108        CT1      7    THR     CA    108       0.07     12.011
   109         HB      7    THR     HA    109       0.09      1.008
   110        CT1      7    THR     CB    110       0.14     12.011
   111         HA      7    THR     HB    111       0.09      1.008
   112        OH1      7    THR    OG1    112      -0.66     15.999
   113          H      7    THR    HG1    113       0.43      1.008
   114        CT3      7    THR    CG2    114      -0.27     12.011
   115         HA      7    THR   HG21    115       0.09      1.008
   116         HA      7    THR   HG22    116       0.09      1.008
   117         HA      7    THR   HG23    117       0.09      1.008
   118          C      7    THR      C    118       0.51     12.011
   119          O      7    THR      O    119      -0.51     15.999   ; qtot 0
; residue   8 TRP rtp TRP  q  0.0
   120        NH1      8    TRP      N    120      -0.47     14.007
   121          H      8    TRP     HN    121       0.31      1.008
   122        CT1      8    TRP     CA    122       0.07     12.011
   123         HB      8    TRP     HA    123       0.09      1.008
   124        CT2      8    TRP     CB    124      -0.18     12.011
   125         HA      8    TRP    HB1    125       0.09      1.008
   126         HA      8    TRP    HB2    126       0.09      1.008
   127         CY      8    TRP     CG    127      -0.03     12.011
   128         CA      8    TRP    CD1    128      0.035     12.011
   129         HP      8    TRP    HD1    129      0.115      1.008
   130         NY      8    TRP    NE1    130      -0.61     14.007
   131          H      8    TRP    HE1    131       0.38      1.008
   132        CPT      8    TRP    CE2    132       0.13     12.011
   133        CPT      8    TRP    CD2    133      -0.02     12.011
   134         CA      8    TRP    CE3    134     -0.115     12.011
   135         HP      8    TRP    HE3    135      0.115      1.008
   136         CA      8    TRP    CZ3    136     -0.115     12.011
   137         HP      8    TRP    HZ3    137      0.115      1.008
   138         CA      8    TRP    CZ2    138     -0.115     12.011
   139         HP      8    TRP    HZ2    139      0.115      1.008
   140         CA      8    TRP    CH2    140     -0.115     12.011
   141         HP      8    TRP    HH2    141      0.115      1.008
   142          C      8    TRP      C    142       0.51     12.011
   143          O      8    TRP      O    143      -0.51     15.999   ; qtot 0
; residue   9 TYR rtp TYR  q -1.0
   144        NH1      9    TYR      N    144      -0.47     14.007
   145          H      9    TYR     HN    145       0.31      1.008
   146        CT1      9    TYR     CA    146       0.07     12.011
   147         HB      9    TYR     HA    147       0.09      1.008
   148        CT2      9    TYR     CB    148      -0.18     12.011
   149         HA      9    TYR    HB1    149       0.09      1.008
   150         HA      9    TYR    HB2    150       0.09      1.008
   151         CA      9    TYR     CG    151          0     12.011
   152         CA      9    TYR    CD1    152     -0.115     12.011
   153         HP      9    TYR    HD1    153      0.115      1.008
   154         CA      9    TYR    CE1    154     -0.115     12.011
   155         HP      9    TYR    HE1    155      0.115      1.008
   156         CA      9    TYR     CZ    156       0.11     12.011
   157        OH1      9    TYR     OH    157      -0.54     15.999
   158          H      9    TYR     HH    158       0.43      1.008
   159         CA      9    TYR    CD2    159     -0.115     12.011
   160         HP      9    TYR    HD2    160      0.115      1.008
   161         CA      9    TYR    CE2    161     -0.115     12.011
   162         HP      9    TYR    HE2    162      0.115      1.008
   163         CC      9    TYR      C    163       0.34     12.011
   164         OC      9    TYR    OT1    164      -0.67    15.9994
   165         OC      9    TYR    OT2    165      -0.67    15.9994   ; qtot -1

[ bonds ]
;  ai    aj funct            c0            c1            c2            c3
    1     2     1 
    1     3     1 
    1     4     1 
    1     5     1 
    5     6     1 
    5     7     1 
    5    22     1 
    7     8     1 
    7     9     1 
    7    10     1 
   10    11     1 
   10    18     1 
   11    12     1 
   11    13     1 
   13    14     1 
   13    15     1 
   15    16     1 
   15    20     1 
   16    17     1 
   18    19     1 
   18    20     1 
   20    21     1 
   22    23     1 
   22    24     1 
   24    25     1 
   24    26     1 
   26    27     1 
   26    28     1 
   26    43     1 
   28    29     1 
   28    30     1 
   28    31     1 
   31    32     1 
   31    39     1 
   32    33     1 
   32    34     1 
   34    35     1 
   34    36     1 
   36    37     1 
   36    41     1 
   37    38     1 
   39    40     1 
   39    41     1 
   41    42     1 
   43    44     1 
   43    45     1 
   45    46     1 
   45    47     1 
   47    48     1 
   47    49     1 
   47    54     1 
   49    50     1 
   49    51     1 
   49    52     1 
   52    53     1 
   54    55     1 
   54    56     1 
   56    57     1 
   56    60     1 
   57    58     1 
   57    59     1 
   57    65     1 
   60    61     1 
   60    62     1 
   60    68     1 
   62    63     1 
   62    64     1 
   62    65     1 
   65    66     1 
   65    67     1 
   68    69     1 
   68    70     1 
   70    71     1 
   70    72     1 
   72    73     1 
   72    74     1 
   72    83     1 
   74    75     1 
   74    76     1 
   74    77     1 
   77    78     1 
   77    79     1 
   77    80     1 
   80    81     1 
   80    82     1 
   83    84     1 
   83    85     1 
   85    86     1 
   85    87     1 
   87    88     1 
   87    89     1 
   87    97     1 
   89    90     1 
   89    91     1 
   89    93     1 
   91    92     1 
   93    94     1 
   93    95     1 
   93    96     1 
   97    98     1 
   97    99     1 
   99   100     1 
   99   101     1 
  101   102     1 
  101   103     1 
  101   104     1 
  104   105     1 
  104   106     1 
  106   107     1 
  106   108     1 
  108   109     1 
  108   110     1 
  108   118     1 
  110   111     1 
  110   112     1 
  110   114     1 
  112   113     1 
  114   115     1 
  114   116     1 
  114   117     1 
  118   119     1 
  118   120     1 
  120   121     1 
  120   122     1 
  122   123     1 
  122   124     1 
  122   142     1 
  124   125     1 
  124   126     1 
  124   127     1 
  127   128     1 
  127   133     1 
  128   129     1 
  128   130     1 
  130   131     1 
  130   132     1 
  132   133     1 
  132   138     1 
  133   134     1 
  134   135     1 
  134   136     1 
  136   137     1 
  136   140     1 
  138   139     1 
  138   140     1 
  140   141     1 
  142   143     1 
  142   144     1 
  144   145     1 
  144   146     1 
  146   147     1 
  146   148     1 
  146   163     1 
  148   149     1 
  148   150     1 
  148   151     1 
  151   152     1 
  151   159     1 
  152   153     1 
  152   154     1 
  154   155     1 
  154   156     1 
  156   157     1 
  156   161     1 
  157   158     1 
  159   160     1 
  159   161     1 
  161   162     1 
  163   164     1 
  163   165     1 

[ pairs ]
;  ai    aj funct            c0            c1            c2            c3
    1     8     1 
    1     9     1 
    1    10     1 
    1    23     1 
    1    24     1 
    2     6     1 
    2     7     1 
    2    22     1 
    3     6     1 
    3     7     1 
    3    22     1 
    4     6     1 
    4     7     1 
    4    22     1 
    5    11     1 
    5    18     1 
    5    25     1 
    5    26     1 
    6     8     1 
    6     9     1 
    6    10     1 
    6    23     1 
    6    24     1 
    7    12     1 
    7    13     1 
    7    19     1 
    7    20     1 
    7    23     1 
    7    24     1 
    8    11     1 
    8    18     1 
    8    22     1 
    9    11     1 
    9    18     1 
    9    22     1 
   10    14     1 
   10    15     1 
   10    21     1 
   10    22     1 
   11    16     1 
   11    19     1 
   11    20     1 
   12    14     1 
   12    15     1 
   12    18     1 
   13    17     1 
   13    18     1 
   13    21     1 
   14    16     1 
   14    20     1 
   15    19     1 
   16    18     1 
   16    21     1 
   17    20     1 
   19    21     1 
   22    27     1 
   22    28     1 
   22    43     1 
   23    25     1 
   23    26     1 
   24    29     1 
   24    30     1 
   24    31     1 
   24    44     1 
   24    45     1 
   25    27     1 
   25    28     1 
   25    43     1 
   26    32     1 
   26    39     1 
   26    46     1 
   26    47     1 
   27    29     1 
   27    30     1 
   27    31     1 
   27    44     1 
   27    45     1 
   28    33     1 
   28    34     1 
   28    40     1 
   28    41     1 
   28    44     1 
   28    45     1 
   29    32     1 
   29    39     1 
   29    43     1 
   30    32     1 
   30    39     1 
   30    43     1 
   31    35     1 
   31    36     1 
   31    42     1 
   31    43     1 
   32    37     1 
   32    40     1 
   32    41     1 
   33    35     1 
   33    36     1 
   33    39     1 
   34    38     1 
   34    39     1 
   34    42     1 
   35    37     1 
   35    41     1 
   36    40     1 
   37    39     1 
   37    42     1 
   38    41     1 
   40    42     1 
   43    48     1 
   43    49     1 
   43    54     1 
   44    46     1 
   44    47     1 
   45    50     1 
   45    51     1 
   45    52     1 
   45    55     1 
   45    56     1 
   46    48     1 
   46    49     1 
   46    54     1 
   47    53     1 
   47    57     1 
   47    60     1 
   48    50     1 
   48    51     1 
   48    52     1 
   48    55     1 
   48    56     1 
   49    55     1 
   49    56     1 
   50    53     1 
   50    54     1 
   51    53     1 
   51    54     1 
   52    54     1 
   54    58     1 
   54    59     1 
   54    61     1 
   54    62     1 
   54    65     1 
   54    68     1 
   55    57     1 
   55    60     1 
   56    63     1 
   56    64     1 
   56    66     1 
   56    67     1 
   56    69     1 
   56    70     1 
   57    61     1 
   57    63     1 
   57    64     1 
   57    68     1 
   58    60     1 
   58    62     1 
   58    66     1 
   58    67     1 
   59    60     1 
   59    62     1 
   59    66     1 
   59    67     1 
   60    66     1 
   60    67     1 
   60    71     1 
   60    72     1 
   61    63     1 
   61    64     1 
   61    65     1 
   61    69     1 
   61    70     1 
   62    69     1 
   62    70     1 
   63    66     1 
   63    67     1 
   63    68     1 
   64    66     1 
   64    67     1 
   64    68     1 
   65    68     1 
   68    73     1 
   68    74     1 
   68    83     1 
   69    71     1 
   69    72     1 
   70    75     1 
   70    76     1 
   70    77     1 
   70    84     1 
   70    85     1 
   71    73     1 
   71    74     1 
   71    83     1 
   72    78     1 
   72    79     1 
   72    80     1 
   72    86     1 
   72    87     1 
   73    75     1 
   73    76     1 
   73    77     1 
   73    84     1 
   73    85     1 
   74    81     1 
   74    82     1 
   74    84     1 
   74    85     1 
   75    78     1 
   75    79     1 
   75    80     1 
   75    83     1 
   76    78     1 
   76    79     1 
   76    80     1 
   76    83     1 
   77    83     1 
   78    81     1 
   78    82     1 
   79    81     1 
   79    82     1 
   83    88     1 
   83    89     1 
   83    97     1 
   84    86     1 
   84    87     1 
   85    90     1 
   85    91     1 
   85    93     1 
   85    98     1 
   85    99     1 
   86    88     1 
   86    89     1 
   86    97     1 
   87    92     1 
   87    94     1 
   87    95     1 
   87    96     1 
   87   100     1 
   87   101     1 
   88    90     1 
   88    91     1 
   88    93     1 
   88    98     1 
   88    99     1 
   89    98     1 
   89    99     1 
   90    92     1 
   90    94     1 
   90    95     1 
   90    96     1 
   90    97     1 
   91    94     1 
   91    95     1 
   91    96     1 
   91    97     1 
   92    93     1 
   93    97     1 
   97   102     1 
   97   103     1 
   97   104     1 
   98   100     1 
   98   101     1 
   99   105     1 
   99   106     1 
  100   102     1 
  100   103     1 
  100   104     1 
  101   107     1 
  101   108     1 
  102   105     1 
  102   106     1 
  103   105     1 
  103   106     1 
  104   109     1 
  104   110     1 
  104   118     1 
  105   107     1 
  105   108     1 
  106   111     1 
  106   112     1 
  106   114     1 
  106   119     1 
  106   120     1 
  107   109     1 
  107   110     1 
  107   118     1 
  108   113     1 
  108   115     1 
  108   116     1 
  108   117     1 
  108   121     1 
  108   122     1 
  109   111     1 
  109   112     1 
  109   114     1 
  109   119     1 
  109   120     1 
  110   119     1 
  110   120     1 
  111   113     1 
  111   115     1 
  111   116     1 
  111   117     1 
  111   118     1 
  112   115     1 
  112   116     1 
  112   117     1 
  112   118     1 
  113   114     1 
  114   118     1 
  118   123     1 
  118   124     1 
  118   142     1 
  119   121     1 
  119   122     1 
  120   125     1 
  120   126     1 
  120   127     1 
  120   143     1 
  120   144     1 
  121   123     1 
  121   124     1 
  121   142     1 
  122   128     1 
  122   133     1 
  122   145     1 
  122   146     1 
  123   125     1 
  123   126     1 
  123   127     1 
  123   143     1 
  123   144     1 
  124   129     1 
  124   130     1 
  124   132     1 
  124   134     1 
  124   143     1 
  124   144     1 
  125   128     1 
  125   133     1 
  125   142     1 
  126   128     1 
  126   133     1 
  126   142     1 
  127   131     1 
  127   135     1 
  127   136     1 
  127   138     1 
  127   142     1 
  128   134     1 
  128   138     1 
  129   131     1 
  129   132     1 
  129   133     1 
  130   134     1 
  130   139     1 
  130   140     1 
  131   133     1 
  131   138     1 
  132   135     1 
  132   136     1 
  132   141     1 
  133   137     1 
  133   139     1 
  133   140     1 
  134   138     1 
  134   141     1 
  135   137     1 
  135   140     1 
  136   139     1 
  137   138     1 
  137   141     1 
  139   141     1 
  142   147     1 
  142   148     1 
  142   163     1 
  143   145     1 
  143   146     1 
  144   149     1 
  144   150     1 
  144   151     1 
  144   164     1 
  144   165     1 
  145   147     1 
  145   148     1 
  145   163     1 
  146   152     1 
  146   159     1 
  147   149     1 
  147   150     1 
  147   151     1 
  147   164     1 
  147   165     1 
  148   153     1 
  148   154     1 
  148   160     1 
  148   161     1 
  148   164     1 
  148   165     1 
  149   152     1 
  149   159     1 
  149   163     1 
  150   152     1 
  150   159     1 
  150   163     1 
  151   155     1 
  151   156     1 
  151   162     1 
  151   163     1 
  152   157     1 
  152   160     1 
  152   161     1 
  153   155     1 
  153   156     1 
  153   159     1 
  154   158     1 
  154   159     1 
  154   162     1 
  155   157     1 
  155   161     1 
  156   160     1 
  157   159     1 
  157   162     1 
  158   161     1 
  160   162     1 

[ angles ]
;  ai    aj    ak funct            c0            c1            c2            c3
    2     1     3     5 
    2     1     4     5 
    2     1     5     5 
    3     1     4     5 
    3     1     5     5 
    4     1     5     5 
    1     5     6     5 
    1     5     7     5 
    1     5    22     5 
    6     5     7     5 
    6     5    22     5 
    7     5    22     5 
    5     7     8     5 
    5     7     9     5 
    5     7    10     5 
    8     7     9     5 
    8     7    10     5 
    9     7    10     5 
    7    10    11     5 
    7    10    18     5 
   11    10    18     5 
   10    11    12     5 
   10    11    13     5 
   12    11    13     5 
   11    13    14     5 
   11    13    15     5 
   14    13    15     5 
   13    15    16     5 
   13    15    20     5 
   16    15    20     5 
   15    16    17     5 
   10    18    19     5 
   10    18    20     5 
   19    18    20     5 
   15    20    18     5 
   15    20    21     5 
   18    20    21     5 
    5    22    23     5 
    5    22    24     5 
   23    22    24     5 
   22    24    25     5 
   22    24    26     5 
   25    24    26     5 
   24    26    27     5 
   24    26    28     5 
   24    26    43     5 
   27    26    28     5 
   27    26    43     5 
   28    26    43     5 
   26    28    29     5 
   26    28    30     5 
   26    28    31     5 
   29    28    30     5 
   29    28    31     5 
   30    28    31     5 
   28    31    32     5 
   28    31    39     5 
   32    31    39     5 
   31    32    33     5 
   31    32    34     5 
   33    32    34     5 
   32    34    35     5 
   32    34    36     5 
   35    34    36     5 
   34    36    37     5 
   34    36    41     5 
   37    36    41     5 
   36    37    38     5 
   31    39    40     5 
   31    39    41     5 
   40    39    41     5 
   36    41    39     5 
   36    41    42     5 
   39    41    42     5 
   26    43    44     5 
   26    43    45     5 
   44    43    45     5 
   43    45    46     5 
   43    45    47     5 
   46    45    47     5 
   45    47    48     5 
   45    47    49     5 
   45    47    54     5 
   48    47    49     5 
   48    47    54     5 
   49    47    54     5 
   47    49    50     5 
   47    49    51     5 
   47    49    52     5 
   50    49    51     5 
   50    49    52     5 
   51    49    52     5 
   49    52    53     5 
   47    54    55     5 
   47    54    56     5 
   55    54    56     5 
   54    56    57     5 
   54    56    60     5 
   57    56    60     5 
   56    57    58     5 
   56    57    59     5 
   56    57    65     5 
   58    57    59     5 
   58    57    65     5 
   59    57    65     5 
   56    60    61     5 
   56    60    62     5 
   56    60    68     5 
   61    60    62     5 
   61    60    68     5 
   62    60    68     5 
   60    62    63     5 
   60    62    64     5 
   60    62    65     5 
   63    62    64     5 
   63    62    65     5 
   64    62    65     5 
   57    65    62     5 
   57    65    66     5 
   57    65    67     5 
   62    65    66     5 
   62    65    67     5 
   66    65    67     5 
   60    68    69     5 
   60    68    70     5 
   69    68    70     5 
   68    70    71     5 
   68    70    72     5 
   71    70    72     5 
   70    72    73     5 
   70    72    74     5 
   70    72    83     5 
   73    72    74     5 
   73    72    83     5 
   74    72    83     5 
   72    74    75     5 
   72    74    76     5 
   72    74    77     5 
   75    74    76     5 
   75    74    77     5 
   76    74    77     5 
   74    77    78     5 
   74    77    79     5 
   74    77    80     5 
   78    77    79     5 
   78    77    80     5 
   79    77    80     5 
   77    80    81     5 
   77    80    82     5 
   81    80    82     5 
   72    83    84     5 
   72    83    85     5 
   84    83    85     5 
   83    85    86     5 
   83    85    87     5 
   86    85    87     5 
   85    87    88     5 
   85    87    89     5 
   85    87    97     5 
   88    87    89     5 
   88    87    97     5 
   89    87    97     5 
   87    89    90     5 
   87    89    91     5 
   87    89    93     5 
   90    89    91     5 
   90    89    93     5 
   91    89    93     5 
   89    91    92     5 
   89    93    94     5 
   89    93    95     5 
   89    93    96     5 
   94    93    95     5 
   94    93    96     5 
   95    93    96     5 
   87    97    98     5 
   87    97    99     5 
   98    97    99     5 
   97    99   100     5 
   97    99   101     5 
  100    99   101     5 
   99   101   102     5 
   99   101   103     5 
   99   101   104     5 
  102   101   103     5 
  102   101   104     5 
  103   101   104     5 
  101   104   105     5 
  101   104   106     5 
  105   104   106     5 
  104   106   107     5 
  104   106   108     5 
  107   106   108     5 
  106   108   109     5 
  106   108   110     5 
  106   108   118     5 
  109   108   110     5 
  109   108   118     5 
  110   108   118     5 
  108   110   111     5 
  108   110   112     5 
  108   110   114     5 
  111   110   112     5 
  111   110   114     5 
  112   110   114     5 
  110   112   113     5 
  110   114   115     5 
  110   114   116     5 
  110   114   117     5 
  115   114   116     5 
  115   114   117     5 
  116   114   117     5 
  108   118   119     5 
  108   118   120     5 
  119   118   120     5 
  118   120   121     5 
  118   120   122     5 
  121   120   122     5 
  120   122   123     5 
  120   122   124     5 
  120   122   142     5 
  123   122   124     5 
  123   122   142     5 
  124   122   142     5 
  122   124   125     5 
  122   124   126     5 
  122   124   127     5 
  125   124   126     5 
  125   124   127     5 
  126   124   127     5 
  124   127   128     5 
  124   127   133     5 
  128   127   133     5 
  127   128   129     5 
  127   128   130     5 
  129   128   130     5 
  128   130   131     5 
  128   130   132     5 
  131   130   132     5 
  130   132   133     5 
  130   132   138     5 
  133   132   138     5 
  127   133   132     5 
  127   133   134     5 
  132   133   134     5 
  133   134   135     5 
  133   134   136     5 
  135   134   136     5 
  134   136   137     5 
  134   136   140     5 
  137   136   140     5 
  132   138   139     5 
  132   138   140     5 
  139   138   140     5 
  136   140   138     5 
  136   140   141     5 
  138   140   141     5 
  122   142   143     5 
  122   142   144     5 
  143   142   144     5 
  142   144   145     5 
  142   144   146     5 
  145   144   146     5 
  144   146   147     5 
  144   146   148     5 
  144   146   163     5 
  147   146   148     5 
  147   146   163     5 
  148   146   163     5 
  146   148   149     5 
  146   148   150     5 
  146   148   151     5 
  149   148   150     5 
  149   148   151     5 
  150   148   151     5 
  148   151   152     5 
  148   151   159     5 
  152   151   159     5 
  151   152   153     5 
  151   152   154     5 
  153   152   154     5 
  152   154   155     5 
  152   154   156     5 
  155   154   156     5 
  154   156   157     5 
  154   156   161     5 
  157   156   161     5 
  156   157   158     5 
  151   159   160     5 
  151   159   161     5 
  160   159   161     5 
  156   161   159     5 
  156   161   162     5 
  159   161   162     5 
  146   163   164     5 
  146   163   165     5 
  164   163   165     5 

[ dihedrals ]
;  ai    aj    ak    al funct            c0            c1            c2            c3            c4            c5
    2     1     5     6     9 
    2     1     5     7     9 
    2     1     5    22     9 
    3     1     5     6     9 
    3     1     5     7     9 
    3     1     5    22     9 
    4     1     5     6     9 
    4     1     5     7     9 
    4     1     5    22     9 
    1     5     7     8     9 
    1     5     7     9     9 
    1     5     7    10     9 
    6     5     7     8     9 
    6     5     7     9     9 
    6     5     7    10     9 
   22     5     7     8     9 
   22     5     7     9     9 
   22     5     7    10     9 
    1     5    22    23     9 
    1     5    22    24     9 
    6     5    22    23     9 
    6     5    22    24     9 
    7     5    22    23     9 
    7     5    22    24     9 
    5     7    10    11     9 
    5     7    10    18     9 
    8     7    10    11     9 
    8     7    10    18     9 
    9     7    10    11     9 
    9     7    10    18     9 
    7    10    11    12     9 
    7    10    11    13     9 
   18    10    11    12     9 
   18    10    11    13     9 
    7    10    18    19     9 
    7    10    18    20     9 
   11    10    18    19     9 
   11    10    18    20     9 
   10    11    13    14     9 
   10    11    13    15     9 
   12    11    13    14     9 
   12    11    13    15     9 
   11    13    15    16     9 
   11    13    15    20     9 
   14    13    15    16     9 
   14    13    15    20     9 
   13    15    16    17     9 
   20    15    16    17     9 
   13    15    20    18     9 
   13    15    20    21     9 
   16    15    20    18     9 
   16    15    20    21     9 
   10    18    20    15     9 
   10    18    20    21     9 
   19    18    20    15     9 
   19    18    20    21     9 
    5    22    24    25     9 
    5    22    24    26     9 
   23    22    24    25     9 
   23    22    24    26     9 
   22    24    26    27     9 
   22    24    26    28     9 
   22    24    26    43     9 
   25    24    26    27     9 
   25    24    26    28     9 
   25    24    26    43     9 
   24    26    28    29     9 
   24    26    28    30     9 
   24    26    28    31     9 
   27    26    28    29     9 
   27    26    28    30     9 
   27    26    28    31     9 
   43    26    28    29     9 
   43    26    28    30     9 
   43    26    28    31     9 
   24    26    43    44     9 
   24    26    43    45     9 
   27    26    43    44     9 
   27    26    43    45     9 
   28    26    43    44     9 
   28    26    43    45     9 
   26    28    31    32     9 
   26    28    31    39     9 
   29    28    31    32     9 
   29    28    31    39     9 
   30    28    31    32     9 
   30    28    31    39     9 
   28    31    32    33     9 
   28    31    32    34     9 
   39    31    32    33     9 
   39    31    32    34     9 
   28    31    39    40     9 
   28    31    39    41     9 
   32    31    39    40     9 
   32    31    39    41     9 
   31    32    34    35     9 
   31    32    34    36     9 
   33    32    34    35     9 
   33    32    34    36     9 
   32    34    36    37     9 
   32    34    36    41     9 
   35    34    36    37     9 
   35    34    36    41     9 
   34    36    37    38     9 
   41    36    37    38     9 
   34    36    41    39     9 
   34    36    41    42     9 
   37    36    41    39     9 
   37    36    41    42     9 
   31    39    41    36     9 
   31    39    41    42     9 
   40    39    41    36     9 
   40    39    41    42     9 
   26    43    45    46     9 
   26    43    45    47     9 
   44    43    45    46     9 
   44    43    45    47     9 
   43    45    47    48     9 
   43    45    47    49     9 
   43    45    47    54     9 
   46    45    47    48     9 
   46    45    47    49     9 
   46    45    47    54     9 
   45    47    49    50     9 
   45    47    49    51     9 
   45    47    49    52     9 
   48    47    49    50     9 
   48    47    49    51     9 
   48    47    49    52     9 
   54    47    49    50     9 
   54    47    49    51     9 
   54    47    49    52     9 
   45    47    54    55     9 
   45    47    54    56     9 
   48    47    54    55     9 
   48    47    54    56     9 
   49    47    54    55     9 
   49    47    54    56     9 
   47    49    52    53     9 
   50    49    52    53     9 
   51    49    52    53     9 
   47    54    56    57     9 
   47    54    56    60     9 
   55    54    56    57     9 
   55    54    56    60     9 
   54    56    57    58     9 
   54    56    57    59     9 
   54    56    57    65     9 
   60    56    57    58     9 
   60    56    57    59     9 
   60    56    57    65     9 
   54    56    60    61     9 
   54    56    60    62     9 
   54    56    60    68     9 
   57    56    60    61     9 
   57    56    60    62     9 
   57    56    60    68     9 
   56    57    65    62     9 
   56    57    65    66     9 
   56    57    65    67     9 
   58    57    65    62     9 
   58    57    65    66     9 
   58    57    65    67     9 
   59    57    65    62     9 
   59    57    65    66     9 
   59    57    65    67     9 
   56    60    62    63     9 
   56    60    62    64     9 
   56    60    62    65     9 
   61    60    62    63     9 
   61    60    62    64     9 
   61    60    62    65     9 
   68    60    62    63     9 
   68    60    62    64     9 
   68    60    62    65     9 
   56    60    68    69     9 
   56    60    68    70     9 
   61    60    68    69     9 
   61    60    68    70     9 
   62    60    68    69     9 
   62    60    68    70     9 
   60    62    65    57     9 
   60    62    65    66     9 
   60    62    65    67     9 
   63    62    65    57     9 
   63    62    65    66     9 
   63    62    65    67     9 
   64    62    65    57     9 
   64    62    65    66     9 
   64    62    65    67     9 
   60    68    70    71     9 
   60    68    70    72     9 
   69    68    70    71     9 
   69    68    70    72     9 
   68    70    72    73     9 
   68    70    72    74     9 
   68    70    72    83     9 
   71    70    72    73     9 
   71    70    72    74     9 
   71    70    72    83     9 
   70    72    74    75     9 
   70    72    74    76     9 
   70    72    74    77     9 
   73    72    74    75     9 
   73    72    74    76     9 
   73    72    74    77     9 
   83    72    74    75     9 
   83    72    74    76     9 
   83    72    74    77     9 
   70    72    83    84     9 
   70    72    83    85     9 
   73    72    83    84     9 
   73    72    83    85     9 
   74    72    83    84     9 
   74    72    83    85     9 
   72    74    77    78     9 
   72    74    77    79     9 
   72    74    77    80     9 
   75    74    77    78     9 
   75    74    77    79     9 
   75    74    77    80     9 
   76    74    77    78     9 
   76    74    77    79     9 
   76    74    77    80     9 
   74    77    80    81     9 
   74    77    80    82     9 
   78    77    80    81     9 
   78    77    80    82     9 
   79    77    80    81     9 
   79    77    80    82     9 
   72    83    85    86     9 
   72    83    85    87     9 
   84    83    85    86     9 
   84    83    85    87     9 
   83    85    87    88     9 
   83    85    87    89     9 
   83    85    87    97     9 
   86    85    87    88     9 
   86    85    87    89     9 
   86    85    87    97     9 
   85    87    89    90     9 
   85    87    89    91     9 
   85    87    89    93     9 
   88    87    89    90     9 
   88    87    89    91     9 
   88    87    89    93     9 
   97    87    89    90     9 
   97    87    89    91     9 
   97    87    89    93     9 
   85    87    97    98     9 
   85    87    97    99     9 
   88    87    97    98     9 
   88    87    97    99     9 
   89    87    97    98     9 
   89    87    97    99     9 
   87    89    91    92     9 
   90    89    91    92     9 
   93    89    91    92     9 
   87    89    93    94     9 
   87    89    93    95     9 
   87    89    93    96     9 
   90    89    93    94     9 
   90    89    93    95     9 
   90    89    93    96     9 
   91    89    93    94     9 
   91    89    93    95     9 
   91    89    93    96     9 
   87    97    99   100     9 
   87    97    99   101     9 
   98    97    99   100     9 
   98    97    99   101     9 
   97    99   101   102     9 
   97    99   101   103     9 
   97    99   101   104     9 
  100    99   101   102     9 
  100    99   101   103     9 
  100    99   101   104     9 
   99   101   104   105     9 
   99   101   104   106     9 
  102   101   104   105     9 
  102   101   104   106     9 
  103   101   104   105     9 
  103   101   104   106     9 
  101   104   106   107     9 
  101   104   106   108     9 
  105   104   106   107     9 
  105   104   106   108     9 
  104   106   108   109     9 
  104   106   108   110     9 
  104   106   108   118     9 
  107   106   108   109     9 
  107   106   108   110     9 
  107   106   108   118     9 
  106   108   110   111     9 
  106   108   110   112     9 
  106   108   110   114     9 
  109   108   110   111     9 
  109   108   110   112     9 
  109   108   110   114     9 
  118   108   110   111     9 
  118   108   110   112     9 
  118   108   110   114     9 
  106   108   118   119     9 
  106   108   118   120     9 
  109   108   118   119     9 
  109   108   118   120     9 
  110   108   118   119     9 
  110   108   118   120     9 
  108   110   112   113     9 
  111   110   112   113     9 
  114   110   112   113     9 
  108   110   114   115     9 
  108   110   114   116     9 
  108   110   114   117     9 
  111   110   114   115     9 
  111   110   114   116     9 
  111   110   114   117     9 
  112   110   114   115     9 
  112   110   114   116     9 
  112   110   114   117     9 
  108   118   120   121     9 
  108   118   120   122     9 
  119   118   120   121     9 
  119   118   120   122     9 
  118   120   122   123     9 
  118   120   122   124     9 
  118   120   122   142     9 
  121   120   122   123     9 
  121   120   122   124     9 
  121   120   122   142     9 
  120   122   124   125     9 
  120   122   124   126     9 
  120   122   124   127     9 
  123   122   124   125     9 
  123   122   124   126     9 
  123   122   124   127     9 
  142   122   124   125     9 
  142   122   124   126     9 
  142   122   124   127     9 
  120   122   142   143     9 
  120   122   142   144     9 
  123   122   142   143     9 
  123   122   142   144     9 
  124   122   142   143     9 
  124   122   142   144     9 
  122   124   127   128     9 
  122   124   127   133     9 
  125   124   127   128     9 
  125   124   127   133     9 
  126   124   127   128     9 
  126   124   127   133     9 
  124   127   128   129     9 
  124   127   128   130     9 
  133   127   128   129     9 
  133   127   128   130     9 
  124   127   133   132     9 
  124   127   133   134     9 
  128   127   133   132     9 
  128   127   133   134     9 
  127   128   130   131     9 
  127   128   130   132     9 
  129   128   130   131     9 
  129   128   130   132     9 
  128   130   132   133     9 
  128   130   132   138     9 
  131   130   132   133     9 
  131   130   132   138     9 
  130   132   133   127     9 
  130   132   133   134     9 
  138   132   133   127     9 
  138   132   133   134     9 
  130   132   138   139     9 
  130   132   138   140     9 
  133   132   138   139     9 
  133   132   138   140     9 
  127   133   134   135     9 
  127   133   134   136     9 
  132   133   134   135     9 
  132   133   134   136     9 
  133   134   136   137     9 
  133   134   136   140     9 
  135   134   136   137     9 
  135   134   136   140     9 
  134   136   140   138     9 
  134   136   140   141     9 
  137   136   140   138     9 
  137   136   140   141     9 
  132   138   140   136     9 
  132   138   140   141     9 
  139   138   140   136     9 
  139   138   140   141     9 
  122   142   144   145     9 
  122   142   144   146     9 
  143   142   144   145     9 
  143   142   144   146     9 
  142   144   146   147     9 
  142   144   146   148     9 
  142   144   146   163     9 
  145   144   146   147     9 
  145   144   146   148     9 
  145   144   146   163     9 
  144   146   148   149     9 
  144   146   148   150     9 
  144   146   148   151     9 
  147   146   148   149     9 
  147   146   148   150     9 
  147   146   148   151     9 
  163   146   148   149     9 
  163   146   148   150     9 
  163   146   148   151     9 
  144   146   163   164     9 
  144   146   163   165     9 
  147   146   163   164     9 
  147   146   163   165     9 
  148   146   163   164     9 
  148   146   163   165     9 
  146   148   151   152     9 
  146   148   151   159     9 
  149   148   151   152     9 
  149   148   151   159     9 
  150   148   151   152     9 
  150   148   151   159     9 
  148   151   152   153     9 
  148   151   152   154     9 
  159   151   152   153     9 
  159   151   152   154     9 
  148   151   159   160     9 
  148   151   159   161     9 
  152   151   159   160     9 
  152   151   159   161     9 
  151   152   154   155     9 
  151   152   154   156     9 
  153   152   154   155     9 
  153   152   154   156     9 
  152   154   156   157     9 
  152   154   156   161     9 
  155   154   156   157     9 
  155   154   156   161     9 
  154   156   157   158     9 
  161   156   157   158     9 
  154   156   161   159     9 
  154   156   161   162     9 
  157   156   161   159     9 
  157   156   161   162     9 
  151   159   161   156     9 
  151   159   161   162     9 
  160   159   161   156     9 
  160   159   161   162     9 

[ dihedrals ]
;  ai    aj    ak    al funct            c0            c1            c2            c3
   22     5    24    23     2 
   24    22    26    25     2 
   43    26    45    44     2 
   45    43    47    46     2 
   54    47    56    55     2 
   56    54    60    57     2 
   68    60    70    69     2 
   70    68    72    71     2 
   80    77    82    81     2 
   83    72    85    84     2 
   85    83    87    86     2 
   97    87    99    98     2 
   99    97   101   100     2 
  104   101   106   105     2 
  106   104   108   107     2 
  118   108   120   119     2 
  120   118   122   121     2 
  142   122   144   143     2 
  144   142   146   145     2 
  163   146   165   164     2 

[ cmap ]
;  ai    aj    ak    al    am funct
   54    56    60    68    70     1 
   97    99   101   104   106     1 

; Include Position restraint file
#ifdef POSRES
#include "posre.itp"
#endif

; Include water topology
#include "charmm22star.ff/tip3p.itp"

#ifdef POSRES_WATER
; Position restraint for each water oxygen
[ position_restraints ]
;  i funct       fcx        fcy        fcz
   1    1       1000       1000       1000
#endif

; Include topology for ions
#include "charmm22star.ff/ions.itp"

[ system ]
; Name
Protein in water

[ molecules ]
; Compound        #mols
Protein_chain_A     1
SOL         1759
NA               1
