;
;	File 'topol.top' was generated
;	By user: muralika.m (21947)
;	On host: zeus
;	At date: Mon Apr 14 19:13:20 2025
;
;	This is a standalone topology file
;
;	Created by:
;	                    :-) GROMACS - gmx pdb2gmx, 2019.6 (-:
;	
;	Executable:   /home/muralika.m/.conda/envs/muralika/bin/gmx_mpi
;	Data prefix:  /home/muralika.m/.conda/envs/muralika
;	Working dir:  /rg/mendels_prj/muralika.m/ub/New_mutns/YYNPETGTWY
;	Command line:
;	  gmx_mpi pdb2gmx -f YYNPETGTWY.pdb -o processed_structure.gro -p topol.top -asp -glu -ter
;	Force field was read from the standard GROMACS share directory.
;

; Include forcefield parameters
#include "charmm22star.ff/forcefield.itp"

[ moleculetype ]
; Name            nrexcl
Protein_chain_A     3

[ atoms ]
;   nr       type  resnr residue  atom   cgnr     charge       mass  typeB    chargeB      massB
; residue   0 TYR rtp TYR  q +1.0
     1        NH3      0    TYR      N      1       -0.3    14.0027
     2         HC      0    TYR     H1      2       0.33      1.008
     3         HC      0    TYR     H2      3       0.33      1.008
     4         HC      0    TYR     H3      4       0.33      1.008
     5        CT1      0    TYR     CA      5       0.21     12.011
     6         HB      0    TYR     HA      6        0.1      1.008
     7        CT2      0    TYR     CB      7      -0.18     12.011
     8         HA      0    TYR    HB1      8       0.09      1.008
     9         HA      0    TYR    HB2      9       0.09      1.008
    10         CA      0    TYR     CG     10          0     12.011
    11         CA      0    TYR    CD1     11     -0.115     12.011
    12         HP      0    TYR    HD1     12      0.115      1.008
    13         CA      0    TYR    CE1     13     -0.115     12.011
    14         HP      0    TYR    HE1     14      0.115      1.008
    15         CA      0    TYR     CZ     15       0.11     12.011
    16        OH1      0    TYR     OH     16      -0.54     15.999
    17          H      0    TYR     HH     17       0.43      1.008
    18         CA      0    TYR    CD2     18     -0.115     12.011
    19         HP      0    TYR    HD2     19      0.115      1.008
    20         CA      0    TYR    CE2     20     -0.115     12.011
    21         HP      0    TYR    HE2     21      0.115      1.008
    22          C      0    TYR      C     22       0.51     12.011
    23          O      0    TYR      O     23      -0.51     15.999   ; qtot 1
; residue   1 TYR rtp TYR  q  0.0
    24        NH1      1    TYR      N     24      -0.47     14.007
    25          H      1    TYR     HN     25       0.31      1.008
    26        CT1      1    TYR     CA     26       0.07     12.011
    27         HB      1    TYR     HA     27       0.09      1.008
    28        CT2      1    TYR     CB     28      -0.18     12.011
    29         HA      1    TYR    HB1     29       0.09      1.008
    30         HA      1    TYR    HB2     30       0.09      1.008
    31         CA      1    TYR     CG     31          0     12.011
    32         CA      1    TYR    CD1     32     -0.115     12.011
    33         HP      1    TYR    HD1     33      0.115      1.008
    34         CA      1    TYR    CE1     34     -0.115     12.011
    35         HP      1    TYR    HE1     35      0.115      1.008
    36         CA      1    TYR     CZ     36       0.11     12.011
    37        OH1      1    TYR     OH     37      -0.54     15.999
    38          H      1    TYR     HH     38       0.43      1.008
    39         CA      1    TYR    CD2     39     -0.115     12.011
    40         HP      1    TYR    HD2     40      0.115      1.008
    41         CA      1    TYR    CE2     41     -0.115     12.011
    42         HP      1    TYR    HE2     42      0.115      1.008
    43          C      1    TYR      C     43       0.51     12.011
    44          O      1    TYR      O     44      -0.51     15.999   ; qtot 1
; residue   2 ASN rtp ASN  q  0.0
    45        NH1      2    ASN      N     45      -0.47     14.007
    46          H      2    ASN     HN     46       0.31      1.008
    47        CT1      2    ASN     CA     47       0.07     12.011
    48         HB      2    ASN     HA     48       0.09      1.008
    49        CT2      2    ASN     CB     49      -0.18     12.011
    50         HA      2    ASN    HB1     50       0.09      1.008
    51         HA      2    ASN    HB2     51       0.09      1.008
    52         CC      2    ASN     CG     52       0.55     12.011
    53          O      2    ASN    OD1     53      -0.55     15.999
    54        NH2      2    ASN    ND2     54      -0.62     14.007
    55          H      2    ASN   HD21     55       0.32      1.008
    56          H      2    ASN   HD22     56        0.3      1.008
    57          C      2    ASN      C     57       0.51     12.011
    58          O      2    ASN      O     58      -0.51     15.999   ; qtot 1
; residue   3 PRO rtp PRO  q  0.0
    59          N      3    PRO      N     59      -0.29     14.007
    60        CP3      3    PRO     CD     60          0     12.011
    61         HA      3    PRO    HD1     61       0.09      1.008
    62         HA      3    PRO    HD2     62       0.09      1.008
    63        CP1      3    PRO     CA     63       0.02     12.011
    64         HB      3    PRO     HA     64       0.09      1.008
    65        CP2      3    PRO     CB     65      -0.18     12.011
    66         HA      3    PRO    HB1     66       0.09      1.008
    67         HA      3    PRO    HB2     67       0.09      1.008
    68        CP2      3    PRO     CG     68      -0.18     12.011
    69         HA      3    PRO    HG1     69       0.09      1.008
    70         HA      3    PRO    HG2     70       0.09      1.008
    71          C      3    PRO      C     71       0.51     12.011
    72          O      3    PRO      O     72      -0.51     15.999   ; qtot 1
; residue   4 GLU rtp GLU  q -1.0
    73        NH1      4    GLU      N     73      -0.47     14.007
    74          H      4    GLU     HN     74       0.31      1.008
    75        CT1      4    GLU     CA     75       0.07     12.011
    76         HB      4    GLU     HA     76       0.09      1.008
    77        CT2      4    GLU     CB     77      -0.18     12.011
    78         HA      4    GLU    HB1     78       0.09      1.008
    79         HA      4    GLU    HB2     79       0.09      1.008
    80        CT2      4    GLU     CG     80      -0.28     12.011
    81         HA      4    GLU    HG1     81       0.05      1.008
    82         HA      4    GLU    HG2     82       0.05      1.008
    83         CC      4    GLU     CD     83       0.56     12.011
    84         OC      4    GLU    OE1     84      -0.69     15.999
    85         OC      4    GLU    OE2     85      -0.69     15.999
    86          C      4    GLU      C     86       0.51     12.011
    87          O      4    GLU      O     87      -0.51     15.999   ; qtot 0
; residue   5 THR rtp THR  q  0.0
    88        NH1      5    THR      N     88      -0.47     14.007
    89          H      5    THR     HN     89       0.31      1.008
    90        CT1      5    THR     CA     90       0.07     12.011
    91         HB      5    THR     HA     91       0.09      1.008
    92        CT1      5    THR     CB     92       0.14     12.011
    93         HA      5    THR     HB     93       0.09      1.008
    94        OH1      5    THR    OG1     94      -0.66     15.999
    95          H      5    THR    HG1     95       0.43      1.008
    96        CT3      5    THR    CG2     96      -0.27     12.011
    97         HA      5    THR   HG21     97       0.09      1.008
    98         HA      5    THR   HG22     98       0.09      1.008
    99         HA      5    THR   HG23     99       0.09      1.008
   100          C      5    THR      C    100       0.51     12.011
   101          O      5    THR      O    101      -0.51     15.999   ; qtot 0
; residue   6 GLY rtp GLY  q  0.0
   102        NH1      6    GLY      N    102      -0.47     14.007
   103          H      6    GLY     HN    103       0.31      1.008
   104        CT2      6    GLY     CA    104      -0.02     12.011
   105         HB      6    GLY    HA1    105       0.09      1.008
   106         HB      6    GLY    HA2    106       0.09      1.008
   107          C      6    GLY      C    107       0.51     12.011
   108          O      6    GLY      O    108      -0.51     15.999   ; qtot 0
; residue   7 THR rtp THR  q  0.0
   109        NH1      7    THR      N    109      -0.47     14.007
   110          H      7    THR     HN    110       0.31      1.008
   111        CT1      7    THR     CA    111       0.07     12.011
   112         HB      7    THR     HA    112       0.09      1.008
   113        CT1      7    THR     CB    113       0.14     12.011
   114         HA      7    THR     HB    114       0.09      1.008
   115        OH1      7    THR    OG1    115      -0.66     15.999
   116          H      7    THR    HG1    116       0.43      1.008
   117        CT3      7    THR    CG2    117      -0.27     12.011
   118         HA      7    THR   HG21    118       0.09      1.008
   119         HA      7    THR   HG22    119       0.09      1.008
   120         HA      7    THR   HG23    120       0.09      1.008
   121          C      7    THR      C    121       0.51     12.011
   122          O      7    THR      O    122      -0.51     15.999   ; qtot 0
; residue   8 TRP rtp TRP  q  0.0
   123        NH1      8    TRP      N    123      -0.47     14.007
   124          H      8    TRP     HN    124       0.31      1.008
   125        CT1      8    TRP     CA    125       0.07     12.011
   126         HB      8    TRP     HA    126       0.09      1.008
   127        CT2      8    TRP     CB    127      -0.18     12.011
   128         HA      8    TRP    HB1    128       0.09      1.008
   129         HA      8    TRP    HB2    129       0.09      1.008
   130         CY      8    TRP     CG    130      -0.03     12.011
   131         CA      8    TRP    CD1    131      0.035     12.011
   132         HP      8    TRP    HD1    132      0.115      1.008
   133         NY      8    TRP    NE1    133      -0.61     14.007
   134          H      8    TRP    HE1    134       0.38      1.008
   135        CPT      8    TRP    CE2    135       0.13     12.011
   136        CPT      8    TRP    CD2    136      -0.02     12.011
   137         CA      8    TRP    CE3    137     -0.115     12.011
   138         HP      8    TRP    HE3    138      0.115      1.008
   139         CA      8    TRP    CZ3    139     -0.115     12.011
   140         HP      8    TRP    HZ3    140      0.115      1.008
   141         CA      8    TRP    CZ2    141     -0.115     12.011
   142         HP      8    TRP    HZ2    142      0.115      1.008
   143         CA      8    TRP    CH2    143     -0.115     12.011
   144         HP      8    TRP    HH2    144      0.115      1.008
   145          C      8    TRP      C    145       0.51     12.011
   146          O      8    TRP      O    146      -0.51     15.999   ; qtot 0
; residue   9 TYR rtp TYR  q -1.0
   147        NH1      9    TYR      N    147      -0.47     14.007
   148          H      9    TYR     HN    148       0.31      1.008
   149        CT1      9    TYR     CA    149       0.07     12.011
   150         HB      9    TYR     HA    150       0.09      1.008
   151        CT2      9    TYR     CB    151      -0.18     12.011
   152         HA      9    TYR    HB1    152       0.09      1.008
   153         HA      9    TYR    HB2    153       0.09      1.008
   154         CA      9    TYR     CG    154          0     12.011
   155         CA      9    TYR    CD1    155     -0.115     12.011
   156         HP      9    TYR    HD1    156      0.115      1.008
   157         CA      9    TYR    CE1    157     -0.115     12.011
   158         HP      9    TYR    HE1    158      0.115      1.008
   159         CA      9    TYR     CZ    159       0.11     12.011
   160        OH1      9    TYR     OH    160      -0.54     15.999
   161          H      9    TYR     HH    161       0.43      1.008
   162         CA      9    TYR    CD2    162     -0.115     12.011
   163         HP      9    TYR    HD2    163      0.115      1.008
   164         CA      9    TYR    CE2    164     -0.115     12.011
   165         HP      9    TYR    HE2    165      0.115      1.008
   166         CC      9    TYR      C    166       0.34     12.011
   167         OC      9    TYR    OT1    167      -0.67    15.9994
   168         OC      9    TYR    OT2    168      -0.67    15.9994   ; qtot -1

[ bonds ]
;  ai    aj funct            c0            c1            c2            c3
    1     2     1 
    1     3     1 
    1     4     1 
    1     5     1 
    5     6     1 
    5     7     1 
    5    22     1 
    7     8     1 
    7     9     1 
    7    10     1 
   10    11     1 
   10    18     1 
   11    12     1 
   11    13     1 
   13    14     1 
   13    15     1 
   15    16     1 
   15    20     1 
   16    17     1 
   18    19     1 
   18    20     1 
   20    21     1 
   22    23     1 
   22    24     1 
   24    25     1 
   24    26     1 
   26    27     1 
   26    28     1 
   26    43     1 
   28    29     1 
   28    30     1 
   28    31     1 
   31    32     1 
   31    39     1 
   32    33     1 
   32    34     1 
   34    35     1 
   34    36     1 
   36    37     1 
   36    41     1 
   37    38     1 
   39    40     1 
   39    41     1 
   41    42     1 
   43    44     1 
   43    45     1 
   45    46     1 
   45    47     1 
   47    48     1 
   47    49     1 
   47    57     1 
   49    50     1 
   49    51     1 
   49    52     1 
   52    53     1 
   52    54     1 
   54    55     1 
   54    56     1 
   57    58     1 
   57    59     1 
   59    60     1 
   59    63     1 
   60    61     1 
   60    62     1 
   60    68     1 
   63    64     1 
   63    65     1 
   63    71     1 
   65    66     1 
   65    67     1 
   65    68     1 
   68    69     1 
   68    70     1 
   71    72     1 
   71    73     1 
   73    74     1 
   73    75     1 
   75    76     1 
   75    77     1 
   75    86     1 
   77    78     1 
   77    79     1 
   77    80     1 
   80    81     1 
   80    82     1 
   80    83     1 
   83    84     1 
   83    85     1 
   86    87     1 
   86    88     1 
   88    89     1 
   88    90     1 
   90    91     1 
   90    92     1 
   90   100     1 
   92    93     1 
   92    94     1 
   92    96     1 
   94    95     1 
   96    97     1 
   96    98     1 
   96    99     1 
  100   101     1 
  100   102     1 
  102   103     1 
  102   104     1 
  104   105     1 
  104   106     1 
  104   107     1 
  107   108     1 
  107   109     1 
  109   110     1 
  109   111     1 
  111   112     1 
  111   113     1 
  111   121     1 
  113   114     1 
  113   115     1 
  113   117     1 
  115   116     1 
  117   118     1 
  117   119     1 
  117   120     1 
  121   122     1 
  121   123     1 
  123   124     1 
  123   125     1 
  125   126     1 
  125   127     1 
  125   145     1 
  127   128     1 
  127   129     1 
  127   130     1 
  130   131     1 
  130   136     1 
  131   132     1 
  131   133     1 
  133   134     1 
  133   135     1 
  135   136     1 
  135   141     1 
  136   137     1 
  137   138     1 
  137   139     1 
  139   140     1 
  139   143     1 
  141   142     1 
  141   143     1 
  143   144     1 
  145   146     1 
  145   147     1 
  147   148     1 
  147   149     1 
  149   150     1 
  149   151     1 
  149   166     1 
  151   152     1 
  151   153     1 
  151   154     1 
  154   155     1 
  154   162     1 
  155   156     1 
  155   157     1 
  157   158     1 
  157   159     1 
  159   160     1 
  159   164     1 
  160   161     1 
  162   163     1 
  162   164     1 
  164   165     1 
  166   167     1 
  166   168     1 

[ pairs ]
;  ai    aj funct            c0            c1            c2            c3
    1     8     1 
    1     9     1 
    1    10     1 
    1    23     1 
    1    24     1 
    2     6     1 
    2     7     1 
    2    22     1 
    3     6     1 
    3     7     1 
    3    22     1 
    4     6     1 
    4     7     1 
    4    22     1 
    5    11     1 
    5    18     1 
    5    25     1 
    5    26     1 
    6     8     1 
    6     9     1 
    6    10     1 
    6    23     1 
    6    24     1 
    7    12     1 
    7    13     1 
    7    19     1 
    7    20     1 
    7    23     1 
    7    24     1 
    8    11     1 
    8    18     1 
    8    22     1 
    9    11     1 
    9    18     1 
    9    22     1 
   10    14     1 
   10    15     1 
   10    21     1 
   10    22     1 
   11    16     1 
   11    19     1 
   11    20     1 
   12    14     1 
   12    15     1 
   12    18     1 
   13    17     1 
   13    18     1 
   13    21     1 
   14    16     1 
   14    20     1 
   15    19     1 
   16    18     1 
   16    21     1 
   17    20     1 
   19    21     1 
   22    27     1 
   22    28     1 
   22    43     1 
   23    25     1 
   23    26     1 
   24    29     1 
   24    30     1 
   24    31     1 
   24    44     1 
   24    45     1 
   25    27     1 
   25    28     1 
   25    43     1 
   26    32     1 
   26    39     1 
   26    46     1 
   26    47     1 
   27    29     1 
   27    30     1 
   27    31     1 
   27    44     1 
   27    45     1 
   28    33     1 
   28    34     1 
   28    40     1 
   28    41     1 
   28    44     1 
   28    45     1 
   29    32     1 
   29    39     1 
   29    43     1 
   30    32     1 
   30    39     1 
   30    43     1 
   31    35     1 
   31    36     1 
   31    42     1 
   31    43     1 
   32    37     1 
   32    40     1 
   32    41     1 
   33    35     1 
   33    36     1 
   33    39     1 
   34    38     1 
   34    39     1 
   34    42     1 
   35    37     1 
   35    41     1 
   36    40     1 
   37    39     1 
   37    42     1 
   38    41     1 
   40    42     1 
   43    48     1 
   43    49     1 
   43    57     1 
   44    46     1 
   44    47     1 
   45    50     1 
   45    51     1 
   45    52     1 
   45    58     1 
   45    59     1 
   46    48     1 
   46    49     1 
   46    57     1 
   47    53     1 
   47    54     1 
   47    60     1 
   47    63     1 
   48    50     1 
   48    51     1 
   48    52     1 
   48    58     1 
   48    59     1 
   49    55     1 
   49    56     1 
   49    58     1 
   49    59     1 
   50    53     1 
   50    54     1 
   50    57     1 
   51    53     1 
   51    54     1 
   51    57     1 
   52    57     1 
   53    55     1 
   53    56     1 
   57    61     1 
   57    62     1 
   57    64     1 
   57    65     1 
   57    68     1 
   57    71     1 
   58    60     1 
   58    63     1 
   59    66     1 
   59    67     1 
   59    69     1 
   59    70     1 
   59    72     1 
   59    73     1 
   60    64     1 
   60    66     1 
   60    67     1 
   60    71     1 
   61    63     1 
   61    65     1 
   61    69     1 
   61    70     1 
   62    63     1 
   62    65     1 
   62    69     1 
   62    70     1 
   63    69     1 
   63    70     1 
   63    74     1 
   63    75     1 
   64    66     1 
   64    67     1 
   64    68     1 
   64    72     1 
   64    73     1 
   65    72     1 
   65    73     1 
   66    69     1 
   66    70     1 
   66    71     1 
   67    69     1 
   67    70     1 
   67    71     1 
   68    71     1 
   71    76     1 
   71    77     1 
   71    86     1 
   72    74     1 
   72    75     1 
   73    78     1 
   73    79     1 
   73    80     1 
   73    87     1 
   73    88     1 
   74    76     1 
   74    77     1 
   74    86     1 
   75    81     1 
   75    82     1 
   75    83     1 
   75    89     1 
   75    90     1 
   76    78     1 
   76    79     1 
   76    80     1 
   76    87     1 
   76    88     1 
   77    84     1 
   77    85     1 
   77    87     1 
   77    88     1 
   78    81     1 
   78    82     1 
   78    83     1 
   78    86     1 
   79    81     1 
   79    82     1 
   79    83     1 
   79    86     1 
   80    86     1 
   81    84     1 
   81    85     1 
   82    84     1 
   82    85     1 
   86    91     1 
   86    92     1 
   86   100     1 
   87    89     1 
   87    90     1 
   88    93     1 
   88    94     1 
   88    96     1 
   88   101     1 
   88   102     1 
   89    91     1 
   89    92     1 
   89   100     1 
   90    95     1 
   90    97     1 
   90    98     1 
   90    99     1 
   90   103     1 
   90   104     1 
   91    93     1 
   91    94     1 
   91    96     1 
   91   101     1 
   91   102     1 
   92   101     1 
   92   102     1 
   93    95     1 
   93    97     1 
   93    98     1 
   93    99     1 
   93   100     1 
   94    97     1 
   94    98     1 
   94    99     1 
   94   100     1 
   95    96     1 
   96   100     1 
  100   105     1 
  100   106     1 
  100   107     1 
  101   103     1 
  101   104     1 
  102   108     1 
  102   109     1 
  103   105     1 
  103   106     1 
  103   107     1 
  104   110     1 
  104   111     1 
  105   108     1 
  105   109     1 
  106   108     1 
  106   109     1 
  107   112     1 
  107   113     1 
  107   121     1 
  108   110     1 
  108   111     1 
  109   114     1 
  109   115     1 
  109   117     1 
  109   122     1 
  109   123     1 
  110   112     1 
  110   113     1 
  110   121     1 
  111   116     1 
  111   118     1 
  111   119     1 
  111   120     1 
  111   124     1 
  111   125     1 
  112   114     1 
  112   115     1 
  112   117     1 
  112   122     1 
  112   123     1 
  113   122     1 
  113   123     1 
  114   116     1 
  114   118     1 
  114   119     1 
  114   120     1 
  114   121     1 
  115   118     1 
  115   119     1 
  115   120     1 
  115   121     1 
  116   117     1 
  117   121     1 
  121   126     1 
  121   127     1 
  121   145     1 
  122   124     1 
  122   125     1 
  123   128     1 
  123   129     1 
  123   130     1 
  123   146     1 
  123   147     1 
  124   126     1 
  124   127     1 
  124   145     1 
  125   131     1 
  125   136     1 
  125   148     1 
  125   149     1 
  126   128     1 
  126   129     1 
  126   130     1 
  126   146     1 
  126   147     1 
  127   132     1 
  127   133     1 
  127   135     1 
  127   137     1 
  127   146     1 
  127   147     1 
  128   131     1 
  128   136     1 
  128   145     1 
  129   131     1 
  129   136     1 
  129   145     1 
  130   134     1 
  130   138     1 
  130   139     1 
  130   141     1 
  130   145     1 
  131   137     1 
  131   141     1 
  132   134     1 
  132   135     1 
  132   136     1 
  133   137     1 
  133   142     1 
  133   143     1 
  134   136     1 
  134   141     1 
  135   138     1 
  135   139     1 
  135   144     1 
  136   140     1 
  136   142     1 
  136   143     1 
  137   141     1 
  137   144     1 
  138   140     1 
  138   143     1 
  139   142     1 
  140   141     1 
  140   144     1 
  142   144     1 
  145   150     1 
  145   151     1 
  145   166     1 
  146   148     1 
  146   149     1 
  147   152     1 
  147   153     1 
  147   154     1 
  147   167     1 
  147   168     1 
  148   150     1 
  148   151     1 
  148   166     1 
  149   155     1 
  149   162     1 
  150   152     1 
  150   153     1 
  150   154     1 
  150   167     1 
  150   168     1 
  151   156     1 
  151   157     1 
  151   163     1 
  151   164     1 
  151   167     1 
  151   168     1 
  152   155     1 
  152   162     1 
  152   166     1 
  153   155     1 
  153   162     1 
  153   166     1 
  154   158     1 
  154   159     1 
  154   165     1 
  154   166     1 
  155   160     1 
  155   163     1 
  155   164     1 
  156   158     1 
  156   159     1 
  156   162     1 
  157   161     1 
  157   162     1 
  157   165     1 
  158   160     1 
  158   164     1 
  159   163     1 
  160   162     1 
  160   165     1 
  161   164     1 
  163   165     1 

[ angles ]
;  ai    aj    ak funct            c0            c1            c2            c3
    2     1     3     5 
    2     1     4     5 
    2     1     5     5 
    3     1     4     5 
    3     1     5     5 
    4     1     5     5 
    1     5     6     5 
    1     5     7     5 
    1     5    22     5 
    6     5     7     5 
    6     5    22     5 
    7     5    22     5 
    5     7     8     5 
    5     7     9     5 
    5     7    10     5 
    8     7     9     5 
    8     7    10     5 
    9     7    10     5 
    7    10    11     5 
    7    10    18     5 
   11    10    18     5 
   10    11    12     5 
   10    11    13     5 
   12    11    13     5 
   11    13    14     5 
   11    13    15     5 
   14    13    15     5 
   13    15    16     5 
   13    15    20     5 
   16    15    20     5 
   15    16    17     5 
   10    18    19     5 
   10    18    20     5 
   19    18    20     5 
   15    20    18     5 
   15    20    21     5 
   18    20    21     5 
    5    22    23     5 
    5    22    24     5 
   23    22    24     5 
   22    24    25     5 
   22    24    26     5 
   25    24    26     5 
   24    26    27     5 
   24    26    28     5 
   24    26    43     5 
   27    26    28     5 
   27    26    43     5 
   28    26    43     5 
   26    28    29     5 
   26    28    30     5 
   26    28    31     5 
   29    28    30     5 
   29    28    31     5 
   30    28    31     5 
   28    31    32     5 
   28    31    39     5 
   32    31    39     5 
   31    32    33     5 
   31    32    34     5 
   33    32    34     5 
   32    34    35     5 
   32    34    36     5 
   35    34    36     5 
   34    36    37     5 
   34    36    41     5 
   37    36    41     5 
   36    37    38     5 
   31    39    40     5 
   31    39    41     5 
   40    39    41     5 
   36    41    39     5 
   36    41    42     5 
   39    41    42     5 
   26    43    44     5 
   26    43    45     5 
   44    43    45     5 
   43    45    46     5 
   43    45    47     5 
   46    45    47     5 
   45    47    48     5 
   45    47    49     5 
   45    47    57     5 
   48    47    49     5 
   48    47    57     5 
   49    47    57     5 
   47    49    50     5 
   47    49    51     5 
   47    49    52     5 
   50    49    51     5 
   50    49    52     5 
   51    49    52     5 
   49    52    53     5 
   49    52    54     5 
   53    52    54     5 
   52    54    55     5 
   52    54    56     5 
   55    54    56     5 
   47    57    58     5 
   47    57    59     5 
   58    57    59     5 
   57    59    60     5 
   57    59    63     5 
   60    59    63     5 
   59    60    61     5 
   59    60    62     5 
   59    60    68     5 
   61    60    62     5 
   61    60    68     5 
   62    60    68     5 
   59    63    64     5 
   59    63    65     5 
   59    63    71     5 
   64    63    65     5 
   64    63    71     5 
   65    63    71     5 
   63    65    66     5 
   63    65    67     5 
   63    65    68     5 
   66    65    67     5 
   66    65    68     5 
   67    65    68     5 
   60    68    65     5 
   60    68    69     5 
   60    68    70     5 
   65    68    69     5 
   65    68    70     5 
   69    68    70     5 
   63    71    72     5 
   63    71    73     5 
   72    71    73     5 
   71    73    74     5 
   71    73    75     5 
   74    73    75     5 
   73    75    76     5 
   73    75    77     5 
   73    75    86     5 
   76    75    77     5 
   76    75    86     5 
   77    75    86     5 
   75    77    78     5 
   75    77    79     5 
   75    77    80     5 
   78    77    79     5 
   78    77    80     5 
   79    77    80     5 
   77    80    81     5 
   77    80    82     5 
   77    80    83     5 
   81    80    82     5 
   81    80    83     5 
   82    80    83     5 
   80    83    84     5 
   80    83    85     5 
   84    83    85     5 
   75    86    87     5 
   75    86    88     5 
   87    86    88     5 
   86    88    89     5 
   86    88    90     5 
   89    88    90     5 
   88    90    91     5 
   88    90    92     5 
   88    90   100     5 
   91    90    92     5 
   91    90   100     5 
   92    90   100     5 
   90    92    93     5 
   90    92    94     5 
   90    92    96     5 
   93    92    94     5 
   93    92    96     5 
   94    92    96     5 
   92    94    95     5 
   92    96    97     5 
   92    96    98     5 
   92    96    99     5 
   97    96    98     5 
   97    96    99     5 
   98    96    99     5 
   90   100   101     5 
   90   100   102     5 
  101   100   102     5 
  100   102   103     5 
  100   102   104     5 
  103   102   104     5 
  102   104   105     5 
  102   104   106     5 
  102   104   107     5 
  105   104   106     5 
  105   104   107     5 
  106   104   107     5 
  104   107   108     5 
  104   107   109     5 
  108   107   109     5 
  107   109   110     5 
  107   109   111     5 
  110   109   111     5 
  109   111   112     5 
  109   111   113     5 
  109   111   121     5 
  112   111   113     5 
  112   111   121     5 
  113   111   121     5 
  111   113   114     5 
  111   113   115     5 
  111   113   117     5 
  114   113   115     5 
  114   113   117     5 
  115   113   117     5 
  113   115   116     5 
  113   117   118     5 
  113   117   119     5 
  113   117   120     5 
  118   117   119     5 
  118   117   120     5 
  119   117   120     5 
  111   121   122     5 
  111   121   123     5 
  122   121   123     5 
  121   123   124     5 
  121   123   125     5 
  124   123   125     5 
  123   125   126     5 
  123   125   127     5 
  123   125   145     5 
  126   125   127     5 
  126   125   145     5 
  127   125   145     5 
  125   127   128     5 
  125   127   129     5 
  125   127   130     5 
  128   127   129     5 
  128   127   130     5 
  129   127   130     5 
  127   130   131     5 
  127   130   136     5 
  131   130   136     5 
  130   131   132     5 
  130   131   133     5 
  132   131   133     5 
  131   133   134     5 
  131   133   135     5 
  134   133   135     5 
  133   135   136     5 
  133   135   141     5 
  136   135   141     5 
  130   136   135     5 
  130   136   137     5 
  135   136   137     5 
  136   137   138     5 
  136   137   139     5 
  138   137   139     5 
  137   139   140     5 
  137   139   143     5 
  140   139   143     5 
  135   141   142     5 
  135   141   143     5 
  142   141   143     5 
  139   143   141     5 
  139   143   144     5 
  141   143   144     5 
  125   145   146     5 
  125   145   147     5 
  146   145   147     5 
  145   147   148     5 
  145   147   149     5 
  148   147   149     5 
  147   149   150     5 
  147   149   151     5 
  147   149   166     5 
  150   149   151     5 
  150   149   166     5 
  151   149   166     5 
  149   151   152     5 
  149   151   153     5 
  149   151   154     5 
  152   151   153     5 
  152   151   154     5 
  153   151   154     5 
  151   154   155     5 
  151   154   162     5 
  155   154   162     5 
  154   155   156     5 
  154   155   157     5 
  156   155   157     5 
  155   157   158     5 
  155   157   159     5 
  158   157   159     5 
  157   159   160     5 
  157   159   164     5 
  160   159   164     5 
  159   160   161     5 
  154   162   163     5 
  154   162   164     5 
  163   162   164     5 
  159   164   162     5 
  159   164   165     5 
  162   164   165     5 
  149   166   167     5 
  149   166   168     5 
  167   166   168     5 

[ dihedrals ]
;  ai    aj    ak    al funct            c0            c1            c2            c3            c4            c5
    2     1     5     6     9 
    2     1     5     7     9 
    2     1     5    22     9 
    3     1     5     6     9 
    3     1     5     7     9 
    3     1     5    22     9 
    4     1     5     6     9 
    4     1     5     7     9 
    4     1     5    22     9 
    1     5     7     8     9 
    1     5     7     9     9 
    1     5     7    10     9 
    6     5     7     8     9 
    6     5     7     9     9 
    6     5     7    10     9 
   22     5     7     8     9 
   22     5     7     9     9 
   22     5     7    10     9 
    1     5    22    23     9 
    1     5    22    24     9 
    6     5    22    23     9 
    6     5    22    24     9 
    7     5    22    23     9 
    7     5    22    24     9 
    5     7    10    11     9 
    5     7    10    18     9 
    8     7    10    11     9 
    8     7    10    18     9 
    9     7    10    11     9 
    9     7    10    18     9 
    7    10    11    12     9 
    7    10    11    13     9 
   18    10    11    12     9 
   18    10    11    13     9 
    7    10    18    19     9 
    7    10    18    20     9 
   11    10    18    19     9 
   11    10    18    20     9 
   10    11    13    14     9 
   10    11    13    15     9 
   12    11    13    14     9 
   12    11    13    15     9 
   11    13    15    16     9 
   11    13    15    20     9 
   14    13    15    16     9 
   14    13    15    20     9 
   13    15    16    17     9 
   20    15    16    17     9 
   13    15    20    18     9 
   13    15    20    21     9 
   16    15    20    18     9 
   16    15    20    21     9 
   10    18    20    15     9 
   10    18    20    21     9 
   19    18    20    15     9 
   19    18    20    21     9 
    5    22    24    25     9 
    5    22    24    26     9 
   23    22    24    25     9 
   23    22    24    26     9 
   22    24    26    27     9 
   22    24    26    28     9 
   22    24    26    43     9 
   25    24    26    27     9 
   25    24    26    28     9 
   25    24    26    43     9 
   24    26    28    29     9 
   24    26    28    30     9 
   24    26    28    31     9 
   27    26    28    29     9 
   27    26    28    30     9 
   27    26    28    31     9 
   43    26    28    29     9 
   43    26    28    30     9 
   43    26    28    31     9 
   24    26    43    44     9 
   24    26    43    45     9 
   27    26    43    44     9 
   27    26    43    45     9 
   28    26    43    44     9 
   28    26    43    45     9 
   26    28    31    32     9 
   26    28    31    39     9 
   29    28    31    32     9 
   29    28    31    39     9 
   30    28    31    32     9 
   30    28    31    39     9 
   28    31    32    33     9 
   28    31    32    34     9 
   39    31    32    33     9 
   39    31    32    34     9 
   28    31    39    40     9 
   28    31    39    41     9 
   32    31    39    40     9 
   32    31    39    41     9 
   31    32    34    35     9 
   31    32    34    36     9 
   33    32    34    35     9 
   33    32    34    36     9 
   32    34    36    37     9 
   32    34    36    41     9 
   35    34    36    37     9 
   35    34    36    41     9 
   34    36    37    38     9 
   41    36    37    38     9 
   34    36    41    39     9 
   34    36    41    42     9 
   37    36    41    39     9 
   37    36    41    42     9 
   31    39    41    36     9 
   31    39    41    42     9 
   40    39    41    36     9 
   40    39    41    42     9 
   26    43    45    46     9 
   26    43    45    47     9 
   44    43    45    46     9 
   44    43    45    47     9 
   43    45    47    48     9 
   43    45    47    49     9 
   43    45    47    57     9 
   46    45    47    48     9 
   46    45    47    49     9 
   46    45    47    57     9 
   45    47    49    50     9 
   45    47    49    51     9 
   45    47    49    52     9 
   48    47    49    50     9 
   48    47    49    51     9 
   48    47    49    52     9 
   57    47    49    50     9 
   57    47    49    51     9 
   57    47    49    52     9 
   45    47    57    58     9 
   45    47    57    59     9 
   48    47    57    58     9 
   48    47    57    59     9 
   49    47    57    58     9 
   49    47    57    59     9 
   47    49    52    53     9 
   47    49    52    54     9 
   50    49    52    53     9 
   50    49    52    54     9 
   51    49    52    53     9 
   51    49    52    54     9 
   49    52    54    55     9 
   49    52    54    56     9 
   53    52    54    55     9 
   53    52    54    56     9 
   47    57    59    60     9 
   47    57    59    63     9 
   58    57    59    60     9 
   58    57    59    63     9 
   57    59    60    61     9 
   57    59    60    62     9 
   57    59    60    68     9 
   63    59    60    61     9 
   63    59    60    62     9 
   63    59    60    68     9 
   57    59    63    64     9 
   57    59    63    65     9 
   57    59    63    71     9 
   60    59    63    64     9 
   60    59    63    65     9 
   60    59    63    71     9 
   59    60    68    65     9 
   59    60    68    69     9 
   59    60    68    70     9 
   61    60    68    65     9 
   61    60    68    69     9 
   61    60    68    70     9 
   62    60    68    65     9 
   62    60    68    69     9 
   62    60    68    70     9 
   59    63    65    66     9 
   59    63    65    67     9 
   59    63    65    68     9 
   64    63    65    66     9 
   64    63    65    67     9 
   64    63    65    68     9 
   71    63    65    66     9 
   71    63    65    67     9 
   71    63    65    68     9 
   59    63    71    72     9 
   59    63    71    73     9 
   64    63    71    72     9 
   64    63    71    73     9 
   65    63    71    72     9 
   65    63    71    73     9 
   63    65    68    60     9 
   63    65    68    69     9 
   63    65    68    70     9 
   66    65    68    60     9 
   66    65    68    69     9 
   66    65    68    70     9 
   67    65    68    60     9 
   67    65    68    69     9 
   67    65    68    70     9 
   63    71    73    74     9 
   63    71    73    75     9 
   72    71    73    74     9 
   72    71    73    75     9 
   71    73    75    76     9 
   71    73    75    77     9 
   71    73    75    86     9 
   74    73    75    76     9 
   74    73    75    77     9 
   74    73    75    86     9 
   73    75    77    78     9 
   73    75    77    79     9 
   73    75    77    80     9 
   76    75    77    78     9 
   76    75    77    79     9 
   76    75    77    80     9 
   86    75    77    78     9 
   86    75    77    79     9 
   86    75    77    80     9 
   73    75    86    87     9 
   73    75    86    88     9 
   76    75    86    87     9 
   76    75    86    88     9 
   77    75    86    87     9 
   77    75    86    88     9 
   75    77    80    81     9 
   75    77    80    82     9 
   75    77    80    83     9 
   78    77    80    81     9 
   78    77    80    82     9 
   78    77    80    83     9 
   79    77    80    81     9 
   79    77    80    82     9 
   79    77    80    83     9 
   77    80    83    84     9 
   77    80    83    85     9 
   81    80    83    84     9 
   81    80    83    85     9 
   82    80    83    84     9 
   82    80    83    85     9 
   75    86    88    89     9 
   75    86    88    90     9 
   87    86    88    89     9 
   87    86    88    90     9 
   86    88    90    91     9 
   86    88    90    92     9 
   86    88    90   100     9 
   89    88    90    91     9 
   89    88    90    92     9 
   89    88    90   100     9 
   88    90    92    93     9 
   88    90    92    94     9 
   88    90    92    96     9 
   91    90    92    93     9 
   91    90    92    94     9 
   91    90    92    96     9 
  100    90    92    93     9 
  100    90    92    94     9 
  100    90    92    96     9 
   88    90   100   101     9 
   88    90   100   102     9 
   91    90   100   101     9 
   91    90   100   102     9 
   92    90   100   101     9 
   92    90   100   102     9 
   90    92    94    95     9 
   93    92    94    95     9 
   96    92    94    95     9 
   90    92    96    97     9 
   90    92    96    98     9 
   90    92    96    99     9 
   93    92    96    97     9 
   93    92    96    98     9 
   93    92    96    99     9 
   94    92    96    97     9 
   94    92    96    98     9 
   94    92    96    99     9 
   90   100   102   103     9 
   90   100   102   104     9 
  101   100   102   103     9 
  101   100   102   104     9 
  100   102   104   105     9 
  100   102   104   106     9 
  100   102   104   107     9 
  103   102   104   105     9 
  103   102   104   106     9 
  103   102   104   107     9 
  102   104   107   108     9 
  102   104   107   109     9 
  105   104   107   108     9 
  105   104   107   109     9 
  106   104   107   108     9 
  106   104   107   109     9 
  104   107   109   110     9 
  104   107   109   111     9 
  108   107   109   110     9 
  108   107   109   111     9 
  107   109   111   112     9 
  107   109   111   113     9 
  107   109   111   121     9 
  110   109   111   112     9 
  110   109   111   113     9 
  110   109   111   121     9 
  109   111   113   114     9 
  109   111   113   115     9 
  109   111   113   117     9 
  112   111   113   114     9 
  112   111   113   115     9 
  112   111   113   117     9 
  121   111   113   114     9 
  121   111   113   115     9 
  121   111   113   117     9 
  109   111   121   122     9 
  109   111   121   123     9 
  112   111   121   122     9 
  112   111   121   123     9 
  113   111   121   122     9 
  113   111   121   123     9 
  111   113   115   116     9 
  114   113   115   116     9 
  117   113   115   116     9 
  111   113   117   118     9 
  111   113   117   119     9 
  111   113   117   120     9 
  114   113   117   118     9 
  114   113   117   119     9 
  114   113   117   120     9 
  115   113   117   118     9 
  115   113   117   119     9 
  115   113   117   120     9 
  111   121   123   124     9 
  111   121   123   125     9 
  122   121   123   124     9 
  122   121   123   125     9 
  121   123   125   126     9 
  121   123   125   127     9 
  121   123   125   145     9 
  124   123   125   126     9 
  124   123   125   127     9 
  124   123   125   145     9 
  123   125   127   128     9 
  123   125   127   129     9 
  123   125   127   130     9 
  126   125   127   128     9 
  126   125   127   129     9 
  126   125   127   130     9 
  145   125   127   128     9 
  145   125   127   129     9 
  145   125   127   130     9 
  123   125   145   146     9 
  123   125   145   147     9 
  126   125   145   146     9 
  126   125   145   147     9 
  127   125   145   146     9 
  127   125   145   147     9 
  125   127   130   131     9 
  125   127   130   136     9 
  128   127   130   131     9 
  128   127   130   136     9 
  129   127   130   131     9 
  129   127   130   136     9 
  127   130   131   132     9 
  127   130   131   133     9 
  136   130   131   132     9 
  136   130   131   133     9 
  127   130   136   135     9 
  127   130   136   137     9 
  131   130   136   135     9 
  131   130   136   137     9 
  130   131   133   134     9 
  130   131   133   135     9 
  132   131   133   134     9 
  132   131   133   135     9 
  131   133   135   136     9 
  131   133   135   141     9 
  134   133   135   136     9 
  134   133   135   141     9 
  133   135   136   130     9 
  133   135   136   137     9 
  141   135   136   130     9 
  141   135   136   137     9 
  133   135   141   142     9 
  133   135   141   143     9 
  136   135   141   142     9 
  136   135   141   143     9 
  130   136   137   138     9 
  130   136   137   139     9 
  135   136   137   138     9 
  135   136   137   139     9 
  136   137   139   140     9 
  136   137   139   143     9 
  138   137   139   140     9 
  138   137   139   143     9 
  137   139   143   141     9 
  137   139   143   144     9 
  140   139   143   141     9 
  140   139   143   144     9 
  135   141   143   139     9 
  135   141   143   144     9 
  142   141   143   139     9 
  142   141   143   144     9 
  125   145   147   148     9 
  125   145   147   149     9 
  146   145   147   148     9 
  146   145   147   149     9 
  145   147   149   150     9 
  145   147   149   151     9 
  145   147   149   166     9 
  148   147   149   150     9 
  148   147   149   151     9 
  148   147   149   166     9 
  147   149   151   152     9 
  147   149   151   153     9 
  147   149   151   154     9 
  150   149   151   152     9 
  150   149   151   153     9 
  150   149   151   154     9 
  166   149   151   152     9 
  166   149   151   153     9 
  166   149   151   154     9 
  147   149   166   167     9 
  147   149   166   168     9 
  150   149   166   167     9 
  150   149   166   168     9 
  151   149   166   167     9 
  151   149   166   168     9 
  149   151   154   155     9 
  149   151   154   162     9 
  152   151   154   155     9 
  152   151   154   162     9 
  153   151   154   155     9 
  153   151   154   162     9 
  151   154   155   156     9 
  151   154   155   157     9 
  162   154   155   156     9 
  162   154   155   157     9 
  151   154   162   163     9 
  151   154   162   164     9 
  155   154   162   163     9 
  155   154   162   164     9 
  154   155   157   158     9 
  154   155   157   159     9 
  156   155   157   158     9 
  156   155   157   159     9 
  155   157   159   160     9 
  155   157   159   164     9 
  158   157   159   160     9 
  158   157   159   164     9 
  157   159   160   161     9 
  164   159   160   161     9 
  157   159   164   162     9 
  157   159   164   165     9 
  160   159   164   162     9 
  160   159   164   165     9 
  154   162   164   159     9 
  154   162   164   165     9 
  163   162   164   159     9 
  163   162   164   165     9 

[ dihedrals ]
;  ai    aj    ak    al funct            c0            c1            c2            c3
   22     5    24    23     2 
   24    22    26    25     2 
   43    26    45    44     2 
   45    43    47    46     2 
   52    49    54    53     2 
   52    54    49    53     2 
   54    52    56    55     2 
   54    52    55    56     2 
   57    47    59    58     2 
   59    57    63    60     2 
   71    63    73    72     2 
   73    71    75    74     2 
   83    80    85    84     2 
   86    75    88    87     2 
   88    86    90    89     2 
  100    90   102   101     2 
  102   100   104   103     2 
  107   104   109   108     2 
  109   107   111   110     2 
  121   111   123   122     2 
  123   121   125   124     2 
  145   125   147   146     2 
  147   145   149   148     2 
  166   149   168   167     2 

[ cmap ]
;  ai    aj    ak    al    am funct
   57    59    63    71    73     1 
  100   102   104   107   109     1 

; Include Position restraint file
#ifdef POSRES
#include "posre.itp"
#endif

; Include water topology
#include "charmm22star.ff/tip3p.itp"

#ifdef POSRES_WATER
; Position restraint for each water oxygen
[ position_restraints ]
;  i funct       fcx        fcy        fcz
   1    1       1000       1000       1000
#endif

; Include topology for ions
#include "charmm22star.ff/ions.itp"

[ system ]
; Name
Protein in water

[ molecules ]
; Compound        #mols
Protein_chain_A     1
SOL         1759
NA               1
