;
;	File 'topol.top' was generated
;	By user: muralika.m (21947)
;	On host: zeus
;	At date: Wed Sep  3 21:38:29 2025
;
;	This is a standalone topology file
;
;	Created by:
;	                    :-) GROMACS - gmx pdb2gmx, 2019.6 (-:
;	
;	Executable:   /home/muralika.m/.conda/envs/muralika/bin/gmx_mpi
;	Data prefix:  /home/muralika.m/.conda/envs/muralika
;	Working dir:  /rg/mendels_prj/muralika.m/ub/New_mutns/YYDCETGTWY
;	Command line:
;	  gmx_mpi pdb2gmx -f YYDCETGTWY.pdb -o processed_structure.gro -p topol.top -asp -glu -ter
;	Force field was read from the standard GROMACS share directory.
;

; Include forcefield parameters
#include "charmm22star.ff/forcefield.itp"

[ moleculetype ]
; Name            nrexcl
Protein_chain_A     3

[ atoms ]
;   nr       type  resnr residue  atom   cgnr     charge       mass  typeB    chargeB      massB
; residue   0 TYR rtp TYR  q +1.0
     1        NH3      0    TYR      N      1       -0.3    14.0027
     2         HC      0    TYR     H1      2       0.33      1.008
     3         HC      0    TYR     H2      3       0.33      1.008
     4         HC      0    TYR     H3      4       0.33      1.008
     5        CT1      0    TYR     CA      5       0.21     12.011
     6         HB      0    TYR     HA      6        0.1      1.008
     7        CT2      0    TYR     CB      7      -0.18     12.011
     8         HA      0    TYR    HB1      8       0.09      1.008
     9         HA      0    TYR    HB2      9       0.09      1.008
    10         CA      0    TYR     CG     10          0     12.011
    11         CA      0    TYR    CD1     11     -0.115     12.011
    12         HP      0    TYR    HD1     12      0.115      1.008
    13         CA      0    TYR    CE1     13     -0.115     12.011
    14         HP      0    TYR    HE1     14      0.115      1.008
    15         CA      0    TYR     CZ     15       0.11     12.011
    16        OH1      0    TYR     OH     16      -0.54     15.999
    17          H      0    TYR     HH     17       0.43      1.008
    18         CA      0    TYR    CD2     18     -0.115     12.011
    19         HP      0    TYR    HD2     19      0.115      1.008
    20         CA      0    TYR    CE2     20     -0.115     12.011
    21         HP      0    TYR    HE2     21      0.115      1.008
    22          C      0    TYR      C     22       0.51     12.011
    23          O      0    TYR      O     23      -0.51     15.999   ; qtot 1
; residue   1 TYR rtp TYR  q  0.0
    24        NH1      1    TYR      N     24      -0.47     14.007
    25          H      1    TYR     HN     25       0.31      1.008
    26        CT1      1    TYR     CA     26       0.07     12.011
    27         HB      1    TYR     HA     27       0.09      1.008
    28        CT2      1    TYR     CB     28      -0.18     12.011
    29         HA      1    TYR    HB1     29       0.09      1.008
    30         HA      1    TYR    HB2     30       0.09      1.008
    31         CA      1    TYR     CG     31          0     12.011
    32         CA      1    TYR    CD1     32     -0.115     12.011
    33         HP      1    TYR    HD1     33      0.115      1.008
    34         CA      1    TYR    CE1     34     -0.115     12.011
    35         HP      1    TYR    HE1     35      0.115      1.008
    36         CA      1    TYR     CZ     36       0.11     12.011
    37        OH1      1    TYR     OH     37      -0.54     15.999
    38          H      1    TYR     HH     38       0.43      1.008
    39         CA      1    TYR    CD2     39     -0.115     12.011
    40         HP      1    TYR    HD2     40      0.115      1.008
    41         CA      1    TYR    CE2     41     -0.115     12.011
    42         HP      1    TYR    HE2     42      0.115      1.008
    43          C      1    TYR      C     43       0.51     12.011
    44          O      1    TYR      O     44      -0.51     15.999   ; qtot 1
; residue   2 ASP rtp ASP  q -1.0
    45        NH1      2    ASP      N     45      -0.47     14.007
    46          H      2    ASP     HN     46       0.31      1.008
    47        CT1      2    ASP     CA     47       0.07     12.011
    48         HB      2    ASP     HA     48       0.09      1.008
    49        CT2      2    ASP     CB     49      -0.28     12.011
    50         HA      2    ASP    HB1     50       0.05      1.008
    51         HA      2    ASP    HB2     51       0.05      1.008
    52         CC      2    ASP     CG     52       0.56     12.011
    53         OC      2    ASP    OD1     53      -0.69     15.999
    54         OC      2    ASP    OD2     54      -0.69     15.999
    55          C      2    ASP      C     55       0.51     12.011
    56          O      2    ASP      O     56      -0.51     15.999   ; qtot 0
; residue   3 CYS rtp CYS  q  0.0
    57        NH1      3    CYS      N     57      -0.47     14.007
    58          H      3    CYS     HN     58       0.31      1.008
    59        CT1      3    CYS     CA     59       0.07     12.011
    60         HB      3    CYS     HA     60       0.09      1.008
    61        CT2      3    CYS     CB     61      -0.11     12.011
    62         HA      3    CYS    HB1     62       0.09      1.008
    63         HA      3    CYS    HB2     63       0.09      1.008
    64          S      3    CYS     SG     64      -0.23      32.06
    65         HS      3    CYS    HG1     65       0.16      1.008
    66          C      3    CYS      C     66       0.51     12.011
    67          O      3    CYS      O     67      -0.51     15.999   ; qtot 0
; residue   4 GLU rtp GLU  q -1.0
    68        NH1      4    GLU      N     68      -0.47     14.007
    69          H      4    GLU     HN     69       0.31      1.008
    70        CT1      4    GLU     CA     70       0.07     12.011
    71         HB      4    GLU     HA     71       0.09      1.008
    72        CT2      4    GLU     CB     72      -0.18     12.011
    73         HA      4    GLU    HB1     73       0.09      1.008
    74         HA      4    GLU    HB2     74       0.09      1.008
    75        CT2      4    GLU     CG     75      -0.28     12.011
    76         HA      4    GLU    HG1     76       0.05      1.008
    77         HA      4    GLU    HG2     77       0.05      1.008
    78         CC      4    GLU     CD     78       0.56     12.011
    79         OC      4    GLU    OE1     79      -0.69     15.999
    80         OC      4    GLU    OE2     80      -0.69     15.999
    81          C      4    GLU      C     81       0.51     12.011
    82          O      4    GLU      O     82      -0.51     15.999   ; qtot -1
; residue   5 THR rtp THR  q  0.0
    83        NH1      5    THR      N     83      -0.47     14.007
    84          H      5    THR     HN     84       0.31      1.008
    85        CT1      5    THR     CA     85       0.07     12.011
    86         HB      5    THR     HA     86       0.09      1.008
    87        CT1      5    THR     CB     87       0.14     12.011
    88         HA      5    THR     HB     88       0.09      1.008
    89        OH1      5    THR    OG1     89      -0.66     15.999
    90          H      5    THR    HG1     90       0.43      1.008
    91        CT3      5    THR    CG2     91      -0.27     12.011
    92         HA      5    THR   HG21     92       0.09      1.008
    93         HA      5    THR   HG22     93       0.09      1.008
    94         HA      5    THR   HG23     94       0.09      1.008
    95          C      5    THR      C     95       0.51     12.011
    96          O      5    THR      O     96      -0.51     15.999   ; qtot -1
; residue   6 GLY rtp GLY  q  0.0
    97        NH1      6    GLY      N     97      -0.47     14.007
    98          H      6    GLY     HN     98       0.31      1.008
    99        CT2      6    GLY     CA     99      -0.02     12.011
   100         HB      6    GLY    HA1    100       0.09      1.008
   101         HB      6    GLY    HA2    101       0.09      1.008
   102          C      6    GLY      C    102       0.51     12.011
   103          O      6    GLY      O    103      -0.51     15.999   ; qtot -1
; residue   7 THR rtp THR  q  0.0
   104        NH1      7    THR      N    104      -0.47     14.007
   105          H      7    THR     HN    105       0.31      1.008
   106        CT1      7    THR     CA    106       0.07     12.011
   107         HB      7    THR     HA    107       0.09      1.008
   108        CT1      7    THR     CB    108       0.14     12.011
   109         HA      7    THR     HB    109       0.09      1.008
   110        OH1      7    THR    OG1    110      -0.66     15.999
   111          H      7    THR    HG1    111       0.43      1.008
   112        CT3      7    THR    CG2    112      -0.27     12.011
   113         HA      7    THR   HG21    113       0.09      1.008
   114         HA      7    THR   HG22    114       0.09      1.008
   115         HA      7    THR   HG23    115       0.09      1.008
   116          C      7    THR      C    116       0.51     12.011
   117          O      7    THR      O    117      -0.51     15.999   ; qtot -1
; residue   8 TRP rtp TRP  q  0.0
   118        NH1      8    TRP      N    118      -0.47     14.007
   119          H      8    TRP     HN    119       0.31      1.008
   120        CT1      8    TRP     CA    120       0.07     12.011
   121         HB      8    TRP     HA    121       0.09      1.008
   122        CT2      8    TRP     CB    122      -0.18     12.011
   123         HA      8    TRP    HB1    123       0.09      1.008
   124         HA      8    TRP    HB2    124       0.09      1.008
   125         CY      8    TRP     CG    125      -0.03     12.011
   126         CA      8    TRP    CD1    126      0.035     12.011
   127         HP      8    TRP    HD1    127      0.115      1.008
   128         NY      8    TRP    NE1    128      -0.61     14.007
   129          H      8    TRP    HE1    129       0.38      1.008
   130        CPT      8    TRP    CE2    130       0.13     12.011
   131        CPT      8    TRP    CD2    131      -0.02     12.011
   132         CA      8    TRP    CE3    132     -0.115     12.011
   133         HP      8    TRP    HE3    133      0.115      1.008
   134         CA      8    TRP    CZ3    134     -0.115     12.011
   135         HP      8    TRP    HZ3    135      0.115      1.008
   136         CA      8    TRP    CZ2    136     -0.115     12.011
   137         HP      8    TRP    HZ2    137      0.115      1.008
   138         CA      8    TRP    CH2    138     -0.115     12.011
   139         HP      8    TRP    HH2    139      0.115      1.008
   140          C      8    TRP      C    140       0.51     12.011
   141          O      8    TRP      O    141      -0.51     15.999   ; qtot -1
; residue   9 TYR rtp TYR  q -1.0
   142        NH1      9    TYR      N    142      -0.47     14.007
   143          H      9    TYR     HN    143       0.31      1.008
   144        CT1      9    TYR     CA    144       0.07     12.011
   145         HB      9    TYR     HA    145       0.09      1.008
   146        CT2      9    TYR     CB    146      -0.18     12.011
   147         HA      9    TYR    HB1    147       0.09      1.008
   148         HA      9    TYR    HB2    148       0.09      1.008
   149         CA      9    TYR     CG    149          0     12.011
   150         CA      9    TYR    CD1    150     -0.115     12.011
   151         HP      9    TYR    HD1    151      0.115      1.008
   152         CA      9    TYR    CE1    152     -0.115     12.011
   153         HP      9    TYR    HE1    153      0.115      1.008
   154         CA      9    TYR     CZ    154       0.11     12.011
   155        OH1      9    TYR     OH    155      -0.54     15.999
   156          H      9    TYR     HH    156       0.43      1.008
   157         CA      9    TYR    CD2    157     -0.115     12.011
   158         HP      9    TYR    HD2    158      0.115      1.008
   159         CA      9    TYR    CE2    159     -0.115     12.011
   160         HP      9    TYR    HE2    160      0.115      1.008
   161         CC      9    TYR      C    161       0.34     12.011
   162         OC      9    TYR    OT1    162      -0.67    15.9994
   163         OC      9    TYR    OT2    163      -0.67    15.9994   ; qtot -2

[ bonds ]
;  ai    aj funct            c0            c1            c2            c3
    1     2     1 
    1     3     1 
    1     4     1 
    1     5     1 
    5     6     1 
    5     7     1 
    5    22     1 
    7     8     1 
    7     9     1 
    7    10     1 
   10    11     1 
   10    18     1 
   11    12     1 
   11    13     1 
   13    14     1 
   13    15     1 
   15    16     1 
   15    20     1 
   16    17     1 
   18    19     1 
   18    20     1 
   20    21     1 
   22    23     1 
   22    24     1 
   24    25     1 
   24    26     1 
   26    27     1 
   26    28     1 
   26    43     1 
   28    29     1 
   28    30     1 
   28    31     1 
   31    32     1 
   31    39     1 
   32    33     1 
   32    34     1 
   34    35     1 
   34    36     1 
   36    37     1 
   36    41     1 
   37    38     1 
   39    40     1 
   39    41     1 
   41    42     1 
   43    44     1 
   43    45     1 
   45    46     1 
   45    47     1 
   47    48     1 
   47    49     1 
   47    55     1 
   49    50     1 
   49    51     1 
   49    52     1 
   52    53     1 
   52    54     1 
   55    56     1 
   55    57     1 
   57    58     1 
   57    59     1 
   59    60     1 
   59    61     1 
   59    66     1 
   61    62     1 
   61    63     1 
   61    64     1 
   64    65     1 
   66    67     1 
   66    68     1 
   68    69     1 
   68    70     1 
   70    71     1 
   70    72     1 
   70    81     1 
   72    73     1 
   72    74     1 
   72    75     1 
   75    76     1 
   75    77     1 
   75    78     1 
   78    79     1 
   78    80     1 
   81    82     1 
   81    83     1 
   83    84     1 
   83    85     1 
   85    86     1 
   85    87     1 
   85    95     1 
   87    88     1 
   87    89     1 
   87    91     1 
   89    90     1 
   91    92     1 
   91    93     1 
   91    94     1 
   95    96     1 
   95    97     1 
   97    98     1 
   97    99     1 
   99   100     1 
   99   101     1 
   99   102     1 
  102   103     1 
  102   104     1 
  104   105     1 
  104   106     1 
  106   107     1 
  106   108     1 
  106   116     1 
  108   109     1 
  108   110     1 
  108   112     1 
  110   111     1 
  112   113     1 
  112   114     1 
  112   115     1 
  116   117     1 
  116   118     1 
  118   119     1 
  118   120     1 
  120   121     1 
  120   122     1 
  120   140     1 
  122   123     1 
  122   124     1 
  122   125     1 
  125   126     1 
  125   131     1 
  126   127     1 
  126   128     1 
  128   129     1 
  128   130     1 
  130   131     1 
  130   136     1 
  131   132     1 
  132   133     1 
  132   134     1 
  134   135     1 
  134   138     1 
  136   137     1 
  136   138     1 
  138   139     1 
  140   141     1 
  140   142     1 
  142   143     1 
  142   144     1 
  144   145     1 
  144   146     1 
  144   161     1 
  146   147     1 
  146   148     1 
  146   149     1 
  149   150     1 
  149   157     1 
  150   151     1 
  150   152     1 
  152   153     1 
  152   154     1 
  154   155     1 
  154   159     1 
  155   156     1 
  157   158     1 
  157   159     1 
  159   160     1 
  161   162     1 
  161   163     1 

[ pairs ]
;  ai    aj funct            c0            c1            c2            c3
    1     8     1 
    1     9     1 
    1    10     1 
    1    23     1 
    1    24     1 
    2     6     1 
    2     7     1 
    2    22     1 
    3     6     1 
    3     7     1 
    3    22     1 
    4     6     1 
    4     7     1 
    4    22     1 
    5    11     1 
    5    18     1 
    5    25     1 
    5    26     1 
    6     8     1 
    6     9     1 
    6    10     1 
    6    23     1 
    6    24     1 
    7    12     1 
    7    13     1 
    7    19     1 
    7    20     1 
    7    23     1 
    7    24     1 
    8    11     1 
    8    18     1 
    8    22     1 
    9    11     1 
    9    18     1 
    9    22     1 
   10    14     1 
   10    15     1 
   10    21     1 
   10    22     1 
   11    16     1 
   11    19     1 
   11    20     1 
   12    14     1 
   12    15     1 
   12    18     1 
   13    17     1 
   13    18     1 
   13    21     1 
   14    16     1 
   14    20     1 
   15    19     1 
   16    18     1 
   16    21     1 
   17    20     1 
   19    21     1 
   22    27     1 
   22    28     1 
   22    43     1 
   23    25     1 
   23    26     1 
   24    29     1 
   24    30     1 
   24    31     1 
   24    44     1 
   24    45     1 
   25    27     1 
   25    28     1 
   25    43     1 
   26    32     1 
   26    39     1 
   26    46     1 
   26    47     1 
   27    29     1 
   27    30     1 
   27    31     1 
   27    44     1 
   27    45     1 
   28    33     1 
   28    34     1 
   28    40     1 
   28    41     1 
   28    44     1 
   28    45     1 
   29    32     1 
   29    39     1 
   29    43     1 
   30    32     1 
   30    39     1 
   30    43     1 
   31    35     1 
   31    36     1 
   31    42     1 
   31    43     1 
   32    37     1 
   32    40     1 
   32    41     1 
   33    35     1 
   33    36     1 
   33    39     1 
   34    38     1 
   34    39     1 
   34    42     1 
   35    37     1 
   35    41     1 
   36    40     1 
   37    39     1 
   37    42     1 
   38    41     1 
   40    42     1 
   43    48     1 
   43    49     1 
   43    55     1 
   44    46     1 
   44    47     1 
   45    50     1 
   45    51     1 
   45    52     1 
   45    56     1 
   45    57     1 
   46    48     1 
   46    49     1 
   46    55     1 
   47    53     1 
   47    54     1 
   47    58     1 
   47    59     1 
   48    50     1 
   48    51     1 
   48    52     1 
   48    56     1 
   48    57     1 
   49    56     1 
   49    57     1 
   50    53     1 
   50    54     1 
   50    55     1 
   51    53     1 
   51    54     1 
   51    55     1 
   52    55     1 
   55    60     1 
   55    61     1 
   55    66     1 
   56    58     1 
   56    59     1 
   57    62     1 
   57    63     1 
   57    64     1 
   57    67     1 
   57    68     1 
   58    60     1 
   58    61     1 
   58    66     1 
   59    65     1 
   59    69     1 
   59    70     1 
   60    62     1 
   60    63     1 
   60    64     1 
   60    67     1 
   60    68     1 
   61    67     1 
   61    68     1 
   62    65     1 
   62    66     1 
   63    65     1 
   63    66     1 
   64    66     1 
   66    71     1 
   66    72     1 
   66    81     1 
   67    69     1 
   67    70     1 
   68    73     1 
   68    74     1 
   68    75     1 
   68    82     1 
   68    83     1 
   69    71     1 
   69    72     1 
   69    81     1 
   70    76     1 
   70    77     1 
   70    78     1 
   70    84     1 
   70    85     1 
   71    73     1 
   71    74     1 
   71    75     1 
   71    82     1 
   71    83     1 
   72    79     1 
   72    80     1 
   72    82     1 
   72    83     1 
   73    76     1 
   73    77     1 
   73    78     1 
   73    81     1 
   74    76     1 
   74    77     1 
   74    78     1 
   74    81     1 
   75    81     1 
   76    79     1 
   76    80     1 
   77    79     1 
   77    80     1 
   81    86     1 
   81    87     1 
   81    95     1 
   82    84     1 
   82    85     1 
   83    88     1 
   83    89     1 
   83    91     1 
   83    96     1 
   83    97     1 
   84    86     1 
   84    87     1 
   84    95     1 
   85    90     1 
   85    92     1 
   85    93     1 
   85    94     1 
   85    98     1 
   85    99     1 
   86    88     1 
   86    89     1 
   86    91     1 
   86    96     1 
   86    97     1 
   87    96     1 
   87    97     1 
   88    90     1 
   88    92     1 
   88    93     1 
   88    94     1 
   88    95     1 
   89    92     1 
   89    93     1 
   89    94     1 
   89    95     1 
   90    91     1 
   91    95     1 
   95   100     1 
   95   101     1 
   95   102     1 
   96    98     1 
   96    99     1 
   97   103     1 
   97   104     1 
   98   100     1 
   98   101     1 
   98   102     1 
   99   105     1 
   99   106     1 
  100   103     1 
  100   104     1 
  101   103     1 
  101   104     1 
  102   107     1 
  102   108     1 
  102   116     1 
  103   105     1 
  103   106     1 
  104   109     1 
  104   110     1 
  104   112     1 
  104   117     1 
  104   118     1 
  105   107     1 
  105   108     1 
  105   116     1 
  106   111     1 
  106   113     1 
  106   114     1 
  106   115     1 
  106   119     1 
  106   120     1 
  107   109     1 
  107   110     1 
  107   112     1 
  107   117     1 
  107   118     1 
  108   117     1 
  108   118     1 
  109   111     1 
  109   113     1 
  109   114     1 
  109   115     1 
  109   116     1 
  110   113     1 
  110   114     1 
  110   115     1 
  110   116     1 
  111   112     1 
  112   116     1 
  116   121     1 
  116   122     1 
  116   140     1 
  117   119     1 
  117   120     1 
  118   123     1 
  118   124     1 
  118   125     1 
  118   141     1 
  118   142     1 
  119   121     1 
  119   122     1 
  119   140     1 
  120   126     1 
  120   131     1 
  120   143     1 
  120   144     1 
  121   123     1 
  121   124     1 
  121   125     1 
  121   141     1 
  121   142     1 
  122   127     1 
  122   128     1 
  122   130     1 
  122   132     1 
  122   141     1 
  122   142     1 
  123   126     1 
  123   131     1 
  123   140     1 
  124   126     1 
  124   131     1 
  124   140     1 
  125   129     1 
  125   133     1 
  125   134     1 
  125   136     1 
  125   140     1 
  126   132     1 
  126   136     1 
  127   129     1 
  127   130     1 
  127   131     1 
  128   132     1 
  128   137     1 
  128   138     1 
  129   131     1 
  129   136     1 
  130   133     1 
  130   134     1 
  130   139     1 
  131   135     1 
  131   137     1 
  131   138     1 
  132   136     1 
  132   139     1 
  133   135     1 
  133   138     1 
  134   137     1 
  135   136     1 
  135   139     1 
  137   139     1 
  140   145     1 
  140   146     1 
  140   161     1 
  141   143     1 
  141   144     1 
  142   147     1 
  142   148     1 
  142   149     1 
  142   162     1 
  142   163     1 
  143   145     1 
  143   146     1 
  143   161     1 
  144   150     1 
  144   157     1 
  145   147     1 
  145   148     1 
  145   149     1 
  145   162     1 
  145   163     1 
  146   151     1 
  146   152     1 
  146   158     1 
  146   159     1 
  146   162     1 
  146   163     1 
  147   150     1 
  147   157     1 
  147   161     1 
  148   150     1 
  148   157     1 
  148   161     1 
  149   153     1 
  149   154     1 
  149   160     1 
  149   161     1 
  150   155     1 
  150   158     1 
  150   159     1 
  151   153     1 
  151   154     1 
  151   157     1 
  152   156     1 
  152   157     1 
  152   160     1 
  153   155     1 
  153   159     1 
  154   158     1 
  155   157     1 
  155   160     1 
  156   159     1 
  158   160     1 

[ angles ]
;  ai    aj    ak funct            c0            c1            c2            c3
    2     1     3     5 
    2     1     4     5 
    2     1     5     5 
    3     1     4     5 
    3     1     5     5 
    4     1     5     5 
    1     5     6     5 
    1     5     7     5 
    1     5    22     5 
    6     5     7     5 
    6     5    22     5 
    7     5    22     5 
    5     7     8     5 
    5     7     9     5 
    5     7    10     5 
    8     7     9     5 
    8     7    10     5 
    9     7    10     5 
    7    10    11     5 
    7    10    18     5 
   11    10    18     5 
   10    11    12     5 
   10    11    13     5 
   12    11    13     5 
   11    13    14     5 
   11    13    15     5 
   14    13    15     5 
   13    15    16     5 
   13    15    20     5 
   16    15    20     5 
   15    16    17     5 
   10    18    19     5 
   10    18    20     5 
   19    18    20     5 
   15    20    18     5 
   15    20    21     5 
   18    20    21     5 
    5    22    23     5 
    5    22    24     5 
   23    22    24     5 
   22    24    25     5 
   22    24    26     5 
   25    24    26     5 
   24    26    27     5 
   24    26    28     5 
   24    26    43     5 
   27    26    28     5 
   27    26    43     5 
   28    26    43     5 
   26    28    29     5 
   26    28    30     5 
   26    28    31     5 
   29    28    30     5 
   29    28    31     5 
   30    28    31     5 
   28    31    32     5 
   28    31    39     5 
   32    31    39     5 
   31    32    33     5 
   31    32    34     5 
   33    32    34     5 
   32    34    35     5 
   32    34    36     5 
   35    34    36     5 
   34    36    37     5 
   34    36    41     5 
   37    36    41     5 
   36    37    38     5 
   31    39    40     5 
   31    39    41     5 
   40    39    41     5 
   36    41    39     5 
   36    41    42     5 
   39    41    42     5 
   26    43    44     5 
   26    43    45     5 
   44    43    45     5 
   43    45    46     5 
   43    45    47     5 
   46    45    47     5 
   45    47    48     5 
   45    47    49     5 
   45    47    55     5 
   48    47    49     5 
   48    47    55     5 
   49    47    55     5 
   47    49    50     5 
   47    49    51     5 
   47    49    52     5 
   50    49    51     5 
   50    49    52     5 
   51    49    52     5 
   49    52    53     5 
   49    52    54     5 
   53    52    54     5 
   47    55    56     5 
   47    55    57     5 
   56    55    57     5 
   55    57    58     5 
   55    57    59     5 
   58    57    59     5 
   57    59    60     5 
   57    59    61     5 
   57    59    66     5 
   60    59    61     5 
   60    59    66     5 
   61    59    66     5 
   59    61    62     5 
   59    61    63     5 
   59    61    64     5 
   62    61    63     5 
   62    61    64     5 
   63    61    64     5 
   61    64    65     5 
   59    66    67     5 
   59    66    68     5 
   67    66    68     5 
   66    68    69     5 
   66    68    70     5 
   69    68    70     5 
   68    70    71     5 
   68    70    72     5 
   68    70    81     5 
   71    70    72     5 
   71    70    81     5 
   72    70    81     5 
   70    72    73     5 
   70    72    74     5 
   70    72    75     5 
   73    72    74     5 
   73    72    75     5 
   74    72    75     5 
   72    75    76     5 
   72    75    77     5 
   72    75    78     5 
   76    75    77     5 
   76    75    78     5 
   77    75    78     5 
   75    78    79     5 
   75    78    80     5 
   79    78    80     5 
   70    81    82     5 
   70    81    83     5 
   82    81    83     5 
   81    83    84     5 
   81    83    85     5 
   84    83    85     5 
   83    85    86     5 
   83    85    87     5 
   83    85    95     5 
   86    85    87     5 
   86    85    95     5 
   87    85    95     5 
   85    87    88     5 
   85    87    89     5 
   85    87    91     5 
   88    87    89     5 
   88    87    91     5 
   89    87    91     5 
   87    89    90     5 
   87    91    92     5 
   87    91    93     5 
   87    91    94     5 
   92    91    93     5 
   92    91    94     5 
   93    91    94     5 
   85    95    96     5 
   85    95    97     5 
   96    95    97     5 
   95    97    98     5 
   95    97    99     5 
   98    97    99     5 
   97    99   100     5 
   97    99   101     5 
   97    99   102     5 
  100    99   101     5 
  100    99   102     5 
  101    99   102     5 
   99   102   103     5 
   99   102   104     5 
  103   102   104     5 
  102   104   105     5 
  102   104   106     5 
  105   104   106     5 
  104   106   107     5 
  104   106   108     5 
  104   106   116     5 
  107   106   108     5 
  107   106   116     5 
  108   106   116     5 
  106   108   109     5 
  106   108   110     5 
  106   108   112     5 
  109   108   110     5 
  109   108   112     5 
  110   108   112     5 
  108   110   111     5 
  108   112   113     5 
  108   112   114     5 
  108   112   115     5 
  113   112   114     5 
  113   112   115     5 
  114   112   115     5 
  106   116   117     5 
  106   116   118     5 
  117   116   118     5 
  116   118   119     5 
  116   118   120     5 
  119   118   120     5 
  118   120   121     5 
  118   120   122     5 
  118   120   140     5 
  121   120   122     5 
  121   120   140     5 
  122   120   140     5 
  120   122   123     5 
  120   122   124     5 
  120   122   125     5 
  123   122   124     5 
  123   122   125     5 
  124   122   125     5 
  122   125   126     5 
  122   125   131     5 
  126   125   131     5 
  125   126   127     5 
  125   126   128     5 
  127   126   128     5 
  126   128   129     5 
  126   128   130     5 
  129   128   130     5 
  128   130   131     5 
  128   130   136     5 
  131   130   136     5 
  125   131   130     5 
  125   131   132     5 
  130   131   132     5 
  131   132   133     5 
  131   132   134     5 
  133   132   134     5 
  132   134   135     5 
  132   134   138     5 
  135   134   138     5 
  130   136   137     5 
  130   136   138     5 
  137   136   138     5 
  134   138   136     5 
  134   138   139     5 
  136   138   139     5 
  120   140   141     5 
  120   140   142     5 
  141   140   142     5 
  140   142   143     5 
  140   142   144     5 
  143   142   144     5 
  142   144   145     5 
  142   144   146     5 
  142   144   161     5 
  145   144   146     5 
  145   144   161     5 
  146   144   161     5 
  144   146   147     5 
  144   146   148     5 
  144   146   149     5 
  147   146   148     5 
  147   146   149     5 
  148   146   149     5 
  146   149   150     5 
  146   149   157     5 
  150   149   157     5 
  149   150   151     5 
  149   150   152     5 
  151   150   152     5 
  150   152   153     5 
  150   152   154     5 
  153   152   154     5 
  152   154   155     5 
  152   154   159     5 
  155   154   159     5 
  154   155   156     5 
  149   157   158     5 
  149   157   159     5 
  158   157   159     5 
  154   159   157     5 
  154   159   160     5 
  157   159   160     5 
  144   161   162     5 
  144   161   163     5 
  162   161   163     5 

[ dihedrals ]
;  ai    aj    ak    al funct            c0            c1            c2            c3            c4            c5
    2     1     5     6     9 
    2     1     5     7     9 
    2     1     5    22     9 
    3     1     5     6     9 
    3     1     5     7     9 
    3     1     5    22     9 
    4     1     5     6     9 
    4     1     5     7     9 
    4     1     5    22     9 
    1     5     7     8     9 
    1     5     7     9     9 
    1     5     7    10     9 
    6     5     7     8     9 
    6     5     7     9     9 
    6     5     7    10     9 
   22     5     7     8     9 
   22     5     7     9     9 
   22     5     7    10     9 
    1     5    22    23     9 
    1     5    22    24     9 
    6     5    22    23     9 
    6     5    22    24     9 
    7     5    22    23     9 
    7     5    22    24     9 
    5     7    10    11     9 
    5     7    10    18     9 
    8     7    10    11     9 
    8     7    10    18     9 
    9     7    10    11     9 
    9     7    10    18     9 
    7    10    11    12     9 
    7    10    11    13     9 
   18    10    11    12     9 
   18    10    11    13     9 
    7    10    18    19     9 
    7    10    18    20     9 
   11    10    18    19     9 
   11    10    18    20     9 
   10    11    13    14     9 
   10    11    13    15     9 
   12    11    13    14     9 
   12    11    13    15     9 
   11    13    15    16     9 
   11    13    15    20     9 
   14    13    15    16     9 
   14    13    15    20     9 
   13    15    16    17     9 
   20    15    16    17     9 
   13    15    20    18     9 
   13    15    20    21     9 
   16    15    20    18     9 
   16    15    20    21     9 
   10    18    20    15     9 
   10    18    20    21     9 
   19    18    20    15     9 
   19    18    20    21     9 
    5    22    24    25     9 
    5    22    24    26     9 
   23    22    24    25     9 
   23    22    24    26     9 
   22    24    26    27     9 
   22    24    26    28     9 
   22    24    26    43     9 
   25    24    26    27     9 
   25    24    26    28     9 
   25    24    26    43     9 
   24    26    28    29     9 
   24    26    28    30     9 
   24    26    28    31     9 
   27    26    28    29     9 
   27    26    28    30     9 
   27    26    28    31     9 
   43    26    28    29     9 
   43    26    28    30     9 
   43    26    28    31     9 
   24    26    43    44     9 
   24    26    43    45     9 
   27    26    43    44     9 
   27    26    43    45     9 
   28    26    43    44     9 
   28    26    43    45     9 
   26    28    31    32     9 
   26    28    31    39     9 
   29    28    31    32     9 
   29    28    31    39     9 
   30    28    31    32     9 
   30    28    31    39     9 
   28    31    32    33     9 
   28    31    32    34     9 
   39    31    32    33     9 
   39    31    32    34     9 
   28    31    39    40     9 
   28    31    39    41     9 
   32    31    39    40     9 
   32    31    39    41     9 
   31    32    34    35     9 
   31    32    34    36     9 
   33    32    34    35     9 
   33    32    34    36     9 
   32    34    36    37     9 
   32    34    36    41     9 
   35    34    36    37     9 
   35    34    36    41     9 
   34    36    37    38     9 
   41    36    37    38     9 
   34    36    41    39     9 
   34    36    41    42     9 
   37    36    41    39     9 
   37    36    41    42     9 
   31    39    41    36     9 
   31    39    41    42     9 
   40    39    41    36     9 
   40    39    41    42     9 
   26    43    45    46     9 
   26    43    45    47     9 
   44    43    45    46     9 
   44    43    45    47     9 
   43    45    47    48     9 
   43    45    47    49     9 
   43    45    47    55     9 
   46    45    47    48     9 
   46    45    47    49     9 
   46    45    47    55     9 
   45    47    49    50     9 
   45    47    49    51     9 
   45    47    49    52     9 
   48    47    49    50     9 
   48    47    49    51     9 
   48    47    49    52     9 
   55    47    49    50     9 
   55    47    49    51     9 
   55    47    49    52     9 
   45    47    55    56     9 
   45    47    55    57     9 
   48    47    55    56     9 
   48    47    55    57     9 
   49    47    55    56     9 
   49    47    55    57     9 
   47    49    52    53     9 
   47    49    52    54     9 
   50    49    52    53     9 
   50    49    52    54     9 
   51    49    52    53     9 
   51    49    52    54     9 
   47    55    57    58     9 
   47    55    57    59     9 
   56    55    57    58     9 
   56    55    57    59     9 
   55    57    59    60     9 
   55    57    59    61     9 
   55    57    59    66     9 
   58    57    59    60     9 
   58    57    59    61     9 
   58    57    59    66     9 
   57    59    61    62     9 
   57    59    61    63     9 
   57    59    61    64     9 
   60    59    61    62     9 
   60    59    61    63     9 
   60    59    61    64     9 
   66    59    61    62     9 
   66    59    61    63     9 
   66    59    61    64     9 
   57    59    66    67     9 
   57    59    66    68     9 
   60    59    66    67     9 
   60    59    66    68     9 
   61    59    66    67     9 
   61    59    66    68     9 
   59    61    64    65     9 
   62    61    64    65     9 
   63    61    64    65     9 
   59    66    68    69     9 
   59    66    68    70     9 
   67    66    68    69     9 
   67    66    68    70     9 
   66    68    70    71     9 
   66    68    70    72     9 
   66    68    70    81     9 
   69    68    70    71     9 
   69    68    70    72     9 
   69    68    70    81     9 
   68    70    72    73     9 
   68    70    72    74     9 
   68    70    72    75     9 
   71    70    72    73     9 
   71    70    72    74     9 
   71    70    72    75     9 
   81    70    72    73     9 
   81    70    72    74     9 
   81    70    72    75     9 
   68    70    81    82     9 
   68    70    81    83     9 
   71    70    81    82     9 
   71    70    81    83     9 
   72    70    81    82     9 
   72    70    81    83     9 
   70    72    75    76     9 
   70    72    75    77     9 
   70    72    75    78     9 
   73    72    75    76     9 
   73    72    75    77     9 
   73    72    75    78     9 
   74    72    75    76     9 
   74    72    75    77     9 
   74    72    75    78     9 
   72    75    78    79     9 
   72    75    78    80     9 
   76    75    78    79     9 
   76    75    78    80     9 
   77    75    78    79     9 
   77    75    78    80     9 
   70    81    83    84     9 
   70    81    83    85     9 
   82    81    83    84     9 
   82    81    83    85     9 
   81    83    85    86     9 
   81    83    85    87     9 
   81    83    85    95     9 
   84    83    85    86     9 
   84    83    85    87     9 
   84    83    85    95     9 
   83    85    87    88     9 
   83    85    87    89     9 
   83    85    87    91     9 
   86    85    87    88     9 
   86    85    87    89     9 
   86    85    87    91     9 
   95    85    87    88     9 
   95    85    87    89     9 
   95    85    87    91     9 
   83    85    95    96     9 
   83    85    95    97     9 
   86    85    95    96     9 
   86    85    95    97     9 
   87    85    95    96     9 
   87    85    95    97     9 
   85    87    89    90     9 
   88    87    89    90     9 
   91    87    89    90     9 
   85    87    91    92     9 
   85    87    91    93     9 
   85    87    91    94     9 
   88    87    91    92     9 
   88    87    91    93     9 
   88    87    91    94     9 
   89    87    91    92     9 
   89    87    91    93     9 
   89    87    91    94     9 
   85    95    97    98     9 
   85    95    97    99     9 
   96    95    97    98     9 
   96    95    97    99     9 
   95    97    99   100     9 
   95    97    99   101     9 
   95    97    99   102     9 
   98    97    99   100     9 
   98    97    99   101     9 
   98    97    99   102     9 
   97    99   102   103     9 
   97    99   102   104     9 
  100    99   102   103     9 
  100    99   102   104     9 
  101    99   102   103     9 
  101    99   102   104     9 
   99   102   104   105     9 
   99   102   104   106     9 
  103   102   104   105     9 
  103   102   104   106     9 
  102   104   106   107     9 
  102   104   106   108     9 
  102   104   106   116     9 
  105   104   106   107     9 
  105   104   106   108     9 
  105   104   106   116     9 
  104   106   108   109     9 
  104   106   108   110     9 
  104   106   108   112     9 
  107   106   108   109     9 
  107   106   108   110     9 
  107   106   108   112     9 
  116   106   108   109     9 
  116   106   108   110     9 
  116   106   108   112     9 
  104   106   116   117     9 
  104   106   116   118     9 
  107   106   116   117     9 
  107   106   116   118     9 
  108   106   116   117     9 
  108   106   116   118     9 
  106   108   110   111     9 
  109   108   110   111     9 
  112   108   110   111     9 
  106   108   112   113     9 
  106   108   112   114     9 
  106   108   112   115     9 
  109   108   112   113     9 
  109   108   112   114     9 
  109   108   112   115     9 
  110   108   112   113     9 
  110   108   112   114     9 
  110   108   112   115     9 
  106   116   118   119     9 
  106   116   118   120     9 
  117   116   118   119     9 
  117   116   118   120     9 
  116   118   120   121     9 
  116   118   120   122     9 
  116   118   120   140     9 
  119   118   120   121     9 
  119   118   120   122     9 
  119   118   120   140     9 
  118   120   122   123     9 
  118   120   122   124     9 
  118   120   122   125     9 
  121   120   122   123     9 
  121   120   122   124     9 
  121   120   122   125     9 
  140   120   122   123     9 
  140   120   122   124     9 
  140   120   122   125     9 
  118   120   140   141     9 
  118   120   140   142     9 
  121   120   140   141     9 
  121   120   140   142     9 
  122   120   140   141     9 
  122   120   140   142     9 
  120   122   125   126     9 
  120   122   125   131     9 
  123   122   125   126     9 
  123   122   125   131     9 
  124   122   125   126     9 
  124   122   125   131     9 
  122   125   126   127     9 
  122   125   126   128     9 
  131   125   126   127     9 
  131   125   126   128     9 
  122   125   131   130     9 
  122   125   131   132     9 
  126   125   131   130     9 
  126   125   131   132     9 
  125   126   128   129     9 
  125   126   128   130     9 
  127   126   128   129     9 
  127   126   128   130     9 
  126   128   130   131     9 
  126   128   130   136     9 
  129   128   130   131     9 
  129   128   130   136     9 
  128   130   131   125     9 
  128   130   131   132     9 
  136   130   131   125     9 
  136   130   131   132     9 
  128   130   136   137     9 
  128   130   136   138     9 
  131   130   136   137     9 
  131   130   136   138     9 
  125   131   132   133     9 
  125   131   132   134     9 
  130   131   132   133     9 
  130   131   132   134     9 
  131   132   134   135     9 
  131   132   134   138     9 
  133   132   134   135     9 
  133   132   134   138     9 
  132   134   138   136     9 
  132   134   138   139     9 
  135   134   138   136     9 
  135   134   138   139     9 
  130   136   138   134     9 
  130   136   138   139     9 
  137   136   138   134     9 
  137   136   138   139     9 
  120   140   142   143     9 
  120   140   142   144     9 
  141   140   142   143     9 
  141   140   142   144     9 
  140   142   144   145     9 
  140   142   144   146     9 
  140   142   144   161     9 
  143   142   144   145     9 
  143   142   144   146     9 
  143   142   144   161     9 
  142   144   146   147     9 
  142   144   146   148     9 
  142   144   146   149     9 
  145   144   146   147     9 
  145   144   146   148     9 
  145   144   146   149     9 
  161   144   146   147     9 
  161   144   146   148     9 
  161   144   146   149     9 
  142   144   161   162     9 
  142   144   161   163     9 
  145   144   161   162     9 
  145   144   161   163     9 
  146   144   161   162     9 
  146   144   161   163     9 
  144   146   149   150     9 
  144   146   149   157     9 
  147   146   149   150     9 
  147   146   149   157     9 
  148   146   149   150     9 
  148   146   149   157     9 
  146   149   150   151     9 
  146   149   150   152     9 
  157   149   150   151     9 
  157   149   150   152     9 
  146   149   157   158     9 
  146   149   157   159     9 
  150   149   157   158     9 
  150   149   157   159     9 
  149   150   152   153     9 
  149   150   152   154     9 
  151   150   152   153     9 
  151   150   152   154     9 
  150   152   154   155     9 
  150   152   154   159     9 
  153   152   154   155     9 
  153   152   154   159     9 
  152   154   155   156     9 
  159   154   155   156     9 
  152   154   159   157     9 
  152   154   159   160     9 
  155   154   159   157     9 
  155   154   159   160     9 
  149   157   159   154     9 
  149   157   159   160     9 
  158   157   159   154     9 
  158   157   159   160     9 

[ dihedrals ]
;  ai    aj    ak    al funct            c0            c1            c2            c3
   22     5    24    23     2 
   24    22    26    25     2 
   43    26    45    44     2 
   45    43    47    46     2 
   52    49    54    53     2 
   55    47    57    56     2 
   57    55    59    58     2 
   66    59    68    67     2 
   68    66    70    69     2 
   78    75    80    79     2 
   81    70    83    82     2 
   83    81    85    84     2 
   95    85    97    96     2 
   97    95    99    98     2 
  102    99   104   103     2 
  104   102   106   105     2 
  116   106   118   117     2 
  118   116   120   119     2 
  140   120   142   141     2 
  142   140   144   143     2 
  161   144   163   162     2 

[ cmap ]
;  ai    aj    ak    al    am funct
   95    97    99   102   104     1 

; Include Position restraint file
#ifdef POSRES
#include "posre.itp"
#endif

; Include water topology
#include "charmm22star.ff/tip3p.itp"

#ifdef POSRES_WATER
; Position restraint for each water oxygen
[ position_restraints ]
;  i funct       fcx        fcy        fcz
   1    1       1000       1000       1000
#endif

; Include topology for ions
#include "charmm22star.ff/ions.itp"

[ system ]
; Name
Protein in water

[ molecules ]
; Compound        #mols
Protein_chain_A     1
SOL         1756
NA               2
