;
;	File 'topol.top' was generated
;	By user: muralika.m (21947)
;	On host: zeus
;	At date: Wed Oct  8 15:27:15 2025
;
;	This is a standalone topology file
;
;	Created by:
;	                    :-) GROMACS - gmx pdb2gmx, 2019.6 (-:
;	
;	Executable:   /home/muralika.m/.conda/envs/muralika/bin/gmx_mpi
;	Data prefix:  /home/muralika.m/.conda/envs/muralika
;	Working dir:  /rg/mendels_prj/muralika.m/ub/New_mutns/YYDPERGTWY
;	Command line:
;	  gmx_mpi pdb2gmx -f YYDPERGTWY.pdb -o processed_structure.gro -p topol.top -asp -glu -ter
;	Force field was read from the standard GROMACS share directory.
;

; Include forcefield parameters
#include "charmm22star.ff/forcefield.itp"

[ moleculetype ]
; Name            nrexcl
Protein_chain_A     3

[ atoms ]
;   nr       type  resnr residue  atom   cgnr     charge       mass  typeB    chargeB      massB
; residue   0 TYR rtp TYR  q +1.0
     1        NH3      0    TYR      N      1       -0.3    14.0027
     2         HC      0    TYR     H1      2       0.33      1.008
     3         HC      0    TYR     H2      3       0.33      1.008
     4         HC      0    TYR     H3      4       0.33      1.008
     5        CT1      0    TYR     CA      5       0.21     12.011
     6         HB      0    TYR     HA      6        0.1      1.008
     7        CT2      0    TYR     CB      7      -0.18     12.011
     8         HA      0    TYR    HB1      8       0.09      1.008
     9         HA      0    TYR    HB2      9       0.09      1.008
    10         CA      0    TYR     CG     10          0     12.011
    11         CA      0    TYR    CD1     11     -0.115     12.011
    12         HP      0    TYR    HD1     12      0.115      1.008
    13         CA      0    TYR    CE1     13     -0.115     12.011
    14         HP      0    TYR    HE1     14      0.115      1.008
    15         CA      0    TYR     CZ     15       0.11     12.011
    16        OH1      0    TYR     OH     16      -0.54     15.999
    17          H      0    TYR     HH     17       0.43      1.008
    18         CA      0    TYR    CD2     18     -0.115     12.011
    19         HP      0    TYR    HD2     19      0.115      1.008
    20         CA      0    TYR    CE2     20     -0.115     12.011
    21         HP      0    TYR    HE2     21      0.115      1.008
    22          C      0    TYR      C     22       0.51     12.011
    23          O      0    TYR      O     23      -0.51     15.999   ; qtot 1
; residue   1 TYR rtp TYR  q  0.0
    24        NH1      1    TYR      N     24      -0.47     14.007
    25          H      1    TYR     HN     25       0.31      1.008
    26        CT1      1    TYR     CA     26       0.07     12.011
    27         HB      1    TYR     HA     27       0.09      1.008
    28        CT2      1    TYR     CB     28      -0.18     12.011
    29         HA      1    TYR    HB1     29       0.09      1.008
    30         HA      1    TYR    HB2     30       0.09      1.008
    31         CA      1    TYR     CG     31          0     12.011
    32         CA      1    TYR    CD1     32     -0.115     12.011
    33         HP      1    TYR    HD1     33      0.115      1.008
    34         CA      1    TYR    CE1     34     -0.115     12.011
    35         HP      1    TYR    HE1     35      0.115      1.008
    36         CA      1    TYR     CZ     36       0.11     12.011
    37        OH1      1    TYR     OH     37      -0.54     15.999
    38          H      1    TYR     HH     38       0.43      1.008
    39         CA      1    TYR    CD2     39     -0.115     12.011
    40         HP      1    TYR    HD2     40      0.115      1.008
    41         CA      1    TYR    CE2     41     -0.115     12.011
    42         HP      1    TYR    HE2     42      0.115      1.008
    43          C      1    TYR      C     43       0.51     12.011
    44          O      1    TYR      O     44      -0.51     15.999   ; qtot 1
; residue   2 ASP rtp ASP  q -1.0
    45        NH1      2    ASP      N     45      -0.47     14.007
    46          H      2    ASP     HN     46       0.31      1.008
    47        CT1      2    ASP     CA     47       0.07     12.011
    48         HB      2    ASP     HA     48       0.09      1.008
    49        CT2      2    ASP     CB     49      -0.28     12.011
    50         HA      2    ASP    HB1     50       0.05      1.008
    51         HA      2    ASP    HB2     51       0.05      1.008
    52         CC      2    ASP     CG     52       0.56     12.011
    53         OC      2    ASP    OD1     53      -0.69     15.999
    54         OC      2    ASP    OD2     54      -0.69     15.999
    55          C      2    ASP      C     55       0.51     12.011
    56          O      2    ASP      O     56      -0.51     15.999   ; qtot 0
; residue   3 PRO rtp PRO  q  0.0
    57          N      3    PRO      N     57      -0.29     14.007
    58        CP3      3    PRO     CD     58          0     12.011
    59         HA      3    PRO    HD1     59       0.09      1.008
    60         HA      3    PRO    HD2     60       0.09      1.008
    61        CP1      3    PRO     CA     61       0.02     12.011
    62         HB      3    PRO     HA     62       0.09      1.008
    63        CP2      3    PRO     CB     63      -0.18     12.011
    64         HA      3    PRO    HB1     64       0.09      1.008
    65         HA      3    PRO    HB2     65       0.09      1.008
    66        CP2      3    PRO     CG     66      -0.18     12.011
    67         HA      3    PRO    HG1     67       0.09      1.008
    68         HA      3    PRO    HG2     68       0.09      1.008
    69          C      3    PRO      C     69       0.51     12.011
    70          O      3    PRO      O     70      -0.51     15.999   ; qtot 0
; residue   4 GLU rtp GLU  q -1.0
    71        NH1      4    GLU      N     71      -0.47     14.007
    72          H      4    GLU     HN     72       0.31      1.008
    73        CT1      4    GLU     CA     73       0.07     12.011
    74         HB      4    GLU     HA     74       0.09      1.008
    75        CT2      4    GLU     CB     75      -0.18     12.011
    76         HA      4    GLU    HB1     76       0.09      1.008
    77         HA      4    GLU    HB2     77       0.09      1.008
    78        CT2      4    GLU     CG     78      -0.28     12.011
    79         HA      4    GLU    HG1     79       0.05      1.008
    80         HA      4    GLU    HG2     80       0.05      1.008
    81         CC      4    GLU     CD     81       0.56     12.011
    82         OC      4    GLU    OE1     82      -0.69     15.999
    83         OC      4    GLU    OE2     83      -0.69     15.999
    84          C      4    GLU      C     84       0.51     12.011
    85          O      4    GLU      O     85      -0.51     15.999   ; qtot -1
; residue   5 ARG rtp ARG  q +1.0
    86        NH1      5    ARG      N     86      -0.47     14.007
    87          H      5    ARG     HN     87       0.31      1.008
    88        CT1      5    ARG     CA     88       0.07     12.011
    89         HB      5    ARG     HA     89       0.09      1.008
    90        CT2      5    ARG     CB     90      -0.18     12.011
    91         HA      5    ARG    HB1     91       0.09      1.008
    92         HA      5    ARG    HB2     92       0.09      1.008
    93        CT2      5    ARG     CG     93      -0.18     12.011
    94         HA      5    ARG    HG1     94       0.09      1.008
    95         HA      5    ARG    HG2     95       0.09      1.008
    96        CT2      5    ARG     CD     96        0.2     12.011
    97         HA      5    ARG    HD1     97       0.09      1.008
    98         HA      5    ARG    HD2     98       0.09      1.008
    99        NC2      5    ARG     NE     99      -0.61     14.007
   100         HC      5    ARG     HE    100       0.38      1.008
   101          C      5    ARG     CZ    101       0.49     12.011
   102        NC2      5    ARG    NH1    102      -0.62     14.007
   103         HC      5    ARG   HH11    103        0.4      1.008
   104         HC      5    ARG   HH12    104        0.4      1.008
   105        NC2      5    ARG    NH2    105      -0.62     14.007
   106         HC      5    ARG   HH21    106        0.4      1.008
   107         HC      5    ARG   HH22    107        0.4      1.008
   108          C      5    ARG      C    108       0.51     12.011
   109          O      5    ARG      O    109      -0.51     15.999   ; qtot 0
; residue   6 GLY rtp GLY  q  0.0
   110        NH1      6    GLY      N    110      -0.47     14.007
   111          H      6    GLY     HN    111       0.31      1.008
   112        CT2      6    GLY     CA    112      -0.02     12.011
   113         HB      6    GLY    HA1    113       0.09      1.008
   114         HB      6    GLY    HA2    114       0.09      1.008
   115          C      6    GLY      C    115       0.51     12.011
   116          O      6    GLY      O    116      -0.51     15.999   ; qtot 0
; residue   7 THR rtp THR  q  0.0
   117        NH1      7    THR      N    117      -0.47     14.007
   118          H      7    THR     HN    118       0.31      1.008
   119        CT1      7    THR     CA    119       0.07     12.011
   120         HB      7    THR     HA    120       0.09      1.008
   121        CT1      7    THR     CB    121       0.14     12.011
   122         HA      7    THR     HB    122       0.09      1.008
   123        OH1      7    THR    OG1    123      -0.66     15.999
   124          H      7    THR    HG1    124       0.43      1.008
   125        CT3      7    THR    CG2    125      -0.27     12.011
   126         HA      7    THR   HG21    126       0.09      1.008
   127         HA      7    THR   HG22    127       0.09      1.008
   128         HA      7    THR   HG23    128       0.09      1.008
   129          C      7    THR      C    129       0.51     12.011
   130          O      7    THR      O    130      -0.51     15.999   ; qtot 0
; residue   8 TRP rtp TRP  q  0.0
   131        NH1      8    TRP      N    131      -0.47     14.007
   132          H      8    TRP     HN    132       0.31      1.008
   133        CT1      8    TRP     CA    133       0.07     12.011
   134         HB      8    TRP     HA    134       0.09      1.008
   135        CT2      8    TRP     CB    135      -0.18     12.011
   136         HA      8    TRP    HB1    136       0.09      1.008
   137         HA      8    TRP    HB2    137       0.09      1.008
   138         CY      8    TRP     CG    138      -0.03     12.011
   139         CA      8    TRP    CD1    139      0.035     12.011
   140         HP      8    TRP    HD1    140      0.115      1.008
   141         NY      8    TRP    NE1    141      -0.61     14.007
   142          H      8    TRP    HE1    142       0.38      1.008
   143        CPT      8    TRP    CE2    143       0.13     12.011
   144        CPT      8    TRP    CD2    144      -0.02     12.011
   145         CA      8    TRP    CE3    145     -0.115     12.011
   146         HP      8    TRP    HE3    146      0.115      1.008
   147         CA      8    TRP    CZ3    147     -0.115     12.011
   148         HP      8    TRP    HZ3    148      0.115      1.008
   149         CA      8    TRP    CZ2    149     -0.115     12.011
   150         HP      8    TRP    HZ2    150      0.115      1.008
   151         CA      8    TRP    CH2    151     -0.115     12.011
   152         HP      8    TRP    HH2    152      0.115      1.008
   153          C      8    TRP      C    153       0.51     12.011
   154          O      8    TRP      O    154      -0.51     15.999   ; qtot 0
; residue   9 TYR rtp TYR  q -1.0
   155        NH1      9    TYR      N    155      -0.47     14.007
   156          H      9    TYR     HN    156       0.31      1.008
   157        CT1      9    TYR     CA    157       0.07     12.011
   158         HB      9    TYR     HA    158       0.09      1.008
   159        CT2      9    TYR     CB    159      -0.18     12.011
   160         HA      9    TYR    HB1    160       0.09      1.008
   161         HA      9    TYR    HB2    161       0.09      1.008
   162         CA      9    TYR     CG    162          0     12.011
   163         CA      9    TYR    CD1    163     -0.115     12.011
   164         HP      9    TYR    HD1    164      0.115      1.008
   165         CA      9    TYR    CE1    165     -0.115     12.011
   166         HP      9    TYR    HE1    166      0.115      1.008
   167         CA      9    TYR     CZ    167       0.11     12.011
   168        OH1      9    TYR     OH    168      -0.54     15.999
   169          H      9    TYR     HH    169       0.43      1.008
   170         CA      9    TYR    CD2    170     -0.115     12.011
   171         HP      9    TYR    HD2    171      0.115      1.008
   172         CA      9    TYR    CE2    172     -0.115     12.011
   173         HP      9    TYR    HE2    173      0.115      1.008
   174         CC      9    TYR      C    174       0.34     12.011
   175         OC      9    TYR    OT1    175      -0.67    15.9994
   176         OC      9    TYR    OT2    176      -0.67    15.9994   ; qtot -1

[ bonds ]
;  ai    aj funct            c0            c1            c2            c3
    1     2     1 
    1     3     1 
    1     4     1 
    1     5     1 
    5     6     1 
    5     7     1 
    5    22     1 
    7     8     1 
    7     9     1 
    7    10     1 
   10    11     1 
   10    18     1 
   11    12     1 
   11    13     1 
   13    14     1 
   13    15     1 
   15    16     1 
   15    20     1 
   16    17     1 
   18    19     1 
   18    20     1 
   20    21     1 
   22    23     1 
   22    24     1 
   24    25     1 
   24    26     1 
   26    27     1 
   26    28     1 
   26    43     1 
   28    29     1 
   28    30     1 
   28    31     1 
   31    32     1 
   31    39     1 
   32    33     1 
   32    34     1 
   34    35     1 
   34    36     1 
   36    37     1 
   36    41     1 
   37    38     1 
   39    40     1 
   39    41     1 
   41    42     1 
   43    44     1 
   43    45     1 
   45    46     1 
   45    47     1 
   47    48     1 
   47    49     1 
   47    55     1 
   49    50     1 
   49    51     1 
   49    52     1 
   52    53     1 
   52    54     1 
   55    56     1 
   55    57     1 
   57    58     1 
   57    61     1 
   58    59     1 
   58    60     1 
   58    66     1 
   61    62     1 
   61    63     1 
   61    69     1 
   63    64     1 
   63    65     1 
   63    66     1 
   66    67     1 
   66    68     1 
   69    70     1 
   69    71     1 
   71    72     1 
   71    73     1 
   73    74     1 
   73    75     1 
   73    84     1 
   75    76     1 
   75    77     1 
   75    78     1 
   78    79     1 
   78    80     1 
   78    81     1 
   81    82     1 
   81    83     1 
   84    85     1 
   84    86     1 
   86    87     1 
   86    88     1 
   88    89     1 
   88    90     1 
   88   108     1 
   90    91     1 
   90    92     1 
   90    93     1 
   93    94     1 
   93    95     1 
   93    96     1 
   96    97     1 
   96    98     1 
   96    99     1 
   99   100     1 
   99   101     1 
  101   102     1 
  101   105     1 
  102   103     1 
  102   104     1 
  105   106     1 
  105   107     1 
  108   109     1 
  108   110     1 
  110   111     1 
  110   112     1 
  112   113     1 
  112   114     1 
  112   115     1 
  115   116     1 
  115   117     1 
  117   118     1 
  117   119     1 
  119   120     1 
  119   121     1 
  119   129     1 
  121   122     1 
  121   123     1 
  121   125     1 
  123   124     1 
  125   126     1 
  125   127     1 
  125   128     1 
  129   130     1 
  129   131     1 
  131   132     1 
  131   133     1 
  133   134     1 
  133   135     1 
  133   153     1 
  135   136     1 
  135   137     1 
  135   138     1 
  138   139     1 
  138   144     1 
  139   140     1 
  139   141     1 
  141   142     1 
  141   143     1 
  143   144     1 
  143   149     1 
  144   145     1 
  145   146     1 
  145   147     1 
  147   148     1 
  147   151     1 
  149   150     1 
  149   151     1 
  151   152     1 
  153   154     1 
  153   155     1 
  155   156     1 
  155   157     1 
  157   158     1 
  157   159     1 
  157   174     1 
  159   160     1 
  159   161     1 
  159   162     1 
  162   163     1 
  162   170     1 
  163   164     1 
  163   165     1 
  165   166     1 
  165   167     1 
  167   168     1 
  167   172     1 
  168   169     1 
  170   171     1 
  170   172     1 
  172   173     1 
  174   175     1 
  174   176     1 

[ pairs ]
;  ai    aj funct            c0            c1            c2            c3
    1     8     1 
    1     9     1 
    1    10     1 
    1    23     1 
    1    24     1 
    2     6     1 
    2     7     1 
    2    22     1 
    3     6     1 
    3     7     1 
    3    22     1 
    4     6     1 
    4     7     1 
    4    22     1 
    5    11     1 
    5    18     1 
    5    25     1 
    5    26     1 
    6     8     1 
    6     9     1 
    6    10     1 
    6    23     1 
    6    24     1 
    7    12     1 
    7    13     1 
    7    19     1 
    7    20     1 
    7    23     1 
    7    24     1 
    8    11     1 
    8    18     1 
    8    22     1 
    9    11     1 
    9    18     1 
    9    22     1 
   10    14     1 
   10    15     1 
   10    21     1 
   10    22     1 
   11    16     1 
   11    19     1 
   11    20     1 
   12    14     1 
   12    15     1 
   12    18     1 
   13    17     1 
   13    18     1 
   13    21     1 
   14    16     1 
   14    20     1 
   15    19     1 
   16    18     1 
   16    21     1 
   17    20     1 
   19    21     1 
   22    27     1 
   22    28     1 
   22    43     1 
   23    25     1 
   23    26     1 
   24    29     1 
   24    30     1 
   24    31     1 
   24    44     1 
   24    45     1 
   25    27     1 
   25    28     1 
   25    43     1 
   26    32     1 
   26    39     1 
   26    46     1 
   26    47     1 
   27    29     1 
   27    30     1 
   27    31     1 
   27    44     1 
   27    45     1 
   28    33     1 
   28    34     1 
   28    40     1 
   28    41     1 
   28    44     1 
   28    45     1 
   29    32     1 
   29    39     1 
   29    43     1 
   30    32     1 
   30    39     1 
   30    43     1 
   31    35     1 
   31    36     1 
   31    42     1 
   31    43     1 
   32    37     1 
   32    40     1 
   32    41     1 
   33    35     1 
   33    36     1 
   33    39     1 
   34    38     1 
   34    39     1 
   34    42     1 
   35    37     1 
   35    41     1 
   36    40     1 
   37    39     1 
   37    42     1 
   38    41     1 
   40    42     1 
   43    48     1 
   43    49     1 
   43    55     1 
   44    46     1 
   44    47     1 
   45    50     1 
   45    51     1 
   45    52     1 
   45    56     1 
   45    57     1 
   46    48     1 
   46    49     1 
   46    55     1 
   47    53     1 
   47    54     1 
   47    58     1 
   47    61     1 
   48    50     1 
   48    51     1 
   48    52     1 
   48    56     1 
   48    57     1 
   49    56     1 
   49    57     1 
   50    53     1 
   50    54     1 
   50    55     1 
   51    53     1 
   51    54     1 
   51    55     1 
   52    55     1 
   55    59     1 
   55    60     1 
   55    62     1 
   55    63     1 
   55    66     1 
   55    69     1 
   56    58     1 
   56    61     1 
   57    64     1 
   57    65     1 
   57    67     1 
   57    68     1 
   57    70     1 
   57    71     1 
   58    62     1 
   58    64     1 
   58    65     1 
   58    69     1 
   59    61     1 
   59    63     1 
   59    67     1 
   59    68     1 
   60    61     1 
   60    63     1 
   60    67     1 
   60    68     1 
   61    67     1 
   61    68     1 
   61    72     1 
   61    73     1 
   62    64     1 
   62    65     1 
   62    66     1 
   62    70     1 
   62    71     1 
   63    70     1 
   63    71     1 
   64    67     1 
   64    68     1 
   64    69     1 
   65    67     1 
   65    68     1 
   65    69     1 
   66    69     1 
   69    74     1 
   69    75     1 
   69    84     1 
   70    72     1 
   70    73     1 
   71    76     1 
   71    77     1 
   71    78     1 
   71    85     1 
   71    86     1 
   72    74     1 
   72    75     1 
   72    84     1 
   73    79     1 
   73    80     1 
   73    81     1 
   73    87     1 
   73    88     1 
   74    76     1 
   74    77     1 
   74    78     1 
   74    85     1 
   74    86     1 
   75    82     1 
   75    83     1 
   75    85     1 
   75    86     1 
   76    79     1 
   76    80     1 
   76    81     1 
   76    84     1 
   77    79     1 
   77    80     1 
   77    81     1 
   77    84     1 
   78    84     1 
   79    82     1 
   79    83     1 
   80    82     1 
   80    83     1 
   84    89     1 
   84    90     1 
   84   108     1 
   85    87     1 
   85    88     1 
   86    91     1 
   86    92     1 
   86    93     1 
   86   109     1 
   86   110     1 
   87    89     1 
   87    90     1 
   87   108     1 
   88    94     1 
   88    95     1 
   88    96     1 
   88   111     1 
   88   112     1 
   89    91     1 
   89    92     1 
   89    93     1 
   89   109     1 
   89   110     1 
   90    97     1 
   90    98     1 
   90    99     1 
   90   109     1 
   90   110     1 
   91    94     1 
   91    95     1 
   91    96     1 
   91   108     1 
   92    94     1 
   92    95     1 
   92    96     1 
   92   108     1 
   93   100     1 
   93   101     1 
   93   108     1 
   94    97     1 
   94    98     1 
   94    99     1 
   95    97     1 
   95    98     1 
   95    99     1 
   96   102     1 
   96   105     1 
   97   100     1 
   97   101     1 
   98   100     1 
   98   101     1 
   99   103     1 
   99   104     1 
   99   106     1 
   99   107     1 
  100   102     1 
  100   105     1 
  102   106     1 
  102   107     1 
  103   105     1 
  104   105     1 
  108   113     1 
  108   114     1 
  108   115     1 
  109   111     1 
  109   112     1 
  110   116     1 
  110   117     1 
  111   113     1 
  111   114     1 
  111   115     1 
  112   118     1 
  112   119     1 
  113   116     1 
  113   117     1 
  114   116     1 
  114   117     1 
  115   120     1 
  115   121     1 
  115   129     1 
  116   118     1 
  116   119     1 
  117   122     1 
  117   123     1 
  117   125     1 
  117   130     1 
  117   131     1 
  118   120     1 
  118   121     1 
  118   129     1 
  119   124     1 
  119   126     1 
  119   127     1 
  119   128     1 
  119   132     1 
  119   133     1 
  120   122     1 
  120   123     1 
  120   125     1 
  120   130     1 
  120   131     1 
  121   130     1 
  121   131     1 
  122   124     1 
  122   126     1 
  122   127     1 
  122   128     1 
  122   129     1 
  123   126     1 
  123   127     1 
  123   128     1 
  123   129     1 
  124   125     1 
  125   129     1 
  129   134     1 
  129   135     1 
  129   153     1 
  130   132     1 
  130   133     1 
  131   136     1 
  131   137     1 
  131   138     1 
  131   154     1 
  131   155     1 
  132   134     1 
  132   135     1 
  132   153     1 
  133   139     1 
  133   144     1 
  133   156     1 
  133   157     1 
  134   136     1 
  134   137     1 
  134   138     1 
  134   154     1 
  134   155     1 
  135   140     1 
  135   141     1 
  135   143     1 
  135   145     1 
  135   154     1 
  135   155     1 
  136   139     1 
  136   144     1 
  136   153     1 
  137   139     1 
  137   144     1 
  137   153     1 
  138   142     1 
  138   146     1 
  138   147     1 
  138   149     1 
  138   153     1 
  139   145     1 
  139   149     1 
  140   142     1 
  140   143     1 
  140   144     1 
  141   145     1 
  141   150     1 
  141   151     1 
  142   144     1 
  142   149     1 
  143   146     1 
  143   147     1 
  143   152     1 
  144   148     1 
  144   150     1 
  144   151     1 
  145   149     1 
  145   152     1 
  146   148     1 
  146   151     1 
  147   150     1 
  148   149     1 
  148   152     1 
  150   152     1 
  153   158     1 
  153   159     1 
  153   174     1 
  154   156     1 
  154   157     1 
  155   160     1 
  155   161     1 
  155   162     1 
  155   175     1 
  155   176     1 
  156   158     1 
  156   159     1 
  156   174     1 
  157   163     1 
  157   170     1 
  158   160     1 
  158   161     1 
  158   162     1 
  158   175     1 
  158   176     1 
  159   164     1 
  159   165     1 
  159   171     1 
  159   172     1 
  159   175     1 
  159   176     1 
  160   163     1 
  160   170     1 
  160   174     1 
  161   163     1 
  161   170     1 
  161   174     1 
  162   166     1 
  162   167     1 
  162   173     1 
  162   174     1 
  163   168     1 
  163   171     1 
  163   172     1 
  164   166     1 
  164   167     1 
  164   170     1 
  165   169     1 
  165   170     1 
  165   173     1 
  166   168     1 
  166   172     1 
  167   171     1 
  168   170     1 
  168   173     1 
  169   172     1 
  171   173     1 

[ angles ]
;  ai    aj    ak funct            c0            c1            c2            c3
    2     1     3     5 
    2     1     4     5 
    2     1     5     5 
    3     1     4     5 
    3     1     5     5 
    4     1     5     5 
    1     5     6     5 
    1     5     7     5 
    1     5    22     5 
    6     5     7     5 
    6     5    22     5 
    7     5    22     5 
    5     7     8     5 
    5     7     9     5 
    5     7    10     5 
    8     7     9     5 
    8     7    10     5 
    9     7    10     5 
    7    10    11     5 
    7    10    18     5 
   11    10    18     5 
   10    11    12     5 
   10    11    13     5 
   12    11    13     5 
   11    13    14     5 
   11    13    15     5 
   14    13    15     5 
   13    15    16     5 
   13    15    20     5 
   16    15    20     5 
   15    16    17     5 
   10    18    19     5 
   10    18    20     5 
   19    18    20     5 
   15    20    18     5 
   15    20    21     5 
   18    20    21     5 
    5    22    23     5 
    5    22    24     5 
   23    22    24     5 
   22    24    25     5 
   22    24    26     5 
   25    24    26     5 
   24    26    27     5 
   24    26    28     5 
   24    26    43     5 
   27    26    28     5 
   27    26    43     5 
   28    26    43     5 
   26    28    29     5 
   26    28    30     5 
   26    28    31     5 
   29    28    30     5 
   29    28    31     5 
   30    28    31     5 
   28    31    32     5 
   28    31    39     5 
   32    31    39     5 
   31    32    33     5 
   31    32    34     5 
   33    32    34     5 
   32    34    35     5 
   32    34    36     5 
   35    34    36     5 
   34    36    37     5 
   34    36    41     5 
   37    36    41     5 
   36    37    38     5 
   31    39    40     5 
   31    39    41     5 
   40    39    41     5 
   36    41    39     5 
   36    41    42     5 
   39    41    42     5 
   26    43    44     5 
   26    43    45     5 
   44    43    45     5 
   43    45    46     5 
   43    45    47     5 
   46    45    47     5 
   45    47    48     5 
   45    47    49     5 
   45    47    55     5 
   48    47    49     5 
   48    47    55     5 
   49    47    55     5 
   47    49    50     5 
   47    49    51     5 
   47    49    52     5 
   50    49    51     5 
   50    49    52     5 
   51    49    52     5 
   49    52    53     5 
   49    52    54     5 
   53    52    54     5 
   47    55    56     5 
   47    55    57     5 
   56    55    57     5 
   55    57    58     5 
   55    57    61     5 
   58    57    61     5 
   57    58    59     5 
   57    58    60     5 
   57    58    66     5 
   59    58    60     5 
   59    58    66     5 
   60    58    66     5 
   57    61    62     5 
   57    61    63     5 
   57    61    69     5 
   62    61    63     5 
   62    61    69     5 
   63    61    69     5 
   61    63    64     5 
   61    63    65     5 
   61    63    66     5 
   64    63    65     5 
   64    63    66     5 
   65    63    66     5 
   58    66    63     5 
   58    66    67     5 
   58    66    68     5 
   63    66    67     5 
   63    66    68     5 
   67    66    68     5 
   61    69    70     5 
   61    69    71     5 
   70    69    71     5 
   69    71    72     5 
   69    71    73     5 
   72    71    73     5 
   71    73    74     5 
   71    73    75     5 
   71    73    84     5 
   74    73    75     5 
   74    73    84     5 
   75    73    84     5 
   73    75    76     5 
   73    75    77     5 
   73    75    78     5 
   76    75    77     5 
   76    75    78     5 
   77    75    78     5 
   75    78    79     5 
   75    78    80     5 
   75    78    81     5 
   79    78    80     5 
   79    78    81     5 
   80    78    81     5 
   78    81    82     5 
   78    81    83     5 
   82    81    83     5 
   73    84    85     5 
   73    84    86     5 
   85    84    86     5 
   84    86    87     5 
   84    86    88     5 
   87    86    88     5 
   86    88    89     5 
   86    88    90     5 
   86    88   108     5 
   89    88    90     5 
   89    88   108     5 
   90    88   108     5 
   88    90    91     5 
   88    90    92     5 
   88    90    93     5 
   91    90    92     5 
   91    90    93     5 
   92    90    93     5 
   90    93    94     5 
   90    93    95     5 
   90    93    96     5 
   94    93    95     5 
   94    93    96     5 
   95    93    96     5 
   93    96    97     5 
   93    96    98     5 
   93    96    99     5 
   97    96    98     5 
   97    96    99     5 
   98    96    99     5 
   96    99   100     5 
   96    99   101     5 
  100    99   101     5 
   99   101   102     5 
   99   101   105     5 
  102   101   105     5 
  101   102   103     5 
  101   102   104     5 
  103   102   104     5 
  101   105   106     5 
  101   105   107     5 
  106   105   107     5 
   88   108   109     5 
   88   108   110     5 
  109   108   110     5 
  108   110   111     5 
  108   110   112     5 
  111   110   112     5 
  110   112   113     5 
  110   112   114     5 
  110   112   115     5 
  113   112   114     5 
  113   112   115     5 
  114   112   115     5 
  112   115   116     5 
  112   115   117     5 
  116   115   117     5 
  115   117   118     5 
  115   117   119     5 
  118   117   119     5 
  117   119   120     5 
  117   119   121     5 
  117   119   129     5 
  120   119   121     5 
  120   119   129     5 
  121   119   129     5 
  119   121   122     5 
  119   121   123     5 
  119   121   125     5 
  122   121   123     5 
  122   121   125     5 
  123   121   125     5 
  121   123   124     5 
  121   125   126     5 
  121   125   127     5 
  121   125   128     5 
  126   125   127     5 
  126   125   128     5 
  127   125   128     5 
  119   129   130     5 
  119   129   131     5 
  130   129   131     5 
  129   131   132     5 
  129   131   133     5 
  132   131   133     5 
  131   133   134     5 
  131   133   135     5 
  131   133   153     5 
  134   133   135     5 
  134   133   153     5 
  135   133   153     5 
  133   135   136     5 
  133   135   137     5 
  133   135   138     5 
  136   135   137     5 
  136   135   138     5 
  137   135   138     5 
  135   138   139     5 
  135   138   144     5 
  139   138   144     5 
  138   139   140     5 
  138   139   141     5 
  140   139   141     5 
  139   141   142     5 
  139   141   143     5 
  142   141   143     5 
  141   143   144     5 
  141   143   149     5 
  144   143   149     5 
  138   144   143     5 
  138   144   145     5 
  143   144   145     5 
  144   145   146     5 
  144   145   147     5 
  146   145   147     5 
  145   147   148     5 
  145   147   151     5 
  148   147   151     5 
  143   149   150     5 
  143   149   151     5 
  150   149   151     5 
  147   151   149     5 
  147   151   152     5 
  149   151   152     5 
  133   153   154     5 
  133   153   155     5 
  154   153   155     5 
  153   155   156     5 
  153   155   157     5 
  156   155   157     5 
  155   157   158     5 
  155   157   159     5 
  155   157   174     5 
  158   157   159     5 
  158   157   174     5 
  159   157   174     5 
  157   159   160     5 
  157   159   161     5 
  157   159   162     5 
  160   159   161     5 
  160   159   162     5 
  161   159   162     5 
  159   162   163     5 
  159   162   170     5 
  163   162   170     5 
  162   163   164     5 
  162   163   165     5 
  164   163   165     5 
  163   165   166     5 
  163   165   167     5 
  166   165   167     5 
  165   167   168     5 
  165   167   172     5 
  168   167   172     5 
  167   168   169     5 
  162   170   171     5 
  162   170   172     5 
  171   170   172     5 
  167   172   170     5 
  167   172   173     5 
  170   172   173     5 
  157   174   175     5 
  157   174   176     5 
  175   174   176     5 

[ dihedrals ]
;  ai    aj    ak    al funct            c0            c1            c2            c3            c4            c5
    2     1     5     6     9 
    2     1     5     7     9 
    2     1     5    22     9 
    3     1     5     6     9 
    3     1     5     7     9 
    3     1     5    22     9 
    4     1     5     6     9 
    4     1     5     7     9 
    4     1     5    22     9 
    1     5     7     8     9 
    1     5     7     9     9 
    1     5     7    10     9 
    6     5     7     8     9 
    6     5     7     9     9 
    6     5     7    10     9 
   22     5     7     8     9 
   22     5     7     9     9 
   22     5     7    10     9 
    1     5    22    23     9 
    1     5    22    24     9 
    6     5    22    23     9 
    6     5    22    24     9 
    7     5    22    23     9 
    7     5    22    24     9 
    5     7    10    11     9 
    5     7    10    18     9 
    8     7    10    11     9 
    8     7    10    18     9 
    9     7    10    11     9 
    9     7    10    18     9 
    7    10    11    12     9 
    7    10    11    13     9 
   18    10    11    12     9 
   18    10    11    13     9 
    7    10    18    19     9 
    7    10    18    20     9 
   11    10    18    19     9 
   11    10    18    20     9 
   10    11    13    14     9 
   10    11    13    15     9 
   12    11    13    14     9 
   12    11    13    15     9 
   11    13    15    16     9 
   11    13    15    20     9 
   14    13    15    16     9 
   14    13    15    20     9 
   13    15    16    17     9 
   20    15    16    17     9 
   13    15    20    18     9 
   13    15    20    21     9 
   16    15    20    18     9 
   16    15    20    21     9 
   10    18    20    15     9 
   10    18    20    21     9 
   19    18    20    15     9 
   19    18    20    21     9 
    5    22    24    25     9 
    5    22    24    26     9 
   23    22    24    25     9 
   23    22    24    26     9 
   22    24    26    27     9 
   22    24    26    28     9 
   22    24    26    43     9 
   25    24    26    27     9 
   25    24    26    28     9 
   25    24    26    43     9 
   24    26    28    29     9 
   24    26    28    30     9 
   24    26    28    31     9 
   27    26    28    29     9 
   27    26    28    30     9 
   27    26    28    31     9 
   43    26    28    29     9 
   43    26    28    30     9 
   43    26    28    31     9 
   24    26    43    44     9 
   24    26    43    45     9 
   27    26    43    44     9 
   27    26    43    45     9 
   28    26    43    44     9 
   28    26    43    45     9 
   26    28    31    32     9 
   26    28    31    39     9 
   29    28    31    32     9 
   29    28    31    39     9 
   30    28    31    32     9 
   30    28    31    39     9 
   28    31    32    33     9 
   28    31    32    34     9 
   39    31    32    33     9 
   39    31    32    34     9 
   28    31    39    40     9 
   28    31    39    41     9 
   32    31    39    40     9 
   32    31    39    41     9 
   31    32    34    35     9 
   31    32    34    36     9 
   33    32    34    35     9 
   33    32    34    36     9 
   32    34    36    37     9 
   32    34    36    41     9 
   35    34    36    37     9 
   35    34    36    41     9 
   34    36    37    38     9 
   41    36    37    38     9 
   34    36    41    39     9 
   34    36    41    42     9 
   37    36    41    39     9 
   37    36    41    42     9 
   31    39    41    36     9 
   31    39    41    42     9 
   40    39    41    36     9 
   40    39    41    42     9 
   26    43    45    46     9 
   26    43    45    47     9 
   44    43    45    46     9 
   44    43    45    47     9 
   43    45    47    48     9 
   43    45    47    49     9 
   43    45    47    55     9 
   46    45    47    48     9 
   46    45    47    49     9 
   46    45    47    55     9 
   45    47    49    50     9 
   45    47    49    51     9 
   45    47    49    52     9 
   48    47    49    50     9 
   48    47    49    51     9 
   48    47    49    52     9 
   55    47    49    50     9 
   55    47    49    51     9 
   55    47    49    52     9 
   45    47    55    56     9 
   45    47    55    57     9 
   48    47    55    56     9 
   48    47    55    57     9 
   49    47    55    56     9 
   49    47    55    57     9 
   47    49    52    53     9 
   47    49    52    54     9 
   50    49    52    53     9 
   50    49    52    54     9 
   51    49    52    53     9 
   51    49    52    54     9 
   47    55    57    58     9 
   47    55    57    61     9 
   56    55    57    58     9 
   56    55    57    61     9 
   55    57    58    59     9 
   55    57    58    60     9 
   55    57    58    66     9 
   61    57    58    59     9 
   61    57    58    60     9 
   61    57    58    66     9 
   55    57    61    62     9 
   55    57    61    63     9 
   55    57    61    69     9 
   58    57    61    62     9 
   58    57    61    63     9 
   58    57    61    69     9 
   57    58    66    63     9 
   57    58    66    67     9 
   57    58    66    68     9 
   59    58    66    63     9 
   59    58    66    67     9 
   59    58    66    68     9 
   60    58    66    63     9 
   60    58    66    67     9 
   60    58    66    68     9 
   57    61    63    64     9 
   57    61    63    65     9 
   57    61    63    66     9 
   62    61    63    64     9 
   62    61    63    65     9 
   62    61    63    66     9 
   69    61    63    64     9 
   69    61    63    65     9 
   69    61    63    66     9 
   57    61    69    70     9 
   57    61    69    71     9 
   62    61    69    70     9 
   62    61    69    71     9 
   63    61    69    70     9 
   63    61    69    71     9 
   61    63    66    58     9 
   61    63    66    67     9 
   61    63    66    68     9 
   64    63    66    58     9 
   64    63    66    67     9 
   64    63    66    68     9 
   65    63    66    58     9 
   65    63    66    67     9 
   65    63    66    68     9 
   61    69    71    72     9 
   61    69    71    73     9 
   70    69    71    72     9 
   70    69    71    73     9 
   69    71    73    74     9 
   69    71    73    75     9 
   69    71    73    84     9 
   72    71    73    74     9 
   72    71    73    75     9 
   72    71    73    84     9 
   71    73    75    76     9 
   71    73    75    77     9 
   71    73    75    78     9 
   74    73    75    76     9 
   74    73    75    77     9 
   74    73    75    78     9 
   84    73    75    76     9 
   84    73    75    77     9 
   84    73    75    78     9 
   71    73    84    85     9 
   71    73    84    86     9 
   74    73    84    85     9 
   74    73    84    86     9 
   75    73    84    85     9 
   75    73    84    86     9 
   73    75    78    79     9 
   73    75    78    80     9 
   73    75    78    81     9 
   76    75    78    79     9 
   76    75    78    80     9 
   76    75    78    81     9 
   77    75    78    79     9 
   77    75    78    80     9 
   77    75    78    81     9 
   75    78    81    82     9 
   75    78    81    83     9 
   79    78    81    82     9 
   79    78    81    83     9 
   80    78    81    82     9 
   80    78    81    83     9 
   73    84    86    87     9 
   73    84    86    88     9 
   85    84    86    87     9 
   85    84    86    88     9 
   84    86    88    89     9 
   84    86    88    90     9 
   84    86    88   108     9 
   87    86    88    89     9 
   87    86    88    90     9 
   87    86    88   108     9 
   86    88    90    91     9 
   86    88    90    92     9 
   86    88    90    93     9 
   89    88    90    91     9 
   89    88    90    92     9 
   89    88    90    93     9 
  108    88    90    91     9 
  108    88    90    92     9 
  108    88    90    93     9 
   86    88   108   109     9 
   86    88   108   110     9 
   89    88   108   109     9 
   89    88   108   110     9 
   90    88   108   109     9 
   90    88   108   110     9 
   88    90    93    94     9 
   88    90    93    95     9 
   88    90    93    96     9 
   91    90    93    94     9 
   91    90    93    95     9 
   91    90    93    96     9 
   92    90    93    94     9 
   92    90    93    95     9 
   92    90    93    96     9 
   90    93    96    97     9 
   90    93    96    98     9 
   90    93    96    99     9 
   94    93    96    97     9 
   94    93    96    98     9 
   94    93    96    99     9 
   95    93    96    97     9 
   95    93    96    98     9 
   95    93    96    99     9 
   93    96    99   100     9 
   93    96    99   101     9 
   97    96    99   100     9 
   97    96    99   101     9 
   98    96    99   100     9 
   98    96    99   101     9 
   96    99   101   102     9 
   96    99   101   105     9 
  100    99   101   102     9 
  100    99   101   105     9 
   99   101   102   103     9 
   99   101   102   104     9 
  105   101   102   103     9 
  105   101   102   104     9 
   99   101   105   106     9 
   99   101   105   107     9 
  102   101   105   106     9 
  102   101   105   107     9 
   88   108   110   111     9 
   88   108   110   112     9 
  109   108   110   111     9 
  109   108   110   112     9 
  108   110   112   113     9 
  108   110   112   114     9 
  108   110   112   115     9 
  111   110   112   113     9 
  111   110   112   114     9 
  111   110   112   115     9 
  110   112   115   116     9 
  110   112   115   117     9 
  113   112   115   116     9 
  113   112   115   117     9 
  114   112   115   116     9 
  114   112   115   117     9 
  112   115   117   118     9 
  112   115   117   119     9 
  116   115   117   118     9 
  116   115   117   119     9 
  115   117   119   120     9 
  115   117   119   121     9 
  115   117   119   129     9 
  118   117   119   120     9 
  118   117   119   121     9 
  118   117   119   129     9 
  117   119   121   122     9 
  117   119   121   123     9 
  117   119   121   125     9 
  120   119   121   122     9 
  120   119   121   123     9 
  120   119   121   125     9 
  129   119   121   122     9 
  129   119   121   123     9 
  129   119   121   125     9 
  117   119   129   130     9 
  117   119   129   131     9 
  120   119   129   130     9 
  120   119   129   131     9 
  121   119   129   130     9 
  121   119   129   131     9 
  119   121   123   124     9 
  122   121   123   124     9 
  125   121   123   124     9 
  119   121   125   126     9 
  119   121   125   127     9 
  119   121   125   128     9 
  122   121   125   126     9 
  122   121   125   127     9 
  122   121   125   128     9 
  123   121   125   126     9 
  123   121   125   127     9 
  123   121   125   128     9 
  119   129   131   132     9 
  119   129   131   133     9 
  130   129   131   132     9 
  130   129   131   133     9 
  129   131   133   134     9 
  129   131   133   135     9 
  129   131   133   153     9 
  132   131   133   134     9 
  132   131   133   135     9 
  132   131   133   153     9 
  131   133   135   136     9 
  131   133   135   137     9 
  131   133   135   138     9 
  134   133   135   136     9 
  134   133   135   137     9 
  134   133   135   138     9 
  153   133   135   136     9 
  153   133   135   137     9 
  153   133   135   138     9 
  131   133   153   154     9 
  131   133   153   155     9 
  134   133   153   154     9 
  134   133   153   155     9 
  135   133   153   154     9 
  135   133   153   155     9 
  133   135   138   139     9 
  133   135   138   144     9 
  136   135   138   139     9 
  136   135   138   144     9 
  137   135   138   139     9 
  137   135   138   144     9 
  135   138   139   140     9 
  135   138   139   141     9 
  144   138   139   140     9 
  144   138   139   141     9 
  135   138   144   143     9 
  135   138   144   145     9 
  139   138   144   143     9 
  139   138   144   145     9 
  138   139   141   142     9 
  138   139   141   143     9 
  140   139   141   142     9 
  140   139   141   143     9 
  139   141   143   144     9 
  139   141   143   149     9 
  142   141   143   144     9 
  142   141   143   149     9 
  141   143   144   138     9 
  141   143   144   145     9 
  149   143   144   138     9 
  149   143   144   145     9 
  141   143   149   150     9 
  141   143   149   151     9 
  144   143   149   150     9 
  144   143   149   151     9 
  138   144   145   146     9 
  138   144   145   147     9 
  143   144   145   146     9 
  143   144   145   147     9 
  144   145   147   148     9 
  144   145   147   151     9 
  146   145   147   148     9 
  146   145   147   151     9 
  145   147   151   149     9 
  145   147   151   152     9 
  148   147   151   149     9 
  148   147   151   152     9 
  143   149   151   147     9 
  143   149   151   152     9 
  150   149   151   147     9 
  150   149   151   152     9 
  133   153   155   156     9 
  133   153   155   157     9 
  154   153   155   156     9 
  154   153   155   157     9 
  153   155   157   158     9 
  153   155   157   159     9 
  153   155   157   174     9 
  156   155   157   158     9 
  156   155   157   159     9 
  156   155   157   174     9 
  155   157   159   160     9 
  155   157   159   161     9 
  155   157   159   162     9 
  158   157   159   160     9 
  158   157   159   161     9 
  158   157   159   162     9 
  174   157   159   160     9 
  174   157   159   161     9 
  174   157   159   162     9 
  155   157   174   175     9 
  155   157   174   176     9 
  158   157   174   175     9 
  158   157   174   176     9 
  159   157   174   175     9 
  159   157   174   176     9 
  157   159   162   163     9 
  157   159   162   170     9 
  160   159   162   163     9 
  160   159   162   170     9 
  161   159   162   163     9 
  161   159   162   170     9 
  159   162   163   164     9 
  159   162   163   165     9 
  170   162   163   164     9 
  170   162   163   165     9 
  159   162   170   171     9 
  159   162   170   172     9 
  163   162   170   171     9 
  163   162   170   172     9 
  162   163   165   166     9 
  162   163   165   167     9 
  164   163   165   166     9 
  164   163   165   167     9 
  163   165   167   168     9 
  163   165   167   172     9 
  166   165   167   168     9 
  166   165   167   172     9 
  165   167   168   169     9 
  172   167   168   169     9 
  165   167   172   170     9 
  165   167   172   173     9 
  168   167   172   170     9 
  168   167   172   173     9 
  162   170   172   167     9 
  162   170   172   173     9 
  171   170   172   167     9 
  171   170   172   173     9 

[ dihedrals ]
;  ai    aj    ak    al funct            c0            c1            c2            c3
   22     5    24    23     2 
   24    22    26    25     2 
   43    26    45    44     2 
   45    43    47    46     2 
   52    49    54    53     2 
   55    47    57    56     2 
   57    55    61    58     2 
   69    61    71    70     2 
   71    69    73    72     2 
   81    78    83    82     2 
   84    73    86    85     2 
   86    84    88    87     2 
   99   105   102   101     2 
  108    88   110   109     2 
  110   108   112   111     2 
  115   112   117   116     2 
  117   115   119   118     2 
  129   119   131   130     2 
  131   129   133   132     2 
  153   133   155   154     2 
  155   153   157   156     2 
  174   157   176   175     2 

[ cmap ]
;  ai    aj    ak    al    am funct
   55    57    61    69    71     1 
  108   110   112   115   117     1 

; Include Position restraint file
#ifdef POSRES
#include "posre.itp"
#endif

; Include water topology
#include "charmm22star.ff/tip3p.itp"

#ifdef POSRES_WATER
; Position restraint for each water oxygen
[ position_restraints ]
;  i funct       fcx        fcy        fcz
   1    1       1000       1000       1000
#endif

; Include topology for ions
#include "charmm22star.ff/ions.itp"

[ system ]
; Name
Protein in water

[ molecules ]
; Compound        #mols
Protein_chain_A     1
SOL         1753
NA               1
