;
;	File 'topol.top' was generated
;	By user: muralika.m (21947)
;	On host: zeus
;	At date: Wed Sep  3 18:28:16 2025
;
;	This is a standalone topology file
;
;	Created by:
;	                    :-) GROMACS - gmx pdb2gmx, 2019.6 (-:
;	
;	Executable:   /home/muralika.m/.conda/envs/muralika/bin/gmx_mpi
;	Data prefix:  /home/muralika.m/.conda/envs/muralika
;	Working dir:  /rg/mendels_prj/muralika.m/ub/New_mutns/AYDPETGTWY
;	Command line:
;	  gmx_mpi pdb2gmx -f AYDPETGTWY.pdb -o processed_structure.gro -p topol.top -asp -glu -ter
;	Force field was read from the standard GROMACS share directory.
;

; Include forcefield parameters
#include "charmm22star.ff/forcefield.itp"

[ moleculetype ]
; Name            nrexcl
Protein_chain_A     3

[ atoms ]
;   nr       type  resnr residue  atom   cgnr     charge       mass  typeB    chargeB      massB
; residue   0 ALA rtp ALA  q +1.0
     1        NH3      0    ALA      N      1       -0.3    14.0027
     2         HC      0    ALA     H1      2       0.33      1.008
     3         HC      0    ALA     H2      3       0.33      1.008
     4         HC      0    ALA     H3      4       0.33      1.008
     5        CT1      0    ALA     CA      5       0.21     12.011
     6         HB      0    ALA     HA      6        0.1      1.008
     7        CT3      0    ALA     CB      7      -0.27     12.011
     8         HA      0    ALA    HB1      8       0.09      1.008
     9         HA      0    ALA    HB2      9       0.09      1.008
    10         HA      0    ALA    HB3     10       0.09      1.008
    11          C      0    ALA      C     11       0.51     12.011
    12          O      0    ALA      O     12      -0.51     15.999   ; qtot 1
; residue   1 TYR rtp TYR  q  0.0
    13        NH1      1    TYR      N     13      -0.47     14.007
    14          H      1    TYR     HN     14       0.31      1.008
    15        CT1      1    TYR     CA     15       0.07     12.011
    16         HB      1    TYR     HA     16       0.09      1.008
    17        CT2      1    TYR     CB     17      -0.18     12.011
    18         HA      1    TYR    HB1     18       0.09      1.008
    19         HA      1    TYR    HB2     19       0.09      1.008
    20         CA      1    TYR     CG     20          0     12.011
    21         CA      1    TYR    CD1     21     -0.115     12.011
    22         HP      1    TYR    HD1     22      0.115      1.008
    23         CA      1    TYR    CE1     23     -0.115     12.011
    24         HP      1    TYR    HE1     24      0.115      1.008
    25         CA      1    TYR     CZ     25       0.11     12.011
    26        OH1      1    TYR     OH     26      -0.54     15.999
    27          H      1    TYR     HH     27       0.43      1.008
    28         CA      1    TYR    CD2     28     -0.115     12.011
    29         HP      1    TYR    HD2     29      0.115      1.008
    30         CA      1    TYR    CE2     30     -0.115     12.011
    31         HP      1    TYR    HE2     31      0.115      1.008
    32          C      1    TYR      C     32       0.51     12.011
    33          O      1    TYR      O     33      -0.51     15.999   ; qtot 1
; residue   2 ASP rtp ASP  q -1.0
    34        NH1      2    ASP      N     34      -0.47     14.007
    35          H      2    ASP     HN     35       0.31      1.008
    36        CT1      2    ASP     CA     36       0.07     12.011
    37         HB      2    ASP     HA     37       0.09      1.008
    38        CT2      2    ASP     CB     38      -0.28     12.011
    39         HA      2    ASP    HB1     39       0.05      1.008
    40         HA      2    ASP    HB2     40       0.05      1.008
    41         CC      2    ASP     CG     41       0.56     12.011
    42         OC      2    ASP    OD1     42      -0.69     15.999
    43         OC      2    ASP    OD2     43      -0.69     15.999
    44          C      2    ASP      C     44       0.51     12.011
    45          O      2    ASP      O     45      -0.51     15.999   ; qtot 0
; residue   3 PRO rtp PRO  q  0.0
    46          N      3    PRO      N     46      -0.29     14.007
    47        CP3      3    PRO     CD     47          0     12.011
    48         HA      3    PRO    HD1     48       0.09      1.008
    49         HA      3    PRO    HD2     49       0.09      1.008
    50        CP1      3    PRO     CA     50       0.02     12.011
    51         HB      3    PRO     HA     51       0.09      1.008
    52        CP2      3    PRO     CB     52      -0.18     12.011
    53         HA      3    PRO    HB1     53       0.09      1.008
    54         HA      3    PRO    HB2     54       0.09      1.008
    55        CP2      3    PRO     CG     55      -0.18     12.011
    56         HA      3    PRO    HG1     56       0.09      1.008
    57         HA      3    PRO    HG2     57       0.09      1.008
    58          C      3    PRO      C     58       0.51     12.011
    59          O      3    PRO      O     59      -0.51     15.999   ; qtot 0
; residue   4 GLU rtp GLU  q -1.0
    60        NH1      4    GLU      N     60      -0.47     14.007
    61          H      4    GLU     HN     61       0.31      1.008
    62        CT1      4    GLU     CA     62       0.07     12.011
    63         HB      4    GLU     HA     63       0.09      1.008
    64        CT2      4    GLU     CB     64      -0.18     12.011
    65         HA      4    GLU    HB1     65       0.09      1.008
    66         HA      4    GLU    HB2     66       0.09      1.008
    67        CT2      4    GLU     CG     67      -0.28     12.011
    68         HA      4    GLU    HG1     68       0.05      1.008
    69         HA      4    GLU    HG2     69       0.05      1.008
    70         CC      4    GLU     CD     70       0.56     12.011
    71         OC      4    GLU    OE1     71      -0.69     15.999
    72         OC      4    GLU    OE2     72      -0.69     15.999
    73          C      4    GLU      C     73       0.51     12.011
    74          O      4    GLU      O     74      -0.51     15.999   ; qtot -1
; residue   5 THR rtp THR  q  0.0
    75        NH1      5    THR      N     75      -0.47     14.007
    76          H      5    THR     HN     76       0.31      1.008
    77        CT1      5    THR     CA     77       0.07     12.011
    78         HB      5    THR     HA     78       0.09      1.008
    79        CT1      5    THR     CB     79       0.14     12.011
    80         HA      5    THR     HB     80       0.09      1.008
    81        OH1      5    THR    OG1     81      -0.66     15.999
    82          H      5    THR    HG1     82       0.43      1.008
    83        CT3      5    THR    CG2     83      -0.27     12.011
    84         HA      5    THR   HG21     84       0.09      1.008
    85         HA      5    THR   HG22     85       0.09      1.008
    86         HA      5    THR   HG23     86       0.09      1.008
    87          C      5    THR      C     87       0.51     12.011
    88          O      5    THR      O     88      -0.51     15.999   ; qtot -1
; residue   6 GLY rtp GLY  q  0.0
    89        NH1      6    GLY      N     89      -0.47     14.007
    90          H      6    GLY     HN     90       0.31      1.008
    91        CT2      6    GLY     CA     91      -0.02     12.011
    92         HB      6    GLY    HA1     92       0.09      1.008
    93         HB      6    GLY    HA2     93       0.09      1.008
    94          C      6    GLY      C     94       0.51     12.011
    95          O      6    GLY      O     95      -0.51     15.999   ; qtot -1
; residue   7 THR rtp THR  q  0.0
    96        NH1      7    THR      N     96      -0.47     14.007
    97          H      7    THR     HN     97       0.31      1.008
    98        CT1      7    THR     CA     98       0.07     12.011
    99         HB      7    THR     HA     99       0.09      1.008
   100        CT1      7    THR     CB    100       0.14     12.011
   101         HA      7    THR     HB    101       0.09      1.008
   102        OH1      7    THR    OG1    102      -0.66     15.999
   103          H      7    THR    HG1    103       0.43      1.008
   104        CT3      7    THR    CG2    104      -0.27     12.011
   105         HA      7    THR   HG21    105       0.09      1.008
   106         HA      7    THR   HG22    106       0.09      1.008
   107         HA      7    THR   HG23    107       0.09      1.008
   108          C      7    THR      C    108       0.51     12.011
   109          O      7    THR      O    109      -0.51     15.999   ; qtot -1
; residue   8 TRP rtp TRP  q  0.0
   110        NH1      8    TRP      N    110      -0.47     14.007
   111          H      8    TRP     HN    111       0.31      1.008
   112        CT1      8    TRP     CA    112       0.07     12.011
   113         HB      8    TRP     HA    113       0.09      1.008
   114        CT2      8    TRP     CB    114      -0.18     12.011
   115         HA      8    TRP    HB1    115       0.09      1.008
   116         HA      8    TRP    HB2    116       0.09      1.008
   117         CY      8    TRP     CG    117      -0.03     12.011
   118         CA      8    TRP    CD1    118      0.035     12.011
   119         HP      8    TRP    HD1    119      0.115      1.008
   120         NY      8    TRP    NE1    120      -0.61     14.007
   121          H      8    TRP    HE1    121       0.38      1.008
   122        CPT      8    TRP    CE2    122       0.13     12.011
   123        CPT      8    TRP    CD2    123      -0.02     12.011
   124         CA      8    TRP    CE3    124     -0.115     12.011
   125         HP      8    TRP    HE3    125      0.115      1.008
   126         CA      8    TRP    CZ3    126     -0.115     12.011
   127         HP      8    TRP    HZ3    127      0.115      1.008
   128         CA      8    TRP    CZ2    128     -0.115     12.011
   129         HP      8    TRP    HZ2    129      0.115      1.008
   130         CA      8    TRP    CH2    130     -0.115     12.011
   131         HP      8    TRP    HH2    131      0.115      1.008
   132          C      8    TRP      C    132       0.51     12.011
   133          O      8    TRP      O    133      -0.51     15.999   ; qtot -1
; residue   9 TYR rtp TYR  q -1.0
   134        NH1      9    TYR      N    134      -0.47     14.007
   135          H      9    TYR     HN    135       0.31      1.008
   136        CT1      9    TYR     CA    136       0.07     12.011
   137         HB      9    TYR     HA    137       0.09      1.008
   138        CT2      9    TYR     CB    138      -0.18     12.011
   139         HA      9    TYR    HB1    139       0.09      1.008
   140         HA      9    TYR    HB2    140       0.09      1.008
   141         CA      9    TYR     CG    141          0     12.011
   142         CA      9    TYR    CD1    142     -0.115     12.011
   143         HP      9    TYR    HD1    143      0.115      1.008
   144         CA      9    TYR    CE1    144     -0.115     12.011
   145         HP      9    TYR    HE1    145      0.115      1.008
   146         CA      9    TYR     CZ    146       0.11     12.011
   147        OH1      9    TYR     OH    147      -0.54     15.999
   148          H      9    TYR     HH    148       0.43      1.008
   149         CA      9    TYR    CD2    149     -0.115     12.011
   150         HP      9    TYR    HD2    150      0.115      1.008
   151         CA      9    TYR    CE2    151     -0.115     12.011
   152         HP      9    TYR    HE2    152      0.115      1.008
   153         CC      9    TYR      C    153       0.34     12.011
   154         OC      9    TYR    OT1    154      -0.67    15.9994
   155         OC      9    TYR    OT2    155      -0.67    15.9994   ; qtot -2

[ bonds ]
;  ai    aj funct            c0            c1            c2            c3
    1     2     1 
    1     3     1 
    1     4     1 
    1     5     1 
    5     6     1 
    5     7     1 
    5    11     1 
    7     8     1 
    7     9     1 
    7    10     1 
   11    12     1 
   11    13     1 
   13    14     1 
   13    15     1 
   15    16     1 
   15    17     1 
   15    32     1 
   17    18     1 
   17    19     1 
   17    20     1 
   20    21     1 
   20    28     1 
   21    22     1 
   21    23     1 
   23    24     1 
   23    25     1 
   25    26     1 
   25    30     1 
   26    27     1 
   28    29     1 
   28    30     1 
   30    31     1 
   32    33     1 
   32    34     1 
   34    35     1 
   34    36     1 
   36    37     1 
   36    38     1 
   36    44     1 
   38    39     1 
   38    40     1 
   38    41     1 
   41    42     1 
   41    43     1 
   44    45     1 
   44    46     1 
   46    47     1 
   46    50     1 
   47    48     1 
   47    49     1 
   47    55     1 
   50    51     1 
   50    52     1 
   50    58     1 
   52    53     1 
   52    54     1 
   52    55     1 
   55    56     1 
   55    57     1 
   58    59     1 
   58    60     1 
   60    61     1 
   60    62     1 
   62    63     1 
   62    64     1 
   62    73     1 
   64    65     1 
   64    66     1 
   64    67     1 
   67    68     1 
   67    69     1 
   67    70     1 
   70    71     1 
   70    72     1 
   73    74     1 
   73    75     1 
   75    76     1 
   75    77     1 
   77    78     1 
   77    79     1 
   77    87     1 
   79    80     1 
   79    81     1 
   79    83     1 
   81    82     1 
   83    84     1 
   83    85     1 
   83    86     1 
   87    88     1 
   87    89     1 
   89    90     1 
   89    91     1 
   91    92     1 
   91    93     1 
   91    94     1 
   94    95     1 
   94    96     1 
   96    97     1 
   96    98     1 
   98    99     1 
   98   100     1 
   98   108     1 
  100   101     1 
  100   102     1 
  100   104     1 
  102   103     1 
  104   105     1 
  104   106     1 
  104   107     1 
  108   109     1 
  108   110     1 
  110   111     1 
  110   112     1 
  112   113     1 
  112   114     1 
  112   132     1 
  114   115     1 
  114   116     1 
  114   117     1 
  117   118     1 
  117   123     1 
  118   119     1 
  118   120     1 
  120   121     1 
  120   122     1 
  122   123     1 
  122   128     1 
  123   124     1 
  124   125     1 
  124   126     1 
  126   127     1 
  126   130     1 
  128   129     1 
  128   130     1 
  130   131     1 
  132   133     1 
  132   134     1 
  134   135     1 
  134   136     1 
  136   137     1 
  136   138     1 
  136   153     1 
  138   139     1 
  138   140     1 
  138   141     1 
  141   142     1 
  141   149     1 
  142   143     1 
  142   144     1 
  144   145     1 
  144   146     1 
  146   147     1 
  146   151     1 
  147   148     1 
  149   150     1 
  149   151     1 
  151   152     1 
  153   154     1 
  153   155     1 

[ pairs ]
;  ai    aj funct            c0            c1            c2            c3
    1     8     1 
    1     9     1 
    1    10     1 
    1    12     1 
    1    13     1 
    2     6     1 
    2     7     1 
    2    11     1 
    3     6     1 
    3     7     1 
    3    11     1 
    4     6     1 
    4     7     1 
    4    11     1 
    5    14     1 
    5    15     1 
    6     8     1 
    6     9     1 
    6    10     1 
    6    12     1 
    6    13     1 
    7    12     1 
    7    13     1 
    8    11     1 
    9    11     1 
   10    11     1 
   11    16     1 
   11    17     1 
   11    32     1 
   12    14     1 
   12    15     1 
   13    18     1 
   13    19     1 
   13    20     1 
   13    33     1 
   13    34     1 
   14    16     1 
   14    17     1 
   14    32     1 
   15    21     1 
   15    28     1 
   15    35     1 
   15    36     1 
   16    18     1 
   16    19     1 
   16    20     1 
   16    33     1 
   16    34     1 
   17    22     1 
   17    23     1 
   17    29     1 
   17    30     1 
   17    33     1 
   17    34     1 
   18    21     1 
   18    28     1 
   18    32     1 
   19    21     1 
   19    28     1 
   19    32     1 
   20    24     1 
   20    25     1 
   20    31     1 
   20    32     1 
   21    26     1 
   21    29     1 
   21    30     1 
   22    24     1 
   22    25     1 
   22    28     1 
   23    27     1 
   23    28     1 
   23    31     1 
   24    26     1 
   24    30     1 
   25    29     1 
   26    28     1 
   26    31     1 
   27    30     1 
   29    31     1 
   32    37     1 
   32    38     1 
   32    44     1 
   33    35     1 
   33    36     1 
   34    39     1 
   34    40     1 
   34    41     1 
   34    45     1 
   34    46     1 
   35    37     1 
   35    38     1 
   35    44     1 
   36    42     1 
   36    43     1 
   36    47     1 
   36    50     1 
   37    39     1 
   37    40     1 
   37    41     1 
   37    45     1 
   37    46     1 
   38    45     1 
   38    46     1 
   39    42     1 
   39    43     1 
   39    44     1 
   40    42     1 
   40    43     1 
   40    44     1 
   41    44     1 
   44    48     1 
   44    49     1 
   44    51     1 
   44    52     1 
   44    55     1 
   44    58     1 
   45    47     1 
   45    50     1 
   46    53     1 
   46    54     1 
   46    56     1 
   46    57     1 
   46    59     1 
   46    60     1 
   47    51     1 
   47    53     1 
   47    54     1 
   47    58     1 
   48    50     1 
   48    52     1 
   48    56     1 
   48    57     1 
   49    50     1 
   49    52     1 
   49    56     1 
   49    57     1 
   50    56     1 
   50    57     1 
   50    61     1 
   50    62     1 
   51    53     1 
   51    54     1 
   51    55     1 
   51    59     1 
   51    60     1 
   52    59     1 
   52    60     1 
   53    56     1 
   53    57     1 
   53    58     1 
   54    56     1 
   54    57     1 
   54    58     1 
   55    58     1 
   58    63     1 
   58    64     1 
   58    73     1 
   59    61     1 
   59    62     1 
   60    65     1 
   60    66     1 
   60    67     1 
   60    74     1 
   60    75     1 
   61    63     1 
   61    64     1 
   61    73     1 
   62    68     1 
   62    69     1 
   62    70     1 
   62    76     1 
   62    77     1 
   63    65     1 
   63    66     1 
   63    67     1 
   63    74     1 
   63    75     1 
   64    71     1 
   64    72     1 
   64    74     1 
   64    75     1 
   65    68     1 
   65    69     1 
   65    70     1 
   65    73     1 
   66    68     1 
   66    69     1 
   66    70     1 
   66    73     1 
   67    73     1 
   68    71     1 
   68    72     1 
   69    71     1 
   69    72     1 
   73    78     1 
   73    79     1 
   73    87     1 
   74    76     1 
   74    77     1 
   75    80     1 
   75    81     1 
   75    83     1 
   75    88     1 
   75    89     1 
   76    78     1 
   76    79     1 
   76    87     1 
   77    82     1 
   77    84     1 
   77    85     1 
   77    86     1 
   77    90     1 
   77    91     1 
   78    80     1 
   78    81     1 
   78    83     1 
   78    88     1 
   78    89     1 
   79    88     1 
   79    89     1 
   80    82     1 
   80    84     1 
   80    85     1 
   80    86     1 
   80    87     1 
   81    84     1 
   81    85     1 
   81    86     1 
   81    87     1 
   82    83     1 
   83    87     1 
   87    92     1 
   87    93     1 
   87    94     1 
   88    90     1 
   88    91     1 
   89    95     1 
   89    96     1 
   90    92     1 
   90    93     1 
   90    94     1 
   91    97     1 
   91    98     1 
   92    95     1 
   92    96     1 
   93    95     1 
   93    96     1 
   94    99     1 
   94   100     1 
   94   108     1 
   95    97     1 
   95    98     1 
   96   101     1 
   96   102     1 
   96   104     1 
   96   109     1 
   96   110     1 
   97    99     1 
   97   100     1 
   97   108     1 
   98   103     1 
   98   105     1 
   98   106     1 
   98   107     1 
   98   111     1 
   98   112     1 
   99   101     1 
   99   102     1 
   99   104     1 
   99   109     1 
   99   110     1 
  100   109     1 
  100   110     1 
  101   103     1 
  101   105     1 
  101   106     1 
  101   107     1 
  101   108     1 
  102   105     1 
  102   106     1 
  102   107     1 
  102   108     1 
  103   104     1 
  104   108     1 
  108   113     1 
  108   114     1 
  108   132     1 
  109   111     1 
  109   112     1 
  110   115     1 
  110   116     1 
  110   117     1 
  110   133     1 
  110   134     1 
  111   113     1 
  111   114     1 
  111   132     1 
  112   118     1 
  112   123     1 
  112   135     1 
  112   136     1 
  113   115     1 
  113   116     1 
  113   117     1 
  113   133     1 
  113   134     1 
  114   119     1 
  114   120     1 
  114   122     1 
  114   124     1 
  114   133     1 
  114   134     1 
  115   118     1 
  115   123     1 
  115   132     1 
  116   118     1 
  116   123     1 
  116   132     1 
  117   121     1 
  117   125     1 
  117   126     1 
  117   128     1 
  117   132     1 
  118   124     1 
  118   128     1 
  119   121     1 
  119   122     1 
  119   123     1 
  120   124     1 
  120   129     1 
  120   130     1 
  121   123     1 
  121   128     1 
  122   125     1 
  122   126     1 
  122   131     1 
  123   127     1 
  123   129     1 
  123   130     1 
  124   128     1 
  124   131     1 
  125   127     1 
  125   130     1 
  126   129     1 
  127   128     1 
  127   131     1 
  129   131     1 
  132   137     1 
  132   138     1 
  132   153     1 
  133   135     1 
  133   136     1 
  134   139     1 
  134   140     1 
  134   141     1 
  134   154     1 
  134   155     1 
  135   137     1 
  135   138     1 
  135   153     1 
  136   142     1 
  136   149     1 
  137   139     1 
  137   140     1 
  137   141     1 
  137   154     1 
  137   155     1 
  138   143     1 
  138   144     1 
  138   150     1 
  138   151     1 
  138   154     1 
  138   155     1 
  139   142     1 
  139   149     1 
  139   153     1 
  140   142     1 
  140   149     1 
  140   153     1 
  141   145     1 
  141   146     1 
  141   152     1 
  141   153     1 
  142   147     1 
  142   150     1 
  142   151     1 
  143   145     1 
  143   146     1 
  143   149     1 
  144   148     1 
  144   149     1 
  144   152     1 
  145   147     1 
  145   151     1 
  146   150     1 
  147   149     1 
  147   152     1 
  148   151     1 
  150   152     1 

[ angles ]
;  ai    aj    ak funct            c0            c1            c2            c3
    2     1     3     5 
    2     1     4     5 
    2     1     5     5 
    3     1     4     5 
    3     1     5     5 
    4     1     5     5 
    1     5     6     5 
    1     5     7     5 
    1     5    11     5 
    6     5     7     5 
    6     5    11     5 
    7     5    11     5 
    5     7     8     5 
    5     7     9     5 
    5     7    10     5 
    8     7     9     5 
    8     7    10     5 
    9     7    10     5 
    5    11    12     5 
    5    11    13     5 
   12    11    13     5 
   11    13    14     5 
   11    13    15     5 
   14    13    15     5 
   13    15    16     5 
   13    15    17     5 
   13    15    32     5 
   16    15    17     5 
   16    15    32     5 
   17    15    32     5 
   15    17    18     5 
   15    17    19     5 
   15    17    20     5 
   18    17    19     5 
   18    17    20     5 
   19    17    20     5 
   17    20    21     5 
   17    20    28     5 
   21    20    28     5 
   20    21    22     5 
   20    21    23     5 
   22    21    23     5 
   21    23    24     5 
   21    23    25     5 
   24    23    25     5 
   23    25    26     5 
   23    25    30     5 
   26    25    30     5 
   25    26    27     5 
   20    28    29     5 
   20    28    30     5 
   29    28    30     5 
   25    30    28     5 
   25    30    31     5 
   28    30    31     5 
   15    32    33     5 
   15    32    34     5 
   33    32    34     5 
   32    34    35     5 
   32    34    36     5 
   35    34    36     5 
   34    36    37     5 
   34    36    38     5 
   34    36    44     5 
   37    36    38     5 
   37    36    44     5 
   38    36    44     5 
   36    38    39     5 
   36    38    40     5 
   36    38    41     5 
   39    38    40     5 
   39    38    41     5 
   40    38    41     5 
   38    41    42     5 
   38    41    43     5 
   42    41    43     5 
   36    44    45     5 
   36    44    46     5 
   45    44    46     5 
   44    46    47     5 
   44    46    50     5 
   47    46    50     5 
   46    47    48     5 
   46    47    49     5 
   46    47    55     5 
   48    47    49     5 
   48    47    55     5 
   49    47    55     5 
   46    50    51     5 
   46    50    52     5 
   46    50    58     5 
   51    50    52     5 
   51    50    58     5 
   52    50    58     5 
   50    52    53     5 
   50    52    54     5 
   50    52    55     5 
   53    52    54     5 
   53    52    55     5 
   54    52    55     5 
   47    55    52     5 
   47    55    56     5 
   47    55    57     5 
   52    55    56     5 
   52    55    57     5 
   56    55    57     5 
   50    58    59     5 
   50    58    60     5 
   59    58    60     5 
   58    60    61     5 
   58    60    62     5 
   61    60    62     5 
   60    62    63     5 
   60    62    64     5 
   60    62    73     5 
   63    62    64     5 
   63    62    73     5 
   64    62    73     5 
   62    64    65     5 
   62    64    66     5 
   62    64    67     5 
   65    64    66     5 
   65    64    67     5 
   66    64    67     5 
   64    67    68     5 
   64    67    69     5 
   64    67    70     5 
   68    67    69     5 
   68    67    70     5 
   69    67    70     5 
   67    70    71     5 
   67    70    72     5 
   71    70    72     5 
   62    73    74     5 
   62    73    75     5 
   74    73    75     5 
   73    75    76     5 
   73    75    77     5 
   76    75    77     5 
   75    77    78     5 
   75    77    79     5 
   75    77    87     5 
   78    77    79     5 
   78    77    87     5 
   79    77    87     5 
   77    79    80     5 
   77    79    81     5 
   77    79    83     5 
   80    79    81     5 
   80    79    83     5 
   81    79    83     5 
   79    81    82     5 
   79    83    84     5 
   79    83    85     5 
   79    83    86     5 
   84    83    85     5 
   84    83    86     5 
   85    83    86     5 
   77    87    88     5 
   77    87    89     5 
   88    87    89     5 
   87    89    90     5 
   87    89    91     5 
   90    89    91     5 
   89    91    92     5 
   89    91    93     5 
   89    91    94     5 
   92    91    93     5 
   92    91    94     5 
   93    91    94     5 
   91    94    95     5 
   91    94    96     5 
   95    94    96     5 
   94    96    97     5 
   94    96    98     5 
   97    96    98     5 
   96    98    99     5 
   96    98   100     5 
   96    98   108     5 
   99    98   100     5 
   99    98   108     5 
  100    98   108     5 
   98   100   101     5 
   98   100   102     5 
   98   100   104     5 
  101   100   102     5 
  101   100   104     5 
  102   100   104     5 
  100   102   103     5 
  100   104   105     5 
  100   104   106     5 
  100   104   107     5 
  105   104   106     5 
  105   104   107     5 
  106   104   107     5 
   98   108   109     5 
   98   108   110     5 
  109   108   110     5 
  108   110   111     5 
  108   110   112     5 
  111   110   112     5 
  110   112   113     5 
  110   112   114     5 
  110   112   132     5 
  113   112   114     5 
  113   112   132     5 
  114   112   132     5 
  112   114   115     5 
  112   114   116     5 
  112   114   117     5 
  115   114   116     5 
  115   114   117     5 
  116   114   117     5 
  114   117   118     5 
  114   117   123     5 
  118   117   123     5 
  117   118   119     5 
  117   118   120     5 
  119   118   120     5 
  118   120   121     5 
  118   120   122     5 
  121   120   122     5 
  120   122   123     5 
  120   122   128     5 
  123   122   128     5 
  117   123   122     5 
  117   123   124     5 
  122   123   124     5 
  123   124   125     5 
  123   124   126     5 
  125   124   126     5 
  124   126   127     5 
  124   126   130     5 
  127   126   130     5 
  122   128   129     5 
  122   128   130     5 
  129   128   130     5 
  126   130   128     5 
  126   130   131     5 
  128   130   131     5 
  112   132   133     5 
  112   132   134     5 
  133   132   134     5 
  132   134   135     5 
  132   134   136     5 
  135   134   136     5 
  134   136   137     5 
  134   136   138     5 
  134   136   153     5 
  137   136   138     5 
  137   136   153     5 
  138   136   153     5 
  136   138   139     5 
  136   138   140     5 
  136   138   141     5 
  139   138   140     5 
  139   138   141     5 
  140   138   141     5 
  138   141   142     5 
  138   141   149     5 
  142   141   149     5 
  141   142   143     5 
  141   142   144     5 
  143   142   144     5 
  142   144   145     5 
  142   144   146     5 
  145   144   146     5 
  144   146   147     5 
  144   146   151     5 
  147   146   151     5 
  146   147   148     5 
  141   149   150     5 
  141   149   151     5 
  150   149   151     5 
  146   151   149     5 
  146   151   152     5 
  149   151   152     5 
  136   153   154     5 
  136   153   155     5 
  154   153   155     5 

[ dihedrals ]
;  ai    aj    ak    al funct            c0            c1            c2            c3            c4            c5
    2     1     5     6     9 
    2     1     5     7     9 
    2     1     5    11     9 
    3     1     5     6     9 
    3     1     5     7     9 
    3     1     5    11     9 
    4     1     5     6     9 
    4     1     5     7     9 
    4     1     5    11     9 
    1     5     7     8     9 
    1     5     7     9     9 
    1     5     7    10     9 
    6     5     7     8     9 
    6     5     7     9     9 
    6     5     7    10     9 
   11     5     7     8     9 
   11     5     7     9     9 
   11     5     7    10     9 
    1     5    11    12     9 
    1     5    11    13     9 
    6     5    11    12     9 
    6     5    11    13     9 
    7     5    11    12     9 
    7     5    11    13     9 
    5    11    13    14     9 
    5    11    13    15     9 
   12    11    13    14     9 
   12    11    13    15     9 
   11    13    15    16     9 
   11    13    15    17     9 
   11    13    15    32     9 
   14    13    15    16     9 
   14    13    15    17     9 
   14    13    15    32     9 
   13    15    17    18     9 
   13    15    17    19     9 
   13    15    17    20     9 
   16    15    17    18     9 
   16    15    17    19     9 
   16    15    17    20     9 
   32    15    17    18     9 
   32    15    17    19     9 
   32    15    17    20     9 
   13    15    32    33     9 
   13    15    32    34     9 
   16    15    32    33     9 
   16    15    32    34     9 
   17    15    32    33     9 
   17    15    32    34     9 
   15    17    20    21     9 
   15    17    20    28     9 
   18    17    20    21     9 
   18    17    20    28     9 
   19    17    20    21     9 
   19    17    20    28     9 
   17    20    21    22     9 
   17    20    21    23     9 
   28    20    21    22     9 
   28    20    21    23     9 
   17    20    28    29     9 
   17    20    28    30     9 
   21    20    28    29     9 
   21    20    28    30     9 
   20    21    23    24     9 
   20    21    23    25     9 
   22    21    23    24     9 
   22    21    23    25     9 
   21    23    25    26     9 
   21    23    25    30     9 
   24    23    25    26     9 
   24    23    25    30     9 
   23    25    26    27     9 
   30    25    26    27     9 
   23    25    30    28     9 
   23    25    30    31     9 
   26    25    30    28     9 
   26    25    30    31     9 
   20    28    30    25     9 
   20    28    30    31     9 
   29    28    30    25     9 
   29    28    30    31     9 
   15    32    34    35     9 
   15    32    34    36     9 
   33    32    34    35     9 
   33    32    34    36     9 
   32    34    36    37     9 
   32    34    36    38     9 
   32    34    36    44     9 
   35    34    36    37     9 
   35    34    36    38     9 
   35    34    36    44     9 
   34    36    38    39     9 
   34    36    38    40     9 
   34    36    38    41     9 
   37    36    38    39     9 
   37    36    38    40     9 
   37    36    38    41     9 
   44    36    38    39     9 
   44    36    38    40     9 
   44    36    38    41     9 
   34    36    44    45     9 
   34    36    44    46     9 
   37    36    44    45     9 
   37    36    44    46     9 
   38    36    44    45     9 
   38    36    44    46     9 
   36    38    41    42     9 
   36    38    41    43     9 
   39    38    41    42     9 
   39    38    41    43     9 
   40    38    41    42     9 
   40    38    41    43     9 
   36    44    46    47     9 
   36    44    46    50     9 
   45    44    46    47     9 
   45    44    46    50     9 
   44    46    47    48     9 
   44    46    47    49     9 
   44    46    47    55     9 
   50    46    47    48     9 
   50    46    47    49     9 
   50    46    47    55     9 
   44    46    50    51     9 
   44    46    50    52     9 
   44    46    50    58     9 
   47    46    50    51     9 
   47    46    50    52     9 
   47    46    50    58     9 
   46    47    55    52     9 
   46    47    55    56     9 
   46    47    55    57     9 
   48    47    55    52     9 
   48    47    55    56     9 
   48    47    55    57     9 
   49    47    55    52     9 
   49    47    55    56     9 
   49    47    55    57     9 
   46    50    52    53     9 
   46    50    52    54     9 
   46    50    52    55     9 
   51    50    52    53     9 
   51    50    52    54     9 
   51    50    52    55     9 
   58    50    52    53     9 
   58    50    52    54     9 
   58    50    52    55     9 
   46    50    58    59     9 
   46    50    58    60     9 
   51    50    58    59     9 
   51    50    58    60     9 
   52    50    58    59     9 
   52    50    58    60     9 
   50    52    55    47     9 
   50    52    55    56     9 
   50    52    55    57     9 
   53    52    55    47     9 
   53    52    55    56     9 
   53    52    55    57     9 
   54    52    55    47     9 
   54    52    55    56     9 
   54    52    55    57     9 
   50    58    60    61     9 
   50    58    60    62     9 
   59    58    60    61     9 
   59    58    60    62     9 
   58    60    62    63     9 
   58    60    62    64     9 
   58    60    62    73     9 
   61    60    62    63     9 
   61    60    62    64     9 
   61    60    62    73     9 
   60    62    64    65     9 
   60    62    64    66     9 
   60    62    64    67     9 
   63    62    64    65     9 
   63    62    64    66     9 
   63    62    64    67     9 
   73    62    64    65     9 
   73    62    64    66     9 
   73    62    64    67     9 
   60    62    73    74     9 
   60    62    73    75     9 
   63    62    73    74     9 
   63    62    73    75     9 
   64    62    73    74     9 
   64    62    73    75     9 
   62    64    67    68     9 
   62    64    67    69     9 
   62    64    67    70     9 
   65    64    67    68     9 
   65    64    67    69     9 
   65    64    67    70     9 
   66    64    67    68     9 
   66    64    67    69     9 
   66    64    67    70     9 
   64    67    70    71     9 
   64    67    70    72     9 
   68    67    70    71     9 
   68    67    70    72     9 
   69    67    70    71     9 
   69    67    70    72     9 
   62    73    75    76     9 
   62    73    75    77     9 
   74    73    75    76     9 
   74    73    75    77     9 
   73    75    77    78     9 
   73    75    77    79     9 
   73    75    77    87     9 
   76    75    77    78     9 
   76    75    77    79     9 
   76    75    77    87     9 
   75    77    79    80     9 
   75    77    79    81     9 
   75    77    79    83     9 
   78    77    79    80     9 
   78    77    79    81     9 
   78    77    79    83     9 
   87    77    79    80     9 
   87    77    79    81     9 
   87    77    79    83     9 
   75    77    87    88     9 
   75    77    87    89     9 
   78    77    87    88     9 
   78    77    87    89     9 
   79    77    87    88     9 
   79    77    87    89     9 
   77    79    81    82     9 
   80    79    81    82     9 
   83    79    81    82     9 
   77    79    83    84     9 
   77    79    83    85     9 
   77    79    83    86     9 
   80    79    83    84     9 
   80    79    83    85     9 
   80    79    83    86     9 
   81    79    83    84     9 
   81    79    83    85     9 
   81    79    83    86     9 
   77    87    89    90     9 
   77    87    89    91     9 
   88    87    89    90     9 
   88    87    89    91     9 
   87    89    91    92     9 
   87    89    91    93     9 
   87    89    91    94     9 
   90    89    91    92     9 
   90    89    91    93     9 
   90    89    91    94     9 
   89    91    94    95     9 
   89    91    94    96     9 
   92    91    94    95     9 
   92    91    94    96     9 
   93    91    94    95     9 
   93    91    94    96     9 
   91    94    96    97     9 
   91    94    96    98     9 
   95    94    96    97     9 
   95    94    96    98     9 
   94    96    98    99     9 
   94    96    98   100     9 
   94    96    98   108     9 
   97    96    98    99     9 
   97    96    98   100     9 
   97    96    98   108     9 
   96    98   100   101     9 
   96    98   100   102     9 
   96    98   100   104     9 
   99    98   100   101     9 
   99    98   100   102     9 
   99    98   100   104     9 
  108    98   100   101     9 
  108    98   100   102     9 
  108    98   100   104     9 
   96    98   108   109     9 
   96    98   108   110     9 
   99    98   108   109     9 
   99    98   108   110     9 
  100    98   108   109     9 
  100    98   108   110     9 
   98   100   102   103     9 
  101   100   102   103     9 
  104   100   102   103     9 
   98   100   104   105     9 
   98   100   104   106     9 
   98   100   104   107     9 
  101   100   104   105     9 
  101   100   104   106     9 
  101   100   104   107     9 
  102   100   104   105     9 
  102   100   104   106     9 
  102   100   104   107     9 
   98   108   110   111     9 
   98   108   110   112     9 
  109   108   110   111     9 
  109   108   110   112     9 
  108   110   112   113     9 
  108   110   112   114     9 
  108   110   112   132     9 
  111   110   112   113     9 
  111   110   112   114     9 
  111   110   112   132     9 
  110   112   114   115     9 
  110   112   114   116     9 
  110   112   114   117     9 
  113   112   114   115     9 
  113   112   114   116     9 
  113   112   114   117     9 
  132   112   114   115     9 
  132   112   114   116     9 
  132   112   114   117     9 
  110   112   132   133     9 
  110   112   132   134     9 
  113   112   132   133     9 
  113   112   132   134     9 
  114   112   132   133     9 
  114   112   132   134     9 
  112   114   117   118     9 
  112   114   117   123     9 
  115   114   117   118     9 
  115   114   117   123     9 
  116   114   117   118     9 
  116   114   117   123     9 
  114   117   118   119     9 
  114   117   118   120     9 
  123   117   118   119     9 
  123   117   118   120     9 
  114   117   123   122     9 
  114   117   123   124     9 
  118   117   123   122     9 
  118   117   123   124     9 
  117   118   120   121     9 
  117   118   120   122     9 
  119   118   120   121     9 
  119   118   120   122     9 
  118   120   122   123     9 
  118   120   122   128     9 
  121   120   122   123     9 
  121   120   122   128     9 
  120   122   123   117     9 
  120   122   123   124     9 
  128   122   123   117     9 
  128   122   123   124     9 
  120   122   128   129     9 
  120   122   128   130     9 
  123   122   128   129     9 
  123   122   128   130     9 
  117   123   124   125     9 
  117   123   124   126     9 
  122   123   124   125     9 
  122   123   124   126     9 
  123   124   126   127     9 
  123   124   126   130     9 
  125   124   126   127     9 
  125   124   126   130     9 
  124   126   130   128     9 
  124   126   130   131     9 
  127   126   130   128     9 
  127   126   130   131     9 
  122   128   130   126     9 
  122   128   130   131     9 
  129   128   130   126     9 
  129   128   130   131     9 
  112   132   134   135     9 
  112   132   134   136     9 
  133   132   134   135     9 
  133   132   134   136     9 
  132   134   136   137     9 
  132   134   136   138     9 
  132   134   136   153     9 
  135   134   136   137     9 
  135   134   136   138     9 
  135   134   136   153     9 
  134   136   138   139     9 
  134   136   138   140     9 
  134   136   138   141     9 
  137   136   138   139     9 
  137   136   138   140     9 
  137   136   138   141     9 
  153   136   138   139     9 
  153   136   138   140     9 
  153   136   138   141     9 
  134   136   153   154     9 
  134   136   153   155     9 
  137   136   153   154     9 
  137   136   153   155     9 
  138   136   153   154     9 
  138   136   153   155     9 
  136   138   141   142     9 
  136   138   141   149     9 
  139   138   141   142     9 
  139   138   141   149     9 
  140   138   141   142     9 
  140   138   141   149     9 
  138   141   142   143     9 
  138   141   142   144     9 
  149   141   142   143     9 
  149   141   142   144     9 
  138   141   149   150     9 
  138   141   149   151     9 
  142   141   149   150     9 
  142   141   149   151     9 
  141   142   144   145     9 
  141   142   144   146     9 
  143   142   144   145     9 
  143   142   144   146     9 
  142   144   146   147     9 
  142   144   146   151     9 
  145   144   146   147     9 
  145   144   146   151     9 
  144   146   147   148     9 
  151   146   147   148     9 
  144   146   151   149     9 
  144   146   151   152     9 
  147   146   151   149     9 
  147   146   151   152     9 
  141   149   151   146     9 
  141   149   151   152     9 
  150   149   151   146     9 
  150   149   151   152     9 

[ dihedrals ]
;  ai    aj    ak    al funct            c0            c1            c2            c3
   11     5    13    12     2 
   13    11    15    14     2 
   32    15    34    33     2 
   34    32    36    35     2 
   41    38    43    42     2 
   44    36    46    45     2 
   46    44    50    47     2 
   58    50    60    59     2 
   60    58    62    61     2 
   70    67    72    71     2 
   73    62    75    74     2 
   75    73    77    76     2 
   87    77    89    88     2 
   89    87    91    90     2 
   94    91    96    95     2 
   96    94    98    97     2 
  108    98   110   109     2 
  110   108   112   111     2 
  132   112   134   133     2 
  134   132   136   135     2 
  153   136   155   154     2 

[ cmap ]
;  ai    aj    ak    al    am funct
   44    46    50    58    60     1 
   87    89    91    94    96     1 

; Include Position restraint file
#ifdef POSRES
#include "posre.itp"
#endif

; Include water topology
#include "charmm22star.ff/tip3p.itp"

#ifdef POSRES_WATER
; Position restraint for each water oxygen
[ position_restraints ]
;  i funct       fcx        fcy        fcz
   1    1       1000       1000       1000
#endif

; Include topology for ions
#include "charmm22star.ff/ions.itp"

[ system ]
; Name
Protein in water

[ molecules ]
; Compound        #mols
Protein_chain_A     1
SOL         1759
NA               2
