;
;	File 'topol.top' was generated
;	By user: muralika.m (21947)
;	On host: zeus
;	At date: Wed Sep  3 18:39:37 2025
;
;	This is a standalone topology file
;
;	Created by:
;	                    :-) GROMACS - gmx pdb2gmx, 2019.6 (-:
;	
;	Executable:   /home/muralika.m/.conda/envs/muralika/bin/gmx_mpi
;	Data prefix:  /home/muralika.m/.conda/envs/muralika
;	Working dir:  /rg/mendels_prj/muralika.m/ub/New_mutns/EYDPETGTWY
;	Command line:
;	  gmx_mpi pdb2gmx -f EYDPETGTWY.pdb -o processed_structure.gro -p topol.top -asp -glu -ter
;	Force field was read from the standard GROMACS share directory.
;

; Include forcefield parameters
#include "charmm22star.ff/forcefield.itp"

[ moleculetype ]
; Name            nrexcl
Protein_chain_A     3

[ atoms ]
;   nr       type  resnr residue  atom   cgnr     charge       mass  typeB    chargeB      massB
; residue   0 GLU rtp GLU  q  0.0
     1        NH3      0    GLU      N      1       -0.3    14.0027
     2         HC      0    GLU     H1      2       0.33      1.008
     3         HC      0    GLU     H2      3       0.33      1.008
     4         HC      0    GLU     H3      4       0.33      1.008
     5        CT1      0    GLU     CA      5       0.21     12.011
     6         HB      0    GLU     HA      6        0.1      1.008
     7        CT2      0    GLU     CB      7      -0.18     12.011
     8         HA      0    GLU    HB1      8       0.09      1.008
     9         HA      0    GLU    HB2      9       0.09      1.008
    10        CT2      0    GLU     CG     10      -0.28     12.011
    11         HA      0    GLU    HG1     11       0.05      1.008
    12         HA      0    GLU    HG2     12       0.05      1.008
    13         CC      0    GLU     CD     13       0.56     12.011
    14         OC      0    GLU    OE1     14      -0.69     15.999
    15         OC      0    GLU    OE2     15      -0.69     15.999
    16          C      0    GLU      C     16       0.51     12.011
    17          O      0    GLU      O     17      -0.51     15.999   ; qtot 0
; residue   1 TYR rtp TYR  q  0.0
    18        NH1      1    TYR      N     18      -0.47     14.007
    19          H      1    TYR     HN     19       0.31      1.008
    20        CT1      1    TYR     CA     20       0.07     12.011
    21         HB      1    TYR     HA     21       0.09      1.008
    22        CT2      1    TYR     CB     22      -0.18     12.011
    23         HA      1    TYR    HB1     23       0.09      1.008
    24         HA      1    TYR    HB2     24       0.09      1.008
    25         CA      1    TYR     CG     25          0     12.011
    26         CA      1    TYR    CD1     26     -0.115     12.011
    27         HP      1    TYR    HD1     27      0.115      1.008
    28         CA      1    TYR    CE1     28     -0.115     12.011
    29         HP      1    TYR    HE1     29      0.115      1.008
    30         CA      1    TYR     CZ     30       0.11     12.011
    31        OH1      1    TYR     OH     31      -0.54     15.999
    32          H      1    TYR     HH     32       0.43      1.008
    33         CA      1    TYR    CD2     33     -0.115     12.011
    34         HP      1    TYR    HD2     34      0.115      1.008
    35         CA      1    TYR    CE2     35     -0.115     12.011
    36         HP      1    TYR    HE2     36      0.115      1.008
    37          C      1    TYR      C     37       0.51     12.011
    38          O      1    TYR      O     38      -0.51     15.999   ; qtot 0
; residue   2 ASP rtp ASP  q -1.0
    39        NH1      2    ASP      N     39      -0.47     14.007
    40          H      2    ASP     HN     40       0.31      1.008
    41        CT1      2    ASP     CA     41       0.07     12.011
    42         HB      2    ASP     HA     42       0.09      1.008
    43        CT2      2    ASP     CB     43      -0.28     12.011
    44         HA      2    ASP    HB1     44       0.05      1.008
    45         HA      2    ASP    HB2     45       0.05      1.008
    46         CC      2    ASP     CG     46       0.56     12.011
    47         OC      2    ASP    OD1     47      -0.69     15.999
    48         OC      2    ASP    OD2     48      -0.69     15.999
    49          C      2    ASP      C     49       0.51     12.011
    50          O      2    ASP      O     50      -0.51     15.999   ; qtot -1
; residue   3 PRO rtp PRO  q  0.0
    51          N      3    PRO      N     51      -0.29     14.007
    52        CP3      3    PRO     CD     52          0     12.011
    53         HA      3    PRO    HD1     53       0.09      1.008
    54         HA      3    PRO    HD2     54       0.09      1.008
    55        CP1      3    PRO     CA     55       0.02     12.011
    56         HB      3    PRO     HA     56       0.09      1.008
    57        CP2      3    PRO     CB     57      -0.18     12.011
    58         HA      3    PRO    HB1     58       0.09      1.008
    59         HA      3    PRO    HB2     59       0.09      1.008
    60        CP2      3    PRO     CG     60      -0.18     12.011
    61         HA      3    PRO    HG1     61       0.09      1.008
    62         HA      3    PRO    HG2     62       0.09      1.008
    63          C      3    PRO      C     63       0.51     12.011
    64          O      3    PRO      O     64      -0.51     15.999   ; qtot -1
; residue   4 GLU rtp GLU  q -1.0
    65        NH1      4    GLU      N     65      -0.47     14.007
    66          H      4    GLU     HN     66       0.31      1.008
    67        CT1      4    GLU     CA     67       0.07     12.011
    68         HB      4    GLU     HA     68       0.09      1.008
    69        CT2      4    GLU     CB     69      -0.18     12.011
    70         HA      4    GLU    HB1     70       0.09      1.008
    71         HA      4    GLU    HB2     71       0.09      1.008
    72        CT2      4    GLU     CG     72      -0.28     12.011
    73         HA      4    GLU    HG1     73       0.05      1.008
    74         HA      4    GLU    HG2     74       0.05      1.008
    75         CC      4    GLU     CD     75       0.56     12.011
    76         OC      4    GLU    OE1     76      -0.69     15.999
    77         OC      4    GLU    OE2     77      -0.69     15.999
    78          C      4    GLU      C     78       0.51     12.011
    79          O      4    GLU      O     79      -0.51     15.999   ; qtot -2
; residue   5 THR rtp THR  q  0.0
    80        NH1      5    THR      N     80      -0.47     14.007
    81          H      5    THR     HN     81       0.31      1.008
    82        CT1      5    THR     CA     82       0.07     12.011
    83         HB      5    THR     HA     83       0.09      1.008
    84        CT1      5    THR     CB     84       0.14     12.011
    85         HA      5    THR     HB     85       0.09      1.008
    86        OH1      5    THR    OG1     86      -0.66     15.999
    87          H      5    THR    HG1     87       0.43      1.008
    88        CT3      5    THR    CG2     88      -0.27     12.011
    89         HA      5    THR   HG21     89       0.09      1.008
    90         HA      5    THR   HG22     90       0.09      1.008
    91         HA      5    THR   HG23     91       0.09      1.008
    92          C      5    THR      C     92       0.51     12.011
    93          O      5    THR      O     93      -0.51     15.999   ; qtot -2
; residue   6 GLY rtp GLY  q  0.0
    94        NH1      6    GLY      N     94      -0.47     14.007
    95          H      6    GLY     HN     95       0.31      1.008
    96        CT2      6    GLY     CA     96      -0.02     12.011
    97         HB      6    GLY    HA1     97       0.09      1.008
    98         HB      6    GLY    HA2     98       0.09      1.008
    99          C      6    GLY      C     99       0.51     12.011
   100          O      6    GLY      O    100      -0.51     15.999   ; qtot -2
; residue   7 THR rtp THR  q  0.0
   101        NH1      7    THR      N    101      -0.47     14.007
   102          H      7    THR     HN    102       0.31      1.008
   103        CT1      7    THR     CA    103       0.07     12.011
   104         HB      7    THR     HA    104       0.09      1.008
   105        CT1      7    THR     CB    105       0.14     12.011
   106         HA      7    THR     HB    106       0.09      1.008
   107        OH1      7    THR    OG1    107      -0.66     15.999
   108          H      7    THR    HG1    108       0.43      1.008
   109        CT3      7    THR    CG2    109      -0.27     12.011
   110         HA      7    THR   HG21    110       0.09      1.008
   111         HA      7    THR   HG22    111       0.09      1.008
   112         HA      7    THR   HG23    112       0.09      1.008
   113          C      7    THR      C    113       0.51     12.011
   114          O      7    THR      O    114      -0.51     15.999   ; qtot -2
; residue   8 TRP rtp TRP  q  0.0
   115        NH1      8    TRP      N    115      -0.47     14.007
   116          H      8    TRP     HN    116       0.31      1.008
   117        CT1      8    TRP     CA    117       0.07     12.011
   118         HB      8    TRP     HA    118       0.09      1.008
   119        CT2      8    TRP     CB    119      -0.18     12.011
   120         HA      8    TRP    HB1    120       0.09      1.008
   121         HA      8    TRP    HB2    121       0.09      1.008
   122         CY      8    TRP     CG    122      -0.03     12.011
   123         CA      8    TRP    CD1    123      0.035     12.011
   124         HP      8    TRP    HD1    124      0.115      1.008
   125         NY      8    TRP    NE1    125      -0.61     14.007
   126          H      8    TRP    HE1    126       0.38      1.008
   127        CPT      8    TRP    CE2    127       0.13     12.011
   128        CPT      8    TRP    CD2    128      -0.02     12.011
   129         CA      8    TRP    CE3    129     -0.115     12.011
   130         HP      8    TRP    HE3    130      0.115      1.008
   131         CA      8    TRP    CZ3    131     -0.115     12.011
   132         HP      8    TRP    HZ3    132      0.115      1.008
   133         CA      8    TRP    CZ2    133     -0.115     12.011
   134         HP      8    TRP    HZ2    134      0.115      1.008
   135         CA      8    TRP    CH2    135     -0.115     12.011
   136         HP      8    TRP    HH2    136      0.115      1.008
   137          C      8    TRP      C    137       0.51     12.011
   138          O      8    TRP      O    138      -0.51     15.999   ; qtot -2
; residue   9 TYR rtp TYR  q -1.0
   139        NH1      9    TYR      N    139      -0.47     14.007
   140          H      9    TYR     HN    140       0.31      1.008
   141        CT1      9    TYR     CA    141       0.07     12.011
   142         HB      9    TYR     HA    142       0.09      1.008
   143        CT2      9    TYR     CB    143      -0.18     12.011
   144         HA      9    TYR    HB1    144       0.09      1.008
   145         HA      9    TYR    HB2    145       0.09      1.008
   146         CA      9    TYR     CG    146          0     12.011
   147         CA      9    TYR    CD1    147     -0.115     12.011
   148         HP      9    TYR    HD1    148      0.115      1.008
   149         CA      9    TYR    CE1    149     -0.115     12.011
   150         HP      9    TYR    HE1    150      0.115      1.008
   151         CA      9    TYR     CZ    151       0.11     12.011
   152        OH1      9    TYR     OH    152      -0.54     15.999
   153          H      9    TYR     HH    153       0.43      1.008
   154         CA      9    TYR    CD2    154     -0.115     12.011
   155         HP      9    TYR    HD2    155      0.115      1.008
   156         CA      9    TYR    CE2    156     -0.115     12.011
   157         HP      9    TYR    HE2    157      0.115      1.008
   158         CC      9    TYR      C    158       0.34     12.011
   159         OC      9    TYR    OT1    159      -0.67    15.9994
   160         OC      9    TYR    OT2    160      -0.67    15.9994   ; qtot -3

[ bonds ]
;  ai    aj funct            c0            c1            c2            c3
    1     2     1 
    1     3     1 
    1     4     1 
    1     5     1 
    5     6     1 
    5     7     1 
    5    16     1 
    7     8     1 
    7     9     1 
    7    10     1 
   10    11     1 
   10    12     1 
   10    13     1 
   13    14     1 
   13    15     1 
   16    17     1 
   16    18     1 
   18    19     1 
   18    20     1 
   20    21     1 
   20    22     1 
   20    37     1 
   22    23     1 
   22    24     1 
   22    25     1 
   25    26     1 
   25    33     1 
   26    27     1 
   26    28     1 
   28    29     1 
   28    30     1 
   30    31     1 
   30    35     1 
   31    32     1 
   33    34     1 
   33    35     1 
   35    36     1 
   37    38     1 
   37    39     1 
   39    40     1 
   39    41     1 
   41    42     1 
   41    43     1 
   41    49     1 
   43    44     1 
   43    45     1 
   43    46     1 
   46    47     1 
   46    48     1 
   49    50     1 
   49    51     1 
   51    52     1 
   51    55     1 
   52    53     1 
   52    54     1 
   52    60     1 
   55    56     1 
   55    57     1 
   55    63     1 
   57    58     1 
   57    59     1 
   57    60     1 
   60    61     1 
   60    62     1 
   63    64     1 
   63    65     1 
   65    66     1 
   65    67     1 
   67    68     1 
   67    69     1 
   67    78     1 
   69    70     1 
   69    71     1 
   69    72     1 
   72    73     1 
   72    74     1 
   72    75     1 
   75    76     1 
   75    77     1 
   78    79     1 
   78    80     1 
   80    81     1 
   80    82     1 
   82    83     1 
   82    84     1 
   82    92     1 
   84    85     1 
   84    86     1 
   84    88     1 
   86    87     1 
   88    89     1 
   88    90     1 
   88    91     1 
   92    93     1 
   92    94     1 
   94    95     1 
   94    96     1 
   96    97     1 
   96    98     1 
   96    99     1 
   99   100     1 
   99   101     1 
  101   102     1 
  101   103     1 
  103   104     1 
  103   105     1 
  103   113     1 
  105   106     1 
  105   107     1 
  105   109     1 
  107   108     1 
  109   110     1 
  109   111     1 
  109   112     1 
  113   114     1 
  113   115     1 
  115   116     1 
  115   117     1 
  117   118     1 
  117   119     1 
  117   137     1 
  119   120     1 
  119   121     1 
  119   122     1 
  122   123     1 
  122   128     1 
  123   124     1 
  123   125     1 
  125   126     1 
  125   127     1 
  127   128     1 
  127   133     1 
  128   129     1 
  129   130     1 
  129   131     1 
  131   132     1 
  131   135     1 
  133   134     1 
  133   135     1 
  135   136     1 
  137   138     1 
  137   139     1 
  139   140     1 
  139   141     1 
  141   142     1 
  141   143     1 
  141   158     1 
  143   144     1 
  143   145     1 
  143   146     1 
  146   147     1 
  146   154     1 
  147   148     1 
  147   149     1 
  149   150     1 
  149   151     1 
  151   152     1 
  151   156     1 
  152   153     1 
  154   155     1 
  154   156     1 
  156   157     1 
  158   159     1 
  158   160     1 

[ pairs ]
;  ai    aj funct            c0            c1            c2            c3
    1     8     1 
    1     9     1 
    1    10     1 
    1    17     1 
    1    18     1 
    2     6     1 
    2     7     1 
    2    16     1 
    3     6     1 
    3     7     1 
    3    16     1 
    4     6     1 
    4     7     1 
    4    16     1 
    5    11     1 
    5    12     1 
    5    13     1 
    5    19     1 
    5    20     1 
    6     8     1 
    6     9     1 
    6    10     1 
    6    17     1 
    6    18     1 
    7    14     1 
    7    15     1 
    7    17     1 
    7    18     1 
    8    11     1 
    8    12     1 
    8    13     1 
    8    16     1 
    9    11     1 
    9    12     1 
    9    13     1 
    9    16     1 
   10    16     1 
   11    14     1 
   11    15     1 
   12    14     1 
   12    15     1 
   16    21     1 
   16    22     1 
   16    37     1 
   17    19     1 
   17    20     1 
   18    23     1 
   18    24     1 
   18    25     1 
   18    38     1 
   18    39     1 
   19    21     1 
   19    22     1 
   19    37     1 
   20    26     1 
   20    33     1 
   20    40     1 
   20    41     1 
   21    23     1 
   21    24     1 
   21    25     1 
   21    38     1 
   21    39     1 
   22    27     1 
   22    28     1 
   22    34     1 
   22    35     1 
   22    38     1 
   22    39     1 
   23    26     1 
   23    33     1 
   23    37     1 
   24    26     1 
   24    33     1 
   24    37     1 
   25    29     1 
   25    30     1 
   25    36     1 
   25    37     1 
   26    31     1 
   26    34     1 
   26    35     1 
   27    29     1 
   27    30     1 
   27    33     1 
   28    32     1 
   28    33     1 
   28    36     1 
   29    31     1 
   29    35     1 
   30    34     1 
   31    33     1 
   31    36     1 
   32    35     1 
   34    36     1 
   37    42     1 
   37    43     1 
   37    49     1 
   38    40     1 
   38    41     1 
   39    44     1 
   39    45     1 
   39    46     1 
   39    50     1 
   39    51     1 
   40    42     1 
   40    43     1 
   40    49     1 
   41    47     1 
   41    48     1 
   41    52     1 
   41    55     1 
   42    44     1 
   42    45     1 
   42    46     1 
   42    50     1 
   42    51     1 
   43    50     1 
   43    51     1 
   44    47     1 
   44    48     1 
   44    49     1 
   45    47     1 
   45    48     1 
   45    49     1 
   46    49     1 
   49    53     1 
   49    54     1 
   49    56     1 
   49    57     1 
   49    60     1 
   49    63     1 
   50    52     1 
   50    55     1 
   51    58     1 
   51    59     1 
   51    61     1 
   51    62     1 
   51    64     1 
   51    65     1 
   52    56     1 
   52    58     1 
   52    59     1 
   52    63     1 
   53    55     1 
   53    57     1 
   53    61     1 
   53    62     1 
   54    55     1 
   54    57     1 
   54    61     1 
   54    62     1 
   55    61     1 
   55    62     1 
   55    66     1 
   55    67     1 
   56    58     1 
   56    59     1 
   56    60     1 
   56    64     1 
   56    65     1 
   57    64     1 
   57    65     1 
   58    61     1 
   58    62     1 
   58    63     1 
   59    61     1 
   59    62     1 
   59    63     1 
   60    63     1 
   63    68     1 
   63    69     1 
   63    78     1 
   64    66     1 
   64    67     1 
   65    70     1 
   65    71     1 
   65    72     1 
   65    79     1 
   65    80     1 
   66    68     1 
   66    69     1 
   66    78     1 
   67    73     1 
   67    74     1 
   67    75     1 
   67    81     1 
   67    82     1 
   68    70     1 
   68    71     1 
   68    72     1 
   68    79     1 
   68    80     1 
   69    76     1 
   69    77     1 
   69    79     1 
   69    80     1 
   70    73     1 
   70    74     1 
   70    75     1 
   70    78     1 
   71    73     1 
   71    74     1 
   71    75     1 
   71    78     1 
   72    78     1 
   73    76     1 
   73    77     1 
   74    76     1 
   74    77     1 
   78    83     1 
   78    84     1 
   78    92     1 
   79    81     1 
   79    82     1 
   80    85     1 
   80    86     1 
   80    88     1 
   80    93     1 
   80    94     1 
   81    83     1 
   81    84     1 
   81    92     1 
   82    87     1 
   82    89     1 
   82    90     1 
   82    91     1 
   82    95     1 
   82    96     1 
   83    85     1 
   83    86     1 
   83    88     1 
   83    93     1 
   83    94     1 
   84    93     1 
   84    94     1 
   85    87     1 
   85    89     1 
   85    90     1 
   85    91     1 
   85    92     1 
   86    89     1 
   86    90     1 
   86    91     1 
   86    92     1 
   87    88     1 
   88    92     1 
   92    97     1 
   92    98     1 
   92    99     1 
   93    95     1 
   93    96     1 
   94   100     1 
   94   101     1 
   95    97     1 
   95    98     1 
   95    99     1 
   96   102     1 
   96   103     1 
   97   100     1 
   97   101     1 
   98   100     1 
   98   101     1 
   99   104     1 
   99   105     1 
   99   113     1 
  100   102     1 
  100   103     1 
  101   106     1 
  101   107     1 
  101   109     1 
  101   114     1 
  101   115     1 
  102   104     1 
  102   105     1 
  102   113     1 
  103   108     1 
  103   110     1 
  103   111     1 
  103   112     1 
  103   116     1 
  103   117     1 
  104   106     1 
  104   107     1 
  104   109     1 
  104   114     1 
  104   115     1 
  105   114     1 
  105   115     1 
  106   108     1 
  106   110     1 
  106   111     1 
  106   112     1 
  106   113     1 
  107   110     1 
  107   111     1 
  107   112     1 
  107   113     1 
  108   109     1 
  109   113     1 
  113   118     1 
  113   119     1 
  113   137     1 
  114   116     1 
  114   117     1 
  115   120     1 
  115   121     1 
  115   122     1 
  115   138     1 
  115   139     1 
  116   118     1 
  116   119     1 
  116   137     1 
  117   123     1 
  117   128     1 
  117   140     1 
  117   141     1 
  118   120     1 
  118   121     1 
  118   122     1 
  118   138     1 
  118   139     1 
  119   124     1 
  119   125     1 
  119   127     1 
  119   129     1 
  119   138     1 
  119   139     1 
  120   123     1 
  120   128     1 
  120   137     1 
  121   123     1 
  121   128     1 
  121   137     1 
  122   126     1 
  122   130     1 
  122   131     1 
  122   133     1 
  122   137     1 
  123   129     1 
  123   133     1 
  124   126     1 
  124   127     1 
  124   128     1 
  125   129     1 
  125   134     1 
  125   135     1 
  126   128     1 
  126   133     1 
  127   130     1 
  127   131     1 
  127   136     1 
  128   132     1 
  128   134     1 
  128   135     1 
  129   133     1 
  129   136     1 
  130   132     1 
  130   135     1 
  131   134     1 
  132   133     1 
  132   136     1 
  134   136     1 
  137   142     1 
  137   143     1 
  137   158     1 
  138   140     1 
  138   141     1 
  139   144     1 
  139   145     1 
  139   146     1 
  139   159     1 
  139   160     1 
  140   142     1 
  140   143     1 
  140   158     1 
  141   147     1 
  141   154     1 
  142   144     1 
  142   145     1 
  142   146     1 
  142   159     1 
  142   160     1 
  143   148     1 
  143   149     1 
  143   155     1 
  143   156     1 
  143   159     1 
  143   160     1 
  144   147     1 
  144   154     1 
  144   158     1 
  145   147     1 
  145   154     1 
  145   158     1 
  146   150     1 
  146   151     1 
  146   157     1 
  146   158     1 
  147   152     1 
  147   155     1 
  147   156     1 
  148   150     1 
  148   151     1 
  148   154     1 
  149   153     1 
  149   154     1 
  149   157     1 
  150   152     1 
  150   156     1 
  151   155     1 
  152   154     1 
  152   157     1 
  153   156     1 
  155   157     1 

[ angles ]
;  ai    aj    ak funct            c0            c1            c2            c3
    2     1     3     5 
    2     1     4     5 
    2     1     5     5 
    3     1     4     5 
    3     1     5     5 
    4     1     5     5 
    1     5     6     5 
    1     5     7     5 
    1     5    16     5 
    6     5     7     5 
    6     5    16     5 
    7     5    16     5 
    5     7     8     5 
    5     7     9     5 
    5     7    10     5 
    8     7     9     5 
    8     7    10     5 
    9     7    10     5 
    7    10    11     5 
    7    10    12     5 
    7    10    13     5 
   11    10    12     5 
   11    10    13     5 
   12    10    13     5 
   10    13    14     5 
   10    13    15     5 
   14    13    15     5 
    5    16    17     5 
    5    16    18     5 
   17    16    18     5 
   16    18    19     5 
   16    18    20     5 
   19    18    20     5 
   18    20    21     5 
   18    20    22     5 
   18    20    37     5 
   21    20    22     5 
   21    20    37     5 
   22    20    37     5 
   20    22    23     5 
   20    22    24     5 
   20    22    25     5 
   23    22    24     5 
   23    22    25     5 
   24    22    25     5 
   22    25    26     5 
   22    25    33     5 
   26    25    33     5 
   25    26    27     5 
   25    26    28     5 
   27    26    28     5 
   26    28    29     5 
   26    28    30     5 
   29    28    30     5 
   28    30    31     5 
   28    30    35     5 
   31    30    35     5 
   30    31    32     5 
   25    33    34     5 
   25    33    35     5 
   34    33    35     5 
   30    35    33     5 
   30    35    36     5 
   33    35    36     5 
   20    37    38     5 
   20    37    39     5 
   38    37    39     5 
   37    39    40     5 
   37    39    41     5 
   40    39    41     5 
   39    41    42     5 
   39    41    43     5 
   39    41    49     5 
   42    41    43     5 
   42    41    49     5 
   43    41    49     5 
   41    43    44     5 
   41    43    45     5 
   41    43    46     5 
   44    43    45     5 
   44    43    46     5 
   45    43    46     5 
   43    46    47     5 
   43    46    48     5 
   47    46    48     5 
   41    49    50     5 
   41    49    51     5 
   50    49    51     5 
   49    51    52     5 
   49    51    55     5 
   52    51    55     5 
   51    52    53     5 
   51    52    54     5 
   51    52    60     5 
   53    52    54     5 
   53    52    60     5 
   54    52    60     5 
   51    55    56     5 
   51    55    57     5 
   51    55    63     5 
   56    55    57     5 
   56    55    63     5 
   57    55    63     5 
   55    57    58     5 
   55    57    59     5 
   55    57    60     5 
   58    57    59     5 
   58    57    60     5 
   59    57    60     5 
   52    60    57     5 
   52    60    61     5 
   52    60    62     5 
   57    60    61     5 
   57    60    62     5 
   61    60    62     5 
   55    63    64     5 
   55    63    65     5 
   64    63    65     5 
   63    65    66     5 
   63    65    67     5 
   66    65    67     5 
   65    67    68     5 
   65    67    69     5 
   65    67    78     5 
   68    67    69     5 
   68    67    78     5 
   69    67    78     5 
   67    69    70     5 
   67    69    71     5 
   67    69    72     5 
   70    69    71     5 
   70    69    72     5 
   71    69    72     5 
   69    72    73     5 
   69    72    74     5 
   69    72    75     5 
   73    72    74     5 
   73    72    75     5 
   74    72    75     5 
   72    75    76     5 
   72    75    77     5 
   76    75    77     5 
   67    78    79     5 
   67    78    80     5 
   79    78    80     5 
   78    80    81     5 
   78    80    82     5 
   81    80    82     5 
   80    82    83     5 
   80    82    84     5 
   80    82    92     5 
   83    82    84     5 
   83    82    92     5 
   84    82    92     5 
   82    84    85     5 
   82    84    86     5 
   82    84    88     5 
   85    84    86     5 
   85    84    88     5 
   86    84    88     5 
   84    86    87     5 
   84    88    89     5 
   84    88    90     5 
   84    88    91     5 
   89    88    90     5 
   89    88    91     5 
   90    88    91     5 
   82    92    93     5 
   82    92    94     5 
   93    92    94     5 
   92    94    95     5 
   92    94    96     5 
   95    94    96     5 
   94    96    97     5 
   94    96    98     5 
   94    96    99     5 
   97    96    98     5 
   97    96    99     5 
   98    96    99     5 
   96    99   100     5 
   96    99   101     5 
  100    99   101     5 
   99   101   102     5 
   99   101   103     5 
  102   101   103     5 
  101   103   104     5 
  101   103   105     5 
  101   103   113     5 
  104   103   105     5 
  104   103   113     5 
  105   103   113     5 
  103   105   106     5 
  103   105   107     5 
  103   105   109     5 
  106   105   107     5 
  106   105   109     5 
  107   105   109     5 
  105   107   108     5 
  105   109   110     5 
  105   109   111     5 
  105   109   112     5 
  110   109   111     5 
  110   109   112     5 
  111   109   112     5 
  103   113   114     5 
  103   113   115     5 
  114   113   115     5 
  113   115   116     5 
  113   115   117     5 
  116   115   117     5 
  115   117   118     5 
  115   117   119     5 
  115   117   137     5 
  118   117   119     5 
  118   117   137     5 
  119   117   137     5 
  117   119   120     5 
  117   119   121     5 
  117   119   122     5 
  120   119   121     5 
  120   119   122     5 
  121   119   122     5 
  119   122   123     5 
  119   122   128     5 
  123   122   128     5 
  122   123   124     5 
  122   123   125     5 
  124   123   125     5 
  123   125   126     5 
  123   125   127     5 
  126   125   127     5 
  125   127   128     5 
  125   127   133     5 
  128   127   133     5 
  122   128   127     5 
  122   128   129     5 
  127   128   129     5 
  128   129   130     5 
  128   129   131     5 
  130   129   131     5 
  129   131   132     5 
  129   131   135     5 
  132   131   135     5 
  127   133   134     5 
  127   133   135     5 
  134   133   135     5 
  131   135   133     5 
  131   135   136     5 
  133   135   136     5 
  117   137   138     5 
  117   137   139     5 
  138   137   139     5 
  137   139   140     5 
  137   139   141     5 
  140   139   141     5 
  139   141   142     5 
  139   141   143     5 
  139   141   158     5 
  142   141   143     5 
  142   141   158     5 
  143   141   158     5 
  141   143   144     5 
  141   143   145     5 
  141   143   146     5 
  144   143   145     5 
  144   143   146     5 
  145   143   146     5 
  143   146   147     5 
  143   146   154     5 
  147   146   154     5 
  146   147   148     5 
  146   147   149     5 
  148   147   149     5 
  147   149   150     5 
  147   149   151     5 
  150   149   151     5 
  149   151   152     5 
  149   151   156     5 
  152   151   156     5 
  151   152   153     5 
  146   154   155     5 
  146   154   156     5 
  155   154   156     5 
  151   156   154     5 
  151   156   157     5 
  154   156   157     5 
  141   158   159     5 
  141   158   160     5 
  159   158   160     5 

[ dihedrals ]
;  ai    aj    ak    al funct            c0            c1            c2            c3            c4            c5
    2     1     5     6     9 
    2     1     5     7     9 
    2     1     5    16     9 
    3     1     5     6     9 
    3     1     5     7     9 
    3     1     5    16     9 
    4     1     5     6     9 
    4     1     5     7     9 
    4     1     5    16     9 
    1     5     7     8     9 
    1     5     7     9     9 
    1     5     7    10     9 
    6     5     7     8     9 
    6     5     7     9     9 
    6     5     7    10     9 
   16     5     7     8     9 
   16     5     7     9     9 
   16     5     7    10     9 
    1     5    16    17     9 
    1     5    16    18     9 
    6     5    16    17     9 
    6     5    16    18     9 
    7     5    16    17     9 
    7     5    16    18     9 
    5     7    10    11     9 
    5     7    10    12     9 
    5     7    10    13     9 
    8     7    10    11     9 
    8     7    10    12     9 
    8     7    10    13     9 
    9     7    10    11     9 
    9     7    10    12     9 
    9     7    10    13     9 
    7    10    13    14     9 
    7    10    13    15     9 
   11    10    13    14     9 
   11    10    13    15     9 
   12    10    13    14     9 
   12    10    13    15     9 
    5    16    18    19     9 
    5    16    18    20     9 
   17    16    18    19     9 
   17    16    18    20     9 
   16    18    20    21     9 
   16    18    20    22     9 
   16    18    20    37     9 
   19    18    20    21     9 
   19    18    20    22     9 
   19    18    20    37     9 
   18    20    22    23     9 
   18    20    22    24     9 
   18    20    22    25     9 
   21    20    22    23     9 
   21    20    22    24     9 
   21    20    22    25     9 
   37    20    22    23     9 
   37    20    22    24     9 
   37    20    22    25     9 
   18    20    37    38     9 
   18    20    37    39     9 
   21    20    37    38     9 
   21    20    37    39     9 
   22    20    37    38     9 
   22    20    37    39     9 
   20    22    25    26     9 
   20    22    25    33     9 
   23    22    25    26     9 
   23    22    25    33     9 
   24    22    25    26     9 
   24    22    25    33     9 
   22    25    26    27     9 
   22    25    26    28     9 
   33    25    26    27     9 
   33    25    26    28     9 
   22    25    33    34     9 
   22    25    33    35     9 
   26    25    33    34     9 
   26    25    33    35     9 
   25    26    28    29     9 
   25    26    28    30     9 
   27    26    28    29     9 
   27    26    28    30     9 
   26    28    30    31     9 
   26    28    30    35     9 
   29    28    30    31     9 
   29    28    30    35     9 
   28    30    31    32     9 
   35    30    31    32     9 
   28    30    35    33     9 
   28    30    35    36     9 
   31    30    35    33     9 
   31    30    35    36     9 
   25    33    35    30     9 
   25    33    35    36     9 
   34    33    35    30     9 
   34    33    35    36     9 
   20    37    39    40     9 
   20    37    39    41     9 
   38    37    39    40     9 
   38    37    39    41     9 
   37    39    41    42     9 
   37    39    41    43     9 
   37    39    41    49     9 
   40    39    41    42     9 
   40    39    41    43     9 
   40    39    41    49     9 
   39    41    43    44     9 
   39    41    43    45     9 
   39    41    43    46     9 
   42    41    43    44     9 
   42    41    43    45     9 
   42    41    43    46     9 
   49    41    43    44     9 
   49    41    43    45     9 
   49    41    43    46     9 
   39    41    49    50     9 
   39    41    49    51     9 
   42    41    49    50     9 
   42    41    49    51     9 
   43    41    49    50     9 
   43    41    49    51     9 
   41    43    46    47     9 
   41    43    46    48     9 
   44    43    46    47     9 
   44    43    46    48     9 
   45    43    46    47     9 
   45    43    46    48     9 
   41    49    51    52     9 
   41    49    51    55     9 
   50    49    51    52     9 
   50    49    51    55     9 
   49    51    52    53     9 
   49    51    52    54     9 
   49    51    52    60     9 
   55    51    52    53     9 
   55    51    52    54     9 
   55    51    52    60     9 
   49    51    55    56     9 
   49    51    55    57     9 
   49    51    55    63     9 
   52    51    55    56     9 
   52    51    55    57     9 
   52    51    55    63     9 
   51    52    60    57     9 
   51    52    60    61     9 
   51    52    60    62     9 
   53    52    60    57     9 
   53    52    60    61     9 
   53    52    60    62     9 
   54    52    60    57     9 
   54    52    60    61     9 
   54    52    60    62     9 
   51    55    57    58     9 
   51    55    57    59     9 
   51    55    57    60     9 
   56    55    57    58     9 
   56    55    57    59     9 
   56    55    57    60     9 
   63    55    57    58     9 
   63    55    57    59     9 
   63    55    57    60     9 
   51    55    63    64     9 
   51    55    63    65     9 
   56    55    63    64     9 
   56    55    63    65     9 
   57    55    63    64     9 
   57    55    63    65     9 
   55    57    60    52     9 
   55    57    60    61     9 
   55    57    60    62     9 
   58    57    60    52     9 
   58    57    60    61     9 
   58    57    60    62     9 
   59    57    60    52     9 
   59    57    60    61     9 
   59    57    60    62     9 
   55    63    65    66     9 
   55    63    65    67     9 
   64    63    65    66     9 
   64    63    65    67     9 
   63    65    67    68     9 
   63    65    67    69     9 
   63    65    67    78     9 
   66    65    67    68     9 
   66    65    67    69     9 
   66    65    67    78     9 
   65    67    69    70     9 
   65    67    69    71     9 
   65    67    69    72     9 
   68    67    69    70     9 
   68    67    69    71     9 
   68    67    69    72     9 
   78    67    69    70     9 
   78    67    69    71     9 
   78    67    69    72     9 
   65    67    78    79     9 
   65    67    78    80     9 
   68    67    78    79     9 
   68    67    78    80     9 
   69    67    78    79     9 
   69    67    78    80     9 
   67    69    72    73     9 
   67    69    72    74     9 
   67    69    72    75     9 
   70    69    72    73     9 
   70    69    72    74     9 
   70    69    72    75     9 
   71    69    72    73     9 
   71    69    72    74     9 
   71    69    72    75     9 
   69    72    75    76     9 
   69    72    75    77     9 
   73    72    75    76     9 
   73    72    75    77     9 
   74    72    75    76     9 
   74    72    75    77     9 
   67    78    80    81     9 
   67    78    80    82     9 
   79    78    80    81     9 
   79    78    80    82     9 
   78    80    82    83     9 
   78    80    82    84     9 
   78    80    82    92     9 
   81    80    82    83     9 
   81    80    82    84     9 
   81    80    82    92     9 
   80    82    84    85     9 
   80    82    84    86     9 
   80    82    84    88     9 
   83    82    84    85     9 
   83    82    84    86     9 
   83    82    84    88     9 
   92    82    84    85     9 
   92    82    84    86     9 
   92    82    84    88     9 
   80    82    92    93     9 
   80    82    92    94     9 
   83    82    92    93     9 
   83    82    92    94     9 
   84    82    92    93     9 
   84    82    92    94     9 
   82    84    86    87     9 
   85    84    86    87     9 
   88    84    86    87     9 
   82    84    88    89     9 
   82    84    88    90     9 
   82    84    88    91     9 
   85    84    88    89     9 
   85    84    88    90     9 
   85    84    88    91     9 
   86    84    88    89     9 
   86    84    88    90     9 
   86    84    88    91     9 
   82    92    94    95     9 
   82    92    94    96     9 
   93    92    94    95     9 
   93    92    94    96     9 
   92    94    96    97     9 
   92    94    96    98     9 
   92    94    96    99     9 
   95    94    96    97     9 
   95    94    96    98     9 
   95    94    96    99     9 
   94    96    99   100     9 
   94    96    99   101     9 
   97    96    99   100     9 
   97    96    99   101     9 
   98    96    99   100     9 
   98    96    99   101     9 
   96    99   101   102     9 
   96    99   101   103     9 
  100    99   101   102     9 
  100    99   101   103     9 
   99   101   103   104     9 
   99   101   103   105     9 
   99   101   103   113     9 
  102   101   103   104     9 
  102   101   103   105     9 
  102   101   103   113     9 
  101   103   105   106     9 
  101   103   105   107     9 
  101   103   105   109     9 
  104   103   105   106     9 
  104   103   105   107     9 
  104   103   105   109     9 
  113   103   105   106     9 
  113   103   105   107     9 
  113   103   105   109     9 
  101   103   113   114     9 
  101   103   113   115     9 
  104   103   113   114     9 
  104   103   113   115     9 
  105   103   113   114     9 
  105   103   113   115     9 
  103   105   107   108     9 
  106   105   107   108     9 
  109   105   107   108     9 
  103   105   109   110     9 
  103   105   109   111     9 
  103   105   109   112     9 
  106   105   109   110     9 
  106   105   109   111     9 
  106   105   109   112     9 
  107   105   109   110     9 
  107   105   109   111     9 
  107   105   109   112     9 
  103   113   115   116     9 
  103   113   115   117     9 
  114   113   115   116     9 
  114   113   115   117     9 
  113   115   117   118     9 
  113   115   117   119     9 
  113   115   117   137     9 
  116   115   117   118     9 
  116   115   117   119     9 
  116   115   117   137     9 
  115   117   119   120     9 
  115   117   119   121     9 
  115   117   119   122     9 
  118   117   119   120     9 
  118   117   119   121     9 
  118   117   119   122     9 
  137   117   119   120     9 
  137   117   119   121     9 
  137   117   119   122     9 
  115   117   137   138     9 
  115   117   137   139     9 
  118   117   137   138     9 
  118   117   137   139     9 
  119   117   137   138     9 
  119   117   137   139     9 
  117   119   122   123     9 
  117   119   122   128     9 
  120   119   122   123     9 
  120   119   122   128     9 
  121   119   122   123     9 
  121   119   122   128     9 
  119   122   123   124     9 
  119   122   123   125     9 
  128   122   123   124     9 
  128   122   123   125     9 
  119   122   128   127     9 
  119   122   128   129     9 
  123   122   128   127     9 
  123   122   128   129     9 
  122   123   125   126     9 
  122   123   125   127     9 
  124   123   125   126     9 
  124   123   125   127     9 
  123   125   127   128     9 
  123   125   127   133     9 
  126   125   127   128     9 
  126   125   127   133     9 
  125   127   128   122     9 
  125   127   128   129     9 
  133   127   128   122     9 
  133   127   128   129     9 
  125   127   133   134     9 
  125   127   133   135     9 
  128   127   133   134     9 
  128   127   133   135     9 
  122   128   129   130     9 
  122   128   129   131     9 
  127   128   129   130     9 
  127   128   129   131     9 
  128   129   131   132     9 
  128   129   131   135     9 
  130   129   131   132     9 
  130   129   131   135     9 
  129   131   135   133     9 
  129   131   135   136     9 
  132   131   135   133     9 
  132   131   135   136     9 
  127   133   135   131     9 
  127   133   135   136     9 
  134   133   135   131     9 
  134   133   135   136     9 
  117   137   139   140     9 
  117   137   139   141     9 
  138   137   139   140     9 
  138   137   139   141     9 
  137   139   141   142     9 
  137   139   141   143     9 
  137   139   141   158     9 
  140   139   141   142     9 
  140   139   141   143     9 
  140   139   141   158     9 
  139   141   143   144     9 
  139   141   143   145     9 
  139   141   143   146     9 
  142   141   143   144     9 
  142   141   143   145     9 
  142   141   143   146     9 
  158   141   143   144     9 
  158   141   143   145     9 
  158   141   143   146     9 
  139   141   158   159     9 
  139   141   158   160     9 
  142   141   158   159     9 
  142   141   158   160     9 
  143   141   158   159     9 
  143   141   158   160     9 
  141   143   146   147     9 
  141   143   146   154     9 
  144   143   146   147     9 
  144   143   146   154     9 
  145   143   146   147     9 
  145   143   146   154     9 
  143   146   147   148     9 
  143   146   147   149     9 
  154   146   147   148     9 
  154   146   147   149     9 
  143   146   154   155     9 
  143   146   154   156     9 
  147   146   154   155     9 
  147   146   154   156     9 
  146   147   149   150     9 
  146   147   149   151     9 
  148   147   149   150     9 
  148   147   149   151     9 
  147   149   151   152     9 
  147   149   151   156     9 
  150   149   151   152     9 
  150   149   151   156     9 
  149   151   152   153     9 
  156   151   152   153     9 
  149   151   156   154     9 
  149   151   156   157     9 
  152   151   156   154     9 
  152   151   156   157     9 
  146   154   156   151     9 
  146   154   156   157     9 
  155   154   156   151     9 
  155   154   156   157     9 

[ dihedrals ]
;  ai    aj    ak    al funct            c0            c1            c2            c3
   13    10    15    14     2 
   16     5    18    17     2 
   18    16    20    19     2 
   37    20    39    38     2 
   39    37    41    40     2 
   46    43    48    47     2 
   49    41    51    50     2 
   51    49    55    52     2 
   63    55    65    64     2 
   65    63    67    66     2 
   75    72    77    76     2 
   78    67    80    79     2 
   80    78    82    81     2 
   92    82    94    93     2 
   94    92    96    95     2 
   99    96   101   100     2 
  101    99   103   102     2 
  113   103   115   114     2 
  115   113   117   116     2 
  137   117   139   138     2 
  139   137   141   140     2 
  158   141   160   159     2 

[ cmap ]
;  ai    aj    ak    al    am funct
   49    51    55    63    65     1 
   92    94    96    99   101     1 

; Include Position restraint file
#ifdef POSRES
#include "posre.itp"
#endif

; Include water topology
#include "charmm22star.ff/tip3p.itp"

#ifdef POSRES_WATER
; Position restraint for each water oxygen
[ position_restraints ]
;  i funct       fcx        fcy        fcz
   1    1       1000       1000       1000
#endif

; Include topology for ions
#include "charmm22star.ff/ions.itp"

[ system ]
; Name
Protein in water

[ molecules ]
; Compound        #mols
Protein_chain_A     1
SOL         1759
NA               3
