Protein in water
 5442
    0TYR      N    1   2.923   2.243   1.654 -0.7519  0.5370 -1.2473
    0TYR     H1    2   2.962   2.226   1.749 -1.1517  0.0311 -1.1694
    0TYR     H2    3   2.989   2.195   1.590  1.3235 -2.4726  2.6617
    0TYR     H3    4   2.830   2.196   1.647 -0.3066 -0.5524 -0.1907
    0TYR     CA    5   2.903   2.390   1.636  0.3128 -0.4867  0.3682
    0TYR     HA    6   2.902   2.413   1.530  1.4959  1.0589  0.6577
    0TYR     CB    7   2.768   2.418   1.708  0.0090  0.1994 -0.4152
    0TYR    HB1    8   2.772   2.392   1.816 -0.0651  1.1823 -0.1704
    0TYR    HB2    9   2.699   2.341   1.666  1.5384 -1.6445  0.3124
    0TYR     CG   10   2.710   2.560   1.709  0.5011 -0.5560 -0.0443
    0TYR    CD1   11   2.660   2.622   1.829 -1.1874 -0.1662  0.0237
    0TYR    HD1   12   2.639   2.560   1.915 -1.9408 -2.8067 -1.9316
    0TYR    CE1   13   2.612   2.752   1.826  0.3586 -0.2213 -0.1935
    0TYR    HE1   14   2.572   2.797   1.915 -0.6058  0.7267 -1.0861
    0TYR     CZ   15   2.612   2.826   1.711  0.0509  0.3576  0.0389
    0TYR     OH   16   2.583   2.957   1.714 -0.5412  0.8854 -0.2994
    0TYR     HH   17   2.611   2.987   1.627  3.1537  0.4821  0.6018
    0TYR    CD2   18   2.709   2.643   1.595  1.1086  0.8914 -0.2850
    0TYR    HD2   19   2.750   2.608   1.501  1.2827  2.0954 -0.6823
    0TYR    CE2   20   2.642   2.765   1.588  1.1073 -0.5254 -0.8528
    0TYR    HE2   21   2.648   2.829   1.502 -1.7918  1.4579  0.2539
    0TYR      C   22   3.010   2.470   1.710  0.2103 -0.4121 -0.3364
    0TYR      O   23   3.072   2.416   1.803 -0.2726 -1.2048  0.5099
    1TYR      N   24   3.021   2.605   1.689  0.0126  0.5431  0.4874
    1TYR     HN   25   2.970   2.648   1.614  1.2061  1.0679 -0.0533
    1TYR     CA   26   3.112   2.704   1.754  0.5726  1.1360  0.2544
    1TYR     HA   27   3.130   2.664   1.853 -2.3686  1.2243  0.9185
    1TYR     CB   28   3.239   2.724   1.669  0.2468  0.3198 -0.2198
    1TYR    HB1   29   3.198   2.751   1.570 -1.7938  1.0126  0.7506
    1TYR    HB2   30   3.295   2.629   1.656 -0.3550 -0.2424  1.0524
    1TYR     CG   31   3.340   2.835   1.705  0.5817 -0.4419  0.3526
    1TYR    CD1   32   3.369   2.938   1.615  0.2146  0.0875  0.3263
    1TYR    HD1   33   3.309   2.953   1.526  0.9014  1.9175  0.1284
    1TYR    CE1   34   3.465   3.031   1.634 -0.2599  0.3171  0.5911
    1TYR    HE1   35   3.493   3.112   1.568 -1.0132  2.0535  2.3114
    1TYR     CZ   36   3.539   3.016   1.752 -0.2570  0.7215  0.2827
    1TYR     OH   37   3.642   3.102   1.767  0.3955 -0.2336  0.3725
    1TYR     HH   38   3.680   3.086   1.854  0.9915 -0.9831 -0.0090
    1TYR    CD2   39   3.416   2.824   1.831 -0.3842  0.2878  0.6969
    1TYR    HD2   40   3.399   2.734   1.888 -3.1079 -1.0453 -1.9308
    1TYR    CE2   41   3.527   2.909   1.842 -0.2753 -0.2192  0.0724
    1TYR    HE2   42   3.597   2.893   1.922 -3.0491 -3.9250  2.0545
    1TYR      C   43   3.040   2.833   1.776 -0.0590 -0.2679 -0.1312
    1TYR      O   44   2.987   2.895   1.685  0.5742 -0.0787 -0.0471
    2GLU      N   45   3.042   2.881   1.903  0.1440  0.0010  0.4305
    2GLU     HN   46   3.076   2.834   1.984  0.4229 -1.0876 -0.3076
    2GLU     CA   47   2.990   3.019   1.919  0.2564  0.9376 -0.7877
    2GLU     HA   48   2.917   3.049   1.845 -1.0991 -1.9291 -0.7525
    2GLU     CB   49   2.912   3.032   2.059 -0.2096 -0.5861  0.5549
    2GLU    HB1   50   2.972   2.994   2.144  0.4719  0.6233  0.6381
    2GLU    HB2   51   2.821   2.969   2.043  0.1503 -1.0688  0.3995
    2GLU     CG   52   2.855   3.173   2.081  0.3776  0.3210 -0.3648
    2GLU    HG1   53   2.937   3.245   2.104  0.0773  0.6973 -0.4655
    2GLU    HG2   54   2.795   3.201   1.992 -2.8657 -0.4197  1.4250
    2GLU     CD   55   2.767   3.185   2.206 -0.2723  0.1959  0.1509
    2GLU    OE1   56   2.644   3.199   2.194  0.1412  0.4587 -0.8311
    2GLU    OE2   57   2.826   3.175   2.317  0.2454 -0.1499  0.0180
    2GLU      C   58   3.112   3.113   1.922 -1.5256 -0.0932  0.0633
    2GLU      O   59   3.191   3.117   2.015  0.3462 -0.0581 -0.5116
    3PRO      N   60   3.144   3.205   1.827  0.1123 -0.1353  0.2324
    3PRO     CD   61   3.070   3.210   1.702  0.0263 -0.1902  1.2386
    3PRO    HD1   62   3.089   3.121   1.637  1.4685  0.0463  1.3054
    3PRO    HD2   63   2.962   3.214   1.727 -1.0135 -0.6747 -2.4743
    3PRO     CA   64   3.260   3.303   1.825  0.9707 -0.6335 -0.5088
    3PRO     HA   65   3.349   3.244   1.843  0.0061 -2.1474 -0.5283
    3PRO     CB   66   3.255   3.368   1.688 -0.2578 -0.7377 -0.3647
    3PRO    HB1   67   3.329   3.309   1.629  1.1833 -0.1500  0.7796
    3PRO    HB2   68   3.269   3.479   1.685 -0.8375 -0.6317  0.6434
    3PRO     CG   69   3.125   3.336   1.626 -0.3529  0.2285 -0.3368
    3PRO    HG1   70   3.130   3.307   1.519 -0.3877  1.0153 -0.5540
    3PRO    HG2   71   3.046   3.413   1.637 -0.0305  0.6947 -1.2795
    3PRO      C   72   3.243   3.408   1.933  0.6759 -0.3542 -0.5515
    3PRO      O   73   3.342   3.461   1.984  0.6998  0.2625  0.7063
    4GLU      N   74   3.117   3.440   1.974 -0.2066  0.6540  0.0733
    4GLU     HN   75   3.036   3.395   1.936  0.6180  1.6862 -3.1849
    4GLU     CA   76   3.082   3.532   2.078  0.2164  1.1528 -0.0033
    4GLU     HA   77   3.120   3.631   2.056  0.0542  0.9869 -1.1106
    4GLU     CB   78   2.929   3.551   2.085  0.5053  0.5248  0.7147
    4GLU    HB1   79   2.903   3.641   2.145 -0.0214  1.2293 -0.5318
    4GLU    HB2   80   2.883   3.458   2.125  2.2164 -1.9307 -2.5045
    4GLU     CG   81   2.873   3.565   1.938 -0.7052 -0.1749  0.2217
    4GLU    HG1   82   2.878   3.470   1.880 -4.0071  0.3682 -1.1277
    4GLU    HG2   83   2.942   3.632   1.882 -2.6139  1.0333 -0.7794
    4GLU     CD   84   2.728   3.613   1.937  0.7535  0.0261 -0.3922
    4GLU    OE1   85   2.702   3.721   1.995 -0.4084  0.0317 -0.6523
    4GLU    OE2   86   2.635   3.542   1.886 -0.2102 -0.0050 -0.4274
    4GLU      C   87   3.141   3.490   2.216  0.6124  0.1777 -0.5588
    4GLU      O   88   3.168   3.576   2.296  0.1579  0.0770 -0.5690
    5THR      N   89   3.146   3.364   2.245  0.1760 -0.4063 -0.8094
    5THR     HN   90   3.124   3.291   2.180  0.5036  0.1365 -1.5496
    5THR     CA   91   3.203   3.322   2.373  0.1634 -0.1342  0.3034
    5THR     HA   92   3.224   3.408   2.436 -2.3559  0.1626  0.8802
    5THR     CB   93   3.114   3.236   2.460 -0.1609 -0.7587  0.6523
    5THR     HB   94   3.086   3.139   2.414  0.9345 -1.7978  2.1098
    5THR    OG1   95   2.996   3.317   2.471  0.0407 -0.0809 -0.1260
    5THR    HG1   96   2.939   3.279   2.403  2.5209 -2.1894 -1.1930
    5THR    CG2   97   3.166   3.225   2.601  0.0429 -0.3619  0.4054
    5THR   HG21   98   3.203   3.318   2.648 -0.1408 -0.8104  1.4809
    5THR   HG22   99   3.249   3.151   2.608  0.5878  0.2393  0.3500
    5THR   HG23  100   3.095   3.177   2.672 -0.8362  1.3342  0.7291
    5THR      C  101   3.329   3.247   2.354  0.3427  0.3982  0.0920
    5THR      O  102   3.410   3.241   2.449 -0.1990  0.0740  0.2363
    6GLY      N  103   3.350   3.174   2.240 -0.7558 -0.3499  0.3228
    6GLY     HN  104   3.292   3.188   2.160  1.6115 -1.3598 -1.6798
    6GLY     CA  105   3.463   3.084   2.212 -0.1550  0.2631  1.0246
    6GLY    HA1  106   3.551   3.106   2.271  0.3526  1.5822 -0.1819
    6GLY    HA2  107   3.491   3.092   2.108  1.5012 -1.4636  1.2715
    6GLY      C  108   3.436   2.936   2.245  0.1585 -0.0188 -0.1500
    6GLY      O  109   3.520   2.848   2.236 -0.2905  0.3058  0.2230
    7THR      N  110   3.316   2.900   2.284 -0.3488 -0.0153 -0.0213
    7THR     HN  111   3.247   2.967   2.314 -2.3503 -0.5903 -2.9571
    7THR     CA  112   3.272   2.764   2.307 -0.6378  0.4492  0.6249
    7THR     HA  113   3.347   2.719   2.371 -0.9247 -1.0865 -0.0741
    7THR     CB  114   3.149   2.753   2.394  0.2224 -0.0362  0.1350
    7THR     HB  115   3.062   2.754   2.324  0.6101 -2.1321 -0.4267
    7THR    OG1  116   3.150   2.864   2.484 -0.0535 -0.2245  0.0301
    7THR    HG1  117   3.058   2.888   2.494  0.3672  1.7533 -0.3895
    7THR    CG2  118   3.164   2.634   2.473 -0.5734  0.1964  0.4399
    7THR   HG21  119   3.093   2.616   2.557 -0.2152 -1.1036  0.4923
    7THR   HG22  120   3.266   2.616   2.513 -1.6725 -0.0571  3.4168
    7THR   HG23  121   3.142   2.550   2.403 -0.8012 -0.2453  1.0260
    7THR      C  122   3.263   2.673   2.186 -0.7900  0.2732  0.1538
    7THR      O  123   3.190   2.699   2.098  0.3226 -1.2195 -0.1368
    8TRP      N  124   3.347   2.562   2.190 -0.3535  0.2016  0.6804
    8TRP     HN  125   3.426   2.553   2.250  0.6984  1.3923 -0.4360
    8TRP     CA  126   3.342   2.453   2.093 -0.1529 -0.6314 -0.0900
    8TRP     HA  127   3.309   2.496   1.999  1.0092  2.1788  0.6873
    8TRP     CB  128   3.490   2.396   2.089  0.1672 -0.3640  0.1170
    8TRP    HB1  129   3.494   2.301   2.032  3.7346 -0.1731 -0.1348
    8TRP    HB2  130   3.529   2.367   2.189  2.0384 -0.4896 -0.6239
    8TRP     CG  131   3.588   2.481   2.017 -0.8980  0.0824  0.1671
    8TRP    CD1  132   3.660   2.590   2.063  0.1796  0.4507 -0.1451
    8TRP    HD1  133   3.658   2.621   2.166  1.8630 -0.2583  0.1265
    8TRP    NE1  134   3.724   2.655   1.964 -0.0445 -0.6440  0.2577
    8TRP    HE1  135   3.773   2.738   1.971  1.4809 -1.5383  0.6713
    8TRP    CE2  136   3.687   2.592   1.846  0.4726 -0.3458  0.0829
    8TRP    CD2  137   3.610   2.473   1.879 -0.7530 -0.1125  0.2218
    8TRP    CE3  138   3.574   2.381   1.778 -0.1427 -0.2269  0.2188
    8TRP    HE3  139   3.516   2.292   1.795 -3.1341  1.4934 -0.3791
    8TRP    CZ3  140   3.617   2.410   1.650 -0.5547  0.0572  0.2131
    8TRP    HZ3  141   3.579   2.342   1.576 -0.9799 -2.0667  2.2774
    8TRP    CZ2  142   3.713   2.624   1.714 -0.0337 -0.3401 -0.0148
    8TRP    HZ2  143   3.766   2.714   1.688  0.7138 -0.5694  0.6737
    8TRP    CH2  144   3.671   2.534   1.612  0.0260 -0.4854 -0.7601
    8TRP    HH2  145   3.688   2.561   1.509 -0.5401 -0.6638 -0.9025
    8TRP      C  146   3.242   2.346   2.133 -0.1093 -1.2042 -0.2666
    8TRP      O  147   3.257   2.282   2.239  0.0027  0.1413  0.1629
    9TYR      N  148   3.138   2.317   2.051  0.4318 -0.7701 -0.2988
    9TYR     HN  149   3.124   2.360   1.962 -0.2949  0.0625  0.2109
    9TYR     CA  150   3.043   2.210   2.073 -1.3232 -0.2967 -0.4656
    9TYR     HA  151   3.066   2.187   2.176 -0.3495  0.3785 -0.5119
    9TYR     CB  152   2.899   2.253   2.053 -0.6356 -0.3051  0.0333
    9TYR    HB1  153   2.832   2.172   2.088 -1.3738  0.5196  0.5777
    9TYR    HB2  154   2.878   2.281   1.948  0.8875  1.7229  0.2007
    9TYR     CG  155   2.861   2.372   2.140  0.1899  0.2148 -0.3420
    9TYR    CD1  156   2.859   2.497   2.080 -0.1750  0.0291  0.3254
    9TYR    HD1  157   2.905   2.508   1.983  1.6728  1.5583  1.2991
    9TYR    CE1  158   2.802   2.607   2.148  0.6133 -0.8238  0.2513
    9TYR    HE1  159   2.791   2.702   2.097 -1.0519 -0.1188  1.8391
    9TYR     CZ  160   2.754   2.583   2.278  0.1700 -0.5662 -0.0795
    9TYR     OH  161   2.697   2.683   2.355 -0.1214  0.1258 -0.4928
    9TYR     HH  162   2.661   2.757   2.305 -3.4025 -0.6488  0.4705
    9TYR    CD2  163   2.824   2.358   2.277 -0.6803  0.3541  0.2366
    9TYR    HD2  164   2.841   2.264   2.328 -0.2924  1.1841  1.6946
    9TYR    CE2  165   2.776   2.465   2.347 -0.6143  0.1952 -0.3442
    9TYR    HE2  166   2.742   2.455   2.449 -0.5770  0.3530 -0.3147
    9TYR      C  167   3.079   2.090   1.984  0.3298 -0.0925 -0.0231
    9TYR    OT1  168   3.018   2.086   1.875 -0.2794 -0.0897 -1.0187
    9TYR    OT2  169   3.156   2.002   2.027 -0.4168 -0.0735 -0.0454
   10SOL     OW  170   2.462   2.209   2.332  0.3326  0.5991 -0.5587
   10SOL    HW1  171   2.436   2.130   2.286  2.1301  1.0534 -2.5322
   10SOL    HW2  172   2.449   2.188   2.425  0.3505 -1.8495 -1.0328
   11SOL     OW  173   2.962   3.216   3.173  0.1951 -0.5781 -0.2937
   11SOL    HW1  174   2.897   3.276   3.135 -0.1693 -0.5394  0.3663
   11SOL    HW2  175   2.991   3.260   3.253  0.1745 -1.1277  0.0195
   12SOL     OW  176   1.908   0.472   1.919  0.8547 -0.5036  0.1128
   12SOL    HW1  177   1.851   0.396   1.928  1.5219 -0.8322  2.1945
   12SOL    HW2  178   1.937   0.491   2.009 -0.8311  3.4551  0.0457
   13SOL     OW  179   0.298   0.365   2.398 -0.0978  0.2450  0.8663
   13SOL    HW1  180   0.207   0.366   2.368  0.3889 -1.8072 -0.8675
   13SOL    HW2  181   0.303   0.292   2.459  0.5394 -0.0800  0.4308
   14SOL     OW  182   2.990   1.806   3.554  0.3501  0.0881  0.4713
   14SOL    HW1  183   3.051   1.848   3.493  1.1202 -0.9147  0.5250
   14SOL    HW2  184   2.968   1.875   3.616  0.0759  0.9454 -0.5402
   15SOL     OW  185   1.408   3.044   0.816 -0.3391 -0.2686 -0.3276
   15SOL    HW1  186   1.363   2.972   0.773 -3.2395  1.2899 -0.1706
   15SOL    HW2  187   1.435   3.102   0.745 -0.6721 -0.1204 -0.3402
   16SOL     OW  188   2.249   0.046   0.443  0.2419  0.1146  0.1841
   16SOL    HW1  189   2.198   0.002   0.510 -0.0709  0.9428  0.5080
   16SOL    HW2  190   2.319   0.091   0.492 -0.9006  2.0303  0.1800
   17SOL     OW  191   0.677   3.331   1.079 -0.7055 -0.0239 -0.0228
   17SOL    HW1  192   0.610   3.398   1.075 -0.3498  0.4434  1.3593
   17SOL    HW2  193   0.628   3.248   1.079 -1.1212  0.1539 -2.3259
   18SOL     OW  194   1.761   2.286   1.419 -0.4236  0.3755  0.4371
   18SOL    HW1  195   1.825   2.335   1.366 -1.0392 -0.1812 -0.8726
   18SOL    HW2  196   1.814   2.225   1.470  0.0752 -2.0964 -2.7075
   19SOL     OW  197   2.216   3.420   3.355  0.1018  0.2799 -0.3737
   19SOL    HW1  198   2.163   3.439   3.432 -1.7013 -0.2131 -1.4320
   19SOL    HW2  199   2.159   3.367   3.300  1.6628 -0.1190 -1.6551
   20SOL     OW  200   2.340   3.389   0.102 -0.7784  0.2986 -0.3768
   20SOL    HW1  201   2.420   3.343   0.075 -1.8462 -0.8703 -1.7277
   20SOL    HW2  202   2.370   3.455   0.164  1.1302 -0.6386 -0.2307
   21SOL     OW  203   1.688   2.618   0.342 -0.7107  0.0652  0.0267
   21SOL    HW1  204   1.677   2.622   0.247 -1.0049 -1.3175 -0.0137
   21SOL    HW2  205   1.782   2.634   0.356  0.0057 -2.8324 -0.7768
   22SOL     OW  206   0.738   0.060   2.948  0.0514  0.3918 -0.1372
   22SOL    HW1  207   0.643   0.054   2.950  0.0982 -0.3209  1.2099
   22SOL    HW2  208   0.767  -0.016   2.898 -0.0442 -0.3665  0.9299
   23SOL     OW  209   0.721   2.314   3.437  0.2795  0.4375  0.0481
   23SOL    HW1  210   0.780   2.298   3.364  0.1855  1.4835 -0.2700
   23SOL    HW2  211   0.676   2.230   3.450  2.5838 -0.7476  1.0269
   24SOL     OW  212   0.952   0.045   1.022  0.4290 -0.3815  0.2522
   24SOL    HW1  213   0.968  -0.038   0.976  1.1013  0.8778 -1.8995
   24SOL    HW2  214   0.857   0.048   1.034  0.2954 -1.0063 -0.5588
   25SOL     OW  215   1.943   2.742   2.565 -0.4164  0.4850 -0.9909
   25SOL    HW1  216   1.896   2.800   2.625 -1.3600  0.1750 -1.4207
   25SOL    HW2  217   2.021   2.715   2.614  0.6828  3.0139 -1.1911
   26SOL     OW  218   1.039   2.479   0.747 -0.2811 -0.1103 -0.2311
   26SOL    HW1  219   1.008   2.429   0.822  1.1603 -0.8105 -0.0549
   26SOL    HW2  220   1.027   2.570   0.772  0.4742 -0.3254  1.0141
   27SOL     OW  221   2.857   0.535   2.863 -0.2071  0.1654 -0.0673
   27SOL    HW1  222   2.882   0.603   2.924  0.6158  1.0419 -1.3374
   27SOL    HW2  223   2.826   0.582   2.785  1.9527 -0.8227 -1.6261
   28SOL     OW  224   3.587   0.593   2.038 -0.2774  0.3522  0.3335
   28SOL    HW1  225   3.559   0.646   1.963  1.8118 -0.0699 -0.8296
   28SOL    HW2  226   3.602   0.506   2.001  1.5622  0.3260  1.0409
   29SOL     OW  227   1.651   1.799   2.141  0.2423  0.2338  0.2464
   29SOL    HW1  228   1.643   1.859   2.066 -1.1779 -0.7330 -0.4128
   29SOL    HW2  229   1.718   1.736   2.114 -1.0938 -0.8144 -0.7507
   30SOL     OW  230   1.874   1.863   3.377 -0.0128 -0.2819  0.9034
   30SOL    HW1  231   1.961   1.899   3.360 -1.4036  2.4809 -1.1949
   30SOL    HW2  232   1.853   1.811   3.299 -1.2349  1.4149  0.0155
   31SOL     OW  233   1.269   0.641   3.174 -0.1776 -0.5984  0.4829
   31SOL    HW1  234   1.199   0.577   3.164 -1.0269  0.6524 -3.1240
   31SOL    HW2  235   1.225   0.725   3.180  1.0071  0.0030  1.2533
   32SOL     OW  236   3.572   1.607   2.556 -0.2755 -0.7555 -0.0687
   32SOL    HW1  237   3.595   1.574   2.469  0.6195 -0.1959 -0.0579
   32SOL    HW2  238   3.588   1.701   2.551 -0.6623 -0.6516  0.5653
   33SOL     OW  239   0.925   3.693   1.322 -0.2084  0.8391  0.6141
   33SOL    HW1  240   0.883   3.779   1.322 -1.4750  0.2375  0.6914
   33SOL    HW2  241   0.935   3.671   1.414 -3.4222 -0.7146  0.7385
   34SOL     OW  242   3.449   1.050   2.982 -0.4549 -0.1864 -0.1079
   34SOL    HW1  243   3.464   1.123   3.042  0.4340 -0.5113  0.0764
   34SOL    HW2  244   3.460   1.089   2.895  0.3000 -0.1587 -0.0028
   35SOL     OW  245   3.366   3.008   1.143  0.2110 -0.8030  0.3092
   35SOL    HW1  246   3.326   2.943   1.085  1.1674 -1.2698  0.1572
   35SOL    HW2  247   3.460   3.000   1.126  0.4629 -0.5980  1.5579
   36SOL     OW  248   1.507   3.050   2.099 -0.2982 -0.1345 -0.0893
   36SOL    HW1  249   1.546   3.044   2.012  1.1892  0.4103  0.5084
   36SOL    HW2  250   1.515   3.142   2.123 -1.7979 -0.0460  0.1554
   37SOL     OW  251   2.529   2.032   2.073  0.2681 -1.0242  0.1136
   37SOL    HW1  252   2.488   2.008   2.156  0.5694 -2.2648 -0.0767
   37SOL    HW2  253   2.490   2.116   2.050  0.1097 -0.7031  1.4606
   38SOL     OW  254   1.987   2.400   1.689  0.1149 -0.0431  0.3200
   38SOL    HW1  255   2.005   2.351   1.770  0.4535 -0.9709 -0.3001
   38SOL    HW2  256   2.042   2.359   1.623 -0.3654  0.5231 -0.4521
   39SOL     OW  257   0.856   0.402   3.566  0.7021  0.4587  0.1300
   39SOL    HW1  258   0.949   0.385   3.579  0.4462 -0.6034  0.7048
   39SOL    HW2  259   0.828   0.448   3.646  0.2037 -1.5936  1.2261
   40SOL     OW  260   1.532   0.827   1.303  0.1684  0.2338 -0.7841
   40SOL    HW1  261   1.588   0.867   1.369 -0.0617  0.8639 -0.9624
   40SOL    HW2  262   1.587   0.821   1.225  0.1518  0.3802 -0.8086
   41SOL     OW  263   1.820   0.382   0.475 -0.3616 -0.6420  0.4612
   41SOL    HW1  264   1.748   0.339   0.521 -1.9237 -0.7431 -1.8771
   41SOL    HW2  265   1.886   0.314   0.464 -0.6173 -1.0190  1.2031
   42SOL     OW  266   2.599   1.894   0.169  0.3310  0.7088  0.0870
   42SOL    HW1  267   2.672   1.885   0.229  1.1383  1.3089 -0.7839
   42SOL    HW2  268   2.539   1.823   0.193  0.5869  0.9763  1.6309
   43SOL     OW  269   1.395   1.629   2.272 -0.1395  0.4224 -0.4088
   43SOL    HW1  270   1.481   1.662   2.249  0.4845 -1.3937 -0.8867
   43SOL    HW2  271   1.412   1.545   2.315 -1.4928  1.6090  2.8006
   44SOL     OW  272   1.583   2.754   3.314 -0.1050  0.3676 -0.0290
   44SOL    HW1  273   1.627   2.805   3.246  1.0175 -0.4351  0.0654
   44SOL    HW2  274   1.490   2.757   3.290  0.3392 -0.5794 -2.0857
   45SOL     OW  275   2.729   0.071   0.855 -0.1645  0.6314  0.1336
   45SOL    HW1  276   2.770   0.158   0.863 -0.0420  0.5835  0.0233
   45SOL    HW2  277   2.662   0.070   0.924 -0.6415  1.0745 -0.3097
   46SOL     OW  278   1.507   1.186   0.729 -0.2139  0.5846 -0.0795
   46SOL    HW1  279   1.560   1.177   0.650 -0.5170 -0.6675 -0.1641
   46SOL    HW2  280   1.469   1.099   0.742 -2.5040  1.4843 -0.2149
   47SOL     OW  281   3.142   3.149   1.228  0.5381 -1.0410  0.0657
   47SOL    HW1  282   3.216   3.089   1.219  1.3538 -0.1242  0.4210
   47SOL    HW2  283   3.095   3.118   1.305 -0.4620 -2.6482 -1.1276
   48SOL     OW  284   1.936   2.929   0.310 -0.0341 -0.5258  0.1850
   48SOL    HW1  285   2.014   2.962   0.265 -0.3996  1.1218  0.6854
   48SOL    HW2  286   1.870   2.923   0.242  0.3927 -1.4813 -0.1550
   49SOL     OW  287   1.873   1.499   0.427 -0.2335 -0.1792 -0.4518
   49SOL    HW1  288   1.817   1.488   0.350 -1.1445  0.6740  0.0720
   49SOL    HW2  289   1.938   1.428   0.419 -2.4859 -2.4128 -0.0991
   50SOL     OW  290   1.259   1.514   0.354 -0.3036 -0.2284  0.0719
   50SOL    HW1  291   1.349   1.492   0.380 -0.4556  0.4138  1.1659
   50SOL    HW2  292   1.270   1.570   0.277  0.3424  1.4766  1.3329
   51SOL     OW  293   1.707   2.895   0.168 -0.0177  0.1286 -0.1221
   51SOL    HW1  294   1.717   2.912   0.074  0.3743  0.1293 -0.0844
   51SOL    HW2  295   1.624   2.848   0.176 -0.0503  0.1276 -0.4702
   52SOL     OW  296   1.299   3.591   0.609 -0.3544  0.1336  0.2334
   52SOL    HW1  297   1.366   3.542   0.658  0.2322  1.0440  0.3518
   52SOL    HW2  298   1.306   3.556   0.520 -2.1940 -2.3504  0.9505
   53SOL     OW  299   2.939   1.467   0.638 -0.1974  0.9010 -0.4414
   53SOL    HW1  300   3.006   1.506   0.696  1.6187 -1.4075 -0.8557
   53SOL    HW2  301   2.977   1.474   0.550  0.0085 -1.2789 -0.5806
   54SOL     OW  302   0.117   2.237   0.128 -0.1507  0.2172 -0.3992
   54SOL    HW1  303   0.148   2.176   0.061 -2.3570 -0.5189 -0.8452
   54SOL    HW2  304   0.160   2.320   0.107  1.6101 -0.7355 -0.8025
   55SOL     OW  305   3.660   1.016   2.573  0.2415 -0.1134  0.3444
   55SOL    HW1  306   3.740   0.991   2.619 -0.4407 -0.0964  1.6004
   55SOL    HW2  307   3.609   0.935   2.567  0.5862 -0.2505 -0.9731
   56SOL     OW  308   2.138   3.725   3.328  0.7063 -0.3164  1.2024
   56SOL    HW1  309   2.180   3.647   3.292  0.9360 -0.4860  1.8130
   56SOL    HW2  310   2.068   3.691   3.384 -1.8794 -0.0164 -1.6123
   57SOL     OW  311   1.886   2.071   1.542  0.2247 -0.7162 -0.8845
   57SOL    HW1  312   1.924   2.058   1.629 -0.9151  1.2848 -0.0313
   57SOL    HW2  313   1.811   2.012   1.540 -0.3405 -0.0374 -0.0989
   58SOL     OW  314   0.835   2.632   1.332  0.5473 -0.2133 -0.2018
   58SOL    HW1  315   0.837   2.685   1.412  1.6269 -1.9653  0.9874
   58SOL    HW2  316   0.750   2.587   1.336 -0.1642  0.9786 -0.9784
   59SOL     OW  317   1.664   3.135   2.877 -0.2847 -0.0107  0.0410
   59SOL    HW1  318   1.580   3.150   2.833 -0.2004  1.3775  0.3111
   59SOL    HW2  319   1.726   3.121   2.805 -0.4557  0.5445 -0.2196
   60SOL     OW  320   1.964   0.581   2.203  0.2067  0.5337  0.1590
   60SOL    HW1  321   1.931   0.557   2.290 -1.3369  1.3420 -0.1599
   60SOL    HW2  322   1.968   0.677   2.205  0.4603  0.5414 -0.5603
   61SOL     OW  323   3.592   0.678   2.967 -0.1484  0.1068  0.1301
   61SOL    HW1  324   3.498   0.690   2.954 -0.1909 -0.7489 -0.4439
   61SOL    HW2  325   3.601   0.654   3.059 -0.5621 -0.4122  0.0404
   62SOL     OW  326   2.366   1.544   2.559  0.0786 -0.1562 -0.1524
   62SOL    HW1  327   2.370   1.635   2.589 -0.5786 -0.5561  1.2374
   62SOL    HW2  328   2.387   1.549   2.466 -0.5262  1.4933 -0.2452
   63SOL     OW  329   1.493   1.727   2.686  0.4045  0.2087  0.5689
   63SOL    HW1  330   1.516   1.636   2.668  0.8361 -0.0313  2.1438
   63SOL    HW2  331   1.405   1.737   2.649  0.2691 -0.9066  0.5441
   64SOL     OW  332   0.613   0.607   1.633  0.5693  0.5585 -0.1167
   64SOL    HW1  333   0.581   0.607   1.723  1.9085  0.9883  0.3882
   64SOL    HW2  334   0.647   0.695   1.619  2.4053 -0.1094 -0.2542
   65SOL     OW  335   3.233   0.620   1.699 -0.0994  0.1350  0.5668
   65SOL    HW1  336   3.270   0.535   1.721 -0.5463 -0.3826 -0.5968
   65SOL    HW2  337   3.268   0.640   1.613 -1.0211  0.5195  0.2668
   66SOL     OW  338   2.766   1.478   3.571 -0.1330  0.4626 -0.7056
   66SOL    HW1  339   2.711   1.402   3.553  0.6863 -0.3652  0.1768
   66SOL    HW2  340   2.705   1.544   3.604 -0.3834 -1.1946  2.5085
   67SOL     OW  341   2.600   2.931   2.249  0.1837 -0.6886  0.5244
   67SOL    HW1  342   2.623   3.017   2.282 -1.8629 -0.5306  1.6647
   67SOL    HW2  343   2.576   2.945   2.157 -0.2856 -0.0192  0.7480
   68SOL     OW  344   3.639   3.070   1.094 -0.0040  1.0890 -0.1396
   68SOL    HW1  345   3.641   3.064   0.999  1.1045  0.9473 -0.1237
   68SOL    HW2  346   3.689   3.149   1.114  0.9287  0.3923  0.3611
   69SOL     OW  347   1.140   3.131   2.690  0.6533 -1.0643 -0.0905
   69SOL    HW1  348   1.225   3.091   2.710  1.0141  0.4927  1.7022
   69SOL    HW2  349   1.161   3.203   2.631  0.4420 -1.2543 -0.4019
   70SOL     OW  350   0.077   0.196   1.114  0.4203  0.4753  0.3316
   70SOL    HW1  351   0.046   0.160   1.197  1.3219  0.3057  0.6101
   70SOL    HW2  352   0.143   0.134   1.084  0.7265  0.9884 -0.0744
   71SOL     OW  353   1.733   3.678   3.339  0.1787 -0.1673 -0.1258
   71SOL    HW1  354   1.656   3.622   3.345  0.8196 -0.9363  2.1502
   71SOL    HW2  355   1.738   3.721   3.425 -0.0002  3.0970 -1.5796
   72SOL     OW  356   2.759   0.111   2.668 -0.2353 -0.3012 -0.1608
   72SOL    HW1  357   2.739   0.076   2.755 -1.6689 -0.3784 -0.4971
   72SOL    HW2  358   2.748   0.036   2.609 -1.7525  0.3070 -0.6891
   73SOL     OW  359   0.164   2.679   0.600 -0.3225  0.2031  0.5012
   73SOL    HW1  360   0.197   2.764   0.629  1.6420 -0.3336  0.0035
   73SOL    HW2  361   0.181   2.678   0.506 -0.0755 -0.8534  0.5498
   74SOL     OW  362   1.307   1.430   1.635  0.0360  0.4419  0.3741
   74SOL    HW1  363   1.305   1.439   1.540 -0.6598 -1.0684  0.2055
   74SOL    HW2  364   1.400   1.429   1.658  0.2106  0.6242 -0.3225
   75SOL     OW  365   1.270   1.757   2.520 -1.0846 -0.5930  0.5676
   75SOL    HW1  366   1.243   1.846   2.498  0.4141 -0.1024  0.6312
   75SOL    HW2  367   1.307   1.722   2.438 -0.8058 -0.8253  0.7909
   76SOL     OW  368   1.714   0.492   0.740 -0.4539  0.3070  0.1171
   76SOL    HW1  369   1.771   0.543   0.682  0.6699  0.5649  1.3913
   76SOL    HW2  370   1.698   0.411   0.693 -0.7290  1.0595 -1.1433
   77SOL     OW  371   0.810   0.269   1.710 -0.2229 -0.3709  0.0515
   77SOL    HW1  372   0.753   0.316   1.771 -1.4840  0.2134 -1.5112
   77SOL    HW2  373   0.820   0.329   1.635  0.2707 -1.5533 -0.8634
   78SOL     OW  374   3.269   1.315   0.111 -0.8541 -0.5797  0.0963
   78SOL    HW1  375   3.343   1.289   0.055  0.8858 -0.0490  2.0099
   78SOL    HW2  376   3.192   1.281   0.066  0.6949 -2.8972 -1.0305
   79SOL     OW  377   1.647   3.568   2.112  0.6724  0.6971 -0.3930
   79SOL    HW1  378   1.734   3.541   2.083  0.3283 -0.8192 -0.1441
   79SOL    HW2  379   1.599   3.585   2.031  0.8369  0.2601 -0.5904
   80SOL     OW  380   1.196   2.525   1.940  0.5594  0.0311  0.6854
   80SOL    HW1  381   1.167   2.513   1.850 -0.0070 -0.0031  0.8694
   80SOL    HW2  382   1.243   2.608   1.939  2.9437 -1.2192 -0.2132
   81SOL     OW  383   3.536   0.669   1.779  0.3331 -0.0123  0.0342
   81SOL    HW1  384   3.548   0.589   1.726  0.6448 -1.0305  1.5760
   81SOL    HW2  385   3.503   0.734   1.717 -1.3226 -1.7330 -1.0020
   82SOL     OW  386   2.848   0.723   1.443 -0.3186 -0.0027  0.3611
   82SOL    HW1  387   2.871   0.697   1.533 -1.6558 -0.1314  0.6809
   82SOL    HW2  388   2.773   0.668   1.420  0.6773 -0.7579 -1.2731
   83SOL     OW  389   2.959   1.271   2.433  0.5245  0.6926  0.1401
   83SOL    HW1  390   2.984   1.180   2.447  1.5488  0.8426 -0.5821
   83SOL    HW2  391   3.034   1.310   2.388 -0.3278  1.6289 -0.5209
   84SOL     OW  392   3.333   0.570   3.229 -0.7050 -0.0326 -0.1925
   84SOL    HW1  393   3.426   0.548   3.225 -0.9989 -1.2000 -1.2472
   84SOL    HW2  394   3.324   0.644   3.168 -0.7236 -0.9934 -1.3980
   85SOL     OW  395   1.116   2.376   0.258  0.4914 -0.1820  0.1792
   85SOL    HW1  396   1.177   2.449   0.262  0.6026 -0.2628 -0.0138
   85SOL    HW2  397   1.043   2.402   0.315  0.2199  0.3661 -0.4108
   86SOL     OW  398   2.189   0.515   0.415 -0.3256 -0.3196  0.6815
   86SOL    HW1  399   2.182   0.587   0.477  0.3446  0.1535  0.2311
   86SOL    HW2  400   2.208   0.557   0.331 -1.3762 -0.9358  0.1137
   87SOL     OW  401   2.264   0.617   0.699  0.0020  0.1026 -0.2992
   87SOL    HW1  402   2.320   0.653   0.769 -1.3426 -0.8799  1.3498
   87SOL    HW2  403   2.178   0.654   0.716 -0.3620 -0.1815 -1.4505
   88SOL     OW  404   2.128   3.547   1.254  0.2058 -0.0838  0.3649
   88SOL    HW1  405   2.115   3.626   1.307 -2.2370 -0.9379  1.1966
   88SOL    HW2  406   2.106   3.574   1.165  2.2578  0.8356  0.0775
   89SOL     OW  407   0.966   0.637   3.407 -0.2103  0.2007  0.3523
   89SOL    HW1  408   0.893   0.696   3.389 -0.4920 -0.6656 -1.5839
   89SOL    HW2  409   0.930   0.572   3.468 -0.7283  0.3864  0.2450
   90SOL     OW  410   0.814   2.763   3.565 -0.3831 -0.6150 -0.5036
   90SOL    HW1  411   0.844   2.814   3.640 -1.1813  0.9130 -1.1719
   90SOL    HW2  412   0.887   2.765   3.503  0.1639 -1.6231  0.0913
   91SOL     OW  413   1.672   0.884   3.565 -0.5921 -0.1035 -0.5669
   91SOL    HW1  414   1.587   0.885   3.609 -1.4086 -0.3792 -2.0791
   91SOL    HW2  415   1.712   0.968   3.589 -1.5004  0.2442 -0.2261
   92SOL     OW  416   0.717   0.065   0.310 -0.2316  0.3272  0.1057
   92SOL    HW1  417   0.719   0.150   0.354 -0.2221 -0.0433  0.8306
   92SOL    HW2  418   0.695   0.086   0.219 -1.8479  0.9552  0.6128
   93SOL     OW  419   2.330   1.567   3.684  0.7349  0.2574 -0.0608
   93SOL    HW1  420   2.252   1.605   3.642  0.2219  0.9126  1.3949
   93SOL    HW2  421   2.295   1.502   3.744  1.0853  1.9981  2.1413
   94SOL     OW  422   0.448   0.587   1.108 -0.0610  0.0595  0.6041
   94SOL    HW1  423   0.477   0.645   1.178  0.3079  0.2840  0.2667
   94SOL    HW2  424   0.443   0.643   1.030 -1.1066 -0.0366  0.5815
   95SOL     OW  425   2.076   0.032   2.525 -0.5738 -0.0280  0.0346
   95SOL    HW1  426   2.049   0.007   2.437 -0.9317 -0.1794  0.1854
   95SOL    HW2  427   2.007   0.092   2.555  0.2291  1.1077 -0.3006
   96SOL     OW  428   3.360   0.184   2.000 -0.5549 -0.1517 -0.4797
   96SOL    HW1  429   3.284   0.224   1.957 -1.5214 -1.0442  0.3286
   96SOL    HW2  430   3.392   0.253   2.059 -1.5135 -0.1731  0.0840
   97SOL     OW  431   0.698   0.049   1.980  0.5515 -0.1628 -0.9220
   97SOL    HW1  432   0.678  -0.012   1.909 -0.4016  0.6163 -1.3477
   97SOL    HW2  433   0.682   0.136   1.943 -1.3981  0.2190  0.6438
   98SOL     OW  434   3.207   2.262   2.823  0.2702 -0.3950 -0.3054
   98SOL    HW1  435   3.232   2.338   2.877 -0.4378 -1.1276  1.0994
   98SOL    HW2  436   3.192   2.192   2.886  2.4533 -2.2044 -1.6444
   99SOL     OW  437   1.762   1.515   1.953  0.0521 -0.1612  0.0805
   99SOL    HW1  438   1.856   1.515   1.939  0.1747  0.3219  0.8606
   99SOL    HW2  439   1.727   1.568   1.881  0.4550  0.3738  0.2795
  100SOL     OW  440   2.903   1.050   3.309  0.3370 -0.4088  0.6425
  100SOL    HW1  441   2.815   1.044   3.345  0.4991 -1.1129  0.9468
  100SOL    HW2  442   2.945   0.968   3.334  1.0840 -0.0806  0.5057
  101SOL     OW  443   0.876   3.697   3.159  0.5788 -0.2576 -0.6733
  101SOL    HW1  444   0.819   3.730   3.089 -0.3601 -2.0153 -0.7988
  101SOL    HW2  445   0.823   3.631   3.204  1.4953  0.1663  1.1338
  102SOL     OW  446   0.080   1.234   2.696 -0.2393 -0.4698  0.7126
  102SOL    HW1  447   0.043   1.186   2.621  0.1682  0.1888  0.0714
  102SOL    HW2  448   0.017   1.303   2.714  0.4389  0.4001 -0.1182
  103SOL     OW  449   2.089   2.258   3.302 -0.2492 -0.6138  0.3662
  103SOL    HW1  450   2.084   2.164   3.285 -1.4403 -0.3007 -1.2817
  103SOL    HW2  451   2.004   2.281   3.338  0.1516 -0.2111  1.0742
  104SOL     OW  452   1.723   3.075   0.977  0.0201 -0.0535  0.2548
  104SOL    HW1  453   1.801   3.131   0.980  0.4880 -0.7328  2.5579
  104SOL    HW2  454   1.742   3.005   1.039 -1.7397 -1.2044 -0.4395
  105SOL     OW  455   1.918   2.922   2.908  0.5104 -0.0550  0.0303
  105SOL    HW1  456   2.002   2.882   2.930  0.0874 -0.3815  1.1325
  105SOL    HW2  457   1.941   3.004   2.864  1.4059 -0.2028  0.2035
  106SOL     OW  458   3.059   0.135   1.926  0.2997 -0.3457  0.6772
  106SOL    HW1  459   3.045   0.227   1.949  1.7165 -0.6525  3.0544
  106SOL    HW2  460   3.012   0.086   1.994 -0.6600 -1.4242 -0.7079
  107SOL     OW  461   0.925   2.758   0.433 -0.0709 -0.0785 -0.1345
  107SOL    HW1  462   0.943   2.851   0.441 -1.0798  0.1522 -0.3893
  107SOL    HW2  463   0.902   2.745   0.341 -0.1011 -0.5483 -0.0665
  108SOL     OW  464   0.024   1.851   2.455  0.0993  0.0687  0.0113
  108SOL    HW1  465   0.064   1.774   2.414 -0.5052 -0.1225 -0.2213
  108SOL    HW2  466   0.077   1.866   2.533  0.8201  0.0091 -0.4596
  109SOL     OW  467   0.638   2.542   0.385  0.0267 -0.5905 -0.1405
  109SOL    HW1  468   0.658   2.483   0.458 -1.0632  0.6327  1.1929
  109SOL    HW2  469   0.711   2.530   0.325  1.3031 -1.1606  1.4361
  110SOL     OW  470   3.121   1.295   1.487 -0.4175 -0.0353 -0.4415
  110SOL    HW1  471   3.135   1.335   1.400 -1.0306 -0.2506 -0.6397
  110SOL    HW2  472   3.086   1.366   1.540 -1.1189 -0.2017 -0.6814
  111SOL     OW  473   3.267   1.971   2.564 -1.1039 -0.1998 -0.1904
  111SOL    HW1  474   3.240   2.047   2.513 -2.1708  0.1109  0.8008
  111SOL    HW2  475   3.354   1.948   2.529  1.0427  3.6953  1.8645
  112SOL     OW  476   0.827   1.216   2.765 -0.9418 -0.7521  0.3535
  112SOL    HW1  477   0.771   1.185   2.694  0.5808 -1.2693 -0.6677
  112SOL    HW2  478   0.829   1.144   2.828 -0.8132 -1.0246  0.0343
  113SOL     OW  479   1.960   0.524   3.558  0.4982  0.6646  0.2259
  113SOL    HW1  480   1.927   0.606   3.594  1.2333 -0.1015  2.8785
  113SOL    HW2  481   1.983   0.544   3.468 -0.2804  3.0926  0.5152
  114SOL     OW  482   0.068   2.225   0.402  0.8227 -0.5873 -0.2977
  114SOL    HW1  483   0.055   2.240   0.308  0.9008  0.8629 -0.0922
  114SOL    HW2  484   0.161   2.245   0.417  0.5831  0.1388  0.2542
  115SOL     OW  485   0.725   2.292   2.660 -0.2093 -0.6836  0.9109
  115SOL    HW1  486   0.647   2.282   2.606 -0.5370 -0.1421  1.2707
  115SOL    HW2  487   0.730   2.210   2.710  1.2340 -2.0752 -1.3363
  116SOL     OW  488   3.336   1.315   0.373  0.5610 -0.3173  0.1484
  116SOL    HW1  489   3.430   1.321   0.358  0.6983 -0.6199  0.8474
  116SOL    HW2  490   3.297   1.326   0.287  1.2301 -0.0098 -0.1184
  117SOL     OW  491   0.269   0.881   1.851 -0.8246 -0.2653 -0.1144
  117SOL    HW1  492   0.244   0.945   1.918  0.4067 -1.1050  1.2264
  117SOL    HW2  493   0.188   0.860   1.805 -1.6201  0.7042  0.8111
  118SOL     OW  494   0.301   0.664   0.420  0.1670  0.1068 -0.3237
  118SOL    HW1  495   0.224   0.712   0.388  0.1152 -1.1316 -2.2089
  118SOL    HW2  496   0.375   0.705   0.376  0.7789  1.8686  2.1497
  119SOL     OW  497   0.770   0.206   0.708  0.3666  0.6866  0.3162
  119SOL    HW1  498   0.691   0.246   0.746 -0.9172 -1.1112 -0.2884
  119SOL    HW2  499   0.761   0.222   0.614 -0.3380 -1.1531  0.0228
  120SOL     OW  500   2.254   1.034   2.457  0.3542  0.2452 -0.3846
  120SOL    HW1  501   2.252   1.115   2.508 -0.4497 -0.0197  0.0303
  120SOL    HW2  502   2.162   1.015   2.439  0.6233  1.0386 -3.1084
  121SOL     OW  503   3.377   3.730   1.137 -0.3743  0.1624  0.1066
  121SOL    HW1  504   3.350   3.659   1.079 -0.7028  0.7216 -0.4360
  121SOL    HW2  505   3.317   3.724   1.211  1.1126 -1.6317  1.2787
  122SOL     OW  506   3.272   1.884   3.071  0.6756  0.7904 -0.6436
  122SOL    HW1  507   3.224   1.808   3.037  1.7248  0.1248 -0.6717
  122SOL    HW2  508   3.207   1.954   3.074 -0.2380 -0.0274 -0.9047
  123SOL     OW  509   1.858   3.392   2.043  0.4035 -0.0630  0.5194
  123SOL    HW1  510   1.948   3.408   2.016  0.5044  2.2045  1.8792
  123SOL    HW2  511   1.866   3.330   2.116  0.6425 -1.4651 -0.6657
  124SOL     OW  512   3.327   0.181   0.404  0.2595  0.2347  0.6886
  124SOL    HW1  513   3.394   0.237   0.443  0.2272  0.9184 -0.2179
  124SOL    HW2  514   3.260   0.242   0.373  0.7300 -0.1859 -1.3007
  125SOL     OW  515   2.730   1.386   2.364  0.1303  0.2046 -0.1331
  125SOL    HW1  516   2.814   1.341   2.371 -1.1043 -2.1428  0.8528
  125SOL    HW2  517   2.702   1.370   2.274  0.1139 -0.2334 -0.0529
  126SOL     OW  518   0.859   1.724   2.881 -0.1823 -0.5094 -0.3438
  126SOL    HW1  519   0.942   1.758   2.849 -0.8528  0.1930 -1.4087
  126SOL    HW2  520   0.822   1.795   2.934 -1.8711  0.8359 -3.0736
  127SOL     OW  521   2.021   0.983   0.499  0.4059  0.2807 -0.0114
  127SOL    HW1  522   1.947   0.923   0.501 -0.6250  1.4190 -1.7119
  127SOL    HW2  523   2.030   1.012   0.590 -1.0349 -0.1098  0.2853
  128SOL     OW  524   2.817   0.917   2.176 -0.5711  0.1711  0.3051
  128SOL    HW1  525   2.850   0.846   2.120 -2.0319 -1.2984  1.2072
  128SOL    HW2  526   2.784   0.872   2.255 -0.4140  1.9817  1.4626
  129SOL     OW  527   2.476   2.128   3.412  0.5495  0.4582 -0.1474
  129SOL    HW1  528   2.421   2.187   3.360  0.4486  0.5736  0.0902
  129SOL    HW2  529   2.541   2.096   3.350  0.6771  0.9130 -0.2502
  130SOL     OW  530   2.339   1.636   1.190 -0.4622  0.1796  0.4032
  130SOL    HW1  531   2.414   1.607   1.242 -0.7744  1.9817  1.9848
  130SOL    HW2  532   2.264   1.592   1.229 -0.5593  0.6531  0.7632
  131SOL     OW  533   1.923   0.913   2.777 -0.3641  0.4074  0.4631
  131SOL    HW1  534   1.835   0.904   2.813 -0.0547  0.4462  1.2454
  131SOL    HW2  535   1.914   0.887   2.685 -1.3921  1.3702  0.2666
  132SOL     OW  536   0.089   1.631   1.716  0.2561  0.1758 -0.0572
  132SOL    HW1  537   0.019   1.566   1.708  2.4314 -2.3214 -0.0311
  132SOL    HW2  538   0.062   1.686   1.790 -1.4703 -0.9591  0.2236
  133SOL     OW  539   2.012   1.291   0.810  0.2396  0.7783 -0.6720
  133SOL    HW1  540   1.968   1.216   0.849 -0.2975  2.2016  1.6545
  133SOL    HW2  541   1.953   1.320   0.740 -0.3708  0.0689 -0.4572
  134SOL     OW  542   1.013   2.662   3.276  0.5432 -0.0059  0.8126
  134SOL    HW1  543   1.056   2.748   3.276  1.9471 -0.6763  0.6232
  134SOL    HW2  544   0.971   2.656   3.190  1.8938 -0.1803  0.1372
  135SOL     OW  545   2.755   1.010   1.859 -0.1086  0.1558  0.2387
  135SOL    HW1  546   2.753   0.951   1.784 -4.8149 -0.0185  0.1622
  135SOL    HW2  547   2.765   1.097   1.821  0.4162 -0.1392 -0.3018
  136SOL     OW  548   2.374   3.533   3.064  0.0991  0.1775  0.6160
  136SOL    HW1  549   2.363   3.627   3.079 -0.1578  0.1887  0.3748
  136SOL    HW2  550   2.287   3.503   3.039  0.4946  0.1764 -0.9035
  137SOL     OW  551   0.539   1.564   0.563 -0.2517 -0.0450  0.2096
  137SOL    HW1  552   0.612   1.626   0.567 -1.3203  1.2043  1.4696
  137SOL    HW2  553   0.555   1.504   0.637  0.6004 -1.1152 -0.8050
  138SOL     OW  554   0.825   1.671   0.488  0.1897  0.4683 -0.3008
  138SOL    HW1  555   0.839   1.586   0.446  0.7579  1.0577 -1.3606
  138SOL    HW2  556   0.878   1.732   0.437  2.0712  1.0309  2.1466
  139SOL     OW  557   0.900   3.644   0.444  0.3224 -0.7766 -0.5173
  139SOL    HW1  558   0.941   3.719   0.487 -1.2297 -1.7202  3.0063
  139SOL    HW2  559   0.831   3.682   0.390  0.5083  0.4259  0.0563
  140SOL     OW  560   1.801   1.992   0.791  0.3598  0.3607 -0.1844
  140SOL    HW1  561   1.834   2.069   0.745 -2.8271  1.2976 -1.1408
  140SOL    HW2  562   1.773   2.025   0.876 -1.0116  0.3171 -0.5943
  141SOL     OW  563   3.502   1.932   2.404  0.0538  0.1254  0.6100
  141SOL    HW1  564   3.590   1.898   2.420  0.8361  0.4968 -2.2159
  141SOL    HW2  565   3.517   2.021   2.370 -1.2459 -0.2948 -1.2368
  142SOL     OW  566   0.245   3.302   3.248  0.1362  0.8242  0.0199
  142SOL    HW1  567   0.228   3.249   3.170  0.1059 -1.1079  1.2744
  142SOL    HW2  568   0.162   3.303   3.295  0.8599 -0.6055  1.4645
  143SOL     OW  569   0.753   3.364   0.423  0.5549 -0.4724  0.3570
  143SOL    HW1  570   0.692   3.412   0.367 -0.2939 -0.4035  1.3233
  143SOL    HW2  571   0.838   3.405   0.406  0.0260  0.6760  0.3702
  144SOL     OW  572   2.913   2.118   0.457  0.3038 -0.7394 -0.2040
  144SOL    HW1  573   3.008   2.117   0.470  0.7258  0.5727 -2.5875
  144SOL    HW2  574   2.881   2.044   0.508  2.4829 -0.6576  1.4061
  145SOL     OW  575   0.044   1.996   2.812  0.2629 -0.0205 -0.5976
  145SOL    HW1  576   0.042   2.087   2.842 -0.7473 -0.2227  0.0000
  145SOL    HW2  577  -0.045   1.964   2.826  1.0731 -1.7432  1.1890
  146SOL     OW  578   1.276   1.099   2.880 -0.4808  0.0869  0.3300
  146SOL    HW1  579   1.274   1.135   2.969 -0.8748  1.6712 -0.2815
  146SOL    HW2  580   1.293   1.175   2.824 -0.5015 -0.8414 -0.9735
  147SOL     OW  581   3.616   3.444   2.121 -0.5976  0.3201  0.5404
  147SOL    HW1  582   3.543   3.504   2.102 -1.5487 -1.0464 -0.3381
  147SOL    HW2  583   3.598   3.413   2.210 -2.1313 -1.3004 -0.2506
  148SOL     OW  584   0.718   1.900   3.021  0.0482  0.6086 -0.2872
  148SOL    HW1  585   0.760   1.961   3.082  1.8621 -0.5462 -0.2883
  148SOL    HW2  586   0.627   1.927   3.019  0.1992  1.5325  1.9138
  149SOL     OW  587   1.863   0.637   0.550 -0.2922 -0.5262 -0.2466
  149SOL    HW1  588   1.857   0.558   0.497 -1.4955  0.2047 -1.2934
  149SOL    HW2  589   1.813   0.702   0.500  0.5785  0.8606  0.6282
  150SOL     OW  590   0.199   1.533   2.603  0.0924 -0.8155 -0.3624
  150SOL    HW1  591   0.290   1.505   2.613  0.6661  0.8051 -0.7169
  150SOL    HW2  592   0.173   1.561   2.691  0.9661  1.5488 -0.7997
  151SOL     OW  593   1.662   2.975   1.824 -0.2346 -1.0775  0.7915
  151SOL    HW1  594   1.689   2.891   1.785  0.4426 -0.2788 -0.5412
  151SOL    HW2  595   1.708   2.978   1.908  2.1129 -0.7909 -0.4249
  152SOL     OW  596   2.128   2.729   0.732  0.4932  0.8432 -0.2536
  152SOL    HW1  597   2.143   2.700   0.822  0.7120  0.6500 -0.3504
  152SOL    HW2  598   2.040   2.768   0.733 -1.3447 -2.7785 -0.7846
  153SOL     OW  599   2.497   1.100  -0.014 -0.1837  0.2816  0.4201
  153SOL    HW1  600   2.459   1.012  -0.019 -0.7636  0.5939 -1.4502
  153SOL    HW2  601   2.497   1.120   0.079  1.8102 -2.4591  1.1473
  154SOL     OW  602   2.007   1.838   2.093  0.4440 -0.2913  0.2967
  154SOL    HW1  603   2.031   1.848   2.000 -0.4726 -4.1702 -0.5190
  154SOL    HW2  604   2.081   1.791   2.131 -0.3774 -1.1728  0.8250
  155SOL     OW  605   1.698   2.101   1.016 -0.1002  0.0925 -0.0473
  155SOL    HW1  606   1.726   2.193   1.010 -1.0754  0.4117  0.1436
  155SOL    HW2  607   1.604   2.104   1.001  0.1217 -1.0997 -2.0113
  156SOL     OW  608   1.193   0.593   2.459 -0.1963 -0.8793  0.3477
  156SOL    HW1  609   1.239   0.675   2.479  0.2363 -0.4618 -2.0684
  156SOL    HW2  610   1.102   0.611   2.484 -0.4185  0.9401 -1.4678
  157SOL     OW  611   0.786   3.097   0.484 -0.2312  0.5012  0.1404
  157SOL    HW1  612   0.876   3.086   0.453 -0.6431 -0.1429 -0.9001
  157SOL    HW2  613   0.761   3.184   0.453  0.3294  1.0705  1.2454
  158SOL     OW  614   0.317   0.907   3.357  0.8495 -0.5804  0.3399
  158SOL    HW1  615   0.404   0.918   3.395  0.5850  3.0820  0.1884
  158SOL    HW2  616   0.333   0.899   3.263  1.0654 -2.0937  0.4731
  159SOL     OW  617   0.231   2.750   1.465 -0.4833  0.3947  0.4357
  159SOL    HW1  618   0.137   2.758   1.483 -0.4359 -0.7257  1.2791
  159SOL    HW2  619   0.274   2.793   1.539 -0.3261 -1.2647  1.3490
  160SOL     OW  620   0.251   1.847   2.741 -0.1446  0.6872  0.3292
  160SOL    HW1  621   0.178   1.906   2.760 -0.7197 -0.1807  0.8636
  160SOL    HW2  622   0.241   1.775   2.803  0.1989 -0.2678 -0.6935
  161SOL     OW  623   0.492   1.439   0.300 -0.2488  0.1933 -0.9071
  161SOL    HW1  624   0.472   1.345   0.304 -0.9204  0.3390 -0.8058
  161SOL    HW2  625   0.494   1.467   0.392 -2.2768  0.7331 -0.9862
  162SOL     OW  626   0.793   1.643   1.423  0.0413 -0.3429 -0.2431
  162SOL    HW1  627   0.699   1.629   1.409 -0.0937  0.1704  0.1138
  162SOL    HW2  628   0.798   1.689   1.507  0.5292  0.7112 -0.8319
  163SOL     OW  629   0.259   2.851   0.951 -0.3021 -0.1190  0.1268
  163SOL    HW1  630   0.292   2.940   0.939  0.9317 -0.4981  0.6312
  163SOL    HW2  631   0.174   2.863   0.994 -0.2960  0.8146 -0.0978
  164SOL     OW  632   3.537   1.915   1.801  0.0866  0.3676 -0.1512
  164SOL    HW1  633   3.464   1.976   1.789  0.0225  0.4022  0.4011
  164SOL    HW2  634   3.495   1.831   1.818  0.1696  0.4748  0.6150
  165SOL     OW  635   0.036   1.733   0.211 -0.4361  0.0113 -0.5076
  165SOL    HW1  636   0.059   1.796   0.278 -0.7178 -1.1886  0.7820
  165SOL    HW2  637  -0.047   1.695   0.242  0.4363 -1.9821 -0.4739
  166SOL     OW  638   2.132   2.750   1.260  0.5092  0.2192 -0.6534
  166SOL    HW1  639   2.211   2.737   1.313 -0.1665  2.1658  1.0000
  166SOL    HW2  640   2.065   2.698   1.304  0.4602 -0.0349 -1.0211
  167SOL     OW  641   2.077   2.136   1.788  0.2565  0.0510  0.2258
  167SOL    HW1  642   2.106   2.051   1.819 -0.0937  0.0799  0.6271
  167SOL    HW2  643   2.002   2.159   1.843 -1.1475 -0.4402 -1.3850
  168SOL     OW  644   0.516   1.715   1.826 -0.7765  0.2803  0.1059
  168SOL    HW1  645   0.569   1.688   1.902 -0.5677  1.2840  0.3231
  168SOL    HW2  646   0.457   1.782   1.860  0.0336  1.4948 -0.8317
  169SOL     OW  647   2.689   0.177   0.377 -0.9760  0.0493 -0.2365
  169SOL    HW1  648   2.675   0.267   0.406 -0.1427  0.4725 -1.0972
  169SOL    HW2  649   2.665   0.177   0.284 -0.6925 -0.5376 -0.3174
  170SOL     OW  650   0.776   1.146   3.272 -0.3828  0.6342  0.3590
  170SOL    HW1  651   0.773   1.217   3.208 -1.2986  1.1288  0.9204
  170SOL    HW2  652   0.787   1.067   3.220 -1.8514  0.9521 -0.4910
  171SOL     OW  653   1.726   2.084   3.020 -0.2137  0.1684  0.2363
  171SOL    HW1  654   1.650   2.143   3.010  0.5324  1.1823  0.3642
  171SOL    HW2  655   1.717   2.022   2.948 -1.3181  0.0958  0.4085
  172SOL     OW  656   0.873   0.514   1.596  0.4332  0.0652  0.5980
  172SOL    HW1  657   0.877   0.573   1.671 -1.9135  0.3882  0.5555
  172SOL    HW2  658   0.781   0.515   1.570  0.4110 -3.0544  0.1220
  173SOL     OW  659   2.861   0.536   0.694 -0.2137  0.3695 -0.9669
  173SOL    HW1  660   2.935   0.508   0.748 -0.3368  3.3183  0.9377
  173SOL    HW2  661   2.892   0.614   0.649 -1.6480  0.6910 -1.4516
  174SOL     OW  662   2.396   0.083   1.374 -0.0743  0.7017 -0.0385
  174SOL    HW1  663   2.490   0.087   1.392  0.0930 -2.2146  0.2403
  174SOL    HW2  664   2.359   0.035   1.448 -1.3197 -0.6108 -1.4440
  175SOL     OW  665   2.935   1.879   0.585  0.3079 -0.8822  0.0297
  175SOL    HW1  666   3.012   1.852   0.535  0.9040 -0.9254  0.9377
  175SOL    HW2  667   2.914   1.803   0.639  0.0240 -0.6395  0.2649
  176SOL     OW  668   2.137   1.906   3.355 -0.0102  0.1327  0.1840
  176SOL    HW1  669   2.197   1.885   3.283 -0.6033  0.6290 -0.4721
  176SOL    HW2  670   2.183   1.974   3.405 -0.1186  0.6768 -0.4471
  177SOL     OW  671   1.548   1.480   1.414  0.5531  0.6740 -0.1164
  177SOL    HW1  672   1.543   1.514   1.324 -0.1076  0.6607 -0.0941
  177SOL    HW2  673   1.531   1.386   1.405 -1.6062  0.9788  0.2089
  178SOL     OW  674   1.917   3.227   2.262  0.1477  0.1189  0.4036
  178SOL    HW1  675   1.966   3.144   2.259  0.4169  0.2464  1.0616
  178SOL    HW2  676   1.940   3.265   2.347 -0.6535  0.4611  0.4708
  179SOL     OW  677   3.627   3.426   1.457 -0.0813 -0.3635  0.0863
  179SOL    HW1  678   3.546   3.414   1.406  0.3769 -0.1023 -0.7290
  179SOL    HW2  679   3.630   3.520   1.475 -1.0980 -0.6664  2.0944
  180SOL     OW  680   2.217   1.678   2.833  0.2135 -0.1215 -0.0916
  180SOL    HW1  681   2.140   1.730   2.855  0.0522 -0.1892 -0.4717
  180SOL    HW2  682   2.191   1.631   2.753 -0.2531 -2.0254  1.1017
  181SOL     OW  683   0.803   0.678   1.120  0.0819  0.0916 -0.3058
  181SOL    HW1  684   0.880   0.623   1.108 -0.8531 -0.6878 -4.4891
  181SOL    HW2  685   0.751   0.634   1.186  2.2976 -0.3754  1.2319
  182SOL     OW  686   3.585   3.522   3.045 -0.1541  0.0044 -0.5417
  182SOL    HW1  687   3.670   3.519   3.002 -0.1866  0.3929 -0.6356
  182SOL    HW2  688   3.529   3.466   2.991 -0.1892  0.4766 -1.0025
  183SOL     OW  689   3.274   0.337   0.927  0.4470 -0.0255 -0.6616
  183SOL    HW1  690   3.206   0.397   0.898 -0.7311 -0.8464  0.2920
  183SOL    HW2  691   3.351   0.392   0.942 -0.6269  1.2677  0.2963
  184SOL     OW  692   3.560   2.705   0.912  0.5505 -0.2617  0.5968
  184SOL    HW1  693   3.465   2.713   0.918  0.1867 -1.5209 -1.8003
  184SOL    HW2  694   3.584   2.758   0.836  1.2343 -2.4551 -0.8294
  185SOL     OW  695   0.003   0.114   3.120 -0.4619 -0.4055 -0.0540
  185SOL    HW1  696   0.056   0.077   3.190 -0.9277 -1.0411 -0.0331
  185SOL    HW2  697   0.046   0.085   3.039 -0.8529 -1.0300 -0.0379
  186SOL     OW  698   2.980   2.341   3.087  0.5821  0.8962  0.3221
  186SOL    HW1  699   3.027   2.402   3.030  1.2442  0.2244  0.1376
  186SOL    HW2  700   2.912   2.304   3.031  0.1651  1.4707  0.4400
  187SOL     OW  701   0.169   2.538   0.049  0.8831  0.2907  0.2754
  187SOL    HW1  702   0.200   2.615   0.001 -1.5911  2.4745  1.9247
  187SOL    HW2  703   0.116   2.490  -0.014  0.9909  0.8844 -0.2695
  188SOL     OW  704   2.180   0.958   3.364  0.5487 -0.3061  0.0541
  188SOL    HW1  705   2.131   0.884   3.330  0.1895 -0.3611  0.6618
  188SOL    HW2  706   2.176   1.024   3.295  2.0444 -1.3381 -1.0570
  189SOL     OW  707   3.733   1.387   3.035 -0.1897  0.0649 -0.2015
  189SOL    HW1  708   3.653   1.399   2.985  0.2979  0.8965 -0.8123
  189SOL    HW2  709   3.706   1.339   3.113 -1.4200  1.0500 -0.0017
  190SOL     OW  710   0.648   1.224   3.660  0.0312  0.7461 -0.4209
  190SOL    HW1  711   0.638   1.263   3.573  0.2444  0.1177 -0.7375
  190SOL    HW2  712   0.700   1.287   3.709  2.0282  0.0364 -1.5139
  191SOL     OW  713   0.172   1.561   0.060  0.9046  0.4610  0.3801
  191SOL    HW1  714   0.181   1.479   0.109  1.9630 -0.1248 -0.7588
  191SOL    HW2  715   0.131   1.621   0.123 -0.0820 -0.9771  1.1776
  192SOL     OW  716   1.809   0.310   3.455  0.3568 -0.0921  0.2034
  192SOL    HW1  717   1.884   0.299   3.397 -0.6172 -1.8301 -0.8099
  192SOL    HW2  718   1.828   0.391   3.504  2.8217 -0.4329 -0.0587
  193SOL     OW  719   1.041   0.292   1.324  0.4545 -0.0006 -0.3841
  193SOL    HW1  720   1.109   0.312   1.388  0.9286 -0.9332 -0.5841
  193SOL    HW2  721   0.974   0.245   1.375 -1.0498  2.6720  0.2700
  194SOL     OW  722   3.558   2.580   0.003 -0.0106  0.2147 -0.5734
  194SOL    HW1  723   3.556   2.666   0.047  2.5287 -0.5658  1.3355
  194SOL    HW2  724   3.500   2.525   0.056  1.5996 -0.2418  0.8058
  195SOL     OW  725   2.391   2.338   0.397  0.0826  0.7086 -0.5118
  195SOL    HW1  726   2.408   2.379   0.482  0.6452  1.7227 -1.0919
  195SOL    HW2  727   2.363   2.249   0.419  2.0529  0.3237  0.6748
  196SOL     OW  728   3.244   1.584   1.118  0.5682  0.1292 -0.5741
  196SOL    HW1  729   3.211   1.506   1.162 -0.1868  0.5717 -0.3331
  196SOL    HW2  730   3.166   1.635   1.098  1.0777  0.9945 -0.4050
  197SOL     OW  731   3.696   0.465   2.843 -0.0516  0.7053  0.2530
  197SOL    HW1  732   3.643   0.459   2.764  0.7869 -1.9969 -0.2029
  197SOL    HW2  733   3.653   0.532   2.897  0.5150  4.2799 -3.2735
  198SOL     OW  734   3.247   1.548   2.500  0.5672 -0.5797  0.2592
  198SOL    HW1  735   3.296   1.469   2.477  0.8652 -0.5907  0.8889
  198SOL    HW2  736   3.284   1.617   2.445 -1.9346 -1.4529 -2.7884
  199SOL     OW  737   3.387   0.794   0.205  0.5822  0.3697 -0.0812
  199SOL    HW1  738   3.394   0.753   0.291  0.1946 -2.1203 -1.1511
  199SOL    HW2  739   3.340   0.730   0.152 -0.4867  2.4626 -1.7909
  200SOL     OW  740   3.438   1.589   3.753 -0.7957  0.1767 -0.7498
  200SOL    HW1  741   3.362   1.620   3.704 -0.7665  0.8066 -0.4100
  200SOL    HW2  742   3.469   1.513   3.703 -1.1649  0.3963 -1.3326
  201SOL     OW  743   0.834   2.680   1.926  0.4332  0.5273 -0.1907
  201SOL    HW1  744   0.743   2.675   1.956  0.9845 -1.3126  1.3884
  201SOL    HW2  745   0.838   2.622   1.850  0.6817 -1.1582  1.0398
  202SOL     OW  746   1.455   2.797   0.273  0.1327 -0.4750 -0.4414
  202SOL    HW1  747   1.522   2.759   0.330  0.9664  0.8172 -0.5271
  202SOL    HW2  748   1.373   2.787   0.322  0.3567 -2.0386 -0.3243
  203SOL     OW  749   2.902   0.557   1.666  0.2402 -0.0540  0.3022
  203SOL    HW1  750   2.824   0.526   1.713  1.1976 -0.1163  1.9262
  203SOL    HW2  751   2.941   0.477   1.630  0.7994 -0.3468  1.4984
  204SOL     OW  752   0.405   2.083   3.322  0.0280  0.3149  0.1630
  204SOL    HW1  753   0.426   2.033   3.400 -1.9560 -0.0307  0.5269
  204SOL    HW2  754   0.459   2.162   3.328  0.3810 -0.0132  1.5319
  205SOL     OW  755   3.448   1.874   0.656 -0.4054  0.7401 -0.4031
  205SOL    HW1  756   3.531   1.828   0.647 -0.5199 -0.6825  3.8055
  205SOL    HW2  757   3.470   1.957   0.698 -0.9194  1.5430 -1.6524
  206SOL     OW  758   3.382   2.420   1.049  1.1196  0.2028 -0.2438
  206SOL    HW1  759   3.433   2.496   1.077  1.3537 -0.0357 -0.0245
  206SOL    HW2  760   3.447   2.359   1.014  1.3324 -1.1630  2.2968
  207SOL     OW  761   0.218   0.452   0.187  0.1920  0.1867  0.0231
  207SOL    HW1  762   0.150   0.438   0.121 -1.9139  0.0956  2.0977
  207SOL    HW2  763   0.254   0.538   0.166 -1.3171  0.7178 -0.5338
  208SOL     OW  764   2.113   0.090   1.031 -0.1561  0.8011 -0.2487
  208SOL    HW1  765   2.040   0.126   0.982  0.2110  2.5983  0.4536
  208SOL    HW2  766   2.090   0.105   1.123  1.8902  3.2242 -0.0344
  209SOL     OW  767   2.741   2.423   0.425  0.4106 -0.0510 -0.0683
  209SOL    HW1  768   2.772   2.363   0.358  1.3642  0.9411 -0.5492
  209SOL    HW2  769   2.717   2.366   0.499  3.2661 -0.9516  0.2932
  210SOL     OW  770   1.568   1.611   1.754 -0.2768  0.2654  0.6434
  210SOL    HW1  771   1.536   1.657   1.677  0.8921  0.2869  0.1668
  210SOL    HW2  772   1.511   1.642   1.825 -2.3822 -0.8953 -0.4180
  211SOL     OW  773   2.398   1.335   0.442  0.2607 -0.6575  0.5189
  211SOL    HW1  774   2.324   1.286   0.407  0.1559  1.0371 -1.9149
  211SOL    HW2  775   2.455   1.269   0.481 -1.8084 -2.1649  1.1672
  212SOL     OW  776   0.856   0.259   2.525 -0.3535 -0.3812 -0.4527
  212SOL    HW1  777   0.927   0.219   2.475  0.0052  0.2598 -0.4698
  212SOL    HW2  778   0.799   0.297   2.459  0.1033  0.4373 -0.3961
  213SOL     OW  779   3.450   0.794   1.521 -0.0170 -0.3139 -0.7011
  213SOL    HW1  780   3.425   0.806   1.429 -2.2443 -3.0165 -0.5856
  213SOL    HW2  781   3.428   0.877   1.563 -1.1402  0.2114 -2.2146
  214SOL     OW  782   0.904   0.018   0.030 -0.0914  0.5931  0.1241
  214SOL    HW1  783   0.912   0.031  -0.064 -1.2611 -0.2717 -0.1195
  214SOL    HW2  784   0.827   0.069   0.055  0.0239  0.5628  0.5478
  215SOL     OW  785   2.699   1.568   0.988 -0.2659 -0.3640  0.2739
  215SOL    HW1  786   2.706   1.646   1.043 -0.6390 -0.7015  0.8067
  215SOL    HW2  787   2.702   1.495   1.049  0.1303 -0.7740 -0.2250
  216SOL     OW  788   2.703   1.568   0.699 -0.4187  0.1457 -0.6327
  216SOL    HW1  789   2.781   1.525   0.664 -0.6804  0.6188 -1.8144
  216SOL    HW2  790   2.715   1.563   0.794  1.8942  1.6719 -0.7515
  217SOL     OW  791   0.322   2.931   2.860 -0.1244  1.9048  0.5717
  217SOL    HW1  792   0.254   2.949   2.795 -0.3994  0.1087  0.3085
  217SOL    HW2  793   0.278   2.881   2.929  0.6935  1.6022  0.8943
  218SOL     OW  794   1.245   3.682   1.745 -0.4237 -0.2379 -0.2472
  218SOL    HW1  795   1.259   3.635   1.662 -2.0672 -0.1069 -0.6252
  218SOL    HW2  796   1.157   3.657   1.773 -0.4727  0.8896  0.6914
  219SOL     OW  797   2.905   0.259   3.182  0.2287  0.3158 -0.7705
  219SOL    HW1  798   2.893   0.344   3.224 -0.2655 -0.4246  0.6709
  219SOL    HW2  799   2.998   0.256   3.159  0.1357  1.4634 -1.4099
  220SOL     OW  800   0.430   0.902   3.078  0.7142 -0.3257 -0.2624
  220SOL    HW1  801   0.388   0.893   2.992 -0.9230  0.8964  0.3580
  220SOL    HW2  802   0.496   0.970   3.066  1.3669 -1.0325 -0.8217
  221SOL     OW  803   0.850  -0.015   1.693 -0.4497  0.3044  0.3413
  221SOL    HW1  804   0.787   0.055   1.712 -0.9429 -0.1364  0.3519
  221SOL    HW2  805   0.924   0.030   1.652 -1.2691  0.6882 -0.7751
  222SOL     OW  806   3.063   1.149   2.741 -0.0587 -0.6176  0.0010
  222SOL    HW1  807   2.990   1.209   2.726 -0.4322 -1.2466 -0.7759
  222SOL    HW2  808   3.055   1.123   2.833  0.7216  1.2949  0.6761
  223SOL     OW  809   1.209   2.374   2.641 -0.2270  0.4012  0.1061
  223SOL    HW1  810   1.143   2.433   2.677  0.1925  1.7412 -1.2091
  223SOL    HW2  811   1.165   2.332   2.567  0.3087  1.1605 -0.6607
  224SOL     OW  812   0.531   2.356   1.669  0.4002 -0.4269 -0.2376
  224SOL    HW1  813   0.440   2.332   1.650  0.3628  0.3274 -1.0582
  224SOL    HW2  814   0.582   2.281   1.639  0.0933 -0.6198 -0.2884
  225SOL     OW  815   2.012   0.805   3.586 -1.1190 -0.2324  0.2766
  225SOL    HW1  816   1.996   0.898   3.603  1.7751 -0.0005  2.6191
  225SOL    HW2  817   2.031   0.800   3.492 -0.9357  1.6416  0.1836
  226SOL     OW  818   2.453   1.654   1.688  0.3591  0.3163  0.7827
  226SOL    HW1  819   2.518   1.647   1.758  1.9798  0.0824 -0.6610
  226SOL    HW2  820   2.452   1.568   1.647  0.3124  0.7783 -0.2094
  227SOL     OW  821   1.306   2.384   1.060  0.5173  0.7250  0.8114
  227SOL    HW1  822   1.360   2.443   1.113 -0.3151  0.9206  1.4713
  227SOL    HW2  823   1.302   2.427   0.974 -0.9517  2.2325  1.5718
  228SOL     OW  824   2.141   3.209   0.283 -0.5092  0.2505  0.2744
  228SOL    HW1  825   2.230   3.174   0.287 -0.2320  0.9992  1.0435
  228SOL    HW2  826   2.150   3.288   0.229 -0.6814  0.3799  0.4353
  229SOL     OW  827   2.290   2.097   0.396  0.3386 -0.0869  0.4040
  229SOL    HW1  828   2.251   2.070   0.313 -0.5551  1.6084  0.2423
  229SOL    HW2  829   2.260   2.031   0.458  1.1765 -1.4879 -0.6202
  230SOL     OW  830   2.112   1.084   3.611  0.4394 -0.3839 -0.2781
  230SOL    HW1  831   2.062   1.137   3.548  1.2582  0.5516 -0.1608
  230SOL    HW2  832   2.152   1.016   3.557  0.9228  0.2579 -0.7533
  231SOL     OW  833   3.278   1.080   2.568 -0.9611  0.4082 -0.6661
  231SOL    HW1  834   3.262   0.985   2.569 -0.5643  0.3409 -0.6881
  231SOL    HW2  835   3.216   1.115   2.632  1.2811 -0.2565  2.0634
  232SOL     OW  836   0.699   3.272   2.233  0.2283 -0.0348 -0.4499
  232SOL    HW1  837   0.678   3.361   2.205  1.2951  0.9948  1.8607
  232SOL    HW2  838   0.776   3.248   2.182 -0.5592 -0.0288 -1.7060
  233SOL     OW  839   3.425   0.555   1.045  0.4744 -0.4453  0.1303
  233SOL    HW1  840   3.450   0.588   0.959 -0.0645 -2.1462 -0.7336
  233SOL    HW2  841   3.508   0.536   1.088  0.7411 -0.6594 -0.4654
  234SOL     OW  842   2.463   1.479   0.779 -0.3869 -0.3006  0.0628
  234SOL    HW1  843   2.452   1.387   0.756 -0.3055 -1.0147  2.6310
  234SOL    HW2  844   2.553   1.499   0.753  0.9419 -2.1003  2.7823
  235SOL     OW  845   3.627   3.372   0.274  0.4152 -0.4037  0.9132
  235SOL    HW1  846   3.693   3.304   0.283 -0.3667 -1.0683  1.9022
  235SOL    HW2  847   3.618   3.409   0.362  0.8090  0.9723  0.3963
  236SOL     OW  848   3.170   0.247   1.177  0.0915 -0.3225  0.0779
  236SOL    HW1  849   3.191   0.290   1.094 -2.3876 -0.8307 -0.9066
  236SOL    HW2  850   3.206   0.159   1.168  1.5090  0.1968  0.3786
  237SOL     OW  851   2.960   1.451   3.323 -0.6025  0.6156  0.0568
  237SOL    HW1  852   2.978   1.402   3.403 -0.9478  0.8598  0.2874
  237SOL    HW2  853   2.886   1.507   3.345  0.4098  1.9740  0.1055
  238SOL     OW  854   0.892   0.959   2.549  0.1920 -0.2323 -1.5863
  238SOL    HW1  855   0.804   0.987   2.573  0.7258 -0.1810  0.5484
  238SOL    HW2  856   0.940   1.041   2.534  0.4181 -0.1532 -0.5240
  239SOL     OW  857   2.969   0.701   0.042 -0.6578  0.1786 -0.2547
  239SOL    HW1  858   2.961   0.734   0.131 -2.5379 -0.7060 -0.0508
  239SOL    HW2  859   3.055   0.660   0.038  0.3797  2.1640  0.4547
  240SOL     OW  860   2.392   1.380   1.554  0.0419  0.2188 -0.0628
  240SOL    HW1  861   2.312   1.335   1.527  0.0798  0.1582 -0.0759
  240SOL    HW2  862   2.417   1.432   1.479  1.1104 -1.2889 -0.8102
  241SOL     OW  863   1.715   2.264   2.741  0.7584 -0.3033  0.1397
  241SOL    HW1  864   1.695   2.294   2.830  2.0948  1.6964 -0.1689
  241SOL    HW2  865   1.763   2.337   2.701  1.4940 -1.7272 -1.7409
  242SOL     OW  866   1.341   2.516   2.230  0.0044 -0.1275  0.3816
  242SOL    HW1  867   1.382   2.551   2.310 -0.0360 -1.1374  0.8690
  242SOL    HW2  868   1.318   2.426   2.253 -0.1050 -0.4038 -0.7461
  243SOL     OW  869   0.381   2.488   0.416 -0.5151 -0.3501 -0.1008
  243SOL    HW1  870   0.469   2.526   0.424  0.0796 -1.6139 -0.3807
  243SOL    HW2  871   0.384   2.440   0.334  0.7530 -5.7719  2.6567
  244SOL     OW  872   2.368   1.239   3.473 -0.0731  0.1314 -0.8076
  244SOL    HW1  873   2.284   1.282   3.487  0.1088  0.4556 -0.7041
  244SOL    HW2  874   2.368   1.165   3.533 -0.2889  0.1247 -0.8153
  245SOL     OW  875   0.741   3.488   3.276  0.9208  0.6135  0.0695
  245SOL    HW1  876   0.685   3.420   3.239  2.6084 -1.4014  0.9932
  245SOL    HW2  877   0.752   3.463   3.367  1.0567  2.5694  0.6504
  246SOL     OW  878   2.482   1.183   0.242  0.2126  0.4129 -0.4520
  246SOL    HW1  879   2.410   1.138   0.287  1.2304  0.7477  1.6635
  246SOL    HW2  880   2.472   1.275   0.266  1.3381  0.4606 -0.0908
  247SOL     OW  881   0.427   3.570   2.639  0.2240 -0.4206 -0.2386
  247SOL    HW1  882   0.397   3.660   2.649  0.3536 -0.3173 -0.7446
  247SOL    HW2  883   0.379   3.537   2.563  0.3443 -0.7081 -0.1915
  248SOL     OW  884   1.170   2.997   1.812  0.3094  0.0654  0.6289
  248SOL    HW1  885   1.258   2.969   1.786 -0.5007 -0.2221 -2.1071
  248SOL    HW2  886   1.162   3.085   1.775 -1.5209 -1.0133 -1.7624
  249SOL     OW  887   1.434   3.423   0.809 -0.0488 -0.4781  0.0629
  249SOL    HW1  888   1.357   3.367   0.817  0.0554 -0.5709  0.4542
  249SOL    HW2  889   1.449   3.456   0.898  0.4351 -0.5651  0.0186
  250SOL     OW  890   0.919   1.695   3.191  0.0895  0.0565 -0.2649
  250SOL    HW1  891   1.000   1.737   3.163 -0.7134 -0.1425 -3.1949
  250SOL    HW2  892   0.876   1.670   3.110 -2.2867 -1.0711  1.2430
  251SOL     OW  893   1.985   0.232   0.762 -0.9275  0.2594  0.2790
  251SOL    HW1  894   1.954   0.225   0.853  0.6155 -0.1724  0.8010
  251SOL    HW2  895   1.937   0.163   0.716 -0.7210 -0.4447  1.0744
  252SOL     OW  896   0.176   3.666   3.276 -0.0638 -0.0283  0.2123
  252SOL    HW1  897   0.191   3.690   3.367 -1.3667  1.5263  0.0545
  252SOL    HW2  898   0.162   3.571   3.278  1.1469 -0.2083  1.4340
  253SOL     OW  899   0.142   0.068   2.871  0.3466  0.2132  0.2273
  253SOL    HW1  900   0.149  -0.027   2.871 -1.8667 -0.0416  1.8934
  253SOL    HW2  901   0.057   0.086   2.831  0.8148  1.5163 -0.2442
  254SOL     OW  902   3.130   1.174   0.495 -0.3551 -0.0567 -0.2817
  254SOL    HW1  903   3.193   1.171   0.567  0.7910  1.9270 -1.1092
  254SOL    HW2  904   3.174   1.226   0.427 -2.0671 -0.4137 -1.7377
  255SOL     OW  905   2.137   2.230   1.520 -0.4242  0.5538 -0.1336
  255SOL    HW1  906   2.231   2.213   1.529 -0.4771  1.1359  1.9688
  255SOL    HW2  907   2.095   2.156   1.564 -1.0441 -0.3767 -2.1590
  256SOL     OW  908   2.465   0.385   3.132 -0.0296 -0.5923  0.2848
  256SOL    HW1  909   2.496   0.472   3.157 -0.6028 -0.4255  0.4289
  256SOL    HW2  910   2.510   0.325   3.191  0.4939 -0.4071  0.0729
  257SOL     OW  911   2.874   0.555   2.061 -0.6802 -0.0140 -0.1492
  257SOL    HW1  912   2.801   0.590   2.112  0.6792  1.6137  0.7789
  257SOL    HW2  913   2.862   0.460   2.065 -2.0098  0.1630  1.0813
  258SOL     OW  914   2.768   3.454   3.112  0.0171 -0.2348 -0.8797
  258SOL    HW1  915   2.757   3.536   3.160  0.5043  0.2785 -1.6242
  258SOL    HW2  916   2.697   3.453   3.048  0.7989  0.2689 -1.7752
  259SOL     OW  917   3.365   3.359   0.207  0.3289 -0.5346 -0.4892
  259SOL    HW1  918   3.453   3.384   0.234 -0.2401  1.4528 -0.2941
  259SOL    HW2  919   3.314   3.358   0.288 -0.3093  0.6641 -0.8402
  260SOL     OW  920   1.197   2.984   1.460  0.1449 -0.0340 -1.0131
  260SOL    HW1  921   1.105   3.000   1.483  0.6134  0.0886  0.9637
  260SOL    HW2  922   1.234   3.071   1.451  0.8316  0.0635  1.7605
  261SOL     OW  923   2.589   0.193   3.283 -0.2424  0.0459  0.2664
  261SOL    HW1  924   2.554   0.188   3.372 -0.1956  0.2141  0.2948
  261SOL    HW2  925   2.627   0.106   3.267  1.0174  0.4422  0.9357
  262SOL     OW  926   1.045   3.034   0.452  0.0770 -0.4748  0.0654
  262SOL    HW1  927   1.127   3.007   0.411 -0.1261 -1.2312  0.1475
  262SOL    HW2  928   1.059   3.126   0.474  0.5533 -0.3368 -0.7796
  263SOL     OW  929   2.361   2.222   1.000 -0.4425  0.2481  0.5012
  263SOL    HW1  930   2.304   2.160   1.045 -0.2853 -0.7540 -0.6624
  263SOL    HW2  931   2.448   2.184   1.006 -0.0115  1.3151  1.4490
  264SOL     OW  932   2.183   1.669   2.239 -0.0648 -0.1515 -0.2229
  264SOL    HW1  933   2.258   1.674   2.180 -0.9487  1.0835 -1.2963
  264SOL    HW2  934   2.221   1.675   2.327  1.0212  2.1589 -0.7796
  265SOL     OW  935   0.916   3.007   1.216  0.0943  0.6452 -0.1084
  265SOL    HW1  936   0.836   3.020   1.167  0.0969  0.7524 -0.0837
  265SOL    HW2  937   0.910   3.068   1.290  1.5538  2.8566 -1.7088
  266SOL     OW  938   1.900   2.460   2.108  0.0867  0.5176  0.0760
  266SOL    HW1  939   1.860   2.405   2.042 -1.2677 -1.8593  2.6527
  266SOL    HW2  940   1.974   2.502   2.064 -2.0322  0.8878 -3.4378
  267SOL     OW  941   1.568   3.424   1.354 -0.3118  0.3566 -0.2691
  267SOL    HW1  942   1.636   3.479   1.314 -2.0060  1.5595 -1.6631
  267SOL    HW2  943   1.610   3.385   1.430  1.8934  1.1326 -1.0170
  268SOL     OW  944   3.287   1.404   2.751  0.6615 -0.5886 -0.6892
  268SOL    HW1  945   3.242   1.331   2.711 -0.3220  0.7082 -2.0622
  268SOL    HW2  946   3.294   1.470   2.681  2.0487  0.4005  0.3086
  269SOL     OW  947   3.226   0.566   0.085 -0.3766 -0.3654 -0.2574
  269SOL    HW1  948   3.284   0.530   0.019  0.6063 -0.2646  0.5241
  269SOL    HW2  949   3.213   0.495   0.148 -0.9718 -0.3379 -0.3420
  270SOL     OW  950   2.622   1.980   3.239  0.1663 -0.4673 -0.4581
  270SOL    HW1  951   2.615   1.984   3.144 -1.9201 -3.0428 -0.5038
  270SOL    HW2  952   2.667   1.898   3.257  1.0203  0.2388  0.8133
  271SOL     OW  953   1.049   2.481   3.479  0.3162  0.2444 -0.3142
  271SOL    HW1  954   0.979   2.422   3.454  1.0421 -0.6118 -0.4015
  271SOL    HW2  955   1.040   2.556   3.421  0.5014 -0.6218 -1.5123
  272SOL     OW  956   1.986   1.452   3.683 -0.6643 -0.1512  0.1578
  272SOL    HW1  957   1.936   1.373   3.663 -1.1414 -0.2700  1.6461
  272SOL    HW2  958   1.935   1.524   3.646 -2.1599 -0.2427  1.9150
  273SOL     OW  959   2.388   0.653   2.087 -0.2632  0.2272  0.9707
  273SOL    HW1  960   2.313   0.655   2.027 -0.5126 -1.9316  1.1353
  273SOL    HW2  961   2.363   0.713   2.158 -0.5860  1.6918 -0.3084
  274SOL     OW  962   2.532   2.218   2.961 -0.0148 -0.8279 -0.0816
  274SOL    HW1  963   2.457   2.225   3.019 -0.7448 -3.2970 -0.6122
  274SOL    HW2  964   2.510   2.146   2.901  0.8699  1.2570 -3.1717
  275SOL     OW  965   3.019   0.253   0.494 -0.0262  0.1113  0.8727
  275SOL    HW1  966   2.964   0.320   0.452 -0.0408 -0.5699 -0.2159
  275SOL    HW2  967   3.086   0.303   0.540  0.0334  0.8729 -0.0304
  276SOL     OW  968   0.544   0.260   3.135 -0.4131  0.4731  0.3412
  276SOL    HW1  969   0.608   0.291   3.199 -1.1552 -0.2362  1.4748
  276SOL    HW2  970   0.562   0.311   3.056  1.6652  0.1578  0.5460
  277SOL     OW  971   3.265   1.516   3.512 -0.2999 -0.0213  0.3072
  277SOL    HW1  972   3.172   1.506   3.528 -0.7589  0.7750 -1.5722
  277SOL    HW2  973   3.281   1.610   3.526  0.2919 -0.1988  0.8779
  278SOL     OW  974   2.497   3.425   2.085 -0.2554  0.0604  0.6061
  278SOL    HW1  975   2.567   3.370   2.121  0.0194  1.4584  2.3530
  278SOL    HW2  976   2.540   3.475   2.015  0.6629  1.2641  1.9873
  279SOL     OW  977   3.531   1.927   3.181 -0.9747 -0.0462  0.3233
  279SOL    HW1  978   3.490   1.938   3.096  2.0091 -0.6283 -1.3442
  279SOL    HW2  979   3.473   1.972   3.242 -2.3638  1.9344 -2.2644
  280SOL     OW  980   1.487   3.148   1.057  0.1867  0.4292 -0.4007
  280SOL    HW1  981   1.432   3.127   0.982 -1.1389 -2.3865  1.2204
  280SOL    HW2  982   1.575   3.119   1.031 -0.2722 -0.6158 -0.8503
  281SOL     OW  983   1.828   2.084   2.186 -0.0049 -0.2238 -0.1095
  281SOL    HW1  984   1.853   2.002   2.144 -0.8836 -0.8606  0.5579
  281SOL    HW2  985   1.873   2.082   2.271 -0.6921 -0.4299  0.2601
  282SOL     OW  986   2.111   0.119   1.614 -0.2476 -0.4862  0.1340
  282SOL    HW1  987   2.156   0.045   1.655 -0.1606 -0.8102 -0.5285
  282SOL    HW2  988   2.179   0.185   1.602 -0.1625 -0.5899  0.0445
  283SOL     OW  989   1.542   2.110   2.642  0.1600 -0.3513 -0.0838
  283SOL    HW1  990   1.596   2.171   2.693  0.8262 -1.9136  1.1339
  283SOL    HW2  991   1.500   2.166   2.576  2.0543  1.1614 -0.1095
  284SOL     OW  992   3.445   2.587   0.613  0.1508 -0.1215  0.5719
  284SOL    HW1  993   3.425   2.587   0.519 -0.7624  0.8411  0.7411
  284SOL    HW2  994   3.508   2.659   0.625  0.1942 -0.1806  0.7039
  285SOL     OW  995   2.911   0.414   1.125 -0.0126  0.3021 -0.9090
  285SOL    HW1  996   2.842   0.396   1.189  0.3486 -0.2154 -0.6540
  285SOL    HW2  997   2.989   0.373   1.162  0.1187 -0.3554 -1.8614
  286SOL     OW  998   1.302   1.984   2.753 -0.3677 -0.6593  0.2020
  286SOL    HW1  999   1.308   1.926   2.828  1.0983 -0.8799 -0.0522
  286SOL    HW2 1000   1.393   2.000   2.728 -0.7382  1.4383  0.0189
  287SOL     OW 1001   1.677   1.900   2.434 -0.0983 -0.4937  0.5507
  287SOL    HW1 1002   1.667   1.880   2.340 -0.1538  1.6817  0.0452
  287SOL    HW2 1003   1.592   1.935   2.460  0.7825  1.7645  0.6005
  288SOL     OW 1004   0.188   2.605   1.099  0.0215  0.3856 -0.0079
  288SOL    HW1 1005   0.177   2.590   1.005 -1.6851 -0.5528  0.3066
  288SOL    HW2 1006   0.132   2.681   1.117  2.4858  2.3746 -0.1785
  289SOL     OW 1007   1.410   2.919   2.816 -0.4505  0.1733  0.4148
  289SOL    HW1 1008   1.391   2.965   2.897  0.7120 -0.0875  0.8580
  289SOL    HW2 1009   1.501   2.889   2.826 -0.4362 -0.2475 -0.7931
  290SOL     OW 1010   0.862   1.082   2.086  0.2426  0.5575  0.1508
  290SOL    HW1 1011   0.865   1.045   1.997  1.4791  1.0372 -0.0214
  290SOL    HW2 1012   0.910   1.164   2.079  0.5896  0.4623  1.3432
  291SOL     OW 1013   0.179   3.684   1.542  0.1124 -0.0534 -0.6175
  291SOL    HW1 1014   0.155   3.616   1.605  1.5676 -1.7744 -1.8130
  291SOL    HW2 1015   0.265   3.714   1.572  0.0532  0.3236 -0.8266
  292SOL     OW 1016   3.637   2.805   0.587  0.2798 -0.6634 -0.2316
  292SOL    HW1 1017   3.720   2.757   0.577  0.4588 -0.5172  0.4690
  292SOL    HW2 1018   3.649   2.884   0.535  1.0380 -0.0912  0.7672
  293SOL     OW 1019   1.325   0.485   2.124 -0.0243 -0.2993 -0.3439
  293SOL    HW1 1020   1.305   0.405   2.172 -1.2460  0.3405  0.2469
  293SOL    HW2 1021   1.251   0.543   2.141  1.8641  1.8513  1.1922
  294SOL     OW 1022   0.993   2.091   3.517  0.3489 -0.6929 -0.6446
  294SOL    HW1 1023   0.913   2.045   3.543 -0.2458  0.2327 -0.8089
  294SOL    HW2 1024   0.998   2.078   3.422 -0.5057  0.6393 -0.8800
  295SOL     OW 1025   2.358   3.692   1.081  0.4375  0.2168 -0.6623
  295SOL    HW1 1026   2.283   3.744   1.052 -0.1742 -0.7685 -0.8966
  295SOL    HW2 1027   2.364   3.709   1.175 -1.2184 -1.0568 -0.2819
  296SOL     OW 1028   3.655   1.339   3.344 -0.2473 -0.2693  0.4615
  296SOL    HW1 1029   3.687   1.429   3.332 -0.7365  0.0903  1.7439
  296SOL    HW2 1030   3.727   1.295   3.390  0.5079 -0.9071 -1.2392
  297SOL     OW 1031   3.657   0.025   1.250  0.2087 -0.7517  0.2173
  297SOL    HW1 1032   3.682  -0.051   1.197  0.0949 -0.5289 -0.1625
  297SOL    HW2 1033   3.567   0.044   1.224 -0.6156 -1.9208  2.0191
  298SOL     OW 1034   2.299   3.015   0.509  0.0692 -0.2047 -0.4220
  298SOL    HW1 1035   2.361   3.037   0.440  0.6562  0.4584  0.2983
  298SOL    HW2 1036   2.265   3.099   0.539 -1.3715 -0.5599 -0.9457
  299SOL     OW 1037   0.208   1.341   2.080 -0.3395 -0.0037 -0.0521
  299SOL    HW1 1038   0.185   1.360   2.171 -1.5192 -0.5806 -0.2147
  299SOL    HW2 1039   0.219   1.427   2.040  0.0963  0.2573  0.6056
  300SOL     OW 1040   3.434   3.372   2.903 -1.0845 -0.5808  0.3725
  300SOL    HW1 1041   3.444   3.308   2.832  0.1362  1.1399 -1.0914
  300SOL    HW2 1042   3.366   3.334   2.959 -3.7323 -1.0584 -2.8320
  301SOL     OW 1043   0.504   1.415   1.549 -0.2526 -0.9873 -0.1241
  301SOL    HW1 1044   0.465   1.498   1.520 -1.0212 -1.5421 -0.6919
  301SOL    HW2 1045   0.478   1.408   1.641  1.4582  0.3423  0.5250
  302SOL     OW 1046   0.124   2.425   3.232 -0.7697 -0.3438 -0.1586
  302SOL    HW1 1047   0.182   2.501   3.245 -1.9120  0.2228  2.1732
  302SOL    HW2 1048   0.170   2.371   3.168  1.0305  1.3604 -0.4131
  303SOL     OW 1049   0.404   3.685   1.681 -0.1528 -0.0110 -0.3087
  303SOL    HW1 1050   0.416   3.603   1.728 -2.4018  0.6937  1.6785
  303SOL    HW2 1051   0.412   3.753   1.749 -0.9691  1.2345 -1.4081
  304SOL     OW 1052   3.365   3.060   3.647 -0.1664 -0.4940  0.0035
  304SOL    HW1 1053   3.368   3.141   3.698  1.2516 -1.2250  1.1370
  304SOL    HW2 1054   3.283   3.018   3.674 -0.3823  0.0514  0.2090
  305SOL     OW 1055   3.629   2.030   0.036 -0.5568  0.1811  0.2750
  305SOL    HW1 1056   3.663   2.092   0.101 -1.5058 -0.1251  1.0918
  305SOL    HW2 1057   3.643   2.073  -0.048  1.5357  0.2049  0.5727
  306SOL     OW 1058   1.837   2.063   0.405 -0.0845 -0.1956  1.4530
  306SOL    HW1 1059   1.926   2.030   0.419  0.7626  1.2084 -0.3916
  306SOL    HW2 1060   1.848   2.151   0.370 -2.2097 -0.1052  0.8710
  307SOL     OW 1061   0.506   0.087   2.308 -0.3629 -0.2202 -0.2473
  307SOL    HW1 1062   0.566   0.161   2.312  0.2477 -0.7450  0.5198
  307SOL    HW2 1063   0.419   0.127   2.300 -0.4012  0.7564  3.3562
  308SOL     OW 1064   0.442   2.863   0.284 -0.3937 -0.0264  0.0167
  308SOL    HW1 1065   0.353   2.827   0.280 -0.4128 -0.2698  1.9395
  308SOL    HW2 1066   0.495   2.802   0.233 -0.9658 -1.1009  0.6668
  309SOL     OW 1067   0.427   2.593   1.750 -0.1988  0.0359  0.6542
  309SOL    HW1 1068   0.358   2.548   1.799  1.7687 -1.1528  2.5221
  309SOL    HW2 1069   0.481   2.522   1.715  0.0907  0.9402 -0.8337
  310SOL     OW 1070   2.786   0.825   0.298  0.6791  0.3370  0.4405
  310SOL    HW1 1071   2.700   0.834   0.340  1.0422  3.1427  0.7656
  310SOL    HW2 1072   2.766   0.810   0.205 -0.1114 -1.5097  0.8597
  311SOL     OW 1073   1.426   1.819   2.964 -0.0473 -0.1886  0.1002
  311SOL    HW1 1074   1.499   1.825   3.026  0.3686 -2.2620 -0.1141
  311SOL    HW2 1075   1.468   1.802   2.880 -0.7555 -2.1939  0.1051
  312SOL     OW 1076   1.127   3.390   1.359  0.5588 -0.5420  0.3961
  312SOL    HW1 1077   1.164   3.335   1.428  2.6258  1.3576  0.9362
  312SOL    HW2 1078   1.174   3.366   1.280 -0.1207 -1.0768  0.1509
  313SOL     OW 1079   0.148   2.843   0.300  0.3806  0.3592 -0.2461
  313SOL    HW1 1080   0.108   2.756   0.290  0.9224  0.2924 -2.2934
  313SOL    HW2 1081   0.074   2.904   0.292  0.1566  0.1225 -0.0005
  314SOL     OW 1082   0.051   0.341   2.596 -0.1025 -0.0778  0.6187
  314SOL    HW1 1083   0.064   0.365   2.687 -0.1084  1.0629  0.3309
  314SOL    HW2 1084   0.003   0.258   2.600  1.9702 -1.3130  1.6367
  315SOL     OW 1085   1.218   2.203   1.825 -0.5559 -0.0289  0.4829
  315SOL    HW1 1086   1.206   2.143   1.752 -1.6593 -2.1051  2.2845
  315SOL    HW2 1087   1.137   2.254   1.828 -0.8265 -0.4630  0.6897
  316SOL     OW 1088   1.063   3.353   0.354  0.0998  0.4668  0.6399
  316SOL    HW1 1089   1.039   3.385   0.441  0.2627 -0.3303  0.9857
  316SOL    HW2 1090   1.158   3.347   0.355  0.1989  1.7134 -0.0516
  317SOL     OW 1091   3.688   0.176   1.747  0.6241 -0.3761 -0.4151
  317SOL    HW1 1092   3.604   0.130   1.759  0.8317 -0.3112  1.5984
  317SOL    HW2 1093   3.681   0.215   1.660 -1.1394 -0.9846 -0.5975
  318SOL     OW 1094   0.681   0.048   1.058  0.1961 -0.3735 -0.0636
  318SOL    HW1 1095   0.668   0.117   1.123 -2.4500 -0.4084 -0.4137
  318SOL    HW2 1096   0.597   0.043   1.012  1.2523 -1.8919 -1.9700
  319SOL     OW 1097   1.287   0.683   1.202 -0.5084  0.6379 -0.3864
  319SOL    HW1 1098   1.327   0.605   1.240  1.9363  2.3996  0.9212
  319SOL    HW2 1099   1.361   0.740   1.180 -2.2098  3.0792 -0.1910
  320SOL     OW 1100   0.503   0.700   1.857 -0.5488 -0.1698  0.0842
  320SOL    HW1 1101   0.416   0.711   1.821 -0.4546 -1.3288 -0.5428
  320SOL    HW2 1102   0.493   0.719   1.950 -1.8648 -1.9925  0.3640
  321SOL     OW 1103   3.605   0.237   0.493 -0.1402  0.2690 -0.4044
  321SOL    HW1 1104   3.652   0.157   0.514 -0.3403 -0.0618 -1.1712
  321SOL    HW2 1105   3.673   0.304   0.483 -0.0458  0.4769  1.3623
  322SOL     OW 1106   3.580   1.513   1.735  0.4433 -0.3061 -0.9059
  322SOL    HW1 1107   3.503   1.488   1.685  0.7527 -2.8853 -0.2183
  322SOL    HW2 1108   3.553   1.509   1.826  1.1988 -0.4966 -0.6809
  323SOL     OW 1109   1.994   3.641   2.288 -0.2864 -0.2322 -0.4910
  323SOL    HW1 1110   2.078   3.662   2.247 -1.0264  1.4768 -1.2773
  323SOL    HW2 1111   1.931   3.695   2.240 -1.6606 -0.5974  0.8298
  324SOL     OW 1112   1.270   2.826   0.699 -0.1883 -0.8977  0.5247
  324SOL    HW1 1113   1.182   2.814   0.734 -1.4778 -3.1706 -2.9851
  324SOL    HW2 1114   1.322   2.757   0.739 -1.8998 -4.1924 -2.3998
  325SOL     OW 1115   3.274   1.360   3.262 -0.3465 -0.0329  0.2089
  325SOL    HW1 1116   3.242   1.414   3.334  0.2929  2.5712 -1.3239
  325SOL    HW2 1117   3.228   1.392   3.185  0.2723 -1.5442 -0.8428
  326SOL     OW 1118   0.427   0.219   1.316  0.6874  0.5197 -0.2496
  326SOL    HW1 1119   0.376   0.285   1.362  0.9756  2.1428 -2.1073
  326SOL    HW2 1120   0.489   0.269   1.264  2.6593 -1.3164  0.1580
  327SOL     OW 1121   0.998   0.768   1.403 -0.0210 -0.1713 -0.5236
  327SOL    HW1 1122   0.904   0.753   1.401 -0.2003  0.8950 -0.7598
  327SOL    HW2 1123   1.036   0.682   1.421 -1.0222 -0.6553 -0.6676
  328SOL     OW 1124   3.130   3.694   1.247 -0.1909 -0.2348 -0.2029
  328SOL    HW1 1125   3.111   3.602   1.229  0.1569 -0.9155  2.4760
  328SOL    HW2 1126   3.044   3.738   1.243 -0.0579 -0.0239 -4.1771
  329SOL     OW 1127   2.614   0.651   3.671 -0.4032 -0.1225  0.5792
  329SOL    HW1 1128   2.657   0.732   3.697 -0.7288  0.3669 -0.3680
  329SOL    HW2 1129   2.532   0.679   3.630 -0.9598 -0.9774  1.0793
  330SOL     OW 1130   3.681   2.802   2.451  0.2892 -0.4644  0.3878
  330SOL    HW1 1131   3.658   2.793   2.358 -0.7837 -2.0652  0.7858
  330SOL    HW2 1132   3.599   2.826   2.494  0.4690 -1.0976  1.1092
  331SOL     OW 1133   0.883   3.418   2.931 -0.0486 -0.0036 -0.3859
  331SOL    HW1 1134   0.928   3.403   3.015 -0.1548 -0.6538 -0.4464
  331SOL    HW2 1135   0.932   3.490   2.891  1.8420 -1.6198 -1.0905
  332SOL     OW 1136   3.528   1.626   0.267  0.2199 -0.0827  0.1017
  332SOL    HW1 1137   3.490   1.594   0.186  0.8012 -0.7594  0.0874
  332SOL    HW2 1138   3.454   1.637   0.326 -0.3656  1.5771 -0.8803
  333SOL     OW 1139   0.655   1.734   2.397  0.4073  0.0660 -0.0072
  333SOL    HW1 1140   0.741   1.721   2.359 -0.1511 -1.3672 -0.8542
  333SOL    HW2 1141   0.598   1.674   2.349 -0.6342 -0.6868  2.0439
  334SOL     OW 1142   0.445   2.206   0.318 -0.1203  0.3240  0.3951
  334SOL    HW1 1143   0.426   2.270   0.249  0.4727  1.8155  1.5426
  334SOL    HW2 1144   0.384   2.134   0.301  0.6919  0.1364 -2.2538
  335SOL     OW 1145   0.021   2.486   0.883 -0.3481 -0.4999  0.0912
  335SOL    HW1 1146   0.039   2.490   0.789 -2.6754 -1.6421 -0.4808
  335SOL    HW2 1147  -0.034   2.562   0.900 -0.7228 -0.8118  0.3070
  336SOL     OW 1148   3.183   0.821   2.579  0.4020  0.1121  0.1739
  336SOL    HW1 1149   3.224   0.788   2.659  0.5416 -0.3955 -0.1055
  336SOL    HW2 1150   3.102   0.770   2.572  1.0993 -0.9105 -0.7986
  337SOL     OW 1151   1.845   2.745   2.107 -0.7936  0.2257 -0.1889
  337SOL    HW1 1152   1.788   2.757   2.183 -0.6946 -0.6214  0.0267
  337SOL    HW2 1153   1.828   2.656   2.078 -1.4338  0.8003 -1.6717
  338SOL     OW 1154   0.937   1.307   0.583 -0.0978 -0.6349 -0.1503
  338SOL    HW1 1155   0.881   1.361   0.527 -0.1315 -0.5900 -0.0732
  338SOL    HW2 1156   0.876   1.258   0.638 -0.0493 -0.0292  0.4583
  339SOL     OW 1157   1.735   2.340   2.266  0.0132 -0.0163  0.6676
  339SOL    HW1 1158   1.794   2.391   2.211  1.1674 -1.4049  0.5699
  339SOL    HW2 1159   1.757   2.249   2.248 -1.7876 -0.5793  1.0530
  340SOL     OW 1160   1.243   0.250   0.525  0.0416 -0.7515  0.2994
  340SOL    HW1 1161   1.225   0.199   0.446 -2.2093  1.1080 -0.5132
  340SOL    HW2 1162   1.186   0.212   0.592 -0.3399 -0.4173  0.1687
  341SOL     OW 1163   0.504   1.642   2.192  0.5752  0.2282  0.2415
  341SOL    HW1 1164   0.427   1.697   2.208  0.9944  1.1488 -0.8041
  341SOL    HW2 1165   0.469   1.563   2.152 -0.0461 -0.3546  1.8217
  342SOL     OW 1166   0.069   0.872   0.800 -0.1102  0.0571 -0.9618
  342SOL    HW1 1167  -0.004   0.891   0.858  0.1258 -0.0181 -0.6338
  342SOL    HW2 1168   0.072   0.777   0.796  0.9285  0.0005  0.2925
  343SOL     OW 1169   1.905   3.474   2.483  0.1859 -0.1218  0.1022
  343SOL    HW1 1170   1.890   3.531   2.559 -1.9953  0.3009 -0.5561
  343SOL    HW2 1171   1.947   3.531   2.418  1.1370 -0.2123  0.6308
  344SOL     OW 1172   1.203   2.269   2.364 -0.3966  0.5610 -0.1038
  344SOL    HW1 1173   1.296   2.273   2.340 -0.0955 -3.1668 -0.1130
  344SOL    HW2 1174   1.158   2.315   2.293  1.3169  1.3838 -0.7280
  345SOL     OW 1175   2.327   0.156   2.484 -0.2092 -0.0848  0.2314
  345SOL    HW1 1176   2.359   0.205   2.560 -0.6314  1.5326 -0.5731
  345SOL    HW2 1177   2.233   0.147   2.498 -0.1976 -0.3023  0.1763
  346SOL     OW 1178   3.017   1.589   2.689  0.1679 -0.6568 -0.1651
  346SOL    HW1 1179   3.106   1.581   2.656  0.0093 -0.4992 -0.6383
  346SOL    HW2 1180   2.966   1.617   2.614 -0.3638 -1.1697 -0.0030
  347SOL     OW 1181   3.565   2.193   1.038 -0.5936  0.3701  0.8211
  347SOL    HW1 1182   3.585   2.135   1.112  0.2376 -0.6279 -0.1461
  347SOL    HW2 1183   3.650   2.223   1.006 -0.9266  0.6500  0.1620
  348SOL     OW 1184   0.723   0.639   3.054  0.1807 -0.1670 -0.0915
  348SOL    HW1 1185   0.717   0.566   2.992 -0.8739 -0.2212  0.0510
  348SOL    HW2 1186   0.650   0.626   3.114  1.5761 -0.5035  1.6208
  349SOL     OW 1187   0.550   2.715   3.023 -0.6110 -0.0619 -0.5941
  349SOL    HW1 1188   0.566   2.640   3.081 -1.8364  0.5201  0.5375
  349SOL    HW2 1189   0.468   2.753   3.055  0.0521  1.8444 -1.0581
  350SOL     OW 1190   3.503   2.496   2.468 -0.2128 -0.4834  0.1917
  350SOL    HW1 1191   3.473   2.408   2.490 -1.7221 -0.2047 -0.6155
  350SOL    HW2 1192   3.561   2.521   2.540 -0.1730 -1.9320  0.6820
  351SOL     OW 1193   1.076   1.084   0.725  0.2572  0.3567  0.2737
  351SOL    HW1 1194   1.054   1.087   0.818  2.4314  0.6993  0.8243
  351SOL    HW2 1195   1.044   1.167   0.690  1.0665  1.0485  1.1307
  352SOL     OW 1196   2.731   0.837   2.421 -0.3529 -0.1329 -0.3734
  352SOL    HW1 1197   2.640   0.856   2.445 -0.2931 -0.2191 -0.0783
  352SOL    HW2 1198   2.783   0.894   2.477 -0.1175 -1.9212  1.3402
  353SOL     OW 1199   2.498   1.791   0.765  0.4921  0.0879  0.0061
  353SOL    HW1 1200   2.439   1.775   0.691  0.7094 -0.8270  0.0116
  353SOL    HW2 1201   2.569   1.728   0.752  0.0328 -0.7994  1.5409
  354SOL     OW 1202   2.874   3.702   0.235  0.2658 -0.0672 -0.5100
  354SOL    HW1 1203   2.783   3.720   0.258  0.6936  1.2511  0.2238
  354SOL    HW2 1204   2.871   3.686   0.140 -0.5589  1.2491 -0.7350
  355SOL     OW 1205   1.374   0.561   3.482  0.2653 -0.0630 -0.0454
  355SOL    HW1 1206   1.296   0.606   3.449 -1.8118 -2.2642  1.5447
  355SOL    HW2 1207   1.447   0.616   3.453 -1.7431  1.4125 -2.7275
  356SOL     OW 1208   0.754   2.905   2.339 -0.6523  0.6937  0.1704
  356SOL    HW1 1209   0.743   2.948   2.254  0.3559  0.4794 -0.0887
  356SOL    HW2 1210   0.715   2.819   2.328 -0.2750  0.5619 -0.1786
  357SOL     OW 1211   2.794   1.775   3.327 -0.1581 -0.6073  0.4704
  357SOL    HW1 1212   2.773   1.769   3.420 -0.5719 -0.1930  0.4079
  357SOL    HW2 1213   2.887   1.801   3.324 -0.6122  1.2446  0.8047
  358SOL     OW 1214   0.624   0.179   2.642  0.1684 -0.5295  0.2467
  358SOL    HW1 1215   0.701   0.200   2.589  0.1238  0.6848  0.6327
  358SOL    HW2 1216   0.574   0.261   2.645 -1.2060 -1.3225 -0.0911
  359SOL     OW 1217   3.715   1.186   0.228 -0.3830  0.8649  0.4883
  359SOL    HW1 1218   3.698   1.099   0.265  0.6516  0.9343  1.1635
  359SOL    HW2 1219   3.679   1.181   0.139 -0.5254 -0.1836  0.5855
  360SOL     OW 1220   3.477   0.475   2.675  0.3892  0.1561 -0.3575
  360SOL    HW1 1221   3.412   0.405   2.677  0.4790  0.0804  0.5936
  360SOL    HW2 1222   3.467   0.515   2.589 -0.1419 -0.5753 -0.6492
  361SOL     OW 1223   0.007   0.562   3.693  0.0616  0.4677  0.4755
  361SOL    HW1 1224  -0.031   0.629   3.750 -0.2461  0.9580 -0.2901
  361SOL    HW2 1225   0.089   0.601   3.662 -0.6708  0.9953 -0.8872
  362SOL     OW 1226   3.577   0.534   0.776 -0.1166  0.2242 -0.0657
  362SOL    HW1 1227   3.573   0.439   0.767  0.1363  0.1763  0.3073
  362SOL    HW2 1228   3.615   0.565   0.694 -1.2872  0.1051 -0.6738
  363SOL     OW 1229   2.726   2.342   1.349  0.2520  0.1315 -0.2406
  363SOL    HW1 1230   2.802   2.369   1.298  0.8397  1.8057  1.4119
  363SOL    HW2 1231   2.657   2.404   1.325  0.1107  0.0514 -0.0440
  364SOL     OW 1232   1.837   0.437   1.293  0.0975 -0.3145  0.2567
  364SOL    HW1 1233   1.788   0.393   1.363  0.4416  1.0456  1.3788
  364SOL    HW2 1234   1.914   0.473   1.336  1.3228 -1.0780 -1.2077
  365SOL     OW 1235   0.673   3.001   3.169  0.7774  0.2292  0.5098
  365SOL    HW1 1236   0.746   3.004   3.108 -1.8498  1.6544 -2.9210
  365SOL    HW2 1237   0.658   2.908   3.186  2.1320 -0.1648 -0.3380
  366SOL     OW 1238   0.328   0.102   0.619 -0.4643 -0.2970 -0.4306
  366SOL    HW1 1239   0.326   0.149   0.537  0.2307 -1.0347 -0.8870
  366SOL    HW2 1240   0.247   0.128   0.664 -1.6760 -1.1008 -2.0284
  367SOL     OW 1241   2.283   2.167   3.075  0.0288  0.2992 -0.3920
  367SOL    HW1 1242   2.266   2.233   3.143  1.8618  1.9213 -1.3809
  367SOL    HW2 1243   2.209   2.174   3.015 -0.2010  0.9123 -0.0477
  368SOL     OW 1244   0.496   2.877   3.468 -0.3341 -0.4700  0.3653
  368SOL    HW1 1245   0.577   2.842   3.432 -0.4578 -0.0923 -0.3073
  368SOL    HW2 1246   0.524   2.945   3.530 -0.1382 -0.1553 -0.0662
  369SOL     OW 1247   1.417   2.426   2.791  0.0627 -0.5136 -0.3870
  369SOL    HW1 1248   1.457   2.513   2.795  0.8528 -0.8092 -1.4046
  369SOL    HW2 1249   1.363   2.428   2.712  0.0790 -0.9449 -0.4090
  370SOL     OW 1250   3.687   1.689   3.135  0.5556  0.3068 -0.2676
  370SOL    HW1 1251   3.616   1.652   3.083  1.5804  0.5505 -1.9420
  370SOL    HW2 1252   3.677   1.784   3.125  0.1711  0.3893  0.8397
  371SOL     OW 1253   1.766   2.667   1.062  0.7217 -0.2970  0.1232
  371SOL    HW1 1254   1.854   2.704   1.069  0.5594  0.0905  0.0962
  371SOL    HW2 1255   1.720   2.725   1.002  0.6606 -0.9053 -0.4432
  372SOL     OW 1256   1.707   0.433   3.207 -0.9756 -0.1717  0.5304
  372SOL    HW1 1257   1.692   0.339   3.223  1.4459 -0.4764  1.5264
  372SOL    HW2 1258   1.704   0.473   3.294 -0.3749  0.3927  0.2975
  373SOL     OW 1259   2.070   2.167   0.729 -0.3120 -0.1625 -0.1544
  373SOL    HW1 1260   2.082   2.259   0.752  1.8170 -0.8447  1.7326
  373SOL    HW2 1261   2.158   2.133   0.719 -0.9915 -2.3804  0.7964
  374SOL     OW 1262   1.841   2.349   0.334 -0.0582 -0.9361 -0.6864
  374SOL    HW1 1263   1.792   2.416   0.287 -0.4916  0.5612  1.7619
  374SOL    HW2 1264   1.918   2.394   0.367 -0.1787 -1.6938  0.7116
  375SOL     OW 1265   1.125   1.514   3.467 -0.3924 -0.1560 -0.1386
  375SOL    HW1 1266   1.081   1.479   3.545  0.3502  0.4755  0.5833
  375SOL    HW2 1267   1.055   1.521   3.402 -1.3660  0.7331  0.9425
  376SOL     OW 1268   3.261   2.757   0.924 -0.5951  0.0650 -0.0186
  376SOL    HW1 1269   3.236   2.745   1.016 -1.7071 -1.3014 -0.4722
  376SOL    HW2 1270   3.233   2.677   0.881  2.5284 -0.6028 -1.0624
  377SOL     OW 1271   3.135   2.933   0.338 -0.2669  0.0993 -0.5053
  377SOL    HW1 1272   3.054   2.887   0.362 -0.4318 -1.4819 -3.6629
  377SOL    HW2 1273   3.114   3.025   0.348 -1.7109 -0.3300  0.8216
  378SOL     OW 1274   1.612   1.111  -0.000 -0.8800 -0.0372  1.0411
  378SOL    HW1 1275   1.540   1.083  -0.057 -1.2994 -0.5434  1.8013
  378SOL    HW2 1276   1.570   1.149   0.076 -0.3174  0.7562  0.9734
  379SOL     OW 1277   1.404   3.620   1.466  0.1846  0.2730  0.1447
  379SOL    HW1 1278   1.413   3.541   1.412  1.0557  0.6313 -0.2389
  379SOL    HW2 1279   1.352   3.680   1.413 -0.6675 -0.1025  0.5235
  380SOL     OW 1280   1.268   2.225   3.169  0.2793  0.2699  0.3054
  380SOL    HW1 1281   1.284   2.224   3.075 -0.3091  1.2451  0.1840
  380SOL    HW2 1282   1.269   2.132   3.195  0.2960 -0.0118 -0.6766
  381SOL     OW 1283   1.973   0.221   3.189 -0.6302  0.9607  0.1449
  381SOL    HW1 1284   2.028   0.233   3.112  1.4952 -0.1034  1.3986
  381SOL    HW2 1285   1.982   0.128   3.211 -1.2612  1.2082  1.5754
  382SOL     OW 1286   2.468   0.550   2.525 -0.1666  0.7714 -0.2017
  382SOL    HW1 1287   2.445   0.500   2.604 -1.8464 -0.7740 -1.5630
  382SOL    HW2 1288   2.392   0.539   2.467 -0.4231  4.5798 -0.8335
  383SOL     OW 1289   0.605   2.084   2.466  0.5514  0.3797  0.1712
  383SOL    HW1 1290   0.655   2.017   2.511 -1.0240 -0.9694  0.0194
  383SOL    HW2 1291   0.654   2.102   2.386  0.3484 -1.6209 -0.4484
  384SOL     OW 1292   2.582   3.418   2.906 -0.5266 -0.1352  0.2935
  384SOL    HW1 1293   2.507   3.440   2.961  0.9411  2.6468  1.3947
  384SOL    HW2 1294   2.610   3.501   2.869  0.1661 -1.5594 -2.6587
  385SOL     OW 1295   2.151   2.543   3.601 -0.2947  0.1500  0.4501
  385SOL    HW1 1296   2.069   2.545   3.552  0.1976  1.1416 -0.3676
  385SOL    HW2 1297   2.161   2.631   3.636 -0.5499 -0.4923  2.2475
  386SOL     OW 1298   3.382   1.307   2.463  0.0374  0.0596  0.4501
  386SOL    HW1 1299   3.361   1.231   2.517 -2.9636 -0.3434 -1.0949
  386SOL    HW2 1300   3.418   1.271   2.382  0.6611  0.4412  0.5479
  387SOL     OW 1301   3.098   0.410   1.897  0.5784 -0.3441  0.9701
  387SOL    HW1 1302   3.087   0.445   1.986  0.7853  0.7751  0.5752
  387SOL    HW2 1303   3.034   0.458   1.845 -1.7179 -3.1371  1.0055
  388SOL     OW 1304   2.769   0.508   0.155  0.2114 -0.4019 -0.1993
  388SOL    HW1 1305   2.705   0.524   0.086  0.1789  0.2653 -0.0233
  388SOL    HW2 1306   2.839   0.458   0.113  0.9573  1.3544 -1.1329
  389SOL     OW 1307   1.940   2.663   0.449 -0.7708  0.1636 -0.1912
  389SOL    HW1 1308   2.020   2.687   0.403  0.2662 -2.4543  0.0943
  389SOL    HW2 1309   1.926   2.734   0.512  0.7475  1.1430 -0.9072
  390SOL     OW 1310   3.636   0.134   0.892  0.1387 -0.0014 -0.6063
  390SOL    HW1 1311   3.559   0.082   0.914  0.7487 -1.4496 -1.7212
  390SOL    HW2 1312   3.672   0.161   0.976  0.2016 -2.0088  0.0596
  391SOL     OW 1313   0.752   2.064   0.739  0.3538 -0.4576  0.3000
  391SOL    HW1 1314   0.739   2.127   0.667 -1.2205 -2.2827 -1.1375
  391SOL    HW2 1315   0.715   2.107   0.816 -2.3749 -0.2201 -1.0145
  392SOL     OW 1316   1.490   2.583   1.013  0.0029 -0.8735  0.0396
  392SOL    HW1 1317   1.432   2.657   1.031  1.7458  0.7124 -0.4814
  392SOL    HW2 1318   1.571   2.604   1.060  0.8658 -1.9868 -0.8645
  393SOL     OW 1319   0.582   0.707   1.344 -0.1706  0.4312  0.6682
  393SOL    HW1 1320   0.568   0.682   1.435 -2.6511 -2.5099 -0.3279
  393SOL    HW2 1321   0.569   0.802   1.343 -1.1248  0.4039  3.2097
  394SOL     OW 1322   2.292   2.387   3.387 -0.2410  0.1333  0.2998
  394SOL    HW1 1323   2.259   2.423   3.469 -0.4442  3.1161 -0.9903
  394SOL    HW2 1324   2.215   2.350   3.345 -0.7347  1.2703  0.1710
  395SOL     OW 1325   1.597   2.328   2.969 -0.1436 -0.3888  0.2751
  395SOL    HW1 1326   1.521   2.334   2.911  0.3253  1.7138 -0.1944
  395SOL    HW2 1327   1.571   2.375   3.048  0.5914  0.1829  0.1857
  396SOL     OW 1328   1.013   1.036   1.820 -0.0197  0.2251 -0.0968
  396SOL    HW1 1329   1.010   1.003   1.730  0.5534 -1.8901  0.5975
  396SOL    HW2 1330   1.102   1.069   1.831  0.2229 -0.4351 -0.0261
  397SOL     OW 1331   1.382   2.346   0.576 -0.2710  0.2812  0.0126
  397SOL    HW1 1332   1.453   2.285   0.553  0.5121  0.4047  1.8889
  397SOL    HW2 1333   1.313   2.290   0.612 -0.4071  0.3217 -0.1829
  398SOL     OW 1334   1.326   2.276   0.096  0.1683 -0.3033 -0.0572
  398SOL    HW1 1335   1.268   2.265   0.171  0.1060 -1.8755 -0.3050
  398SOL    HW2 1336   1.271   2.256   0.020  0.9363 -1.6041 -0.3068
  399SOL     OW 1337   1.701   2.561   0.052  0.6739 -0.0098 -0.2069
  399SOL    HW1 1338   1.703   2.561  -0.044  0.7291 -0.4115 -0.2077
  399SOL    HW2 1339   1.656   2.480   0.075 -2.1787  1.5336  0.0668
  400SOL     OW 1340   0.197   0.909   2.731 -0.1835 -0.2309 -0.0179
  400SOL    HW1 1341   0.263   0.964   2.691  0.4532  0.2281  1.5796
  400SOL    HW2 1342   0.243   0.829   2.755 -0.1851  0.0608  1.0373
  401SOL     OW 1343   3.561   1.830   3.500  0.4262 -0.4608  0.1702
  401SOL    HW1 1344   3.585   1.921   3.521  0.9185 -0.6348  0.3880
  401SOL    HW2 1345   3.628   1.777   3.545  0.0976 -0.9319  0.1080
  402SOL     OW 1346   1.084   1.594   1.585 -0.3108 -0.7041  0.2430
  402SOL    HW1 1347   1.001   1.546   1.588 -0.2444 -0.9987 -1.7023
  402SOL    HW2 1348   1.151   1.528   1.600 -0.3829 -0.5594  1.2631
  403SOL     OW 1349   2.873   2.811   1.220 -0.1821 -0.7912  0.0630
  403SOL    HW1 1350   2.859   2.901   1.250 -1.1709 -0.9582  0.1103
  403SOL    HW2 1351   2.851   2.812   1.127  0.8073 -0.7631 -0.1850
  404SOL     OW 1352   0.446   3.176   1.234  0.6055 -0.6740  0.3518
  404SOL    HW1 1353   0.380   3.148   1.298  1.6647 -1.5290  1.1137
  404SOL    HW2 1354   0.503   3.235   1.282 -1.0118  2.1793 -0.9838
  405SOL     OW 1355   2.246   0.018   2.223  0.2583 -0.4687  0.1527
  405SOL    HW1 1356   2.292  -0.021   2.297  2.6904  1.1836 -0.3424
  405SOL    HW2 1357   2.316   0.040   2.161 -1.5024 -0.0777 -1.8132
  406SOL     OW 1358   1.715   0.332   2.892 -0.2188  0.3044 -0.7374
  406SOL    HW1 1359   1.668   0.249   2.897 -1.7575  0.8762 -3.4887
  406SOL    HW2 1360   1.692   0.378   2.973 -2.1164 -0.6228 -0.6874
  407SOL     OW 1361   2.547   0.758   0.398 -0.3388 -0.9003 -0.4711
  407SOL    HW1 1362   2.474   0.749   0.460  1.0675  0.9678  1.6280
  407SOL    HW2 1363   2.542   0.679   0.344 -2.8029 -1.7132  0.7608
  408SOL     OW 1364   0.748   0.858   1.573  0.6716  0.0407 -0.6165
  408SOL    HW1 1365   0.814   0.872   1.641  0.9224  0.5169 -0.9482
  408SOL    HW2 1366   0.744   0.942   1.526  0.6045 -0.3216 -1.2781
  409SOL     OW 1367   0.066   1.084   1.451  0.4530 -0.1828 -0.6152
  409SOL    HW1 1368   0.088   1.175   1.427  0.2552 -0.3624 -1.5354
  409SOL    HW2 1369  -0.028   1.087   1.469  0.4414 -0.2077 -0.6714
  410SOL     OW 1370   3.237   1.782   0.799  0.0165  0.0561  0.2957
  410SOL    HW1 1371   3.316   1.765   0.748  0.4178  0.5527  0.7523
  410SOL    HW2 1372   3.239   1.875   0.817 -0.5923  0.0439  0.4553
  411SOL     OW 1373   1.527   0.303   3.442  0.3007  0.3147 -0.1212
  411SOL    HW1 1374   1.622   0.295   3.439  0.2881 -1.2726  1.7433
  411SOL    HW2 1375   1.509   0.345   3.526 -0.6792 -1.1541  0.4468
  412SOL     OW 1376   1.140   2.999   3.655 -0.2943 -0.4078  0.6897
  412SOL    HW1 1377   1.191   3.076   3.629 -1.0233  0.4791  1.7788
  412SOL    HW2 1378   1.195   2.954   3.719  0.1661 -0.8482 -0.0067
  413SOL     OW 1379   2.292   2.166   2.615 -0.0811 -0.0899  0.6121
  413SOL    HW1 1380   2.302   2.235   2.549 -0.5111  0.1771  0.8260
  413SOL    HW2 1381   2.221   2.196   2.671 -0.0601 -0.5614  0.8957
  414SOL     OW 1382   2.061   2.904   2.049 -0.0347  0.7454  0.1625
  414SOL    HW1 1383   2.075   2.918   2.142 -0.4706 -1.3716  0.5981
  414SOL    HW2 1384   1.982   2.849   2.044  0.0789  0.6640 -1.4348
  415SOL     OW 1385   3.704   3.067   2.861  0.1101 -0.2345 -0.1179
  415SOL    HW1 1386   3.698   2.987   2.809  0.0178 -0.4274  0.1924
  415SOL    HW2 1387   3.617   3.106   2.857  0.1836 -0.0881 -0.3612
  416SOL     OW 1388   2.094   1.324   3.453  0.0086  0.5657 -0.4533
  416SOL    HW1 1389   2.006   1.329   3.417 -0.6133 -1.3730  0.6448
  416SOL    HW2 1390   2.088   1.372   3.536  0.0794  0.7407 -0.5500
  417SOL     OW 1391   1.007   0.981   1.562  0.1472  0.0692 -0.4545
  417SOL    HW1 1392   1.044   1.042   1.497 -0.9038 -0.7092 -1.8419
  417SOL    HW2 1393   1.003   0.897   1.516 -0.0746 -0.6567  0.8406
  418SOL     OW 1394   3.599   2.343   3.211 -0.3003  0.2523  0.4058
  418SOL    HW1 1395   3.690   2.370   3.223 -0.0379 -0.4007 -0.0444
  418SOL    HW2 1396   3.548   2.423   3.222  0.5218  1.1733 -1.8159
  419SOL     OW 1397   1.863   1.050   3.434 -0.3067  0.1421  0.5985
  419SOL    HW1 1398   1.855   0.966   3.388 -2.7572  0.0448  1.0537
  419SOL    HW2 1399   1.861   1.116   3.364 -0.0231 -0.1364  0.3278
  420SOL     OW 1400   2.231   1.940   1.939  0.3213 -1.0007 -0.4308
  420SOL    HW1 1401   2.219   1.894   1.855 -1.6498 -0.3236 -0.5841
  420SOL    HW2 1402   2.289   1.884   1.989 -0.7693 -2.9110 -1.1867
  421SOL     OW 1403   3.574   1.170   3.714 -0.2155  0.4952 -0.2137
  421SOL    HW1 1404   3.529   1.239   3.665 -0.3995 -0.0083 -0.7632
  421SOL    HW2 1405   3.662   1.168   3.676 -0.7569 -0.8193 -1.5086
  422SOL     OW 1406   0.793   1.432   0.367  0.2029 -0.9039 -0.3407
  422SOL    HW1 1407   0.791   1.481   0.285 -0.6541  0.6701  0.5470
  422SOL    HW2 1408   0.726   1.365   0.357 -1.4663  0.6483 -0.1982
  423SOL     OW 1409   2.319   2.590   1.756  0.4378 -0.0295  0.0491
  423SOL    HW1 1410   2.344   2.682   1.742 -1.3962  0.6204  0.7291
  423SOL    HW2 1411   2.312   2.554   1.668  2.1974  0.1374 -0.2117
  424SOL     OW 1412   2.131   3.014   0.862 -0.5193  0.5132 -0.6604
  424SOL    HW1 1413   2.116   3.026   0.768 -1.8162 -2.2030 -0.9038
  424SOL    HW2 1414   2.220   2.978   0.867 -0.7845 -0.1940 -0.9460
  425SOL     OW 1415   1.051   0.265   0.084  0.1199 -0.5017  0.4432
  425SOL    HW1 1416   1.100   0.265   0.002  1.2563 -1.5063  1.0928
  425SOL    HW2 1417   0.983   0.198   0.071  1.2925 -1.8029  0.8672
  426SOL     OW 1418   0.194   2.930   3.485 -0.1634  0.6776  0.1600
  426SOL    HW1 1419   0.257   2.944   3.414  1.1137  0.9890  1.3094
  426SOL    HW2 1420   0.235   2.863   3.540 -1.5684 -0.2550  0.1314
  427SOL     OW 1421   1.603   2.168   0.516  0.1962  0.3303  0.6237
  427SOL    HW1 1422   1.670   2.173   0.448  0.6938  3.1259  1.1895
  427SOL    HW2 1423   1.594   2.074   0.534  3.5196 -0.2250  0.0759
  428SOL     OW 1424   3.621   1.375   0.388  0.2245  0.2982 -0.0609
  428SOL    HW1 1425   3.687   1.440   0.410  1.7144 -0.2451 -2.5774
  428SOL    HW2 1426   3.668   1.308   0.339 -1.8503 -1.1472 -0.2252
  429SOL     OW 1427   0.711   2.667   2.798 -0.1227  0.2681  0.2321
  429SOL    HW1 1428   0.643   2.700   2.857 -0.6522 -0.0993 -0.1556
  429SOL    HW2 1429   0.667   2.659   2.713  0.6709  0.9646 -0.2697
  430SOL     OW 1430   1.939   3.583   3.158  0.8994 -0.4797 -0.4303
  430SOL    HW1 1431   1.876   3.599   3.228  0.5905  0.7494 -0.9771
  430SOL    HW2 1432   1.980   3.499   3.182 -0.3381 -0.8796  0.3603
  431SOL     OW 1433   0.433   1.899   1.066 -0.0633 -0.0499 -0.0859
  431SOL    HW1 1434   0.520   1.859   1.070  0.2492  0.3802 -1.7031
  431SOL    HW2 1435   0.378   1.832   1.025  0.2560  0.7859 -1.9685
  432SOL     OW 1436   0.966   0.808   0.535  1.1570  0.1317  0.4819
  432SOL    HW1 1437   0.980   0.796   0.441 -0.8352  1.1256  0.0202
  432SOL    HW2 1438   0.924   0.726   0.563 -2.7233  1.5644 -0.5563
  433SOL     OW 1439   2.377   2.821   1.435 -0.6188 -0.2891  0.0207
  433SOL    HW1 1440   2.415   2.905   1.410  0.5577 -0.2024  1.8763
  433SOL    HW2 1441   2.325   2.840   1.513 -0.4154 -1.2556  0.4112
  434SOL     OW 1442   3.685   2.410   3.558  0.1965 -0.2330 -0.1496
  434SOL    HW1 1443   3.635   2.475   3.607  0.5456 -1.0470  1.3541
  434SOL    HW2 1444   3.677   2.437   3.466 -2.2837  0.1261  0.1080
  435SOL     OW 1445   2.335   0.083   0.761  0.0874 -0.4495  0.2273
  435SOL    HW1 1446   2.282   0.140   0.706  1.4750  0.4178 -0.2677
  435SOL    HW2 1447   2.362   0.138   0.835 -0.6643 -1.2241  1.1096
  436SOL     OW 1448   1.468   2.115   1.662 -0.7553 -0.1460  0.7949
  436SOL    HW1 1449   1.454   2.178   1.592  0.5804  0.9957  1.5231
  436SOL    HW2 1450   1.380   2.095   1.694 -1.2029  1.6009  0.7503
  437SOL     OW 1451   1.927   1.780   0.363 -0.1489  0.4331 -0.4391
  437SOL    HW1 1452   1.965   1.858   0.322 -0.6301  0.0304 -1.6992
  437SOL    HW2 1453   1.973   1.707   0.321  0.3669  0.0188  0.8009
  438SOL     OW 1454   0.524   0.836   0.943 -0.3418 -0.4074  0.4334
  438SOL    HW1 1455   0.543   0.914   0.994 -0.9370 -0.6111  0.9835
  438SOL    HW2 1456   0.514   0.868   0.853 -1.1007  0.2304  0.7363
  439SOL     OW 1457   3.108   0.266   3.505  0.6230  0.2225 -0.6587
  439SOL    HW1 1458   3.188   0.278   3.556 -0.0613 -1.4924  0.9393
  439SOL    HW2 1459   3.139   0.238   3.419  1.7647  0.6992 -0.4264
  440SOL     OW 1460   3.655   2.596   2.679  0.5760 -0.1175  0.0901
  440SOL    HW1 1461   3.743   2.562   2.663  1.2277  1.0113  1.1540
  440SOL    HW2 1462   3.611   2.527   2.728  0.6189 -0.9741 -1.0316
  441SOL     OW 1463   1.841   0.902   0.735  0.1566  0.2184 -0.2040
  441SOL    HW1 1464   1.770   0.844   0.764 -0.0895  1.6769  2.5041
  441SOL    HW2 1465   1.796   0.976   0.696  0.2838  0.2134 -0.3583
  442SOL     OW 1466   1.614   2.208   1.871 -0.2353  0.4598  0.4946
  442SOL    HW1 1467   1.546   2.184   1.808 -0.7966  1.8964  0.5131
  442SOL    HW2 1468   1.565   2.239   1.948  0.4406 -0.5474  1.3605
  443SOL     OW 1469   0.556   0.707   2.166  0.2202 -1.0861  0.8278
  443SOL    HW1 1470   0.470   0.671   2.142  1.2602 -2.2269 -1.4956
  443SOL    HW2 1471   0.537   0.769   2.236 -2.6905 -0.2858 -0.5145
  444SOL     OW 1472   1.764   1.352   2.198  0.4047  0.0361  0.3939
  444SOL    HW1 1473   1.752   1.397   2.114  0.6289 -2.3322 -1.0007
  444SOL    HW2 1474   1.816   1.413   2.250  0.2288  1.6075 -1.1589
  445SOL     OW 1475   3.527   2.403   2.832  0.4740 -0.5948 -0.4111
  445SOL    HW1 1476   3.493   2.332   2.778  1.1457  0.8554 -2.9132
  445SOL    HW2 1477   3.454   2.428   2.889 -0.7579 -1.2776 -1.6340
  446SOL     OW 1478   2.395   2.123   3.706 -0.0865 -0.1036  0.2612
  446SOL    HW1 1479   2.454   2.133   3.632 -1.0943  2.3624 -0.2940
  446SOL    HW2 1480   2.447   2.151   3.782  0.0951  0.0239  0.0903
  447SOL     OW 1481   1.002   0.558   0.832 -0.2294 -0.4638 -0.3218
  447SOL    HW1 1482   1.071   0.493   0.846 -0.6333 -0.5301  1.5214
  447SOL    HW2 1483   1.047   0.643   0.837  0.3378 -0.5022 -2.9441
  448SOL     OW 1484   3.294   2.078   1.118 -0.3126  0.0331 -0.2088
  448SOL    HW1 1485   3.368   2.080   1.178 -0.8986 -0.2547  0.5319
  448SOL    HW2 1486   3.313   2.147   1.054  0.6275 -0.0911 -0.0780
  449SOL     OW 1487   0.399   0.715   2.829 -0.1918  0.2788  0.1334
  449SOL    HW1 1488   0.347   0.697   2.750  1.8681  0.1678 -1.2871
  449SOL    HW2 1489   0.387   0.638   2.884  1.3295 -1.4634 -1.8139
  450SOL     OW 1490   1.279   2.094   3.574  0.5691  0.2559 -0.4794
  450SOL    HW1 1491   1.185   2.107   3.564  0.7824  2.9386  0.1882
  450SOL    HW2 1492   1.300   2.022   3.515 -1.8673 -0.3534 -0.7100
  451SOL     OW 1493   2.859   2.469   1.111 -0.0630 -0.0879 -0.0125
  451SOL    HW1 1494   2.945   2.507   1.092 -0.4156  0.0986 -1.2896
  451SOL    HW2 1495   2.871   2.375   1.099  0.3120 -0.2306  1.2558
  452SOL     OW 1496   3.714   1.893   0.937 -0.0813  0.3666 -0.6192
  452SOL    HW1 1497   3.652   1.823   0.961  0.1699  0.6640  1.0195
  452SOL    HW2 1498   3.662   1.953   0.884 -0.7864 -0.1803 -0.5754
  453SOL     OW 1499   3.358   0.707   3.507 -0.1944 -0.5136  0.2137
  453SOL    HW1 1500   3.344   0.749   3.422 -0.5850  2.0091  1.4379
  453SOL    HW2 1501   3.271   0.675   3.533  0.2808 -3.2639 -1.1965
  454SOL     OW 1502   0.274   3.040   1.434  0.5692  1.1403  0.3656
  454SOL    HW1 1503   0.205   2.975   1.448  1.1688  0.0973 -1.2409
  454SOL    HW2 1504   0.234   3.123   1.458 -1.1838  0.5296 -0.2952
  455SOL     OW 1505   0.564   2.647   2.284 -0.3573  0.2804  0.0709
  455SOL    HW1 1506   0.494   2.601   2.237 -0.1858 -0.9943  0.9928
  455SOL    HW2 1507   0.645   2.609   2.251 -0.1681  0.5681  0.1966
  456SOL     OW 1508   0.403   3.086   0.726 -0.1546  0.5761  0.2839
  456SOL    HW1 1509   0.409   3.181   0.728  4.5423  0.5449  2.6108
  456SOL    HW2 1510   0.461   3.060   0.655  0.7422 -0.4769  1.3475
  457SOL     OW 1511   1.128   1.596   2.695  0.7336 -0.4010 -0.1302
  457SOL    HW1 1512   1.121   1.683   2.657  0.7345 -0.4865 -0.3291
  457SOL    HW2 1513   1.114   1.536   2.621  2.2198 -0.5853 -0.2901
  458SOL     OW 1514   0.193   3.134   2.318  0.4115 -0.3943  0.1944
  458SOL    HW1 1515   0.270   3.172   2.276 -1.0107  1.6803 -0.7052
  458SOL    HW2 1516   0.201   3.040   2.302  1.6820 -0.0256 -1.7445
  459SOL     OW 1517   3.415   1.874   0.114 -0.6843 -0.6034 -0.8244
  459SOL    HW1 1518   3.433   1.790   0.073  2.4042 -0.5327  0.0877
  459SOL    HW2 1519   3.475   1.935   0.071 -1.2501  0.6241  0.0753
  460SOL     OW 1520   0.476   1.722   1.335  0.6950  0.1269  0.7573
  460SOL    HW1 1521   0.394   1.765   1.314  2.3816  2.5643 -1.5446
  460SOL    HW2 1522   0.496   1.750   1.425  0.3967  1.9805  0.2760
  461SOL     OW 1523   3.139   0.475   2.884  0.3778  0.0021  0.2782
  461SOL    HW1 1524   3.109   0.397   2.837  2.5894  0.0343 -1.3549
  461SOL    HW2 1525   3.060   0.526   2.901 -0.6960 -0.7125 -2.2335
  462SOL     OW 1526   0.926   1.385   2.070 -0.2162 -0.4184  0.4404
  462SOL    HW1 1527   0.974   1.385   1.987 -3.7282  0.1158 -1.7696
  462SOL    HW2 1528   0.962   1.459   2.118  2.0358 -0.8369 -0.4490
  463SOL     OW 1529   0.733   1.515   3.538 -0.4399  0.0182  0.3875
  463SOL    HW1 1530   0.674   1.575   3.492  1.2023  1.2896 -0.1631
  463SOL    HW2 1531   0.781   1.471   3.468  0.4274  0.2296  0.8351
  464SOL     OW 1532   1.427   0.417   2.999 -0.2356  0.2211 -0.0857
  464SOL    HW1 1533   1.395   0.405   3.089  0.1607 -2.8118 -0.2573
  464SOL    HW2 1534   1.401   0.337   2.954  1.0173  0.9749 -2.2515
  465SOL     OW 1535   1.103   3.575   2.897 -0.2161 -0.3852  0.0228
  465SOL    HW1 1536   1.131   3.501   2.952 -0.9306 -0.5079  0.2355
  465SOL    HW2 1537   1.117   3.652   2.952  0.0824 -0.4065 -0.0228
  466SOL     OW 1538   1.864   2.516   0.700  0.0633 -0.0583 -0.8968
  466SOL    HW1 1539   1.833   2.540   0.613 -1.7110 -0.3723 -0.3831
  466SOL    HW2 1540   1.871   2.599   0.747  1.4708  0.1610 -1.4423
  467SOL     OW 1541   2.654   0.895   1.619  0.0752 -0.3429  0.1657
  467SOL    HW1 1542   2.682   0.806   1.600 -0.5006 -0.6995  0.9254
  467SOL    HW2 1543   2.620   0.929   1.536  0.6083 -0.7036 -0.2045
  468SOL     OW 1544   0.428   1.062   1.489 -0.2938  0.2348  0.4778
  468SOL    HW1 1545   0.366   0.992   1.469  0.0029 -0.3324  1.4727
  468SOL    HW2 1546   0.415   1.126   1.419 -0.4272 -0.8949 -0.5645
  469SOL     OW 1547   3.078   0.191   0.173 -0.6844  0.2399 -0.0199
  469SOL    HW1 1548   3.053   0.103   0.203 -0.3098 -0.3945 -1.4593
  469SOL    HW2 1549   3.003   0.221   0.122  0.8319 -1.2161 -3.4207
  470SOL     OW 1550   0.692   2.734   3.312  0.0718  0.6466 -0.1264
  470SOL    HW1 1551   0.697   2.645   3.278  0.2923  0.7386 -0.3416
  470SOL    HW2 1552   0.754   2.736   3.385 -0.7271  0.3243  0.5823
  471SOL     OW 1553   0.357   2.348   2.163  0.3617 -0.4118 -0.1812
  471SOL    HW1 1554   0.302   2.299   2.224 -1.7052  1.5389 -0.3600
  471SOL    HW2 1555   0.306   2.350   2.082  1.9866 -0.8962 -1.2661
  472SOL     OW 1556   2.569   0.774   2.921  0.0728  0.1699  0.2166
  472SOL    HW1 1557   2.477   0.747   2.922 -0.0947  0.5070 -1.7145
  472SOL    HW2 1558   2.602   0.743   2.836  0.5749  3.7117 -1.0300
  473SOL     OW 1559   1.304   2.401   3.375 -0.3588  0.0921 -0.4261
  473SOL    HW1 1560   1.217   2.416   3.413 -0.6956  0.8979 -1.4555
  473SOL    HW2 1561   1.291   2.329   3.314  0.3432 -1.7057  1.4495
  474SOL     OW 1562   1.695   0.182   0.111 -0.5458  0.4988 -0.1924
  474SOL    HW1 1563   1.697   0.242   0.185 -1.2598  1.3902 -0.8766
  474SOL    HW2 1564   1.785   0.152   0.102 -0.5864 -0.2405  1.5143
  475SOL     OW 1565   1.456   0.517   0.968 -0.1470 -1.0567  0.0825
  475SOL    HW1 1566   1.524   0.514   0.901 -0.7595  0.0725 -0.6133
  475SOL    HW2 1567   1.440   0.425   0.990 -0.2856 -1.4875 -1.6809
  476SOL     OW 1568   1.116   2.923   2.067  0.1079  0.0378  0.2341
  476SOL    HW1 1569   1.145   2.949   1.980 -0.5111  0.5179  0.1671
  476SOL    HW2 1570   1.190   2.873   2.103  1.0746  1.3549  0.1340
  477SOL     OW 1571   1.642   0.272   0.620  0.2853  0.1395 -0.1888
  477SOL    HW1 1572   1.563   0.262   0.674 -0.3358  0.3695 -1.0319
  477SOL    HW2 1573   1.681   0.185   0.618 -1.9091 -0.9111 -2.6806
  478SOL     OW 1574   2.605   2.357   2.663 -0.4476 -0.4708  0.7646
  478SOL    HW1 1575   2.555   2.368   2.743 -1.4368 -0.1843  0.1335
  478SOL    HW2 1576   2.554   2.403   2.596  0.4933 -0.4581  0.0269
  479SOL     OW 1577   3.149   2.577   3.373  0.0820  0.4754  1.2697
  479SOL    HW1 1578   3.070   2.536   3.340  1.1733 -0.6982 -0.0043
  479SOL    HW2 1579   3.171   2.643   3.307  2.4249 -2.0690 -0.7477
  480SOL     OW 1580   2.629   0.371   2.660 -0.5181 -0.0619  0.3529
  480SOL    HW1 1581   2.688   0.300   2.686 -0.4757 -0.5466 -1.0001
  480SOL    HW2 1582   2.686   0.448   2.654  0.0890 -0.6055 -1.3178
  481SOL     OW 1583   2.051   0.751   3.292 -0.9129  0.1912 -0.2053
  481SOL    HW1 1584   1.956   0.745   3.278 -1.4340 -1.0479  3.0199
  481SOL    HW2 1585   2.087   0.681   3.239 -2.0214 -0.4914 -0.0953
  482SOL     OW 1586   2.637   1.104   2.443 -0.1584  0.3142 -0.0464
  482SOL    HW1 1587   2.690   1.099   2.522  4.0445 -0.5806 -2.6244
  482SOL    HW2 1588   2.636   1.197   2.419  2.2783  0.1371 -1.0748
  483SOL     OW 1589   1.477   3.718   0.182 -0.0856  0.1349  0.4686
  483SOL    HW1 1590   1.561   3.762   0.169 -0.0318  0.0778  0.6260
  483SOL    HW2 1591   1.497   3.644   0.239  0.3617 -1.7776 -2.0061
  484SOL     OW 1592   2.958   0.194   2.256 -0.1567  0.1484  0.2354
  484SOL    HW1 1593   3.052   0.207   2.271 -0.0770 -0.4601  0.2811
  484SOL    HW2 1594   2.916   0.251   2.320  0.1747 -2.1293  2.6561
  485SOL     OW 1595   2.507   0.369   2.052  0.3373  0.1934  0.1184
  485SOL    HW1 1596   2.510   0.361   2.147  2.6740  1.0499  0.1705
  485SOL    HW2 1597   2.449   0.444   2.036 -1.4464 -0.9823  0.7182
  486SOL     OW 1598   3.219   3.447   0.441  0.0860 -0.3031  0.3994
  486SOL    HW1 1599   3.262   3.493   0.513 -0.1972  1.1157 -0.2962
  486SOL    HW2 1600   3.142   3.407   0.481  1.0676 -1.3705  1.2959
  487SOL     OW 1601   2.142   1.652   3.494 -0.1681 -0.4475 -0.1721
  487SOL    HW1 1602   2.129   1.612   3.408 -0.8386  1.1637 -0.8687
  487SOL    HW2 1603   2.146   1.746   3.476 -1.2602  0.0076  1.6647
  488SOL     OW 1604   2.480   3.102   2.029  0.1567  0.0687  0.3496
  488SOL    HW1 1605   2.540   3.161   2.073  1.2655 -0.6567 -0.1404
  488SOL    HW2 1606   2.464   3.143   1.944  1.8001 -0.8255 -0.4332
  489SOL     OW 1607   2.533   3.505   0.993  0.7058 -0.3460 -0.2855
  489SOL    HW1 1608   2.470   3.573   1.019 -0.0091 -1.4461  0.9656
  489SOL    HW2 1609   2.603   3.511   1.059 -0.1550 -1.8567  0.8116
  490SOL     OW 1610   1.920   2.733   3.185 -0.3768 -0.2560 -1.1592
  490SOL    HW1 1611   1.944   2.643   3.208 -1.4927 -0.5894 -1.2278
  490SOL    HW2 1612   1.993   2.765   3.132  0.4361 -0.8140 -0.3936
  491SOL     OW 1613   0.798   1.235   1.761  0.1996  0.4221 -0.1489
  491SOL    HW1 1614   0.890   1.212   1.767  0.2176  0.0278 -1.6821
  491SOL    HW2 1615   0.757   1.191   1.836  0.8669 -1.4173 -0.8164
  492SOL     OW 1616   2.302   0.305   1.799  0.0925 -0.3297  0.6158
  492SOL    HW1 1617   2.230   0.247   1.822  0.5712 -0.3421  2.2217
  492SOL    HW2 1618   2.363   0.298   1.873  0.6249  1.4522  0.3923
  493SOL     OW 1619   3.632   1.232   1.800  0.7700 -0.1527  0.2368
  493SOL    HW1 1620   3.558   1.249   1.859 -0.2537  0.8434 -1.2430
  493SOL    HW2 1621   3.704   1.281   1.838  0.3819 -0.2732  1.1506
  494SOL     OW 1622   1.474   2.652   2.439  0.4581  0.4478 -0.7828
  494SOL    HW1 1623   1.540   2.720   2.450  0.9178 -0.0663 -0.2532
  494SOL    HW2 1624   1.415   2.664   2.513  1.8227 -1.1077  0.6553
  495SOL     OW 1625   3.141   1.942   3.351  1.1345  0.1511 -0.3480
  495SOL    HW1 1626   3.227   1.970   3.382  0.9783 -1.6229  1.9607
  495SOL    HW2 1627   3.158   1.868   3.294  1.1456 -0.9345  1.0152
  496SOL     OW 1628   1.676   1.753   1.253 -0.6547  0.4221 -0.4282
  496SOL    HW1 1629   1.581   1.750   1.265 -0.8476  1.6111 -1.4554
  496SOL    HW2 1630   1.691   1.837   1.209  0.8039 -0.0990 -0.9442
  497SOL     OW 1631   0.792   0.921   3.094 -0.0133  0.2042  0.0123
  497SOL    HW1 1632   0.784   0.826   3.094  2.7392 -0.1490  2.2355
  497SOL    HW2 1633   0.801   0.944   3.002  0.8258 -1.8944 -0.4842
  498SOL     OW 1634   0.719   3.476   1.511  0.3175 -0.1886 -0.4740
  498SOL    HW1 1635   0.768   3.470   1.429  0.6851 -0.4227 -0.2374
  498SOL    HW2 1636   0.655   3.545   1.495 -4.0051 -4.2250 -3.2573
  499SOL     OW 1637   1.640   0.722   0.854 -0.0707  0.3113 -0.0348
  499SOL    HW1 1638   1.643   0.637   0.811  1.3347  0.3715 -0.0890
  499SOL    HW2 1639   1.670   0.705   0.943  2.5751  1.0769 -0.6794
  500SOL     OW 1640   1.560   0.395   1.770  0.5297  0.3269  0.8151
  500SOL    HW1 1641   1.642   0.436   1.744 -0.0568  1.1996  0.3142
  500SOL    HW2 1642   1.500   0.467   1.788 -0.9513 -0.2293 -1.4300
  501SOL     OW 1643   0.687   1.855   1.087  0.1383  0.3353 -0.5462
  501SOL    HW1 1644   0.744   1.868   1.011 -0.4182 -2.1916 -1.4962
  501SOL    HW2 1645   0.674   1.943   1.122  1.5656  1.4250 -2.5290
  502SOL     OW 1646   1.423   0.902   2.297 -0.1393  0.4436 -0.2708
  502SOL    HW1 1647   1.362   0.976   2.297 -1.1866 -0.3256  1.8604
  502SOL    HW2 1648   1.465   0.905   2.211  0.3171  3.8511 -0.0760
  503SOL     OW 1649   0.601   3.003   0.014 -0.3545  0.6703 -0.0305
  503SOL    HW1 1650   0.584   3.095   0.032 -0.7905  1.4637 -3.7582
  503SOL    HW2 1651   0.695   2.999  -0.004 -0.3917  0.4671 -0.1913
  504SOL     OW 1652   1.264   0.889   0.548  0.0664 -0.2537 -0.6793
  504SOL    HW1 1653   1.182   0.848   0.518 -0.2022 -0.1111 -0.1550
  504SOL    HW2 1654   1.238   0.976   0.577  0.2764 -0.4527  0.1503
  505SOL     OW 1655   1.783   1.960   0.107 -0.0814 -0.0306 -0.1179
  505SOL    HW1 1656   1.797   1.979   0.015  1.4997 -1.3711 -0.2023
  505SOL    HW2 1657   1.871   1.964   0.146 -0.6391 -0.1242  1.1969
  506SOL     OW 1658   0.354   3.427   1.488  0.0093 -0.1737 -0.4145
  506SOL    HW1 1659   0.311   3.455   1.407 -0.7398 -0.3176 -0.0681
  506SOL    HW2 1660   0.319   3.485   1.556  1.4159  0.6416 -0.3545
  507SOL     OW 1661   2.308   0.394   2.921  0.3011 -0.1095  0.0987
  507SOL    HW1 1662   2.374   0.382   2.988  1.4481  0.4058 -0.9042
  507SOL    HW2 1663   2.288   0.488   2.924 -0.4845 -0.2805  0.4714
  508SOL     OW 1664   0.766   3.482   3.711 -0.2136  0.0870 -0.5520
  508SOL    HW1 1665   0.817   3.553   3.751 -1.6039  1.2348 -0.6947
  508SOL    HW2 1666   0.677   3.518   3.706 -1.3028 -2.2267  0.7305
  509SOL     OW 1667   0.987   1.020   3.444  0.2693  0.0532  0.4867
  509SOL    HW1 1668   0.904   1.059   3.415  1.7281  3.7174  0.7058
  509SOL    HW2 1669   0.989   1.035   3.538  1.2406  0.1863  0.4578
  510SOL     OW 1670   3.244   2.502   2.928  0.4184  0.0586  0.0433
  510SOL    HW1 1671   3.182   2.575   2.934  1.5405  1.0183  0.4372
  510SOL    HW2 1672   3.293   2.505   3.010 -1.1312 -2.7242  1.2003
  511SOL     OW 1673   3.732   0.696   1.282 -0.0224 -0.2804 -0.0442
  511SOL    HW1 1674   3.707   0.778   1.240  0.7918  0.3182  0.6129
  511SOL    HW2 1675   3.729   0.715   1.375  0.7830 -0.8131  0.0997
  512SOL     OW 1676   3.363   2.699   0.342  0.4450 -0.4310  0.1895
  512SOL    HW1 1677   3.371   2.617   0.294 -1.1642  0.7253 -2.2255
  512SOL    HW2 1678   3.443   2.748   0.321  0.0106 -0.1694 -0.8934
  513SOL     OW 1679   1.690   0.086   3.570  0.2135  0.1002 -0.5306
  513SOL    HW1 1680   1.728   0.167   3.535  0.8167 -0.3404 -0.9155
  513SOL    HW2 1681   1.600   0.109   3.592  1.2113  1.7446  2.3704
  514SOL     OW 1682   0.628   2.254   0.909 -0.2580 -0.0576  0.4363
  514SOL    HW1 1683   0.678   2.334   0.925  0.1757 -0.4242  0.9671
  514SOL    HW2 1684   0.624   2.212   0.995 -0.9341 -0.3454  0.2637
  515SOL     OW 1685   3.446   2.639   1.269  0.3770 -0.3585 -0.1915
  515SOL    HW1 1686   3.459   2.731   1.292  0.1632  0.1609 -1.9598
  515SOL    HW2 1687   3.533   2.600   1.277  0.7354  0.3196 -0.6416
  516SOL     OW 1688   2.641   0.183   0.093  0.0398  0.2009 -0.5151
  516SOL    HW1 1689   2.724   0.210   0.053  1.2003 -1.5107  0.5865
  516SOL    HW2 1690   2.579   0.251   0.068  2.0133  2.1290 -0.5126
  517SOL     OW 1691   0.662   1.915   0.436  0.1199 -0.0489 -1.2405
  517SOL    HW1 1692   0.729   1.858   0.473  0.0996  1.2109  0.8939
  517SOL    HW2 1693   0.698   2.003   0.442 -2.0687  0.8181  1.0927
  518SOL     OW 1694   1.095   3.227   2.363 -0.4408 -0.0431  0.0502
  518SOL    HW1 1695   1.181   3.208   2.401  0.2430  0.0269 -1.3905
  518SOL    HW2 1696   1.063   3.302   2.413  0.6934  0.4280  0.0926
  519SOL     OW 1697   3.268   0.553   1.428  0.3731  0.2071  0.1819
  519SOL    HW1 1698   3.241   0.469   1.466  0.1773  0.4469  0.5754
  519SOL    HW2 1699   3.362   0.541   1.410  0.4804  0.0999  0.7778
  520SOL     OW 1700   2.397   0.699   1.397  0.4126 -0.4611  0.1271
  520SOL    HW1 1701   2.371   0.745   1.318  0.4648 -0.3663  0.1641
  520SOL    HW2 1702   2.347   0.741   1.467  0.7852 -0.1679  0.2201
  521SOL     OW 1703   1.507   3.192   3.227 -0.2353 -1.0155 -0.5878
  521SOL    HW1 1704   1.473   3.190   3.317 -1.7272 -0.2040 -1.0923
  521SOL    HW2 1705   1.598   3.219   3.237 -0.6792  0.1584  0.6196
  522SOL     OW 1706   0.078   1.816   3.658 -0.4810 -0.3515 -0.3380
  522SOL    HW1 1707   0.035   1.860   3.731  1.7637 -1.4333  1.7896
  522SOL    HW2 1708   0.086   1.725   3.686  1.3797 -0.5936 -1.4804
  523SOL     OW 1709   1.762   1.291   2.633 -0.1458  0.1341  0.2518
  523SOL    HW1 1710   1.742   1.309   2.724 -0.6640  0.3549  0.0980
  523SOL    HW2 1711   1.702   1.220   2.609 -1.1294  1.1333 -0.3541
  524SOL     OW 1712   3.598   0.969   0.338 -0.1681  0.3168  0.2744
  524SOL    HW1 1713   3.565   0.976   0.427 -1.6036  0.1348 -0.2113
  524SOL    HW2 1714   3.526   0.929   0.289  0.2400  1.2442 -1.1588
  525SOL     OW 1715   2.222   1.156   0.646 -0.2519  0.4890  0.3316
  525SOL    HW1 1716   2.306   1.182   0.683 -0.1338  0.6895 -0.0660
  525SOL    HW2 1717   2.156   1.193   0.705 -0.0737 -1.9535  2.2074
  526SOL     OW 1718   0.426   0.635   0.770 -0.2183  0.3756  1.2096
  526SOL    HW1 1719   0.446   0.642   0.677 -1.8289 -2.9108  0.4403
  526SOL    HW2 1720   0.458   0.716   0.808 -0.3556  2.3049 -2.3359
  527SOL     OW 1721   1.002   0.234   1.924 -0.0882 -0.2585 -0.1045
  527SOL    HW1 1722   1.089   0.258   1.893 -0.0498 -0.1305  0.1027
  527SOL    HW2 1723   0.943   0.266   1.856 -0.4449  4.2489  1.9495
  528SOL     OW 1724   2.842   1.191   0.493 -0.5442  0.2258 -0.3508
  528SOL    HW1 1725   2.937   1.197   0.478 -0.7354 -0.2941 -1.9581
  528SOL    HW2 1726   2.803   1.208   0.407 -1.8353 -1.5896 -0.1774
  529SOL     OW 1727   3.656   2.080   1.271  0.6940  0.3372  0.4628
  529SOL    HW1 1728   3.645   2.047   1.360  0.2449  1.7694  0.9578
  529SOL    HW2 1729   3.732   2.033   1.237 -0.4033 -1.8086  0.8264
  530SOL     OW 1730   2.339   3.001   2.486  0.5534 -0.6843 -0.3858
  530SOL    HW1 1731   2.353   3.039   2.400  0.5468  0.8510  0.2607
  530SOL    HW2 1732   2.388   3.057   2.546 -0.9191 -0.6239  0.8317
  531SOL     OW 1733   1.260   1.899   3.375  0.7088  0.2036 -0.2361
  531SOL    HW1 1734   1.268   1.806   3.353 -0.1266 -0.3653  1.6114
  531SOL    HW2 1735   1.169   1.921   3.355  0.6508  0.3660  0.1965
  532SOL     OW 1736   0.331   3.121   1.978 -0.7153  0.3271 -0.5328
  532SOL    HW1 1737   0.274   3.099   1.905 -1.5229 -0.2695  0.2506
  532SOL    HW2 1738   0.416   3.085   1.954 -1.0676 -0.1994 -1.0188
  533SOL     OW 1739   2.824   0.302   0.899  0.5617 -0.2904  0.3004
  533SOL    HW1 1740   2.853   0.351   0.976  0.0023 -1.0557  1.0179
  533SOL    HW2 1741   2.865   0.346   0.825  3.2466 -1.0826  1.2046
  534SOL     OW 1742   0.434   3.514   1.047  0.5155 -0.0873  0.3474
  534SOL    HW1 1743   0.445   3.602   1.082  3.7729  0.9263 -2.6776
  534SOL    HW2 1744   0.428   3.458   1.124 -0.9494  2.6134  2.3738
  535SOL     OW 1745   1.494   3.200   0.147  0.2279 -0.2023  0.2175
  535SOL    HW1 1746   1.478   3.140   0.075 -0.6865 -1.8048  1.6793
  535SOL    HW2 1747   1.500   3.144   0.224 -0.7142  1.5838  1.6660
  536SOL     OW 1748   1.676   0.005   1.121  0.5327 -0.0302  0.2823
  536SOL    HW1 1749   1.611   0.074   1.116  0.7733  0.2050  0.3491
  536SOL    HW2 1750   1.628  -0.073   1.149  0.0352 -0.1999 -0.9738
  537SOL     OW 1751   2.086   1.400   1.050  0.1467  0.4339 -0.8963
  537SOL    HW1 1752   2.076   1.381   0.956  0.0906 -1.8520 -0.4717
  537SOL    HW2 1753   2.179   1.422   1.059  0.3367 -0.1231 -1.3814
  538SOL     OW 1754   3.298   1.020   1.835 -0.4354  0.2909  0.0333
  538SOL    HW1 1755   3.285   1.015   1.741 -0.9941  0.3556  0.1035
  538SOL    HW2 1756   3.212   1.041   1.870  0.1732  2.4683  0.3871
  539SOL     OW 1757   3.388   2.259   2.613  0.7250 -0.2252  0.2392
  539SOL    HW1 1758   3.329   2.315   2.664 -0.0474  0.2776 -1.1675
  539SOL    HW2 1759   3.362   2.169   2.635  1.3464 -0.0561  1.7843
  540SOL     OW 1760   2.562   1.009   1.396 -0.4090 -0.0434 -0.1558
  540SOL    HW1 1761   2.517   1.043   1.318  0.7773  1.9085 -0.0589
  540SOL    HW2 1762   2.519   1.053   1.469  0.4215  0.4334  0.0583
  541SOL     OW 1763   1.329   2.786   3.256  0.8011 -0.0846 -0.2832
  541SOL    HW1 1764   1.272   2.783   3.333  1.0279 -1.0316 -0.1397
  541SOL    HW2 1765   1.294   2.719   3.197 -1.2341  2.6146 -2.3939
  542SOL     OW 1766   1.012   2.695   1.143 -0.3820 -0.4561 -0.9689
  542SOL    HW1 1767   0.957   2.654   1.209 -2.7623  0.1459 -2.4665
  542SOL    HW2 1768   0.988   2.788   1.146  1.9319  0.1968 -0.4509
  543SOL     OW 1769   2.562   0.380   0.767  0.7695  0.2952  0.4221
  543SOL    HW1 1770   2.484   0.356   0.817 -0.1347  0.1487 -1.0129
  543SOL    HW2 1771   2.627   0.314   0.791 -0.2576 -0.9075 -0.0471
  544SOL     OW 1772   0.414   3.623   2.134  0.3378 -0.0172  0.2248
  544SOL    HW1 1773   0.358   3.569   2.190 -0.5224  1.1741  0.5579
  544SOL    HW2 1774   0.459   3.682   2.194  0.1316  0.6263 -0.2303
  545SOL     OW 1775   1.276   0.375   2.630  0.2287 -0.4331  1.0351
  545SOL    HW1 1776   1.272   0.448   2.568 -0.1189  0.7322  2.4018
  545SOL    HW2 1777   1.365   0.377   2.664  0.2620 -0.7399  0.9680
  546SOL     OW 1778   2.206   0.391   3.663 -0.2586 -0.1022  0.0099
  546SOL    HW1 1779   2.128   0.436   3.694 -0.0981 -1.0509  1.9719
  546SOL    HW2 1780   2.175   0.334   3.592 -1.2189  0.0583  0.2866
  547SOL     OW 1781   2.670   3.681   0.528 -0.2655  0.1394  0.5014
  547SOL    HW1 1782   2.676   3.764   0.481  1.7601 -1.3128 -2.0578
  547SOL    HW2 1783   2.652   3.706   0.619  0.2262  3.3435 -0.1660
  548SOL     OW 1784   1.744   1.405   0.736 -0.1466  0.5457 -0.0063
  548SOL    HW1 1785   1.654   1.428   0.759  0.2907  0.1561  2.2983
  548SOL    HW2 1786   1.777   1.482   0.689 -0.9615  1.6563  1.1804
  549SOL     OW 1787   2.666   0.774   0.789  0.0587 -0.5790  0.2642
  549SOL    HW1 1788   2.700   0.688   0.765 -0.1596 -0.5513 -0.1373
  549SOL    HW2 1789   2.624   0.807   0.710 -0.0268 -0.1831  0.4713
  550SOL     OW 1790   1.692   2.410   3.506  0.3568  0.0854  0.0169
  550SOL    HW1 1791   1.647   2.359   3.574  2.2159 -0.7464  0.6972
  550SOL    HW2 1792   1.761   2.351   3.475  0.8440  1.2310 -1.1374
  551SOL     OW 1793   0.396   2.294   2.808 -0.2792 -0.4174  0.4733
  551SOL    HW1 1794   0.434   2.231   2.747 -0.8034 -1.1137  0.8549
  551SOL    HW2 1795   0.466   2.359   2.822 -0.3240  0.0578 -1.2582
  552SOL     OW 1796   3.350   1.121   2.165  0.1289 -0.2703 -0.0412
  552SOL    HW1 1797   3.308   1.046   2.207 -0.4377 -0.0956 -0.2870
  552SOL    HW2 1798   3.391   1.085   2.086 -2.5001  0.0967 -1.6898
  553SOL     OW 1799   0.028   0.607   2.525  0.2710  0.4731 -0.4035
  553SOL    HW1 1800   0.021   0.513   2.538  0.3926  0.6346  0.9102
  553SOL    HW2 1801   0.019   0.618   2.430 -1.8805 -0.6811 -0.4104
  554SOL     OW 1802   1.525   1.481   1.148 -0.3819 -0.5200  1.4619
  554SOL    HW1 1803   1.607   1.451   1.108 -0.3601  0.5691  0.6312
  554SOL    HW2 1804   1.463   1.410   1.131 -0.6584  0.2800 -1.5059
  555SOL     OW 1805   0.338   3.472   2.867 -0.0227  0.1147  0.1235
  555SOL    HW1 1806   0.388   3.392   2.881  2.0777  1.2404 -0.3713
  555SOL    HW2 1807   0.367   3.503   2.781 -0.7300  1.4105  0.3275
  556SOL     OW 1808   2.792   2.941   2.755 -0.0801 -0.2221  0.0258
  556SOL    HW1 1809   2.806   3.033   2.776 -1.8413 -0.1020  0.9274
  556SOL    HW2 1810   2.769   2.941   2.662  1.3459  0.0431 -0.3518
  557SOL     OW 1811   2.117   1.128   1.228  0.2252  0.0309  0.1075
  557SOL    HW1 1812   2.025   1.135   1.201  0.0986 -0.2434  0.4589
  557SOL    HW2 1813   2.164   1.109   1.147 -0.1085 -0.4442  0.0189
  558SOL     OW 1814   0.060   2.102   1.764  0.3907 -0.1182  0.2005
  558SOL    HW1 1815   0.100   2.123   1.849  0.1082 -1.6561  0.7580
  558SOL    HW2 1816   0.004   2.027   1.783  1.3165 -1.3403 -1.6059
  559SOL     OW 1817   2.702   2.950   3.134  0.1683  0.1025  0.3838
  559SOL    HW1 1818   2.638   2.879   3.142  0.9603 -1.0370 -2.2843
  559SOL    HW2 1819   2.656   3.017   3.083  0.8576 -0.5356 -1.1577
  560SOL     OW 1820   1.539   0.422   2.713  0.5528  0.3951 -0.0366
  560SOL    HW1 1821   1.614   0.402   2.769  0.1673 -0.9405  0.0482
  560SOL    HW2 1822   1.502   0.502   2.749  1.6163  0.7857  0.2362
  561SOL     OW 1823   0.228   1.087   2.013 -0.4869 -0.2597 -0.2433
  561SOL    HW1 1824   0.199   1.177   2.029 -1.7813 -0.6538 -0.2597
  561SOL    HW2 1825   0.308   1.078   2.065 -0.1680  0.9927 -0.4962
  562SOL     OW 1826   1.003   2.663   0.148  0.0501  0.2450 -0.0059
  562SOL    HW1 1827   0.930   2.602   0.145  0.1097  0.1601  0.2161
  562SOL    HW2 1828   1.079   2.611   0.123  0.3959 -0.2385  1.8997
  563SOL     OW 1829   0.912   1.642   0.204 -0.1518  0.2191 -0.7378
  563SOL    HW1 1830   0.956   1.689   0.274  0.2344  0.3015 -1.0272
  563SOL    HW2 1831   0.981   1.629   0.138 -0.1694 -0.9970 -0.5409
  564SOL     OW 1832   2.919   0.281   2.544  0.7389  0.0805  0.5653
  564SOL    HW1 1833   2.847   0.231   2.580  0.8086 -0.3095  0.1676
  564SOL    HW2 1834   2.997   0.231   2.566  0.7022 -0.8013 -1.1418
  565SOL     OW 1835   0.731   2.935   2.614 -0.2955 -0.3143 -0.3201
  565SOL    HW1 1836   0.754   2.948   2.522 -0.1276  4.4744  0.1124
  565SOL    HW2 1837   0.812   2.903   2.654  0.1496 -0.8290 -1.5802
  566SOL     OW 1838   1.207   3.224   0.619  0.5681  0.0014  0.0489
  566SOL    HW1 1839   1.124   3.272   0.615  0.5045 -0.0995  0.1470
  566SOL    HW2 1840   1.233   3.231   0.711  1.1021  0.7615 -0.1506
  567SOL     OW 1841   2.177   0.518   3.170  0.2469  0.2632  0.1665
  567SOL    HW1 1842   2.258   0.503   3.218  1.0713 -0.7080 -1.4561
  567SOL    HW2 1843   2.132   0.434   3.170 -0.7937  0.7890  1.0388
  568SOL     OW 1844   0.648   0.425   1.418  0.4457 -0.2845  0.6220
  568SOL    HW1 1845   0.586   0.445   1.488  1.4850 -2.8039  2.3980
  568SOL    HW2 1846   0.666   0.510   1.377 -1.6987  0.9747  2.1022
  569SOL     OW 1847   3.161   0.193   3.245  0.0947  0.4821  0.2646
  569SOL    HW1 1848   3.221   0.119   3.238 -0.0484  0.2734  1.0614
  569SOL    HW2 1849   3.203   0.264   3.197 -0.0709 -0.2953 -1.0645
  570SOL     OW 1850   1.211   2.468   1.675 -0.9055 -0.1760 -0.3931
  570SOL    HW1 1851   1.177   2.550   1.637  1.0662  0.6244 -0.5331
  570SOL    HW2 1852   1.285   2.444   1.619 -0.2484 -1.0040  0.7834
  571SOL     OW 1853   2.723   3.618   2.485 -0.2604 -0.8523 -0.1405
  571SOL    HW1 1854   2.742   3.662   2.402 -1.0730 -0.0830  0.0697
  571SOL    HW2 1855   2.805   3.576   2.509  0.4182  0.1851 -0.5722
  572SOL     OW 1856   2.310   2.692   3.130 -0.0614  0.1891 -0.2807
  572SOL    HW1 1857   2.345   2.605   3.113 -1.0894 -0.3560  0.2785
  572SOL    HW2 1858   2.306   2.698   3.226 -4.2367 -1.0150 -0.1756
  573SOL     OW 1859   2.025   0.661   0.152 -0.1131  0.2244  0.4010
  573SOL    HW1 1860   1.937   0.695   0.167 -0.2870  0.3693 -0.7982
  573SOL    HW2 1861   2.056   0.709   0.075 -0.5392 -2.5388 -1.6832
  574SOL     OW 1862   0.414   1.345   0.755 -0.2334  0.2060 -0.4564
  574SOL    HW1 1863   0.334   1.394   0.736 -0.4347  0.7998  1.7310
  574SOL    HW2 1864   0.383   1.260   0.788  0.1021 -0.5988 -2.0958
  575SOL     OW 1865   2.745   2.934   1.019  0.0974 -0.0530 -0.2731
  575SOL    HW1 1866   2.661   2.930   0.973  0.2611  1.5231 -0.7484
  575SOL    HW2 1867   2.763   3.027   1.028  1.4797 -0.3660  0.4348
  576SOL     OW 1868   1.126   1.967   2.381 -0.0787  0.7819  0.2444
  576SOL    HW1 1869   1.041   1.998   2.414 -0.1289 -0.3126  1.2016
  576SOL    HW2 1870   1.166   2.045   2.342 -1.5820  1.2878 -0.3777
  577SOL     OW 1871   0.620   0.386   0.292 -0.5575  0.1039  0.5081
  577SOL    HW1 1872   0.590   0.378   0.201 -0.7261 -0.8282  0.6353
  577SOL    HW2 1873   0.541   0.375   0.344 -0.0472 -2.3530  0.8508
  578SOL     OW 1874   2.506   2.857   0.314  0.2271  0.0242  0.1852
  578SOL    HW1 1875   2.591   2.879   0.354  0.2323 -2.0885  1.5133
  578SOL    HW2 1876   2.523   2.777   0.264 -0.5713  0.7379 -1.3033
  579SOL     OW 1877   1.351   3.591   1.032  0.1349  0.5266 -0.5403
  579SOL    HW1 1878   1.367   3.513   1.085  0.3601  0.4306 -0.7470
  579SOL    HW2 1879   1.317   3.655   1.093  1.1639  0.6838 -0.1115
  580SOL     OW 1880   1.889   0.516   2.441 -0.8071  0.5822  0.2642
  580SOL    HW1 1881   1.806   0.475   2.463 -2.3278  2.7527 -1.0027
  580SOL    HW2 1882   1.933   0.527   2.526 -1.7276 -0.7226  0.9477
  581SOL     OW 1883   3.099   3.200   3.722 -0.5787 -0.0081 -0.4246
  581SOL    HW1 1884   3.038   3.157   3.782  1.0353 -3.2648 -0.8616
  581SOL    HW2 1885   3.115   3.134   3.654  2.5911  1.0441 -0.8538
  582SOL     OW 1886   2.259   1.992   1.164  0.3597  0.1974 -0.0245
  582SOL    HW1 1887   2.305   1.909   1.180 -0.4620 -0.2758 -0.0938
  582SOL    HW2 1888   2.174   1.982   1.207 -0.5271  0.2297 -1.6931
  583SOL     OW 1889   1.054   3.589   2.615  0.1205  1.0560 -0.3722
  583SOL    HW1 1890   1.082   3.597   2.706  0.2566 -0.6817 -0.2193
  583SOL    HW2 1891   0.960   3.609   2.617 -0.4269 -1.2062  0.6342
  584SOL     OW 1892   1.431   2.577   0.723  0.3224  0.4609  0.2957
  584SOL    HW1 1893   1.419   2.501   0.667  1.6170  1.4107 -1.3753
  584SOL    HW2 1894   1.479   2.545   0.799 -0.0020 -0.5530  0.0787
  585SOL     OW 1895   1.649   3.171   0.542 -0.4523 -0.1902 -0.1741
  585SOL    HW1 1896   1.672   3.121   0.621  0.9815 -1.0006 -1.0593
  585SOL    HW2 1897   1.719   3.151   0.480 -1.8564 -0.0684 -1.8889
  586SOL     OW 1898   0.434   1.988   1.494 -0.0964  0.3598  0.2519
  586SOL    HW1 1899   0.441   2.064   1.437  0.1029 -1.0681 -1.7720
  586SOL    HW2 1900   0.352   1.946   1.468  0.6320 -1.0124  0.0519
  587SOL     OW 1901   1.877   3.602   1.413 -0.2404  0.6666 -0.5815
  587SOL    HW1 1902   1.867   3.572   1.323  2.3402  0.5761 -0.9210
  587SOL    HW2 1903   1.901   3.523   1.463  4.3697  1.4396 -1.0763
  588SOL     OW 1904   1.276   0.248   2.233  0.2604  0.2989 -0.0094
  588SOL    HW1 1905   1.305   0.195   2.159 -1.1169 -2.1205  1.0863
  588SOL    HW2 1906   1.342   0.233   2.301  0.7061  1.3142 -0.1874
  589SOL     OW 1907   2.987   2.609   1.402  0.1724 -0.1078 -0.2178
  589SOL    HW1 1908   3.068   2.573   1.365  0.1705  0.6373 -0.9841
  589SOL    HW2 1909   2.957   2.672   1.336 -0.7240  0.0430  0.3238
  590SOL     OW 1910   3.653   0.066   2.036 -0.0355 -0.3891  0.3069
  590SOL    HW1 1911   3.581   0.034   2.091 -0.7682  1.2098  0.3232
  590SOL    HW2 1912   3.637   0.026   1.951 -0.8803 -0.1484  0.3446
  591SOL     OW 1913   1.639   3.294   1.880  0.1087  0.3081  0.4891
  591SOL    HW1 1914   1.718   3.329   1.920 -0.3026  0.2855  1.3261
  591SOL    HW2 1915   1.573   3.362   1.891  0.3345  0.9008 -1.4042
  592SOL     OW 1916   3.035   2.267   0.239 -0.4657 -0.1577  0.2073
  592SOL    HW1 1917   3.008   2.215   0.314 -2.9256 -0.6170 -0.8876
  592SOL    HW2 1918   2.993   2.352   0.252  0.1441  0.1910 -0.0368
  593SOL     OW 1919   2.851   0.110   3.423 -0.1585  0.3387 -0.2288
  593SOL    HW1 1920   2.771   0.154   3.453  0.2938  0.8901  0.1847
  593SOL    HW2 1921   2.870   0.150   3.338 -1.1767 -0.8930 -1.0788
  594SOL     OW 1922   3.154   1.118   3.182 -0.4044  0.2155 -0.0200
  594SOL    HW1 1923   3.209   1.191   3.209  1.4318 -0.6337 -1.3046
  594SOL    HW2 1924   3.113   1.088   3.264  1.8297  0.2320  1.1761
  595SOL     OW 1925   0.758   3.265   2.500  0.4298  0.2017 -0.4984
  595SOL    HW1 1926   0.829   3.323   2.526  0.0634  0.1995  0.5521
  595SOL    HW2 1927   0.754   3.273   2.405 -0.0789  2.4491 -0.3406
  596SOL     OW 1928   2.252   3.110   2.228  0.1124  0.5790 -0.1758
  596SOL    HW1 1929   2.243   3.205   2.225 -1.1687  0.4522 -1.8970
  596SOL    HW2 1930   2.313   3.088   2.158 -1.0215  0.0360 -1.0327
  597SOL     OW 1931   3.613   2.128   3.492 -0.3894  0.1825 -0.3616
  597SOL    HW1 1932   3.671   2.122   3.416 -1.4581  2.8021 -1.5212
  597SOL    HW2 1933   3.590   2.221   3.498 -0.8842 -0.0198  2.8193
  598SOL     OW 1934   2.684   1.197   3.570 -0.2081 -1.1961  0.4795
  598SOL    HW1 1935   2.736   1.118   3.553  1.8098 -0.3135  2.0619
  598SOL    HW2 1936   2.608   1.166   3.619  0.2657 -2.2168  0.6043
  599SOL     OW 1937   0.622   1.815   0.150 -0.3413  0.2828  0.4852
  599SOL    HW1 1938   0.639   1.859   0.234 -2.3367  1.7908  0.1913
  599SOL    HW2 1939   0.695   1.755   0.139  1.0746  1.5450  2.3012
  600SOL     OW 1940   1.288   3.586   3.496 -0.7013 -0.7855  0.3372
  600SOL    HW1 1941   1.278   3.588   3.591 -1.2806 -0.9096  0.2840
  600SOL    HW2 1942   1.282   3.494   3.473  1.0606 -0.9277  0.3298
  601SOL     OW 1943   3.495   0.331   0.235 -0.0364 -0.6637 -0.3107
  601SOL    HW1 1944   3.481   0.422   0.260  1.6134  0.2291 -2.3552
  601SOL    HW2 1945   3.551   0.296   0.305 -0.5739 -0.1023  0.4255
  602SOL     OW 1946   3.718   0.767   1.546 -0.5885 -0.2814 -0.5553
  602SOL    HW1 1947   3.623   0.763   1.558 -0.8107  0.5556 -1.8577
  602SOL    HW2 1948   3.748   0.831   1.611 -0.8411 -0.9195  0.1957
  603SOL     OW 1949   2.183   3.670   1.904  0.2747 -0.0291 -0.2415
  603SOL    HW1 1950   2.264   3.680   1.954 -0.0482  0.8516  0.1261
  603SOL    HW2 1951   2.142   3.756   1.908  0.2613  0.1063 -2.0678
  604SOL     OW 1952   1.607   3.507   1.635 -0.0302  0.3791 -0.2079
  604SOL    HW1 1953   1.597   3.427   1.688 -0.6279 -0.1468 -1.0805
  604SOL    HW2 1954   1.517   3.529   1.609  0.1688  1.1458 -0.2488
  605SOL     OW 1955   2.792   2.005   1.562 -0.8937  0.0328  0.4519
  605SOL    HW1 1956   2.844   1.929   1.588  1.4629  1.4340  0.0956
  605SOL    HW2 1957   2.703   1.983   1.588 -0.1197 -2.4130  1.2777
  606SOL     OW 1958   0.663   0.414   2.922 -0.0390 -0.0625 -0.4782
  606SOL    HW1 1959   0.731   0.377   2.865  0.6839  2.4721 -1.3856
  606SOL    HW2 1960   0.589   0.430   2.864 -1.2644 -2.1578  0.3772
  607SOL     OW 1961   1.081   1.660   1.255  0.6611  0.0836  0.7097
  607SOL    HW1 1962   0.997   1.625   1.227  1.4218 -1.9381  0.7985
  607SOL    HW2 1963   1.064   1.701   1.340 -0.0623 -1.2064  1.2094
  608SOL     OW 1964   3.619   1.981   1.525  0.1085  0.0704 -0.1573
  608SOL    HW1 1965   3.711   2.000   1.543 -0.3487  2.4579 -0.0192
  608SOL    HW2 1966   3.576   1.988   1.610 -0.4125  0.3421 -0.4402
  609SOL     OW 1967   1.329   0.403   0.097  0.5537 -0.1102  0.2855
  609SOL    HW1 1968   1.327   0.347   0.020  1.8316  0.0062  0.1419
  609SOL    HW2 1969   1.368   0.348   0.165  0.6657  0.2102  0.4806
  610SOL     OW 1970   1.959   1.977   1.255  0.2485 -0.4175  0.0208
  610SOL    HW1 1971   1.924   2.058   1.292  0.9549 -0.5431  1.0087
  610SOL    HW2 1972   1.954   1.989   1.160 -1.9686 -0.2397  0.1051
  611SOL     OW 1973   2.043   2.688   1.645 -0.1302 -0.8243  0.0655
  611SOL    HW1 1974   2.033   2.596   1.671 -2.0999 -0.7099 -0.1505
  611SOL    HW2 1975   2.031   2.688   1.551 -0.9790 -0.2419  0.1708
  612SOL     OW 1976   2.690   1.249   3.268 -0.8351  0.0007  0.2100
  612SOL    HW1 1977   2.687   1.241   3.363 -0.6752 -1.7322  0.1112
  612SOL    HW2 1978   2.783   1.260   3.247 -0.8602  0.2850  0.2469
  613SOL     OW 1979   3.622   1.095   2.319 -0.3982  0.1736 -0.2039
  613SOL    HW1 1980   3.604   1.001   2.312 -0.6924  0.2486 -0.4986
  613SOL    HW2 1981   3.615   1.114   2.412 -0.8389 -0.0020 -0.1973
  614SOL     OW 1982   3.230   3.489   3.082 -0.0771 -0.2219  0.4507
  614SOL    HW1 1983   3.269   3.567   3.123  0.7551  0.5324 -1.6752
  614SOL    HW2 1984   3.258   3.417   3.138  1.4156  0.7018  0.9692
  615SOL     OW 1985   2.343   2.574   0.213  0.2509 -0.5605 -0.2405
  615SOL    HW1 1986   2.391   2.559   0.131  1.6139  1.6089  0.0557
  615SOL    HW2 1987   2.389   2.522   0.278  0.0840 -1.1325 -0.5747
  616SOL     OW 1988   3.089   2.254   1.230  0.2956  0.3713 -0.3686
  616SOL    HW1 1989   3.029   2.183   1.206  0.5109 -0.0073  0.1829
  616SOL    HW2 1990   3.098   2.305   1.150 -0.4800  0.2295 -0.5593
  617SOL     OW 1991   1.376   0.595   1.763 -0.0025 -0.0586  0.5327
  617SOL    HW1 1992   1.285   0.626   1.767  0.4966  1.8419 -1.1705
  617SOL    HW2 1993   1.403   0.612   1.672  1.3785 -2.6985  0.3479
  618SOL     OW 1994   0.502   0.346   0.800 -0.0942  0.2145 -0.1864
  618SOL    HW1 1995   0.524   0.433   0.832 -1.5635  0.5645 -0.0277
  618SOL    HW2 1996   0.449   0.361   0.722  0.8872 -0.5830 -1.0357
  619SOL     OW 1997   2.718   0.054   2.252  0.7638  0.3468  0.3205
  619SOL    HW1 1998   2.806   0.090   2.254  0.9897 -0.1543 -0.2564
  619SOL    HW2 1999   2.699   0.041   2.159  1.1338 -2.0688  0.5075
  620SOL     OW 2000   1.071   0.601   2.176 -0.9664  0.2594  0.1302
  620SOL    HW1 2001   1.077   0.611   2.271  0.4586 -1.1903  0.2226
  620SOL    HW2 2002   1.074   0.691   2.143  0.8450  0.7052  1.3590
  621SOL     OW 2003   3.624   0.330   1.966  0.5906 -0.1994 -0.6886
  621SOL    HW1 2004   3.658   0.349   1.879 -1.1494  0.5493 -1.2450
  621SOL    HW2 2005   3.639   0.236   1.977  2.2739 -0.0185 -1.0934
  622SOL     OW 2006   1.794   0.218   1.928 -0.4999  0.2894  0.4934
  622SOL    HW1 2007   1.706   0.215   1.964  0.4806  0.0350  3.0822
  622SOL    HW2 2008   1.817   0.127   1.911 -0.2875  0.2365  1.0458
  623SOL     OW 2009   1.805   1.444   3.378 -0.4076  0.2086  0.4867
  623SOL    HW1 2010   1.780   1.372   3.436  1.2776 -1.1626 -0.3721
  623SOL    HW2 2011   1.828   1.516   3.437 -1.4370 -0.1862  1.3957
  624SOL     OW 2012   3.361   2.252   0.208  0.4653 -0.2185 -0.6329
  624SOL    HW1 2013   3.272   2.231   0.234 -0.2381 -0.2816 -2.8949
  624SOL    HW2 2014   3.411   2.172   0.223 -0.6057 -1.2604 -2.4286
  625SOL     OW 2015   3.518   1.108   1.573 -0.7005  1.0236  0.0202
  625SOL    HW1 2016   3.425   1.085   1.578 -0.5096  0.0990 -0.4254
  625SOL    HW2 2017   3.538   1.143   1.660 -0.6421 -2.0701  1.3709
  626SOL     OW 2018   0.146   3.376   1.981  0.2748  0.4086 -0.3979
  626SOL    HW1 2019   0.195   3.333   2.050  1.4808  1.3576 -0.6123
  626SOL    HW2 2020   0.067   3.410   2.024  1.2528  1.4422  0.6603
  627SOL     OW 2021   0.234   1.294   2.941 -0.2719 -0.4961 -0.3079
  627SOL    HW1 2022   0.199   1.260   2.859 -0.7811 -0.0184 -0.2907
  627SOL    HW2 2023   0.157   1.314   2.994  0.0479 -0.5689  0.1926
  628SOL     OW 2024   1.547   1.474   2.581 -0.2385  0.6345 -1.0343
  628SOL    HW1 2025   1.531   1.450   2.490  1.6215  1.1931 -1.5643
  628SOL    HW2 2026   1.616   1.415   2.610 -2.0873 -0.8139  0.6764
  629SOL     OW 2027   1.201   0.137   0.289  0.2564 -0.0321 -0.0697
  629SOL    HW1 2028   1.189   0.045   0.268  0.9270 -0.0045 -0.5988
  629SOL    HW2 2029   1.172   0.184   0.211  1.0842  0.1466 -0.2773
  630SOL     OW 2030   1.539   0.701   3.125 -0.3700 -0.1300 -0.4160
  630SOL    HW1 2031   1.448   0.679   3.143 -0.4115 -0.6487 -1.2385
  630SOL    HW2 2032   1.584   0.617   3.119 -0.0338  0.0830 -1.0197
  631SOL     OW 2033   0.077   1.416   2.396  0.3657 -0.3459 -0.2498
  631SOL    HW1 2034   0.009   1.476   2.366 -0.0207 -0.3227  0.6477
  631SOL    HW2 2035   0.116   1.459   2.472  1.1851 -0.5035 -0.5664
  632SOL     OW 2036   1.061   1.188   2.563 -0.7348 -0.2421  0.7943
  632SOL    HW1 2037   1.086   1.183   2.655 -1.1916  0.4726  0.9641
  632SOL    HW2 2038   1.024   1.276   2.552 -0.3802 -0.1902 -0.1504
  633SOL     OW 2039   1.878   3.238   0.339  0.1412  0.3703 -0.3523
  633SOL    HW1 2040   1.971   3.219   0.352  0.4355  1.1617 -1.1811
  633SOL    HW2 2041   1.869   3.247   0.244 -0.3638  2.2669 -0.1688
  634SOL     OW 2042   1.630   0.091   3.098  0.3855 -0.1655 -0.2486
  634SOL    HW1 2043   1.642   0.021   3.163  0.9354 -0.0055 -0.1737
  634SOL    HW2 2044   1.715   0.098   3.055 -0.3102 -1.0964 -1.8433
  635SOL     OW 2045   2.724   1.990   3.703 -0.3656 -0.2239 -0.4422
  635SOL    HW1 2046   2.711   1.942   3.621 -0.5928 -0.7476 -0.1061
  635SOL    HW2 2047   2.671   1.942   3.767 -0.0914  0.1084  0.0371
  636SOL     OW 2048   0.185   1.362   1.730 -0.1601  0.5974  0.4272
  636SOL    HW1 2049   0.273   1.343   1.762 -0.1835  1.0455  0.7664
  636SOL    HW2 2050   0.167   1.451   1.760 -1.2648  0.0405  1.5676
  637SOL     OW 2051   3.351   1.436   1.400  0.1543 -0.5202 -0.0232
  637SOL    HW1 2052   3.383   1.366   1.458  0.2460  0.0952  0.6748
  637SOL    HW2 2053   3.374   1.517   1.446  1.4775  0.0202 -1.5474
  638SOL     OW 2054   3.386   0.788   1.194 -0.4699  0.1600  0.1689
  638SOL    HW1 2055   3.299   0.808   1.229 -1.1339 -0.9853 -0.7493
  638SOL    HW2 2056   3.382   0.695   1.171  0.0688  0.7281 -2.4941
  639SOL     OW 2057   1.699   1.008   2.467  0.0797 -0.0101 -0.0670
  639SOL    HW1 2058   1.657   0.921   2.466 -0.0041  0.0217 -1.6836
  639SOL    HW2 2059   1.655   1.054   2.539 -1.3774 -0.6075 -0.5291
  640SOL     OW 2060   2.954   2.943   3.054 -0.4599  0.6223 -0.8042
  640SOL    HW1 2061   2.875   2.906   3.093 -1.6218  0.2355 -3.3375
  640SOL    HW2 2062   2.958   3.032   3.089 -1.4695  0.3434  0.0771
  641SOL     OW 2063   2.263   2.589   2.745  0.7505  0.5325  0.4256
  641SOL    HW1 2064   2.328   2.608   2.812  0.8938 -0.8115  0.6919
  641SOL    HW2 2065   2.262   2.667   2.690 -0.2296  2.1640  2.6466
  642SOL     OW 2066   0.274   3.058   0.093 -0.9149  0.4171  0.2051
  642SOL    HW1 2067   0.359   3.095   0.119 -0.6290  0.3121 -0.5733
  642SOL    HW2 2068   0.230   3.040   0.176  1.0620 -2.4640  0.7684
  643SOL     OW 2069   1.937   2.265   3.535 -0.4594 -0.3116  0.5088
  643SOL    HW1 2070   2.024   2.226   3.547 -1.5741 -2.8624  0.8947
  643SOL    HW2 2071   1.906   2.282   3.623 -0.2486  0.9460  0.3606
  644SOL     OW 2072   3.389   2.989   0.866 -0.1937 -0.3273 -0.0292
  644SOL    HW1 2073   3.320   2.925   0.849 -0.5712  0.4862 -1.7971
  644SOL    HW2 2074   3.428   3.006   0.780  1.2198  0.3632  0.7047
  645SOL     OW 2075   0.459   0.368   2.157  0.0066  0.7433  0.4130
  645SOL    HW1 2076   0.390   0.381   2.221 -1.4705  2.2766 -1.3481
  645SOL    HW2 2077   0.423   0.403   2.075  1.2352 -2.3266 -1.6299
  646SOL     OW 2078   3.508   0.970   0.592 -0.3102  0.1550  0.2905
  646SOL    HW1 2079   3.456   1.050   0.600 -3.2220 -1.3549 -1.6977
  646SOL    HW2 2080   3.454   0.902   0.633  0.4686 -1.3502 -1.0393
  647SOL     OW 2081   1.817   3.065   2.024  0.6881 -0.1448 -0.5571
  647SOL    HW1 2082   1.801   3.124   2.098 -0.2615  0.9907 -1.6178
  647SOL    HW2 2083   1.894   3.015   2.049  2.8430  2.9848 -0.4149
  648SOL     OW 2084   2.452   1.050   2.241 -0.4645  0.2825  0.0021
  648SOL    HW1 2085   2.532   1.051   2.293 -0.7333 -2.1109  0.5992
  648SOL    HW2 2086   2.382   1.034   2.304 -0.8073 -2.5695 -0.9395
  649SOL     OW 2087   1.594   1.731   0.978 -0.2754 -0.6408 -0.2693
  649SOL    HW1 2088   1.591   1.665   1.047  0.6164  1.2086  1.6405
  649SOL    HW2 2089   1.519   1.787   0.995  0.1141 -0.0037 -0.6231
  650SOL     OW 2090   0.294   0.669   2.080 -0.3490 -0.0707  0.7545
  650SOL    HW1 2091   0.286   0.623   1.997  2.1994 -0.3780  0.6082
  650SOL    HW2 2092   0.254   0.754   2.064 -0.1073 -0.2082 -0.7328
  651SOL     OW 2093   0.187   2.624   2.923 -0.9417  0.8173  0.4049
  651SOL    HW1 2094   0.218   2.693   2.983 -0.9499  0.5080  0.7692
  651SOL    HW2 2095   0.092   2.622   2.936 -0.8207 -0.0498  1.2583
  652SOL     OW 2096   2.600   3.256   0.841  1.1018  0.2524 -0.4073
  652SOL    HW1 2097   2.614   3.350   0.850 -1.8226  0.7937 -0.7548
  652SOL    HW2 2098   2.634   3.219   0.922  4.0493  1.2906 -1.0243
  653SOL     OW 2099   2.619   1.662   3.692  1.1751  0.0808 -0.0359
  653SOL    HW1 2100   2.536   1.647   3.738  2.2431 -1.1994  1.6202
  653SOL    HW2 2101   2.601   1.736   3.634 -1.2767 -0.5319 -0.1831
  654SOL     OW 2102   0.111   0.387   0.440  0.4621  0.0099  0.0091
  654SOL    HW1 2103   0.145   0.444   0.371 -2.9895  1.5384 -0.6496
  654SOL    HW2 2104   0.177   0.391   0.509  1.7421  2.4673 -1.2167
  655SOL     OW 2105   1.560   1.867   3.206  0.2447 -0.0536 -0.2311
  655SOL    HW1 2106   1.547   1.960   3.224  0.9377  1.0020 -4.2539
  655SOL    HW2 2107   1.654   1.853   3.218  0.3213  0.0550 -0.6944
  656SOL     OW 2108   2.889   3.604   1.553  0.2823  0.0718 -0.3662
  656SOL    HW1 2109   2.896   3.545   1.477  3.1965 -0.9225  0.5247
  656SOL    HW2 2110   2.837   3.556   1.616 -0.8122  0.2259 -1.1322
  657SOL     OW 2111   1.765   2.375   0.995 -0.1332 -0.0312  0.0772
  657SOL    HW1 2112   1.743   2.468   0.999 -0.1276 -0.0368  0.2288
  657SOL    HW2 2113   1.771   2.356   0.901  1.4950  0.5073  0.0442
  658SOL     OW 2114   1.275   0.054   2.016  0.3283 -0.0981 -0.1804
  658SOL    HW1 2115   1.271   0.041   1.921 -0.1766  0.8454 -0.2972
  658SOL    HW2 2116   1.216  -0.012   2.052 -1.4397  1.1371 -0.6963
  659SOL     OW 2117   1.073   2.443   2.149  0.1307  0.6816  0.3810
  659SOL    HW1 2118   1.131   2.466   2.076  0.5390 -0.0410  0.4673
  659SOL    HW2 2119   1.077   2.518   2.208  2.8528 -0.2567  1.5514
  660SOL     OW 2120   1.851   1.644   0.651 -0.5036  0.1662 -0.2259
  660SOL    HW1 2121   1.938   1.640   0.692 -1.5543 -0.7331  2.0671
  660SOL    HW2 2122   1.861   1.595   0.569  0.8727 -0.9180  0.5524
  661SOL     OW 2123   3.025   0.194   2.804 -0.6390 -0.2010  0.3628
  661SOL    HW1 2124   2.933   0.192   2.777  0.0301  1.3044 -2.4957
  661SOL    HW2 2125   3.060   0.110   2.776 -1.0111 -0.5969  1.0521
  662SOL     OW 2126   2.505   3.334   3.215 -0.2338  0.1802 -0.7293
  662SOL    HW1 2127   2.455   3.406   3.177 -2.0399 -0.5665  0.1371
  662SOL    HW2 2128   2.472   3.255   3.172  1.3086 -0.2287 -1.2448
  663SOL     OW 2129   0.873   1.783   3.451 -0.7292  0.1645 -0.5204
  663SOL    HW1 2130   0.797   1.842   3.443 -0.0474  1.0716 -0.4210
  663SOL    HW2 2131   0.890   1.754   3.362  0.4508  2.0925 -0.9803
  664SOL     OW 2132   1.313   1.928   0.416 -0.1243 -0.0655  0.2355
  664SOL    HW1 2133   1.283   2.019   0.406  0.6167 -0.0383 -2.3004
  664SOL    HW2 2134   1.402   1.928   0.380 -0.1213 -1.8023  0.1619
  665SOL     OW 2135   0.453   3.146   0.299 -0.2983 -0.0658 -0.1129
  665SOL    HW1 2136   0.475   3.151   0.393 -0.7242 -0.4606  0.0115
  665SOL    HW2 2137   0.453   3.052   0.280  0.5240  0.0425 -0.6897
  666SOL     OW 2138   3.255   2.838   0.592  0.7146  0.6396 -0.0418
  666SOL    HW1 2139   3.332   2.781   0.589 -0.3250 -0.7865 -0.4669
  666SOL    HW2 2140   3.260   2.889   0.511  0.6588 -0.1954 -0.5793
  667SOL     OW 2141   3.072   2.526   0.767 -0.3575  0.1356  0.1503
  667SOL    HW1 2142   3.105   2.512   0.678  1.1484  1.0237  0.5465
  667SOL    HW2 2143   3.009   2.598   0.758  0.6363  0.9945 -0.0302
  668SOL     OW 2144   1.625   2.038   1.324  0.2702 -0.3535  0.0421
  668SOL    HW1 2145   1.687   2.106   1.350  1.0675 -0.6149 -1.1361
  668SOL    HW2 2146   1.572   2.078   1.255  0.2441 -0.6856 -0.1332
  669SOL     OW 2147   0.408   3.428   0.504  0.2383  0.4449  0.4145
  669SOL    HW1 2148   0.466   3.417   0.428 -1.1197 -3.7663 -0.2633
  669SOL    HW2 2149   0.467   3.435   0.579  1.6667 -1.0432 -0.5114
  670SOL     OW 2150   3.436   0.284   3.392 -0.0385 -0.1935  0.3938
  670SOL    HW1 2151   3.519   0.330   3.379  0.3816 -0.6081  1.5519
  670SOL    HW2 2152   3.461   0.201   3.431 -0.9214 -0.8043 -0.3141
  671SOL     OW 2153   3.294   0.348   3.051  0.0610  0.2809  0.9545
  671SOL    HW1 2154   3.265   0.399   2.975  1.6207  0.2479  0.3000
  671SOL    HW2 2155   3.299   0.413   3.122  0.3485  0.6936  0.5650
  672SOL     OW 2156   1.342   1.946   1.347 -0.6799 -0.7481  0.1260
  672SOL    HW1 2157   1.343   1.871   1.288  2.0798 -0.9676  0.3141
  672SOL    HW2 2158   1.435   1.967   1.361 -1.3277  2.5904  0.2621
  673SOL     OW 2159   2.319   0.882   1.201 -0.1572 -0.5316 -0.0460
  673SOL    HW1 2160   2.372   0.959   1.181  0.3461 -0.6572  0.7697
  673SOL    HW2 2161   2.276   0.861   1.118  1.6525 -0.8911 -0.9378
  674SOL     OW 2162   2.669   2.099   2.649  0.5197  0.1715 -0.5950
  674SOL    HW1 2163   2.764   2.087   2.644  0.6596  1.0770 -0.2694
  674SOL    HW2 2164   2.656   2.193   2.639 -0.4079 -0.0282 -1.4319
  675SOL     OW 2165   1.116   3.257   2.111  0.0636 -0.3484 -0.1119
  675SOL    HW1 2166   1.037   3.215   2.076 -1.0932  0.6777  1.1697
  675SOL    HW2 2167   1.112   3.242   2.205  0.3576  1.3684  0.2100
  676SOL     OW 2168   1.007   2.989   2.416 -0.0128  0.2226  0.3686
  676SOL    HW1 2169   1.047   3.072   2.389 -0.8313  1.2230  2.0459
  676SOL    HW2 2170   0.920   2.989   2.376 -0.4955  0.8060  1.3710
  677SOL     OW 2171   2.147   0.242   3.434  0.0632  0.3877 -0.2584
  677SOL    HW1 2172   2.170   0.155   3.402  0.6880  0.5875 -0.3846
  677SOL    HW2 2173   2.106   0.285   3.359 -0.1753  0.2296 -0.2192
  678SOL     OW 2174   0.374   1.900   1.930 -0.3604 -0.0014 -0.1939
  678SOL    HW1 2175   0.420   1.958   1.869  1.1954 -1.0847 -0.1378
  678SOL    HW2 2176   0.325   1.959   1.988 -0.4603  1.1253 -1.3905
  679SOL     OW 2177   1.156   0.503   0.514  0.2406 -0.6533 -0.7569
  679SOL    HW1 2178   1.197   0.422   0.542 -0.0935  0.4170  3.3838
  679SOL    HW2 2179   1.223   0.570   0.528 -0.0815  0.0747 -2.4081
  680SOL     OW 2180   0.393   1.863   2.441 -0.4894 -0.4740  0.0294
  680SOL    HW1 2181   0.483   1.881   2.415 -0.1166 -2.1185  0.0590
  680SOL    HW2 2182   0.400   1.828   2.530 -1.3513  1.0994  0.7391
  681SOL     OW 2183   2.002   1.300   2.483  0.0368  0.1917 -0.2590
  681SOL    HW1 2184   1.928   1.282   2.542 -0.0351 -0.7279 -0.6037
  681SOL    HW2 2185   2.019   1.215   2.441  1.4684  0.3173  0.0239
  682SOL     OW 2186   2.208   0.349   0.644 -0.0212  0.0530 -0.0073
  682SOL    HW1 2187   2.121   0.340   0.683 -1.2575  1.0630 -2.2659
  682SOL    HW2 2188   2.234   0.439   0.663  0.5625 -0.2556  0.6906
  683SOL     OW 2189   2.450   0.919   0.643 -0.1837 -0.2944 -0.9341
  683SOL    HW1 2190   2.417   0.848   0.698 -3.0481  0.6208 -1.3099
  683SOL    HW2 2191   2.425   0.999   0.688  0.9567  0.5178 -1.6523
  684SOL     OW 2192   2.115   1.089   1.705  0.2450 -0.1906  0.1731
  684SOL    HW1 2193   2.023   1.106   1.688  0.2508  0.7265  0.9463
  684SOL    HW2 2194   2.115   1.036   1.785  0.4244  1.6253  1.4363
  685SOL     OW 2195   2.903   2.008   1.282  0.2248 -0.8579 -0.4214
  685SOL    HW1 2196   2.839   1.997   1.353 -0.1857 -1.9254 -0.9394
  685SOL    HW2 2197   2.852   2.046   1.210  0.4405 -0.6429 -0.4646
  686SOL     OW 2198   2.116   3.679   0.699 -0.6597 -0.1889 -0.5969
  686SOL    HW1 2199   2.186   3.716   0.753 -0.9126 -0.1908 -0.2631
  686SOL    HW2 2200   2.157   3.604   0.655 -0.4152 -0.1078 -0.5097
  687SOL     OW 2201   0.000   2.955   0.805 -0.1600 -0.0397 -0.4164
  687SOL    HW1 2202   0.094   2.958   0.785 -0.1280 -0.0281 -0.2662
  687SOL    HW2 2203  -0.041   2.932   0.721 -0.2230  2.1821 -1.0584
  688SOL     OW 2204   3.344   3.314   3.264  0.6911 -0.3437 -0.7009
  688SOL    HW1 2205   3.400   3.264   3.324  2.5317 -0.0666 -2.0855
  688SOL    HW2 2206   3.326   3.254   3.192 -0.6572 -0.3518 -0.3745
  689SOL     OW 2207   3.609   1.422   2.742 -0.0225  0.4368  0.0840
  689SOL    HW1 2208   3.529   1.370   2.732 -0.8147  1.5941  0.1714
  689SOL    HW2 2209   3.598   1.494   2.680 -1.3094  3.2697  3.3443
  690SOL     OW 2210   3.493   1.238   3.169 -0.0768 -0.1401 -0.4186
  690SOL    HW1 2211   3.555   1.238   3.242  0.4451 -0.8546 -0.8416
  690SOL    HW2 2212   3.419   1.289   3.200 -0.2409 -1.1519  0.9249
  691SOL     OW 2213   0.737   2.189   1.608 -0.0034  0.6786 -0.2221
  691SOL    HW1 2214   0.823   2.227   1.623  1.5634 -3.5488  4.2919
  691SOL    HW2 2215   0.754   2.111   1.555 -0.7357 -0.6642  1.4079
  692SOL     OW 2216   1.545   2.113   3.334 -0.3762  0.5556 -0.0380
  692SOL    HW1 2217   1.551   2.208   3.324 -1.4747  0.5360 -1.0556
  692SOL    HW2 2218   1.634   2.087   3.359  0.5176  1.6328 -1.8250
  693SOL     OW 2219   0.096   0.860   2.967  0.3294 -0.0612 -0.0078
  693SOL    HW1 2220   0.123   0.883   2.879 -1.7142  2.8417 -0.0010
  693SOL    HW2 2221   0.014   0.812   2.956 -0.6668  1.4947  0.2640
  694SOL     OW 2222   1.149   0.779   0.808 -0.5977  0.0987 -0.1095
  694SOL    HW1 2223   1.136   0.861   0.761 -0.2529  0.4368  0.3827
  694SOL    HW2 2224   1.154   0.804   0.900  1.9466 -0.1565 -0.1162
  695SOL     OW 2225   2.309   1.889   3.102  0.3523  0.4568  0.3685
  695SOL    HW1 2226   2.334   1.859   3.015  3.7076  1.8516  0.6860
  695SOL    HW2 2227   2.290   1.982   3.091 -1.4755  0.1628  0.7967
  696SOL     OW 2228   1.839   2.918   3.344 -0.9171  0.5270 -0.2126
  696SOL    HW1 2229   1.801   2.979   3.281  0.1187  1.2243 -0.1816
  696SOL    HW2 2230   1.864   2.842   3.292  0.7221  1.4363 -0.8432
  697SOL     OW 2231   3.604   1.587   2.282  0.1489 -0.1240  0.6070
  697SOL    HW1 2232   3.590   1.505   2.234  0.3723 -0.1881  0.6479
  697SOL    HW2 2233   3.518   1.628   2.286  0.5559  1.2050 -2.2151
  698SOL     OW 2234   1.153   2.228   0.673  0.0475 -0.6310  0.1122
  698SOL    HW1 2235   1.123   2.314   0.699  1.7199  0.9313 -2.6243
  698SOL    HW2 2236   1.098   2.167   0.722 -0.8204  1.9353  2.5673
  699SOL     OW 2237   1.829   3.171   1.673  0.1594  0.5382  0.2756
  699SOL    HW1 2238   1.919   3.161   1.704  0.1054 -2.0539 -0.1922
  699SOL    HW2 2239   1.775   3.134   1.742 -0.3431 -0.2619 -0.5238
  700SOL     OW 2240   2.044   2.240   2.749  0.1108  0.3323  0.6882
  700SOL    HW1 2241   1.987   2.249   2.672 -0.0139  1.0635  0.8581
  700SOL    HW2 2242   2.015   2.159   2.791 -0.3212  0.3211  0.3785
  701SOL     OW 2243   2.511   1.617   3.092 -0.0383  0.5154  0.4146
  701SOL    HW1 2244   2.458   1.691   3.062 -0.4716 -0.1491 -0.4800
  701SOL    HW2 2245   2.602   1.648   3.083 -0.1962  1.9030  2.5704
  702SOL     OW 2246   1.741   2.279   0.754 -0.3450 -0.6020  0.0941
  702SOL    HW1 2247   1.803   2.342   0.716  2.2506 -1.6597  2.2717
  702SOL    HW2 2248   1.687   2.253   0.680  0.5913  1.7425 -1.5713
  703SOL     OW 2249   2.285   2.997   0.160 -0.1816 -0.0086 -0.3539
  703SOL    HW1 2250   2.349   2.962   0.222 -0.8504  0.5028  0.6545
  703SOL    HW2 2251   2.320   2.975   0.074 -0.4694 -3.0532  0.1831
  704SOL     OW 2252   2.213   2.776  -0.004 -0.2299  0.9002  0.3936
  704SOL    HW1 2253   2.140   2.763   0.057  0.9471  0.7372  1.8213
  704SOL    HW2 2254   2.281   2.817   0.049  1.1524 -0.0322 -0.6158
  705SOL     OW 2255   3.645   3.369   2.386  0.0652  0.2024  0.7031
  705SOL    HW1 2256   3.622   3.448   2.435 -1.1842 -0.1048  0.6477
  705SOL    HW2 2257   3.577   3.306   2.409  1.3450 -1.0497  1.1620
  706SOL     OW 2258   3.095   1.718   2.923 -0.1075 -0.5586  0.3901
  706SOL    HW1 2259   3.092   1.800   2.873 -1.9584  0.2008  1.6300
  706SOL    HW2 2260   3.066   1.651   2.860 -1.1604  0.1770  0.0602
  707SOL     OW 2261   2.059   3.065   3.669 -0.3473 -0.6055 -0.0082
  707SOL    HW1 2262   2.059   3.161   3.670 -1.6816 -0.5938  0.0122
  707SOL    HW2 2263   2.110   3.040   3.746 -0.4507  0.0956  0.2946
  708SOL     OW 2264   2.361   3.152   1.798 -0.0660 -0.1451 -0.2434
  708SOL    HW1 2265   2.395   3.063   1.791  0.9199  0.2324 -0.3728
  708SOL    HW2 2266   2.316   3.167   1.715 -0.4333 -0.5894 -0.1342
  709SOL     OW 2267   2.091   0.811   1.373  0.3123 -0.4369 -0.5727
  709SOL    HW1 2268   2.127   0.746   1.312 -1.6920 -0.7683 -1.4993
  709SOL    HW2 2269   2.111   0.895   1.333  2.3846 -0.4398  0.3237
  710SOL     OW 2270   3.661   2.659   3.019  0.3659  0.1641  0.0379
  710SOL    HW1 2271   3.697   2.712   3.091  0.5971  0.5297 -0.3443
  710SOL    HW2 2272   3.608   2.592   3.063  0.4582  0.4200  0.5473
  711SOL     OW 2273   0.337   2.258   1.428  0.5406 -0.7148  0.0383
  711SOL    HW1 2274   0.364   2.204   1.354  0.7726  1.7487 -1.7908
  711SOL    HW2 2275   0.354   2.348   1.401  1.1500  0.3192  3.3237
  712SOL     OW 2276   2.916   0.299   1.559 -0.7824  0.3258  0.2251
  712SOL    HW1 2277   2.861   0.258   1.625 -1.3404 -0.8304 -0.8982
  712SOL    HW2 2278   2.994   0.243   1.555 -1.5959 -0.7799 -1.3922
  713SOL     OW 2279   1.716   0.673   0.061  0.0674  0.8565  0.8123
  713SOL    HW1 2280   1.621   0.681   0.055 -0.2720 -2.4761 -2.4575
  713SOL    HW2 2281   1.730   0.586   0.097  1.8369  0.9419  0.4147
  714SOL     OW 2282   0.687   0.323   2.320 -0.2231 -0.9734  0.6940
  714SOL    HW1 2283   0.611   0.360   2.276  0.6055  1.3368  1.0168
  714SOL    HW2 2284   0.760   0.341   2.260  0.6327  0.5699  2.1051
  715SOL     OW 2285   2.054   1.554   3.272  0.9137 -0.8670  0.1057
  715SOL    HW1 2286   2.083   1.541   3.182  0.2450 -1.1553 -0.0724
  715SOL    HW2 2287   1.959   1.544   3.269  0.5651  1.8497  0.3790
  716SOL     OW 2288   1.814   1.485   1.146  0.1557 -0.0178  0.1032
  716SOL    HW1 2289   1.901   1.451   1.127  1.0032  0.8137  2.2142
  716SOL    HW2 2290   1.824   1.580   1.143 -0.7100  0.0871  0.2880
  717SOL     OW 2291   0.399   0.129   1.947 -0.6890  0.0081 -0.7034
  717SOL    HW1 2292   0.486   0.155   1.978 -0.6101 -0.7847 -0.2154
  717SOL    HW2 2293   0.381   0.047   1.993 -2.0009  0.5252 -0.2356
  718SOL     OW 2294   0.640   3.338   2.845 -0.3098 -0.1273  0.0431
  718SOL    HW1 2295   0.582   3.343   2.921 -1.3352  0.8232 -0.7716
  718SOL    HW2 2296   0.719   3.383   2.872 -0.4106 -0.3782  0.7651
  719SOL     OW 2297   0.388   0.865   2.320 -0.1353 -0.1564 -0.1255
  719SOL    HW1 2298   0.412   0.954   2.294  1.1348  0.0453  1.5765
  719SOL    HW2 2299   0.293   0.868   2.331 -0.0964  1.0358  0.0009
  720SOL     OW 2300   0.161   2.097   2.053 -0.2804 -0.5060 -0.6740
  720SOL    HW1 2301   0.194   2.104   2.142 -0.1646  1.3657 -0.8245
  720SOL    HW2 2302   0.081   2.046   2.060  1.2550 -2.9557  0.0547
  721SOL     OW 2303   1.644   1.097   1.942  0.0646 -0.2207  0.2760
  721SOL    HW1 2304   1.651   1.056   2.029 -0.3202  0.5743  0.6914
  721SOL    HW2 2305   1.593   1.176   1.957  0.8768  0.4757 -0.4913
  722SOL     OW 2306   1.008   2.022   3.235 -0.2692  0.2982  0.3419
  722SOL    HW1 2307   0.913   2.034   3.240 -0.6944 -1.5544 -1.5778
  722SOL    HW2 2308   1.031   2.043   3.145  0.7923 -1.1571  0.2293
  723SOL     OW 2309   1.481   0.764   0.406 -0.1253 -0.2707 -0.4048
  723SOL    HW1 2310   1.393   0.768   0.442 -0.9103 -0.5391 -2.2125
  723SOL    HW2 2311   1.516   0.680   0.435  0.0065  0.3144  1.2565
  724SOL     OW 2312   1.177   3.354   0.925 -0.6827 -0.0584 -0.1280
  724SOL    HW1 2313   1.211   3.364   1.014 -0.9110  2.6123 -0.2486
  724SOL    HW2 2314   1.117   3.428   0.914 -0.4641 -0.1626 -2.5841
  725SOL     OW 2315   0.684   0.544   2.547  0.2023 -0.4119 -0.2949
  725SOL    HW1 2316   0.708   0.479   2.481  3.5078 -2.1107  2.2460
  725SOL    HW2 2317   0.609   0.505   2.593  0.2165 -0.9651 -0.7331
  726SOL     OW 2318   2.601   2.581   1.258  0.0746  0.1137  0.8506
  726SOL    HW1 2319   2.539   2.614   1.193  0.2735  0.5925  0.8996
  726SOL    HW2 2320   2.686   2.611   1.227  0.2470 -0.2595  0.9596
  727SOL     OW 2321   2.504   2.882   0.665 -0.4546  0.4966  0.0141
  727SOL    HW1 2322   2.460   2.884   0.580 -1.2802 -1.5464  0.3183
  727SOL    HW2 2323   2.531   2.790   0.676 -2.3319  0.1368  2.8519
  728SOL     OW 2324   3.135   1.651   2.218  0.1166 -0.6853  0.1422
  728SOL    HW1 2325   3.118   1.595   2.294 -1.4397 -1.2872 -0.6090
  728SOL    HW2 2326   3.095   1.735   2.241 -1.2229 -1.1596 -0.3677
  729SOL     OW 2327   1.679   1.120   2.958  0.1724  0.0538 -0.2486
  729SOL    HW1 2328   1.664   1.213   2.974  2.6184  0.4730 -0.0607
  729SOL    HW2 2329   1.770   1.114   2.929  0.3746 -2.3730  0.5988
  730SOL     OW 2330   0.245   2.818   1.918  0.2309 -0.4165  0.8159
  730SOL    HW1 2331   0.255   2.867   2.000  0.9159 -0.1135  0.5563
  730SOL    HW2 2332   0.264   2.728   1.942 -0.3540 -0.4586  1.1515
  731SOL     OW 2333   2.717   0.902   3.715  0.1351 -0.0425  0.1626
  731SOL    HW1 2334   2.801   0.922   3.674  0.3604 -1.5721 -0.2000
  731SOL    HW2 2335   2.665   0.982   3.705  1.4359  0.8264  0.1312
  732SOL     OW 2336   0.640   0.830   2.725  0.6196  0.0852  0.3896
  732SOL    HW1 2337   0.668   0.750   2.681  0.5453 -0.2498  0.9388
  732SOL    HW2 2338   0.583   0.800   2.796 -0.3053  0.7032 -0.0778
  733SOL     OW 2339   0.991   2.300   0.949 -0.4937 -0.1515 -0.0874
  733SOL    HW1 2340   0.920   2.291   1.013  0.7903  2.4060  1.8448
  733SOL    HW2 2341   1.064   2.253   0.988 -0.1263  0.1460 -0.4100
  734SOL     OW 2342   1.263   0.104   2.641  0.3195 -0.0290 -0.3518
  734SOL    HW1 2343   1.183   0.066   2.605  1.6168 -1.3313 -1.9868
  734SOL    HW2 2344   1.277   0.184   2.591 -0.2294  0.5015  0.3200
  735SOL     OW 2345   2.656   1.773   1.157  0.5078  0.3766  0.0095
  735SOL    HW1 2346   2.607   1.813   1.086  1.2758 -1.0166 -1.3702
  735SOL    HW2 2347   2.619   1.812   1.236 -1.1662  1.1306 -1.0749
  736SOL     OW 2348   2.138   1.623   0.683 -0.6460 -0.0673 -0.2383
  736SOL    HW1 2349   2.189   1.543   0.668  0.3032  0.4418  0.1744
  736SOL    HW2 2350   2.162   1.650   0.772 -2.8587 -0.6606  0.6070
  737SOL     OW 2351   2.310   0.440   1.566 -0.2102  0.3451 -0.0149
  737SOL    HW1 2352   2.318   0.517   1.623  1.6318  0.4061 -0.3028
  737SOL    HW2 2353   2.328   0.366   1.624 -1.6419  0.1366  0.1858
  738SOL     OW 2354   2.846   2.684   0.771  0.0344  0.0300 -0.8800
  738SOL    HW1 2355   2.777   2.721   0.827  1.1163  0.9555 -0.1226
  738SOL    HW2 2356   2.819   2.706   0.682 -0.2060  1.1961 -0.5369
  739SOL     OW 2357   2.937   3.728   3.675 -0.3802  0.0614 -0.0509
  739SOL    HW1 2358   2.909   3.757   3.588  1.6758  1.7014 -0.2543
  739SOL    HW2 2359   3.001   3.658   3.658  1.0523  1.3079  0.0239
  740SOL     OW 2360   1.099   2.702   2.315  0.7109 -0.0521  0.2705
  740SOL    HW1 2361   1.186   2.730   2.287  0.1434  2.8732  1.0581
  740SOL    HW2 2362   1.059   2.781   2.352 -2.1164 -1.3949  0.3820
  741SOL     OW 2363   0.512   2.102   2.171 -0.5056 -0.0234 -0.2608
  741SOL    HW1 2364   0.460   2.182   2.181  0.2889  0.8534 -2.3959
  741SOL    HW2 2365   0.580   2.127   2.108  1.1435 -1.7607  0.7653
  742SOL     OW 2366   2.917   0.853   2.768  0.0613  0.0235  0.5709
  742SOL    HW1 2367   2.971   0.931   2.754 -0.8803  0.7674  0.9490
  742SOL    HW2 2368   2.829   0.888   2.785 -1.6516 -1.1269 -4.2033
  743SOL     OW 2369   0.737   0.964   1.870 -0.7884  0.1926  0.0752
  743SOL    HW1 2370   0.771   0.882   1.904 -0.5383  1.2287  2.5919
  743SOL    HW2 2371   0.650   0.942   1.837 -1.2081 -0.9218  1.7829
  744SOL     OW 2372   0.955   3.511   1.098 -0.5681 -0.3963  0.1807
  744SOL    HW1 2373   0.942   3.573   1.169 -1.6396 -0.5207  0.1002
  744SOL    HW2 2374   0.870   3.470   1.085 -0.3527 -0.4912 -1.0635
  745SOL     OW 2375   1.138   2.154   0.414 -0.2521 -0.1274 -0.5527
  745SOL    HW1 2376   1.137   2.237   0.365  0.4581 -0.2778 -0.8370
  745SOL    HW2 2377   1.143   2.180   0.506 -1.5418  0.1596 -0.5442
  746SOL     OW 2378   3.553   0.514   1.371  0.0966  0.2896 -0.2405
  746SOL    HW1 2379   3.625   0.575   1.356 -0.1211  0.3613 -1.1074
  746SOL    HW2 2380   3.534   0.478   1.284 -0.7112  0.0443  0.0250
  747SOL     OW 2381   2.069   3.503   1.666  0.0646 -0.5266  0.4743
  747SOL    HW1 2382   2.025   3.447   1.602 -1.6059  0.2321  0.9049
  747SOL    HW2 2383   2.056   3.458   1.750 -1.6758  0.6435  0.8890
  748SOL     OW 2384   0.278   2.594   0.815  0.2618 -0.1402 -0.0190
  748SOL    HW1 2385   0.300   2.665   0.876 -0.3479  0.6867 -0.7259
  748SOL    HW2 2386   0.218   2.635   0.752 -0.6047 -1.4623 -0.0805
  749SOL     OW 2387   2.020   0.938   2.172  0.1088 -0.1431 -0.1900
  749SOL    HW1 2388   2.107   0.922   2.134 -0.2343  0.1166 -1.1049
  749SOL    HW2 2389   1.986   1.012   2.122 -0.1745  0.5007  0.9400
  750SOL     OW 2390   0.535   1.031   1.134  0.0457  0.0602  0.0257
  750SOL    HW1 2391   0.518   1.115   1.091 -0.3992  0.6923  1.3771
  750SOL    HW2 2392   0.477   1.032   1.211 -0.3396 -1.7142 -0.2135
  751SOL     OW 2393   0.663   0.279   3.384 -0.4207 -0.6731 -0.4431
  751SOL    HW1 2394   0.581   0.268   3.432  0.8543 -2.8799  1.4799
  751SOL    HW2 2395   0.717   0.333   3.442 -0.0480 -0.4084 -1.0320
  752SOL     OW 2396   0.490   2.157   3.592 -0.6906  0.6359 -0.9108
  752SOL    HW1 2397   0.566   2.183   3.643 -0.6349  1.7200 -1.5256
  752SOL    HW2 2398   0.437   2.105   3.653  0.0455  0.7161 -0.1821
  753SOL     OW 2399   2.422   1.120   1.128 -0.2026  0.0884  0.0631
  753SOL    HW1 2400   2.384   1.086   1.047 -2.1151 -0.4905  1.1453
  753SOL    HW2 2401   2.418   1.215   1.118  0.3654  0.0371 -0.8373
  754SOL     OW 2402   0.571   2.697   0.071  0.2621  0.3370  0.7485
  754SOL    HW1 2403   0.646   2.642   0.049  1.5289  0.2099  4.6217
  754SOL    HW2 2404   0.595   2.785   0.043  0.8587 -0.0758 -0.0584
  755SOL     OW 2405   1.371   3.559   2.828 -0.2373  0.5740 -0.3746
  755SOL    HW1 2406   1.407   3.587   2.744  2.1467  0.7021  0.6129
  755SOL    HW2 2407   1.280   3.589   2.827 -0.3453  0.4027 -2.9513
  756SOL     OW 2408   1.767   0.932   0.184 -0.5053  0.1695 -0.2449
  756SOL    HW1 2409   1.705   0.986   0.136 -0.1707 -0.9858 -2.0436
  756SOL    HW2 2410   1.771   0.850   0.136  0.0803 -0.9494  1.6102
  757SOL     OW 2411   2.810   1.932   0.852  0.0743 -0.1121 -0.0507
  757SOL    HW1 2412   2.841   1.842   0.836  1.0970  0.0940  0.6465
  757SOL    HW2 2413   2.848   1.983   0.781 -0.2317 -0.1714 -0.2585
  758SOL     OW 2414   1.091   1.354   0.172  0.3833  0.4656  0.2351
  758SOL    HW1 2415   1.127   1.392   0.253  2.6420 -0.2130 -0.3756
  758SOL    HW2 2416   1.164   1.355   0.110 -1.0718  0.2404 -1.5767
  759SOL     OW 2417   2.589   1.834   2.432 -0.0255  0.7383  0.0835
  759SOL    HW1 2418   2.571   1.754   2.482 -1.4530  1.4464  0.7575
  759SOL    HW2 2419   2.616   1.898   2.498 -1.6179  1.5952 -0.0498
  760SOL     OW 2420   2.229   3.338   2.495 -0.1506 -0.2285  0.1032
  760SOL    HW1 2421   2.195   3.370   2.412 -1.1456  2.1443  1.3244
  760SOL    HW2 2422   2.311   3.294   2.473 -0.7189 -0.2484 -2.1646
  761SOL     OW 2423   2.421   0.064   2.024  0.2263  0.2057  0.2715
  761SOL    HW1 2424   2.494   0.008   1.996 -0.3938  0.2760 -1.6997
  761SOL    HW2 2425   2.457   0.152   2.025  0.4046  0.1344  0.1635
  762SOL     OW 2426   3.531   2.790   2.833  0.0873  0.6842 -0.3864
  762SOL    HW1 2427   3.557   2.741   2.755  1.2393  3.2296 -1.7264
  762SOL    HW2 2428   3.579   2.748   2.905  1.5701  0.2397 -1.5822
  763SOL     OW 2429   2.153   2.312   2.245  0.9104  0.1853 -0.0367
  763SOL    HW1 2430   2.180   2.371   2.315  1.5186  0.7885 -0.7662
  763SOL    HW2 2431   2.080   2.356   2.202 -1.0108 -1.1897  1.5754
  764SOL     OW 2432   2.880   0.302   3.712 -0.0640  0.1901 -0.0316
  764SOL    HW1 2433   2.926   0.378   3.676  0.0325 -0.0594 -0.4460
  764SOL    HW2 2434   2.905   0.230   3.654 -0.7990  0.0065 -0.1362
  765SOL     OW 2435   0.157   1.160   2.356 -0.1444  0.1553 -0.8027
  765SOL    HW1 2436   0.083   1.121   2.310  1.4042 -0.0602 -3.3271
  765SOL    HW2 2437   0.134   1.253   2.366 -0.5275  0.2111 -2.0916
  766SOL     OW 2438   1.097   1.182   3.267  0.1723 -0.3355 -0.0196
  766SOL    HW1 2439   1.048   1.157   3.345 -2.0032  0.6491 -0.9910
  766SOL    HW2 2440   1.108   1.277   3.275 -0.2755 -0.1921 -1.0087
  767SOL     OW 2441   0.966   0.034   3.463 -0.1149 -1.2419 -0.0758
  767SOL    HW1 2442   0.929   0.035   3.375  1.6423 -2.0917 -0.8513
  767SOL    HW2 2443   1.041   0.092   3.459  0.6739 -2.1859  0.5417
  768SOL     OW 2444   2.893   0.752   1.874 -0.3966 -0.8048 -0.4125
  768SOL    HW1 2445   2.894   0.660   1.901  0.2434 -0.7818 -0.3311
  768SOL    HW2 2446   2.809   0.786   1.905 -0.2181 -1.1112  0.4366
  769SOL     OW 2447   0.813   3.279   1.773  0.2145  0.2080 -0.9457
  769SOL    HW1 2448   0.826   3.370   1.800  0.6766 -0.0587 -0.2583
  769SOL    HW2 2449   0.899   3.251   1.741 -0.3171  0.5314 -2.8135
  770SOL     OW 2450   0.222   2.324   1.684 -0.1914  0.1457  0.6029
  770SOL    HW1 2451   0.152   2.267   1.717 -1.8262  1.8421  0.2015
  770SOL    HW2 2452   0.248   2.284   1.601 -1.2886 -0.0679  0.3428
  771SOL     OW 2453   1.187   3.291   1.771  0.1696 -0.1089 -0.2399
  771SOL    HW1 2454   1.148   3.370   1.734  1.5295  0.5425 -0.3441
  771SOL    HW2 2455   1.200   3.311   1.864  0.0381 -0.4109 -0.1540
  772SOL     OW 2456   2.529   1.558   1.354  0.7235 -0.1136  0.2398
  772SOL    HW1 2457   2.613   1.520   1.329  0.2710  0.4896 -2.4968
  772SOL    HW2 2458   2.552   1.645   1.388  1.3362 -0.7930  1.6534
  773SOL     OW 2459   3.317   3.244   0.952 -0.4078  0.2512 -0.0805
  773SOL    HW1 2460   3.223   3.256   0.937 -0.4309  0.8448  0.4835
  773SOL    HW2 2461   3.337   3.158   0.916 -0.8146  0.8460 -1.7997
  774SOL     OW 2462  -0.005   0.348   3.231 -0.1759 -0.5473 -0.3776
  774SOL    HW1 2463  -0.016   0.262   3.190  1.0895 -0.3359 -1.2038
  774SOL    HW2 2464   0.089   0.353   3.253 -0.2670  0.5468 -0.1627
  775SOL     OW 2465   2.102   2.475   0.282  0.1208  0.2290 -0.2010
  775SOL    HW1 2466   2.191   2.503   0.263 -0.2827  0.9872 -1.1252
  775SOL    HW2 2467   2.049   2.554   0.267 -0.6081  0.0261  1.1851
  776SOL     OW 2468   0.445   3.436   1.909 -0.3683  0.2893 -0.4671
  776SOL    HW1 2469   0.527   3.480   1.888 -1.9535  3.3249 -0.8341
  776SOL    HW2 2470   0.418   3.473   1.992 -1.3512 -0.7422 -0.3018
  777SOL     OW 2471   3.195   2.103   0.802  0.0177  0.1977  0.0866
  777SOL    HW1 2472   3.127   2.140   0.746 -0.3616  2.8899  2.1712
  777SOL    HW2 2473   3.254   2.176   0.821 -0.1963 -0.3539  3.6043
  778SOL     OW 2474   3.536   3.698   1.761  0.4990  0.4396 -0.1828
  778SOL    HW1 2475   3.550   3.700   1.666 -1.1714  0.1631 -0.4675
  778SOL    HW2 2476   3.508   3.608   1.779  0.7940  0.4951  0.5738
  779SOL     OW 2477   0.790   2.507   1.679  0.1668 -0.0704  0.2881
  779SOL    HW1 2478   0.770   2.567   1.608  2.8048  0.7036  0.0927
  779SOL    HW2 2479   0.706   2.466   1.701 -1.0554  1.1026 -1.9179
  780SOL     OW 2480   0.936   2.387   2.531 -0.4596  0.1615 -0.4277
  780SOL    HW1 2481   0.941   2.480   2.510 -0.2379  0.3410  0.3552
  780SOL    HW2 2482   0.878   2.383   2.607 -1.5436 -0.4953 -1.2797
  781SOL     OW 2483   1.648   3.442   0.237 -0.5991 -0.7162 -0.1745
  781SOL    HW1 2484   1.646   3.351   0.210  0.5592 -0.8178  0.0364
  781SOL    HW2 2485   1.697   3.487   0.168  0.4036 -0.5827  0.5983
  782SOL     OW 2486   3.274   3.725   1.493 -0.1560 -0.2677 -0.2474
  782SOL    HW1 2487   3.217   3.707   1.418  0.9448  1.3453 -1.5261
  782SOL    HW2 2488   3.214   3.733   1.567 -1.1954 -3.0842 -0.6266
  783SOL     OW 2489   1.020   1.675   3.668 -1.0649  0.4739  0.2593
  783SOL    HW1 2490   0.981   1.686   3.581 -0.3591  1.5587  0.0577
  783SOL    HW2 2491   1.096   1.733   3.668  0.0153 -0.8928  0.9682
  784SOL     OW 2492   2.151   2.532   2.009 -0.1997 -0.1418  0.1187
  784SOL    HW1 2493   2.183   2.443   2.024 -0.5904 -0.5339 -1.2341
  784SOL    HW2 2494   2.208   2.568   1.941 -0.1887  0.5693  0.4877
  785SOL     OW 2495   3.271   1.204   0.698  0.1824  0.5787 -0.0057
  785SOL    HW1 2496   3.229   1.179   0.780 -1.2383  0.7670 -0.6499
  785SOL    HW2 2497   3.363   1.215   0.721 -0.2962  1.3172  1.7134
  786SOL     OW 2498   2.976   3.021   1.410  0.4094  0.1340  0.3173
  786SOL    HW1 2499   2.914   3.087   1.440  0.1740 -0.5200  1.3073
  786SOL    HW2 2500   2.967   2.949   1.472  2.8756  0.4004  1.0931
  787SOL     OW 2501   3.585   3.367   1.073  0.1663  0.5177  0.2987
  787SOL    HW1 2502   3.517   3.329   1.017  0.0727 -1.7264  1.7988
  787SOL    HW2 2503   3.546   3.369   1.160  0.9633  2.1777  0.6558
  788SOL     OW 2504   1.662   1.929   1.634  0.2243  0.3205  0.0359
  788SOL    HW1 2505   1.623   1.858   1.584  1.2424 -0.3169  0.1273
  788SOL    HW2 2506   1.594   1.996   1.637 -1.5837 -1.4520  1.7420
  789SOL     OW 2507   2.574   3.349   1.728  0.0193  0.4603 -0.5972
  789SOL    HW1 2508   2.589   3.417   1.794  1.3514  0.0071 -0.4088
  789SOL    HW2 2509   2.502   3.297   1.763  0.7246  0.2110  0.5376
  790SOL     OW 2510   2.636   1.272   2.083 -0.5156 -0.6430  0.9246
  790SOL    HW1 2511   2.600   1.191   2.117  1.3424 -1.4335  1.1592
  790SOL    HW2 2512   2.718   1.246   2.041 -1.2188  0.7196 -1.5123
  791SOL     OW 2513   0.366   0.413   0.555 -0.1309  0.0822 -0.0268
  791SOL    HW1 2514   0.386   0.353   0.484  0.4396 -0.8446  0.8842
  791SOL    HW2 2515   0.388   0.500   0.521  1.0113 -0.4350 -0.6628
  792SOL     OW 2516   3.225   2.165   0.524  0.6184  0.1394  0.1805
  792SOL    HW1 2517   3.263   2.242   0.566  2.0397 -0.7844  0.6522
  792SOL    HW2 2518   3.300   2.112   0.498 -0.3260 -1.0476 -0.2324
  793SOL     OW 2519   3.006   1.234   0.038  0.4660 -0.0514 -0.2340
  793SOL    HW1 2520   2.916   1.265   0.034  0.7435  0.6555 -1.1288
  793SOL    HW2 2521   3.000   1.142   0.011 -0.0373 -0.1413  0.1551
  794SOL     OW 2522   3.530   2.097   0.772  0.2764  0.0756  0.0489
  794SOL    HW1 2523   3.501   2.144   0.850 -0.7437  0.4915 -0.5676
  794SOL    HW2 2524   3.619   2.128   0.757  0.1988  0.5813  0.5963
  795SOL     OW 2525   2.865   1.330   2.678 -0.2799  0.4609 -0.0056
  795SOL    HW1 2526   2.884   1.312   2.586  1.0549 -1.7790  0.5974
  795SOL    HW2 2527   2.900   1.418   2.693  0.6742  0.3520 -1.3527
  796SOL     OW 2528   2.421   1.684   2.080 -0.2888  0.2574  0.1877
  796SOL    HW1 2529   2.400   1.599   2.041 -0.7733  0.5968 -0.3072
  796SOL    HW2 2530   2.502   1.711   2.037 -0.8157  0.6263 -0.5881
  797SOL     OW 2531   2.020   1.378   2.939 -0.1139  0.2607  0.2431
  797SOL    HW1 2532   2.015   1.286   2.913  2.7389  0.5727 -1.8345
  797SOL    HW2 2533   2.113   1.393   2.957 -0.2816  3.0639 -0.8378
  798SOL     OW 2534   1.854   2.060   2.586 -0.1618  0.1516  1.2607
  798SOL    HW1 2535   1.803   1.995   2.539  1.4235 -2.5124  2.9632
  798SOL    HW2 2536   1.790   2.108   2.640 -1.2711 -0.5171  0.5623
  799SOL     OW 2537   2.029   2.042   2.381  0.2192  0.1292 -0.3796
  799SOL    HW1 2538   1.994   2.048   2.470 -1.2301  1.4335 -1.0043
  799SOL    HW2 2539   2.083   2.120   2.371  1.8918 -0.9181 -0.0831
  800SOL     OW 2540   3.696   3.005   3.651 -0.5183 -0.6346  0.3680
  800SOL    HW1 2541   3.681   3.099   3.649 -2.4079 -0.8143  2.0604
  800SOL    HW2 2542   3.770   2.990   3.592 -0.4172  1.8385 -0.2190
  801SOL     OW 2543   3.318   0.238   2.621  0.4065 -0.3356 -0.3629
  801SOL    HW1 2544   3.248   0.196   2.670 -2.3453  2.3418 -1.6669
  801SOL    HW2 2545   3.298   0.219   2.529 -0.3743  2.7198 -0.9294
  802SOL     OW 2546   3.524   0.436   1.644  0.6529  0.0641  0.7258
  802SOL    HW1 2547   3.438   0.407   1.675  0.6837 -1.1491 -0.2848
  802SOL    HW2 2548   3.511   0.454   1.551  1.6178 -0.6525  0.4449
  803SOL     OW 2549   3.275   3.527   0.977  0.0462  0.8788 -0.4171
  803SOL    HW1 2550   3.182   3.528   0.956 -0.1032  0.0749  0.1344
  803SOL    HW2 2551   3.305   3.440   0.949  0.9703  1.6532 -1.9472
  804SOL     OW 2552   3.625   0.507   3.472  0.0123 -0.5942  0.1149
  804SOL    HW1 2553   3.648   0.521   3.565  1.5940  1.0091 -0.4413
  804SOL    HW2 2554   3.710   0.501   3.428 -0.7065 -0.1198 -1.3908
  805SOL     OW 2555   1.913   1.608   2.828 -0.4291  0.1025 -0.3770
  805SOL    HW1 2556   1.953   1.532   2.872 -1.3121 -1.1431 -1.6350
  805SOL    HW2 2557   1.950   1.606   2.740  0.1633  1.6633 -0.1863
  806SOL     OW 2558   1.819   2.940   1.504  0.6895 -0.0681 -0.0919
  806SOL    HW1 2559   1.807   3.018   1.559  0.2908  0.5478 -1.0115
  806SOL    HW2 2560   1.813   2.866   1.565  0.9303  0.6090  0.7794
  807SOL     OW 2561   1.211   1.993   1.634  0.4436 -0.7900  0.2664
  807SOL    HW1 2562   1.132   1.950   1.602  1.6256 -2.7135 -0.2358
  807SOL    HW2 2563   1.273   1.986   1.560  0.5226  2.4525 -0.1304
  808SOL     OW 2564   3.299   0.817   3.091 -0.8015  0.3372  0.2321
  808SOL    HW1 2565   3.308   0.771   3.007 -0.0457  0.6977  0.1005
  808SOL    HW2 2566   3.307   0.910   3.068 -2.4943  0.5808  0.4642
  809SOL     OW 2567   1.439   3.127   2.649  0.3213 -0.0946  0.3969
  809SOL    HW1 2568   1.387   3.132   2.570  0.8047  1.1394  0.1412
  809SOL    HW2 2569   1.464   3.034   2.656 -0.9818 -0.4925 -0.0484
  810SOL     OW 2570   0.272   2.018   0.284 -0.5277 -0.6183  0.0405
  810SOL    HW1 2571   0.189   2.021   0.333  0.9697 -1.4502  2.8532
  810SOL    HW2 2572   0.300   1.926   0.291  0.9301 -0.2225 -0.2726
  811SOL     OW 2573   1.816   1.736   3.155  0.6641  0.3516  0.6036
  811SOL    HW1 2574   1.816   1.768   3.065  0.0983  0.6724  0.7150
  811SOL    HW2 2575   1.748   1.669   3.157  1.7381 -0.7757  0.4105
  812SOL     OW 2576   1.985   2.646   0.100  0.4524 -1.0479  0.0064
  812SOL    HW1 2577   1.893   2.664   0.081  0.6396 -1.1806 -1.1152
  812SOL    HW2 2578   2.001   2.560   0.062  0.7088 -1.6379  1.3958
  813SOL     OW 2579   2.485   2.382   2.122  0.0344 -0.1187  0.1385
  813SOL    HW1 2580   2.468   2.320   2.192  0.1585  1.2418  1.4298
  813SOL    HW2 2581   2.572   2.418   2.142  0.1536  0.1615 -0.8150
  814SOL     OW 2582   1.223   1.892   0.036  0.0369 -0.3908  0.1086
  814SOL    HW1 2583   1.266   1.969  -0.001  0.9649 -1.1190 -0.3717
  814SOL    HW2 2584   1.148   1.928   0.084  0.8454  0.8757  0.5006
  815SOL     OW 2585   1.118   0.826   2.011 -1.0998 -0.5536 -0.5674
  815SOL    HW1 2586   1.040   0.845   2.061  0.0910 -0.6527  1.4264
  815SOL    HW2 2587   1.168   0.908   2.011  0.0488 -1.2121  0.5987
  816SOL     OW 2588   2.580   1.861   3.501  0.0827 -0.1320  0.5447
  816SOL    HW1 2589   2.567   1.912   3.422  1.5313  1.1390  1.0865
  816SOL    HW2 2590   2.516   1.790   3.494 -0.4387  0.4602 -1.3057
  817SOL     OW 2591   0.793   3.668   2.688 -0.6007  0.1184  0.4017
  817SOL    HW1 2592   0.741   3.592   2.663 -1.3570  0.2651  1.4558
  817SOL    HW2 2593   0.741   3.743   2.658 -1.0591  0.2686  1.5234
  818SOL     OW 2594   1.304   3.552   0.044  0.0157 -0.0291 -0.0617
  818SOL    HW1 2595   1.360   3.603   0.102 -1.9809  1.0613  1.0167
  818SOL    HW2 2596   1.220   3.547   0.090 -0.7357 -1.8124 -1.4827
  819SOL     OW 2597   2.059   2.963   2.357  0.1447 -0.5115  0.4669
  819SOL    HW1 2598   2.145   2.999   2.336 -0.4506  0.4270 -0.4338
  819SOL    HW2 2599   2.078   2.875   2.392  1.5380  0.2462  1.7127
  820SOL     OW 2600   1.679   1.368   1.633 -1.0386  0.1601 -0.1430
  820SOL    HW1 2601   1.644   1.404   1.552  0.3672  0.5126 -0.6219
  820SOL    HW2 2602   1.638   1.419   1.703  0.5223  2.3810 -0.7770
  821SOL     OW 2603   0.792   0.947   1.210  0.6443  0.0423 -0.1687
  821SOL    HW1 2604   0.774   0.855   1.193 -0.7425 -0.1620  2.0011
  821SOL    HW2 2605   0.715   0.993   1.178  0.3907  0.2042  0.6561
  822SOL     OW 2606   2.916   1.215   1.057 -0.1791 -0.0292 -0.0159
  822SOL    HW1 2607   2.851   1.277   1.091  0.2306  1.9742 -2.5794
  822SOL    HW2 2608   2.890   1.200   0.966  1.7173 -0.8737 -0.4713
  823SOL     OW 2609   0.973   1.100   0.336  0.1677 -0.2459  0.3298
  823SOL    HW1 2610   0.968   1.129   0.427 -1.5248 -1.7058  0.7682
  823SOL    HW2 2611   1.042   1.154   0.297 -0.5012  1.8810  1.9104
  824SOL     OW 2612   0.758   2.525   3.648  0.5989  0.0021  0.8437
  824SOL    HW1 2613   0.753   2.473   3.568  2.9542  0.0826  0.5603
  824SOL    HW2 2614   0.772   2.614   3.618  0.5551  0.1739  1.3271
  825SOL     OW 2615   1.574   0.908   1.774  0.2856 -0.3961 -0.7571
  825SOL    HW1 2616   1.593   0.821   1.810 -2.6869  0.4236  3.5841
  825SOL    HW2 2617   1.629   0.968   1.824 -1.3824  0.5182  0.1021
  826SOL     OW 2618   2.733   0.349   1.325  0.3429  0.3917 -0.2038
  826SOL    HW1 2619   2.672   0.410   1.366 -1.5753 -1.6153  0.0839
  826SOL    HW2 2620   2.814   0.357   1.376  0.8100  3.8870 -1.2492
  827SOL     OW 2621   1.803   0.963   1.168 -0.2826  0.2443  0.6584
  827SOL    HW1 2622   1.715   0.998   1.154  0.4387  1.7398 -0.3812
  827SOL    HW2 2623   1.845   1.025   1.228  0.2705 -0.1075  0.6430
  828SOL     OW 2624   3.280   3.187   3.047 -0.9110  0.0916 -0.1951
  828SOL    HW1 2625   3.189   3.200   3.020 -0.4428 -0.7319 -2.3631
  828SOL    HW2 2626   3.301   3.099   3.017  0.7045  0.4039 -0.0316
  829SOL     OW 2627   2.407   2.954   1.182 -0.2987 -0.2575  0.1728
  829SOL    HW1 2628   2.342   2.883   1.181 -1.8666  1.1166 -0.1751
  829SOL    HW2 2629   2.442   2.956   1.093  0.1606 -0.9324  0.3306
  830SOL     OW 2630   0.146   3.467   1.736  0.3551 -0.2017 -0.1687
  830SOL    HW1 2631   0.050   3.462   1.736  0.2834 -0.5109 -3.1145
  830SOL    HW2 2632   0.171   3.444   1.826 -2.2170 -3.4016 -0.0788
  831SOL     OW 2633   3.153   1.691   3.252 -0.5683 -0.2875 -0.4882
  831SOL    HW1 2634   3.245   1.665   3.257 -0.5876 -0.4653 -1.0277
  831SOL    HW2 2635   3.105   1.609   3.261 -0.7337 -0.0114  1.5564
  832SOL     OW 2636   0.516   1.551   1.120 -0.5199  0.1791  0.5690
  832SOL    HW1 2637   0.558   1.481   1.170  1.8786  0.9960 -0.1535
  832SOL    HW2 2638   0.517   1.627   1.178 -1.9566 -0.0234  0.8924
  833SOL     OW 2639   3.056   3.187   0.370  0.7491 -0.1997  0.0581
  833SOL    HW1 2640   3.037   3.259   0.430  0.5509 -0.0991 -0.1238
  833SOL    HW2 2641   3.036   3.222   0.284  0.8596 -0.4034 -0.0505
  834SOL     OW 2642   1.128   0.270   2.835 -0.5366  0.3725  0.3504
  834SOL    HW1 2643   1.181   0.190   2.839  0.0535  0.7834  0.9197
  834SOL    HW2 2644   1.174   0.326   2.773 -1.2730  0.0591 -0.5128
  835SOL     OW 2645   2.175   1.631   0.313 -0.2774  0.0600  0.2055
  835SOL    HW1 2646   2.153   1.586   0.395  1.1927 -1.8350 -0.3668
  835SOL    HW2 2647   2.178   1.562   0.247 -0.0111  1.3338 -1.1772
  836SOL     OW 2648   2.876   0.987   1.349 -0.5947  0.5684  0.2231
  836SOL    HW1 2649   2.869   0.893   1.367  0.4535 -0.0447 -2.1563
  836SOL    HW2 2650   2.847   0.996   1.258 -1.6097  2.7370  0.6842
  837SOL     OW 2651   1.288   1.035   1.101  0.0508  0.1829  0.4740
  837SOL    HW1 2652   1.212   0.985   1.134 -0.2095  1.2565  1.5634
  837SOL    HW2 2653   1.348   0.968   1.068 -1.2986 -0.7004 -0.2811
  838SOL     OW 2654   1.876   3.403   2.892 -0.0681 -0.3070 -0.1176
  838SOL    HW1 2655   1.970   3.422   2.888 -0.2938  0.8292 -0.3817
  838SOL    HW2 2656   1.860   3.349   2.814 -0.1082  1.8526 -1.7020
  839SOL     OW 2657   0.267   1.445   3.547 -0.4111 -0.1419 -0.4352
  839SOL    HW1 2658   0.186   1.394   3.548  0.5582 -1.7739 -0.4882
  839SOL    HW2 2659   0.264   1.497   3.627 -0.0010 -2.7735  1.4335
  840SOL     OW 2660   2.869   2.932   2.431 -0.0384  0.3457  0.4038
  840SOL    HW1 2661   2.848   3.013   2.384  1.0653  0.0490 -0.6670
  840SOL    HW2 2662   2.792   2.877   2.422  0.7014 -0.3804 -2.6356
  841SOL     OW 2663   2.055   3.587   0.137 -0.6208 -0.7746  0.3716
  841SOL    HW1 2664   2.062   3.681   0.122 -1.2903 -0.7167  0.4234
  841SOL    HW2 2665   2.004   3.579   0.217 -1.4238 -1.2006 -0.1729
  842SOL     OW 2666   1.819   3.651   2.660 -0.0555 -0.5084  0.1465
  842SOL    HW1 2667   1.741   3.626   2.710 -0.3014 -1.7759 -0.8071
  842SOL    HW2 2668   1.869   3.707   2.719 -1.8266  0.5722  0.6788
  843SOL     OW 2669   1.096   2.303   3.659  0.4692  0.1928 -0.2580
  843SOL    HW1 2670   1.038   2.236   3.623  0.6459  0.0560 -0.2908
  843SOL    HW2 2671   1.070   2.383   3.614 -1.2042  0.6089  1.3237
  844SOL     OW 2672   3.393   0.986  -0.012 -0.2628 -0.4815 -0.4379
  844SOL    HW1 2673   3.464   1.037   0.027 -0.8464  0.0062  0.0013
  844SOL    HW2 2674   3.364   0.927   0.057 -0.1278 -0.8552 -0.6935
  845SOL     OW 2675   0.116   2.041   3.358  0.2259  0.0057 -0.5591
  845SOL    HW1 2676   0.201   2.075   3.329  0.5817 -0.5944 -0.2360
  845SOL    HW2 2677   0.075   2.008   3.278  0.5733 -0.2947 -0.6117
  846SOL     OW 2678   2.264   3.415   2.203 -0.0777 -0.2815 -0.1632
  846SOL    HW1 2679   2.251   3.507   2.222  0.9888 -0.5071  1.9131
  846SOL    HW2 2680   2.354   3.409   2.172  0.6481 -0.8688  1.9171
  847SOL     OW 2681   3.102   3.484   3.677 -0.3875 -0.5935 -0.1974
  847SOL    HW1 2682   3.115   3.515   3.766 -0.9287 -0.9033 -0.0012
  847SOL    HW2 2683   3.110   3.389   3.684 -1.5186 -0.7043 -0.2704
  848SOL     OW 2684   1.727   3.413   0.781  0.2318  0.2514 -0.3104
  848SOL    HW1 2685   1.643   3.417   0.735 -0.7458 -0.4067  1.3570
  848SOL    HW2 2686   1.767   3.331   0.752 -0.7599 -0.5817  0.5945
  849SOL     OW 2687   0.573   3.510   0.281  0.0126  0.2989  0.1414
  849SOL    HW1 2688   0.596   3.594   0.319 -1.2432  0.4354  0.6397
  849SOL    HW2 2689   0.520   3.532   0.204  2.5045  0.0298 -1.7748
  850SOL     OW 2690   1.470   3.652   2.577  0.3086  0.3989  0.4212
  850SOL    HW1 2691   1.550   3.669   2.527 -0.4010 -0.8434 -1.2262
  850SOL    HW2 2692   1.430   3.738   2.588  2.4828  1.2636  2.4966
  851SOL     OW 2693   0.404   2.941   2.247 -0.9871 -0.2660 -0.2868
  851SOL    HW1 2694   0.496   2.961   2.261 -1.0266 -0.5067  0.3619
  851SOL    HW2 2695   0.404   2.862   2.192 -0.7351 -2.0215  2.0730
  852SOL     OW 2696   0.598   2.613   2.564 -0.4727  0.1844  0.2705
  852SOL    HW1 2697   0.605   2.640   2.473 -1.7426  0.3627  0.1983
  852SOL    HW2 2698   0.549   2.531   2.561 -0.1368 -0.0394  0.7644
  853SOL     OW 2699   0.847   2.149   0.256  0.0525 -0.4593 -0.0357
  853SOL    HW1 2700   0.929   2.103   0.274  0.7471  0.4450 -0.7726
  853SOL    HW2 2701   0.803   2.154   0.340  0.4856 -1.4559  0.2679
  854SOL     OW 2702   2.354   0.072   3.139 -0.0508 -0.6329  0.3930
  854SOL    HW1 2703   2.443   0.099   3.161 -0.5571 -0.2919  2.1686
  854SOL    HW2 2704   2.301   0.100   3.214 -1.0394 -4.2952  1.2749
  855SOL     OW 2705   1.296   1.335   2.739 -0.5256  0.1918  0.0947
  855SOL    HW1 2706   1.271   1.424   2.764 -0.1197  0.5156 -0.5977
  855SOL    HW2 2707   1.378   1.347   2.691 -0.5461 -0.5428 -0.1254
  856SOL     OW 2708   1.508   1.717   1.523 -0.0352  0.3791  0.0898
  856SOL    HW1 2709   1.506   1.627   1.493  1.7742  0.5237 -0.5718
  856SOL    HW2 2710   1.445   1.762   1.466  0.5346 -0.0869 -0.9294
  857SOL     OW 2711   2.666   0.614   2.230 -0.3429 -0.1742  0.1927
  857SOL    HW1 2712   2.685   0.664   2.310  0.7068 -0.0123 -0.1444
  857SOL    HW2 2713   2.594   0.556   2.255 -0.2114  0.0683  1.1765
  858SOL     OW 2714   1.535   0.965   3.284  0.0782  0.1539 -0.2651
  858SOL    HW1 2715   1.504   0.896   3.226 -0.2913  1.1982 -1.3587
  858SOL    HW2 2716   1.577   0.919   3.356 -1.6575 -1.2453 -0.0829
  859SOL     OW 2717   1.882   1.576   2.262 -0.1821 -0.2866 -0.0146
  859SOL    HW1 2718   1.969   1.584   2.223  1.3777 -1.9011  2.7984
  859SOL    HW2 2719   1.882   1.640   2.334 -1.6083  0.1842 -0.4009
  860SOL     OW 2720   3.428   0.292   0.686 -0.6631  0.2251 -0.0004
  860SOL    HW1 2721   3.417   0.227   0.754  0.3116  1.3329  1.2855
  860SOL    HW2 2722   3.490   0.252   0.624 -1.6497 -0.8313 -0.3445
  861SOL     OW 2723   0.051   1.930   0.419 -0.2437 -1.0623  0.0639
  861SOL    HW1 2724   0.034   1.860   0.481 -0.0932 -1.2117 -0.0613
  861SOL    HW2 2725   0.045   2.010   0.471  2.6640 -1.2880  0.9492
  862SOL     OW 2726   1.494   0.133   1.784  0.2604  0.2360  0.1164
  862SOL    HW1 2727   1.477   0.107   1.693 -2.5185  1.2191  0.2409
  862SOL    HW2 2728   1.514   0.227   1.778 -1.4346  0.6660  0.5733
  863SOL     OW 2729   0.863   3.186   2.774  0.4489  0.3424 -0.5695
  863SOL    HW1 2730   0.882   3.264   2.825 -1.5848  0.6076 -0.1287
  863SOL    HW2 2731   0.948   3.154   2.746  1.5067  1.2379  1.4373
  864SOL     OW 2732   2.747   1.090   2.720  0.2946 -0.4250  0.5503
  864SOL    HW1 2733   2.754   1.185   2.718 -0.8825 -0.3117  0.9554
  864SOL    HW2 2734   2.696   1.071   2.799  0.2131 -1.3624  0.2891
  865SOL     OW 2735   2.434   2.451   3.157 -0.6436  0.9730  0.0348
  865SOL    HW1 2736   2.515   2.401   3.149  1.0162  3.2601  1.2367
  865SOL    HW2 2737   2.399   2.428   3.243  0.6432  2.4637  1.0166
  866SOL     OW 2738   2.399   0.641   1.731  0.2191  0.7101  0.2521
  866SOL    HW1 2739   2.359   0.722   1.700 -4.9041 -0.7347  2.1034
  866SOL    HW2 2740   2.415   0.655   1.824  1.8862  0.3619  0.0659
  867SOL     OW 2741   0.080   1.582   2.867  0.3448 -0.1736  0.6913
  867SOL    HW1 2742   0.074   1.579   2.963  1.2815 -3.4878  0.7722
  867SOL    HW2 2743   0.013   1.520   2.837 -0.4749  1.4125 -0.8949
  868SOL     OW 2744   2.887   2.828   0.140 -0.1311 -0.2755  0.5046
  868SOL    HW1 2745   2.903   2.768   0.067 -1.7669 -0.0433 -0.0608
  868SOL    HW2 2746   2.942   2.793   0.211  1.0942 -0.7905 -0.6551
  869SOL     OW 2747   2.287   1.995   0.817  0.8052  0.0905  0.4748
  869SOL    HW1 2748   2.299   1.905   0.845  0.9073  0.0784  0.3926
  869SOL    HW2 2749   2.374   2.034   0.823  0.5832  0.4552  1.4500
  870SOL     OW 2750   3.482   1.958   2.897 -0.6882 -0.1030  0.3792
  870SOL    HW1 2751   3.453   2.048   2.913  0.2716 -0.0936  2.3486
  870SOL    HW2 2752   3.408   1.904   2.922 -1.6832  0.1165 -1.8733
  871SOL     OW 2753   3.579   0.879   1.040 -1.1430  0.3912  0.0103
  871SOL    HW1 2754   3.513   0.845   1.100  2.4932 -1.3624  3.4989
  871SOL    HW2 2755   3.601   0.965   1.076 -1.0584  0.6955 -0.7500
  872SOL     OW 2756   2.796   2.681   0.501 -0.8129  0.4256 -0.1991
  872SOL    HW1 2757   2.786   2.605   0.444  2.9780  0.7720 -1.6450
  872SOL    HW2 2758   2.789   2.756   0.442 -0.0594  0.9595  0.3635
  873SOL     OW 2759   0.852   0.335   1.043  0.2503 -0.0397  0.3077
  873SOL    HW1 2760   0.888   0.247   1.042  1.2061  0.3089  1.5107
  873SOL    HW2 2761   0.929   0.393   1.044 -0.2516  0.7227  2.8034
  874SOL     OW 2762   1.705   2.527   2.566 -0.3350 -0.1806 -0.9607
  874SOL    HW1 2763   1.765   2.598   2.590 -0.3592 -0.0284 -1.3439
  874SOL    HW2 2764   1.629   2.571   2.527 -1.5686 -0.2424  1.2373
  875SOL     OW 2765   3.618   1.118   1.146  0.5128  0.9053 -0.6043
  875SOL    HW1 2766   3.713   1.126   1.139  0.5686  1.6586  0.6599
  875SOL    HW2 2767   3.588   1.203   1.180 -0.1035 -0.5483  2.9778
  876SOL     OW 2768   2.697   0.286   2.979 -0.3682 -0.5019 -0.2993
  876SOL    HW1 2769   2.609   0.320   2.997 -0.9802 -1.2025 -1.8267
  876SOL    HW2 2770   2.744   0.298   3.061 -1.5253  1.0063  0.1919
  877SOL     OW 2771   0.844   2.267   2.308  0.5465 -0.1070  0.4060
  877SOL    HW1 2772   0.853   2.316   2.226  1.7326  0.6972  0.9736
  877SOL    HW2 2773   0.888   2.322   2.373  0.0027 -0.9316  1.4972
  878SOL     OW 2774   1.388   2.868   1.110  0.3568  0.5435 -0.5683
  878SOL    HW1 2775   1.438   2.947   1.129  0.0679  0.3157  1.4245
  878SOL    HW2 2776   1.303   2.900   1.079  1.1200  0.9456 -2.3308
  879SOL     OW 2777   3.540   3.435   3.606  0.4927 -0.4999 -0.0590
  879SOL    HW1 2778   3.476   3.475   3.664 -0.2843 -1.9277  0.1357
  879SOL    HW2 2779   3.624   3.467   3.636  0.0259 -0.3718  1.1736
  880SOL     OW 2780   0.390   2.125   1.211 -0.4989  0.0613 -0.0682
  880SOL    HW1 2781   0.419   2.047   1.164 -4.8120 -2.7372  1.3337
  880SOL    HW2 2782   0.315   2.157   1.161 -0.5614  1.5823  0.9428
  881SOL     OW 2783   1.129   3.631   0.815  0.3109 -0.0654 -1.0631
  881SOL    HW1 2784   1.183   3.614   0.737  1.3392  0.3947 -0.4702
  881SOL    HW2 2785   1.190   3.622   0.888 -0.4899  0.2194 -0.3539
  882SOL     OW 2786   0.729   2.786   1.549 -0.3230 -0.5277 -0.1651
  882SOL    HW1 2787   0.702   2.865   1.501 -0.9378 -0.3962  0.3775
  882SOL    HW2 2788   0.783   2.819   1.620 -2.5952 -0.2992  1.5752
  883SOL     OW 2789   3.296   1.779   3.599  0.0755 -0.0514 -0.6726
  883SOL    HW1 2790   3.374   1.810   3.552 -0.6798 -0.0763 -1.9911
  883SOL    HW2 2791   3.243   1.858   3.612  0.1708 -0.0863 -0.0695
  884SOL     OW 2792   3.390   2.351   0.746  0.1761 -0.1415  0.2178
  884SOL    HW1 2793   3.421   2.400   0.670 -2.4872 -0.7076 -1.3478
  884SOL    HW2 2794   3.403   2.411   0.820  2.8705  0.3949 -0.5767
  885SOL     OW 2795   2.845   1.856   2.602  0.1806 -0.3293 -0.8059
  885SOL    HW1 2796   2.928   1.808   2.588  0.0296 -0.1689 -2.4946
  885SOL    HW2 2797   2.801   1.807   2.671  1.5780 -0.5483 -0.0186
  886SOL     OW 2798   1.168   0.406   3.587  0.1281  0.2241 -0.3204
  886SOL    HW1 2799   1.256   0.443   3.580  0.0779  0.5852  0.7506
  886SOL    HW2 2800   1.158   0.354   3.508  0.8916  1.0528 -0.9936
  887SOL     OW 2801   1.048   0.163   0.727 -0.0674  1.0924 -0.1332
  887SOL    HW1 2802   1.071   0.079   0.768  1.9422  1.4410 -0.4557
  887SOL    HW2 2803   0.952   0.161   0.721 -0.1286 -0.7613  0.7344
  888SOL     OW 2804   3.456   0.758   0.783  0.2042  0.0153  0.0844
  888SOL    HW1 2805   3.497   0.672   0.770  0.3159  0.2863 -1.4933
  888SOL    HW2 2806   3.487   0.786   0.870 -0.6568 -1.9617  1.0957
  889SOL     OW 2807   3.606   3.523   0.500  0.0736 -0.2201  0.3278
  889SOL    HW1 2808   3.544   3.554   0.435  2.1258  0.9554 -1.2206
  889SOL    HW2 2809   3.603   3.589   0.569  0.1375  0.2518 -0.1136
  890SOL     OW 2810   0.876   0.345   2.792  0.3285  0.3744  0.2148
  890SOL    HW1 2811   0.953   0.310   2.836 -0.0740 -1.6005 -0.5666
  890SOL    HW2 2812   0.887   0.319   2.701 -1.3387 -0.0919  0.1211
  891SOL     OW 2813   0.081   3.562   3.665  0.2729 -0.6979  0.5976
  891SOL    HW1 2814   0.143   3.596   3.602  1.7904 -0.9518  1.8777
  891SOL    HW2 2815   0.037   3.639   3.701 -0.1717 -0.5168 -0.3251
  892SOL     OW 2816   0.875   0.386   2.135  0.4322 -0.3212 -0.2342
  892SOL    HW1 2817   0.933   0.462   2.139 -0.9821  0.8062 -0.3357
  892SOL    HW2 2818   0.906   0.336   2.059  1.9546 -0.3744  0.3829
  893SOL     OW 2819   3.470   0.870   2.007 -0.2165 -0.7605 -0.6536
  893SOL    HW1 2820   3.406   0.894   1.940 -0.7802 -0.4802 -0.0309
  893SOL    HW2 2821   3.544   0.928   1.993 -0.5594 -0.3295 -0.6963
  894SOL     OW 2822   2.806   3.413   3.700  0.6482 -0.2363  0.0120
  894SOL    HW1 2823   2.879   3.462   3.738  0.4567 -0.7216  1.0360
  894SOL    HW2 2824   2.825   3.411   3.606  2.2212 -0.7729  0.3117
  895SOL     OW 2825   1.962   1.913   2.799  0.4804  0.0939 -0.7342
  895SOL    HW1 2826   1.926   1.962   2.725 -0.0656 -0.9950 -1.2075
  895SOL    HW2 2827   1.899   1.843   2.815 -0.3129  1.2479  1.8853
  896SOL     OW 2828   1.997   2.382   1.323 -0.4244  0.2505  0.1175
  896SOL    HW1 2829   2.007   2.335   1.240  0.1662  1.4632 -0.5489
  896SOL    HW2 2830   2.054   2.335   1.384  0.6584  0.4442 -0.6944
  897SOL     OW 2831   0.792   1.444   0.048 -0.2784  0.0310 -0.0957
  897SOL    HW1 2832   0.861   1.501   0.082 -2.3411  1.4457  2.0471
  897SOL    HW2 2833   0.775   1.477  -0.040  0.6682  0.7128 -0.0441
  898SOL     OW 2834   1.181   3.672   1.285  0.9480 -0.0234  0.2351
  898SOL    HW1 2835   1.101   3.718   1.260  1.1378 -0.8392 -2.0459
  898SOL    HW2 2836   1.155   3.581   1.294  1.9042 -0.6290 -2.3801
  899SOL     OW 2837   0.823   2.685   0.694  0.1301  0.3878  0.2029
  899SOL    HW1 2838   0.859   2.723   0.613  0.1450 -0.7229 -0.3266
  899SOL    HW2 2839   0.729   2.683   0.678 -0.0064  1.4264  0.7797
  900SOL     OW 2840   2.828   0.581   3.527  0.2635 -0.2156 -0.0290
  900SOL    HW1 2841   2.908   0.610   3.571  0.4911 -0.0164 -0.5766
  900SOL    HW2 2842   2.758   0.601   3.590  0.4942  0.8251 -0.0789
  901SOL     OW 2843   1.777   2.952   3.608 -0.2071  0.6693  0.0751
  901SOL    HW1 2844   1.866   2.953   3.645 -0.0117  0.2090 -0.3590
  901SOL    HW2 2845   1.791   2.937   3.515 -0.7962 -1.6468  0.2990
  902SOL     OW 2846   0.284   0.189   3.125  0.3946  0.1519 -0.1441
  902SOL    HW1 2847   0.380   0.196   3.125  0.4915 -0.7652 -1.4156
  902SOL    HW2 2848   0.267   0.102   3.162  0.0459  0.3658  0.1993
  903SOL     OW 2849   2.871   3.690   1.255  0.1880  0.3498 -0.4901
  903SOL    HW1 2850   2.829   3.773   1.235 -1.6802 -0.5068 -0.3098
  903SOL    HW2 2851   2.831   3.662   1.338  1.0272 -0.5590 -0.3715
  904SOL     OW 2852   1.432   1.324   2.314 -0.3795  0.0978 -0.8368
  904SOL    HW1 2853   1.519   1.296   2.284 -1.3913 -1.5440 -2.4198
  904SOL    HW2 2854   1.372   1.257   2.281 -2.1719  0.6987  0.9939
  905SOL     OW 2855   2.744   2.182   0.238 -0.4055  0.6479  0.3098
  905SOL    HW1 2856   2.767   2.127   0.163 -2.6789 -1.1899  0.8443
  905SOL    HW2 2857   2.784   2.139   0.313 -1.1931  0.3869  0.5856
  906SOL     OW 2858   0.488  -0.016   0.806 -0.3996  0.0570 -0.0856
  906SOL    HW1 2859   0.444   0.044   0.746 -0.4009  1.3401  1.1285
  906SOL    HW2 2860   0.448   0.003   0.891  1.6269  0.3871  0.8443
  907SOL     OW 2861   2.949   3.518   2.633 -0.1084 -0.2641  0.2020
  907SOL    HW1 2862   2.974   3.500   2.724  1.3610 -1.7484 -0.4264
  907SOL    HW2 2863   2.972   3.437   2.586  0.9856  1.1395 -1.8201
  908SOL     OW 2864   0.741   0.559   0.751 -0.6497 -0.6337  0.6274
  908SOL    HW1 2865   0.748   0.612   0.830 -0.8414 -1.0743  0.9429
  908SOL    HW2 2866   0.826   0.516   0.743  0.0824  0.9438 -0.5204
  909SOL     OW 2867   2.696   3.235   0.562  0.0517  0.2941 -0.0061
  909SOL    HW1 2868   2.625   3.271   0.508  0.0992  0.4734  0.0509
  909SOL    HW2 2869   2.657   3.225   0.649  0.3538  1.2333  0.2447
  910SOL     OW 2870   1.417   0.148   2.861  0.3412 -0.1724 -0.1256
  910SOL    HW1 2871   1.381   0.096   2.788 -0.6985  0.6672 -0.2462
  910SOL    HW2 2872   1.442   0.083   2.927 -0.0205 -0.8781 -0.6667
  911SOL     OW 2873   3.608   0.799   3.519 -0.4644 -0.2628  0.1216
  911SOL    HW1 2874   3.571   0.863   3.458 -2.0431 -0.3570  0.9180
  911SOL    HW2 2875   3.534   0.743   3.542  0.7159 -1.9504  0.0085
  912SOL     OW 2876   1.689   2.817   2.802 -0.9639  0.0134 -0.4945
  912SOL    HW1 2877   1.689   2.862   2.718 -0.7022 -1.5453 -1.3670
  912SOL    HW2 2878   1.766   2.851   2.847  0.9174 -1.5695 -2.3038
  913SOL     OW 2879   1.635   2.652   1.351  0.5426  0.1088  0.4777
  913SOL    HW1 2880   1.545   2.685   1.357  0.6955  1.2745 -2.0660
  913SOL    HW2 2881   1.626   2.562   1.320  0.2310  0.7683 -1.4475
  914SOL     OW 2882   3.233   1.487   3.011  0.3517 -0.3147 -0.4387
  914SOL    HW1 2883   3.256   1.441   2.930 -0.9916 -0.7888 -0.5646
  914SOL    HW2 2884   3.173   1.555   2.983 -0.6876 -0.9322  0.2383
  915SOL     OW 2885   3.210   2.072   3.631 -0.1401 -0.3944 -0.6808
  915SOL    HW1 2886   3.208   2.070   3.727  0.5509 -2.3963 -0.6547
  915SOL    HW2 2887   3.118   2.062   3.605 -0.1649 -1.6737 -0.1845
  916SOL     OW 2888   2.684   0.586   3.094 -0.7705  0.3419  0.0729
  916SOL    HW1 2889   2.726   0.536   3.024 -1.1180 -2.1896  1.5605
  916SOL    HW2 2890   2.646   0.662   3.050  3.0031  1.4334 -1.7512
  917SOL     OW 2891   1.201   0.144   1.075  0.0807  0.2256 -0.1768
  917SOL    HW1 2892   1.111   0.127   1.050  0.2609 -0.3593 -0.4522
  917SOL    HW2 2893   1.203   0.134   1.170  0.0502 -0.7285 -0.2676
  918SOL     OW 2894   1.097   1.548   0.580 -0.0096 -0.2721  0.2249
  918SOL    HW1 2895   1.156   1.528   0.508  0.6119 -1.5165  1.0490
  918SOL    HW2 2896   1.037   1.474   0.584 -0.3744  0.0352  0.6637
  919SOL     OW 2897   2.867   2.248   0.812  0.6522  0.2112 -0.1069
  919SOL    HW1 2898   2.794   2.234   0.752  0.6434 -1.6348  0.3046
  919SOL    HW2 2899   2.913   2.323   0.774 -0.4731  0.3401 -1.3173
  920SOL     OW 2900   1.216   3.053   0.258  0.3249 -0.1473  0.9113
  920SOL    HW1 2901   1.224   2.968   0.214  0.4545 -0.2848  1.1954
  920SOL    HW2 2902   1.301   3.065   0.301 -0.3486 -0.7747  2.4827
  921SOL     OW 2903   1.584   3.421   0.509  0.5801  0.1271 -0.1062
  921SOL    HW1 2904   1.593   3.326   0.519 -2.1507 -0.2809 -0.7585
  921SOL    HW2 2905   1.613   3.438   0.419  1.9165  0.0777  0.2984
  922SOL     OW 2906   1.684   1.086   2.217 -0.5442 -0.3247  0.0774
  922SOL    HW1 2907   1.728   1.169   2.196 -0.2897 -0.4534  0.0943
  922SOL    HW2 2908   1.684   1.082   2.312 -1.5248  0.1664  0.1049
  923SOL     OW 2909   3.522   2.223   0.530  0.3020 -0.0843  0.4503
  923SOL    HW1 2910   3.614   2.200   0.525  0.5700  0.7455  1.2259
  923SOL    HW2 2911   3.493   2.189   0.615  0.4355  1.4157  1.1321
  924SOL     OW 2912   1.421   3.039   2.365  0.0099  0.0150  0.2368
  924SOL    HW1 2913   1.437   3.060   2.273  0.6723 -1.1920  0.0628
  924SOL    HW2 2914   1.360   2.965   2.363 -1.6145  1.2574  0.8306
  925SOL     OW 2915   3.234   2.289   3.249  0.0372 -0.1224  0.5394
  925SOL    HW1 2916   3.154   2.278   3.197  0.0941 -1.2934  0.6743
  925SOL    HW2 2917   3.212   2.356   3.313 -0.3432  0.6593 -0.3824
  926SOL     OW 2918   1.393   0.218   3.217 -0.3533 -0.2083  1.0075
  926SOL    HW1 2919   1.428   0.266   3.292 -1.2446 -1.2774  2.1538
  926SOL    HW2 2920   1.471   0.180   3.175  0.2379  1.1668  0.8133
  927SOL     OW 2921   3.250   1.060   3.497 -0.0707 -0.4340  0.0837
  927SOL    HW1 2922   3.309   1.062   3.421 -2.3852 -1.1570 -1.8624
  927SOL    HW2 2923   3.307   1.038   3.571  2.6600  2.3011 -0.9893
  928SOL     OW 2924   3.067   3.437   1.227 -0.3581  0.4652 -0.7541
  928SOL    HW1 2925   3.002   3.425   1.296  0.8995  1.3939  0.6311
  928SOL    HW2 2926   3.091   3.348   1.201 -0.9393  0.1060 -0.1097
  929SOL     OW 2927   0.337   0.652   2.559  0.3271 -0.1191 -0.0450
  929SOL    HW1 2928   0.381   0.709   2.497  0.5701 -0.6056 -0.3280
  929SOL    HW2 2929   0.265   0.613   2.509  0.7209 -0.7622 -0.1208
  930SOL     OW 2930   3.556   2.425   0.340  0.4254  0.2432  0.3252
  930SOL    HW1 2931   3.570   2.350   0.398 -0.4330 -0.0901  0.1179
  930SOL    HW2 2932   3.480   2.400   0.286  1.4851  0.3344 -1.2787
  931SOL     OW 2933   3.402   0.562   2.421 -0.5109 -0.0212 -0.3357
  931SOL    HW1 2934   3.447   0.645   2.406  2.0703 -0.9761  1.4626
  931SOL    HW2 2935   3.334   0.560   2.353 -0.9403  3.6556 -0.2561
  932SOL     OW 2936   2.425   3.625   2.748 -0.0586  0.7519  0.6285
  932SOL    HW1 2937   2.349   3.652   2.696 -1.3310  1.5710  2.8045
  932SOL    HW2 2938   2.468   3.707   2.772  2.2133  0.2764 -1.4316
  933SOL     OW 2939   2.284   1.859   2.523  0.4341  0.8611 -0.1397
  933SOL    HW1 2940   2.196   1.837   2.495  0.9907 -1.9498  0.0466
  933SOL    HW2 2941   2.275   1.943   2.567 -2.0949  0.7273 -0.2658
  934SOL     OW 2942   3.551   1.384   1.224 -0.1097 -0.0705  0.4686
  934SOL    HW1 2943   3.617   1.416   1.286 -1.4373  0.3325  1.7294
  934SOL    HW2 2944   3.468   1.402   1.267 -1.0795  0.0455 -1.3786
  935SOL     OW 2945   1.155   1.734   0.983  0.0594  0.5683  0.3633
  935SOL    HW1 2946   1.162   1.668   1.053  0.7493  0.4821  0.2195
  935SOL    HW2 2947   1.093   1.696   0.921 -0.5564  0.6404  0.9182
  936SOL     OW 2948   3.186   1.588   0.152 -0.2854 -0.4086  0.5987
  936SOL    HW1 2949   3.240   1.517   0.117  1.0045  0.8179 -0.0195
  936SOL    HW2 2950   3.222   1.605   0.239  2.3913  2.2879 -0.8405
  937SOL     OW 2951   0.569   3.270   0.013 -0.2670 -0.4790  0.3718
  937SOL    HW1 2952   0.644   3.328   0.016 -1.0141  0.6250 -0.9253
  937SOL    HW2 2953   0.504   3.311   0.070 -1.9050  1.7605 -2.7834
  938SOL     OW 2954   2.485   2.943   3.720 -0.1649  0.0342 -0.3306
  938SOL    HW1 2955   2.470   2.978   3.632 -1.7638  2.6833  0.8828
  938SOL    HW2 2956   2.577   2.962   3.738  0.6185 -1.8775 -1.8767
  939SOL     OW 2957   2.737   1.713   2.819 -0.3698 -0.8142 -0.6795
  939SOL    HW1 2958   2.650   1.738   2.851  0.6577  2.4989 -0.1765
  939SOL    HW2 2959   2.786   1.691   2.898  0.9263  3.3354 -0.0859
  940SOL     OW 2960   1.307   0.956   1.413  0.4812  0.4731  0.4624
  940SOL    HW1 2961   1.261   1.011   1.349 -0.7312 -0.1349  0.7835
  940SOL    HW2 2962   1.364   0.900   1.360  0.5132  0.9188  0.0207
  941SOL     OW 2963   0.168   1.388   1.446 -0.2696  0.1931 -0.5172
  941SOL    HW1 2964   0.186   1.375   1.539  1.9608  0.8017 -0.8041
  941SOL    HW2 2965   0.186   1.481   1.431 -1.1720  0.2287 -1.4546
  942SOL     OW 2966   2.249   1.666   0.926 -0.0826  0.2223 -0.2126
  942SOL    HW1 2967   2.329   1.664   0.874  0.0487  1.7070 -0.1261
  942SOL    HW2 2968   2.278   1.681   1.016 -0.4362  0.6005 -0.1534
  943SOL     OW 2969   1.366   1.694   1.243 -0.2788  0.2470 -1.2030
  943SOL    HW1 2970   1.276   1.666   1.229 -0.3740  0.3820 -0.8699
  943SOL    HW2 2971   1.419   1.623   1.207 -0.5165  0.1410 -1.3455
  944SOL     OW 2972   3.107   2.393   1.004 -0.0889 -0.5474 -0.1736
  944SOL    HW1 2973   3.094   2.421   0.913 -2.1692 -0.7747  0.0107
  944SOL    HW2 2974   3.192   2.429   1.028 -0.1233  0.7105 -1.7638
  945SOL     OW 2975   1.086   3.378   3.107  0.2029 -0.3797  0.1875
  945SOL    HW1 2976   1.165   3.342   3.067  0.4542 -0.4568  0.7494
  945SOL    HW2 2977   1.102   3.375   3.201  0.1221  0.9242  0.2739
  946SOL     OW 2978   2.658   0.512   1.789  0.2163  0.0570  0.3873
  946SOL    HW1 2979   2.615   0.451   1.849  0.1829 -0.4151 -0.1177
  946SOL    HW2 2980   2.596   0.584   1.780 -0.7898 -0.9201 -0.8531
  947SOL     OW 2981   2.862   2.633   3.683 -0.5458  0.1155 -0.0907
  947SOL    HW1 2982   2.795   2.566   3.692 -0.8430  0.2447 -1.2603
  947SOL    HW2 2983   2.858   2.660   3.592 -0.1095  1.3993  0.2434
  948SOL     OW 2984   0.881   1.434   1.613  0.6522 -0.0308 -0.4220
  948SOL    HW1 2985   0.842   1.455   1.528 -1.4116  0.8190  0.6661
  948SOL    HW2 2986   0.832   1.357   1.644 -0.4024  1.1693  1.0544
  949SOL     OW 2987   2.457   0.602   3.351  0.3427 -0.4501  0.3408
  949SOL    HW1 2988   2.452   0.636   3.440  2.0798  1.7401 -0.3061
  949SOL    HW2 2989   2.463   0.680   3.296 -0.4426 -1.7509 -1.6889
  950SOL     OW 2990   3.416   1.645   3.324 -0.2491 -0.2830 -0.0059
  950SOL    HW1 2991   3.451   1.635   3.235  1.4832 -1.5717  0.7709
  950SOL    HW2 2992   3.458   1.723   3.359 -1.9484  1.0239 -0.7111
  951SOL     OW 2993   1.284   1.794   0.653 -0.2269 -0.0375 -0.1441
  951SOL    HW1 2994   1.227   1.720   0.633 -0.3578 -0.7293  2.4614
  951SOL    HW2 2995   1.283   1.847   0.573 -0.5912 -2.5083 -1.8925
  952SOL     OW 2996   1.411   3.088   3.626 -0.0484 -0.9572 -0.4653
  952SOL    HW1 2997   1.432   2.994   3.623  0.7373 -0.8549  0.8860
  952SOL    HW2 2998   1.467   3.126   3.558  2.0357 -1.1045  1.0455
  953SOL     OW 2999   0.419   0.619   3.474  0.6322  1.1878 -0.1829
  953SOL    HW1 3000   0.450   0.535   3.509  1.3905  3.0004  3.9991
  953SOL    HW2 3001   0.327   0.623   3.500  0.8378  2.0303  0.4259
  954SOL     OW 3002   3.492   1.136   2.742  0.1866  0.1236 -0.2468
  954SOL    HW1 3003   3.415   1.121   2.688  0.3695  1.8148 -1.0646
  954SOL    HW2 3004   3.566   1.106   2.688  0.3368  1.4757 -0.8476
  955SOL     OW 3005   0.060   0.081   0.017 -0.0511  0.6092 -0.4657
  955SOL    HW1 3006   0.050   0.042   0.103  1.2508  0.0363 -0.5532
  955SOL    HW2 3007  -0.007   0.149   0.013  0.6317  1.4422  1.4432
  956SOL     OW 3008   0.227   0.487   2.944  0.1248  0.0714  0.0001
  956SOL    HW1 3009   0.228   0.544   3.022 -0.2412 -0.5761  0.4818
  956SOL    HW2 3010   0.135   0.468   2.929  0.1658  0.4523 -0.7993
  957SOL     OW 3011   0.452   1.721   3.546 -0.6566  0.8000  0.3487
  957SOL    HW1 3012   0.376   1.716   3.487 -0.1209  0.5335 -0.3325
  957SOL    HW2 3013   0.433   1.658   3.615 -1.0143  0.6582  0.1244
  958SOL     OW 3014   3.524   1.559   0.573  0.7752 -0.0596 -0.1475
  958SOL    HW1 3015   3.432   1.548   0.595  0.3835  0.8318 -1.2803
  958SOL    HW2 3016   3.546   1.481   0.522  0.6378 -0.2489  0.0816
  959SOL     OW 3017   2.161   0.670   1.931 -0.0455 -0.5141  0.4477
  959SOL    HW1 3018   2.107   0.592   1.947 -2.0543  0.6203 -0.3646
  959SOL    HW2 3019   2.100   0.733   1.893  1.7582  1.1095  0.1171
  960SOL     OW 3020   0.916   1.177   1.347  0.2143 -0.0855  0.6542
  960SOL    HW1 3021   0.846   1.164   1.410 -1.9888  2.0389 -1.1505
  960SOL    HW2 3022   0.884   1.137   1.266 -0.4496  3.4397 -1.0420
  961SOL     OW 3023   1.234   2.681   1.267 -0.3414  0.0635 -0.1308
  961SOL    HW1 3024   1.292   2.725   1.205 -0.7783 -0.1165 -0.6802
  961SOL    HW2 3025   1.149   2.682   1.224 -0.6644 -0.0111  0.5005
  962SOL     OW 3026   0.796   1.543   1.848  0.2210  0.1763 -0.4118
  962SOL    HW1 3027   0.772   1.480   1.917  1.2515  0.8481  0.5958
  962SOL    HW2 3028   0.843   1.490   1.784 -1.7060 -0.6792 -1.2084
  963SOL     OW 3029   3.592   3.669   3.282  0.1048 -0.9594  0.2341
  963SOL    HW1 3030   3.575   3.588   3.234 -0.9726 -0.2704 -0.6053
  963SOL    HW2 3031   3.635   3.725   3.218  0.6662 -0.8008  0.7506
  964SOL     OW 3032   1.550   2.384   1.232 -0.0581 -0.0525 -0.2380
  964SOL    HW1 3033   1.566   2.323   1.160 -0.4055 -1.0632  0.5198
  964SOL    HW2 3034   1.594   2.344   1.308  2.7719  2.3548 -0.4119
  965SOL     OW 3035   2.179   1.427   0.140  0.3642 -0.3108  0.1832
  965SOL    HW1 3036   2.157   1.352   0.196  1.5013 -0.1536  0.8596
  965SOL    HW2 3037   2.108   1.430   0.076 -0.0002 -1.6170  0.4948
  966SOL     OW 3038   0.468   0.442   2.661 -0.2487 -0.3711  1.0173
  966SOL    HW1 3039   0.400   0.375   2.670 -0.1032 -0.4296  1.7575
  966SOL    HW2 3040   0.423   0.517   2.622 -0.1103 -1.3632 -1.1556
  967SOL     OW 3041   0.790   1.319   3.061 -0.3703  0.4908 -0.2491
  967SOL    HW1 3042   0.730   1.387   3.032  2.3131  2.4954 -1.5888
  967SOL    HW2 3043   0.844   1.300   2.984  0.1069 -1.9212  0.5871
  968SOL     OW 3044   3.490   3.220   3.480  0.3632 -0.2161  0.1314
  968SOL    HW1 3045   3.491   3.152   3.547 -1.7930 -0.7529 -0.2951
  968SOL    HW2 3046   3.512   3.301   3.528 -1.9999 -0.4262  1.7636
  969SOL     OW 3047   0.299   0.272   2.785  0.2954  0.5145 -0.3085
  969SOL    HW1 3048   0.247   0.200   2.821 -1.1499 -0.6046 -4.0980
  969SOL    HW2 3049   0.296   0.340   2.852 -1.3835 -1.6019  1.9396
  970SOL     OW 3050   1.969   2.818   1.036 -0.4071  0.7402  0.6581
  970SOL    HW1 3051   1.995   2.889   0.978  0.0797  0.7380  0.8682
  970SOL    HW2 3052   2.049   2.795   1.083 -0.0828 -1.1819 -0.6978
  971SOL     OW 3053   3.438   3.657   0.361 -0.5631  0.1479  0.4831
  971SOL    HW1 3054   3.405   3.746   0.374 -1.7105 -0.2884  0.6821
  971SOL    HW2 3055   3.361   3.607   0.333  0.5116 -0.3240 -1.8048
  972SOL     OW 3056   3.050   1.283   3.502 -0.6309  0.7519  0.2593
  972SOL    HW1 3057   3.055   1.310   3.593 -3.0281 -1.6597  1.2707
  972SOL    HW2 3058   3.118   1.216   3.493 -0.5782  0.7874  0.3931
  973SOL     OW 3059   2.748   2.995   3.399 -0.0102 -0.3030  0.0583
  973SOL    HW1 3060   2.740   3.084   3.434 -0.9516 -1.2021  2.3251
  973SOL    HW2 3061   2.732   3.005   3.305  0.2466  1.9444  0.1892
  974SOL     OW 3062   2.421   3.508   0.746  0.4283  0.1694 -0.4104
  974SOL    HW1 3063   2.477   3.480   0.819  0.5275  1.0262 -0.1427
  974SOL    HW2 3064   2.434   3.603   0.742  1.9477 -0.0589 -2.7901
  975SOL     OW 3065   0.470   2.361   2.507 -0.9090  0.2862  0.0114
  975SOL    HW1 3066   0.464   2.282   2.454  0.5742  0.8005 -1.0062
  975SOL    HW2 3067   0.380   2.384   2.528 -1.3426 -2.1745  1.1376
  976SOL     OW 3068   2.429   0.887   3.256 -0.3596  0.1861 -0.4745
  976SOL    HW1 3069   2.405   0.930   3.173  1.8250 -0.5108 -1.5475
  976SOL    HW2 3070   2.349   0.889   3.308 -1.5067  1.6435 -2.1695
  977SOL     OW 3071   2.056   2.485   3.121 -0.1815 -0.0616 -0.6200
  977SOL    HW1 3072   2.006   2.405   3.136 -0.8613  0.5402  0.3976
  977SOL    HW2 3073   2.115   2.463   3.049 -2.1608 -0.6784 -2.1426
  978SOL     OW 3074   2.075   0.626   2.655  0.2774 -0.0915  0.1725
  978SOL    HW1 3075   2.099   0.683   2.728 -0.2582  1.9797 -1.1485
  978SOL    HW2 3076   2.024   0.556   2.695  2.1778 -0.4970  2.0679
  979SOL     OW 3077   0.760   0.614   0.272  0.2625 -0.5701 -0.2211
  979SOL    HW1 3078   0.850   0.579   0.266 -0.4367 -2.2498 -3.4493
  979SOL    HW2 3079   0.704   0.540   0.249 -1.8203  0.9566 -0.3559
  980SOL     OW 3080   2.993  -0.017   0.495 -0.1948 -0.1607 -0.4981
  980SOL    HW1 3081   2.939  -0.031   0.417 -0.7779 -1.3407  0.1038
  980SOL    HW2 3082   3.004   0.078   0.499  2.0405 -0.1129 -3.4922
  981SOL     OW 3083   1.633   0.390   2.470 -0.5058 -0.2508 -0.0853
  981SOL    HW1 3084   1.615   0.306   2.427 -1.4101  0.4123 -1.0558
  981SOL    HW2 3085   1.561   0.401   2.532 -0.0461 -0.4691  0.4995
  982SOL     OW 3086   0.038   0.913   3.697 -0.3272  0.2669 -0.2493
  982SOL    HW1 3087  -0.036   0.892   3.640 -0.8996  2.0837 -0.2395
  982SOL    HW2 3088   0.080   0.989   3.655  0.1246  0.7116  0.9654
  983SOL     OW 3089   2.426   2.312   0.700 -0.7900 -0.1402  0.1304
  983SOL    HW1 3090   2.360   2.372   0.665 -1.6443 -1.2816 -0.2887
  983SOL    HW2 3091   2.421   2.324   0.795 -0.0809  1.3136  0.0042
  984SOL     OW 3092   0.688   1.041   0.472  0.2064  0.1214 -0.5273
  984SOL    HW1 3093   0.700   1.072   0.562 -0.0650  0.2102 -0.5207
  984SOL    HW2 3094   0.771   0.999   0.450 -0.3218 -1.4574  0.3792
  985SOL     OW 3095   0.202   1.670   1.382  0.1135 -0.0257 -0.3044
  985SOL    HW1 3096   0.123   1.721   1.398  1.0638  1.9158 -1.4691
  985SOL    HW2 3097   0.254   1.680   1.462 -1.0722 -1.9615  0.7905
  986SOL     OW 3098   2.922   1.410   3.058 -0.3820  0.4436 -0.1299
  986SOL    HW1 3099   2.942   1.319   3.038 -0.5433 -0.2325  2.4001
  986SOL    HW2 3100   2.977   1.431   3.134 -1.3813  1.9813  0.2180
  987SOL     OW 3101   1.089   2.585   2.849  0.4622 -0.0042  0.4751
  987SOL    HW1 3102   1.084   2.662   2.906  0.2126 -0.0784  0.5530
  987SOL    HW2 3103   1.038   2.518   2.894 -1.8622  0.6648 -0.9875
  988SOL     OW 3104   1.376   1.603   1.974  0.1218  0.2309  0.2950
  988SOL    HW1 3105   1.303   1.630   1.919 -0.1304 -0.1604  0.4268
  988SOL    HW2 3106   1.355   1.638   2.061 -0.6028 -1.0044  0.6542
  989SOL     OW 3107   0.536   2.990   0.494 -0.1454 -0.4024 -0.0918
  989SOL    HW1 3108   0.536   2.929   0.420 -0.0447 -1.3649  0.6865
  989SOL    HW2 3109   0.627   3.015   0.505 -0.3746  1.3796 -1.5647
  990SOL     OW 3110   1.918   1.241   3.222  0.1697  0.0161 -0.3617
  990SOL    HW1 3111   1.849   1.306   3.235  0.1689 -0.1612  0.6293
  990SOL    HW2 3112   1.982   1.285   3.166  0.2874  0.9789  0.4913
  991SOL     OW 3113   0.855   2.673   2.215 -0.1739 -0.1140 -0.6760
  991SOL    HW1 3114   0.864   2.653   2.122 -0.5293  0.5232 -0.8522
  991SOL    HW2 3115   0.945   2.685   2.246 -0.0768  0.0878 -1.0292
  992SOL     OW 3116   2.307   0.983   2.005  0.5250  0.6551 -0.0516
  992SOL    HW1 3117   2.358   1.025   2.075 -0.5804  0.7046  0.7396
  992SOL    HW2 3118   2.367   0.980   1.930  1.7377  0.5668  0.9047
  993SOL     OW 3119   3.158   1.311   1.173  0.4253  0.4518 -0.0106
  993SOL    HW1 3120   3.076   1.277   1.139  0.9408 -2.0297  1.0010
  993SOL    HW2 3121   3.225   1.254   1.135  1.4938  1.2298  0.6608
  994SOL     OW 3122   0.165   0.615   0.830  0.0717 -0.4848  0.2178
  994SOL    HW1 3123   0.143   0.523   0.849  0.1058 -0.3957  0.7039
  994SOL    HW2 3124   0.253   0.610   0.792  0.0725 -0.6560  0.2374
  995SOL     OW 3125   3.720   3.238   3.352 -0.1528 -0.2238  0.1982
  995SOL    HW1 3126   3.631   3.237   3.387 -0.5814  0.9169 -0.8272
  995SOL    HW2 3127   3.776   3.227   3.429 -1.1306  0.4715  1.0299
  996SOL     OW 3128   1.992   3.204   1.006  0.1054 -0.2584  0.4540
  996SOL    HW1 3129   2.045   3.280   0.980  0.0890  0.3627  2.1124
  996SOL    HW2 3130   2.036   3.130   0.965  2.0689  0.2845  1.4076
  997SOL     OW 3131   2.241   1.261   2.615  0.3719 -0.2019 -0.5072
  997SOL    HW1 3132   2.149   1.288   2.608 -0.0005 -1.3538 -0.2962
  997SOL    HW2 3133   2.286   1.339   2.647 -0.1590  1.0174 -2.5275
  998SOL     OW 3134   1.786   2.274   3.216  0.6317  0.1403  0.3044
  998SOL    HW1 3135   1.775   2.224   3.135  3.4010  1.8402 -1.3281
  998SOL    HW2 3136   1.727   2.348   3.206  0.2974 -0.1286  0.2708
  999SOL     OW 3137   0.075   3.576   2.264 -0.4013  0.0784  0.0270
  999SOL    HW1 3138   0.021   3.580   2.185 -0.2847 -2.1931 -0.2361
  999SOL    HW2 3139   0.013   3.563   2.335 -0.3403 -4.5251 -0.4702
 1000SOL     OW 3140   3.336   2.532   0.151  0.9685 -0.1312  0.0626
 1000SOL    HW1 3141   3.259   2.552   0.097  0.1498 -2.4186  0.2777
 1000SOL    HW2 3142   3.328   2.439   0.170  3.2925 -0.2034  0.9522
 1001SOL     OW 3143   2.031   1.288   0.342 -0.4244 -0.0244  0.3322
 1001SOL    HW1 3144   1.945   1.246   0.343 -0.8280  0.7461 -0.5258
 1001SOL    HW2 3145   2.093   1.217   0.326 -1.0427 -0.3856 -0.5426
 1002SOL     OW 3146   1.452   0.279   0.314  0.3624 -0.2034 -0.4842
 1002SOL    HW1 3147   1.419   0.189   0.321 -0.2400  0.0214 -0.4058
 1002SOL    HW2 3148   1.397   0.329   0.374 -1.0201  0.6782 -2.3758
 1003SOL     OW 3149   2.064   3.103   1.382 -0.8589  0.1091  0.8614
 1003SOL    HW1 3150   2.078   3.072   1.292  0.6539 -0.2257  1.1826
 1003SOL    HW2 3151   2.024   3.028   1.427 -2.4463  0.5655  0.2903
 1004SOL     OW 3152   1.017   1.422   2.901 -0.1294  0.0663 -0.3856
 1004SOL    HW1 3153   0.949   1.365   2.865 -0.7077  0.9250 -0.6628
 1004SOL    HW2 3154   1.052   1.469   2.826 -0.0785  0.5337 -0.0724
 1005SOL     OW 3155   1.053   2.127   2.573  0.2107  0.1175 -0.1253
 1005SOL    HW1 3156   0.996   2.201   2.553  0.8358  0.4606 -0.6803
 1005SOL    HW2 3157   1.139   2.153   2.539  0.3929 -0.9412 -0.4890
 1006SOL     OW 3158   2.040   3.012   0.605  0.8400 -0.4171  0.6383
 1006SOL    HW1 3159   2.112   2.996   0.544  0.6919  0.4505  0.2168
 1006SOL    HW2 3160   1.960   2.998   0.553  0.7129  0.4102  0.5911
 1007SOL     OW 3161   0.539   1.795   2.699  0.0074 -0.2975  0.0799
 1007SOL    HW1 3162   0.482   1.856   2.747  0.8067 -0.5531  1.4026
 1007SOL    HW2 3163   0.618   1.845   2.680  0.7964 -0.9488  1.4428
 1008SOL     OW 3164   1.439   3.526   1.882  0.2684  0.5807  0.3773
 1008SOL    HW1 3165   1.350   3.514   1.916 -0.7877 -0.7698 -2.5658
 1008SOL    HW2 3166   1.435   3.608   1.832  0.2355 -0.1823 -0.9146
 1009SOL     OW 3167   1.182   0.354   0.889  0.0621 -0.5201 -0.3302
 1009SOL    HW1 3168   1.148   0.310   0.811  0.8514 -0.8532 -0.4996
 1009SOL    HW2 3169   1.177   0.288   0.958 -1.4088  0.0349  0.1148
 1010SOL     OW 3170   1.491   1.210   1.434  0.1020  0.0426 -0.2592
 1010SOL    HW1 3171   1.433   1.154   1.485 -0.1190  1.5276  1.2174
 1010SOL    HW2 3172   1.556   1.151   1.396 -0.3878 -1.2453  0.8508
 1011SOL     OW 3173   2.868   1.512   1.300 -0.2768 -0.1087  0.0945
 1011SOL    HW1 3174   2.887   1.555   1.383 -1.2084  0.0212  0.2559
 1011SOL    HW2 3175   2.911   1.567   1.235 -0.0197  0.1087  0.4458
 1012SOL     OW 3176   2.458   1.627   3.459  0.0641 -0.0420  0.4614
 1012SOL    HW1 3177   2.410   1.599   3.537  2.4922  1.1347  2.5212
 1012SOL    HW2 3178   2.490   1.546   3.419  0.7431 -0.5862  2.0471
 1013SOL     OW 3179   2.633   1.706   1.907  0.3713 -0.2373 -0.1037
 1013SOL    HW1 3180   2.681   1.624   1.917  0.0316 -0.6855 -1.9396
 1013SOL    HW2 3181   2.697   1.774   1.927  0.5935 -0.9195  1.6843
 1014SOL     OW 3182   1.623   1.227   3.337  0.4944 -0.1059 -0.2169
 1014SOL    HW1 3183   1.597   1.135   3.344 -1.5852  0.4692  0.3935
 1014SOL    HW2 3184   1.581   1.257   3.256  2.2629  0.0197 -1.1403
 1015SOL     OW 3185   2.817   1.854   0.327  0.1407  0.1826 -0.6330
 1015SOL    HW1 3186   2.868   1.805   0.263  0.3895  1.1926 -1.2229
 1015SOL    HW2 3187   2.858   1.835   0.411 -1.2692 -2.6017 -0.4584
 1016SOL     OW 3188   2.520   1.584   0.496 -0.1936 -0.3880  0.3352
 1016SOL    HW1 3189   2.595   1.557   0.550 -0.2201 -1.1370  0.0102
 1016SOL    HW2 3190   2.482   1.502   0.465  0.0508  0.0279 -1.1276
 1017SOL     OW 3191   1.519   1.485   0.437  0.3265 -0.0839  0.2343
 1017SOL    HW1 3192   1.476   1.486   0.523 -1.8211 -0.5720 -0.7628
 1017SOL    HW2 3193   1.548   1.576   0.424  0.6611  0.0046  1.4390
 1018SOL     OW 3194   3.686   1.009   2.031  0.0807 -0.0814  0.1168
 1018SOL    HW1 3195   3.646   1.031   2.116 -2.9620  0.1002 -1.2386
 1018SOL    HW2 3196   3.780   1.020   2.046 -0.2839 -0.4218  3.5555
 1019SOL     OW 3197   3.009   1.322   1.978 -0.0099 -0.2186  0.0816
 1019SOL    HW1 3198   2.950   1.303   1.905 -0.4335  0.4357  0.2420
 1019SOL    HW2 3199   2.970   1.276   2.053 -0.0095 -0.2387  0.0696
 1020SOL     OW 3200   1.569   3.471   3.431  0.6237 -0.8474  0.3654
 1020SOL    HW1 3201   1.522   3.473   3.348  0.6988 -0.6981  0.3250
 1020SOL    HW2 3202   1.505   3.441   3.495  0.1037  0.5790  0.5431
 1021SOL     OW 3203   2.108   3.397   1.961  0.2417  0.0114  0.2541
 1021SOL    HW1 3204   2.150   3.480   1.937  1.9806 -1.0326 -0.4727
 1021SOL    HW2 3205   2.164   3.360   2.029 -0.2896 -0.7694  0.2749
 1022SOL     OW 3206   2.911   0.759   0.557 -0.6952  0.1544 -0.1621
 1022SOL    HW1 3207   2.844   0.778   0.492 -1.5030  0.1041  0.6419
 1022SOL    HW2 3208   2.956   0.842   0.570 -1.4105  0.4947  0.1988
 1023SOL     OW 3209   3.046   2.655   0.325  0.5229  0.2444 -0.2518
 1023SOL    HW1 3210   3.023   2.616   0.409 -0.8882 -2.0715 -1.5908
 1023SOL    HW2 3211   3.140   2.672   0.331  0.5169 -0.2162  1.6562
 1024SOL     OW 3212   3.215   0.278   1.454 -0.6065 -0.1448  0.6444
 1024SOL    HW1 3213   3.181   0.284   1.365  0.7864  0.6858  0.1389
 1024SOL    HW2 3214   3.251   0.189   1.460 -2.7953 -1.0572  1.2045
 1025SOL     OW 3215   2.275   3.181   1.533  0.3152  0.1288  0.2633
 1025SOL    HW1 3216   2.196   3.177   1.478  0.2958  0.0736  0.2953
 1025SOL    HW2 3217   2.294   3.274   1.540  0.5874  0.1097 -0.2253
 1026SOL     OW 3218   1.205   2.728   1.543 -0.2547  0.2474 -0.0514
 1026SOL    HW1 3219   1.202   2.677   1.462 -2.2764  0.9879 -0.5185
 1026SOL    HW2 3220   1.210   2.819   1.513 -1.1685  0.5333  0.6408
 1027SOL     OW 3221   2.409   0.277   0.490  0.2262 -0.4794  0.1403
 1027SOL    HW1 3222   2.333   0.306   0.540  0.5617 -0.4425  0.6335
 1027SOL    HW2 3223   2.484   0.303   0.543  0.8510  3.3139 -2.1624
 1028SOL     OW 3224   0.475   0.051   2.935 -0.2706 -0.2409  0.2108
 1028SOL    HW1 3225   0.416  -0.007   2.888 -2.3745  1.5703  0.4326
 1028SOL    HW2 3226   0.420   0.125   2.961  1.7142  0.7069  2.0411
 1029SOL     OW 3227   1.359   0.597   2.819 -0.4254 -0.7519  0.1632
 1029SOL    HW1 3228   1.391   0.562   2.902 -0.8852 -1.0542  0.2193
 1029SOL    HW2 3229   1.269   0.565   2.813 -1.0901  0.9247  0.5260
 1030SOL     OW 3230   2.152   1.284   1.465 -0.0966  0.1931 -0.1707
 1030SOL    HW1 3231   2.168   1.260   1.374 -0.1867 -0.8327  0.0722
 1030SOL    HW2 3232   2.086   1.221   1.495 -1.1677  1.4446  0.1814
 1031SOL     OW 3233   1.773   2.952   2.582  0.1425 -0.1814  0.4433
 1031SOL    HW1 3234   1.723   3.032   2.570 -0.9579 -1.1376 -2.0830
 1031SOL    HW2 3235   1.862   2.981   2.601 -0.1452  1.6517 -0.7959
 1032SOL     OW 3236   2.974   1.751   0.143  0.6801 -0.1250  0.4696
 1032SOL    HW1 3237   2.908   1.696   0.100 -0.1886 -0.3673  2.0651
 1032SOL    HW2 3238   3.056   1.702   0.135  0.5102 -0.2435 -0.7268
 1033SOL     OW 3239   0.865   2.312   1.990 -0.1349 -0.3674 -0.0092
 1033SOL    HW1 3240   0.927   2.362   2.043 -0.5459 -1.7371  1.8554
 1033SOL    HW2 3241   0.916   2.283   1.915  0.6680  1.0079 -0.0201
 1034SOL     OW 3242   1.639   3.132   3.466 -0.0963  0.1367 -0.5113
 1034SOL    HW1 3243   1.716   3.187   3.450  0.1329  0.8431  2.4167
 1034SOL    HW2 3244   1.672   3.062   3.523 -1.4050 -0.2219 -0.1735
 1035SOL     OW 3245   3.702   3.326   2.680  0.3606 -0.3019  0.1474
 1035SOL    HW1 3246   3.676   3.276   2.757  1.2313  0.8593  1.2380
 1035SOL    HW2 3247   3.622   3.370   2.651  0.1114 -0.4426  0.6264
 1036SOL     OW 3248   0.646   2.427   1.377  0.7820 -1.0546 -0.0740
 1036SOL    HW1 3249   0.557   2.453   1.355  1.5131  0.0948 -1.9273
 1036SOL    HW2 3250   0.636   2.353   1.438 -1.4077 -1.2405 -0.5986
 1037SOL     OW 3251   3.025   1.833   1.783 -0.0872 -0.3495  0.8446
 1037SOL    HW1 3252   3.060   1.781   1.856 -0.5910  0.5294  1.7227
 1037SOL    HW2 3253   3.025   1.923   1.815 -1.0074 -0.0439  0.0218
 1038SOL     OW 3254   3.587   0.567   0.346  0.2936  0.0627 -0.1953
 1038SOL    HW1 3255   3.642   0.570   0.425  0.9130 -2.1157 -0.4706
 1038SOL    HW2 3256   3.503   0.602   0.374  0.8830  0.5113  1.1007
 1039SOL     OW 3257   1.175   0.895   2.510  0.2596  0.7246  0.3646
 1039SOL    HW1 3258   1.269   0.902   2.491  0.4546 -1.3097  0.3701
 1039SOL    HW2 3259   1.166   0.935   2.597  1.4812 -0.6340  1.1683
 1040SOL     OW 3260   0.831   1.341   1.102 -0.6578 -0.0065  0.1716
 1040SOL    HW1 3261   0.819   1.413   1.164 -0.0751  1.3942 -1.2631
 1040SOL    HW2 3262   0.742   1.310   1.084 -1.1221  1.7049 -0.6706
 1041SOL     OW 3263   0.073   1.080   3.122  0.4859  0.4384 -0.0743
 1041SOL    HW1 3264   0.022   1.128   3.058 -2.8649 -2.9494 -0.3101
 1041SOL    HW2 3265   0.084   0.993   3.084 -1.1425 -1.5598  3.4995
 1042SOL     OW 3266   2.430   2.274   1.529 -0.2893 -0.5904 -0.0452
 1042SOL    HW1 3267   2.429   2.359   1.486 -2.0968 -0.3703  0.3877
 1042SOL    HW2 3268   2.414   2.294   1.621 -3.1518 -1.5108 -0.2550
 1043SOL     OW 3269   1.557   2.431   3.235  0.9401  0.3601  0.2998
 1043SOL    HW1 3270   1.473   2.411   3.276  0.9356 -0.3785 -0.0521
 1043SOL    HW2 3271   1.573   2.523   3.256 -0.1139  0.5999  0.0966
 1044SOL     OW 3272   2.218   3.488   0.462  1.1407  0.4162  0.1867
 1044SOL    HW1 3273   2.216   3.570   0.413 -0.2014  0.0132 -0.4819
 1044SOL    HW2 3274   2.309   3.459   0.455  0.9030  0.0229 -2.7305
 1045SOL     OW 3275   3.653   1.735   1.433  0.5407 -0.4481  0.1839
 1045SOL    HW1 3276   3.582   1.731   1.369  0.1398 -1.4578  0.6689
 1045SOL    HW2 3277   3.644   1.821   1.474  0.5218  0.0230 -0.7853
 1046SOL     OW 3278   0.745   3.654   0.708  0.0593 -0.6514  0.0953
 1046SOL    HW1 3279   0.663   3.652   0.757  0.0659  0.2581  0.1643
 1046SOL    HW2 3280   0.773   3.746   0.711  1.7718 -1.1696  1.1986
 1047SOL     OW 3281   0.995   3.403   0.594 -0.4253 -0.1849  0.3589
 1047SOL    HW1 3282   0.975   3.497   0.598  1.1577  0.1564  0.8778
 1047SOL    HW2 3283   0.962   3.368   0.677 -1.0454 -0.1030  0.1510
 1048SOL     OW 3284   3.061   0.553   2.559  0.0530 -0.2935  0.2272
 1048SOL    HW1 3285   3.089   0.522   2.473  1.5808 -1.4256  1.0913
 1048SOL    HW2 3286   3.039   0.473   2.607  0.1075  0.2700  1.1946
 1049SOL     OW 3287   1.309   3.241   1.519  0.2741 -0.7871  0.5446
 1049SOL    HW1 3288   1.404   3.248   1.511  0.0706  1.8676 -0.7008
 1049SOL    HW2 3289   1.292   3.236   1.613  1.5673  2.3483  1.0549
 1050SOL     OW 3290   1.032   0.514   3.165 -0.1482  0.2638  0.1081
 1050SOL    HW1 3291   0.988   0.544   3.244  0.0105 -1.4611  0.8968
 1050SOL    HW2 3292   0.970   0.452   3.126  0.4308 -0.0883 -0.2653
 1051SOL     OW 3293   1.332   3.325   3.023 -0.1129  0.0054  0.3620
 1051SOL    HW1 3294   1.356   3.374   2.944  0.4731 -1.3937 -0.3703
 1051SOL    HW2 3295   1.416   3.308   3.067 -0.1743 -1.2108  0.0464
 1052SOL     OW 3296   3.077   0.503   2.259  0.0761 -0.0862  0.1540
 1052SOL    HW1 3297   3.137   0.558   2.210  0.4012 -0.1555  0.4672
 1052SOL    HW2 3298   2.989   0.531   2.231  0.2506 -0.9548 -1.3845
 1053SOL     OW 3299   1.132   0.860   2.792  0.4539 -0.0658 -0.4821
 1053SOL    HW1 3300   1.118   0.769   2.821  1.1574 -0.1926 -0.5208
 1053SOL    HW2 3301   1.202   0.893   2.849  0.4600  0.3285 -0.7177
 1054SOL     OW 3302   2.532   0.336   2.320  0.1637  0.0862 -0.0243
 1054SOL    HW1 3303   2.535   0.361   2.413  0.0139  0.3318 -0.0845
 1054SOL    HW2 3304   2.580   0.253   2.316  1.1019  0.6031  0.0989
 1055SOL     OW 3305   0.751   0.796   3.347 -0.5737  0.1170 -0.8866
 1055SOL    HW1 3306   0.758   0.839   3.261 -0.7104  0.5899 -0.6630
 1055SOL    HW2 3307   0.685   0.847   3.394  1.9037  2.0729  0.7857
 1056SOL     OW 3308   0.433   1.341   1.814 -0.1246 -0.2322 -0.5212
 1056SOL    HW1 3309   0.438   1.246   1.804  1.9592 -0.0556 -1.7970
 1056SOL    HW2 3310   0.517   1.365   1.853 -0.4274  1.1399 -0.6638
 1057SOL     OW 3311   3.624   0.280   3.708  1.0918  0.6220  0.1318
 1057SOL    HW1 3312   3.587   0.310   3.791 -1.8280  0.6813 -1.0623
 1057SOL    HW2 3313   3.569   0.322   3.641  0.6335 -2.6120 -1.7264
 1058SOL     OW 3314   0.263   2.288   3.043  0.0902 -0.6120  0.1815
 1058SOL    HW1 3315   0.175   2.260   3.016 -0.8527  0.6639  1.7528
 1058SOL    HW2 3316   0.310   2.297   2.960 -1.8835  0.6103 -0.9066
 1059SOL     OW 3317   0.513   3.565   3.676 -0.3662 -0.1271  0.0436
 1059SOL    HW1 3318   0.520   3.648   3.629 -0.8227  1.8696  3.2642
 1059SOL    HW2 3319   0.450   3.514   3.624  0.7641  0.9687 -2.6151
 1060SOL     OW 3320   0.440   0.641   3.182 -0.1967  0.8797  0.1710
 1060SOL    HW1 3321   0.406   0.722   3.144  2.1439  2.2562  0.7770
 1060SOL    HW2 3322   0.466   0.666   3.271  3.5316  0.4367 -0.6237
 1061SOL     OW 3323   0.066   0.200   1.489 -0.0408 -0.6275  0.3983
 1061SOL    HW1 3324   0.119   0.121   1.479 -1.0338 -1.1934 -0.6415
 1061SOL    HW2 3325   0.018   0.206   1.406  0.5359  1.4635  0.1646
 1062SOL     OW 3326   2.814   1.497   0.141  0.2539 -0.0174  0.9341
 1062SOL    HW1 3327   2.756   1.539   0.079  1.7543  0.7449 -0.0051
 1062SOL    HW2 3328   2.882   1.457   0.087  0.2163 -1.5341  1.9543
 1063SOL     OW 3329   0.512   1.197   2.957 -0.3730  0.4833 -0.3678
 1063SOL    HW1 3330   0.419   1.213   2.943 -0.5803 -0.2007  0.1586
 1063SOL    HW2 3331   0.552   1.209   2.870 -1.2798 -1.4006 -1.1039
 1064SOL     OW 3332   3.301   3.684   3.243  0.1447 -0.7126  0.0477
 1064SOL    HW1 3333   3.391   3.654   3.250 -0.4935 -2.9424 -0.4600
 1064SOL    HW2 3334   3.256   3.643   3.317 -0.4186  0.6708  0.5146
 1065SOL     OW 3335   1.545   0.220   2.040 -0.0358  0.5636 -0.4469
 1065SOL    HW1 3336   1.507   0.307   2.028 -1.8903 -0.2490 -0.6969
 1065SOL    HW2 3337   1.499   0.165   1.977  0.6425 -0.7395  0.1692
 1066SOL     OW 3338   0.034   2.750   3.255 -0.0044 -0.1766  0.6765
 1066SOL    HW1 3339   0.019   2.843   3.274  1.2406  0.1044  0.3937
 1066SOL    HW2 3340   0.029   2.707   3.341  2.9799  0.7108  1.4499
 1067SOL     OW 3341   2.849   3.194   2.743 -0.1215  0.2645 -0.0152
 1067SOL    HW1 3342   2.910   3.251   2.790  0.1109  0.2032 -0.2426
 1067SOL    HW2 3343   2.881   3.192   2.653  1.0396 -1.7531  0.3677
 1068SOL     OW 3344   0.347   2.151   0.869 -0.1807  0.1241  0.4299
 1068SOL    HW1 3345   0.387   2.069   0.896  0.8720 -0.3522 -2.2662
 1068SOL    HW2 3346   0.421   2.208   0.848 -0.9098  1.0954  0.4312
 1069SOL     OW 3347   3.319   2.325   3.566  0.1175  0.0328  0.2237
 1069SOL    HW1 3348   3.302   2.232   3.578  0.3743 -0.3123 -1.6731
 1069SOL    HW2 3349   3.271   2.369   3.636 -0.4138 -1.4896  0.8374
 1070SOL     OW 3350   2.421   3.020   0.899 -0.4223 -0.0641 -0.3332
 1070SOL    HW1 3351   2.401   3.110   0.872  2.1093  0.7914  0.3742
 1070SOL    HW2 3352   2.464   2.981   0.823 -0.4962 -0.3113 -0.2481
 1071SOL     OW 3353   0.285   2.814   3.097  0.5301  0.2720 -0.3074
 1071SOL    HW1 3354   0.217   2.781   3.155  0.1942 -1.6210 -1.6836
 1071SOL    HW2 3355   0.319   2.891   3.142  0.6809 -1.3770  2.6770
 1072SOL     OW 3356   2.580   1.147   0.543  0.0913  0.1939 -0.0011
 1072SOL    HW1 3357   2.665   1.159   0.501 -1.6134  2.3342 -3.3424
 1072SOL    HW2 3358   2.547   1.065   0.508  0.1155  0.2104 -0.0635
 1073SOL     OW 3359   1.246   0.326   1.830  0.4810 -0.0858 -0.2041
 1073SOL    HW1 3360   1.254   0.417   1.802  0.5274  0.2105  0.7401
 1073SOL    HW2 3361   1.269   0.327   1.923 -2.0401 -0.5999  0.5190
 1074SOL     OW 3362   2.697   1.329   1.164  0.0973  0.2806  0.0445
 1074SOL    HW1 3363   2.613   1.286   1.149  1.0403 -1.6895  0.1307
 1074SOL    HW2 3364   2.731   1.289   1.244 -0.6549  3.9789  2.4401
 1075SOL     OW 3365   0.529   2.989   1.511  0.4586  0.5429  0.1363
 1075SOL    HW1 3366   0.508   2.940   1.591  0.2925 -0.4249 -0.4831
 1075SOL    HW2 3367   0.444   3.022   1.480  0.6357  1.7756  0.8704
 1076SOL     OW 3368   0.022   3.027   3.198 -0.6920  0.4433  0.5623
 1076SOL    HW1 3369   0.086   3.049   3.131 -2.7612  0.2827 -1.5935
 1076SOL    HW2 3370   0.007   3.109   3.245  0.6666  0.5941  0.7837
 1077SOL     OW 3371   2.403   1.076   2.794 -0.7730  0.1663 -0.0680
 1077SOL    HW1 3372   2.483   1.031   2.768 -0.3661  0.8550 -0.0239
 1077SOL    HW2 3373   2.423   1.169   2.785 -1.1241  0.3919  1.2325
 1078SOL     OW 3374   2.468   1.498   2.286 -0.3481 -0.1265  0.1187
 1078SOL    HW1 3375   2.479   1.538   2.200  0.3387  1.9443  1.0904
 1078SOL    HW2 3376   2.557   1.498   2.323 -0.2382 -2.9920  0.0614
 1079SOL     OW 3377   0.229   0.535   1.862 -0.0770  0.0004 -0.1886
 1079SOL    HW1 3378   0.177   0.546   1.782 -1.4245 -0.7867  0.5459
 1079SOL    HW2 3379   0.215   0.443   1.887  0.6389  0.1295  0.7423
 1080SOL     OW 3380   1.316   2.584   3.076  0.7881 -0.4970 -0.0745
 1080SOL    HW1 3381   1.394   2.606   3.026  0.7939  0.0046  0.1453
 1080SOL    HW2 3382   1.274   2.515   3.026  1.2908 -0.6644 -0.2749
 1081SOL     OW 3383   0.901   0.627   1.858  0.1789  0.2871  0.0399
 1081SOL    HW1 3384   0.870   0.674   1.936  0.0746 -2.5173  1.8493
 1081SOL    HW2 3385   0.982   0.672   1.834 -0.8755  2.5165  0.4359
 1082SOL     OW 3386   3.144   2.518   3.650  0.4171 -0.2012 -0.0501
 1082SOL    HW1 3387   3.152   2.525   3.554 -0.5396  0.5869 -0.0878
 1082SOL    HW2 3388   3.050   2.512   3.666  0.6122 -1.3264  0.7970
 1083SOL     OW 3389   0.651   2.205   0.070 -0.2358 -0.9217  0.5619
 1083SOL    HW1 3390   0.586   2.137   0.087  0.6835 -2.4354 -1.4983
 1083SOL    HW2 3391   0.731   2.173   0.109  0.1301 -0.8804 -0.1332
 1084SOL     OW 3392   2.042   0.507   1.440 -0.3562 -0.5035  0.1635
 1084SOL    HW1 3393   2.020   0.594   1.474 -1.7374 -0.0546 -1.6695
 1084SOL    HW2 3394   2.124   0.484   1.484  0.0122  1.6914  0.7686
 1085SOL     OW 3395   0.894   2.047   2.074  0.5407  0.0712 -0.1994
 1085SOL    HW1 3396   0.813   2.056   2.025  0.9517 -2.8028 -1.6515
 1085SOL    HW2 3397   0.885   2.108   2.147 -1.3155  2.4689 -2.2769
 1086SOL     OW 3398   1.986   0.938   2.450 -0.3452  0.6176 -0.3811
 1086SOL    HW1 3399   1.962   0.932   2.358  0.0205  0.5991 -0.4737
 1086SOL    HW2 3400   1.944   0.861   2.490 -0.7963  0.8174 -0.4656
 1087SOL     OW 3401   3.315   0.672   2.835  0.0052  0.3607  0.3335
 1087SOL    HW1 3402   3.378   0.617   2.788  0.4321  0.3590  0.8958
 1087SOL    HW2 3403   3.243   0.613   2.857 -0.3490  0.4331 -0.5865
 1088SOL     OW 3404   1.729   2.996   3.107  0.1450  0.2151  0.2500
 1088SOL    HW1 3405   1.795   2.965   3.044 -1.1573 -0.5228 -0.7972
 1088SOL    HW2 3406   1.671   3.051   3.055 -0.6430  0.0315  0.9283
 1089SOL     OW 3407   3.390   2.591   3.143 -0.9381  0.9510 -0.6839
 1089SOL    HW1 3408   3.401   2.686   3.142  2.4846  0.6751 -0.9146
 1089SOL    HW2 3409   3.395   2.568   3.236  2.3760  0.7945 -0.7709
 1090SOL     OW 3410   1.859   3.566   0.356  0.1859 -0.1457 -0.0986
 1090SOL    HW1 3411   1.805   3.504   0.308  2.0486 -0.0210 -2.5774
 1090SOL    HW2 3412   1.873   3.525   0.442  0.6717 -2.8239 -1.3391
 1091SOL     OW 3413   3.422   2.202   3.053 -0.2684  0.0707 -0.0682
 1091SOL    HW1 3414   3.490   2.231   3.114 -1.9053 -0.9166  2.3733
 1091SOL    HW2 3415   3.340   2.216   3.100 -1.5023 -2.6312 -1.2121
 1092SOL     OW 3416   1.212   0.643   0.040 -0.0790  0.9192 -0.1775
 1092SOL    HW1 3417   1.248   0.567   0.085 -1.5209  0.0012 -0.5023
 1092SOL    HW2 3418   1.186   0.611  -0.046 -2.9413  1.0947  0.5189
 1093SOL     OW 3419   0.257   0.414   3.287  0.3123 -0.5876  0.3569
 1093SOL    HW1 3420   0.267   0.340   3.229  0.0249  0.7926 -1.5408
 1093SOL    HW2 3421   0.346   0.451   3.295  0.1499 -0.0507 -0.2400
 1094SOL     OW 3422   1.825   0.480   0.227 -0.4079  0.1766 -0.8531
 1094SOL    HW1 3423   1.801   0.436   0.309 -2.5281 -0.6521 -1.8445
 1094SOL    HW2 3424   1.920   0.488   0.232 -0.3792 -0.6752  1.2765
 1095SOL     OW 3425   0.605   1.613   3.259 -0.7294  0.0412 -0.0456
 1095SOL    HW1 3426   0.534   1.550   3.266  0.6559 -1.6197 -0.4378
 1095SOL    HW2 3427   0.636   1.604   3.169 -0.5060  1.3276 -0.1266
 1096SOL     OW 3428   3.054   0.963   0.686  0.5250  0.3219  0.4012
 1096SOL    HW1 3429   3.074   1.014   0.608  1.2199 -1.2116 -0.4495
 1096SOL    HW2 3430   3.080   1.020   0.759  0.0854  1.6763 -0.4611
 1097SOL     OW 3431   3.079   1.951   2.770  0.4309  0.0805 -0.3086
 1097SOL    HW1 3432   3.010   2.005   2.733 -1.0153 -1.7302 -0.3773
 1097SOL    HW2 3433   3.144   1.944   2.701 -0.0422  0.5418 -0.8074
 1098SOL     OW 3434   2.951   2.147   3.397 -0.4786 -0.0219 -0.6091
 1098SOL    HW1 3435   2.954   2.151   3.493 -2.3795  0.5174 -0.5227
 1098SOL    HW2 3436   3.013   2.078   3.374 -0.5061 -0.6620  1.0514
 1099SOL     OW 3437   0.658   3.554   1.797  0.2030  0.2129 -0.4823
 1099SOL    HW1 3438   0.635   3.511   1.715  0.2747 -0.6656 -0.0500
 1099SOL    HW2 3439   0.745   3.590   1.782 -0.3029  1.1858 -1.2124
 1100SOL     OW 3440   2.195   0.274   0.298  0.1531 -0.2567 -1.0440
 1100SOL    HW1 3441   2.178   0.360   0.338 -1.9219 -0.9893 -0.1952
 1100SOL    HW2 3442   2.262   0.235   0.355 -0.6661 -0.1417  0.0308
 1101SOL     OW 3443   0.840   0.906   0.186  0.4396 -0.2195 -0.2212
 1101SOL    HW1 3444   0.900   0.960   0.237  1.9929 -0.4036 -1.7653
 1101SOL    HW2 3445   0.862   0.816   0.210  1.8552 -0.3540 -1.8348
 1102SOL     OW 3446   1.680   0.843   2.907  0.2619  0.2768 -0.3439
 1102SOL    HW1 3447   1.670   0.935   2.932  1.0748  0.7650 -1.7029
 1102SOL    HW2 3448   1.623   0.796   2.967 -0.9488  1.7568 -0.2615
 1103SOL     OW 3449   0.552   2.705   0.644 -0.4133 -0.0540  0.8618
 1103SOL    HW1 3450   0.508   2.644   0.703 -2.1462  0.8297  0.5389
 1103SOL    HW2 3451   0.484   2.767   0.618  0.5758  0.2609 -1.1670
 1104SOL     OW 3452   1.746   1.582   0.182 -0.1883  0.5275  0.4357
 1104SOL    HW1 3453   1.799   1.587   0.103 -0.2443 -1.7556  0.2007
 1104SOL    HW2 3454   1.669   1.636   0.163  0.9005  1.9563 -0.1072
 1105SOL     OW 3455   1.746   2.748   1.696  0.2368  0.2014  0.3331
 1105SOL    HW1 3456   1.838   2.729   1.714  0.0492 -0.2241  0.8835
 1105SOL    HW2 3457   1.707   2.661   1.683 -0.2274  0.3326  0.8345
 1106SOL     OW 3458   3.648   2.424   1.248 -0.4528 -0.1526  0.4534
 1106SOL    HW1 3459   3.640   2.331   1.225 -1.6226 -0.2071  0.9711
 1106SOL    HW2 3460   3.735   2.450   1.217  0.0629 -1.5291  0.6935
 1107SOL     OW 3461   0.026   0.593   2.251  0.1995 -0.3400  0.6061
 1107SOL    HW1 3462   0.115   0.590   2.217  0.1075 -3.2686  0.4056
 1107SOL    HW2 3463  -0.030   0.577   2.175 -0.6005  1.7563  0.6686
 1108SOL     OW 3464   3.314   2.987   2.852  0.5861  0.1809  0.6239
 1108SOL    HW1 3465   3.222   2.964   2.842  0.0838  1.6821  1.5269
 1108SOL    HW2 3466   3.361   2.904   2.844 -0.9096 -0.7365  1.0949
 1109SOL     OW 3467   3.678   0.445   1.110  0.0268  0.4848 -1.0347
 1109SOL    HW1 3468   3.716   0.361   1.085 -1.1742 -1.6162  3.1963
 1109SOL    HW2 3469   3.748   0.489   1.158 -0.3072  0.3755 -0.4338
 1110SOL     OW 3470   3.475   3.084   0.618 -0.2754  0.3876 -0.0706
 1110SOL    HW1 3471   3.532   3.142   0.566  0.1064  0.9902  0.9714
 1110SOL    HW2 3472   3.394   3.134   0.628  0.1772  0.9292  1.1201
 1111SOL     OW 3473   2.083   1.045   0.143  0.0883 -0.2075 -0.1019
 1111SOL    HW1 3474   2.090   1.074   0.052 -2.3751  1.5988  0.2092
 1111SOL    HW2 3475   1.992   1.018   0.153 -0.2340  1.4477  2.2800
 1112SOL     OW 3476   3.025   1.486   0.380  0.1351  0.6273  0.5925
 1112SOL    HW1 3477   2.961   1.448   0.320  0.9545 -0.6555  0.4692
 1112SOL    HW2 3478   3.089   1.529   0.323 -0.5031  1.7509  0.7056
 1113SOL     OW 3479   0.806   0.777   2.086 -0.8288  0.1391 -0.1402
 1113SOL    HW1 3480   0.742   0.719   2.127  2.7997 -2.4224  2.6475
 1113SOL    HW2 3481   0.811   0.853   2.144 -1.1483  0.2360 -0.2366
 1114SOL     OW 3482   0.375   2.535   1.324 -0.0099 -0.3876 -0.4808
 1114SOL    HW1 3483   0.317   2.513   1.251 -1.2595 -1.0700  0.6888
 1114SOL    HW2 3484   0.359   2.627   1.341 -1.2209 -0.7129  0.2157
 1115SOL     OW 3485   2.362   2.894   2.768  0.2760  0.0903  0.0796
 1115SOL    HW1 3486   2.364   2.985   2.739  0.8364  0.1746  0.3730
 1115SOL    HW2 3487   2.425   2.850   2.711  0.0915 -0.0950  0.0172
 1116SOL     OW 3488   2.559   1.993   0.500  0.1503  0.2328  0.1978
 1116SOL    HW1 3489   2.534   2.017   0.410  1.1939  2.6402  0.4775
 1116SOL    HW2 3490   2.498   1.923   0.523 -1.2627  0.6847 -1.8047
 1117SOL     OW 3491   0.071   3.541   2.881 -0.0924  0.1128  0.2090
 1117SOL    HW1 3492   0.157   3.508   2.907 -0.4513 -0.8426  0.2136
 1117SOL    HW2 3493   0.040   3.478   2.815  0.3773  1.9345 -1.8691
 1118SOL     OW 3494   3.007   1.544   3.638  0.0593 -0.4529 -0.2276
 1118SOL    HW1 3495   3.011   1.639   3.622 -1.2487 -0.3431  0.0232
 1118SOL    HW2 3496   2.922   1.518   3.604 -0.1765 -1.3042  0.9698
 1119SOL     OW 3497   3.386   2.034   2.110 -0.2566 -0.5606  0.4067
 1119SOL    HW1 3498   3.383   2.127   2.132 -0.4192 -0.5340  0.2757
 1119SOL    HW2 3499   3.300   2.016   2.071  0.2868 -0.4253 -0.9182
 1120SOL     OW 3500   2.671   2.418   3.490 -0.1210  0.0801  0.1668
 1120SOL    HW1 3501   2.615   2.488   3.525  1.0062  1.3415 -0.4520
 1120SOL    HW2 3502   2.612   2.364   3.437 -2.0079 -2.1386  4.0824
 1121SOL     OW 3503   2.231   0.567   2.363  0.1801  0.4015 -0.1380
 1121SOL    HW1 3504   2.143   0.549   2.330  0.9005  0.4994 -2.2263
 1121SOL    HW2 3505   2.232   0.661   2.381  0.5734  0.9488 -2.6271
 1122SOL     OW 3506   2.769   0.294   1.982 -0.8076 -0.0480 -0.0727
 1122SOL    HW1 3507   2.674   0.294   1.989 -0.7266 -0.5694  1.2115
 1122SOL    HW2 3508   2.796   0.206   2.010  0.0831  0.2488  0.0512
 1123SOL     OW 3509   0.592   0.634   0.532  0.4113 -0.1752 -0.0402
 1123SOL    HW1 3510   0.640   0.642   0.450 -0.2323 -2.1274 -0.6474
 1123SOL    HW2 3511   0.651   0.587   0.590  0.4337  0.2189  0.2630
 1124SOL     OW 3512   1.621   2.848   0.902  0.0491 -0.4895  0.1335
 1124SOL    HW1 3513   1.531   2.849   0.936  0.4879  0.4228  1.3128
 1124SOL    HW2 3514   1.654   2.936   0.917  0.1268  0.2028 -3.2412
 1125SOL     OW 3515   1.868   2.219   1.952 -0.2671  0.1305 -0.1478
 1125SOL    HW1 3516   1.778   2.221   1.921 -0.2041  1.9096 -0.3208
 1125SOL    HW2 3517   1.867   2.161   2.028 -1.6806  0.5719  0.1969
 1126SOL     OW 3518   1.975   3.511   0.884  0.7307  0.3258 -0.2308
 1126SOL    HW1 3519   1.995   3.591   0.835 -1.2344  1.1049  0.1415
 1126SOL    HW2 3520   1.890   3.482   0.849 -0.2822  0.3978  2.0221
 1127SOL     OW 3521   3.047   1.651   1.525  0.8185  0.0191  0.1000
 1127SOL    HW1 3522   3.139   1.669   1.506  0.1965  3.0251 -0.5601
 1127SOL    HW2 3523   3.035   1.680   1.615  0.4102  0.2425 -0.0206
 1128SOL     OW 3524   1.246   1.100   2.317  0.9954  1.1705 -0.2765
 1128SOL    HW1 3525   1.202   1.180   2.347 -0.0139 -0.0064  1.5900
 1128SOL    HW2 3526   1.188   1.029   2.345  1.9182 -0.2414 -1.7868
 1129SOL     OW 3527   3.708   1.718   1.959  0.0311  0.5247 -0.2881
 1129SOL    HW1 3528   3.627   1.668   1.966  1.4961 -1.8202  0.8889
 1129SOL    HW2 3529   3.693   1.795   2.014 -0.4388 -1.3279  2.3694
 1130SOL     OW 3530   2.517   0.121   3.537 -0.2865 -0.4595 -0.2752
 1130SOL    HW1 3531   2.473   0.172   3.605 -1.0064  0.2045 -1.2018
 1130SOL    HW2 3532   2.454   0.052   3.514 -0.5968  0.0759 -1.1183
 1131SOL     OW 3533   0.183   1.990   1.416  0.1522  0.1718 -0.1988
 1131SOL    HW1 3534   0.177   2.079   1.383 -0.0776  0.4988  0.6905
 1131SOL    HW2 3535   0.146   1.936   1.346 -1.6603  0.9827  0.0785
 1132SOL     OW 3536   3.446   1.987   0.363  0.7839  0.1488  0.3348
 1132SOL    HW1 3537   3.522   1.944   0.402 -0.7050 -2.6687  0.4106
 1132SOL    HW2 3538   3.438   1.947   0.277 -1.6097 -1.0435  1.0208
 1133SOL     OW 3539   1.055   0.591   2.895 -0.1028 -0.0948  0.4484
 1133SOL    HW1 3540   1.034   0.587   2.988 -1.4765 -0.3850  0.1457
 1133SOL    HW2 3541   0.991   0.534   2.853  0.2744  0.3031 -0.7144
 1134SOL     OW 3542   0.215   1.789   3.396  0.1528 -0.0052 -0.1997
 1134SOL    HW1 3543   0.203   1.874   3.352  0.4865  0.3583  0.4016
 1134SOL    HW2 3544   0.172   1.800   3.480  1.1370 -0.0551  0.3267
 1135SOL     OW 3545   0.211   1.622   0.692  0.0228 -0.7481 -0.2510
 1135SOL    HW1 3546   0.270   1.695   0.670 -0.4692 -0.2775 -0.0357
 1135SOL    HW2 3547   0.204   1.572   0.611 -0.0247 -0.2762 -0.5411
 1136SOL     OW 3548   0.123   0.880   0.255  0.1359  0.3387 -0.0461
 1136SOL    HW1 3549   0.041   0.915   0.289  0.1509 -0.1475  0.4893
 1136SOL    HW2 3550   0.101   0.850   0.167 -0.5363 -0.8034  0.4939
 1137SOL     OW 3551   0.209   3.566   1.293 -0.0040  0.3084 -0.0831
 1137SOL    HW1 3552   0.176   3.635   1.351  0.2841 -0.7226  1.3691
 1137SOL    HW2 3553   0.157   3.575   1.213  0.3024  2.4467 -0.1083
 1138SOL     OW 3554   2.361   3.622   2.426  1.2246 -0.0702 -0.0299
 1138SOL    HW1 3555   2.372   3.712   2.457 -0.9732 -0.3148  1.6651
 1138SOL    HW2 3556   2.406   3.569   2.491 -0.2981 -0.3633  0.8223
 1139SOL     OW 3557   0.541   0.930   3.507  0.6818 -0.3374  0.6892
 1139SOL    HW1 3558   0.527   0.858   3.568 -1.2174 -1.0274 -0.4542
 1139SOL    HW2 3559   0.541   1.009   3.561 -0.0883 -0.9981  1.6799
 1140SOL     OW 3560   2.670   0.099   1.491 -0.4633 -0.2343  0.7965
 1140SOL    HW1 3561   2.755   0.124   1.529 -0.3761 -0.1080  0.5262
 1140SOL    HW2 3562   2.634   0.035   1.552  0.7422 -1.8385 -0.0917
 1141SOL     OW 3563   2.417   2.004   2.789 -0.0770 -0.7705 -0.1589
 1141SOL    HW1 3564   2.368   2.082   2.763  0.8633 -0.2338 -0.3859
 1141SOL    HW2 3565   2.495   2.006   2.734 -0.5867 -2.5319 -1.0152
 1142SOL     OW 3566   2.104   1.536   1.597  0.3413 -0.2284 -0.3493
 1142SOL    HW1 3567   2.123   1.470   1.530 -1.8589 -0.3644 -0.9461
 1142SOL    HW2 3568   2.035   1.590   1.558 -0.0422  0.5417  1.2908
 1143SOL     OW 3569   2.198   0.802   0.337  0.2327  0.8557 -0.1146
 1143SOL    HW1 3570   2.126   0.763   0.287  1.0440 -2.1530  0.8551
 1143SOL    HW2 3571   2.156   0.838   0.415 -0.2559 -2.0182  1.0943
 1144SOL     OW 3572   0.952   0.017   2.152  0.2580  0.2686  0.3242
 1144SOL    HW1 3573   0.925  -0.047   2.086 -1.9806 -0.1448  1.5606
 1144SOL    HW2 3574   0.944   0.102   2.109 -4.1035  0.2865  0.7719
 1145SOL     OW 3575   2.533   1.342   1.787  0.1547 -0.4046  0.2130
 1145SOL    HW1 3576   2.462   1.339   1.723  0.3995 -1.4330 -0.0199
 1145SOL    HW2 3577   2.493   1.379   1.865 -0.5454 -0.6320 -0.0325
 1146SOL     OW 3578   2.821   2.257   2.906  0.0055  0.4744  0.8070
 1146SOL    HW1 3579   2.844   2.228   2.817  2.6327  1.4401  1.0718
 1146SOL    HW2 3580   2.738   2.214   2.924  0.0249 -0.8026 -1.6230
 1147SOL     OW 3581   0.606   1.861   3.388 -0.2122 -0.1442  0.1806
 1147SOL    HW1 3582   0.610   1.779   3.339 -0.0322 -0.6507  1.0131
 1147SOL    HW2 3583   0.572   1.835   3.474  0.2121  0.6006  0.5809
 1148SOL     OW 3584   1.111   2.857   2.955  0.1766  0.0475 -0.2575
 1148SOL    HW1 3585   1.089   2.883   2.866  1.1984 -0.3697 -0.6460
 1148SOL    HW2 3586   1.056   2.913   3.011  0.3611  1.1275 -1.1229
 1149SOL     OW 3587   1.858   0.217   1.044 -0.3634 -0.0276  0.7385
 1149SOL    HW1 3588   1.859   0.293   1.102  0.0513 -0.8539  1.8672
 1149SOL    HW2 3589   1.812   0.150   1.094  1.9387 -1.4619  1.1082
 1150SOL     OW 3590   1.071   1.818   2.125 -0.4206 -0.2667 -0.1324
 1150SOL    HW1 3591   1.009   1.890   2.110  1.3562  1.3608 -0.0141
 1150SOL    HW2 3592   1.088   1.820   2.219 -0.1619 -0.6875 -0.1667
 1151SOL     OW 3593   1.134   0.308   3.287 -0.0700 -0.5579 -1.0036
 1151SOL    HW1 3594   1.109   0.382   3.232 -1.7957 -0.3339  0.0006
 1151SOL    HW2 3595   1.203   0.264   3.238  0.5693  1.3384 -1.9333
 1152SOL     OW 3596   3.384   3.630   2.776  0.1570 -0.1196  0.6973
 1152SOL    HW1 3597   3.356   3.714   2.811  0.7926  0.6513 -0.5725
 1152SOL    HW2 3598   3.368   3.568   2.847 -2.8800  0.5786  0.7548
 1153SOL     OW 3599   3.617   0.036   2.375  0.2362  0.0583 -0.1719
 1153SOL    HW1 3600   3.671   0.060   2.300 -0.0959 -0.6980 -0.6716
 1153SOL    HW2 3601   3.534   0.082   2.361  0.8523  1.5077  0.7828
 1154SOL     OW 3602   0.998   3.203   0.137  0.2544  0.0176 -0.5449
 1154SOL    HW1 3603   0.989   3.266   0.209 -0.7265 -1.8150  1.0539
 1154SOL    HW2 3604   1.058   3.136   0.172  2.3539  0.6335 -2.6816
 1155SOL     OW 3605   0.343   1.690   1.612 -0.3977 -0.6494  0.1917
 1155SOL    HW1 3606   0.263   1.688   1.665 -0.3383  1.0293  0.4019
 1155SOL    HW2 3607   0.413   1.700   1.675 -0.2919  0.9310 -0.1289
 1156SOL     OW 3608   0.253   0.383   3.571  0.0069  0.0134 -0.2307
 1156SOL    HW1 3609   0.220   0.373   3.482 -0.1734 -0.8712 -0.0667
 1156SOL    HW2 3610   0.190   0.337   3.626  0.5048 -0.0778  0.2774
 1157SOL     OW 3611   3.601   0.831   2.260  0.0699 -0.6361 -0.1986
 1157SOL    HW1 3612   3.551   0.839   2.179 -0.4766  0.5285  0.2308
 1157SOL    HW2 3613   3.645   0.746   2.253 -0.5110 -0.8573 -1.4002
 1158SOL     OW 3614   0.848   0.945   2.841  0.1478 -0.3197  0.1886
 1158SOL    HW1 3615   0.940   0.920   2.829  0.2663 -0.7022  1.6700
 1158SOL    HW2 3616   0.799   0.878   2.795  0.6037 -0.1646 -0.5372
 1159SOL     OW 3617   1.772   3.489   1.207  0.0427  0.0692  0.0333
 1159SOL    HW1 3618   1.787   3.514   1.115 -1.9221  0.4271 -0.2356
 1159SOL    HW2 3619   1.793   3.396   1.210  0.3693  0.1060 -0.7148
 1160SOL     OW 3620   2.515   2.524   2.894 -0.2132  0.4912 -0.1594
 1160SOL    HW1 3621   2.502   2.510   2.988  2.2529  0.9489  0.3295
 1160SOL    HW2 3622   2.580   2.595   2.890 -0.9209  1.0833 -2.2499
 1161SOL     OW 3623   3.728   2.911   1.472  0.0857  0.2428  0.1187
 1161SOL    HW1 3624   3.727   2.984   1.410  2.1365  0.2647  0.0375
 1161SOL    HW2 3625   3.670   2.939   1.543 -0.1549  1.3997 -0.5092
 1162SOL     OW 3626   1.745   0.849   0.423 -0.4049  0.1493  0.5323
 1162SOL    HW1 3627   1.654   0.825   0.441 -0.0399 -1.8218 -0.0605
 1162SOL    HW2 3628   1.743   0.887   0.335 -0.6277  0.0561  0.4974
 1163SOL     OW 3629   0.426   2.363   3.421 -0.0728 -0.2423  0.6486
 1163SOL    HW1 3630   0.453   2.326   3.505 -0.1933 -3.9339 -0.7616
 1163SOL    HW2 3631   0.331   2.347   3.418  0.3968 -3.7330 -1.5456
 1164SOL     OW 3632   1.099   1.565   2.149  0.1539 -0.0018 -0.1196
 1164SOL    HW1 3633   1.194   1.560   2.156  0.3201 -0.1062 -2.0373
 1164SOL    HW2 3634   1.080   1.659   2.154  0.3533  0.0160  0.3208
 1165SOL     OW 3635   2.050   1.570   2.584 -0.4368  0.1913  0.0704
 1165SOL    HW1 3636   2.035   1.495   2.526 -2.4928 -0.7064  1.6389
 1165SOL    HW2 3637   1.998   1.641   2.546  0.8288  0.6200 -0.9371
 1166SOL     OW 3638   3.192   1.844   0.480  0.3884 -0.2386  0.1592
 1166SOL    HW1 3639   3.215   1.873   0.568  1.9317 -2.4230  0.5711
 1166SOL    HW2 3640   3.234   1.908   0.422  3.5209 -1.2884  1.0145
 1167SOL     OW 3641   3.004   1.020   2.440  0.6610  0.7750 -0.4421
 1167SOL    HW1 3642   3.044   0.989   2.359 -0.0472  0.5769 -0.7164
 1167SOL    HW2 3643   3.066   0.993   2.508  0.6336 -0.1938 -0.7879
 1168SOL     OW 3644   1.247   2.556   0.089 -0.4649 -0.6396  0.8874
 1168SOL    HW1 3645   1.252   2.467   0.054 -0.6524 -0.6766  0.9555
 1168SOL    HW2 3646   1.328   2.566   0.139  0.0879 -0.3760 -0.0423
 1169SOL     OW 3647   2.191   2.395   2.922  0.4222  0.5135 -0.0833
 1169SOL    HW1 3648   2.244   2.446   2.860  2.0123 -0.4867  0.4095
 1169SOL    HW2 3649   2.159   2.321   2.871  1.3586 -0.0698  0.1654
 1170SOL     OW 3650   0.639   1.793   1.598 -0.2374 -0.0249 -0.2798
 1170SOL    HW1 3651   0.562   1.848   1.586 -0.4727  0.0988  1.4956
 1170SOL    HW2 3652   0.630   1.758   1.687  0.7608 -1.5982 -0.7472
 1171SOL     OW 3653   2.371   0.741   3.596  0.2452 -0.1547  0.5351
 1171SOL    HW1 3654   2.362   0.807   3.665  0.9961  0.0869  0.4105
 1171SOL    HW2 3655   2.286   0.696   3.595 -0.1581  0.5794  0.8519
 1172SOL     OW 3656   0.215   1.603   2.043 -0.1798 -0.1301 -0.1487
 1172SOL    HW1 3657   0.214   1.640   2.131  0.0532  1.0591 -0.6203
 1172SOL    HW2 3658   0.133   1.633   2.003 -0.4316 -0.9223 -0.2403
 1173SOL     OW 3659   2.072   0.135   0.103  0.0758  0.2042 -0.2328
 1173SOL    HW1 3660   2.105   0.198   0.167  0.1630  0.8070 -0.8562
 1173SOL    HW2 3661   2.131   0.143   0.028  1.6681 -2.4697  0.6080
 1174SOL     OW 3662   3.164   1.887   1.372  0.5387 -0.3363  0.3935
 1174SOL    HW1 3663   3.192   1.852   1.288  1.0484 -0.6423  0.6875
 1174SOL    HW2 3664   3.073   1.914   1.358 -0.5686 -3.5047  0.6539
 1175SOL     OW 3665   1.161   2.997   1.050  1.0906 -0.1895  0.1129
 1175SOL    HW1 3666   1.089   2.985   1.113  1.2753 -0.9032  0.2021
 1175SOL    HW2 3667   1.118   3.002   0.965  0.9875 -1.6831  0.0579
 1176SOL     OW 3668   1.550   0.673   2.181 -0.3983 -0.1005 -0.2354
 1176SOL    HW1 3669   1.490   0.725   2.234 -1.5275 -2.2750  0.7770
 1176SOL    HW2 3670   1.501   0.594   2.160  1.4074 -1.0460 -1.1883
 1177SOL     OW 3671   2.500   3.411   0.449 -0.5568 -0.4450  0.1269
 1177SOL    HW1 3672   2.538   3.438   0.532 -0.3726 -0.6006  0.0942
 1177SOL    HW2 3673   2.517   3.483   0.389  0.8219 -1.0454 -0.2295
 1178SOL     OW 3674   3.500   2.866   3.436  0.1980 -0.2353  0.2771
 1178SOL    HW1 3675   3.417   2.834   3.473 -0.0011  0.4816  0.4557
 1178SOL    HW2 3676   3.553   2.889   3.512  0.0936  0.4778  0.1340
 1179SOL     OW 3677   1.032   1.840   0.380  0.3770 -0.0397 -0.0210
 1179SOL    HW1 3678   1.107   1.784   0.403  0.1695 -0.3991 -0.2103
 1179SOL    HW2 3679   1.063   1.929   0.396  0.6481 -0.2169  0.4752
 1180SOL     OW 3680   0.023   3.070   2.013  1.1242  0.3729 -0.0836
 1180SOL    HW1 3681   0.087   3.132   2.050  0.9172 -0.5823  2.0432
 1180SOL    HW2 3682  -0.002   3.015   2.087  1.3637 -2.3436 -1.9028
 1181SOL     OW 3683   3.641   1.456   0.814  0.0164 -0.8574 -0.0948
 1181SOL    HW1 3684   3.553   1.421   0.809 -0.7134  0.6507  1.2588
 1181SOL    HW2 3685   3.657   1.493   0.727 -1.8217  1.3142  0.4013
 1182SOL     OW 3686   3.123   3.597   0.231  0.5234 -0.2619 -0.0092
 1182SOL    HW1 3687   3.041   3.646   0.241  1.0829  1.2031 -1.8757
 1182SOL    HW2 3688   3.139   3.558   0.316 -1.2956  0.7381  0.8441
 1183SOL     OW 3689   2.187   2.747   0.398 -0.6460 -0.1034  0.2743
 1183SOL    HW1 3690   2.205   2.803   0.473 -2.0669  0.3487  0.2981
 1183SOL    HW2 3691   2.274   2.725   0.363 -0.0305  1.0673  1.0169
 1184SOL     OW 3692   0.134   1.346   0.585 -0.2979 -0.3111  0.0961
 1184SOL    HW1 3693   0.189   1.384   0.517 -0.4414 -1.7708 -0.8725
 1184SOL    HW2 3694   0.134   1.252   0.567 -0.0913 -0.8053  2.2944
 1185SOL     OW 3695   2.647   2.654   0.228  0.4134 -0.1468  0.3430
 1185SOL    HW1 3696   2.635   2.562   0.205 -0.2496 -0.4028  1.5919
 1185SOL    HW2 3697   2.725   2.681   0.180  1.8482 -1.9481  1.5170
 1186SOL     OW 3698   1.031   3.014   0.756 -0.2361 -0.1506 -0.5148
 1186SOL    HW1 3699   1.102   2.979   0.702 -2.3148 -4.1330 -1.0478
 1186SOL    HW2 3700   0.978   3.065   0.696  0.7579  0.6859 -0.7061
 1187SOL     OW 3701   3.520   0.054   3.546  0.1511 -0.1907 -0.0913
 1187SOL    HW1 3702   3.549  -0.004   3.476 -0.8520 -0.2702 -0.4685
 1187SOL    HW2 3703   3.460   0.001   3.598  2.2531 -0.7056  1.9580
 1188SOL     OW 3704   2.864   1.201   0.771 -0.9076  0.3368 -1.0490
 1188SOL    HW1 3705   2.831   1.175   0.685 -0.3140 -1.1247 -0.8488
 1188SOL    HW2 3706   2.924   1.274   0.752 -1.9981  1.0934 -1.6927
 1189SOL     OW 3707   1.248   3.317   3.491 -0.4507  0.2228 -0.1203
 1189SOL    HW1 3708   1.159   3.324   3.526  0.0775  0.5899  1.2333
 1189SOL    HW2 3709   1.303   3.307   3.569  0.5038 -2.2073 -1.0340
 1190SOL     OW 3710   0.099   3.226   1.220  0.2259 -0.4021  0.3871
 1190SOL    HW1 3711   0.132   3.315   1.228  0.2466 -0.4985  1.6159
 1190SOL    HW2 3712   0.055   3.209   1.304  0.4701 -1.6461  0.2869
 1191SOL     OW 3713   2.762   2.952   0.399  0.3937  0.5212 -0.4516
 1191SOL    HW1 3714   2.758   3.000   0.316  1.5930  1.8289  0.2070
 1191SOL    HW2 3715   2.760   3.020   0.466 -2.1200 -0.5461  0.7149
 1192SOL     OW 3716   0.384   1.755   0.253 -0.2011 -0.1491 -0.1269
 1192SOL    HW1 3717   0.377   1.698   0.175 -0.3810 -0.8079  0.3596
 1192SOL    HW2 3718   0.477   1.778   0.257 -0.0507 -0.7472 -0.0974
 1193SOL     OW 3719   1.906   1.058   0.947  0.3914 -0.0651  0.7888
 1193SOL    HW1 3720   1.885   1.013   1.028 -1.1027  0.5901  0.8143
 1193SOL    HW2 3721   1.882   0.997   0.878  0.2617 -0.0656  0.8347
 1194SOL     OW 3722   0.370   1.230   1.292  0.1422  0.0278 -0.6439
 1194SOL    HW1 3723   0.313   1.294   1.334 -0.3826 -1.2258  0.6175
 1194SOL    HW2 3724   0.341   1.228   1.200 -0.1743  1.1924 -0.5771
 1195SOL     OW 3725   1.826   0.097   1.572 -0.0856  0.1586 -0.3085
 1195SOL    HW1 3726   1.809   0.007   1.545 -0.9427 -0.2870  1.5672
 1195SOL    HW2 3727   1.921   0.103   1.576 -0.0221 -0.7000 -0.3243
 1196SOL     OW 3728   0.361   0.247   0.347 -0.7717  0.0941  0.0310
 1196SOL    HW1 3729   0.383   0.165   0.302 -2.1592 -1.3080  1.7773
 1196SOL    HW2 3730   0.296   0.288   0.290 -2.0899 -1.3722  0.4039
 1197SOL     OW 3731   2.592   0.522   1.462 -0.1731 -0.1525 -0.2711
 1197SOL    HW1 3732   2.564   0.507   1.552 -0.7454  0.5330 -0.3257
 1197SOL    HW2 3733   2.525   0.581   1.426  0.4044  0.1004 -0.9448
 1198SOL     OW 3734   2.503   2.633   3.670  0.6090 -0.3391  0.0380
 1198SOL    HW1 3735   2.415   2.622   3.633  0.9061  0.1603 -0.8236
 1198SOL    HW2 3736   2.512   2.727   3.683  1.1375 -0.3575 -0.1804
 1199SOL     OW 3737   1.563   1.105   1.163 -0.2774 -0.3132 -0.2147
 1199SOL    HW1 3738   1.599   1.160   1.094 -0.5632 -0.0912 -0.1918
 1199SOL    HW2 3739   1.469   1.126   1.164 -0.0997  0.5626  1.0236
 1200SOL     OW 3740   1.684   0.685   1.856 -0.2565  0.2376 -0.1645
 1200SOL    HW1 3741   1.706   0.688   1.949 -2.5822  0.5820  0.4313
 1200SOL    HW2 3742   1.765   0.655   1.814  1.3822  1.6396  1.7463
 1201SOL     OW 3743   1.682   3.662   2.415  0.4825  0.4491 -0.2974
 1201SOL    HW1 3744   1.722   3.589   2.367  0.6820 -0.2581  0.8948
 1201SOL    HW2 3745   1.734   3.669   2.495 -0.3195  1.0775  0.1809
 1202SOL     OW 3746   0.192   3.175   3.006 -0.5553 -0.0914  0.3782
 1202SOL    HW1 3747   0.263   3.152   2.945 -0.0490  2.5411 -0.1595
 1202SOL    HW2 3748   0.114   3.136   2.967  0.0284  0.1282 -1.0858
 1203SOL     OW 3749   1.495   2.304   2.397  0.9678  0.2727 -0.2847
 1203SOL    HW1 3750   1.526   2.383   2.441  2.1686 -1.0296  1.2901
 1203SOL    HW2 3751   1.560   2.288   2.328  0.9616  0.4163 -0.3233
 1204SOL     OW 3752   1.747   0.354   1.530  0.1082 -0.0079 -0.1471
 1204SOL    HW1 3753   1.821   0.401   1.568  0.8255 -0.9418 -0.3516
 1204SOL    HW2 3754   1.766   0.262   1.546 -0.4797 -0.3213 -1.1500
 1205SOL     OW 3755   0.978   2.136   2.989 -0.2903  0.6644 -0.2032
 1205SOL    HW1 3756   1.059   2.164   2.947 -0.4415  1.1835 -0.1650
 1205SOL    HW2 3757   0.924   2.103   2.918 -0.5350  1.5161 -0.4319
 1206SOL     OW 3758   1.848   1.647   3.564  0.4587 -0.9083 -0.0994
 1206SOL    HW1 3759   1.915   1.698   3.519  0.6659  0.9038  2.0528
 1206SOL    HW2 3760   1.768   1.698   3.552  0.2584 -1.0891  0.4519
 1207SOL     OW 3761   2.456   1.684   0.242  0.1210 -0.0539 -0.2498
 1207SOL    HW1 3762   2.508   1.644   0.311  0.4826 -0.6111 -0.8288
 1207SOL    HW2 3763   2.370   1.641   0.248 -0.1210  0.5150  0.3946
 1208SOL     OW 3764   2.875   2.623   3.170  0.1849 -0.4333 -0.2709
 1208SOL    HW1 3765   2.920   2.616   3.086 -0.2427 -0.5662 -0.4879
 1208SOL    HW2 3766   2.898   2.542   3.216  0.9011 -0.0935 -0.0219
 1209SOL     OW 3767   1.986   3.106   2.741  0.5136  0.5990  0.4870
 1209SOL    HW1 3768   1.947   3.166   2.678  1.2213 -0.5502 -1.1120
 1209SOL    HW2 3769   2.080   3.123   2.735  0.5782  0.5854  1.3657
 1210SOL     OW 3770   2.588   0.134   1.121 -0.5106  0.3172 -0.0477
 1210SOL    HW1 3771   2.619   0.217   1.157 -0.1215 -1.2177  3.5345
 1210SOL    HW2 3772   2.493   0.145   1.116 -0.4858  0.9219  0.5559
 1211SOL     OW 3773   3.253   3.063   3.341 -0.3807  0.0657 -0.3038
 1211SOL    HW1 3774   3.248   2.977   3.300 -0.2382 -0.0377 -0.1111
 1211SOL    HW2 3775   3.308   3.049   3.419 -1.2368  0.1001  0.3192
 1212SOL     OW 3776   1.404   2.994   3.062 -0.1791 -0.0739  0.0677
 1212SOL    HW1 3777   1.423   2.911   3.107  0.5627 -0.1939 -0.4376
 1212SOL    HW2 3778   1.466   3.056   3.100 -0.4367  0.1432  0.1332
 1213SOL     OW 3779   2.401   2.535   1.461  0.1438  0.0643  0.7920
 1213SOL    HW1 3780   2.360   2.620   1.445 -0.6225  0.1522  2.9132
 1213SOL    HW2 3781   2.482   2.538   1.409 -0.4817  1.5508 -0.1889
 1214SOL     OW 3782   1.210   0.298   1.577  0.2896  0.2839  0.0381
 1214SOL    HW1 3783   1.293   0.310   1.532  0.8725  0.7619  1.1853
 1214SOL    HW2 3784   1.232   0.305   1.670 -0.7090 -1.6484  0.4640
 1215SOL     OW 3785   2.174   2.415   2.516 -0.6388 -0.2219 -0.2662
 1215SOL    HW1 3786   2.080   2.407   2.503 -0.4927  0.4821 -2.1614
 1215SOL    HW2 3787   2.185   2.487   2.577 -1.3208 -0.1959 -0.1729
 1216SOL     OW 3788   2.917   0.478   0.382 -0.3915  0.7482  0.0930
 1216SOL    HW1 3789   2.851   0.491   0.315  3.2384  1.8193 -3.7194
 1216SOL    HW2 3790   2.942   0.566   0.409  2.0650  0.6813 -1.6011
 1217SOL     OW 3791   3.032  -0.006   2.989  0.1275  0.3245  0.1449
 1217SOL    HW1 3792   3.071   0.082   2.984  2.6285 -0.7732 -1.7349
 1217SOL    HW2 3793   3.106  -0.065   2.979 -1.5837 -2.0363  0.7102
 1218SOL     OW 3794   0.380   1.539   2.931 -0.2138  0.4225 -0.4191
 1218SOL    HW1 3795   0.366   1.583   3.014  1.7886  0.6048 -0.1386
 1218SOL    HW2 3796   0.324   1.461   2.935 -0.5113  0.6877  0.8690
 1219SOL     OW 3797   0.521   2.726   1.049  0.0198  0.1682  0.4103
 1219SOL    HW1 3798   0.451   2.750   0.988 -0.2341 -1.5984 -0.0616
 1219SOL    HW2 3799   0.490   2.754   1.135 -0.1788  1.5482 -0.0901
 1220SOL     OW 3800   1.325   1.362   0.037  1.0223  0.4132  0.6989
 1220SOL    HW1 3801   1.335   1.453   0.065  0.0971  1.1920 -1.3041
 1220SOL    HW2 3802   1.359   1.310   0.110 -2.5276  2.1846  3.9412
 1221SOL     OW 3803   1.162   1.765   3.076 -0.1112 -0.9407  0.0805
 1221SOL    HW1 3804   1.152   1.694   3.012  0.4635  0.7243 -1.9708
 1221SOL    HW2 3805   1.250   1.799   3.060 -0.3584  0.2122  1.0491
 1222SOL     OW 3806   0.350   1.284   3.730  0.3247 -0.2415 -0.0517
 1222SOL    HW1 3807   0.359   1.375   3.702 -0.9627  0.3708  1.3944
 1222SOL    HW2 3808   0.437   1.246   3.718  0.9309  1.2307 -0.4909
 1223SOL     OW 3809   2.750   3.218   1.089  0.6776  0.1594  0.0643
 1223SOL    HW1 3810   2.779   3.308   1.075 -1.6580  0.7747 -1.3880
 1223SOL    HW2 3811   2.668   3.226   1.137 -1.7847 -0.7812 -3.5986
 1224SOL     OW 3812   3.174   0.892   2.222  0.0000  0.7460  0.5676
 1224SOL    HW1 3813   3.215   0.858   2.142  0.8196  0.7652  0.9710
 1224SOL    HW2 3814   3.198   0.829   2.290 -0.8983  0.5978  0.7726
 1225SOL     OW 3815   2.081   3.063   1.800 -0.4002 -0.1173 -0.6662
 1225SOL    HW1 3816   2.056   2.984   1.849 -2.9224  0.9129 -0.1275
 1225SOL    HW2 3817   2.144   3.107   1.856 -1.3341 -0.2423  0.5342
 1226SOL     OW 3818   2.987   0.980   3.638  0.0240 -0.0726  0.2585
 1226SOL    HW1 3819   3.046   0.918   3.680  0.9414 -0.9346 -2.1410
 1226SOL    HW2 3820   3.021   0.989   3.549  0.1260  4.1452  0.5403
 1227SOL     OW 3821   2.558   2.618   0.636 -0.1327  0.2702  0.1601
 1227SOL    HW1 3822   2.621   2.622   0.563 -2.0076  1.3011 -1.5141
 1227SOL    HW2 3823   2.578   2.536   0.681  1.4664 -0.1253 -1.1746
 1228SOL     OW 3824   1.246   3.389   2.524 -0.0886  0.1508 -0.6509
 1228SOL    HW1 3825   1.340   3.392   2.504 -0.5824  0.2328 -3.3616
 1228SOL    HW2 3826   1.228   3.471   2.569  1.6113 -1.1619  2.7991
 1229SOL     OW 3827   2.093   1.519   1.302 -0.1990  0.5407 -0.4530
 1229SOL    HW1 3828   2.021   1.580   1.317  0.5473  1.3508 -0.0328
 1229SOL    HW2 3829   2.066   1.467   1.227 -1.6231  0.1947  0.2720
 1230SOL     OW 3830   3.592   3.393   1.819 -0.2557 -0.5663 -0.5368
 1230SOL    HW1 3831   3.575   3.400   1.913  2.0276 -1.6354  0.0175
 1230SOL    HW2 3832   3.603   3.300   1.803  0.9571 -0.2800 -1.5509
 1231SOL     OW 3833   1.114   0.518   1.478  0.0733 -0.1419  0.4462
 1231SOL    HW1 3834   1.161   0.445   1.520  2.2306 -0.5154 -2.2826
 1231SOL    HW2 3835   1.024   0.510   1.510  0.9511 -1.9402  2.8112
 1232SOL     OW 3836   0.316   2.767   3.691 -0.5012  0.7549  0.2182
 1232SOL    HW1 3837   0.328   2.859   3.715 -0.1259  0.3295  1.7854
 1232SOL    HW2 3838   0.394   2.723   3.727 -0.5567 -0.1416 -0.7154
 1233SOL     OW 3839   1.490   1.348   1.964  0.0072 -0.2987 -0.5429
 1233SOL    HW1 3840   1.573   1.393   1.949  0.5275 -0.6736  1.0821
 1233SOL    HW2 3841   1.424   1.417   1.953  0.6142  0.2963 -0.5424
 1234SOL     OW 3842   1.311   2.686   2.656  0.0478 -0.0042  0.3354
 1234SOL    HW1 3843   1.322   2.764   2.710 -1.9174 -0.5453  1.6065
 1234SOL    HW2 3844   1.230   2.646   2.687 -1.0149 -0.5421 -2.8481
 1235SOL     OW 3845   2.170   2.844   2.947 -0.1760  0.4110  0.1952
 1235SOL    HW1 3846   2.218   2.793   3.012 -1.5846 -0.6928  0.4114
 1235SOL    HW2 3847   2.233   2.858   2.877  0.6976 -0.3315  0.8088
 1236SOL     OW 3848   3.257   1.550   1.785  0.5912 -0.0698 -0.3844
 1236SOL    HW1 3849   3.281   1.612   1.716 -1.5410 -0.2704 -1.4006
 1236SOL    HW2 3850   3.250   1.603   1.864  0.7463  0.6021 -0.8175
 1237SOL     OW 3851   1.025   0.521   1.169  0.1181  0.7306  0.2844
 1237SOL    HW1 3852   1.117   0.550   1.171  0.6489 -0.9172  1.0731
 1237SOL    HW2 3853   1.017   0.460   1.242 -1.3437  0.0402 -0.4086
 1238SOL     OW 3854   0.222   1.579   0.409  0.4059 -0.3708 -0.0395
 1238SOL    HW1 3855   0.286   1.635   0.365 -0.3501  0.2867 -0.3243
 1238SOL    HW2 3856   0.176   1.534   0.337  0.8814 -1.2223  0.1801
 1239SOL     OW 3857   0.948   2.343   3.200 -0.5482 -0.8469  0.0759
 1239SOL    HW1 3858   1.031   2.379   3.228 -1.7733  1.2610  1.2306
 1239SOL    HW2 3859   0.970   2.285   3.127  1.5166  3.3709 -3.0655
 1240SOL     OW 3860   2.232   1.093   3.112 -0.3665  0.0874 -0.5349
 1240SOL    HW1 3861   2.194   1.132   3.033  1.0904 -0.0998 -1.3652
 1240SOL    HW2 3862   2.273   1.166   3.158 -0.2243  0.0118 -0.5424
 1241SOL     OW 3863   1.057   2.744   0.864  0.1274  0.4072 -0.4137
 1241SOL    HW1 3864   1.061   2.718   0.956  1.7280 -0.4084 -0.6658
 1241SOL    HW2 3865   0.969   2.780   0.852 -0.5112 -0.5458  1.1417
 1242SOL     OW 3866   3.039   0.964   0.209  0.1093  0.3053  0.3707
 1242SOL    HW1 3867   2.983   1.041   0.222 -0.8385 -0.5526  1.6350
 1242SOL    HW2 3868   3.031   0.914   0.291  1.3896 -0.7058 -0.0848
 1243SOL     OW 3869   3.165   2.770   3.190  0.6533  0.2455  0.1722
 1243SOL    HW1 3870   3.094   2.787   3.129  0.5788 -1.1627 -0.1706
 1243SOL    HW2 3871   3.242   2.754   3.135  0.7108 -0.4674  0.4378
 1244SOL     OW 3872   2.662   3.659   3.276  0.2995  0.0811 -0.7458
 1244SOL    HW1 3873   2.733   3.670   3.339  0.9690  1.0217 -1.6383
 1244SOL    HW2 3874   2.589   3.625   3.328 -0.1299  3.4820  1.2026
 1245SOL     OW 3875   1.935   3.342   1.510  0.8596 -0.0556 -0.3671
 1245SOL    HW1 3876   1.872   3.289   1.560 -2.3422  3.0265 -0.7558
 1245SOL    HW2 3877   1.944   3.295   1.427  0.3764 -1.4368  0.3257
 1246SOL     OW 3878   0.131   3.221   3.633 -0.0052  0.1228  0.0388
 1246SOL    HW1 3879   0.137   3.285   3.704 -0.4009 -0.9046  1.0248
 1246SOL    HW2 3880   0.185   3.148   3.661 -1.6689 -1.1068  0.1880
 1247SOL     OW 3881   1.822   3.243   1.242 -0.3353 -0.0825  0.7965
 1247SOL    HW1 3882   1.764   3.167   1.231  0.7517 -0.7242 -0.8654
 1247SOL    HW2 3883   1.896   3.224   1.185  0.2085  2.0198  0.7554
 1248SOL     OW 3884   0.317   1.113   2.579 -0.4254 -0.3125 -0.2797
 1248SOL    HW1 3885   0.255   1.163   2.633  0.0758 -0.0930  0.1036
 1248SOL    HW2 3886   0.290   1.131   2.489 -0.5359  0.2819 -0.1325
 1249SOL     OW 3887   0.693   2.508   0.903 -0.0853  0.0131 -0.0609
 1249SOL    HW1 3888   0.635   2.578   0.934 -0.0472  0.4784 -1.0224
 1249SOL    HW2 3889   0.754   2.552   0.844  1.5082 -0.3856  1.2041
 1250SOL     OW 3890   2.330   3.147   3.046 -0.2017  0.2932 -0.4868
 1250SOL    HW1 3891   2.255   3.169   3.102 -1.0276  0.8344 -1.7576
 1250SOL    HW2 3892   2.334   3.052   3.047 -1.5205  0.2069 -1.1435
 1251SOL     OW 3893   1.124   0.884   3.182 -0.3310  0.2089  0.7188
 1251SOL    HW1 3894   1.103   0.968   3.221 -1.2422 -0.1244  0.9714
 1251SOL    HW2 3895   1.045   0.858   3.135  0.2695 -0.0633 -0.1611
 1252SOL     OW 3896   1.996   2.263   1.069 -0.1525 -0.5128  0.6208
 1252SOL    HW1 3897   1.916   2.301   1.031  0.2977 -0.2057 -0.0494
 1252SOL    HW2 3898   2.004   2.177   1.027 -0.5747 -0.8987  1.3131
 1253SOL     OW 3899   1.523   2.963   1.435 -0.1178 -0.2883 -0.0160
 1253SOL    HW1 3900   1.598   2.942   1.379 -0.1160  0.4491 -0.3081
 1253SOL    HW2 3901   1.450   2.916   1.396  0.3363 -1.7078  0.7629
 1254SOL     OW 3902   0.536   1.280   1.021 -0.9387 -0.2637 -0.3954
 1254SOL    HW1 3903   0.511   1.371   1.037 -1.1507 -0.1657 -1.2799
 1254SOL    HW2 3904   0.557   1.276   0.928 -0.4752 -1.0151 -0.2665
 1255SOL     OW 3905   2.306   2.201   2.008  0.2321 -0.0403 -0.3179
 1255SOL    HW1 3906   2.269   2.126   1.962  1.3523 -1.6712  1.3045
 1255SOL    HW2 3907   2.262   2.201   2.094  1.9417 -0.3786  0.6119
 1256SOL     OW 3908   2.042   1.980   0.183  0.1638 -0.1848 -0.6897
 1256SOL    HW1 3909   2.057   2.068   0.147  0.1535  1.4707  2.9001
 1256SOL    HW2 3910   2.129   1.940   0.184  1.1749  1.7454  1.9026
 1257SOL     OW 3911   2.747   3.006   3.736 -0.2016 -0.7040  0.4370
 1257SOL    HW1 3912   2.792   3.023   3.653 -0.3938  1.2712  0.6897
 1257SOL    HW2 3913   2.793   2.931   3.774  1.9004  0.2831 -0.0256
 1258SOL     OW 3914   2.370   2.665   2.226  0.7654  0.3433  0.2955
 1258SOL    HW1 3915   2.382   2.594   2.163  0.0414  0.0120  0.5228
 1258SOL    HW2 3916   2.357   2.743   2.171  3.9785  0.7882  0.0270
 1259SOL     OW 3917   2.952   1.131   3.003  0.5693 -0.0188 -0.6089
 1259SOL    HW1 3918   2.869   1.085   3.020 -0.5767  1.5807 -1.6216
 1259SOL    HW2 3919   3.009   1.102   3.073 -0.9576 -0.9142  0.3376
 1260SOL     OW 3920   1.947   1.161   2.030  0.3195  0.0674  0.0368
 1260SOL    HW1 3921   1.879   1.221   2.063  1.4924  0.6410  1.5605
 1260SOL    HW2 3922   2.029   1.206   2.050  1.1868 -1.3844 -0.1655
 1261SOL     OW 3923   0.337   1.862   0.635  0.1524  0.1314 -0.0446
 1261SOL    HW1 3924   0.290   1.944   0.647 -0.6589 -0.3264  0.0474
 1261SOL    HW2 3925   0.380   1.870   0.550  0.7590  0.9633  0.3312
 1262SOL     OW 3926   2.333   1.832   0.528  0.8212 -0.4262  0.4866
 1262SOL    HW1 3927   2.247   1.820   0.568  1.6447 -1.0227  2.1359
 1262SOL    HW2 3928   2.327   1.786   0.444 -1.2925  1.7684 -0.6907
 1263SOL     OW 3929   0.246   1.702   0.962  0.4906 -0.5026 -0.8553
 1263SOL    HW1 3930   0.247   1.670   0.871 -0.0674 -1.4713 -0.5362
 1263SOL    HW2 3931   0.194   1.637   1.009 -1.4154  1.3167 -0.3125
 1264SOL     OW 3932   1.403   2.686   1.820 -0.2385 -0.1813 -0.6383
 1264SOL    HW1 3933   1.444   2.638   1.748 -0.8635  0.6631 -1.5702
 1264SOL    HW2 3934   1.411   2.778   1.795 -0.4927  0.1251  0.3629
 1265SOL     OW 3935   0.899   1.102   0.977 -0.2588 -0.4145  0.3269
 1265SOL    HW1 3936   0.941   1.044   1.040  1.9915  1.9851  1.2607
 1265SOL    HW2 3937   0.882   1.183   1.027 -1.1090  0.5516 -1.4286
 1266SOL     OW 3938   1.745   3.560   3.661 -0.1211  0.0087 -0.1926
 1266SOL    HW1 3939   1.721   3.647   3.630 -1.6772 -0.4449 -0.3319
 1266SOL    HW2 3940   1.668   3.506   3.645  0.4689 -1.1795  0.7665
 1267SOL     OW 3941   3.182   0.403   0.306 -0.0707 -0.5366 -0.2036
 1267SOL    HW1 3942   3.148   0.339   0.244 -1.5242  0.0595 -0.0677
 1267SOL    HW2 3943   3.108   0.421   0.364  0.8128  0.0372  0.7810
 1268SOL     OW 3944   0.897   3.481   2.015  0.0926 -0.5910 -0.0465
 1268SOL    HW1 3945   0.940   3.455   2.096 -0.3392 -0.1978  0.3076
 1268SOL    HW2 3946   0.807   3.502   2.040 -0.4096 -1.7091 -0.8378
 1269SOL     OW 3947   1.599   0.425   3.672  0.0477  0.0051  0.3571
 1269SOL    HW1 3948   1.529   0.460   3.727  0.2463 -0.6915  1.0709
 1269SOL    HW2 3949   1.630   0.348   3.718  2.1098  0.9435  0.6750
 1270SOL     OW 3950   2.466   0.351   0.022  0.5671 -0.4492  0.1959
 1270SOL    HW1 3951   2.374   0.339  -0.000  0.4436 -2.1116  1.4071
 1270SOL    HW2 3952   2.466   0.420   0.089 -0.0305 -1.6575  1.4935
 1271SOL     OW 3953   3.130   1.356   2.240  0.3440  0.4176 -0.3647
 1271SOL    HW1 3954   3.207   1.300   2.225 -1.4669 -2.3458 -0.0096
 1271SOL    HW2 3955   3.130   1.416   2.166  1.7543 -0.8515 -1.4661
 1272SOL     OW 3956   1.319   3.351   0.352  0.7178 -0.4158 -0.0067
 1272SOL    HW1 3957   1.374   3.325   0.278  0.0124 -0.5414 -0.4924
 1272SOL    HW2 3958   1.355   3.303   0.427  1.9298  0.3187 -0.1031
 1273SOL     OW 3959   0.674   1.123   1.504 -0.1853  0.3137 -0.3335
 1273SOL    HW1 3960   0.578   1.119   1.499 -0.0924 -0.5934 -2.1415
 1273SOL    HW2 3961   0.692   1.152   1.593 -2.1567  1.3786 -0.2229
 1274SOL     OW 3962   3.466   3.184   2.706 -0.2149  0.2153 -0.1874
 1274SOL    HW1 3963   3.448   3.196   2.613 -0.5600 -0.4103 -0.2093
 1274SOL    HW2 3964   3.396   3.126   2.737  0.8805 -1.0425  0.0704
 1275SOL     OW 3965   0.647   2.471   3.213  0.5495  0.0434 -0.5271
 1275SOL    HW1 3966   0.597   2.425   3.280  0.0072  0.9202 -0.2985
 1275SOL    HW2 3967   0.739   2.454   3.234  0.5195 -4.5925 -3.0147
 1276SOL     OW 3968   3.449   2.538   3.411  0.6476 -0.3329  0.3523
 1276SOL    HW1 3969   3.406   2.472   3.464 -1.2443  0.5355 -0.0137
 1276SOL    HW2 3970   3.471   2.608   3.473  0.7777 -0.4126  0.3975
 1277SOL     OW 3971   0.217   0.506   1.238  0.2171 -0.1398 -0.0467
 1277SOL    HW1 3972   0.176   0.593   1.237  0.0184 -0.2332 -0.4615
 1277SOL    HW2 3973   0.309   0.523   1.218  0.9680  0.3311  3.2623
 1278SOL     OW 3974   0.261   0.798   1.089  0.3536  0.5663  0.5123
 1278SOL    HW1 3975   0.335   0.844   1.049  0.1546  2.4756  2.1919
 1278SOL    HW2 3976   0.224   0.747   1.018  2.3313  0.7725 -0.7611
 1279SOL     OW 3977   3.694   1.761   0.623  0.8458  0.1841 -0.7207
 1279SOL    HW1 3978   3.767   1.720   0.670 -0.1095 -0.3144  0.3911
 1279SOL    HW2 3979   3.647   1.687   0.585 -0.7309  0.1906  1.0588
 1280SOL     OW 3980   2.932   2.173   3.690 -0.8557  0.1549 -0.0712
 1280SOL    HW1 3981   2.959   2.217   3.771 -1.5900  2.2476 -0.9005
 1280SOL    HW2 3982   2.841   2.147   3.706 -0.5987 -0.5920  0.2160
 1281SOL     OW 3983   0.066   1.951   3.091 -0.0405  0.4696 -0.3629
 1281SOL    HW1 3984  -0.023   1.970   3.122  0.1610  0.3876  0.2646
 1281SOL    HW2 3985   0.055   1.936   2.997 -0.4812  1.8071 -0.5402
 1282SOL     OW 3986   3.044   2.931   0.726  0.3775  0.0959  0.1435
 1282SOL    HW1 3987   3.129   2.915   0.685 -0.5171  1.3147 -2.4381
 1282SOL    HW2 3988   3.001   2.845   0.727  1.0125 -0.2330 -0.1133
 1283SOL     OW 3989   3.163   2.793   1.189  0.0725  0.2376 -0.0020
 1283SOL    HW1 3990   3.178   2.716   1.243  2.0149  0.1820 -0.5563
 1283SOL    HW2 3991   3.080   2.829   1.221 -0.8813 -2.0651  0.2552
 1284SOL     OW 3992   2.983   1.714   0.804 -0.3281 -0.3761  0.2524
 1284SOL    HW1 3993   2.976   1.642   0.867 -0.4175 -0.9797 -0.4374
 1284SOL    HW2 3994   3.073   1.746   0.815  0.1683 -1.4988 -0.3839
 1285SOL     OW 3995   0.803   0.280   0.463 -0.3053  0.5748 -0.0024
 1285SOL    HW1 3996   0.754   0.330   0.397 -1.7982 -0.9044 -0.0688
 1285SOL    HW2 3997   0.872   0.340   0.492  0.6637  1.1465 -3.1605
 1286SOL     OW 3998   2.507   3.079   1.399 -0.4505 -0.7032 -0.0557
 1286SOL    HW1 3999   2.446   3.152   1.408 -0.4429 -0.7703  0.5756
 1286SOL    HW2 4000   2.502   3.055   1.307  0.7739  1.1570 -0.6604
 1287SOL     OW 4001   2.661   1.031   2.973  0.2912  0.6091  0.0938
 1287SOL    HW1 4002   2.599   1.082   3.025 -0.7179 -0.5102  0.0038
 1287SOL    HW2 4003   2.627   0.942   2.974  0.6257  0.4109 -1.9035
 1288SOL     OW 4004   0.426   2.414   0.665 -0.4265 -0.3037 -0.0323
 1288SOL    HW1 4005   0.392   2.441   0.580 -0.1675  1.2292  0.3226
 1288SOL    HW2 4006   0.365   2.453   0.729  1.7035  2.2955  0.6104
 1289SOL     OW 4007   0.239   2.170   2.310 -0.4004  0.5202 -0.2681
 1289SOL    HW1 4008   0.205   2.237   2.370 -2.1090  1.1774 -1.8525
 1289SOL    HW2 4009   0.260   2.096   2.366  0.1091  1.8412  1.3680
 1290SOL     OW 4010   2.035   0.088   1.305  0.9144  0.5368  0.2655
 1290SOL    HW1 4011   1.956   0.040   1.332  1.4934 -1.0540 -0.7417
 1290SOL    HW2 4012   2.065   0.131   1.385  0.9606 -1.6589  1.4913
 1291SOL     OW 4013   2.988   1.695   1.113 -0.7059  0.0243  0.5208
 1291SOL    HW1 4014   2.901   1.734   1.110 -1.1877 -1.0120 -2.5861
 1291SOL    HW2 4015   3.047   1.765   1.086 -0.7314  0.3310  1.2391
 1292SOL     OW 4016   2.853   1.185   1.522 -0.3938 -0.3454 -0.1748
 1292SOL    HW1 4017   2.838   1.112   1.462  1.7367 -2.1831  1.3900
 1292SOL    HW2 4018   2.942   1.215   1.501 -1.1092  1.7088 -0.5958
 1293SOL     OW 4019   1.650   0.990   1.520 -0.1031  0.4754  0.4842
 1293SOL    HW1 4020   1.729   0.936   1.522 -0.7258 -0.5059 -0.6147
 1293SOL    HW2 4021   1.603   0.967   1.600  0.8206  1.2560  1.2800
 1294SOL     OW 4022   1.920   3.718   2.014 -0.5555 -0.1990 -0.0192
 1294SOL    HW1 4023   1.986   3.663   1.972  0.3267  0.5184  0.3919
 1294SOL    HW2 4024   1.845   3.716   1.954 -0.0181 -0.6992 -0.6915
 1295SOL     OW 4025   2.425   3.191   0.315  0.1787 -0.3698 -0.4102
 1295SOL    HW1 4026   2.457   3.268   0.362  0.5988 -0.6222 -0.2735
 1295SOL    HW2 4027   2.483   3.183   0.239  0.4782 -0.8550 -0.1396
 1296SOL     OW 4028   1.799   1.265   3.597 -0.8552  0.5001 -1.1698
 1296SOL    HW1 4029   1.737   1.237   3.664  1.0004 -1.7423 -0.2451
 1296SOL    HW2 4030   1.810   1.189   3.540  1.9241  0.3230 -0.5495
 1297SOL     OW 4031   1.907   2.610   3.484  0.0989 -0.4038 -0.2863
 1297SOL    HW1 4032   1.892   2.691   3.436  0.2847  0.5694  1.2179
 1297SOL    HW2 4033   1.821   2.567   3.484 -0.2009  0.1711 -0.4474
 1298SOL     OW 4034   3.212   2.528   1.307 -0.4492 -0.1052 -0.3102
 1298SOL    HW1 4035   3.234   2.437   1.289  0.7936 -0.0461  0.7113
 1298SOL    HW2 4036   3.297   2.571   1.318 -0.9968  1.2909 -1.2321
 1299SOL     OW 4037   0.439   1.126   2.231 -0.0221 -0.0207 -0.1261
 1299SOL    HW1 4038   0.523   1.171   2.246  0.8779 -1.3993 -0.8464
 1299SOL    HW2 4039   0.373   1.191   2.257  1.1786  2.0334 -1.8247
 1300SOL     OW 4040   2.602   2.786   2.921  0.1961 -0.9603  0.9873
 1300SOL    HW1 4041   2.669   2.843   2.884  0.5816 -2.4963 -0.8052
 1300SOL    HW2 4042   2.520   2.818   2.885  0.4831 -1.9250 -0.5886
 1301SOL     OW 4043   1.322   0.561   0.716  0.6806 -0.5475  0.1611
 1301SOL    HW1 4044   1.259   0.632   0.732  0.0471 -1.1298  0.2742
 1301SOL    HW2 4045   1.312   0.502   0.791  1.2270 -0.7481  0.0827
 1302SOL     OW 4046   1.180   3.108   3.190 -0.2509 -0.5689 -0.3725
 1302SOL    HW1 4047   1.194   3.023   3.150  0.4830  0.0161 -1.4089
 1302SOL    HW2 4048   1.267   3.144   3.202 -0.3645 -1.0055  2.5034
 1303SOL     OW 4049   2.464   1.762   2.857 -0.4617  0.5780  0.2660
 1303SOL    HW1 4050   2.391   1.702   2.842 -0.9550  1.2170  0.0458
 1303SOL    HW2 4051   2.434   1.845   2.820  0.9083  0.5235 -1.0415
 1304SOL     OW 4052   1.710   0.684   1.164  0.5056  0.1280  0.1446
 1304SOL    HW1 4053   1.715   0.592   1.191 -1.5481  0.0393  0.3729
 1304SOL    HW2 4054   1.781   0.727   1.211  0.9353 -1.1932  0.7299
 1305SOL     OW 4055   0.178   2.072   3.625 -0.1553 -0.6164  0.8247
 1305SOL    HW1 4056   0.143   2.061   3.537  2.0073  0.7973 -0.2865
 1305SOL    HW2 4057   0.198   1.982   3.654 -0.9769 -1.0989 -0.0590
 1306SOL     OW 4058   2.093   0.604   1.088 -0.2640  0.1265 -0.0280
 1306SOL    HW1 4059   2.047   0.545   1.148  0.2700  0.6641  0.9369
 1306SOL    HW2 4060   2.026   0.631   1.025 -1.5976  1.7072  1.9417
 1307SOL     OW 4061   3.471   1.606   2.988 -0.7976 -0.0524 -0.2580
 1307SOL    HW1 4062   3.493   1.588   2.897 -0.2924 -2.4407  0.2827
 1307SOL    HW2 4063   3.387   1.564   3.002 -1.1967  0.8686  0.2392
 1308SOL     OW 4064   0.577   0.049   3.543  0.5419 -0.4647 -0.1214
 1308SOL    HW1 4065   0.612   0.084   3.461  1.5394  0.0083  0.4909
 1308SOL    HW2 4066   0.482   0.057   3.533  0.6823  3.1662  0.2641
 1309SOL     OW 4067   0.717   3.205   1.475  0.1839 -0.2849  0.2265
 1309SOL    HW1 4068   0.681   3.288   1.507  2.1471  0.1054  1.5831
 1309SOL    HW2 4069   0.645   3.143   1.482 -1.0466  1.0712  0.0962
 1310SOL     OW 4070   1.908   1.717   1.417  0.0507 -0.2280 -0.4667
 1310SOL    HW1 4071   1.815   1.722   1.393 -0.0088 -1.4197 -0.5856
 1310SOL    HW2 4072   1.946   1.798   1.384 -0.3550 -1.0285 -3.1665
 1311SOL     OW 4073   1.765   3.315   3.133 -0.2277 -0.0508 -0.4319
 1311SOL    HW1 4074   1.766   3.231   3.087 -1.3960 -0.4896  0.2813
 1311SOL    HW2 4075   1.786   3.380   3.066  0.3649 -0.8814 -1.0695
 1312SOL     OW 4076   0.938   3.067   1.540 -0.8582  0.3127 -0.5647
 1312SOL    HW1 4077   0.864   3.127   1.529 -0.6196  0.6232 -0.5160
 1312SOL    HW2 4078   0.920   3.019   1.621 -0.8712  0.5881 -0.4029
 1313SOL     OW 4079   2.265   3.618   3.690 -0.3705  0.0590  0.3100
 1313SOL    HW1 4080   2.358   3.609   3.710 -0.7147 -0.1009  2.0224
 1313SOL    HW2 4081   2.220   3.590   3.770 -1.9889 -2.1328 -1.2070
 1314SOL     OW 4082   0.984   1.835   1.598  0.0102  0.0291 -0.2618
 1314SOL    HW1 4083   1.010   1.743   1.598 -2.2339 -0.6717 -0.7164
 1314SOL    HW2 4084   0.933   1.845   1.679  1.5529  1.3496  0.6277
 1315SOL     OW 4085   0.425   2.409   0.149  0.4717  0.1397 -0.0292
 1315SOL    HW1 4086   0.438   2.366   0.064  2.2229  0.4510  0.0523
 1315SOL    HW2 4087   0.491   2.478   0.151  0.0795  0.4923  1.3606
 1316SOL     OW 4088   3.248   0.135   2.357 -0.3324  0.4299  0.1721
 1316SOL    HW1 4089   3.305   0.199   2.316  1.1549 -0.3590  0.9283
 1316SOL    HW2 4090   3.282   0.050   2.329 -0.9311 -0.0666  0.8884
 1317SOL     OW 4091   2.118   3.031   3.394 -0.0538  0.1508  0.3239
 1317SOL    HW1 4092   2.106   3.052   3.487  1.1039 -1.3742  0.8676
 1317SOL    HW2 4093   2.055   2.960   3.378  1.5228 -1.4110  0.7001
 1318SOL     OW 4094   2.563   2.000   0.939 -0.3974 -0.1887  0.4057
 1318SOL    HW1 4095   2.653   1.976   0.918  0.2573 -0.3506  3.0980
 1318SOL    HW2 4096   2.510   1.937   0.890  1.0560 -1.8060  0.8075
 1319SOL     OW 4097   0.891   2.676   2.547 -0.3362  0.1716  0.0842
 1319SOL    HW1 4098   0.814   2.664   2.602 -1.4376 -0.6574 -1.5404
 1319SOL    HW2 4099   0.857   2.719   2.468  0.7238 -0.8357 -0.9603
 1320SOL     OW 4100   2.589   3.253   0.053 -0.8481 -0.2190  0.7445
 1320SOL    HW1 4101   2.656   3.312   0.020 -0.7904  0.1402  1.4750
 1320SOL    HW2 4102   2.625   3.165   0.041 -1.5661 -0.2451 -1.7944
 1321SOL     OW 4103   3.377   1.722   2.344  0.5648 -0.3376  0.0413
 1321SOL    HW1 4104   3.415   1.807   2.369 -0.4605 -0.5093  2.4221
 1321SOL    HW2 4105   3.312   1.744   2.278  1.0183  0.5906 -0.1241
 1322SOL     OW 4106   1.888   1.174   1.537  0.4338 -0.1986  1.0501
 1322SOL    HW1 4107   1.823   1.232   1.578 -0.8463  0.0634 -1.1957
 1322SOL    HW2 4108   1.837   1.103   1.499  1.4586 -0.0769 -0.6422
 1323SOL     OW 4109   3.614   0.117   2.759 -0.3277 -0.3245 -0.6409
 1323SOL    HW1 4110   3.550   0.053   2.789  0.3483 -0.0581  1.5529
 1323SOL    HW2 4111   3.579   0.202   2.787  1.3685 -0.2500  1.5455
 1324SOL     OW 4112   1.577   2.331   0.165 -0.5853  0.5321 -0.3108
 1324SOL    HW1 4113   1.575   2.300   0.256 -1.5087  1.5317  0.0259
 1324SOL    HW2 4114   1.489   2.312   0.132 -1.1446  2.5873 -0.1359
 1325SOL     OW 4115   2.858   3.388   3.421  0.4009 -0.2487 -0.2944
 1325SOL    HW1 4116   2.949   3.363   3.434  0.3839  0.4543  1.3973
 1325SOL    HW2 4117   2.861   3.453   3.351  1.3738  0.6668  0.5534
 1326SOL     OW 4118   0.333   3.446   3.493 -0.2221  0.1103 -0.6049
 1326SOL    HW1 4119   0.307   3.402   3.574 -2.2273  0.8753 -0.7759
 1326SOL    HW2 4120   0.333   3.376   3.427 -0.7093 -0.1302 -0.3536
 1327SOL     OW 4121   0.822   1.998   1.384  0.1375  0.1103 -0.4625
 1327SOL    HW1 4122   0.912   1.991   1.415 -1.0181 -0.0381  3.3733
 1327SOL    HW2 4123   0.787   1.910   1.393 -0.5829  0.2826 -1.4026
 1328SOL     OW 4124   1.864   3.179   0.751 -0.6052  1.4886 -0.5460
 1328SOL    HW1 4125   1.931   3.210   0.813 -0.8005  0.3226  0.2604
 1328SOL    HW2 4126   1.907   3.108   0.703 -0.8739  1.5464 -0.8759
 1329SOL     OW 4127   0.984   2.321   1.723 -0.4550  0.1533 -0.6616
 1329SOL    HW1 4128   1.067   2.366   1.707 -0.3981  0.6454  0.8766
 1329SOL    HW2 4129   0.917   2.386   1.704 -0.4127  0.4746  0.2672
 1330SOL     OW 4130   2.459   3.585   3.433  0.4783  0.3342  0.0760
 1330SOL    HW1 4131   2.428   3.538   3.510  0.5909  2.1814  1.3318
 1330SOL    HW2 4132   2.420   3.539   3.359 -0.2235 -1.0718  1.2762
 1331SOL     OW 4133   0.767   2.060   2.801 -0.4076  0.1418 -0.0220
 1331SOL    HW1 4134   0.734   2.018   2.880 -1.4716  0.6933 -0.1519
 1331SOL    HW2 4135   0.782   1.988   2.740  2.1928 -0.4970  1.2387
 1332SOL     OW 4136   3.438   2.876   2.576 -0.2286  0.1076 -0.7496
 1332SOL    HW1 4137   3.447   2.865   2.670 -0.3163  0.6505 -0.6715
 1332SOL    HW2 4138   3.344   2.880   2.561 -0.2085  0.3434 -0.8189
 1333SOL     OW 4139   0.693   2.176   0.461 -0.2666  0.1799  0.5192
 1333SOL    HW1 4140   0.683   2.263   0.500  0.4932  0.7212 -0.4479
 1333SOL    HW2 4141   0.614   2.164   0.408  0.3561  1.0073 -0.6574
 1334SOL     OW 4142   3.369   3.597   0.030  0.0469  0.2201  0.2706
 1334SOL    HW1 4143   3.353   3.682   0.070 -4.5886 -0.4185  0.3342
 1334SOL    HW2 4144   3.331   3.534   0.092 -1.1587 -1.3618 -1.9176
 1335SOL     OW 4145   2.124   0.194   1.969  0.1498 -0.3682  0.0086
 1335SOL    HW1 4146   2.036   0.193   2.006 -0.0785  0.6456 -0.4849
 1335SOL    HW2 4147   2.177   0.241   2.033 -0.2449  1.3840 -0.9131
 1336SOL     OW 4148   0.696   2.969   1.043  0.0906 -0.2236  0.1944
 1336SOL    HW1 4149   0.668   2.970   0.951  1.6551 -1.4388 -0.3403
 1336SOL    HW2 4150   0.653   2.892   1.080  0.7521 -0.6812  0.0262
 1337SOL     OW 4151   1.649   3.154   2.433  0.4874  0.4741 -0.4904
 1337SOL    HW1 4152   1.700   3.205   2.371  1.3446  0.0065 -0.2027
 1337SOL    HW2 4153   1.572   3.126   2.385  2.3266 -2.0369 -2.2291
 1338SOL     OW 4154   1.411   0.810   0.979  0.1921 -0.0180 -0.4268
 1338SOL    HW1 4155   1.381   0.719   0.989  1.3722 -0.3223  0.8550
 1338SOL    HW2 4156   1.486   0.804   0.919 -0.9082  0.4102 -1.8741
 1339SOL     OW 4157   0.112   2.902   2.642 -0.0052  0.5619  0.0477
 1339SOL    HW1 4158   0.128   2.991   2.610 -0.8072  0.7987  0.2787
 1339SOL    HW2 4159   0.078   2.855   2.565 -3.6767  1.6072  0.8416
 1340SOL     OW 4160   2.778   1.925   1.971 -0.4527  0.2385 -0.0178
 1340SOL    HW1 4161   2.712   1.991   1.993 -1.4082 -0.6221 -0.1756
 1340SOL    HW2 4162   2.842   1.971   1.918 -1.2850  0.9605 -0.4225
 1341SOL     OW 4163   3.714   2.790   1.113 -0.9077  0.2085 -0.1318
 1341SOL    HW1 4164   3.650   2.753   1.052 -0.6983  0.5977 -0.5928
 1341SOL    HW2 4165   3.695   2.884   1.115 -0.7303  0.2413  0.1833
 1342SOL     OW 4166   3.665   1.952   2.111 -0.2604 -0.5562  0.0203
 1342SOL    HW1 4167   3.573   1.975   2.097  0.0165  1.1248  0.6883
 1342SOL    HW2 4168   3.684   1.981   2.200  1.3838  0.9357 -0.7269
 1343SOL     OW 4169   1.556   0.178   2.319 -0.1727  0.2175  0.6455
 1343SOL    HW1 4170   1.618   0.109   2.344  1.2146  0.9454 -0.6188
 1343SOL    HW2 4171   1.561   0.180   2.224 -0.6227  1.6722  0.6430
 1344SOL     OW 4172   1.569   1.789   0.689 -0.3472 -0.1933  0.7548
 1344SOL    HW1 4173   1.475   1.795   0.708 -0.1103  0.2270  1.8760
 1344SOL    HW2 4174   1.575   1.802   0.594 -1.3433  0.7685  0.7997
 1345SOL     OW 4175   3.110   3.305   3.409 -0.3438 -0.4868 -0.0145
 1345SOL    HW1 4176   3.177   3.365   3.377 -1.8707  1.1200 -0.3235
 1345SOL    HW2 4177   3.153   3.219   3.406  1.7911  0.5039  0.1355
 1346SOL     OW 4178   0.795   1.019   0.727 -0.3312  0.1808  0.5754
 1346SOL    HW1 4179   0.857   0.951   0.702 -1.8744 -1.1388  0.1101
 1346SOL    HW2 4180   0.833   1.060   0.805  1.7598  0.3979 -0.4941
 1347SOL     OW 4181   0.346   0.088   1.073 -0.3978  0.2038  0.9489
 1347SOL    HW1 4182   0.347   0.100   1.168  0.1700  0.9507  0.8572
 1347SOL    HW2 4183   0.356   0.176   1.038  1.3255 -0.2364  0.2102
 1348SOL     OW 4184   2.925   2.423   3.365  0.0843  0.5606  0.1908
 1348SOL    HW1 4185   2.831   2.431   3.379 -0.4834  0.0836 -2.6993
 1348SOL    HW2 4186   2.940   2.329   3.358  0.4926  0.6857 -0.7768
 1349SOL     OW 4187   0.453   1.792   3.132 -0.0831  0.6867 -0.0846
 1349SOL    HW1 4188   0.507   1.737   3.188 -0.2482 -0.4644 -1.0285
 1349SOL    HW2 4189   0.406   1.849   3.193  0.5856  0.2520  0.8660
 1350SOL     OW 4190   0.370   3.737   0.216  0.1697 -0.3051 -0.1595
 1350SOL    HW1 4191   0.353   3.694   0.132 -0.8328 -0.7223  0.2332
 1350SOL    HW2 4192   0.298   3.707   0.273  1.0851 -0.4062  0.9861
 1351SOL     OW 4193   2.047   2.013   0.966 -0.1212  0.3909  0.8621
 1351SOL    HW1 4194   2.141   2.007   0.983 -0.3025  0.9840  2.1588
 1351SOL    HW2 4195   2.042   2.044   0.875  0.9232  0.0584  0.6735
 1352SOL     OW 4196   0.137   1.174   3.644  0.3783 -0.0850 -0.4655
 1352SOL    HW1 4197   0.211   1.231   3.666 -1.0695  1.6390  0.1727
 1352SOL    HW2 4198   0.149   1.154   3.551  0.7994  1.5131 -0.7855
 1353SOL     OW 4199   2.465   3.611   0.274 -0.0510  0.2877 -0.2498
 1353SOL    HW1 4200   2.425   3.692   0.306 -0.5008  0.3012 -0.8488
 1353SOL    HW2 4201   2.513   3.637   0.196  1.8306  0.4314  0.8915
 1354SOL     OW 4202   1.138   0.712   1.749 -0.3574 -0.5364 -0.4135
 1354SOL    HW1 4203   1.120   0.773   1.678  3.0615  0.2241 -0.8242
 1354SOL    HW2 4204   1.147   0.767   1.826  1.9238 -0.4873 -0.6325
 1355SOL     OW 4205   3.394   3.332   1.292  0.3157  0.0118 -0.3625
 1355SOL    HW1 4206   3.318   3.391   1.294  0.0360 -0.3177 -0.8831
 1355SOL    HW2 4207   3.355   3.245   1.282  0.7149 -0.2888  0.6192
 1356SOL     OW 4208   0.054   2.439   0.609 -0.2279  0.5218  0.3626
 1356SOL    HW1 4209   0.025   2.413   0.522  0.2820  0.9443  0.0661
 1356SOL    HW2 4210   0.105   2.518   0.595  1.0485 -0.1864  0.8821
 1357SOL     OW 4211   2.526   2.742   2.590  0.0851  0.4223 -0.4319
 1357SOL    HW1 4212   2.484   2.657   2.599 -1.1822  1.0549 -0.0855
 1357SOL    HW2 4213   2.574   2.737   2.508  1.3717 -1.1634  0.3517
 1358SOL     OW 4214   3.344   3.492   0.672  0.2800 -0.3563 -0.1489
 1358SOL    HW1 4215   3.411   3.427   0.691 -0.9128 -1.2761  1.1183
 1358SOL    HW2 4216   3.372   3.570   0.718  1.4055 -0.1343 -1.1685
 1359SOL     OW 4217   1.640   1.749   0.430 -0.1002  0.0797 -0.4358
 1359SOL    HW1 4218   1.619   1.802   0.353  1.1867  0.4535 -0.5614
 1359SOL    HW2 4219   1.736   1.749   0.434 -0.1209 -0.5428  0.7499
 1360SOL     OW 4220   0.903   3.092   2.102  0.0029  0.3869  0.4102
 1360SOL    HW1 4221   0.830   3.034   2.080 -1.6405  2.2534  0.6263
 1360SOL    HW2 4222   0.978   3.034   2.110 -1.3684 -1.5839 -0.2115
 1361SOL     OW 4223   1.696   2.458   1.725 -0.0316 -0.3685 -0.2846
 1361SOL    HW1 4224   1.774   2.403   1.724 -1.6428 -2.7843 -0.3193
 1361SOL    HW2 4225   1.633   2.411   1.779 -0.9085  2.4639  1.4144
 1362SOL     OW 4226   1.129   2.071   1.034  0.0446 -0.1563  0.1604
 1362SOL    HW1 4227   1.086   2.004   1.087 -0.2991 -0.6443 -0.7066
 1362SOL    HW2 4228   1.129   2.034   0.945  0.9057  0.4922 -0.1148
 1363SOL     OW 4229   0.663   1.586   0.867  0.2446  0.2957 -0.0783
 1363SOL    HW1 4230   0.624   1.667   0.834 -0.4852  0.5720  1.3437
 1363SOL    HW2 4231   0.627   1.578   0.956  2.2517 -0.2784  0.7270
 1364SOL     OW 4232   3.543   1.272   0.628 -0.0143 -0.1347  0.4944
 1364SOL    HW1 4233   3.535   1.284   0.533  1.8630  0.3728  0.3516
 1364SOL    HW2 4234   3.638   1.275   0.644 -0.2110 -1.5580  2.2245
 1365SOL     OW 4235   2.504   1.333   2.722  1.1501 -0.2090  0.3579
 1365SOL    HW1 4236   2.502   1.408   2.662 -0.6563 -0.6377 -0.1756
 1365SOL    HW2 4237   2.544   1.368   2.802 -1.0034  1.8023  0.6626
 1366SOL     OW 4238   2.308   1.922   0.172 -0.1256  0.3242 -0.2572
 1366SOL    HW1 4239   2.372   1.851   0.180 -0.1753  0.3779  0.7775
 1366SOL    HW2 4240   2.348   1.984   0.111  0.9155  0.4540  0.5331
 1367SOL     OW 4241   1.867   0.226   2.554  0.1004 -0.3581 -0.3166
 1367SOL    HW1 4242   1.884   0.241   2.461 -0.2583 -0.5632 -0.4173
 1367SOL    HW2 4243   1.784   0.269   2.571  0.0721 -0.4814 -0.1353
 1368SOL     OW 4244   2.211   1.262   2.049  0.6065  0.3309 -0.1308
 1368SOL    HW1 4245   2.230   1.169   2.046 -0.9272 -0.0945  1.4812
 1368SOL    HW2 4246   2.214   1.284   2.143 -1.2762  1.3580 -0.2632
 1369SOL     OW 4247   0.338   2.634   3.395  0.2895 -0.5811  0.0728
 1369SOL    HW1 4248   0.379   2.705   3.446 -0.4530 -0.2834  0.2601
 1369SOL    HW2 4249   0.376   2.554   3.432  0.0294 -0.3519  0.8660
 1370SOL     OW 4250   3.317   0.595   2.125 -0.1883 -0.3012  0.1064
 1370SOL    HW1 4251   3.286   0.644   2.048 -1.0658 -0.3211  0.4366
 1370SOL    HW2 4252   3.402   0.560   2.098  0.3258  1.1313 -0.2532
 1371SOL     OW 4253   1.178   3.503   1.991 -0.4496  0.3028  0.0169
 1371SOL    HW1 4254   1.190   3.443   2.064  0.3712 -0.7622 -0.9577
 1371SOL    HW2 4255   1.084   3.500   1.973 -0.8363  1.3213  1.5910
 1372SOL     OW 4256   2.625   2.162   1.802 -1.0619  0.1288  0.0333
 1372SOL    HW1 4257   2.564   2.105   1.756  0.5207 -1.3291 -0.3300
 1372SOL    HW2 4258   2.575   2.242   1.818 -3.0456 -0.9909 -0.2640
 1373SOL     OW 4259   2.902   3.591   0.752 -0.3906  0.0589 -0.4344
 1373SOL    HW1 4260   2.898   3.621   0.662  1.9050  3.3069  0.3740
 1373SOL    HW2 4261   2.880   3.668   0.805  0.7520 -1.0468  1.8193
 1374SOL     OW 4262   2.485   3.255   2.412 -0.1479  0.5024  0.1057
 1374SOL    HW1 4263   2.558   3.244   2.350  0.5012 -1.2804  1.1164
 1374SOL    HW2 4264   2.519   3.314   2.479  0.7182 -0.9792  1.0182
 1375SOL     OW 4265   3.532   3.345   0.785  0.1569  0.0545 -0.2251
 1375SOL    HW1 4266   3.525   3.250   0.800 -0.9706  0.4385  2.1228
 1375SOL    HW2 4267   3.619   3.368   0.818  0.8494 -0.2624 -1.7337
 1376SOL     OW 4268   2.128   3.571   2.724 -0.4813 -0.9197  0.3427
 1376SOL    HW1 4269   2.181   3.532   2.654  0.1650 -0.2467  0.4524
 1376SOL    HW2 4270   2.118   3.662   2.698  0.8048 -0.3443  1.7260
 1377SOL     OW 4271   1.448   1.477   0.701  0.0427 -0.3004  0.7631
 1377SOL    HW1 4272   1.428   1.390   0.737  0.4668 -1.2650 -1.1369
 1377SOL    HW2 4273   1.371   1.530   0.721 -1.1052 -1.7149  0.2627
 1378SOL     OW 4274   0.265   0.704   0.052 -0.0270  0.4197 -0.2254
 1378SOL    HW1 4275   0.273   0.771   0.121 -2.0200 -0.5598  1.0836
 1378SOL    HW2 4276   0.253   0.754  -0.028 -3.1848  1.8290  0.9241
 1379SOL     OW 4277   2.013   0.695   0.771 -0.0087 -0.0700  0.3363
 1379SOL    HW1 4278   1.972   0.645   0.700  2.2445  2.0380 -2.7342
 1379SOL    HW2 4279   1.966   0.779   0.771  0.8387  0.4160  0.4057
 1380SOL     OW 4280   0.573   3.186   1.868 -0.0907  0.0381  0.3774
 1380SOL    HW1 4281   0.535   3.272   1.887  0.5022  0.2133  0.7623
 1380SOL    HW2 4282   0.661   3.204   1.837 -0.1497 -0.4059 -0.0768
 1381SOL     OW 4283   3.097   0.040   2.571 -0.5448 -0.2958  1.0690
 1381SOL    HW1 4284   3.154   0.033   2.494 -0.4679  1.0975  0.9659
 1381SOL    HW2 4285   3.044  -0.040   2.569 -0.6725 -0.2084 -0.5443
 1382SOL     OW 4286   1.410   2.946   1.704  0.2439 -0.1318 -0.3427
 1382SOL    HW1 4287   1.414   2.950   1.608  0.3129 -2.9614 -0.5215
 1382SOL    HW2 4288   1.492   2.987   1.732  0.3280  0.5462 -1.4937
 1383SOL     OW 4289   0.695   1.161   2.299 -0.0672 -0.0512  0.2935
 1383SOL    HW1 4290   0.707   1.103   2.374  0.1778 -0.7831 -0.2979
 1383SOL    HW2 4291   0.761   1.133   2.235  0.9401  1.7205  0.4754
 1384SOL     OW 4292   3.294   0.101   2.956  0.3072 -0.6342 -0.5612
 1384SOL    HW1 4293   3.304   0.050   3.036  1.8586 -1.9195 -1.5109
 1384SOL    HW2 4294   3.299   0.192   2.984  0.3713 -1.0575  0.8426
 1385SOL     OW 4295   0.910   3.049   3.027  0.0281  0.7160 -0.0641
 1385SOL    HW1 4296   0.894   3.078   2.938 -0.1229  0.7264 -0.0329
 1385SOL    HW2 4297   0.948   3.125   3.071 -2.0722  1.5029  0.5351
 1386SOL     OW 4298   1.141   2.796   3.492 -0.8392 -0.5470  0.0391
 1386SOL    HW1 4299   1.190   2.732   3.544  0.7115  0.2844 -0.3324
 1386SOL    HW2 4300   1.118   2.865   3.554 -2.7648 -1.5498  0.5027
 1387SOL     OW 4301   0.919   2.900   1.761 -0.2977 -0.4768  0.1406
 1387SOL    HW1 4302   0.903   2.836   1.831 -1.0852  0.0905  0.4990
 1387SOL    HW2 4303   1.008   2.932   1.777 -0.2295 -0.8363  0.4912
 1388SOL     OW 4304   2.162   2.107   3.535  0.0123 -0.2729 -0.1337
 1388SOL    HW1 4305   2.252   2.139   3.528 -0.9322  3.3193  1.8401
 1388SOL    HW2 4306   2.154   2.079   3.627 -1.1851  0.5509  0.0259
 1389SOL     OW 4307   1.038   0.888   1.136  0.1753 -0.3668 -0.1520
 1389SOL    HW1 4308   1.068   0.800   1.161 -1.0582 -0.3954  1.3290
 1389SOL    HW2 4309   0.947   0.892   1.165  0.4663  1.7128  0.6135
 1390SOL     OW 4310   3.389   0.044   0.838  0.3789 -0.1830 -0.2614
 1390SOL    HW1 4311   3.321   0.042   0.772  0.1933 -2.7858 -0.0933
 1390SOL    HW2 4312   3.345   0.021   0.920  0.8842  1.4896  0.5435
 1391SOL     OW 4313   1.558   1.971   0.281  0.3974 -1.0705  0.1902
 1391SOL    HW1 4314   1.514   1.940   0.202 -0.7950  0.4392  0.2106
 1391SOL    HW2 4315   1.644   1.999   0.251  0.6886 -2.2965 -0.1968
 1392SOL     OW 4316   2.405   1.389   1.050  0.4585  0.4034  0.5411
 1392SOL    HW1 4317   2.396   1.479   1.082  0.4766  0.6748 -0.2040
 1392SOL    HW2 4318   2.440   1.398   0.962  0.3765 -0.3338  0.4269
 1393SOL     OW 4319   2.018   2.078   3.012  0.2744  0.6309  0.0050
 1393SOL    HW1 4320   1.996   2.014   2.945  0.5051  0.9680 -0.3991
 1393SOL    HW2 4321   1.936   2.090   3.062  0.5456 -0.8410  0.8357
 1394SOL     OW 4322   0.754   1.882   2.583  0.0679 -0.5101 -0.4147
 1394SOL    HW1 4323   0.831   1.832   2.610  0.2096 -0.8012 -1.3198
 1394SOL    HW2 4324   0.713   1.828   2.516  1.3938  1.4544 -3.0024
 1395SOL     OW 4325   2.082   1.117   2.838  0.6937  0.0136 -0.1777
 1395SOL    HW1 4326   2.143   1.124   2.764  0.6799 -0.7669 -0.2657
 1395SOL    HW2 4327   2.045   1.030   2.831  0.9392 -0.2016  0.9470
 1396SOL     OW 4328   0.634   1.092   2.609  0.8057 -0.1551 -0.4464
 1396SOL    HW1 4329   0.641   0.999   2.629  0.0823  0.1799  1.6354
 1396SOL    HW2 4330   0.546   1.103   2.575 -0.0474  0.0802  1.6686
 1397SOL     OW 4331   2.788   1.663   3.080  0.2523  0.1339 -0.4809
 1397SOL    HW1 4332   2.780   1.694   3.170  0.6668  0.0473 -0.4152
 1397SOL    HW2 4333   2.822   1.574   3.088 -1.4322 -0.5635 -0.6431
 1398SOL     OW 4334   0.848   2.674   3.033 -0.2726 -0.5748 -0.3779
 1398SOL    HW1 4335   0.760   2.702   3.058  0.8977  2.3656  0.8986
 1398SOL    HW2 4336   0.850   2.683   2.938 -1.3604 -0.8365 -0.4409
 1399SOL     OW 4337   1.996   3.617   3.549  0.4694 -0.5584 -0.5963
 1399SOL    HW1 4338   1.929   3.609   3.618 -0.7944 -2.1605 -1.9140
 1399SOL    HW2 4339   2.079   3.602   3.594  0.2090  3.0623  1.4026
 1400SOL     OW 4340   2.458   3.149   2.718  0.5866 -0.2309 -0.5958
 1400SOL    HW1 4341   2.513   3.128   2.794 -1.1258  0.3545  0.8805
 1400SOL    HW2 4342   2.481   3.240   2.697  1.7924 -0.7174 -1.4580
 1401SOL     OW 4343   3.360   1.739   1.551  0.0630 -0.3933 -0.2537
 1401SOL    HW1 4344   3.453   1.741   1.528  0.4273 -0.2356  1.1162
 1401SOL    HW2 4345   3.319   1.801   1.491  1.2861  1.5411  0.7910
 1402SOL     OW 4346   2.618   1.028   0.919 -0.1226 -0.0463 -0.0661
 1402SOL    HW1 4347   2.643   1.018   1.011  0.5516 -2.2442 -0.4100
 1402SOL    HW2 4348   2.660   0.954   0.875 -2.1828 -0.3139 -1.7755
 1403SOL     OW 4349   0.221   2.475   1.910 -0.1068 -0.3843  0.3714
 1403SOL    HW1 4350   0.135   2.516   1.907  0.8093  1.5961 -0.9751
 1403SOL    HW2 4351   0.227   2.426   1.828 -0.2186 -1.1628  0.8155
 1404SOL     OW 4352   3.104   2.121   2.419  0.3071  0.0119  0.5300
 1404SOL    HW1 4353   3.078   2.040   2.377  1.7113 -0.0334 -0.2971
 1404SOL    HW2 4354   3.148   2.171   2.351  3.8143 -0.5965  2.1237
 1405SOL     OW 4355   3.049   0.826   3.384  0.0109  0.2706  0.6417
 1405SOL    HW1 4356   3.138   0.857   3.368 -0.7156  2.3334  0.2864
 1405SOL    HW2 4357   3.059   0.733   3.405  2.4144  0.8026  2.2282
 1406SOL     OW 4358   1.360   3.626   3.183 -0.1981  0.1805  0.0295
 1406SOL    HW1 4359   1.322   3.615   3.270 -0.0710 -0.2641  0.0344
 1406SOL    HW2 4360   1.307   3.693   3.141 -1.6135 -1.0968 -0.3190
 1407SOL     OW 4361   0.233   2.928   0.613 -0.0273  0.4429 -0.0880
 1407SOL    HW1 4362   0.234   2.973   0.528 -0.1634  1.5365  0.4626
 1407SOL    HW2 4363   0.296   2.977   0.666 -1.4407  1.0809  1.0595
 1408SOL     OW 4364   2.299   1.311   2.318  0.3288  0.5144 -0.2061
 1408SOL    HW1 4365   2.331   1.398   2.296  1.6531  0.2934  0.7484
 1408SOL    HW2 4366   2.314   1.303   2.412 -0.3075 -0.5284 -0.1820
 1409SOL     OW 4367   1.782   0.739   3.283  0.0795 -0.2130 -0.0868
 1409SOL    HW1 4368   1.725   0.740   3.207  0.4685 -0.1170 -0.3829
 1409SOL    HW2 4369   1.738   0.683   3.347  0.1994 -1.0547 -0.7327
 1410SOL     OW 4370   2.470   1.023   1.779 -0.1230 -0.3435  0.3351
 1410SOL    HW1 4371   2.489   1.116   1.768  1.4739 -0.2158  3.1058
 1410SOL    HW2 4372   2.555   0.980   1.771 -0.9771 -1.7649 -1.9394
 1411SOL     OW 4373   1.086   0.750   0.292  0.1961 -0.7205 -0.3567
 1411SOL    HW1 4374   1.064   0.657   0.288  1.2405 -1.0713  1.1005
 1411SOL    HW2 4375   1.129   0.768   0.208  1.9960 -2.1508  0.1816
 1412SOL     OW 4376   1.240   2.216   2.904  0.5816 -0.5713 -0.0713
 1412SOL    HW1 4377   1.265   2.294   2.854 -2.4868  0.9611  0.5424
 1412SOL    HW2 4378   1.270   2.143   2.851 -1.8099  0.9647 -3.9706
 1413SOL     OW 4379   2.202   3.376   0.866  0.2361  0.0086 -0.5650
 1413SOL    HW1 4380   2.279   3.426   0.839  0.7209 -0.2524  0.2737
 1413SOL    HW2 4381   2.140   3.442   0.895  0.4584  0.1856 -0.4846
 1414SOL     OW 4382   1.474   2.547   3.544  0.1456 -0.1782 -0.8208
 1414SOL    HW1 4383   1.544   2.494   3.506  0.0719 -0.0248 -1.1688
 1414SOL    HW2 4384   1.393   2.504   3.518  0.0694  0.3705 -1.5092
 1415SOL     OW 4385   1.822   3.270   0.039  0.1547 -0.0976  0.6677
 1415SOL    HW1 4386   1.894   3.321   0.003  0.2626 -1.6567 -1.5767
 1415SOL    HW2 4387   1.772   3.242  -0.038 -2.3736  0.2029  2.0956
 1416SOL     OW 4388   3.469   1.561   1.977 -0.5915 -0.3865 -0.4140
 1416SOL    HW1 4389   3.382   1.590   1.951 -0.9504 -1.1094 -0.0404
 1416SOL    HW2 4390   3.462   1.465   1.981  0.4829 -0.5230 -1.3442
 1417SOL     OW 4391   2.416   0.246   2.717  0.4018  0.5528 -0.0010
 1417SOL    HW1 4392   2.361   0.304   2.771 -1.0772  0.1025 -0.9513
 1417SOL    HW2 4393   2.493   0.299   2.696 -0.6958  2.0523 -0.4706
 1418SOL     OW 4394   1.756   3.662   1.807 -0.6654  0.5889 -0.2298
 1418SOL    HW1 4395   1.780   3.737   1.752  1.1747  1.0373  1.0737
 1418SOL    HW2 4396   1.717   3.599   1.746  1.7206  0.8337 -2.1630
 1419SOL     OW 4397   2.824   2.557   2.744  0.2899  0.3362  0.2417
 1419SOL    HW1 4398   2.799   2.469   2.774  1.3681  0.5490  1.9207
 1419SOL    HW2 4399   2.742   2.597   2.716 -1.2752  0.6071  4.4244
 1420SOL     OW 4400   2.485   0.502   0.311 -0.1889 -0.0715 -0.6316
 1420SOL    HW1 4401   2.565   0.502   0.363  0.1039 -0.9532 -1.0763
 1420SOL    HW2 4402   2.420   0.460   0.368  0.2457 -1.4600 -1.1327
 1421SOL     OW 4403   0.981   3.529   2.356 -0.3441 -0.1729  0.2891
 1421SOL    HW1 4404   1.014   3.601   2.302  0.8951 -1.7682 -1.2302
 1421SOL    HW2 4405   0.998   3.556   2.446 -0.1141  1.5170 -0.2277
 1422SOL     OW 4406   2.300   0.896   0.085 -0.2875 -0.1409  0.5917
 1422SOL    HW1 4407   2.245   0.970   0.110 -1.4388 -0.1507 -1.6795
 1422SOL    HW2 4408   2.288   0.832   0.155 -2.6235  0.1540  0.5306
 1423SOL     OW 4409   2.406   0.756   0.903 -0.7318 -0.1956  0.0285
 1423SOL    HW1 4410   2.501   0.764   0.898 -0.6010 -1.3224  0.5114
 1423SOL    HW2 4411   2.391   0.701   0.980 -1.8254  0.8691  0.6113
 1424SOL     OW 4412   2.988   3.606   3.284  0.1605  0.4867 -0.0965
 1424SOL    HW1 4413   3.043   3.644   3.216  1.2440 -1.1229 -0.1627
 1424SOL    HW2 4414   2.984   3.674   3.352  2.1191  0.6892 -0.1438
 1425SOL     OW 4415   0.713   1.330   0.764  0.0207  0.1887 -0.1662
 1425SOL    HW1 4416   0.768   1.396   0.806  0.9735  0.9937 -2.5595
 1425SOL    HW2 4417   0.630   1.375   0.747  0.2627  0.4264 -0.7402
 1426SOL     OW 4418   2.553   3.436   2.587  0.0201  0.0623 -0.0984
 1426SOL    HW1 4419   2.523   3.485   2.663  3.2048  1.8447  0.1711
 1426SOL    HW2 4420   2.629   3.485   2.554 -0.0013 -1.7181 -3.2474
 1427SOL     OW 4421   2.767   0.018   2.926  0.2386  0.3541 -0.1962
 1427SOL    HW1 4422   2.744   0.107   2.951 -0.5413  0.1102 -0.0176
 1427SOL    HW2 4423   2.856   0.005   2.960 -0.1818  0.5831  1.0147
 1428SOL     OW 4424   0.988   0.479   0.293  0.1689  0.5878 -0.3724
 1428SOL    HW1 4425   1.041   0.483   0.373 -0.1101  1.5065 -0.2199
 1428SOL    HW2 4426   1.020   0.401   0.247  1.0432  0.6312  0.1347
 1429SOL     OW 4427   1.801   2.257   0.039  0.4931 -0.4960  0.7969
 1429SOL    HW1 4428   1.708   2.248   0.056  0.5887 -2.2757  0.5481
 1429SOL    HW2 4429   1.837   2.298   0.118 -0.3739 -0.5354  1.2175
 1430SOL     OW 4430   1.413   0.952   3.621 -0.6411 -0.2472  0.1988
 1430SOL    HW1 4431   1.333   0.980   3.576 -1.9566 -1.0688  1.9330
 1430SOL    HW2 4432   1.385   0.937   3.711  1.9227  1.5293  1.3995
 1431SOL     OW 4433   3.330   0.594   0.413 -0.1070  0.7552  0.0879
 1431SOL    HW1 4434   3.284   0.524   0.367 -2.2596  1.9956  0.2089
 1431SOL    HW2 4435   3.276   0.612   0.490 -0.0137  2.9994 -0.2963
 1432SOL     OW 4436   3.675  -0.010   0.671  0.1156 -0.0659 -0.1894
 1432SOL    HW1 4437   3.769  -0.017   0.683  0.0001 -0.3676  0.5620
 1432SOL    HW2 4438   3.642   0.030   0.752  0.0433  4.0501 -1.9806
 1433SOL     OW 4439   0.147   0.190   0.782  0.3945 -0.1568 -0.3642
 1433SOL    HW1 4440   0.058   0.171   0.813  0.4688 -1.4050 -0.8665
 1433SOL    HW2 4441   0.177   0.262   0.837 -0.5833 -0.3450  0.4352
 1434SOL     OW 4442   0.340   1.072   0.770 -0.6899 -0.7005 -0.3121
 1434SOL    HW1 4443   0.412   1.035   0.719 -0.5259 -0.9559  0.1050
 1434SOL    HW2 4444   0.265   1.016   0.748 -0.6487 -0.7365 -0.3629
 1435SOL     OW 4445   1.442   3.070   0.391  0.9001 -0.4393 -0.3058
 1435SOL    HW1 4446   1.501   3.104   0.459  0.0582  2.1285 -0.7683
 1435SOL    HW2 4447   1.414   2.985   0.425  1.7087  0.0762  1.8412
 1436SOL     OW 4448   0.861   3.270   3.415  0.2319  0.2259  0.8699
 1436SOL    HW1 4449   0.854   3.175   3.400  2.4980  0.2464 -0.7594
 1436SOL    HW2 4450   0.916   3.278   3.493  0.7277  0.1782  0.5318
 1437SOL     OW 4451   3.433   1.096   0.896  0.0562  0.2165 -0.1162
 1437SOL    HW1 4452   3.481   1.175   0.869  0.7474 -0.6826 -1.6745
 1437SOL    HW2 4453   3.491   1.055   0.960  0.9808 -0.3878 -1.3059
 1438SOL     OW 4454   1.677   0.608   3.486  0.0311  0.6402  0.0319
 1438SOL    HW1 4455   1.643   0.534   3.537 -1.9775  1.3683 -0.1402
 1438SOL    HW2 4456   1.702   0.672   3.551  0.9249  0.1675  0.1627
 1439SOL     OW 4457   2.356   1.948   2.272  0.5135  0.1383 -0.4436
 1439SOL    HW1 4458   2.365   1.876   2.334  1.7885  0.5178 -0.1622
 1439SOL    HW2 4459   2.266   1.941   2.241 -0.2746  0.1348  1.6705
 1440SOL     OW 4460   0.186   1.518   1.162  0.3231 -0.5137 -0.4401
 1440SOL    HW1 4461   0.279   1.520   1.137 -0.0347  0.3294 -1.8192
 1440SOL    HW2 4462   0.180   1.576   1.238  0.6518  0.9451 -1.4786
 1441SOL     OW 4463   3.296   1.611   0.392 -0.3502  0.0387  0.1281
 1441SOL    HW1 4464   3.279   1.694   0.436 -1.2996 -0.0206 -0.1216
 1441SOL    HW2 4465   3.263   1.545   0.453  1.2628 -0.2404  0.7685
 1442SOL     OW 4466   2.848   1.560   1.937 -0.0549  0.4841  0.2000
 1442SOL    HW1 4467   2.889   1.575   2.022 -0.7839 -1.2765  0.9137
 1442SOL    HW2 4468   2.886   1.478   1.906 -1.9564 -0.4702  0.2562
 1443SOL     OW 4469   1.237   2.095   2.097 -0.9135  0.0793  0.3746
 1443SOL    HW1 4470   1.188   2.020   2.064 -0.5881 -0.1938  0.4987
 1443SOL    HW2 4471   1.248   2.152   2.021  1.1249 -1.2416 -0.4047
 1444SOL     OW 4472   1.917   2.647   1.396  0.4635 -0.2195  0.2768
 1444SOL    HW1 4473   1.933   2.558   1.366  0.0635 -0.8346  1.8236
 1444SOL    HW2 4474   1.822   2.656   1.394  0.5339  0.5659 -0.8821
 1445SOL     OW 4475   1.726   2.896   1.237  0.3993  0.9745  0.3146
 1445SOL    HW1 4476   1.795   2.894   1.303 -0.2724 -0.6381  1.0399
 1445SOL    HW2 4477   1.687   2.808   1.241  3.0409 -0.9431 -5.1420
 1446SOL     OW 4478   0.292   0.104   3.573  0.1765 -0.2206 -0.8518
 1446SOL    HW1 4479   0.226   0.086   3.640 -0.1481 -1.9674 -1.5595
 1446SOL    HW2 4480   0.260   0.181   3.527 -0.6008 -0.1651 -0.2340
 1447SOL     OW 4481   1.412   0.845   2.011  0.3208 -0.0618  0.3305
 1447SOL    HW1 4482   1.328   0.801   1.994 -0.0772  0.5112  0.7525
 1447SOL    HW2 4483   1.462   0.832   1.931 -0.5644  0.4362 -0.3262
 1448SOL     OW 4484   3.450   2.851   3.173  0.7788 -0.2822 -0.3904
 1448SOL    HW1 4485   3.460   2.853   3.268 -1.2238  0.0360 -0.1358
 1448SOL    HW2 4486   3.500   2.926   3.142  3.8515 -1.9729  0.0620
 1449SOL     OW 4487   1.438   2.142   1.118 -0.0424 -0.0981  0.1324
 1449SOL    HW1 4488   1.389   2.208   1.069  2.0315 -0.0357 -2.0600
 1449SOL    HW2 4489   1.372   2.077   1.144 -1.8045  1.7924  0.6172
 1450SOL     OW 4490   3.051   3.236   0.891 -0.1506  0.0122  0.6800
 1450SOL    HW1 4491   3.069   3.145   0.867 -0.6163  0.0701  0.0859
 1450SOL    HW2 4492   2.965   3.234   0.932 -1.5401  0.5554 -1.9793
 1451SOL     OW 4493   2.237   2.492   0.615  0.1560  0.0357 -0.4511
 1451SOL    HW1 4494   2.169   2.483   0.548 -3.1545  1.0631  2.4282
 1451SOL    HW2 4495   2.226   2.581   0.648  1.5098 -0.4730  1.5532
 1452SOL     OW 4496   3.000   0.782   0.901 -0.1817  0.1184 -0.1289
 1452SOL    HW1 4497   2.910   0.782   0.869 -0.2527  0.4623  0.0614
 1452SOL    HW2 4498   3.042   0.853   0.853 -0.1336  0.2522  0.1076
 1453SOL     OW 4499   0.504   3.708   3.284  0.1099  0.3345 -0.1468
 1453SOL    HW1 4500   0.517   3.713   3.189  0.4218  1.5097 -0.0579
 1453SOL    HW2 4501   0.524   3.616   3.306 -1.0432 -0.2361 -1.3527
 1454SOL     OW 4502   1.890   2.340   2.496 -0.7004  0.0797  0.1920
 1454SOL    HW1 4503   1.853   2.420   2.534  1.0616  1.2267 -0.3825
 1454SOL    HW2 4504   1.834   2.321   2.420  1.1566  3.2689 -2.2349
 1455SOL     OW 4505   1.279   1.164   3.519  0.1513 -0.6188  0.0508
 1455SOL    HW1 4506   1.222   1.215   3.576 -0.6265 -0.6373 -0.6879
 1455SOL    HW2 4507   1.324   1.230   3.466  0.8780 -0.6013  0.6646
 1456SOL     OW 4508   0.451   1.056   1.747  1.1045 -0.5216  0.5341
 1456SOL    HW1 4509   0.390   0.988   1.774  1.4194 -0.4506  1.4547
 1456SOL    HW2 4510   0.439   1.063   1.652 -1.8994  1.0221  0.9020
 1457SOL     OW 4511   1.810   3.264   2.627  0.5501  0.2567  0.0841
 1457SOL    HW1 4512   1.732   3.228   2.584  0.1312  0.1204  0.9436
 1457SOL    HW2 4513   1.837   3.336   2.571  0.9501 -0.8874 -1.2735
 1458SOL     OW 4514   1.026   2.017   0.770 -0.3361  0.0701  0.0683
 1458SOL    HW1 4515   1.044   1.934   0.727 -3.5071 -1.7430  1.8488
 1458SOL    HW2 4516   0.932   2.030   0.759  0.0330  3.6261 -0.2953
 1459SOL     OW 4517   3.234   1.032   1.580  0.3856 -0.0772  0.1684
 1459SOL    HW1 4518   3.169   0.965   1.602  0.8977 -0.4202  0.6503
 1459SOL    HW2 4519   3.183   1.101   1.537 -0.2903 -0.3624  0.4936
 1460SOL     OW 4520   0.248   3.431   0.093 -0.6128  0.6320 -0.3237
 1460SOL    HW1 4521   0.169   3.482   0.077 -1.0184 -0.2239 -1.1688
 1460SOL    HW2 4522   0.225   3.372   0.165 -0.1631  1.5811  0.6133
 1461SOL     OW 4523   1.847   1.226   1.268 -0.0459 -0.1916  0.2452
 1461SOL    HW1 4524   1.875   1.244   1.358  1.3858  1.5589 -0.4948
 1461SOL    HW2 4525   1.805   1.307   1.239  0.5547 -0.3060 -1.0329
 1462SOL     OW 4526   1.566   3.189   1.596  0.1386 -0.3188 -0.2873
 1462SOL    HW1 4527   1.637   3.178   1.659  0.1877  0.3810 -0.2150
 1462SOL    HW2 4528   1.561   3.104   1.551  1.5590 -0.1447 -0.8409
 1463SOL     OW 4529   3.366   1.301   1.941 -0.0009 -0.2265  0.2606
 1463SOL    HW1 4530   3.323   1.247   2.007 -2.8282  1.6407  0.1072
 1463SOL    HW2 4531   3.304   1.305   1.868  1.7685  0.1748 -1.3223
 1464SOL     OW 4532   2.206   1.794   1.676 -0.3938  0.0046  0.2352
 1464SOL    HW1 4533   2.167   1.707   1.667  1.7198 -1.2371  1.9856
 1464SOL    HW2 4534   2.299   1.780   1.659 -0.0852  2.0657  0.0248
 1465SOL     OW 4535   1.943   0.839   1.872 -0.1789  0.5232 -0.3402
 1465SOL    HW1 4536   1.901   0.850   1.958 -0.3562  0.8526 -0.4673
 1465SOL    HW2 4537   1.914   0.915   1.821  0.1949  0.5068 -0.5839
 1466SOL     OW 4538   3.569   2.837   0.122  0.4015 -0.4532  0.1417
 1466SOL    HW1 4539   3.534   2.917   0.161  1.2944 -0.7036  1.5345
 1466SOL    HW2 4540   3.624   2.867   0.050  0.0888  0.1271  0.1375
 1467SOL     OW 4541   2.615   3.580   1.232  0.1181 -0.4133  0.3983
 1467SOL    HW1 4542   2.601   3.599   1.325  1.8036  0.3444  0.5410
 1467SOL    HW2 4543   2.630   3.666   1.193 -1.1035 -0.6744 -0.6997
 1468SOL     OW 4544   2.729   2.287   3.207  0.2990  0.2045 -0.0405
 1468SOL    HW1 4545   2.751   2.207   3.253  0.3719  1.3656  2.0560
 1468SOL    HW2 4546   2.805   2.306   3.152  0.0861 -1.3580 -0.9387
 1469SOL     OW 4547   3.254   2.782   3.535 -0.2543 -0.0743 -0.6430
 1469SOL    HW1 4548   3.226   2.700   3.496 -1.9611  0.1789 -0.0527
 1469SOL    HW2 4549   3.228   2.775   3.627 -0.0268  0.9495 -0.4833
 1470SOL     OW 4550   1.902   1.772   2.469  0.5489 -0.2744 -0.2922
 1470SOL    HW1 4551   1.810   1.797   2.476  0.9560  0.8794  1.3375
 1470SOL    HW2 4552   1.942   1.841   2.417  0.8272  0.2145  0.5485
 1471SOL     OW 4553   0.312   2.644   2.143 -0.3135 -0.5017  0.2262
 1471SOL    HW1 4554   0.300   2.555   2.110 -0.2300 -0.0935 -0.9520
 1471SOL    HW2 4555   0.264   2.645   2.226  0.0806 -1.7683  0.4878
 1472SOL     OW 4556   1.752   2.766   2.391  0.2804  0.4918 -0.0312
 1472SOL    HW1 4557   1.826   2.724   2.435  0.3689  1.1317  0.4467
 1472SOL    HW2 4558   1.746   2.853   2.432 -1.0545  0.2578  0.2950
 1473SOL     OW 4559   2.803   2.181   1.082 -0.1943  0.6961  0.5409
 1473SOL    HW1 4560   2.720   2.133   1.076  0.8247 -1.3223  1.7049
 1473SOL    HW2 4561   2.823   2.207   0.992 -0.1804 -2.2087 -0.3881
 1474SOL     OW 4562   2.075   3.214   3.196  0.0269 -1.0164 -0.2410
 1474SOL    HW1 4563   2.099   3.158   3.270  0.0453  1.8217  2.0751
 1474SOL    HW2 4564   1.979   3.221   3.202  0.0815 -0.2979 -0.0447
 1475SOL     OW 4565   3.427   3.687   2.127  0.1719 -0.0524 -0.3096
 1475SOL    HW1 4566   3.385   3.604   2.104 -0.3896  0.1607 -0.0776
 1475SOL    HW2 4567   3.389   3.751   2.066  0.7062  0.0135 -0.5811
 1476SOL     OW 4568   3.415   3.116   0.336  0.4029 -0.3601  0.2951
 1476SOL    HW1 4569   3.345   3.062   0.372 -0.6013  1.1015  0.6456
 1476SOL    HW2 4570   3.384   3.138   0.248 -0.0187  0.9737  0.7488
 1477SOL     OW 4571   3.077   0.837   1.654  0.9108 -0.0632  0.5864
 1477SOL    HW1 4572   3.009   0.828   1.721  0.8905 -0.6777  0.4919
 1477SOL    HW2 4573   3.128   0.756   1.661  0.0457 -0.8067 -1.0770
 1478SOL     OW 4574   1.437   0.844   2.650  0.8525 -0.3474 -0.0324
 1478SOL    HW1 4575   1.493   0.783   2.602 -0.4688 -1.8174  0.2193
 1478SOL    HW2 4576   1.399   0.792   2.720 -1.4369  0.3776 -0.6553
 1479SOL     OW 4577   0.603   1.802   0.741  0.2136  0.2629  0.4833
 1479SOL    HW1 4578   0.520   1.810   0.694 -0.0010 -1.7012  0.4405
 1479SOL    HW2 4579   0.645   1.887   0.731  0.5242 -0.2005 -3.9463
 1480SOL     OW 4580   0.071   2.559   0.306  0.8753 -0.0274 -0.4591
 1480SOL    HW1 4581   0.107   2.548   0.217 -0.2506 -0.9377 -0.8304
 1480SOL    HW2 4582   0.012   2.485   0.316  2.2800 -0.9447  1.7278
 1481SOL     OW 4583   0.645   1.563   3.001  0.2439  0.2260 -0.4811
 1481SOL    HW1 4584   0.696   1.630   2.955  1.3083  0.0523  0.3808
 1481SOL    HW2 4585   0.555   1.576   2.972  0.5933  1.3667 -1.1000
 1482SOL     OW 4586   2.679   0.674   2.688  0.2363  0.3797 -0.0514
 1482SOL    HW1 4587   2.739   0.726   2.634 -0.1909 -1.1366 -2.1102
 1482SOL    HW2 4588   2.600   0.665   2.634 -0.6484 -0.3182  1.2901
 1483SOL     OW 4589   3.137   1.057   0.925  0.0672  0.1653  0.1118
 1483SOL    HW1 4590   3.223   1.040   0.963  0.3907 -1.0238 -1.0989
 1483SOL    HW2 4591   3.083   1.085   1.000  1.3748  0.5225  0.9495
 1484SOL     OW 4592   2.158   2.229   0.102  0.2619  0.7072 -0.2063
 1484SOL    HW1 4593   2.151   2.295   0.170  0.5997  0.6412 -0.1036
 1484SOL    HW2 4594   2.245   2.242   0.064  0.2435  0.4708 -0.3356
 1485SOL     OW 4595   0.786   1.580   2.654 -0.0018 -0.5807  0.1226
 1485SOL    HW1 4596   0.694   1.554   2.657  0.3993 -2.0736  0.1686
 1485SOL    HW2 4597   0.797   1.637   2.730 -1.1182  0.4731 -0.4755
 1486SOL     OW 4598   2.577   3.638   0.033 -0.2450 -0.5982 -0.5529
 1486SOL    HW1 4599   2.652   3.582   0.012 -0.7504 -1.0542 -1.2160
 1486SOL    HW2 4600   2.607   3.727   0.016 -0.0326 -0.8251 -1.4054
 1487SOL     OW 4601   1.409   3.541   2.312 -0.0502 -0.4543  0.0027
 1487SOL    HW1 4602   1.427   3.574   2.400 -0.5111  3.3084 -1.1115
 1487SOL    HW2 4603   1.464   3.594   2.254 -2.7084  0.1623 -2.2126
 1488SOL     OW 4604   2.444   3.253   1.119 -0.2401 -0.2638 -0.3389
 1488SOL    HW1 4605   2.376   3.188   1.101 -0.2748 -0.5761  0.8010
 1488SOL    HW2 4606   2.440   3.314   1.046  2.1249 -3.3851 -3.4260
 1489SOL     OW 4607   2.750   1.251   0.215  0.1978  0.2232  0.2003
 1489SOL    HW1 4608   2.766   1.337   0.175 -0.4665 -0.0693 -0.7117
 1489SOL    HW2 4609   2.657   1.235   0.202  0.0768 -0.1368  1.3969
 1490SOL     OW 4610   2.993   0.710   3.047 -0.3079  0.7977 -0.0947
 1490SOL    HW1 4611   2.976   0.801   3.074  1.3068  0.7006  1.4805
 1490SOL    HW2 4612   2.966   0.658   3.122  0.7118  0.1664 -0.1517
 1491SOL     OW 4613   3.542   1.341   2.198  0.3220 -0.5102  0.3050
 1491SOL    HW1 4614   3.598   1.269   2.224  0.0999 -0.4904  0.8612
 1491SOL    HW2 4615   3.476   1.302   2.141  0.2618 -0.7319  0.5251
 1492SOL     OW 4616   1.382   3.361   1.170 -0.1700  0.3520 -0.4211
 1492SOL    HW1 4617   1.413   3.278   1.134 -0.2479 -0.0616  0.4186
 1492SOL    HW2 4618   1.446   3.383   1.238  0.2509  1.3669 -1.1359
 1493SOL     OW 4619   1.047   3.391   3.658 -0.2908  0.1913 -0.4239
 1493SOL    HW1 4620   0.965   3.440   3.648 -0.0924  0.5535 -0.2736
 1493SOL    HW2 4621   1.031   3.333   3.732 -0.0805  0.9522  0.2279
 1494SOL     OW 4622   1.063   0.130   2.375  0.5652  1.1014 -0.7839
 1494SOL    HW1 4623   1.110   0.186   2.313 -0.6249  0.7343 -2.0613
 1494SOL    HW2 4624   1.006   0.076   2.320  0.2882 -0.0262  0.5623
 1495SOL     OW 4625   0.300   2.658   2.612  0.5195  0.1678  0.6523
 1495SOL    HW1 4626   0.377   2.641   2.666  1.1553  1.8427  0.3241
 1495SOL    HW2 4627   0.260   2.736   2.650  1.6240  2.0931 -1.8667
 1496SOL     OW 4628   1.389   0.645   1.497  0.0527  0.4524 -0.0504
 1496SOL    HW1 4629   1.413   0.736   1.477  0.8615 -0.1311 -1.9165
 1496SOL    HW2 4630   1.296   0.640   1.478 -0.2222  1.1223  1.0263
 1497SOL     OW 4631   0.568   3.034   2.883  0.3336 -0.4222 -0.0115
 1497SOL    HW1 4632   0.584   3.026   2.977 -0.1300  0.4638  0.1523
 1497SOL    HW2 4633   0.478   3.003   2.872  0.3522 -0.4270 -0.1468
 1498SOL     OW 4634   0.359   0.099   2.564  0.1096  0.2197  0.2903
 1498SOL    HW1 4635   0.454   0.115   2.567  0.3509 -0.9720 -0.2999
 1498SOL    HW2 4636   0.325   0.143   2.641  1.3197 -0.3880  1.2032
 1499SOL     OW 4637   2.626   3.238   3.464  0.8156  0.7581  0.3497
 1499SOL    HW1 4638   2.578   3.258   3.383  0.7405  0.9105  0.4326
 1499SOL    HW2 4639   2.696   3.302   3.467 -0.5347  2.2579  1.5817
 1500SOL     OW 4640   0.960   1.654   0.821 -0.3587  0.5323 -0.2789
 1500SOL    HW1 4641   0.866   1.653   0.839 -0.2230 -1.2433  0.5922
 1500SOL    HW2 4642   0.966   1.658   0.725 -1.3701 -0.4236 -0.4083
 1501SOL     OW 4643   3.268   1.754   1.991  0.0587 -0.4659 -0.2026
 1501SOL    HW1 4644   3.237   1.843   1.977  1.6757  0.1250 -0.2682
 1501SOL    HW2 4645   3.226   1.727   2.073 -0.1253  0.5115  0.0460
 1502SOL     OW 4646   0.183   3.473   2.525 -1.0113  0.2638  0.2369
 1502SOL    HW1 4647   0.132   3.436   2.597 -0.9653  0.0527  0.1597
 1502SOL    HW2 4648   0.165   3.416   2.450  0.3838 -0.6096  0.5320
 1503SOL     OW 4649   2.234   2.885   1.672 -0.6057 -0.1704  0.0451
 1503SOL    HW1 4650   2.169   2.815   1.680 -1.7811  0.8354 -0.2671
 1503SOL    HW2 4651   2.184   2.965   1.685  0.6654  0.6327  0.1760
 1504SOL     OW 4652   3.346   0.144   0.082  0.0099  0.0865  0.1682
 1504SOL    HW1 4653   3.282   0.135   0.153  3.4384 -1.3092  3.4895
 1504SOL    HW2 4654   3.382   0.231   0.093  0.9880 -0.3586  0.6352
 1505SOL     OW 4655   1.330   1.306   1.137 -0.0690 -0.1306 -0.4586
 1505SOL    HW1 4656   1.274   1.333   1.210  0.3377  1.8914 -0.8413
 1505SOL    HW2 4657   1.305   1.215   1.120 -1.5476 -0.0222  0.9139
 1506SOL     OW 4658   1.956   0.406   2.751 -0.3559  0.4372  0.0048
 1506SOL    HW1 4659   1.971   0.331   2.693  0.6407 -0.9865  1.9754
 1506SOL    HW2 4660   1.883   0.379   2.807 -1.8461  2.1135 -1.0589
 1507SOL     OW 4661   0.004   0.638   0.558 -0.2346  0.1754  0.4593
 1507SOL    HW1 4662   0.093   0.604   0.559 -0.2692  0.0368 -0.2629
 1507SOL    HW2 4663   0.010   0.723   0.603  0.2253  0.0861  0.5697
 1508SOL     OW 4664   1.223   1.459   3.112  0.0345 -0.4432 -0.2882
 1508SOL    HW1 4665   1.145   1.465   3.056 -0.5283  0.1533  0.5321
 1508SOL    HW2 4666   1.271   1.383   3.079 -0.7347 -0.6237 -1.0143
 1509SOL     OW 4667   2.530   3.748   1.746  0.6992 -0.3627 -0.0625
 1509SOL    HW1 4668   2.565   3.688   1.812 -0.8280 -2.4081 -0.9992
 1509SOL    HW2 4669   2.461   3.698   1.703 -0.1166  1.8377 -1.4574
 1510SOL     OW 4670   0.166   3.179   2.589 -0.0413  0.3515 -0.3048
 1510SOL    HW1 4671   0.084   3.224   2.606 -1.5742 -2.5298  0.7036
 1510SOL    HW2 4672   0.170   3.171   2.494 -1.0139  0.4008 -0.3600
 1511SOL     OW 4673   1.902   0.624   1.693 -0.0023  0.3975  0.2672
 1511SOL    HW1 4674   1.916   0.549   1.750 -1.0009 -0.7294 -0.9102
 1511SOL    HW2 4675   1.921   0.700   1.748 -0.8158 -0.6308  2.0571
 1512SOL     OW 4676   1.808   1.165   0.343  0.4856  0.7308 -1.1852
 1512SOL    HW1 4677   1.818   1.075   0.312 -0.1327  0.2117  0.0461
 1512SOL    HW2 4678   1.723   1.193   0.308 -0.8961 -0.3486  1.0340
 1513SOL     OW 4679   1.236   1.731   1.770 -0.0747 -0.7685 -0.1241
 1513SOL    HW1 4680   1.267   1.818   1.748  1.2610 -0.5016  2.4285
 1513SOL    HW2 4681   1.165   1.714   1.708 -0.6321  2.2803 -0.4687
 1514SOL     OW 4682   1.997   3.416   0.601 -0.1337  0.0759 -0.1348
 1514SOL    HW1 4683   2.064   3.451   0.542 -1.2866  4.1966  0.6655
 1514SOL    HW2 4684   2.047   3.367   0.667  2.0289  1.7544 -0.3809
 1515SOL     OW 4685   0.060   1.236   0.848 -0.3896  0.1192 -0.4314
 1515SOL    HW1 4686   0.031   1.326   0.836  2.4929  1.1454 -0.6083
 1515SOL    HW2 4687   0.110   1.216   0.768 -1.9019 -2.0971 -0.9101
 1516SOL     OW 4688   3.109   1.930   1.021 -0.2748 -0.2408 -0.5016
 1516SOL    HW1 4689   3.159   1.982   1.084 -1.0258  1.4465 -1.2633
 1516SOL    HW2 4690   3.099   1.987   0.945  0.5618 -2.2033 -2.1802
 1517SOL     OW 4691   3.249   1.474   0.636  0.3841  0.2075  0.4227
 1517SOL    HW1 4692   3.206   1.410   0.579 -0.3762  0.9554  0.1373
 1517SOL    HW2 4693   3.280   1.423   0.710 -0.3986 -0.4619  0.3037
 1518SOL     OW 4694   0.156   2.405   2.760  0.2870  0.1490  0.2199
 1518SOL    HW1 4695   0.227   2.345   2.784 -2.0709 -2.8020  0.4662
 1518SOL    HW2 4696   0.159   2.473   2.827  1.9683 -0.6741  1.0585
 1519SOL     OW 4697   0.589   0.336   1.112 -0.1043  0.1977 -0.1665
 1519SOL    HW1 4698   0.673   0.336   1.065 -1.0658 -0.9185 -1.9854
 1519SOL    HW2 4699   0.556   0.425   1.103 -0.9635 -0.3139 -3.0387
 1520SOL     OW 4700   0.225   0.063   2.323 -0.0274 -0.0888  0.3910
 1520SOL    HW1 4701   0.242   0.090   2.413  2.3747 -1.1651  0.3341
 1520SOL    HW2 4702   0.207  -0.031   2.328 -1.8441  0.1759 -0.1081
 1521SOL     OW 4703   0.180   1.372   0.244  0.0686  0.7686 -0.1034
 1521SOL    HW1 4704   0.268   1.340   0.223  0.1897  2.0604 -1.7654
 1521SOL    HW2 4705   0.122   1.300   0.220  0.5680  0.4528 -0.3783
 1522SOL     OW 4706   1.548   1.094   2.661 -0.1533 -0.0944 -0.4075
 1522SOL    HW1 4707   1.552   1.116   2.754 -0.6513 -0.9402 -0.1691
 1522SOL    HW2 4708   1.490   1.018   2.657 -2.6733  1.7421 -1.7475
 1523SOL     OW 4709   3.244   2.866   0.089 -0.0699 -0.4340 -0.3490
 1523SOL    HW1 4710   3.335   2.871   0.117  0.1644 -1.9429 -0.7509
 1523SOL    HW2 4711   3.193   2.861   0.170 -0.0472  2.7495 -0.0156
 1524SOL     OW 4712   1.465   0.708   0.142 -0.0742 -0.0536  0.3803
 1524SOL    HW1 4713   1.449   0.712   0.236 -2.3161 -1.6274  0.1508
 1524SOL    HW2 4714   1.378   0.692   0.104  0.8357  0.1490 -1.9339
 1525SOL     OW 4715   0.811   2.472   0.186 -0.0721 -0.4701 -0.5021
 1525SOL    HW1 4716   0.798   2.486   0.092  0.7871 -1.0201 -0.7146
 1525SOL    HW2 4717   0.827   2.378   0.194 -0.3461 -0.4599  0.2276
 1526SOL     OW 4718   0.019   2.242   2.928  0.5839 -0.4563 -0.1883
 1526SOL    HW1 4719   0.075   2.298   2.874  2.5340 -1.2345  0.9547
 1526SOL    HW2 4720  -0.066   2.286   2.928  2.0231  2.5642  0.7022
 1527SOL     OW 4721   3.081   0.036   1.650  0.4992 -0.7075  0.1978
 1527SOL    HW1 4722   3.000  -0.006   1.622 -0.5822  1.4542 -0.1068
 1527SOL    HW2 4723   3.075   0.038   1.746  0.8893 -1.7971  0.2617
 1528SOL     OW 4724   3.223   0.748   0.649  0.2192  0.0809  0.5656
 1528SOL    HW1 4725   3.303   0.755   0.701  0.6427 -0.1510 -0.0446
 1528SOL    HW2 4726   3.171   0.824   0.676  0.4817  0.0329  1.2342
 1529SOL     OW 4727   0.703   2.402   0.618 -0.0052 -0.3020 -0.1691
 1529SOL    HW1 4728   0.639   2.385   0.687 -0.9108  1.1894 -0.5813
 1529SOL    HW2 4729   0.780   2.435   0.665  1.1079 -3.4650  0.4627
 1530SOL     OW 4730   0.654   1.396   1.322 -0.8034  0.0504  0.1629
 1530SOL    HW1 4731   0.688   1.309   1.346  0.5504  0.4205 -0.3493
 1530SOL    HW2 4732   0.612   1.427   1.402 -1.0676 -0.9667  0.4351
 1531SOL     OW 4733   0.672   0.184   0.035  0.0977 -0.0828 -0.4384
 1531SOL    HW1 4734   0.632   0.133  -0.035  1.7097 -0.8397 -0.8533
 1531SOL    HW2 4735   0.608   0.252   0.055 -1.3093 -1.1493 -1.1549
 1532SOL     OW 4736   2.892   1.177   2.181  0.2190  0.1293  0.0069
 1532SOL    HW1 4737   2.880   1.173   2.276 -0.4987  1.2432 -0.0159
 1532SOL    HW2 4738   2.866   1.090   2.150 -2.4641  0.6257  0.5607
 1533SOL     OW 4739   3.450   0.310   2.254 -0.7347  0.0918  0.0375
 1533SOL    HW1 4740   3.462   0.381   2.316 -0.7007  1.5340 -1.5405
 1533SOL    HW2 4741   3.536   0.299   2.212 -0.5507 -1.3805  0.7206
 1534SOL     OW 4742   0.606   0.970   0.093  1.0382 -0.2115 -0.4821
 1534SOL    HW1 4743   0.699   0.949   0.098  1.3183  0.2380 -2.5938
 1534SOL    HW2 4744   0.601   1.039   0.027 -0.9879 -1.6717 -1.9838
 1535SOL     OW 4745   3.084   2.407   0.511 -0.5188  1.0223  0.4007
 1535SOL    HW1 4746   2.990   2.388   0.509 -0.5348  1.1524 -0.1103
 1535SOL    HW2 4747   3.124   2.334   0.464 -0.3567  0.9466  0.6523
 1536SOL     OW 4748   1.525   3.310   2.234  0.8367  0.2394  0.4496
 1536SOL    HW1 4749   1.581   3.349   2.167 -0.3991 -0.7888 -1.2729
 1536SOL    HW2 4750   1.458   3.375   2.251 -0.4164 -0.4890 -1.3902
 1537SOL     OW 4751   0.519   0.425   0.037 -0.5123  0.3208  0.6727
 1537SOL    HW1 4752   0.432   0.408   0.000 -2.1491  1.4879  3.6788
 1537SOL    HW2 4753   0.545   0.509  -0.001 -1.0541  0.3397  0.3326
 1538SOL     OW 4754   1.242   0.118   3.474  0.1512  0.3253  0.6704
 1538SOL    HW1 4755   1.289   0.040   3.443  0.1371 -0.4012  2.3987
 1538SOL    HW2 4756   1.282   0.190   3.425  0.1356 -0.7466 -1.0116
 1539SOL     OW 4757   0.372   0.445   1.467  0.3952 -0.3493 -0.1598
 1539SOL    HW1 4758   0.290   0.476   1.429 -0.0802 -0.2824  0.8861
 1539SOL    HW2 4759   0.356   0.445   1.561  1.2394 -1.3847 -0.0054
 1540SOL     OW 4760   2.960   2.217   2.681  0.0322  0.1964  0.6372
 1540SOL    HW1 4761   3.028   2.267   2.726 -0.3611 -0.9774  2.6555
 1540SOL    HW2 4762   3.002   2.188   2.600  1.5359  0.5609  1.2523
 1541SOL     OW 4763   3.482   1.708   1.232 -0.0836 -0.2446  0.1868
 1541SOL    HW1 4764   3.520   1.726   1.146 -0.3651 -0.7956 -0.0601
 1541SOL    HW2 4765   3.394   1.673   1.212 -1.1770  2.0247  0.7608
 1542SOL     OW 4766   1.376   1.190   3.157  0.1349  0.5477 -0.0405
 1542SOL    HW1 4767   1.290   1.163   3.189 -1.0672  0.6335 -2.9118
 1542SOL    HW2 4768   1.431   1.113   3.169 -1.5127 -1.0795 -1.9858
 1543SOL     OW 4769   2.861   0.521   3.273 -0.6051  0.1285 -0.0488
 1543SOL    HW1 4770   2.837   0.545   3.362 -1.3302  1.4062 -0.5544
 1543SOL    HW2 4771   2.789   0.554   3.219  1.1660  2.0990 -1.3860
 1544SOL     OW 4772   3.030   1.901   2.239  0.3772  0.0602 -0.0330
 1544SOL    HW1 4773   2.944   1.865   2.220  0.4664 -0.3718  0.3612
 1544SOL    HW2 4774   3.053   1.952   2.161 -0.4337  0.5766  0.0520
 1545SOL     OW 4775   3.099   2.063   3.003  0.0112  0.0769 -0.3577
 1545SOL    HW1 4776   3.078   2.007   2.928 -0.5655  1.7313 -1.4927
 1545SOL    HW2 4777   3.013   2.090   3.037  0.1846 -1.8626  1.9658
 1546SOL     OW 4778   0.875   0.271   3.114  0.2536 -0.3359 -0.2372
 1546SOL    HW1 4779   0.826   0.234   3.041 -0.0011  1.5379 -1.0884
 1546SOL    HW2 4780   0.828   0.242   3.192 -2.1688  1.1778 -1.0073
 1547SOL     OW 4781   0.786   0.197   1.374 -0.7087  0.2292 -0.2244
 1547SOL    HW1 4782   0.744   0.283   1.363 -0.2384  0.7183  1.4512
 1547SOL    HW2 4783   0.722   0.145   1.422 -0.3096  0.2420  0.3366
 1548SOL     OW 4784   0.195   3.672   0.861  0.4015 -0.0701 -0.4717
 1548SOL    HW1 4785   0.265   3.634   0.808 -0.2784 -1.6192 -0.3207
 1548SOL    HW2 4786   0.240   3.728   0.924  1.3040  0.9708 -1.9672
 1549SOL     OW 4787   3.206   0.411   0.619 -0.1087 -0.1023 -0.6671
 1549SOL    HW1 4788   3.236   0.495   0.654  0.3386 -0.2777 -0.6165
 1549SOL    HW2 4789   3.253   0.346   0.672 -1.0642 -0.3957 -0.1618
 1550SOL     OW 4790   0.249   0.884   1.371  0.0621 -0.0325 -0.2624
 1550SOL    HW1 4791   0.173   0.921   1.415  0.6991  0.6164  0.3269
 1550SOL    HW2 4792   0.214   0.844   1.291 -1.1375 -1.3082  0.8365
 1551SOL     OW 4793   0.258   3.189   1.681  0.3726  0.1432  0.1464
 1551SOL    HW1 4794   0.218   3.275   1.669 -2.0743 -0.4275  2.9919
 1551SOL    HW2 4795   0.341   3.206   1.724 -0.0898  1.1106  0.6794
 1552SOL     OW 4796   0.203   2.331   3.536  0.0107 -0.0125 -0.2135
 1552SOL    HW1 4797   0.215   2.245   3.576  0.0192 -0.6936 -1.6285
 1552SOL    HW2 4798   0.111   2.352   3.550  0.1731  0.0966  0.7752
 1553SOL     OW 4799   1.305   0.997   1.715  0.5353  0.0159  0.2852
 1553SOL    HW1 4800   1.395   0.979   1.742  0.3422 -1.9103 -0.1827
 1553SOL    HW2 4801   1.307   0.995   1.619  0.0778  0.4245  0.2607
 1554SOL     OW 4802   0.519   0.856   0.321  0.3225  0.9253 -0.3459
 1554SOL    HW1 4803   0.530   0.899   0.237  1.9580  0.1336 -0.5873
 1554SOL    HW2 4804   0.597   0.882   0.371 -0.8178  1.7092  1.0914
 1555SOL     OW 4805   3.556   3.680   1.502  0.0856 -0.0065  0.2884
 1555SOL    HW1 4806   3.587   3.727   1.425  1.3363 -0.5834  0.4139
 1555SOL    HW2 4807   3.461   3.679   1.493  0.2498 -1.1816 -1.9267
 1556SOL     OW 4808   0.053   3.308   0.543 -0.2529  0.3892 -0.2792
 1556SOL    HW1 4809  -0.011   3.379   0.552 -0.6106 -0.0490  0.8651
 1556SOL    HW2 4810   0.071   3.281   0.633 -0.0710 -0.9245 -0.6920
 1557SOL     OW 4811   1.366   0.186   1.286  0.1620  0.1837  0.3630
 1557SOL    HW1 4812   1.366   0.228   1.200  3.3400 -3.6412 -1.8118
 1557SOL    HW2 4813   1.420   0.243   1.340  1.0241  0.9795 -1.2515
 1558SOL     OW 4814   2.162   0.168   2.977 -0.2324  0.4350  0.7865
 1558SOL    HW1 4815   2.179   0.261   2.960 -0.7367  0.6903  1.6185
 1558SOL    HW2 4816   2.240   0.137   3.022 -0.4128  0.6764  1.2731
 1559SOL     OW 4817   0.711   2.077   3.264 -0.2719  0.1442  0.0942
 1559SOL    HW1 4818   0.657   2.137   3.212 -0.7295  0.7146  1.1772
 1559SOL    HW2 4819   0.649   2.012   3.297 -0.6102  1.5041  2.3642
 1560SOL     OW 4820   1.418   2.031   2.366  0.1770 -0.0138 -0.2106
 1560SOL    HW1 4821   1.370   2.045   2.284 -2.4009 -2.6545  0.6869
 1560SOL    HW2 4822   1.445   2.119   2.392  0.1490  1.0580 -3.2944
 1561SOL     OW 4823   2.480   0.857   2.519  0.6003 -0.0470  0.0545
 1561SOL    HW1 4824   2.450   0.929   2.464 -0.0484 -1.4969 -1.5476
 1561SOL    HW2 4825   2.460   0.886   2.608 -3.4697  0.1564 -0.7181
 1562SOL     OW 4826   3.140   0.555   3.456 -0.2532 -0.0633  0.5036
 1562SOL    HW1 4827   3.105   0.468   3.477 -2.0323  0.7000  0.8616
 1562SOL    HW2 4828   3.186   0.543   3.373 -0.1925 -1.4059  0.7130
 1563SOL     OW 4829   2.446   2.495   2.452 -0.5617  0.3029 -0.0578
 1563SOL    HW1 4830   2.353   2.503   2.430 -0.4378 -0.5610 -0.9626
 1563SOL    HW2 4831   2.487   2.466   2.371  0.1224 -1.7870  0.9726
 1564SOL     OW 4832   0.373   3.051   3.226  0.0557  0.8838 -0.4246
 1564SOL    HW1 4833   0.371   3.136   3.268  2.0557  0.6720  0.1935
 1564SOL    HW2 4834   0.462   3.018   3.241 -0.8769 -1.6714  0.0839
 1565SOL     OW 4835   1.494   2.815   3.578 -0.4532  0.2037  0.4377
 1565SOL    HW1 4836   1.527   2.794   3.491 -2.7539  0.0728 -0.4791
 1565SOL    HW2 4837   1.459   2.732   3.611  1.8079 -0.1370  2.2366
 1566SOL     OW 4838   3.393   1.427   0.964 -0.1913  0.4791  0.3429
 1566SOL    HW1 4839   3.468   1.405   1.019 -0.9003 -1.5252  0.5851
 1566SOL    HW2 4840   3.332   1.471   1.023 -0.9028 -1.5605  1.2374
 1567SOL     OW 4841   0.276   0.363   0.956 -0.3137  0.1576  0.3110
 1567SOL    HW1 4842   0.359   0.376   0.910 -1.6138  0.0332 -2.2670
 1567SOL    HW2 4843   0.281   0.423   1.031  1.8271  0.6239 -0.1296
 1568SOL     OW 4844   0.971   2.450   0.454 -0.4997 -0.0492 -0.2067
 1568SOL    HW1 4845   0.986   2.412   0.540  0.6085 -0.3473 -0.5200
 1568SOL    HW2 4846   0.967   2.545   0.470 -3.2740 -0.2293  0.5706
 1569SOL     OW 4847   0.155   1.170   3.356 -0.0192 -1.1119  0.2254
 1569SOL    HW1 4848   0.101   1.135   3.285 -0.5567 -1.3273  0.7304
 1569SOL    HW2 4849   0.233   1.115   3.356 -0.3674 -1.6168  0.3040
 1570SOL     OW 4850   3.286   0.330   1.744  0.5678 -0.5137  0.7721
 1570SOL    HW1 4851   3.250   0.262   1.687 -0.3139  2.2596 -2.2907
 1570SOL    HW2 4852   3.217   0.348   1.808 -0.2283 -0.7089 -0.0284
 1571SOL     OW 4853   2.271   1.452   3.070  0.8288  0.6428 -0.4007
 1571SOL    HW1 4854   2.331   1.521   3.043  0.4573  1.9152  1.7196
 1571SOL    HW2 4855   2.328   1.384   3.106  1.1442  0.2741 -1.5573
 1572SOL     OW 4856   2.800   2.729   3.433  0.2209  0.0451  0.1115
 1572SOL    HW1 4857   2.814   2.707   3.341 -0.2962  0.9752 -0.2036
 1572SOL    HW2 4858   2.774   2.821   3.432 -2.7646 -0.6862  0.9015
 1573SOL     OW 4859   1.009   3.494   1.663 -0.1307  0.2142 -0.0775
 1573SOL    HW1 4860   1.005   3.485   1.568 -1.0245 -0.8763  0.0374
 1573SOL    HW2 4861   0.947   3.563   1.683  0.4852  0.8481 -0.3231
 1574SOL     OW 4862   1.958   1.860   1.785  0.6825 -0.0171  0.2852
 1574SOL    HW1 4863   1.885   1.814   1.744  1.3224 -0.5971 -0.2155
 1574SOL    HW2 4864   2.035   1.833   1.735  1.1220  1.3271  0.1946
 1575SOL     OW 4865   2.266   0.331   1.314 -0.4143  0.4341 -0.1045
 1575SOL    HW1 4866   2.304   0.398   1.372  2.2484  0.5444 -1.8069
 1575SOL    HW2 4867   2.325   0.256   1.323 -0.6469  0.0228 -1.7033
 1576SOL     OW 4868   0.159   2.310   1.070 -0.2317  0.2556  0.2424
 1576SOL    HW1 4869   0.181   2.281   0.981 -0.3183  1.5809 -0.2227
 1576SOL    HW2 4870   0.133   2.401   1.061  0.2915  0.5864  1.7132
 1577SOL     OW 4871   1.779   2.042   3.556 -0.0266  0.2107  0.0222
 1577SOL    HW1 4872   1.805   1.976   3.492 -0.2154  0.4599 -0.3136
 1577SOL    HW2 4873   1.838   2.115   3.541 -0.5615  0.5671 -0.3783
 1578SOL     OW 4874   1.466   3.379   3.669  0.2828 -0.6907 -0.8272
 1578SOL    HW1 4875   1.406   3.449   3.697  0.8749 -0.2818 -0.5605
 1578SOL    HW2 4876   1.460   3.314   3.739 -0.6521 -1.1512 -1.3205
 1579SOL     OW 4877   2.660   0.934   3.412  0.5869  0.2642  0.1594
 1579SOL    HW1 4878   2.575   0.929   3.368 -0.7966  0.4315  2.6201
 1579SOL    HW2 4879   2.696   0.845   3.406 -0.0386  0.0378 -0.3533
 1580SOL     OW 4880   0.665   1.823   2.071 -0.1708  0.1919  0.0553
 1580SOL    HW1 4881   0.600   1.880   2.032 -0.5501 -0.2532  0.0294
 1580SOL    HW2 4882   0.614   1.754   2.115  0.1821  1.2109  2.2048
 1581SOL     OW 4883   0.803   1.609   1.143  0.1494 -0.0233 -0.0513
 1581SOL    HW1 4884   0.795   1.608   1.239  0.7627 -0.6726 -0.0009
 1581SOL    HW2 4885   0.736   1.671   1.115  0.0992  0.3363  0.8134
 1582SOL     OW 4886   1.860   0.848   1.536 -0.0420 -0.2669 -0.0985
 1582SOL    HW1 4887   1.931   0.846   1.472  0.7322  2.0219  0.5904
 1582SOL    HW2 4888   1.860   0.761   1.575  0.3413 -1.2815 -2.2269
 1583SOL     OW 4889   0.546   2.780   1.949  0.6204  0.1812 -0.0365
 1583SOL    HW1 4890   0.512   2.691   1.957  0.6606  0.2044  0.4504
 1583SOL    HW2 4891   0.537   2.801   1.856 -0.3735  0.0666  0.0235
 1584SOL     OW 4892   1.778   2.943   0.512 -0.4273  0.3904 -0.2015
 1584SOL    HW1 4893   1.698   2.892   0.495 -0.3921  0.9270 -2.1268
 1584SOL    HW2 4894   1.823   2.946   0.428  1.9277 -0.3525  0.9468
 1585SOL     OW 4895   0.626   2.456   2.028 -0.4321 -0.1418 -0.0111
 1585SOL    HW1 4896   0.702   2.400   2.013  1.2187  1.6702  1.0366
 1585SOL    HW2 4897   0.551   2.402   2.005  1.0390 -2.7343  0.8500
 1586SOL     OW 4898   1.832   3.371   3.479  0.0871  0.2953  0.2678
 1586SOL    HW1 4899   1.749   3.403   3.444 -0.4138  0.3310  1.4353
 1586SOL    HW2 4900   1.872   3.448   3.519  0.7511  0.3042 -0.3928
 1587SOL     OW 4901   2.462   1.209   0.782  0.1977 -0.1139 -0.1760
 1587SOL    HW1 4902   2.515   1.164   0.848 -1.4753 -3.2942 -0.8151
 1587SOL    HW2 4903   2.512   1.200   0.700  0.5922  0.6579 -0.0319
 1588SOL     OW 4904   2.498   2.303   0.151 -0.3676  0.2426  0.3381
 1588SOL    HW1 4905   2.437   2.298   0.225 -2.5282  0.4846 -1.3034
 1588SOL    HW2 4906   2.584   2.285   0.189 -1.5263 -0.8053  2.6852
 1589SOL     OW 4907   2.004   1.445   1.837 -0.3212  0.1523  0.3114
 1589SOL    HW1 4908   2.040   1.465   1.750 -1.5644  1.0821 -0.0223
 1589SOL    HW2 4909   1.990   1.351   1.836 -3.2274  0.4741 -1.7395
 1590SOL     OW 4910   0.104   0.458   1.611 -0.0995  0.0666  0.5771
 1590SOL    HW1 4911   0.022   0.487   1.572 -0.7022  1.1151  2.4601
 1590SOL    HW2 4912   0.116   0.369   1.579 -1.3243  0.3332 -0.7043
 1591SOL     OW 4913   3.310   2.080   1.795  0.2171 -0.2362 -0.5808
 1591SOL    HW1 4914   3.230   2.029   1.805  0.5512 -0.5238  0.8278
 1591SOL    HW2 4915   3.281   2.171   1.794 -0.2302 -0.3825 -1.3906
 1592SOL     OW 4916   1.252   2.828   0.097 -0.4843  0.3475 -0.2879
 1592SOL    HW1 4917   1.201   2.748   0.091 -0.6053  0.3481  0.6153
 1592SOL    HW2 4918   1.333   2.803   0.142 -0.9261  0.8980  0.8558
 1593SOL     OW 4919   0.690   2.129   1.148 -0.1747  0.1463 -0.6179
 1593SOL    HW1 4920   0.777   2.114   1.185 -0.5797 -2.2173 -0.4348
 1593SOL    HW2 4921   0.640   2.170   1.218  0.8168  1.7347 -0.7986
 1594SOL     OW 4922   0.190   3.296   0.319 -0.3506 -0.1105 -0.8259
 1594SOL    HW1 4923   0.277   3.315   0.354  0.0176 -1.6395 -0.8277
 1594SOL    HW2 4924   0.132   3.297   0.395 -0.1605 -0.0271 -0.6818
 1595SOL     OW 4925   2.065   1.906   0.601  0.2959  0.5249 -0.3980
 1595SOL    HW1 4926   2.012   1.979   0.632 -0.6363 -0.7032  1.0511
 1595SOL    HW2 4927   2.002   1.844   0.565  0.7874 -0.6026  0.6093
 1596SOL     OW 4928   0.154   2.359   2.493  0.1634 -0.1088  0.4987
 1596SOL    HW1 4929   0.147   2.365   2.588  0.4475 -0.2630  0.5292
 1596SOL    HW2 4930   0.166   2.450   2.464  2.2321 -0.2463  0.7836
 1597SOL     OW 4931   0.480   1.186   0.335 -0.3697  0.2508  0.5005
 1597SOL    HW1 4932   0.541   1.122   0.373  0.0977  0.5770  0.3106
 1597SOL    HW2 4933   0.395   1.143   0.340 -0.2171  0.0340  1.3253
 1598SOL     OW 4934   1.689   1.392   2.956  0.1223 -0.3552  0.2112
 1598SOL    HW1 4935   1.614   1.427   3.004 -0.5949 -0.4327 -0.8307
 1598SOL    HW2 4936   1.710   1.459   2.891  0.9922 -0.3240  0.4966
 1599SOL     OW 4937   1.013   2.871   2.675 -0.3891 -0.2515 -0.1013
 1599SOL    HW1 4938   1.074   2.933   2.636 -1.1671  1.3331  1.0472
 1599SOL    HW2 4939   1.005   2.801   2.611  3.0737 -0.8778 -0.0217
 1600SOL     OW 4940   0.154   0.692   3.477 -0.2608  0.0944 -0.0407
 1600SOL    HW1 4941   0.068   0.732   3.463 -0.8144 -0.8780  0.4710
 1600SOL    HW2 4942   0.211   0.734   3.413 -0.7382  1.8907  0.6374
 1601SOL     OW 4943   2.804   1.288   1.784 -0.4931  0.0529  0.3677
 1601SOL    HW1 4944   2.793   1.259   1.693 -0.7136 -0.0906  0.4388
 1601SOL    HW2 4945   2.718   1.324   1.808 -0.4397  0.0753  0.5248
 1602SOL     OW 4946   0.122   3.306   0.834 -0.1250  0.3115 -0.6852
 1602SOL    HW1 4947   0.217   3.297   0.826 -0.0910  1.1877 -1.4477
 1602SOL    HW2 4948   0.101   3.263   0.916  1.0219  0.6580 -0.1887
 1603SOL     OW 4949   0.219   1.682   2.325  0.0452  0.0032 -0.2535
 1603SOL    HW1 4950   0.275   1.745   2.372 -0.3495  0.0849  0.1202
 1603SOL    HW2 4951   0.219   1.604   2.381  0.9355 -0.5274 -0.9595
 1604SOL     OW 4952   0.997   1.123   0.023 -0.6563  0.1101  0.5852
 1604SOL    HW1 4953   1.049   1.173   0.086 -0.3333  1.7030 -0.8685
 1604SOL    HW2 4954   0.907   1.135   0.051 -0.5395  1.1059  0.5630
 1605SOL     OW 4955   0.716   3.560   2.208 -0.3621 -0.2404  0.0715
 1605SOL    HW1 4956   0.689   3.643   2.169  1.5938  0.5920  0.3680
 1605SOL    HW2 4957   0.792   3.582   2.262  0.3784 -2.2690 -0.0460
 1606SOL     OW 4958   2.647   2.512   0.959  0.2296 -0.1389  0.3587
 1606SOL    HW1 4959   2.589   2.482   1.028 -1.3413 -0.6874 -1.1168
 1606SOL    HW2 4960   2.734   2.511   0.998 -0.5270 -1.0037  2.1227
 1607SOL     OW 4961   1.414   0.167   3.684  0.2229  0.5751  0.0984
 1607SOL    HW1 4962   1.406   0.125   3.769  1.4415 -1.6074 -0.8043
 1607SOL    HW2 4963   1.340   0.135   3.634  1.5373 -1.2042 -0.8218
 1608SOL     OW 4964   2.912   1.625   2.424  0.5828 -0.0075  0.2127
 1608SOL    HW1 4965   2.883   1.706   2.383  1.1500 -0.4206 -1.0738
 1608SOL    HW2 4966   2.841   1.563   2.405  1.8714 -0.8450 -2.3683
 1609SOL     OW 4967   1.365   1.880   0.929  0.2207  0.1044  0.1030
 1609SOL    HW1 4968   1.348   1.888   0.835 -1.5406 -0.5064  0.3249
 1609SOL    HW2 4969   1.288   1.834   0.963  0.8186  0.3297  1.8538
 1610SOL     OW 4970   0.044   3.591   1.074 -0.0291  0.5029 -0.4960
 1610SOL    HW1 4971  -0.016   3.516   1.066  1.2899 -0.4816 -1.4063
 1610SOL    HW2 4972   0.066   3.615   0.984  1.4468  0.4249 -0.1767
 1611SOL     OW 4973   0.480   1.538   0.043  0.3498  0.0376 -0.1417
 1611SOL    HW1 4974   0.450   1.518   0.132 -0.3776 -1.0134 -0.5939
 1611SOL    HW2 4975   0.572   1.513   0.042  0.5460  0.7128  0.5047
 1612SOL     OW 4976   2.588   2.111   1.307 -0.3175 -0.1163  0.2237
 1612SOL    HW1 4977   2.515   2.140   1.362 -0.2734 -0.8841  0.7035
 1612SOL    HW2 4978   2.647   2.186   1.304 -0.4883  0.0575  0.9542
 1613SOL     OW 4979   1.891   0.030   2.918 -0.0684  0.1192  0.0465
 1613SOL    HW1 4980   1.968   0.085   2.903  0.2381 -0.9354 -2.8761
 1613SOL    HW2 4981   1.928  -0.052   2.954  0.0505  0.0288 -0.2784
 1614SOL     OW 4982   0.446   3.236   2.599  0.3825 -0.1039  0.0345
 1614SOL    HW1 4983   0.448   3.303   2.532  0.5437  1.0928  1.1900
 1614SOL    HW2 4984   0.353   3.226   2.620  0.3807 -0.0494  0.0516
 1615SOL     OW 4985   1.444   0.239   1.006  0.2119 -0.2598  0.1713
 1615SOL    HW1 4986   1.363   0.193   1.029  2.3630 -4.3012  0.5630
 1615SOL    HW2 4987   1.478   0.191   0.931  1.5820  2.2606 -0.9089
 1616SOL     OW 4988   0.042   2.202   0.724  0.0474 -0.2177 -0.2686
 1616SOL    HW1 4989   0.041   2.295   0.700  0.2968  0.4749  2.1360
 1616SOL    HW2 4990   0.132   2.174   0.708  0.4486  0.4768  0.6720
 1617SOL     OW 4991   2.257   0.852   2.780  0.1616  0.0870 -0.5576
 1617SOL    HW1 4992   2.270   0.854   2.686  0.1379  2.1352 -0.5758
 1617SOL    HW2 4993   2.287   0.938   2.810  1.7860 -1.1250  1.5407
 1618SOL     OW 4994   0.258   3.127   1.004 -0.0437 -0.1523 -0.3343
 1618SOL    HW1 4995   0.324   3.193   1.024 -0.2173 -0.1839  0.3758
 1618SOL    HW2 4996   0.193   3.136   1.073 -0.6711 -0.2788 -0.8931
 1619SOL     OW 4997   1.607   1.531   3.202  0.4449 -0.6013  0.4468
 1619SOL    HW1 4998   1.643   1.490   3.281 -0.9579 -1.0297  0.8956
 1619SOL    HW2 4999   1.531   1.580   3.233  0.1587 -0.3761 -0.5700
 1620SOL     OW 5000   2.845   0.706   1.118  0.4373  0.0623 -0.0425
 1620SOL    HW1 5001   2.853   0.611   1.111  0.9108 -0.0020  1.1493
 1620SOL    HW2 5002   2.930   0.739   1.090 -0.0659  0.2164 -1.4747
 1621SOL     OW 5003   0.549   0.909   0.698  0.2797  0.0065 -0.3816
 1621SOL    HW1 5004   0.634   0.954   0.698 -0.3328  1.2116 -1.0474
 1621SOL    HW2 5005   0.544   0.870   0.610  0.4686 -0.7127 -0.0764
 1622SOL     OW 5006   2.643   0.754   1.981  0.1515 -0.2665  0.6071
 1622SOL    HW1 5007   2.611   0.693   2.048  1.3196  0.4810  1.9037
 1622SOL    HW2 5008   2.640   0.840   2.022 -0.3086  0.4065 -0.7707
 1623SOL     OW 5009   0.441   1.986   0.074  0.2067 -0.3069  0.6357
 1623SOL    HW1 5010   0.491   1.907   0.095  0.0629 -0.1959  1.4051
 1623SOL    HW2 5011   0.362   1.980   0.127 -0.3712 -0.2305 -0.1951
 1624SOL     OW 5012   3.124   2.190   1.489 -0.0869 -0.5573 -0.1108
 1624SOL    HW1 5013   3.167   2.106   1.496  1.6767  0.4359  1.9171
 1624SOL    HW2 5014   3.135   2.215   1.397 -0.1680 -2.2489 -0.6075
 1625SOL     OW 5015   1.093   2.044   1.309 -0.0389 -0.1367 -0.7916
 1625SOL    HW1 5016   1.100   2.139   1.316  1.7748 -0.2219 -0.8624
 1625SOL    HW2 5017   1.184   2.013   1.314 -0.6841 -1.9915  0.9402
 1626SOL     OW 5018   2.652   1.567   2.563 -0.0998  0.0407 -0.4449
 1626SOL    HW1 5019   2.693   1.500   2.508  0.8567 -0.5399  0.9278
 1626SOL    HW2 5020   2.716   1.584   2.631 -1.7597 -0.2287  1.2568
 1627SOL     OW 5021   2.277   1.099   0.392 -0.4010  0.1285 -0.0858
 1627SOL    HW1 5022   2.245   1.091   0.482  1.3518  0.0406  0.5713
 1627SOL    HW2 5023   2.228   1.032   0.344 -1.9704  0.7325  0.5895
 1628SOL     OW 5024   2.414   1.255   3.198 -0.8552 -0.0676  0.4912
 1628SOL    HW1 5025   2.391   1.245   3.291 -0.4660  0.7317  0.6846
 1628SOL    HW2 5026   2.510   1.257   3.198 -0.8305  2.7474  0.4270
 1629SOL     OW 5027   3.381   2.057   3.362  0.2109 -0.0648 -0.0550
 1629SOL    HW1 5028   3.343   2.134   3.320 -0.9647 -0.8375 -0.4749
 1629SOL    HW2 5029   3.434   2.092   3.433  0.6381  1.1847 -0.9459
 1630SOL     OW 5030   1.578   1.790   0.061  0.2014  0.2431 -0.8085
 1630SOL    HW1 5031   1.550   1.787  -0.030  0.8756  0.9501 -1.0447
 1630SOL    HW2 5032   1.652   1.850   0.062 -0.7927  1.5290  0.4546
 1631SOL     OW 5033   0.087   0.316   2.220  0.3155  0.1648 -0.3183
 1631SOL    HW1 5034   0.053   0.326   2.131 -1.8264  0.0268  0.4274
 1631SOL    HW2 5035   0.116   0.225   2.225 -2.6207 -0.8414  0.0419
 1632SOL     OW 5036   1.090   3.625   0.217 -0.1377 -0.3511 -0.6266
 1632SOL    HW1 5037   1.062   3.559   0.281  0.6325 -1.1107 -1.0533
 1632SOL    HW2 5038   1.014   3.635   0.159 -0.9132  0.4817  0.4825
 1633SOL     OW 5039   1.532   0.521   0.511 -0.6432 -0.1251 -0.2765
 1633SOL    HW1 5040   1.474   0.519   0.588  1.1959  1.6532  1.2532
 1633SOL    HW2 5041   1.598   0.454   0.530 -0.9153 -0.6146 -0.9898
 1634SOL     OW 5042   0.058   1.056   0.589  0.1190  0.2050 -0.3007
 1634SOL    HW1 5043   0.085   1.021   0.674  1.9534 -0.4420 -1.0993
 1634SOL    HW2 5044  -0.036   1.073   0.599  0.4152  0.7933  2.0540
 1635SOL     OW 5045   0.179   2.617   2.380 -0.5274 -0.7881  0.1108
 1635SOL    HW1 5046   0.242   2.648   2.445  0.0346 -1.7860  0.0549
 1635SOL    HW2 5047   0.102   2.674   2.392 -0.2168 -0.5889  1.2443
 1636SOL     OW 5048   1.067   0.067   1.536  0.2680 -0.2002 -0.7803
 1636SOL    HW1 5049   1.126   0.111   1.597 -1.0278  1.9648 -1.0148
 1636SOL    HW2 5050   1.094   0.098   1.449  0.4319 -1.2371 -1.1142
 1637SOL     OW 5051   1.017   1.889   2.713  0.3110  0.0727 -0.3862
 1637SOL    HW1 5052   1.109   1.866   2.719  0.2833  0.1483  0.3972
 1637SOL    HW2 5053   1.016   1.972   2.664  0.5242 -0.7523 -1.8242
 1638SOL     OW 5054   1.939   0.157   0.397  0.0984  0.2522  0.3189
 1638SOL    HW1 5055   1.959   0.064   0.406 -1.0815 -0.1160 -0.6401
 1638SOL    HW2 5056   2.013   0.193   0.347 -0.3386 -0.5695 -0.9658
 1639SOL     OW 5057   0.648   0.413   1.925 -0.4501  0.5372 -0.6509
 1639SOL    HW1 5058   0.691   0.403   2.011  0.9277  0.1212 -1.3555
 1639SOL    HW2 5059   0.648   0.507   1.909  2.1760  0.4735 -1.5347
 1640SOL     OW 5060   0.471   1.376   2.442 -0.1453 -0.3871  0.1773
 1640SOL    HW1 5061   0.482   1.433   2.518  0.0286 -3.0830  2.3390
 1640SOL    HW2 5062   0.560   1.350   2.418 -0.2858 -0.8260  0.1175
 1641SOL     OW 5063   2.991   2.622   2.937  0.0773  0.2677 -0.2843
 1641SOL    HW1 5064   2.985   2.717   2.924  1.8167  0.3896 -0.3784
 1641SOL    HW2 5065   2.947   2.584   2.861  0.9581  1.0104 -1.1948
 1642SOL     OW 5066   1.017   0.862   2.300 -0.2653  0.0327  1.1274
 1642SOL    HW1 5067   1.072   0.831   2.372  0.6986 -2.4697 -0.5664
 1642SOL    HW2 5068   0.943   0.905   2.344  1.4746  0.7697  3.5261
 1643SOL     OW 5069   3.239   3.212   0.640  0.1297 -0.1266 -0.9253
 1643SOL    HW1 5070   3.251   3.307   0.642 -1.8536  0.1466 -0.1556
 1643SOL    HW2 5071   3.145   3.200   0.635  0.3665 -2.0765 -1.5212
 1644SOL     OW 5072   2.674   0.910   1.173 -0.1277  0.2769 -0.2302
 1644SOL    HW1 5073   2.642   0.908   1.264  0.4329 -0.9068 -0.0262
 1644SOL    HW2 5074   2.710   0.822   1.160 -1.9952 -0.2498 -2.2574
 1645SOL     OW 5075   2.185   2.556   0.958  0.1382  0.8514  0.0719
 1645SOL    HW1 5076   2.214   2.474   0.919  0.5029  0.9183  0.1931
 1645SOL    HW2 5077   2.123   2.531   1.025 -1.5101  0.7989 -1.4073
 1646SOL     OW 5078   0.224   3.613   0.457 -0.0051 -0.0902 -0.0353
 1646SOL    HW1 5079   0.254   3.674   0.524 -2.2583  0.5133  0.5161
 1646SOL    HW2 5080   0.282   3.537   0.465 -0.2844 -0.1123  2.7541
 1647SOL     OW 5081   2.324   1.483   1.905 -0.1752  0.1695  0.2898
 1647SOL    HW1 5082   2.299   1.510   1.817  0.2102 -0.5723 -0.0569
 1647SOL    HW2 5083   2.245   1.442   1.941  0.3364 -1.7981 -0.6533
 1648SOL     OW 5084   2.663   2.226   0.617  0.2274  0.2818 -0.2201
 1648SOL    HW1 5085   2.656   2.139   0.579 -0.0676 -1.9492  4.2255
 1648SOL    HW2 5086   2.578   2.242   0.657 -0.0006  3.0985 -1.5727
 1649SOL     OW 5087   2.834   3.399   1.379  0.4016  0.2724  0.1485
 1649SOL    HW1 5088   2.792   3.389   1.294  0.1914 -2.3543  0.5014
 1649SOL    HW2 5089   2.779   3.348   1.439  1.4318  0.7675  1.5524
 1650SOL     OW 5090   2.385   0.298   0.956  0.9140 -0.7976 -0.0569
 1650SOL    HW1 5091   2.376   0.391   0.980 -0.1335 -1.5818  3.0230
 1650SOL    HW2 5092   2.298   0.261   0.969  1.5504 -2.4263 -0.1913
 1651SOL     OW 5093   0.685   2.035   1.865  0.5865  0.3856 -0.1102
 1651SOL    HW1 5094   0.691   2.095   1.791  1.9350  0.8456  0.3377
 1651SOL    HW2 5095   0.742   1.962   1.841  2.8019  1.5337  1.3181
 1652SOL     OW 5096   3.681   3.033   0.391  0.2983  0.1363  0.1086
 1652SOL    HW1 5097   3.735   3.101   0.432  0.2988 -1.1576  2.4357
 1652SOL    HW2 5098   3.594   3.072   0.387  0.7307  1.0692 -0.6714
 1653SOL     OW 5099   2.342   2.866   1.993 -0.0304  0.5305 -0.0931
 1653SOL    HW1 5100   2.268   2.885   1.936 -2.6601  0.9944  3.1795
 1653SOL    HW2 5101   2.384   2.950   2.007  2.2426  0.0661 -3.1050
 1654SOL     OW 5102   2.365   2.768   3.409  0.3916  0.1792 -0.0005
 1654SOL    HW1 5103   2.421   2.846   3.407  0.3789  0.1721 -1.5293
 1654SOL    HW2 5104   2.285   2.797   3.453 -0.3824  1.6125 -2.1676
 1655SOL     OW 5105   1.218   0.943   0.076 -0.5434 -0.6916 -0.0278
 1655SOL    HW1 5106   1.147   0.996   0.040  0.9375  0.4093 -1.5241
 1655SOL    HW2 5107   1.210   0.859   0.032  0.4804  0.2338 -2.1475
 1656SOL     OW 5108   3.457   0.915   3.287  0.4853  0.6826  0.1182
 1656SOL    HW1 5109   3.404   0.897   3.209 -0.2590  0.7952  0.5912
 1656SOL    HW2 5110   3.546   0.928   3.253  0.7143 -1.8116 -0.4812
 1657SOL     OW 5111   3.726   3.188   1.467  0.0305 -0.2699 -0.9355
 1657SOL    HW1 5112   3.748   3.177   1.560  0.7145 -0.1991 -1.0869
 1657SOL    HW2 5113   3.710   3.281   1.457 -0.7263 -0.3723 -0.7464
 1658SOL     OW 5114   2.169   3.416   2.937 -0.4574 -0.1256  0.2596
 1658SOL    HW1 5115   2.226   3.342   2.916 -1.8348 -1.0197 -0.5089
 1658SOL    HW2 5116   2.162   3.464   2.854 -0.6073  0.1238  0.4186
 1659SOL     OW 5117   0.874   2.997   3.709  1.1116 -0.0366  0.1460
 1659SOL    HW1 5118   0.880   3.083   3.750  0.2846  0.0824  0.0382
 1659SOL    HW2 5119   0.958   2.986   3.664  1.4252  0.4844  0.5915
 1660SOL     OW 5120   1.169   1.384   1.371 -0.0997  0.0135 -0.1344
 1660SOL    HW1 5121   1.135   1.473   1.375  1.1849  0.5134  0.2983
 1660SOL    HW2 5122   1.092   1.328   1.367 -0.9450  1.0917  0.6301
 1661SOL     OW 5123   0.393   1.418   3.239  0.0820 -0.3781  0.4521
 1661SOL    HW1 5124   0.315   1.422   3.294  0.6438  0.9028  1.1857
 1661SOL    HW2 5125   0.404   1.324   3.219 -1.2651 -0.6359  0.8470
 1662SOL     OW 5126   2.260   2.737   2.505  0.1560  0.1236  0.2722
 1662SOL    HW1 5127   2.303   2.719   2.421 -0.7251 -1.0043  0.0295
 1662SOL    HW2 5128   2.288   2.825   2.528 -1.8055  1.6408 -2.6193
 1663SOL     OW 5129   0.408   3.361   0.825 -0.3435  0.5239 -0.7094
 1663SOL    HW1 5130   0.391   3.423   0.896  1.1889 -1.2626  1.3564
 1663SOL    HW2 5131   0.501   3.373   0.804 -0.4353  0.0640 -1.4237
 1664SOL     OW 5132   3.571   2.200   2.368  0.1536 -0.2444  0.8699
 1664SOL    HW1 5133   3.644   2.248   2.409  0.1226 -0.9802  1.8086
 1664SOL    HW2 5134   3.493   2.250   2.392  0.2345 -0.0979  0.8298
 1665SOL     OW 5135   0.647   2.399   2.910  0.2841 -0.3920 -0.0084
 1665SOL    HW1 5136   0.683   2.487   2.920 -0.4115 -0.1894  0.7562
 1665SOL    HW2 5137   0.677   2.372   2.823 -0.7467  1.1959 -0.9167
 1666SOL     OW 5138   0.706   0.637   3.675  0.0972 -0.3213 -0.2723
 1666SOL    HW1 5139   0.681   0.700   3.743  0.4386 -0.4239 -0.0471
 1666SOL    HW2 5140   0.754   0.688   3.611 -1.5617  0.0876 -1.2440
 1667SOL     OW 5141   2.409   2.348   1.785 -0.1123 -0.4786 -0.4749
 1667SOL    HW1 5142   2.364   2.317   1.863 -0.9136 -1.3117 -1.2339
 1667SOL    HW2 5143   2.385   2.440   1.778 -0.7742 -0.6267 -0.2342
 1668SOL     OW 5144   2.290   3.621   1.587 -0.0708  0.0960 -0.0494
 1668SOL    HW1 5145   2.214   3.587   1.634  0.5265  0.2375  1.0478
 1668SOL    HW2 5146   2.331   3.543   1.550 -0.5690 -0.0144 -0.3793
 1669SOL     OW 5147   1.209   1.462   0.883 -0.6121  0.3622 -0.1913
 1669SOL    HW1 5148   1.125   1.472   0.839 -1.2830 -1.7811  0.4512
 1669SOL    HW2 5149   1.208   1.372   0.916  0.0563  1.5859  3.6797
 1670SOL     OW 5150   0.886   3.271   0.809 -0.5623  0.1747  0.0252
 1670SOL    HW1 5151   0.802   3.233   0.832 -0.9881  1.3298  0.4869
 1670SOL    HW2 5152   0.934   3.278   0.892 -0.5124  0.6625 -0.0373
 1671SOL     OW 5153   3.259   3.539   3.454 -0.1578  0.0223 -0.3453
 1671SOL    HW1 5154   3.202   3.528   3.530  1.3572  0.6175  0.9166
 1671SOL    HW2 5155   3.344   3.505   3.481 -0.1270 -2.0308 -2.6168
 1672SOL     OW 5156   2.302   0.670   2.964 -0.3185 -0.2109  0.2619
 1672SOL    HW1 5157   2.237   0.718   2.912  1.0000 -0.4344 -1.6890
 1672SOL    HW2 5158   2.254   0.640   3.041 -2.2382  0.5755 -0.5733
 1673SOL     OW 5159   2.193   1.035   0.978  0.4996  0.1215 -0.5785
 1673SOL    HW1 5160   2.218   0.980   0.903 -1.0549 -1.5615  0.0745
 1673SOL    HW2 5161   2.105   1.066   0.957  1.0479  1.7699 -0.5645
 1674SOL     OW 5162   1.148   1.341   1.901  0.2807  0.0516  0.1366
 1674SOL    HW1 5163   1.205   1.279   1.946  0.0324 -1.6911 -1.7807
 1674SOL    HW2 5164   1.208   1.408   1.867  0.8810 -0.4327  0.2245
 1675SOL     OW 5165   0.411   2.820   1.262 -0.2568  0.3623 -0.6922
 1675SOL    HW1 5166   0.461   2.899   1.283 -0.9348  0.5272  0.3466
 1675SOL    HW2 5167   0.333   2.825   1.317 -1.7259  0.3837 -2.6751
 1676SOL     OW 5168   3.569   1.675   0.967  0.2199 -0.2492 -0.1870
 1676SOL    HW1 5169   3.621   1.635   0.896  1.5104  1.1423 -0.0779
 1676SOL    HW2 5170   3.490   1.622   0.971  0.6113 -1.0531 -1.9250
 1677SOL     OW 5171   0.839   1.804   1.828 -0.8528  0.3104 -0.1676
 1677SOL    HW1 5172   0.827   1.827   1.920 -3.5182 -1.6261  0.0722
 1677SOL    HW2 5173   0.848   1.709   1.827  1.7018  0.4772 -1.7559
 1678SOL     OW 5174   0.912   1.399   3.336  0.3452  0.2131 -0.0270
 1678SOL    HW1 5175   0.869   1.314   3.328  0.1585  0.1747  1.1996
 1678SOL    HW2 5176   0.922   1.429   3.245  1.2106 -1.4899 -0.5291
 1679SOL     OW 5177   3.053   2.892   2.803  0.0448 -0.3563  0.8879
 1679SOL    HW1 5178   2.977   2.915   2.750 -0.3278  0.1675  1.6269
 1679SOL    HW2 5179   3.026   2.911   2.893  1.2777  0.4885  1.1076
 1680SOL     OW 5180   3.044   1.027   1.941  0.1245 -0.1548 -0.5457
 1680SOL    HW1 5181   3.014   1.112   1.973  1.6549  0.6146 -1.0282
 1680SOL    HW2 5182   2.966   0.972   1.939 -0.6176  0.7573  1.2858
 1681SOL     OW 5183   2.648   3.153   2.937  0.2420  0.5747 -0.2775
 1681SOL    HW1 5184   2.621   3.244   2.932  0.6102  0.8128  1.4621
 1681SOL    HW2 5185   2.732   3.150   2.892  2.2137  2.0018  2.9483
 1682SOL     OW 5186   0.393   2.083   2.652 -0.4887  0.2482 -1.3583
 1682SOL    HW1 5187   0.462   2.055   2.593  1.9072 -2.4547  2.2816
 1682SOL    HW2 5188   0.348   2.002   2.677 -1.8405  1.3335 -0.0579
 1683SOL     OW 5189   1.756   0.809   2.097 -0.1839  0.6576  1.0339
 1683SOL    HW1 5190   1.691   0.752   2.138 -0.3606  1.2363  1.5749
 1683SOL    HW2 5191   1.730   0.898   2.122 -0.6328  1.0895 -0.8308
 1684SOL     OW 5192   2.659   0.456   0.526  0.0952 -0.0449 -0.0382
 1684SOL    HW1 5193   2.745   0.485   0.556  0.4823  1.4460 -2.3061
 1684SOL    HW2 5194   2.604   0.459   0.604  1.1328  3.0455  0.7326
 1685SOL     OW 5195   1.920   0.252   2.272 -0.1029 -0.2225  0.4522
 1685SOL    HW1 5196   2.003   0.291   2.245 -0.2046 -0.7051 -0.6496
 1685SOL    HW2 5197   1.854   0.298   2.219 -0.3356 -1.0744 -0.0232
 1686SOL     OW 5198   3.072   2.995   3.548  0.1032 -0.1693  0.3286
 1686SOL    HW1 5199   3.127   2.919   3.569  1.5697  0.7671  0.0257
 1686SOL    HW2 5200   3.067   2.996   3.452  0.4956  0.3724  0.3065
 1687SOL     OW 5201   1.456   2.345   2.036  0.0653 -0.7322  0.3960
 1687SOL    HW1 5202   1.415   2.413   2.090  0.1740 -1.0344  0.8668
 1687SOL    HW2 5203   1.395   2.333   1.963 -0.2078 -0.4946  0.5784
 1688SOL     OW 5204   0.944   0.648   2.545 -0.4109  0.9614 -0.0151
 1688SOL    HW1 5205   0.930   0.743   2.552 -0.1631  1.2112 -2.1819
 1688SOL    HW2 5206   0.859   0.609   2.563 -0.1833  1.4204  2.5400
 1689SOL     OW 5207   0.956   2.989   3.286 -0.2760 -0.6383 -0.0026
 1689SOL    HW1 5208   0.938   2.996   3.193 -0.8482 -3.5323 -0.2157
 1689SOL    HW2 5209   1.045   3.022   3.296 -0.2929 -0.0606 -1.5211
 1690SOL     OW 5210   1.145   0.064   3.085  0.1956  0.1623  0.2744
 1690SOL    HW1 5211   1.119   0.155   3.076  0.1180  0.1669  0.5316
 1690SOL    HW2 5212   1.064   0.019   3.110  0.1449 -0.0426 -0.2382
 1691SOL     OW 5213   0.181   0.266   1.903 -0.0137 -0.9015 -0.1418
 1691SOL    HW1 5214   0.133   0.191   1.867  0.5420 -0.6014 -1.5821
 1691SOL    HW2 5215   0.265   0.229   1.930 -0.6856 -1.2592  1.5587
 1692SOL     OW 5216   1.422   1.007   0.273 -0.4465 -0.2045 -0.5919
 1692SOL    HW1 5217   1.344   1.003   0.216 -0.5767 -3.0139 -0.3950
 1692SOL    HW2 5218   1.421   0.923   0.319  1.8491  0.3688  0.6315
 1693SOL     OW 5219   1.461   0.088   0.732 -0.2256  0.3608  0.0277
 1693SOL    HW1 5220   1.525   0.026   0.768 -0.9013 -0.4377 -0.0873
 1693SOL    HW2 5221   1.382   0.034   0.718 -0.3146  0.8821 -1.6685
 1694SOL     OW 5222   2.534   3.515   1.505  0.1066  0.9733 -0.4700
 1694SOL    HW1 5223   2.565   3.453   1.571  2.1390  2.2499 -0.1221
 1694SOL    HW2 5224   2.541   3.468   1.422 -2.4278 -0.6277  0.1296
 1695SOL     OW 5225   1.589   1.744   3.475 -0.0884 -0.4009 -0.2936
 1695SOL    HW1 5226   1.565   1.818   3.419 -1.0396 -0.4655  0.0179
 1695SOL    HW2 5227   1.528   1.675   3.450  0.4591 -0.9193 -0.2180
 1696SOL     OW 5228   0.558   2.228   3.103  0.1998  1.1348  0.5414
 1696SOL    HW1 5229   0.587   2.294   3.040  1.1795 -0.3525 -0.6431
 1696SOL    HW2 5230   0.465   2.246   3.116  0.2805  2.2585 -0.3539
 1697SOL     OW 5231   3.636   0.605   3.216 -0.0148  0.1514 -0.6806
 1697SOL    HW1 5232   3.673   0.517   3.212 -0.4200 -0.0104 -0.8485
 1697SOL    HW2 5233   3.627   0.623   3.309 -1.7021 -0.7325 -0.6403
 1698SOL     OW 5234   1.725   1.785   2.804 -0.6179 -0.5319 -0.3983
 1698SOL    HW1 5235   1.768   1.700   2.807 -2.4133 -1.4579 -0.0215
 1698SOL    HW2 5236   1.652   1.774   2.743 -0.2668  1.0526 -1.1769
 1699SOL     OW 5237   1.479   0.384   1.443 -0.8490  0.1129  0.3896
 1699SOL    HW1 5238   1.567   0.382   1.481 -0.8194 -1.3269  0.3091
 1699SOL    HW2 5239   1.451   0.475   1.451 -0.1732  0.1940  2.3116
 1700SOL     OW 5240   1.339   1.603   3.334 -0.8733  0.0510  0.3926
 1700SOL    HW1 5241   1.323   1.541   3.263  1.4788 -1.1689  0.8057
 1700SOL    HW2 5242   1.279   1.576   3.403  1.0295 -2.8208  1.0933
 1701SOL     OW 5243   1.548   1.243   0.245  0.6664 -0.5256  0.0350
 1701SOL    HW1 5244   1.538   1.311   0.312 -1.9913  0.0822 -0.8656
 1701SOL    HW2 5245   1.495   1.170   0.276 -2.6637  0.6454 -2.3555
 1702SOL     OW 5246   3.489   1.385   3.554 -0.2402 -0.2378 -0.0419
 1702SOL    HW1 5247   3.401   1.419   3.538 -1.4555 -2.8876  0.3907
 1702SOL    HW2 5248   3.525   1.371   3.467 -0.3417  0.6212 -0.2283
 1703SOL     OW 5249   1.341   1.660   0.100  0.2383  0.3095  0.1932
 1703SOL    HW1 5250   1.430   1.687   0.123  0.4162 -0.6353  0.6907
 1703SOL    HW2 5251   1.292   1.741   0.093  1.0425  0.8233  0.3453
 1704SOL     OW 5252   0.481   3.291   3.038 -0.1428  0.3892 -0.0556
 1704SOL    HW1 5253   0.402   3.297   3.092 -1.5391 -2.3486 -1.5524
 1704SOL    HW2 5254   0.548   3.258   3.097 -0.9458 -0.1421  0.5897
 1705SOL     OW 5255   0.121   1.233   1.119  0.1530  0.0170  0.5325
 1705SOL    HW1 5256   0.140   1.327   1.122 -0.4758  0.1786 -0.0367
 1705SOL    HW2 5257   0.118   1.213   1.025  1.6538 -0.8756  0.6449
 1706SOL     OW 5258   0.022   0.974   1.722 -0.2126  0.8806 -0.1803
 1706SOL    HW1 5259   0.046   1.045   1.664  1.3838  0.9362  0.5050
 1706SOL    HW2 5260  -0.011   1.017   1.801  0.9539  0.8989  0.3188
 1707SOL     OW 5261   0.666   1.343   2.042  0.3435 -0.0560 -0.6893
 1707SOL    HW1 5262   0.644   1.257   2.076 -0.5050  0.5029  0.2389
 1707SOL    HW2 5263   0.754   1.360   2.074 -0.2003  0.1885  0.7280
 1708SOL     OW 5264   2.852   3.467   1.009 -0.6937  0.5690  0.5752
 1708SOL    HW1 5265   2.872   3.548   1.056 -1.4890  1.4082 -0.4802
 1708SOL    HW2 5266   2.905   3.472   0.930 -1.0470  0.2366  0.3160
 1709SOL     OW 5267   0.409   3.232   2.210  0.0975 -0.2073 -0.0984
 1709SOL    HW1 5268   0.404   3.189   2.125 -2.0866 -0.8981  0.3268
 1709SOL    HW2 5269   0.499   3.217   2.239  1.1401  0.7160 -2.5701
 1710SOL     OW 5270   1.563   2.624   2.933 -0.0807 -0.4255  0.2674
 1710SOL    HW1 5271   1.639   2.603   2.988 -0.4710  1.1754  1.4813
 1710SOL    HW2 5272   1.590   2.702   2.885 -0.6282 -0.3867  0.0195
 1711SOL     OW 5273   0.314   2.136   0.580  0.1834  0.5182  0.8217
 1711SOL    HW1 5274   0.324   2.142   0.675 -0.8678  2.4655  0.8677
 1711SOL    HW2 5275   0.379   2.197   0.545  1.9118 -1.5884  0.1220
 1712SOL     OW 5276   3.246   0.035   0.610  0.7025 -0.1151 -0.1609
 1712SOL    HW1 5277   3.158   0.016   0.577  0.7211  1.8893 -1.5061
 1712SOL    HW2 5278   3.292   0.073   0.536  1.9717  1.0781  1.1751
 1713SOL     OW 5279   3.758   0.209   3.463  0.4826 -0.7344 -0.1114
 1713SOL    HW1 5280   3.708   0.180   3.540  0.0259 -0.3470 -0.2618
 1713SOL    HW2 5281   3.692   0.240   3.401  0.9273  0.0713 -0.1918
 1714SOL     OW 5282   0.573   3.696   1.449 -0.1068  0.7151  0.1632
 1714SOL    HW1 5283   0.513   3.684   1.522 -2.7818 -0.8230 -2.0705
 1714SOL    HW2 5284   0.535   3.767   1.397  2.3494  2.5796  0.6989
 1715SOL     OW 5285   0.136   1.908   1.159  0.3012  0.2549  0.1117
 1715SOL    HW1 5286   0.223   1.880   1.132 -0.8006 -0.9344 -2.6920
 1715SOL    HW2 5287   0.087   1.914   1.077 -2.4136  0.2763  1.6139
 1716SOL     OW 5288   1.970   2.624   2.828 -0.7100 -0.2637  0.5893
 1716SOL    HW1 5289   2.063   2.629   2.851 -0.7588 -1.7232  1.2083
 1716SOL    HW2 5290   1.924   2.656   2.906 -0.7457  1.3731 -0.0542
 1717SOL     OW 5291   3.050   3.378   2.906  0.3864  1.2206 -0.7486
 1717SOL    HW1 5292   2.973   3.396   2.959 -0.6221 -0.2297 -1.6578
 1717SOL    HW2 5293   3.121   3.427   2.949 -0.4917  0.5585  1.5821
 1718SOL     OW 5294   1.202   2.731   0.431 -0.1850 -0.3231 -0.3493
 1718SOL    HW1 5295   1.114   2.742   0.396 -0.2152  1.4329  0.1577
 1718SOL    HW2 5296   1.195   2.763   0.521  1.3559  1.6821 -0.8812
 1719SOL     OW 5297   2.228   0.288   2.200  0.0019 -0.4816 -0.2525
 1719SOL    HW1 5298   2.287   0.337   2.258  0.1851 -1.7941  0.7163
 1719SOL    HW2 5299   2.245   0.196   2.220  0.9347 -1.0550 -3.2872
 1720SOL     OW 5300   1.864   2.794   0.725 -0.1624 -0.8539  0.3213
 1720SOL    HW1 5301   1.836   2.862   0.665  2.6896  0.4175  0.2515
 1720SOL    HW2 5302   1.800   2.796   0.796 -2.0369 -0.5112 -1.2954
 1721SOL     OW 5303   2.409   3.054   3.506  0.3392  0.1346 -0.3257
 1721SOL    HW1 5304   2.453   3.137   3.486  1.3692 -0.9524 -2.9756
 1721SOL    HW2 5305   2.331   3.054   3.451  0.2699 -0.6003 -0.2389
 1722SOL     OW 5306   1.185   0.770   3.461  0.3821  0.2347  0.3814
 1722SOL    HW1 5307   1.107   0.714   3.450 -0.0405  0.1937  2.9614
 1722SOL    HW2 5308   1.174   0.839   3.396  0.1660 -1.8079 -1.8968
 1723SOL     OW 5309   1.762   3.715   0.660  0.0570  0.8872 -0.0844
 1723SOL    HW1 5310   1.853   3.687   0.647 -0.3542 -0.0797 -1.0649
 1723SOL    HW2 5311   1.715   3.636   0.685 -0.8170  0.9996 -1.2359
 1724SOL     OW 5312   0.628   3.231   3.283  0.1137 -0.2393 -0.3058
 1724SOL    HW1 5313   0.697   3.260   3.344 -0.3849 -2.2060  1.3138
 1724SOL    HW2 5314   0.655   3.143   3.257 -1.8940 -1.1786  0.5933
 1725SOL     OW 5315   2.640   1.388   2.943  0.6096  0.5070 -0.1179
 1725SOL    HW1 5316   2.607   1.439   3.017  0.8323 -0.2488  0.5079
 1725SOL    HW2 5317   2.735   1.397   2.947  0.9634 -2.6178  2.0350
 1726SOL     OW 5318   2.784   0.134   1.749  0.0347  0.2580 -0.0855
 1726SOL    HW1 5319   2.689   0.130   1.742 -0.0950  2.3058 -0.1300
 1726SOL    HW2 5320   2.802   0.128   1.843 -0.2086  0.7894 -0.0047
 1727SOL     OW 5321   0.104   1.560   3.314 -0.3433 -0.0565  0.0571
 1727SOL    HW1 5322   0.060   1.604   3.240 -0.0234 -1.0109 -0.7260
 1727SOL    HW2 5323   0.182   1.613   3.330 -0.3786  0.1210 -0.3417
 1728SOL     OW 5324   1.334   2.505   0.351  0.1389  0.0949 -0.2448
 1728SOL    HW1 5325   1.351   2.448   0.426 -4.3651 -1.5464 -0.1834
 1728SOL    HW2 5326   1.298   2.585   0.389  0.2609  0.3056 -0.5643
 1729SOL     OW 5327   1.241   1.080   2.029 -0.3331 -0.1044  0.2003
 1729SOL    HW1 5328   1.223   1.127   2.110 -0.0228 -0.2865  0.3777
 1729SOL    HW2 5329   1.325   1.037   2.044 -1.9363 -3.2031  1.1534
 1730SOL     OW 5330   2.521   1.907   1.678  0.4482  0.2228 -0.6896
 1730SOL    HW1 5331   2.566   1.922   1.761  0.5702  0.8301 -0.8593
 1730SOL    HW2 5332   2.488   1.818   1.684  1.1435 -0.0146 -0.3079
 1731SOL     OW 5333   3.137   1.983   0.165 -0.3818  0.1498  0.6094
 1731SOL    HW1 5334   3.070   1.916   0.150 -0.8594  1.0157 -1.4219
 1731SOL    HW2 5335   3.219   1.935   0.168 -0.9374 -0.7867  1.8430
 1732SOL     OW 5336   2.969   3.345   0.576 -0.2974 -0.0147  0.3426
 1732SOL    HW1 5337   2.885   3.303   0.591 -2.0649  2.0429 -2.7001
 1732SOL    HW2 5338   2.957   3.435   0.606  1.1043  0.1022  0.6302
 1733SOL     OW 5339   0.663   2.980   2.077  0.3516  0.3640  0.1249
 1733SOL    HW1 5340   0.619   2.902   2.044 -1.4884  1.0363  0.9066
 1733SOL    HW2 5341   0.649   3.047   2.010  0.0097  0.6306  0.4569
 1734SOL     OW 5342   2.363   3.393   1.328  0.8345  0.9182 -0.2264
 1734SOL    HW1 5343   2.306   3.460   1.292  0.8502 -0.0404 -2.1457
 1734SOL    HW2 5344   2.405   3.353   1.252  1.8141 -0.3846  0.9428
 1735SOL     OW 5345   0.461   1.963   2.910 -0.0626 -0.3119 -0.1118
 1735SOL    HW1 5346   0.416   2.047   2.924 -0.3138 -0.5602  0.5966
 1735SOL    HW2 5347   0.438   1.910   2.986  0.8795 -0.6883 -0.0706
 1736SOL     OW 5348   2.727   2.384   3.745 -0.3975  0.2532  0.1464
 1736SOL    HW1 5349   2.633   2.397   3.755 -0.7268 -1.6649 -0.0235
 1736SOL    HW2 5350   2.741   2.377   3.650 -0.0779  0.5094  0.1703
 1737SOL     OW 5351   1.778   1.157   0.632 -0.1576 -0.3524 -0.5254
 1737SOL    HW1 5352   1.785   1.164   0.536  1.3568 -1.4441 -0.5228
 1737SOL    HW2 5353   1.782   1.247   0.663 -1.4806  0.0876 -1.5138
 1738SOL     OW 5354   1.953   1.733   0.954 -0.6374 -0.2636  0.2212
 1738SOL    HW1 5355   1.978   1.826   0.956 -3.1448  0.4925  0.9345
 1738SOL    HW2 5356   2.034   1.686   0.936  0.5545  2.1340 -1.1542
 1739SOL     OW 5357   0.466   1.538   2.682 -0.4448  0.3412  0.0156
 1739SOL    HW1 5358   0.443   1.526   2.774 -1.3790 -1.8724 -0.4400
 1739SOL    HW2 5359   0.497   1.628   2.676 -1.2489  0.8215  2.3053
 1740SOL     OW 5360   0.226   1.098   0.385  0.8324  0.4205  0.3082
 1740SOL    HW1 5361   0.221   1.013   0.342  0.3677 -0.4521  1.9832
 1740SOL    HW2 5362   0.149   1.100   0.442  1.2887  1.6189  0.9150
 1741SOL     OW 5363   3.084   0.532   0.880  0.2642  0.1400  0.0073
 1741SOL    HW1 5364   3.055   0.496   0.964  0.2217 -0.5643 -0.3100
 1741SOL    HW2 5365   3.070   0.627   0.889  0.7659  0.1333  0.9974
 1742SOL     OW 5366   0.058   3.719   0.270 -0.1341  0.3568  0.6885
 1742SOL    HW1 5367   0.100   3.678   0.345 -2.0855 -0.6487  1.2873
 1742SOL    HW2 5368  -0.035   3.724   0.293 -0.8115 -0.0189 -1.6611
 1743SOL     OW 5369   1.624   1.277   0.959  0.1936 -0.2771 -0.0260
 1743SOL    HW1 5370   1.697   1.334   0.933  0.9204 -0.3346  1.7513
 1743SOL    HW2 5371   1.573   1.265   0.878 -0.0581  2.9661 -0.4945
 1744SOL     OW 5372   2.777   1.788   2.231 -0.2875 -0.4205 -0.0037
 1744SOL    HW1 5373   2.706   1.784   2.294 -0.7681 -3.5053 -0.5943
 1744SOL    HW2 5374   2.748   1.853   2.166 -0.4751  1.6279  2.0192
 1745SOL     OW 5375   1.659   1.950   1.926  0.0827  0.1050  0.0541
 1745SOL    HW1 5376   1.645   1.924   1.835 -2.9290 -0.1558  0.5109
 1745SOL    HW2 5377   1.645   2.045   1.927  1.3138  0.3015  0.0730
 1746SOL     OW 5378   0.640   3.403   0.728 -0.1070 -0.1489 -0.0413
 1746SOL    HW1 5379   0.680   3.376   0.645 -0.8334  1.1773 -0.8621
 1746SOL    HW2 5380   0.696   3.475   0.758 -0.5180  0.1574  0.0010
 1747SOL     OW 5381   1.622   0.685   2.451  0.5611  0.2770 -0.0245
 1747SOL    HW1 5382   1.632   0.590   2.455  0.7635  0.2944 -0.1260
 1747SOL    HW2 5383   1.615   0.704   2.357 -0.6984  0.2332  0.0386
 1748SOL     OW 5384   2.410   2.673   1.046 -0.5035 -0.0268  1.4290
 1748SOL    HW1 5385   2.333   2.675   0.989  0.7718  1.1094 -0.4095
 1748SOL    HW2 5386   2.475   2.624   0.996  0.9803  1.8538  1.3904
 1749SOL     OW 5387   2.566   1.853   1.408  0.2042  0.0985 -0.3892
 1749SOL    HW1 5388   2.592   1.938   1.372  1.3687 -0.4375 -0.8742
 1749SOL    HW2 5389   2.519   1.875   1.489  2.6456  1.1609  0.8575
 1750SOL     OW 5390   0.359   2.844   1.694 -0.0201  0.1798 -0.7473
 1750SOL    HW1 5391   0.389   2.753   1.698  2.4670  0.9625  1.2985
 1750SOL    HW2 5392   0.311   2.857   1.776 -0.0271  0.7770 -0.8424
 1751SOL     OW 5393   0.939   1.432   2.488 -0.4533  0.2697 -0.1506
 1751SOL    HW1 5394   0.882   1.364   2.452 -0.1033 -0.8636  1.3802
 1751SOL    HW2 5395   0.878   1.494   2.529 -0.6531 -0.7139  1.0994
 1752SOL     OW 5396   2.341   0.530   1.083 -0.0625  0.0246  0.2856
 1752SOL    HW1 5397   2.339   0.499   1.173 -0.5753  2.5704  1.2535
 1752SOL    HW2 5398   2.252   0.562   1.067  0.4312  1.0889 -0.5169
 1753SOL     OW 5399   3.144   0.824   1.310 -0.7140  0.0416 -0.2783
 1753SOL    HW1 5400   3.154   0.764   1.383 -0.0860  0.9860  0.4411
 1753SOL    HW2 5401   3.057   0.863   1.323 -0.0521  1.2416  0.8040
 1754SOL     OW 5402   3.547   0.776   2.582  0.3651 -0.4881 -0.6232
 1754SOL    HW1 5403   3.493   0.707   2.620  0.2173  0.2061  0.4413
 1754SOL    HW2 5404   3.635   0.738   2.581  0.3395 -0.5800  0.2459
 1755SOL     OW 5405   1.300   2.323   1.458 -0.2100 -0.5612  0.4916
 1755SOL    HW1 5406   1.327   2.329   1.366 -3.1372 -2.5324 -0.6547
 1755SOL    HW2 5407   1.206   2.339   1.456 -0.2885 -0.3118  3.2322
 1756SOL     OW 5408   2.705   3.228   1.511  0.7342 -0.4322 -0.6099
 1756SOL    HW1 5409   2.656   3.224   1.593  0.2035 -0.2439 -0.9132
 1756SOL    HW2 5410   2.653   3.176   1.450 -0.3410  1.6705 -1.5733
 1757SOL     OW 5411   1.089   2.334   1.282 -0.4709 -0.3228 -0.0099
 1757SOL    HW1 5412   1.010   2.382   1.257 -0.0089 -0.0942 -1.0623
 1757SOL    HW2 5413   1.156   2.364   1.221  0.3270 -0.8392  0.5909
 1758SOL     OW 5414   3.153   0.712   1.935  0.1516 -0.1915  0.0857
 1758SOL    HW1 5415   3.063   0.740   1.918  0.0063 -0.2962  0.6757
 1758SOL    HW2 5416   3.190   0.695   1.848 -0.8042 -1.4168 -0.1029
 1759SOL     OW 5417   2.102   3.343   3.697 -0.4444 -0.1916 -0.0309
 1759SOL    HW1 5418   2.194   3.332   3.721 -0.0502 -0.3096 -1.5129
 1759SOL    HW2 5419   2.073   3.419   3.748 -0.2043 -1.5071  2.2054
 1760SOL     OW 5420   1.350   2.794   2.154 -0.4136  0.0481 -0.5466
 1760SOL    HW1 5421   1.371   2.702   2.171  0.1074  0.3433  0.4843
 1760SOL    HW2 5422   1.433   2.840   2.160 -0.8761  0.7925  0.4663
 1761SOL     OW 5423   2.300   0.868   1.647  0.5259 -0.1178  0.3349
 1761SOL    HW1 5424   2.364   0.934   1.674  2.1206 -1.2140 -0.6051
 1761SOL    HW2 5425   2.216   0.914   1.647  1.3101  1.3966  1.4896
 1762SOL     OW 5426   3.385   0.448   3.603  0.2965  0.0076 -0.2284
 1762SOL    HW1 5427   3.401   0.392   3.527 -0.9064  0.6439 -0.9710
 1762SOL    HW2 5428   3.406   0.537   3.572  1.4686  0.0976  0.7164
 1763SOL     OW 5429   0.848   2.420   1.159 -0.3087 -0.2256  0.3706
 1763SOL    HW1 5430   0.811   2.484   1.098 -1.0505 -0.5903  0.4210
 1763SOL    HW2 5431   0.851   2.464   1.243 -1.3251 -0.4201  0.5210
 1764SOL     OW 5432   1.553   2.215   3.636 -0.3992  0.9732  0.2097
 1764SOL    HW1 5433   1.468   2.172   3.637 -0.5040  1.0677  2.9482
 1764SOL    HW2 5434   1.614   2.148   3.605 -1.0766 -0.0066  0.9473
 1765SOL     OW 5435   1.569   2.760   0.535  0.1527  0.6653 -0.2368
 1765SOL    HW1 5436   1.628   2.693   0.500  0.7762  1.6972 -1.2502
 1765SOL    HW2 5437   1.516   2.714   0.600  0.7875 -0.7241 -0.6572
 1766SOL     OW 5438   3.550   3.558   2.549 -0.0811 -0.0266  0.1027
 1766SOL    HW1 5439   3.579   3.637   2.504  1.1058  0.4323  1.5853
 1766SOL    HW2 5440   3.490   3.589   2.616  1.0633 -0.2499  1.2662
 1767NA      NA 5441   1.759   1.770   0.818  0.0428  0.1380 -0.4102
 1768NA      NA 5442   0.640   3.149   2.690 -0.2412  0.1180  0.1981
   3.72830   3.72830   3.72830
