Protein in water
 5444
    0TYR      N    1   3.609   2.033   2.583  0.2567 -0.3432 -0.8367
    0TYR     H1    2   3.683   1.978   2.535  1.2726 -0.3146  0.6458
    0TYR     H2    3   3.590   1.978   2.669  1.7311  1.1897  0.5585
    0TYR     H3    4   3.663   2.117   2.610 -0.0868 -0.9488  2.0440
    0TYR     CA    5   3.503   2.053   2.484  0.1341 -0.3282  0.0823
    0TYR     HA    6   3.440   1.965   2.482 -1.5545  0.8545 -0.6237
    0TYR     CB    7   3.411   2.176   2.532  0.8119 -0.4790 -0.8695
    0TYR    HB1    8   3.393   2.242   2.445  1.5043  0.3926 -0.3774
    0TYR    HB2    9   3.455   2.251   2.602 -1.6619 -0.2425  0.5591
    0TYR     CG   10   3.279   2.120   2.582 -0.2092  0.1230  0.0053
    0TYR    CD1   11   3.249   2.119   2.723 -0.1121 -0.3276  0.8661
    0TYR    HD1   12   3.324   2.149   2.794  0.4057 -1.8637  0.9938
    0TYR    CE1   13   3.125   2.056   2.764 -0.7534 -0.0389  0.1369
    0TYR    HE1   14   3.097   2.045   2.868 -3.1284 -3.1652 -0.6786
    0TYR     CZ   15   3.025   2.025   2.669 -0.1797  0.5982 -0.8698
    0TYR     OH   16   2.897   1.983   2.704  0.7491 -0.2125  0.5696
    0TYR     HH   17   2.871   2.040   2.777 -0.2095 -0.4686  0.4454
    0TYR    CD2   18   3.185   2.066   2.491  0.7730  0.5549 -0.0687
    0TYR    HD2   19   3.202   2.068   2.384 -0.1069  0.4001 -0.2179
    0TYR    CE2   20   3.053   2.032   2.535 -0.0315 -0.9142  0.0206
    0TYR    HE2   21   2.975   2.008   2.464 -0.3853  1.2411 -0.3765
    0TYR      C   22   3.561   2.084   2.345  0.0622  0.3121 -0.0624
    0TYR      O   23   3.680   2.071   2.317 -0.7167 -0.0126 -0.4374
    1TYR      N   24   3.483   2.130   2.246 -0.1061  0.0066  0.0389
    1TYR     HN   25   3.384   2.122   2.235 -0.1799  0.5957  0.2165
    1TYR     CA   26   3.540   2.175   2.124 -0.2449  0.4825 -0.2928
    1TYR     HA   27   3.631   2.122   2.099 -0.8866  0.3276 -2.5414
    1TYR     CB   28   3.433   2.172   2.002 -0.1923 -0.0264  1.1747
    1TYR    HB1   29   3.376   2.267   1.995  0.9067  0.5240 -2.2714
    1TYR    HB2   30   3.366   2.084   2.006  0.3719 -0.4481  1.6061
    1TYR     CG   31   3.497   2.172   1.862  0.4465  0.2787  0.0385
    1TYR    CD1   32   3.590   2.074   1.829  0.4870 -0.3526  0.2734
    1TYR    HD1   33   3.626   1.998   1.896 -0.6082 -1.5589 -0.4520
    1TYR    CE1   34   3.612   2.053   1.693 -0.3047  0.2926  0.5625
    1TYR    HE1   35   3.683   1.977   1.663 -1.3001 -0.4582  0.0486
    1TYR     CZ   36   3.563   2.139   1.597 -0.1605  0.4188 -0.4524
    1TYR     OH   37   3.588   2.114   1.465 -0.1756 -0.4663 -0.1013
    1TYR     HH   38   3.643   2.037   1.448 -1.9252 -0.9305 -5.0743
    1TYR    CD2   39   3.454   2.268   1.771  0.4677  1.1776  0.3243
    1TYR    HD2   40   3.376   2.340   1.791 -2.0719 -1.7984  2.0855
    1TYR    CE2   41   3.488   2.251   1.637 -0.1629  0.1637  1.2866
    1TYR    HE2   42   3.455   2.317   1.559 -1.1389 -0.9893  0.6790
    1TYR      C   43   3.571   2.325   2.141 -0.7171  0.2324  0.6801
    1TYR      O   44   3.503   2.402   2.206 -0.5811  0.0221  0.0252
    2LYS      N   45   3.686   2.375   2.085  0.1684 -0.2767 -0.3447
    2LYS     HN   46   3.747   2.310   2.041  0.1354  1.2529 -2.8777
    2LYS     CA   47   3.716   2.518   2.076 -0.6663 -0.1035  0.3496
    2LYS     HA   48   3.643   2.568   2.138  0.8647 -0.4629  2.5212
    2LYS     CB   49   3.851   2.552   2.142  0.7928  0.3802  0.2853
    2LYS    HB1   50   3.931   2.522   2.070  1.2029  1.2580  0.3655
    2LYS    HB2   51   3.847   2.514   2.246 -0.3821  2.5240  1.0899
    2LYS     CG   52   3.870   2.702   2.158 -0.1972 -0.1564  0.3195
    2LYS    HG1   53   3.879   2.736   2.053  1.8051 -0.9452  0.1856
    2LYS    HG2   54   3.785   2.761   2.199 -0.1183 -0.7491  1.3663
    2LYS     CD   55   4.002   2.729   2.226 -0.4505 -0.4984 -0.2237
    2LYS    HD1   56   4.068   2.654   2.178  2.1018  1.2088  0.4242
    2LYS    HD2   57   4.040   2.823   2.179 -0.9496 -0.4680 -0.5752
    2LYS     CE   58   4.007   2.721   2.379 -0.1565  0.4392  0.2849
    2LYS    HE1   59   3.925   2.779   2.427 -2.1380 -1.3440 -0.7811
    2LYS    HE2   60   3.980   2.618   2.410  1.1425  0.4064  1.4153
    2LYS     NZ   61   4.135   2.744   2.441 -0.6496 -0.0078  0.4837
    2LYS    HZ1   62   4.204   2.672   2.413 -1.0850 -0.3710  0.3425
    2LYS    HZ2   63   4.166   2.840   2.414 -1.5978 -0.5705 -2.9864
    2LYS    HZ3   64   4.130   2.727   2.544  0.6920 -0.2153  0.5398
    2LYS      C   65   3.704   2.563   1.930 -0.2173 -0.1697 -0.0587
    2LYS      O   66   3.794   2.528   1.853 -0.0957  0.3914  0.2219
    3PRO      N   67   3.602   2.641   1.883  0.3566  0.4544 -0.2507
    3PRO     CD   68   3.481   2.665   1.960  0.3187  0.0796  0.6852
    3PRO    HD1   69   3.450   2.576   2.019  1.8343  1.3260  3.5752
    3PRO    HD2   70   3.496   2.759   2.018  0.8065  0.4180  0.0119
    3PRO     CA   71   3.591   2.683   1.738 -0.1982  0.1994  0.2149
    3PRO     HA   72   3.586   2.598   1.671  1.1240 -1.5526  2.2353
    3PRO     CB   73   3.466   2.766   1.735  0.6714 -0.4939  1.0428
    3PRO    HB1   74   3.413   2.758   1.638  0.1767 -0.9061  1.3378
    3PRO    HB2   75   3.480   2.873   1.764  2.2861 -0.4411  0.1259
    3PRO     CG   76   3.386   2.693   1.845  1.0214 -0.2796 -0.5948
    3PRO    HG1   77   3.363   2.596   1.796  1.9466 -0.7517 -0.1247
    3PRO    HG2   78   3.299   2.749   1.884  2.0174  0.7970  0.1409
    3PRO      C   79   3.711   2.764   1.686  0.4676 -0.0996  0.7880
    3PRO      O   80   3.719   2.775   1.560  0.3584  0.0642 -0.2014
    4GLU      N   81   3.795   2.828   1.774  0.0516 -0.5587  0.0406
    4GLU     HN   82   3.778   2.838   1.871  0.3558  0.4770  0.0047
    4GLU     CA   83   3.913   2.904   1.722 -0.8134 -0.2014 -0.1957
    4GLU     HA   84   3.879   2.959   1.635 -0.1040 -0.0456 -0.3770
    4GLU     CB   85   3.961   3.000   1.828 -0.0796 -0.8351  0.2135
    4GLU    HB1   86   3.979   2.946   1.923  1.4288 -0.1086  0.3874
    4GLU    HB2   87   3.868   3.058   1.845 -0.3179 -1.2201  0.2421
    4GLU     CG   88   4.089   3.078   1.801 -0.1759 -0.0592  0.4806
    4GLU    HG1   89   4.169   3.005   1.777 -1.2436 -1.6278  1.5146
    4GLU    HG2   90   4.113   3.130   1.896  0.9284  0.6478 -0.1623
    4GLU     CD   91   4.062   3.182   1.700  0.0961 -0.6129  0.2100
    4GLU    OE1   92   4.133   3.174   1.598 -0.1865  0.9327 -1.0183
    4GLU    OE2   93   3.977   3.272   1.709 -0.3150 -0.2141 -0.5578
    4GLU      C   94   4.014   2.809   1.673  0.1432 -0.3750 -0.4511
    4GLU      O   95   4.093   2.841   1.582 -0.5340  0.2311  0.2248
    5THR      N   96   4.016   2.683   1.725  0.1681  0.2003 -0.0767
    5THR     HN   97   3.951   2.644   1.791 -0.3137 -0.1551 -0.7501
    5THR     CA   98   4.117   2.592   1.674  1.1210  0.2415 -0.1081
    5THR     HA   99   4.196   2.628   1.610  0.9952 -1.6249 -1.3733
    5THR     CB  100   4.191   2.528   1.784 -0.5982  0.6971 -0.4215
    5THR     HB  101   4.264   2.454   1.746  0.9476  1.0251  1.6680
    5THR    OG1  102   4.102   2.458   1.871  0.0899 -0.6071 -0.1466
    5THR    HG1  103   4.162   2.429   1.940  0.9927  0.2411 -0.5413
    5THR    CG2  104   4.271   2.636   1.860  0.0752  0.1702 -0.0438
    5THR   HG21  105   4.201   2.699   1.919  0.6972 -0.2646  1.2098
    5THR   HG22  106   4.328   2.706   1.795  2.0506  0.1093  1.5205
    5THR   HG23  107   4.345   2.584   1.925  0.0332 -1.1450 -1.0023
    5THR      C  108   4.050   2.482   1.599 -0.2278  0.5677  0.0566
    5THR      O  109   4.108   2.426   1.511  0.5810 -0.1382  0.0766
    6GLY      N  110   3.932   2.439   1.635  0.3641 -0.1640  0.2596
    6GLY     HN  111   3.876   2.484   1.704  0.8083 -0.3821  0.7717
    6GLY     CA  112   3.885   2.315   1.580 -0.0475  0.4995 -0.0999
    6GLY    HA1  113   3.907   2.322   1.475 -0.0089  1.1011 -0.0539
    6GLY    HA2  114   3.779   2.317   1.604  0.3185 -1.1260  1.8665
    6GLY      C  115   3.936   2.185   1.640 -0.0925  0.1101  0.6107
    6GLY      O  116   3.908   2.078   1.580  0.0797 -0.1126  0.0516
    7THR      N  117   3.993   2.205   1.763 -0.2145  0.6016  0.0599
    7THR     HN  118   4.030   2.293   1.793  0.8027 -0.2320  1.3202
    7THR     CA  119   4.045   2.097   1.839  0.0370 -0.2112 -0.4856
    7THR     HA  120   4.052   2.010   1.777 -4.0858 -1.3968  0.4023
    7THR     CB  121   4.184   2.129   1.900  0.2386  0.1257 -0.0035
    7THR     HB  122   4.176   2.226   1.953  1.6558  1.3528 -1.9251
    7THR    OG1  123   4.271   2.140   1.789  0.0129  0.6496  0.1897
    7THR    HG1  124   4.357   2.125   1.828 -0.1475 -1.2725 -0.0538
    7THR    CG2  125   4.228   2.016   1.991  0.8896 -0.3755 -0.2397
    7THR   HG21  126   4.328   2.039   2.032 -0.5807  3.9245  1.5481
    7THR   HG22  127   4.231   1.922   1.931 -0.5332 -0.5104 -0.1418
    7THR   HG23  128   4.163   2.006   2.081  2.7040 -2.5692  0.9253
    7THR      C  129   3.945   2.055   1.941 -0.1863  0.1894  0.8270
    7THR      O  130   3.897   2.142   2.013 -0.1677 -0.3618  0.1406
    8TRP      N  131   3.920   1.925   1.962  0.2934 -0.5061 -0.3069
    8TRP     HN  132   3.967   1.864   1.899  1.5789  2.9483 -2.9807
    8TRP     CA  133   3.840   1.890   2.077 -0.1515  0.0634 -0.1205
    8TRP     HA  134   3.783   1.974   2.115  0.9362  1.5532 -1.6686
    8TRP     CB  135   3.745   1.776   2.048  0.1272  0.2619  0.0331
    8TRP    HB1  136   3.792   1.676   2.036  0.1201  0.1915  0.5719
    8TRP    HB2  137   3.693   1.798   1.952  0.3010 -3.0383 -0.9479
    8TRP     CG  138   3.636   1.751   2.150 -0.0176  0.4720 -0.2562
    8TRP    CD1  139   3.653   1.692   2.270 -0.0842  0.8476 -0.1219
    8TRP    HD1  140   3.748   1.656   2.308 -1.2907 -1.7558  0.6859
    8TRP    NE1  141   3.533   1.686   2.343 -0.1632 -0.0726 -0.9599
    8TRP    HE1  142   3.534   1.656   2.435  0.1944  0.7434 -0.6922
    8TRP    CE2  143   3.436   1.752   2.263 -0.5443  0.3387  0.4267
    8TRP    CD2  144   3.497   1.784   2.136 -0.1082 -0.7755 -0.0760
    8TRP    CE3  145   3.415   1.832   2.032 -1.2447 -0.2130 -0.3387
    8TRP    HE3  146   3.453   1.841   1.931 -0.7029  1.4458 -0.0083
    8TRP    CZ3  147   3.278   1.828   2.049  0.3064 -0.7015 -0.1787
    8TRP    HZ3  148   3.220   1.847   1.960 -0.8160  0.0720  0.6933
    8TRP    CZ2  149   3.300   1.768   2.284  0.7773  0.1110  0.7877
    8TRP    HZ2  150   3.254   1.728   2.373  2.4700 -1.3390  1.0513
    8TRP    CH2  151   3.222   1.794   2.171 -0.0672  0.0886  0.6527
    8TRP    HH2  152   3.115   1.788   2.189 -0.3676  3.4737  0.6441
    8TRP      C  153   3.944   1.856   2.186  0.4034  0.0587  0.4650
    8TRP      O  154   4.016   1.759   2.178 -0.6415 -0.1063 -0.0256
    9TYR      N  155   3.949   1.940   2.299  0.8278  0.4243  0.6220
    9TYR     HN  156   3.885   2.016   2.300 -0.7221 -0.7922 -0.4713
    9TYR     CA  157   4.037   1.921   2.404  0.5025  0.5196  0.5596
    9TYR     HA  158   4.128   1.871   2.374  0.0540 -0.7318  1.1990
    9TYR     CB  159   4.081   2.063   2.462 -0.6113 -0.0642 -0.4585
    9TYR    HB1  160   4.158   2.046   2.540 -0.1034  0.2714 -0.8752
    9TYR    HB2  161   3.997   2.126   2.500 -0.2899  0.1592 -0.1088
    9TYR     CG  162   4.138   2.145   2.360  0.4111  0.4795  0.6040
    9TYR    CD1  163   4.274   2.138   2.319 -0.2024  0.3605 -0.6025
    9TYR    HD1  164   4.325   2.070   2.386 -0.6740  4.5798  4.7618
    9TYR    CE1  165   4.340   2.228   2.232  0.7376  0.0720  0.4494
    9TYR    HE1  166   4.447   2.225   2.223  0.8350 -2.8696  1.5468
    9TYR     CZ  167   4.260   2.331   2.177 -0.3174 -0.5855  0.7300
    9TYR     OH  168   4.313   2.392   2.070  0.7990 -0.4014  0.3518
    9TYR     HH  169   4.405   2.363   2.063  1.3584  1.6494 -2.1194
    9TYR    CD2  170   4.065   2.245   2.292  0.6118  0.1151 -0.2110
    9TYR    HD2  171   3.961   2.267   2.309  1.0287  1.0283  1.3868
    9TYR    CE2  172   4.129   2.341   2.211 -0.0237 -0.5361  0.3310
    9TYR    HE2  173   4.067   2.412   2.158 -0.2926 -2.6641 -2.4470
    9TYR      C  174   3.963   1.844   2.516  0.2588 -0.4368  0.2241
    9TYR    OT1  175   3.852   1.883   2.559  0.1215  0.4018 -0.0831
    9TYR    OT2  176   4.016   1.739   2.557 -0.0774 -0.1457  0.2624
   10SOL     OW  177   3.604   0.981   1.491  0.3484  0.1853 -0.0738
   10SOL    HW1  178   3.675   0.984   1.426 -0.2001  0.3221 -0.6830
   10SOL    HW2  179   3.580   0.889   1.497  0.7400  0.1092  0.3119
   11SOL     OW  180   0.626   1.095   1.377 -0.3477 -0.1893  0.1451
   11SOL    HW1  181   0.694   1.039   1.413 -1.7618 -2.3080 -0.2927
   11SOL    HW2  182   0.544   1.060   1.412 -1.3322  1.3882 -0.4565
   12SOL     OW  183   1.467   1.012   3.138  0.3986 -0.2667  0.2548
   12SOL    HW1  184   1.501   1.026   3.226 -0.3363 -0.6972  0.6201
   12SOL    HW2  185   1.378   0.978   3.152 -0.2765  1.0232 -0.6593
   13SOL     OW  186   3.482   2.184   0.394  0.3262 -0.1894 -0.3579
   13SOL    HW1  187   3.570   2.150   0.380  1.0483  0.9764  1.1345
   13SOL    HW2  188   3.441   2.121   0.454  0.3909 -0.3107 -0.4392
   14SOL     OW  189   2.264   2.869   2.462 -0.6906 -0.0630 -0.0438
   14SOL    HW1  190   2.246   2.956   2.497 -1.3683 -0.1871 -0.0636
   14SOL    HW2  191   2.343   2.840   2.509  0.7617  1.3563 -1.5044
   15SOL     OW  192   2.093   3.591   1.280 -0.2817  0.1550  0.3145
   15SOL    HW1  193   2.108   3.548   1.364 -0.5027  2.2853  1.5086
   15SOL    HW2  194   2.002   3.619   1.283 -0.9784 -1.5979 -1.6035
   16SOL     OW  195   0.882   0.882   0.746  0.5231  0.5807  0.1176
   16SOL    HW1  196   0.938   0.838   0.810  1.0104  1.0741  0.0443
   16SOL    HW2  197   0.942   0.907   0.675 -0.0793 -0.3227 -0.7305
   17SOL     OW  198   1.426   2.840   2.478  0.4709 -0.3046  0.5988
   17SOL    HW1  199   1.463   2.752   2.474  0.0997 -0.4707  0.7961
   17SOL    HW2  200   1.480   2.891   2.418  1.2489 -0.4569  1.1612
   18SOL     OW  201   1.754   2.158   1.414 -0.5886 -0.1729  0.5562
   18SOL    HW1  202   1.838   2.124   1.383 -1.6372 -2.3511 -0.1313
   18SOL    HW2  203   1.760   2.156   1.509  0.0876 -0.4789  0.5115
   19SOL     OW  204   0.472   0.293   2.799  0.2942 -0.3476 -0.4711
   19SOL    HW1  205   0.438   0.309   2.887  1.4832 -1.7681  0.3066
   19SOL    HW2  206   0.547   0.235   2.813  1.4535  0.6210 -2.3134
   20SOL     OW  207   3.605   1.739   2.766  0.1193  0.2136  0.0566
   20SOL    HW1  208   3.565   1.770   2.847 -0.0265  1.6393 -0.5321
   20SOL    HW2  209   3.532   1.703   2.716 -0.2707  1.6959 -0.5016
   21SOL     OW  210   3.207   2.385   1.307  0.1838  0.4116 -0.5498
   21SOL    HW1  211   3.160   2.456   1.263 -0.1805 -0.7117 -2.0711
   21SOL    HW2  212   3.285   2.426   1.342 -0.4657  1.7442 -0.5840
   22SOL     OW  213   0.473   3.415   1.501  0.3034  0.0919  0.4879
   22SOL    HW1  214   0.502   3.382   1.416  0.8204 -0.0162  0.7027
   22SOL    HW2  215   0.454   3.337   1.553 -0.9797  0.1555  0.1613
   23SOL     OW  216   1.280   1.772   3.022  0.1527 -0.1578 -0.1069
   23SOL    HW1  217   1.253   1.720   2.947 -0.4824  0.7281 -0.5102
   23SOL    HW2  218   1.349   1.829   2.988  0.4169 -0.3101  0.1762
   24SOL     OW  219   2.006   1.706   3.253  0.0799  0.1522 -0.6613
   24SOL    HW1  220   1.917   1.739   3.238 -0.0526 -0.2927 -0.8901
   24SOL    HW2  221   2.050   1.775   3.302 -0.1076  0.7804 -1.3559
   25SOL     OW  222   3.720   1.662   0.384 -0.5370  0.3106  0.1716
   25SOL    HW1  223   3.666   1.660   0.305  0.5734 -1.1147 -0.6051
   25SOL    HW2  224   3.668   1.712   0.447 -1.4415  1.5404 -1.4462
   26SOL     OW  225   0.069   3.501   2.149 -0.9072 -0.4589  0.0251
   26SOL    HW1  226   0.047   3.426   2.095 -1.4554 -0.7550  0.6423
   26SOL    HW2  227  -0.001   3.505   2.215  0.6533 -1.2301  1.8472
   27SOL     OW  228   1.774   0.971   0.231  0.1148 -0.2535 -0.1615
   27SOL    HW1  229   1.866   0.944   0.232  0.2032  0.0181 -0.7133
   27SOL    HW2  230   1.756   0.988   0.139 -0.3854  0.0551 -0.0051
   28SOL     OW  231   2.290   2.236   3.412  0.0300 -0.3126 -0.1108
   28SOL    HW1  232   2.317   2.158   3.460 -1.1461 -0.6819 -0.0046
   28SOL    HW2  233   2.371   2.272   3.376  0.7080 -1.0429  0.6346
   29SOL     OW  234   2.861   1.665   2.799 -0.0826  0.1130  0.4100
   29SOL    HW1  235   2.833   1.693   2.887 -1.1818 -1.6862  0.7015
   29SOL    HW2  236   2.931   1.602   2.815 -0.9628 -0.9749  0.0711
   30SOL     OW  237   0.581   2.184   2.664  0.1924 -0.5485  0.1432
   30SOL    HW1  238   0.593   2.090   2.673 -0.9351 -0.6061  1.4379
   30SOL    HW2  239   0.491   2.199   2.692  0.8141  1.0789  1.4421
   31SOL     OW  240   0.920   2.503   1.985  0.7969 -0.1308 -0.3835
   31SOL    HW1  241   0.921   2.537   1.896  1.5858  2.2559  0.4561
   31SOL    HW2  242   0.985   2.555   2.032  2.4353 -3.1382  1.0218
   32SOL     OW  243   1.849   1.632   0.569  0.0420 -0.7722 -0.3007
   32SOL    HW1  244   1.771   1.577   0.574 -1.2015  0.7109 -1.9617
   32SOL    HW2  245   1.913   1.579   0.523 -0.0626 -1.8885  0.7831
   33SOL     OW  246   2.222   2.280   0.733  0.1322  0.0373 -0.1189
   33SOL    HW1  247   2.230   2.262   0.827 -2.0978  2.0253  0.5352
   33SOL    HW2  248   2.139   2.327   0.724 -1.2316 -2.5740 -3.5112
   34SOL     OW  249   0.131   1.160   1.286  0.0294  0.6078 -0.1115
   34SOL    HW1  250   0.131   1.180   1.379  0.4267 -0.6779  0.1829
   34SOL    HW2  251   0.082   1.077   1.279  2.1422 -0.6601 -0.7050
   35SOL     OW  252   3.042   1.924   3.539 -0.1554 -0.3290  0.3749
   35SOL    HW1  253   2.965   1.948   3.590  0.0932  1.3284  0.0364
   35SOL    HW2  254   3.086   1.858   3.592  0.0893  1.3060  2.3383
   36SOL     OW  255   1.565   1.328   1.005  0.0540  0.3706  0.3347
   36SOL    HW1  256   1.656   1.324   0.976 -0.2284 -0.6192 -0.4583
   36SOL    HW2  257   1.559   1.263   1.075 -0.2720 -0.3314 -0.3242
   37SOL     OW  258   2.217   0.160   2.497 -1.0734 -0.0622 -0.1079
   37SOL    HW1  259   2.166   0.142   2.417 -2.8724 -0.1842  1.0041
   37SOL    HW2  260   2.205   0.253   2.512 -1.9851 -0.3040  0.7878
   38SOL     OW  261   1.954   0.038   2.689  0.3232  0.4221  0.6315
   38SOL    HW1  262   1.919   0.103   2.629 -0.1456 -0.5756 -0.2186
   38SOL    HW2  263   1.893   0.036   2.762 -1.1631 -0.9103 -0.5796
   39SOL     OW  264   2.937   3.191   2.527  0.4210 -0.4494  0.8625
   39SOL    HW1  265   2.979   3.160   2.447 -0.8257 -0.1966  0.0798
   39SOL    HW2  266   2.956   3.285   2.529 -1.9056  0.1629 -0.7392
   40SOL     OW  267   0.476   1.826   2.839 -0.6737 -0.4706 -0.1935
   40SOL    HW1  268   0.471   1.732   2.858 -1.8297 -0.5189 -0.6496
   40SOL    HW2  269   0.529   1.832   2.760  1.1245 -0.5554  0.9615
   41SOL     OW  270   0.964   0.918   2.618 -0.2558 -0.0125  0.5554
   41SOL    HW1  271   0.910   0.852   2.574  0.8429 -1.9978  2.0266
   41SOL    HW2  272   0.918   1.001   2.603 -2.8348 -1.3842  0.3959
   42SOL     OW  273   1.053   1.654   1.073 -0.5146 -0.6358 -0.6931
   42SOL    HW1  274   1.018   1.585   1.129  0.1442 -2.1925 -2.1108
   42SOL    HW2  275   1.120   1.697   1.126 -0.3504 -1.6325 -0.0733
   43SOL     OW  276   0.487   3.008   3.446  0.1697  0.2053 -0.3273
   43SOL    HW1  277   0.391   3.014   3.442  0.1876  1.0541  0.1922
   43SOL    HW2  278   0.505   2.915   3.458 -0.6409  0.1405  0.4794
   44SOL     OW  279   1.126   2.616   0.386 -0.2356  0.5743  0.6385
   44SOL    HW1  280   1.135   2.706   0.355  0.4636 -0.3250 -1.9632
   44SOL    HW2  281   1.041   2.587   0.354  0.6682 -0.5045 -0.9059
   45SOL     OW  282   2.070   1.003   0.298 -0.2228  0.5659 -0.1401
   45SOL    HW1  283   2.035   1.082   0.340 -1.1108  1.6460 -2.6937
   45SOL    HW2  284   2.122   1.036   0.225  0.9081 -1.2187 -0.2018
   46SOL     OW  285   0.134   1.459   0.432  0.5880 -0.2942  0.5209
   46SOL    HW1  286   0.192   1.510   0.488 -0.7628 -0.1160  1.8341
   46SOL    HW2  287   0.063   1.520   0.409 -0.2945 -1.1352  0.9133
   47SOL     OW  288   2.993   0.776   0.226  0.5138  0.5589  0.8038
   47SOL    HW1  289   2.964   0.867   0.218 -0.5831  0.0938 -1.6115
   47SOL    HW2  290   2.937   0.739   0.293 -0.0317  1.3224  0.7930
   48SOL     OW  291   0.263   3.675   2.199 -0.0035 -0.1235 -0.2841
   48SOL    HW1  292   0.299   3.632   2.277 -0.2513 -1.3434 -0.8162
   48SOL    HW2  293   0.183   3.627   2.181 -0.9631  1.3710 -0.1970
   49SOL     OW  294   1.346   3.610   1.027  0.0445 -0.0931 -0.5147
   49SOL    HW1  295   1.283   3.640   1.094  0.0330  1.0204 -1.0058
   49SOL    HW2  296   1.423   3.584   1.077 -1.6719 -4.1515  0.3848
   50SOL     OW  297   1.200   1.993   0.265  0.4041  0.9449 -0.1144
   50SOL    HW1  298   1.290   1.964   0.248  0.5981  0.6712  1.2617
   50SOL    HW2  299   1.193   1.995   0.360 -0.9121  1.4211 -0.2006
   51SOL     OW  300   1.951   2.081   3.712 -0.1405  0.3401 -0.0764
   51SOL    HW1  301   1.996   2.002   3.684  1.2461  1.3743 -0.9234
   51SOL    HW2  302   1.915   2.118   3.631  0.9779  1.5993 -0.0344
   52SOL     OW  303   0.304   3.459   2.978 -0.0207  0.5212 -0.4636
   52SOL    HW1  304   0.328   3.400   3.050 -0.9524  1.3102  0.5351
   52SOL    HW2  305   0.358   3.431   2.905  2.6675  1.0653  1.1486
   53SOL     OW  306   2.086   0.153   0.356 -0.5575  0.5218  0.0426
   53SOL    HW1  307   2.015   0.185   0.412 -0.1178  1.3256  0.1658
   53SOL    HW2  308   2.164   0.155   0.412 -0.1403  1.2066 -0.5426
   54SOL     OW  309   0.076   2.021   0.743 -0.6139 -0.1878  0.3959
   54SOL    HW1  310   0.097   1.928   0.735 -0.7704 -0.0952 -1.7957
   54SOL    HW2  311   0.094   2.042   0.835  1.1251 -1.9535  0.5351
   55SOL     OW  312   2.158   2.352   2.990 -0.1446 -0.3874  0.3865
   55SOL    HW1  313   2.195   2.360   2.902  0.1202  0.0964  0.5365
   55SOL    HW2  314   2.234   2.347   3.048 -0.3177 -0.3386  0.6194
   56SOL     OW  315   1.317   1.363   0.608 -0.2942 -0.5018 -0.0329
   56SOL    HW1  316   1.314   1.353   0.512 -1.7034 -2.1564  0.1255
   56SOL    HW2  317   1.290   1.277   0.641  1.2060 -0.2819  1.8851
   57SOL     OW  318   0.989   2.672   0.081  0.3949  0.1441  0.2063
   57SOL    HW1  319   0.982   2.746   0.019  0.8138  0.6249  0.7214
   57SOL    HW2  320   1.047   2.610   0.037  1.7099  1.0354  0.6223
   58SOL     OW  321   2.667   1.797   2.667  0.3900 -0.0646 -0.3768
   58SOL    HW1  322   2.757   1.772   2.689 -0.0475  1.2400  3.7548
   58SOL    HW2  323   2.615   1.768   2.742 -2.6545 -0.4624 -2.4767
   59SOL     OW  324   0.348   1.953   3.496  0.3944  0.5386  0.1343
   59SOL    HW1  325   0.412   1.897   3.451 -0.3047 -1.7353  1.7500
   59SOL    HW2  326   0.379   1.958   3.586 -2.2112 -1.7865  1.3456
   60SOL     OW  327   1.106   1.934   0.834  0.2239 -0.7349  0.7269
   60SOL    HW1  328   1.177   1.919   0.897 -2.6618 -1.5975  4.1317
   60SOL    HW2  329   1.067   1.847   0.821  0.0097 -0.3670 -1.4570
   61SOL     OW  330   1.936   0.461   2.444 -0.2903  0.2947 -0.2245
   61SOL    HW1  331   2.021   0.434   2.479 -1.5943 -0.9046  2.2935
   61SOL    HW2  332   1.907   0.531   2.501 -2.5939 -1.8799  1.5082
   62SOL     OW  333   2.784   3.082   2.708  0.4907  0.3702 -0.0795
   62SOL    HW1  334   2.822   3.119   2.788  0.6096  0.3473 -0.1256
   62SOL    HW2  335   2.837   3.120   2.637  1.3496 -0.7615 -0.0766
   63SOL     OW  336   2.469   1.035   2.817 -0.0037  0.0565 -0.4136
   63SOL    HW1  337   2.469   0.942   2.841  1.5454  0.1219 -0.0567
   63SOL    HW2  338   2.475   1.080   2.901  0.1984  0.4546 -0.6422
   64SOL     OW  339   2.162   0.197   0.773 -0.0362 -0.5537 -0.0840
   64SOL    HW1  340   2.175   0.254   0.697  0.4750  1.8456  1.6875
   64SOL    HW2  341   2.194   0.248   0.847  0.9664 -3.3864  1.6068
   65SOL     OW  342   1.310   2.643   3.421 -0.2390 -0.2633 -0.4148
   65SOL    HW1  343   1.345   2.706   3.483 -0.1808 -0.7409  0.0471
   65SOL    HW2  344   1.380   2.631   3.356 -1.2944  2.3159 -2.2015
   66SOL     OW  345   3.598   0.651   0.154 -0.6425  0.9238  0.1249
   66SOL    HW1  346   3.559   0.573   0.194 -1.0893  0.4860 -1.1131
   66SOL    HW2  347   3.692   0.641   0.169 -0.6380 -0.1698 -0.5374
   67SOL     OW  348   2.065   1.566   0.405 -0.2709  0.1821 -0.1779
   67SOL    HW1  349   2.138   1.532   0.455  1.0144  3.0362  0.0880
   67SOL    HW2  350   2.092   1.558   0.313 -0.1883  0.1154 -0.1475
   68SOL     OW  351   2.002   2.704   3.372 -0.1052  0.0463 -0.4299
   68SOL    HW1  352   1.926   2.673   3.422 -0.1826 -0.5411 -0.8971
   68SOL    HW2  353   2.024   2.788   3.411 -0.4904 -0.1625  0.2469
   69SOL     OW  354   3.222   2.505   3.170  0.1139  0.0864  0.2178
   69SOL    HW1  355   3.317   2.518   3.166  0.0948  0.3663  0.6398
   69SOL    HW2  356   3.212   2.412   3.193  0.3055  0.3460  1.4008
   70SOL     OW  357   2.917   0.645   2.750  0.0253 -0.1036  0.9321
   70SOL    HW1  358   2.896   0.607   2.665  1.4414 -1.1643  1.0261
   70SOL    HW2  359   2.971   0.722   2.729 -0.8467  0.5023  0.8409
   71SOL     OW  360   3.117   2.502   2.051 -0.3209 -0.2192  0.2456
   71SOL    HW1  361   3.167   2.513   2.132 -1.0030 -0.5626  0.7240
   71SOL    HW2  362   3.123   2.409   2.031 -0.2427 -0.1533 -0.0378
   72SOL     OW  363   0.967   1.455   0.533  0.3299 -0.1817  0.2122
   72SOL    HW1  364   0.889   1.507   0.551 -1.0013 -0.6509 -3.3037
   72SOL    HW2  365   0.938   1.364   0.540  0.6608 -0.3623 -0.5854
   73SOL     OW  366   1.309   1.466   3.307  0.4069 -0.1058 -0.0377
   73SOL    HW1  367   1.262   1.389   3.275  1.3667 -0.0527 -1.6652
   73SOL    HW2  368   1.312   1.454   3.402 -0.2358 -1.6259 -0.1792
   74SOL     OW  369   1.070   2.222   3.426 -0.1114  0.3346 -0.0707
   74SOL    HW1  370   0.977   2.232   3.409 -0.1383 -0.9916 -0.7729
   74SOL    HW2  371   1.091   2.133   3.399  1.0699  0.1152  1.4261
   75SOL     OW  372   2.490   2.919   1.390 -0.3569  0.5021  0.6331
   75SOL    HW1  373   2.553   2.905   1.460  0.6759 -1.4395 -0.6090
   75SOL    HW2  374   2.457   2.831   1.369 -2.9145  1.3601  0.6920
   76SOL     OW  375   3.151   1.206   0.310  0.2602 -0.6684  0.2386
   76SOL    HW1  376   3.089   1.134   0.320 -0.0061 -0.3915  0.6150
   76SOL    HW2  377   3.181   1.225   0.399 -1.0280  0.8539  0.3990
   77SOL     OW  378   1.085   3.153   1.349 -0.5383 -0.2064 -0.2125
   77SOL    HW1  379   1.099   3.060   1.330 -1.6629 -1.3262  3.6244
   77SOL    HW2  380   0.991   3.165   1.342 -0.5043  0.3982  0.2863
   78SOL     OW  381   2.003   3.416   2.439 -0.3431 -0.2264 -0.1182
   78SOL    HW1  382   2.056   3.464   2.503 -0.8091 -0.5532  0.5313
   78SOL    HW2  383   1.948   3.482   2.398 -0.7831 -0.1490  0.5723
   79SOL     OW  384   2.968   1.090   3.517 -0.1750  0.1725 -0.0988
   79SOL    HW1  385   2.892   1.053   3.471 -0.8652 -0.9362  1.8203
   79SOL    HW2  386   2.938   1.176   3.547 -0.5144 -0.0635  0.2426
   80SOL     OW  387   1.737   0.576   1.912 -0.2881  0.1106 -0.7018
   80SOL    HW1  388   1.661   0.633   1.923 -1.2411 -1.3393  0.7920
   80SOL    HW2  389   1.701   0.493   1.880  0.7780 -0.3668 -0.7289
   81SOL     OW  390   0.362   1.046   1.513 -0.8054  0.2144  0.1271
   81SOL    HW1  391   0.336   0.964   1.554  1.5041  0.2996  1.9829
   81SOL    HW2  392   0.312   1.049   1.431 -1.6287 -2.5687  0.4214
   82SOL     OW  393   0.597   1.362   1.192 -0.7162 -0.0334  0.5769
   82SOL    HW1  394   0.579   1.299   1.122  0.2796  0.4140 -0.0879
   82SOL    HW2  395   0.618   1.307   1.268  0.5344 -0.5264 -0.0967
   83SOL     OW  396   1.102   2.100   2.373  0.1697  0.1428 -0.3097
   83SOL    HW1  397   1.109   2.012   2.337 -0.6093 -0.6511  1.3494
   83SOL    HW2  398   1.015   2.103   2.412 -0.1902  1.9972 -1.1493
   84SOL     OW  399   2.380   2.549   2.259  0.0587 -0.5521 -0.4834
   84SOL    HW1  400   2.301   2.518   2.303  0.1938 -1.8700 -1.1122
   84SOL    HW2  401   2.401   2.479   2.197  0.3065  0.8911 -2.0856
   85SOL     OW  402   2.683   0.286   2.836 -0.3923 -0.3591  0.4374
   85SOL    HW1  403   2.717   0.363   2.882 -2.6466  1.0805 -0.1298
   85SOL    HW2  404   2.648   0.230   2.905 -2.3304  1.0533  0.6900
   86SOL     OW  405   3.400   1.420   2.779  0.3551  0.0256 -0.5097
   86SOL    HW1  406   3.391   1.325   2.790  1.2033 -0.2895 -2.1365
   86SOL    HW2  407   3.452   1.429   2.699  1.1035  1.8542  0.1366
   87SOL     OW  408   0.729   2.487   1.094  0.2812 -0.1339 -0.1882
   87SOL    HW1  409   0.684   2.428   1.034  1.7930 -0.7489 -0.7743
   87SOL    HW2  410   0.784   2.429   1.147  1.0816  0.6597 -0.1255
   88SOL     OW  411   1.661   1.268   1.340 -0.2239 -0.7013 -0.1989
   88SOL    HW1  412   1.750   1.287   1.309 -0.1361  0.2120  0.5639
   88SOL    HW2  413   1.657   1.173   1.346  1.0908 -0.7276  0.7849
   89SOL     OW  414   0.539   3.473   0.645 -0.1020  0.0497 -0.6152
   89SOL    HW1  415   0.592   3.405   0.687 -0.9915 -1.9567 -2.5623
   89SOL    HW2  416   0.595   3.507   0.575  0.6440  2.0302  0.8179
   90SOL     OW  417   1.965   0.809   1.968  0.3382  0.6837  0.0676
   90SOL    HW1  418   1.903   0.747   2.006  0.3081  0.5921 -0.1286
   90SOL    HW2  419   2.004   0.854   2.043  0.0957  0.6809  0.1950
   91SOL     OW  420   2.965   3.209   3.246 -0.2964 -0.6275  0.0210
   91SOL    HW1  421   2.983   3.162   3.327  1.7170 -1.9470 -1.1015
   91SOL    HW2  422   3.050   3.241   3.217 -1.3352  2.1656 -0.2710
   92SOL     OW  423   0.813   1.726   1.711  0.1131  0.0324  0.0081
   92SOL    HW1  424   0.733   1.748   1.664 -0.0166  0.7241  0.5216
   92SOL    HW2  425   0.842   1.809   1.748  0.2266 -0.4704  1.1014
   93SOL     OW  426   0.469   0.420   3.567  0.1494 -0.0519 -0.2382
   93SOL    HW1  427   0.385   0.374   3.567  1.1861 -2.1206  1.9317
   93SOL    HW2  428   0.470   0.468   3.650  1.3859 -0.6288  0.0901
   94SOL     OW  429   1.266   0.374   1.568 -0.3125  0.0460  0.8400
   94SOL    HW1  430   1.300   0.290   1.537 -1.2330 -0.6539  1.6961
   94SOL    HW2  431   1.173   0.359   1.583 -0.7456  1.5471 -0.0872
   95SOL     OW  432   1.128   2.976   2.128  0.1871  0.8101 -0.1492
   95SOL    HW1  433   1.052   2.992   2.183  0.8502 -1.3793  1.5230
   95SOL    HW2  434   1.091   2.945   2.045 -0.7559  0.8782  0.2337
   96SOL     OW  435   2.978   1.597   1.278  0.0931 -0.4618 -0.4737
   96SOL    HW1  436   2.962   1.580   1.185 -0.6167 -0.1663 -0.4132
   96SOL    HW2  437   3.033   1.524   1.307 -1.1676 -1.5340 -0.6983
   97SOL     OW  438   3.091   3.574   0.532 -0.6072 -0.0240  0.0718
   97SOL    HW1  439   3.018   3.530   0.489  0.1664  0.8356 -2.2510
   97SOL    HW2  440   3.164   3.566   0.470  1.6579 -1.7127  2.6619
   98SOL     OW  441   0.110   0.186   0.253  0.9552  0.2837 -0.0769
   98SOL    HW1  442   0.191   0.215   0.211 -0.4764  1.4921 -2.1446
   98SOL    HW2  443   0.096   0.097   0.220  1.5211 -0.0141  0.4621
   99SOL     OW  444   3.731   0.641   1.559 -0.2061  0.5134 -0.2272
   99SOL    HW1  445   3.724   0.550   1.533  1.6433 -0.5284  2.4716
   99SOL    HW2  446   3.681   0.647   1.641 -0.8945  2.1040 -0.7262
  100SOL     OW  447   2.201   0.153   3.141  0.2397  0.3121  0.5141
  100SOL    HW1  448   2.262   0.101   3.193  0.2744  0.5979  0.7653
  100SOL    HW2  449   2.213   0.122   3.051 -1.2353 -1.5546  0.9224
  101SOL     OW  450   0.733   1.736   1.045  0.2082 -0.2567  0.3794
  101SOL    HW1  451   0.753   1.642   1.041 -0.7712 -0.4846  0.4980
  101SOL    HW2  452   0.661   1.742   1.108  0.0348  0.5386  0.1141
  102SOL     OW  453   3.205   0.896   3.213 -0.2226  0.2625  0.0154
  102SOL    HW1  454   3.165   0.835   3.275 -3.8509  2.5985  0.2344
  102SOL    HW2  455   3.278   0.934   3.261  0.6877 -2.1309  0.6733
  103SOL     OW  456   0.580   3.241   3.331  0.6229 -0.0704  0.7435
  103SOL    HW1  457   0.536   3.173   3.381 -1.1877  0.7888  0.3855
  103SOL    HW2  458   0.626   3.194   3.261 -2.8513 -0.8798 -1.2284
  104SOL     OW  459   1.282   1.337   1.964  0.2620 -0.6246 -0.1474
  104SOL    HW1  460   1.230   1.416   1.976  0.9623 -0.1194 -0.3557
  104SOL    HW2  461   1.254   1.278   2.033 -2.4903 -1.4092 -1.7927
  105SOL     OW  462   2.783   1.533   1.438 -0.3121 -0.1392  0.0873
  105SOL    HW1  463   2.819   1.523   1.526  0.2469 -1.2356 -0.2544
  105SOL    HW2  464   2.852   1.579   1.390  0.0265 -0.9122 -0.1756
  106SOL     OW  465   0.764   3.488   0.447  0.0320 -0.3024 -0.4156
  106SOL    HW1  466   0.828   3.455   0.384  0.2872  0.6599 -0.6742
  106SOL    HW2  467   0.778   3.436   0.525 -1.5005 -2.8102 -1.6674
  107SOL     OW  468   0.931   0.628   0.879 -0.1673  0.0961 -0.3164
  107SOL    HW1  469   0.879   0.629   0.798 -2.0399 -1.2311  0.7907
  107SOL    HW2  470   0.994   0.557   0.865  0.9206  1.2209 -1.3758
  108SOL     OW  471   0.785   3.370   3.531 -0.5421 -0.3192  0.1840
  108SOL    HW1  472   0.706   3.401   3.574  0.2980  0.6470  1.0951
  108SOL    HW2  473   0.754   3.323   3.454 -2.0186 -0.6267  0.9414
  109SOL     OW  474   2.532   1.459   2.479  0.4879 -0.0019  0.5088
  109SOL    HW1  475   2.480   1.531   2.516  0.1960 -0.3669  0.8224
  109SOL    HW2  476   2.520   1.387   2.541 -0.9053 -0.9904 -0.8354
  110SOL     OW  477   1.272   2.266   3.231 -0.0472  0.2687 -0.3255
  110SOL    HW1  478   1.199   2.275   3.293 -3.6012  2.3369 -4.2857
  110SOL    HW2  479   1.286   2.172   3.223 -0.8275 -0.1061  2.0223
  111SOL     OW  480   0.283   3.225   3.309 -0.2304  0.0187 -0.6957
  111SOL    HW1  481   0.348   3.192   3.247  1.0535 -0.8590  1.0383
  111SOL    HW2  482   0.199   3.198   3.272  0.6203 -2.7090 -0.8540
  112SOL     OW  483   0.117   0.414   2.490 -0.0794 -0.0345 -0.3599
  112SOL    HW1  484   0.199   0.366   2.504  0.2668  0.4838 -0.5798
  112SOL    HW2  485   0.055   0.347   2.460  0.0275 -0.5748  0.5896
  113SOL     OW  486   2.497   2.428   3.410 -0.6696  0.2033  0.1099
  113SOL    HW1  487   2.569   2.410   3.470  0.2445  0.6763 -0.8268
  113SOL    HW2  488   2.449   2.500   3.452  0.9605  1.7332 -0.4791
  114SOL     OW  489   0.606   0.988   2.105  0.3431  0.1309 -0.1166
  114SOL    HW1  490   0.647   1.025   2.027 -1.8486 -2.1709 -2.5580
  114SOL    HW2  491   0.538   1.052   2.129  1.5785  1.2597  0.5342
  115SOL     OW  492   2.856   0.437   3.255  0.0664 -0.1806 -0.4208
  115SOL    HW1  493   2.768   0.415   3.284 -0.6895  1.8144 -1.0610
  115SOL    HW2  494   2.858   0.412   3.163  0.5568 -1.1906 -0.1564
  116SOL     OW  495   0.887   3.499   1.259  0.0429  0.3882  0.6043
  116SOL    HW1  496   0.838   3.581   1.262  0.5488  0.6989  0.4670
  116SOL    HW2  497   0.842   3.443   1.322 -0.6320  0.5845  0.3143
  117SOL     OW  498   2.929   1.184   1.529  0.7647  0.0183  0.0225
  117SOL    HW1  499   2.839   1.156   1.516  0.2215  1.3987  0.6290
  117SOL    HW2  500   2.955   1.222   1.445  1.1239 -1.1767 -0.4409
  118SOL     OW  501   0.304   2.959   1.112  0.0227 -0.1590  0.6432
  118SOL    HW1  502   0.273   2.969   1.202 -1.2271 -1.2892  0.3604
  118SOL    HW2  503   0.240   2.901   1.071 -0.2488  1.5018 -1.3994
  119SOL     OW  504   1.793   2.686   2.728  0.3537  0.5268 -0.3653
  119SOL    HW1  505   1.801   2.630   2.651 -0.5009  0.6892 -0.5786
  119SOL    HW2  506   1.873   2.739   2.727  0.4281  0.4148 -1.0529
  120SOL     OW  507   1.699   1.020   0.493 -0.2319  0.1981  0.8684
  120SOL    HW1  508   1.738   0.940   0.528 -1.0984  0.0991  1.6306
  120SOL    HW2  509   1.720   1.018   0.399 -0.4026 -1.0234  0.8415
  121SOL     OW  510   1.408   1.715   3.256  0.4491  0.1378 -0.1298
  121SOL    HW1  511   1.359   1.723   3.175  1.8659 -1.3072 -1.2013
  121SOL    HW2  512   1.380   1.631   3.293 -0.3710  0.8977  1.0292
  122SOL     OW  513   2.478   0.186   1.098 -0.6441 -0.5848 -0.0615
  122SOL    HW1  514   2.476   0.185   1.193  5.6090 -3.5125  0.5994
  122SOL    HW2  515   2.454   0.096   1.072  1.4674 -1.0444 -0.6726
  123SOL     OW  516   2.663   3.292   1.134  0.4625 -0.1421 -0.0298
  123SOL    HW1  517   2.640   3.376   1.093 -1.6308  0.3583  1.9435
  123SOL    HW2  518   2.758   3.296   1.147  0.3175  2.3489  0.8022
  124SOL     OW  519   2.385   3.420   3.043  0.2681 -0.0397  0.1134
  124SOL    HW1  520   2.462   3.456   3.000  0.3192  1.2386  1.2141
  124SOL    HW2  521   2.399   3.436   3.137 -0.4537 -1.5281  0.5052
  125SOL     OW  522   3.157   2.209   0.370 -0.0971 -0.2402 -0.7149
  125SOL    HW1  523   3.146   2.168   0.455  1.7089 -2.6751 -1.5320
  125SOL    HW2  524   3.224   2.275   0.383 -1.5273  1.1066  0.1778
  126SOL     OW  525   2.769   2.291   2.671 -0.6546  0.6733  0.2437
  126SOL    HW1  526   2.853   2.252   2.697 -1.3434 -0.3928  0.8982
  126SOL    HW2  527   2.779   2.384   2.693  0.7569  0.7763 -0.7251
  127SOL     OW  528   2.751   2.491   1.675  0.0679 -0.2732 -0.2772
  127SOL    HW1  529   2.758   2.547   1.597  1.5129  1.1521  0.8095
  127SOL    HW2  530   2.791   2.408   1.649 -2.4253 -1.0273 -2.0358
  128SOL     OW  531   1.523   1.993   2.666  0.5899 -0.8088 -0.0965
  128SOL    HW1  532   1.465   1.940   2.611  1.2409  0.1484 -1.7774
  128SOL    HW2  533   1.493   2.083   2.653  1.7613 -0.4066 -0.1250
  129SOL     OW  534   2.391   3.739   3.263  0.0879  0.5108  0.6748
  129SOL    HW1  535   2.386   3.746   3.358  2.7070  0.7855  0.8597
  129SOL    HW2  536   2.458   3.673   3.246 -1.3146 -0.5896 -1.0343
  130SOL     OW  537   2.055   3.276   0.228 -0.1669  0.9920 -0.4734
  130SOL    HW1  538   2.083   3.241   0.143  0.1441 -1.4721  0.5534
  130SOL    HW2  539   1.960   3.278   0.223 -0.2722 -1.1490 -0.2231
  131SOL     OW  540   3.257   3.561   2.331  0.2370  0.5167  0.7302
  131SOL    HW1  541   3.282   3.612   2.408 -1.9920  0.2282  1.7211
  131SOL    HW2  542   3.222   3.625   2.270  0.2497  0.5181  0.7240
  132SOL     OW  543   0.659   1.132   1.870  0.4734  0.5527  0.0010
  132SOL    HW1  544   0.594   1.202   1.881 -0.9887 -0.8521  0.5778
  132SOL    HW2  545   0.736   1.177   1.834 -0.3158  2.4955  0.6211
  133SOL     OW  546   3.432   3.620   2.091 -0.0157 -0.1494  0.1787
  133SOL    HW1  547   3.470   3.602   2.177  0.3592  2.2181  0.5847
  133SOL    HW2  548   3.376   3.545   2.072  0.7685 -1.2324  1.9761
  134SOL     OW  549   0.727   3.379   2.719 -0.6326 -0.5136  0.2469
  134SOL    HW1  550   0.723   3.470   2.750 -0.5751  0.0336 -1.2743
  134SOL    HW2  551   0.819   3.363   2.703 -0.8657  0.0341 -1.8789
  135SOL     OW  552   0.191   1.290   0.242 -0.6663 -0.4238  0.1509
  135SOL    HW1  553   0.175   1.334   0.326 -2.1655  0.1194 -0.3804
  135SOL    HW2  554   0.225   1.359   0.185 -0.4812 -0.5820  0.0702
  136SOL     OW  555   1.171   3.212   1.077  0.2592 -0.2667 -0.5015
  136SOL    HW1  556   1.185   3.221   1.171  1.1791  0.2288 -0.6721
  136SOL    HW2  557   1.089   3.259   1.061 -0.1253 -0.7223  0.1126
  137SOL     OW  558   0.545   1.431   2.986 -0.3685 -0.7608  0.4972
  137SOL    HW1  559   0.458   1.461   2.959 -1.0145 -1.6228  1.5329
  137SOL    HW2  560   0.584   1.506   3.030 -0.2241 -0.0958 -0.7163
  138SOL     OW  561   2.117   1.513   0.134  0.1506 -0.1041 -0.0202
  138SOL    HW1  562   2.107   1.542   0.043 -1.2442 -2.2644 -0.6316
  138SOL    HW2  563   2.158   1.427   0.127  2.0184  0.5876  1.5823
  139SOL     OW  564   1.267   1.445   1.443 -0.2097 -0.4190  0.0289
  139SOL    HW1  565   1.230   1.358   1.462 -1.4878 -0.0462 -0.6030
  139SOL    HW2  566   1.276   1.486   1.529 -0.7048 -0.7570  0.2539
  140SOL     OW  567   2.507   0.283   1.366 -0.3408  0.5976 -0.3821
  140SOL    HW1  568   2.534   0.375   1.364  0.3695  0.4327  0.5447
  140SOL    HW2  569   2.447   0.277   1.440 -2.1138  0.7243 -1.7422
  141SOL     OW  570   3.156   1.000   2.844  0.0549  0.0396 -0.2678
  141SOL    HW1  571   3.127   1.064   2.909  0.6683 -1.3294  1.4212
  141SOL    HW2  572   3.075   0.962   2.811 -0.4102  2.4294 -2.2134
  142SOL     OW  573   1.783   1.304   1.676  0.5498  0.3352 -0.2951
  142SOL    HW1  574   1.708   1.287   1.732  0.1532 -0.3524 -1.0186
  142SOL    HW2  575   1.792   1.400   1.677 -0.5015  0.4493 -0.4126
  143SOL     OW  576   1.278   3.645   0.754 -0.3979 -0.3803 -0.4629
  143SOL    HW1  577   1.332   3.657   0.832  0.0690  0.7540 -0.9336
  143SOL    HW2  578   1.191   3.625   0.787 -0.1399 -0.2281  0.3332
  144SOL     OW  579   0.933   3.316   1.053 -0.3289 -0.6325 -0.3591
  144SOL    HW1  580   0.858   3.258   1.045 -0.3919 -0.6118  0.0569
  144SOL    HW2  581   0.903   3.387   1.109 -0.4938  0.2197 -1.4979
  145SOL     OW  582   0.508   3.427   0.334 -0.6298 -0.3673  0.0227
  145SOL    HW1  583   0.583   3.474   0.371 -0.2330 -0.1665 -1.0175
  145SOL    HW2  584   0.544   3.378   0.260 -1.4849 -0.4456 -0.3539
  146SOL     OW  585   2.099   0.844   3.490 -0.3434  1.0449  0.5267
  146SOL    HW1  586   2.170   0.781   3.484 -0.3237  1.1994 -3.4111
  146SOL    HW2  587   2.020   0.793   3.469 -0.8550  1.6168  1.0123
  147SOL     OW  588   0.510   1.912   0.288 -0.2126 -0.2661 -0.1558
  147SOL    HW1  589   0.575   1.860   0.336 -0.7405 -0.0302  0.8457
  147SOL    HW2  590   0.552   1.996   0.275  0.1336 -0.5003 -0.5859
  148SOL     OW  591   2.901   0.331   1.685  0.1211 -0.3739  0.2760
  148SOL    HW1  592   2.848   0.392   1.736  0.6882  1.2863 -1.0205
  148SOL    HW2  593   2.989   0.368   1.686  0.3558 -0.8427 -1.0306
  149SOL     OW  594   1.445   3.707   3.132 -0.4057 -0.0185 -0.0800
  149SOL    HW1  595   1.424   3.777   3.070  0.4863  0.8717  0.5882
  149SOL    HW2  596   1.538   3.689   3.118 -0.5620 -0.9106 -0.0615
  150SOL     OW  597   1.698   0.034   2.930 -0.0283  0.3509 -0.5240
  150SOL    HW1  598   1.662   0.090   2.861 -1.7430 -0.7755 -0.5984
  150SOL    HW2  599   1.733   0.095   2.994  1.3299  1.4351 -2.2029
  151SOL     OW  600   2.102   3.343   1.086 -0.4742 -0.3118  0.2673
  151SOL    HW1  601   2.168   3.400   1.126 -2.4805  1.4617  1.2385
  151SOL    HW2  602   2.025   3.352   1.143 -2.1045 -1.0100 -1.7128
  152SOL     OW  603   2.371   0.477   0.168 -0.2117  0.2577  0.1568
  152SOL    HW1  604   2.325   0.560   0.183 -0.2300  0.6123 -1.5810
  152SOL    HW2  605   2.463   0.498   0.176 -0.2574  0.0285  1.4819
  153SOL     OW  606   1.597   2.345   3.381 -0.0486 -0.2759 -0.1998
  153SOL    HW1  607   1.647   2.277   3.334  0.8604  0.5454 -0.4493
  153SOL    HW2  608   1.661   2.388   3.436 -0.3983  1.0338 -0.7814
  154SOL     OW  609   2.241   1.156   1.610 -0.2772  0.5569  0.4836
  154SOL    HW1  610   2.179   1.084   1.620 -0.8667  1.1972  1.7804
  154SOL    HW2  611   2.189   1.235   1.630  0.7398  1.1795  0.7647
  155SOL     OW  612   1.431   0.205   1.428  0.2050 -0.2220 -1.0906
  155SOL    HW1  613   1.392   0.201   1.341 -1.4291 -2.0794 -0.3610
  155SOL    HW2  614   1.447   0.298   1.444 -1.9365  0.4131 -2.3245
  156SOL     OW  615   0.193   0.579   3.307 -0.3989 -0.2581 -0.6064
  156SOL    HW1  616   0.205   0.580   3.212  0.4244  1.6262 -0.5279
  156SOL    HW2  617   0.162   0.491   3.326 -1.6668 -0.3426 -2.7431
  157SOL     OW  618   2.845   2.966   0.048  0.5355  0.2118  0.4666
  157SOL    HW1  619   2.936   2.995   0.051 -0.3114  3.1737  0.7385
  157SOL    HW2  620   2.835   2.910   0.125  1.8440  0.8008  1.1049
  158SOL     OW  621   1.822   1.022   1.573  0.2112  0.1647  0.2630
  158SOL    HW1  622   1.784   0.982   1.494 -0.7169  1.6590 -0.0968
  158SOL    HW2  623   1.799   1.115   1.565  2.6181  0.8610  0.8604
  159SOL     OW  624   1.459   3.169   3.609 -0.5011 -0.4619  0.2268
  159SOL    HW1  625   1.397   3.241   3.600 -2.4692 -1.9966  0.7339
  159SOL    HW2  626   1.524   3.201   3.672 -0.3989  1.4025 -0.7554
  160SOL     OW  627   1.178   2.302   0.189  0.2113  0.1162 -0.1743
  160SOL    HW1  628   1.230   2.229   0.155  0.2912 -0.2907  0.7839
  160SOL    HW2  629   1.188   2.296   0.284  0.0613  1.2742 -0.0758
  161SOL     OW  630   1.805   0.177   2.505 -0.4990  0.3233  0.2273
  161SOL    HW1  631   1.813   0.223   2.422 -1.3832  0.6365  0.3045
  161SOL    HW2  632   1.765   0.241   2.564  2.6643  1.0922  1.7436
  162SOL     OW  633   3.148   1.176   2.447 -0.1301 -0.0412  0.5707
  162SOL    HW1  634   3.184   1.220   2.370 -0.3408 -1.6080 -0.4600
  162SOL    HW2  635   3.190   1.090   2.447 -1.7618 -0.8749  0.9392
  163SOL     OW  636   2.223   0.467   2.166 -0.4547  0.3174  0.4869
  163SOL    HW1  637   2.228   0.480   2.071  2.3215  0.7209  0.5849
  163SOL    HW2  638   2.283   0.533   2.202 -0.5414 -0.5919  2.4282
  164SOL     OW  639   0.431   2.778   0.403  0.1778 -0.2288 -0.1633
  164SOL    HW1  640   0.506   2.719   0.408 -0.2033 -0.7264 -0.3192
  164SOL    HW2  641   0.401   2.772   0.312  2.0308  2.5548 -1.0877
  165SOL     OW  642   2.688   1.393   2.731 -0.0789 -0.1465  0.5917
  165SOL    HW1  643   2.720   1.421   2.817  0.5714 -0.5035  0.4726
  165SOL    HW2  644   2.687   1.474   2.679  3.4482 -0.4801 -0.2686
  166SOL     OW  645   1.210   1.261   2.240 -0.9751  0.0573  0.1217
  166SOL    HW1  646   1.119   1.235   2.227 -1.1580  1.2014 -1.1066
  166SOL    HW2  647   1.203   1.348   2.281 -0.4118 -0.1946  0.7707
  167SOL     OW  648   3.039   2.440   2.941 -0.0016 -0.3075 -0.2778
  167SOL    HW1  649   2.954   2.457   2.899 -0.2881 -1.1965 -0.0708
  167SOL    HW2  650   3.047   2.509   3.007 -1.4465 -1.2892  0.9955
  168SOL     OW  651   1.677   3.072   0.642  0.7245  0.6926 -1.1085
  168SOL    HW1  652   1.733   3.043   0.713 -0.0393  2.1303  0.1387
  168SOL    HW2  653   1.621   3.139   0.681  0.8564  2.1518 -3.2622
  169SOL     OW  654   1.300   0.313   3.200 -0.1463 -0.8773 -0.4466
  169SOL    HW1  655   1.299   0.261   3.120  1.4852 -2.1165  0.2828
  169SOL    HW2  656   1.393   0.327   3.218 -0.5150  0.5135  0.5283
  170SOL     OW  657   1.805   2.452   3.527  0.3613  0.3854 -0.2991
  170SOL    HW1  658   1.780   2.542   3.547  0.4993  0.6335 -1.1933
  170SOL    HW2  659   1.899   2.449   3.544  0.1261  0.0284  1.0339
  171SOL     OW  660   0.620   2.641   2.762 -0.2697  0.1159 -0.7672
  171SOL    HW1  661   0.635   2.659   2.855  1.0625 -2.1217 -0.4677
  171SOL    HW2  662   0.686   2.693   2.716  0.1454 -0.0082 -0.3210
  172SOL     OW  663   0.963   3.244   2.361 -0.5462  0.0923  0.1799
  172SOL    HW1  664   0.935   3.162   2.319 -1.3727  0.1713  0.5570
  172SOL    HW2  665   1.052   3.258   2.329 -2.0493  1.7908 -4.1247
  173SOL     OW  666   2.318   0.620   1.290  0.2146  0.4861  0.5547
  173SOL    HW1  667   2.278   0.605   1.376 -0.1926  0.6355  0.3920
  173SOL    HW2  668   2.369   0.701   1.302 -1.7187  1.8589  0.0409
  174SOL     OW  669   1.520   1.074   1.138  0.0891 -0.4566 -0.2563
  174SOL    HW1  670   1.463   1.130   1.191 -0.9714 -0.7682 -1.0358
  174SOL    HW2  671   1.544   1.002   1.196 -2.2349 -1.5755 -0.5662
  175SOL     OW  672   1.481   2.941   3.060 -0.0267  0.1432 -0.4963
  175SOL    HW1  673   1.547   2.933   2.991  0.1117 -2.3867 -0.1701
  175SOL    HW2  674   1.528   2.979   3.134 -0.0051  2.2102 -1.5082
  176SOL     OW  675   0.502   1.116   1.053  0.2216 -0.1694 -0.1039
  176SOL    HW1  676   0.451   1.077   1.124  1.8477 -1.8050  0.2259
  176SOL    HW2  677   0.436   1.141   0.987 -1.0072 -2.7076  0.0518
  177SOL     OW  678   1.148   3.159   0.390 -0.1453 -0.0197  0.4967
  177SOL    HW1  679   1.154   3.227   0.323  0.7892  0.8232  1.4122
  177SOL    HW2  680   1.200   3.087   0.355  0.8374  0.6405  0.5688
  178SOL     OW  681   0.067   0.383   2.151 -0.2276  0.2567  0.5315
  178SOL    HW1  682  -0.025   0.359   2.141 -0.3212  0.3816  1.0427
  178SOL    HW2  683   0.108   0.306   2.192  0.1377 -0.2355 -0.7226
  179SOL     OW  684   1.730   3.130   1.841 -0.6837  0.5793  0.1809
  179SOL    HW1  685   1.679   3.146   1.761  0.4133 -2.2448 -1.2016
  179SOL    HW2  686   1.806   3.080   1.811  0.7737  1.0862  2.7725
  180SOL     OW  687   2.330   2.036   3.585 -0.2143  0.4333 -0.3088
  180SOL    HW1  688   2.313   2.069   3.673 -1.2943 -1.4418  0.2491
  180SOL    HW2  689   2.394   1.966   3.598  0.4087  0.8380 -1.1531
  181SOL     OW  690   3.590   2.698   2.376  1.1390 -0.0698 -0.7474
  181SOL    HW1  691   3.610   2.754   2.451  1.4329  0.9399 -1.5648
  181SOL    HW2  692   3.523   2.746   2.328  0.6029 -0.9354 -0.9038
  182SOL     OW  693   0.899   2.043   1.326  0.3016 -0.3000 -0.1979
  182SOL    HW1  694   0.887   2.018   1.234 -0.2898  0.6624 -0.3954
  182SOL    HW2  695   0.932   1.963   1.368 -1.7360 -1.5353 -0.7619
  183SOL     OW  696   3.196   3.356   3.163 -0.1603  0.8118 -0.4059
  183SOL    HW1  697   3.240   3.413   3.100 -0.3792  0.0008 -1.3219
  183SOL    HW2  698   3.217   3.394   3.249  3.4100 -0.2422 -0.6552
  184SOL     OW  699   0.884   1.374   1.490 -0.0088 -0.3425  0.3571
  184SOL    HW1  700   0.947   1.374   1.563  1.1452  0.2890 -0.5925
  184SOL    HW2  701   0.800   1.393   1.531  0.9199  2.1434  1.3468
  185SOL     OW  702   1.695   0.426   0.633 -0.3743 -0.2247 -0.4643
  185SOL    HW1  703   1.666   0.498   0.577 -0.1673 -0.3693 -0.7601
  185SOL    HW2  704   1.759   0.379   0.580  0.7294  0.3408  0.3302
  186SOL     OW  705   2.087   1.851   3.670 -0.9212 -0.4570 -0.0607
  186SOL    HW1  706   2.034   1.822   3.744 -1.3536  0.3842 -0.0347
  186SOL    HW2  707   2.059   1.795   3.597 -1.5726 -0.2700  0.0440
  187SOL     OW  708   1.475   3.383   0.424 -0.6907  0.5259 -0.1015
  187SOL    HW1  709   1.385   3.404   0.450 -0.7852  0.2157 -0.1819
  187SOL    HW2  710   1.514   3.468   0.404 -1.8115  0.5093 -2.8915
  188SOL     OW  711   3.474   3.235   3.175 -0.0881 -0.2504 -0.6754
  188SOL    HW1  712   3.389   3.267   3.144  0.0330  0.1543 -0.5875
  188SOL    HW2  713   3.453   3.178   3.249 -0.2057  0.8377  0.1558
  189SOL     OW  714   0.273   1.723   1.782 -0.5195 -0.2658  0.1042
  189SOL    HW1  715   0.288   1.758   1.694 -1.0632 -0.3163 -0.0114
  189SOL    HW2  716   0.220   1.645   1.767 -1.4368  0.2632  0.5556
  190SOL     OW  717   1.620   1.241   0.031  0.6329 -0.3580  0.1838
  190SOL    HW1  718   1.607   1.237  -0.063 -0.8778  1.4889  0.2364
  190SOL    HW2  719   1.707   1.279   0.042 -0.1597  1.8301 -0.5658
  191SOL     OW  720   2.891   0.808   3.620 -0.1505 -0.2873  0.1385
  191SOL    HW1  721   2.908   0.789   3.528  2.1918  0.7160  0.2981
  191SOL    HW2  722   2.966   0.861   3.648 -0.8236 -0.5208  2.6172
  192SOL     OW  723   1.143   3.302   0.773 -0.2918 -0.1534  0.1254
  192SOL    HW1  724   1.227   3.335   0.806 -0.7775  2.0220 -0.6305
  192SOL    HW2  725   1.079   3.337   0.834 -0.6881 -1.9366  0.7878
  193SOL     OW  726   0.296   1.117   1.992 -0.2282 -0.3585 -0.1365
  193SOL    HW1  727   0.202   1.134   1.981  0.3115  1.9349 -2.1258
  193SOL    HW2  728   0.309   1.029   1.956 -1.3242  0.1423 -1.8507
  194SOL     OW  729   1.010   3.049   3.373 -0.1856  0.9256  0.5007
  194SOL    HW1  730   1.015   3.143   3.353  2.7389  0.5724 -0.9560
  194SOL    HW2  731   1.090   3.013   3.335 -2.3186 -2.5758 -1.1607
  195SOL     OW  732   1.940   3.068   0.527 -0.2471 -0.3183 -0.0480
  195SOL    HW1  733   1.935   2.983   0.571 -0.2409  0.2260  1.0153
  195SOL    HW2  734   1.941   3.132   0.597 -1.4475  0.6397 -0.8640
  196SOL     OW  735   0.481   0.407   1.522  0.2759 -0.1184  0.1530
  196SOL    HW1  736   0.503   0.438   1.610 -1.4868 -1.7256  1.2362
  196SOL    HW2  737   0.393   0.440   1.505  0.0884 -0.8805 -0.4577
  197SOL     OW  738   1.967   0.618   0.585 -0.5872 -0.1823  0.3735
  197SOL    HW1  739   1.935   0.564   0.512 -0.3682 -1.1869  1.0009
  197SOL    HW2  740   2.018   0.687   0.543 -5.1842  2.9162 -0.9332
  198SOL     OW  741   2.230   0.626   2.749  0.0808 -0.7898 -0.3153
  198SOL    HW1  742   2.258   0.544   2.792  1.1784  0.3469  1.2737
  198SOL    HW2  743   2.312   0.666   2.721 -0.3713  0.1670 -0.2868
  199SOL     OW  744   3.567   2.044   2.879  0.1843 -0.4631  1.1837
  199SOL    HW1  745   3.491   2.032   2.936  0.6425  1.1897  2.1989
  199SOL    HW2  746   3.643   2.040   2.938  1.3816 -5.7059 -0.1763
  200SOL     OW  747   1.981   2.145   2.985  0.0680  0.2789  0.3521
  200SOL    HW1  748   1.905   2.154   2.927  0.2371  0.4740  0.1543
  200SOL    HW2  749   2.023   2.231   2.982  1.7870 -0.5420 -1.6644
  201SOL     OW  750   0.788   0.258   0.578 -0.2764 -0.4573  0.1187
  201SOL    HW1  751   0.808   0.352   0.575 -1.5021 -0.1427  1.2022
  201SOL    HW2  752   0.715   0.247   0.516 -0.2895 -0.6642  0.1690
  202SOL     OW  753   3.181   2.036   0.814 -0.4238 -0.4200 -0.1772
  202SOL    HW1  754   3.254   1.978   0.836  1.8814  1.6913 -1.5867
  202SOL    HW2  755   3.182   2.039   0.718 -4.1747 -2.3029 -0.4386
  203SOL     OW  756   2.523   2.870   2.561 -0.1167  0.1001 -0.1613
  203SOL    HW1  757   2.556   2.941   2.506 -0.3725  1.1022  0.9337
  203SOL    HW2  758   2.506   2.912   2.646 -1.6572 -0.9467  0.0847
  204SOL     OW  759   0.783   3.005   3.225 -0.0038 -0.0280 -0.1992
  204SOL    HW1  760   0.866   3.039   3.260 -2.1025  2.4890  2.8997
  204SOL    HW2  761   0.761   2.933   3.284 -1.3849  1.3047  1.0043
  205SOL     OW  762   0.914   2.257   0.122 -0.5183  0.1419 -0.0197
  205SOL    HW1  763   0.913   2.239   0.028 -1.5825 -1.1482  0.2149
  205SOL    HW2  764   1.007   2.262   0.145 -0.2477 -0.1202 -1.0246
  206SOL     OW  765   0.053   2.094   3.443 -0.0717  0.1972 -0.5318
  206SOL    HW1  766   0.130   2.042   3.421  2.1648  2.2947  1.6140
  206SOL    HW2  767  -0.013   2.030   3.470  2.6904 -1.6736  2.5427
  207SOL     OW  768   3.572   2.420   0.319  0.4454  0.3219  0.5788
  207SOL    HW1  769   3.550   2.347   0.377 -1.0196 -1.3386 -1.8752
  207SOL    HW2  770   3.661   2.445   0.345  0.7526 -1.9225  1.9402
  208SOL     OW  771   3.537   1.310   3.623  0.1671  0.0327 -0.4904
  208SOL    HW1  772   3.474   1.277   3.687  0.3181  1.8457  0.6567
  208SOL    HW2  773   3.620   1.267   3.646  0.4345  1.3540  1.1783
  209SOL     OW  774   2.863   1.848   1.762 -0.7325  0.8629  0.5056
  209SOL    HW1  775   2.951   1.881   1.745 -0.0614 -0.9949  0.0829
  209SOL    HW2  776   2.865   1.821   1.854 -1.3101  2.0565  0.8824
  210SOL     OW  777   2.295   3.027   1.196  0.4779  0.3938  0.0149
  210SOL    HW1  778   2.360   3.008   1.264  0.7958  1.4019  0.0080
  210SOL    HW2  779   2.223   2.967   1.215  1.1828 -0.3671  0.3466
  211SOL     OW  780   0.185   2.567   1.006 -0.2564  0.2341 -0.0445
  211SOL    HW1  781   0.182   2.569   1.102  0.7119 -0.0209 -0.0042
  211SOL    HW2  782   0.275   2.591   0.985 -0.3327 -0.2065 -0.8795
  212SOL     OW  783   2.358   0.863   3.645 -0.3535 -0.1567 -0.0742
  212SOL    HW1  784   2.338   0.783   3.596  1.4771 -0.8017  0.1771
  212SOL    HW2  785   2.453   0.871   3.640 -0.3145  0.8534  1.6997
  213SOL     OW  786   2.975   2.236   1.646 -0.0453  0.3738 -0.1187
  213SOL    HW1  787   3.042   2.281   1.697 -1.1095  1.7191  0.1436
  213SOL    HW2  788   2.989   2.143   1.664  0.3351  0.7490  1.7050
  214SOL     OW  789   0.420   2.676   0.932 -0.2583 -0.2243 -0.1106
  214SOL    HW1  790   0.509   2.655   0.901  0.5787  1.3066  1.0877
  214SOL    HW2  791   0.414   2.772   0.923 -2.2148 -0.4022 -1.1627
  215SOL     OW  792   3.550   2.270   3.432  0.4342 -0.2996  0.1379
  215SOL    HW1  793   3.508   2.268   3.518  1.7923  3.0711  1.0498
  215SOL    HW2  794   3.626   2.212   3.440 -0.3919 -1.3600  0.5674
  216SOL     OW  795   1.275   1.999   3.194 -0.0159  0.5619 -0.0184
  216SOL    HW1  796   1.254   1.961   3.280 -0.6889 -0.1026 -0.4541
  216SOL    HW2  797   1.239   1.935   3.131  0.8126  0.8458 -0.7936
  217SOL     OW  798   1.550   3.505   2.135  0.4924 -0.5211  0.1455
  217SOL    HW1  799   1.558   3.410   2.143  0.5252 -0.6141 -0.9121
  217SOL    HW2  800   1.536   3.521   2.042 -2.7028  0.2892  0.6614
  218SOL     OW  801   2.868   1.222   1.026  0.6030 -0.4141 -0.7096
  218SOL    HW1  802   2.922   1.144   1.025  0.7511 -0.4903  2.6787
  218SOL    HW2  803   2.787   1.195   1.070  0.4357  1.1778  0.0356
  219SOL     OW  804   2.777   3.304   0.214  0.0631 -0.2443  0.0994
  219SOL    HW1  805   2.823   3.343   0.140 -1.2148  0.5220 -0.3173
  219SOL    HW2  806   2.709   3.249   0.174 -0.9895  0.5943  0.6740
  220SOL     OW  807   0.270   1.828   1.514  0.1609  0.3540 -0.6112
  220SOL    HW1  808   0.359   1.854   1.541  0.6329 -1.5164 -0.2736
  220SOL    HW2  809   0.226   1.911   1.496  1.5486  1.3950  0.5677
  221SOL     OW  810   1.295   3.009   0.901 -0.8719 -0.2434 -0.0700
  221SOL    HW1  811   1.257   3.069   0.965 -1.9492 -0.8361 -0.1185
  221SOL    HW2  812   1.237   3.015   0.825  0.2614  0.2852 -0.9332
  222SOL     OW  813   3.193   3.333   0.716 -0.2301  0.2164 -0.5887
  222SOL    HW1  814   3.234   3.281   0.785 -0.4769 -1.2499 -1.4932
  222SOL    HW2  815   3.150   3.405   0.762 -0.4996 -0.7899  0.8153
  223SOL     OW  816   2.968   0.900   1.406 -0.1398  0.2560 -0.1322
  223SOL    HW1  817   3.023   0.978   1.398  0.8678 -0.5370 -1.1850
  223SOL    HW2  818   2.926   0.891   1.320  1.3876 -1.5110 -0.7586
  224SOL     OW  819   0.071   3.711   2.588 -0.0427  0.0117 -0.4624
  224SOL    HW1  820   0.116   3.654   2.650  0.8111  0.6112 -0.5180
  224SOL    HW2  821  -0.022   3.688   2.598  0.0647  0.1052  1.0618
  225SOL     OW  822   0.215   0.300   1.230  0.5527 -0.1440  0.2584
  225SOL    HW1  823   0.279   0.292   1.301 -1.0925 -0.2777  1.8048
  225SOL    HW2  824   0.133   0.322   1.274 -0.1830  1.5465 -1.7849
  226SOL     OW  825   2.609   0.803   1.024 -0.2119  0.6396  0.1795
  226SOL    HW1  826   2.541   0.838   0.967 -1.9059  1.7137  2.7009
  226SOL    HW2  827   2.572   0.808   1.112  2.0053 -1.5673  1.3532
  227SOL     OW  828   3.749   3.410   3.572  0.5925 -0.0451  0.1831
  227SOL    HW1  829   3.703   3.363   3.641 -0.7483  0.4767 -0.3233
  227SOL    HW2  830   3.690   3.481   3.547  0.8987 -0.3773 -1.6891
  228SOL     OW  831   2.324   3.652   2.413  0.2920  0.0376  0.0256
  228SOL    HW1  832   2.254   3.640   2.477 -0.8312  2.1543 -0.7204
  228SOL    HW2  833   2.331   3.746   2.402  2.0166 -0.1976 -1.2999
  229SOL     OW  834   0.935  -0.024   2.015  0.2313 -0.0839 -0.2934
  229SOL    HW1  835   0.906   0.033   2.086 -0.7296  0.7140 -1.2889
  229SOL    HW2  836   0.955   0.036   1.943 -2.0772 -1.0292 -1.8220
  230SOL     OW  837   1.568   1.254   2.105  0.3445 -0.4859 -0.8335
  230SOL    HW1  838   1.502   1.248   2.036  1.4622 -0.5943 -1.9337
  230SOL    HW2  839   1.527   1.214   2.181 -0.8576 -0.5374 -1.4883
  231SOL     OW  840   0.075   0.944   2.825  0.5260 -0.1043  0.4175
  231SOL    HW1  841  -0.006   0.981   2.790  0.9195  1.6645  1.2809
  231SOL    HW2  842   0.138   0.954   2.754  0.4428  0.2341  0.3874
  232SOL     OW  843   2.445   0.426   0.965  0.2993 -0.2139  0.5919
  232SOL    HW1  844   2.379   0.441   1.033  1.0945 -1.3340  1.6608
  232SOL    HW2  845   2.497   0.353   0.998  2.3363  0.8784 -0.0245
  233SOL     OW  846   1.608   2.601   0.908  0.1060 -0.1392  0.2110
  233SOL    HW1  847   1.521   2.636   0.928 -0.8364 -1.9214 -0.6262
  233SOL    HW2  848   1.602   2.570   0.818  0.8618 -2.4311  0.8750
  234SOL     OW  849   1.456   1.871   1.117  0.3838  0.7147  0.2258
  234SOL    HW1  850   1.517   1.874   1.191  0.7215  0.2236 -0.0297
  234SOL    HW2  851   1.384   1.816   1.148  0.6357  0.3173  0.1090
  235SOL     OW  852   0.625   1.757   1.527  0.1701  0.2180 -0.0730
  235SOL    HW1  853   0.622   1.844   1.487  1.4374 -0.2874 -1.3611
  235SOL    HW2  854   0.688   1.708   1.473 -0.7246 -1.5862  0.4380
  236SOL     OW  855   2.414   1.283   2.687 -0.3986 -0.0443  0.0186
  236SOL    HW1  856   2.328   1.304   2.723  0.5821  2.1235  1.3013
  236SOL    HW2  857   2.473   1.285   2.762  1.0389  0.2144 -1.0702
  237SOL     OW  858   2.050   3.759   1.586  0.0746 -0.6386 -0.8752
  237SOL    HW1  859   2.008   3.675   1.564  1.1283 -1.0968 -1.2122
  237SOL    HW2  860   2.109   3.776   1.513  0.0058  0.3233 -0.7170
  238SOL     OW  861   0.710   0.849   1.082  0.2185 -0.0541 -0.3486
  238SOL    HW1  862   0.615   0.859   1.075  0.3650  2.2666  0.2168
  238SOL    HW2  863   0.722   0.761   1.116 -1.7006 -0.5777 -0.8796
  239SOL     OW  864   1.629   0.606   1.190  0.0869  0.6815  0.2553
  239SOL    HW1  865   1.645   0.522   1.234 -2.6850  0.7737  1.6552
  239SOL    HW2  866   1.696   0.610   1.121  2.0844 -1.3499  1.9022
  240SOL     OW  867   3.031   2.201   3.514  1.0290  0.3233 -0.3871
  240SOL    HW1  868   3.123   2.224   3.531  0.5489  1.2107  1.2392
  240SOL    HW2  869   3.029   2.105   3.520  1.6218  0.3634  1.0123
  241SOL     OW  870   0.463   1.581   0.928  0.4222  0.1048  0.2988
  241SOL    HW1  871   0.416   1.665   0.922 -0.1231 -0.2392 -0.3560
  241SOL    HW2  872   0.413   1.530   0.991  0.8323  0.3072  0.8017
  242SOL     OW  873   2.378   0.750   1.582 -0.0324  0.3533  0.8800
  242SOL    HW1  874   2.291   0.717   1.561  0.4755 -0.1334 -0.6167
  242SOL    HW2  875   2.369   0.845   1.577 -0.4349  0.3004  0.4792
  243SOL     OW  876   2.651   0.546   2.192 -0.3852 -0.3049  0.3627
  243SOL    HW1  877   2.621   0.586   2.110 -2.1859 -1.0608  0.6031
  243SOL    HW2  878   2.707   0.613   2.232  0.5284  0.0933 -1.4367
  244SOL     OW  879   2.609   0.679   3.137 -0.2881 -0.4383  0.2444
  244SOL    HW1  880   2.583   0.593   3.103 -2.1853  0.1848  0.0322
  244SOL    HW2  881   2.604   0.670   3.232  0.6677 -0.8742  0.2704
  245SOL     OW  882   0.277   3.714   1.137 -0.3823  0.2786  0.0506
  245SOL    HW1  883   0.305   3.786   1.192  2.3395 -1.8586  1.7091
  245SOL    HW2  884   0.262   3.641   1.197  0.1262 -1.4440 -1.7594
  246SOL     OW  885   0.407   0.623   2.421  0.5158 -0.1080  0.2762
  246SOL    HW1  886   0.320   0.622   2.380  0.5197 -1.5096  0.2500
  246SOL    HW2  887   0.415   0.711   2.457 -1.2331 -0.1723  0.9311
  247SOL     OW  888   2.918   3.136   3.515 -0.1544  0.5979  0.2487
  247SOL    HW1  889   2.875   3.056   3.484  1.0754 -0.9606  2.3162
  247SOL    HW2  890   2.907   3.135   3.610  0.6953  2.4341  0.4207
  248SOL     OW  891   2.219   3.099   0.392  0.3456  0.1434 -0.1392
  248SOL    HW1  892   2.287   3.141   0.443 -0.2842 -0.0814  0.9142
  248SOL    HW2  893   2.203   3.158   0.319  1.0324  0.6238  0.0923
  249SOL     OW  894   2.690   2.655   0.826 -0.2712 -0.3724  0.0285
  249SOL    HW1  895   2.701   2.570   0.783  0.8853 -0.1310 -0.1788
  249SOL    HW2  896   2.615   2.694   0.781  0.1549 -0.6407 -0.9578
  250SOL     OW  897   2.889   3.476   2.137 -0.0867 -0.8335  0.2657
  250SOL    HW1  898   2.894   3.506   2.228 -0.7809 -0.7880  0.2955
  250SOL    HW2  899   2.813   3.418   2.135  0.0856 -1.0488 -0.2291
  251SOL     OW  900   2.329   3.656   1.162  0.2348 -0.2246 -0.3018
  251SOL    HW1  901   2.234   3.651   1.176  0.2000  1.2084  0.1350
  251SOL    HW2  902   2.344   3.604   1.083 -0.6297 -2.0530  0.6637
  252SOL     OW  903   1.235   0.612   3.020  0.4011 -0.0806  0.3597
  252SOL    HW1  904   1.149   0.647   2.996  0.3012  2.4325  3.7026
  252SOL    HW2  905   1.216   0.525   3.055 -0.5018 -0.2618 -0.5185
  253SOL     OW  906   0.046   3.563   1.896  0.7134  0.2711 -0.3597
  253SOL    HW1  907   0.124   3.556   1.841  1.2284  1.3777  0.1907
  253SOL    HW2  908   0.079   3.583   1.983 -0.0878 -1.7395  0.4475
  254SOL     OW  909   3.555   2.477   0.046  0.1926 -0.1686  0.5157
  254SOL    HW1  910   3.557   2.461   0.141  1.3649 -0.0322  0.5342
  254SOL    HW2  911   3.527   2.568   0.037  0.9211  0.0947  0.7902
  255SOL     OW  912   1.069   3.529   3.577 -0.2138  0.3139  0.1417
  255SOL    HW1  913   0.989   3.504   3.623 -0.0900 -0.1817  0.0857
  255SOL    HW2  914   1.056   3.622   3.557 -0.5943  0.3416  0.5027
  256SOL     OW  915   2.013   2.030   0.378  0.8702 -0.2734 -0.2784
  256SOL    HW1  916   2.030   1.939   0.354 -1.2904 -0.5264 -1.1067
  256SOL    HW2  917   2.023   2.032   0.473 -1.4973 -2.0313  0.0996
  257SOL     OW  918   0.969   3.000   1.629  0.8935 -0.2564 -0.4698
  257SOL    HW1  919   0.981   3.090   1.661  0.6516 -0.8688  1.5260
  257SOL    HW2  920   0.876   2.983   1.641  1.3708 -1.6574  1.9097
  258SOL     OW  921   1.114   2.415   2.690  0.1050  0.8540 -0.5898
  258SOL    HW1  922   1.162   2.447   2.766  1.4982 -2.7772  0.2878
  258SOL    HW2  923   1.037   2.471   2.684  1.1309  2.7391  2.0175
  259SOL     OW  924   2.817   1.867   0.190 -0.2473  0.4673 -0.3660
  259SOL    HW1  925   2.723   1.873   0.174 -0.3858  1.4482  0.5987
  259SOL    HW2  926   2.824   1.846   0.284  0.4904  0.4257 -0.4223
  260SOL     OW  927   1.683   1.832   0.928  0.0046  0.4697 -0.0079
  260SOL    HW1  928   1.627   1.895   0.974 -1.5717  0.1236 -1.3657
  260SOL    HW2  929   1.665   1.749   0.972 -3.1568 -0.3068 -2.3692
  261SOL     OW  930   0.290   0.927   0.673 -0.0642 -0.1956  0.2745
  261SOL    HW1  931   0.237   0.861   0.628 -1.0360  0.6857  0.0983
  261SOL    HW2  932   0.371   0.932   0.622 -1.0874  0.6763 -1.3307
  262SOL     OW  933   3.466   0.691   3.280  0.5592  0.1624 -0.0415
  262SOL    HW1  934   3.558   0.716   3.288  1.6834 -3.4367 -0.0698
  262SOL    HW2  935   3.462   0.640   3.199 -0.8989 -1.6495  1.0825
  263SOL     OW  936   3.490   3.130   0.321  0.0689  0.0199 -0.1693
  263SOL    HW1  937   3.460   3.200   0.262  0.3326 -0.2879 -0.6787
  263SOL    HW2  938   3.502   3.173   0.405 -0.1084  0.5166 -0.3929
  264SOL     OW  939   1.387   3.249   2.280 -0.1606  0.5191 -0.3778
  264SOL    HW1  940   1.442   3.302   2.336 -0.5085  0.0376  0.4405
  264SOL    HW2  941   1.327   3.204   2.340 -0.7063  0.1813 -1.1490
  265SOL     OW  942   3.411   0.867   3.496 -0.3071  0.5517  0.2249
  265SOL    HW1  943   3.433   0.780   3.463 -1.3014  0.8375 -1.2557
  265SOL    HW2  944   3.458   0.873   3.580  2.1623 -0.2650 -0.9953
  266SOL     OW  945   2.757   1.378   0.131 -0.5516  0.2715 -0.3212
  266SOL    HW1  946   2.843   1.412   0.156  0.3625 -1.7084 -0.6306
  266SOL    HW2  947   2.757   1.381   0.036 -0.1971 -1.0915 -0.3892
  267SOL     OW  948   0.887   2.524   0.291  0.1546 -0.3929 -0.2520
  267SOL    HW1  949   0.929   2.543   0.207 -0.2982  0.1733 -0.3553
  267SOL    HW2  950   0.854   2.434   0.281  1.3598 -0.8741 -0.1474
  268SOL     OW  951   2.199   3.167   1.923  0.1879 -0.6250 -0.2266
  268SOL    HW1  952   2.110   3.137   1.940 -0.2587  0.6273 -0.2748
  268SOL    HW2  953   2.205   3.169   1.828 -1.4091  3.7662 -0.4587
  269SOL     OW  954   0.275   1.417   1.158 -0.0024  0.5214 -0.6481
  269SOL    HW1  955   0.194   1.399   1.205 -0.2919 -1.9935 -1.8995
  269SOL    HW2  956   0.327   1.470   1.218 -1.2954 -0.4876  1.4895
  270SOL     OW  957   3.586   0.053   0.114  0.6799  0.3103  0.5543
  270SOL    HW1  958   3.551   0.024   0.198  0.3270 -1.0373 -0.0372
  270SOL    HW2  959   3.671   0.009   0.106  0.8411  0.6535  0.3320
  271SOL     OW  960   2.068   3.347   0.488 -0.3266  0.6225 -0.1534
  271SOL    HW1  961   2.120   3.391   0.422 -0.0014 -0.4335 -0.6286
  271SOL    HW2  962   2.013   3.286   0.439 -0.2669  0.0039  0.5198
  272SOL     OW  963   2.475   2.618   3.095 -0.1818 -0.1096 -0.3240
  272SOL    HW1  964   2.398   2.600   3.149  0.1375 -3.0092 -0.6647
  272SOL    HW2  965   2.549   2.611   3.156 -0.0617  1.0501 -0.3173
  273SOL     OW  966   3.601   1.222   2.461  0.4608 -0.1928  0.9692
  273SOL    HW1  967   3.626   1.173   2.383 -3.3627 -1.9881  0.6323
  273SOL    HW2  968   3.599   1.157   2.531 -0.0738  0.5022  1.6223
  274SOL     OW  969   0.588   3.622   1.254 -0.2907  0.2773  0.1162
  274SOL    HW1  970   0.513   3.629   1.313  1.4191 -1.6808  2.7581
  274SOL    HW2  971   0.598   3.528   1.239  1.4780  0.5102 -0.3817
  275SOL     OW  972   3.602   1.027   3.412  0.4808 -0.2812 -0.0338
  275SOL    HW1  973   3.668   1.034   3.480 -0.9015  2.1170  1.1870
  275SOL    HW2  974   3.536   0.967   3.448  0.1664  0.3147  0.3946
  276SOL     OW  975   3.128   3.593   2.750  0.1966 -0.6974 -0.5395
  276SOL    HW1  976   3.166   3.671   2.711  1.5193 -0.2194  1.5281
  276SOL    HW2  977   3.066   3.560   2.685 -0.0025  1.7630 -1.6848
  277SOL     OW  978   0.891   2.001   1.711 -0.0455  0.2500  0.0088
  277SOL    HW1  979   0.854   2.089   1.720 -0.1252  0.1686  0.5084
  277SOL    HW2  980   0.979   2.016   1.676 -0.6825  0.4195 -1.6297
  278SOL     OW  981   2.226   0.414   3.436 -0.1685 -0.0532  0.7873
  278SOL    HW1  982   2.180   0.423   3.352 -1.0140  1.1862  1.3483
  278SOL    HW2  983   2.286   0.489   3.438 -0.8699  0.4998  1.7138
  279SOL     OW  984   2.239   3.196   3.293  0.3869  0.0334 -0.1413
  279SOL    HW1  985   2.174   3.193   3.223 -0.3919 -2.7937  0.5968
  279SOL    HW2  986   2.322   3.179   3.249  0.1377 -0.0586 -0.5818
  280SOL     OW  987   3.283   3.289   2.407 -0.1608 -0.3232 -0.4309
  280SOL    HW1  988   3.260   3.379   2.384 -1.1192 -0.1345  1.1147
  280SOL    HW2  989   3.332   3.296   2.488 -0.4370 -1.1994 -0.1703
  281SOL     OW  990   1.523   0.219   2.400 -0.8977  0.4347 -0.6243
  281SOL    HW1  991   1.539   0.306   2.364  3.1416  0.9677  1.8841
  281SOL    HW2  992   1.588   0.163   2.358 -0.9606 -0.4952  0.4653
  282SOL     OW  993   0.453   3.425   0.924  0.8129  0.0341  0.9541
  282SOL    HW1  994   0.454   3.436   0.829  0.2890 -0.4796  0.8824
  282SOL    HW2  995   0.441   3.331   0.938 -1.5895  0.3363  1.4840
  283SOL     OW  996   1.549   3.210   1.637  0.8472  0.7461 -0.5448
  283SOL    HW1  997   1.481   3.260   1.683  1.8868  1.5823  0.1113
  283SOL    HW2  998   1.525   3.217   1.545 -0.9097 -0.4138 -0.2276
  284SOL     OW  999   3.346   3.511   0.893 -0.2676 -0.2343  0.4946
  284SOL    HW1 1000   3.297   3.573   0.946 -2.1836 -2.4474  1.4634
  284SOL    HW2 1001   3.398   3.461   0.956 -1.6085 -2.0479  0.2382
  285SOL     OW 1002   2.276   2.583   2.706 -0.4294 -0.3173 -0.3446
  285SOL    HW1 1003   2.370   2.581   2.721 -0.2203  3.6875  0.0276
  285SOL    HW2 1004   2.243   2.504   2.749  2.6654 -1.6573 -0.1683
  286SOL     OW 1005   2.276   3.045   3.618  0.0134  0.3602 -0.5844
  286SOL    HW1 1006   2.237   3.012   3.537  0.5660  1.3987 -1.2896
  286SOL    HW2 1007   2.370   3.029   3.608 -0.0203 -0.6676  0.4215
  287SOL     OW 1008   0.989   0.018   3.248  0.7452 -0.3599  0.0261
  287SOL    HW1 1009   0.940  -0.049   3.296  0.9425 -1.5970 -1.4367
  287SOL    HW2 1010   0.978   0.097   3.301 -1.6932 -0.8919  0.4592
  288SOL     OW 1011   0.366   1.329   3.744  0.0194 -0.5820 -0.8108
  288SOL    HW1 1012   0.403   1.261   3.801 -0.4649  1.6789  2.5323
  288SOL    HW2 1013   0.410   1.317   3.660 -1.0596 -5.7937 -0.9783
  289SOL     OW 1014   0.882   1.240   3.236  0.3117 -0.3769  0.4967
  289SOL    HW1 1015   0.788   1.236   3.258  0.1538 -1.0676 -0.2504
  289SOL    HW2 1016   0.904   1.150   3.212  1.2213 -0.2532  0.8488
  290SOL     OW 1017   1.693   0.964   1.313 -0.1322 -0.1873 -0.4394
  290SOL    HW1 1018   1.739   0.951   1.230 -0.0836  0.4369 -0.5143
  290SOL    HW2 1019   1.655   0.878   1.333  1.3080 -0.8035 -0.2173
  291SOL     OW 1020   3.676   1.283   1.706  0.7231 -0.1440  0.0319
  291SOL    HW1 1021   3.714   1.247   1.625  0.9684 -2.6360  1.1558
  291SOL    HW2 1022   3.596   1.327   1.677 -0.1061 -2.4158 -1.4387
  292SOL     OW 1023   1.043   0.975   0.554 -0.2618 -0.4463 -0.1981
  292SOL    HW1 1024   1.053   1.040   0.484  1.1768  0.2805  0.6392
  292SOL    HW2 1025   1.131   0.939   0.565 -0.3962 -0.3248  1.4467
  293SOL     OW 1026   3.497   1.339   0.693 -0.3581 -0.3116 -0.0936
  293SOL    HW1 1027   3.540   1.307   0.773  0.7770  1.0203 -0.1328
  293SOL    HW2 1028   3.549   1.302   0.622 -2.1157 -2.5596 -0.3396
  294SOL     OW 1029   0.421   3.135   0.943 -0.0093 -0.4238  0.4477
  294SOL    HW1 1030   0.367   3.086   1.005  1.6393 -1.5115  1.0824
  294SOL    HW2 1031   0.447   3.071   0.877  1.0297 -0.0765  0.5047
  295SOL     OW 1032   0.309   3.541   1.761 -0.2076 -0.1893  0.2430
  295SOL    HW1 1033   0.313   3.448   1.737 -1.9273 -0.9145  2.4693
  295SOL    HW2 1034   0.387   3.555   1.815 -0.9320 -0.8997  1.5211
  296SOL     OW 1035   2.017   0.738   2.850  0.5593 -0.2091 -0.1978
  296SOL    HW1 1036   2.026   0.779   2.936  1.8403  2.2125 -1.3512
  296SOL    HW2 1037   2.103   0.699   2.833  0.3779 -0.4964 -0.4724
  297SOL     OW 1038   1.724   3.197   2.284 -0.0645 -0.1517  0.2967
  297SOL    HW1 1039   1.660   3.131   2.312 -0.6225  0.1312 -0.2922
  297SOL    HW2 1040   1.694   3.225   2.197  0.6418  0.2699  0.1773
  298SOL     OW 1041   3.159   2.690   0.040 -0.0441 -0.5508 -0.4656
  298SOL    HW1 1042   3.099   2.755   0.001  0.1834 -0.9591 -1.5263
  298SOL    HW2 1043   3.157   2.616  -0.021 -1.6445 -2.3187  1.5760
  299SOL     OW 1044   3.258   2.498   2.271 -0.4480 -0.0822 -0.2281
  299SOL    HW1 1045   3.262   2.553   2.349  0.9288  0.9726 -0.9881
  299SOL    HW2 1046   3.332   2.437   2.281  0.0073  0.3486 -0.8913
  300SOL     OW 1047   3.311   0.684   2.983 -0.5117 -0.8106  0.5666
  300SOL    HW1 1048   3.276   0.764   3.021 -0.2977 -0.8176  0.7793
  300SOL    HW2 1049   3.331   0.628   3.058  1.0810 -0.3466  0.5309
  301SOL     OW 1050   3.595   0.261   1.856 -0.6593 -0.1218  0.2370
  301SOL    HW1 1051   3.637   0.197   1.913  0.9242 -0.9118 -1.6813
  301SOL    HW2 1052   3.649   0.340   1.863 -0.3977 -0.2562 -0.2455
  302SOL     OW 1053   0.730   3.127   1.290  0.2554  0.3543 -0.2789
  302SOL    HW1 1054   0.679   3.070   1.348  1.3368  0.7271  1.0872
  302SOL    HW2 1055   0.751   3.203   1.343  2.1524  0.2472 -0.8008
  303SOL     OW 1056   2.630   2.920   2.021 -0.4097  0.0378 -0.0667
  303SOL    HW1 1057   2.547   2.880   2.046 -0.9049  1.7733  1.3309
  303SOL    HW2 1058   2.653   2.976   2.096  2.4082 -0.9302 -0.0994
  304SOL     OW 1059   0.577   0.200   0.982  0.5594 -0.4020 -0.1101
  304SOL    HW1 1060   0.487   0.231   0.988  1.0337  1.3474 -1.3145
  304SOL    HW2 1061   0.569   0.105   0.969 -1.0741 -0.3233  0.1995
  305SOL     OW 1062   2.666   1.188   3.438 -0.1733 -0.2304  0.4707
  305SOL    HW1 1063   2.705   1.113   3.392 -0.6548 -0.0632 -0.2107
  305SOL    HW2 1064   2.633   1.245   3.369  2.3869  1.8815  0.8273
  306SOL     OW 1065   0.614   1.883   2.569  0.2133  0.0180  0.0309
  306SOL    HW1 1066   0.569   1.799   2.563 -1.0274  0.5954  0.7166
  306SOL    HW2 1067   0.672   1.885   2.493  0.0118 -1.3025 -0.1836
  307SOL     OW 1068   2.629   3.654   0.028 -0.2813  0.4763 -0.1242
  307SOL    HW1 1069   2.618   3.647   0.122  0.0753  0.6312 -0.0719
  307SOL    HW2 1070   2.558   3.601  -0.008  0.9628 -1.5319  0.2390
  308SOL     OW 1071   3.427   2.560   1.402 -0.5101  0.4927 -0.4541
  308SOL    HW1 1072   3.419   2.655   1.404  1.2626  0.6828 -0.9394
  308SOL    HW2 1073   3.521   2.543   1.395 -0.7839 -1.2978 -0.4098
  309SOL     OW 1074   0.932   1.993   2.132 -0.0233  0.4774 -0.0505
  309SOL    HW1 1075   0.890   2.064   2.084  1.9333  0.7890 -1.3892
  309SOL    HW2 1076   1.023   2.020   2.142  0.4690 -1.2579  0.5393
  310SOL     OW 1077   2.121   0.617   1.496 -0.0363 -0.7394  0.0066
  310SOL    HW1 1078   2.054   0.653   1.553  0.6448 -1.4464  1.2938
  310SOL    HW2 1079   2.105   0.522   1.496  1.9448 -1.1502  1.7541
  311SOL     OW 1080   1.674   0.136   2.007  0.5358  0.4902 -0.5112
  311SOL    HW1 1081   1.648   0.098   2.091 -1.4848  2.7241 -0.0388
  311SOL    HW2 1082   1.759   0.096   1.989 -0.0507 -1.8965  1.3684
  312SOL     OW 1083   2.658   0.482   1.833  0.0838 -0.2629  0.0635
  312SOL    HW1 1084   2.673   0.569   1.797  0.4971  0.7559  2.5151
  312SOL    HW2 1085   2.729   0.469   1.896 -1.1101 -1.4978  1.2315
  313SOL     OW 1086   2.783   0.155   0.972 -1.0382 -0.8139  0.1414
  313SOL    HW1 1087   2.833   0.187   1.047 -0.8971 -1.1448  0.1902
  313SOL    HW2 1088   2.692   0.175   0.994 -1.1163 -1.9871  0.9477
  314SOL     OW 1089   3.154   1.473   1.490 -1.2101 -0.7919  0.1194
  314SOL    HW1 1090   3.086   1.459   1.556 -1.1671 -1.1010  0.0995
  314SOL    HW2 1091   3.172   1.385   1.455 -0.5748 -0.7598  0.3521
  315SOL     OW 1092   0.797   2.874   0.425 -0.3320  0.0582 -0.2693
  315SOL    HW1 1093   0.717   2.924   0.410 -1.1626 -0.3138  2.2940
  315SOL    HW2 1094   0.770   2.783   0.419  0.5894 -0.1455 -2.2173
  316SOL     OW 1095   1.261   0.736   2.663  0.2325  0.6982  0.1854
  316SOL    HW1 1096   1.318   0.779   2.599  0.4559  0.7925  0.4495
  316SOL    HW2 1097   1.230   0.658   2.617  0.7581  0.5205  0.1216
  317SOL     OW 1098   1.450   2.386   1.647 -0.1616 -0.3005 -0.0778
  317SOL    HW1 1099   1.486   2.380   1.559  2.2806 -0.4648  0.8678
  317SOL    HW2 1100   1.517   2.350   1.704 -1.2170  0.7534  1.9749
  318SOL     OW 1101   0.620   0.266   0.367 -0.3013  0.0456  0.3649
  318SOL    HW1 1102   0.590   0.215   0.292  1.8326 -0.2912 -0.3251
  318SOL    HW2 1103   0.540   0.293   0.412 -1.5513 -2.5556 -0.1500
  319SOL     OW 1104   1.369   0.762   1.140  0.6509 -0.0053 -0.6125
  319SOL    HW1 1105   1.377   0.813   1.220 -1.7590 -2.1354  1.1725
  319SOL    HW2 1106   1.432   0.691   1.150 -0.4990 -0.9684  0.0563
  320SOL     OW 1107   1.025   0.776   2.989 -1.0271  0.0306  1.0323
  320SOL    HW1 1108   0.955   0.714   3.006  0.2141 -1.8791 -0.4321
  320SOL    HW2 1109   1.018   0.798   2.896  0.3999 -0.3605  0.7996
  321SOL     OW 1110   0.741   3.398   2.224 -0.3548  0.3143  0.0278
  321SOL    HW1 1111   0.826   3.365   2.255  0.1881  0.9980 -0.6867
  321SOL    HW2 1112   0.695   3.422   2.304 -0.2077 -0.8148  0.4798
  322SOL     OW 1113   3.673   1.234   2.159 -0.0469 -0.6419 -0.9630
  322SOL    HW1 1114   3.599   1.290   2.183 -0.5918 -1.7705  0.1193
  322SOL    HW2 1115   3.749   1.276   2.200 -0.2443 -0.0222 -1.2213
  323SOL     OW 1116   2.612   1.259   0.590 -0.3277  0.1309  0.1051
  323SOL    HW1 1117   2.663   1.311   0.527  0.1616 -0.8009 -0.3025
  323SOL    HW2 1118   2.671   1.249   0.665 -1.3899  2.3350  1.3019
  324SOL     OW 1119   1.101   2.855   1.873  0.4330 -0.2927 -0.8574
  324SOL    HW1 1120   1.179   2.806   1.899  0.3290 -1.4616 -2.5630
  324SOL    HW2 1121   1.059   2.799   1.808 -2.0775  0.1038  0.3162
  325SOL     OW 1122   1.029   0.486   2.186  0.4251  0.3733 -0.6601
  325SOL    HW1 1123   1.087   0.440   2.125 -0.4236 -1.2994 -0.2549
  325SOL    HW2 1124   1.014   0.424   2.257 -0.2051  1.5500  0.2631
  326SOL     OW 1125   1.658   1.302   3.002  0.1826  0.2483 -0.4880
  326SOL    HW1 1126   1.601   1.367   3.045  1.7299  1.5832 -0.3573
  326SOL    HW2 1127   1.647   1.319   2.909 -0.6334 -0.4124 -0.5262
  327SOL     OW 1128   3.101   2.624   0.318  0.3184  0.0109  0.2597
  327SOL    HW1 1129   3.115   2.634   0.224  1.0998 -0.1567  0.3520
  327SOL    HW2 1130   3.180   2.580   0.350 -0.1449 -0.3645  0.9208
  328SOL     OW 1131   2.938   0.988   2.131  0.0708  0.1742 -0.4279
  328SOL    HW1 1132   2.918   1.044   2.206  1.8343  0.5510 -0.2000
  328SOL    HW2 1133   3.012   0.934   2.160 -0.5237 -1.1335 -1.2170
  329SOL     OW 1134   1.476   1.909   2.916 -0.1141 -0.0607  0.9142
  329SOL    HW1 1135   1.490   1.983   2.975  0.2273  1.3021 -0.8256
  329SOL    HW2 1136   1.499   1.941   2.830 -0.7558 -1.9599 -0.0303
  330SOL     OW 1137   1.682   3.581   2.562  0.5708  0.5688  0.6522
  330SOL    HW1 1138   1.629   3.618   2.632  1.3909 -0.6641  1.9764
  330SOL    HW2 1139   1.745   3.650   2.541  0.0626  1.0937  0.8213
  331SOL     OW 1140   1.081   2.900   3.022 -0.3677  0.5127 -0.1703
  331SOL    HW1 1141   1.114   2.852   3.098 -0.5634  0.7143  0.0461
  331SOL    HW2 1142   1.029   2.836   2.974  1.5881 -0.2708 -1.3794
  332SOL     OW 1143   1.745   3.399   0.506  0.2826  0.1432 -0.0610
  332SOL    HW1 1144   1.655   3.404   0.537  0.6961  2.2781  0.9860
  332SOL    HW2 1145   1.780   3.319   0.546 -0.6377  0.2336  0.9530
  333SOL     OW 1146   1.654   2.935   2.838  0.4712 -0.4719  0.5365
  333SOL    HW1 1147   1.692   2.875   2.903  2.3807 -0.1946 -0.2438
  333SOL    HW2 1148   1.659   2.886   2.756  1.9752  0.6564 -0.0956
  334SOL     OW 1149   1.853   0.928   1.060 -0.3074 -0.1900  0.0383
  334SOL    HW1 1150   1.888   0.865   1.123  2.2783 -1.9296 -2.8451
  334SOL    HW2 1151   1.915   1.001   1.063 -1.1356  0.5069  0.6485
  335SOL     OW 1152   1.012   1.172   1.978  0.6589  0.1111 -0.1794
  335SOL    HW1 1153   0.989   1.257   2.016 -1.8461 -0.0962 -1.0309
  335SOL    HW2 1154   1.016   1.112   2.053 -0.6483  0.4056  0.1508
  336SOL     OW 1155   1.133   2.046   2.890  0.4071  0.0975 -0.1547
  336SOL    HW1 1156   1.064   1.983   2.869  2.3972 -2.7791  1.2024
  336SOL    HW2 1157   1.152   2.031   2.982  1.1104  2.6593  0.1972
  337SOL     OW 1158   0.863   3.103   3.670  0.0214 -0.3478  0.1447
  337SOL    HW1 1159   0.825   3.074   3.753  0.8520 -0.5985  0.4441
  337SOL    HW2 1160   0.795   3.158   3.630 -0.4240 -0.3181  0.9346
  338SOL     OW 1161   0.557   3.354   1.234 -0.8850 -0.4048  0.2090
  338SOL    HW1 1162   0.502   3.353   1.155 -1.8365 -0.5281  0.8471
  338SOL    HW2 1163   0.591   3.265   1.240 -1.2902 -0.5628  0.2460
  339SOL     OW 1164   0.933   2.227   0.842 -0.4873  0.2985 -0.6412
  339SOL    HW1 1165   0.860   2.167   0.826 -0.0286 -0.3151 -0.4558
  339SOL    HW2 1166   1.011   2.175   0.827 -0.0665  0.6151  0.3493
  340SOL     OW 1167   0.930   3.301   1.750  0.4835  0.2733  0.2706
  340SOL    HW1 1168   0.873   3.335   1.819 -0.4827 -0.3664 -0.1994
  340SOL    HW2 1169   0.992   3.244   1.795  1.1795  1.4505  0.8675
  341SOL     OW 1170   1.148   1.824   2.312  0.4059 -0.2205  0.6407
  341SOL    HW1 1171   1.166   1.730   2.310  0.9966 -0.1647 -2.7776
  341SOL    HW2 1172   1.139   1.849   2.220 -2.3731  2.6268  1.5005
  342SOL     OW 1173   0.048   2.878   2.900  0.0619  0.2789  0.4495
  342SOL    HW1 1174   0.099   2.953   2.931 -1.1037  1.0273  0.6486
  342SOL    HW2 1175  -0.037   2.889   2.943 -1.1906  0.6064 -1.9634
  343SOL     OW 1176   0.303   0.945   3.251 -0.3839  0.3650  0.1551
  343SOL    HW1 1177   0.389   0.904   3.265  0.6278  2.3464  0.1465
  343SOL    HW2 1178   0.288   0.937   3.157  0.3170  0.9132 -0.0178
  344SOL     OW 1179   2.737   1.438   2.998  0.2618 -0.1571  0.5165
  344SOL    HW1 1180   2.822   1.424   3.040 -0.4213 -1.4300  1.5408
  344SOL    HW2 1181   2.693   1.503   3.054 -0.0456 -0.6898  0.9011
  345SOL     OW 1182   0.553   1.005   2.985  0.2355 -0.0002  0.2347
  345SOL    HW1 1183   0.482   1.044   3.037  0.1367 -0.6214  0.5684
  345SOL    HW2 1184   0.627   1.065   2.997  0.4460 -0.5193  1.7047
  346SOL     OW 1185   1.448   3.655   0.518 -0.6205  0.4435  0.9345
  346SOL    HW1 1186   1.381   3.721   0.500 -1.0928 -0.3571 -0.4137
  346SOL    HW2 1187   1.420   3.614   0.599 -1.7827  0.1474  0.4119
  347SOL     OW 1188   2.998   2.936   3.103 -0.2497  0.1548  0.8468
  347SOL    HW1 1189   2.904   2.919   3.112 -0.2781 -0.9897 -1.0125
  347SOL    HW2 1190   3.003   3.029   3.078 -0.9605  0.0228  0.1650
  348SOL     OW 1191   3.402   0.157   2.718 -0.4242  0.2692 -0.0755
  348SOL    HW1 1192   3.407   0.129   2.809 -1.0223  0.2868 -0.0305
  348SOL    HW2 1193   3.489   0.192   2.698  0.5534 -2.0708 -0.2721
  349SOL     OW 1194   3.015   0.713   1.610  0.8759 -0.4330 -0.4588
  349SOL    HW1 1195   2.958   0.651   1.563  1.3242 -0.2133 -1.3054
  349SOL    HW2 1196   3.029   0.785   1.548  0.3091  0.5683  0.5352
  350SOL     OW 1197   3.397   2.263   0.781  0.4631 -0.2480  0.0821
  350SOL    HW1 1198   3.374   2.191   0.839  0.1699  2.3342  3.4591
  350SOL    HW2 1199   3.492   2.256   0.770  0.3776 -1.3708 -0.0514
  351SOL     OW 1200   1.860   2.728   3.634 -0.3711  0.5525  0.0764
  351SOL    HW1 1201   1.917   2.744   3.710 -0.4565 -0.5180  0.3801
  351SOL    HW2 1202   1.777   2.771   3.657 -0.6589 -0.4302  0.9571
  352SOL     OW 1203   3.163   3.213   1.033  0.5849  0.1481  0.5520
  352SOL    HW1 1204   3.180   3.261   1.114  1.2488 -0.3938  0.7474
  352SOL    HW2 1205   3.244   3.220   0.984  0.2500  0.3059  0.0158
  353SOL     OW 1206   2.182   0.575   3.717 -0.3892 -0.3565  0.2049
  353SOL    HW1 1207   2.168   0.556   3.624  0.0917 -0.2418  0.1060
  353SOL    HW2 1208   2.177   0.490   3.760 -0.9036 -0.3737  0.1115
  354SOL     OW 1209   2.204   3.033   1.625  0.7318 -0.2701 -0.2900
  354SOL    HW1 1210   2.141   3.014   1.695 -1.8626 -0.4138 -2.5045
  354SOL    HW2 1211   2.281   2.982   1.648  0.0561 -0.1828  2.5123
  355SOL     OW 1212   1.300   1.186   2.995 -0.4234  0.3025 -0.5579
  355SOL    HW1 1213   1.380   1.140   3.017 -1.1120  0.0272  1.5935
  355SOL    HW2 1214   1.298   1.187   2.899  3.1109  2.0924 -0.7515
  356SOL     OW 1215   1.584   0.338   1.877 -0.6385 -0.0175 -0.1788
  356SOL    HW1 1216   1.597   0.298   1.792  1.1006  1.8817 -0.8933
  356SOL    HW2 1217   1.613   0.272   1.940 -0.6714 -0.9481 -1.1282
  357SOL     OW 1218   2.298   1.341   2.223 -0.0109 -0.0583 -0.5015
  357SOL    HW1 1219   2.370   1.310   2.278  1.6212  1.3900 -1.7165
  357SOL    HW2 1220   2.264   1.418   2.268  0.1179  0.0589 -0.6030
  358SOL     OW 1221   2.724   2.814   3.023  0.2460 -0.3815 -0.3985
  358SOL    HW1 1222   2.638   2.854   3.038  0.5699 -0.2103  1.1339
  358SOL    HW2 1223   2.734   2.751   3.095  1.8424  0.3573  0.0718
  359SOL     OW 1224   3.552   0.934   3.718  0.1933  0.6478 -0.4951
  359SOL    HW1 1225   3.637   0.942   3.675  0.1602 -0.6316 -0.8568
  359SOL    HW2 1226   3.560   0.856   3.772 -1.2319 -0.4564 -1.7693
  360SOL     OW 1227   2.108   2.547   1.025 -0.1441 -0.0340  0.0777
  360SOL    HW1 1228   2.018   2.578   1.038 -0.7283 -0.9554 -1.4686
  360SOL    HW2 1229   2.163   2.622   1.050 -1.3284  0.5217  1.1204
  361SOL     OW 1230   1.767   1.048   1.994 -0.2337  0.0128 -0.7242
  361SOL    HW1 1231   1.712   1.090   1.927 -0.3518 -0.6227 -1.0329
  361SOL    HW2 1232   1.800   0.969   1.952  0.1661 -0.0915 -0.2223
  362SOL     OW 1233   0.814   2.256   3.400  0.3543 -0.0421  0.4766
  362SOL    HW1 1234   0.737   2.231   3.451  0.8312 -1.2522  0.6364
  362SOL    HW2 1235   0.786   2.332   3.349 -2.2068 -2.6229 -2.3651
  363SOL     OW 1236   3.237   2.981   1.571 -0.0097 -0.3503 -0.1951
  363SOL    HW1 1237   3.191   3.019   1.647  0.4888 -0.5226  0.1999
  363SOL    HW2 1238   3.246   2.889   1.593  1.2401 -0.1767  0.1083
  364SOL     OW 1239   1.454   1.727   0.301 -0.3245 -0.7703 -0.1851
  364SOL    HW1 1240   1.449   1.635   0.329 -0.6316 -0.2357  1.6736
  364SOL    HW2 1241   1.393   1.773   0.359  0.2377  0.6885 -0.7055
  365SOL     OW 1242   1.028   0.387   0.806 -0.1437 -0.4141 -0.2066
  365SOL    HW1 1243   1.087   0.315   0.782 -0.8045 -0.9640 -0.2061
  365SOL    HW2 1244   0.940   0.352   0.792 -0.5040 -0.0555  1.0260
  366SOL     OW 1245   0.477   2.491   0.105  0.1996  0.1493  0.6201
  366SOL    HW1 1246   0.569   2.517   0.115 -0.2312  1.3013  2.0567
  366SOL    HW2 1247   0.428   2.573   0.110 -1.0219 -0.6001  2.1073
  367SOL     OW 1248   2.532   3.501   3.275  0.7854 -0.2987 -0.4217
  367SOL    HW1 1249   2.539   3.423   3.330  1.0305 -1.9948 -2.6660
  367SOL    HW2 1250   2.618   3.508   3.232  0.2654  0.2778 -1.4058
  368SOL     OW 1251   2.738   3.153   1.827 -0.0896 -0.1958  0.3604
  368SOL    HW1 1252   2.677   3.104   1.772  0.7980 -1.2650  0.2996
  368SOL    HW2 1253   2.824   3.136   1.789  0.5171 -0.7462  1.9055
  369SOL     OW 1254   2.912   0.530   0.513 -0.1143 -0.2881  0.2087
  369SOL    HW1 1255   2.896   0.621   0.535 -0.5414  0.4396 -2.6475
  369SOL    HW2 1256   3.000   0.512   0.546  0.8516  1.8621 -0.9474
  370SOL     OW 1257   1.756   2.829   1.773  0.7994 -0.0096  0.3968
  370SOL    HW1 1258   1.684   2.773   1.742 -0.2649  1.4277  0.1550
  370SOL    HW2 1259   1.804   2.774   1.835  1.4168 -2.0912 -1.7902
  371SOL     OW 1260   3.400   2.014   0.562  0.6269 -0.2132 -0.3039
  371SOL    HW1 1261   3.369   1.929   0.529  1.0531 -1.3975  2.1233
  371SOL    HW2 1262   3.467   1.992   0.627  1.0790  2.0092  0.0677
  372SOL     OW 1263   3.112   2.112   3.115 -0.3956 -0.5677  0.1749
  372SOL    HW1 1264   3.085   2.187   3.062 -1.5440 -1.3712 -0.4168
  372SOL    HW2 1265   3.033   2.084   3.160  0.0352 -1.3837  0.4556
  373SOL     OW 1266   2.314   2.338   1.017 -0.1598 -0.8269 -0.2512
  373SOL    HW1 1267   2.404   2.364   1.036 -0.4991 -0.6304  1.2209
  373SOL    HW2 1268   2.261   2.411   1.048 -0.9763 -2.0807  1.5056
  374SOL     OW 1269   3.003   3.500   2.546  0.4287 -0.1720  0.0643
  374SOL    HW1 1270   3.072   3.482   2.483  1.0434  1.6097  0.1675
  374SOL    HW2 1271   2.941   3.555   2.498  0.7614  0.9676  0.9012
  375SOL     OW 1272   1.235   2.145   2.658 -0.0889  0.1452  0.2402
  375SOL    HW1 1273   1.186   2.227   2.649 -0.8744 -0.0087  2.5754
  375SOL    HW2 1274   1.195   2.101   2.732  3.1552 -0.3261  1.8860
  376SOL     OW 1275   2.639   2.485   1.913  0.1970 -0.0808  0.1208
  376SOL    HW1 1276   2.662   2.562   1.964 -0.4059  1.5219 -1.8967
  376SOL    HW2 1277   2.685   2.495   1.830 -1.5532 -0.7631 -1.0131
  377SOL     OW 1278   0.908   1.514   2.969  0.2568 -0.3945 -0.0661
  377SOL    HW1 1279   0.906   1.588   2.909 -1.9527 -0.4501 -0.1404
  377SOL    HW2 1280   0.849   1.539   3.040 -0.3532 -1.9600  0.0331
  378SOL     OW 1281   1.948   1.124   3.652  0.2458  0.0263 -0.2102
  378SOL    HW1 1282   2.007   1.180   3.600 -1.0582  1.3843 -0.3020
  378SOL    HW2 1283   1.894   1.080   3.587 -0.9394  1.2199 -0.0799
  379SOL     OW 1284   0.246   3.614   0.420 -0.3044 -0.1791 -0.6702
  379SOL    HW1 1285   0.299   3.694   0.425  0.6794 -0.7943 -0.9527
  379SOL    HW2 1286   0.216   3.599   0.509 -1.2737  1.0037 -0.7711
  380SOL     OW 1287   2.623   2.095   0.243 -0.1017 -0.0076  0.2748
  380SOL    HW1 1288   2.594   2.025   0.184  1.3436 -1.5226  1.2568
  380SOL    HW2 1289   2.718   2.086   0.246  0.0023  1.1832  1.4280
  381SOL     OW 1290   1.957   1.887   1.202  0.0638  0.6274  0.3262
  381SOL    HW1 1291   2.005   1.969   1.213  0.2868  0.2390  2.8213
  381SOL    HW2 1292   2.005   1.840   1.134  1.0156  1.7771  0.1698
  382SOL     OW 1293   1.242   2.268   1.867 -0.3081 -0.1268  0.1635
  382SOL    HW1 1294   1.186   2.222   1.804 -0.7186  1.3076 -0.5611
  382SOL    HW2 1295   1.326   2.276   1.822 -0.6803  1.1374 -0.3477
  383SOL     OW 1296   1.005   1.058   3.045 -0.0848  0.0419  0.1923
  383SOL    HW1 1297   1.074   1.084   2.984 -1.9683  0.9075 -1.7214
  383SOL    HW2 1298   1.008   0.962   3.045  1.5419  0.0608  0.7382
  384SOL     OW 1299   2.219   2.446   1.987  0.2509  0.1565 -0.2740
  384SOL    HW1 1300   2.128   2.418   1.986  0.0719  0.4915  1.9145
  384SOL    HW2 1301   2.253   2.422   1.901 -1.9658  0.2817 -1.2314
  385SOL     OW 1302   1.431   3.458   0.116 -0.2930 -0.7640  0.2295
  385SOL    HW1 1303   1.452   3.523   0.183 -0.8279 -1.3262  0.9609
  385SOL    HW2 1304   1.514   3.416   0.096 -0.2672 -1.1721  1.1661
  386SOL     OW 1305   2.045   3.605   0.319 -0.0764  1.2260 -0.0721
  386SOL    HW1 1306   2.058   3.612   0.225 -1.9336  1.6241 -0.3262
  386SOL    HW2 1307   1.981   3.673   0.340 -0.4541  0.4870  1.3007
  387SOL     OW 1308   0.872   0.802   1.942  0.1002  0.2756 -0.1151
  387SOL    HW1 1309   0.915   0.879   1.905 -1.9887  1.0120 -1.1286
  387SOL    HW2 1310   0.781   0.808   1.913 -1.3266 -0.0370  3.7271
  388SOL     OW 1311   0.431   1.171   2.230  0.0668 -0.7976 -0.6239
  388SOL    HW1 1312   0.358   1.173   2.167 -0.0489  1.2285 -0.4700
  388SOL    HW2 1313   0.390   1.191   2.314  0.5006 -1.7453 -0.1723
  389SOL     OW 1314   1.764   3.646   1.836 -0.1693 -0.2187 -0.1326
  389SOL    HW1 1315   1.695   3.620   1.897  1.7399 -0.5135  2.0461
  389SOL    HW2 1316   1.750   3.590   1.760 -1.9028 -0.7731  0.5408
  390SOL     OW 1317   0.923   0.728   0.363 -0.0936  0.3780  0.2157
  390SOL    HW1 1318   0.875   0.676   0.427 -3.3037  3.8105  0.9579
  390SOL    HW2 1319   1.014   0.724   0.392 -0.3416 -3.5032  0.9448
  391SOL     OW 1320   0.974   0.961   2.179 -0.2219 -0.0803 -0.4251
  391SOL    HW1 1321   1.045   0.903   2.151  2.0766  1.3572  1.9638
  391SOL    HW2 1322   0.904   0.902   2.207  1.2114 -1.6524 -0.0290
  392SOL     OW 1323   1.425   1.503   3.581 -0.5975 -0.0471 -0.0352
  392SOL    HW1 1324   1.458   1.539   3.663  0.7043  0.7316 -0.8634
  392SOL    HW2 1325   1.464   1.416   3.575 -0.8078 -0.1611  0.2330
  393SOL     OW 1326   1.864   0.562   0.272 -0.1865 -0.3445  0.2703
  393SOL    HW1 1327   1.800   0.554   0.201  1.9465 -0.5858 -1.7453
  393SOL    HW2 1328   1.922   0.633   0.245  0.5320 -0.2406  1.9462
  394SOL     OW 1329   0.144   2.286   3.307 -0.1879  0.4543  0.0286
  394SOL    HW1 1330   0.092   2.247   3.378  0.2988  1.2805  0.8625
  394SOL    HW2 1331   0.086   2.285   3.231 -0.4781 -1.1170  0.2350
  395SOL     OW 1332   1.351   2.541   2.244  0.3090 -0.7413  0.5822
  395SOL    HW1 1333   1.417   2.501   2.187  0.3425  0.6791 -0.4212
  395SOL    HW2 1334   1.375   2.633   2.247 -0.8528 -0.4459  1.3097
  396SOL     OW 1335   1.787   3.355   0.246  0.1573 -0.1296  0.3409
  396SOL    HW1 1336   1.767   3.362   0.340 -0.8838  1.7285  0.0228
  396SOL    HW2 1337   1.795   3.446   0.216  1.6680 -0.7090 -1.1463
  397SOL     OW 1338   2.556   2.491   2.473 -0.3799  0.2305  0.3056
  397SOL    HW1 1339   2.503   2.519   2.399 -2.3031  0.4890  1.7109
  397SOL    HW2 1340   2.514   2.411   2.505  1.3281 -0.7627  0.2065
  398SOL     OW 1341   2.428   2.251   2.504  0.0000  0.5967 -0.8120
  398SOL    HW1 1342   2.357   2.247   2.567 -2.1714 -1.3842 -3.1555
  398SOL    HW2 1343   2.498   2.198   2.542 -1.1582 -0.3889  0.0103
  399SOL     OW 1344   2.382   2.780   0.042  0.0936 -0.1923  0.1613
  399SOL    HW1 1345   2.415   2.789   0.132  0.0299  1.5604  0.0433
  399SOL    HW2 1346   2.289   2.803   0.049 -0.0891 -0.7970 -0.2396
  400SOL     OW 1347   1.871   2.111   2.549  0.7920 -0.1856  0.6500
  400SOL    HW1 1348   1.943   2.100   2.488  2.9887  0.4059  2.9319
  400SOL    HW2 1349   1.826   2.027   2.550  1.0482 -0.3884 -1.2450
  401SOL     OW 1350   0.164   3.160   2.249 -0.3177  0.1098 -0.2585
  401SOL    HW1 1351   0.129   3.178   2.162 -0.2433  0.5285 -0.2054
  401SOL    HW2 1352   0.259   3.165   2.237 -0.2790 -0.6164 -0.3173
  402SOL     OW 1353   1.122   2.756   3.243  0.1070 -0.1090  0.1627
  402SOL    HW1 1354   1.180   2.717   3.308  0.4167 -2.1405 -1.2262
  402SOL    HW2 1355   1.051   2.693   3.232  0.7275 -0.4976 -2.3336
  403SOL     OW 1356   2.598   3.589   1.349  0.5575  0.8801 -0.2265
  403SOL    HW1 1357   2.541   3.653   1.308 -0.7000  0.3394  0.6265
  403SOL    HW2 1358   2.543   3.545   1.414  2.3748  1.4989  1.8777
  404SOL     OW 1359   0.657   1.893   3.480 -0.0554 -0.1225 -0.1393
  404SOL    HW1 1360   0.680   1.835   3.552 -2.3169 -0.0801  0.7028
  404SOL    HW2 1361   0.644   1.978   3.520 -1.2558 -0.0781 -0.5652
  405SOL     OW 1362   2.866   0.135   0.704  0.2549 -0.6106 -0.0113
  405SOL    HW1 1363   2.839   0.146   0.795  1.1284  0.1696  0.1690
  405SOL    HW2 1364   2.939   0.073   0.709  1.6037  0.9203  0.0757
  406SOL     OW 1365   2.943   1.726   0.811  0.0423 -0.2416  0.4818
  406SOL    HW1 1366   2.855   1.753   0.787  0.1750  0.6710  0.9695
  406SOL    HW2 1367   2.998   1.755   0.738  0.1374  0.5355  0.8528
  407SOL     OW 1368   0.625   1.436   1.595 -0.4954  0.2095 -0.4117
  407SOL    HW1 1369   0.545   1.386   1.577 -0.7120  0.0803  0.8649
  407SOL    HW2 1370   0.599   1.527   1.582 -0.8910  0.1771  0.1019
  408SOL     OW 1371   3.434   2.801   0.332  0.3267  0.4227  0.4625
  408SOL    HW1 1372   3.505   2.793   0.396 -0.8124  1.4789  1.9034
  408SOL    HW2 1373   3.354   2.804   0.384 -0.6502  1.3217 -1.0160
  409SOL     OW 1374   1.941   0.192   3.189  0.4686  0.3828  0.2501
  409SOL    HW1 1375   1.898   0.110   3.214 -0.0370 -0.2392 -2.3011
  409SOL    HW2 1376   2.034   0.171   3.185  0.4280  0.1705  0.4175
  410SOL     OW 1377   0.137   0.604   2.292  0.2002  0.1460 -0.4149
  410SOL    HW1 1378   0.159   0.552   2.214 -3.4823 -1.2742 -0.7430
  410SOL    HW2 1379   0.119   0.539   2.360 -1.0022  1.1355  0.2564
  411SOL     OW 1380   3.577   0.817   0.382  0.1182  0.0223  0.0594
  411SOL    HW1 1381   3.554   0.731   0.348 -0.2976 -0.0776  0.5870
  411SOL    HW2 1382   3.619   0.861   0.308  2.1070 -1.2912  0.3424
  412SOL     OW 1383   1.828   0.303   2.253 -0.0694  0.1104 -0.2387
  412SOL    HW1 1384   1.875   0.338   2.177 -0.9339  1.6812 -0.0886
  412SOL    HW2 1385   1.870   0.343   2.329  0.0964 -0.6130  0.0571
  413SOL     OW 1386   1.191   3.301   0.162  0.2018  0.3494 -0.0706
  413SOL    HW1 1387   1.196   3.267   0.072 -1.7194  3.8918 -1.7096
  413SOL    HW2 1388   1.275   3.346   0.175  0.4536 -0.1052 -0.0877
  414SOL     OW 1389   2.142   1.462   3.155 -0.1667 -0.1309  0.0343
  414SOL    HW1 1390   2.099   1.420   3.081 -1.0164  1.1069 -0.1854
  414SOL    HW2 1391   2.082   1.530   3.184  1.2359  1.0513  0.2976
  415SOL     OW 1392   2.061   1.755   1.886 -0.2083 -0.1684 -0.8426
  415SOL    HW1 1393   2.028   1.725   1.970  0.4054  2.9505  0.6629
  415SOL    HW2 1394   2.156   1.748   1.893 -0.0950  1.0895 -0.7865
  416SOL     OW 1395   1.215   2.259   0.490 -0.2215  0.6166  0.4929
  416SOL    HW1 1396   1.184   2.177   0.529  1.2325  0.1148  0.6322
  416SOL    HW2 1397   1.205   2.324   0.560 -0.0498  0.2627  0.8473
  417SOL     OW 1398   1.128   3.620   0.271  0.0066 -0.4838  0.2952
  417SOL    HW1 1399   1.168   3.544   0.314  1.8902  0.5589  0.4706
  417SOL    HW2 1400   1.172   3.625   0.186 -0.1856  0.3406  0.2411
  418SOL     OW 1401   0.018   3.297   0.210 -0.7192 -0.0781 -0.7644
  418SOL    HW1 1402   0.030   3.203   0.229 -0.1982 -0.2266 -1.7508
  418SOL    HW2 1403   0.107   3.330   0.201 -0.8928  0.6199  0.0408
  419SOL     OW 1404   3.044   0.871   0.961  0.4828  0.1305 -0.4268
  419SOL    HW1 1405   3.036   0.797   1.022 -0.2998  0.1846 -0.4611
  419SOL    HW2 1406   3.120   0.849   0.907  1.0480 -0.0301  0.4091
  420SOL     OW 1407   3.012   1.514   2.145 -0.0614  0.6264  0.0186
  420SOL    HW1 1408   3.044   1.581   2.205 -0.9914  0.2332  0.9871
  420SOL    HW2 1409   3.048   1.432   2.179  1.1718  0.6087 -1.2324
  421SOL     OW 1410   0.823   2.253   1.703 -0.3507  0.4283  0.4265
  421SOL    HW1 1411   0.791   2.341   1.685  0.5683  0.8328  0.7344
  421SOL    HW2 1412   0.906   2.246   1.656  0.1878  0.1706  1.3745
  422SOL     OW 1413   3.512   0.073   2.356 -0.3495  0.2779 -0.9238
  422SOL    HW1 1414   3.598   0.072   2.314 -1.1186 -1.4410 -2.5807
  422SOL    HW2 1415   3.464   0.144   2.314 -0.2486  0.2451 -1.0911
  423SOL     OW 1416   0.841   1.203   1.253  0.3051 -0.6451 -0.7952
  423SOL    HW1 1417   0.865   1.232   1.342 -0.2080  2.2023 -1.4974
  423SOL    HW2 1418   0.767   1.144   1.267  0.4101 -0.4748  0.6893
  424SOL     OW 1419   3.378   3.275   3.714  0.2668 -0.4712  0.3641
  424SOL    HW1 1420   3.421   3.357   3.691  2.6156 -1.7118  0.0910
  424SOL    HW2 1421   3.357   3.284   3.808  0.1012  0.5651  0.2397
  425SOL     OW 1422   1.829   0.481   3.087  0.0798  0.7833 -0.2927
  425SOL    HW1 1423   1.828   0.452   3.178 -0.4419  0.6751 -0.3318
  425SOL    HW2 1424   1.767   0.554   3.084  1.1174  1.6965 -0.2710
  426SOL     OW 1425   2.391   1.738   3.502 -0.8240 -0.0740  0.4065
  426SOL    HW1 1426   2.371   1.742   3.408  0.5197 -1.2912  0.0354
  426SOL    HW2 1427   2.350   1.656   3.531 -0.5769 -0.0854  0.7205
  427SOL     OW 1428   2.015   2.857   2.638 -0.3874  0.3689 -0.1684
  427SOL    HW1 1429   2.071   2.812   2.575 -0.8343  0.0367 -0.3387
  427SOL    HW2 1430   1.981   2.933   2.590  2.3650  2.4182  0.8793
  428SOL     OW 1431   3.107   3.708   2.125 -0.3728  0.4512  0.2593
  428SOL    HW1 1432   3.087   3.730   2.034  0.5138 -1.1161 -0.3392
  428SOL    HW2 1433   3.060   3.775   2.176  1.7272  3.4483 -1.4037
  429SOL     OW 1434   2.682   1.379   1.717 -0.3096 -0.1759 -0.4606
  429SOL    HW1 1435   2.605   1.435   1.714 -0.3623 -0.2734 -1.1171
  429SOL    HW2 1436   2.753   1.436   1.746 -0.8870 -0.4057  1.5327
  430SOL     OW 1437   2.250   1.978   2.139 -0.4191 -0.1850 -0.0049
  430SOL    HW1 1438   2.310   2.039   2.183 -0.8142 -0.1493  0.5010
  430SOL    HW2 1439   2.217   2.028   2.064 -0.5937  0.1612  0.2968
  431SOL     OW 1440   2.463   1.169   0.368  0.5840  0.1650  0.1498
  431SOL    HW1 1441   2.399   1.240   0.365 -1.3175 -1.3592  1.9907
  431SOL    HW2 1442   2.522   1.193   0.440  0.6611  0.4277  0.0014
  432SOL     OW 1443   0.037   0.006   3.413  0.2784 -0.6438 -0.2344
  432SOL    HW1 1444   0.041  -0.054   3.339 -1.3010 -0.6886 -0.3156
  432SOL    HW2 1445   0.069   0.089   3.379  1.7582 -1.2256 -0.3263
  433SOL     OW 1446   0.066   3.389   0.602  0.2239 -0.2999 -0.0715
  433SOL    HW1 1447   0.119   3.358   0.676 -0.0236  1.0389  0.7052
  433SOL    HW2 1448   0.063   3.484   0.613 -3.9415 -0.3745  1.0423
  434SOL     OW 1449   2.492   2.432   1.548 -0.0232 -0.2601  0.5369
  434SOL    HW1 1450   2.400   2.458   1.551  0.5110  1.7118  1.5661
  434SOL    HW2 1451   2.531   2.487   1.480  0.8273  0.5621  1.6518
  435SOL     OW 1452   2.275   1.607   1.681 -0.4444 -0.2543 -0.3070
  435SOL    HW1 1453   2.352   1.578   1.730  0.0182  1.9267  0.4007
  435SOL    HW2 1454   2.212   1.535   1.689  0.4621 -0.9042  1.5780
  436SOL     OW 1455   0.650   2.939   2.121  0.3274  0.2868  0.2525
  436SOL    HW1 1456   0.626   2.849   2.097 -2.9379  1.1987 -0.4998
  436SOL    HW2 1457   0.685   2.977   2.040  0.6989  0.0014  0.2770
  437SOL     OW 1458   1.381   1.856   3.718  0.0163 -0.0449 -0.4595
  437SOL    HW1 1459   1.315   1.925   3.712  0.6543  0.7239  0.9148
  437SOL    HW2 1460   1.458   1.892   3.676 -0.0920 -0.5125 -1.0707
  438SOL     OW 1461   0.352   2.720   1.335  0.1120 -0.3431  0.1661
  438SOL    HW1 1462   0.342   2.778   1.410 -0.6166 -0.3994  0.1242
  438SOL    HW2 1463   0.443   2.730   1.308  0.6343 -0.9763  1.5929
  439SOL     OW 1464   0.339   2.176   0.698  0.2280  0.6062  0.1775
  439SOL    HW1 1465   0.258   2.154   0.652 -0.1663 -2.1399  1.9293
  439SOL    HW2 1466   0.332   2.131   0.782  3.1116  1.1906  0.8421
  440SOL     OW 1467   0.554   1.280   2.522 -0.4623 -0.3297 -0.1195
  440SOL    HW1 1468   0.585   1.340   2.589 -0.0214 -0.0959 -0.5216
  440SOL    HW2 1469   0.624   1.279   2.457 -1.3404  0.2889 -1.1046
  441SOL     OW 1470   3.063   1.366   0.654  0.0542 -0.6539  0.1477
  441SOL    HW1 1471   2.986   1.347   0.708  0.2506  2.2345  1.6370
  441SOL    HW2 1472   3.118   1.288   0.663 -1.4306 -1.6125  1.4158
  442SOL     OW 1473   0.303   0.469   1.761  0.4035 -0.2106  0.0056
  442SOL    HW1 1474   0.278   0.379   1.784  0.3835 -0.2572 -0.1955
  442SOL    HW2 1475   0.255   0.524   1.823 -1.7589 -0.1784 -1.5807
  443SOL     OW 1476   2.110   2.883   0.067 -0.0659 -0.3484 -0.0912
  443SOL    HW1 1477   2.168   2.956   0.045  0.1344 -0.1846  0.9408
  443SOL    HW2 1478   2.062   2.912   0.144 -1.0551 -0.7463 -0.5373
  444SOL     OW 1479   0.348   0.168   3.251  0.3005  0.5631  0.4575
  444SOL    HW1 1480   0.366   0.121   3.332 -0.6368 -0.5598  0.0359
  444SOL    HW2 1481   0.402   0.123   3.186 -1.1049 -0.4105 -0.0800
  445SOL     OW 1482   1.481   1.514   3.031 -0.4576 -0.1724 -0.0261
  445SOL    HW1 1483   1.458   1.568   2.955 -1.0533  2.3264  1.7871
  445SOL    HW2 1484   1.404   1.459   3.046  0.3149 -1.9905 -2.1539
  446SOL     OW 1485   1.668   0.691   3.091  0.0995  0.0894  0.2398
  446SOL    HW1 1486   1.645   0.729   3.006  1.6780 -0.6169 -0.5456
  446SOL    HW2 1487   1.589   0.645   3.119 -0.8869  1.4752 -0.1749
  447SOL     OW 1488   2.868   2.093   1.439  0.0030 -0.2530 -0.2470
  447SOL    HW1 1489   2.914   2.163   1.486  0.6746 -0.0887 -1.1344
  447SOL    HW2 1490   2.776   2.117   1.446  0.1718  0.3246  0.0973
  448SOL     OW 1491   2.331   3.635   1.751  0.1106 -0.0630  0.2662
  448SOL    HW1 1492   2.298   3.715   1.709 -2.2376 -0.7685  0.6343
  448SOL    HW2 1493   2.254   3.579   1.761  1.2915 -1.5040  2.0067
  449SOL     OW 1494   0.155   2.435   3.567  0.0417  0.6389  0.0327
  449SOL    HW1 1495   0.073   2.408   3.609 -0.1528 -0.4191 -0.9762
  449SOL    HW2 1496   0.223   2.390   3.617 -0.1524 -0.1738 -0.4116
  450SOL     OW 1497   0.670   3.176   1.944 -0.4179  0.3948  0.2587
  450SOL    HW1 1498   0.622   3.142   1.868  0.4195  1.2259 -0.6784
  450SOL    HW2 1499   0.687   3.268   1.921  0.5231  0.4423  1.1179
  451SOL     OW 1500   1.144   1.225   1.128  0.1226  0.1064  0.5375
  451SOL    HW1 1501   1.122   1.155   1.066  0.3724  1.0304 -0.6213
  451SOL    HW2 1502   1.075   1.220   1.195 -0.3713 -0.6646 -0.0059
  452SOL     OW 1503   1.265   1.141   0.793 -0.0492  0.4343 -0.2060
  452SOL    HW1 1504   1.355   1.129   0.821  0.3795 -1.7783 -2.1650
  452SOL    HW2 1505   1.220   1.062   0.824 -0.5849  0.1386 -1.6412
  453SOL     OW 1506   1.212   1.685   3.585  0.1930 -0.1702  0.1914
  453SOL    HW1 1507   1.256   1.736   3.653 -0.3241 -1.1258  1.2763
  453SOL    HW2 1508   1.267   1.609   3.571 -0.1758 -0.4483  0.2216
  454SOL     OW 1509   2.608   0.887   3.667  0.1331  0.0829  0.1516
  454SOL    HW1 1510   2.585   0.952   3.734  0.4357 -0.6702  1.0143
  454SOL    HW2 1511   2.701   0.869   3.683 -0.2229 -1.3884  0.6766
  455SOL     OW 1512   2.215   0.095   1.392 -0.2696  0.0933  0.3066
  455SOL    HW1 1513   2.268   0.174   1.386  0.0978  0.0745  2.5229
  455SOL    HW2 1514   2.264   0.029   1.342  0.4099  0.7585  0.0787
  456SOL     OW 1515   0.620   3.455   1.860  0.4318 -0.7291  0.1809
  456SOL    HW1 1516   0.651   3.516   1.928 -0.6008  1.0281 -0.8455
  456SOL    HW2 1517   0.637   3.501   1.778  0.3553 -2.2155 -0.6994
  457SOL     OW 1518   0.318   3.256   0.436 -1.1572 -0.0298  0.1600
  457SOL    HW1 1519   0.231   3.283   0.466 -1.8381 -1.0752 -0.7682
  457SOL    HW2 1520   0.368   3.337   0.432 -1.0386  0.2468  3.8482
  458SOL     OW 1521   0.712   1.547   2.329 -0.1485  0.4805  0.0525
  458SOL    HW1 1522   0.769   1.500   2.390 -1.2426 -2.2310 -0.8783
  458SOL    HW2 1523   0.637   1.573   2.382  1.1268  2.7638  0.9334
  459SOL     OW 1524   1.619   2.845   3.661 -0.0864 -0.1951  0.3127
  459SOL    HW1 1525   1.582   2.922   3.702 -0.7368 -0.7270  0.7362
  459SOL    HW2 1526   1.575   2.771   3.702 -0.7404 -0.7493 -1.3067
  460SOL     OW 1527   0.183   2.461   2.719 -0.1882  0.5613 -0.5937
  460SOL    HW1 1528   0.142   2.503   2.794  2.6119  2.6196 -0.0405
  460SOL    HW2 1529   0.194   2.531   2.655 -0.5756 -0.6801 -2.1013
  461SOL     OW 1530   0.596   2.996   1.547  0.0779  0.3658  0.4774
  461SOL    HW1 1531   0.537   3.071   1.560 -0.3391  0.6825 -2.5086
  461SOL    HW2 1532   0.543   2.920   1.573 -1.0477  0.7981 -0.4355
  462SOL     OW 1533   2.767   2.929   3.373 -0.1198  0.4279 -0.0694
  462SOL    HW1 1534   2.687   2.886   3.404 -2.8320  2.6670 -3.2287
  462SOL    HW2 1535   2.830   2.858   3.365 -1.4416 -1.3444  3.2743
  463SOL     OW 1536   2.366   0.906   0.829 -0.1098 -0.4111 -0.4345
  463SOL    HW1 1537   2.381   0.814   0.806 -0.9403 -0.7601  0.3401
  463SOL    HW2 1538   2.346   0.948   0.745  1.3720 -0.6833 -0.9558
  464SOL     OW 1539   2.080   3.486   3.740 -0.8797 -0.0687 -0.5938
  464SOL    HW1 1540   1.997   3.452   3.706 -0.0070 -2.2804 -0.6790
  464SOL    HW2 1541   2.123   3.525   3.664 -1.2045 -0.2574 -0.8798
  465SOL     OW 1542   1.240   0.203   0.803 -0.1099  0.6782  0.1087
  465SOL    HW1 1543   1.267   0.132   0.745 -0.1508  0.7176  0.0428
  465SOL    HW2 1544   1.285   0.281   0.769 -0.9234  0.9022 -0.4685
  466SOL     OW 1545   1.809   3.678   3.284  0.5359  0.1883 -0.2580
  466SOL    HW1 1546   1.748   3.739   3.323 -3.0847 -2.4048 -1.2973
  466SOL    HW2 1547   1.777   3.591   3.309  3.2751 -1.4143 -1.6821
  467SOL     OW 1548   2.399   0.263   1.613 -0.4112  0.5424  0.2982
  467SOL    HW1 1549   2.339   0.334   1.634 -2.3853 -0.4838 -1.4320
  467SOL    HW2 1550   2.418   0.221   1.697 -2.8692  0.3816  0.8446
  468SOL     OW 1551   0.839   3.302   3.155  0.4234  0.1468 -0.2299
  468SOL    HW1 1552   0.895   3.271   3.225  0.2510 -0.4796 -0.3570
  468SOL    HW2 1553   0.850   3.237   3.085 -0.4581  0.0061 -0.2526
  469SOL     OW 1554   3.365   0.566  -0.001 -0.5365 -0.2651 -0.0756
  469SOL    HW1 1555   3.451   0.605   0.014 -0.4475 -0.4245 -0.1688
  469SOL    HW2 1556   3.303   0.631   0.031 -0.3574 -0.5492  0.8790
  470SOL     OW 1557   2.587   1.905   2.986  0.2800 -0.6951 -0.3291
  470SOL    HW1 1558   2.530   1.828   2.981 -2.0385  0.7920  0.8596
  470SOL    HW2 1559   2.537   1.974   2.942  1.2814  0.6398  0.5370
  471SOL     OW 1560   0.804   0.699   2.217 -0.3324 -0.7519  0.3654
  471SOL    HW1 1561   0.859   0.719   2.141 -1.0663  1.8434  0.4344
  471SOL    HW2 1562   0.808   0.603   2.224  2.6524 -0.8285 -0.7331
  472SOL     OW 1563   2.049   3.174   3.734 -0.7679  0.3098  0.2693
  472SOL    HW1 1564   1.968   3.164   3.684 -1.1788 -1.2473  1.1868
  472SOL    HW2 1565   2.116   3.132   3.680 -0.5998  1.2984 -0.3299
  473SOL     OW 1566   2.349   1.253   1.192  0.1346  0.2285 -0.4720
  473SOL    HW1 1567   2.279   1.317   1.185 -0.1762 -0.0562  0.0018
  473SOL    HW2 1568   2.349   1.207   1.108  1.5636  2.0546 -1.5596
  474SOL     OW 1569   2.349   1.754   0.558  0.1857  0.2136  0.3052
  474SOL    HW1 1570   2.409   1.825   0.581  1.0592 -0.0573 -1.0129
  474SOL    HW2 1571   2.289   1.793   0.494 -0.5521  0.2669  1.0193
  475SOL     OW 1572   1.381   0.401   2.807  0.1486 -0.1961  0.4828
  475SOL    HW1 1573   1.447   0.468   2.823  0.5321 -0.5583  0.4321
  475SOL    HW2 1574   1.299   0.450   2.797  0.4807  0.2889  0.0990
  476SOL     OW 1575   1.724   2.940   3.227 -0.0978  0.1093 -0.4164
  476SOL    HW1 1576   1.720   3.026   3.270  0.6156 -0.5797  1.0933
  476SOL    HW2 1577   1.816   2.930   3.203 -0.1971 -0.1973 -0.6694
  477SOL     OW 1578   2.506   2.778   3.401  0.1128 -0.2796 -0.5430
  477SOL    HW1 1579   2.431   2.819   3.357  1.0571  1.7085 -0.4030
  477SOL    HW2 1580   2.471   2.750   3.485 -1.7996 -4.3657 -2.3822
  478SOL     OW 1581   1.194   2.525   2.469  0.3107 -0.2002 -0.3512
  478SOL    HW1 1582   1.190   2.466   2.544  0.2249  1.2216  0.8015
  478SOL    HW2 1583   1.240   2.474   2.402 -1.4302 -2.2666 -0.1077
  479SOL     OW 1584   0.809   2.254   1.978  0.3551  0.1033 -0.0219
  479SOL    HW1 1585   0.789   2.259   1.885 -1.2935 -0.1195  0.2913
  479SOL    HW2 1586   0.869   2.327   1.994 -1.7293  2.0559 -0.6990
  480SOL     OW 1587   1.419   0.625   3.212 -0.4752  0.0956  0.1222
  480SOL    HW1 1588   1.364   0.605   3.136 -1.7559  0.7413  0.8603
  480SOL    HW2 1589   1.369   0.689   3.262  1.0855  0.9352  0.6771
  481SOL     OW 1590   1.183   1.550   0.398 -0.4439  0.6069  0.4054
  481SOL    HW1 1591   1.125   1.493   0.447 -1.4384  2.2378  1.1973
  481SOL    HW2 1592   1.251   1.491   0.364 -1.6560 -1.0927  0.7862
  482SOL     OW 1593   0.619   0.161   2.402 -0.2705 -0.1112 -0.9292
  482SOL    HW1 1594   0.602   0.156   2.497 -0.6366  0.8712 -0.9354
  482SOL    HW2 1595   0.554   0.223   2.370  0.3406  0.1264 -1.7170
  483SOL     OW 1596   3.546   0.350   3.066  0.2510  0.3571  0.0850
  483SOL    HW1 1597   3.470   0.405   3.082  0.3724  0.0812  1.7493
  483SOL    HW2 1598   3.510   0.263   3.050  0.1997  0.2036  0.9830
  484SOL     OW 1599   0.411   1.212   3.152  0.2316  0.3655  0.1200
  484SOL    HW1 1600   0.376   1.264   3.225 -1.6903 -0.4755 -0.1505
  484SOL    HW2 1601   0.423   1.275   3.081 -2.0731  0.5329 -0.2074
  485SOL     OW 1602   2.158   1.692   1.073  0.1505  0.5502 -0.2662
  485SOL    HW1 1603   2.139   1.600   1.056 -2.5616  0.8779  0.6200
  485SOL    HW2 1604   2.224   1.690   1.142 -1.3352 -0.7731  1.1944
  486SOL     OW 1605   0.486   0.399   2.247 -0.2375 -0.1531 -0.0425
  486SOL    HW1 1606   0.472   0.473   2.307  0.5207 -0.2503  0.2643
  486SOL    HW2 1607   0.574   0.413   2.212 -0.5176 -0.3261 -0.8282
  487SOL     OW 1608   1.916   2.882   3.041  0.7234  0.2742  0.0675
  487SOL    HW1 1609   1.993   2.827   3.024  0.7383 -0.3554  2.0021
  487SOL    HW2 1610   1.843   2.821   3.045  0.1302  0.8264 -1.3247
  488SOL     OW 1611   0.781   1.472   0.297 -0.4421 -0.0434  0.2708
  488SOL    HW1 1612   0.839   1.525   0.352  0.3944 -0.1204 -0.4998
  488SOL    HW2 1613   0.796   1.506   0.208  0.2446 -1.6710 -0.2661
  489SOL     OW 1614   1.068   1.955   3.428 -0.1534 -0.0091  0.1549
  489SOL    HW1 1615   1.104   1.927   3.512  0.3600 -0.5634 -0.2421
  489SOL    HW2 1616   1.000   1.891   3.408 -0.8395  0.5884  0.5281
  490SOL     OW 1617   1.234   0.081   0.533 -0.6229 -0.0108  0.0538
  490SOL    HW1 1618   1.166   0.131   0.488 -0.9836 -1.5164 -1.1826
  490SOL    HW2 1619   1.186   0.015   0.583 -0.1187 -1.3735 -1.1773
  491SOL     OW 1620   1.580   0.459   2.215  0.2864 -0.3279  0.0518
  491SOL    HW1 1621   1.525   0.514   2.159 -0.5437 -1.0743  0.1097
  491SOL    HW2 1622   1.638   0.413   2.155  1.3520  0.9904  0.0449
  492SOL     OW 1623   2.566   1.104   0.098 -0.2767  0.0268 -0.0346
  492SOL    HW1 1624   2.589   1.192   0.066  1.2641 -0.9669 -1.9340
  492SOL    HW2 1625   2.515   1.120   0.177  0.6850  2.6255  0.1904
  493SOL     OW 1626   1.142   3.146   3.670  0.2550 -0.4138 -0.3685
  493SOL    HW1 1627   1.170   3.101   3.590 -0.3654 -1.7318  0.1363
  493SOL    HW2 1628   1.049   3.163   3.656  0.3946  0.3710 -0.3823
  494SOL     OW 1629   1.157   0.940   2.430  0.7562 -0.2468  0.2423
  494SOL    HW1 1630   1.088   0.937   2.496  2.2227 -0.0025  1.8423
  494SOL    HW2 1631   1.128   0.878   2.363 -1.6733  0.8549  0.1602
  495SOL     OW 1632   1.373   0.068   2.157 -0.3011  0.0680  0.1787
  495SOL    HW1 1633   1.367   0.164   2.165  0.0113  0.1369 -0.3794
  495SOL    HW2 1634   1.458   0.047   2.196 -0.1174  0.0785 -0.2180
  496SOL     OW 1635   3.534   1.051   2.985 -0.4431  0.4842  0.3118
  496SOL    HW1 1636   3.459   1.020   3.035 -0.8363  0.7431 -0.1170
  496SOL    HW2 1637   3.605   1.055   3.049 -1.2145  1.9470  1.1174
  497SOL     OW 1638   0.588   0.163   0.027  0.2733 -0.9078  0.2509
  497SOL    HW1 1639   0.621   0.252   0.040  1.3687 -0.9793 -1.6976
  497SOL    HW2 1640   0.662   0.115  -0.008 -0.6843 -2.2559  0.0065
  498SOL     OW 1641   3.740   3.250   2.905  0.2141 -0.6900  0.1263
  498SOL    HW1 1642   3.728   3.231   2.812  2.5752  0.8451 -0.5795
  498SOL    HW2 1643   3.700   3.337   2.917  0.7163 -0.4815  0.3128
  499SOL     OW 1644   0.128   2.061   1.008 -0.2928  0.1384  0.4141
  499SOL    HW1 1645   0.191   2.123   1.046  1.1566  1.2137 -3.2656
  499SOL    HW2 1646   0.046   2.078   1.055  0.9942  2.1578  2.1121
  500SOL     OW 1647   3.360   2.238   3.258  0.4141 -0.9156 -0.1911
  500SOL    HW1 1648   3.289   2.218   3.320  0.4599 -1.5573 -0.3352
  500SOL    HW2 1649   3.434   2.263   3.313 -0.2619  0.9257 -0.0742
  501SOL     OW 1650   2.167   2.939   3.390 -0.2689  0.0811  0.1747
  501SOL    HW1 1651   2.232   2.963   3.324  0.0964 -1.3805 -0.0327
  501SOL    HW2 1652   2.095   3.001   3.375  1.3014  2.1991  0.8753
  502SOL     OW 1653   3.055   0.122   1.499  0.0390  0.0219  0.2287
  502SOL    HW1 1654   2.969   0.164   1.510 -0.2207 -0.5974  0.6563
  502SOL    HW2 1655   3.055   0.052   1.564  1.3185  0.7116  1.0120
  503SOL     OW 1656   3.202   1.093   1.135 -0.1963  0.0871 -1.0717
  503SOL    HW1 1657   3.165   1.025   1.079  0.7003 -1.8531  0.5727
  503SOL    HW2 1658   3.218   1.049   1.219 -0.3810  2.5655  0.3437
  504SOL     OW 1659   3.688   1.665   0.099  0.2133 -0.1973 -0.0589
  504SOL    HW1 1660   3.774   1.654   0.059  0.7584  0.8198  0.7876
  504SOL    HW2 1661   3.650   1.740   0.053  0.9472  1.1421  1.4283
  505SOL     OW 1662   3.235   2.963   1.096 -0.1447 -0.1506 -0.2297
  505SOL    HW1 1663   3.260   3.053   1.076  1.3664 -0.3279  0.7472
  505SOL    HW2 1664   3.165   2.971   1.161 -0.5174  0.3155 -0.6852
  506SOL     OW 1665   1.207   1.553   2.870  0.3612  0.7055 -0.4824
  506SOL    HW1 1666   1.181   1.499   2.795  4.2648 -0.9446 -0.8474
  506SOL    HW2 1667   1.144   1.531   2.938 -0.5746 -1.2499 -1.8829
  507SOL     OW 1668   0.865   2.328   1.269  0.1792 -0.1899 -0.8668
  507SOL    HW1 1669   0.892   2.240   1.294  1.0928  0.8112  1.9610
  507SOL    HW2 1670   0.943   2.368   1.231 -0.5114 -0.8286 -3.1805
  508SOL     OW 1671   0.406   0.404   0.480 -0.4838 -0.1474  0.1263
  508SOL    HW1 1672   0.429   0.460   0.555  0.4940  0.3315 -0.5128
  508SOL    HW2 1673   0.371   0.465   0.415 -0.3209 -0.4134 -0.2117
  509SOL     OW 1674   2.298   2.102   1.195  0.5149 -0.3425  0.1155
  509SOL    HW1 1675   2.314   2.184   1.148  0.7712 -0.9265 -0.8552
  509SOL    HW2 1676   2.260   2.044   1.129  0.6826 -1.1194  0.6876
  510SOL     OW 1677   2.831   0.501   2.465  0.0785  0.3778  0.1857
  510SOL    HW1 1678   2.840   0.580   2.412 -2.1131 -0.2856 -1.3461
  510SOL    HW2 1679   2.798   0.435   2.403  0.7600 -1.4169  1.6607
  511SOL     OW 1680   3.074   2.220   2.171 -0.0752  0.3534 -0.1409
  511SOL    HW1 1681   3.054   2.278   2.244  0.9862  0.7466 -0.1498
  511SOL    HW2 1682   3.002   2.156   2.171 -0.3032  0.5910  0.9865
  512SOL     OW 1683   3.104   3.443   1.449 -0.0199 -0.0349 -0.2828
  512SOL    HW1 1684   3.180   3.387   1.438  1.3235  2.0386 -2.6447
  512SOL    HW2 1685   3.029   3.385   1.434  1.1947 -1.6022 -0.5029
  513SOL     OW 1686   3.270   2.581   0.972 -0.0466 -0.0503  0.8074
  513SOL    HW1 1687   3.309   2.508   1.021  0.2645  0.4601  1.3424
  513SOL    HW2 1688   3.231   2.637   1.040  3.4563  2.5605  0.9624
  514SOL     OW 1689   0.294   1.075   3.485 -0.0741  0.1361  0.5248
  514SOL    HW1 1690   0.307   1.168   3.470  1.8616 -0.0092  1.0270
  514SOL    HW2 1691   0.281   1.038   3.398 -0.7980  0.8467  0.3210
  515SOL     OW 1692   3.286   3.349   0.224  0.1735 -0.0376  0.0643
  515SOL    HW1 1693   3.233   3.304   0.290  1.8749  0.0514  1.5532
  515SOL    HW2 1694   3.257   3.440   0.229  0.5425  0.0418  0.9820
  516SOL     OW 1695   0.599   0.696   1.477 -0.2578  0.0686 -0.2428
  516SOL    HW1 1696   0.653   0.618   1.493 -0.8821 -0.5999 -1.2840
  516SOL    HW2 1697   0.643   0.765   1.526  0.5509 -0.8413  0.3677
  517SOL     OW 1698   3.375   0.346   1.703  0.1397 -0.2281  0.3395
  517SOL    HW1 1699   3.426   0.346   1.784  0.5505  2.1375  0.1525
  517SOL    HW2 1700   3.439   0.329   1.635 -0.1369 -1.7989  0.4405
  518SOL     OW 1701   1.537   2.669   1.554  0.0202 -0.1894 -0.0037
  518SOL    HW1 1702   1.591   2.625   1.619 -0.4898 -0.2382  0.3891
  518SOL    HW2 1703   1.589   2.666   1.473 -1.2693 -4.4368 -0.9194
  519SOL     OW 1704   1.345   1.781   0.855 -0.2827  0.1711  0.1074
  519SOL    HW1 1705   1.356   1.708   0.916  1.2217 -1.0286 -1.5216
  519SOL    HW2 1706   1.274   1.753   0.797 -0.8567  0.7764  0.4948
  520SOL     OW 1707   3.293   3.693   2.575 -1.2323  0.0562  0.2932
  520SOL    HW1 1708   3.338   3.629   2.630 -3.0747  0.4843  2.4785
  520SOL    HW2 1709   3.340   3.775   2.591 -0.3306 -0.2634 -0.6433
  521SOL     OW 1710   2.869   1.839   0.458 -0.3536 -0.0726  0.3703
  521SOL    HW1 1711   2.849   1.933   0.462  0.5171  0.0858  2.4944
  521SOL    HW2 1712   2.829   1.804   0.538  0.8235 -1.1897  0.4890
  522SOL     OW 1713   1.012   2.741   0.865  0.2063 -0.2690  0.1077
  522SOL    HW1 1714   1.084   2.762   0.805 -1.0584 -1.0861 -1.8056
  522SOL    HW2 1715   1.014   2.646   0.872 -1.0782 -0.3671 -0.5387
  523SOL     OW 1716   3.627   3.705   3.136 -0.0155  0.2263  0.3760
  523SOL    HW1 1717   3.573   3.636   3.175 -0.0926  1.4526  2.5835
  523SOL    HW2 1718   3.616   3.780   3.194  1.2038  1.6692 -1.1556
  524SOL     OW 1719   3.314   1.520   0.338 -0.2699  0.1588 -0.0277
  524SOL    HW1 1720   3.330   1.437   0.383 -0.9330  0.0735  0.0683
  524SOL    HW2 1721   3.383   1.525   0.272 -0.5308 -0.7264 -0.3872
  525SOL     OW 1722   0.773   1.863   3.233  0.1086 -0.0535  0.0950
  525SOL    HW1 1723   0.863   1.839   3.256  0.1129  0.2536  0.4135
  525SOL    HW2 1724   0.736   1.897   3.315 -0.2077  0.0782 -0.1026
  526SOL     OW 1725   2.621   1.383   1.269  0.0184 -0.3297  0.0625
  526SOL    HW1 1726   2.685   1.415   1.332  0.2712  0.9910 -0.8211
  526SOL    HW2 1727   2.649   1.293   1.251 -0.8774 -1.2539  2.8045
  527SOL     OW 1728   3.401   3.586   3.741  0.0169  0.0848  0.3991
  527SOL    HW1 1729   3.459   3.621   3.673  1.2620 -1.7219  0.4566
  527SOL    HW2 1730   3.461   3.552   3.807 -1.0985 -1.4317  0.6788
  528SOL     OW 1731   1.693   2.549   1.734 -0.1882 -0.3116  0.5189
  528SOL    HW1 1732   1.726   2.497   1.660  2.5165 -0.2835  1.5920
  528SOL    HW2 1733   1.684   2.486   1.806 -1.4805 -0.0914  0.5714
  529SOL     OW 1734   1.730   1.655   3.088 -0.2886  0.1531 -0.3574
  529SOL    HW1 1735   1.709   1.742   3.122 -0.1211 -0.1743  0.6457
  529SOL    HW2 1736   1.645   1.614   3.073 -0.3733  0.7424 -1.5522
  530SOL     OW 1737   0.170   0.877   1.860  0.4104  0.1197 -0.4434
  530SOL    HW1 1738   0.211   0.819   1.924 -0.5503 -0.6033 -0.4725
  530SOL    HW2 1739   0.099   0.919   1.907 -0.4816 -0.6227 -1.0868
  531SOL     OW 1740   2.974   2.784   3.617 -0.2774 -0.0096  0.4513
  531SOL    HW1 1741   2.899   2.830   3.654 -1.0743  0.7657 -1.9621
  531SOL    HW2 1742   2.936   2.725   3.552  1.1849  0.3737 -0.8004
  532SOL     OW 1743   1.256   3.093   2.492 -0.7377 -0.5031 -0.3693
  532SOL    HW1 1744   1.211   3.009   2.506  0.9773 -1.6734 -1.5016
  532SOL    HW2 1745   1.331   3.090   2.551 -0.1514 -0.1856 -1.0810
  533SOL     OW 1746   0.697   2.435   3.224  0.3861 -0.0543 -0.3086
  533SOL    HW1 1747   0.612   2.443   3.267 -0.0833  0.3768 -1.2695
  533SOL    HW2 1748   0.675   2.422   3.132  1.3590  0.5803 -0.6440
  534SOL     OW 1749   0.033   0.945   0.218  0.5391 -0.1027  0.4728
  534SOL    HW1 1750   0.077   0.964   0.301  2.3765  2.1128 -0.8889
  534SOL    HW2 1751   0.102   0.951   0.152 -1.1210 -0.3314 -1.3723
  535SOL     OW 1752   0.831   1.682   2.744  0.2716  0.0902  0.3997
  535SOL    HW1 1753   0.903   1.653   2.688 -1.7054  1.5878 -3.2354
  535SOL    HW2 1754   0.860   1.767   2.779  2.1262 -1.5143  3.1581
  536SOL     OW 1755   2.116   0.082   1.021 -0.0482  0.1675  0.2276
  536SOL    HW1 1756   2.208   0.057   1.034 -0.1495  0.3311  1.3465
  536SOL    HW2 1757   2.109   0.096   0.927  0.3325 -2.7320 -0.3383
  537SOL     OW 1758   0.276   2.041   1.282  0.1345 -0.4739  0.4942
  537SOL    HW1 1759   0.219   2.085   1.345 -0.3973 -0.0210 -0.2856
  537SOL    HW2 1760   0.294   2.108   1.216 -0.3657 -1.3039 -0.5060
  538SOL     OW 1761   3.630   0.417   0.278  0.3287 -0.3607  0.2258
  538SOL    HW1 1762   3.725   0.413   0.266  0.6710  1.0548  1.9583
  538SOL    HW2 1763   3.616   0.386   0.368 -1.0057 -1.6618 -0.3822
  539SOL     OW 1764   2.687   1.496   0.992  0.3115 -0.5188 -0.0977
  539SOL    HW1 1765   2.599   1.532   0.975 -0.2064 -1.7534 -0.1480
  539SOL    HW2 1766   2.681   1.457   1.079  1.0283 -0.0157  0.1891
  540SOL     OW 1767   0.919   0.131   1.102  0.3527  0.1548  0.5894
  540SOL    HW1 1768   0.862   0.098   1.171 -0.7908 -1.2204 -0.9449
  540SOL    HW2 1769   0.997   0.161   1.148 -0.4434 -0.5316  2.4833
  541SOL     OW 1770   1.076   0.143   1.333 -0.1167  0.6476  0.2452
  541SOL    HW1 1771   0.988   0.153   1.370 -0.4467  0.4313 -0.4642
  541SOL    HW2 1772   1.128   0.106   1.405 -1.3018 -2.0195 -0.1572
  542SOL     OW 1773   0.882   2.935   2.606 -0.0199 -0.0211  0.2107
  542SOL    HW1 1774   0.959   2.878   2.601 -1.6385 -2.3038 -0.2639
  542SOL    HW2 1775   0.916   3.022   2.585  2.5241 -0.8177  0.6338
  543SOL     OW 1776   1.935   1.796   0.787 -0.3600  0.4148 -0.2800
  543SOL    HW1 1777   1.863   1.825   0.843 -0.4161  0.0342 -0.1526
  543SOL    HW2 1778   1.894   1.787   0.700 -0.5203 -0.0072 -0.1643
  544SOL     OW 1779   2.206   2.807   0.985 -0.0539 -0.2875  0.0519
  544SOL    HW1 1780   2.169   2.891   0.957 -0.5370 -0.5401 -0.0821
  544SOL    HW2 1781   2.288   2.800   0.936  0.4867  0.5584  0.8073
  545SOL     OW 1782   0.655   3.091   2.926  0.4342  0.0645 -0.2202
  545SOL    HW1 1783   0.645   3.044   2.843  0.3316 -1.1400  0.4601
  545SOL    HW2 1784   0.749   3.090   2.942  0.3898 -0.2934  0.0149
  546SOL     OW 1785   1.942   1.743   0.129 -0.4193  0.3507  0.1858
  546SOL    HW1 1786   1.884   1.740   0.205  1.4242  2.0439  1.7625
  546SOL    HW2 1787   1.974   1.653   0.121 -2.9059 -0.5481 -0.5295
  547SOL     OW 1788   1.293   3.499   1.418  0.3434  0.4169  0.2281
  547SOL    HW1 1789   1.267   3.424   1.472  0.6607 -1.0872 -1.5739
  547SOL    HW2 1790   1.219   3.512   1.359  1.0314  0.2602 -0.7049
  548SOL     OW 1791   0.637   1.080   3.354  0.3751  0.3536  0.5006
  548SOL    HW1 1792   0.582   1.053   3.281  0.4032 -0.3382  0.7249
  548SOL    HW2 1793   0.583   1.140   3.405 -0.2688 -0.5018  0.8471
  549SOL     OW 1794   3.247   0.848   0.778 -0.1357  0.7720 -0.3433
  549SOL    HW1 1795   3.327   0.897   0.794 -0.3582  1.4882 -1.3576
  549SOL    HW2 1796   3.221   0.872   0.689 -3.4223  3.4959  1.0787
  550SOL     OW 1797   0.823   3.604   3.353  0.3338 -0.0589 -0.4397
  550SOL    HW1 1798   0.745   3.613   3.298 -0.1651  0.2540  0.3043
  550SOL    HW2 1799   0.806   3.524   3.404 -0.7365  1.3841  1.6184
  551SOL     OW 1800   0.507   0.562   0.071 -0.2948 -0.3772 -0.0682
  551SOL    HW1 1801   0.448   0.534   0.141 -0.9011  3.3184  1.1055
  551SOL    HW2 1802   0.579   0.606   0.117  1.7547 -1.9096 -1.6466
  552SOL     OW 1803   1.361   0.914   2.110 -0.0340 -0.3458  0.4944
  552SOL    HW1 1804   1.287   0.974   2.105 -0.3475 -0.7029  0.8113
  552SOL    HW2 1805   1.330   0.841   2.163  0.4511 -0.6366  0.3885
  553SOL     OW 1806   1.864   3.576   2.219  0.5406 -0.0945  0.1189
  553SOL    HW1 1807   1.812   3.537   2.149  0.3615  0.5087 -0.0937
  553SOL    HW2 1808   1.948   3.531   2.215  0.7780  0.4115 -0.9453
  554SOL     OW 1809   3.244   0.323   0.112  0.8368  0.2673 -0.2619
  554SOL    HW1 1810   3.229   0.379   0.035 -3.2958  0.0640  0.1875
  554SOL    HW2 1811   3.271   0.385   0.181 -1.5059  1.5113 -0.3520
  555SOL     OW 1812   2.769   1.399   0.420 -0.0182  0.0386  0.0221
  555SOL    HW1 1813   2.725   1.374   0.338 -0.1576 -0.1129  0.1425
  555SOL    HW2 1814   2.859   1.418   0.394 -0.5243  1.9649 -0.5121
  556SOL     OW 1815   2.283   3.530   0.399 -0.3086  0.5559 -0.5439
  556SOL    HW1 1816   2.201   3.579   0.398 -1.0266 -0.6144 -0.4314
  556SOL    HW2 1817   2.293   3.498   0.309 -1.0330 -0.9592 -0.1282
  557SOL     OW 1818   1.779   1.732   2.685 -0.1069  0.2782 -0.4170
  557SOL    HW1 1819   1.773   1.803   2.621 -1.3744  1.0851  0.5488
  557SOL    HW2 1820   1.800   1.774   2.768 -2.4141 -0.2039  0.4989
  558SOL     OW 1821   1.625   0.678   0.139 -0.2203  0.0249  0.4252
  558SOL    HW1 1822   1.658   0.732   0.210 -0.2633  1.5611 -0.6743
  558SOL    HW2 1823   1.642   0.729   0.060 -2.2774 -0.5742 -0.4702
  559SOL     OW 1824   0.287   2.434   3.065  0.6049 -0.1071  0.5515
  559SOL    HW1 1825   0.271   2.405   3.155 -0.8455 -1.5133 -0.1287
  559SOL    HW2 1826   0.273   2.356   3.012  0.3140  0.9813 -1.0169
  560SOL     OW 1827   3.353   3.144   3.423  0.2253  0.1046 -0.1670
  560SOL    HW1 1828   3.292   3.074   3.447 -0.0267  1.1283  2.5961
  560SOL    HW2 1829   3.429   3.131   3.480  1.2300  0.7008 -1.3138
  561SOL     OW 1830   3.293   1.931   1.506  0.2359 -0.4981  0.0403
  561SOL    HW1 1831   3.374   1.968   1.542  0.7124 -1.0522 -0.4431
  561SOL    HW2 1832   3.295   1.953   1.413 -0.4492 -0.0289  0.1305
  562SOL     OW 1833   1.690   2.380   1.924  0.5808  0.1128 -0.5646
  562SOL    HW1 1834   1.783   2.401   1.935  0.0349  2.4047  0.0558
  562SOL    HW2 1835   1.687   2.284   1.931  2.9081 -0.0588 -0.8683
  563SOL     OW 1836   3.234   1.439   3.445  0.2761 -0.2420  0.3843
  563SOL    HW1 1837   3.285   1.462   3.367 -1.0558  0.0548 -0.4319
  563SOL    HW2 1838   3.238   1.344   3.449 -1.4201 -0.4413 -1.3432
  564SOL     OW 1839   1.776   3.447   3.513  0.0258 -0.2790 -0.3934
  564SOL    HW1 1840   1.684   3.474   3.507  0.1551 -0.0790 -1.8223
  564SOL    HW2 1841   1.797   3.415   3.426  1.6589  0.8028 -0.4347
  565SOL     OW 1842   1.267   1.669   1.284 -0.4830  1.2942  0.5592
  565SOL    HW1 1843   1.283   1.587   1.330 -1.5505  1.0370  0.4817
  565SOL    HW2 1844   1.300   1.654   1.195  0.1557  1.2722  0.7909
  566SOL     OW 1845   2.507   3.500   1.572  0.3324 -0.4529 -0.1125
  566SOL    HW1 1846   2.471   3.562   1.636  0.7818  0.8747 -1.1104
  566SOL    HW2 1847   2.464   3.417   1.593 -1.5997  0.5579  0.1619
  567SOL     OW 1848   3.769   1.542   3.164 -0.4285  1.0329  0.5737
  567SOL    HW1 1849   3.724   1.532   3.248 -1.3691 -1.4782 -0.1238
  567SOL    HW2 1850   3.705   1.511   3.099  1.1967  0.3380 -0.7707
  568SOL     OW 1851   0.645   3.626   2.109 -0.8736  0.2483  0.0825
  568SOL    HW1 1852   0.669   3.546   2.155  0.2432  0.9248  0.7257
  568SOL    HW2 1853   0.698   3.695   2.150 -2.8596  1.6028  0.5664
  569SOL     OW 1854   0.780   2.008   0.808  0.1466  0.0896  0.7975
  569SOL    HW1 1855   0.790   1.913   0.798  0.9987  0.3803 -2.1238
  569SOL    HW2 1856   0.739   2.036   0.726 -0.7650  2.1904  1.9027
  570SOL     OW 1857   2.177   0.419   0.617  0.1398 -0.7430  0.4927
  570SOL    HW1 1858   2.263   0.443   0.584  0.8042 -2.9236  0.4984
  570SOL    HW2 1859   2.122   0.495   0.597  2.4117  1.5474  2.2261
  571SOL     OW 1860   1.703   0.865   1.783  0.3213  0.0290  0.8922
  571SOL    HW1 1861   1.777   0.807   1.767 -0.9514 -1.1680 -1.1068
  571SOL    HW2 1862   1.704   0.926   1.708  0.0899  0.8985  1.5815
  572SOL     OW 1863   0.461   3.012   2.432 -0.2635 -0.2756  0.0595
  572SOL    HW1 1864   0.384   3.068   2.444 -1.0239 -1.3962  0.5508
  572SOL    HW2 1865   0.526   3.048   2.493 -1.1118 -0.5621  1.1659
  573SOL     OW 1866   2.817   2.016   0.704 -1.0007 -0.4437 -0.0470
  573SOL    HW1 1867   2.846   2.055   0.787  0.9606 -1.3549 -0.2507
  573SOL    HW2 1868   2.722   2.021   0.708 -0.9686 -0.3809  2.2329
  574SOL     OW 1869  -0.005   3.248   1.648  0.0389 -0.5432 -0.2479
  574SOL    HW1 1870   0.090   3.234   1.639  0.3365  1.2368 -0.3456
  574SOL    HW2 1871  -0.043   3.212   1.568  0.5944 -1.4894 -0.1033
  575SOL     OW 1872   0.728   2.761   3.361 -0.5309 -0.1465 -0.3692
  575SOL    HW1 1873   0.793   2.693   3.348  0.4352  0.7909 -0.5941
  575SOL    HW2 1874   0.684   2.737   3.443 -0.0404 -0.8986 -0.3205
  576SOL     OW 1875   3.679   3.112   1.425  0.0387  0.1370 -0.0289
  576SOL    HW1 1876   3.695   3.101   1.331 -0.7133  0.8726 -0.2482
  576SOL    HW2 1877   3.641   3.028   1.452  0.6709 -0.2410 -0.2792
  577SOL     OW 1878   1.955   2.313   2.003 -0.3743 -0.2555  0.1432
  577SOL    HW1 1879   2.006   2.234   1.991 -1.4994 -1.0292  0.3060
  577SOL    HW2 1880   1.956   2.328   2.098 -1.8488 -1.2571  0.3435
  578SOL     OW 1881   1.401   2.053   0.833 -0.0361 -0.8881 -0.0412
  578SOL    HW1 1882   1.316   2.085   0.864  1.3654  0.7810  2.4481
  578SOL    HW2 1883   1.396   1.958   0.843 -1.8096 -0.8956 -0.5873
  579SOL     OW 1884   3.528   0.043   0.718 -0.2871  0.0666  0.7961
  579SOL    HW1 1885   3.550   0.127   0.758 -1.6422  0.3746  0.9454
  579SOL    HW2 1886   3.598  -0.016   0.745  0.5561  1.0829  0.8828
  580SOL     OW 1887   3.473   2.846   1.124  0.3555 -0.1829  0.8236
  580SOL    HW1 1888   3.383   2.879   1.121  0.3324 -0.0713  2.3216
  580SOL    HW2 1889   3.463   2.751   1.132  0.2980 -0.0469  2.9272
  581SOL     OW 1890   1.699   0.619   2.395  0.3905 -0.0227  0.1435
  581SOL    HW1 1891   1.777   0.616   2.339  0.9062  0.7240  0.7901
  581SOL    HW2 1892   1.637   0.560   2.353  1.4186 -0.8791 -0.2170
  582SOL     OW 1893   2.824   0.978   3.315 -0.1114 -0.5959  0.3846
  582SOL    HW1 1894   2.835   0.883   3.314 -4.0070 -1.1927 -0.8145
  582SOL    HW2 1895   2.842   1.005   3.225  1.6071 -0.0213  0.8620
  583SOL     OW 1896   3.418   2.489   0.619  0.2049  0.1944 -0.3242
  583SOL    HW1 1897   3.413   2.425   0.690  3.9661 -1.1874 -1.0913
  583SOL    HW2 1898   3.460   2.565   0.658  1.1360 -0.0933 -0.7445
  584SOL     OW 1899   0.498   2.910   0.794 -0.3589  0.3190 -0.9071
  584SOL    HW1 1900   0.592   2.906   0.777  0.1192  3.7494  0.2504
  584SOL    HW2 1901   0.458   2.905   0.707  1.0607  1.3502 -1.6593
  585SOL     OW 1902   0.787   0.047   1.365 -0.3122  0.3751 -0.1495
  585SOL    HW1 1903   0.772   0.092   1.449  1.0056  2.0788 -0.7516
  585SOL    HW2 1904   0.704   0.004   1.346 -0.9616  0.7500  1.5601
  586SOL     OW 1905   1.554   0.586   2.781 -0.2383 -0.0600 -0.5869
  586SOL    HW1 1906   1.493   0.659   2.791 -0.8424 -0.7270  1.0166
  586SOL    HW2 1907   1.636   0.627   2.754 -0.2858  1.3822  1.2171
  587SOL     OW 1908   1.233   2.796   0.672 -0.7261 -0.0857 -0.4657
  587SOL    HW1 1909   1.325   2.790   0.646 -0.1944  1.8598  0.7373
  587SOL    HW2 1910   1.206   2.883   0.642 -2.6179 -1.1442 -2.0056
  588SOL     OW 1911   1.548   2.884   0.994  0.0413  0.0413 -0.2140
  588SOL    HW1 1912   1.482   2.931   0.942  0.1597  0.2539 -0.1714
  588SOL    HW2 1913   1.631   2.904   0.952  0.0274 -0.7049 -0.6248
  589SOL     OW 1914   2.219   0.700   3.144  0.3554 -0.0047 -0.2796
  589SOL    HW1 1915   2.236   0.607   3.155  2.5134  0.2835 -0.7143
  589SOL    HW2 1916   2.125   0.706   3.131  0.0168 -2.0018  0.8733
  590SOL     OW 1917   2.146   1.643   0.751 -0.5631  0.3248  0.2461
  590SOL    HW1 1918   2.217   1.674   0.695  1.4822 -2.6007  0.9700
  590SOL    HW2 1919   2.083   1.715   0.752  0.7325  1.7310 -3.2228
  591SOL     OW 1920   0.640   0.971   2.524 -0.1509 -0.1377  0.1867
  591SOL    HW1 1921   0.546   0.985   2.507 -0.6022 -3.3230 -0.4459
  591SOL    HW2 1922   0.666   1.049   2.575 -2.4074  2.2302 -1.9579
  592SOL     OW 1923   0.742   1.207   0.357  0.0406  0.2987 -0.3063
  592SOL    HW1 1924   0.662   1.249   0.389 -2.1613 -1.4340 -2.9642
  592SOL    HW2 1925   0.771   1.263   0.285  0.7027  0.4492  0.0755
  593SOL     OW 1926   2.242   2.653   0.487  0.3097  0.0387 -0.3425
  593SOL    HW1 1927   2.167   2.608   0.448  1.4115 -1.4005 -0.8511
  593SOL    HW2 1928   2.209   2.742   0.505 -0.9299  0.0397 -2.3254
  594SOL     OW 1929   0.693   0.315   3.433  0.2444 -0.0557  0.6018
  594SOL    HW1 1930   0.773   0.313   3.486  0.1677 -0.2456  0.7119
  594SOL    HW2 1931   0.626   0.348   3.493  0.6929  2.3467 -0.1191
  595SOL     OW 1932   3.704   0.774   0.811  0.1699 -0.1868 -0.9135
  595SOL    HW1 1933   3.619   0.774   0.767  0.5222 -0.8387 -1.6115
  595SOL    HW2 1934   3.706   0.857   0.859 -0.4531  0.2856 -1.6795
  596SOL     OW 1935   0.321   0.224   2.496 -0.5420  0.0861  0.4196
  596SOL    HW1 1936   0.317   0.213   2.401  2.7706  0.0105  0.1468
  596SOL    HW2 1937   0.308   0.136   2.531  0.3857 -0.2878 -0.1336
  597SOL     OW 1938   1.817   2.457   3.134 -0.1736  0.0895  0.2066
  597SOL    HW1 1939   1.773   2.540   3.153  0.1584  0.0060  1.4105
  597SOL    HW2 1940   1.865   2.474   3.052 -1.7482  0.4323 -0.6759
  598SOL     OW 1941   1.492   1.009   0.881  0.1255 -1.0360 -0.4270
  598SOL    HW1 1942   1.485   1.022   0.975 -0.5964 -1.6606 -0.3871
  598SOL    HW2 1943   1.562   0.944   0.870  2.1990  1.0816 -0.5074
  599SOL     OW 1944   1.196   2.524   0.623 -0.4307  0.5542 -0.0054
  599SOL    HW1 1945   1.179   2.542   0.530  0.3323 -1.1695 -0.5201
  599SOL    HW2 1946   1.228   2.607   0.658  2.2111  0.5210 -2.0287
  600SOL     OW 1947   2.999   3.465   1.883 -0.3154  0.0470  0.2775
  600SOL    HW1 1948   2.963   3.482   1.971  0.6634 -0.6625  0.8374
  600SOL    HW2 1949   2.967   3.537   1.829 -1.2980  0.2605  1.1140
  601SOL     OW 1950   2.206   2.066   3.149 -0.2112 -0.3214  0.1843
  601SOL    HW1 1951   2.129   2.102   3.106  0.6513  2.5009  0.8272
  601SOL    HW2 1952   2.180   2.057   3.241 -0.6754 -2.2703 -0.0914
  602SOL     OW 1953   1.661   1.629   1.108  0.2093 -0.8739 -0.2218
  602SOL    HW1 1954   1.600   1.560   1.133 -1.5673  0.4009 -0.8216
  602SOL    HW2 1955   1.671   1.682   1.187 -0.8128 -0.1355 -0.5740
  603SOL     OW 1956   3.656   3.723   1.477 -0.7266  0.0797 -0.1516
  603SOL    HW1 1957   3.727   3.659   1.481 -1.3057 -0.4832  2.7497
  603SOL    HW2 1958   3.611   3.703   1.394  0.4351 -1.7789 -0.3903
  604SOL     OW 1959   1.960   1.540   3.656 -0.6353 -0.0985 -0.4715
  604SOL    HW1 1960   1.896   1.610   3.643  0.2161  0.6008 -0.9572
  604SOL    HW2 1961   1.972   1.502   3.569  0.1032  0.2192 -0.5159
  605SOL     OW 1962   1.810   1.856   2.007  0.1064 -0.5054 -0.3759
  605SOL    HW1 1963   1.822   1.836   1.914 -0.3094  0.1688 -0.5774
  605SOL    HW2 1964   1.724   1.897   2.013  0.9292  1.2802  0.0021
  606SOL     OW 1965   2.732   0.741   0.336 -0.2075 -0.1040  0.3317
  606SOL    HW1 1966   2.740   0.832   0.307 -0.2467  0.1404  1.0670
  606SOL    HW2 1967   2.699   0.747   0.426 -5.1110 -0.9116 -1.1401
  607SOL     OW 1968   0.957   1.218   2.404 -0.1827 -0.5297  0.5901
  607SOL    HW1 1969   0.985   1.127   2.412  0.5806 -0.6484 -2.2566
  607SOL    HW2 1970   0.875   1.214   2.354  0.9687  0.3369 -1.5236
  608SOL     OW 1971   1.162   3.393   2.245  0.1635  0.0203 -0.2500
  608SOL    HW1 1972   1.238   3.394   2.303 -0.6964  0.9405  0.8886
  608SOL    HW2 1973   1.165   3.478   2.200  1.8641 -1.3496 -3.0440
  609SOL     OW 1974   2.558   2.074   0.848 -0.1484  0.2876 -1.3500
  609SOL    HW1 1975   2.534   2.149   0.794 -0.8395  0.6464 -0.5792
  609SOL    HW2 1976   2.486   2.065   0.910  0.1840 -0.6842 -1.0818
  610SOL     OW 1977   1.480   0.885   3.673  0.3507 -0.0345  0.0762
  610SOL    HW1 1978   1.466   0.954   3.738  0.4038  0.9719 -0.9384
  610SOL    HW2 1979   1.566   0.848   3.694  0.7731  0.9036  0.0493
  611SOL     OW 1980   1.544   1.696   0.611 -0.2326  0.2937  0.0384
  611SOL    HW1 1981   1.614   1.722   0.671 -1.4159  3.7349  0.1961
  611SOL    HW2 1982   1.467   1.685   0.668 -0.4033 -0.8462 -0.3990
  612SOL     OW 1983   2.810   3.466   3.710  0.3897 -0.3568 -0.1769
  612SOL    HW1 1984   2.739   3.530   3.714 -0.0408 -0.8175 -0.3898
  612SOL    HW2 1985   2.887   3.518   3.685  0.4370  0.3813  1.3707
  613SOL     OW 1986   0.916   2.410   2.934  0.0983 -0.2764 -0.1374
  613SOL    HW1 1987   0.922   2.320   2.902  0.8514  0.2315 -1.4893
  613SOL    HW2 1988   0.823   2.425   2.947 -0.1777 -0.6922 -1.5677
  614SOL     OW 1989   1.502   3.642   1.391  0.1161  0.3096 -0.6594
  614SOL    HW1 1990   1.489   3.733   1.420  2.5544 -0.3296  3.3779
  614SOL    HW2 1991   1.417   3.600   1.404 -0.1783  1.2963  0.8863
  615SOL     OW 1992   0.047   1.575   3.558  0.6583 -0.7743  0.4006
  615SOL    HW1 1993  -0.031   1.537   3.518 -0.6945  1.2867  0.9038
  615SOL    HW2 1994   0.076   1.642   3.495  1.5748 -0.9748  0.5868
  616SOL     OW 1995   1.349   1.720   2.088  0.7601 -0.4433 -0.6140
  616SOL    HW1 1996   1.294   1.643   2.072  1.3028 -0.9813  0.0616
  616SOL    HW2 1997   1.293   1.794   2.063  0.4992 -1.0758 -1.9820
  617SOL     OW 1998   2.656   3.688   0.524 -0.1435  0.2229 -0.3260
  617SOL    HW1 1999   2.730   3.725   0.572 -0.5829 -0.1402  0.6546
  617SOL    HW2 2000   2.622   3.619   0.581 -1.8645  1.0580 -0.2661
  618SOL     OW 2001   3.262   0.844   1.926 -0.3388 -0.1471 -0.1560
  618SOL    HW1 2002   3.179   0.884   1.950  1.1005  1.4996  2.6401
  618SOL    HW2 2003   3.325   0.917   1.928  2.2725 -2.1275  4.2829
  619SOL     OW 2004   1.751   0.554   0.961 -0.0197  0.0899 -0.4227
  619SOL    HW1 2005   1.839   0.527   0.934 -0.2599  1.1562 -2.5020
  619SOL    HW2 2006   1.694   0.482   0.933 -0.3516  1.4547 -3.7041
  620SOL     OW 2007   1.388   1.081   2.406  0.1711 -0.1437  0.3757
  620SOL    HW1 2008   1.303   1.039   2.422 -0.0324  0.5724  1.3208
  620SOL    HW2 2009   1.365   1.163   2.361  0.4005 -0.1635  0.2223
  621SOL     OW 2010   0.113   3.484   1.548  0.5850 -0.0264  0.4753
  621SOL    HW1 2011   0.203   3.454   1.559  0.5820  0.1592  1.0303
  621SOL    HW2 2012   0.060   3.412   1.582  0.4605 -0.7471 -1.1554
  622SOL     OW 2013   1.215   2.040   1.104  0.0126  0.1516 -0.4332
  622SOL    HW1 2014   1.186   2.094   1.177  1.4414  0.7670 -0.2881
  622SOL    HW2 2015   1.304   2.015   1.126  0.0852 -0.5689 -1.4631
  623SOL     OW 2016   3.356   0.706   1.168 -0.0412 -1.0050 -0.0349
  623SOL    HW1 2017   3.387   0.797   1.167 -1.2881 -0.5740 -0.2947
  623SOL    HW2 2018   3.435   0.654   1.152  0.5719  0.0621 -0.5560
  624SOL     OW 2019   0.908   3.152   2.075 -0.7554 -0.2940  0.0177
  624SOL    HW1 2020   0.822   3.164   2.035 -0.6333  1.6908  0.2481
  624SOL    HW2 2021   0.954   3.234   2.060  1.6067 -1.7289 -1.1698
  625SOL     OW 2022   3.474   1.443   2.191 -0.9056 -0.0328 -0.6980
  625SOL    HW1 2023   3.486   1.470   2.100  0.9849 -1.6803 -1.0188
  625SOL    HW2 2024   3.484   1.523   2.242  2.1480  0.3900 -1.7244
  626SOL     OW 2025   2.173   3.678   0.675  0.2108 -0.2499  0.3467
  626SOL    HW1 2026   2.171   3.733   0.597  1.5553 -2.3593 -1.2851
  626SOL    HW2 2027   2.199   3.737   0.745  1.3104  1.2511 -1.2469
  627SOL     OW 2028   0.690   0.395   3.158  0.1971  0.1319  0.3786
  627SOL    HW1 2029   0.705   0.345   3.238  0.3542 -1.0714 -0.3833
  627SOL    HW2 2030   0.629   0.342   3.107 -0.6358  1.3219  0.0923
  628SOL     OW 2031   0.304   0.559   0.281  0.9986 -0.0057  0.0095
  628SOL    HW1 2032   0.261   0.607   0.210  0.3366 -0.8504 -0.1842
  628SOL    HW2 2033   0.257   0.475   0.285  0.3012  0.4168  2.1277
  629SOL     OW 2034   0.176   3.261   2.648 -0.0738  0.2297  0.3665
  629SOL    HW1 2035   0.241   3.313   2.600 -0.2712 -0.8432 -1.1425
  629SOL    HW2 2036   0.214   3.173   2.654  0.2257  0.4505  2.8119
  630SOL     OW 2037   2.229   2.441   1.481  0.2598  0.3886  0.1117
  630SOL    HW1 2038   2.136   2.443   1.504  0.3628 -0.6897  0.7035
  630SOL    HW2 2039   2.244   2.351   1.450  1.3442  0.1901  1.1406
  631SOL     OW 2040   0.321   2.965   0.582 -0.0365 -0.0207  0.9095
  631SOL    HW1 2041   0.268   3.022   0.526 -1.0927 -1.0838  0.8079
  631SOL    HW2 2042   0.366   2.906   0.521 -1.6364 -1.5660  1.1528
  632SOL     OW 2043   1.143   1.414   0.905 -0.2130  0.0305 -0.2746
  632SOL    HW1 2044   1.181   1.329   0.925 -0.1829  0.6578  2.8458
  632SOL    HW2 2045   1.208   1.456   0.847  1.1648 -1.0209  0.4429
  633SOL     OW 2046   0.716   0.205   2.683  0.2318  0.3717  0.4993
  633SOL    HW1 2047   0.795   0.232   2.729  0.1084 -0.2167  1.0635
  633SOL    HW2 2048   0.688   0.284   2.636  1.4387  0.4414 -0.1424
  634SOL     OW 2049   3.527   2.147  -0.023  0.3527 -0.1204 -0.1892
  634SOL    HW1 2050   3.465   2.163   0.049  1.3995 -1.7663  1.1755
  634SOL    HW2 2051   3.596   2.212  -0.009 -0.6596  1.2612 -1.3028
  635SOL     OW 2052   3.328   0.233   2.045  0.2307 -0.1999 -0.4841
  635SOL    HW1 2053   3.269   0.171   2.087 -0.1856  1.1465  0.9851
  635SOL    HW2 2054   3.271   0.288   1.992  0.1322  1.0273  0.8457
  636SOL     OW 2055   3.045   0.318   0.643 -0.0557  0.3723  0.8044
  636SOL    HW1 2056   2.973   0.258   0.663  1.3246 -1.2211  1.1705
  636SOL    HW2 2057   3.096   0.274   0.576  1.3029  0.8785  1.4587
  637SOL     OW 2058   2.866   2.213   0.368  0.5175  0.4423  0.3908
  637SOL    HW1 2059   2.898   2.295   0.404  1.1194  1.1193 -1.5686
  637SOL    HW2 2060   2.944   2.170   0.332 -0.2719  0.8037 -1.9374
  638SOL     OW 2061   3.399   1.689   3.238 -0.9736  0.0254  0.4131
  638SOL    HW1 2062   3.438   1.738   3.165 -1.1751  0.5582  0.6533
  638SOL    HW2 2063   3.316   1.734   3.254 -1.3775 -0.6893  0.3424
  639SOL     OW 2064   0.113   0.642   3.566  0.0167  0.0248 -0.5285
  639SOL    HW1 2065   0.147   0.640   3.477 -0.3964 -2.8016 -0.7156
  639SOL    HW2 2066   0.027   0.599   3.560 -0.4835  0.7222  1.0677
  640SOL     OW 2067   2.285   1.577   2.957  0.3432 -0.2619 -0.1215
  640SOL    HW1 2068   2.267   1.671   2.961  1.9014  0.0325  0.4280
  640SOL    HW2 2069   2.241   1.540   3.033 -0.9965 -0.1322 -0.8042
  641SOL     OW 2070   3.145   1.217   3.007 -0.0535  0.8210  0.7196
  641SOL    HW1 2071   3.160   1.200   3.100  0.5141  1.9493  0.8478
  641SOL    HW2 2072   3.179   1.306   2.993 -0.0181  0.6197 -0.5882
  642SOL     OW 2073   0.275   2.674   3.536 -0.1261 -0.0909  0.3303
  642SOL    HW1 2074   0.206   2.699   3.475 -1.5356  0.8660  2.2317
  642SOL    HW2 2075   0.240   2.597   3.582  1.5771 -1.8259 -1.0606
  643SOL     OW 2076   1.144   1.540   2.108 -0.4682  0.1889 -0.0330
  643SOL    HW1 2077   1.175   1.551   2.198 -1.1769  1.5789  0.0585
  643SOL    HW2 2078   1.059   1.583   2.106 -1.2210 -1.2565 -0.9658
  644SOL     OW 2079   3.544   3.459   1.841  0.1072 -0.0472 -0.3268
  644SOL    HW1 2080   3.543   3.519   1.915 -1.7401  2.0611 -1.8941
  644SOL    HW2 2081   3.619   3.487   1.788 -1.3328  1.7530 -1.5753
  645SOL     OW 2082   0.129   3.295   1.961  0.3680  0.3954 -0.4659
  645SOL    HW1 2083   0.069   3.357   1.920  1.3236  0.8820 -1.1756
  645SOL    HW2 2084   0.165   3.244   1.888 -0.7756 -1.3693  0.1463
  646SOL     OW 2085   1.536   1.149   1.835  0.4031  0.0612 -0.6383
  646SOL    HW1 2086   1.485   1.088   1.888  2.2737 -1.7269 -0.7462
  646SOL    HW2 2087   1.492   1.150   1.750  0.1327 -0.9261 -0.5295
  647SOL     OW 2088   3.582   1.508   3.360 -0.3302  0.3995 -0.6127
  647SOL    HW1 2089   3.511   1.568   3.338 -1.0441  1.0403  2.8853
  647SOL    HW2 2090   3.547   1.421   3.339 -1.1584  0.8654 -1.2199
  648SOL     OW 2091   2.793   2.846   2.287 -0.3788  0.3534 -0.1307
  648SOL    HW1 2092   2.766   2.815   2.373  1.5192  0.4052  0.5338
  648SOL    HW2 2093   2.767   2.777   2.227  1.1951 -1.2599  0.9446
  649SOL     OW 2094   2.798   1.416   2.462  0.0787  0.1178  1.2134
  649SOL    HW1 2095   2.703   1.424   2.472 -0.6664 -1.1716 -2.8034
  649SOL    HW2 2096   2.828   1.382   2.546 -3.5290 -2.3626  1.7707
  650SOL     OW 2097   0.151   0.673   1.137  0.4408  0.2344  0.1743
  650SOL    HW1 2098   0.084   0.620   1.094  0.6868 -0.8008  1.0083
  650SOL    HW2 2099   0.215   0.691   1.068  0.4283 -0.7103 -0.0983
  651SOL     OW 2100   0.394   1.476   2.220 -0.4226  0.3390  0.2415
  651SOL    HW1 2101   0.409   1.514   2.306  1.7488 -0.2509  0.1882
  651SOL    HW2 2102   0.410   1.547   2.158 -0.6116  0.4177  0.2844
  652SOL     OW 2103   0.476   2.824   3.174 -0.8235 -0.1109 -0.1683
  652SOL    HW1 2104   0.489   2.919   3.174  0.2729 -0.2314 -1.2048
  652SOL    HW2 2105   0.556   2.789   3.136 -1.3855 -1.4338 -0.1914
  653SOL     OW 2106   2.888   2.837   0.302 -0.1177  0.4399 -0.4401
  653SOL    HW1 2107   2.947   2.909   0.323 -0.5870  0.8889 -0.6286
  653SOL    HW2 2108   2.945   2.761   0.292  0.5910  1.1342 -1.9760
  654SOL     OW 2109   2.420   2.808   2.193 -0.3292 -0.1656  0.0631
  654SOL    HW1 2110   2.388   2.856   2.269 -1.6056  0.2948 -0.7289
  654SOL    HW2 2111   2.418   2.716   2.220 -1.2856 -0.0500  0.4192
  655SOL     OW 2112   1.925   1.517   0.938  0.1127  0.1115 -0.2044
  655SOL    HW1 2113   1.938   1.546   0.848 -0.0297 -1.1149 -0.6435
  655SOL    HW2 2114   1.834   1.541   0.958  0.3779  1.0694 -0.1048
  656SOL     OW 2115   2.854   0.394   0.137 -0.1958 -0.0993  0.6078
  656SOL    HW1 2116   2.937   0.440   0.148  0.5035 -0.2534 -2.9844
  656SOL    HW2 2117   2.868   0.310   0.180  0.9306  0.4256  1.3401
  657SOL     OW 2118   0.670   3.473   3.015 -0.0389 -0.1888  0.3466
  657SOL    HW1 2119   0.621   3.435   2.943 -0.8978 -0.8873  1.2754
  657SOL    HW2 2120   0.742   3.412   3.030  0.5713  0.3334 -0.3767
  658SOL     OW 2121   1.008   1.768   1.979  0.2914 -0.2940  0.2909
  658SOL    HW1 2122   1.016   1.851   2.026  1.1827  0.0941 -0.5044
  658SOL    HW2 2123   0.915   1.762   1.957  0.3484  0.9527 -0.4210
  659SOL     OW 2124   2.542   2.350   2.143 -0.3945 -0.5745 -0.0469
  659SOL    HW1 2125   2.555   2.415   2.074 -0.1647 -0.8009 -0.2191
  659SOL    HW2 2126   2.627   2.343   2.187  0.0005 -1.7820 -0.9333
  660SOL     OW 2127   2.736   3.169   3.125 -0.1044  0.7588 -0.3240
  660SOL    HW1 2128   2.662   3.149   3.183  1.3416  0.1915  1.4072
  660SOL    HW2 2129   2.813   3.156   3.179  1.2812  1.6858 -1.9827
  661SOL     OW 2130   0.005   3.215   0.891  0.2272 -0.1416 -0.5489
  661SOL    HW1 2131   0.073   3.197   0.826  0.0136 -0.8384 -0.5799
  661SOL    HW2 2132  -0.065   3.153   0.871 -0.2410  0.2815 -0.2463
  662SOL     OW 2133   1.375   0.853   1.412 -0.3313  0.0038  0.2825
  662SOL    HW1 2134   1.465   0.822   1.422 -0.6022 -0.6899  0.6112
  662SOL    HW2 2135   1.325   0.801   1.474 -0.8392  0.9577  0.6961
  663SOL     OW 2136   3.534   0.741   1.742  0.2659  0.3215 -0.9192
  663SOL    HW1 2137   3.485   0.731   1.661 -0.9986  2.7393 -0.5351
  663SOL    HW2 2138   3.549   0.835   1.751  1.1597  0.0501  1.1991
  664SOL     OW 2139   0.561   3.679   0.981  0.4845  0.4147 -0.0686
  664SOL    HW1 2140   0.516   3.601   0.950  2.4398 -0.3357 -1.1604
  664SOL    HW2 2141   0.541   3.682   1.075 -0.2913 -0.9115 -0.1640
  665SOL     OW 2142   1.678   3.360   3.032 -0.1346 -0.2492  0.3548
  665SOL    HW1 2143   1.721   3.439   2.999 -1.3277  0.0592 -0.4989
  665SOL    HW2 2144   1.722   3.288   2.988 -1.2972  0.1280 -1.5121
  666SOL     OW 2145   1.297   1.134   3.431 -0.4427  0.0361  0.0351
  666SOL    HW1 2146   1.243   1.077   3.485 -0.6444 -1.0421 -1.2599
  666SOL    HW2 2147   1.237   1.173   3.369 -0.1470  0.9233  0.2975
  667SOL     OW 2148   1.299   3.196   2.028  0.1618 -0.7433 -0.3947
  667SOL    HW1 2149   1.251   3.114   2.040 -1.7695  0.3629 -0.1198
  667SOL    HW2 2150   1.309   3.231   2.116 -0.1963 -0.0639 -0.6175
  668SOL     OW 2151   0.309   1.735   0.584  0.2644 -0.6097 -0.8556
  668SOL    HW1 2152   0.256   1.757   0.660  2.4841 -0.7602  0.8346
  668SOL    HW2 2153   0.361   1.660   0.611 -1.6597 -3.3070 -3.9227
  669SOL     OW 2154   0.512   1.909   3.089 -0.9162 -0.4364 -0.4393
  669SOL    HW1 2155   0.523   1.875   3.001 -1.7248  0.1454 -0.7782
  669SOL    HW2 2156   0.577   1.862   3.142 -1.4316 -1.8868 -1.0503
  670SOL     OW 2157   1.963   3.196   2.170  0.0670  0.3614  0.0941
  670SOL    HW1 2158   1.887   3.198   2.228  1.0457 -2.6740  1.7029
  670SOL    HW2 2159   2.009   3.115   2.193  2.0259  0.3901 -3.0923
  671SOL     OW 2160   2.372   1.409   1.950  0.3728 -0.6730 -0.5960
  671SOL    HW1 2161   2.441   1.473   1.936  0.8278 -1.2805 -1.1965
  671SOL    HW2 2162   2.352   1.415   2.043 -1.0161  1.7585 -0.9690
  672SOL     OW 2163   0.043   1.126   1.931 -0.2883 -0.8339  0.3260
  672SOL    HW1 2164   0.004   1.176   1.859  0.3711 -0.0590  0.4864
  672SOL    HW2 2165  -0.010   1.147   2.007  0.6578  0.5864  0.6434
  673SOL     OW 2166   2.259   1.980   2.680  0.5759  0.5928 -0.1726
  673SOL    HW1 2167   2.229   1.961   2.591 -1.0051 -1.0372  0.6415
  673SOL    HW2 2168   2.352   1.956   2.679  0.0879 -1.5240 -0.8655
  674SOL     OW 2169   3.209   1.743   1.190  0.0631 -0.0451  1.0890
  674SOL    HW1 2170   3.153   1.820   1.199 -1.8521 -0.9595 -1.7224
  674SOL    HW2 2171   3.163   1.674   1.237 -1.1689 -0.7260 -0.9828
  675SOL     OW 2172   2.367   2.466   0.139 -0.6019 -0.5624 -0.6561
  675SOL    HW1 2173   2.447   2.445   0.092 -0.5082 -0.3704 -0.5802
  675SOL    HW2 2174   2.385   2.442   0.230  0.4814  2.3244 -0.0033
  676SOL     OW 2175   0.934   1.882   2.918 -0.0189  0.5573 -0.3286
  676SOL    HW1 2176   0.865   1.946   2.932 -0.7164 -0.4814  1.2457
  676SOL    HW2 2177   0.956   1.850   3.006 -1.4408 -3.1225 -1.1480
  677SOL     OW 2178   2.082   2.191   0.171 -0.3128 -0.3893 -0.4115
  677SOL    HW1 2179   2.055   2.134   0.099  0.9144  0.3039 -1.4489
  677SOL    HW2 2180   2.058   2.142   0.250  2.2387 -3.2089 -1.1832
  678SOL     OW 2181   0.497   2.178   1.520 -0.6050  0.0547 -0.4641
  678SOL    HW1 2182   0.538   2.153   1.602 -0.1065 -0.6566 -0.9206
  678SOL    HW2 2183   0.472   2.270   1.532 -0.4768 -0.0268  0.4470
  679SOL     OW 2184   2.771   3.463   3.177 -0.0441  0.5153  0.4535
  679SOL    HW1 2185   2.832   3.484   3.107  0.5772 -1.2782  0.3869
  679SOL    HW2 2186   2.811   3.388   3.222 -2.4859 -1.2578 -0.0686
  680SOL     OW 2187   1.343   2.137   2.239  0.6773 -0.7754 -0.9193
  680SOL    HW1 2188   1.323   2.221   2.197  1.1063 -0.6600 -0.8971
  680SOL    HW2 2189   1.274   2.126   2.305  1.2146  0.0801 -0.1855
  681SOL     OW 2190   3.426   1.308   1.113  0.3329  0.4405 -0.5034
  681SOL    HW1 2191   3.338   1.341   1.099  0.0344  1.1146  2.2894
  681SOL    HW2 2192   3.414   1.224   1.157  1.0913  0.4062 -0.3414
  682SOL     OW 2193   0.943   2.565   3.177  0.8216 -0.5378  0.7421
  682SOL    HW1 2194   0.869   2.519   3.216 -0.6001  0.6664 -0.3805
  682SOL    HW2 2195   0.961   2.518   3.095 -1.7999  1.7140 -1.3203
  683SOL     OW 2196   0.516   1.310   3.475 -0.0989 -0.4220  0.4057
  683SOL    HW1 2197   0.485   1.384   3.423 -1.1536  0.2169  1.8655
  683SOL    HW2 2198   0.579   1.348   3.536  0.7711 -1.0732 -0.0688
  684SOL     OW 2199   0.658   1.471   2.712  0.1328  0.2239  0.3944
  684SOL    HW1 2200   0.652   1.436   2.802 -0.2178 -0.1394  0.2330
  684SOL    HW2 2201   0.717   1.546   2.720 -0.7063  0.8369  1.1168
  685SOL     OW 2202   1.112   0.404   1.918  0.2454  0.2214  0.1624
  685SOL    HW1 2203   1.038   0.461   1.896 -1.0737 -1.5531 -0.1733
  685SOL    HW2 2204   1.189   0.462   1.913 -0.7101  1.4044 -2.6324
  686SOL     OW 2205   1.507   3.390   2.476 -0.1117  0.5736 -0.4559
  686SOL    HW1 2206   1.488   3.313   2.530 -1.0890  0.8361 -0.4000
  686SOL    HW2 2207   1.588   3.426   2.513  0.5497 -0.6100 -0.7030
  687SOL     OW 2208   1.424   2.077   1.339 -0.1071 -0.2932 -0.2438
  687SOL    HW1 2209   1.406   2.164   1.305 -0.4194  0.0296  0.7342
  687SOL    HW2 2210   1.516   2.061   1.316  0.6570  1.2135  1.4844
  688SOL     OW 2211   1.409   3.647   2.834  0.4114  0.4595 -0.3567
  688SOL    HW1 2212   1.332   3.689   2.872  0.9286  0.6967  0.4736
  688SOL    HW2 2213   1.422   3.692   2.750 -0.3830  0.3758 -0.5252
  689SOL     OW 2214   1.422   1.081   1.590  0.0988  0.5003 -0.0287
  689SOL    HW1 2215   1.463   1.022   1.527 -0.7686 -1.6697  1.3162
  689SOL    HW2 2216   1.354   1.127   1.539 -1.7523 -2.4414 -0.4532
  690SOL     OW 2217   3.729   3.015   0.261 -0.1558 -0.0408  0.9270
  690SOL    HW1 2218   3.638   3.043   0.270 -0.0670  0.6924 -0.2805
  690SOL    HW2 2219   3.727   2.947   0.194  0.1412 -0.3080  1.1856
  691SOL     OW 2220   0.834   3.575   0.084 -0.1834 -0.1278 -0.6640
  691SOL    HW1 2221   0.769   3.600   0.018  0.0939 -0.2633 -0.9906
  691SOL    HW2 2222   0.838   3.650   0.144 -1.5896 -0.6425  0.1054
  692SOL     OW 2223   1.676   0.159   3.598 -0.5215  0.2585 -0.1532
  692SOL    HW1 2224   1.626   0.082   3.627 -1.3843  0.6715 -0.5206
  692SOL    HW2 2225   1.660   0.164   3.504 -0.3911  0.8407 -0.1437
  693SOL     OW 2226   2.970   0.108   1.896 -0.1393  0.8202 -0.4979
  693SOL    HW1 2227   2.877   0.133   1.902 -0.3589 -0.3124  1.7376
  693SOL    HW2 2228   2.984   0.093   1.802 -1.5025  3.4418 -1.2265
  694SOL     OW 2229   0.868   1.216   0.751  0.2593  0.4643  0.9800
  694SOL    HW1 2230   0.962   1.196   0.753  0.1732  0.0147  0.8156
  694SOL    HW2 2231   0.826   1.131   0.767 -0.1175  0.6717  1.0901
  695SOL     OW 2232   1.509   3.522   1.889  0.2972 -0.5149 -0.5259
  695SOL    HW1 2233   1.504   3.597   1.830 -1.6569 -0.9543 -1.0044
  695SOL    HW2 2234   1.463   3.452   1.842  2.7693 -2.3140 -0.4610
  696SOL     OW 2235   3.573   1.505   2.587 -0.5691 -0.3109  1.0756
  696SOL    HW1 2236   3.580   1.423   2.537  0.2307  1.5790 -2.2412
  696SOL    HW2 2237   3.664   1.530   2.604 -0.8042 -0.0810  2.0143
  697SOL     OW 2238   0.448   2.464   3.343 -0.1228  0.3354 -0.3612
  697SOL    HW1 2239   0.361   2.504   3.347 -0.2489  0.0013  1.9852
  697SOL    HW2 2240   0.430   2.370   3.345  0.2489  0.2661  0.6699
  698SOL     OW 2241   0.757   2.914   0.717 -0.2658  0.7277 -0.2653
  698SOL    HW1 2242   0.829   2.926   0.779  0.2795  0.7604 -0.8993
  698SOL    HW2 2243   0.799   2.910   0.632 -1.0175  0.7115 -0.6417
  699SOL     OW 2244   0.030   2.595   3.064  0.5972 -0.2185  0.4373
  699SOL    HW1 2245   0.123   2.598   3.085  0.6512 -1.4678  0.4068
  699SOL    HW2 2246   0.007   2.687   3.047  2.6317 -0.1763 -3.1734
  700SOL     OW 2247   1.206   1.000   1.866 -0.2908  0.0852 -0.2864
  700SOL    HW1 2248   1.258   1.038   1.795 -1.7815 -0.3886 -1.7080
  700SOL    HW2 2249   1.136   1.063   1.881  0.8351  0.9310  1.9149
  701SOL     OW 2250   3.363   2.033   3.059 -0.0636 -0.2523 -0.2050
  701SOL    HW1 2251   3.396   2.074   3.138  0.2769 -0.4252 -0.2534
  701SOL    HW2 2252   3.272   2.060   3.053  0.4652  1.4776 -0.8685
  702SOL     OW 2253   2.955   2.395   0.119 -0.2851 -0.1623  0.0847
  702SOL    HW1 2254   2.998   2.371   0.201 -0.9098 -2.4418 -0.1948
  702SOL    HW2 2255   2.869   2.427   0.146 -0.5211 -0.9834  0.3254
  703SOL     OW 2256   0.732   1.191   2.268 -0.0570 -0.3714  0.2832
  703SOL    HW1 2257   0.679   1.239   2.205  0.3447 -0.2849  0.0081
  703SOL    HW2 2258   0.686   1.108   2.280  0.8027 -1.1617 -1.5240
  704SOL     OW 2259   2.151   3.441   1.811 -0.8050  0.2594 -0.2295
  704SOL    HW1 2260   2.058   3.422   1.825 -0.9540  1.3848  0.4020
  704SOL    HW2 2261   2.196   3.365   1.847 -1.5177 -1.1963 -2.2497
  705SOL     OW 2262   0.907   0.385   2.431  0.2748 -0.3791  0.4104
  705SOL    HW1 2263   0.931   0.300   2.467 -0.3885  0.2961  2.6224
  705SOL    HW2 2264   0.885   0.439   2.507  0.3958  1.7070 -0.9184
  706SOL     OW 2265   1.815   3.617   1.403  0.1448 -0.0059  1.3009
  706SOL    HW1 2266   1.775   3.531   1.417  1.0352 -0.4600  1.1358
  706SOL    HW2 2267   1.743   3.679   1.414 -0.5792 -0.7888  1.0942
  707SOL     OW 2268   3.129   1.139   1.715 -0.2264 -0.1909 -0.5890
  707SOL    HW1 2269   3.085   1.161   1.633 -0.0823 -0.4235 -0.7303
  707SOL    HW2 2270   3.182   1.062   1.694 -0.5631 -0.5457 -0.1548
  708SOL     OW 2271   2.711   0.908   2.449 -0.0830  0.1287 -0.2652
  708SOL    HW1 2272   2.683   0.987   2.496 -3.0167  0.2659 -2.0117
  708SOL    HW2 2273   2.690   0.836   2.509  0.6405  0.4999  0.4694
  709SOL     OW 2274   2.531   2.398   0.390 -0.2326 -0.6547  0.2913
  709SOL    HW1 2275   2.458   2.344   0.420  1.0766 -1.3039  2.5509
  709SOL    HW2 2276   2.598   2.336   0.363  0.1700 -0.0955 -0.0324
  710SOL     OW 2277   2.654   1.131   1.175  1.1059  0.0237  0.6007
  710SOL    HW1 2278   2.676   1.040   1.197 -0.8883 -0.1592  2.0350
  710SOL    HW2 2279   2.563   1.141   1.200  1.5633  2.7623  1.5243
  711SOL     OW 2280   3.768   3.138   3.239 -0.1093 -0.4233  0.0368
  711SOL    HW1 2281   3.743   3.119   3.329  0.8839 -1.3488  0.1306
  711SOL    HW2 2282   3.695   3.190   3.204 -0.4958 -0.0574  1.3593
  712SOL     OW 2283   2.557   3.656   0.282  0.1899  1.1068 -0.0812
  712SOL    HW1 2284   2.606   3.681   0.360  0.8123  0.2916 -0.2091
  712SOL    HW2 2285   2.487   3.599   0.315 -0.2612  1.6958  0.0107
  713SOL     OW 2286   2.555   1.051   3.128 -0.0469 -0.1397  0.4027
  713SOL    HW1 2287   2.490   1.117   3.150 -0.5103 -0.1968 -0.7677
  713SOL    HW2 2288   2.505   0.976   3.098  0.5539  0.0070 -1.0418
  714SOL     OW 2289   0.723   2.342   2.499 -0.4419 -0.1958 -0.4959
  714SOL    HW1 2290   0.680   2.268   2.542 -1.2142 -0.1579 -1.1709
  714SOL    HW2 2291   0.784   2.301   2.437  1.5558 -0.2590  1.4108
  715SOL     OW 2292   3.463   3.507   3.253  0.2511  0.1074  1.0225
  715SOL    HW1 2293   3.399   3.494   3.323 -0.0736  2.5535  1.2546
  715SOL    HW2 2294   3.486   3.418   3.225 -2.7499 -0.8686  1.3499
  716SOL     OW 2295   1.316   0.153   2.981  0.2241  0.4515  0.6134
  716SOL    HW1 2296   1.337   0.212   2.908 -0.6974 -0.7738 -0.7129
  716SOL    HW2 2297   1.222   0.137   2.972  0.2307 -0.2844  1.6663
  717SOL     OW 2298   3.063   0.906   2.571  0.0778 -0.5683 -0.6325
  717SOL    HW1 2299   3.140   0.866   2.611 -0.7424 -1.6218 -0.0797
  717SOL    HW2 2300   3.090   0.925   2.481  1.7830  1.3516  0.1800
  718SOL     OW 2301   0.390   3.679   0.037 -0.2183  0.0794 -0.1755
  718SOL    HW1 2302   0.434   3.763   0.047  0.9271 -0.5770  0.5031
  718SOL    HW2 2303   0.328   3.693  -0.035 -0.3026  1.5894  0.1510
  719SOL     OW 2304   3.066   0.502   0.826 -0.2921 -0.2530  0.0840
  719SOL    HW1 2305   3.068   0.444   0.749 -1.8931  1.2025 -1.1304
  719SOL    HW2 2306   2.973   0.518   0.841 -0.0237 -0.6114  2.4685
  720SOL     OW 2307   2.921   3.193   2.912  0.3394  0.0439  0.2658
  720SOL    HW1 2308   2.930   3.288   2.911  1.1976 -0.0374 -0.8851
  720SOL    HW2 2309   2.860   3.176   2.984 -0.9386  1.5540 -0.4035
  721SOL     OW 2310   1.395   0.662   2.354  0.7578 -0.2300 -0.4356
  721SOL    HW1 2311   1.356   0.598   2.413  2.1122 -1.6695 -1.0249
  721SOL    HW2 2312   1.441   0.723   2.412  2.4728 -1.8923  0.0370
  722SOL     OW 2313   2.767   3.486   2.682 -0.3114  0.1934 -0.0536
  722SOL    HW1 2314   2.853   3.491   2.640 -0.2375  2.5691  0.2528
  722SOL    HW2 2315   2.713   3.547   2.633 -1.7187 -0.9033  0.0777
  723SOL     OW 2316   2.957   1.022   0.427 -0.1023 -0.3323 -0.1656
  723SOL    HW1 2317   2.933   1.039   0.518 -2.5899  0.9691 -0.9532
  723SOL    HW2 2318   2.873   1.013   0.381  1.0639 -2.8120 -2.0595
  724SOL     OW 2319   1.651   0.314   0.117  0.4281 -0.0568 -0.3768
  724SOL    HW1 2320   1.741   0.314   0.083  0.2655 -0.8030 -0.8213
  724SOL    HW2 2321   1.596   0.301   0.040 -0.0128 -0.4388 -0.0026
  725SOL     OW 2322   3.194   1.323   2.216 -0.1645  0.1494  0.0854
  725SOL    HW1 2323   3.187   1.287   2.128 -1.6298  0.3132  0.1100
  725SOL    HW2 2324   3.279   1.367   2.217  0.2154 -0.5184 -0.9811
  726SOL     OW 2325   2.841   0.890   1.156  0.9247 -0.4647 -0.6555
  726SOL    HW1 2326   2.916   0.883   1.097  1.2575  0.6678 -0.3927
  726SOL    HW2 2327   2.768   0.853   1.107  1.3110 -0.0249 -1.5743
  727SOL     OW 2328   3.196   2.858   0.521  0.4101  0.0838 -0.8005
  727SOL    HW1 2329   3.131   2.798   0.557  1.5142 -1.2122 -0.8651
  727SOL    HW2 2330   3.145   2.931   0.485 -0.9900 -0.8844 -0.8447
  728SOL     OW 2331   1.463   1.084   0.409 -0.1381  0.8067 -0.1893
  728SOL    HW1 2332   1.553   1.061   0.433 -0.3004  0.7014  0.3189
  728SOL    HW2 2333   1.408   1.026   0.461 -0.5207  1.5189  0.2081
  729SOL     OW 2334   1.803   0.848   2.480 -0.1667 -0.0276  0.1152
  729SOL    HW1 2335   1.758   0.820   2.401  0.7291 -0.3096 -0.3113
  729SOL    HW2 2336   1.895   0.830   2.463  0.3841  2.3638  0.1645
  730SOL     OW 2337   0.286   2.549   0.718  0.1734 -0.2883  0.1983
  730SOL    HW1 2338   0.339   2.606   0.774  1.6872 -0.9330 -0.5247
  730SOL    HW2 2339   0.200   2.591   0.716  0.8002  1.1056  0.9590
  731SOL     OW 2340   1.471   1.973   0.585 -0.1245  0.0836  0.0654
  731SOL    HW1 2341   1.471   2.019   0.669  0.3626  1.2218 -0.5399
  731SOL    HW2 2342   1.545   1.911   0.591  0.3743  0.6837  0.2058
  732SOL     OW 2343   1.621   1.635   0.046  0.0444 -0.3566 -0.2734
  732SOL    HW1 2344   1.547   1.693   0.065 -0.7060 -1.6328  0.8320
  732SOL    HW2 2345   1.653   1.608   0.132 -0.4145 -2.5502 -0.7289
  733SOL     OW 2346   3.056   2.313   0.853 -0.1705  0.5203  0.1895
  733SOL    HW1 2347   3.083   2.226   0.824  0.8747  0.9646 -0.2597
  733SOL    HW2 2348   3.120   2.372   0.812 -1.7764  1.6408 -0.8212
  734SOL     OW 2349   0.835   0.102   2.252 -0.4487 -0.3657  0.2950
  734SOL    HW1 2350   0.894   0.089   2.326 -0.4369  1.6364  0.6932
  734SOL    HW2 2351   0.748   0.105   2.291 -0.4213  0.9539  0.3087
  735SOL     OW 2352   1.204   3.470   2.655  0.4344  0.2840  0.6064
  735SOL    HW1 2353   1.257   3.463   2.576  0.9624  2.9652  0.6093
  735SOL    HW2 2354   1.269   3.479   2.726  0.2297  4.4742  0.5235
  736SOL     OW 2355   3.671   0.522   1.019  0.0806  0.2060 -0.1006
  736SOL    HW1 2356   3.668   0.432   0.986 -1.4038 -0.4317  1.6103
  736SOL    HW2 2357   3.615   0.572   0.959  0.9218  0.0423 -1.0626
  737SOL     OW 2358   2.360   1.949   0.338 -0.2696 -0.0999  0.9064
  737SOL    HW1 2359   2.373   1.996   0.255 -2.5684  1.8001  1.5157
  737SOL    HW2 2360   2.430   1.981   0.395  1.9328 -2.1215 -0.4313
  738SOL     OW 2361   3.337   2.594   2.536  0.4826 -0.3023 -0.5846
  738SOL    HW1 2362   3.406   2.580   2.601 -1.2483 -0.0632  1.4016
  738SOL    HW2 2363   3.370   2.666   2.482  0.8445  1.4806  1.8394
  739SOL     OW 2364   0.200   0.267   1.918 -0.1306 -0.1846 -0.2554
  739SOL    HW1 2365   0.195   0.188   1.864 -1.8500 -1.4379  1.6305
  739SOL    HW2 2366   0.156   0.244   1.999 -0.8580  2.7971  0.3113
  740SOL     OW 2367   3.416   1.952   3.492  0.0462  0.6080 -0.2129
  740SOL    HW1 2368   3.379   1.921   3.574 -0.9695  1.5008 -0.3064
  740SOL    HW2 2369   3.342   1.956   3.432  0.3546  1.9764 -0.5583
  741SOL     OW 2370   3.614   0.737   2.465 -0.0854  0.1487  0.7955
  741SOL    HW1 2371   3.532   0.693   2.445 -0.7522  0.5114  2.5947
  741SOL    HW2 2372   3.676   0.666   2.483  0.0164 -0.1227 -0.5491
  742SOL     OW 2373   1.203   1.969   2.085 -0.2697  0.0700 -0.0119
  742SOL    HW1 2374   1.280   2.022   2.103  0.7098 -1.8601  1.9241
  742SOL    HW2 2375   1.182   1.986   1.993  0.1870  3.4281  0.4095
  743SOL     OW 2376   0.447   1.514   0.659  0.6931  0.9852  0.3922
  743SOL    HW1 2377   0.471   1.524   0.751  1.2356  0.7118  0.2801
  743SOL    HW2 2378   0.526   1.482   0.617  0.4928  1.2661 -0.2023
  744SOL     OW 2379   0.925   2.345   2.301  0.5938  0.4944  0.8071
  744SOL    HW1 2380   0.998   2.284   2.307 -0.2278 -0.5621  0.2664
  744SOL    HW2 2381   0.959   2.418   2.249  0.3372 -1.4774 -2.3873
  745SOL     OW 2382   3.681   2.475   1.364  0.4818  0.6064  0.7852
  745SOL    HW1 2383   3.775   2.490   1.359  1.4009 -3.8100  1.1991
  745SOL    HW2 2384   3.652   2.470   1.273  1.5445 -1.9422  0.5202
  746SOL     OW 2385   2.922   3.310   1.091  0.0214 -0.3598  0.1588
  746SOL    HW1 2386   3.010   3.283   1.062  1.0991  1.2258  1.7301
  746SOL    HW2 2387   2.923   3.405   1.085 -1.0716 -0.2236  1.5714
  747SOL     OW 2388   2.449   3.529   0.613  0.1768 -0.0854 -0.2627
  747SOL    HW1 2389   2.390   3.551   0.541 -0.0774  0.0098 -0.0245
  747SOL    HW2 2390   2.400   3.549   0.692  1.5488  2.7948 -0.0242
  748SOL     OW 2391   0.801   1.675   0.506 -0.5958  0.1864 -0.2592
  748SOL    HW1 2392   0.813   1.704   0.596  0.3565  0.0891 -0.3427
  748SOL    HW2 2393   0.719   1.626   0.507 -0.3281 -0.2704  0.6700
  749SOL     OW 2394   3.498   0.106   3.316 -0.0787 -0.6133  0.0926
  749SOL    HW1 2395   3.549   0.135   3.391 -1.3804 -0.6738  1.0206
  749SOL    HW2 2396   3.412   0.085   3.351 -1.4169  1.4062 -1.7205
  750SOL     OW 2397   0.140   0.315   3.332 -0.0278 -0.4976 -0.1189
  750SOL    HW1 2398   0.205   0.265   3.282 -0.5344 -1.2157 -0.0714
  750SOL    HW2 2399   0.071   0.334   3.269 -0.2154 -0.5660  0.0643
  751SOL     OW 2400   3.369   1.136   2.783 -0.2057  0.1832 -1.1141
  751SOL    HW1 2401   3.279   1.103   2.786 -1.1481  2.4699  2.4021
  751SOL    HW2 2402   3.413   1.089   2.854  0.5829  0.9862 -1.0628
  752SOL     OW 2403   1.396   0.506   1.970  0.6894 -0.7037  0.2481
  752SOL    HW1 2404   1.444   0.449   1.911  0.3152  0.2050 -0.9726
  752SOL    HW2 2405   1.391   0.590   1.924 -2.9960 -1.0141 -0.2400
  753SOL     OW 2406   1.024   0.054   3.569  0.4418 -0.3162 -0.1575
  753SOL    HW1 2407   1.109   0.070   3.526  0.4266  0.4665  0.0876
  753SOL    HW2 2408   0.998   0.140   3.601 -1.2426 -0.2089 -1.6556
  754SOL     OW 2409   0.162   0.043   1.708 -0.0668 -0.1261 -0.1509
  754SOL    HW1 2410   0.223  -0.028   1.729  0.0208 -0.2386 -0.7621
  754SOL    HW2 2411   0.094   0.002   1.656 -0.5378  0.0529  0.3165
  755SOL     OW 2412   3.219   0.601   2.696 -0.1259  0.2951  0.2668
  755SOL    HW1 2413   3.238   0.507   2.692  2.1760  0.7128  0.3956
  755SOL    HW2 2414   3.264   0.631   2.775  0.0341  1.7047 -0.3426
  756SOL     OW 2415   1.386   1.373   0.329 -0.0478  0.0926 -0.3874
  756SOL    HW1 2416   1.479   1.393   0.329 -0.1960  0.9129  0.6976
  756SOL    HW2 2417   1.377   1.299   0.270  1.2091  0.3609 -0.9492
  757SOL     OW 2418   1.851   1.234   0.946  0.6651 -0.2252 -0.5212
  757SOL    HW1 2419   1.844   1.243   0.851 -0.2061  1.0946 -0.3586
  757SOL    HW2 2420   1.927   1.177   0.959 -1.7108 -4.1851 -2.1239
  758SOL     OW 2421   1.420   0.215   0.348 -0.0496  0.1180  0.2227
  758SOL    HW1 2422   1.378   0.205   0.434 -0.9823 -0.2662 -0.2685
  758SOL    HW2 2423   1.450   0.306   0.348 -0.6156  0.3204  0.7120
  759SOL     OW 2424   1.370   2.971   1.498  0.4279  0.2160 -0.6906
  759SOL    HW1 2425   1.410   3.002   1.417 -2.6718  0.2523 -2.3600
  759SOL    HW2 2426   1.350   3.051   1.547 -1.0104  0.4821 -1.6525
  760SOL     OW 2427   1.724   1.148   2.501 -0.4738  0.0336 -0.3175
  760SOL    HW1 2428   1.750   1.069   2.548  0.8236  0.7571  0.2301
  760SOL    HW2 2429   1.785   1.153   2.428  0.6246  1.4260  0.6356
  761SOL     OW 2430   2.518   0.898   0.435  0.0415  0.1516  0.9288
  761SOL    HW1 2431   2.458   0.859   0.372 -1.0608  0.0822  1.9714
  761SOL    HW2 2432   2.543   0.982   0.396 -2.4424  1.1765  1.3536
  762SOL     OW 2433   1.156   3.655   2.141  0.1006  0.1963 -0.7745
  762SOL    HW1 2434   1.244   3.676   2.109  0.7455  1.5131  1.6124
  762SOL    HW2 2435   1.097   3.691   2.075  1.2900 -1.6796 -2.9810
  763SOL     OW 2436   0.421   2.521   2.624  0.1430  0.2219  0.3757
  763SOL    HW1 2437   0.428   2.426   2.636 -1.5502 -0.0759 -0.6482
  763SOL    HW2 2438   0.468   2.558   2.698 -1.9551 -1.4405  2.7017
  764SOL     OW 2439   3.164   0.916   3.608 -0.1267 -0.5165 -0.2233
  764SOL    HW1 2440   3.105   0.974   3.560 -0.1108 -0.2745  0.0411
  764SOL    HW2 2441   3.224   0.883   3.542  0.3306  0.3584 -0.2668
  765SOL     OW 2442   3.308   1.173   3.496  0.0844  0.1713 -0.1009
  765SOL    HW1 2443   3.294   1.103   3.560 -1.3717 -1.4462 -2.0613
  765SOL    HW2 2444   3.396   1.205   3.515  0.0980 -0.9128  2.0371
  766SOL     OW 2445   3.023   2.384   2.398  0.1725  0.8036  0.1942
  766SOL    HW1 2446   3.095   2.425   2.351  0.1152  2.2992  1.3199
  766SOL    HW2 2447   3.054   2.378   2.489 -0.1244 -0.9992  0.2150
  767SOL     OW 2448   1.316   3.387   3.252  0.4375 -0.7423 -0.7558
  767SOL    HW1 2449   1.328   3.385   3.157 -0.9223 -0.6265 -0.9493
  767SOL    HW2 2450   1.303   3.480   3.272 -2.5014 -1.0298 -0.9436
  768SOL     OW 2451   2.168   3.542   2.207  0.1487  0.4923 -0.0611
  768SOL    HW1 2452   2.216   3.555   2.289 -0.9498  2.2964  0.3483
  768SOL    HW2 2453   2.235   3.547   2.139  1.1597 -1.5023  0.6771
  769SOL     OW 2454   2.398   3.077   2.368  0.0865 -0.0404 -0.0069
  769SOL    HW1 2455   2.333   3.146   2.369  2.1373  2.0509  2.2038
  769SOL    HW2 2456   2.473   3.115   2.322  1.4738 -0.4601  1.7795
  770SOL     OW 2457   1.383   1.199   2.713 -0.1170  0.3819  0.6407
  770SOL    HW1 2458   1.462   1.254   2.715 -0.3362  0.6856  1.2714
  770SOL    HW2 2459   1.406   1.127   2.655  1.3798 -0.6493  2.3953
  771SOL     OW 2460   1.674   1.875   1.287  0.0534  0.0833  0.5474
  771SOL    HW1 2461   1.722   1.891   1.369  0.1442  0.4836  0.4185
  771SOL    HW2 2462   1.741   1.882   1.219 -0.3095  1.3673  0.3026
  772SOL     OW 2463   3.565   3.241   0.560  0.5473 -0.8023 -0.1889
  772SOL    HW1 2464   3.656   3.270   0.562  0.9729 -1.9958 -1.1321
  772SOL    HW2 2465   3.514   3.323   0.564  1.6750 -0.0415 -0.8548
  773SOL     OW 2466   1.085   2.529   1.179 -0.0520 -0.2589 -0.3917
  773SOL    HW1 2467   1.074   2.499   1.089  0.4834 -0.4367 -0.4038
  773SOL    HW2 2468   1.145   2.604   1.173 -2.8869  2.1790 -0.5857
  774SOL     OW 2469   0.889   1.965   1.071 -0.1331 -0.0484 -0.3943
  774SOL    HW1 2470   0.837   1.887   1.053 -0.3078  0.4059 -1.9647
  774SOL    HW2 2471   0.967   1.955   1.017  0.5550  0.1776  0.5204
  775SOL     OW 2472   2.958   2.641   2.543  0.1380  0.1204 -0.3345
  775SOL    HW1 2473   2.976   2.553   2.577 -1.5287  0.0168  0.3464
  775SOL    HW2 2474   2.867   2.659   2.567  0.4711  2.0958 -0.3099
  776SOL     OW 2475   3.669   0.676   2.964 -0.4179  0.1699 -0.3027
  776SOL    HW1 2476   3.624   0.746   3.011  1.0818  0.1322  1.2780
  776SOL    HW2 2477   3.760   0.704   2.959  0.0808 -1.3389 -0.2582
  777SOL     OW 2478   3.723   2.312   3.097  0.5756 -0.3148  0.4446
  777SOL    HW1 2479   3.638   2.306   3.054  0.2194 -0.0550  1.0859
  777SOL    HW2 2480   3.746   2.405   3.091  0.6831 -0.3374  0.5078
  778SOL     OW 2481   2.114   2.857   1.278 -0.4618 -0.1583 -0.3658
  778SOL    HW1 2482   2.072   2.812   1.351  0.0636 -0.2202 -0.0881
  778SOL    HW2 2483   2.172   2.792   1.239  3.0027  1.0408  2.1978
  779SOL     OW 2484   0.692   2.012   0.529 -0.3400  0.5504  0.5935
  779SOL    HW1 2485   0.695   2.095   0.483 -1.7165  0.0727 -0.4445
  779SOL    HW2 2486   0.736   1.950   0.470 -1.1750  0.1471  0.3768
  780SOL     OW 2487   1.578   2.382   1.388  0.2726  0.2604  0.2185
  780SOL    HW1 2488   1.625   2.298   1.385 -0.6445 -0.3311  1.3986
  780SOL    HW2 2489   1.539   2.390   1.301 -2.2809 -2.1880  0.9767
  781SOL     OW 2490   1.615   1.668   1.885  0.9621 -0.6492 -0.1632
  781SOL    HW1 2491   1.691   1.631   1.840  0.4936  0.4644 -1.9616
  781SOL    HW2 2492   1.542   1.611   1.862  0.7476 -0.1589 -0.7204
  782SOL     OW 2493   0.723   2.284   0.478 -0.3451 -1.1576  0.1138
  782SOL    HW1 2494   0.631   2.309   0.478 -0.3847 -1.2580  1.2865
  782SOL    HW2 2495   0.765   2.342   0.541  0.5020 -0.7970 -0.7428
  783SOL     OW 2496   3.476   1.028   1.775 -0.1680  0.6246  0.4121
  783SOL    HW1 2497   3.498   1.095   1.841  0.0370  2.1910 -1.1779
  783SOL    HW2 2498   3.544   1.038   1.708 -1.0462 -0.1330 -0.6131
  784SOL     OW 2499   2.394   2.600   3.582  0.1772  0.0499  0.3401
  784SOL    HW1 2500   2.412   2.638   3.668 -2.1052  0.3160  0.7516
  784SOL    HW2 2501   2.312   2.552   3.593  1.3323 -2.4431 -0.9805
  785SOL     OW 2502   2.374   3.743   0.900 -0.3865 -0.1944 -0.1990
  785SOL    HW1 2503   2.424   3.810   0.854  0.4879  0.8829  2.1916
  785SOL    HW2 2504   2.410   3.660   0.869  2.0677  0.5349  0.5126
  786SOL     OW 2505   2.076   1.299   3.500 -0.3392 -0.2946  0.1037
  786SOL    HW1 2506   1.997   1.343   3.468 -0.6988 -1.4673 -0.6852
  786SOL    HW2 2507   2.101   1.240   3.429  2.5672  1.6025 -0.6563
  787SOL     OW 2508   0.335   2.719   0.132 -0.1627  0.6466 -0.2590
  787SOL    HW1 2509   0.249   2.677   0.131 -1.6211  3.2756  1.4969
  787SOL    HW2 2510   0.333   2.781   0.060 -0.5120  1.9755  0.8471
  788SOL     OW 2511   2.914   1.579   1.668 -0.5584  0.0320 -0.0023
  788SOL    HW1 2512   2.931   1.660   1.621  1.9281  0.0003  0.7182
  788SOL    HW2 2513   2.958   1.590   1.753 -0.0241 -2.0868  0.0651
  789SOL     OW 2514   1.609   3.254   2.041  0.2454  0.3333 -0.0208
  789SOL    HW1 2515   1.519   3.230   2.019 -0.2986  2.3933 -0.2116
  789SOL    HW2 2516   1.663   3.210   1.975 -0.6828 -0.1339 -0.4845
  790SOL     OW 2517   2.725   2.516   0.258  0.3092  0.1916  0.1398
  790SOL    HW1 2518   2.751   2.598   0.300  2.0601 -1.2845  2.1669
  790SOL    HW2 2519   2.648   2.488   0.307  1.1959 -0.5568  1.1642
  791SOL     OW 2520   0.584   0.153   3.033 -0.3214 -0.3171  0.1551
  791SOL    HW1 2521   0.517   0.085   3.026 -1.0247  0.5299 -2.4348
  791SOL    HW2 2522   0.667   0.106   3.034 -0.8494 -1.2651  0.2232
  792SOL     OW 2523   1.982   2.817   0.767 -0.0910  0.1043 -0.0380
  792SOL    HW1 2524   1.947   2.749   0.709 -1.6324  1.4129 -0.7169
  792SOL    HW2 2525   2.030   2.768   0.834 -2.2190 -1.7662  0.2461
  793SOL     OW 2526   0.988   2.473   0.934 -0.6439 -0.3543  0.2537
  793SOL    HW1 2527   0.903   2.501   0.969 -0.6753 -1.0780  0.7880
  793SOL    HW2 2528   0.978   2.379   0.917  0.1202 -0.5089  0.5741
  794SOL     OW 2529   3.614   1.449   2.955 -0.0124 -0.4100 -0.3458
  794SOL    HW1 2530   3.650   1.527   2.915  1.1884 -1.5629 -1.6336
  794SOL    HW2 2531   3.548   1.418   2.892 -1.8990  0.5661  1.0473
  795SOL     OW 2532   0.512   0.780   2.794  0.8278  0.0460  0.4377
  795SOL    HW1 2533   0.467   0.831   2.727 -2.5151 -1.5625  1.2351
  795SOL    HW2 2534   0.557   0.845   2.847  1.8208  1.5377 -2.0660
  796SOL     OW 2535   3.631   3.510   2.894  0.3686  0.3143 -0.9377
  796SOL    HW1 2536   3.626   3.507   2.798  0.2329 -1.6556 -0.9151
  796SOL    HW2 2537   3.698   3.576   2.912  0.6885  0.4408 -2.4071
  797SOL     OW 2538   1.923   2.921   0.295  0.0713 -0.2289 -0.3949
  797SOL    HW1 2539   1.837   2.950   0.263  1.0174  1.3410 -1.6202
  797SOL    HW2 2540   1.948   2.987   0.360  1.2357  0.4661 -1.5297
  798SOL     OW 2541   3.490   3.676   0.396  0.4626 -0.5665 -0.3460
  798SOL    HW1 2542   3.536   3.749   0.439 -1.9302  0.3730  0.7753
  798SOL    HW2 2543   3.477   3.612   0.467 -0.7100 -0.4207 -0.4166
  799SOL     OW 2544   0.888   1.427   1.012  0.1329  0.1830 -0.0524
  799SOL    HW1 2545   0.965   1.414   0.957  0.6531  0.6788  0.5364
  799SOL    HW2 2546   0.910   1.386   1.095 -0.7012 -0.6843 -0.2410
  800SOL     OW 2547   0.824   2.937   1.132  0.3841 -0.1058 -0.1092
  800SOL    HW1 2548   0.786   3.010   1.181 -0.8364  0.1618 -1.4002
  800SOL    HW2 2549   0.859   2.977   1.052  1.0120 -0.7445 -0.1681
  801SOL     OW 2550   0.407   0.681   1.273 -0.8668  0.4567  0.1832
  801SOL    HW1 2551   0.475   0.683   1.340  0.0454  1.6209 -0.7172
  801SOL    HW2 2552   0.341   0.620   1.306  0.8502 -1.1163  0.8671
  802SOL     OW 2553   1.050   0.946   3.328  0.0580 -0.1243 -0.2141
  802SOL    HW1 2554   1.014   1.022   3.374  1.9486 -0.1145  1.4043
  802SOL    HW2 2555   0.984   0.878   3.337 -0.3445  0.4081  1.0591
  803SOL     OW 2556   0.430   3.703   1.490  0.0864 -0.6346 -0.4932
  803SOL    HW1 2557   0.444   3.745   1.575 -0.9477  0.9121 -1.0459
  803SOL    HW2 2558   0.435   3.610   1.508  1.7024 -0.3225  0.9355
  804SOL     OW 2559   0.716   3.687   2.680 -0.2853  0.4551  0.2000
  804SOL    HW1 2560   0.805   3.698   2.714 -0.4035 -1.0718  1.0282
  804SOL    HW2 2561   0.683   3.777   2.672  0.6690  0.9720  1.6388
  805SOL     OW 2562   3.292   3.149   2.135  0.4272  0.3586  0.0594
  805SOL    HW1 2563   3.246   3.230   2.158 -1.6400 -0.9402  0.8286
  805SOL    HW2 2564   3.350   3.132   2.208  0.9504  1.1817 -0.1561
  806SOL     OW 2565   0.683   0.094   1.611 -0.4865 -0.4802  0.6885
  806SOL    HW1 2566   0.741   0.165   1.639 -0.6349 -0.2976  0.5366
  806SOL    HW2 2567   0.599   0.113   1.653 -1.0199  0.3740 -0.6720
  807SOL     OW 2568   2.825   2.134   2.920 -0.2963 -0.3787  0.4193
  807SOL    HW1 2569   2.740   2.176   2.903 -0.8184 -1.4105  0.4110
  807SOL    HW2 2570   2.846   2.159   3.010 -0.5853 -0.0710  0.4050
  808SOL     OW 2571   1.817   1.933   3.151 -0.1356  0.4979 -0.1854
  808SOL    HW1 2572   1.825   2.028   3.144  1.0815  0.5654  1.4333
  808SOL    HW2 2573   1.751   1.919   3.218 -0.2827  0.1989 -0.3909
  809SOL     OW 2574   3.436   2.969   2.632  0.5160  0.7009  0.2028
  809SOL    HW1 2575   3.397   3.034   2.574 -2.0983 -0.0260  0.9794
  809SOL    HW2 2576   3.379   2.969   2.710 -1.3443 -4.1766 -0.7731
  810SOL     OW 2577   1.418   3.404   2.997  0.7662 -0.6646 -0.3584
  810SOL    HW1 2578   1.429   3.482   2.943 -1.4995  0.3637  0.5055
  810SOL    HW2 2579   1.506   3.369   3.009  2.1950  2.9086  0.8942
  811SOL     OW 2580   3.014   2.668   3.145  0.4030 -1.0932 -0.5150
  811SOL    HW1 2581   3.023   2.759   3.117  1.2254 -1.5825 -1.9548
  811SOL    HW2 2582   3.104   2.640   3.164 -0.0681 -0.8794  2.5033
  812SOL     OW 2583   2.248   2.657   1.646  0.0554  0.6564  0.1633
  812SOL    HW1 2584   2.154   2.650   1.666  0.5332 -2.5017  1.9550
  812SOL    HW2 2585   2.259   2.608   1.564  0.4682 -2.0711  1.7108
  813SOL     OW 2586   2.878   0.981   2.757  0.7459 -0.6645 -0.3756
  813SOL    HW1 2587   2.788   0.951   2.772  0.4027 -0.4672 -1.9128
  813SOL    HW2 2588   2.908   0.931   2.682  2.1513 -1.1448  0.4619
  814SOL     OW 2589   1.971   2.382   0.472 -0.4464  0.5421 -0.3342
  814SOL    HW1 2590   2.019   2.343   0.399  0.4331 -0.7567  0.8805
  814SOL    HW2 2591   1.900   2.319   0.490  0.8172 -0.4715  1.4660
  815SOL     OW 2592   0.696   1.040   0.886 -0.5092 -0.1433  0.2543
  815SOL    HW1 2593   0.637   1.100   0.932  0.7531  1.1451  0.2400
  815SOL    HW2 2594   0.743   0.994   0.956 -0.0166  0.3706  0.2635
  816SOL     OW 2595   0.771   2.774   1.549  0.8011  0.0733 -0.0706
  816SOL    HW1 2596   0.708   2.845   1.540 -0.2422 -0.9314 -0.8117
  816SOL    HW2 2597   0.768   2.727   1.466 -0.0979 -2.1049  1.1039
  817SOL     OW 2598   1.163   1.263   3.209 -0.1206 -0.0190  0.4996
  817SOL    HW1 2599   1.072   1.287   3.189 -0.2206  1.0273  2.0723
  817SOL    HW2 2600   1.195   1.224   3.128 -1.0646  2.2508 -1.0774
  818SOL     OW 2601   1.769   1.893   1.688 -0.0012 -0.1298 -0.0120
  818SOL    HW1 2602   1.820   1.834   1.634  0.0338  1.8983 -2.3635
  818SOL    HW2 2603   1.681   1.857   1.688 -0.0879  0.0031 -1.8117
  819SOL     OW 2604   0.391   1.206   0.549  0.3539  0.2769  0.3514
  819SOL    HW1 2605   0.462   1.144   0.562  0.2733  0.1313  0.0976
  819SOL    HW2 2606   0.434   1.288   0.526  0.4498  0.2557  0.4566
  820SOL     OW 2607   2.090   1.378   1.673 -0.2831  0.2946 -0.0766
  820SOL    HW1 2608   2.108   1.377   1.767 -1.5399  0.7602  0.1948
  820SOL    HW2 2609   1.994   1.383   1.667 -0.1667  1.8437 -1.3589
  821SOL     OW 2610   0.321   1.664   3.103 -0.2530  0.2529  0.1106
  821SOL    HW1 2611   0.312   1.757   3.120 -3.0181 -0.0245  0.5956
  821SOL    HW2 2612   0.233   1.635   3.079  0.6818 -2.0974 -0.7900
  822SOL     OW 2613   2.597   2.380   0.994  0.5248 -0.2303 -0.3716
  822SOL    HW1 2614   2.620   2.351   0.906 -0.9417 -1.4067 -0.3948
  822SOL    HW2 2615   2.621   2.306   1.051 -2.8698 -1.5238 -0.3834
  823SOL     OW 2616   3.611   3.264   2.149  0.5603  0.0082  0.6472
  823SOL    HW1 2617   3.550   3.241   2.079  0.9193  0.0100  0.3278
  823SOL    HW2 2618   3.689   3.211   2.131  0.6903  0.0771  0.9942
  824SOL     OW 2619   3.252   0.120   0.667  0.2795  0.8849  0.9779
  824SOL    HW1 2620   3.319   0.056   0.691 -0.2187 -1.3272 -2.8455
  824SOL    HW2 2621   3.290   0.170   0.595 -1.9131 -0.2419 -1.1202
  825SOL     OW 2622   0.814   1.158   2.673 -0.4809 -0.3309  0.5064
  825SOL    HW1 2623   0.771   1.149   2.759  1.5758 -2.4285  1.4358
  825SOL    HW2 2624   0.893   1.209   2.691 -0.0850 -0.7082 -0.1515
  826SOL     OW 2625   1.705   1.411   0.600 -0.6318 -0.4014  0.2752
  826SOL    HW1 2626   1.610   1.423   0.607 -0.6238 -0.5012  0.5731
  826SOL    HW2 2627   1.725   1.337   0.657 -0.1047  0.9576  1.9900
  827SOL     OW 2628   3.518   2.754   3.452 -0.1696  0.5344  0.1660
  827SOL    HW1 2629   3.583   2.795   3.508  0.8052  0.8429 -1.1521
  827SOL    HW2 2630   3.565   2.682   3.409 -0.8900  0.3132 -0.2744
  828SOL     OW 2631   1.009   3.700   2.720  0.3469  0.1929 -0.3726
  828SOL    HW1 2632   1.037   3.618   2.681  0.0597  0.5026 -1.2570
  828SOL    HW2 2633   1.051   3.702   2.806  3.1777  0.7017 -1.6506
  829SOL     OW 2634   0.829   2.107   2.796 -0.0906 -0.2392  0.1039
  829SOL    HW1 2635   0.745   2.144   2.769  1.2802  1.3630 -2.3480
  829SOL    HW2 2636   0.866   2.069   2.716  2.2679  0.6756  0.6628
  830SOL     OW 2637   1.453   3.275   1.388 -0.1295 -0.0611  0.7938
  830SOL    HW1 2638   1.492   3.283   1.301 -2.0354 -1.3844 -0.2632
  830SOL    HW2 2639   1.398   3.352   1.398 -1.5532 -0.9140 -0.1247
  831SOL     OW 2640   0.317   3.013   0.051  0.0333  0.0559 -0.0191
  831SOL    HW1 2641   0.352   3.054   0.131  2.0805  0.2048 -0.9396
  831SOL    HW2 2642   0.320   3.083  -0.015  1.0433 -0.8246 -0.9321
  832SOL     OW 2643   2.801   0.496   2.976 -0.9152  0.0615  0.1047
  832SOL    HW1 2644   2.765   0.576   3.015 -1.2655  0.5952 -1.2431
  832SOL    HW2 2645   2.846   0.527   2.897  2.0832 -0.6380  1.3985
  833SOL     OW 2646   0.152   1.756   0.830 -0.0774 -0.8936 -0.0445
  833SOL    HW1 2647   0.100   1.675   0.828 -1.0800 -0.3384  1.6087
  833SOL    HW2 2648   0.117   1.805   0.904  1.0036  0.7503 -0.5686
  834SOL     OW 2649   0.008   2.262   2.601 -0.2541 -0.5651  0.0752
  834SOL    HW1 2650   0.073   2.318   2.642 -1.3236  0.6229  0.2098
  834SOL    HW2 2651  -0.037   2.319   2.539 -0.0668 -1.7928 -1.2411
  835SOL     OW 2652   0.541   1.770   1.211  0.0210  0.5127 -0.8738
  835SOL    HW1 2653   0.470   1.813   1.164 -0.3305  0.4832 -0.3778
  835SOL    HW2 2654   0.538   1.808   1.299  0.6619  0.5618 -0.8642
  836SOL     OW 2655   0.237   0.648   3.054 -0.3944  0.6200 -0.4939
  836SOL    HW1 2656   0.245   0.626   2.962  0.2990 -0.9655 -0.0885
  836SOL    HW2 2657   0.294   0.724   3.066  2.0469 -1.0435 -0.7999
  837SOL     OW 2658   3.385   0.614   0.890 -0.3750  0.0003  0.4749
  837SOL    HW1 2659   3.353   0.553   0.955 -3.3568 -0.1802 -1.0240
  837SOL    HW2 2660   3.314   0.676   0.877  0.9467  1.3046 -1.0838
  838SOL     OW 2661   1.684   2.308   3.737  0.0026  0.2101  0.0562
  838SOL    HW1 2662   1.723   2.365   3.803  1.6366  1.5757 -1.9709
  838SOL    HW2 2663   1.693   2.356   3.655  1.1306 -2.7660 -1.7334
  839SOL     OW 2664   2.329   1.176   0.938  0.4606  0.2575  0.6332
  839SOL    HW1 2665   2.334   1.251   0.879 -0.1130 -0.1138  0.1071
  839SOL    HW2 2666   2.398   1.117   0.908 -1.5332 -1.1559 -1.4174
  840SOL     OW 2667   1.566   2.263   0.803 -0.5219  0.4875 -0.6874
  840SOL    HW1 2668   1.521   2.182   0.826  2.2265 -1.0750 -0.3239
  840SOL    HW2 2669   1.496   2.328   0.792 -2.8938 -2.0278 -1.5218
  841SOL     OW 2670   1.485   2.805   0.550  0.3203 -0.1041 -0.1676
  841SOL    HW1 2671   1.469   2.820   0.457 -1.8931 -1.1819 -0.0070
  841SOL    HW2 2672   1.558   2.863   0.570 -0.2383  1.4371 -2.1844
  842SOL     OW 2673   1.195   0.483   3.581  0.2070 -0.2802 -0.1317
  842SOL    HW1 2674   1.273   0.443   3.621 -0.5773 -0.1440  1.6148
  842SOL    HW2 2675   1.191   0.570   3.620 -0.6882 -0.1985 -0.3996
  843SOL     OW 2676   2.563   0.707   2.001  0.1451 -0.9313  0.6571
  843SOL    HW1 2677   2.579   0.777   2.065 -0.3870  0.2250 -0.4219
  843SOL    HW2 2678   2.627   0.723   1.932 -0.2920 -1.2425  0.1786
  844SOL     OW 2679   1.938   1.873   2.260 -0.2087  0.4030 -0.6338
  844SOL    HW1 2680   1.986   1.791   2.251 -1.4164 -0.4584  0.4897
  844SOL    HW2 2681   1.876   1.872   2.188  1.1780  1.3849 -1.9159
  845SOL     OW 2682   2.945   2.457   3.605  0.3168 -0.4130  0.3868
  845SOL    HW1 2683   2.944   2.440   3.699  1.9164 -0.2782  0.4555
  845SOL    HW2 2684   2.953   2.370   3.565  1.1022 -0.3717  0.4436
  846SOL     OW 2685   0.288   0.759   2.074  0.4191  0.2948  0.0048
  846SOL    HW1 2686   0.306   0.791   2.163 -1.0923 -0.0672  0.4574
  846SOL    HW2 2687   0.369   0.714   2.049  0.5070 -0.5007  1.6039
  847SOL     OW 2688   2.440   3.262   1.637  0.4029 -0.5097 -0.6087
  847SOL    HW1 2689   2.401   3.181   1.670 -2.0811 -0.5930 -3.4068
  847SOL    HW2 2690   2.481   3.237   1.554 -0.1024  1.0125 -1.3558
  848SOL     OW 2691   2.749   3.467   0.840  0.2429 -0.0536  0.2312
  848SOL    HW1 2692   2.753   3.371   0.841 -2.7424 -0.3307  2.9571
  848SOL    HW2 2693   2.736   3.491   0.932 -0.8061  2.8440 -0.5737
  849SOL     OW 2694   3.566   3.619   2.634 -0.4250 -0.1615  0.1012
  849SOL    HW1 2695   3.512   3.678   2.582  0.1826 -1.0819 -1.6656
  849SOL    HW2 2696   3.546   3.532   2.599 -0.3400 -0.8885  1.7641
  850SOL     OW 2697   3.040   1.523   0.426  0.5155  0.2636 -0.2826
  850SOL    HW1 2698   3.039   1.465   0.502  0.1203  0.0663 -0.4365
  850SOL    HW2 2699   3.133   1.532   0.404  0.5446 -0.9023 -0.7043
  851SOL     OW 2700   1.654   1.022   2.913 -0.4177  0.0281 -0.2749
  851SOL    HW1 2701   1.664   1.072   2.994 -0.7562 -0.0896 -0.1579
  851SOL    HW2 2702   1.583   0.960   2.931 -1.5393  1.0164 -1.1576
  852SOL     OW 2703   3.257   0.678   0.399  0.3969  0.5040 -0.1029
  852SOL    HW1 2704   3.291   0.693   0.311  4.4248  0.6452  1.2599
  852SOL    HW2 2705   3.209   0.595   0.393  0.1743  0.7543 -2.4802
  853SOL     OW 2706   0.257   3.693   3.549 -0.5147 -0.8027 -0.0386
  853SOL    HW1 2707   0.168   3.716   3.523 -0.4681 -0.1923  0.3239
  853SOL    HW2 2708   0.278   3.615   3.497 -0.6628  0.0040 -1.3611
  854SOL     OW 2709   0.035   0.959   2.361  1.0711 -0.1238  0.2315
  854SOL    HW1 2710   0.009   0.926   2.275 -0.2801  2.0083 -0.2347
  854SOL    HW2 2711   0.010   0.889   2.422 -2.9001  0.3810 -0.5689
  855SOL     OW 2712   2.338   1.472   3.605 -0.0186 -0.1009 -0.0310
  855SOL    HW1 2713   2.356   1.482   3.699  0.4363  1.3705 -0.2530
  855SOL    HW2 2714   2.321   1.379   3.594 -1.8801 -0.0390  1.8197
  856SOL     OW 2715   3.642   2.218   0.749 -0.0110  0.3836  0.1602
  856SOL    HW1 2716   3.710   2.267   0.702  0.9080  0.2240  1.2570
  856SOL    HW2 2717   3.681   2.131   0.763 -0.4740  0.2554  0.7090
  857SOL     OW 2718   0.893   0.323   2.848  0.8486 -0.0694  0.1915
  857SOL    HW1 2719   0.874   0.416   2.831  1.2220  0.1983  1.1476
  857SOL    HW2 2720   0.920   0.321   2.940 -0.7353 -1.3746  0.6804
  858SOL     OW 2721   1.537   1.248   3.517  0.0204  0.1760 -0.0517
  858SOL    HW1 2722   1.459   1.199   3.490  0.2289 -0.4034  0.3842
  858SOL    HW2 2723   1.591   1.252   3.438  1.2271 -2.6470  0.5325
  859SOL     OW 2724   1.988   2.731   2.330  0.9855  0.0590 -0.1008
  859SOL    HW1 2725   2.040   2.801   2.290  1.6189 -0.5401 -0.3565
  859SOL    HW2 2726   1.898   2.762   2.326  1.3524  1.2276  0.5780
  860SOL     OW 2727   2.570   2.360   3.730 -0.5325 -0.1852 -0.1433
  860SOL    HW1 2728   2.622   2.394   3.803 -0.9129  0.1334 -0.0118
  860SOL    HW2 2729   2.626   2.297   3.687 -0.2766 -0.3246  0.3897
  861SOL     OW 2730   1.803   2.974   0.910 -0.0123  0.2568  0.0436
  861SOL    HW1 2731   1.859   2.915   0.860 -0.4147 -0.8123  0.8115
  861SOL    HW2 2732   1.861   3.016   0.973 -0.3081 -2.5025  2.3698
  862SOL     OW 2733   0.674   0.698   0.193 -0.4368  0.7388 -0.7614
  862SOL    HW1 2734   0.767   0.686   0.174  0.1004  0.4589  1.6505
  862SOL    HW2 2735   0.669   0.787   0.230 -0.5716 -0.1937  1.6651
  863SOL     OW 2736   1.543   1.929   2.227 -0.6669 -0.3628  0.1545
  863SOL    HW1 2737   1.487   2.003   2.252 -0.6111 -0.1905 -0.2350
  863SOL    HW2 2738   1.486   1.853   2.233 -1.0917 -0.1206 -0.7792
  864SOL     OW 2739   2.619   1.194   2.119  0.5865 -0.0539 -0.1610
  864SOL    HW1 2740   2.663   1.279   2.114 -1.3423  1.2707  2.7847
  864SOL    HW2 2741   2.583   1.181   2.031  1.2308  2.0120 -0.7865
  865SOL     OW 2742   0.159   1.778   1.246 -0.1785  0.3429  0.7568
  865SOL    HW1 2743   0.219   1.808   1.177 -0.9581 -2.0024 -1.0584
  865SOL    HW2 2744   0.211   1.782   1.326  1.1828  1.9055 -0.1427
  866SOL     OW 2745   0.159   3.538   3.323 -0.2402  0.1958  0.3134
  866SOL    HW1 2746   0.244   3.528   3.280  0.4321 -1.1949  1.8836
  866SOL    HW2 2747   0.102   3.476   3.277 -0.1241  0.3314 -0.0183
  867SOL     OW 2748   1.620   2.321   1.123  0.2718  0.1374  0.4090
  867SOL    HW1 2749   1.597   2.368   1.043  1.2259  2.0598  1.1821
  867SOL    HW2 2750   1.603   2.229   1.103 -0.1397  0.6247 -1.7570
  868SOL     OW 2751   0.299   0.905   2.969  0.6634  0.0560 -0.5010
  868SOL    HW1 2752   0.215   0.923   2.927 -0.7964 -0.5001  1.9494
  868SOL    HW2 2753   0.362   0.960   2.923 -1.3927  2.0073 -1.1677
  869SOL     OW 2754   3.351   0.375   3.430 -0.3192 -1.0202  0.0186
  869SOL    HW1 2755   3.274   0.423   3.461 -0.2441 -0.7529 -0.2039
  869SOL    HW2 2756   3.387   0.334   3.509  0.4291  0.4443  0.4765
  870SOL     OW 2757   1.766   1.417   2.016 -0.2957 -0.0219 -0.7163
  870SOL    HW1 2758   1.767   1.400   1.922  1.7337 -0.0110 -0.7536
  870SOL    HW2 2759   1.698   1.360   2.050 -2.8964  1.7868 -2.4310
  871SOL     OW 2760   0.057   0.427   3.072  0.0713  0.5430  0.1614
  871SOL    HW1 2761  -0.034   0.400   3.080  0.1642  0.4944  1.1072
  871SOL    HW2 2762   0.054   0.507   3.019 -0.1881 -1.3755 -3.0138
  872SOL     OW 2763   0.107   1.725   3.348  0.3774  0.0202 -0.1241
  872SOL    HW1 2764   0.067   1.666   3.283 -1.6100  1.5549 -0.4073
  872SOL    HW2 2765   0.156   1.788   3.296 -0.5430  0.7627 -0.1263
  873SOL     OW 2766   3.625   3.210   2.654  0.4401 -0.0159 -0.5913
  873SOL    HW1 2767   3.530   3.203   2.658  0.3859 -1.1032 -2.6051
  873SOL    HW2 2768   3.654   3.130   2.611  2.0726  1.2633 -2.0379
  874SOL     OW 2769   1.230   0.884   3.140 -0.4220 -0.0666 -0.1095
  874SOL    HW1 2770   1.173   0.931   3.202 -1.2304 -0.4700 -0.5369
  874SOL    HW2 2771   1.170   0.832   3.087  0.4677 -1.6264  0.3797
  875SOL     OW 2772   2.398   0.223   0.086  0.2171  0.5544  0.1058
  875SOL    HW1 2773   2.331   0.195   0.148  1.0584 -2.1094 -0.0700
  875SOL    HW2 2774   2.386   0.318   0.079  0.3112  1.1191  4.6601
  876SOL     OW 2775   0.406   0.005   2.664  0.6918 -0.0341 -0.7850
  876SOL    HW1 2776   0.372  -0.037   2.743  0.6383  0.6157 -0.4536
  876SOL    HW2 2777   0.435   0.091   2.694  2.4537 -0.4734 -1.0808
  877SOL     OW 2778   0.037   0.743   0.541 -0.0511  0.3706  0.3177
  877SOL    HW1 2779  -0.013   0.790   0.475 -1.6826 -1.3507  0.2421
  877SOL    HW2 2780  -0.021   0.738   0.617  1.1661  0.8880  1.3264
  878SOL     OW 2781   3.184   0.335   2.693  0.4930  0.7231  0.2022
  878SOL    HW1 2782   3.091   0.327   2.676  0.5626  2.7093 -1.5216
  878SOL    HW2 2783   3.218   0.245   2.688 -1.1173  0.1285 -0.4162
  879SOL     OW 2784   2.966   2.447   0.473  0.0914 -0.1988 -0.0519
  879SOL    HW1 2785   2.998   2.485   0.555  1.9006 -0.3428 -0.6399
  879SOL    HW2 2786   2.994   2.509   0.405 -1.5101 -0.0087 -0.5709
  880SOL     OW 2787   3.476   0.625   2.213 -0.1710 -0.1161  0.4634
  880SOL    HW1 2788   3.414   0.651   2.281  1.3811 -2.6484  3.0631
  880SOL    HW2 2789   3.481   0.530   2.220 -0.2349 -0.6021 -3.6148
  881SOL     OW 2790   2.053   2.071   1.955  0.7328  0.2998  0.3341
  881SOL    HW1 2791   2.012   1.986   1.972  2.3221 -0.2348  1.7599
  881SOL    HW2 2792   2.085   2.065   1.864 -0.2419 -0.1434  0.0109
  882SOL     OW 2793   1.910   2.735   2.020 -0.2871 -0.2020  0.3139
  882SOL    HW1 2794   2.005   2.726   2.032 -0.6008 -2.2364  2.0655
  882SOL    HW2 2795   1.880   2.779   2.099 -0.6925  1.9670 -0.9724
  883SOL     OW 2796   0.564   2.614   3.549 -0.0601  0.0097  0.7730
  883SOL    HW1 2797   0.478   2.654   3.554 -0.1137 -0.0908  0.6430
  883SOL    HW2 2798   0.554   2.541   3.487  0.3374  0.5601  0.0416
  884SOL     OW 2799   0.445   3.470   3.247 -0.2105 -0.4669  0.0745
  884SOL    HW1 2800   0.501   3.467   3.169 -0.1706 -2.4887  0.1423
  884SOL    HW2 2801   0.478   3.399   3.303  2.1527  2.9943  3.6717
  885SOL     OW 2802   1.771   0.846   3.710 -0.9721 -0.0141 -0.7284
  885SOL    HW1 2803   1.800   0.886   3.628 -0.3935  1.8266  0.2904
  885SOL    HW2 2804   1.845   0.791   3.737 -1.9005 -2.1816 -2.3095
  886SOL     OW 2805   0.993   1.675   0.829 -0.4399 -0.4754  1.0206
  886SOL    HW1 2806   1.014   1.650   0.919  0.7213  0.5237  1.0534
  886SOL    HW2 2807   0.900   1.696   0.831 -0.1853  0.6852  2.2933
  887SOL     OW 2808   2.151   2.982   2.253 -0.0463  0.4286  0.1285
  887SOL    HW1 2809   2.196   2.935   2.323 -0.4696 -0.8533 -0.4245
  887SOL    HW2 2810   2.218   3.036   2.212  0.5164  0.1087  0.6215
  888SOL     OW 2811   1.928   0.484   1.267  0.3429  0.4881  0.0608
  888SOL    HW1 2812   1.916   0.390   1.250 -0.6446  1.0637 -2.9991
  888SOL    HW2 2813   2.011   0.506   1.223  1.6911  0.7471  2.5418
  889SOL     OW 2814   1.733   3.357   1.266 -0.1133 -0.2650  0.6192
  889SOL    HW1 2815   1.714   3.281   1.211 -0.4363 -0.2649  0.7285
  889SOL    HW2 2816   1.806   3.329   1.321  0.4702 -0.1344 -0.0744
  890SOL     OW 2817   2.871   3.691   1.300  0.0722  0.4860 -0.6087
  890SOL    HW1 2818   2.899   3.715   1.389 -1.4849  3.5301 -0.7932
  890SOL    HW2 2819   2.785   3.652   1.312 -0.3807  1.4090 -0.7842
  891SOL     OW 2820   1.066   1.735   2.640 -0.4533 -0.7845 -0.8413
  891SOL    HW1 2821   1.129   1.793   2.597 -1.3839 -0.6185 -2.0696
  891SOL    HW2 2822   1.107   1.710   2.722 -0.7151  3.0813  0.6784
  892SOL     OW 2823   3.376   1.637   1.497 -0.0824  0.1603 -0.1261
  892SOL    HW1 2824   3.298   1.587   1.475  0.4082 -0.4146 -0.6023
  892SOL    HW2 2825   3.358   1.726   1.467  0.1963 -0.3905 -2.0554
  893SOL     OW 2826   2.159   0.269   3.649  0.3007 -0.5187 -0.4255
  893SOL    HW1 2827   2.178   0.323   3.573 -1.4959  2.3237  0.9989
  893SOL    HW2 2828   2.244   0.234   3.675  1.2891  0.2980 -2.3599
  894SOL     OW 2829   2.559   1.653   2.075 -0.6012 -0.4100  0.1620
  894SOL    HW1 2830   2.610   1.586   2.119 -0.1006 -0.3863 -0.3603
  894SOL    HW2 2831   2.573   1.732   2.127  0.3841 -0.2641 -0.2816
  895SOL     OW 2832   2.236   2.268   2.718 -0.5681  0.2399  0.1094
  895SOL    HW1 2833   2.238   2.183   2.760  0.7245  0.0179 -0.3441
  895SOL    HW2 2834   2.152   2.270   2.671 -0.3987 -0.9950 -0.2917
  896SOL     OW 2835   0.545   3.104   0.309 -0.3258  0.5102 -0.1027
  896SOL    HW1 2836   0.602   3.165   0.263  1.8406 -0.6378  0.9301
  896SOL    HW2 2837   0.489   3.160   0.363 -0.0018  1.6744 -0.9526
  897SOL     OW 2838   3.331   1.737   2.632 -0.0348  0.0869  0.4037
  897SOL    HW1 2839   3.283   1.660   2.600  1.4472  0.1113 -2.1202
  897SOL    HW2 2840   3.285   1.761   2.713  0.6018 -4.6090  2.5227
  898SOL     OW 2841   0.336   2.453   0.330  0.3358  0.2787  0.2308
  898SOL    HW1 2842   0.390   2.416   0.399  0.8051  2.2356  0.9718
  898SOL    HW2 2843   0.395   2.459   0.254  1.6184  3.3307  1.3081
  899SOL     OW 2844   0.524   1.159   0.121  0.0958  0.3079 -0.0044
  899SOL    HW1 2845   0.550   1.108   0.198 -1.2867 -0.5041 -0.0426
  899SOL    HW2 2846   0.560   1.112   0.047 -0.9677 -0.5174 -0.0214
  900SOL     OW 2847   3.609   0.977   2.612  0.6103 -0.1704 -0.2791
  900SOL    HW1 2848   3.608   0.889   2.573 -1.2742 -0.2398 -0.1624
  900SOL    HW2 2849   3.518   0.993   2.638  1.2785  1.0440  1.4991
  901SOL     OW 2850   2.510   3.191   1.390 -0.2792 -0.3253 -1.0048
  901SOL    HW1 2851   2.485   3.099   1.380 -1.3531  0.0374 -1.6720
  901SOL    HW2 2852   2.573   3.206   1.320 -1.5050 -0.0593 -2.0732
  902SOL     OW 2853   2.473   2.979   1.759 -0.2580 -0.4985 -0.3201
  902SOL    HW1 2854   2.483   2.886   1.736  0.4403 -0.1971 -1.3036
  902SOL    HW2 2855   2.486   2.981   1.854  0.9014 -1.2699 -0.4411
  903SOL     OW 2856   1.344   3.341   1.788 -0.8628 -0.2442  0.4685
  903SOL    HW1 2857   1.316   3.333   1.879 -0.3131  1.2592  0.8151
  903SOL    HW2 2858   1.282   3.289   1.738 -1.0401 -1.2788  1.7258
  904SOL     OW 2859   1.297   3.607   2.383  0.0301 -0.5299 -0.7997
  904SOL    HW1 2860   1.374   3.554   2.362 -0.1299 -0.7641 -0.8105
  904SOL    HW2 2861   1.273   3.648   2.300  0.7146  0.3140 -0.5864
  905SOL     OW 2862   3.694   2.815   2.615 -0.3921  0.5996  0.0431
  905SOL    HW1 2863   3.753   2.885   2.586 -0.0826 -0.1032 -1.0785
  905SOL    HW2 2864   3.650   2.852   2.691  1.5877  1.1013  1.0267
  906SOL     OW 2865   1.444   1.484   0.808  0.5913  0.3634 -0.9423
  906SOL    HW1 2866   1.455   1.409   0.865 -0.0966  1.9295  1.3703
  906SOL    HW2 2867   1.397   1.449   0.732  0.0649 -1.4944  0.1718
  907SOL     OW 2868   1.329   1.586   1.048 -0.0370  0.1192  0.2296
  907SOL    HW1 2869   1.392   1.555   0.983  0.1679 -0.3322  0.6387
  907SOL    HW2 2870   1.251   1.533   1.033 -0.3197  0.6620 -0.2616
  908SOL     OW 2871   1.277   0.906   0.628  0.1923 -0.2041 -0.1794
  908SOL    HW1 2872   1.236   0.861   0.701 -0.7078  1.4661  0.4064
  908SOL    HW2 2873   1.333   0.972   0.668  0.7910 -0.1917 -1.0035
  909SOL     OW 2874   2.754   2.580   3.173 -0.7357 -0.6037 -0.7208
  909SOL    HW1 2875   2.778   2.570   3.265 -0.9000 -1.1159 -0.7310
  909SOL    HW2 2876   2.837   2.586   3.126 -0.6236 -1.9413 -0.7114
  910SOL     OW 2877   2.527   1.614   1.808 -0.1205  0.6388  0.3791
  910SOL    HW1 2878   2.580   1.671   1.752 -0.0801  1.9612  1.7197
  910SOL    HW2 2879   2.527   1.657   1.893 -1.1426 -0.7347  1.1039
  911SOL     OW 2880   3.185   0.414   0.377  0.2246 -0.4161 -0.3193
  911SOL    HW1 2881   3.265   0.378   0.417  0.1317 -1.9384 -1.4263
  911SOL    HW2 2882   3.124   0.341   0.376 -0.9469  0.5282 -0.2006
  912SOL     OW 2883   2.146   2.081   1.705 -0.1293 -0.0422  0.1545
  912SOL    HW1 2884   2.170   1.995   1.669  1.7736 -0.4421  2.1275
  912SOL    HW2 2885   2.203   2.142   1.659  1.4484 -0.4066  1.5177
  913SOL     OW 2886   2.077   2.022   0.643  0.6416 -0.4541  0.5633
  913SOL    HW1 2887   2.116   2.094   0.694 -1.2044  1.6910 -0.8810
  913SOL    HW2 2888   2.030   1.970   0.708 -0.2761  1.2680  1.3498
  914SOL     OW 2889   2.165   0.963   0.040 -0.1625  0.5544  0.1358
  914SOL    HW1 2890   2.240   0.931  -0.009  0.0615  0.6892  0.3881
  914SOL    HW2 2891   2.124   1.028  -0.018 -1.2541 -0.9253 -0.8408
  915SOL     OW 2892   0.601   0.452   2.587  0.6602 -0.5183  0.8508
  915SOL    HW1 2893   0.539   0.391   2.627 -0.5576  1.6710  2.5636
  915SOL    HW2 2894   0.546   0.515   2.540  1.9892 -2.0773 -3.2286
  916SOL     OW 2895   3.457   1.302   3.224 -0.5171  0.7662  0.0938
  916SOL    HW1 2896   3.504   1.238   3.171 -1.2206 -0.5207  0.9681
  916SOL    HW2 2897   3.439   1.374   3.164 -0.9479 -0.4661 -1.3293
  917SOL     OW 2898   3.123   1.797   0.601 -0.2629 -0.5429  0.3521
  917SOL    HW1 2899   3.065   1.774   0.529  0.2958 -0.4490 -0.1434
  917SOL    HW2 2900   3.169   1.715   0.622  0.1586 -0.3921  0.0462
  918SOL     OW 2901   1.308   3.412   3.608  0.1826  0.2531 -0.5132
  918SOL    HW1 2902   1.222   3.453   3.597  0.7041  1.4687 -0.2250
  918SOL    HW2 2903   1.344   3.452   3.687  2.4001  2.3987 -2.4134
  919SOL     OW 2904   1.743   2.865   2.211  0.7006 -0.2808  0.1625
  919SOL    HW1 2905   1.688   2.807   2.262  1.2480 -1.8393 -0.9324
  919SOL    HW2 2906   1.692   2.884   2.132  0.3575  1.1006  0.6850
  920SOL     OW 2907   0.297   3.381   3.557  0.4880 -0.5639  0.1643
  920SOL    HW1 2908   0.293   3.356   3.464  0.0079  0.6165 -0.1447
  920SOL    HW2 2909   0.206   3.400   3.580  0.6671 -0.4450  0.7702
  921SOL     OW 2910   0.244   0.545   1.464  0.4013  0.6590  0.1616
  921SOL    HW1 2911   0.251   0.596   1.545  1.7637  0.2363  0.3315
  921SOL    HW2 2912   0.151   0.520   1.460  0.4114  0.1858  1.9036
  922SOL     OW 2913   0.501   2.168   3.022  0.4742  0.0847  0.5768
  922SOL    HW1 2914   0.456   2.109   2.962 -0.2193  0.9700  0.2040
  922SOL    HW2 2915   0.514   2.116   3.102 -2.8914  0.2907  1.3994
  923SOL     OW 2916   2.212   1.557   2.375 -0.5920  0.2206  0.1612
  923SOL    HW1 2917   2.149   1.504   2.423  0.8437 -1.1034  0.6626
  923SOL    HW2 2918   2.275   1.585   2.442  0.0176  0.5116 -0.5222
  924SOL     OW 2919   2.331   0.097   0.486 -0.4550 -0.0429  0.1849
  924SOL    HW1 2920   2.386   0.153   0.431 -0.1184 -0.4119  0.1453
  924SOL    HW2 2921   2.380   0.088   0.568  0.9218 -2.6450 -0.8102
  925SOL     OW 2922   3.135   0.045   0.164  0.8553 -0.2716  0.0033
  925SOL    HW1 2923   3.067   0.021   0.101  1.5550 -2.6883  0.0493
  925SOL    HW2 2924   3.163   0.132   0.138 -1.1463  0.1404 -0.9650
  926SOL     OW 2925   1.227   1.917   1.809  0.2319  0.4508  0.4629
  926SOL    HW1 2926   1.274   1.908   1.726 -0.9675  0.6572 -0.2435
  926SOL    HW2 2927   1.167   1.842   1.811  0.1908  0.4936  1.1120
  927SOL     OW 2928   1.368   2.390   3.504 -0.1532 -0.2604 -0.3651
  927SOL    HW1 2929   1.353   2.479   3.471  0.3477  0.0513  0.2233
  927SOL    HW2 2930   1.446   2.360   3.457  0.1272 -0.0922 -0.0178
  928SOL     OW 2931   2.215   2.917   0.574  0.0389  0.1824  0.5673
  928SOL    HW1 2932   2.219   2.976   0.499  0.1223  0.5734  0.8804
  928SOL    HW2 2933   2.168   2.966   0.641  1.3582  0.4513  1.3326
  929SOL     OW 2934   1.850   0.686   2.190  0.0207  0.6228  0.1636
  929SOL    HW1 2935   1.778   0.749   2.182 -1.1951 -0.1099  3.6860
  929SOL    HW2 2936   1.925   0.739   2.218  0.3317  1.0844 -1.4468
  930SOL     OW 2937   1.390   3.352   0.938  0.4788 -0.3351 -0.3475
  930SOL    HW1 2938   1.367   3.291   1.008 -0.6191 -0.6477 -0.9475
  930SOL    HW2 2939   1.359   3.437   0.968  0.6567 -0.3387 -0.1526
  931SOL     OW 2940   3.566   3.487   2.299  0.2112  0.1047 -0.4509
  931SOL    HW1 2941   3.541   3.405   2.257 -0.6151  0.0616  0.1122
  931SOL    HW2 2942   3.633   3.462   2.363 -2.9336 -0.8703  2.7475
  932SOL     OW 2943   3.608   0.975   0.590  0.6362 -0.6503 -0.3302
  932SOL    HW1 2944   3.637   1.062   0.560 -1.1526 -0.0326 -0.4019
  932SOL    HW2 2945   3.586   0.929   0.510  0.5664 -0.7842 -0.2333
  933SOL     OW 2946   2.159   1.836   1.589 -0.1952  0.1050  0.0336
  933SOL    HW1 2947   2.089   1.788   1.545 -0.8937 -0.7966  2.0080
  933SOL    HW2 2948   2.219   1.768   1.621 -0.8560  0.5006  2.3075
  934SOL     OW 2949   1.884   1.448   3.385 -0.2260 -0.0773 -0.8060
  934SOL    HW1 2950   1.796   1.485   3.374 -0.1238  0.0097 -1.3889
  934SOL    HW2 2951   1.943   1.517   3.356  0.2436  1.0764  2.4871
  935SOL     OW 2952   2.611   0.152   3.600 -0.0570 -0.4559 -0.1812
  935SOL    HW1 2953   2.639   0.087   3.665 -0.2826 -2.0507 -1.6290
  935SOL    HW2 2954   2.518   0.136   3.589 -0.3314  0.8157  0.1875
  936SOL     OW 2955   1.041   2.877   0.285  0.1629  0.1701  0.4796
  936SOL    HW1 2956   1.034   2.801   0.226  0.9368  1.9502 -2.0998
  936SOL    HW2 2957   0.965   2.870   0.342 -0.1222 -2.1956 -0.0653
  937SOL     OW 2958   1.167   1.205   1.498  0.3203 -0.1018  0.0877
  937SOL    HW1 2959   1.149   1.128   1.443 -0.9638  0.0518  0.2590
  937SOL    HW2 2960   1.090   1.212   1.554  1.4155  0.0056  1.6313
  938SOL     OW 2961   3.215   0.768   0.088  0.3791 -0.1444  0.4779
  938SOL    HW1 2962   3.205   0.828   0.014 -0.6024 -3.1078 -2.0285
  938SOL    HW2 2963   3.130   0.768   0.131 -0.3680 -1.2509 -0.8923
  939SOL     OW 2964   1.049   3.128   2.700 -0.2013 -1.0704 -0.1159
  939SOL    HW1 2965   1.075   3.219   2.706 -2.4062 -0.4630  1.8378
  939SOL    HW2 2966   1.123   3.079   2.737  0.4187  0.0421  0.1441
  940SOL     OW 2967   3.506   1.472   1.909  0.0510 -0.2817  0.5841
  940SOL    HW1 2968   3.426   1.445   1.863 -1.0461 -0.0096  2.2314
  940SOL    HW2 2969   3.567   1.497   1.839 -1.7787  0.8157 -0.7195
  941SOL     OW 2970   1.327   2.688   0.956  0.3827  0.5964 -0.1250
  941SOL    HW1 2971   1.307   2.730   1.040 -0.1568  0.6006 -0.2522
  941SOL    HW2 2972   1.298   2.752   0.891 -2.2410 -0.7359 -0.3569
  942SOL     OW 2973   1.606   2.735   3.380 -0.6060 -0.1681 -0.0240
  942SOL    HW1 2974   1.644   2.804   3.326  1.8995  0.2652  2.0312
  942SOL    HW2 2975   1.600   2.774   3.467 -1.1565 -1.8692  0.7422
  943SOL     OW 2976   0.915   3.770   0.275 -0.5561 -0.1191 -0.6865
  943SOL    HW1 2977   0.990   3.711   0.270  1.2865  1.9656  0.2880
  943SOL    HW2 2978   0.863   3.736   0.347  0.9968 -0.0386  0.5296
  944SOL     OW 2979   1.514   1.941   1.902 -0.4006  0.0102 -0.2138
  944SOL    HW1 2980   1.520   1.860   1.953 -0.0456  0.1581 -0.0157
  944SOL    HW2 2981   1.448   1.922   1.835 -0.4491 -0.3822 -0.0603
  945SOL     OW 2982   3.204   0.302   2.328 -0.6215 -0.0037  0.0631
  945SOL    HW1 2983   3.154   0.384   2.319 -1.4145 -0.4672  0.1776
  945SOL    HW2 2984   3.150   0.236   2.284 -0.5667 -0.6946  1.0036
  946SOL     OW 2985   3.347   0.582   1.961 -0.4093 -0.9508 -0.5250
  946SOL    HW1 2986   3.351   0.672   1.929 -2.2757 -0.5071  0.3497
  946SOL    HW2 2987   3.407   0.579   2.035 -0.6273 -0.3160 -0.3211
  947SOL     OW 2988   3.338   0.360   1.279  0.4268  0.1481 -0.0788
  947SOL    HW1 2989   3.299   0.281   1.316  0.2894 -0.7704 -2.0711
  947SOL    HW2 2990   3.323   0.353   1.185  1.8141  1.7837 -0.4802
  948SOL     OW 2991   2.130   1.088   3.356  0.1084  0.1476  0.8568
  948SOL    HW1 2992   2.107   1.081   3.263  0.5121  0.3456  0.7402
  948SOL    HW2 2993   2.115   1.000   3.391 -2.8670  0.6995  1.2770
  949SOL     OW 2994   0.096   1.533   2.507 -0.0754  0.3997 -0.5153
  949SOL    HW1 2995   0.160   1.497   2.569  1.0697  0.1697 -1.7668
  949SOL    HW2 2996   0.122   1.624   2.496 -0.1439  0.3866 -0.7975
  950SOL     OW 2997   2.674   1.144   1.579  0.4764  0.0917  0.1660
  950SOL    HW1 2998   2.699   1.100   1.660 -4.7614 -1.5574  1.2689
  950SOL    HW2 2999   2.668   1.237   1.602  0.3067 -0.1928  1.3008
  951SOL     OW 3000   0.004   2.255   0.124  0.1133  0.3606  0.6905
  951SOL    HW1 3001  -0.016   2.260   0.217  1.0750 -1.4226  1.0448
  951SOL    HW2 3002   0.048   2.170   0.113  0.8087  0.9037 -1.2327
  952SOL     OW 3003   0.019   1.534   1.314  0.0134  0.6592 -0.0707
  952SOL    HW1 3004   0.070   1.597   1.264 -0.1344  1.0128  0.2183
  952SOL    HW2 3005  -0.046   1.501   1.253 -1.0716  2.1193  0.2407
  953SOL     OW 3006   3.664   1.233   0.213 -0.0543  0.2265  0.4180
  953SOL    HW1 3007   3.749   1.272   0.193 -0.3975  0.0271 -1.7371
  953SOL    HW2 3008   3.682   1.141   0.231  0.2847  0.3964  0.9467
  954SOL     OW 3009   1.282   2.725   1.578  0.1712 -0.6048  0.1895
  954SOL    HW1 3010   1.288   2.817   1.555  0.8350 -0.8043 -0.4752
  954SOL    HW2 3011   1.368   2.689   1.556 -0.7287 -1.8220 -1.6178
  955SOL     OW 3012   3.301   2.244   3.578  0.1039 -0.0070  0.0030
  955SOL    HW1 3013   3.298   2.275   3.669  2.3410 -0.4630  0.2856
  955SOL    HW2 3014   3.358   2.168   3.581  2.9744  1.8545 -2.2433
  956SOL     OW 3015   2.163   3.409   0.758  0.0574 -0.8048  0.2231
  956SOL    HW1 3016   2.137   3.364   0.677  0.6211  0.4713 -0.7054
  956SOL    HW2 3017   2.164   3.502   0.734 -2.2116 -0.1288  2.3981
  957SOL     OW 3018   2.542   1.839   0.135 -0.8726 -0.8492 -0.0262
  957SOL    HW1 3019   2.533   1.789   0.216 -2.2725 -1.6897 -0.6606
  957SOL    HW2 3020   2.551   1.772   0.067 -3.3358 -0.3214 -0.9613
  958SOL     OW 3021   0.871   2.457   0.651  0.2338  0.1919  0.3404
  958SOL    HW1 3022   0.878   2.431   0.743 -1.9217 -0.9060  0.2553
  958SOL    HW2 3023   0.959   2.484   0.627  0.6183  1.8065  3.1001
  959SOL     OW 3024   0.626   3.301   0.122  0.4756  0.6808  0.5619
  959SOL    HW1 3025   0.576   3.239   0.069 -1.1919  1.4226  1.2099
  959SOL    HW2 3026   0.665   3.361   0.058  1.4351 -0.4942 -0.0133
  960SOL     OW 3027   0.807   1.883   2.357 -0.3546 -0.7456  0.5849
  960SOL    HW1 3028   0.821   1.818   2.289  0.2552 -1.5644  1.4751
  960SOL    HW2 3029   0.830   1.966   2.316  0.3222 -1.2676 -0.1097
  961SOL     OW 3030   3.737   2.023   3.106 -0.1405  0.8934 -0.6533
  961SOL    HW1 3031   3.709   1.970   3.181  1.2605  2.1948  0.8724
  961SOL    HW2 3032   3.725   2.113   3.134 -2.4377  1.4969 -3.1740
  962SOL     OW 3033   3.203   3.451   2.057  0.7772  0.0690 -0.2948
  962SOL    HW1 3034   3.192   3.526   2.115  1.2487 -0.5020  0.5551
  962SOL    HW2 3035   3.126   3.454   1.999  0.0418  0.3723  0.6759
  963SOL     OW 3036   2.824   3.421   1.416  0.2367  0.5446  0.0096
  963SOL    HW1 3037   2.733   3.437   1.392 -0.1425 -0.9985  0.3079
  963SOL    HW2 3038   2.854   3.505   1.453 -1.0301  1.0882 -0.1389
  964SOL     OW 3039   1.823   0.457   2.804 -0.0421 -0.5005  0.1707
  964SOL    HW1 3040   1.826   0.543   2.764  1.3696 -0.8733 -0.5995
  964SOL    HW2 3041   1.846   0.472   2.895  2.3803 -0.2668 -0.4121
  965SOL     OW 3042   3.133   2.759   2.787  0.6576 -0.2049  0.1729
  965SOL    HW1 3043   3.136   2.791   2.697  1.5532  1.0399  0.6118
  965SOL    HW2 3044   3.045   2.782   2.818  0.3203 -0.7032 -0.3899
  966SOL     OW 3045   0.313   1.358   2.585  0.1220  0.4995  0.6634
  966SOL    HW1 3046   0.408   1.344   2.578  0.1866 -0.7887  3.1062
  966SOL    HW2 3047   0.275   1.306   2.515  1.1765  0.2539  0.2586
  967SOL     OW 3048   2.778   2.419   0.717  0.2843 -0.1842 -0.2015
  967SOL    HW1 3049   2.867   2.391   0.737 -0.1237 -0.7161  0.9551
  967SOL    HW2 3050   2.781   2.444   0.624  1.4152 -1.0415 -0.4216
  968SOL     OW 3051   3.096   3.096   0.040 -0.3580  0.7846 -0.6657
  968SOL    HW1 3052   3.133   3.180   0.016 -0.1002  1.1502  0.8983
  968SOL    HW2 3053   3.172   3.040   0.058 -0.2463  2.0497  4.3488
  969SOL     OW 3054   2.140   1.411   1.048 -0.3685 -0.5663 -0.8566
  969SOL    HW1 3055   2.189   1.371   0.977  0.1120 -0.1820 -0.7469
  969SOL    HW2 3056   2.057   1.437   1.009 -0.4130 -1.0571 -1.0879
  970SOL     OW 3057   1.980   2.439   2.253 -0.6096  0.4174 -0.3633
  970SOL    HW1 3058   2.026   2.415   2.334  0.6477 -0.3969 -1.2752
  970SOL    HW2 3059   2.020   2.521   2.225 -0.3143  0.1628 -0.6967
  971SOL     OW 3060   2.872   3.535   0.372 -0.3355  0.4883 -0.1674
  971SOL    HW1 3061   2.817   3.609   0.348 -1.1373  0.3017  1.0306
  971SOL    HW2 3062   2.836   3.461   0.323  0.7853  0.9635 -1.7650
  972SOL     OW 3063   2.735   0.598   0.005  0.3204  0.7578 -0.0819
  972SOL    HW1 3064   2.795   0.668  -0.020 -0.2618  0.9357 -1.0060
  972SOL    HW2 3065   2.792   0.522   0.021  0.9162  1.3278  0.5399
  973SOL     OW 3066   0.729   1.575   1.332  0.4170  0.5018  0.3004
  973SOL    HW1 3067   0.761   1.485   1.318  1.3482  0.6956  1.0483
  973SOL    HW2 3068   0.645   1.578   1.287 -0.0072 -0.9888  0.9214
  974SOL     OW 3069   0.632   2.137   0.170  0.3295 -0.3306  0.0022
  974SOL    HW1 3070   0.628   2.226   0.204 -1.2015  0.3863 -1.8772
  974SOL    HW2 3071   0.725   2.121   0.154  0.4358  2.4114 -3.0980
  975SOL     OW 3072   1.112   1.259   2.704 -0.4612  0.3549 -0.5579
  975SOL    HW1 3073   1.195   1.280   2.662 -0.0270  2.6675  1.2516
  975SOL    HW2 3074   1.123   1.168   2.734  1.3316  0.5447 -0.5257
  976SOL     OW 3075   3.099   3.269   0.446 -0.1616 -0.8266  0.1406
  976SOL    HW1 3076   3.138   3.272   0.534  0.3989 -1.3757 -0.0854
  976SOL    HW2 3077   3.042   3.346   0.443  0.3146 -0.4361  0.7547
  977SOL     OW 3078   3.225   0.031   3.380  0.0976  0.8018  0.7009
  977SOL    HW1 3079   3.162  -0.037   3.357 -0.2790  1.4534 -0.2606
  977SOL    HW2 3080   3.183   0.080   3.451 -0.1107  0.7148  0.6374
  978SOL     OW 3081   1.606   2.014   3.581 -0.1446  0.0155  0.3086
  978SOL    HW1 3082   1.547   2.083   3.611 -0.1671  1.0546 -1.9265
  978SOL    HW2 3083   1.693   2.043   3.607 -0.4245 -0.8446  2.3859
  979SOL     OW 3084   1.542   0.444   3.372  0.4336  0.0401 -0.0389
  979SOL    HW1 3085   1.491   0.519   3.341 -0.4380 -0.5973 -0.1763
  979SOL    HW2 3086   1.629   0.480   3.390  0.3346  0.8704 -1.1197
  980SOL     OW 3087   1.612   0.145   3.332  0.1321 -0.0988 -0.0177
  980SOL    HW1 3088   1.615   0.229   3.286  0.3507 -1.2289 -2.2306
  980SOL    HW2 3089   1.519   0.122   3.334  0.0589  0.2293  0.7036
  981SOL     OW 3090   2.754   2.242   3.339 -1.0014  0.4944 -0.4015
  981SOL    HW1 3091   2.774   2.220   3.430 -1.4871  1.1112 -0.1368
  981SOL    HW2 3092   2.819   2.307   3.315 -0.3146 -0.3192 -0.7954
  982SOL     OW 3093   1.337   2.283   1.176 -0.4117 -0.5020 -0.7701
  982SOL    HW1 3094   1.319   2.237   1.094 -1.0706  0.8937 -1.4285
  982SOL    HW2 3095   1.330   2.376   1.154  1.1482 -0.0420  0.4710
  983SOL     OW 3096   1.597  -0.016   0.293 -1.0430  0.3985  0.1526
  983SOL    HW1 3097   1.574   0.072   0.262  1.1249  0.5389 -1.3013
  983SOL    HW2 3098   1.560  -0.021   0.381 -1.6433  2.5835  0.0904
  984SOL     OW 3099   1.027   0.240   0.440 -0.2264 -0.1545 -0.7460
  984SOL    HW1 3100   1.018   0.239   0.345 -1.9421 -0.2145 -0.6142
  984SOL    HW2 3101   0.939   0.220   0.473  0.1783  0.5129  0.8553
  985SOL     OW 3102   2.540   3.090   0.200  0.2725  0.2879 -0.3537
  985SOL    HW1 3103   2.528   3.021   0.265  0.2879 -0.6616 -1.3242
  985SOL    HW2 3104   2.459   3.140   0.203 -0.3175 -0.6299 -0.6049
  986SOL     OW 3105   0.452   3.180   2.196  0.3317 -0.1670 -0.9050
  986SOL    HW1 3106   0.452   3.196   2.102 -1.2353 -3.1596 -1.5362
  986SOL    HW2 3107   0.514   3.108   2.208  0.0919 -0.1934  0.2763
  987SOL     OW 3108   1.841   0.995   2.733 -0.4763 -0.0586 -0.0686
  987SOL    HW1 3109   1.876   1.083   2.726 -0.2968 -0.0488  0.8687
  987SOL    HW2 3110   1.769   1.003   2.796 -1.2943 -0.3420 -0.9316
  988SOL     OW 3111   1.397   1.121   0.144  0.2032 -0.3484  0.4527
  988SOL    HW1 3112   1.477   1.152   0.101 -0.0662  1.1798  0.9801
  988SOL    HW2 3113   1.425   1.098   0.233  0.5418 -2.4246 -0.1395
  989SOL     OW 3114   2.994   3.663   3.253  0.8954 -0.1736  0.2239
  989SOL    HW1 3115   2.980   3.697   3.164  1.8441 -0.2231  0.0479
  989SOL    HW2 3116   2.932   3.712   3.307  0.6198  0.1755 -0.3992
  990SOL     OW 3117   2.130   0.152   1.803 -0.2541 -0.4065 -0.3201
  990SOL    HW1 3118   2.097   0.090   1.868 -2.5617  0.5952 -0.4473
  990SOL    HW2 3119   2.104   0.114   1.719  0.2233 -0.2993 -0.5203
  991SOL     OW 3120   0.071   2.554   0.385 -0.2340  0.1899  0.3430
  991SOL    HW1 3121   0.166   2.553   0.388 -0.0839  0.0060 -2.1109
  991SOL    HW2 3122   0.045   2.610   0.458  1.7701  0.6434  0.7603
  992SOL     OW 3123   2.795   2.593   2.122  0.6988 -0.4955 -0.4578
  992SOL    HW1 3124   2.745   2.518   2.154  0.2670  0.5253  1.4251
  992SOL    HW2 3125   2.884   2.559   2.109  0.5570 -1.3099  0.5776
  993SOL     OW 3126   2.651   1.109   2.616 -0.6352  0.1893  0.4588
  993SOL    HW1 3127   2.690   1.197   2.621 -0.1315  0.2381 -2.3038
  993SOL    HW2 3128   2.599   1.101   2.695  0.7343  2.2723  1.6704
  994SOL     OW 3129   3.317   3.440   3.460  0.3824 -0.2546  0.2564
  994SOL    HW1 3130   3.256   3.420   3.531  0.0343  0.3124  0.1280
  994SOL    HW2 3131   3.383   3.372   3.465  0.2911 -0.2989  1.0432
  995SOL     OW 3132   2.425   2.247   3.101 -0.9918  0.2139  0.5912
  995SOL    HW1 3133   2.380   2.174   3.142  0.2905 -0.8831  0.1203
  995SOL    HW2 3134   2.479   2.285   3.170  1.6437 -2.0163 -0.0932
  996SOL     OW 3135   0.076   3.685   0.099  0.2205  0.3017 -0.3828
  996SOL    HW1 3136   0.133   3.634   0.156  0.7414 -0.9391 -1.9542
  996SOL    HW2 3137   0.063   3.630   0.022 -1.2221  1.5346 -1.0696
  997SOL     OW 3138   2.832   1.177   2.301  0.3541  0.1778 -0.4652
  997SOL    HW1 3139   2.744   1.168   2.265  0.5294 -2.5141 -0.3682
  997SOL    HW2 3140   2.818   1.212   2.389 -0.3596  2.5252 -1.4226
  998SOL     OW 3141   0.439   0.110   1.734 -0.8142 -0.0585 -0.4955
  998SOL    HW1 3142   0.347   0.124   1.711 -0.7609 -0.8718 -1.2597
  998SOL    HW2 3143   0.436   0.079   1.825 -1.2836  0.0541 -0.4671
  999SOL     OW 3144   3.051   2.071   0.573  0.4126  0.1342 -0.2735
  999SOL    HW1 3145   2.974   2.056   0.628 -1.4142  1.3995 -2.3396
  999SOL    HW2 3146   3.083   1.983   0.553 -0.8844 -0.4486  0.0957
 1000SOL     OW 3147   1.130   1.395   3.542 -0.3437 -0.1136 -0.1915
 1000SOL    HW1 3148   1.143   1.424   3.632 -2.3527 -0.0722  0.1338
 1000SOL    HW2 3149   1.143   1.300   3.546 -1.7035 -0.3070  0.4644
 1001SOL     OW 3150   0.947   1.977   0.117 -0.0780  0.2775  0.2437
 1001SOL    HW1 3151   0.918   2.057   0.073 -0.0098 -0.0808 -0.4760
 1001SOL    HW2 3152   1.041   1.989   0.129 -0.1637  0.5497  0.6736
 1002SOL     OW 3153   0.144   2.517   0.116 -0.1627  0.1966 -0.3104
 1002SOL    HW1 3154   0.117   2.440   0.066 -0.1432  0.1667 -0.2749
 1002SOL    HW2 3155   0.107   2.503   0.203  1.1923 -0.5629  0.1805
 1003SOL     OW 3156   2.421   0.844   2.997 -0.1422  0.1227 -0.5911
 1003SOL    HW1 3157   2.489   0.783   3.025  0.3735  0.8221 -0.2934
 1003SOL    HW2 3158   2.339   0.795   3.007  0.2121 -0.3319  0.1707
 1004SOL     OW 3159   2.791   0.104   3.362  0.0816  0.0289 -0.5741
 1004SOL    HW1 3160   2.724   0.081   3.427  0.4437 -0.2263 -0.2874
 1004SOL    HW2 3161   2.872   0.111   3.413 -0.1011  2.5317 -0.5435
 1005SOL     OW 3162   0.997   0.760   1.582 -0.2485  0.3423 -0.2100
 1005SOL    HW1 3163   1.088   0.790   1.582 -0.9304  2.6307 -0.0369
 1005SOL    HW2 3164   0.982   0.731   1.492  0.5787  0.2372 -0.3196
 1006SOL     OW 3165   3.086   3.026   0.353 -0.3008  0.0760  0.3270
 1006SOL    HW1 3166   3.161   3.042   0.295  0.0167 -0.4723  0.5797
 1006SOL    HW2 3167   3.053   3.113   0.374 -0.4466  0.2878 -0.7060
 1007SOL     OW 3168   1.560   2.895   2.009 -0.5581 -0.1810 -0.1705
 1007SOL    HW1 3169   1.615   2.935   1.942  1.0048  0.1000  1.2191
 1007SOL    HW2 3170   1.508   2.830   1.962 -1.1108  1.4826 -2.0127
 1008SOL     OW 3171   3.227   2.473   1.599 -0.4020 -0.3661  0.1681
 1008SOL    HW1 3172   3.163   2.426   1.545 -2.3930  2.6264 -0.3055
 1008SOL    HW2 3173   3.286   2.514   1.536 -0.2568 -0.1268  0.4567
 1009SOL     OW 3174   1.039   3.606   0.869  0.7882 -0.3449 -0.3819
 1009SOL    HW1 3175   0.946   3.597   0.848  0.6494 -2.7202  0.9056
 1009SOL    HW2 3176   1.042   3.679   0.931 -0.9409 -2.7520  2.8556
 1010SOL     OW 3177   3.136   2.458   2.668  0.2364  0.1338  0.5532
 1010SOL    HW1 3178   3.207   2.518   2.645  0.6504 -0.0231  1.3674
 1010SOL    HW2 3179   3.111   2.483   2.757 -0.8658  0.3049  0.2161
 1011SOL     OW 3180   3.452   2.376   3.001  0.0544  0.2188 -0.3068
 1011SOL    HW1 3181   3.396   2.321   2.946  0.3444 -1.5888  1.0990
 1011SOL    HW2 3182   3.419   2.362   3.090  2.1182 -0.1665  0.4430
 1012SOL     OW 3183   1.878   0.300   3.687 -0.4340  0.0628 -1.0837
 1012SOL    HW1 3184   1.828   0.220   3.668  0.8707 -1.2443  0.6006
 1012SOL    HW2 3185   1.968   0.277   3.667 -0.1538  1.4660 -1.4972
 1013SOL     OW 3186   3.053   3.622   3.661 -0.1550 -0.1500 -0.1950
 1013SOL    HW1 3187   3.052   3.563   3.585  2.0391 -0.5000 -0.0243
 1013SOL    HW2 3188   3.146   3.641   3.675 -0.4822 -0.1288  2.4453
 1014SOL     OW 3189   0.385   3.741   2.999  0.5937 -0.5181  0.5028
 1014SOL    HW1 3190   0.296   3.774   2.983  0.2145 -1.5265  0.4294
 1014SOL    HW2 3191   0.375   3.646   2.998  1.5872 -0.6382  1.0422
 1015SOL     OW 3192   2.706   0.786   2.832  0.6266 -0.7997 -0.2976
 1015SOL    HW1 3193   2.723   0.801   2.925 -1.3285  1.4971 -0.1963
 1015SOL    HW2 3194   2.790   0.762   2.795  2.1363  1.2341  1.5528
 1016SOL     OW 3195   0.570   1.695   0.063 -0.6155 -0.8096  0.1705
 1016SOL    HW1 3196   0.620   1.771   0.093  1.5486 -2.0963  0.0823
 1016SOL    HW2 3197   0.528   1.661   0.143 -0.3933 -0.3745  0.4764
 1017SOL     OW 3198   0.651   0.326   1.231  0.2582 -0.0462 -0.7248
 1017SOL    HW1 3199   0.650   0.289   1.143  2.1740 -1.5837 -0.1680
 1017SOL    HW2 3200   0.573   0.290   1.273  0.5985 -1.2214 -1.0718
 1018SOL     OW 3201   1.705   0.820   0.864 -0.3060 -0.0758 -0.2084
 1018SOL    HW1 3202   1.778   0.847   0.920 -0.7267 -0.4964  0.5574
 1018SOL    HW2 3203   1.682   0.732   0.894 -1.9519  0.5243  0.4323
 1019SOL     OW 3204   3.651   0.446   3.483 -0.0906 -0.0585  0.7691
 1019SOL    HW1 3205   3.639   0.401   3.566  0.0392  0.6307  1.1669
 1019SOL    HW2 3206   3.565   0.444   3.442 -0.5553  1.0055  1.6444
 1020SOL     OW 3207   0.825   0.578   2.976 -0.0948  0.4955  0.2365
 1020SOL    HW1 3208   0.832   0.526   3.056 -0.1419  0.4084  0.1849
 1020SOL    HW2 3209   0.731   0.592   2.964  0.0131  2.6350  1.5498
 1021SOL     OW 3210   2.802   2.564   2.865  0.4008  0.6994 -0.0681
 1021SOL    HW1 3211   2.786   2.615   2.785  0.9697 -0.1617 -0.7414
 1021SOL    HW2 3212   2.769   2.620   2.935  2.0273  2.5141 -0.6575
 1022SOL     OW 3213   3.292   0.935   2.403 -0.3548 -0.6735 -0.5087
 1022SOL    HW1 3214   3.355   0.956   2.334 -1.0534  1.9061 -0.4581
 1022SOL    HW2 3215   3.345   0.898   2.474  1.3653  2.2657 -0.0990
 1023SOL     OW 3216   2.330   0.032   3.564 -0.0729  0.7792 -0.0331
 1023SOL    HW1 3217   2.250   0.037   3.513 -1.0778 -1.4129  1.2203
 1023SOL    HW2 3218   2.335  -0.059   3.593  0.9157  1.6840  2.9723
 1024SOL     OW 3219   2.030   2.944   1.826  0.2362 -0.0148  0.1519
 1024SOL    HW1 3220   1.939   2.912   1.822  0.3365 -0.2891 -0.0397
 1024SOL    HW2 3221   2.068   2.898   1.901 -0.6611  2.4916  2.2690
 1025SOL     OW 3222   1.731   3.445   0.893 -0.1788 -0.1028  0.4244
 1025SOL    HW1 3223   1.797   3.383   0.864 -0.7502 -0.7208  0.4348
 1025SOL    HW2 3224   1.779   3.508   0.947  0.1557 -1.3959  1.6855
 1026SOL     OW 3225   3.149   0.431   1.869 -0.1005  0.0387  0.1012
 1026SOL    HW1 3226   3.205   0.377   1.814 -0.2503  0.8811 -0.9278
 1026SOL    HW2 3227   3.208   0.494   1.910  0.5064 -2.4135  3.4182
 1027SOL     OW 3228   2.057   0.847   2.286  0.0358  0.0038 -0.0691
 1027SOL    HW1 3229   2.087   0.822   2.374 -0.0480 -0.7846 -0.2541
 1027SOL    HW2 3230   2.123   0.811   2.227  0.3288  0.9185 -0.3131
 1028SOL     OW 3231   3.396   3.193   0.932  0.1257 -0.2869  0.4040
 1028SOL    HW1 3232   3.454   3.255   0.976 -1.1858  2.6170 -1.6067
 1028SOL    HW2 3233   3.455   3.130   0.890  1.5222 -0.4001  2.4230
 1029SOL     OW 3234   2.348   3.527   3.589 -0.4330 -0.4249 -0.2359
 1029SOL    HW1 3235   2.331   3.493   3.501 -0.7740 -2.1182  0.4447
 1029SOL    HW2 3236   2.383   3.452   3.637  0.2406  0.6071  0.9494
 1030SOL     OW 3237  -0.017   1.094   3.168 -0.4688  0.2289  0.6392
 1030SOL    HW1 3238   0.077   1.093   3.185 -0.4433 -1.7466  0.5698
 1030SOL    HW2 3239  -0.057   1.102   3.255 -0.2380 -0.6244  0.8319
 1031SOL     OW 3240   2.303   1.719   2.011 -0.1812  0.4180 -0.2240
 1031SOL    HW1 3241   2.285   1.783   2.080 -0.0712 -1.8930  2.1056
 1031SOL    HW2 3242   2.392   1.688   2.029  0.4201  0.7693 -2.3291
 1032SOL     OW 3243   1.786   2.155   2.821 -0.4991  1.0649  0.1441
 1032SOL    HW1 3244   1.786   2.170   2.727 -0.1355 -1.8908 -0.4339
 1032SOL    HW2 3245   1.717   2.211   2.855 -0.6877  2.1274 -1.8847
 1033SOL     OW 3246   1.797   0.715   2.710 -0.4508  0.4199  0.2728
 1033SOL    HW1 3247   1.790   0.801   2.668  1.0266 -0.4189 -1.9391
 1033SOL    HW2 3248   1.867   0.725   2.774  1.8250  0.2905 -1.9996
 1034SOL     OW 3249   0.313   1.148   0.806 -0.3783  0.5760  0.4457
 1034SOL    HW1 3250   0.291   1.070   0.756  1.6070  1.0118 -1.2770
 1034SOL    HW2 3251   0.308   1.220   0.742 -0.8364  1.6612  1.6595
 1035SOL     OW 3252   1.859   2.648   0.606  0.0675 -0.6156  0.0833
 1035SOL    HW1 3253   1.880   2.571   0.553  0.8133  1.8750 -3.5421
 1035SOL    HW2 3254   1.808   2.704   0.548  0.9604  2.3746  2.0023
 1036SOL     OW 3255   1.845   3.553   2.965 -0.0642 -0.0039  0.6703
 1036SOL    HW1 3256   1.929   3.574   3.006  1.9821  0.4750 -3.2572
 1036SOL    HW2 3257   1.797   3.636   2.966  0.1093  0.0948  1.6859
 1037SOL     OW 3258   0.461   1.668   2.038  0.2450 -1.0965 -0.1690
 1037SOL    HW1 3259   0.390   1.710   2.086  0.3324 -1.2560  0.0995
 1037SOL    HW2 3260   0.421   1.639   1.956 -0.0230 -1.2832  0.0280
 1038SOL     OW 3261   3.218   1.900   3.320  0.2287  0.0565 -0.1298
 1038SOL    HW1 3262   3.144   1.902   3.380 -0.2706  0.0968 -0.7285
 1038SOL    HW2 3263   3.188   1.949   3.244  0.2359 -1.3532 -1.0886
 1039SOL     OW 3264   0.804   0.324   0.955  0.0254 -0.2845  0.1507
 1039SOL    HW1 3265   0.832   0.241   0.995 -0.6658 -0.8327 -0.4782
 1039SOL    HW2 3266   0.710   0.313   0.942 -0.3547  1.1602  1.3715
 1040SOL     OW 3267   0.911   3.374   0.260 -0.1822 -0.0800 -0.0486
 1040SOL    HW1 3268   0.997   3.336   0.242  0.0641  0.9635 -1.2474
 1040SOL    HW2 3269   0.882   3.408   0.175 -0.7247  1.6612  0.7845
 1041SOL     OW 3270   3.638   1.609   1.582  0.8076 -0.3072  0.2883
 1041SOL    HW1 3271   3.675   1.572   1.502  0.9359 -0.1605  0.2801
 1041SOL    HW2 3272   3.544   1.614   1.565  1.0190  1.3579 -0.5232
 1042SOL     OW 3273   3.290   3.250   1.315 -0.4204  0.3405  1.0245
 1042SOL    HW1 3274   3.267   3.158   1.326 -1.2599  0.3754 -0.1915
 1042SOL    HW2 3275   3.377   3.258   1.355 -0.1654 -1.0511  0.8125
 1043SOL     OW 3276   2.835   3.085   2.193  0.0110  0.1368  0.6024
 1043SOL    HW1 3277   2.873   3.083   2.105 -1.1688 -1.5378  0.0729
 1043SOL    HW2 3278   2.826   2.992   2.216 -0.4075  0.5498  2.1827
 1044SOL     OW 3279   2.378   3.439   0.915  0.2739  0.5850  0.3599
 1044SOL    HW1 3280   2.295   3.426   0.868  0.0970  0.2414  0.7675
 1044SOL    HW2 3281   2.367   3.393   0.998 -0.3048  3.1612  1.7926
 1045SOL     OW 3282   2.344   1.450   1.420 -0.7057 -0.6959  0.1585
 1045SOL    HW1 3283   2.395   1.373   1.393  0.0723 -0.2356  0.2948
 1045SOL    HW2 3284   2.337   1.441   1.515  0.5700  0.0895  0.3565
 1046SOL     OW 3285   0.195   0.331   3.615 -0.1719 -0.1353 -0.5263
 1046SOL    HW1 3286   0.173   0.290   3.531  0.2239 -2.6430  0.4891
 1046SOL    HW2 3287   0.111   0.345   3.658 -0.2835 -2.6492  0.2482
 1047SOL     OW 3288   1.962   1.556   2.969 -0.5807  0.0157 -0.4649
 1047SOL    HW1 3289   2.022   1.609   3.021  0.1365 -0.3948 -0.8624
 1047SOL    HW2 3290   1.875   1.579   3.002 -0.3048  1.5122 -0.6894
 1048SOL     OW 3291   0.299   0.327   3.021 -0.1867 -0.1168 -0.7168
 1048SOL    HW1 3292   0.215   0.362   3.050 -0.0132 -0.7089  0.5756
 1048SOL    HW2 3293   0.319   0.257   3.083  0.9092 -0.4966 -1.4517
 1049SOL     OW 3294   1.237   1.774   1.544  0.4262  0.1319  0.1671
 1049SOL    HW1 3295   1.144   1.785   1.564  0.5899  2.2059  0.0379
 1049SOL    HW2 3296   1.240   1.777   1.448  0.6581  0.7153  0.1844
 1050SOL     OW 3297   2.063   1.392   2.568 -1.0059  0.0354  0.3581
 1050SOL    HW1 3298   2.065   1.312   2.516 -0.9251  0.6672 -0.6338
 1050SOL    HW2 3299   1.969   1.411   2.579 -1.0255 -0.2229  0.6376
 1051SOL     OW 3300   3.689   0.354  -0.010 -0.1427  0.2698 -0.3515
 1051SOL    HW1 3301   3.674   0.263   0.018 -1.7462  0.5380 -0.2533
 1051SOL    HW2 3302   3.685   0.404   0.072 -0.1846  0.5373 -0.5194
 1052SOL     OW 3303   1.750   1.725   0.299  0.1790  0.2805 -0.1392
 1052SOL    HW1 3304   1.661   1.758   0.298  0.1482  0.2069  0.1305
 1052SOL    HW2 3305   1.761   1.687   0.387  0.3932  0.0724 -0.2553
 1053SOL     OW 3306   2.776   1.797   2.374 -0.1345  0.3472  0.0232
 1053SOL    HW1 3307   2.868   1.777   2.360 -0.1531  0.9425 -1.1247
 1053SOL    HW2 3308   2.760   1.779   2.466  0.4123 -2.5501 -0.3605
 1054SOL     OW 3309   3.043   2.973   1.289 -0.4011 -0.6347  0.3217
 1054SOL    HW1 3310   3.020   3.014   1.372  1.7816  2.6155 -0.5254
 1054SOL    HW2 3311   2.959   2.941   1.255 -2.1908  2.2957  1.5591
 1055SOL     OW 3312   1.910   3.256   0.792 -0.0892 -0.2026 -0.8628
 1055SOL    HW1 3313   1.928   3.214   0.876 -2.1230  0.0411 -0.2544
 1055SOL    HW2 3314   1.990   3.304   0.771 -0.2322  1.4651  1.9799
 1056SOL     OW 3315   1.004   1.485   3.286 -0.0339 -0.7717  0.0410
 1056SOL    HW1 3316   1.067   1.447   3.347 -0.8272 -1.0235  0.7133
 1056SOL    HW2 3317   0.946   1.413   3.263  0.1228 -0.6277 -0.8571
 1057SOL     OW 3318   2.829   1.935   3.663  0.4811 -0.2791  0.7192
 1057SOL    HW1 3319   2.837   1.886   3.745  1.5134 -0.9413  0.2404
 1057SOL    HW2 3320   2.769   1.883   3.609  0.8131 -0.5179  0.5769
 1058SOL     OW 3321   2.859   0.098   0.025  0.7626  0.5360  0.0940
 1058SOL    HW1 3322   2.812   0.014   0.020  0.6179  0.6200  0.0301
 1058SOL    HW2 3323   2.833   0.134   0.110  0.4016  0.7646 -0.1128
 1059SOL     OW 3324   1.639   2.653   2.342 -0.0992 -0.1744  0.4196
 1059SOL    HW1 3325   1.616   2.594   2.414  0.8469 -0.0066  0.8697
 1059SOL    HW2 3326   1.604   2.610   2.264 -0.6067 -0.6588  0.9054
 1060SOL     OW 3327   2.428   3.056   3.120  0.1780  0.0689  0.3570
 1060SOL    HW1 3328   2.435   3.076   3.026  1.1234  0.1810  0.4428
 1060SOL    HW2 3329   2.372   2.979   3.123  0.8290 -0.4537 -0.3725
 1061SOL     OW 3330   2.585   3.605   2.254  0.4081  0.3265 -0.5405
 1061SOL    HW1 3331   2.517   3.616   2.189  0.3690  2.2901 -0.2335
 1061SOL    HW2 3332   2.538   3.588   2.336  0.1650  2.5138 -0.1603
 1062SOL     OW 3333   3.652   3.203  -0.012  0.7528  0.2586 -0.2477
 1062SOL    HW1 3334   3.562   3.178   0.008  0.0759  0.0904 -3.0223
 1062SOL    HW2 3335   3.685   3.244   0.068 -1.8315  0.4715  0.7781
 1063SOL     OW 3336   0.708   3.566   1.624  0.2754 -0.4591  0.1592
 1063SOL    HW1 3337   0.671   3.651   1.598  1.1037  0.1649  0.9615
 1063SOL    HW2 3338   0.800   3.584   1.642  0.8869 -1.8848 -1.2941
 1064SOL     OW 3339   3.025   3.216   1.715 -0.2287  0.4220 -0.3457
 1064SOL    HW1 3340   3.008   3.310   1.709  0.7823  0.7963  1.6703
 1064SOL    HW2 3341   3.024   3.198   1.809  3.3176 -0.8263 -0.4155
 1065SOL     OW 3342   0.829   1.484   1.831  0.5000 -0.1873  0.0400
 1065SOL    HW1 3343   0.817   1.508   1.923  2.3198 -1.6409  0.7067
 1065SOL    HW2 3344   0.801   1.562   1.782  0.7263  1.0910  1.8530
 1066SOL     OW 3345   1.436   0.806   2.905  0.3180 -0.8867 -0.1202
 1066SOL    HW1 3346   1.372   0.818   2.976  0.5136 -0.9160  0.0639
 1066SOL    HW2 3347   1.383   0.784   2.828  0.2569 -4.2280  0.7226
 1067SOL     OW 3348   1.742   1.910   0.604  0.0835  0.0836  0.5447
 1067SOL    HW1 3349   1.789   1.864   0.535 -1.6996 -1.1104  0.0587
 1067SOL    HW2 3350   1.762   2.003   0.589 -0.5088 -0.1154 -1.8042
 1068SOL     OW 3351   3.562   2.977   2.247 -0.1783  0.2187 -0.1590
 1068SOL    HW1 3352   3.559   3.073   2.237 -1.8587  0.1932 -0.2426
 1068SOL    HW2 3353   3.471   2.953   2.265  0.1878 -1.4038 -0.4057
 1069SOL     OW 3354   1.185   3.308   2.903 -1.1946 -0.0889  0.3582
 1069SOL    HW1 3355   1.209   3.218   2.921 -2.4024 -0.8791 -1.6291
 1069SOL    HW2 3356   1.258   3.360   2.938 -0.1999 -1.8441  1.0132
 1070SOL     OW 3357   0.299   0.877   0.954  0.9473  0.5559 -0.5641
 1070SOL    HW1 3358   0.294   0.901   0.861  0.1107  0.2347 -0.6169
 1070SOL    HW2 3359   0.369   0.812   0.959  1.3043  0.9104 -0.8887
 1071SOL     OW 3360   3.216   0.891   1.634 -0.0056  0.1985 -0.3175
 1071SOL    HW1 3361   3.285   0.868   1.696 -0.6604  2.2359  1.2831
 1071SOL    HW2 3362   3.140   0.839   1.661 -0.1596  0.7577  0.3863
 1072SOL     OW 3363   3.303   2.991   0.179  0.0561 -0.5477  0.0659
 1072SOL    HW1 3364   3.377   3.024   0.229  0.0610 -0.8735  0.2754
 1072SOL    HW2 3365   3.295   2.899   0.205 -0.1133 -0.6448 -0.3220
 1073SOL     OW 3366   1.700   2.136   2.055 -0.6393 -0.2014 -0.7462
 1073SOL    HW1 3367   1.637   2.087   2.109  0.0810  0.6530  0.9648
 1073SOL    HW2 3368   1.783   2.130   2.104 -0.3081  1.9028 -0.9567
 1074SOL     OW 3369   0.102   3.270   1.169  0.5607  0.4612 -0.2938
 1074SOL    HW1 3370   0.094   3.323   1.090 -1.3545  0.2020 -0.3186
 1074SOL    HW2 3371   0.078   3.181   1.140 -1.3232  0.5740  0.7714
 1075SOL     OW 3372   0.117   1.504   1.695  0.4506 -0.2866  0.1203
 1075SOL    HW1 3373   0.044   1.545   1.649  0.4086 -0.6845 -0.1743
 1075SOL    HW2 3374   0.078   1.431   1.743  0.4938  0.1225  0.7972
 1076SOL     OW 3375   3.475   0.696   0.644  0.0332 -0.7694 -0.4295
 1076SOL    HW1 3376   3.399   0.714   0.588 -1.5617  2.8507  2.5186
 1076SOL    HW2 3377   3.440   0.695   0.733  3.2812  0.3825  1.0163
 1077SOL     OW 3378   0.398   1.639   0.337  0.8187  0.6237  0.4443
 1077SOL    HW1 3379   0.349   1.694   0.276 -1.1995 -1.6437 -0.1197
 1077SOL    HW2 3380   0.374   1.671   0.424 -0.3607  0.6506  0.1239
 1078SOL     OW 3381   2.989   1.567   3.539  0.3541  0.3441 -0.1566
 1078SOL    HW1 3382   3.014   1.624   3.611  0.5341  0.0903 -0.0177
 1078SOL    HW2 3383   3.066   1.563   3.483  0.6606 -0.4924  0.3060
 1079SOL     OW 3384   2.734   0.449   1.150  0.5223 -0.0833  0.1054
 1079SOL    HW1 3385   2.807   0.390   1.173  1.2493  1.3899  1.7540
 1079SOL    HW2 3386   2.695   0.473   1.233 -2.3260 -1.2945 -0.7648
 1080SOL     OW 3387   1.448   2.704   1.846  0.3376  0.0916 -0.3081
 1080SOL    HW1 3388   1.357   2.677   1.858 -0.3990  2.0879 -1.1124
 1080SOL    HW2 3389   1.472   2.669   1.760  0.6954 -1.2830  0.3205
 1081SOL     OW 3390   0.572   2.199   3.565 -0.3713 -0.4754 -0.1428
 1081SOL    HW1 3391   0.537   2.265   3.624  1.5583  0.6640 -0.1776
 1081SOL    HW2 3392   0.508   2.193   3.494 -0.3788  1.7412 -0.3895
 1082SOL     OW 3393   0.282   0.894   0.068  0.0192  0.7506  0.0574
 1082SOL    HW1 3394   0.362   0.857   0.030 -0.5495  0.8244 -1.2999
 1082SOL    HW2 3395   0.308   0.981   0.100  0.3100  1.1617 -1.2238
 1083SOL     OW 3396   3.409   1.770   0.380  0.5465 -0.0420  0.0793
 1083SOL    HW1 3397   3.353   1.814   0.316  3.3316 -0.7366 -3.1190
 1083SOL    HW2 3398   3.374   1.682   0.385  0.0082  0.1539 -0.1201
 1084SOL     OW 3399   2.163   3.091   0.914  0.0547 -0.3127  0.1851
 1084SOL    HW1 3400   2.183   3.134   0.998 -1.1744 -0.0755  0.3798
 1084SOL    HW2 3401   2.209   3.143   0.849  1.6780 -0.9520  0.7544
 1085SOL     OW 3402   3.029   0.478   1.306  0.5309  0.8382 -0.2899
 1085SOL    HW1 3403   3.090   0.480   1.379 -3.0157 -2.2826  3.2382
 1085SOL    HW2 3404   3.032   0.388   1.274  0.0200  1.4588 -2.2191
 1086SOL     OW 3405   2.822   3.566   1.085 -1.0139 -0.3789  0.0650
 1086SOL    HW1 3406   2.875   3.583   1.162  0.0321 -3.3552  0.1238
 1086SOL    HW2 3407   2.831   3.645   1.032  2.7970 -0.3507  0.4721
 1087SOL     OW 3408   1.118   2.620   2.140 -0.2557 -0.1955 -0.5772
 1087SOL    HW1 3409   1.073   2.643   2.222 -0.2384  0.5192 -0.7638
 1087SOL    HW2 3410   1.205   2.592   2.168  0.0469  0.8713 -0.4032
 1088SOL     OW 3411   2.103   1.955   3.392  0.2759  0.2596 -0.9431
 1088SOL    HW1 3412   2.031   2.015   3.412 -0.7435 -1.0118 -0.6255
 1088SOL    HW2 3413   2.167   1.972   3.461 -1.7636 -1.7435  1.6690
 1089SOL     OW 3414   1.155   2.813   2.494 -0.2640 -0.1460  0.4765
 1089SOL    HW1 3415   1.151   2.717   2.492 -1.6593 -0.0884 -1.0971
 1089SOL    HW2 3416   1.247   2.833   2.478  0.3996 -1.1969  2.4981
 1090SOL     OW 3417   1.370   0.414   0.709  0.2646  0.3801  0.4648
 1090SOL    HW1 3418   1.382   0.506   0.688  0.1214  0.2142 -0.3826
 1090SOL    HW2 3419   1.451   0.389   0.753 -0.1586  1.1887  1.7591
 1091SOL     OW 3420   3.412   0.284   0.469  0.2677 -0.6279  0.0449
 1091SOL    HW1 3421   3.474   0.221   0.432  0.5838  0.2810 -1.0664
 1091SOL    HW2 3422   3.467   0.345   0.518  0.3479  0.3735 -1.2176
 1092SOL     OW 3423   0.957   3.036   0.887  0.5002 -0.3553 -0.7530
 1092SOL    HW1 3424   0.999   2.954   0.915  0.7195  0.5929  2.1051
 1092SOL    HW2 3425   1.011   3.067   0.814  1.5814 -1.8008 -0.6233
 1093SOL     OW 3426   2.362   2.313   1.771  0.1590 -0.5381 -0.2907
 1093SOL    HW1 3427   2.400   2.327   1.858  0.4610 -1.0697 -0.3353
 1093SOL    HW2 3428   2.421   2.360   1.712  0.3551 -0.7756 -0.2845
 1094SOL     OW 3429   1.499   3.158   2.654 -0.2104  0.6499 -0.0292
 1094SOL    HW1 3430   1.579   3.109   2.675 -0.3637  0.3221 -0.2049
 1094SOL    HW2 3431   1.434   3.128   2.717 -0.2940  0.6487 -0.1148
 1095SOL     OW 3432   1.516   3.116   3.338  0.0356 -0.1366  0.2636
 1095SOL    HW1 3433   1.505   3.207   3.311  0.3761 -0.0028  0.5495
 1095SOL    HW2 3434   1.502   3.118   3.433  2.6992  0.1354  0.7536
 1096SOL     OW 3435   1.179   2.500   3.724  0.0863 -0.9081 -0.3961
 1096SOL    HW1 3436   1.244   2.463   3.664  2.6951 -0.5335  1.9934
 1096SOL    HW2 3437   1.173   2.437   3.796  1.2914  1.1053  1.6027
 1097SOL     OW 3438   0.562   0.420   1.883  0.8453 -0.5948  0.5066
 1097SOL    HW1 3439   0.574   0.477   1.959  2.2554 -0.5513  0.2673
 1097SOL    HW2 3440   0.468   0.425   1.865  0.8190  1.0443  0.9515
 1098SOL     OW 3441   2.924   2.762   0.671 -0.2204 -0.3254 -0.1484
 1098SOL    HW1 3442   3.012   2.745   0.705  0.3092  3.2487  0.6293
 1098SOL    HW2 3443   2.866   2.743   0.745  0.3077  0.8883  0.6090
 1099SOL     OW 3444   2.358   0.653   2.318 -0.3613  0.1382  0.1855
 1099SOL    HW1 3445   2.411   0.575   2.333  0.8932  0.8891 -0.2218
 1099SOL    HW2 3446   2.420   0.726   2.322 -1.5077  1.1356  0.6169
 1100SOL     OW 3447   0.692   2.681   0.034  0.3493  0.4668  0.2470
 1100SOL    HW1 3448   0.652   2.666  -0.051  1.2665  4.1646 -1.0327
 1100SOL    HW2 3449   0.786   2.672   0.018  0.8097  4.3348 -0.1503
 1101SOL     OW 3450   3.575   1.282   1.378 -0.5057 -0.3285 -0.8438
 1101SOL    HW1 3451   3.666   1.308   1.360 -0.1182 -1.7830 -1.1661
 1101SOL    HW2 3452   3.582   1.191   1.409 -1.5679  0.5654  2.3778
 1102SOL     OW 3453   3.008   1.729   0.031 -0.2218 -0.4675 -0.1617
 1102SOL    HW1 3454   3.018   1.819   0.062 -0.8628 -0.4217 -0.0778
 1102SOL    HW2 3455   3.005   1.676   0.111  1.2956 -0.6966 -0.2323
 1103SOL     OW 3456   3.605   3.694   1.154  0.5428  0.3114  0.2126
 1103SOL    HW1 3457   3.583   3.618   1.207  1.0830  0.8075  1.1750
 1103SOL    HW2 3458   3.521   3.734   1.133  0.2974 -0.1643  0.2801
 1104SOL     OW 3459   3.430   1.212   1.971 -0.5196  0.3621  0.6153
 1104SOL    HW1 3460   3.341   1.236   1.946 -0.2765 -0.0221 -0.6912
 1104SOL    HW2 3461   3.476   1.295   1.980 -0.2146  0.5137 -1.8478
 1105SOL     OW 3462   3.014   0.262   2.101 -0.2308  0.0849 -0.6291
 1105SOL    HW1 3463   2.995   0.352   2.075  0.0450  0.9588  1.9169
 1105SOL    HW2 3464   3.003   0.211   2.021  1.5228  2.6140 -2.6534
 1106SOL     OW 3465   0.107   1.265   3.643 -0.4403  0.3618  0.0432
 1106SOL    HW1 3466   0.119   1.321   3.567 -1.6195  0.0351 -0.4045
 1106SOL    HW2 3467   0.162   1.304   3.711  0.1607  0.9983 -0.7940
 1107SOL     OW 3468   2.073   1.069   0.839  0.3241 -0.4325 -0.0332
 1107SOL    HW1 3469   2.125   0.989   0.839  2.4884  0.8487 -1.5818
 1107SOL    HW2 3470   2.127   1.132   0.888 -1.8523 -0.1386  2.1858
 1108SOL     OW 3471   3.420   0.533   2.484  1.3518  0.3168 -0.3048
 1108SOL    HW1 3472   3.439   0.441   2.500  0.7849  0.3388  0.5383
 1108SOL    HW2 3473   3.403   0.570   2.571 -1.5725  0.5108 -0.8642
 1109SOL     OW 3474   3.040   1.612   1.906 -0.0158 -0.2288 -0.1453
 1109SOL    HW1 3475   3.042   1.562   1.987 -0.3274 -0.8672 -0.5229
 1109SOL    HW2 3476   2.990   1.691   1.927 -0.6674 -0.7012  0.1122
 1110SOL     OW 3477   1.176   0.549   0.447 -0.2194  0.1305  0.6104
 1110SOL    HW1 3478   1.140   0.466   0.479 -0.5374 -0.5652 -1.3967
 1110SOL    HW2 3479   1.267   0.549   0.475  0.7497 -2.5025 -1.9949
 1111SOL     OW 3480   0.716   3.280   0.687 -0.1137  0.1967  0.3160
 1111SOL    HW1 3481   0.705   3.218   0.759 -3.6913 -0.5895 -0.6693
 1111SOL    HW2 3482   0.762   3.230   0.619  1.1520  0.1811  1.1596
 1112SOL     OW 3483   0.539   0.597   3.295  0.6628  0.0435  0.0786
 1112SOL    HW1 3484   0.602   0.531   3.268  0.7355 -0.7058  1.9196
 1112SOL    HW2 3485   0.465   0.547   3.330  0.5138  0.9039  1.0508
 1113SOL     OW 3486   0.120   0.271   2.805  0.0825 -0.0641 -0.4424
 1113SOL    HW1 3487   0.167   0.277   2.722 -0.8265  0.7410 -0.9214
 1113SOL    HW2 3488   0.184   0.299   2.870  0.8548 -0.8599 -0.8342
 1114SOL     OW 3489   2.489   2.570   0.605 -0.4318 -0.2736 -0.2158
 1114SOL    HW1 3490   2.413   2.593   0.552 -0.6737 -0.6910 -0.0579
 1114SOL    HW2 3491   2.564   2.597   0.553 -0.6786 -0.2906 -0.5845
 1115SOL     OW 3492   1.784   3.290   3.279  0.2165  0.0822 -0.6645
 1115SOL    HW1 3493   1.863   3.255   3.238  1.1652  2.1788 -0.7515
 1115SOL    HW2 3494   1.723   3.304   3.206  1.0880  1.7304 -1.1181
 1116SOL     OW 3495   2.826   0.719   2.314  0.3966  0.0338  0.6309
 1116SOL    HW1 3496   2.892   0.723   2.245  0.0785 -1.1758  0.2301
 1116SOL    HW2 3497   2.810   0.810   2.338 -0.3782  0.5805 -1.7540
 1117SOL     OW 3498   2.588   0.800   3.398  0.1280 -0.1962 -0.5338
 1117SOL    HW1 3499   2.666   0.839   3.359  1.1686 -0.5935  1.0414
 1117SOL    HW2 3500   2.591   0.830   3.489 -0.6040 -1.6363 -0.0176
 1118SOL     OW 3501   1.511   0.815   2.536  0.0508  0.1777  0.1645
 1118SOL    HW1 3502   1.594   0.768   2.530 -1.2236 -2.1568 -5.8696
 1118SOL    HW2 3503   1.529   0.902   2.502  0.2299 -0.0102 -0.2238
 1119SOL     OW 3504   3.310   1.451   3.046  0.2408 -0.6873  0.2204
 1119SOL    HW1 3505   3.238   1.512   3.063  2.1663  1.1294  2.4486
 1119SOL    HW2 3506   3.341   1.474   2.958 -1.0911 -0.7112 -0.2806
 1120SOL     OW 3507   2.977   1.621   2.433  0.1952  0.1858 -0.0701
 1120SOL    HW1 3508   2.927   1.549   2.394  1.7687 -0.8957 -0.1986
 1120SOL    HW2 3509   3.047   1.577   2.482  1.8635  1.6285 -1.0525
 1121SOL     OW 3510   2.686   0.091   2.393 -0.1267  0.2089  0.1600
 1121SOL    HW1 3511   2.648   0.030   2.329  2.0688 -0.4309 -0.6216
 1121SOL    HW2 3512   2.719   0.164   2.339  0.3312  0.4273  0.7297
 1122SOL     OW 3513   1.293   2.999   2.813 -0.3835  0.2331 -0.6026
 1122SOL    HW1 3514   1.250   2.914   2.822 -1.3560  0.8418  0.6300
 1122SOL    HW2 3515   1.353   3.005   2.887  0.3434  0.2630 -1.1762
 1123SOL     OW 3516   0.048   0.919   3.564  0.2861  0.1233 -0.1472
 1123SOL    HW1 3517   0.065   0.831   3.533 -0.9899  0.4082 -1.8619
 1123SOL    HW2 3518   0.134   0.960   3.571  0.8644 -1.1515  0.3753
 1124SOL     OW 3519   1.486   2.046   0.245 -0.4119 -0.2763  0.3357
 1124SOL    HW1 3520   1.574   2.032   0.211  0.0470 -0.7342  1.6565
 1124SOL    HW2 3521   1.484   1.998   0.328 -1.7667  0.0814  0.5387
 1125SOL     OW 3522   2.526   1.683   0.347 -0.2705  0.3908  0.2871
 1125SOL    HW1 3523   2.564   1.674   0.434  1.3959  0.2725 -0.4253
 1125SOL    HW2 3524   2.435   1.708   0.363  0.2921  1.4544  2.0502
 1126SOL     OW 3525   2.426   0.516   0.507 -0.3171 -0.3469  0.2686
 1126SOL    HW1 3526   2.465   0.560   0.431  1.3111  1.2745  1.9149
 1126SOL    HW2 3527   2.491   0.450   0.532 -0.2078  0.0219  0.9884
 1127SOL     OW 3528   3.354   3.500   2.985  0.3354  0.8707  0.1693
 1127SOL    HW1 3529   3.449   3.513   2.979  0.5817 -0.6931  0.2762
 1127SOL    HW2 3530   3.317   3.570   2.930  1.5259  1.6115  0.2716
 1128SOL     OW 3531   3.543   1.587   0.820 -0.0996 -0.1174 -0.2345
 1128SOL    HW1 3532   3.507   1.531   0.751 -1.5351  2.7726 -2.0344
 1128SOL    HW2 3533   3.475   1.591   0.887 -1.4038  1.7875 -1.5611
 1129SOL     OW 3534   2.449   2.138   2.259  0.8306 -0.2964  0.1395
 1129SOL    HW1 3535   2.467   2.207   2.195  1.9146 -0.3224  0.3963
 1129SOL    HW2 3536   2.451   2.182   2.344  1.5735 -0.6313  0.3081
 1130SOL     OW 3537   2.506   0.347   2.389  0.3108 -0.3869  0.2550
 1130SOL    HW1 3538   2.589   0.379   2.354  0.1976 -1.2515 -0.8365
 1130SOL    HW2 3539   2.457   0.315   2.313 -0.8574 -0.2826  0.9272
 1131SOL     OW 3540   2.125   3.597   2.599 -0.5754  0.0049 -0.2519
 1131SOL    HW1 3541   2.087   3.681   2.625 -0.7600 -0.4271  0.9640
 1131SOL    HW2 3542   2.152   3.557   2.682  0.7291 -0.5638 -0.9237
 1132SOL     OW 3543   2.792   0.203   1.455  0.4941 -0.0157 -0.5770
 1132SOL    HW1 3544   2.791   0.253   1.536  0.1635 -0.5524 -0.2499
 1132SOL    HW2 3545   2.700   0.186   1.435  0.6424 -1.9094  0.2040
 1133SOL     OW 3546   2.372   3.554   2.006  0.1167  0.6225 -0.1640
 1133SOL    HW1 3547   2.407   3.469   2.032 -0.1768  0.3613 -0.6049
 1133SOL    HW2 3548   2.390   3.559   1.912  0.2356  1.0994 -0.1158
 1134SOL     OW 3549   1.702   0.736   0.612  0.5176 -0.0239  0.7921
 1134SOL    HW1 3550   1.681   0.774   0.697  0.4605 -1.7918  1.6059
 1134SOL    HW2 3551   1.791   0.703   0.621  0.2814 -0.7991  0.3999
 1135SOL     OW 3552   3.194   0.297   1.052 -0.1157 -0.3959  0.0922
 1135SOL    HW1 3553   3.172   0.225   0.993 -0.0007 -1.3640  1.2022
 1135SOL    HW2 3554   3.114   0.349   1.058 -0.3326 -0.6722 -0.3796
 1136SOL     OW 3555   2.933   1.795   1.459  0.3414 -0.7765 -0.0654
 1136SOL    HW1 3556   2.984   1.767   1.384 -2.0554 -1.3856 -1.5987
 1136SOL    HW2 3557   2.920   1.889   1.446 -0.2532 -0.9195 -0.5891
 1137SOL     OW 3558   0.207   2.129   2.992 -0.0131 -0.1476  0.0996
 1137SOL    HW1 3559   0.233   2.091   2.908 -0.4024 -2.4141  0.9406
 1137SOL    HW2 3560   0.115   2.106   3.001 -0.1218  0.5654  0.9033
 1138SOL     OW 3561   0.799   3.353   1.474 -0.0858  0.2535  0.3953
 1138SOL    HW1 3562   0.858   3.324   1.543  0.0575  0.0409  0.1813
 1138SOL    HW2 3563   0.740   3.414   1.518  0.1749  0.3253  0.6480
 1139SOL     OW 3564   1.192   2.155   3.643  0.1228  0.7234  0.3012
 1139SOL    HW1 3565   1.272   2.207   3.652  1.0028 -0.4544 -0.4325
 1139SOL    HW2 3566   1.155   2.182   3.559  0.7934 -0.0785 -0.2712
 1140SOL     OW 3567   1.985   2.167   0.930 -0.0960 -0.2308 -0.0683
 1140SOL    HW1 3568   1.959   2.227   1.000 -1.7756  1.3037 -1.8730
 1140SOL    HW2 3569   1.952   2.209   0.850  2.4155 -1.4814 -1.8921
 1141SOL     OW 3570   1.611   3.666   3.701 -0.7991 -0.2156 -0.1857
 1141SOL    HW1 3571   1.592   3.613   3.624 -0.7879 -0.6786  0.1230
 1141SOL    HW2 3572   1.679   3.618   3.747  2.3456  2.1099 -2.0207
 1142SOL     OW 3573   1.343   1.582   2.574  0.1423 -0.0090  0.0888
 1142SOL    HW1 3574   1.421   1.559   2.524  0.1304 -2.6631  1.1290
 1142SOL    HW2 3575   1.377   1.618   2.656  0.2967 -0.9383  0.4421
 1143SOL     OW 3576   1.092   2.521   1.504  0.2985  0.4548  0.0445
 1143SOL    HW1 3577   1.079   2.543   1.412 -0.0019 -1.0282 -0.2794
 1143SOL    HW2 3578   1.174   2.566   1.528  1.5514 -0.8964 -1.5523
 1144SOL     OW 3579   1.351   0.213   3.689 -0.7221  0.5070 -0.2636
 1144SOL    HW1 3580   1.365   0.119   3.680  1.0085  0.5719  1.1368
 1144SOL    HW2 3581   1.293   0.222   3.765 -0.1953  0.5715  0.1416
 1145SOL     OW 3582   2.150   2.538   2.463 -0.3839 -0.4405  0.1162
 1145SOL    HW1 3583   2.193   2.572   2.541 -0.5991 -0.3025  0.1741
 1145SOL    HW2 3584   2.084   2.603   2.441 -1.0675 -1.0028  0.4625
 1146SOL     OW 3585   3.426   3.143   2.932 -0.3386 -0.0990 -0.5163
 1146SOL    HW1 3586   3.408   3.105   3.017 -2.2287  1.5572 -0.0957
 1146SOL    HW2 3587   3.519   3.166   2.936  0.6848 -3.6742 -0.5092
 1147SOL     OW 3588   3.594   1.519   1.111 -0.4748 -0.5997  0.7476
 1147SOL    HW1 3589   3.638   1.527   1.026  0.3523 -0.7011  1.1544
 1147SOL    HW2 3590   3.526   1.453   1.096  0.5526 -1.6514  0.4872
 1148SOL     OW 3591   0.198   2.504   1.270  0.1920 -0.1361 -0.3950
 1148SOL    HW1 3592   0.222   2.412   1.262 -0.1226 -0.1210 -1.7252
 1148SOL    HW2 3593   0.279   2.547   1.298 -0.1814 -1.0713  2.4850
 1149SOL     OW 3594   2.526   1.939   1.145 -0.0288  0.9873  0.2472
 1149SOL    HW1 3595   2.432   1.948   1.160  0.2191  2.3507  1.1828
 1149SOL    HW2 3596   2.544   1.846   1.160 -1.2546  0.6593 -0.1984
 1150SOL     OW 3597   3.600   1.885   3.296  0.2627  0.3202  0.0368
 1150SOL    HW1 3598   3.536   1.910   3.362 -1.7496  0.7221 -1.9582
 1150SOL    HW2 3599   3.600   1.789   3.297 -0.3146  0.3210  0.0919
 1151SOL     OW 3600   1.325   2.124   1.594 -0.0638 -0.3988 -0.4053
 1151SOL    HW1 3601   1.337   2.114   1.500 -0.0941  1.2992 -0.6301
 1151SOL    HW2 3602   1.414   2.131   1.629 -0.0273 -1.6656 -0.2000
 1152SOL     OW 3603   2.590   0.542   1.353  0.0642 -0.4074 -0.4646
 1152SOL    HW1 3604   2.634   0.621   1.385 -1.5816  0.7522 -0.9236
 1152SOL    HW2 3605   2.498   0.567   1.346 -0.8275 -2.8843  1.0117
 1153SOL     OW 3606   3.128   0.060   0.887  0.1029 -0.0780 -0.1105
 1153SOL    HW1 3607   3.096  -0.029   0.870  0.2337 -0.3231  0.8459
 1153SOL    HW2 3608   3.170   0.086   0.805  0.0714 -0.8997 -0.4039
 1154SOL     OW 3609   3.316   1.592   0.999  0.2210 -0.0596  0.0492
 1154SOL    HW1 3610   3.273   1.659   1.053  0.4687 -0.9576  1.3988
 1154SOL    HW2 3611   3.275   1.510   1.024 -0.5601 -0.3754 -2.1006
 1155SOL     OW 3612   2.406   1.759   3.214 -0.6216 -0.2543  0.0757
 1155SOL    HW1 3613   2.418   1.846   3.252 -0.1826  0.6097 -1.9130
 1155SOL    HW2 3614   2.336   1.770   3.150 -1.0134 -1.5377  0.2545
 1156SOL     OW 3615   0.733   2.649   1.318 -0.4653 -0.6059 -0.1794
 1156SOL    HW1 3616   0.769   2.585   1.257  0.6758  0.5663 -0.7929
 1156SOL    HW2 3617   0.682   2.708   1.264  0.7072  0.5527 -0.0749
 1157SOL     OW 3618   1.595   0.266   3.054  0.4693 -0.0701 -0.4793
 1157SOL    HW1 3619   1.620   0.346   3.010 -0.5610 -0.0382 -1.0379
 1157SOL    HW2 3620   1.568   0.207   2.984 -1.7674  0.1861  0.0873
 1158SOL     OW 3621   3.405   1.901   0.886  0.0130 -0.0154 -0.0058
 1158SOL    HW1 3622   3.462   1.897   0.963 -2.1670  2.3840  1.9263
 1158SOL    HW2 3623   3.397   1.809   0.858  0.0032 -1.2149  3.3947
 1159SOL     OW 3624   0.234   1.335   3.358  0.0151 -0.0111 -0.0749
 1159SOL    HW1 3625   0.308   1.395   3.367 -0.0144  0.0037  0.0701
 1159SOL    HW2 3626   0.189   1.364   3.278 -1.4695  1.7734  1.3234
 1160SOL     OW 3627   1.638   0.270   2.738  0.0596 -0.3009  0.6072
 1160SOL    HW1 3628   1.549   0.300   2.722  0.4275  0.8455  0.5853
 1160SOL    HW2 3629   1.687   0.350   2.758  1.0770 -0.9071  0.6287
 1161SOL     OW 3630   0.857   2.976   2.311 -0.6793 -0.2776  0.2121
 1161SOL    HW1 3631   0.797   2.973   2.236 -0.2185  1.0915 -0.2425
 1161SOL    HW2 3632   0.799   2.984   2.387 -1.1247 -0.5548 -0.0940
 1162SOL     OW 3633   2.543   0.242   0.347 -0.9943 -0.6367 -0.4664
 1162SOL    HW1 3634   2.550   0.336   0.329  2.9716 -0.7289 -0.1329
 1162SOL    HW2 3635   2.531   0.202   0.261 -2.4512  0.0614 -0.6349
 1163SOL     OW 3636   0.188   3.105   3.017  0.2782  0.0251  0.8209
 1163SOL    HW1 3637   0.142   3.165   2.958  0.6307 -0.3182  0.1924
 1163SOL    HW2 3638   0.138   3.111   3.099 -0.7276 -0.1268  0.2450
 1164SOL     OW 3639   2.252   2.862   3.113  0.2895 -0.2917 -0.1143
 1164SOL    HW1 3640   2.243   2.775   3.151  0.2730 -1.2214 -2.1609
 1164SOL    HW2 3641   2.223   2.853   3.023  4.0252  0.8868 -1.6237
 1165SOL     OW 3642   2.135   3.415   3.445  0.0398  0.3118 -0.2173
 1165SOL    HW1 3643   2.171   3.345   3.391  1.1422  0.7213 -0.0343
 1165SOL    HW2 3644   2.063   3.373   3.494  1.0178 -0.8347  0.2773
 1166SOL     OW 3645   1.675   0.061   1.066  0.0547  0.1001  0.0243
 1166SOL    HW1 3646   1.683   0.039   0.973  0.5011  0.2026  0.0373
 1166SOL    HW2 3647   1.600   0.010   1.096 -0.2525  0.2689 -0.4546
 1167SOL     OW 3648   2.422   1.069   1.433 -0.4129  0.0754  0.9036
 1167SOL    HW1 3649   2.358   1.114   1.488 -0.9430 -0.4109  0.6968
 1167SOL    HW2 3650   2.506   1.086   1.475 -0.3056  2.9338 -0.2523
 1168SOL     OW 3651   2.660   1.626   0.580 -0.8410 -0.3085  0.2612
 1168SOL    HW1 3652   2.691   1.639   0.669 -3.2168 -2.4484  1.5150
 1168SOL    HW2 3653   2.701   1.544   0.552 -0.0163  0.4098 -0.6881
 1169SOL     OW 3654   1.880   3.176   1.411  0.3982 -0.1906  0.1039
 1169SOL    HW1 3655   1.970   3.154   1.436  0.9880 -0.6062 -2.1839
 1169SOL    HW2 3656   1.828   3.102   1.445  1.4235 -1.7180 -1.4897
 1170SOL     OW 3657   2.908   2.002   3.257  0.0631  0.2075 -0.3099
 1170SOL    HW1 3658   2.900   1.927   3.316 -0.2374  0.2449 -0.3015
 1170SOL    HW2 3659   2.871   2.076   3.306  0.9052  0.4860 -0.0900
 1171SOL     OW 3660   3.526   3.367   1.086  0.4426 -0.3169 -0.2599
 1171SOL    HW1 3661   3.617   3.339   1.089  0.4131 -0.4943 -0.8512
 1171SOL    HW2 3662   3.516   3.426   1.161  0.3210 -2.3758  1.4287
 1172SOL     OW 3663   1.355   1.846   2.499 -0.0235 -0.0746 -0.0094
 1172SOL    HW1 3664   1.289   1.853   2.430 -1.1394 -1.5430  0.8331
 1172SOL    HW2 3665   1.411   1.773   2.473 -0.3466 -0.5261  0.5233
 1173SOL     OW 3666   3.056   3.055   1.998  0.8284  0.5143  0.4162
 1173SOL    HW1 3667   3.137   3.056   2.049  1.6916 -1.7093 -0.7599
 1173SOL    HW2 3668   3.069   2.985   1.934 -0.6577  2.3579 -2.0827
 1174SOL     OW 3669   0.933   3.139   2.964 -0.1522 -0.1634  0.4596
 1174SOL    HW1 3670   0.988   3.155   2.888 -1.4145  0.7321 -0.2937
 1174SOL    HW2 3671   0.978   3.069   3.012 -0.7837 -2.9119 -2.6106
 1175SOL     OW 3672   0.402   3.718   1.956 -0.2117  0.9099 -0.0604
 1175SOL    HW1 3673   0.484   3.727   2.003 -0.2380 -1.6471  0.6129
 1175SOL    HW2 3674   0.335   3.710   2.024 -0.5996 -0.1641 -0.5440
 1176SOL     OW 3675   1.373   2.696   3.037  0.1286  0.8091 -0.2335
 1176SOL    HW1 3676   1.382   2.635   3.110  0.0299 -0.9002 -1.5995
 1176SOL    HW2 3677   1.419   2.775   3.066 -1.1622  0.7592  2.2629
 1177SOL     OW 3678   0.779   1.193   2.972 -0.2362  0.4001  0.1987
 1177SOL    HW1 3679   0.863   1.159   3.003 -1.0941  0.5464  2.9811
 1177SOL    HW2 3680   0.790   1.288   2.975  0.1009  0.4475 -1.4369
 1178SOL     OW 3681   3.150   1.308   3.712 -0.2985  0.2777  0.0700
 1178SOL    HW1 3682   3.216   1.239   3.719  0.2444  0.8777  1.2456
 1178SOL    HW2 3683   3.191   1.376   3.657 -0.1014  0.4533  0.4287
 1179SOL     OW 3684   2.413   1.474   0.145  0.4813 -0.4964  0.2659
 1179SOL    HW1 3685   2.378   1.512   0.225  1.5459  0.9054  0.1078
 1179SOL    HW2 3686   2.484   1.534   0.119  0.5345 -1.2282 -1.4040
 1180SOL     OW 3687   0.290   2.269   1.082 -0.9118  0.1034  0.4127
 1180SOL    HW1 3688   0.286   2.333   1.012 -0.0050  1.2336  1.3417
 1180SOL    HW2 3689   0.365   2.296   1.135 -0.6501 -1.5971  0.9743
 1181SOL     OW 3690   2.917   0.491   1.979 -0.6270  0.3952 -0.0448
 1181SOL    HW1 3691   2.898   0.584   1.964 -0.9423  0.0046 -2.4947
 1181SOL    HW2 3692   2.989   0.472   1.919 -1.0955 -1.1161 -0.1658
 1182SOL     OW 3693   2.455   0.647   0.763  0.4500 -0.0588  0.2299
 1182SOL    HW1 3694   2.463   0.576   0.826  1.7157  0.1634  0.3501
 1182SOL    HW2 3695   2.444   0.604   0.679 -1.8136 -0.3567  0.6203
 1183SOL     OW 3696   1.761   2.943   1.520  0.4432 -0.2653 -0.4856
 1183SOL    HW1 3697   1.735   2.863   1.475 -1.2091  0.4636 -0.9093
 1183SOL    HW2 3698   1.758   2.921   1.613  0.0695 -0.7244 -0.5995
 1184SOL     OW 3699   3.023   0.104   2.386  0.2950 -0.5121 -0.1643
 1184SOL    HW1 3700   3.107   0.103   2.431  0.4592  1.4424 -0.3342
 1184SOL    HW2 3701   2.965   0.154   2.443 -0.2510 -0.3264 -0.8640
 1185SOL     OW 3702   0.332   2.227   2.757 -0.0216 -0.9642 -0.3714
 1185SOL    HW1 3703   0.286   2.143   2.749 -1.4331 -0.3837  1.1880
 1185SOL    HW2 3704   0.266   2.293   2.734  0.7588 -0.2229 -0.5285
 1186SOL     OW 3705   0.132   1.641   2.765 -0.0854 -0.3023 -0.0227
 1186SOL    HW1 3706   0.171   1.676   2.685 -0.9102  2.6151  0.7436
 1186SOL    HW2 3707   0.041   1.671   2.762 -0.8115 -2.2425  0.8822
 1187SOL     OW 3708   2.802   3.196   0.854  0.6271  0.5423  0.8048
 1187SOL    HW1 3709   2.712   3.174   0.880  1.1959 -1.8640  0.9054
 1187SOL    HW2 3710   2.847   3.216   0.936  0.6441 -0.0760  0.9470
 1188SOL     OW 3711   3.718   2.754   0.083  0.1888 -0.4516 -0.3549
 1188SOL    HW1 3712   3.625   2.735   0.101  0.3350 -0.3814  0.5102
 1188SOL    HW2 3713   3.761   2.668   0.087  0.3814 -0.3166  0.6506
 1189SOL     OW 3714   3.702   0.805   2.132  0.1287 -0.0129 -0.2520
 1189SOL    HW1 3715   3.614   0.768   2.129  0.5865 -1.4003  1.8087
 1189SOL    HW2 3716   3.755   0.739   2.176  2.2649  0.7388 -1.5139
 1190SOL     OW 3717   3.138   1.749   2.865 -0.4565  0.5887  0.2505
 1190SOL    HW1 3718   3.106   1.707   2.945  0.9972 -0.1523  0.4891
 1190SOL    HW2 3719   3.083   1.827   2.854 -0.5987  0.7740  2.0466
 1191SOL     OW 3720   1.758   1.871   2.473 -0.0840 -0.1450  0.4693
 1191SOL    HW1 3721   1.809   1.855   2.394  0.1073 -1.8811  0.8895
 1191SOL    HW2 3722   1.667   1.874   2.443  0.1244  1.3760 -0.0738
 1192SOL     OW 3723   0.028   0.066   2.302 -0.4209  0.1175 -0.1454
 1192SOL    HW1 3724   0.116   0.056   2.265 -0.1367  1.0607  0.2400
 1192SOL    HW2 3725   0.039   0.050   2.396 -0.4712  1.1522  0.0492
 1193SOL     OW 3726   0.038   2.188   0.380  0.3339  0.1785  0.5558
 1193SOL    HW1 3727   0.082   2.261   0.423  0.8743 -0.3940  0.9877
 1193SOL    HW2 3728   0.090   2.111   0.403 -0.2601 -0.3553  0.1558
 1194SOL     OW 3729  -0.012   0.315   0.836  0.7520 -0.1466  0.1542
 1194SOL    HW1 3730   0.030   0.289   0.754  0.5672 -2.3906  0.6998
 1194SOL    HW2 3731  -0.007   0.237   0.891 -2.1814  0.1712  1.0472
 1195SOL     OW 3732   3.477   3.527   1.342  0.5443 -0.0668  0.2912
 1195SOL    HW1 3733   3.401   3.506   1.287  1.6305 -0.1925 -1.2270
 1195SOL    HW2 3734   3.452   3.498   1.430 -0.7874 -0.9964 -0.3596
 1196SOL     OW 3735   1.782   2.457   0.209 -0.3147  0.0522 -0.2158
 1196SOL    HW1 3736   1.762   2.547   0.186  0.2241 -0.2121 -1.8679
 1196SOL    HW2 3737   1.877   2.456   0.223 -0.6185  0.2246  2.3634
 1197SOL     OW 3738   3.113   0.783   2.177  0.1456  0.4519  0.1415
 1197SOL    HW1 3739   3.143   0.722   2.245  0.1397 -1.3952 -1.4049
 1197SOL    HW2 3740   3.178   0.773   2.106 -0.2581  1.7303 -0.4280
 1198SOL     OW 3741   0.888   1.401   2.144  0.3508  0.3003 -0.2098
 1198SOL    HW1 3742   0.898   1.461   2.217  1.0207 -1.1500  0.9417
 1198SOL    HW2 3743   0.794   1.385   2.139  0.1114  1.7123 -0.7996
 1199SOL     OW 3744   3.088   0.144   0.420 -0.4983  0.0763 -0.1607
 1199SOL    HW1 3745   3.119   0.087   0.491  1.4824  2.5676  1.1285
 1199SOL    HW2 3746   3.113   0.099   0.340 -0.2529 -1.4893  0.7482
 1200SOL     OW 3747   1.163   2.340   2.140  0.3819  0.0022 -0.0733
 1200SOL    HW1 3748   1.169   2.435   2.145 -2.1464  0.2206  0.1262
 1200SOL    HW2 3749   1.213   2.316   2.061 -1.0448  1.7812 -1.6023
 1201SOL     OW 3750   1.326   0.196   1.180  0.0735  0.6724 -0.7228
 1201SOL    HW1 3751   1.232   0.184   1.167 -0.2200  2.1800 -0.1185
 1201SOL    HW2 3752   1.353   0.257   1.111  0.7473 -0.1957 -1.2602
 1202SOL     OW 3753   0.488   2.084   0.942 -0.2855  0.2463 -0.5675
 1202SOL    HW1 3754   0.524   2.149   1.002 -1.6506  0.0539  0.5048
 1202SOL    HW2 3755   0.565   2.044   0.901  0.7418 -0.1093  1.5810
 1203SOL     OW 3756   2.143   2.770   2.870  0.1257 -0.0638 -0.0376
 1203SOL    HW1 3757   2.183   2.691   2.833  1.9009  1.2810 -1.1430
 1203SOL    HW2 3758   2.114   2.819   2.794  0.5032  1.0829  0.5422
 1204SOL     OW 3759   0.022   2.701   0.602  0.3707 -0.5219  0.4728
 1204SOL    HW1 3760  -0.058   2.693   0.654  0.1984 -1.4014  0.0860
 1204SOL    HW2 3761   0.038   2.795   0.597 -2.9796  0.1229 -2.9414
 1205SOL     OW 3762   2.656   0.981   1.847  0.3786  0.1049 -0.9581
 1205SOL    HW1 3763   2.587   1.046   1.860 -0.0614 -0.6273  0.8743
 1205SOL    HW2 3764   2.737   1.027   1.864  0.1268  0.3676 -0.4480
 1206SOL     OW 3765   2.362   2.122   0.133 -0.0362  0.0948 -0.0375
 1206SOL    HW1 3766   2.428   2.177   0.175  0.1897 -0.4360  0.3159
 1206SOL    HW2 3767   2.280   2.171   0.144 -0.0017 -0.0669  1.1174
 1207SOL     OW 3768   2.571   0.065   3.030 -0.4603 -0.3813 -0.0248
 1207SOL    HW1 3769   2.498   0.027   2.983  0.2505  0.9358 -2.3602
 1207SOL    HW2 3770   2.531   0.116   3.100 -1.6736 -0.9263 -0.3027
 1208SOL     OW 3771   1.170   1.627   1.805 -0.3742  0.0536 -0.5005
 1208SOL    HW1 3772   1.109   1.655   1.873 -0.3341 -0.3173 -0.3082
 1208SOL    HW2 3773   1.115   1.590   1.736 -0.8068  3.9604 -2.5376
 1209SOL     OW 3774   1.155   0.216   2.347  0.5874  0.3073 -0.6710
 1209SOL    HW1 3775   1.197   0.233   2.263  1.3323  0.2875 -0.3174
 1209SOL    HW2 3776   1.128   0.124   2.342  2.0226 -0.1699 -0.3358
 1210SOL     OW 3777   0.188   0.836   1.595 -0.1092 -0.0462 -0.3302
 1210SOL    HW1 3778   0.191   0.833   1.690  0.8160  0.0957 -0.3490
 1210SOL    HW2 3779   0.104   0.796   1.572 -1.4224  1.9787  0.6315
 1211SOL     OW 3780   2.097   3.550   3.098  0.2244 -0.3863  0.1451
 1211SOL    HW1 3781   2.144   3.538   3.015  1.3091 -0.3373  0.7368
 1211SOL    HW2 3782   2.162   3.589   3.156 -1.3314  2.3683  0.1948
 1212SOL     OW 3783   2.853   2.060   2.129 -0.3989  0.3048  0.1801
 1212SOL    HW1 3784   2.812   2.121   2.069  0.4493  2.7194  1.9178
 1212SOL    HW2 3785   2.790   2.050   2.201 -0.1536 -0.1667  0.3346
 1213SOL     OW 3786   2.238   1.232   0.123 -0.0765 -0.3377 -0.2300
 1213SOL    HW1 3787   2.302   1.302   0.133  2.2761 -2.6706  2.8824
 1213SOL    HW2 3788   2.262   1.189   0.040  0.7437  0.3331 -0.3459
 1214SOL     OW 3789   1.692   1.189   0.713 -0.3766 -0.3230  0.3923
 1214SOL    HW1 3790   1.645   1.132   0.774 -0.0369 -1.0706 -0.0257
 1214SOL    HW2 3791   1.709   1.133   0.636  1.4790 -0.2206  0.6610
 1215SOL     OW 3792   1.009   0.980   1.027 -0.0182  0.4679 -0.0718
 1215SOL    HW1 3793   1.008   0.905   1.086  1.4261 -0.3011 -0.9614
 1215SOL    HW2 3794   0.924   1.022   1.040 -0.2977 -0.4946  1.4757
 1216SOL     OW 3795   2.107   0.805   0.459  0.2100 -0.0796 -0.6906
 1216SOL    HW1 3796   2.110   0.860   0.381  4.1644 -1.7310 -1.9622
 1216SOL    HW2 3797   2.175   0.842   0.516  1.2822 -2.1574 -0.5545
 1217SOL     OW 3798   1.812   0.975   3.457  0.0065 -0.1132 -0.5114
 1217SOL    HW1 3799   1.791   0.884   3.433 -0.4808 -0.4037  0.9307
 1217SOL    HW2 3800   1.789   1.026   3.379 -1.4470 -1.0225 -0.7187
 1218SOL     OW 3801   0.442   1.525   3.299  0.2274  0.2985  0.3051
 1218SOL    HW1 3802   0.408   1.560   3.216 -1.2458  0.0389  0.7726
 1218SOL    HW2 3803   0.450   1.600   3.356 -1.5577  0.1078  0.8458
 1219SOL     OW 3804   3.552   2.967   0.845 -0.6390  0.2626 -0.2481
 1219SOL    HW1 3805   3.572   2.891   0.900 -1.1276  0.2682 -0.0631
 1219SOL    HW2 3806   3.482   2.936   0.786  0.3516  0.0297 -1.3474
 1220SOL     OW 3807   1.345   0.329   2.167 -0.7948  0.8588 -0.2194
 1220SOL    HW1 3808   1.410   0.378   2.218 -0.8056  0.7988 -0.1476
 1220SOL    HW2 3809   1.318   0.389   2.098  0.8702  0.1820 -1.5215
 1221SOL     OW 3810   1.520   3.027   0.131 -0.2605  0.5899 -0.1448
 1221SOL    HW1 3811   1.542   3.057   0.219 -1.9102  0.2391  0.4296
 1221SOL    HW2 3812   1.425   3.035   0.126 -0.5353 -2.0978 -0.8615
 1222SOL     OW 3813   3.706   2.428   1.072 -0.0600 -0.6854 -0.2069
 1222SOL    HW1 3814   3.784   2.473   1.041 -0.6715 -0.4530 -1.4512
 1222SOL    HW2 3815   3.673   2.380   0.996 -1.7276  0.0690 -0.0106
 1223SOL     OW 3816   2.300   2.145   1.458 -0.2129  0.3994 -0.6834
 1223SOL    HW1 3817   2.377   2.101   1.495  0.2110  1.0365 -0.8025
 1223SOL    HW2 3818   2.304   2.124   1.364  0.8841  1.9761 -1.0269
 1224SOL     OW 3819   0.603   2.387   0.842  0.0625 -0.0745 -0.1743
 1224SOL    HW1 3820   0.581   2.327   0.770  2.2958 -0.0053 -0.9691
 1224SOL    HW2 3821   0.643   2.462   0.799  1.0092  0.1800  1.1043
 1225SOL     OW 3822   0.468   1.378   1.856 -0.1554 -0.3203 -0.3380
 1225SOL    HW1 3823   0.385   1.337   1.882 -0.5227 -0.4755 -1.6721
 1225SOL    HW2 3824   0.473   1.363   1.761  0.4753  1.3702 -0.5963
 1226SOL     OW 3825   2.607   1.910   2.190  0.1774 -0.4365  0.5615
 1226SOL    HW1 3826   2.644   1.866   2.267  0.5664  1.0890  1.2883
 1226SOL    HW2 3827   2.545   1.974   2.227  0.4192  0.3592 -0.3834
 1227SOL     OW 3828   3.564   2.654   0.793 -0.5394  0.8888  0.0889
 1227SOL    HW1 3829   3.630   2.684   0.856 -1.2763  1.1555  0.7608
 1227SOL    HW2 3830   3.482   2.655   0.843 -0.7276 -1.5698 -0.0588
 1228SOL     OW 3831   3.669   2.119   1.151 -0.6174 -0.1744 -0.0073
 1228SOL    HW1 3832   3.639   2.202   1.186 -1.9329  0.2582 -2.0272
 1228SOL    HW2 3833   3.589   2.069   1.134  0.1133 -1.5583  0.4170
 1229SOL     OW 3834   2.401   1.177   2.407 -0.3164 -0.6706  0.9126
 1229SOL    HW1 3835   2.398   1.230   2.486 -1.9777  0.2271  0.2855
 1229SOL    HW2 3836   2.401   1.086   2.440  0.1773 -0.3136  1.9456
 1230SOL     OW 3837   2.967   1.238   2.640  0.5889  0.2564 -0.2253
 1230SOL    HW1 3838   2.934   1.154   2.670 -0.5587  0.5089 -0.6965
 1230SOL    HW2 3839   3.025   1.217   2.567  0.3587 -0.1359 -0.2955
 1231SOL     OW 3840   1.521   3.517   3.485 -0.1779 -0.0053  0.0405
 1231SOL    HW1 3841   1.454   3.459   3.520 -0.3549 -0.1579 -0.5552
 1231SOL    HW2 3842   1.473   3.585   3.437  0.0311  0.5732  0.6288
 1232SOL     OW 3843   1.701   2.705   2.985  0.4978 -0.0005  0.1791
 1232SOL    HW1 3844   1.643   2.646   3.034  2.3858 -1.4804  0.7755
 1232SOL    HW2 3845   1.717   2.658   2.903  1.3888  0.0452  0.3244
 1233SOL     OW 3846   2.887   1.806   2.045 -0.3954  0.1229  0.5313
 1233SOL    HW1 3847   2.839   1.756   2.111 -1.1510 -2.0953 -1.5471
 1233SOL    HW2 3848   2.889   1.896   2.080 -0.3717 -0.9699  3.6940
 1234SOL     OW 3849   2.111   2.085   2.390 -0.2421  0.4506 -0.4979
 1234SOL    HW1 3850   2.110   2.018   2.321 -0.1924 -0.0102 -0.0628
 1234SOL    HW2 3851   2.191   2.134   2.374 -0.1112  0.1961 -0.6365
 1235SOL     OW 3852   1.218   0.771   0.868 -0.1475  0.3283 -0.3413
 1235SOL    HW1 3853   1.248   0.793   0.956 -0.5166 -1.6246  0.3077
 1235SOL    HW2 3854   1.246   0.681   0.854  0.0570  0.6464 -2.3196
 1236SOL     OW 3855   3.717   2.986   0.577  0.4982  0.6074  0.7336
 1236SOL    HW1 3856   3.749   3.021   0.494 -0.2523  0.3019  0.3112
 1236SOL    HW2 3857   3.637   3.035   0.595 -2.2799 -2.6916 -1.3493
 1237SOL     OW 3858   2.546   2.036   2.642  0.1689  0.3653 -0.1063
 1237SOL    HW1 3859   2.578   1.946   2.652 -1.4100 -0.2655 -0.2638
 1237SOL    HW2 3860   2.580   2.083   2.718  2.2985  0.0627 -0.8150
 1238SOL     OW 3861   3.337   2.015   1.237 -0.5927 -0.3021 -0.1408
 1238SOL    HW1 3862   3.248   1.997   1.207 -0.7337  0.7412 -0.3683
 1238SOL    HW2 3863   3.392   1.954   1.188 -1.1836 -1.0063  0.0559
 1239SOL     OW 3864   0.380   3.605   2.419  0.0883 -0.8554 -1.2164
 1239SOL    HW1 3865   0.328   3.582   2.496 -0.3137 -1.0134 -1.5328
 1239SOL    HW2 3866   0.470   3.578   2.441  0.4149  1.0353  0.0635
 1240SOL     OW 3867   3.560   3.132   1.850  0.0113 -0.2824 -0.1425
 1240SOL    HW1 3868   3.470   3.163   1.842  0.5068  1.0523 -0.8456
 1240SOL    HW2 3869   3.614   3.208   1.828  1.4063 -0.1520  3.1145
 1241SOL     OW 3870   0.967   2.665   1.732  0.0009  0.2214 -0.0328
 1241SOL    HW1 3871   1.014   2.611   1.669  2.7211  1.6319  0.6024
 1241SOL    HW2 3872   0.895   2.704   1.682  1.0932  0.0471 -1.8330
 1242SOL     OW 3873   1.213   3.293   1.528 -0.0475  0.3578 -0.5691
 1242SOL    HW1 3874   1.143   3.301   1.594  0.9862 -0.3889  0.6708
 1242SOL    HW2 3875   1.174   3.239   1.459 -1.3478  1.6324 -0.8781
 1243SOL     OW 3876   1.626   0.735   1.435 -0.5582 -0.2019  0.9408
 1243SOL    HW1 3877   1.677   0.665   1.475  0.3473 -0.4667 -0.5788
 1243SOL    HW2 3878   1.612   0.706   1.345 -0.1140  1.5650  0.2498
 1244SOL     OW 3879   0.298   1.452   2.857  0.0701  0.0289 -0.4531
 1244SOL    HW1 3880   0.240   1.522   2.827  0.7691  0.7361 -0.1820
 1244SOL    HW2 3881   0.333   1.414   2.776 -1.8953 -1.4142 -0.6888
 1245SOL     OW 3882   2.255   1.843   2.989 -0.0444  0.0267  0.3610
 1245SOL    HW1 3883   2.235   1.892   2.910 -0.8756 -0.4036  0.2866
 1245SOL    HW2 3884   2.211   1.892   3.059 -0.7662 -0.5148  0.3042
 1246SOL     OW 3885   3.284   2.972   3.122  0.5653  0.7305  0.2577
 1246SOL    HW1 3886   3.194   2.962   3.090  1.2273 -2.6202 -0.9450
 1246SOL    HW2 3887   3.278   2.953   3.216 -0.0392  1.0634  0.2944
 1247SOL     OW 3888   1.796   1.450   2.590 -0.0738  0.1166 -0.4578
 1247SOL    HW1 3889   1.781   1.538   2.625  2.6301  0.9134 -1.0990
 1247SOL    HW2 3890   1.803   1.463   2.495  0.1381 -0.8424 -0.5815
 1248SOL     OW 3891   1.037   1.724   3.156  0.3806  0.4086 -0.3871
 1248SOL    HW1 3892   1.128   1.738   3.131  0.8995  1.0128  1.6758
 1248SOL    HW2 3893   1.033   1.632   3.183 -0.3186 -0.4210 -2.9934
 1249SOL     OW 3894   3.355   2.364   1.084 -0.5905  0.2064  0.0703
 1249SOL    HW1 3895   3.290   2.367   1.154  0.2335  1.0138  0.8381
 1249SOL    HW2 3896   3.383   2.273   1.080  0.5551  0.4057  1.9902
 1250SOL     OW 3897   0.886   3.117   0.529  0.0522  0.5655 -0.3625
 1250SOL    HW1 3898   0.876   3.030   0.490  1.0235  0.8375 -1.2694
 1250SOL    HW2 3899   0.952   3.160   0.475 -1.1702  2.2694 -0.5954
 1251SOL     OW 3900   2.782   1.386   3.626 -0.5672 -0.0734  0.2896
 1251SOL    HW1 3901   2.827   1.435   3.557  1.3388 -2.1842 -0.0638
 1251SOL    HW2 3902   2.718   1.332   3.579 -0.2020 -0.5212  0.3046
 1252SOL     OW 3903   1.941   3.345   1.939 -0.4392  0.0161 -0.0016
 1252SOL    HW1 3904   1.970   3.326   2.028  0.7817 -1.5768 -0.6854
 1252SOL    HW2 3905   1.849   3.319   1.937  0.2359 -2.6521  0.1018
 1253SOL     OW 3906   0.205   1.792   0.212 -0.3458 -0.3112  0.6641
 1253SOL    HW1 3907   0.182   1.712   0.165 -1.8960  0.2311  0.4285
 1253SOL    HW2 3908   0.159   1.785   0.295  1.3233 -0.6637  1.5959
 1254SOL     OW 3909   1.622   0.305   0.929  0.3939  0.0286  0.3627
 1254SOL    HW1 3910   1.652   0.263   0.848  2.1736 -0.0312  1.0102
 1254SOL    HW2 3911   1.615   0.234   0.992  0.4669  0.2782  0.6554
 1255SOL     OW 3912   3.015   0.115   3.540 -0.5869  0.2303 -0.1241
 1255SOL    HW1 3913   3.002   0.064   3.619 -0.2417  2.9721  1.8344
 1255SOL    HW2 3914   2.995   0.205   3.565  0.2196  1.3316 -2.9785
 1256SOL     OW 3915   3.293   1.239   0.547  0.2309  0.0737  0.2735
 1256SOL    HW1 3916   3.300   1.148   0.576  2.6735 -0.9241 -2.8365
 1256SOL    HW2 3917   3.349   1.288   0.608  1.6413 -1.1310 -0.0131
 1257SOL     OW 3918   2.768   2.633   3.448  0.4656  0.2903 -0.0542
 1257SOL    HW1 3919   2.808   2.560   3.495  1.0120  0.0616 -0.8616
 1257SOL    HW2 3920   2.674   2.622   3.464  0.6411  0.3205  1.1192
 1258SOL     OW 3921   1.799   1.740   3.572  0.1429  0.1308 -0.5757
 1258SOL    HW1 3922   1.734   1.748   3.641 -0.3994  0.1890 -1.0871
 1258SOL    HW2 3923   1.758   1.779   3.495  0.9704  0.6145 -0.7839
 1259SOL     OW 3924   0.358   0.144   0.443  0.9391  0.3008 -0.0926
 1259SOL    HW1 3925   0.434   0.119   0.496  0.8061  1.9957  0.9505
 1259SOL    HW2 3926   0.373   0.235   0.420  1.2319 -0.4683 -3.4661
 1260SOL     OW 3927   2.085   0.586   1.039  0.1934  0.2275  0.5660
 1260SOL    HW1 3928   2.055   0.518   0.978 -0.0015  1.3864 -0.6602
 1260SOL    HW2 3929   2.029   0.661   1.021  2.2653  1.6952 -0.1911
 1261SOL     OW 3930   0.048   0.907   1.309 -0.4654 -0.1104 -0.2765
 1261SOL    HW1 3931   0.023   0.888   1.218 -0.0034  0.5436 -0.5486
 1261SOL    HW2 3932   0.083   0.824   1.342 -0.0583 -0.1955 -0.8941
 1262SOL     OW 3933   1.184   0.055   1.558 -0.4384 -0.1546  0.0663
 1262SOL    HW1 3934   1.267   0.030   1.599 -1.0662  0.1237  1.5763
 1262SOL    HW2 3935   1.117   0.007   1.607 -1.2310  0.2096 -0.6285
 1263SOL     OW 3936   0.735   0.964   0.227 -0.2664  0.1799  0.7188
 1263SOL    HW1 3937   0.726   1.046   0.276 -0.6929  0.4020  0.2793
 1263SOL    HW2 3938   0.784   0.907   0.285 -0.3770  0.5916  1.2265
 1264SOL     OW 3939   1.309   2.831   3.649  0.2705 -0.2150 -0.1878
 1264SOL    HW1 3940   1.217   2.848   3.628  0.6455  0.4628 -1.3851
 1264SOL    HW2 3941   1.325   2.881   3.729 -0.8490 -1.7580  1.0376
 1265SOL     OW 3942   2.335   3.311   2.579 -0.1106 -0.1823 -0.5133
 1265SOL    HW1 3943   2.312   3.383   2.638  0.4320  0.2112 -0.7719
 1265SOL    HW2 3944   2.419   3.337   2.540  0.9039 -1.6718  0.5587
 1266SOL     OW 3945   1.840   2.094   3.454 -0.2596 -0.0306  0.7619
 1266SOL    HW1 3946   1.767   2.063   3.400  0.3533 -0.6238  0.2542
 1266SOL    HW2 3947   1.883   2.160   3.400  0.8932 -1.2579  0.1094
 1267SOL     OW 3948   3.205   0.941   0.515 -0.6626 -0.4936 -0.1456
 1267SOL    HW1 3949   3.225   0.855   0.479  1.0860  0.1962 -0.9136
 1267SOL    HW2 3950   3.133   0.973   0.461  1.4360  0.2121 -2.7080
 1268SOL     OW 3951   1.543   1.430   2.448  0.3949  0.7810 -0.1854
 1268SOL    HW1 3952   1.629   1.443   2.408  0.1940  1.7171 -0.3374
 1268SOL    HW2 3953   1.557   1.360   2.512  1.3641  1.1790  0.0634
 1269SOL     OW 3954   3.204   3.067   2.772 -0.2303 -0.4779  0.3387
 1269SOL    HW1 3955   3.258   3.087   2.848  1.7863 -2.1946 -0.5375
 1269SOL    HW2 3956   3.158   2.986   2.795  0.5315 -1.1087 -0.2927
 1270SOL     OW 3957   2.874   0.748   1.902 -0.4075 -0.1804 -0.5859
 1270SOL    HW1 3958   2.951   0.757   1.845 -0.9741  0.6406 -1.2541
 1270SOL    HW2 3959   2.867   0.833   1.945  1.0125 -1.2874  2.0996
 1271SOL     OW 3960   2.172   2.419   3.593  0.1871  0.0738  0.6367
 1271SOL    HW1 3961   2.139   2.388   3.678 -1.0613  1.0887  0.5482
 1271SOL    HW2 3962   2.242   2.357   3.571  0.6424 -0.1438  2.4633
 1272SOL     OW 3963   0.821   0.786   3.400 -0.1380  0.0253 -0.3919
 1272SOL    HW1 3964   0.735   0.815   3.369 -0.3440 -1.5176 -1.3750
 1272SOL    HW2 3965   0.811   0.779   3.495 -1.0847 -0.0474 -0.4846
 1273SOL     OW 3966   2.047   1.638   2.173  0.4984  0.3353  0.1573
 1273SOL    HW1 3967   2.080   1.565   2.120 -1.1779 -2.5883  2.7796
 1273SOL    HW2 3968   2.109   1.647   2.244 -1.0644 -1.0741  1.7912
 1274SOL     OW 3969   2.525   0.179   0.747  0.9348 -0.3119  0.4236
 1274SOL    HW1 3970   2.514   0.273   0.762 -0.5265 -0.5871  1.3103
 1274SOL    HW2 3971   2.550   0.171   0.655  0.3230  0.8895  0.1425
 1275SOL     OW 3972   2.113   1.147   2.234  0.0641  0.0411  0.3620
 1275SOL    HW1 3973   2.176   1.218   2.245  1.0039 -0.8408  0.8731
 1275SOL    HW2 3974   2.162   1.079   2.186 -1.8110  1.0086 -3.3381
 1276SOL     OW 3975   2.328   1.679   1.261  0.7116  0.2985 -0.3642
 1276SOL    HW1 3976   2.372   1.729   1.330  1.1385 -0.9523  0.3002
 1276SOL    HW2 3977   2.338   1.588   1.287  0.5735 -0.1924 -1.9031
 1277SOL     OW 3978   2.794   2.856   1.229  0.1176  0.2324 -0.5139
 1277SOL    HW1 3979   2.772   2.865   1.322  0.1557 -0.5946 -0.4167
 1277SOL    HW2 3980   2.724   2.903   1.184 -0.4030 -0.1212 -0.0968
 1278SOL     OW 3981   2.631   3.446   2.908 -1.0487 -0.3408  0.6276
 1278SOL    HW1 3982   2.681   3.469   2.829 -2.2774 -1.4544 -0.5368
 1278SOL    HW2 3983   2.688   3.387   2.956 -0.2095  0.4869  0.6887
 1279SOL     OW 3984   1.925   0.697   1.710  0.4667 -0.2384  0.1933
 1279SOL    HW1 3985   1.929   0.691   1.805 -1.0191  1.6341  0.4398
 1279SOL    HW2 3986   1.878   0.618   1.683  0.5777 -0.6105  1.0487
 1280SOL     OW 3987   1.387   2.557   0.315 -0.9283  0.0048 -0.1982
 1280SOL    HW1 3988   1.411   2.465   0.323 -0.1914  0.3024  1.4057
 1280SOL    HW2 3989   1.301   2.563   0.358 -1.5620 -0.1450 -1.4174
 1281SOL     OW 3990   2.364   3.298   1.170  0.3540 -0.2877  0.9554
 1281SOL    HW1 3991   2.414   3.327   1.245  1.3471 -1.0387  0.6075
 1281SOL    HW2 3992   2.355   3.204   1.182  0.3871 -0.3931  0.2260
 1282SOL     OW 3993   2.652   1.758   1.617  0.1381 -0.1047 -0.5920
 1282SOL    HW1 3994   2.703   1.693   1.569 -0.8571 -1.6297  0.3335
 1282SOL    HW2 3995   2.717   1.803   1.672  0.8652 -0.2092 -1.3444
 1283SOL     OW 3996   0.892   0.630   0.059 -0.8612  0.5740  0.9202
 1283SOL    HW1 3997   0.986   0.642   0.075 -0.2686  1.1975 -2.2319
 1283SOL    HW2 3998   0.878   0.536   0.071  0.5879  0.1848 -0.1318
 1284SOL     OW 3999   1.692   2.802   1.190 -0.9715  0.5732  0.1300
 1284SOL    HW1 4000   1.619   2.819   1.130 -3.3579  1.8672  3.1104
 1284SOL    HW2 4001   1.761   2.862   1.161 -2.0134  1.1577 -1.2778
 1285SOL     OW 4002   0.029   2.744   0.938  0.0297  0.3565 -0.2049
 1285SOL    HW1 4003   0.103   2.685   0.955 -0.3694  0.5985  2.7558
 1285SOL    HW2 4004   0.068   2.816   0.889  1.2839 -0.5485 -0.6080
 1286SOL     OW 4005   1.322   3.675   3.363  0.1954  0.2702 -0.1473
 1286SOL    HW1 4006   1.374   3.686   3.283 -0.5145 -0.9746 -0.8006
 1286SOL    HW2 4007   1.268   3.754   3.368  0.1114  0.2735 -0.9996
 1287SOL     OW 4008   1.928   1.282   2.976  0.1276  0.5385 -0.0168
 1287SOL    HW1 4009   1.942   1.375   2.955 -0.5021  0.5887 -0.2364
 1287SOL    HW2 4010   1.833   1.272   2.976  0.2038 -0.2300 -0.5107
 1288SOL     OW 4011   2.895   1.098   1.866  0.0653  0.0325  0.0584
 1288SOL    HW1 4012   2.959   1.149   1.816  0.5359 -0.4321  0.1854
 1288SOL    HW2 4013   2.922   1.109   1.957  1.0020 -1.5709 -0.0051
 1289SOL     OW 4014   2.621   3.084   3.691  0.5931  0.4534  0.1286
 1289SOL    HW1 4015   2.584   3.093   3.779 -0.5813 -2.2027  0.0039
 1289SOL    HW2 4016   2.687   3.015   3.701  1.0579  0.7434 -0.8991
 1290SOL     OW 4017   1.472   0.757   1.863  0.1151  0.3951  0.2199
 1290SOL    HW1 4018   1.540   0.812   1.824  0.0675  0.5537  0.3587
 1290SOL    HW2 4019   1.476   0.776   1.957  0.6253 -0.4245  0.3743
 1291SOL     OW 4020   1.080   2.868   1.407  0.5559  0.3091 -0.3424
 1291SOL    HW1 4021   1.079   2.788   1.460 -1.9106 -0.2234 -1.0790
 1291SOL    HW2 4022   1.047   2.935   1.466 -0.5469  0.0717 -0.6740
 1292SOL     OW 4023   2.191   3.277   2.293  0.1420 -0.2166  0.7107
 1292SOL    HW1 4024   2.174   3.309   2.382 -0.4239  1.3936  0.0639
 1292SOL    HW2 4025   2.105   3.248   2.262  0.3893 -1.0375  0.7538
 1293SOL     OW 4026   0.976   0.516   3.344  0.4728 -0.1879 -0.0375
 1293SOL    HW1 4027   0.923   0.596   3.346  1.9019  0.8053  0.0723
 1293SOL    HW2 4028   1.045   0.531   3.408  2.7187 -0.0410 -2.3065
 1294SOL     OW 4029   0.721   1.432   0.776  0.9837 -0.1377 -0.1597
 1294SOL    HW1 4030   0.713   1.434   0.871 -2.0530 -2.7658 -0.1978
 1294SOL    HW2 4031   0.782   1.360   0.759 -1.1479 -2.0469 -0.1301
 1295SOL     OW 4032   1.240   0.476   2.516  0.4369  0.3195 -0.8675
 1295SOL    HW1 4033   1.198   0.442   2.436 -0.9952  1.0563 -0.4605
 1295SOL    HW2 4034   1.224   0.409   2.582 -0.8223  0.9333 -0.5190
 1296SOL     OW 4035   3.386   1.365   1.657  0.5762  0.2600 -0.3863
 1296SOL    HW1 4036   3.352   1.291   1.607 -1.4926 -0.7631  2.2465
 1296SOL    HW2 4037   3.345   1.442   1.618 -0.4125 -0.4156 -0.7138
 1297SOL     OW 4038   2.603   1.684   1.237 -0.2051  0.0041 -0.5464
 1297SOL    HW1 4039   2.604   1.589   1.221 -0.5437 -0.1764  0.4286
 1297SOL    HW2 4040   2.641   1.694   1.324  1.4757  0.9315 -1.3340
 1298SOL     OW 4041   2.645   0.731   1.717  0.0752  0.2441  0.2508
 1298SOL    HW1 4042   2.555   0.742   1.687 -0.0922 -0.2126  0.5922
 1298SOL    HW2 4043   2.663   0.811   1.768 -0.8444 -0.5870  1.9555
 1299SOL     OW 4044   2.099   3.221   2.811 -0.3960  0.4785 -0.0082
 1299SOL    HW1 4045   2.119   3.171   2.732  0.5904  0.1721  0.4170
 1299SOL    HW2 4046   2.011   3.192   2.836  0.3543 -1.4828  0.5273
 1300SOL     OW 4047   1.526   1.691   2.379 -0.4360 -0.1746  0.0769
 1300SOL    HW1 4048   1.573   1.723   2.302 -2.7177  0.6591 -1.0390
 1300SOL    HW2 4049   1.547   1.598   2.383  0.4149 -0.0565 -1.0139
 1301SOL     OW 4050   2.566   1.894   1.909 -0.2078  0.2673 -0.8392
 1301SOL    HW1 4051   2.477   1.858   1.908  0.0788 -0.4974 -0.4349
 1301SOL    HW2 4052   2.580   1.921   1.999  0.1728 -0.1699 -0.7610
 1302SOL     OW 4053   2.514   0.722   2.673 -0.2588 -0.2160 -0.3202
 1302SOL    HW1 4054   2.515   0.626   2.673  1.3970 -0.2433  0.1192
 1302SOL    HW2 4055   2.600   0.746   2.708 -0.9209  1.4356  0.2503
 1303SOL     OW 4056   2.654   1.779   3.435  0.9404 -0.4169  0.0232
 1303SOL    HW1 4057   2.574   1.766   3.487  1.1530  1.2232  0.8389
 1303SOL    HW2 4058   2.634   1.855   3.380  1.9000 -0.0671  0.1491
 1304SOL     OW 4059   1.129   0.996   2.804  0.6656  0.2813 -0.1824
 1304SOL    HW1 4060   1.184   0.921   2.827  0.0569 -0.9773 -2.5577
 1304SOL    HW2 4061   1.077   0.966   2.729 -0.5457  2.6581 -0.3767
 1305SOL     OW 4062   0.191   3.526   2.752 -0.3747  0.3582  0.2912
 1305SOL    HW1 4063   0.219   3.527   2.843  1.2352  0.1236 -0.1714
 1305SOL    HW2 4064   0.176   3.434   2.732  0.2312  0.3152  0.0395
 1306SOL     OW 4065   0.974   2.719   2.834 -0.3731 -0.1864  0.5948
 1306SOL    HW1 4066   1.023   2.638   2.847 -0.4771 -0.0616  1.9558
 1306SOL    HW2 4067   0.931   2.708   2.750 -0.3661 -1.5311  0.7452
 1307SOL     OW 4068   3.738   0.373   1.399 -0.0002  0.7783 -0.0963
 1307SOL    HW1 4069   3.669   0.434   1.373  0.7472  1.6003 -0.1769
 1307SOL    HW2 4070   3.700   0.324   1.472 -1.3871 -0.1698 -1.3837
 1308SOL     OW 4071   0.290   3.023   2.737 -0.1350  0.5124  0.0837
 1308SOL    HW1 4072   0.291   2.929   2.718  1.7138  0.5720 -0.4101
 1308SOL    HW2 4073   0.247   3.031   2.821 -1.2887 -0.6587 -0.3642
 1309SOL     OW 4074   0.868   2.552   2.641  0.3866  0.4113  0.0306
 1309SOL    HW1 4075   0.851   2.508   2.558  1.6800 -1.0891  0.4953
 1309SOL    HW2 4076   0.820   2.500   2.706  0.2031  0.9708  0.3522
 1310SOL     OW 4077   2.615   3.399   1.827  0.4235  0.3463  0.0343
 1310SOL    HW1 4078   2.556   3.376   1.756  1.3572 -0.0262 -0.6505
 1310SOL    HW2 4079   2.654   3.316   1.855  0.6101  0.5762  0.4835
 1311SOL     OW 4080   0.113   1.400   2.271  0.0282  0.3259  0.0395
 1311SOL    HW1 4081   0.202   1.432   2.256 -0.5027  2.5141  1.1441
 1311SOL    HW2 4082   0.083   1.449   2.348 -1.8576 -0.9447  0.1652
 1312SOL     OW 4083   2.938   0.728   3.302  0.0730 -0.0925  0.2048
 1312SOL    HW1 4084   3.031   0.707   3.291 -0.4273 -1.9421 -0.8665
 1312SOL    HW2 4085   2.894   0.643   3.305 -1.7102  0.7535 -0.4893
 1313SOL     OW 4086   3.595   0.461   0.594  0.2532  0.6703 -0.3022
 1313SOL    HW1 4087   3.556   0.548   0.592  1.5569  1.2920  0.0683
 1313SOL    HW2 4088   3.657   0.464   0.667 -1.2428 -1.2982  1.1571
 1314SOL     OW 4089   0.879   0.388   0.229  0.6832 -0.6300  0.4771
 1314SOL    HW1 4090   0.788   0.366   0.251  0.4997  0.7246  1.1740
 1314SOL    HW2 4091   0.908   0.444   0.301  1.4078  0.6064 -0.7377
 1315SOL     OW 4092   1.001   3.470   2.992 -0.0054 -0.1198 -0.2860
 1315SOL    HW1 4093   1.054   3.400   2.954  1.1006  0.5870 -0.0582
 1315SOL    HW2 4094   0.954   3.428   3.065  0.8129 -0.5781 -0.0191
 1316SOL     OW 4095   0.242   2.759   2.715  0.1126  0.2492 -0.1739
 1316SOL    HW1 4096   0.288   2.698   2.772  1.8562  1.0122 -0.7093
 1316SOL    HW2 4097   0.170   2.793   2.769 -0.1746 -1.3374  0.5130
 1317SOL     OW 4098   2.062   0.948   1.756  0.0008 -0.0450 -0.8055
 1317SOL    HW1 4099   1.971   0.962   1.730 -0.1820 -0.9786 -0.7063
 1317SOL    HW2 4100   2.066   0.855   1.780  1.0352 -0.0747 -1.0388
 1318SOL     OW 4101   3.476   2.541   3.252 -0.1335 -0.1816  0.1112
 1318SOL    HW1 4102   3.534   2.546   3.176  0.0397 -2.1674  0.0659
 1318SOL    HW2 4103   3.534   2.523   3.326 -0.4951 -0.0673  0.4267
 1319SOL     OW 4104   1.817   3.250   2.659  0.3580  0.0341  0.2571
 1319SOL    HW1 4105   1.869   3.273   2.582 -1.5028 -0.8378 -1.3469
 1319SOL    HW2 4106   1.744   3.311   2.659 -1.8888 -2.4341 -1.1385
 1320SOL     OW 4107   1.668   3.293   0.030 -0.1723  0.7082  0.4975
 1320SOL    HW1 4108   1.715   3.377   0.025 -1.5672  1.5684  1.0951
 1320SOL    HW2 4109   1.714   3.243   0.096  1.1929  0.6495 -0.4617
 1321SOL     OW 4110   0.652   1.444   3.678 -0.3229 -0.0607  0.2261
 1321SOL    HW1 4111   0.613   1.525   3.711 -0.7149 -0.4041  0.6122
 1321SOL    HW2 4112   0.744   1.450   3.701 -0.2533  0.4849 -0.1600
 1322SOL     OW 4113   2.822   3.648   1.591 -0.2548 -0.1701 -0.4841
 1322SOL    HW1 4114   2.753   3.583   1.579 -0.0102 -1.1102  2.4161
 1322SOL    HW2 4115   2.824   3.665   1.686  2.6294  0.7701 -0.5947
 1323SOL     OW 4116   0.294   0.198   2.243  0.4907  0.0833 -0.2381
 1323SOL    HW1 4117   0.346   0.277   2.226  1.0213  0.3675  2.3074
 1323SOL    HW2 4118   0.330   0.133   2.183  0.9828  1.3790 -1.4108
 1324SOL     OW 4119   1.814   2.522   1.344 -0.9399 -0.2912 -0.2673
 1324SOL    HW1 4120   1.738   2.463   1.347 -0.0695 -1.4232  1.0240
 1324SOL    HW2 4121   1.812   2.559   1.256 -2.2477 -1.2908 -0.7015
 1325SOL     OW 4122   1.196   2.511   2.933  0.0152  0.1403  0.2683
 1325SOL    HW1 4123   1.185   2.436   2.991  0.9196  0.6480  1.1293
 1325SOL    HW2 4124   1.222   2.583   2.991 -0.0764  0.9264 -0.6386
 1326SOL     OW 4125   3.360   0.868   2.672 -0.0621  0.0853 -0.1164
 1326SOL    HW1 4126   3.370   0.776   2.698 -0.0612 -0.1057 -0.7606
 1326SOL    HW2 4127   3.336   0.913   2.752 -0.5759 -0.5694  0.1103
 1327SOL     OW 4128   0.313   0.258   0.115 -0.5293 -0.1031 -0.1764
 1327SOL    HW1 4129   0.403   0.228   0.101 -0.3667  0.1083  0.3874
 1327SOL    HW2 4130   0.279   0.272   0.027 -0.0884 -0.4149 -0.4034
 1328SOL     OW 4131   3.291   1.562   0.660 -0.6191  0.5195  0.4852
 1328SOL    HW1 4132   3.295   1.542   0.753  0.5618  0.7461  0.4892
 1328SOL    HW2 4133   3.229   1.498   0.625 -3.0252  1.9856  1.7952
 1329SOL     OW 4134   0.391   2.661   2.935  0.0839 -0.2993  0.2276
 1329SOL    HW1 4135   0.338   2.595   2.979  1.2559 -0.3987  1.5787
 1329SOL    HW2 4136   0.432   2.710   3.007  0.2641  1.0585 -0.7506
 1330SOL     OW 4137   3.122   2.733   1.686 -0.1239  0.6106 -0.2490
 1330SOL    HW1 4138   3.065   2.739   1.609  1.2592  1.7553 -1.2153
 1330SOL    HW2 4139   3.156   2.643   1.684 -1.3533  0.1169 -0.0145
 1331SOL     OW 4140   2.786   2.339   2.244  0.5098  0.2787 -0.1679
 1331SOL    HW1 4141   2.780   2.254   2.287 -1.8750  1.7439  2.8783
 1331SOL    HW2 4142   2.828   2.395   2.310  0.5019  1.8024 -1.4074
 1332SOL     OW 4143   0.373   0.953   1.238 -0.3460 -0.1300  0.6282
 1332SOL    HW1 4144   0.410   0.868   1.262 -0.4406 -0.2235  0.4459
 1332SOL    HW2 4145   0.283   0.933   1.209 -0.7437  0.1601  1.6149
 1333SOL     OW 4146   2.880   1.865   1.040 -0.1157 -0.0570 -0.8257
 1333SOL    HW1 4147   2.932   1.832   0.967 -0.0997  0.5001 -1.0698
 1333SOL    HW2 4148   2.792   1.831   1.025  0.1025 -0.7525 -0.5734
 1334SOL     OW 4149   0.172   1.176   2.429  0.6558 -0.6343 -0.7400
 1334SOL    HW1 4150   0.111   1.248   2.444  1.1461 -0.2087 -0.7559
 1334SOL    HW2 4151   0.116   1.101   2.409  0.1407 -0.2510 -0.7591
 1335SOL     OW 4152   1.561   2.301   2.899 -0.0619  0.2783  0.1364
 1335SOL    HW1 4153   1.484   2.248   2.915  0.4787 -0.3233  0.8042
 1335SOL    HW2 4154   1.543   2.346   2.816 -1.3517  0.5883  0.5621
 1336SOL     OW 4155   0.954   0.335   3.589 -0.0910 -0.6330  0.3378
 1336SOL    HW1 4156   1.005   0.383   3.655  0.3786 -2.0251  1.0413
 1336SOL    HW2 4157   0.987   0.367   3.505  0.3786  0.0864  0.7894
 1337SOL     OW 4158   1.814   3.641   0.156 -0.0221 -0.3290 -0.2799
 1337SOL    HW1 4159   1.865   3.711   0.115  0.5553 -1.0152 -0.7706
 1337SOL    HW2 4160   1.734   3.684   0.187 -0.2947  0.3004 -1.7726
 1338SOL     OW 4161   3.119   2.838   0.881  0.3441 -0.0003  0.2685
 1338SOL    HW1 4162   3.154   2.896   0.950 -2.9794  1.4139  0.9355
 1338SOL    HW2 4163   3.046   2.793   0.923  1.5549 -3.3185 -0.8676
 1339SOL     OW 4164   2.486   3.100   2.745 -0.3894  0.3316  0.1464
 1339SOL    HW1 4165   2.579   3.122   2.739 -0.2051 -0.6000 -0.6736
 1339SOL    HW2 4166   2.443   3.184   2.762  0.6134  0.7366  0.8025
 1340SOL     OW 4167   1.991   2.652   0.322 -0.0882 -0.2774  0.2474
 1340SOL    HW1 4168   2.013   2.606   0.241  2.4026  0.3766  0.4737
 1340SOL    HW2 4169   1.939   2.728   0.292  0.0975 -0.4857 -0.6427
 1341SOL     OW 4170   2.459   1.306   3.272 -0.6171  0.3184 -0.6169
 1341SOL    HW1 4171   2.399   1.296   3.198 -0.6302  2.7522 -1.0102
 1341SOL    HW2 4172   2.412   1.362   3.334 -0.4285 -1.3155  1.0918
 1342SOL     OW 4173   0.683   2.655   0.837  0.5567  1.4429  0.8548
 1342SOL    HW1 4174   0.717   2.707   0.764 -2.2327  1.3183 -0.6836
 1342SOL    HW2 4175   0.737   2.680   0.912  3.1384  2.0650 -1.0627
 1343SOL     OW 4176   1.707   0.074   0.788  0.5595 -0.4096  0.0391
 1343SOL    HW1 4177   1.661   0.003   0.742 -1.3130  0.2405  0.7796
 1343SOL    HW2 4178   1.756   0.119   0.720 -0.2039 -0.9315 -0.8887
 1344SOL     OW 4179   2.342   0.758   0.204  0.2324 -0.4088 -0.6569
 1344SOL    HW1 4180   2.344   0.748   0.109  0.4611 -0.9560 -0.5972
 1344SOL    HW2 4181   2.271   0.821   0.220 -0.2590 -0.8321 -1.1393
 1345SOL     OW 4182   2.479   1.975   1.603  0.5439 -0.1176 -0.5472
 1345SOL    HW1 4183   2.530   1.894   1.610  0.1334 -0.3183  0.2962
 1345SOL    HW2 4184   2.390   1.948   1.628  0.3447  0.5333 -0.5513
 1346SOL     OW 4185   3.576   3.481   0.162  1.1237  0.2215  0.4441
 1346SOL    HW1 4186   3.632   3.407   0.185 -0.2112 -1.0060 -0.1312
 1346SOL    HW2 4187   3.531   3.503   0.243  0.8863 -0.1685  0.4213
 1347SOL     OW 4188   2.977   2.431   3.301  0.8837 -0.0949 -0.3413
 1347SOL    HW1 4189   3.003   2.443   3.392 -0.3425 -0.4319  0.0753
 1347SOL    HW2 4190   3.010   2.509   3.256  1.4022  0.1281  0.4096
 1348SOL     OW 4191   0.817   0.888   3.707 -0.3760 -0.2148 -0.6401
 1348SOL    HW1 4192   0.815   0.799   3.741  0.1366 -0.1148 -0.3283
 1348SOL    HW2 4193   0.786   0.942   3.780  1.0292  0.0330 -0.1994
 1349SOL     OW 4194   0.551   0.844   3.209  0.1857  0.7335 -0.2329
 1349SOL    HW1 4195   0.559   0.751   3.229  0.1427  1.1135  1.8035
 1349SOL    HW2 4196   0.568   0.850   3.115 -0.3262 -1.3760 -0.5123
 1350SOL     OW 4197   2.719   0.791   1.463  0.1596 -0.6035 -0.2028
 1350SOL    HW1 4198   2.797   0.839   1.435 -1.1302  2.4642  0.9625
 1350SOL    HW2 4199   2.723   0.791   1.558 -0.5475 -1.7732 -0.1499
 1351SOL     OW 4200   2.941   0.775   3.012 -0.5040 -0.2783 -0.0659
 1351SOL    HW1 4201   2.989   0.703   2.971 -0.7981  0.2049 -1.3059
 1351SOL    HW2 4202   2.966   0.771   3.104 -0.5427 -1.9842 -0.0879
 1352SOL     OW 4203   0.632   1.976   1.379  0.5599 -0.0641  0.4248
 1352SOL    HW1 4204   0.583   2.057   1.395  0.9789  0.4957 -0.9623
 1352SOL    HW2 4205   0.717   2.006   1.346  1.1589 -1.0569  1.0222
 1353SOL     OW 4206   1.125   1.041   3.616  0.1729 -0.5043 -0.2894
 1353SOL    HW1 4207   1.033   1.063   3.605  0.0237  0.0728  1.7204
 1353SOL    HW2 4208   1.131   1.007   3.705  1.6823 -1.8188 -0.8452
 1354SOL     OW 4209   2.491   0.428   3.639  0.2164 -0.1571 -0.2436
 1354SOL    HW1 4210   2.496   0.349   3.692 -0.7469  0.4992  0.8514
 1354SOL    HW2 4211   2.494   0.500   3.702 -0.4080  0.6498 -1.1087
 1355SOL     OW 4212   3.586   2.836   3.084 -0.0113 -0.0449  0.6521
 1355SOL    HW1 4213   3.502   2.820   3.041  1.1038  0.2768 -1.8330
 1355SOL    HW2 4214   3.562   2.870   3.170 -2.4637  1.4259 -0.4839
 1356SOL     OW 4215   0.110   2.361   0.636  0.3599  0.1822  0.1010
 1356SOL    HW1 4216   0.089   2.432   0.576  1.2172 -0.8360 -1.4602
 1356SOL    HW2 4217   0.191   2.390   0.680 -0.6635  1.2489  1.3729
 1357SOL     OW 4218   1.085   2.212   1.628 -0.2851 -0.0734  0.4170
 1357SOL    HW1 4219   1.160   2.159   1.603 -1.0988 -0.4935 -1.2737
 1357SOL    HW2 4220   1.107   2.300   1.598  0.2529  0.1829  1.5102
 1358SOL     OW 4221   0.271   3.101   1.364 -0.1374  0.5168 -0.1110
 1358SOL    HW1 4222   0.250   3.182   1.318  1.0481  0.4676 -0.7713
 1358SOL    HW2 4223   0.300   3.130   1.451 -2.2125  0.6176  0.6111
 1359SOL     OW 4224   0.100   2.926   3.654  0.4284  0.6667 -0.0183
 1359SOL    HW1 4225   0.051   2.892   3.730  0.3920  1.4010  0.2958
 1359SOL    HW2 4226   0.185   2.952   3.690  1.0458 -0.5473 -0.5551
 1360SOL     OW 4227   1.106   1.098   0.293  0.1737  0.2375  0.5427
 1360SOL    HW1 4228   1.114   1.023   0.235 -3.6842  0.1387 -0.1312
 1360SOL    HW2 4229   1.027   1.143   0.264  0.6422  2.8727  2.8397
 1361SOL     OW 4230   2.574   2.214   2.887  0.0208 -0.2494  0.3356
 1361SOL    HW1 4231   2.571   2.293   2.833 -0.2562 -0.1534  0.4880
 1361SOL    HW2 4232   2.522   2.236   2.965  1.4706  0.0657  1.2546
 1362SOL     OW 4233   1.582   3.124   0.380  0.1826  0.2282  0.4175
 1362SOL    HW1 4234   1.633   3.108   0.459  2.8629  0.0377 -1.2108
 1362SOL    HW2 4235   1.552   3.214   0.388 -0.8605 -0.2449  2.2632
 1363SOL     OW 4236   0.014   0.925   1.042 -0.4590  0.2259  0.3737
 1363SOL    HW1 4237   0.092   0.877   1.013  0.5185  0.7592  1.9702
 1363SOL    HW2 4238   0.038   1.017   1.032 -0.7990  0.3922  1.0624
 1364SOL     OW 4239   2.585   1.618   3.727 -0.2399 -0.4523 -0.3443
 1364SOL    HW1 4240   2.645   1.543   3.730 -0.4834 -0.6212  0.6100
 1364SOL    HW2 4241   2.520   1.593   3.660 -0.3541 -1.1239  0.0056
 1365SOL     OW 4242   2.424   1.601   0.995  0.1759  0.3071  0.2200
 1365SOL    HW1 4243   2.400   1.611   1.087  1.2027 -0.5135  0.6005
 1365SOL    HW2 4244   2.352   1.641   0.947  1.2746  4.2573  1.4252
 1366SOL     OW 4245   2.054   1.768   2.574  0.6523 -0.1689 -0.1928
 1366SOL    HW1 4246   2.037   1.860   2.556  0.1598 -0.6175 -2.2717
 1366SOL    HW2 4247   1.970   1.734   2.606  1.1265  0.2998  1.6654
 1367SOL     OW 4248   1.271   2.754   1.239  0.3451 -0.3007  0.5689
 1367SOL    HW1 4249   1.214   2.819   1.281 -2.3825 -2.1796  0.0581
 1367SOL    HW2 4250   1.359   2.789   1.249 -0.9489  3.4591  0.3349
 1368SOL     OW 4251   2.034   3.285   3.140 -0.1264  0.3236  0.1531
 1368SOL    HW1 4252   2.001   3.252   3.057  0.9307 -0.1617 -0.0925
 1368SOL    HW2 4253   2.049   3.379   3.125  0.3625  0.1735 -0.3052
 1369SOL     OW 4254   3.708   1.883   1.417  0.3590 -0.2872  0.5572
 1369SOL    HW1 4255   3.754   1.888   1.334  1.8736  0.4204  1.4021
 1369SOL    HW2 4256   3.758   1.820   1.469  0.1006  0.1304  1.3290
 1370SOL     OW 4257   2.070   1.488   1.409  0.2309 -0.0360  0.2975
 1370SOL    HW1 4258   2.147   1.502   1.354  0.0272  0.7147  0.1948
 1370SOL    HW2 4259   2.104   1.444   1.487  0.6390 -0.4170 -0.0876
 1371SOL     OW 4260   0.056   0.595   2.673 -0.3129  0.3313 -0.3333
 1371SOL    HW1 4261   0.132   0.633   2.717  0.3615 -1.0640 -0.2487
 1371SOL    HW2 4262   0.093   0.539   2.605 -1.2629 -0.3898 -0.2735
 1372SOL     OW 4263   2.999   1.291   1.288 -0.0141 -0.1048 -0.0475
 1372SOL    HW1 4264   2.937   1.296   1.216 -0.8663 -1.0196  0.5830
 1372SOL    HW2 4265   3.083   1.272   1.246 -0.1400  1.1493 -0.9109
 1373SOL     OW 4266   3.155   1.140   0.812 -0.2162 -0.8562  0.0325
 1373SOL    HW1 4267   3.096   1.070   0.786 -0.3491 -0.6930 -0.1033
 1373SOL    HW2 4268   3.239   1.096   0.825 -0.1884 -0.9656 -0.5055
 1374SOL     OW 4269   1.884   2.320   1.140 -0.4625  0.3918  0.0483
 1374SOL    HW1 4270   1.790   2.335   1.136 -0.3901  0.8342 -0.0747
 1374SOL    HW2 4271   1.923   2.406   1.120 -0.0403  0.3635  0.6915
 1375SOL     OW 4272   3.086   0.694   1.150  0.2357 -0.5474 -0.0112
 1375SOL    HW1 4273   3.056   0.625   1.209  1.5980 -1.9266 -0.8445
 1375SOL    HW2 4274   3.179   0.704   1.170  0.3239  0.1906 -0.7359
 1376SOL     OW 4275   2.029   3.707   1.975  0.2227 -0.3203  0.8491
 1376SOL    HW1 4276   2.085   3.641   2.015 -0.0769 -0.9058  0.3019
 1376SOL    HW2 4277   1.961   3.658   1.929 -0.5183  0.3780  1.1736
 1377SOL     OW 4278   3.577   1.840   1.140 -0.1199 -0.3326  0.1859
 1377SOL    HW1 4279   3.590   1.747   1.118  2.4373  0.2161 -1.0070
 1377SOL    HW2 4280   3.603   1.846   1.232  0.9433 -0.6161 -0.0774
 1378SOL     OW 4281   1.486   3.007   1.256  0.7355 -0.2717  0.2427
 1378SOL    HW1 4282   1.568   2.957   1.262  0.7051 -0.5043 -1.1155
 1378SOL    HW2 4283   1.509   3.085   1.206  0.5054  0.5516  1.3627
 1379SOL     OW 4284   1.490   0.480   0.262  0.1028 -0.0994 -0.6934
 1379SOL    HW1 4285   1.540   0.407   0.224 -1.1278 -1.1611 -0.3493
 1379SOL    HW2 4286   1.519   0.557   0.212  0.4566 -1.0325 -1.9875
 1380SOL     OW 4287   2.786   2.200   3.609  0.0575  1.0834  0.0849
 1380SOL    HW1 4288   2.879   2.209   3.585 -0.0925 -1.4537 -1.7881
 1380SOL    HW2 4289   2.780   2.113   3.649 -1.6930  0.7206 -0.8709
 1381SOL     OW 4290   3.338   3.279   1.812 -0.0836  0.4830  0.2896
 1381SOL    HW1 4291   3.387   3.357   1.838  2.3705 -1.5109  2.1681
 1381SOL    HW2 4292   3.250   3.294   1.848  0.6153  1.9369  1.5524
 1382SOL     OW 4293   0.239   3.501   1.291  0.0110  0.2479 -0.1554
 1382SOL    HW1 4294   0.192   3.505   1.373  1.2807  1.2539  0.5668
 1382SOL    HW2 4295   0.193   3.434   1.239 -0.2596 -1.0626  1.6972
 1383SOL     OW 4296   0.436   3.333   2.801 -0.2764 -0.0223 -0.0359
 1383SOL    HW1 4297   0.418   3.242   2.823  1.0536 -0.1276  0.7107
 1383SOL    HW2 4298   0.491   3.329   2.723 -0.2975  0.1501 -0.0605
 1384SOL     OW 4299   2.867   3.050   0.596 -0.5127 -0.4384 -0.1486
 1384SOL    HW1 4300   2.880   2.957   0.614  0.5864 -0.7426 -2.2469
 1384SOL    HW2 4301   2.914   3.095   0.666 -0.5793 -1.4492  0.5688
 1385SOL     OW 4302   2.708   3.262   0.499 -0.1999  0.9034  0.2387
 1385SOL    HW1 4303   2.766   3.204   0.549 -0.6775  1.0302  0.9631
 1385SOL    HW2 4304   2.748   3.267   0.413  0.6813  0.7142  0.6203
 1386SOL     OW 4305   2.912   0.258   2.603 -0.5193 -0.5081  0.1909
 1386SOL    HW1 4306   2.846   0.233   2.668 -0.8765  0.1065  0.0713
 1386SOL    HW2 4307   2.878   0.339   2.565 -0.2328 -0.7833 -0.6494
 1387SOL     OW 4308   2.539   3.714   2.569 -0.9257  0.2316  0.0719
 1387SOL    HW1 4309   2.598   3.779   2.531  0.0002 -1.2251 -1.0746
 1387SOL    HW2 4310   2.476   3.695   2.500 -0.3610 -1.0636 -0.1228
 1388SOL     OW 4311   3.661   0.179   0.451  0.2629  0.0582  0.3088
 1388SOL    HW1 4312   3.707   0.185   0.535 -0.1434 -0.3708  0.5649
 1388SOL    HW2 4313   3.731   0.183   0.386  0.4937  1.7193  0.6044
 1389SOL     OW 4314   0.896   1.549   3.728 -0.1787  0.1139  0.1679
 1389SOL    HW1 4315   0.935   1.591   3.805 -1.0929  0.1804  0.6088
 1389SOL    HW2 4316   0.905   1.614   3.658 -1.4821  1.0437  0.8200
 1390SOL     OW 4317   2.775   1.013   0.224  0.0307 -0.6465  0.3819
 1390SOL    HW1 4318   2.842   1.068   0.183 -0.0632 -0.9105 -0.1384
 1390SOL    HW2 4319   2.696   1.028   0.171 -0.4548  0.0266  1.2798
 1391SOL     OW 4320   3.239   0.476   1.497 -0.6366 -0.0854 -0.2795
 1391SOL    HW1 4321   3.245   0.427   1.580 -4.6766 -1.6400 -0.6619
 1391SOL    HW2 4322   3.298   0.429   1.438 -2.6731 -3.3776  0.0095
 1392SOL     OW 4323   2.407   0.154   2.190  0.4828  0.2476 -0.0714
 1392SOL    HW1 4324   2.386   0.062   2.179 -0.2007  0.0119  2.5664
 1392SOL    HW2 4325   2.338   0.201   2.144  0.7947 -0.5229 -1.3658
 1393SOL     OW 4326   3.281   3.032   2.416 -0.4668  0.6562  0.1222
 1393SOL    HW1 4327   3.225   2.998   2.486 -0.1146  1.2299  0.6923
 1393SOL    HW2 4328   3.269   3.127   2.419  1.6344  0.9324  1.2366
 1394SOL     OW 4329   1.655   1.674   2.154  0.3639  0.0554 -0.5968
 1394SOL    HW1 4330   1.596   1.666   2.078 -0.0992  0.0155 -0.2370
 1394SOL    HW2 4331   1.743   1.671   2.116  0.1367 -0.0203 -1.1301
 1395SOL     OW 4332   0.138   0.638   0.093 -0.2704 -0.4227 -0.1404
 1395SOL    HW1 4333   0.165   0.729   0.086 -1.3299 -0.1136 -0.2456
 1395SOL    HW2 4334   0.127   0.609   0.003 -0.8274 -0.3795 -0.0894
 1396SOL     OW 4335   1.632   1.859   3.371 -0.2541  0.0002 -0.2045
 1396SOL    HW1 4336   1.551   1.809   3.365 -0.6215  0.4955  0.4455
 1396SOL    HW2 4337   1.619   1.917   3.446  0.1768  1.0486 -0.9119
 1397SOL     OW 4338   3.407   0.974   2.149 -0.0662 -0.3087 -0.1053
 1397SOL    HW1 4339   3.416   1.060   2.108 -1.9582 -0.3488 -0.6869
 1397SOL    HW2 4340   3.477   0.921   2.109 -0.1328  0.4161 -1.2206
 1398SOL     OW 4341   2.039   1.100   1.124 -0.3376 -0.0340 -0.1336
 1398SOL    HW1 4342   1.975   1.152   1.172  0.7325  1.3592 -0.1523
 1398SOL    HW2 4343   2.123   1.118   1.168  0.1045 -1.5321 -0.3212
 1399SOL     OW 4344   0.801   0.320   1.776  0.1878  0.6077 -0.0163
 1399SOL    HW1 4345   0.843   0.404   1.757 -0.1630  0.7363 -0.2293
 1399SOL    HW2 4346   0.709   0.342   1.793  0.0947  0.2709 -0.0749
 1400SOL     OW 4347   2.803   2.851   1.809 -0.3413  0.1156 -0.1813
 1400SOL    HW1 4348   2.740   2.878   1.876  0.2506  1.3700 -0.1125
 1400SOL    HW2 4349   2.881   2.824   1.858 -0.4867 -0.5576 -0.3076
 1401SOL     OW 4350   1.156   0.415   1.074 -0.4642 -0.2629 -0.5726
 1401SOL    HW1 4351   1.216   0.437   1.003 -0.8952  1.5271 -0.4304
 1401SOL    HW2 4352   1.079   0.379   1.029 -0.3822  0.0298 -0.9564
 1402SOL     OW 4353   2.733   1.454   2.168  0.4915  0.1538 -0.3542
 1402SOL    HW1 4354   2.817   1.473   2.125  1.2698 -2.4178 -0.1742
 1402SOL    HW2 4355   2.758   1.428   2.257 -0.7821  1.9224  0.5706
 1403SOL     OW 4356   1.840   1.177   2.241 -0.0344  0.0866  0.1493
 1403SOL    HW1 4357   1.800   1.157   2.156 -0.2109  0.4319  0.1521
 1403SOL    HW2 4358   1.929   1.144   2.233 -0.2088 -0.3644  0.0153
 1404SOL     OW 4359   2.481   2.701   1.748  0.2293  0.3071 -0.5137
 1404SOL    HW1 4360   2.519   2.616   1.767  1.4649  0.9246 -0.1351
 1404SOL    HW2 4361   2.397   2.681   1.707  1.1995 -1.1060 -1.9302
 1405SOL     OW 4362   2.495   0.463   2.999  0.2993  0.3834  0.9328
 1405SOL    HW1 4363   2.482   0.482   2.906  1.5907 -1.8659  0.2198
 1405SOL    HW2 4364   2.424   0.404   3.022  0.8831 -0.3213  0.9379
 1406SOL     OW 4365   1.505  -0.025   1.721  0.7030  0.7178 -0.4307
 1406SOL    HW1 4366   1.447   0.050   1.724 -0.1864  0.1350 -1.7488
 1406SOL    HW2 4367   1.588   0.010   1.687 -0.2726  0.8462 -2.8831
 1407SOL     OW 4368   0.792   0.764   2.488 -0.3564  0.6568 -0.0586
 1407SOL    HW1 4369   0.724   0.831   2.500  0.6350  1.5942  0.4830
 1407SOL    HW2 4370   0.780   0.734   2.398 -2.3760 -0.2218  0.4484
 1408SOL     OW 4371   2.924   0.221   1.202 -0.0339 -0.1324 -0.0225
 1408SOL    HW1 4372   2.970   0.138   1.207  2.4924  1.1594 -0.3198
 1408SOL    HW2 4373   2.874   0.225   1.284 -0.2269 -1.8963 -0.0059
 1409SOL     OW 4374   2.961   2.676   1.461 -0.3276 -0.0708 -0.1783
 1409SOL    HW1 4375   2.891   2.740   1.475 -0.5888 -0.3211 -0.3062
 1409SOL    HW2 4376   2.918   2.604   1.414  0.2994  0.3201 -1.3803
 1410SOL     OW 4377   3.200   1.342   1.897 -0.0332  0.2748 -1.1554
 1410SOL    HW1 4378   3.155   1.277   1.842  1.0762 -0.0223 -1.7460
 1410SOL    HW2 4379   3.150   1.423   1.884  0.7697  0.4804 -3.4823
 1411SOL     OW 4380   0.046   3.010   2.442  0.5311 -0.0213 -0.6989
 1411SOL    HW1 4381  -0.000   2.970   2.368 -0.4709 -0.5774  0.2035
 1411SOL    HW2 4382   0.069   3.098   2.411 -0.3156 -0.0610 -1.4991
 1412SOL     OW 4383   2.491   2.505   2.848 -0.1800 -0.8516 -0.0563
 1412SOL    HW1 4384   2.586   2.503   2.848 -0.1469  0.0467 -0.6608
 1412SOL    HW2 4385   2.468   2.559   2.924 -0.1786 -0.5216 -0.2864
 1413SOL     OW 4386   0.985   1.755   1.434  0.1783  0.3386 -0.5406
 1413SOL    HW1 4387   0.925   1.681   1.433  1.6251 -0.9435  1.0467
 1413SOL    HW2 4388   1.054   1.731   1.373  0.5350  0.5044 -0.2042
 1414SOL     OW 4389   3.458   1.016   0.813 -0.0998  0.5867  0.5561
 1414SOL    HW1 4390   3.515   0.985   0.742 -1.1319 -0.9152  0.3446
 1414SOL    HW2 4391   3.492   1.103   0.834 -1.1369  2.1949 -3.3841
 1415SOL     OW 4392   2.295   3.388   0.127 -0.0498  0.3512 -0.2077
 1415SOL    HW1 4393   2.219   3.349   0.170 -0.0629  0.6180  0.0134
 1415SOL    HW2 4394   2.259   3.449   0.064 -0.0266  2.0135  1.3114
 1416SOL     OW 4395   1.447   2.197   0.024  0.0370  0.0202  0.2951
 1416SOL    HW1 4396   1.524   2.252   0.039 -1.0896  1.7022  0.2137
 1416SOL    HW2 4397   1.446   2.137   0.099 -0.4312  2.2623  2.2215
 1417SOL     OW 4398   0.949   0.530   1.703 -0.2755  0.2676  0.5799
 1417SOL    HW1 4399   0.956   0.626   1.697 -1.7057  0.4087  0.6978
 1417SOL    HW2 4400   0.909   0.505   1.619 -2.5527  0.1275  1.6225
 1418SOL     OW 4401   3.699   1.235   0.512  0.5460 -0.0813  0.9618
 1418SOL    HW1 4402   3.756   1.311   0.522 -0.3811  0.8004 -0.2266
 1418SOL    HW2 4403   3.717   1.203   0.424 -0.9376  0.3562  0.4720
 1419SOL     OW 4404   1.560   2.149   1.741  0.1754 -0.4883 -0.2480
 1419SOL    HW1 4405   1.552   2.092   1.817  1.2607 -0.2367  0.0721
 1419SOL    HW2 4406   1.647   2.131   1.706  0.0064 -0.0069 -0.9547
 1420SOL     OW 4407   2.845   0.358   3.617 -0.5444 -0.3815 -0.0120
 1420SOL    HW1 4408   2.765   0.404   3.592 -0.4326 -0.0718  0.2003
 1420SOL    HW2 4409   2.815   0.280   3.663 -0.7169 -0.1677  0.2328
 1421SOL     OW 4410   3.648   1.893   3.705 -0.1830 -0.0470 -0.4618
 1421SOL    HW1 4411   3.613   1.980   3.726  0.2693  0.4983 -1.8530
 1421SOL    HW2 4412   3.601   1.866   3.626  1.5758  0.1745 -1.6635
 1422SOL     OW 4413   3.620   0.324   2.692 -0.1699  0.3857  0.4003
 1422SOL    HW1 4414   3.711   0.306   2.714  0.6125  0.8962 -2.1014
 1422SOL    HW2 4415   3.611   0.419   2.705  0.3100  0.6988 -1.2721
 1423SOL     OW 4416   2.387   0.500   1.935  0.9430 -0.4861  0.2708
 1423SOL    HW1 4417   2.444   0.430   1.902  1.1644  0.1945 -0.8595
 1423SOL    HW2 4418   2.445   0.576   1.943  0.4000 -0.0357  0.0091
 1424SOL     OW 4419   1.719   1.978   0.116  0.2477 -0.0132 -0.6132
 1424SOL    HW1 4420   1.753   1.891   0.096  0.5693 -0.1544  0.4680
 1424SOL    HW2 4421   1.775   2.038   0.067  1.1969 -0.3247  0.0601
 1425SOL     OW 4422   0.948   1.685   3.483  0.4724  0.7421  0.6815
 1425SOL    HW1 4423   0.938   1.605   3.431 -1.8136  0.5350  1.3365
 1425SOL    HW2 4424   1.039   1.683   3.513  1.3505 -0.0439 -1.7693
 1426SOL     OW 4425   1.140   0.578   0.134 -0.0646  0.3898 -0.0489
 1426SOL    HW1 4426   1.125   0.484   0.122 -1.6473  0.5881  0.1312
 1426SOL    HW2 4427   1.194   0.584   0.213  0.2531 -0.3760 -0.2013
 1427SOL     OW 4428   1.835   2.597   1.064 -0.1523 -0.1652 -0.4993
 1427SOL    HW1 4429   1.796   2.685   1.068  0.6739  0.1995 -0.3008
 1427SOL    HW2 4430   1.770   2.544   1.019 -1.3352  0.1991  0.6948
 1428SOL     OW 4431   2.200   0.434   1.708  0.0823 -0.0881  0.3196
 1428SOL    HW1 4432   2.218   0.470   1.794 -0.9516 -1.0169  0.9491
 1428SOL    HW2 4433   2.190   0.340   1.722  1.9495 -0.5591 -1.1632
 1429SOL     OW 4434   2.306   2.242   0.446 -0.5148  0.4362 -0.0316
 1429SOL    HW1 4435   2.296   2.148   0.429 -0.2184 -0.4625  3.7535
 1429SOL    HW2 4436   2.269   2.255   0.533  1.1449  3.4595  0.3831
 1430SOL     OW 4437   0.671   0.933   1.661 -0.0140 -0.3817 -0.3854
 1430SOL    HW1 4438   0.749   0.981   1.633 -0.4231  0.0497 -0.7845
 1430SOL    HW2 4439   0.629   0.990   1.726 -1.0815  0.3091 -1.6445
 1431SOL     OW 4440   0.628   0.766   0.774  0.2963  0.1290 -0.1141
 1431SOL    HW1 4441   0.608   0.789   0.865  0.2948 -0.8515  0.1465
 1431SOL    HW2 4442   0.718   0.795   0.761  0.8061 -1.0397  0.6701
 1432SOL     OW 4443   2.328   1.236   3.041 -0.6080 -1.1082  0.1737
 1432SOL    HW1 4444   2.294   1.266   2.957  1.1663  0.8318  0.0730
 1432SOL    HW2 4445   2.251   1.205   3.089 -2.0158  0.0910 -1.2299
 1433SOL     OW 4446   3.733   3.018   1.160 -0.2961  0.5034  0.1411
 1433SOL    HW1 4447   3.770   2.939   1.200 -1.1934 -0.3283 -0.6165
 1433SOL    HW2 4448   3.641   2.998   1.147 -0.0490  0.6103 -2.4808
 1434SOL     OW 4449   0.572   0.739   3.571 -0.1154 -0.3090  0.0064
 1434SOL    HW1 4450   0.592   0.710   3.481 -1.8763  0.3397 -0.6330
 1434SOL    HW2 4451   0.546   0.659   3.616 -3.1600 -0.1609 -1.2433
 1435SOL     OW 4452   2.327   0.694   3.415 -0.1577  0.2552 -0.3144
 1435SOL    HW1 4453   2.421   0.708   3.426 -0.1803  0.3955 -0.3025
 1435SOL    HW2 4454   2.311   0.709   3.322  0.1210 -1.4371 -0.6596
 1436SOL     OW 4455   3.293   1.845   3.694 -0.1095 -0.4066 -0.0630
 1436SOL    HW1 4456   3.305   1.886   3.779 -2.1128 -0.1247  0.1267
 1436SOL    HW2 4457   3.324   1.756   3.706  0.0091 -0.2532  0.8521
 1437SOL     OW 4458   2.521   0.447   2.670 -0.3330 -0.4119 -0.2547
 1437SOL    HW1 4459   2.565   0.378   2.721  1.0168 -1.1443 -2.2671
 1437SOL    HW2 4460   2.505   0.406   2.584  1.1965  1.9657 -1.7816
 1438SOL     OW 4461   3.591   1.226   0.920  0.2978 -0.3873 -0.4094
 1438SOL    HW1 4462   3.684   1.241   0.940  0.2265  1.3775 -1.2024
 1438SOL    HW2 4463   3.547   1.241   1.003  0.6918 -1.0173 -0.0770
 1439SOL     OW 4464   2.882   2.856   2.819  0.1938  0.6412 -0.6914
 1439SOL    HW1 4465   2.834   2.840   2.900  2.4043  0.1900  0.5968
 1439SOL    HW2 4466   2.843   2.936   2.783 -0.5115  1.1251  1.0704
 1440SOL     OW 4467   1.494   1.660   2.791  0.0855 -0.2325 -0.0458
 1440SOL    HW1 4468   1.487   1.745   2.835 -0.6428 -0.7524  0.8585
 1440SOL    HW2 4469   1.584   1.659   2.757  0.3869  0.5309  0.6884
 1441SOL     OW 4470   2.217   0.371   2.869  0.3642 -0.1894  0.2844
 1441SOL    HW1 4471   2.132   0.381   2.826  0.0127  0.1206  1.0489
 1441SOL    HW2 4472   2.233   0.276   2.868 -1.3786 -0.5997  2.7489
 1442SOL     OW 4473   1.406   0.867   3.392  0.1178 -0.2959 -0.4568
 1442SOL    HW1 4474   1.365   0.953   3.400 -2.9386 -1.5498 -1.0089
 1442SOL    HW2 4475   1.385   0.823   3.474  0.7878 -0.8340 -0.5683
 1443SOL     OW 4476   0.498   0.970   3.654 -0.3589  0.4171 -0.5390
 1443SOL    HW1 4477   0.541   0.895   3.614  0.4685  1.6984 -2.1698
 1443SOL    HW2 4478   0.425   0.990   3.596 -0.8215  0.6399  0.1042
 1444SOL     OW 4479   1.759   3.667   0.520  0.8522  0.0940 -0.2790
 1444SOL    HW1 4480   1.838   3.690   0.472  0.8858 -1.3075 -0.9597
 1444SOL    HW2 4481   1.751   3.572   0.509 -0.2025  0.0202  0.8881
 1445SOL     OW 4482   0.136   3.639   0.680 -0.1860 -0.0255 -0.5934
 1445SOL    HW1 4483   0.079   3.627   0.755  2.2144  0.4683  1.4405
 1445SOL    HW2 4484   0.143   3.734   0.669 -0.9563 -0.0901 -1.8448
 1446SOL     OW 4485   1.784   1.441   2.313  0.7861  0.8399 -0.1566
 1446SOL    HW1 4486   1.771   1.348   2.295 -0.9925  0.9150  0.5502
 1446SOL    HW2 4487   1.777   1.483   2.227 -0.4323  0.5038 -0.2379
 1447SOL     OW 4488   2.898   0.964   0.719 -0.3119  0.7292  0.5240
 1447SOL    HW1 4489   2.953   0.894   0.755  1.6779  1.3213 -1.1883
 1447SOL    HW2 4490   2.813   0.922   0.706  0.3866 -0.9283  0.9697
 1448SOL     OW 4491   1.167   0.676   1.933  0.5215 -0.3907 -0.1813
 1448SOL    HW1 4492   1.160   0.756   1.881 -1.7045 -1.0184 -0.9463
 1448SOL    HW2 4493   1.158   0.705   2.023 -0.9189  0.1940 -0.4877
 1449SOL     OW 4494   3.594   1.750   0.598 -0.6312 -0.4882  0.5590
 1449SOL    HW1 4495   3.565   1.696   0.671 -0.6768 -2.2831 -0.7186
 1449SOL    HW2 4496   3.517   1.757   0.541 -1.3750  2.9701  1.7419
 1450SOL     OW 4497   3.348   3.274   2.664  0.1061  0.1740 -0.2461
 1450SOL    HW1 4498   3.358   3.330   2.741  1.7878  2.0637 -1.7258
 1450SOL    HW2 4499   3.277   3.215   2.687  0.1297  1.0457  2.5066
 1451SOL     OW 4500   0.534   1.427   0.400 -0.4347  0.4220 -0.1458
 1451SOL    HW1 4501   0.622   1.423   0.361 -1.0750  0.5785 -1.6375
 1451SOL    HW2 4502   0.502   1.514   0.377 -0.2964  1.0938  1.9864
 1452SOL     OW 4503   1.568   3.284   0.750  0.1869 -0.0020 -0.2785
 1452SOL    HW1 4504   1.484   3.310   0.789  0.0761  0.8660 -1.0592
 1452SOL    HW2 4505   1.633   3.331   0.802  0.1051  0.3023 -0.4448
 1453SOL     OW 4506   0.971   1.432   2.547  0.1993  0.3389  0.5049
 1453SOL    HW1 4507   1.030   1.406   2.618  0.1432 -2.3277 -0.3301
 1453SOL    HW2 4508   0.975   1.360   2.484 -2.0759  1.2037 -0.7506
 1454SOL     OW 4509   2.160   3.124   2.532  0.7234 -0.3329 -0.9401
 1454SOL    HW1 4510   2.082   3.168   2.498 -0.2348 -1.9116 -0.8896
 1454SOL    HW2 4511   2.223   3.195   2.547 -1.1307  1.1482  0.2621
 1455SOL     OW 4512   0.823   0.494   1.469 -0.0648 -0.3830  0.4330
 1455SOL    HW1 4513   0.900   0.523   1.421 -0.0420 -0.2731  0.5356
 1455SOL    HW2 4514   0.778   0.433   1.410  0.5522 -1.1057  0.6914
 1456SOL     OW 4515   2.988   3.439   2.926  0.2254 -0.0120  0.2160
 1456SOL    HW1 4516   3.026   3.513   2.879 -0.0560  0.2420  0.3852
 1456SOL    HW2 4517   3.062   3.396   2.969  0.5816 -0.5900 -0.9196
 1457SOL     OW 4518   1.634   1.545   3.360  0.3334 -0.0633 -0.4133
 1457SOL    HW1 4519   1.566   1.589   3.309  0.8418  1.3253  0.0528
 1457SOL    HW2 4520   1.586   1.480   3.413 -0.5356  0.3871 -0.6298
 1458SOL     OW 4521   2.364   2.705   1.269  1.0271 -0.3144 -0.3320
 1458SOL    HW1 4522   2.379   2.628   1.324  0.7501  0.6380  1.1125
 1458SOL    HW2 4523   2.417   2.689   1.191 -0.5557 -2.9252 -1.0302
 1459SOL     OW 4524   2.724   2.085   2.406 -0.5184 -0.7392 -0.0349
 1459SOL    HW1 4525   2.721   1.992   2.426 -1.5842 -1.0645 -1.5589
 1459SOL    HW2 4526   2.695   2.127   2.488  0.0712 -1.7153  0.6978
 1460SOL     OW 4527   2.879   2.399   1.046 -0.0909 -0.1081  0.3686
 1460SOL    HW1 4528   2.943   2.375   0.979 -0.8074  0.5060 -0.5741
 1460SOL    HW2 4529   2.808   2.336   1.035  0.6252 -1.2329  1.8834
 1461SOL     OW 4530   2.942   0.184   3.106 -0.4359 -0.4492  0.6344
 1461SOL    HW1 4531   2.882   0.175   3.180 -2.7383  0.4429 -1.0033
 1461SOL    HW2 4532   2.894   0.146   3.032  1.0796  0.1940 -0.7247
 1462SOL     OW 4533   0.630   2.410   2.944 -0.5818 -0.2889  0.2057
 1462SOL    HW1 4534   0.584   2.469   2.884 -3.0512  1.0844  3.1788
 1462SOL    HW2 4535   0.572   2.333   2.949 -0.2911 -0.4793  0.6597
 1463SOL     OW 4536   0.987   3.631   1.673 -0.0357  0.2784 -0.1778
 1463SOL    HW1 4537   0.998   3.720   1.707  0.8746  1.1010 -2.4444
 1463SOL    HW2 4538   1.043   3.577   1.730  0.7981  1.4363  0.1477
 1464SOL     OW 4539   1.897   1.767   1.452 -0.0826 -0.1817  0.6910
 1464SOL    HW1 4540   1.923   1.803   1.367  2.4182 -1.3771  0.8548
 1464SOL    HW2 4541   1.848   1.687   1.430 -1.6918  0.8351  0.4030
 1465SOL     OW 4542   3.421   1.771   2.974  0.0691  0.0314 -0.7151
 1465SOL    HW1 4543   3.412   1.864   2.995  0.7306 -0.0641  0.0387
 1465SOL    HW2 4544   3.347   1.752   2.916 -0.2854  0.9342 -0.5714
 1466SOL     OW 4545   2.686   2.717   0.480  0.1052 -0.8458  0.4833
 1466SOL    HW1 4546   2.753   2.751   0.421 -0.0426 -2.8495 -0.9450
 1466SOL    HW2 4547   2.722   2.729   0.567  1.7893 -0.7381 -0.1875
 1467SOL     OW 4548   3.327   2.318   0.096 -0.2952  0.6149  0.6458
 1467SOL    HW1 4549   3.398   2.379   0.075  0.5450 -0.5004  0.1783
 1467SOL    HW2 4550   3.296   2.346   0.182  0.2955  1.4962  0.5846
 1468SOL     OW 4551   2.179   0.447   2.552 -0.2588 -0.0438 -0.2397
 1468SOL    HW1 4552   2.226   0.489   2.480  0.5758 -2.2801 -1.1080
 1468SOL    HW2 4553   2.190   0.507   2.626  3.3475 -0.0290 -0.5973
 1469SOL     OW 4554   2.805   0.170   0.299 -0.5247  0.8625  0.0245
 1469SOL    HW1 4555   2.864   0.151   0.372  0.1272 -0.4472 -0.8029
 1469SOL    HW2 4556   2.717   0.154   0.335 -0.3455  1.9529  1.0073
 1470SOL     OW 4557   2.107   0.419   3.184 -0.2039 -0.1836 -0.3715
 1470SOL    HW1 4558   2.034   0.417   3.123  1.7365  0.4476 -2.9102
 1470SOL    HW2 4559   2.159   0.341   3.163  0.0800 -0.4497  1.1357
 1471SOL     OW 4560   2.753   3.627   1.883  0.6516 -0.1735 -0.2572
 1471SOL    HW1 4561   2.791   3.622   1.971  1.3589  2.4043 -0.3374
 1471SOL    HW2 4562   2.696   3.550   1.878  2.1623 -1.5436  1.6571
 1472SOL     OW 4563   2.019   2.452   0.779 -0.1824 -0.3238 -0.9525
 1472SOL    HW1 4564   1.982   2.498   0.704  1.7326  0.7441 -1.2958
 1472SOL    HW2 4565   2.060   2.520   0.831 -0.5141 -1.2026  0.5115
 1473SOL     OW 4566   1.469   2.651   0.031 -0.1738  0.6703  0.5504
 1473SOL    HW1 4567   1.424   2.602   0.100  0.2432 -1.7307 -0.7810
 1473SOL    HW2 4568   1.398   2.685  -0.024 -0.4820 -0.3060  0.3063
 1474SOL     OW 4569   1.135   3.139   1.816  0.4069 -0.2696 -0.7754
 1474SOL    HW1 4570   1.113   3.046   1.814 -1.5462  0.0989  0.4843
 1474SOL    HW2 4571   1.187   3.150   1.896 -2.2320  0.1912  0.9878
 1475SOL     OW 4572   2.233   0.945   2.079 -0.2992 -0.5252 -0.2145
 1475SOL    HW1 4573   2.226   1.007   2.007 -2.4370 -2.1419 -1.5343
 1475SOL    HW2 4574   2.312   0.895   2.061  0.3657  0.5193 -0.2090
 1476SOL     OW 4575   2.621   2.993   1.060  0.2181  0.1301  0.4713
 1476SOL    HW1 4576   2.569   3.003   0.980 -0.1879 -2.5416  0.3101
 1476SOL    HW2 4577   2.652   3.082   1.080 -1.0375  1.1349 -1.6986
 1477SOL     OW 4578  -0.018   2.565   3.369 -0.4847  0.0362  0.4115
 1477SOL    HW1 4579   0.043   2.521   3.428  1.0895 -0.6332 -1.6086
 1477SOL    HW2 4580   0.037   2.596   3.297 -2.1812  1.7089 -0.2284
 1478SOL     OW 4581   1.232   0.897   0.136 -0.2510  0.3533  0.1958
 1478SOL    HW1 4582   1.265   0.818   0.179 -0.5097 -0.0090 -0.2612
 1478SOL    HW2 4583   1.297   0.965   0.156  1.1637 -0.4988 -1.2911
 1479SOL     OW 4584   1.861   0.182   1.460  0.0074  0.4272  0.2315
 1479SOL    HW1 4585   1.883   0.171   1.367 -1.7944 -1.9973 -0.0010
 1479SOL    HW2 4586   1.935   0.144   1.506  0.7306  1.2801 -0.1814
 1480SOL     OW 4587   2.268   1.402   0.774 -0.3180  0.4243  0.7594
 1480SOL    HW1 4588   2.210   1.352   0.717  0.7458 -0.0488  0.0608
 1480SOL    HW2 4589   2.227   1.488   0.781 -2.8631 -0.8149  2.9822
 1481SOL     OW 4590   2.453   3.637   2.844  0.0174 -0.0531  0.0342
 1481SOL    HW1 4591   2.477   3.665   2.756  0.9425  1.1249  0.6419
 1481SOL    HW2 4592   2.510   3.562   2.862 -1.4644 -1.5268 -1.0371
 1482SOL     OW 4593   0.494   1.635   2.464 -0.3907 -0.4732  0.7746
 1482SOL    HW1 4594   0.411   1.679   2.481  1.6022  3.0675  2.5254
 1482SOL    HW2 4595   0.496   1.562   2.525 -2.3968 -0.9725  0.2950
 1483SOL     OW 4596   1.647   0.856   2.166  0.0093 -0.6364 -0.3078
 1483SOL    HW1 4597   1.556   0.827   2.170  0.1930 -1.1382  0.5625
 1483SOL    HW2 4598   1.643   0.946   2.134 -1.0332  0.3883  2.4665
 1484SOL     OW 4599   3.674   3.553   0.839  0.3249 -0.2004 -0.0430
 1484SOL    HW1 4600   3.687   3.540   0.933 -1.1828 -1.0472  0.0753
 1484SOL    HW2 4601   3.683   3.466   0.801 -2.4740 -0.5260 -0.2022
 1485SOL     OW 4602   1.878   0.378   3.394  0.2869 -0.2340 -0.7179
 1485SOL    HW1 4603   1.926   0.312   3.344  1.0828  0.0287 -0.3172
 1485SOL    HW2 4604   1.872   0.341   3.482  0.0689 -0.1109 -0.6823
 1486SOL     OW 4605   1.002   0.367   3.124  0.0487  0.5759 -0.1498
 1486SOL    HW1 4606   0.917   0.379   3.167 -0.4134  1.2575 -1.2076
 1486SOL    HW2 4607   1.065   0.370   3.196 -0.6919  1.7049  0.4955
 1487SOL     OW 4608   2.612   0.914   2.189  0.2999  0.0438 -0.6925
 1487SOL    HW1 4609   2.643   0.933   2.278  1.2853  1.7697 -1.3426
 1487SOL    HW2 4610   2.616   0.999   2.144  0.1420 -0.8471 -2.4768
 1488SOL     OW 4611   1.145   3.629   1.208  0.1750  0.1164 -0.0853
 1488SOL    HW1 4612   1.132   3.703   1.266  0.1141 -0.2033  0.3171
 1488SOL    HW2 4613   1.067   3.574   1.221  1.4132 -1.3612  1.6564
 1489SOL     OW 4614   0.405   1.686   3.563 -0.3981 -0.1338  0.0065
 1489SOL    HW1 4615   0.317   1.719   3.544 -0.6517 -1.1269 -0.6407
 1489SOL    HW2 4616   0.423   1.715   3.652 -0.9901  0.8894 -0.1880
 1490SOL     OW 4617   3.048   3.424   3.501  0.2128 -1.0316  0.0160
 1490SOL    HW1 4618   2.965   3.383   3.525 -1.1896  0.7912 -1.3623
 1490SOL    HW2 4619   3.045   3.427   3.405  1.9848 -1.1318 -0.0601
 1491SOL     OW 4620   0.182   0.211   0.664  0.2418 -0.1376 -0.2069
 1491SOL    HW1 4621   0.239   0.193   0.589  2.5237 -0.5972  1.5145
 1491SOL    HW2 4622   0.236   0.264   0.723 -1.5313  0.3819  1.0343
 1492SOL     OW 4623   3.380   0.007   1.877  0.0914  0.2649  0.2393
 1492SOL    HW1 4624   3.387   0.098   1.905  0.9943  0.4688 -0.6411
 1492SOL    HW2 4625   3.398  -0.044   1.957  0.6456  0.8479  0.4933
 1493SOL     OW 4626   0.031   0.111   1.023 -0.3008  0.0589 -0.5964
 1493SOL    HW1 4627  -0.023   0.074   1.092 -0.5870  2.8817  0.8266
 1493SOL    HW2 4628   0.121   0.098   1.052 -0.4169  3.1226  1.5663
 1494SOL     OW 4629   0.241   1.196   2.866  0.1929  0.1219 -0.3639
 1494SOL    HW1 4630   0.151   1.213   2.841 -0.5285 -0.6239  1.5230
 1494SOL    HW2 4631   0.273   1.279   2.901 -0.2045  0.0531  0.1705
 1495SOL     OW 4632   3.034   0.429   3.458 -0.6511 -0.3319  0.3922
 1495SOL    HW1 4633   2.975   0.423   3.382 -0.6633 -0.0907  0.3798
 1495SOL    HW2 4634   2.979   0.404   3.532 -0.4138 -1.4031  0.2250
 1496SOL     OW 4635   3.157   2.591   0.698  0.0205  0.4098  0.4258
 1496SOL    HW1 4636   3.192   2.588   0.787 -0.2716 -0.6226  0.5137
 1496SOL    HW2 4637   3.234   2.600   0.642  0.2334  0.6597  0.7571
 1497SOL     OW 4638   0.700   1.724   0.771  0.1391  0.0945 -0.2889
 1497SOL    HW1 4639   0.673   1.747   0.860  3.0782  1.7001  0.3087
 1497SOL    HW2 4640   0.688   1.629   0.767 -1.8560  0.2015  1.0798
 1498SOL     OW 4641   1.252   2.986   0.123  0.6556  0.8969  0.1778
 1498SOL    HW1 4642   1.203   3.024   0.049  1.3946 -2.5693 -2.3538
 1498SOL    HW2 4643   1.186   2.938   0.173  0.7913 -0.7181 -1.1075
 1499SOL     OW 4644   1.884   2.402   1.594 -0.2637  0.1791  0.4013
 1499SOL    HW1 4645   1.902   2.308   1.604 -0.5959  0.0501 -0.1960
 1499SOL    HW2 4646   1.870   2.414   1.500  0.0850  0.8866  0.4334
 1500SOL     OW 4647   2.012   0.086   0.107 -0.3831  0.1752 -0.2045
 1500SOL    HW1 4648   2.058   0.122   0.183 -0.8281  1.6675 -0.6118
 1500SOL    HW2 4649   2.057   0.125   0.032  0.3267 -1.6094 -0.7555
 1501SOL     OW 4650   1.324   0.112   1.892 -0.4904  0.6556 -0.1501
 1501SOL    HW1 4651   1.356   0.084   1.978 -0.8875 -1.5611 -0.6621
 1501SOL    HW2 4652   1.282   0.197   1.909  1.0173  1.1483  1.4794
 1502SOL     OW 4653   0.469   0.676   1.003  0.1997 -0.4097 -0.1436
 1502SOL    HW1 4654   0.460   0.650   1.095 -0.2336  0.9414  0.2178
 1502SOL    HW2 4655   0.452   0.596   0.954 -0.5066 -0.9485  0.9315
 1503SOL     OW 4656   1.892   0.668   3.448  0.0047 -0.2556 -0.2697
 1503SOL    HW1 4657   1.881   0.575   3.425 -0.0912 -0.2518 -0.2396
 1503SOL    HW2 4658   1.805   0.706   3.433 -0.1372 -0.3107  0.3787
 1504SOL     OW 4659   1.107   0.287   2.671 -0.8276  0.2889 -0.2615
 1504SOL    HW1 4660   1.130   0.196   2.686 -0.9745  0.3007  0.0456
 1504SOL    HW2 4661   1.031   0.303   2.727 -0.4742  0.7432  0.1028
 1505SOL     OW 4662   3.381   3.706   1.597 -0.0109  0.6288 -0.0305
 1505SOL    HW1 4663   3.384   3.754   1.680 -0.8544 -1.7486  1.4629
 1505SOL    HW2 4664   3.471   3.677   1.584 -0.2517 -0.8163  1.2509
 1506SOL     OW 4665   3.157   0.607   2.382  0.1435  0.1034 -0.0770
 1506SOL    HW1 4666   3.241   0.561   2.392 -0.4297 -0.9616 -0.0053
 1506SOL    HW2 4667   3.116   0.601   2.468 -0.1139  0.4004 -0.1778
 1507SOL     OW 4668   3.001   3.579   0.805 -0.1687 -0.5267  0.5309
 1507SOL    HW1 4669   3.008   3.578   0.710 -1.3487  1.2504  0.3888
 1507SOL    HW2 4670   2.916   3.539   0.823 -0.4333  0.1223  0.7537
 1508SOL     OW 4671   3.689   2.962   2.005 -0.4396  0.2402  0.0660
 1508SOL    HW1 4672   3.627   2.940   2.075 -0.6426 -2.3635 -0.8295
 1508SOL    HW2 4673   3.638   3.015   1.944 -0.4322  2.0161  1.5002
 1509SOL     OW 4674   3.353   2.784   2.317  0.1663 -0.4952  0.8806
 1509SOL    HW1 4675   3.284   2.760   2.256  0.9366 -2.0666  0.5809
 1509SOL    HW2 4676   3.320   2.863   2.360 -1.1334 -0.3275 -0.3268
 1510SOL     OW 4677   2.479   2.281   0.694 -0.0128 -0.2565  0.0161
 1510SOL    HW1 4678   2.507   2.364   0.656 -1.3605 -0.3379 -1.2508
 1510SOL    HW2 4679   2.390   2.299   0.725  0.9161 -0.2773  2.9661
 1511SOL     OW 4680   0.750   1.686   2.101 -0.1435 -0.5450 -0.3726
 1511SOL    HW1 4681   0.666   1.698   2.058  0.0353  1.8877 -0.1847
 1511SOL    HW2 4682   0.729   1.643   2.184 -0.9626 -1.5752 -1.0909
 1512SOL     OW 4683   1.439   2.284   0.370 -0.2052  0.0398 -0.4656
 1512SOL    HW1 4684   1.357   2.269   0.418  0.0348  0.4797  0.0926
 1512SOL    HW2 4685   1.461   2.198   0.332 -0.4285 -0.3011  0.1669
 1513SOL     OW 4686   1.208   1.982   0.533 -0.3151  0.4411  0.0578
 1513SOL    HW1 4687   1.170   1.917   0.592  1.0147  0.6930  1.2384
 1513SOL    HW2 4688   1.302   1.976   0.547 -0.0677  1.6218 -0.8860
 1514SOL     OW 4689   2.848   3.601   2.365 -0.3931 -0.1450 -0.0562
 1514SOL    HW1 4690   2.869   3.694   2.358  0.3141 -0.2372  0.7273
 1514SOL    HW2 4691   2.762   3.593   2.323 -1.1915  1.1343  1.2472
 1515SOL     OW 4692   1.080   3.713   2.992 -0.9275 -0.0487  0.2617
 1515SOL    HW1 4693   1.050   3.742   3.078 -0.7606 -3.7681  1.7242
 1515SOL    HW2 4694   1.052   3.622   2.985  2.1876 -1.0120 -2.0855
 1516SOL     OW 4695   0.561   3.758   0.566  0.5418  0.1820  0.0156
 1516SOL    HW1 4696   0.656   3.743   0.562  0.6796  0.8199  0.6473
 1516SOL    HW2 4697   0.524   3.675   0.596  0.7290 -0.5803 -1.7238
 1517SOL     OW 4698   3.338   2.832   0.736  0.2471 -0.1656  0.2336
 1517SOL    HW1 4699   3.280   2.830   0.660  0.7325 -0.4206 -0.1340
 1517SOL    HW2 4700   3.280   2.813   0.810 -0.6925  2.3845  0.2565
 1518SOL     OW 4701   1.730   1.164   3.246 -0.2006 -0.0941  0.2927
 1518SOL    HW1 4702   1.686   1.181   3.163 -0.6153 -0.8279  0.3501
 1518SOL    HW2 4703   1.779   1.244   3.264  0.2676 -0.0946 -0.8896
 1519SOL     OW 4704   3.238   3.505   1.174  0.2625 -0.0164  0.0377
 1519SOL    HW1 4705   3.164   3.510   1.234 -0.1117 -0.8196 -0.3475
 1519SOL    HW2 4706   3.250   3.595   1.144 -0.2082  0.2115  0.5150
 1520SOL     OW 4707   1.036   0.517   1.327  0.4287  0.0030 -0.1117
 1520SOL    HW1 4708   1.084   0.556   1.254  0.1931 -0.2451 -0.4047
 1520SOL    HW2 4709   1.077   0.431   1.339  1.2537  0.5203  0.8374
 1521SOL     OW 4710   2.367   1.188   3.590  0.5766 -0.5682  0.5040
 1521SOL    HW1 4711   2.318   1.130   3.532 -1.0190 -1.8991  3.0134
 1521SOL    HW2 4712   2.455   1.149   3.594  0.3629 -1.1252 -0.1299
 1522SOL     OW 4713   2.450   2.852   0.340 -0.0821  0.0103  0.1201
 1522SOL    HW1 4714   2.378   2.818   0.393 -0.8618 -0.9426 -1.4671
 1522SOL    HW2 4715   2.529   2.836   0.393 -0.7416 -1.6325  0.6713
 1523SOL     OW 4716   1.403   2.272   2.468 -0.6885 -0.0549 -0.0505
 1523SOL    HW1 4717   1.399   2.218   2.389  0.5033 -1.9474  1.1228
 1523SOL    HW2 4718   1.333   2.239   2.524 -1.8135  1.5664 -0.4061
 1524SOL     OW 4719   0.941   0.790   1.297  0.6617 -0.0910 -0.4739
 1524SOL    HW1 4720   0.852   0.812   1.271 -0.6222 -1.7451  2.1129
 1524SOL    HW2 4721   0.951   0.697   1.275  1.0382 -0.3981  0.8438
 1525SOL     OW 4722   0.638   3.474   2.498 -0.1222  0.1907  1.1500
 1525SOL    HW1 4723   0.690   3.407   2.544  0.3936  1.2251  2.1070
 1525SOL    HW2 4724   0.665   3.557   2.537  1.1965  1.2803 -1.7646
 1526SOL     OW 4725   2.698   2.653   2.618  0.4826 -0.1167  0.2860
 1526SOL    HW1 4726   2.651   2.736   2.619  1.5585  0.4990  1.0401
 1526SOL    HW2 4727   2.648   2.598   2.557 -0.6246  0.8427  0.2981
 1527SOL     OW 4728   0.348   1.855   1.034 -0.8151 -1.0766 -0.3838
 1527SOL    HW1 4729   0.428   1.891   0.994  0.1495 -0.4733  1.8979
 1527SOL    HW2 4730   0.287   1.928   1.036 -0.2808 -0.6297  0.6288
 1528SOL     OW 4731   2.622   2.168   1.479  0.4611 -0.2069 -0.3959
 1528SOL    HW1 4732   2.574   2.251   1.482 -0.3481 -0.4662 -3.1372
 1528SOL    HW2 4733   2.566   2.106   1.525 -0.6353  0.0683 -1.3097
 1529SOL     OW 4734   2.586   3.390   2.438  0.4400 -0.2910  0.0808
 1529SOL    HW1 4735   2.630   3.385   2.353  0.2354 -0.4615 -0.0176
 1529SOL    HW2 4736   2.655   3.373   2.502  0.2566 -2.1486 -0.1349
 1530SOL     OW 4737   3.693   0.069   2.020  0.4121 -0.8180  0.3553
 1530SOL    HW1 4738   3.696  -0.019   1.982  0.0635 -0.0472 -1.5878
 1530SOL    HW2 4739   3.675   0.055   2.113  0.2601 -2.7847  0.0656
 1531SOL     OW 4740   1.670   1.267   2.746 -0.7795  0.0915 -0.1107
 1531SOL    HW1 4741   1.670   1.190   2.689 -1.3130 -0.1876  0.2587
 1531SOL    HW2 4742   1.727   1.329   2.701  2.0086 -1.5240  0.9477
 1532SOL     OW 4743   3.012   1.429   2.836  0.2286 -0.0443  0.4218
 1532SOL    HW1 4744   2.988   1.384   2.918 -1.2945  0.2000  0.1488
 1532SOL    HW2 4745   2.980   1.371   2.767 -0.6926  0.8771  0.0524
 1533SOL     OW 4746   0.197   1.588   0.048  0.4342  0.0429 -0.2048
 1533SOL    HW1 4747   0.162   1.571  -0.039  1.4022 -2.5096 -0.1754
 1533SOL    HW2 4748   0.267   1.524   0.059 -0.0534 -0.1373  2.6823
 1534SOL     OW 4749   3.544   0.582   2.742  0.4039 -0.0513 -0.5368
 1534SOL    HW1 4750   3.556   0.600   2.835  0.3809 -0.2367 -0.4989
 1534SOL    HW2 4751   3.620   0.622   2.700  0.2838  0.2584 -0.4659
 1535SOL     OW 4752   2.673   2.171   1.163  0.6918 -0.1636 -0.1529
 1535SOL    HW1 4753   2.647   2.079   1.155 -1.0843  0.4110 -1.6430
 1535SOL    HW2 4754   2.705   2.179   1.253  2.1893 -2.5182 -0.3964
 1536SOL     OW 4755   1.400   0.027   2.600 -0.2411 -0.3845 -0.0373
 1536SOL    HW1 4756   1.440   0.105   2.560 -1.5480  0.8457  0.9392
 1536SOL    HW2 4757   1.347  -0.011   2.530  1.4193 -1.1937 -0.9069
 1537SOL     OW 4758   0.433   3.306   2.428  0.6756  0.4761 -0.3071
 1537SOL    HW1 4759   0.506   3.367   2.433  1.3059 -0.3586  1.3757
 1537SOL    HW2 4760   0.444   3.261   2.345  2.6844 -0.3225  0.3402
 1538SOL     OW 4761   3.539   1.477   0.214  0.1579  0.2667 -0.3062
 1538SOL    HW1 4762   3.594   1.535   0.161 -0.2342  0.2148 -0.7845
 1538SOL    HW2 4763   3.583   1.392   0.209  1.2254  0.7012  1.1407
 1539SOL     OW 4764   3.090   1.608   3.100  0.3104  0.2068  0.2840
 1539SOL    HW1 4765   3.037   1.671   3.148 -1.4457 -0.7427 -0.3314
 1539SOL    HW2 4766   3.065   1.523   3.136  0.7809 -0.3374 -0.6236
 1540SOL     OW 4767   2.566   3.334   3.580 -0.7708  0.6290 -0.4855
 1540SOL    HW1 4768   2.658   3.356   3.570 -0.4300 -0.7850 -0.5995
 1540SOL    HW2 4769   2.565   3.256   3.635 -1.7924 -0.3651 -1.8481
 1541SOL     OW 4770   3.175   1.372   1.038 -0.2327  0.5038 -0.2969
 1541SOL    HW1 4771   3.185   1.290   0.988  2.7126  1.4315 -1.4850
 1541SOL    HW2 4772   3.091   1.407   1.010 -0.8719 -1.3561 -0.9048
 1542SOL     OW 4773   2.566   3.015   0.664  0.4038 -0.2242  0.2471
 1542SOL    HW1 4774   2.520   3.074   0.605 -0.8860  0.2897  1.6951
 1542SOL    HW2 4775   2.655   3.010   0.629 -0.1734  0.4569 -1.4153
 1543SOL     OW 4776   0.753   2.465   1.530 -0.3439 -0.2766 -0.0835
 1543SOL    HW1 4777   0.812   2.419   1.470 -0.6826 -0.1538 -0.5211
 1543SOL    HW2 4778   0.699   2.520   1.472 -0.5701 -0.0373  0.3507
 1544SOL     OW 4779   0.624   1.364   2.082  0.1959 -0.0220 -0.1699
 1544SOL    HW1 4780   0.569   1.421   2.137 -0.7238 -1.7797  0.8079
 1544SOL    HW2 4781   0.593   1.379   1.993 -0.6678  0.3030  0.1757
 1545SOL     OW 4782   1.962   0.455   0.830 -0.9468 -0.2955 -0.5287
 1545SOL    HW1 4783   1.929   0.382   0.778 -1.6400  1.2596 -2.4006
 1545SOL    HW2 4784   1.982   0.524   0.766 -0.3875  1.1991  1.1461
 1546SOL     OW 4785   1.761   3.419   1.662  0.4287 -0.3515  0.2459
 1546SOL    HW1 4786   1.828   3.378   1.605  1.7616  1.5411  0.3669
 1546SOL    HW2 4787   1.680   3.373   1.639  1.0041 -0.0871 -2.7895
 1547SOL     OW 4788   2.185   2.740   1.982  0.0993  0.2245 -0.7575
 1547SOL    HW1 4789   2.237   2.779   2.053 -1.0678 -0.5271  0.5464
 1547SOL    HW2 4790   2.233   2.661   1.958 -0.9662 -1.1324  1.2798
 1548SOL     OW 4791   1.819   1.888   2.886 -0.6759 -0.0063 -0.2076
 1548SOL    HW1 4792   1.847   1.979   2.874 -1.4229  0.3534  0.6634
 1548SOL    HW2 4793   1.820   1.875   2.981  0.7650 -1.3507 -0.3537
 1549SOL     OW 4794   0.109   0.055   3.004  0.3506 -0.2855 -0.0825
 1549SOL    HW1 4795   0.077   0.102   2.927 -1.5989  0.0962  0.8870
 1549SOL    HW2 4796   0.030   0.039   3.056  1.8084  1.3025  2.8468
 1550SOL     OW 4797   2.644   0.506   0.288 -0.0921 -0.3755 -0.0528
 1550SOL    HW1 4798   2.703   0.459   0.229 -1.2441  0.8671 -2.3453
 1550SOL    HW2 4799   2.691   0.585   0.312  0.7637 -1.3281  1.5824
 1551SOL     OW 4800   1.435   2.512   2.789  0.0461 -0.2325  0.0058
 1551SOL    HW1 4801   1.348   2.481   2.813 -0.2971 -0.9752 -1.9719
 1551SOL    HW2 4802   1.450   2.589   2.844 -2.5457  0.9105 -0.7434
 1552SOL     OW 4803   0.123   2.907   3.389 -0.2085 -0.7625 -0.2014
 1552SOL    HW1 4804   0.098   2.899   3.481 -2.9573 -1.7351 -0.9381
 1552SOL    HW2 4805   0.076   2.984   3.358  1.0724 -0.1620 -0.7159
 1553SOL     OW 4806   3.113   1.972   1.727  0.3857  0.0898 -0.7215
 1553SOL    HW1 4807   3.171   1.966   1.803 -0.7608 -2.4696  0.0659
 1553SOL    HW2 4808   3.172   1.971   1.652  1.4694  1.1495  0.0697
 1554SOL     OW 4809   0.440   3.111   3.111  0.2974 -0.0511  0.2503
 1554SOL    HW1 4810   0.501   3.124   3.037  0.9362 -0.1694  0.7448
 1554SOL    HW2 4811   0.354   3.107   3.070  0.3187  2.6568 -0.2460
 1555SOL     OW 4812   2.092   0.111   2.232 -0.1104 -0.0376  0.9404
 1555SOL    HW1 4813   2.091   0.055   2.155  2.3792 -2.4180  2.4659
 1555SOL    HW2 4814   2.000   0.135   2.245 -0.7770 -0.7336 -1.8698
 1556SOL     OW 4815   2.404   0.160   1.898  0.6765 -0.3435 -0.0258
 1556SOL    HW1 4816   2.311   0.151   1.880  0.7822 -2.4620  0.1727
 1556SOL    HW2 4817   2.411   0.167   1.993  0.7339 -0.5611 -0.0130
 1557SOL     OW 4818   0.050   2.779   1.304  0.1155  0.6850 -0.2356
 1557SOL    HW1 4819   0.137   2.739   1.304 -0.3100 -0.2718 -0.4596
 1557SOL    HW2 4820   0.007   2.741   1.381 -0.8565 -0.5953 -1.3472
 1558SOL     OW 4821   2.118   0.828   2.541  0.4977 -0.4621  0.1060
 1558SOL    HW1 4822   2.082   0.796   2.624  1.2759  1.5800  1.3209
 1558SOL    HW2 4823   2.200   0.872   2.566  0.5601  0.5381 -1.6940
 1559SOL     OW 4824   0.463   2.383   0.557  0.8929 -0.1513 -0.2472
 1559SOL    HW1 4825   0.410   2.444   0.609  1.5144  1.4767 -1.4320
 1559SOL    HW2 4826   0.434   2.296   0.585  0.4620  0.6612  2.0047
 1560SOL     OW 4827   3.575   3.613   3.518 -0.9357 -0.2407  0.0127
 1560SOL    HW1 4828   3.649   3.670   3.496 -1.1689  0.5447  1.1505
 1560SOL    HW2 4829   3.533   3.594   3.434 -0.1980  0.3535 -0.5041
 1561SOL     OW 4830   3.094   2.879   2.529  0.7959  0.1138 -0.4123
 1561SOL    HW1 4831   3.001   2.895   2.538  0.9739  1.0144 -0.1396
 1561SOL    HW2 4832   3.101   2.784   2.516 -0.1117 -0.0415  0.1562
 1562SOL     OW 4833   2.011   2.157   1.300 -0.4381  0.3090 -0.5391
 1562SOL    HW1 4834   1.978   2.217   1.234 -0.8432  1.6726  0.8330
 1562SOL    HW2 4835   2.106   2.166   1.295 -0.2820 -1.6122 -2.6759
 1563SOL     OW 4836   3.436   3.376   1.569  0.2427 -0.4465 -0.1431
 1563SOL    HW1 4837   3.356   3.348   1.614 -0.0600  1.0063  0.2536
 1563SOL    HW2 4838   3.505   3.361   1.633 -0.0576  0.6802  0.4596
 1564SOL     OW 4839   0.934   1.981   2.585 -0.4088 -0.4778 -0.0903
 1564SOL    HW1 4840   0.982   1.905   2.618 -1.5162 -1.7131 -1.2016
 1564SOL    HW2 4841   0.873   1.945   2.522 -0.6710  1.4118 -0.9886
 1565SOL     OW 4842   0.817   2.905   1.908 -0.5016 -0.1745 -0.5470
 1565SOL    HW1 4843   0.880   2.965   1.868  0.3823  0.3162  1.4221
 1565SOL    HW2 4844   0.852   2.818   1.891  1.2669  0.1017  1.1856
 1566SOL     OW 4845   1.574   3.547   1.156  0.1858 -0.4429 -0.2488
 1566SOL    HW1 4846   1.557   3.591   1.239  0.8740  0.2547 -0.4675
 1566SOL    HW2 4847   1.627   3.471   1.179  0.5538 -0.1327 -0.0717
 1567SOL     OW 4848   0.294   0.379   0.966  0.2298 -0.0669  0.3492
 1567SOL    HW1 4849   0.270   0.347   1.053 -0.8907  0.3551  0.2100
 1567SOL    HW2 4850   0.221   0.434   0.940  1.1499  0.8765 -0.3214
 1568SOL     OW 4851   0.998   3.407   2.011  0.1827 -0.5904  0.0305
 1568SOL    HW1 4852   0.981   3.501   2.012 -2.1091 -0.9410 -0.0957
 1568SOL    HW2 4853   1.067   3.395   2.076 -0.7619  0.9879  1.4269
 1569SOL     OW 4854   0.744   3.748   3.600  0.4964 -0.4781 -0.0892
 1569SOL    HW1 4855   0.737   3.694   3.521  0.1875  0.4043 -0.6843
 1569SOL    HW2 4856   0.831   3.787   3.595  0.0352  0.5308 -0.6488
 1570SOL     OW 4857   2.863   2.461   1.337  0.4941  0.3631  0.1195
 1570SOL    HW1 4858   2.894   2.441   1.249  1.1625 -2.1774  0.8604
 1570SOL    HW2 4859   2.878   2.381   1.387 -1.1003  1.2858  2.2305
 1571SOL     OW 4860   1.640   1.394   0.328 -0.0597 -0.2558 -0.1274
 1571SOL    HW1 4861   1.676   1.388   0.416  1.3714  1.9049 -0.4824
 1571SOL    HW2 4862   1.696   1.337   0.275  2.0350  1.8410 -0.3705
 1572SOL     OW 4863   1.382   1.234   1.308  0.7258  0.3290  0.2793
 1572SOL    HW1 4864   1.396   1.315   1.357  0.1855  0.3282  0.4414
 1572SOL    HW2 4865   1.296   1.246   1.266  0.5779 -0.2141  0.4185
 1573SOL     OW 4866   2.016   0.754   0.090 -0.2826  0.2229  0.4154
 1573SOL    HW1 4867   2.081   0.684   0.079  0.8136  1.0709  1.3283
 1573SOL    HW2 4868   2.060   0.833   0.060 -0.4589  1.0204  2.1560
 1574SOL     OW 4869   0.227   2.714   3.240  0.6027  0.1046 -0.4175
 1574SOL    HW1 4870   0.310   2.746   3.205  1.7254 -0.6696  1.4134
 1574SOL    HW2 4871   0.197   2.783   3.299 -0.1411  0.4246 -1.1413
 1575SOL     OW 4872   0.218   1.975   2.774 -0.1232 -0.6981  0.2671
 1575SOL    HW1 4873   0.261   1.904   2.822 -0.2332 -0.1801  1.1493
 1575SOL    HW2 4874   0.178   1.932   2.699  0.9127 -1.3750  0.0751
 1576SOL     OW 4875   0.915   2.715   2.336 -0.4793  0.1983  0.6049
 1576SOL    HW1 4876   0.883   2.800   2.309  1.1889  0.6910  0.0442
 1576SOL    HW2 4877   0.970   2.733   2.412  0.4909 -0.2502  0.0324
 1577SOL     OW 4878   1.889   0.217   1.174  0.4762  1.1050 -0.4314
 1577SOL    HW1 4879   1.814   0.172   1.135  1.9370 -0.8915 -1.1132
 1577SOL    HW2 4880   1.965   0.185   1.124  2.0244  1.2603  1.6761
 1578SOL     OW 4881   3.410   0.715   1.490  0.1483 -0.0236 -0.1234
 1578SOL    HW1 4882   3.325   0.675   1.507 -0.4301  1.4285  0.6004
 1578SOL    HW2 4883   3.451   0.659   1.425 -0.2471 -2.2354  1.4287
 1579SOL     OW 4884   1.225   1.324   0.070 -0.0982 -0.4612 -0.3676
 1579SOL    HW1 4885   1.306   1.376   0.072 -0.4130  0.0174  0.7375
 1579SOL    HW2 4886   1.252   1.237   0.098 -0.1259 -0.0296  1.0887
 1580SOL     OW 4887   3.140   1.213   3.281  0.0138 -0.3626  0.0625
 1580SOL    HW1 4888   3.213   1.211   3.343  0.6110 -0.8789 -0.6389
 1580SOL    HW2 4889   3.070   1.165   3.325  0.6220 -1.2205  0.1183
 1581SOL     OW 4890   3.104   2.240   1.896 -0.0112  0.3943 -0.1889
 1581SOL    HW1 4891   3.121   2.226   1.989  1.5422  2.1847 -0.1428
 1581SOL    HW2 4892   3.014   2.212   1.884 -1.4477  3.2001  2.5946
 1582SOL     OW 4893   0.598   2.934   0.055 -0.1851  1.0567  0.0059
 1582SOL    HW1 4894   0.649   2.859   0.085 -1.0622  0.2995 -0.3571
 1582SOL    HW2 4895   0.510   2.918   0.088 -0.7528  1.1183 -1.4153
 1583SOL     OW 4896   3.499   2.540   2.793  0.4798 -0.8289  0.4320
 1583SOL    HW1 4897   3.488   2.466   2.853  0.1383  0.2823  1.7759
 1583SOL    HW2 4898   3.588   2.571   2.810  0.2089 -0.2019  0.7398
 1584SOL     OW 4899   0.307   0.578   2.769  0.0933 -1.0659 -0.2512
 1584SOL    HW1 4900   0.366   0.505   2.789  0.3356 -1.2412 -1.5056
 1584SOL    HW2 4901   0.351   0.655   2.803  0.9831 -1.2220 -1.0129
 1585SOL     OW 4902   2.669   0.755   0.621  0.2122 -0.2051  0.0952
 1585SOL    HW1 4903   2.616   0.710   0.686 -0.2234  1.1858  0.7407
 1585SOL    HW2 4904   2.612   0.825   0.588  1.2833  0.6810  0.0703
 1586SOL     OW 4905   0.752   0.434   2.195 -0.3549  0.1362 -0.5549
 1586SOL    HW1 4906   0.800   0.439   2.277 -2.3078 -0.8385  0.7463
 1586SOL    HW2 4907   0.806   0.379   2.138 -0.3889 -1.8795  1.2312
 1587SOL     OW 4908   0.849   1.085   3.499 -0.3347 -0.3108 -0.9059
 1587SOL    HW1 4909   0.771   1.104   3.447 -1.9270 -1.0061  1.0857
 1587SOL    HW2 4910   0.820   1.019   3.562  0.9987  1.5555  1.8607
 1588SOL     OW 4911   1.725   2.194   3.171 -0.0621  0.5123 -0.0236
 1588SOL    HW1 4912   1.700   2.209   3.079  0.0312  1.2533  0.0626
 1588SOL    HW2 4913   1.787   2.265   3.190 -1.3480  1.3779  1.0958
 1589SOL     OW 4914   3.373   2.767   2.904 -0.4403 -0.3244  0.1622
 1589SOL    HW1 4915   3.432   2.698   2.873  1.1039  0.9389  0.1677
 1589SOL    HW2 4916   3.288   2.745   2.866  0.4373 -1.1935 -1.4117
 1590SOL     OW 4917   1.186   0.177   0.174 -1.2592 -0.3144  0.4201
 1590SOL    HW1 4918   1.129   0.108   0.209 -1.3167  0.3670  1.7546
 1590SOL    HW2 4919   1.255   0.186   0.240 -1.7929  1.5524  0.7757
 1591SOL     OW 4920   1.933   3.031   1.176  0.0115 -0.0853 -0.8968
 1591SOL    HW1 4921   1.917   3.088   1.251  0.6336  1.2862 -1.7429
 1591SOL    HW2 4922   2.006   2.975   1.203 -0.6256 -0.5048 -0.0340
 1592SOL     OW 4923   2.537   1.603   2.844 -0.7160  0.2348 -0.1162
 1592SOL    HW1 4924   2.559   1.510   2.840 -3.4694 -0.4603 -1.5409
 1592SOL    HW2 4925   2.480   1.611   2.921  1.4700  1.3216  1.5073
 1593SOL     OW 4926   1.242   0.745   3.650 -0.4513 -0.7624 -0.2757
 1593SOL    HW1 4927   1.306   0.816   3.661  0.1519 -1.5415  1.5554
 1593SOL    HW2 4928   1.168   0.771   3.704 -0.5723 -1.1154 -0.2708
 1594SOL     OW 4929   3.060   1.959   1.216  0.2284 -0.5023 -0.7075
 1594SOL    HW1 4930   3.007   1.936   1.139 -0.4966  0.8986 -0.6539
 1594SOL    HW2 4931   3.009   2.026   1.261  1.5571  0.0972 -0.0484
 1595SOL     OW 4932   1.648   0.756   3.380 -0.1172  0.3812 -0.1460
 1595SOL    HW1 4933   1.559   0.789   3.390  0.2312  1.1630  0.4938
 1595SOL    HW2 4934   1.648   0.710   3.296 -1.3271 -0.3271  0.2139
 1596SOL     OW 4935   0.937   2.828   3.603  0.5197  0.5335  0.1866
 1596SOL    HW1 4936   0.927   2.773   3.525 -0.2182  0.4519  0.3294
 1596SOL    HW2 4937   0.902   2.913   3.578  0.8202  0.6755  0.2482
 1597SOL     OW 4938   1.860   0.485   1.538 -0.4861 -0.1071  0.3057
 1597SOL    HW1 4939   1.890   0.506   1.449 -3.5226 -0.1964 -0.8640
 1597SOL    HW2 4940   1.883   0.393   1.550  0.2311 -0.0086 -0.2662
 1598SOL     OW 4941   0.770   0.543   0.621  0.0004 -0.2601  0.2605
 1598SOL    HW1 4942   0.744   0.633   0.602 -0.0925  0.2017  2.4159
 1598SOL    HW2 4943   0.692   0.502   0.659  0.1572 -1.1567 -0.3504
 1599SOL     OW 4944   2.761   2.877   1.525 -0.5650 -0.5332 -0.1193
 1599SOL    HW1 4945   2.785   2.969   1.524 -3.2219  0.2390  0.4698
 1599SOL    HW2 4946   2.738   2.859   1.617 -2.1889 -1.1399 -0.6106
 1600SOL     OW 4947   1.828   2.485   2.500  0.0515  0.4971  0.0977
 1600SOL    HW1 4948   1.874   2.480   2.417  1.4435 -1.7833  0.9243
 1600SOL    HW2 4949   1.741   2.448   2.481 -0.1223  1.2037 -0.5778
 1601SOL     OW 4950   3.383   0.068   2.982 -0.2342  0.0418 -0.3413
 1601SOL    HW1 4951   3.420   0.019   3.056  0.1406 -0.6813 -1.0027
 1601SOL    HW2 4952   3.300   0.104   3.017 -0.5867 -1.1731  0.1153
 1602SOL     OW 4953   1.623   0.373   1.320  0.6432  0.1905 -0.2682
 1602SOL    HW1 4954   1.587   0.288   1.294 -1.0665  0.4906  0.9056
 1602SOL    HW2 4955   1.684   0.353   1.390  0.7074 -0.1282 -0.4139
 1603SOL     OW 4956   3.197   0.665   3.350 -0.3207 -0.2668 -0.6007
 1603SOL    HW1 4957   3.170   0.586   3.398  0.9049 -0.6213 -0.4656
 1603SOL    HW2 4958   3.290   0.652   3.333 -0.3880  0.5728 -1.7204
 1604SOL     OW 4959   2.370   1.654   2.611 -0.2661  0.1750  0.4576
 1604SOL    HW1 4960   2.293   1.709   2.622  0.5948  1.7563 -0.8859
 1604SOL    HW2 4961   2.404   1.642   2.700  0.2687  3.0131  0.7368
 1605SOL     OW 4962   2.929   1.375   3.217 -0.1953  0.1328  0.3748
 1605SOL    HW1 4963   3.010   1.350   3.261  0.3920  0.1877 -0.6446
 1605SOL    HW2 4964   2.912   1.304   3.155 -1.2986 -0.2068  1.0387
 1606SOL     OW 4965   0.791   1.855   0.324 -0.2168  0.3688  0.4995
 1606SOL    HW1 4966   0.844   1.880   0.249 -2.4558 -0.3717 -1.4628
 1606SOL    HW2 4967   0.825   1.769   0.350  1.8326  1.4567  1.6847
 1607SOL     OW 4968   2.019   1.108   2.532  0.0937 -0.0311  0.1636
 1607SOL    HW1 4969   2.001   1.015   2.524  0.1755 -0.0910  0.6564
 1607SOL    HW2 4970   2.050   1.134   2.445  1.0961 -0.6913  0.3087
 1608SOL     OW 4971   1.303   2.396   0.889  0.4458  0.3952 -0.2045
 1608SOL    HW1 4972   1.308   2.486   0.921  0.1044  0.1090  0.6706
 1608SOL    HW2 4973   1.293   2.405   0.794  0.8744  1.2645 -0.1802
 1609SOL     OW 4974   0.318   0.899   2.301 -0.0397 -0.5460  0.5891
 1609SOL    HW1 4975   0.336   0.976   2.246 -2.8181 -0.7909 -0.8505
 1609SOL    HW2 4976   0.225   0.907   2.323 -0.1603 -2.9932  1.2330
 1610SOL     OW 4977   1.868   1.574   1.718  0.3006 -0.3927  0.0197
 1610SOL    HW1 4978   1.922   1.614   1.786  1.7193 -2.1384  0.0285
 1610SOL    HW2 4979   1.910   1.600   1.636 -0.4992  0.4683 -0.1248
 1611SOL     OW 4980   2.433   3.260   0.509 -0.0824 -0.4262 -0.1553
 1611SOL    HW1 4981   2.394   3.343   0.535 -0.4966  0.1780 -2.4904
 1611SOL    HW2 4982   2.525   3.281   0.493  0.0653 -0.6831  0.3394
 1612SOL     OW 4983   1.749   2.187   0.606 -0.0281 -0.0907  0.5868
 1612SOL    HW1 4984   1.752   2.269   0.557  2.1584  1.1722  2.5980
 1612SOL    HW2 4985   1.673   2.195   0.663 -2.4566 -1.4753 -2.1699
 1613SOL     OW 4986   2.541   2.660   1.084 -0.7468 -0.1756 -0.4177
 1613SOL    HW1 4987   2.589   2.726   1.034 -1.5949 -0.7918 -2.1414
 1613SOL    HW2 4988   2.560   2.577   1.039 -0.8513 -0.8935  0.8248
 1614SOL     OW 4989   1.024   3.729   2.398 -0.4980 -0.0314 -0.0478
 1614SOL    HW1 4990   1.073   3.668   2.343  0.9251  1.5972 -0.6782
 1614SOL    HW2 4991   1.011   3.683   2.481  0.8443 -1.0472 -0.3907
 1615SOL     OW 4992   1.492   3.008   2.273 -0.2500  0.2079 -0.2270
 1615SOL    HW1 4993   1.490   2.974   2.183 -2.2101  1.8047 -0.8687
 1615SOL    HW2 4994   1.435   3.085   2.271 -1.7930 -0.6901  2.7827
 1616SOL     OW 4995   3.352   0.029   1.136 -0.2371 -0.6900  0.1165
 1616SOL    HW1 4996   3.323   0.102   1.081  0.6970  0.0858  0.6335
 1616SOL    HW2 4997   3.328   0.055   1.225  0.5274 -0.7749  0.3578
 1617SOL     OW 4998   2.927   2.725   1.018  0.3006 -0.1381  0.0157
 1617SOL    HW1 4999   2.889   2.638   1.005 -0.0373  0.1099 -0.6909
 1617SOL    HW2 5000   2.866   2.769   1.077  0.8627 -0.6259  0.9883
 1618SOL     OW 5001   2.132   1.237   0.629  0.3374 -0.1106  0.0706
 1618SOL    HW1 5002   2.089   1.172   0.685  0.4657 -0.6192 -0.4158
 1618SOL    HW2 5003   2.096   1.221   0.542  1.9609 -0.9769 -0.4884
 1619SOL     OW 5004   1.983   2.329   2.655  0.0175 -0.3708 -0.0115
 1619SOL    HW1 5005   1.943   2.405   2.612 -1.8296 -0.4419  1.4358
 1619SOL    HW2 5006   1.961   2.255   2.598 -1.4508 -0.3170  0.4473
 1620SOL     OW 5007   1.626   3.731   2.245  0.2129 -0.5062 -0.2653
 1620SOL    HW1 5008   1.711   3.710   2.284 -0.3379  0.0282  1.3183
 1620SOL    HW2 5009   1.597   3.648   2.207  0.3885 -1.3449  1.3170
 1621SOL     OW 5010   2.630   2.607   1.374  0.3809 -0.3985 -0.2749
 1621SOL    HW1 5011   2.694   2.539   1.353  1.0499  0.5338 -1.3417
 1621SOL    HW2 5012   2.609   2.648   1.290  0.3496  1.0114  0.3942
 1622SOL     OW 5013   0.302   1.506   1.513  0.1804  0.1992  0.5736
 1622SOL    HW1 5014   0.290   1.582   1.456 -1.3836 -0.5957 -0.2550
 1622SOL    HW2 5015   0.232   1.513   1.578 -0.1054 -0.6112  0.3720
 1623SOL     OW 5016   2.054   1.395   2.043  0.1613 -0.1781  0.6353
 1623SOL    HW1 5017   1.958   1.396   2.044  0.1580  0.5570  1.3484
 1623SOL    HW2 5018   2.077   1.313   2.086 -0.1641  0.0347  1.2410
 1624SOL     OW 5019   0.552   3.513   3.616  0.3476  0.0492 -0.1175
 1624SOL    HW1 5020   0.468   3.482   3.584 -0.1898  0.6756  0.6541
 1624SOL    HW2 5021   0.530   3.585   3.675  1.5003  1.3695 -1.2232
 1625SOL     OW 5022   2.823   3.736   2.963  0.0817 -0.3228  0.4314
 1625SOL    HW1 5023   2.734   3.736   2.997 -0.7721 -0.9664 -1.6280
 1625SOL    HW2 5024   2.816   3.691   2.879  1.8170  2.0445 -1.1063
 1626SOL     OW 5025   3.087   2.632   1.233  0.4710  0.1294 -0.7352
 1626SOL    HW1 5026   3.064   2.669   1.318  1.1339  0.4719 -0.7027
 1626SOL    HW2 5027   3.036   2.683   1.170  1.1559  0.9080 -0.6683
 1627SOL     OW 5028   3.287   1.268   1.360 -0.1782 -0.0067  0.1854
 1627SOL    HW1 5029   3.293   1.173   1.369  0.4403 -0.3456 -2.8333
 1627SOL    HW2 5030   3.377   1.298   1.373 -0.7149  0.5245  3.4210
 1628SOL     OW 5031   1.508   2.522   2.539  0.3956  0.1758 -0.2927
 1628SOL    HW1 5032   1.480   2.502   2.629  0.9548 -1.9948 -0.5423
 1628SOL    HW2 5033   1.492   2.441   2.490  1.2249  0.9203 -1.8731
 1629SOL     OW 5034   2.905   1.738   3.334 -0.0569  0.1306  0.1976
 1629SOL    HW1 5035   2.943   1.698   3.412 -0.3883  0.6243  0.6197
 1629SOL    HW2 5036   2.817   1.702   3.330  0.5017 -1.1959 -0.9137
 1630SOL     OW 5037   3.165   1.429   2.547 -0.2393 -0.0011  0.4960
 1630SOL    HW1 5038   3.173   1.340   2.514 -1.8242 -0.1487  0.4015
 1630SOL    HW2 5039   3.124   1.419   2.633  1.6284  0.5319  1.4999
 1631SOL     OW 5040   1.159   1.547   2.382  0.6023 -0.0338  0.0438
 1631SOL    HW1 5041   1.238   1.539   2.435  1.9657  2.2387 -1.4418
 1631SOL    HW2 5042   1.087   1.526   2.441  2.2338 -0.9938  1.7803
 1632SOL     OW 5043   3.254   3.602   0.319 -0.2756  0.0818  0.6340
 1632SOL    HW1 5044   3.209   3.660   0.259  0.6555 -1.9015 -2.2056
 1632SOL    HW2 5045   3.330   3.652   0.349 -1.4331  1.5476  1.2207
 1633SOL     OW 5046   2.509   0.859   1.289 -0.0224 -0.2195  0.2612
 1633SOL    HW1 5047   2.575   0.842   1.356 -2.1258 -1.1776  2.2180
 1633SOL    HW2 5048   2.461   0.936   1.320 -0.5222 -0.1786 -0.5623
 1634SOL     OW 5049   3.004   1.461   0.165 -0.7235  0.5493  0.5515
 1634SOL    HW1 5050   3.047   1.405   0.100 -0.6659  1.4384 -0.1912
 1634SOL    HW2 5051   3.061   1.455   0.242  0.6019  1.4797 -0.3218
 1635SOL     OW 5052   3.288   0.974   1.385 -0.2745 -0.4048 -0.6310
 1635SOL    HW1 5053   3.343   0.900   1.359  0.1317  0.2816 -1.7814
 1635SOL    HW2 5054   3.256   0.950   1.472 -1.3306 -2.5833 -1.5544
 1636SOL     OW 5055   2.607   0.359   3.380 -0.0366  0.2693  0.5428
 1636SOL    HW1 5056   2.628   0.266   3.397 -0.7745 -0.2874 -1.3946
 1636SOL    HW2 5057   2.540   0.380   3.446 -3.0232 -1.8890 -1.5221
 1637SOL     OW 5058   3.581   0.241   1.576  0.5867  0.6980 -0.2585
 1637SOL    HW1 5059   3.571   0.178   1.504 -1.4711  1.2167 -0.4866
 1637SOL    HW2 5060   3.553   0.192   1.654  3.1408  0.0256  0.3242
 1638SOL     OW 5061   2.385   3.255   2.112  0.8037 -0.5976  0.3839
 1638SOL    HW1 5062   2.343   3.231   2.030  1.2179 -1.8810  0.5165
 1638SOL    HW2 5063   2.313   3.265   2.174  0.3656  1.7474 -0.3995
 1639SOL     OW 5064   0.231   1.062   0.361  0.1387  0.3293 -0.2346
 1639SOL    HW1 5065   0.235   1.130   0.294 -3.4955  0.2844 -0.6715
 1639SOL    HW2 5066   0.296   1.089   0.427  0.4803  2.9036 -1.5076
 1640SOL     OW 5067   3.682   3.112   3.496  0.4037 -0.1645  0.3768
 1640SOL    HW1 5068   3.694   3.053   3.570  1.9431  1.6517  1.6608
 1640SOL    HW2 5069   3.700   3.199   3.531  1.3726  0.7530 -2.1461
 1641SOL     OW 5070   1.870   1.323   0.086 -0.0558  0.4814 -0.7432
 1641SOL    HW1 5071   1.902   1.399   0.037  0.3062  0.9512  0.1968
 1641SOL    HW2 5072   1.906   1.248   0.039 -1.9263  0.7654 -2.7864
 1642SOL     OW 5073   1.091   0.978   1.376 -0.9673 -0.0475 -0.4506
 1642SOL    HW1 5074   1.036   0.922   1.321  0.7043 -0.1499 -2.1363
 1642SOL    HW2 5075   1.170   0.927   1.392 -0.7472  0.6123  0.7346
 1643SOL     OW 5076   3.424   3.479   0.635  0.3627  0.0437  0.7735
 1643SOL    HW1 5077   3.475   3.486   0.716 -1.6570  1.1026  2.0223
 1643SOL    HW2 5078   3.333   3.477   0.664 -0.3654 -1.2704 -1.4057
 1644SOL     OW 5079   2.528   3.210   0.859 -0.0061  0.4037 -0.5112
 1644SOL    HW1 5080   2.482   3.294   0.860 -0.3010  0.2411 -0.0619
 1644SOL    HW2 5081   2.478   3.157   0.796  0.0538  0.4920 -0.6344
 1645SOL     OW 5082   2.760   0.551   0.893  0.3585  0.4866 -0.2019
 1645SOL    HW1 5083   2.747   0.496   0.970 -1.4802  0.4527 -0.5006
 1645SOL    HW2 5084   2.718   0.634   0.914  0.1489  0.6019 -1.0230
 1646SOL     OW 5085   2.150   1.005   2.896 -0.2686 -0.2227 -0.0581
 1646SOL    HW1 5086   2.101   0.972   2.821  0.3679  1.1937 -1.1560
 1646SOL    HW2 5087   2.240   1.010   2.865  0.2588 -0.9253  1.2832
 1647SOL     OW 5088   2.787   0.291   2.262  0.0946  0.1413 -0.2111
 1647SOL    HW1 5089   2.750   0.336   2.187  0.5998 -0.3016 -0.7359
 1647SOL    HW2 5090   2.877   0.269   2.235  0.2729 -0.0401  0.5085
 1648SOL     OW 5091   3.554   0.522   1.287  0.2904 -0.3600  0.8211
 1648SOL    HW1 5092   3.473   0.471   1.287  1.2127 -1.8522  0.0471
 1648SOL    HW2 5093   3.596   0.502   1.204  1.7668 -0.0915  1.4748
 1649SOL     OW 5094   0.327   1.033   2.614  0.0862 -0.4378  0.6167
 1649SOL    HW1 5095   0.286   1.075   2.538  0.9573 -0.3473  0.1856
 1649SOL    HW2 5096   0.313   1.095   2.686  1.5447  0.7264 -0.0523
 1650SOL     OW 5097   1.689   2.373   0.449  0.1596 -0.2250 -0.0949
 1650SOL    HW1 5098   1.604   2.347   0.413  0.2934 -0.9277  0.0829
 1650SOL    HW2 5099   1.737   2.409   0.375 -0.1949 -0.0830 -0.2566
 1651SOL     OW 5100   2.204   0.085   2.845 -0.0849  0.5328 -0.5436
 1651SOL    HW1 5101   2.282   0.052   2.800  0.4407  1.8520 -0.6568
 1651SOL    HW2 5102   2.135   0.081   2.779  0.2747  0.8477 -0.9474
 1652SOL     OW 5103   0.677   2.645   0.436 -0.1056 -0.0831  0.2069
 1652SOL    HW1 5104   0.659   2.596   0.516  1.3449 -1.1937 -0.1048
 1652SOL    HW2 5105   0.749   2.598   0.395  0.2450  1.3909 -0.9523
 1653SOL     OW 5106   1.147   0.722   2.224  0.0002 -0.2630  0.3834
 1653SOL    HW1 5107   1.230   0.678   2.243  0.0248  0.5217  2.2976
 1653SOL    HW2 5108   1.081   0.653   2.231  0.1354 -0.2458  2.4596
 1654SOL     OW 5109   1.987   2.634   1.711  0.8719  0.6177 -0.2211
 1654SOL    HW1 5110   1.953   2.550   1.682  1.5892  0.0480  0.5668
 1654SOL    HW2 5111   1.985   2.630   1.807 -0.9036  2.2368 -0.1117
 1655SOL     OW 5112   3.419   1.606   3.675  1.0695 -0.0776 -0.1646
 1655SOL    HW1 5113   3.502   1.560   3.690  0.9119 -0.3004  0.0463
 1655SOL    HW2 5114   3.370   1.548   3.616  1.2679  0.2987 -0.7028
 1656SOL     OW 5115   0.021   3.400   2.457  0.5987 -0.6514  0.3876
 1656SOL    HW1 5116   0.081   3.344   2.408  0.7903 -0.1551  0.0536
 1656SOL    HW2 5117   0.045   3.385   2.549  2.0993  0.4789  0.2194
 1657SOL     OW 5118   0.656   3.115   2.589  0.2398  0.0314  0.2021
 1657SOL    HW1 5119   0.746   3.085   2.579  0.7703  1.9066 -1.2308
 1657SOL    HW2 5120   0.664   3.197   2.638 -0.6903  0.2799 -0.0445
 1658SOL     OW 5121   1.955   0.789   3.118 -0.1681  0.5606  0.1451
 1658SOL    HW1 5122   1.971   0.881   3.141 -1.0439  1.2381 -1.6859
 1658SOL    HW2 5123   1.860   0.781   3.117 -0.0999 -0.6380  1.1331
 1659SOL     OW 5124   1.943   0.758   1.232 -0.1301 -0.0340 -0.1680
 1659SOL    HW1 5125   1.923   0.668   1.257  2.6710 -0.7609 -0.2160
 1659SOL    HW2 5126   2.038   0.760   1.221 -0.2072  2.6643 -1.2974
 1660SOL     OW 5127   2.161   3.169   1.400  0.4015  0.1390 -0.3205
 1660SOL    HW1 5128   2.174   3.120   1.481  0.4402  0.2003 -0.2901
 1660SOL    HW2 5129   2.197   3.112   1.331 -1.4361 -0.8281 -0.5502
 1661SOL     OW 5130  -0.015   0.774   3.324 -0.4802  0.2795  0.4180
 1661SOL    HW1 5131   0.068   0.734   3.299 -1.7352 -2.0255 -0.3933
 1661SOL    HW2 5132  -0.003   0.867   3.307  1.2453 -0.2487 -1.7917
 1662SOL     OW 5133   2.223   2.027   0.957 -0.1913  0.0706 -0.1680
 1662SOL    HW1 5134   2.205   1.935   0.936  0.0792 -0.4121  1.5740
 1662SOL    HW2 5135   2.140   2.072   0.940 -0.8831 -0.8283  0.7105
 1663SOL     OW 5136   0.453   0.196   1.366 -0.5764  0.0328  0.2090
 1663SOL    HW1 5137   0.477   0.250   1.441 -2.2980  1.2357 -0.0290
 1663SOL    HW2 5138   0.424   0.114   1.404 -0.4147  0.2445  0.7959
 1664SOL     OW 5139   0.838   1.092   1.535  0.3442  0.1439  0.0634
 1664SOL    HW1 5140   0.911   1.044   1.495  1.3013 -1.0750  3.0086
 1664SOL    HW2 5141   0.874   1.178   1.557  0.0766  0.4987 -0.8564
 1665SOL     OW 5142   1.576   2.813   0.284 -0.1552 -0.1306 -0.7338
 1665SOL    HW1 5143   1.537   2.879   0.227 -1.2884  0.2911  0.4947
 1665SOL    HW2 5144   1.526   2.733   0.266  1.3336 -0.7815 -2.3556
 1666SOL     OW 5145   0.418   1.285   1.615 -0.2501  0.1300 -0.4335
 1666SOL    HW1 5146   0.365   1.341   1.559  0.1065  0.7805 -0.1279
 1666SOL    HW2 5147   0.424   1.202   1.567  1.7832  1.3132 -2.3747
 1667SOL     OW 5148   2.552   2.046   0.496 -0.3886 -0.1607  0.1926
 1667SOL    HW1 5149   2.571   2.122   0.550  0.6474 -0.8051  0.7505
 1667SOL    HW2 5150   2.585   2.069   0.409 -0.0131  0.0035  0.3771
 1668SOL     OW 5151   0.607   1.067   0.613  0.4109  0.1134  0.4579
 1668SOL    HW1 5152   0.584   1.064   0.706 -2.5945 -2.7386 -0.1785
 1668SOL    HW2 5153   0.683   1.010   0.606 -1.8806 -3.2535  0.7893
 1669SOL     OW 5154   2.797   1.353   0.779 -0.2313  0.6842  0.4236
 1669SOL    HW1 5155   2.833   1.305   0.853  1.2111  1.5395  0.2989
 1669SOL    HW2 5156   2.757   1.431   0.818  0.1576  0.9257  0.3374
 1670SOL     OW 5157   1.524   1.818   1.573  0.3370 -0.0846  1.1373
 1670SOL    HW1 5158   1.430   1.806   1.577  0.3031  0.3911  1.9040
 1670SOL    HW2 5159   1.540   1.856   1.486 -0.1498 -0.3643  0.9248
 1671SOL     OW 5160   3.443   2.713   0.067  1.0161 -0.3005 -0.2487
 1671SOL    HW1 5161   3.354   2.715   0.033  0.1119 -3.5163  1.4736
 1671SOL    HW2 5162   3.435   2.738   0.159  2.1505  0.6418 -0.3735
 1672SOL     OW 5163   2.657   0.422   0.611 -0.2451 -0.5323  0.0694
 1672SOL    HW1 5164   2.738   0.430   0.560  0.7173 -0.4336  1.5455
 1672SOL    HW2 5165   2.682   0.449   0.700 -2.0685  0.1596  0.4212
 1673SOL     OW 5166   0.472   3.203   3.656  0.3184  0.0455 -0.2024
 1673SOL    HW1 5167   0.487   3.152   3.577 -0.2853  2.0673 -1.7108
 1673SOL    HW2 5168   0.407   3.269   3.630 -0.9879 -0.0989  2.3893
 1674SOL     OW 5169   2.353   1.449   0.508 -0.2544  0.0413 -0.1196
 1674SOL    HW1 5170   2.334   1.391   0.581 -0.5435  0.6575  0.3104
 1674SOL    HW2 5171   2.427   1.502   0.538 -0.1971  0.1103 -0.3804
 1675SOL     OW 5172   3.268   2.876   3.379  0.0783  1.0077  0.8158
 1675SOL    HW1 5173   3.356   2.839   3.387 -0.1002  0.3513 -0.1531
 1675SOL    HW2 5174   3.211   2.815   3.425  0.2226  1.9219  2.2858
 1676SOL     OW 5175   0.997   2.565   3.480 -0.3230 -0.1293  0.4123
 1676SOL    HW1 5176   1.048   2.521   3.548  3.5732  1.5809 -1.0866
 1676SOL    HW2 5177   1.034   2.534   3.398 -1.7527  1.2415 -0.8216
 1677SOL     OW 5178   0.571   2.824   1.188 -0.4021  0.2876  0.1334
 1677SOL    HW1 5179   0.646   2.874   1.156 -1.0120  0.5128 -1.0116
 1677SOL    HW2 5180   0.495   2.880   1.170 -0.9637 -0.4505  0.1254
 1678SOL     OW 5181   1.182   3.420   0.472  0.5938 -0.8445  0.2639
 1678SOL    HW1 5182   1.168   3.414   0.566 -1.1180 -0.1595  0.0785
 1678SOL    HW2 5183   1.159   3.333   0.439 -1.4266 -0.3268  0.2061
 1679SOL     OW 5184   2.051   3.691   3.408  0.6123 -0.4515 -0.7071
 1679SOL    HW1 5185   1.982   3.695   3.341  1.8151  2.3041 -1.9560
 1679SOL    HW2 5186   2.078   3.599   3.409 -0.2467 -0.8152 -3.2375
 1680SOL     OW 5187   2.779   2.094   1.839 -0.2568 -0.6718  0.8932
 1680SOL    HW1 5188   2.687   2.119   1.839 -0.1750 -0.3642  0.2055
 1680SOL    HW2 5189   2.781   2.009   1.796 -0.0660 -0.0712 -0.3172
 1681SOL     OW 5190   0.998   1.283   1.729 -0.7142  0.2927 -0.0527
 1681SOL    HW1 5191   0.945   1.355   1.764 -1.3779  0.5785 -1.5526
 1681SOL    HW2 5192   1.021   1.230   1.805 -0.2588  2.0517  1.0749
 1682SOL     OW 5193   1.881   3.118   3.505  0.4435  0.0026 -0.3513
 1682SOL    HW1 5194   1.827   3.179   3.455  0.4797 -0.6992 -1.2855
 1682SOL    HW2 5195   1.831   3.036   3.503  1.2794 -0.5149 -0.7821
 1683SOL     OW 5196   0.224   2.001   0.438  0.0507 -0.7112  0.3751
 1683SOL    HW1 5197   0.264   1.944   0.373 -0.4599 -2.1516  1.2831
 1683SOL    HW2 5198   0.265   1.976   0.521 -0.7484 -0.3095  0.9092
 1684SOL     OW 5199   3.641   2.445   2.429  0.1140  0.1896  0.3759
 1684SOL    HW1 5200   3.610   2.535   2.425 -0.7025  0.0428  2.2954
 1684SOL    HW2 5201   3.597   2.401   2.356  0.7599  1.3677 -0.7705
 1685SOL     OW 5202   2.092   2.484   0.138  0.2702  0.7491  0.1277
 1685SOL    HW1 5203   2.092   2.392   0.166 -2.5159 -0.5807 -3.3843
 1685SOL    HW2 5204   2.180   2.499   0.104  0.7109 -0.7488  0.5116
 1686SOL     OW 5205   0.807   0.588   1.127 -0.0714  0.1169  0.5624
 1686SOL    HW1 5206   0.844   0.583   1.039  1.2697  1.1920  1.0375
 1686SOL    HW2 5207   0.780   0.498   1.146 -2.5567  0.2157 -1.7900
 1687SOL     OW 5208   2.656   1.832   0.868  0.1395 -0.7164 -0.5385
 1687SOL    HW1 5209   2.632   1.925   0.862  0.8859 -0.3670  1.2630
 1687SOL    HW2 5210   2.576   1.789   0.898  0.5636 -0.1373  1.6400
 1688SOL     OW 5211   0.377   2.198   3.375  0.6118  0.1358  0.6312
 1688SOL    HW1 5212   0.293   2.240   3.353 -0.3689 -2.1872 -0.3119
 1688SOL    HW2 5213   0.353   2.111   3.405  2.7550 -0.9816 -0.7041
 1689SOL     OW 5214   0.950   3.418   2.562 -0.4203  0.2126 -0.3765
 1689SOL    HW1 5215   1.042   3.420   2.589 -0.7560  0.9499  0.7915
 1689SOL    HW2 5216   0.950   3.370   2.479  1.0328  0.3354 -0.4684
 1690SOL     OW 5217   0.996   0.136   1.799 -0.0799  0.4330  0.7634
 1690SOL    HW1 5218   0.921   0.196   1.797  0.8159  1.5991 -1.7916
 1690SOL    HW2 5219   1.071   0.192   1.816  0.4347 -0.5081  1.7100
 1691SOL     OW 5220   1.870   2.129   1.682 -0.0885 -0.4396 -0.2655
 1691SOL    HW1 5221   1.844   2.037   1.678  0.0240 -0.5431  0.9958
 1691SOL    HW2 5222   1.962   2.126   1.709  0.0932  0.0312 -0.8187
 1692SOL     OW 5223   0.168   3.506   1.001  0.0162  0.5345 -0.1190
 1692SOL    HW1 5224   0.254   3.486   0.964  0.4661  0.5761  0.8686
 1692SOL    HW2 5225   0.180   3.588   1.047 -0.8847  1.1931 -0.9991
 1693SOL     OW 5226   1.905   1.360   1.237 -0.2715  0.3209  0.3273
 1693SOL    HW1 5227   1.944   1.435   1.283  0.3436  0.4873 -0.4355
 1693SOL    HW2 5228   1.896   1.390   1.147 -3.7154  0.8872  0.7269
 1694SOL     OW 5229   0.864   0.544   2.672  0.2365  0.3541 -0.4371
 1694SOL    HW1 5230   0.879   0.630   2.633 -1.0738  0.3314 -1.0441
 1694SOL    HW2 5231   0.769   0.531   2.666  0.4156 -1.1482 -0.3895
 1695SOL     OW 5232   2.689   3.315   2.207 -0.1835 -0.1502 -0.1364
 1695SOL    HW1 5233   2.738   3.232   2.207  0.1120 -0.0203  1.7016
 1695SOL    HW2 5234   2.606   3.293   2.166  0.1295 -1.2109 -0.2460
 1696SOL     OW 5235   2.410   2.757   0.787 -0.7326  0.3141 -0.1016
 1696SOL    HW1 5236   2.383   2.824   0.724 -0.8954  0.7208  0.3964
 1696SOL    HW2 5237   2.429   2.680   0.733  0.5094  1.0694 -0.7985
 1697SOL     OW 5238   2.263   2.629   3.264  0.4067  0.1895 -0.6699
 1697SOL    HW1 5239   2.169   2.629   3.282 -0.1511 -3.3882 -2.5101
 1697SOL    HW2 5240   2.304   2.641   3.349 -1.6640  2.2276  0.1343
 1698SOL     OW 5241   3.685   1.207   2.793  0.1979 -0.1398  0.5619
 1698SOL    HW1 5242   3.602   1.161   2.775  0.2843  0.5338 -2.0204
 1698SOL    HW2 5243   3.667   1.257   2.872 -2.3974  1.0314 -0.6227
 1699SOL     OW 5244   1.269   0.704   1.607  0.5080  0.2044  0.5038
 1699SOL    HW1 5245   1.244   0.612   1.610  0.8860  0.0992  0.4913
 1699SOL    HW2 5246   1.306   0.721   1.694  0.2630  0.3928  0.5698
 1700SOL     OW 5247   2.285   1.007   0.572  0.4348 -0.7971  0.0455
 1700SOL    HW1 5248   2.368   0.995   0.525  1.2511  0.5419  1.0861
 1700SOL    HW2 5249   2.289   1.097   0.605 -3.3465  0.9707 -3.5454
 1701SOL     OW 5250   0.105   1.184   1.007 -0.0417  0.1347 -0.0977
 1701SOL    HW1 5251   0.178   1.190   0.945 -0.5133 -1.4888 -0.8409
 1701SOL    HW2 5252   0.147   1.191   1.093  0.5967  2.6471 -0.5318
 1702SOL     OW 5253   0.746   3.703   0.806 -0.4014 -0.0883  0.5460
 1702SOL    HW1 5254   0.685   3.694   0.879  0.6344  0.8330  1.5539
 1702SOL    HW2 5255   0.743   3.795   0.782 -0.7122 -0.3691 -0.6002
 1703SOL     OW 5256   0.681   1.626   3.130 -0.6108  0.6602 -0.4337
 1703SOL    HW1 5257   0.626   1.592   3.200 -1.4659  1.6221 -0.6152
 1703SOL    HW2 5258   0.727   1.700   3.170  0.9383 -0.4127 -0.1504
 1704SOL     OW 5259   0.640   2.596   2.396 -0.4275 -0.3931  0.0120
 1704SOL    HW1 5260   0.729   2.609   2.362 -0.4477 -1.9109 -0.6904
 1704SOL    HW2 5261   0.638   2.504   2.423 -0.9455  0.3232  2.6208
 1705SOL     OW 5262   3.110   3.645   1.660  0.0775 -0.2841  0.0000
 1705SOL    HW1 5263   3.102   3.580   1.591 -1.0737 -0.4313  0.2630
 1705SOL    HW2 5264   3.204   3.662   1.665  0.2036 -0.3405 -1.5307
 1706SOL     OW 5265   2.711   0.164   1.934  0.1636 -0.1341 -0.5334
 1706SOL    HW1 5266   2.674   0.192   1.850 -3.1778  2.6358  1.6065
 1706SOL    HW2 5267   2.667   0.082   1.954 -0.1573 -0.0281 -0.8004
 1707SOL     OW 5268   1.928   0.449   2.045  0.3877  0.1849 -0.4822
 1707SOL    HW1 5269   1.866   0.488   1.984 -2.8734 -1.7813  1.2890
 1707SOL    HW2 5270   1.927   0.506   2.121 -1.2737 -1.0929  0.5165
 1708SOL     OW 5271   0.242   3.485   0.196  0.0959  0.0350 -0.0587
 1708SOL    HW1 5272   0.305   3.556   0.184 -0.1333  0.3380  0.5028
 1708SOL    HW2 5273   0.227   3.481   0.290 -1.7973  0.9141 -0.2725
 1709SOL     OW 5274   1.143   3.054   0.655  0.1049 -0.4680  0.5140
 1709SOL    HW1 5275   1.146   3.127   0.718 -1.4136 -1.4133  1.7639
 1709SOL    HW2 5276   1.097   3.090   0.579 -0.6619 -0.1229  1.1295
 1710SOL     OW 5277   2.154   3.455   1.511  0.0818  0.4421  0.1619
 1710SOL    HW1 5278   2.211   3.446   1.587 -0.0408  0.8129  0.2991
 1710SOL    HW2 5279   2.152   3.368   1.472 -1.3230 -0.2221  1.6182
 1711SOL     OW 5280   3.464   0.341   2.248 -0.3840 -0.8440  0.1652
 1711SOL    HW1 5281   3.381   0.349   2.295 -0.0947  1.3014  0.4122
 1711SOL    HW2 5282   3.442   0.295   2.168 -2.4471  1.9421 -1.0454
 1712SOL     OW 5283   0.464   0.583   0.659 -0.2944  0.2635  0.3840
 1712SOL    HW1 5284   0.379   0.605   0.699 -0.3187 -1.6367  1.4830
 1712SOL    HW2 5285   0.526   0.642   0.703 -1.0456  2.0468 -0.8044
 1713SOL     OW 5286   2.213   3.466   2.830  0.2925  0.8748 -0.0425
 1713SOL    HW1 5287   2.176   3.378   2.826 -0.8791  1.3175  0.4932
 1713SOL    HW2 5288   2.292   3.457   2.883  0.1591  0.1665  0.0430
 1714SOL     OW 5289   3.427   0.192   3.652 -0.9485  0.6211 -0.2368
 1714SOL    HW1 5290   3.387   0.245   3.722 -1.0339  0.0336  0.1663
 1714SOL    HW2 5291   3.456   0.113   3.696 -3.0326 -0.7927 -1.2214
 1715SOL     OW 5292   2.201   1.342   2.822 -0.0514  0.6087 -0.2620
 1715SOL    HW1 5293   2.197   1.438   2.821  0.6613  0.6585  0.4484
 1715SOL    HW2 5294   2.111   1.314   2.805  0.0465  1.3652 -2.2819
 1716SOL     OW 5295   2.602   1.993   3.284 -0.2875 -0.3302 -0.1534
 1716SOL    HW1 5296   2.630   1.972   3.195  1.3241  0.1551  0.1934
 1716SOL    HW2 5297   2.647   2.076   3.304  1.0296 -1.4196  1.7815
 1717SOL     OW 5298   1.822   0.344   0.399  0.0611  0.1451  0.2143
 1717SOL    HW1 5299   1.852   0.426   0.360  1.8076 -0.5266  0.0873
 1717SOL    HW2 5300   1.783   0.295   0.327  0.5084  0.1831 -0.0560
 1718SOL     OW 5301   1.175   1.703   0.638  0.1488  0.2556  0.6468
 1718SOL    HW1 5302   1.116   1.651   0.694  1.5886 -2.6694 -0.3442
 1718SOL    HW2 5303   1.188   1.648   0.561  0.6436  2.8411 -1.2262
 1719SOL     OW 5304   0.115   1.142   1.552  0.0971  0.2955  0.2010
 1719SOL    HW1 5305   0.092   1.049   1.546  0.9518  0.1618 -1.8680
 1719SOL    HW2 5306   0.195   1.143   1.604  1.6536 -0.4948 -2.0315
 1720SOL     OW 5307   1.220   2.577   1.835 -0.4783  0.2591 -0.2514
 1720SOL    HW1 5308   1.225   2.604   1.743  0.5293 -0.2888 -0.3748
 1720SOL    HW2 5309   1.177   2.491   1.832  0.5905 -0.2931 -0.3468
 1721SOL     OW 5310   2.614   1.593   3.195 -0.0292 -0.1880  1.1073
 1721SOL    HW1 5311   2.589   1.511   3.238 -0.2280 -1.4408 -1.2378
 1721SOL    HW2 5312   2.547   1.655   3.222 -0.1809 -0.9184  2.5185
 1722SOL     OW 5313   2.941   1.159   0.086 -0.0472 -0.1023  0.3899
 1722SOL    HW1 5314   3.018   1.174   0.032 -1.3231 -0.2208 -1.5509
 1722SOL    HW2 5315   2.914   1.246   0.113  1.0759 -0.0958  1.6112
 1723SOL     OW 5316   1.732   1.553   1.460  0.3320 -0.3198  0.5368
 1723SOL    HW1 5317   1.724   1.470   1.411  0.2700  0.5888 -1.0795
 1723SOL    HW2 5318   1.643   1.569   1.492 -0.2911  0.3579 -1.3541
 1724SOL     OW 5319   1.830   3.142   2.962 -0.2780 -0.2973 -0.8427
 1724SOL    HW1 5320   1.865   3.066   3.007  0.2574 -0.4848 -1.5479
 1724SOL    HW2 5321   1.765   3.106   2.901 -2.2759  0.0968  0.9067
 1725SOL     OW 5322   1.015   1.679   0.217  0.5137 -0.3104 -0.2847
 1725SOL    HW1 5323   1.093   1.637   0.252  0.8631 -0.3987 -1.1330
 1725SOL    HW2 5324   1.037   1.771   0.211 -0.7200  0.3077  2.8520
 1726SOL     OW 5325   2.012   1.287   0.360 -0.2838 -0.2889  0.2868
 1726SOL    HW1 5326   1.955   1.319   0.290  1.6018  1.2976 -0.5940
 1726SOL    HW2 5327   2.044   1.365   0.404 -0.0846 -1.2062  1.8436
 1727SOL     OW 5328   1.992   2.721   1.460 -0.1595  0.4932 -0.3884
 1727SOL    HW1 5329   1.920   2.669   1.425 -0.0392  0.5063 -0.6627
 1727SOL    HW2 5330   1.985   2.712   1.555 -2.8954  3.5984 -0.1393
 1728SOL     OW 5331   3.039   2.775   1.937 -0.1606 -0.3821 -0.0217
 1728SOL    HW1 5332   3.085   2.774   1.852  0.1023  0.2559  0.1071
 1728SOL    HW2 5333   3.049   2.686   1.970  0.5987 -0.3833 -0.2169
 1729SOL     OW 5334   2.822   1.103   3.058  0.0898 -0.0625  0.0504
 1729SOL    HW1 5335   2.729   1.081   3.052  0.3569 -0.9297 -1.3572
 1729SOL    HW2 5336   2.863   1.055   2.985  1.2776  2.1915 -0.8663
 1730SOL     OW 5337   1.965   3.615   0.924  0.4503 -0.0699 -0.2851
 1730SOL    HW1 5338   2.014   3.610   0.842 -0.0116  0.5064 -0.6090
 1730SOL    HW2 5339   2.022   3.666   0.982  0.4888  0.1032 -0.4709
 1731SOL     OW 5340   3.294   2.572   3.485 -0.4002  0.3315  0.3101
 1731SOL    HW1 5341   3.282   2.569   3.390 -2.4839 -0.0094  0.5434
 1731SOL    HW2 5342   3.388   2.559   3.497 -0.4825 -3.2321 -1.5518
 1732SOL     OW 5343   2.011   1.058   3.104  0.1613 -0.2882  0.2420
 1732SOL    HW1 5344   1.979   1.148   3.096 -0.1584 -0.1846  2.1690
 1732SOL    HW2 5345   2.046   1.037   3.017 -1.0376  1.1836 -0.6442
 1733SOL     OW 5346   0.765   3.721   3.064  0.0139  0.3118  0.0985
 1733SOL    HW1 5347   0.766   3.638   3.017  1.0575  0.2177  0.2630
 1733SOL    HW2 5348   0.855   3.733   3.095  0.3180  2.2826 -1.3108
 1734SOL     OW 5349   1.425   0.684   0.594 -0.1106 -0.0365  0.2974
 1734SOL    HW1 5350   1.367   0.760   0.589  0.1667  0.0925 -2.7047
 1734SOL    HW2 5351   1.512   0.721   0.609 -0.2447  0.0378  0.9499
 1735SOL     OW 5352   3.314   0.461   3.157  0.1449  0.0956 -0.7544
 1735SOL    HW1 5353   3.327   0.429   3.247  0.2439 -1.0521 -1.1512
 1735SOL    HW2 5354   3.254   0.397   3.118 -1.0066  1.3385 -1.1144
 1736SOL     OW 5355   0.728   2.774   3.006  0.2661 -0.2165 -0.4555
 1736SOL    HW1 5356   0.765   2.844   3.059 -1.1104 -0.0720  0.3530
 1736SOL    HW2 5357   0.801   2.713   2.992  1.2802  0.9739 -0.5238
 1737SOL     OW 5358   3.309   2.471   0.360  0.5192  0.5775  0.0787
 1737SOL    HW1 5359   3.399   2.459   0.328  0.3552  1.9546 -1.0331
 1737SOL    HW2 5360   3.320   2.495   0.452  1.3219  0.8733 -0.0803
 1738SOL     OW 5361   3.494   0.965   1.126  0.3584 -0.0330  0.0137
 1738SOL    HW1 5362   3.462   1.019   1.054  1.5520 -0.2193 -0.6858
 1738SOL    HW2 5363   3.578   0.931   1.095 -0.3616 -2.3738  0.3828
 1739SOL     OW 5364   1.587   2.557   2.097 -0.3556 -0.0927 -0.5304
 1739SOL    HW1 5365   1.573   2.612   2.021  0.9248  0.9591 -0.0331
 1739SOL    HW2 5366   1.640   2.484   2.065  0.7253  0.6800 -0.5289
 1740SOL     OW 5367   1.556   2.537   0.630  0.2178  0.2432 -0.3866
 1740SOL    HW1 5368   1.524   2.618   0.591  0.7532  0.3960 -0.5220
 1740SOL    HW2 5369   1.600   2.492   0.558 -1.9218 -1.1929 -0.8746
 1741SOL     OW 5370   0.498   2.361   1.223 -0.1508  0.0096  0.5985
 1741SOL    HW1 5371   0.513   2.357   1.318  0.6915  0.8733  0.5144
 1741SOL    HW2 5372   0.564   2.422   1.191 -0.1800 -0.5572 -0.6013
 1742SOL     OW 5373   0.479   1.972  -0.001 -0.0523  0.6643  0.0640
 1742SOL    HW1 5374   0.525   2.019   0.068  1.9425 -0.6444 -0.2851
 1742SOL    HW2 5375   0.437   1.899   0.044  2.1425 -0.8247 -0.1253
 1743SOL     OW 5376   0.571   0.697   2.080 -0.0469  0.1044  0.5584
 1743SOL    HW1 5377   0.553   0.790   2.095 -0.8055  0.3021 -1.3195
 1743SOL    HW2 5378   0.656   0.682   2.122  1.9211  2.5733 -2.1039
 1744SOL     OW 5379   0.207   0.603   0.756  0.0251  0.0168 -0.0342
 1744SOL    HW1 5380   0.166   0.651   0.828 -0.0755 -0.6099  0.3388
 1744SOL    HW2 5381   0.155   0.626   0.679 -1.7439 -1.5843  0.6073
 1745SOL     OW 5382   0.968   1.289   0.102  0.1695  0.9248  0.3375
 1745SOL    HW1 5383   0.943   1.369   0.056 -0.3866 -0.0965 -1.2145
 1745SOL    HW2 5384   1.061   1.300   0.122  0.2439  1.6909 -0.4183
 1746SOL     OW 5385   1.975   2.281   3.303  0.4701 -0.1789  0.3126
 1746SOL    HW1 5386   1.937   2.352   3.251 -0.0305 -0.5902  0.1052
 1746SOL    HW2 5387   2.058   2.316   3.335 -0.2954  0.9005  1.1577
 1747SOL     OW 5388   1.417   1.481   1.774 -0.0904  0.1623 -0.4890
 1747SOL    HW1 5389   1.387   1.416   1.837 -1.2354  0.1361 -1.0513
 1747SOL    HW2 5390   1.344   1.542   1.764  0.9723  1.5906  0.0683
 1748SOL     OW 5391   3.389   1.165   0.027 -0.0486  0.0901  0.1447
 1748SOL    HW1 5392   3.432   1.082   0.009  0.3343  0.6508 -1.7773
 1748SOL    HW2 5393   3.426   1.195   0.111  2.7674  0.1770 -1.0224
 1749SOL     OW 5394   0.278   1.898   3.208  0.2196 -0.1853  0.1348
 1749SOL    HW1 5395   0.364   1.910   3.167 -0.0817 -2.2386 -1.2091
 1749SOL    HW2 5396   0.227   1.973   3.177  0.2785 -1.1796 -2.6557
 1750SOL     OW 5397   2.953   1.523   0.986  0.1108 -0.2986 -0.2450
 1750SOL    HW1 5398   2.964   1.594   0.923 -1.6009 -1.5993 -2.1279
 1750SOL    HW2 5399   2.859   1.505   0.986  0.3566 -1.7847  1.0644
 1751SOL     OW 5400   2.835   1.800   3.050  0.7469 -0.3384  0.0441
 1751SOL    HW1 5401   2.758   1.852   3.026 -0.7780 -2.4952 -0.0910
 1751SOL    HW2 5402   2.865   1.838   3.133 -0.2252  0.7885 -0.0922
 1752SOL     OW 5403   0.333   2.308  -0.038 -0.5971 -0.5567  0.5774
 1752SOL    HW1 5404   0.304   2.239   0.021  2.0893 -1.8132  0.5753
 1752SOL    HW2 5405   0.379   2.370   0.018 -1.7624  0.5395  0.3653
 1753SOL     OW 5406   3.059   2.786   2.221 -0.0789  0.3450  0.0172
 1753SOL    HW1 5407   2.979   2.830   2.248  1.0264  2.2550  0.3767
 1753SOL    HW2 5408   3.058   2.790   2.125 -0.7849 -0.4196 -0.0232
 1754SOL     OW 5409   1.233   0.174   3.417 -0.1916 -0.0535  0.0063
 1754SOL    HW1 5410   1.270   0.212   3.497 -0.8162 -1.2870  0.9048
 1754SOL    HW2 5411   1.260   0.235   3.348  2.9911 -0.5207  0.6528
 1755SOL     OW 5412   3.285   1.998   0.244 -0.0776 -0.0049  0.0488
 1755SOL    HW1 5413   3.206   2.050   0.258 -0.2107 -0.0233 -0.5762
 1755SOL    HW2 5414   3.355   2.045   0.289 -0.8455 -1.1952  2.6795
 1756SOL     OW 5415   0.144   2.015   0.081 -0.0535  0.2566 -0.0196
 1756SOL    HW1 5416   0.193   1.953   0.135  0.8080 -0.1186 -1.1906
 1756SOL    HW2 5417   0.073   1.963   0.043 -0.2119  0.3427  0.1568
 1757SOL     OW 5418   1.598   3.165   1.073 -0.2039  0.4116  0.0464
 1757SOL    HW1 5419   1.580   3.244   1.023 -0.6961  0.4844  0.3288
 1757SOL    HW2 5420   1.643   3.107   1.012 -1.6396  0.1202 -0.7841
 1758SOL     OW 5421   2.368   0.921   2.589 -0.7516 -0.5088  1.1244
 1758SOL    HW1 5422   2.402   0.984   2.653  2.1445  0.0186 -0.7326
 1758SOL    HW2 5423   2.429   0.847   2.596 -0.9917 -0.8557 -0.3227
 1759SOL     OW 5424   3.208   0.190   3.134  0.2593  0.1367 -0.4189
 1759SOL    HW1 5425   3.237   0.163   3.221  0.4360 -0.1339 -0.5582
 1759SOL    HW2 5426   3.112   0.188   3.139  0.2145 -2.2940 -0.9266
 1760SOL     OW 5427   0.226   3.214   0.737  0.1499  0.3932 -0.4805
 1760SOL    HW1 5428   0.231   3.143   0.673 -3.3883  0.0602 -0.5826
 1760SOL    HW2 5429   0.290   3.191   0.804  0.1627 -2.1026 -1.2491
 1761SOL     OW 5430   1.044   3.310   3.347 -0.2244  0.0725 -0.1027
 1761SOL    HW1 5431   1.135   3.308   3.318  0.0214  0.5684  0.5965
 1761SOL    HW2 5432   1.042   3.376   3.417 -1.2064  0.3900 -0.4037
 1762SOL     OW 5433   3.282   0.112   1.389 -0.0807  0.5528 -0.1930
 1762SOL    HW1 5434   3.203   0.137   1.436 -0.1380  0.5242 -0.2730
 1762SOL    HW2 5435   3.305   0.026   1.425  0.4384  0.9650  0.4839
 1763SOL     OW 5436   2.875   3.125   1.506  0.3822 -0.1310  0.0790
 1763SOL    HW1 5437   2.946   3.153   1.564  0.8109  0.3470 -0.6584
 1763SOL    HW2 5438   2.856   3.202   1.452 -0.5786 -0.3117  0.1481
 1764SOL     OW 5439   2.444   1.154   1.879  0.1622  0.1701 -0.5819
 1764SOL    HW1 5440   2.420   1.243   1.904  1.0859  0.7375 -1.5917
 1764SOL    HW2 5441   2.370   1.123   1.827 -1.2922 -0.6344  1.8632
 1765SOL     OW 5442   1.429   2.480   3.215 -0.7113 -0.0849  0.3099
 1765SOL    HW1 5443   1.511   2.443   3.248 -0.1177  0.6963 -0.2836
 1765SOL    HW2 5444   1.367   2.407   3.220 -1.0762  0.2408  4.4620
   3.74560   3.74560   3.74560
