Protein in water
 5440
    0TYR      N    1   2.056   2.441   2.437 -0.2672 -0.5973 -0.2005
    0TYR     H1    2   2.028   2.343   2.417  1.7921 -0.9215 -1.8958
    0TYR     H2    3   1.982   2.505   2.472 -0.5784 -0.9595 -0.1934
    0TYR     H3    4   2.131   2.436   2.510 -1.1876  1.8541  0.9914
    0TYR     CA    5   2.104   2.499   2.308  0.6999 -0.2113  0.0332
    0TYR     HA    6   2.140   2.420   2.244 -0.1148 -0.4051 -0.1933
    0TYR     CB    7   1.971   2.555   2.236  0.3155  0.4145  0.2084
    0TYR    HB1    8   1.936   2.632   2.308 -0.0332  0.4367  0.0147
    0TYR    HB2    9   1.899   2.473   2.215  2.2253 -0.6659 -2.7483
    0TYR     CG   10   2.009   2.613   2.099 -0.2683 -1.8095 -0.7665
    0TYR    CD1   11   1.992   2.754   2.082  1.4076  0.5805  0.5787
    0TYR    HD1   12   1.925   2.804   2.151  2.3746 -1.2845  3.0477
    0TYR    CE1   13   2.039   2.818   1.968  0.1029 -0.0637 -1.0054
    0TYR    HE1   14   2.034   2.926   1.964 -0.4623  0.2491  3.2706
    0TYR     CZ   15   2.123   2.752   1.883 -0.6932  0.2719  0.5781
    0TYR     OH   16   2.161   2.802   1.754 -0.1949 -0.1658  0.5627
    0TYR     HH   17   2.083   2.829   1.704  1.6054 -1.1587 -3.2036
    0TYR    CD2   18   2.082   2.544   2.005  0.5600  0.3304 -0.6112
    0TYR    HD2   19   2.091   2.437   2.017 -1.0531  0.1136 -1.0289
    0TYR    CE2   20   2.138   2.611   1.895  0.9592 -0.3660  0.4711
    0TYR    HE2   21   2.202   2.551   1.831  2.9962  0.6708  1.4365
    0TYR      C   22   2.216   2.610   2.329  0.0331  0.4748  0.3854
    0TYR      O   23   2.338   2.589   2.317 -0.0226 -0.3821 -0.0683
    1TYR      N   24   2.177   2.741   2.366 -0.1272 -0.0522 -0.3940
    1TYR     HN   25   2.087   2.761   2.404 -0.5942  0.3142 -1.6341
    1TYR     CA   26   2.266   2.857   2.368  0.2609 -1.0463 -0.1390
    1TYR     HA   27   2.364   2.818   2.389  0.0749 -2.2670 -1.3603
    1TYR     CB   28   2.291   2.908   2.219  0.4626 -0.1122 -1.0433
    1TYR    HB1   29   2.190   2.935   2.182 -0.2596 -0.3792  0.6275
    1TYR    HB2   30   2.326   2.826   2.153 -1.4982 -0.4218 -1.7330
    1TYR     CG   31   2.380   3.029   2.193  0.0213  0.1024 -0.0443
    1TYR    CD1   32   2.523   3.013   2.215  0.3871  0.3835 -0.2119
    1TYR    HD1   33   2.563   2.921   2.256  0.9782 -0.5335 -2.6649
    1TYR    CE1   34   2.604   3.127   2.204  0.1502  0.5649  0.2545
    1TYR    HE1   35   2.712   3.118   2.209  0.0297 -1.1466  0.2096
    1TYR     CZ   36   2.548   3.254   2.169 -0.0631  0.2142 -0.1306
    1TYR     OH   37   2.627   3.373   2.135  0.2498  0.0125 -0.3736
    1TYR     HH   38   2.567   3.421   2.078 -1.8036 -3.4143 -1.4022
    1TYR    CD2   39   2.331   3.158   2.159  0.1768  0.5573 -0.6742
    1TYR    HD2   40   2.225   3.182   2.162 -0.1641 -0.9150  0.3602
    1TYR    CE2   41   2.417   3.258   2.137  0.4118  0.4809  0.0298
    1TYR    HE2   42   2.375   3.355   2.115  0.0512  0.7898  1.8513
    1TYR      C   43   2.218   2.957   2.465 -0.0885  0.3176 -0.2835
    1TYR      O   44   2.095   2.974   2.472  0.4566 -0.1040 -0.2096
    2MET      N   45   2.302   3.025   2.545 -0.2520 -0.4433  0.2097
    2MET     HN   46   2.401   3.012   2.544  0.3494  3.1294  0.8020
    2MET     CA   47   2.250   3.135   2.617  0.0406 -0.3161 -0.5042
    2MET     HA   48   2.143   3.117   2.624  0.3647 -2.7643 -0.9898
    2MET     CB   49   2.303   3.128   2.767  0.1928  0.1629 -0.0481
    2MET    HB1   50   2.413   3.137   2.764  0.2655  0.6318  2.2617
    2MET    HB2   51   2.286   3.029   2.815 -1.2214 -0.2341 -1.2760
    2MET     CG   52   2.259   3.232   2.865  0.9951  0.2554 -0.1847
    2MET    HG1   53   2.288   3.190   2.963 -2.1728 -2.2457 -0.1575
    2MET    HG2   54   2.309   3.329   2.884  0.7305  0.2092  0.7751
    2MET     SD   55   2.073   3.236   2.878  0.2151  0.2330 -0.2439
    2MET     CE   56   2.089   3.321   3.038  0.2170  0.2333 -0.0895
    2MET    HE1   57   2.150   3.414   3.032  1.5659 -0.3643  2.6673
    2MET    HE2   58   1.989   3.345   3.080  0.1311 -0.8556  0.3676
    2MET    HE3   59   2.142   3.257   3.112  1.8762 -1.2112 -2.3938
    2MET      C   60   2.292   3.270   2.564  0.2532 -0.0775  0.4266
    2MET      O   61   2.411   3.303   2.581 -0.8389 -0.0310  0.0993
    3PRO      N   62   2.205   3.343   2.498  0.3787  0.0550  0.1878
    3PRO     CD   63   2.064   3.314   2.482 -0.2525  0.2409 -0.2095
    3PRO    HD1   64   2.054   3.220   2.425  1.2271 -0.0079 -0.1117
    3PRO    HD2   65   2.021   3.302   2.584  0.1466  1.3559  0.1150
    3PRO     CA   66   2.252   3.449   2.416 -0.0493  0.4827 -0.7752
    3PRO     HA   67   2.333   3.421   2.350 -0.6947 -2.6509 -0.3997
    3PRO     CB   68   2.130   3.489   2.324 -0.5086 -0.1777  0.5709
    3PRO    HB1   69   2.116   3.424   2.235  1.7983 -0.3646  0.2898
    3PRO    HB2   70   2.124   3.597   2.298 -0.1218 -0.3770 -0.3906
    3PRO     CG   71   2.007   3.438   2.408  0.5958 -0.7324  0.2835
    3PRO    HG1   72   1.922   3.401   2.346 -0.5744 -0.2326  1.5579
    3PRO    HG2   73   1.958   3.514   2.472 -1.4236  0.5657 -2.5709
    3PRO      C   74   2.298   3.571   2.487  0.2499  0.8480  0.2556
    3PRO      O   75   2.367   3.648   2.424  0.2101  0.1540  0.0524
    4GLU      N   76   2.270   3.581   2.615 -0.6130 -0.2381 -0.0862
    4GLU     HN   77   2.211   3.509   2.651 -1.1232  0.0933 -0.2467
    4GLU     CA   78   2.310   3.685   2.711 -0.2617  0.3845 -0.3490
    4GLU     HA   79   2.300   3.773   2.650  1.1236 -1.1894 -3.0348
    4GLU     CB   80   2.221   3.674   2.841 -1.4544 -0.1433 -0.2547
    4GLU    HB1   81   2.232   3.572   2.883  1.1806  0.1347 -0.0709
    4GLU    HB2   82   2.117   3.676   2.803 -1.5347 -0.7723 -0.0811
    4GLU     CG   83   2.245   3.782   2.942 -0.1618  0.2425 -0.2996
    4GLU    HG1   84   2.248   3.881   2.891 -0.6033  0.3745 -0.0687
    4GLU    HG2   85   2.340   3.761   2.996 -1.2388 -0.1262  1.5337
    4GLU     CD   86   2.125   3.783   3.040  0.6425  0.1794  0.5813
    4GLU    OE1   87   2.007   3.767   2.999  0.0493  0.2315 -0.1997
    4GLU    OE2   88   2.153   3.778   3.161  0.1344 -0.1086 -0.1683
    4GLU      C   89   2.458   3.667   2.738  0.0060  0.6436 -0.2441
    4GLU      O   90   2.523   3.767   2.759  0.3898  0.5273 -0.3950
    5THR      N   91   2.513   3.546   2.752 -0.5761  0.5871 -0.2821
    5THR     HN   92   2.463   3.460   2.746 -0.5536  0.4901  0.7970
    5THR     CA   93   2.646   3.518   2.787 -0.0639  0.2429 -0.1438
    5THR     HA   94   2.690   3.613   2.815 -0.0432 -0.8932  4.5965
    5THR     CB   95   2.670   3.426   2.904  0.1747  0.3721  0.0700
    5THR     HB   96   2.776   3.421   2.936 -0.3883  0.0537  2.0390
    5THR    OG1   97   2.619   3.287   2.878 -0.3231 -0.3881  0.2483
    5THR    HG1   98   2.653   3.234   2.951  1.5398 -3.1996 -2.4149
    5THR    CG2   99   2.590   3.494   3.017 -0.0468  0.0807  0.5843
    5THR   HG21  100   2.619   3.439   3.109  0.8800 -0.6928 -0.1513
    5THR   HG22  101   2.479   3.492   3.009  0.0373  1.2593 -1.7125
    5THR   HG23  102   2.615   3.601   3.029  1.1640 -0.2277  1.0131
    5THR      C  103   2.731   3.468   2.675  0.4114 -0.5921 -0.6252
    5THR      O  104   2.853   3.494   2.686  0.8460  0.1152  0.3489
    6GLY      N  105   2.679   3.392   2.574  0.1129 -0.1605 -0.2377
    6GLY     HN  106   2.583   3.365   2.576 -0.1900  0.9370  1.6785
    6GLY     CA  107   2.779   3.349   2.474 -0.0137 -0.0781 -0.4742
    6GLY    HA1  108   2.865   3.414   2.468  0.2667 -0.3834  0.1085
    6GLY    HA2  109   2.724   3.347   2.381 -0.8202  0.6218 -0.0257
    6GLY      C  110   2.823   3.206   2.501 -0.3424 -0.8503 -1.0184
    6GLY      O  111   2.908   3.161   2.433 -0.8532 -0.2308  0.6082
    7THR      N  112   2.763   3.141   2.601 -0.0004  0.5175 -0.0614
    7THR     HN  113   2.684   3.182   2.647  0.4002 -0.6551  1.7540
    7THR     CA  114   2.784   3.007   2.629  0.2705 -0.2733  0.4930
    7THR     HA  115   2.884   2.986   2.594  1.5270  4.4552  0.6428
    7THR     CB  116   2.780   2.983   2.780  0.4589 -0.1076  0.2385
    7THR     HB  117   2.674   2.988   2.813 -0.4062 -1.4954 -2.0958
    7THR    OG1  118   2.852   3.081   2.850  0.0973 -0.2634 -0.5511
    7THR    HG1  119   2.868   3.046   2.938  0.3861  2.5215  0.6058
    7THR    CG2  120   2.847   2.852   2.798 -0.0949 -0.2757  0.4643
    7THR   HG21  121   2.956   2.860   2.780 -0.2707 -0.5150 -0.8492
    7THR   HG22  122   2.803   2.767   2.741  1.4999 -1.4040  0.8453
    7THR   HG23  123   2.832   2.829   2.905 -0.3266  0.7293  0.6587
    7THR      C  124   2.686   2.909   2.558 -0.0858  0.8949 -0.1897
    7THR      O  125   2.566   2.914   2.572  0.5924  0.6661  0.0314
    8TRP      N  126   2.745   2.822   2.469  0.5691 -0.5091 -0.5666
    8TRP     HN  127   2.844   2.825   2.455  0.3996 -1.0260 -2.0401
    8TRP     CA  128   2.688   2.703   2.417 -0.3931 -0.0930  0.9431
    8TRP     HA  129   2.589   2.731   2.384 -0.1835 -0.9967 -0.5674
    8TRP     CB  130   2.771   2.646   2.295  0.2471 -0.6836 -0.4644
    8TRP    HB1  131   2.718   2.562   2.243 -2.5407  1.6361 -1.6389
    8TRP    HB2  132   2.867   2.607   2.334 -0.9999 -1.6155  1.8505
    8TRP     CG  133   2.792   2.752   2.188 -0.9426  0.9450  0.5741
    8TRP    CD1  134   2.895   2.838   2.165 -0.0507 -0.0414 -0.1565
    8TRP    HD1  135   2.980   2.848   2.231 -0.5212 -0.8423  0.5871
    8TRP    NE1  136   2.876   2.895   2.040  0.3861 -0.7294 -1.0191
    8TRP    HE1  137   2.933   2.961   1.996  0.1700 -0.2416 -0.5800
    8TRP    CE2  138   2.760   2.852   1.989  0.5311 -0.5393  0.2280
    8TRP    CD2  139   2.701   2.766   2.077 -0.3199  0.4051  0.4028
    8TRP    CE3  140   2.584   2.702   2.044  0.0083 -0.0608 -0.1431
    8TRP    HE3  141   2.534   2.634   2.111 -2.0773 -0.4306 -1.9705
    8TRP    CZ3  142   2.517   2.736   1.922  0.4167 -0.4564  0.2265
    8TRP    HZ3  143   2.427   2.684   1.895 -0.0396  0.9316 -1.1292
    8TRP    CZ2  144   2.689   2.896   1.871 -0.2374 -0.0158 -1.0843
    8TRP    HZ2  145   2.720   2.981   1.813 -1.7480  0.7492 -0.8278
    8TRP    CH2  146   2.565   2.838   1.840 -0.0863  0.8715 -0.4365
    8TRP    HH2  147   2.510   2.859   1.750 -0.5859  1.0634 -0.0874
    8TRP      C  148   2.676   2.587   2.515 -0.0729  0.4382 -0.3399
    8TRP      O  149   2.774   2.542   2.570 -0.6293 -0.5667  0.5263
    9TYR      N  150   2.546   2.552   2.541 -0.2247 -0.5156  0.5734
    9TYR     HN  151   2.466   2.579   2.488 -0.2174 -0.0539  0.7934
    9TYR     CA  152   2.504   2.457   2.648  0.3155 -0.5663  0.5291
    9TYR     HA  153   2.564   2.368   2.640  0.4285 -0.7151  2.5849
    9TYR     CB  154   2.517   2.530   2.786 -0.5080 -0.5859 -0.2414
    9TYR    HB1  155   2.451   2.618   2.799  2.0168  1.2595  1.0161
    9TYR    HB2  156   2.620   2.571   2.791 -1.2042  1.3913 -1.0758
    9TYR     CG  157   2.491   2.435   2.897  0.0450 -0.4155  1.0522
    9TYR    CD1  158   2.559   2.315   2.903  0.2485  0.0341  0.1163
    9TYR    HD1  159   2.636   2.282   2.835  1.0301 -1.8158  1.7834
    9TYR    CE1  160   2.526   2.220   3.005  0.6290 -0.0215  0.7153
    9TYR    HE1  161   2.565   2.119   2.999 -0.5793 -0.5559  1.3618
    9TYR     CZ  162   2.429   2.253   3.095  0.2328 -0.5702  0.2220
    9TYR     OH  163   2.387   2.160   3.188 -0.6255  0.6654  0.1231
    9TYR     HH  164   2.448   2.086   3.176 -2.5950 -1.2240  1.1187
    9TYR    CD2  165   2.392   2.467   2.992 -0.4130 -0.0749 -0.6058
    9TYR    HD2  166   2.347   2.564   2.977  0.3899  0.7611  1.8858
    9TYR    CE2  167   2.377   2.383   3.102 -0.4519  0.1873  0.0818
    9TYR    HE2  168   2.299   2.402   3.174 -0.3321  0.2682  0.1898
    9TYR      C  169   2.355   2.421   2.617  0.2707 -0.1194  0.3990
    9TYR    OT1  170   2.335   2.299   2.584 -0.4478  0.1300  0.2989
    9TYR    OT2  171   2.263   2.506   2.629 -0.1773  0.3855  0.6179
   10SOL     OW  172   0.319   3.693   3.710  0.4585 -0.1900 -0.3221
   10SOL    HW1  173   0.267   3.614   3.696  1.1873 -0.8206  0.5121
   10SOL    HW2  174   0.410   3.665   3.704  0.7751  0.2192  1.6715
   11SOL     OW  175   0.721   1.082   1.398 -0.4931 -0.5703 -0.1881
   11SOL    HW1  176   0.773   1.157   1.426 -0.3984 -0.0899 -1.5728
   11SOL    HW2  177   0.695   1.039   1.479  1.0977 -0.1647  0.5689
   12SOL     OW  178   1.030   3.557   0.611  0.2355  0.0537  0.3071
   12SOL    HW1  179   1.069   3.508   0.538 -0.9322 -0.9978  0.3604
   12SOL    HW2  180   1.026   3.647   0.579  1.2085 -0.1012 -0.3039
   13SOL     OW  181   2.510   1.882   3.102 -0.0405 -0.5419 -0.1222
   13SOL    HW1  182   2.493   1.834   3.183 -2.4764 -0.3719 -0.4558
   13SOL    HW2  183   2.561   1.821   3.048  3.5909  0.0951  2.2095
   14SOL     OW  184   2.057   3.301   3.400  0.0579  0.1433  0.2195
   14SOL    HW1  185   2.049   3.394   3.383 -0.3580  0.2306  0.8691
   14SOL    HW2  186   2.150   3.282   3.391  0.3050  0.8494  1.2592
   15SOL     OW  187   0.856   2.457   2.858  0.0966  0.7217  0.2200
   15SOL    HW1  188   0.779   2.448   2.801 -0.0676 -0.3352  0.5876
   15SOL    HW2  189   0.865   2.552   2.870  0.4202  1.0088 -1.9297
   16SOL     OW  190   0.026   1.244   1.423 -0.6453 -0.1003  0.2265
   16SOL    HW1  191   0.014   1.339   1.419  0.2756  0.1783  2.6654
   16SOL    HW2  192   0.113   1.232   1.461 -0.2123 -1.9722 -1.1659
   17SOL     OW  193   3.492   2.021   0.304  0.3403  0.5352  0.7464
   17SOL    HW1  194   3.406   1.980   0.311 -0.2603  0.9359 -2.6955
   17SOL    HW2  195   3.552   1.948   0.289 -0.0261  0.5081 -0.7111
   18SOL     OW  196   1.337   0.587   3.758 -0.6273 -0.0279  0.1687
   18SOL    HW1  197   1.365   0.499   3.783  1.9867  0.3584 -1.1119
   18SOL    HW2  198   1.314   0.579   3.665  1.6437  0.9696 -0.5586
   19SOL     OW  199   0.477   3.574   0.537  0.3541 -0.0642 -0.1066
   19SOL    HW1  200   0.546   3.639   0.525  0.1791  0.1652  0.1159
   19SOL    HW2  201   0.431   3.602   0.616 -0.2933  0.0504 -0.5171
   20SOL     OW  202   1.146   0.589   2.545  0.4021 -0.3746  0.1830
   20SOL    HW1  203   1.140   0.684   2.535  0.2227 -0.2396  1.3463
   20SOL    HW2  204   1.240   0.572   2.550  0.4623 -0.3567 -0.7731
   21SOL     OW  205   3.091   0.552   1.562  0.4154 -0.1155  0.2784
   21SOL    HW1  206   3.057   0.521   1.478 -1.3088 -1.5308  1.4314
   21SOL    HW2  207   3.069   0.483   1.624  0.6916  1.3627  2.1035
   22SOL     OW  208   0.104   3.071   2.721 -0.0157  0.5490  0.4114
   22SOL    HW1  209   0.171   3.119   2.673 -0.8915  2.2623  0.8505
   22SOL    HW2  210   0.088   2.993   2.668  0.3931  1.4554 -1.0960
   23SOL     OW  211   1.674   1.490   1.922  0.1305  0.3258 -0.3356
   23SOL    HW1  212   1.690   1.502   1.829  0.6065  0.5349 -0.2285
   23SOL    HW2  213   1.584   1.457   1.927 -1.0811  3.2676 -0.7005
   24SOL     OW  214   1.614   2.416   3.487  0.2523  0.2057 -0.2408
   24SOL    HW1  215   1.532   2.398   3.440 -0.9095  2.1829  0.8984
   24SOL    HW2  216   1.616   2.351   3.557 -0.4910  0.3023 -0.1223
   25SOL     OW  217   2.127   0.403   0.618  0.0266  0.2529  0.0688
   25SOL    HW1  218   2.043   0.410   0.572 -1.4457 -0.5309  2.4706
   25SOL    HW2  219   2.146   0.492   0.647 -1.4671  0.0305  1.8931
   26SOL     OW  220   3.324   0.596   1.756 -0.1319 -0.2067  0.2942
   26SOL    HW1  221   3.402   0.651   1.757 -0.1275 -0.2001 -0.2161
   26SOL    HW2  222   3.252   0.657   1.769  0.0147 -0.3601  2.1167
   27SOL     OW  223   0.675   1.206   3.054 -0.5484 -1.1553  0.1428
   27SOL    HW1  224   0.718   1.286   3.023 -2.9163 -0.0062 -0.4029
   27SOL    HW2  225   0.695   1.203   3.148 -1.1515  0.6092  0.3594
   28SOL     OW  226   3.598   3.316   0.382  0.2337 -0.4309 -0.2335
   28SOL    HW1  227   3.584   3.240   0.440 -1.0206 -2.2722 -2.7599
   28SOL    HW2  228   3.510   3.343   0.357  0.7128  1.3515 -0.0876
   29SOL     OW  229   1.150   0.291   2.524  0.6588 -0.1889  0.3949
   29SOL    HW1  230   1.147   0.221   2.589 -0.5185  0.9703  1.6683
   29SOL    HW2  231   1.116   0.368   2.570  0.4748  0.8624 -1.3870
   30SOL     OW  232   1.435   3.716   3.430 -0.4402 -0.2355  0.2597
   30SOL    HW1  233   1.473   3.635   3.395 -1.1836 -0.0780 -0.9736
   30SOL    HW2  234   1.499   3.784   3.411  0.8309 -0.6899  2.5309
   31SOL     OW  235   1.787   2.987   2.673 -0.1366 -0.6484 -0.1954
   31SOL    HW1  236   1.865   2.945   2.709 -0.5153 -0.1554  1.2886
   31SOL    HW2  237   1.794   2.974   2.578  2.2237  0.1708 -0.2097
   32SOL     OW  238   3.503   0.882   0.522  0.6169  0.3720  0.2306
   32SOL    HW1  239   3.589   0.851   0.493  1.7197  2.2787  1.2576
   32SOL    HW2  240   3.521   0.962   0.571 -1.7095  0.4861  1.0485
   33SOL     OW  241   0.046   2.377   1.689  0.8104 -0.1726  0.2120
   33SOL    HW1  242   0.109   2.448   1.674 -1.4029  1.7642 -0.4763
   33SOL    HW2  243  -0.022   2.391   1.623 -1.4952 -0.7842  2.3175
   34SOL     OW  244   3.417   2.568   2.581  0.0306 -0.0409 -0.2831
   34SOL    HW1  245   3.413   2.596   2.489 -0.6248  1.3336  0.1394
   34SOL    HW2  246   3.478   2.494   2.580  1.2058  0.8638 -1.6079
   35SOL     OW  247   2.971   0.903   2.377 -0.3569 -0.2395  0.0765
   35SOL    HW1  248   2.940   0.812   2.383  1.0576 -0.8301 -0.9924
   35SOL    HW2  249   3.028   0.913   2.453 -1.4680  0.1872  0.8883
   36SOL     OW  250   3.763   1.924   2.251  0.1258 -0.3611  0.2265
   36SOL    HW1  251   3.701   1.962   2.312  0.8077 -0.5520  1.0560
   36SOL    HW2  252   3.729   1.947   2.164 -0.9994 -0.3189  0.6591
   37SOL     OW  253   0.340   1.458   3.469 -0.1463  0.4695  0.6315
   37SOL    HW1  254   0.272   1.526   3.463 -1.6132 -0.9814  0.1707
   37SOL    HW2  255   0.312   1.402   3.541  0.5647 -0.1736  0.4259
   38SOL     OW  256   2.748   3.038   1.489 -0.5658 -0.3964  0.1242
   38SOL    HW1  257   2.821   2.984   1.520  0.7610  1.1372 -0.1957
   38SOL    HW2  258   2.758   3.121   1.535 -1.9386 -0.0270 -0.1854
   39SOL     OW  259   2.562   1.138   1.899 -0.2014  0.8570  0.3642
   39SOL    HW1  260   2.551   1.160   1.807 -1.0548  0.0377  0.2486
   39SOL    HW2  261   2.642   1.184   1.926 -0.0340  1.2354 -0.7298
   40SOL     OW  262   2.940   2.559   1.902 -0.6943 -0.0078 -0.4681
   40SOL    HW1  263   3.004   2.534   1.969 -0.3349 -0.4649 -0.9790
   40SOL    HW2  264   2.864   2.588   1.952  0.1184  1.1395  0.1588
   41SOL     OW  265   2.074   3.551   0.456  0.5204 -0.6649  0.0297
   41SOL    HW1  266   2.097   3.483   0.519  0.4726 -1.6987 -1.0203
   41SOL    HW2  267   2.100   3.633   0.498  2.0329 -1.4444  0.7042
   42SOL     OW  268   1.867   3.636   0.055  0.4893 -0.3548  0.2753
   42SOL    HW1  269   1.825   3.690  -0.013  1.8772 -1.1138 -1.2541
   42SOL    HW2  270   1.908   3.699   0.114 -0.0058  0.3075 -0.0740
   43SOL     OW  271   1.189   2.781   3.358 -0.2902 -0.6385  1.0213
   43SOL    HW1  272   1.280   2.764   3.333 -0.5190 -1.6278  0.8330
   43SOL    HW2  273   1.191   2.787   3.453 -0.0438 -0.7838  1.0269
   44SOL     OW  274   2.561   1.833   1.520 -0.2784  0.0794 -0.3897
   44SOL    HW1  275   2.492   1.801   1.462  0.3759 -2.2080 -0.0009
   44SOL    HW2  276   2.634   1.855   1.461 -0.6951  0.7364 -0.6614
   45SOL     OW  277   2.544   0.852   1.444 -0.1981 -0.1993 -0.0629
   45SOL    HW1  278   2.604   0.892   1.382  1.2490 -1.4903  0.4604
   45SOL    HW2  279   2.599   0.820   1.516 -1.4977 -1.3112  0.5033
   46SOL     OW  280   1.449   2.443   0.805 -0.4663  0.0027  0.4471
   46SOL    HW1  281   1.541   2.420   0.788 -0.4720 -1.0410  1.7087
   46SOL    HW2  282   1.412   2.457   0.718  0.4961 -1.1293 -0.1839
   47SOL     OW  283   2.744   2.365   0.365 -0.2995 -0.2570  0.3036
   47SOL    HW1  284   2.776   2.446   0.325  0.9752 -0.4112  0.9452
   47SOL    HW2  285   2.654   2.356   0.334 -0.4772  1.4372  0.2709
   48SOL     OW  286   1.856   1.732   2.302  0.1354 -0.3942  0.0800
   48SOL    HW1  287   1.822   1.773   2.222 -0.3183 -1.5654 -0.3487
   48SOL    HW2  288   1.949   1.753   2.302 -0.1450  0.9417  0.0781
   49SOL     OW  289   3.634   1.355   0.761 -0.5515  0.1768 -0.4782
   49SOL    HW1  290   3.678   1.434   0.729 -2.4856  1.5657  0.1196
   49SOL    HW2  291   3.626   1.368   0.855 -1.6404 -0.3143 -0.4852
   50SOL     OW  292   3.725   0.145   1.801 -0.3845 -0.3920 -0.0780
   50SOL    HW1  293   3.636   0.112   1.786 -0.3231  0.6085 -3.3755
   50SOL    HW2  294   3.719   0.238   1.781  1.0481  0.0795  1.5554
   51SOL     OW  295   0.136   2.462   0.207  0.2187  0.2055 -0.3380
   51SOL    HW1  296   0.110   2.371   0.217  0.0809  0.2819  0.0466
   51SOL    HW2  297   0.083   2.509   0.271 -0.7099  0.7509 -1.4832
   52SOL     OW  298   2.802   1.082   1.677 -0.0922  0.0488  0.4402
   52SOL    HW1  299   2.757   1.138   1.739 -0.8605  0.2556 -0.2828
   52SOL    HW2  300   2.818   1.138   1.601 -0.2907 -0.5283 -0.0352
   53SOL     OW  301   1.780   3.128   3.007  0.0502 -0.2699 -0.0444
   53SOL    HW1  302   1.804   3.053   3.061  1.8809  1.1230  1.1827
   53SOL    HW2  303   1.855   3.141   2.949  0.2874  1.3015  0.5766
   54SOL     OW  304   2.803   2.873   0.077  0.5738 -0.0676  0.1474
   54SOL    HW1  305   2.766   2.801   0.025  2.7407 -1.0042 -0.2168
   54SOL    HW2  306   2.727   2.915   0.117 -1.0047 -0.6984 -1.9979
   55SOL     OW  307   3.696   2.114   2.710 -0.0756  0.3354 -0.4333
   55SOL    HW1  308   3.732   2.051   2.773 -1.3604  1.1845  1.2350
   55SOL    HW2  309   3.755   2.110   2.635  0.3557 -2.2105 -0.0275
   56SOL     OW  310   2.968   1.724   3.696 -0.2508 -0.0047  0.7233
   56SOL    HW1  311   3.019   1.802   3.675  0.2174 -0.3353  0.6312
   56SOL    HW2  312   3.030   1.664   3.738 -0.8016  0.0005  1.5731
   57SOL     OW  313   0.810   1.538   0.680  0.1103 -0.1079 -0.2940
   57SOL    HW1  314   0.872   1.502   0.616  0.3119  0.3594 -0.3658
   57SOL    HW2  315   0.742   1.578   0.626  0.1897  0.1327 -0.2136
   58SOL     OW  316   1.897   3.003   0.948 -0.0770 -0.2938 -0.2239
   58SOL    HW1  317   1.992   3.000   0.936  0.0664  0.6265  0.5482
   58SOL    HW2  318   1.879   2.939   1.017 -0.0330 -0.5419 -0.4417
   59SOL     OW  319   3.640   3.092   2.919 -0.1556 -0.2523  0.3717
   59SOL    HW1  320   3.717   3.088   2.862  0.3716 -0.7301  1.1025
   59SOL    HW2  321   3.650   3.173   2.968  0.0255 -0.4482  0.6609
   60SOL     OW  322   3.207   3.228   2.303  0.2515  0.3882 -0.6366
   60SOL    HW1  323   3.191   3.186   2.388  2.7123  1.2914  0.3392
   60SOL    HW2  324   3.149   3.304   2.303 -1.0094 -0.5207 -0.5570
   61SOL     OW  325   3.207   2.944   3.452  0.2603  0.4490 -0.4699
   61SOL    HW1  326   3.114   2.959   3.470  0.0474 -0.9940 -0.2063
   61SOL    HW2  327   3.210   2.923   3.359  0.5517  2.0058 -0.8350
   62SOL     OW  328   2.630   0.250   2.435 -0.5168 -0.1061 -0.0442
   62SOL    HW1  329   2.652   0.199   2.513  1.3040  0.3505 -0.2097
   62SOL    HW2  330   2.674   0.205   2.364 -2.7539 -0.9351 -0.9910
   63SOL     OW  331   1.650   3.512   2.396  0.2071  0.5459 -0.0256
   63SOL    HW1  332   1.722   3.449   2.399 -0.8167 -0.6274  0.5864
   63SOL    HW2  333   1.678   3.582   2.456  0.1491 -0.7109  1.5547
   64SOL     OW  334   0.325   2.306   0.548  0.2726  0.6772 -0.5134
   64SOL    HW1  335   0.239   2.311   0.506  0.5030  0.5027 -1.0058
   64SOL    HW2  336   0.304   2.302   0.642 -0.2990 -0.1613 -0.6590
   65SOL     OW  337   3.655   2.849   2.536  0.1273 -0.0766  0.4382
   65SOL    HW1  338   3.564   2.856   2.508 -0.0602 -0.1440  1.0064
   65SOL    HW2  339   3.672   2.755   2.539  0.0845 -0.0747  0.7388
   66SOL     OW  340   1.638   0.878   3.578 -0.7191 -0.0356  0.1781
   66SOL    HW1  341   1.636   0.804   3.639  2.0141 -0.1890  0.2129
   66SOL    HW2  342   1.561   0.929   3.600 -0.6791 -0.9217  2.7396
   67SOL     OW  343   2.086   1.851   1.983  0.6098 -0.2357 -0.0953
   67SOL    HW1  344   2.119   1.826   1.896 -1.0964  0.5897 -1.0455
   67SOL    HW2  345   1.994   1.822   1.982 -0.4148  2.6837  0.1214
   68SOL     OW  346   1.190   3.380   2.405 -0.0002  0.4569 -0.1701
   68SOL    HW1  347   1.214   3.323   2.332 -1.3622 -0.1519 -0.1560
   68SOL    HW2  348   1.129   3.443   2.368  1.3247  1.8297 -0.1369
   69SOL     OW  349   0.558   1.332   1.219  0.0846 -0.1293 -0.0221
   69SOL    HW1  350   0.510   1.249   1.223  1.3165 -0.8322  0.6054
   69SOL    HW2  351   0.562   1.362   1.311  0.4795  0.1365 -0.1212
   70SOL     OW  352   0.501   2.396   1.851 -0.2002  0.2581 -0.0972
   70SOL    HW1  353   0.514   2.301   1.842 -1.1121 -0.0017  1.1163
   70SOL    HW2  354   0.554   2.434   1.781  1.8578 -1.0244  0.6767
   71SOL     OW  355   3.263   1.838   1.141  0.2453  0.2550  0.0383
   71SOL    HW1  356   3.323   1.819   1.212  0.2609  2.5044  0.7003
   71SOL    HW2  357   3.183   1.790   1.163  0.5199  0.2950  1.1558
   72SOL     OW  358   1.271   0.848   2.595  0.3136  0.1566 -0.1587
   72SOL    HW1  359   1.295   0.924   2.648 -0.4222 -0.9439  1.8404
   72SOL    HW2  360   1.354   0.815   2.562  0.8035  0.8457  0.3490
   73SOL     OW  361   3.289   0.712   1.450  0.3558 -0.0968 -0.2531
   73SOL    HW1  362   3.303   0.664   1.368 -3.8839  0.3332 -1.4215
   73SOL    HW2  363   3.246   0.648   1.507 -1.0574  0.9361 -0.1312
   74SOL     OW  364   1.961   0.510   3.180 -0.1887  0.0866  0.9857
   74SOL    HW1  365   2.006   0.425   3.183  0.1930  0.3181  2.3808
   74SOL    HW2  366   1.962   0.541   3.270 -0.5111  1.4844  0.5330
   75SOL     OW  367  -0.006   1.556   0.102  0.9179 -0.2093  0.2087
   75SOL    HW1  368   0.060   1.575   0.036  0.4084  1.6212  0.1726
   75SOL    HW2  369  -0.018   1.461   0.098  1.6369 -0.2548 -1.6048
   76SOL     OW  370   3.203   2.450   2.876 -0.2095 -0.0930 -0.6532
   76SOL    HW1  371   3.205   2.477   2.967  1.3907 -1.2336 -0.3101
   76SOL    HW2  372   3.217   2.530   2.826  0.6219  0.2971  0.1862
   77SOL     OW  373   1.016   1.643   2.592 -0.0832  0.7712  0.3011
   77SOL    HW1  374   1.068   1.564   2.608  0.3684  1.4682  2.7087
   77SOL    HW2  375   0.942   1.613   2.539 -0.4747 -1.4879  1.9878
   78SOL     OW  376   3.580   2.745   2.907 -0.0256 -0.2756 -0.0455
   78SOL    HW1  377   3.674   2.749   2.890  0.6193 -0.4219  2.9838
   78SOL    HW2  378   3.541   2.801   2.839  2.3547  0.8576 -0.5897
   79SOL     OW  379   1.397   1.070   2.399  0.2601 -0.1742 -0.7187
   79SOL    HW1  380   1.490   1.071   2.374  0.4232  2.0957 -0.2201
   79SOL    HW2  381   1.397   1.043   2.491  0.3902 -0.5043 -0.8144
   80SOL     OW  382   2.663   0.839   1.720 -0.0009  0.0647  0.0110
   80SOL    HW1  383   2.727   0.907   1.697  0.3390 -1.1124 -3.0079
   80SOL    HW2  384   2.692   0.807   1.805  2.1739  1.0408 -0.2784
   81SOL     OW  385   1.287   0.311   1.613 -0.0300 -0.0205 -0.0581
   81SOL    HW1  386   1.328   0.302   1.699  2.6164 -0.8447 -1.2892
   81SOL    HW2  387   1.293   0.223   1.575 -0.7371  0.4266 -1.2436
   82SOL     OW  388   1.310   2.763   1.422  0.3009  0.2035  0.4467
   82SOL    HW1  389   1.363   2.807   1.356 -1.0057 -0.5822 -1.2061
   82SOL    HW2  390   1.229   2.814   1.427  0.6607  0.6711  2.0081
   83SOL     OW  391   3.615   1.193   3.481 -0.4478 -0.3725  0.0698
   83SOL    HW1  392   3.674   1.126   3.517  0.9531 -0.2018 -1.7461
   83SOL    HW2  393   3.542   1.143   3.444  0.0014 -0.8225 -0.2290
   84SOL     OW  394   2.398   1.684   2.356 -0.4571 -0.7247 -0.0050
   84SOL    HW1  395   2.382   1.778   2.348  0.2036 -0.7289 -2.1053
   84SOL    HW2  396   2.345   1.645   2.287 -0.8894 -1.9362  0.9859
   85SOL     OW  397   2.820   3.618   3.301 -0.1760  0.2695 -0.5795
   85SOL    HW1  398   2.736   3.663   3.286 -0.2620  0.5004  0.5515
   85SOL    HW2  399   2.885   3.675   3.261 -0.6137 -0.2999 -2.1898
   86SOL     OW  400   0.225   3.731   1.795  0.4620  0.7810 -0.0253
   86SOL    HW1  401   0.251   3.648   1.834 -1.1429  0.3059  0.0694
   86SOL    HW2  402   0.175   3.775   1.864  0.6842  1.5242 -0.3255
   87SOL     OW  403   3.506   2.840   0.710 -0.2062 -0.3304  0.0480
   87SOL    HW1  404   3.452   2.918   0.707  0.5731  0.2057 -0.2019
   87SOL    HW2  405   3.589   2.866   0.670 -0.0243 -1.3508 -0.2719
   88SOL     OW  406   0.987   1.103   1.671  0.0718 -0.2629  0.6631
   88SOL    HW1  407   1.044   1.057   1.732  0.9143  0.3231  0.3430
   88SOL    HW2  408   0.953   1.177   1.722 -1.3528 -1.2622  1.2043
   89SOL     OW  409   2.942   0.397   0.075  0.4659 -0.3415  0.0360
   89SOL    HW1  410   3.019   0.429   0.122  0.9781 -1.0532 -0.3019
   89SOL    HW2  411   2.881   0.471   0.076  0.1955 -0.5256  2.3544
   90SOL     OW  412   1.809   1.456   2.290  0.0584 -0.7439  1.0673
   90SOL    HW1  413   1.826   1.549   2.277 -2.9352  0.1148  2.4222
   90SOL    HW2  414   1.896   1.416   2.292  1.4367  1.9203  0.0898
   91SOL     OW  415   1.961   2.197   1.771  0.3509  0.0792 -0.4800
   91SOL    HW1  416   1.936   2.107   1.752 -0.3280  0.6488 -2.5084
   91SOL    HW2  417   1.915   2.218   1.852 -2.5242 -0.2359 -1.9202
   92SOL     OW  418   0.586   1.765   2.296  0.0557 -0.2423 -0.1675
   92SOL    HW1  419   0.536   1.843   2.319 -1.4478 -1.2356  0.0569
   92SOL    HW2  420   0.549   1.737   2.212  1.2210 -0.2141 -0.7175
   93SOL     OW  421   3.088   1.159   2.927  0.1389  0.2797 -0.4442
   93SOL    HW1  422   3.001   1.129   2.953  0.3577 -0.4656 -0.5586
   93SOL    HW2  423   3.084   1.164   2.831 -0.7020  3.1208 -0.3642
   94SOL     OW  424   3.181   2.712   3.646 -0.4768  0.1642  0.3685
   94SOL    HW1  425   3.212   2.768   3.576  1.3449 -0.0090  0.9831
   94SOL    HW2  426   3.255   2.653   3.664 -0.2681  1.2027  3.4412
   95SOL     OW  427   0.999   2.175   0.270  0.3868 -0.7017 -0.3695
   95SOL    HW1  428   0.977   2.197   0.360 -0.8630  0.6518 -0.9699
   95SOL    HW2  429   0.945   2.099   0.250 -0.9259  0.2723 -0.6166
   96SOL     OW  430   1.576   0.703   0.037  0.2520  0.3577 -0.7117
   96SOL    HW1  431   1.619   0.648   0.103  1.9171  1.8724 -0.4418
   96SOL    HW2  432   1.488   0.666   0.029  0.6187 -1.0484  0.9453
   97SOL     OW  433   1.899   2.067   2.762  0.6655  0.5230 -0.0314
   97SOL    HW1  434   1.813   2.059   2.722  1.3346 -1.7074 -1.2470
   97SOL    HW2  435   1.942   2.137   2.714  0.2169  0.2568 -0.8352
   98SOL     OW  436   0.184   0.566   0.080 -0.0128  0.0694  0.0484
   98SOL    HW1  437   0.275   0.543   0.101 -0.4060 -1.3202  0.2951
   98SOL    HW2  438   0.169   0.648   0.127  1.3422  0.7289 -0.6104
   99SOL     OW  439   2.725   0.605   1.351 -0.2790  0.5850  0.0135
   99SOL    HW1  440   2.738   0.638   1.262  3.1083  2.2129  0.9322
   99SOL    HW2  441   2.755   0.514   1.347  0.8109  0.9408 -0.3677
  100SOL     OW  442   1.974   0.874   1.409 -0.0602  0.6607 -0.2103
  100SOL    HW1  443   1.991   0.874   1.315 -0.4451 -0.4155 -0.2852
  100SOL    HW2  444   1.887   0.912   1.418  0.6814  2.4586 -0.1254
  101SOL     OW  445   0.236   2.063   3.044  0.2874 -0.5330  0.1834
  101SOL    HW1  446   0.208   1.993   3.103  1.1661 -0.2532  0.9500
  101SOL    HW2  447   0.162   2.124   3.044  0.3615 -0.4251  1.1838
  102SOL     OW  448   2.196   0.563   3.389 -0.1917  0.4966  0.2810
  102SOL    HW1  449   2.217   0.595   3.301 -0.0223 -0.2910  0.0240
  102SOL    HW2  450   2.100   0.567   3.394 -0.4557 -2.0964 -1.0227
  103SOL     OW  451   1.519   2.134   2.207 -0.6481 -0.4426  0.8574
  103SOL    HW1  452   1.611   2.110   2.216 -0.2897  1.1718  1.8495
  103SOL    HW2  453   1.517   2.228   2.223 -2.3870 -0.3200  0.1120
  104SOL     OW  454   2.938   2.363   1.125  0.1866  0.2552  0.0221
  104SOL    HW1  455   2.901   2.447   1.096  0.0264 -0.3346 -1.6244
  104SOL    HW2  456   2.864   2.303   1.124 -0.3848  0.6192  4.0624
  105SOL     OW  457   3.553   1.629   2.527 -0.4665  0.0918  0.8211
  105SOL    HW1  458   3.511   1.715   2.521  0.7673  0.6302 -0.5475
  105SOL    HW2  459   3.628   1.643   2.585  1.5146  0.7595 -1.7314
  106SOL     OW  460   0.089   1.663   2.940 -0.4448  0.4519  0.4953
  106SOL    HW1  461   0.134   1.648   3.023 -1.2992  2.8712  1.4825
  106SOL    HW2  462   0.146   1.624   2.874  0.4022 -1.2794  2.1607
  107SOL     OW  463   0.424   0.515   1.304 -0.4812  0.0829 -0.3599
  107SOL    HW1  464   0.362   0.446   1.325 -0.1171 -0.2413 -0.3375
  107SOL    HW2  465   0.372   0.583   1.261 -0.8356 -0.2115 -0.3953
  108SOL     OW  466   0.929   1.452   3.760 -0.7408  0.2179 -0.3703
  108SOL    HW1  467   0.956   1.522   3.701 -0.9516 -0.1997 -0.9822
  108SOL    HW2  468   0.993   1.382   3.744 -0.2472  0.4433  0.5803
  109SOL     OW  469   1.436   1.871   2.205  0.7324  0.3159  0.3587
  109SOL    HW1  470   1.460   1.963   2.201 -2.1909  1.1363 -1.2373
  109SOL    HW2  471   1.373   1.865   2.276 -0.8131  0.0725 -0.9741
  110SOL     OW  472   0.656   1.498   2.709  0.4330  0.6576 -1.1648
  110SOL    HW1  473   0.697   1.558   2.646  0.3543  1.3233 -0.5852
  110SOL    HW2  474   0.571   1.478   2.670  0.4499  0.9394 -1.3513
  111SOL     OW  475   2.956   3.013   3.094  0.6661  0.1783 -0.2133
  111SOL    HW1  476   2.952   2.934   3.148 -1.8043  1.1913  1.2540
  111SOL    HW2  477   3.012   3.073   3.144 -0.3943  0.5843  0.5196
  112SOL     OW  478   1.086   3.403   0.820  0.1997  0.1804 -0.5742
  112SOL    HW1  479   1.066   3.472   0.757  0.4771 -0.6493 -1.6055
  112SOL    HW2  480   1.169   3.430   0.860 -1.5675  2.3819  1.9111
  113SOL     OW  481   0.589   1.046   2.132  0.4884  0.9181  0.1053
  113SOL    HW1  482   0.532   1.068   2.058 -0.1381 -0.6886  0.0698
  113SOL    HW2  483   0.673   1.025   2.091 -0.5752 -2.7349 -0.5814
  114SOL     OW  484   3.223   3.645   3.439  0.5898 -0.4793 -0.2757
  114SOL    HW1  485   3.202   3.644   3.532  2.5508 -0.8186  0.2153
  114SOL    HW2  486   3.258   3.558   3.421 -1.8642 -1.2394 -1.9322
  115SOL     OW  487   2.242   0.865   3.402  0.0584 -0.5403 -0.5082
  115SOL    HW1  488   2.328   0.823   3.405  0.7715  0.4835 -3.4540
  115SOL    HW2  489   2.236   0.912   3.485  2.8835  0.2622 -0.6576
  116SOL     OW  490   1.662   2.271   3.701 -0.4115  0.8145  0.5540
  116SOL    HW1  491   1.757   2.286   3.692 -0.7346  3.9879  1.1193
  116SOL    HW2  492   1.654   2.225   3.785  0.6471 -0.3231  0.0657
  117SOL     OW  493   2.982   2.815   0.284 -0.0099 -0.3153  0.4324
  117SOL    HW1  494   2.911   2.830   0.222 -0.1482 -0.5242  0.5416
  117SOL    HW2  495   3.037   2.749   0.242  0.2762  0.0463  0.2217
  118SOL     OW  496   2.186   0.423   0.882  0.1926  0.0400 -0.4400
  118SOL    HW1  497   2.131   0.499   0.902  1.2194  0.5382  0.6751
  118SOL    HW2  498   2.134   0.370   0.822 -1.4296  0.5369  0.4772
  119SOL     OW  499   1.778   3.489   0.794  0.5386 -0.1452  0.0330
  119SOL    HW1  500   1.770   3.439   0.875  2.9426 -1.4913 -0.4593
  119SOL    HW2  501   1.830   3.566   0.818  1.3188 -0.5836 -0.2119
  120SOL     OW  502   0.843   2.390   3.666 -0.1203 -0.2464 -0.1151
  120SOL    HW1  503   0.891   2.462   3.627 -0.9518  0.6795  0.5237
  120SOL    HW2  504   0.771   2.373   3.605  1.3054 -2.0758 -1.4143
  121SOL     OW  505   0.406   2.695   0.657 -0.2800  0.1790  0.5347
  121SOL    HW1  506   0.377   2.665   0.743 -0.1861 -0.0787  0.4773
  121SOL    HW2  507   0.353   2.644   0.595  0.1729 -0.1704  0.4306
  122SOL     OW  508   2.441   0.515   0.796  0.4062  0.0019 -0.7705
  122SOL    HW1  509   2.356   0.499   0.837  0.6897  0.9579  0.2296
  122SOL    HW2  510   2.424   0.507   0.702 -1.4394  2.8485 -0.8024
  123SOL     OW  511   0.044   0.331   0.794  0.1388  0.3294 -0.2512
  123SOL    HW1  512   0.037   0.236   0.802  0.3159  0.2274 -1.1756
  123SOL    HW2  513  -0.027   0.355   0.734  0.8909  0.6079 -1.0578
  124SOL     OW  514   1.009   2.498   1.522 -0.4044 -0.4619 -0.2350
  124SOL    HW1  515   0.938   2.543   1.477  0.2090  0.6978 -0.0754
  124SOL    HW2  516   1.085   2.510   1.466 -0.0209 -0.4694  0.2737
  125SOL     OW  517   2.951   0.970   0.031 -0.6426  0.0003 -1.0742
  125SOL    HW1  518   2.982   0.973   0.121  0.2016  0.2711 -1.3642
  125SOL    HW2  519   2.908   1.055   0.018 -0.8065 -0.0580 -0.9103
  126SOL     OW  520   3.082   3.466   2.369 -0.3528  0.3186 -0.0709
  126SOL    HW1  521   3.145   3.456   2.441  0.9393 -0.5838 -1.2712
  126SOL    HW2  522   3.094   3.556   2.339  0.4677  0.1280 -0.3460
  127SOL     OW  523   1.619   3.695   3.188 -0.3796  0.4303  0.2611
  127SOL    HW1  524   1.680   3.668   3.119 -0.1336 -3.4118  1.6959
  127SOL    HW2  525   1.665   3.674   3.270 -2.1692  1.0617  1.4847
  128SOL     OW  526   2.063   1.951   3.166  0.3947  0.3878  0.0573
  128SOL    HW1  527   2.038   1.859   3.178 -0.4740  0.3340 -1.9107
  128SOL    HW2  528   2.149   1.947   3.124  0.1157  0.4663 -0.5215
  129SOL     OW  529   3.436   1.407   2.408 -0.1522  0.5075 -0.5275
  129SOL    HW1  530   3.464   1.476   2.468 -2.7850  0.2339  1.1769
  129SOL    HW2  531   3.412   1.453   2.327 -0.7705  1.4747  0.1864
  130SOL     OW  532   1.098   2.199   2.350 -0.1098  0.7441  0.5769
  130SOL    HW1  533   1.153   2.255   2.294  1.7168 -1.6794 -0.1872
  130SOL    HW2  534   1.105   2.112   2.311 -0.3864 -0.6663  3.4725
  131SOL     OW  535   2.382   1.916   0.264  0.4394 -0.3453  0.1217
  131SOL    HW1  536   2.420   1.833   0.295 -0.6837 -1.6876 -1.8319
  131SOL    HW2  537   2.288   1.898   0.259  0.3330  0.5204 -1.7354
  132SOL     OW  538   0.550   0.478   0.239 -0.0629  0.1106  0.4419
  132SOL    HW1  539   0.622   0.440   0.290  1.3897 -0.2206 -1.7247
  132SOL    HW2  540   0.480   0.413   0.244  0.5337 -0.5084  0.9261
  133SOL     OW  541   1.048   1.050   2.681 -0.2728  0.7456  1.1342
  133SOL    HW1  542   1.035   0.963   2.642  0.1206  0.8589  0.7385
  133SOL    HW2  543   1.123   1.039   2.739  2.1138  1.6093 -1.5775
  134SOL     OW  544   0.829   3.376   2.488  0.4924 -0.2608  0.0228
  134SOL    HW1  545   0.873   3.393   2.571  0.5831 -0.3474 -0.0073
  134SOL    HW2  546   0.810   3.282   2.490  0.0190 -0.1643  0.1763
  135SOL     OW  547   2.138   0.995   1.169 -0.6490  0.2879 -0.0826
  135SOL    HW1  548   2.164   0.907   1.142 -0.1259  0.2258  0.6006
  135SOL    HW2  549   2.183   1.009   1.253 -0.7925  1.1685 -0.1405
  136SOL     OW  550   2.308   2.343   1.178  0.1173 -0.9745 -0.3456
  136SOL    HW1  551   2.369   2.365   1.249  0.0985 -2.7022  0.2554
  136SOL    HW2  552   2.268   2.427   1.154 -0.2059 -0.3781  1.9873
  137SOL     OW  553   0.046   0.604   2.162  0.8688  0.2637 -0.2067
  137SOL    HW1  554   0.100   0.591   2.240  0.1634  1.4928  0.5070
  137SOL    HW2  555   0.068   0.529   2.106 -0.1969 -1.8981  2.0766
  138SOL     OW  556   3.578   1.838   1.021 -0.2700  0.7123 -0.2971
  138SOL    HW1  557   3.520   1.910   0.995 -2.2886 -1.5131 -2.4711
  138SOL    HW2  558   3.522   1.760   1.018  2.1745 -1.1817  0.4261
  139SOL     OW  559   2.691   0.347   0.928 -0.3721 -0.0459 -0.6196
  139SOL    HW1  560   2.623   0.392   0.879 -1.0472  0.3807  0.6569
  139SOL    HW2  561   2.771   0.396   0.908 -0.7770  0.6101 -0.6609
  140SOL     OW  562   3.668   2.774   2.132 -0.4920  0.2155 -0.3203
  140SOL    HW1  563   3.676   2.700   2.073 -0.6595  1.1466 -1.5485
  140SOL    HW2  564   3.710   2.745   2.213 -0.3803 -1.1330 -0.8360
  141SOL     OW  565   0.660   3.380   3.088 -0.0951 -0.3061 -0.5537
  141SOL    HW1  566   0.575   3.395   3.047 -0.1556 -0.7822 -0.6163
  141SOL    HW2  567   0.647   3.405   3.180 -0.0640  0.4053 -0.7359
  142SOL     OW  568   1.138   1.898   1.958  0.3233  0.0885 -0.4629
  142SOL    HW1  569   1.182   1.817   1.983 -0.4057 -0.5836 -1.2990
  142SOL    HW2  570   1.210   1.955   1.928  0.8237 -0.2996 -0.0198
  143SOL     OW  571   2.213   2.059   1.758 -0.0712 -0.1121  0.7850
  143SOL    HW1  572   2.126   2.099   1.759  0.2100  1.0189 -3.2048
  143SOL    HW2  573   2.273   2.133   1.764  0.5002 -0.4005 -0.8087
  144SOL     OW  574   2.920   2.344   0.579 -0.0034 -0.3926 -0.3663
  144SOL    HW1  575   2.972   2.422   0.599 -0.8388  0.0749  0.0227
  144SOL    HW2  576   2.857   2.374   0.513  0.3242 -0.9957 -0.9562
  145SOL     OW  577   3.116   1.409   0.894  0.2920 -0.6234  0.0268
  145SOL    HW1  578   3.144   1.376   0.809  0.0101 -1.3159  0.1928
  145SOL    HW2  579   3.084   1.331   0.940  3.4697 -0.9300  2.0400
  146SOL     OW  580   2.741   1.012   0.418 -0.3299 -0.5433 -0.1022
  146SOL    HW1  581   2.759   0.940   0.478  1.1567  1.1116  1.5924
  146SOL    HW2  582   2.713   0.970   0.337 -2.7601 -2.8814  1.7809
  147SOL     OW  583   2.015   2.908   0.550 -0.5084 -0.0351  0.4988
  147SOL    HW1  584   1.961   2.976   0.590  0.2572  0.2968  0.9762
  147SOL    HW2  585   2.046   2.947   0.468 -1.7034 -0.5506 -0.2255
  148SOL     OW  586   3.589   0.408   2.031 -0.6642 -0.6969 -0.7360
  148SOL    HW1  587   3.557   0.478   2.089 -0.6223 -0.1164 -1.4023
  148SOL    HW2  588   3.510   0.378   1.985 -0.7776 -1.4814 -0.0500
  149SOL     OW  589   1.247   2.216   0.724 -0.0977 -0.4695  0.0125
  149SOL    HW1  590   1.312   2.287   0.722  1.7851 -2.0226  1.6323
  149SOL    HW2  591   1.286   2.146   0.672 -1.3977 -0.7662 -0.6062
  150SOL     OW  592   1.687   0.805   2.696 -0.5035  0.7427  0.6728
  150SOL    HW1  593   1.658   0.819   2.786 -0.5378  1.8370  0.5049
  150SOL    HW2  594   1.703   0.710   2.690 -0.5701  0.6489  1.7981
  151SOL     OW  595   1.375   1.629   1.709 -0.7358 -0.2132  0.7660
  151SOL    HW1  596   1.383   1.717   1.748 -2.5769  1.0142 -1.3728
  151SOL    HW2  597   1.419   1.637   1.624  0.0899 -1.7531  1.0210
  152SOL     OW  598   1.285   3.386   1.262  0.5059  0.1764 -0.2954
  152SOL    HW1  599   1.227   3.332   1.208  0.2498 -0.5624  0.6715
  152SOL    HW2  600   1.370   3.383   1.217  0.5803 -1.3266 -0.1022
  153SOL     OW  601   3.688   0.040   1.475  0.8486  0.2678  0.3983
  153SOL    HW1  602   3.679   0.131   1.503  2.1561  1.2609 -2.1080
  153SOL    HW2  603   3.613   0.026   1.417  1.7515  0.4569 -0.8467
  154SOL     OW  604   3.114   0.585   3.093  0.1200  0.3058  0.1275
  154SOL    HW1  605   3.074   0.633   3.021  1.7869  0.9665 -0.4038
  154SOL    HW2  606   3.068   0.501   3.095  0.1226  0.2274 -1.7797
  155SOL     OW  607   0.705   2.437   0.724  0.7949  0.2952 -0.1540
  155SOL    HW1  608   0.660   2.419   0.642 -2.2858 -0.0900  1.4815
  155SOL    HW2  609   0.684   2.529   0.744  3.6796  1.2390 -0.9461
  156SOL     OW  610   1.321   1.251   0.161 -0.3638 -0.4230  0.2682
  156SOL    HW1  611   1.282   1.236   0.074 -0.1894 -0.8507  0.2593
  156SOL    HW2  612   1.370   1.171   0.179  1.6974  0.6537 -0.3265
  157SOL     OW  613   3.381   3.437   2.863 -0.3246 -0.3915 -0.2862
  157SOL    HW1  614   3.471   3.466   2.875 -0.1325 -0.9689 -0.3429
  157SOL    HW2  615   3.362   3.383   2.940 -0.1996 -1.3218 -0.8976
  158SOL     OW  616   2.228   1.101   2.910 -0.0303  0.4828  0.4519
  158SOL    HW1  617   2.138   1.075   2.930  0.7582 -2.0403  1.1285
  158SOL    HW2  618   2.248   1.055   2.828  0.6669  0.9509  0.3529
  159SOL     OW  619   2.704   1.079   3.026  0.5441  0.2893  0.0826
  159SOL    HW1  620   2.727   1.169   3.003  0.5543  0.4022  0.5146
  159SOL    HW2  621   2.608   1.078   3.030  0.5735  0.6367  1.4079
  160SOL     OW  622   2.127   1.941   2.641  0.2280  0.0713  0.4730
  160SOL    HW1  623   2.053   1.969   2.694  0.2371 -1.2902  1.2380
  160SOL    HW2  624   2.151   1.855   2.676  3.6847  1.4122  1.8548
  161SOL     OW  625   3.549   3.665   1.125  0.6949  0.5014  0.0748
  161SOL    HW1  626   3.514   3.750   1.150  2.4042  1.3853 -0.3503
  161SOL    HW2  627   3.579   3.627   1.208  0.9299  0.8028  0.1300
  162SOL     OW  628   2.734   1.203   1.392 -0.0178 -0.3207  0.5510
  162SOL    HW1  629   2.743   1.109   1.379 -0.1487 -0.3583  0.7258
  162SOL    HW2  630   2.651   1.226   1.350  0.4243 -0.1329 -0.2456
  163SOL     OW  631   1.797   0.828   3.334 -0.0763  0.4077 -0.1684
  163SOL    HW1  632   1.763   0.858   3.418  1.7075  1.2480  0.3069
  163SOL    HW2  633   1.807   0.907   3.282 -0.8989 -0.0754 -1.1009
  164SOL     OW  634   1.366   2.603   3.461 -0.4973  0.0485  0.4979
  164SOL    HW1  635   1.342   2.598   3.554 -1.7160  0.5813  0.2249
  164SOL    HW2  636   1.452   2.560   3.457  0.3635  1.4666  2.1359
  165SOL     OW  637   1.085   2.446   2.608  0.5117  0.3124  0.2066
  165SOL    HW1  638   1.015   2.511   2.605  0.5074  0.2731 -1.6495
  165SOL    HW2  639   1.043   2.367   2.642  0.3434  1.0462  1.7714
  166SOL     OW  640   2.484   3.054   1.582 -0.1627 -0.1528  0.6523
  166SOL    HW1  641   2.575   3.031   1.560 -0.2727  0.7842 -0.9249
  166SOL    HW2  642   2.445   3.078   1.498 -1.2757  1.5253  1.6074
  167SOL     OW  643   3.602   0.746   1.731 -0.4282  0.7997  0.4802
  167SOL    HW1  644   3.691   0.715   1.714 -0.8438  0.0504 -0.4014
  167SOL    HW2  645   3.585   0.810   1.662 -1.4967 -0.9861 -0.9944
  168SOL     OW  646   1.859   2.105   1.385 -0.3770  0.6498  0.0383
  168SOL    HW1  647   1.875   2.138   1.297 -2.0637  0.9095 -0.2019
  168SOL    HW2  648   1.927   2.146   1.439  0.0702  1.2589 -0.9592
  169SOL     OW  649   0.519   0.071   3.134 -0.0232  0.4421 -0.1096
  169SOL    HW1  650   0.471   0.154   3.139  0.6191  0.8476 -0.4526
  169SOL    HW2  651   0.575   0.081   3.057 -1.2040 -1.0103 -1.2154
  170SOL     OW  652   3.216  -0.013   2.337 -0.3439  0.0165  0.2053
  170SOL    HW1  653   3.299  -0.020   2.385 -0.0627  0.2762 -0.2390
  170SOL    HW2  654   3.223   0.070   2.290 -0.9002  0.0871  0.2423
  171SOL     OW  655   3.348   1.498   3.027 -0.4366 -0.8796 -0.0946
  171SOL    HW1  656   3.322   1.415   3.067  3.0169 -2.2909 -0.3985
  171SOL    HW2  657   3.369   1.476   2.937 -2.4973  1.0752 -1.1440
  172SOL     OW  658   3.285   3.034   0.764  0.1576 -0.6081 -0.0355
  172SOL    HW1  659   3.256   3.121   0.791 -0.6670 -1.3143  1.4812
  172SOL    HW2  660   3.252   3.024   0.675  1.5701  1.1837 -0.8378
  173SOL     OW  661   3.628   0.757   3.267 -0.5373 -0.2366 -0.0059
  173SOL    HW1  662   3.583   0.774   3.184  2.3357 -0.0205 -1.6680
  173SOL    HW2  663   3.685   0.682   3.249 -0.7160 -0.9488  2.1685
  174SOL     OW  664   2.001   2.877   2.785  0.2663  0.2043 -0.1466
  174SOL    HW1  665   2.088   2.839   2.773  0.3933  0.4882 -0.1151
  174SOL    HW2  666   1.988   2.877   2.880  0.4844  0.7372 -0.1180
  175SOL     OW  667   2.315   3.159   1.352 -0.2139 -0.0367  0.5204
  175SOL    HW1  668   2.231   3.113   1.358 -1.3576  1.7721 -0.3997
  175SOL    HW2  669   2.379   3.091   1.332 -1.9549 -1.1437 -1.7640
  176SOL     OW  670   0.206   0.099   0.478  0.3008  0.4915 -0.7414
  176SOL    HW1  671   0.262   0.087   0.554 -1.0304  1.2949  0.4091
  176SOL    HW2  672   0.220   0.020   0.425  2.1769  0.4879 -0.3183
  177SOL     OW  673   3.102   2.410   2.448 -0.5503  0.2357  0.3694
  177SOL    HW1  674   3.061   2.337   2.401 -1.1812  1.6360 -1.3597
  177SOL    HW2  675   3.062   2.408   2.535 -1.7422 -0.5140 -0.1749
  178SOL     OW  676   2.324   3.280   3.398  0.6072  0.5678  0.5690
  178SOL    HW1  677   2.389   3.261   3.330 -1.9110  1.2143 -2.2385
  178SOL    HW2  678   2.332   3.374   3.414 -0.8391  1.0480 -1.2515
  179SOL     OW  679   0.964   1.840   1.572  0.0913 -0.2082 -0.1059
  179SOL    HW1  680   1.016   1.773   1.528  0.4410  0.8822 -1.4109
  179SOL    HW2  681   1.027   1.910   1.591 -0.8557  1.2222 -1.8888
  180SOL     OW  682   3.209   0.895   0.450 -0.1334  0.4468 -0.1813
  180SOL    HW1  683   3.301   0.878   0.472 -0.4082 -2.2845 -0.8695
  180SOL    HW2  684   3.175   0.944   0.525  1.2287 -0.7963  1.3200
  181SOL     OW  685   3.249   3.258   3.039  0.6714  0.0130  0.2361
  181SOL    HW1  686   3.178   3.247   3.103  0.8185  2.2997  0.8912
  181SOL    HW2  687   3.301   3.179   3.047 -0.0956 -0.3587  1.9960
  182SOL     OW  688   3.169   2.698   1.525  0.4450 -0.3091  0.1731
  182SOL    HW1  689   3.151   2.653   1.442 -1.9411 -1.3294  1.1521
  182SOL    HW2  690   3.223   2.773   1.501  2.2783 -2.1388 -1.9079
  183SOL     OW  691   1.185   0.712   1.641  0.1766  0.0087  0.1845
  183SOL    HW1  692   1.244   0.782   1.613 -1.1791  1.2752  0.3984
  183SOL    HW2  693   1.172   0.659   1.562  0.3422  0.6346 -0.2722
  184SOL     OW  694   2.977   2.870   1.350  0.3333  0.4256  0.1285
  184SOL    HW1  695   2.997   2.864   1.443  1.4029 -0.5976 -0.1301
  184SOL    HW2  696   2.959   2.962   1.334 -2.6073  0.2535  1.8416
  185SOL     OW  697   2.344   2.314   0.791  0.1121  0.2441 -0.3802
  185SOL    HW1  698   2.430   2.272   0.784  1.0182  2.2676 -2.4959
  185SOL    HW2  699   2.292   2.274   0.721 -0.0631  0.3680 -0.3211
  186SOL     OW  700   3.334   1.844   2.512  0.0235 -0.1856  0.0455
  186SOL    HW1  701   3.263   1.850   2.576  0.9349 -0.7943  1.1395
  186SOL    HW2  702   3.313   1.765   2.462 -0.4976  0.0968 -0.2027
  187SOL     OW  703   1.464   3.184   2.246 -0.2168  0.2758 -0.6096
  187SOL    HW1  704   1.415   3.246   2.192 -0.4325  0.2757 -0.4187
  187SOL    HW2  705   1.482   3.111   2.188  1.0920  1.0270 -1.1853
  188SOL     OW  706   1.664   0.299   1.090  0.2158 -0.2689 -0.5777
  188SOL    HW1  707   1.717   0.359   1.143 -0.0641  0.4943 -1.1424
  188SOL    HW2  708   1.612   0.250   1.154  1.3414 -0.7817 -0.0375
  189SOL     OW  709   2.830   1.265   1.113  0.1353 -0.6351  0.4102
  189SOL    HW1  710   2.764   1.195   1.114  0.3379 -0.8292  0.4889
  189SOL    HW2  711   2.785   1.341   1.149  0.0297 -0.8403  0.7247
  190SOL     OW  712   1.126   1.658   1.470  0.1647 -0.3491 -0.3231
  190SOL    HW1  713   1.087   1.571   1.465  1.5107 -1.1183  1.4240
  190SOL    HW2  714   1.193   1.650   1.538  1.9057  1.4467 -1.7264
  191SOL     OW  715   3.070   0.330   1.755 -0.5376 -0.5819  0.8288
  191SOL    HW1  716   2.975   0.323   1.761 -0.6664  0.0670 -0.2456
  191SOL    HW2  717   3.095   0.377   1.834 -1.5725  2.8817 -0.7272
  192SOL     OW  718   1.061   1.550   2.101 -0.1121 -0.4995 -0.4520
  192SOL    HW1  719   1.148   1.570   2.068  0.5028 -2.3187 -0.0737
  192SOL    HW2  720   1.045   1.616   2.168  1.9309 -1.3448  0.9953
  193SOL     OW  721   1.054   2.086   1.164  0.0587  0.1673  0.0250
  193SOL    HW1  722   1.056   1.999   1.125 -0.1083  0.1758 -0.0015
  193SOL    HW2  723   1.085   2.144   1.094 -0.8149  0.2585 -0.2942
  194SOL     OW  724   3.182   2.238   1.141 -0.0404 -0.6061 -0.8556
  194SOL    HW1  725   3.202   2.271   1.054 -0.2689 -1.3831 -1.2087
  194SOL    HW2  726   3.087   2.252   1.150  0.3731  2.1967  0.4427
  195SOL     OW  727   2.328   1.394   2.818  0.4253  0.0787 -0.2926
  195SOL    HW1  728   2.378   1.426   2.743  1.1166 -1.0231 -0.3253
  195SOL    HW2  729   2.393   1.380   2.886  0.4642 -2.7867 -0.7944
  196SOL     OW  730   3.224   0.176   3.065 -0.0578 -1.0174  0.5803
  196SOL    HW1  731   3.307   0.127   3.067  2.7035  3.1524  2.5189
  196SOL    HW2  732   3.235   0.238   2.994 -2.7553 -1.9188 -0.7656
  197SOL     OW  733   1.645   0.209   3.381 -0.4951 -0.2596 -0.0509
  197SOL    HW1  734   1.712   0.181   3.319 -0.0240  0.2605  0.2210
  197SOL    HW2  735   1.618   0.296   3.349 -0.9469 -0.4087 -0.0849
  198SOL     OW  736   0.495   2.675   1.883 -0.2175  0.2885  0.0693
  198SOL    HW1  737   0.446   2.605   1.926 -0.3611 -0.0441 -0.6217
  198SOL    HW2  738   0.581   2.637   1.867 -0.7162 -0.2144 -1.5346
  199SOL     OW  739   2.115   0.931   1.862  0.0269 -0.4119 -0.1852
  199SOL    HW1  740   2.059   0.872   1.811 -1.0010  0.6423 -0.2928
  199SOL    HW2  741   2.184   0.873   1.897 -1.3407 -1.8061  0.3125
  200SOL     OW  742   1.724   0.552   0.716 -0.2766 -0.6189 -0.0133
  200SOL    HW1  743   1.693   0.463   0.733  0.6586 -1.7347 -3.3682
  200SOL    HW2  744   1.659   0.588   0.655  1.1420 -0.3307 -1.4091
  201SOL     OW  745   3.405   2.566   3.704  0.1169  0.1464  0.5320
  201SOL    HW1  746   3.496   2.583   3.682 -0.3655 -0.0829 -1.8960
  201SOL    HW2  747   3.387   2.480   3.667 -1.3593  0.6449  0.0074
  202SOL     OW  748   0.790   2.776   2.468 -0.1571 -0.7666 -0.3769
  202SOL    HW1  749   0.700   2.783   2.437 -0.1939 -1.5309 -0.4553
  202SOL    HW2  750   0.839   2.836   2.411 -0.4866 -0.9395 -0.8526
  203SOL     OW  751   2.669   2.952   0.359  0.5872  0.6185 -0.0331
  203SOL    HW1  752   2.613   3.022   0.325 -1.1957 -1.4839 -1.7017
  203SOL    HW2  753   2.749   2.997   0.388 -0.4440  3.3004 -1.0495
  204SOL     OW  754   2.347   0.166   1.189 -0.2642  0.4800  0.5149
  204SOL    HW1  755   2.424   0.214   1.219 -1.1403  3.5074 -1.5782
  204SOL    HW2  756   2.279   0.186   1.253 -0.2464  0.9128  0.4035
  205SOL     OW  757   2.952   1.206   0.444  0.0912 -0.0167 -0.6670
  205SOL    HW1  758   2.875   1.150   0.438  2.1370 -3.0023 -1.5059
  205SOL    HW2  759   3.008   1.176   0.373  1.4543  3.0988 -1.0760
  206SOL     OW  760   2.873   1.687   2.645  0.2864 -0.6354  0.3161
  206SOL    HW1  761   2.878   1.602   2.689 -1.6139 -1.0881 -0.2336
  206SOL    HW2  762   2.902   1.668   2.555  0.2266 -0.6239  0.2945
  207SOL     OW  763   2.866   0.920   0.942 -0.2276 -0.6018  0.3323
  207SOL    HW1  764   2.890   1.012   0.925 -0.8594 -0.7414 -1.5281
  207SOL    HW2  765   2.778   0.912   0.907 -1.3503 -1.2493  3.0405
  208SOL     OW  766   3.069   2.133   2.583 -0.5885  0.3826  0.2553
  208SOL    HW1  767   3.007   2.062   2.600  0.9538 -0.6271  2.1674
  208SOL    HW2  768   3.132   2.095   2.521 -2.5285  1.8765 -2.8543
  209SOL     OW  769   2.117   3.355   0.669  0.0642 -0.2348  0.0220
  209SOL    HW1  770   2.031   3.337   0.708  1.0061 -0.2199  2.2161
  209SOL    HW2  771   2.159   3.269   0.663  0.2968 -0.1138 -0.0787
  210SOL     OW  772   2.789   1.126   2.310  0.0075 -0.7306  0.5395
  210SOL    HW1  773   2.790   1.160   2.220 -1.5603  1.4587  1.2590
  210SOL    HW2  774   2.869   1.074   2.317  1.4459  1.0727 -1.3810
  211SOL     OW  775   0.552   1.196   0.355  0.0270 -0.4218  0.3638
  211SOL    HW1  776   0.477   1.207   0.414 -2.3745 -0.5848 -2.4287
  211SOL    HW2  777   0.603   1.275   0.367 -1.2771  0.2979  1.4969
  212SOL     OW  778   2.617   3.133   0.104  0.5412 -0.7019  0.2950
  212SOL    HW1  779   2.688   3.192   0.129 -0.2125  0.6190 -0.5516
  212SOL    HW2  780   2.570   3.180   0.035  0.5285 -2.7373 -1.1825
  213SOL     OW  781   1.109   2.514   1.774 -0.0712  0.2471 -0.0670
  213SOL    HW1  782   1.141   2.434   1.817  0.4520  1.3190  1.6087
  213SOL    HW2  783   1.071   2.482   1.691 -1.4547 -1.9572  1.2917
  214SOL     OW  784   1.174   0.052   1.537  0.2243  0.3323  0.7495
  214SOL    HW1  785   1.174   0.017   1.448  1.8558  3.3283 -0.5995
  214SOL    HW2  786   1.227  -0.009   1.587  0.5706 -0.6265 -0.7187
  215SOL     OW  787   2.108   2.724   3.206 -0.4186 -0.2766 -0.3648
  215SOL    HW1  788   2.063   2.668   3.269 -0.8146  1.6934  1.2161
  215SOL    HW2  789   2.041   2.748   3.142 -1.9230  2.8904  2.1469
  216SOL     OW  790   0.546   1.048   3.652 -0.2259  0.8064 -0.3713
  216SOL    HW1  791   0.623   1.005   3.614  0.2909  0.9805  0.4394
  216SOL    HW2  792   0.568   1.142   3.649 -0.5558  0.8788 -0.4634
  217SOL     OW  793   1.033   3.421   1.539 -0.3607  0.4353 -0.4258
  217SOL    HW1  794   1.006   3.502   1.582 -1.6588  0.1278 -0.6395
  217SOL    HW2  795   1.071   3.449   1.455  0.1264  0.8776 -0.0631
  218SOL     OW  796   1.638   2.938   0.539  0.2729  0.4039 -0.4108
  218SOL    HW1  797   1.631   2.843   0.544 -0.6076  0.4630 -0.5132
  218SOL    HW2  798   1.678   2.954   0.453  2.4946  0.0495  0.4751
  219SOL     OW  799   2.812   0.640   3.563 -0.6303  0.2952  0.3806
  219SOL    HW1  800   2.854   0.725   3.545 -1.9928  0.5345 -2.1219
  219SOL    HW2  801   2.798   0.640   3.657  2.6820  1.2301  1.0070
  220SOL     OW  802   1.706   3.664   0.456  0.6456  0.0096 -0.6636
  220SOL    HW1  803   1.776   3.708   0.409  2.2500 -1.5479  0.1285
  220SOL    HW2  804   1.748   3.587   0.495 -0.9913  0.2504  1.7834
  221SOL     OW  805   0.747   1.575   2.034 -0.0217 -0.0886  0.3502
  221SOL    HW1  806   0.841   1.558   2.030 -0.0307  0.1189 -1.2648
  221SOL    HW2  807   0.724   1.606   1.946 -2.3237 -4.1483 -0.7516
  222SOL     OW  808   2.652   1.918   0.559  0.2064 -0.6841 -0.2023
  222SOL    HW1  809   2.698   1.995   0.526  0.0658 -0.7489 -0.5520
  222SOL    HW2  810   2.662   1.853   0.490 -1.7057 -0.2181 -0.9702
  223SOL     OW  811   0.824   0.341   1.327 -0.2807  0.0988  0.1933
  223SOL    HW1  812   0.767   0.391   1.386 -2.6136 -0.9218 -1.0757
  223SOL    HW2  813   0.875   0.284   1.386 -0.9469  0.6549  1.3450
  224SOL     OW  814   3.129   0.215   0.464  0.4978 -0.3629 -0.1579
  224SOL    HW1  815   3.196   0.196   0.531  1.6989  3.4931  0.0006
  224SOL    HW2  816   3.101   0.304   0.485 -1.8216 -0.4171 -2.6640
  225SOL     OW  817   3.506   3.390   1.622  0.2971 -0.1884 -0.3813
  225SOL    HW1  818   3.569   3.443   1.671 -1.2902  0.3058  1.1967
  225SOL    HW2  819   3.423   3.401   1.668 -0.4391 -2.8628 -0.8795
  226SOL     OW  820   3.073   0.886   1.376  0.2429  0.1899  0.1121
  226SOL    HW1  821   3.113   0.809   1.416 -1.1742  0.1153  1.4804
  226SOL    HW2  822   3.130   0.959   1.403 -0.4873  0.0920  2.0620
  227SOL     OW  823   3.605   0.373   1.349 -0.0201  0.2768  0.0863
  227SOL    HW1  824   3.660   0.339   1.419  1.4960 -0.5266 -1.4316
  227SOL    HW2  825   3.646   0.456   1.325 -1.0653  1.0051  0.7109
  228SOL     OW  826   3.629   3.227   0.061 -0.1048 -0.0617 -0.1258
  228SOL    HW1  827   3.592   3.239   0.149  0.5360  1.5553 -0.0486
  228SOL    HW2  828   3.721   3.205   0.076 -0.6110 -2.5863 -0.3591
  229SOL     OW  829   0.905   2.715   0.824  0.4800  0.3037  0.5404
  229SOL    HW1  830   0.960   2.641   0.852 -0.2943 -1.0289 -1.2393
  229SOL    HW2  831   0.831   2.713   0.885  2.5622  2.5449  3.4019
  230SOL     OW  832   1.994   2.289   0.872  0.2480  0.1122  0.2870
  230SOL    HW1  833   1.952   2.368   0.905  0.0056 -0.1376  0.5874
  230SOL    HW2  834   2.087   2.300   0.894  0.3130  0.5883 -0.2223
  231SOL     OW  835   1.431   3.056   1.644  0.1469 -0.1468 -0.2151
  231SOL    HW1  836   1.357   3.098   1.688  0.4789  0.0613  0.1499
  231SOL    HW2  837   1.413   3.068   1.550 -0.2807 -0.0972 -0.1270
  232SOL     OW  838   0.495   0.211   1.108 -0.5745 -0.0346  0.5663
  232SOL    HW1  839   0.420   0.269   1.123 -0.3521  0.1610  0.9574
  232SOL    HW2  840   0.564   0.269   1.075 -1.6684 -0.7554 -3.4885
  233SOL     OW  841   2.466   0.171   0.112 -0.8974 -0.1585 -0.4779
  233SOL    HW1  842   2.468   0.193   0.019 -0.2850 -5.1079 -1.9043
  233SOL    HW2  843   2.556   0.183   0.142 -0.9185  0.6510 -0.7262
  234SOL     OW  844   0.045   2.100   2.461 -0.1986 -0.0085 -0.1037
  234SOL    HW1  845  -0.049   2.100   2.441 -0.1707 -1.9827 -0.4062
  234SOL    HW2  846   0.081   2.169   2.405 -1.3800  0.3846 -0.4095
  235SOL     OW  847   2.794   2.167   1.477  0.3206  0.8855  0.9708
  235SOL    HW1  848   2.743   2.160   1.557 -2.3445  1.7472 -0.5075
  235SOL    HW2  849   2.810   2.076   1.450  1.5077  0.5916  2.5701
  236SOL     OW  850   3.642   2.368   2.542  0.6247 -0.8397 -0.1926
  236SOL    HW1  851   3.638   2.304   2.612 -0.7177 -0.5395  0.0200
  236SOL    HW2  852   3.701   2.436   2.575 -1.7689  0.4741  1.6989
  237SOL     OW  853   0.739   2.032   1.565 -0.1254 -0.7555 -0.2681
  237SOL    HW1  854   0.786   1.954   1.538  0.5816 -0.6047  0.4836
  237SOL    HW2  855   0.771   2.101   1.507 -0.8008 -1.0235 -0.9770
  238SOL     OW  856   2.701   0.297   0.233  0.1238 -0.1829  0.1326
  238SOL    HW1  857   2.781   0.341   0.203 -0.2322 -0.2867 -1.0005
  238SOL    HW2  858   2.732   0.220   0.280  0.7207  0.5986  1.0598
  239SOL     OW  859   2.946   1.891   1.617  0.9241 -0.3982  0.3813
  239SOL    HW1  860   2.987   1.829   1.677  2.6080  0.2315 -0.0640
  239SOL    HW2  861   2.969   1.977   1.650 -0.5652  0.0089  0.4330
  240SOL     OW  862   0.035   0.332   3.217  0.2126  0.2215 -0.0419
  240SOL    HW1  863  -0.056   0.355   3.235  0.0893 -0.3840  0.1178
  240SOL    HW2  864   0.079   0.417   3.204 -0.8106  0.4501 -2.3388
  241SOL     OW  865   0.877   0.220   3.433 -0.0083  1.0368  0.2433
  241SOL    HW1  866   0.890   0.266   3.351  3.2499 -0.9217 -0.5139
  241SOL    HW2  867   0.874   0.288   3.500  0.7936  2.4961 -1.1663
  242SOL     OW  868   3.311   0.139   0.998  0.1879 -0.3890 -0.5652
  242SOL    HW1  869   3.336   0.103   0.913  1.0923 -1.5243  0.1483
  242SOL    HW2  870   3.386   0.192   1.025  1.3917 -2.7030  0.9689
  243SOL     OW  871   0.435   1.020   1.584  0.6036 -0.5699  0.4000
  243SOL    HW1  872   0.527   1.035   1.605  0.8966 -2.1791  0.3843
  243SOL    HW2  873   0.437   0.960   1.509 -0.4542 -1.0825  0.7642
  244SOL     OW  874   0.750   1.245   2.586  0.2977 -0.2721 -0.4711
  244SOL    HW1  875   0.726   1.337   2.595  1.0238  0.0941 -1.8944
  244SOL    HW2  876   0.718   1.203   2.666 -0.4241  1.1297  0.0022
  245SOL     OW  877   3.424   0.023   2.861  0.1330 -0.0791 -0.4964
  245SOL    HW1  878   3.476  -0.056   2.849  1.1259  0.6044 -0.8382
  245SOL    HW2  879   3.430   0.042   2.954  2.9708  1.5827 -0.9082
  246SOL     OW  880   0.478   1.849   0.322  0.5399  0.3758 -0.8136
  246SOL    HW1  881   0.471   1.809   0.235 -1.4963  2.3124 -1.6496
  246SOL    HW2  882   0.491   1.775   0.382  1.1637 -1.0827 -2.6534
  247SOL     OW  883   0.043   1.016   2.729 -0.5282 -0.1323  0.2946
  247SOL    HW1  884   0.078   0.928   2.743 -0.3929 -0.0860  0.2519
  247SOL    HW2  885  -0.022   1.006   2.660 -0.2621 -0.1418  0.0423
  248SOL     OW  886   2.101   0.455   2.874 -0.1737  0.4924 -0.0119
  248SOL    HW1  887   2.185   0.454   2.920 -1.1881 -1.6213  1.9849
  248SOL    HW2  888   2.116   0.401   2.797  0.1328 -0.5591  0.7547
  249SOL     OW  889   0.683   0.668   3.566 -0.5222  0.2382 -0.8455
  249SOL    HW1  890   0.710   0.722   3.641  0.1006 -0.2135 -0.7352
  249SOL    HW2  891   0.588   0.659   3.577 -0.2686 -1.1554  0.8378
  250SOL     OW  892   2.827   2.083   3.283  0.4058 -0.2463  0.6077
  250SOL    HW1  893   2.830   1.987   3.275 -0.0890 -0.2831  0.7845
  250SOL    HW2  894   2.844   2.115   3.195  0.8744 -0.4887  0.6049
  251SOL     OW  895   1.324   1.933   0.032  0.6529 -0.3993  0.2829
  251SOL    HW1  896   1.333   1.949   0.126 -0.4767 -0.7487  0.4704
  251SOL    HW2  897   1.382   1.858   0.015  1.8558  0.4738  0.4279
  252SOL     OW  898   1.743   2.315   0.996  0.0065  0.1035 -0.4781
  252SOL    HW1  899   1.690   2.256   1.050 -0.4229 -0.8164 -1.8480
  252SOL    HW2  900   1.827   2.270   0.988  0.9497  1.4083  1.4216
  253SOL     OW  901   1.675   2.937   1.996 -0.0891 -0.1008 -0.3546
  253SOL    HW1  902   1.599   2.883   2.020  2.6345 -3.3185  1.9456
  253SOL    HW2  903   1.680   2.931   1.901 -2.1125 -0.6049 -0.4833
  254SOL     OW  904   0.263   0.279   2.874 -0.0475  0.8271 -0.3149
  254SOL    HW1  905   0.297   0.300   2.961  1.7144  1.9133 -1.2052
  254SOL    HW2  906   0.175   0.244   2.890  1.6811 -2.9865  2.2147
  255SOL     OW  907   1.245   1.832   3.469 -0.9235 -0.4482 -0.2179
  255SOL    HW1  908   1.209   1.914   3.437 -0.5179  0.1015  0.7144
  255SOL    HW2  909   1.266   1.848   3.561 -0.4822 -1.4745 -0.1201
  256SOL     OW  910   0.400   0.137   2.620  0.2368  0.1367 -0.5739
  256SOL    HW1  911   0.326   0.077   2.627  0.0925  0.3862  0.0834
  256SOL    HW2  912   0.403   0.182   2.704  2.1293 -0.9876  0.0204
  257SOL     OW  913   1.318   3.212   3.118  0.1729 -0.2079  0.1079
  257SOL    HW1  914   1.287   3.213   3.028 -0.9186 -1.9649  0.4176
  257SOL    HW2  915   1.238   3.213   3.171  0.7937  0.8337  1.0807
  258SOL     OW  916   0.206   0.953   2.482  0.3714 -0.2386  0.3262
  258SOL    HW1  917   0.166   0.872   2.515  2.5786 -2.3968 -1.8791
  258SOL    HW2  918   0.265   0.981   2.552 -2.0185  0.8848  2.0488
  259SOL     OW  919   0.921   1.912   3.023  0.1164 -0.3625  0.3600
  259SOL    HW1  920   0.896   1.901   2.931 -0.5996  0.5057  0.4417
  259SOL    HW2  921   1.016   1.918   3.022  0.0213  1.5643 -0.5548
  260SOL     OW  922   0.469   0.821   0.053 -0.3111 -0.0806 -0.6357
  260SOL    HW1  923   0.481   0.867   0.136 -1.0127 -0.9006 -0.0600
  260SOL    HW2  924   0.488   0.887  -0.014 -1.0842  1.0005  0.1603
  261SOL     OW  925   3.583   1.387   1.590 -0.1087  0.3039  0.0429
  261SOL    HW1  926   3.636   1.450   1.541 -1.0026 -0.1682 -1.6208
  261SOL    HW2  927   3.591   1.305   1.541 -2.7156  0.3246 -0.6065
  262SOL     OW  928   1.709   0.913   0.347  0.3220 -0.1071 -0.1909
  262SOL    HW1  929   1.731   0.825   0.317 -1.4611 -0.7741  0.3588
  262SOL    HW2  930   1.793   0.950   0.376  0.7532 -2.6027  2.0909
  263SOL     OW  931   1.888   2.695   1.339  0.3252  0.3313 -0.0631
  263SOL    HW1  932   1.809   2.670   1.387  0.7139 -0.4979  0.1723
  263SOL    HW2  933   1.953   2.710   1.408  0.6812 -0.1251 -0.2969
  264SOL     OW  934   1.407   1.383   2.006  0.1476  1.0127  0.2738
  264SOL    HW1  935   1.366   1.309   1.962 -0.3432  0.9296  0.8558
  264SOL    HW2  936   1.389   1.369   2.099  3.7096 -0.4010  0.9131
  265SOL     OW  937   2.938   3.252   2.155  0.2006 -0.3790  0.5136
  265SOL    HW1  938   2.973   3.170   2.119 -0.4260 -0.0296 -0.9782
  265SOL    HW2  939   2.928   3.235   2.248  1.6443 -1.4396  0.5074
  266SOL     OW  940   3.544   1.437   0.445  0.4094 -0.2300  0.3121
  266SOL    HW1  941   3.602   1.511   0.465  0.7861 -0.7537  1.2107
  266SOL    HW2  942   3.459   1.463   0.478  0.5740 -0.2449  0.7591
  267SOL     OW  943   2.599   3.366   1.153 -0.1255  0.4105 -0.1175
  267SOL    HW1  944   2.631   3.371   1.063  0.3448 -0.8546 -0.0374
  267SOL    HW2  945   2.508   3.337   1.145  0.2885 -0.9514 -0.1623
  268SOL     OW  946   2.006   2.531   3.427  0.0747 -0.1658  0.6703
  268SOL    HW1  947   2.083   2.547   3.480  0.5775 -1.0126  0.2206
  268SOL    HW2  948   2.027   2.452   3.377 -0.7591  0.0561 -0.0640
  269SOL     OW  949   2.793   0.327   0.593  0.4603  0.3618 -0.0073
  269SOL    HW1  950   2.763   0.253   0.646  0.9469 -0.2453 -0.5634
  269SOL    HW2  951   2.853   0.375   0.651 -1.7866  1.8322  1.2706
  270SOL     OW  952   1.203   1.792   1.234 -0.2414  0.6790  0.1461
  270SOL    HW1  953   1.170   1.746   1.311  2.3472 -2.7173 -0.5244
  270SOL    HW2  954   1.127   1.800   1.177 -1.2511 -1.1003  1.1480
  271SOL     OW  955   0.476   3.078   1.885 -0.2581 -0.6047 -0.7617
  271SOL    HW1  956   0.389   3.111   1.905  0.4480  1.6945 -1.2041
  271SOL    HW2  957   0.536   3.145   1.919  1.3660 -2.1923 -0.3239
  272SOL     OW  958   3.333   1.215   1.121 -0.3872  0.6967 -0.1053
  272SOL    HW1  959   3.322   1.308   1.143 -4.0221  0.1481  1.1420
  272SOL    HW2  960   3.409   1.187   1.172 -2.1697  1.9775  3.6328
  273SOL     OW  961   3.367   2.152   0.744  0.3136 -0.5428 -0.0671
  273SOL    HW1  962   3.287   2.101   0.728 -0.0387  0.0052 -0.1066
  273SOL    HW2  963   3.356   2.231   0.690 -0.9331  1.3900  2.7759
  274SOL     OW  964   2.445   0.244   3.546  0.1022  0.5714 -0.6219
  274SOL    HW1  965   2.476   0.334   3.532  0.3710  0.5175 -0.3851
  274SOL    HW2  966   2.522   0.190   3.527 -0.0334  0.3955 -0.6697
  275SOL     OW  967   0.215   3.399   1.588 -0.1608  0.3115 -0.0764
  275SOL    HW1  968   0.140   3.340   1.586 -0.4278  0.6563 -0.3044
  275SOL    HW2  969   0.178   3.486   1.604  0.0910  0.6359 -1.1743
  276SOL     OW  970   1.617   2.785   3.571 -0.3542  0.0822  0.0200
  276SOL    HW1  971   1.592   2.789   3.479  1.1283  1.0247 -0.3927
  276SOL    HW2  972   1.709   2.760   3.570 -0.9838 -2.5937  1.4118
  277SOL     OW  973   3.711   2.574   1.982  0.7677 -0.0703  0.3363
  277SOL    HW1  974   3.693   2.580   1.888 -3.4230  0.0314  0.9703
  277SOL    HW2  975   3.782   2.510   1.989 -0.5939 -2.1689 -2.7925
  278SOL     OW  976   0.724   0.609   1.208 -0.0802  0.0020  0.0726
  278SOL    HW1  977   0.778   0.553   1.151 -0.5857 -0.3102 -0.1018
  278SOL    HW2  978   0.677   0.548   1.264  1.9517  0.3362  2.2887
  279SOL     OW  979   2.473   3.653   0.282 -0.6375 -0.2511 -0.0259
  279SOL    HW1  980   2.440   3.742   0.296  0.0307  0.0971 -0.6125
  279SOL    HW2  981   2.422   3.620   0.207 -1.0554 -0.4563  0.3453
  280SOL     OW  982   0.327   1.776   0.606 -0.4730 -0.4725  0.6706
  280SOL    HW1  983   0.314   1.784   0.700  4.7530  3.4289  1.5369
  280SOL    HW2  984   0.270   1.842   0.568  0.2354  0.7739  1.6801
  281SOL     OW  985   2.451   1.530   1.693  0.5128 -0.4992  0.3350
  281SOL    HW1  986   2.501   1.449   1.681  1.3866  0.1707 -0.7239
  281SOL    HW2  987   2.504   1.598   1.650  0.1289  0.7695  1.7494
  282SOL     OW  988   1.206   1.000   1.388  0.2037 -0.2957  0.0682
  282SOL    HW1  989   1.213   1.077   1.445  0.5481 -0.1946 -0.1092
  282SOL    HW2  990   1.119   0.965   1.406 -1.0742  1.6687 -1.7903
  283SOL     OW  991   1.473   0.917   1.567 -0.4479 -0.3976 -0.1336
  283SOL    HW1  992   1.469   0.836   1.517 -3.1287 -0.4087 -0.0321
  283SOL    HW2  993   1.392   0.964   1.544  0.5814  1.8428  0.4907
  284SOL     OW  994   0.165   0.065   1.060  0.6572  0.6967 -0.0581
  284SOL    HW1  995   0.172   0.063   1.155  0.1708  1.7952  0.0185
  284SOL    HW2  996   0.144   0.156   1.039  0.7608  0.4765 -1.2179
  285SOL     OW  997   3.387   1.555   2.163  0.0054  0.0121  0.2347
  285SOL    HW1  998   3.298   1.538   2.131  0.8118  0.0034 -2.2396
  285SOL    HW2  999   3.389   1.650   2.177 -1.1663 -0.2896  3.1164
  286SOL     OW 1000   2.795   3.421   3.488 -0.2002 -0.0078 -1.4213
  286SOL    HW1 1001   2.823   3.498   3.438  3.7021  0.9565  1.7879
  286SOL    HW2 1002   2.836   3.347   3.443  2.5757  0.7575 -0.3607
  287SOL     OW 1003   3.711   1.658   0.534 -0.5259 -0.1285 -0.7642
  287SOL    HW1 1004   3.674   1.678   0.620  0.4426 -0.8577 -0.1590
  287SOL    HW2 1005   3.781   1.596   0.552  1.1766  1.3838 -1.8357
  288SOL     OW 1006   3.499   0.894   0.092 -0.5905  0.3952  0.4855
  288SOL    HW1 1007   3.518   0.803   0.116 -0.7741  0.0654 -0.5510
  288SOL    HW2 1008   3.430   0.887   0.026 -1.5375  1.3620  1.3326
  289SOL     OW 1009   1.823   1.253   0.992  0.0915  0.0028  0.2889
  289SOL    HW1 1010   1.896   1.194   0.975  1.0012  1.2645 -0.2353
  289SOL    HW2 1011   1.759   1.232   0.924  0.8199  0.2898 -0.4916
  290SOL     OW 1012   3.001   0.214   3.354  0.2805  0.1119 -0.3665
  290SOL    HW1 1013   2.956   0.295   3.378 -2.1515 -0.9888 -0.8739
  290SOL    HW2 1014   2.979   0.153   3.424 -1.6675 -1.3330 -2.1402
  291SOL     OW 1015   0.024   3.590   1.649 -0.1321  0.1675 -0.4300
  291SOL    HW1 1016   0.015   3.651   1.576 -1.5403 -0.3802 -0.7511
  291SOL    HW2 1017   0.033   3.645   1.727  0.9686  0.7546 -0.9451
  292SOL     OW 1018   3.302   1.213   3.085  0.0003  0.0846  0.1581
  292SOL    HW1 1019   3.215   1.204   3.046 -0.2369  0.1587  0.6623
  292SOL    HW2 1020   3.358   1.156   3.032 -0.2544  0.4031 -0.4635
  293SOL     OW 1021   3.740   0.951   3.708  0.1492 -0.7586  0.1654
  293SOL    HW1 1022   3.723   0.923   3.618 -0.3410  1.2393 -0.4242
  293SOL    HW2 1023   3.660   0.931   3.755 -0.3030 -0.1177 -0.3116
  294SOL     OW 1024   0.404   0.517   1.858  0.0721  0.0394  0.1377
  294SOL    HW1 1025   0.484   0.513   1.806  1.3067  1.2408  1.8305
  294SOL    HW2 1026   0.407   0.437   1.911  1.4579  1.1585  1.8814
  295SOL     OW 1027   2.770   2.393   1.335 -0.4270 -0.3556 -0.0243
  295SOL    HW1 1028   2.794   2.306   1.366 -1.4916 -1.3871 -1.8778
  295SOL    HW2 1029   2.845   2.422   1.283  0.6324  0.6320  1.9317
  296SOL     OW 1030   1.749   2.026   3.039 -0.5394  0.1566  0.6105
  296SOL    HW1 1031   1.810   2.069   3.099  0.0405 -0.7267  0.6717
  296SOL    HW2 1032   1.703   2.098   2.996  1.6889  0.9033 -0.6453
  297SOL     OW 1033   3.494   3.217   3.564  0.3808  0.7474 -0.4625
  297SOL    HW1 1034   3.544   3.224   3.646  1.0555  2.0589 -0.9591
  297SOL    HW2 1035   3.515   3.129   3.531  0.2794  0.2831  0.6436
  298SOL     OW 1036   1.560   2.280   3.058  0.0497  0.5469 -0.2801
  298SOL    HW1 1037   1.471   2.249   3.075 -0.2688  0.6729 -1.5792
  298SOL    HW2 1038   1.557   2.310   2.967  1.1186  1.6518  0.0355
  299SOL     OW 1039   3.464   1.044   3.314  0.5921  0.0727  0.6289
  299SOL    HW1 1040   3.430   0.967   3.268  0.2899 -0.0300  1.0157
  299SOL    HW2 1041   3.398   1.112   3.298 -0.2102 -0.3345  2.0061
  300SOL     OW 1042   2.586   1.042   0.880  0.5461 -0.1918 -0.4840
  300SOL    HW1 1043   2.558   1.109   0.817 -0.7545 -0.2014  0.0582
  300SOL    HW2 1044   2.509   0.987   0.892  1.3640 -1.3386 -0.3216
  301SOL     OW 1045   1.205   0.428   1.162 -0.5726 -0.1725 -0.0965
  301SOL    HW1 1046   1.204   0.351   1.219  4.0591  0.2557  0.9439
  301SOL    HW2 1047   1.240   0.396   1.079 -2.1943  0.2107 -0.9677
  302SOL     OW 1048   3.636   2.814   0.301  0.2478  0.6310 -0.0245
  302SOL    HW1 1049   3.677   2.811   0.215  2.4093  0.0395  0.9542
  302SOL    HW2 1050   3.694   2.868   0.354 -0.9529  0.8585  1.1191
  303SOL     OW 1051   0.753   2.741   3.436 -0.1505 -0.2836  0.1900
  303SOL    HW1 1052   0.796   2.655   3.435 -1.0546 -0.7717 -1.5656
  303SOL    HW2 1053   0.715   2.748   3.523 -0.8972 -2.1347  0.0659
  304SOL     OW 1054   2.257   2.475   0.191 -0.8543  0.1004 -0.1533
  304SOL    HW1 1055   2.211   2.490   0.273 -1.7269 -1.0799 -0.4113
  304SOL    HW2 1056   2.188   2.465   0.126 -0.2039 -0.3259 -0.7912
  305SOL     OW 1057   0.968   0.865   1.497  0.4362 -0.3223  0.1034
  305SOL    HW1 1058   0.955   0.791   1.556  0.7847  0.0078  0.6104
  305SOL    HW2 1059   0.968   0.941   1.556 -0.2461  0.1073 -0.4415
  306SOL     OW 1060   1.469   1.144   0.977  0.1685  0.1508  0.4271
  306SOL    HW1 1061   1.405   1.078   1.007  0.2875  0.0811  0.5297
  306SOL    HW2 1062   1.440   1.225   1.019 -0.0526  0.1904  0.1990
  307SOL     OW 1063   1.038   2.775   1.178 -0.1098 -0.5425 -0.1191
  307SOL    HW1 1064   0.973   2.779   1.248 -0.3685 -0.6695 -0.3499
  307SOL    HW2 1065   1.072   2.685   1.183  0.9339 -0.1228  0.7888
  308SOL     OW 1066   0.194   0.060   2.063 -0.3589  0.1183 -0.1504
  308SOL    HW1 1067   0.255  -0.002   2.102 -0.8406 -0.5399 -0.4393
  308SOL    HW2 1068   0.167   0.116   2.136  0.9399  0.7325 -0.0991
  309SOL     OW 1069   1.846   0.966   3.731  0.7947  0.5524  0.0114
  309SOL    HW1 1070   1.779   0.945   3.666  1.7314  1.4155 -1.2704
  309SOL    HW2 1071   1.898   0.886   3.739 -0.2177 -0.0425  0.8358
  310SOL     OW 1072   2.917   0.059   3.588  0.8209 -0.7774  0.5792
  310SOL    HW1 1073   2.874   0.083   3.671  2.2190 -1.5983  1.5814
  310SOL    HW2 1074   2.956  -0.027   3.605  2.1192 -0.4488 -0.5547
  311SOL     OW 1075   2.719   2.713   1.082  0.4594  0.3675 -0.0739
  311SOL    HW1 1076   2.791   2.668   1.125  0.4817 -0.4203 -0.9157
  311SOL    HW2 1077   2.682   2.648   1.023 -1.4557  0.4895  0.9031
  312SOL     OW 1078   0.515   3.680   2.107 -0.7727  0.3667 -1.3252
  312SOL    HW1 1079   0.569   3.710   2.034 -0.2594  1.4477 -0.5201
  312SOL    HW2 1080   0.576   3.670   2.180 -1.1049 -1.6630 -1.2723
  313SOL     OW 1081   1.542   0.647   0.564 -0.2476 -0.0644  0.5808
  313SOL    HW1 1082   1.524   0.621   0.474  0.9947 -0.8768  0.5495
  313SOL    HW2 1083   1.518   0.740   0.568 -0.2858 -0.0192 -0.5820
  314SOL     OW 1084   2.347   1.605   0.386 -0.0859 -0.1353  0.4660
  314SOL    HW1 1085   2.414   1.541   0.408 -0.6425 -0.3474  1.6132
  314SOL    HW2 1086   2.271   1.579   0.438 -0.4862  1.1586  0.5582
  315SOL     OW 1087   1.759   1.943   1.094  0.0142 -0.2291  0.1482
  315SOL    HW1 1088   1.698   1.904   1.031  0.0922  0.5310 -0.4133
  315SOL    HW2 1089   1.722   1.922   1.179 -0.5751 -0.5179 -0.1720
  316SOL     OW 1090   2.199   3.022   3.515 -0.0182 -0.4899 -0.2598
  316SOL    HW1 1091   2.176   3.109   3.481 -1.0542  1.4863  4.6496
  316SOL    HW2 1092   2.117   2.973   3.511 -1.0384  0.8560  2.0715
  317SOL     OW 1093   1.204   1.170   0.399  0.0221  1.0891 -0.1215
  317SOL    HW1 1094   1.261   1.196   0.327 -0.1215 -1.2484 -1.1952
  317SOL    HW2 1095   1.125   1.138   0.355  0.8592 -2.7126  0.7924
  318SOL     OW 1096   0.229   3.061   0.572  0.0055 -0.1073  0.5126
  318SOL    HW1 1097   0.300   3.035   0.631  1.4498  0.8927 -0.6757
  318SOL    HW2 1098   0.237   3.156   0.566 -0.9550 -0.0594 -0.2460
  319SOL     OW 1099   1.089   0.621   0.268 -0.6051  0.1462  0.2467
  319SOL    HW1 1100   1.067   0.582   0.183  1.8862 -0.8963 -0.0130
  319SOL    HW2 1101   1.005   0.651   0.303 -1.9111 -0.7335 -1.9082
  320SOL     OW 1102   2.402   3.406   0.790  0.0362 -0.1205 -0.1076
  320SOL    HW1 1103   2.367   3.407   0.701  0.1809 -1.2466 -0.1968
  320SOL    HW2 1104   2.361   3.481   0.834  1.3025  1.5173 -1.6090
  321SOL     OW 1105   3.550   1.059   1.903  0.4658 -0.0301 -0.0415
  321SOL    HW1 1106   3.551   1.124   1.973  1.0320 -0.6519  0.5414
  321SOL    HW2 1107   3.576   0.977   1.946  0.2793 -0.5330 -0.8677
  322SOL     OW 1108   3.091   0.461   1.978 -0.0027  0.7101 -0.6396
  322SOL    HW1 1109   3.064   0.553   1.975  0.3233  0.8992  1.0685
  322SOL    HW2 1110   3.094   0.440   2.071  1.3628 -0.6136 -0.9446
  323SOL     OW 1111   0.709   3.655   2.840 -0.0519 -0.0355  0.4179
  323SOL    HW1 1112   0.709   3.683   2.931 -1.8959  0.1472  0.4026
  323SOL    HW2 1113   0.723   3.737   2.791 -0.2940  0.0553  0.5006
  324SOL     OW 1114   0.868   2.247   0.878  0.1256 -0.6521 -0.0012
  324SOL    HW1 1115   0.845   2.318   0.818  3.0897 -0.3170 -0.8837
  324SOL    HW2 1116   0.900   2.177   0.821 -0.9205 -1.9879  0.9805
  325SOL     OW 1117   2.234   2.014   3.443  0.5836  0.2164  0.1265
  325SOL    HW1 1118   2.253   2.106   3.460 -0.2332  0.6135 -0.9926
  325SOL    HW2 1119   2.157   2.015   3.387  1.2449 -1.1117 -0.8686
  326SOL     OW 1120   1.910   0.637   1.903  0.8192  0.1070 -0.0649
  326SOL    HW1 1121   1.998   0.605   1.923  0.3697  0.6175  3.4165
  326SOL    HW2 1122   1.852   0.588   1.962 -0.8956  1.5530 -0.4444
  327SOL     OW 1123   3.065   0.213   2.475 -0.1897  0.5282 -0.3516
  327SOL    HW1 1124   3.129   0.211   2.546  1.2299 -1.6719 -1.5682
  327SOL    HW2 1125   3.061   0.122   2.445 -2.5703  0.9515 -1.5208
  328SOL     OW 1126   0.802   0.858   2.008 -0.3317  0.1753 -0.1541
  328SOL    HW1 1127   0.722   0.807   1.997 -0.6459  0.6647 -0.2021
  328SOL    HW2 1128   0.867   0.795   2.039 -0.7803 -0.1975  0.0452
  329SOL     OW 1129   1.015   2.213   1.821  0.6158  0.6106  0.2991
  329SOL    HW1 1130   1.039   2.149   1.888  1.2802 -0.0304 -0.5166
  329SOL    HW2 1131   0.930   2.247   1.849  0.7762  0.1911  1.3315
  330SOL     OW 1132   2.491   1.511   3.301 -0.6912 -0.4515 -0.0751
  330SOL    HW1 1133   2.483   1.526   3.395  0.3234 -0.0186 -0.0499
  330SOL    HW2 1134   2.452   1.589   3.261 -0.2174 -0.1756 -0.0009
  331SOL     OW 1135   2.159   2.805   0.983 -0.7153 -0.4635  0.3834
  331SOL    HW1 1136   2.154   2.710   0.993 -1.2632 -0.2823  2.2411
  331SOL    HW2 1137   2.158   2.819   0.888  1.5278 -2.3775  0.0003
  332SOL     OW 1138   1.593   2.663   0.585  0.1046 -0.1514  0.1968
  332SOL    HW1 1139   1.503   2.657   0.617 -0.2690 -2.4390 -1.0945
  332SOL    HW2 1140   1.588   2.637   0.493  1.9016  1.1438 -0.3159
  333SOL     OW 1141   0.456   1.796   3.277  1.0097  0.5019 -0.5041
  333SOL    HW1 1142   0.414   1.881   3.287 -0.1976 -0.3264  2.7128
  333SOL    HW2 1143   0.544   1.816   3.244  1.1340  3.0949  1.1437
  334SOL     OW 1144   2.564   2.147   0.827  0.2859 -0.1960  0.1888
  334SOL    HW1 1145   2.600   2.062   0.803  1.6288 -0.5155  2.9086
  334SOL    HW2 1146   2.639   2.195   0.862 -0.7231  1.6266 -0.0430
  335SOL     OW 1147   1.777   2.177   0.255 -0.3380 -0.3794 -0.7849
  335SOL    HW1 1148   1.682   2.165   0.247 -0.5635  1.3122 -0.9680
  335SOL    HW2 1149   1.788   2.270   0.274  1.3288 -0.3672 -1.6286
  336SOL     OW 1150   2.094   2.251   1.524  0.2203  0.3889 -0.4463
  336SOL    HW1 1151   2.058   2.323   1.472 -1.2295 -0.0132 -0.0303
  336SOL    HW2 1152   2.042   2.250   1.604  0.4807 -0.8700 -0.2694
  337SOL     OW 1153   2.582   0.497   3.247  0.0415  0.1484 -0.0153
  337SOL    HW1 1154   2.624   0.473   3.165  0.9060  1.0576  0.1407
  337SOL    HW2 1155   2.555   0.588   3.235  0.6670  0.4655  0.8875
  338SOL     OW 1156   2.673   1.555   1.970  0.3305  0.4159  0.6086
  338SOL    HW1 1157   2.589   1.594   1.994  0.7940  0.3628  2.4632
  338SOL    HW2 1158   2.706   1.610   1.899 -0.4710  1.4998  1.0590
  339SOL     OW 1159   1.450   1.637   1.454  0.2001  0.5451 -0.2581
  339SOL    HW1 1160   1.452   1.704   1.386  0.9838  0.5419 -0.2544
  339SOL    HW2 1161   1.457   1.554   1.406  0.2375  0.5201 -0.2102
  340SOL     OW 1162   0.454   2.020   2.120 -0.6842 -0.0323  0.4093
  340SOL    HW1 1163   0.531   1.987   2.073 -0.5152 -1.2583  1.5179
  340SOL    HW2 1164   0.478   2.110   2.145  0.3084 -0.3308  0.5576
  341SOL     OW 1165   2.054   2.131   2.072  0.4318  0.6444  0.4787
  341SOL    HW1 1166   2.031   2.038   2.073 -2.4114  1.2155 -1.0390
  341SOL    HW2 1167   1.994   2.171   2.135  1.3720  1.5183  0.8400
  342SOL     OW 1168   2.488   2.403   1.361 -0.0039  0.0943 -0.0267
  342SOL    HW1 1169   2.473   2.493   1.391 -1.0511  0.2024 -0.8016
  342SOL    HW2 1170   2.576   2.404   1.325 -0.3517  1.0860 -0.9095
  343SOL     OW 1171   3.270   2.356   3.626 -0.4115 -0.4248  0.3038
  343SOL    HW1 1172   3.237   2.272   3.594  0.3931 -0.4385 -0.5190
  343SOL    HW2 1173   3.202   2.419   3.605  0.1172 -0.4181 -1.5458
  344SOL     OW 1174   0.874   1.848   2.757 -0.0918  0.3433  0.1321
  344SOL    HW1 1175   0.812   1.878   2.690 -0.4992 -1.3899 -0.3336
  344SOL    HW2 1176   0.930   1.786   2.711  0.7436  0.4207  1.0199
  345SOL     OW 1177   0.885   3.462   2.770 -0.0085  0.1719 -0.0459
  345SOL    HW1 1178   0.866   3.381   2.818  0.6549 -1.3221 -2.1636
  345SOL    HW2 1179   0.827   3.527   2.810 -0.9666 -1.4636  1.3778
  346SOL     OW 1180   2.396   2.749   0.074 -0.3828 -0.0300  0.3535
  346SOL    HW1 1181   2.432   2.761   0.162 -0.6758  1.4332  0.2971
  346SOL    HW2 1182   2.305   2.722   0.089 -0.1750 -0.6762  0.4882
  347SOL     OW 1183   1.415   1.576   2.658 -0.4065 -0.1275 -0.6448
  347SOL    HW1 1184   1.407   1.481   2.658  1.7082 -0.3779  0.7796
  347SOL    HW2 1185   1.490   1.594   2.601 -0.5515  0.6513 -0.6050
  348SOL     OW 1186   0.754   1.752   3.542 -0.3432 -0.5393 -0.1954
  348SOL    HW1 1187   0.718   1.750   3.453  1.7609  2.0613 -1.2123
  348SOL    HW2 1188   0.849   1.752   3.531  0.0843  3.4250  1.7433
  349SOL     OW 1189   0.066   2.970   3.143  0.3506  0.2213 -0.2054
  349SOL    HW1 1190   0.037   3.061   3.141  1.4440  0.8089  3.5130
  349SOL    HW2 1191  -0.013   2.920   3.166  0.1377  0.4461 -0.4413
  350SOL     OW 1192   0.200   0.017   1.321  0.0272 -0.2932  0.2502
  350SOL    HW1 1193   0.260  -0.031   1.376 -1.6236  0.6171  3.0515
  350SOL    HW2 1194   0.121   0.027   1.374 -1.4090  1.3675 -1.9981
  351SOL     OW 1195   1.553   0.140   0.247 -0.0660  0.1947 -0.8805
  351SOL    HW1 1196   1.594   0.088   0.317  1.0225  0.7668 -1.0670
  351SOL    HW2 1197   1.460   0.121   0.254  0.1430 -0.5549  0.0676
  352SOL     OW 1198   2.062   1.338   1.524 -0.0915  0.8215  0.0018
  352SOL    HW1 1199   2.046   1.432   1.514 -2.4248  0.4889 -0.0543
  352SOL    HW2 1200   2.025   1.299   1.445  0.1132 -0.2109  0.4023
  353SOL     OW 1201   1.014   3.040   3.011 -0.4318 -0.3387 -0.1675
  353SOL    HW1 1202   1.051   3.031   3.099 -1.4512  0.9582  0.4394
  353SOL    HW2 1203   1.062   3.113   2.971  2.3399 -2.9562 -2.0355
  354SOL     OW 1204   3.450   0.168   1.320 -0.4480  0.4487  0.3628
  354SOL    HW1 1205   3.496   0.251   1.313  0.1894  0.0591 -0.1922
  354SOL    HW2 1206   3.358   0.190   1.307 -0.2352  1.0085 -0.2525
  355SOL     OW 1207   1.729   2.680   1.766 -1.0327 -0.0675 -0.1603
  355SOL    HW1 1208   1.795   2.750   1.764 -0.8133 -0.2665  0.0842
  355SOL    HW2 1209   1.647   2.726   1.783 -1.2028  0.3616 -1.9663
  356SOL     OW 1210   0.283   3.737   0.731  0.6824  0.1639 -0.3699
  356SOL    HW1 1211   0.190   3.753   0.715  0.5766  2.8229  2.1019
  356SOL    HW2 1212   0.286   3.650   0.770 -0.8424  0.2444  0.0024
  357SOL     OW 1213   3.220   0.841   1.740  0.0992 -0.6516  0.6953
  357SOL    HW1 1214   3.162   0.916   1.748 -0.1311 -0.9940  2.7437
  357SOL    HW2 1215   3.248   0.842   1.648 -1.0609  1.0391  0.3132
  358SOL     OW 1216   3.503   0.335   1.051 -0.3364  0.1045 -0.6316
  358SOL    HW1 1217   3.525   0.423   1.020 -0.1073 -0.0187 -0.8178
  358SOL    HW2 1218   3.573   0.314   1.113 -1.5872  0.9661  1.1649
  359SOL     OW 1219   0.925   1.765   0.045  0.1965  0.8173 -0.7526
  359SOL    HW1 1220   1.003   1.710   0.054  0.0429  0.4978 -1.3172
  359SOL    HW2 1221   0.957   1.847   0.008  0.5862  1.5248  1.0476
  360SOL     OW 1222   2.791   0.911   3.198  0.0853  0.3391 -0.2440
  360SOL    HW1 1223   2.778   0.974   3.269 -1.5639 -0.2806  0.0587
  360SOL    HW2 1224   2.762   0.957   3.120  0.1430  0.3980 -0.2312
  361SOL     OW 1225   1.556   2.611   1.374 -0.3747 -0.2381 -0.2156
  361SOL    HW1 1226   1.477   2.664   1.362 -2.1933 -2.7885 -0.1393
  361SOL    HW2 1227   1.583   2.589   1.285  0.0963  0.3596 -0.2293
  362SOL     OW 1228   0.426   3.497   1.820 -0.1611  0.2072 -0.2278
  362SOL    HW1 1229   0.363   3.448   1.767 -0.9614  0.6273  0.3202
  362SOL    HW2 1230   0.429   3.450   1.903 -1.2528  1.2784  0.4603
  363SOL     OW 1231   2.412   0.980   0.226 -0.0219 -0.8526  0.8414
  363SOL    HW1 1232   2.418   0.990   0.321 -0.9284  1.6051  0.7349
  363SOL    HW2 1233   2.371   0.895   0.212  0.9645 -1.6550  2.5888
  364SOL     OW 1234   0.997   2.594   3.501 -0.6969 -0.3275 -0.0537
  364SOL    HW1 1235   1.057   2.559   3.435 -0.6453 -1.4308  0.5456
  364SOL    HW2 1236   1.046   2.664   3.543 -0.8085  0.5421 -1.3117
  365SOL     OW 1237   1.271   0.316   0.193 -0.3494  0.8510 -0.9860
  365SOL    HW1 1238   1.188   0.342   0.154 -0.3146  1.2880 -0.7685
  365SOL    HW2 1239   1.251   0.235   0.241 -0.6534  0.9793 -0.8977
  366SOL     OW 1240   1.350   0.909   2.088 -0.0827  0.0142  0.1310
  366SOL    HW1 1241   1.283   0.972   2.115  0.5054  0.2337  1.1453
  366SOL    HW2 1242   1.305   0.851   2.026 -1.1056  0.3799  0.5034
  367SOL     OW 1243   2.369   1.207   0.779 -0.2232 -0.5553  0.2600
  367SOL    HW1 1244   2.389   1.298   0.759 -2.1408 -0.1424  0.0434
  367SOL    HW2 1245   2.380   1.200   0.874  2.4982 -0.8258 -0.0126
  368SOL     OW 1246   2.141   1.232   2.000  0.2257  0.2554 -0.1921
  368SOL    HW1 1247   2.067   1.185   1.962 -0.7773  0.2078  1.7089
  368SOL    HW2 1248   2.182   1.168   2.058  2.4032 -0.0324 -1.8944
  369SOL     OW 1249   3.631   1.921   0.738 -0.4833 -0.0252 -0.5193
  369SOL    HW1 1250   3.537   1.934   0.727 -0.5556 -0.5076 -0.4895
  369SOL    HW2 1251   3.645   1.921   0.833 -0.3169  0.9366 -0.5253
  370SOL     OW 1252   3.060   0.405   2.244  0.2118  0.4450  0.5464
  370SOL    HW1 1253   3.074   0.349   2.320  1.7650  1.1598  0.8424
  370SOL    HW2 1254   3.000   0.472   2.274 -0.1055  0.0572  0.7846
  371SOL     OW 1255   2.979   1.881   0.429  0.2210  0.0494 -0.2394
  371SOL    HW1 1256   2.994   1.974   0.415  0.9248 -0.3445 -2.4947
  371SOL    HW2 1257   2.896   1.863   0.386  1.0912 -0.7155 -1.6739
  372SOL     OW 1258   2.507   0.040   0.548 -0.1886 -0.1053 -0.2494
  372SOL    HW1 1259   2.446   0.113   0.560  0.3617  0.6028 -1.6277
  372SOL    HW2 1260   2.568   0.047   0.622 -2.1587 -1.2925  1.6135
  373SOL     OW 1261   0.398   1.554   0.361  0.0345 -0.4375  0.4448
  373SOL    HW1 1262   0.359   1.544   0.448 -0.5824  0.2828  0.2715
  373SOL    HW2 1263   0.374   1.474   0.314 -0.6542 -0.3111  0.5682
  374SOL     OW 1264   1.434   2.086   3.511 -0.9084  0.1827 -0.0455
  374SOL    HW1 1265   1.357   2.075   3.455  0.0324 -0.9475 -1.1843
  374SOL    HW2 1266   1.403   2.064   3.599 -1.9013 -0.2516 -0.4885
  375SOL     OW 1267   1.476   1.045   0.237  0.7192 -0.2924  0.4416
  375SOL    HW1 1268   1.413   0.974   0.251  1.0414 -0.9537 -1.2057
  375SOL    HW2 1269   1.561   1.007   0.257  0.6310  0.8104  3.3835
  376SOL     OW 1270   0.807   1.224   2.235 -0.0129 -0.6725 -0.2690
  376SOL    HW1 1271   0.735   1.287   2.225 -0.4777  0.1541  5.0767
  376SOL    HW2 1272   0.769   1.151   2.284  1.7434 -2.7397 -1.7949
  377SOL     OW 1273   1.819   1.396   0.692 -0.0913 -0.2065  0.0066
  377SOL    HW1 1274   1.895   1.340   0.708 -0.1051 -0.0223  0.7509
  377SOL    HW2 1275   1.799   1.383   0.600  1.6134  0.6956 -0.5339
  378SOL     OW 1276   2.299   0.595   2.180  0.4119 -0.1676 -0.7495
  378SOL    HW1 1277   2.358   0.545   2.236  0.6363 -0.0759 -0.9011
  378SOL    HW2 1278   2.211   0.563   2.202  0.5862 -0.9943 -1.2115
  379SOL     OW 1279   0.967   0.247  -0.001 -0.3069 -0.4900 -0.0862
  379SOL    HW1 1280   0.972   0.164   0.047 -0.7046  0.5093  1.8135
  379SOL    HW2 1281   0.896   0.295   0.042 -0.6756  0.4945 -1.7184
  380SOL     OW 1282   0.384   1.436   1.617  0.1516 -0.7356 -0.1725
  380SOL    HW1 1283   0.355   1.406   1.703  2.0775  0.7825  1.1312
  380SOL    HW2 1284   0.339   1.520   1.605  1.1738 -0.0991  0.2262
  381SOL     OW 1285   2.552   2.491   1.759  0.1420 -0.0779  0.8622
  381SOL    HW1 1286   2.600   2.513   1.679 -0.7045  0.0278  0.3683
  381SOL    HW2 1287   2.614   2.441   1.811  0.6025 -0.4603 -0.0218
  382SOL     OW 1288   3.249   0.811   3.722  0.2768 -0.4554  0.3146
  382SOL    HW1 1289   3.272   0.734   3.669 -1.4329  0.5557 -2.1160
  382SOL    HW2 1290   3.154   0.805   3.732  0.0259  1.6158 -0.4703
  383SOL     OW 1291   2.392   2.262   1.809  0.0754 -0.7305 -0.0553
  383SOL    HW1 1292   2.420   2.351   1.791  0.0093 -0.6941  0.0175
  383SOL    HW2 1293   2.372   2.262   1.903  1.4552 -1.1916  0.2686
  384SOL     OW 1294   0.512   2.688   0.927 -0.3031  0.0028  0.2189
  384SOL    HW1 1295   0.433   2.742   0.939 -0.1497  0.5106 -0.9411
  384SOL    HW2 1296   0.479   2.600   0.908 -0.5686 -0.0142  0.7335
  385SOL     OW 1297   3.684   0.445   1.785  0.1682  0.2264  0.2415
  385SOL    HW1 1298   3.660   0.445   1.877 -2.7637 -2.6842 -0.3312
  385SOL    HW2 1299   3.713   0.534   1.767 -0.7256  1.3168  3.5564
  386SOL     OW 1300   1.872   1.702   0.714  0.3539  1.3802 -0.2114
  386SOL    HW1 1301   1.792   1.652   0.696  0.1727  1.0401  1.3776
  386SOL    HW2 1302   1.844   1.771   0.774  1.4893  0.3297  1.6168
  387SOL     OW 1303   0.195   1.771   0.871 -0.5429  0.3235  0.2586
  387SOL    HW1 1304   0.243   1.850   0.898 -0.5131  0.0566  1.0228
  387SOL    HW2 1305   0.113   1.804   0.835  0.6036  0.8462 -2.0383
  388SOL     OW 1306   0.339   3.450   3.471  0.1675  0.0909  0.6321
  388SOL    HW1 1307   0.332   3.513   3.400  1.2456 -1.3704 -0.8429
  388SOL    HW2 1308   0.251   3.411   3.477 -0.0433  0.5209  0.3989
  389SOL     OW 1309   1.679   1.761   3.440  0.7759 -0.8248  0.0158
  389SOL    HW1 1310   1.595   1.718   3.425  0.3073 -0.2804  0.9683
  389SOL    HW2 1311   1.670   1.847   3.399  0.2542 -0.1449  1.4758
  390SOL     OW 1312   3.693   1.255   0.095 -0.3395  0.6928 -0.7010
  390SOL    HW1 1313   3.717   1.165   0.074  1.1388  1.3174 -1.8760
  390SOL    HW2 1314   3.631   1.247   0.168  0.9760 -1.2131  0.3073
  391SOL     OW 1315   3.050   2.145   1.647  0.2527 -0.0064 -0.2420
  391SOL    HW1 1316   3.001   2.182   1.721 -1.3270 -1.3449 -0.5470
  391SOL    HW2 1317   3.071   2.221   1.592 -1.5833  0.6656 -0.1141
  392SOL     OW 1318  -0.017   3.000   3.586  0.5303 -0.3810  0.1832
  392SOL    HW1 1319   0.007   2.943   3.513 -1.1187  0.3407 -0.9830
  392SOL    HW2 1320   0.062   3.053   3.601  0.8361 -0.3791 -1.2463
  393SOL     OW 1321   0.735   0.426   3.003 -0.3587  0.1217  0.3481
  393SOL    HW1 1322   0.776   0.470   2.929 -0.8118  0.0689  0.0563
  393SOL    HW2 1323   0.665   0.485   3.031 -0.8051 -0.2907  0.1159
  394SOL     OW 1324   3.398   3.456   1.013  0.6879  0.1669  0.5860
  394SOL    HW1 1325   3.463   3.468   1.082  0.6383  1.6526  0.4013
  394SOL    HW2 1326   3.431   3.506   0.939 -0.2044  0.1793  0.1822
  395SOL     OW 1327   0.652   1.921   1.963  0.7997  0.0643  0.2817
  395SOL    HW1 1328   0.588   1.856   1.935  2.0755 -2.1149  2.0724
  395SOL    HW2 1329   0.730   1.903   1.911  1.3782 -0.3156  1.2585
  396SOL     OW 1330   3.549   1.355   2.039  0.0660 -0.2403 -0.1646
  396SOL    HW1 1331   3.625   1.411   2.022 -0.9860  0.7982 -1.5476
  396SOL    HW2 1332   3.496   1.405   2.101 -0.4260 -0.1171 -0.6860
  397SOL     OW 1333   2.405   1.240   0.187 -0.2650  0.4840 -0.2700
  397SOL    HW1 1334   2.401   1.146   0.202  1.2181  0.2007 -1.4386
  397SOL    HW2 1335   2.365   1.253   0.101 -0.9317  1.0103  0.1027
  398SOL     OW 1336   3.741   1.544   2.353 -0.4049 -0.1088  0.0385
  398SOL    HW1 1337   3.700   1.460   2.374 -1.2997  0.1970 -0.4178
  398SOL    HW2 1338   3.684   1.609   2.394 -0.8995  0.3660 -1.3420
  399SOL     OW 1339   2.862   3.240   1.660  0.1893 -0.2204  0.4953
  399SOL    HW1 1340   2.889   3.328   1.687 -1.7171  0.3034  0.8344
  399SOL    HW2 1341   2.843   3.194   1.742  2.6892 -1.5519  0.4394
  400SOL     OW 1342   3.503   0.410   3.060 -0.0425  0.1494  0.9303
  400SOL    HW1 1343   3.548   0.486   3.023 -1.0314  1.2603  1.9626
  400SOL    HW2 1344   3.507   0.423   3.154 -0.5901 -0.8826  1.1126
  401SOL     OW 1345   3.268   2.817   2.896 -0.0359  0.0333  0.4893
  401SOL    HW1 1346   3.235   2.757   2.828 -1.4359  1.0761  0.2124
  401SOL    HW2 1347   3.249   2.904   2.862  1.4417  0.6420  1.1605
  402SOL     OW 1348   0.288   3.538   2.148 -0.1987 -0.0003 -0.2302
  402SOL    HW1 1349   0.254   3.533   2.058  1.2403  0.9990 -0.8806
  402SOL    HW2 1350   0.382   3.550   2.137  0.0873 -0.4972  1.4472
  403SOL     OW 1351   2.044   1.436   2.827  0.1730  0.9864  0.7855
  403SOL    HW1 1352   2.138   1.419   2.833 -0.0110 -1.1823 -1.2757
  403SOL    HW2 1353   2.032   1.476   2.741 -1.0084 -1.1149 -0.1053
  404SOL     OW 1354   0.824   1.420   3.373  0.3380  0.3935  0.5647
  404SOL    HW1 1355   0.891   1.456   3.315  1.0255  2.7306  2.6186
  404SOL    HW2 1356   0.741   1.444   3.333  0.7817  0.9189 -0.0551
  405SOL     OW 1357   1.574   1.244   3.276  0.2099 -0.3310 -0.1789
  405SOL    HW1 1358   1.613   1.189   3.345 -1.2022 -0.4931  0.5197
  405SOL    HW2 1359   1.631   1.321   3.273  1.9220 -1.5355 -0.8066
  406SOL     OW 1360   3.128   3.523   2.984  0.1162  0.6220 -0.0250
  406SOL    HW1 1361   3.171   3.438   2.978 -0.4973  0.1912  1.2058
  406SOL    HW2 1362   3.151   3.568   2.903  1.5346 -0.2035 -0.1125
  407SOL     OW 1363   1.588   3.702   0.968  0.1223 -0.5073 -0.1737
  407SOL    HW1 1364   1.566   3.680   0.877  2.4462 -0.9251 -0.6980
  407SOL    HW2 1365   1.681   3.726   0.965 -0.0628  0.7293  1.9015
  408SOL     OW 1366   3.237   2.192   0.428 -0.6379 -0.4699 -0.2368
  408SOL    HW1 1367   3.174   2.238   0.373 -0.6184  0.4558  0.4688
  408SOL    HW2 1368   3.311   2.173   0.371 -0.4764  0.7671 -0.4658
  409SOL     OW 1369   1.765   3.283   2.654 -0.1940  0.0144 -0.5081
  409SOL    HW1 1370   1.763   3.271   2.559 -1.4649 -0.2731 -0.4673
  409SOL    HW2 1371   1.723   3.204   2.688 -2.4246  1.3765  0.1255
  410SOL     OW 1372   2.496   1.411   1.408  0.0466  0.0852  0.3213
  410SOL    HW1 1373   2.427   1.365   1.456 -1.0593  1.7760  0.4313
  410SOL    HW2 1374   2.457   1.496   1.386  1.5672  0.4863 -0.9816
  411SOL     OW 1375   1.130   3.112   2.565 -0.4811  0.4038 -0.0104
  411SOL    HW1 1376   1.105   3.142   2.478  0.7069  2.0417  0.1614
  411SOL    HW2 1377   1.159   3.191   2.611  0.0677 -0.5939  1.4622
  412SOL     OW 1378   1.906   0.556   2.712  0.2312 -0.2463 -0.2123
  412SOL    HW1 1379   1.967   0.561   2.639 -0.6099 -1.6615 -1.0488
  412SOL    HW2 1380   1.959   0.527   2.786  1.2767  2.0289  0.0371
  413SOL     OW 1381   1.515   3.575   0.231  0.1710  0.6002  0.1248
  413SOL    HW1 1382   1.512   3.611   0.142 -0.0274 -0.0843 -0.1496
  413SOL    HW2 1383   1.605   3.547   0.243  0.2908  1.0453  0.2851
  414SOL     OW 1384   0.159   1.691   3.653 -0.5276 -0.2704 -0.3867
  414SOL    HW1 1385   0.179   1.783   3.672 -1.0600 -0.2733  0.2461
  414SOL    HW2 1386   0.209   1.642   3.719  0.5790 -0.5004 -1.3759
  415SOL     OW 1387   2.796   0.705   0.130 -0.5855  0.0993 -0.0494
  415SOL    HW1 1388   2.854   0.719   0.205  0.0729 -0.6590 -0.4016
  415SOL    HW2 1389   2.746   0.786   0.123  1.1119  1.1785 -0.3139
  416SOL     OW 1390   0.861   2.114   3.694 -0.1922 -0.2210 -0.0672
  416SOL    HW1 1391   0.787   2.099   3.753 -0.0991 -0.2471  0.0441
  416SOL    HW2 1392   0.871   2.209   3.690  1.4793 -0.2173  2.0864
  417SOL     OW 1393   1.809   2.732   3.173  0.8948  0.0229  0.0087
  417SOL    HW1 1394   1.818   2.657   3.114  0.5614 -0.8184  1.0088
  417SOL    HW2 1395   1.793   2.806   3.114  1.1636 -0.6877 -0.9922
  418SOL     OW 1396   3.546   0.734   2.406 -0.0756 -0.4384  0.5756
  418SOL    HW1 1397   3.634   0.770   2.415  0.9811 -2.5006 -0.5745
  418SOL    HW2 1398   3.504   0.788   2.339  0.3009  0.5835  1.1538
  419SOL     OW 1399   0.286   1.299   0.254  0.4395 -0.5311  0.2939
  419SOL    HW1 1400   0.228   1.260   0.319 -0.9696 -0.7781 -1.0586
  419SOL    HW2 1401   0.342   1.227   0.225 -0.0261 -0.8069  0.0726
  420SOL     OW 1402   0.353   2.908   2.531 -0.5625  0.4327  0.0896
  420SOL    HW1 1403   0.413   2.982   2.527 -1.6359  1.3113 -0.4578
  420SOL    HW2 1404   0.373   2.856   2.453  0.7802 -0.3529  0.9247
  421SOL     OW 1405   2.087   0.825   0.308 -0.5164 -0.2733 -0.1285
  421SOL    HW1 1406   2.158   0.804   0.247  0.0118 -1.3552  0.8435
  421SOL    HW2 1407   2.090   0.920   0.316  0.5504 -0.2769 -0.4083
  422SOL     OW 1408   1.929   1.987   3.413  0.3192 -0.2716 -0.0293
  422SOL    HW1 1409   1.841   2.023   3.427  0.3638 -0.4516  0.7988
  422SOL    HW2 1410   1.942   1.991   3.319 -0.1630  0.7346 -0.0661
  423SOL     OW 1411   0.968   0.712   2.957  0.0562  0.5430  0.0587
  423SOL    HW1 1412   0.988   0.729   3.049  0.7092 -2.4425  0.5556
  423SOL    HW2 1413   0.874   0.728   2.950 -0.2184 -0.2490  1.5395
  424SOL     OW 1414   0.897   2.520   0.364  0.7008 -0.1339 -0.0766
  424SOL    HW1 1415   0.927   2.566   0.286 -1.9148  1.3377 -0.3141
  424SOL    HW2 1416   0.857   2.440   0.331  0.7921 -0.1582 -0.1277
  425SOL     OW 1417   2.195   2.589   1.242  0.1263 -0.2345  0.0403
  425SOL    HW1 1418   2.157   2.591   1.330 -0.2721 -1.2778 -0.0967
  425SOL    HW2 1419   2.285   2.619   1.254  0.4677 -1.5538  1.0337
  426SOL     OW 1420   2.688   1.776   1.766 -0.2772 -0.6141  0.0952
  426SOL    HW1 1421   2.776   1.804   1.791 -0.3489 -1.6720  1.6734
  426SOL    HW2 1422   2.678   1.806   1.676  1.4163  0.1694  0.1300
  427SOL     OW 1423   0.928   1.375   1.783  0.8856  0.1712 -0.2904
  427SOL    HW1 1424   0.933   1.342   1.872 -0.5827 -0.7219 -0.5057
  427SOL    HW2 1425   1.017   1.407   1.764  0.9461  1.5237  1.8781
  428SOL     OW 1426   3.222   0.693   3.331  0.4456  0.2580 -0.8207
  428SOL    HW1 1427   3.155   0.759   3.351  0.3204 -0.2764  0.6237
  428SOL    HW2 1428   3.177   0.631   3.274 -0.4015 -0.2477  0.3626
  429SOL     OW 1429   1.909   3.088   1.785  0.2507 -0.0801 -0.5984
  429SOL    HW1 1430   1.976   3.126   1.841  0.1484 -1.1892  0.3171
  429SOL    HW2 1431   1.934   3.115   1.696  0.3945  1.7345 -0.0499
  430SOL     OW 1432   3.683   0.425   0.148  0.0441 -0.5277 -0.0476
  430SOL    HW1 1433   3.693   0.331   0.132  0.0383 -1.0387  2.5541
  430SOL    HW2 1434   3.767   0.463   0.120  1.3286 -1.8121  1.7795
  431SOL     OW 1435   2.373   2.675   1.625  0.1304  0.1976  0.1402
  431SOL    HW1 1436   2.318   2.730   1.682 -0.5544  0.4696 -0.7573
  431SOL    HW2 1437   2.436   2.635   1.684 -2.8812 -2.5814  1.7628
  432SOL     OW 1438   0.573   2.515   2.680  0.3690  0.0218 -0.3963
  432SOL    HW1 1439   0.568   2.608   2.661 -1.1882 -0.1706 -1.1530
  432SOL    HW2 1440   0.521   2.503   2.760  3.2733  0.2057  1.6587
  433SOL     OW 1441   1.252   1.161   0.660 -0.4078 -0.1103  0.3725
  433SOL    HW1 1442   1.233   1.081   0.707  0.5882 -0.9035 -0.5181
  433SOL    HW2 1443   1.222   1.144   0.570 -0.6136  0.6878  0.2799
  434SOL     OW 1444   1.172   3.655   0.072  0.0779  0.3369 -0.1536
  434SOL    HW1 1445   1.108   3.628   0.139  0.9826  1.6049  1.2854
  434SOL    HW2 1446   1.209   3.572   0.041  0.8754 -0.3020  2.2139
  435SOL     OW 1447   0.555   0.072   1.590 -0.7014  0.4830 -0.3417
  435SOL    HW1 1448   0.551   0.158   1.632 -0.6424  0.4464 -0.2630
  435SOL    HW2 1449   0.571   0.092   1.497  0.5481  0.5159 -0.1335
  436SOL     OW 1450   2.584   0.041   2.054 -0.3308 -0.0662 -0.4605
  436SOL    HW1 1451   2.645   0.028   2.126 -0.7321  0.2449 -0.0602
  436SOL    HW2 1452   2.591   0.135   2.033 -3.7376  1.1061  2.4600
  437SOL     OW 1453   1.896   0.502   0.517 -0.1200 -0.2601 -0.2728
  437SOL    HW1 1454   1.828   0.526   0.580 -0.7249 -0.0360 -0.9937
  437SOL    HW2 1455   1.851   0.449   0.452  0.6108 -0.9275 -0.2431
  438SOL     OW 1456   1.278   2.026   2.632  0.0483  0.3258 -0.2198
  438SOL    HW1 1457   1.227   2.070   2.565  0.6435 -0.7004 -1.3887
  438SOL    HW2 1458   1.278   1.934   2.605 -1.2983 -0.4879  2.2031
  439SOL     OW 1459   0.233   1.976   1.688  0.4284 -0.7542 -0.2793
  439SOL    HW1 1460   0.163   2.002   1.627  0.3036 -0.1990  0.0923
  439SOL    HW2 1461   0.293   2.051   1.689  0.8981 -1.1223 -0.3953
  440SOL     OW 1462   1.233   3.304   2.085 -0.1334 -0.1398  0.1948
  440SOL    HW1 1463   1.145   3.342   2.088  0.3434  1.2680 -1.3880
  440SOL    HW2 1464   1.291   3.380   2.082  0.9764 -0.9785 -1.3395
  441SOL     OW 1465   1.392   3.040   0.484 -0.1890 -0.7589  0.3400
  441SOL    HW1 1466   1.354   3.045   0.572 -0.2228 -3.4121  0.5604
  441SOL    HW2 1467   1.485   3.028   0.499 -0.2168 -1.3800  0.0130
  442SOL     OW 1468   0.603   1.140   2.786 -0.0526 -0.0400  1.0420
  442SOL    HW1 1469   0.637   1.146   2.875 -0.0300  0.3366  1.0117
  442SOL    HW2 1470   0.522   1.190   2.788  0.3180  0.5893  0.6783
  443SOL     OW 1471   3.022   0.004   0.980  0.1328 -0.0910 -0.4627
  443SOL    HW1 1472   3.017   0.033   0.889  0.3911 -0.1871 -0.5067
  443SOL    HW2 1473   3.109   0.029   1.009 -0.2147  0.6169 -0.0077
  444SOL     OW 1474   0.382   0.332   3.102 -0.2639  0.2509 -0.5242
  444SOL    HW1 1475   0.371   0.342   3.196  1.0643  0.5951 -0.3895
  444SOL    HW2 1476   0.375   0.421   3.067 -0.0109  0.2180 -0.6635
  445SOL     OW 1477   3.686   0.786   0.353 -0.5193  0.5817 -0.0004
  445SOL    HW1 1478   3.745   0.780   0.278  1.5614  1.3381  1.4992
  445SOL    HW2 1479   3.656   0.877   0.353 -2.2745  0.0581 -1.1095
  446SOL     OW 1480   2.122   1.700   2.975 -0.3541  0.3661 -0.4534
  446SOL    HW1 1481   2.034   1.731   2.955 -0.0816  0.4959 -1.5225
  446SOL    HW2 1482   2.180   1.766   2.937  0.2450  1.4974  2.1883
  447SOL     OW 1483   2.674   1.362   2.483  0.6368  1.0604  0.4719
  447SOL    HW1 1484   2.741   1.302   2.449 -0.3287  0.7276 -0.9263
  447SOL    HW2 1485   2.614   1.305   2.531  0.6700  1.1686  0.6418
  448SOL     OW 1486   1.500   0.131   1.254 -0.3411 -0.1510 -0.4243
  448SOL    HW1 1487   1.423   0.076   1.263  1.6482 -3.2468 -0.7677
  448SOL    HW2 1488   1.500   0.185   1.333 -0.8517 -2.9124  1.6100
  449SOL     OW 1489   1.567   3.634   3.714 -0.6670 -0.2185  0.0404
  449SOL    HW1 1490   1.630   3.704   3.701 -0.7915 -0.0640  0.2642
  449SOL    HW2 1491   1.588   3.569   3.647 -0.5361  0.0211 -0.1481
  450SOL     OW 1492   1.526   3.307   0.065 -0.2981 -0.3762  0.8901
  450SOL    HW1 1493   1.590   3.324   0.134  0.1026 -3.2063  1.3515
  450SOL    HW2 1494   1.570   3.335  -0.015 -0.1346  1.4540  1.5599
  451SOL     OW 1495   3.031   3.525   3.642  0.0293  0.6823  0.4116
  451SOL    HW1 1496   3.018   3.472   3.564 -0.5125  0.4401  0.6638
  451SOL    HW2 1497   3.121   3.507   3.668 -0.2445 -0.3683  0.6753
  452SOL     OW 1498   1.429   1.314   2.532 -0.2464  0.0875 -0.4265
  452SOL    HW1 1499   1.465   1.286   2.448  1.8002  2.2779 -0.3892
  452SOL    HW2 1500   1.493   1.286   2.596 -0.2666  1.0980  0.0512
  453SOL     OW 1501   0.408   1.472   2.944 -0.1482  0.0661  0.3827
  453SOL    HW1 1502   0.368   1.515   2.869  0.0446  1.0642  0.8403
  453SOL    HW2 1503   0.383   1.525   3.019  0.8880 -0.0684  0.8485
  454SOL     OW 1504   0.214   3.594   2.803 -0.3423 -1.0737  0.7916
  454SOL    HW1 1505   0.186   3.591   2.711  0.9312 -0.1466  0.3479
  454SOL    HW2 1506   0.299   3.550   2.803  0.9237  1.2242  0.9978
  455SOL     OW 1507   0.084   0.650   1.588  0.0570 -0.0225  0.8127
  455SOL    HW1 1508   0.102   0.565   1.547 -2.1990  0.2316 -0.8403
  455SOL    HW2 1509   0.075   0.711   1.515  2.7634  2.0170  1.9735
  456SOL     OW 1510   0.902   1.079   0.588 -0.3532  0.3188  0.0236
  456SOL    HW1 1511   0.920   0.998   0.635 -2.9275  0.0142  0.6540
  456SOL    HW2 1512   0.890   1.051   0.497 -1.3337 -0.0767  0.2543
  457SOL     OW 1513   0.118   1.577   1.069  0.0332 -0.7491  0.5657
  457SOL    HW1 1514   0.167   1.621   0.999 -0.7402  0.1103  0.5401
  457SOL    HW2 1515   0.056   1.520   1.024  0.7227 -1.5433  0.5933
  458SOL     OW 1516   1.238   0.813   3.122  0.2841 -0.4835  0.2801
  458SOL    HW1 1517   1.235   0.816   3.026 -0.2153 -2.2955  0.2017
  458SOL    HW2 1518   1.151   0.842   3.149  0.1665 -0.6996  0.1418
  459SOL     OW 1519   0.201   2.309   2.359 -0.1832  0.0560  0.3225
  459SOL    HW1 1520   0.290   2.319   2.394  0.6327 -1.6135 -1.1518
  459SOL    HW2 1521   0.154   2.387   2.391  2.3767  2.1215 -0.6063
  460SOL     OW 1522   1.590   1.811   2.485 -0.1382  0.3845  0.2646
  460SOL    HW1 1523   1.640   1.730   2.497  0.0364  0.1163 -1.9601
  460SOL    HW2 1524   1.499   1.781   2.481 -0.1881  0.4642  0.7271
  461SOL     OW 1525   2.583   0.446   0.476  0.3811 -0.1664 -0.6550
  461SOL    HW1 1526   2.639   0.412   0.546  0.0831  0.0897 -0.2851
  461SOL    HW2 1527   2.619   0.409   0.396  0.7546 -0.4304 -0.3684
  462SOL     OW 1528   0.930   3.333   2.229  0.6530  0.6049  0.1514
  462SOL    HW1 1529   0.907   3.348   2.321  2.2306 -0.3420  0.7482
  462SOL    HW2 1530   0.959   3.419   2.198  1.2513  0.6934  0.9122
  463SOL     OW 1531   1.652   0.282   0.799 -0.4990 -0.0345  0.2292
  463SOL    HW1 1532   1.567   0.245   0.773  0.1356 -0.4476 -1.3613
  463SOL    HW2 1533   1.648   0.286   0.894 -2.3602  0.0795  0.1867
  464SOL     OW 1534   0.565   1.535   3.302  0.3464  0.1652  0.1230
  464SOL    HW1 1535   0.491   1.493   3.345 -1.2461  2.6336  0.0359
  464SOL    HW2 1536   0.539   1.627   3.295  2.7851  0.8392 -1.3499
  465SOL     OW 1537   2.248   0.464   1.151  0.8745  0.6675 -0.1192
  465SOL    HW1 1538   2.242   0.402   1.079  1.5106  1.9513 -1.3295
  465SOL    HW2 1539   2.341   0.484   1.159  0.5452  2.9021 -1.0970
  466SOL     OW 1540   1.397   1.698   0.731  0.3582  0.0406  0.2179
  466SOL    HW1 1541   1.375   1.629   0.793 -0.6782  0.0886 -0.0658
  466SOL    HW2 1542   1.471   1.664   0.681 -0.5665 -1.1578 -0.3741
  467SOL     OW 1543   0.716   1.840   3.211 -0.5786  0.3846  0.1648
  467SOL    HW1 1544   0.783   1.838   3.143 -1.4080 -1.0170 -0.6535
  467SOL    HW2 1545   0.724   1.928   3.249 -0.5480  1.4896 -2.1836
  468SOL     OW 1546   1.634   3.460   1.711  0.6714 -0.6674 -1.3005
  468SOL    HW1 1547   1.712   3.502   1.673  0.0327 -0.5319 -2.5288
  468SOL    HW2 1548   1.644   3.367   1.689  0.6049 -0.6825 -1.2669
  469SOL     OW 1549   3.658   2.983   1.530  0.0319 -0.0998 -0.2646
  469SOL    HW1 1550   3.572   2.961   1.494  0.2290  0.4158 -1.0769
  469SOL    HW2 1551   3.714   2.908   1.508  0.7199  1.1341 -3.0792
  470SOL     OW 1552   1.555   1.565   1.170 -0.4164 -0.0812 -0.2155
  470SOL    HW1 1553   1.595   1.589   1.086 -2.3634  1.3610 -0.8152
  470SOL    HW2 1554   1.627   1.533   1.223  2.4010  5.3993 -0.0034
  471SOL     OW 1555   0.949   3.168   1.446 -0.3729  0.6500 -0.6340
  471SOL    HW1 1556   0.917   3.131   1.528  2.2706  1.7711  1.0218
  471SOL    HW2 1557   0.990   3.251   1.471  0.2003  1.2341 -3.1685
  472SOL     OW 1558   1.699   3.193   1.675  0.8548 -0.3228  0.1810
  472SOL    HW1 1559   1.759   3.166   1.745  1.5442  0.9916  0.1292
  472SOL    HW2 1560   1.627   3.130   1.680  0.8147 -0.1993  2.1636
  473SOL     OW 1561   0.997   3.569   2.346 -0.1347  1.1491  0.1437
  473SOL    HW1 1562   0.912   3.539   2.376  0.6535 -0.0996  1.2580
  473SOL    HW2 1563   1.036   3.613   2.422  0.2643  1.5766 -0.3013
  474SOL     OW 1564   1.637   1.232   2.666  0.1729  0.0403  0.7626
  474SOL    HW1 1565   1.661   1.300   2.730  0.7385 -0.6616  1.3167
  474SOL    HW2 1566   1.713   1.227   2.608 -0.0233  0.1438  0.4994
  475SOL     OW 1567   1.568   0.312   0.041 -0.1583 -0.1305  0.5372
  475SOL    HW1 1568   1.495   0.330  -0.018  0.1470 -0.4513  0.0461
  475SOL    HW2 1569   1.547   0.227   0.080 -0.5201  0.2323  1.1538
  476SOL     OW 1570   2.494   2.384   0.259  0.0897  0.1167 -0.9263
  476SOL    HW1 1571   2.428   2.444   0.224 -0.8973  1.1889  2.3950
  476SOL    HW2 1572   2.444   2.314   0.300  1.1624 -1.0339 -1.4980
  477SOL     OW 1573   0.130   2.873   3.383  0.2297 -0.0810 -0.1056
  477SOL    HW1 1574   0.148   2.903   3.294  0.0618 -1.2545 -0.5526
  477SOL    HW2 1575   0.215   2.844   3.416  0.3930  0.8494  0.3291
  478SOL     OW 1576   3.630   2.270   1.864  0.2364 -0.0705 -0.0808
  478SOL    HW1 1577   3.705   2.288   1.807  0.4035  1.5326  0.5867
  478SOL    HW2 1578   3.663   2.209   1.929  1.8094  2.5499  1.7534
  479SOL     OW 1579   0.612   2.153   1.193 -0.4811  0.4834 -0.7149
  479SOL    HW1 1580   0.703   2.131   1.217 -0.7886 -0.3044 -0.2138
  479SOL    HW2 1581   0.620   2.227   1.133  0.4532  1.0177  0.0317
  480SOL     OW 1582   0.204   0.195   0.132  0.3269 -0.5713 -0.0661
  480SOL    HW1 1583   0.228   0.103   0.129  0.6266 -0.4774 -0.9547
  480SOL    HW2 1584   0.123   0.198   0.182 -0.4211 -1.4889 -1.1902
  481SOL     OW 1585   1.525   0.153   2.126 -0.3946 -0.1929  0.2394
  481SOL    HW1 1586   1.608   0.113   2.099 -0.7549 -0.0676 -1.1504
  481SOL    HW2 1587   1.478   0.083   2.172  0.6437 -0.1365  1.4360
  482SOL     OW 1588   2.493   0.301   2.812 -0.6338 -0.5121 -0.0097
  482SOL    HW1 1589   2.429   0.271   2.876  0.1102 -2.4835 -0.0890
  482SOL    HW2 1590   2.530   0.220   2.777  1.2772  0.5444 -0.5778
  483SOL     OW 1591   1.456   3.081   2.576 -0.2071  0.1018 -0.4861
  483SOL    HW1 1592   1.507   3.146   2.625 -0.0012 -0.0847 -0.4511
  483SOL    HW2 1593   1.431   3.127   2.495 -0.3744  0.3428 -0.3017
  484SOL     OW 1594   1.765   3.067   1.342  0.5194  0.0570 -0.7577
  484SOL    HW1 1595   1.670   3.070   1.356  0.3493 -0.6612 -1.6221
  484SOL    HW2 1596   1.779   2.986   1.293  1.7137 -0.3654  0.2400
  485SOL     OW 1597   2.918   3.042   3.626 -0.0360 -0.1975 -0.4498
  485SOL    HW1 1598   2.831   3.049   3.587 -1.0056  0.6324  1.6789
  485SOL    HW2 1599   2.907   2.982   3.700  1.2694 -0.2541 -0.2643
  486SOL     OW 1600   1.330   1.977   0.614  0.0085  0.1317  0.9366
  486SOL    HW1 1601   1.241   1.956   0.586 -0.5714 -0.3172  2.9231
  486SOL    HW2 1602   1.366   1.893   0.641  0.8420  0.4074  0.6923
  487SOL     OW 1603   3.200   2.027   2.990 -0.0019  0.3060  0.5635
  487SOL    HW1 1604   3.226   1.975   2.914  0.7890  1.0300  0.3206
  487SOL    HW2 1605   3.244   2.111   2.978 -1.1765  1.0093  0.9909
  488SOL     OW 1606   2.307   3.695   1.430 -0.0445  0.0471  0.6764
  488SOL    HW1 1607   2.385   3.736   1.468  1.8565 -0.4729 -2.3141
  488SOL    HW2 1608   2.327   3.688   1.336 -3.4211 -0.8222 -0.1105
  489SOL     OW 1609   3.412   2.622   3.101  0.0567 -0.1894 -0.2169
  489SOL    HW1 1610   3.437   2.674   3.025 -0.8133  0.4573 -0.0858
  489SOL    HW2 1611   3.322   2.651   3.120  0.6788  0.5303  1.7852
  490SOL     OW 1612   2.352   1.833   1.709  0.1240  0.4688  0.4945
  490SOL    HW1 1613   2.437   1.856   1.672 -0.3257  0.4619 -0.5927
  490SOL    HW2 1614   2.314   1.916   1.738 -0.0407  0.6494 -0.2262
  491SOL     OW 1615   2.300   3.289   1.602 -0.4394 -0.0124 -0.8986
  491SOL    HW1 1616   2.295   3.218   1.538 -0.5499 -0.4130 -0.4560
  491SOL    HW2 1617   2.390   3.320   1.597  0.0822 -1.2976  0.0728
  492SOL     OW 1618   1.432   3.103   1.125 -0.0673  0.5780  0.4665
  492SOL    HW1 1619   1.487   3.181   1.125 -0.9568  1.2268  1.3424
  492SOL    HW2 1620   1.384   3.106   1.042  0.2126  0.7343  0.3115
  493SOL     OW 1621   0.047   2.840   0.633 -0.1630 -0.1625 -0.2480
  493SOL    HW1 1622   0.114   2.788   0.678  0.9650  1.4696  0.0610
  493SOL    HW2 1623   0.094   2.884   0.563 -1.3253 -0.4044 -1.2135
  494SOL     OW 1624   1.675   0.566   1.477 -0.0772 -0.5102  1.1736
  494SOL    HW1 1625   1.721   0.634   1.526 -1.5757 -0.0389  1.9806
  494SOL    HW2 1626   1.595   0.609   1.446 -0.1957 -1.4208  0.1774
  495SOL     OW 1627   3.455   3.409   2.181  0.5714 -0.0068 -0.1363
  495SOL    HW1 1628   3.435   3.489   2.132  2.8015  0.5644 -0.1889
  495SOL    HW2 1629   3.444   3.434   2.273 -0.5748 -0.2023 -0.2053
  496SOL     OW 1630   2.926   1.463   3.075  0.3108  0.1973 -0.6811
  496SOL    HW1 1631   2.940   1.556   3.095  0.5141  0.2215 -0.9279
  496SOL    HW2 1632   2.832   1.456   3.058  0.1919  0.2406 -0.0676
  497SOL     OW 1633   3.642   2.883   1.138 -0.3985  0.1002 -0.3030
  497SOL    HW1 1634   3.579   2.916   1.074 -1.0555  1.8407  1.1632
  497SOL    HW2 1635   3.712   2.948   1.140  0.6890 -1.0109 -0.7503
  498SOL     OW 1636   2.297   0.213   0.526 -0.0591  0.2714 -0.0058
  498SOL    HW1 1637   2.241   0.282   0.561 -1.7773 -1.0327 -0.0754
  498SOL    HW2 1638   2.268   0.203   0.436 -0.3597 -1.0366  0.2212
  499SOL     OW 1639   2.998   3.617   0.172  0.2557  0.1117  0.0147
  499SOL    HW1 1640   3.011   3.707   0.201 -0.5814 -0.4541  2.3285
  499SOL    HW2 1641   2.921   3.621   0.116 -0.1500  0.7559  0.6004
  500SOL     OW 1642   0.678   0.061   0.492 -0.6297 -0.3021  0.0188
  500SOL    HW1 1643   0.631   0.065   0.575  0.1963  1.7261  0.4389
  500SOL    HW2 1644   0.770   0.057   0.517 -0.4067 -0.4753 -0.7996
  501SOL     OW 1645   3.046   1.763   2.152 -0.9434 -0.2388 -0.5109
  501SOL    HW1 1646   3.057   1.837   2.092 -4.7131  0.6399 -0.3738
  501SOL    HW2 1647   3.032   1.688   2.094  2.0010 -0.7859 -0.6415
  502SOL     OW 1648   1.887   2.501   3.031  0.3046 -0.2644 -0.4647
  502SOL    HW1 1649   1.961   2.507   2.970  0.2382  1.1927 -0.4190
  502SOL    HW2 1650   1.893   2.412   3.065  0.9614 -0.7741 -1.8085
  503SOL     OW 1651   2.354   1.875   1.174 -0.2758 -0.2508  0.4041
  503SOL    HW1 1652   2.351   1.970   1.170  1.1893 -0.1839  0.3157
  503SOL    HW2 1653   2.290   1.847   1.108  0.8044  0.7099 -1.1374
  504SOL     OW 1654   3.090   3.215   2.775  0.1668 -0.2423 -0.0868
  504SOL    HW1 1655   3.130   3.213   2.862  0.8715 -0.3838 -0.4079
  504SOL    HW2 1656   2.997   3.200   2.790  0.4890 -1.8043  0.5103
  505SOL     OW 1657   1.306   0.336   3.109 -0.4803  0.4023 -0.2299
  505SOL    HW1 1658   1.323   0.242   3.101 -3.3454 -0.1443 -1.0984
  505SOL    HW2 1659   1.363   0.376   3.042  1.6449 -0.5127  0.9351
  506SOL     OW 1660   0.150   0.882   0.984 -0.5312  0.3467 -0.9911
  506SOL    HW1 1661   0.172   0.902   0.893  3.1798  2.3136  0.1516
  506SOL    HW2 1662   0.151   0.966   1.029  0.3980 -0.7927  1.3249
  507SOL     OW 1663   1.628   2.137   2.674  0.1267  0.2704 -0.0493
  507SOL    HW1 1664   1.571   2.082   2.620 -0.1742 -0.2822  0.7984
  507SOL    HW2 1665   1.567   2.184   2.731  0.4296  0.9677 -0.3014
  508SOL     OW 1666   2.064   1.416   2.244  0.1309  0.5839  0.4102
  508SOL    HW1 1667   2.131   1.479   2.218  0.9657 -0.2051  0.5950
  508SOL    HW2 1668   2.083   1.339   2.190 -1.8206  0.9861 -0.9520
  509SOL     OW 1669   0.741   1.837   0.783 -0.3119 -0.0016 -0.2173
  509SOL    HW1 1670   0.647   1.858   0.785 -0.8792 -2.2588 -0.6061
  509SOL    HW2 1671   0.749   1.755   0.831  1.2364 -0.6063 -1.4108
  510SOL     OW 1672   0.940   2.931   1.806 -0.3261 -0.1277  0.1068
  510SOL    HW1 1673   0.976   2.850   1.842 -1.6622 -1.1615 -0.7736
  510SOL    HW2 1674   0.873   2.958   1.869  0.6302  0.7473  0.7845
  511SOL     OW 1675   1.406   1.962   1.003  0.4838  0.0142  0.1909
  511SOL    HW1 1676   1.440   1.951   1.091  0.2669 -2.4613  0.0231
  511SOL    HW2 1677   1.390   2.056   0.995  1.5236  0.4314  2.3806
  512SOL     OW 1678   1.639   2.538   1.122  0.0044  0.0936 -0.3366
  512SOL    HW1 1679   1.626   2.599   1.049 -0.6977 -0.5650 -0.7792
  512SOL    HW2 1680   1.662   2.455   1.080 -1.5037 -0.5860  0.1056
  513SOL     OW 1681   1.765   2.337   3.255 -0.7097  0.2693 -0.1271
  513SOL    HW1 1682   1.727   2.375   3.335 -0.7501 -0.4268  0.1918
  513SOL    HW2 1683   1.691   2.329   3.195 -0.5659  1.3856 -0.4811
  514SOL     OW 1684   1.187   1.408   1.732  0.2423  0.6514  0.2292
  514SOL    HW1 1685   1.242   1.330   1.736  0.7503  1.0072  0.3313
  514SOL    HW2 1686   1.249   1.481   1.735 -0.2436  1.0627  0.4646
  515SOL     OW 1687   0.281   1.538   2.430  0.1948  0.0806  0.0508
  515SOL    HW1 1688   0.199   1.489   2.426 -0.3689  1.0411 -0.3223
  515SOL    HW2 1689   0.274   1.603   2.361  1.9467 -0.8290 -1.0618
  516SOL     OW 1690   3.319   0.554   2.205 -0.0154 -0.4432  0.1367
  516SOL    HW1 1691   3.268   0.594   2.275 -0.8267 -0.4378 -0.4481
  516SOL    HW2 1692   3.326   0.622   2.138  0.4129 -0.5837  0.0322
  517SOL     OW 1693   3.677   2.239   0.978 -0.5899  0.5353  0.4004
  517SOL    HW1 1694   3.653   2.228   0.886 -0.1707  0.0206  0.3466
  517SOL    HW2 1695   3.659   2.331   0.997 -2.9798  0.1104  0.4853
  518SOL     OW 1696   0.633   0.212   2.436  0.0551  0.1437 -0.2005
  518SOL    HW1 1697   0.710   0.159   2.455 -0.6714 -1.4543 -1.4359
  518SOL    HW2 1698   0.566   0.178   2.495 -0.2783  0.0300 -0.6400
  519SOL     OW 1699   0.994   0.928   0.976  0.5521 -0.3729  0.2739
  519SOL    HW1 1700   1.074   0.980   0.977 -1.0986  2.3475  0.2063
  519SOL    HW2 1701   0.991   0.887   1.063  3.1807 -2.6035 -0.5729
  520SOL     OW 1702   0.032   2.990   0.868  0.2815 -0.2754 -0.3357
  520SOL    HW1 1703   0.059   2.981   0.777  0.4993  1.4009 -0.4517
  520SOL    HW2 1704  -0.046   3.046   0.866  0.9551  0.7368  0.5798
  521SOL     OW 1705   3.304   1.065   0.875  0.0493 -0.2320  0.2022
  521SOL    HW1 1706   3.386   1.018   0.863  1.2842  2.0918 -0.9572
  521SOL    HW2 1707   3.320   1.123   0.950 -1.3696 -1.3354  1.4469
  522SOL     OW 1708   2.702   1.487   1.233 -0.3489  0.8161 -0.5773
  522SOL    HW1 1709   2.633   1.470   1.297  1.1057  1.8521  1.3742
  522SOL    HW2 1710   2.681   1.573   1.197 -0.5821  0.7079 -0.7009
  523SOL     OW 1711   3.446   2.379   1.219  0.4697  0.1219 -0.0708
  523SOL    HW1 1712   3.477   2.433   1.146 -1.7882  2.4708  0.5455
  523SOL    HW2 1713   3.371   2.332   1.184  0.3421  0.0370  0.3145
  524SOL     OW 1714   1.912   2.975   3.580 -0.3770  0.1522  0.5056
  524SOL    HW1 1715   1.889   2.938   3.665 -0.1289 -0.0674  0.4793
  524SOL    HW2 1716   1.908   2.900   3.520  2.1764 -0.3143  0.8199
  525SOL     OW 1717   1.632   1.505   0.859 -0.2097  0.3316 -0.1747
  525SOL    HW1 1718   1.707   1.471   0.809 -1.2315  0.1174 -1.6169
  525SOL    HW2 1719   1.559   1.448   0.835 -0.9056  0.6707  1.0377
  526SOL     OW 1720   2.973   0.295   3.063 -0.2888  0.4708 -0.5003
  526SOL    HW1 1721   3.065   0.270   3.052  0.0085  1.7976 -1.2875
  526SOL    HW2 1722   2.941   0.239   3.133  0.6535 -1.1931 -1.3531
  527SOL     OW 1723   2.932   3.279   0.687  0.2419 -0.2832 -0.2706
  527SOL    HW1 1724   2.900   3.247   0.771  1.0864  2.0646  1.0412
  527SOL    HW2 1725   2.854   3.286   0.632 -0.4281 -1.2103  0.5293
  528SOL     OW 1726   2.314   1.933   2.096 -0.1670 -0.0084 -0.0779
  528SOL    HW1 1727   2.244   1.891   2.046  1.9303 -2.1044 -1.4594
  528SOL    HW2 1728   2.316   2.023   2.064  0.1261 -0.8956 -2.8100
  529SOL     OW 1729   0.460   1.881   3.006 -0.9536  0.4881  0.2796
  529SOL    HW1 1730   0.388   1.942   3.021 -0.6048  0.8244  0.6198
  529SOL    HW2 1731   0.460   1.866   2.912 -1.1577  0.8700  0.2191
  530SOL     OW 1732   1.604   2.308   0.478 -0.6130 -0.3375  0.0505
  530SOL    HW1 1733   1.610   2.232   0.536 -1.7483 -1.0192 -0.6935
  530SOL    HW2 1734   1.516   2.303   0.441 -0.0287  0.2622 -1.4816
  531SOL     OW 1735   2.747   0.042   0.396  0.1556 -0.7171  0.4574
  531SOL    HW1 1736   2.662   0.038   0.439  0.7200 -1.0104  1.5629
  531SOL    HW2 1737   2.777  -0.048   0.393  0.7384 -0.5333  0.6959
  532SOL     OW 1738   3.137   1.040   0.678 -0.0582 -0.0971  0.1224
  532SOL    HW1 1739   3.207   1.057   0.741  1.7944  0.2038 -1.9041
  532SOL    HW2 1740   3.091   1.123   0.670 -0.8821 -0.3640  1.6594
  533SOL     OW 1741   1.858   2.824   0.196 -0.8969 -0.4603  0.1451
  533SOL    HW1 1742   1.862   2.776   0.278 -1.5748 -0.4977  0.1651
  533SOL    HW2 1743   1.817   2.907   0.219  0.5453  0.2795  0.1700
  534SOL     OW 1744   1.048   2.579   0.577 -0.2458 -0.3272 -0.0754
  534SOL    HW1 1745   1.010   2.553   0.493  0.7159 -0.8091 -0.3685
  534SOL    HW2 1746   0.979   2.631   0.618 -1.2302 -1.1677 -0.5947
  535SOL     OW 1747   1.092   2.610   2.372  0.6127 -0.1109 -0.3669
  535SOL    HW1 1748   1.114   2.563   2.453  0.0879 -2.3365 -1.4165
  535SOL    HW2 1749   1.066   2.697   2.401  3.1038  0.0875  1.5863
  536SOL     OW 1750   1.399   0.260   0.552  0.2685 -0.4563 -0.9189
  536SOL    HW1 1751   1.411   0.171   0.521  0.7566 -0.8592  0.3574
  536SOL    HW2 1752   1.323   0.293   0.503  0.0475 -1.5752 -1.3568
  537SOL     OW 1753   1.315   1.519   0.266 -0.0168  0.1351  0.2870
  537SOL    HW1 1754   1.368   1.524   0.346  0.1704  1.2185  0.1089
  537SOL    HW2 1755   1.338   1.434   0.227  0.6950  0.0717  0.8228
  538SOL     OW 1756   2.895   2.710   3.209  0.3885 -0.3903  0.4824
  538SOL    HW1 1757   2.803   2.702   3.187  0.1548  0.6036  1.0107
  538SOL    HW2 1758   2.898   2.704   3.304  0.4162  2.7302  0.7927
  539SOL     OW 1759   0.167   0.653   1.850  0.6423 -0.1874 -0.1010
  539SOL    HW1 1760   0.172   0.652   1.754  1.2679  2.4104 -0.1899
  539SOL    HW2 1761   0.241   0.600   1.878  1.3648  0.2309 -1.1143
  540SOL     OW 1762   2.318   1.704   1.391  0.5549  0.4552  0.5738
  540SOL    HW1 1763   2.335   1.768   1.322  2.7058 -0.9043 -0.2578
  540SOL    HW2 1764   2.260   1.750   1.452 -0.0160  2.2978 -1.2412
  541SOL     OW 1765   3.037   2.248   0.119 -0.2404  0.1905  0.8294
  541SOL    HW1 1766   2.980   2.172   0.113  1.9797 -1.4771 -1.8840
  541SOL    HW2 1767   2.987   2.319   0.079 -0.9974 -0.8178 -0.0662
  542SOL     OW 1768   1.745   3.381   3.184  0.0426 -0.8254  0.1892
  542SOL    HW1 1769   1.747   3.464   3.135 -2.5380  0.2217  1.6596
  542SOL    HW2 1770   1.757   3.313   3.118 -1.1305  0.6117 -1.5841
  543SOL     OW 1771   1.729   3.637   2.168 -0.6604  0.6511 -0.0144
  543SOL    HW1 1772   1.702   3.587   2.091 -1.4171  1.5658 -0.3638
  543SOL    HW2 1773   1.681   3.596   2.241  1.9589 -1.8810  0.4957
  544SOL     OW 1774   3.055   2.318   1.411  0.5919 -0.3535  0.2320
  544SOL    HW1 1775   3.032   2.397   1.362 -0.2283 -1.0413 -0.5165
  544SOL    HW2 1776   2.976   2.264   1.409  0.4330 -0.3050  2.5596
  545SOL     OW 1777   0.693   1.730   2.546 -0.4576 -0.1740 -0.1315
  545SOL    HW1 1778   0.651   1.697   2.466  1.4440 -0.4816 -1.0444
  545SOL    HW2 1779   0.729   1.815   2.522  1.7563 -1.0623 -0.2251
  546SOL     OW 1780   0.161   3.451   1.903 -0.2636 -0.8484 -0.3207
  546SOL    HW1 1781   0.160   3.360   1.875 -1.0252 -0.8376 -0.3473
  546SOL    HW2 1782   0.070   3.471   1.925 -0.1688  0.0026 -0.6374
  547SOL     OW 1783  -0.006   2.683   3.716  0.1156 -0.1617  0.2193
  547SOL    HW1 1784   0.043   2.649   3.790  2.0718 -3.1616 -2.1771
  547SOL    HW2 1785   0.037   2.767   3.695  0.4318  0.0388  1.5649
  548SOL     OW 1786   2.710   3.027   3.410 -0.1748  0.0144  0.3312
  548SOL    HW1 1787   2.637   3.071   3.367 -0.1417 -1.4811 -1.3643
  548SOL    HW2 1788   2.678   2.937   3.425 -0.2830  0.4798  3.7583
  549SOL     OW 1789   2.717   2.390   2.036 -0.0829  0.1633 -0.1584
  549SOL    HW1 1790   2.690   2.481   2.047 -1.8150 -0.3626  0.1987
  549SOL    HW2 1791   2.677   2.344   2.109 -1.5559 -1.3371 -1.8024
  550SOL     OW 1792   2.050   1.023   3.193  0.2516  0.3385 -0.4166
  550SOL    HW1 1793   2.058   0.954   3.259  0.4634 -0.6766 -1.4636
  550SOL    HW2 1794   2.012   0.979   3.117 -0.2815  1.5496 -0.8747
  551SOL     OW 1795   2.226   0.995   2.184 -1.1316 -0.0727 -0.4315
  551SOL    HW1 1796   2.214   0.913   2.135 -0.7589 -0.3657 -0.0418
  551SOL    HW2 1797   2.167   0.986   2.259 -0.9118 -0.0872 -0.2613
  552SOL     OW 1798   3.394   3.360   3.302 -0.0377 -0.3982  0.1727
  552SOL    HW1 1799   3.323   3.304   3.268 -2.0647  1.1257  1.6398
  552SOL    HW2 1800   3.415   3.323   3.387  0.3146 -0.3427  0.1079
  553SOL     OW 1801   1.608   0.684   3.147 -0.4344  0.4410  0.5819
  553SOL    HW1 1802   1.679   0.687   3.211  1.3780  1.2793 -1.3409
  553SOL    HW2 1803   1.536   0.640   3.192  0.8869  0.6365  3.0160
  554SOL     OW 1804   2.729   2.045   1.923 -0.2355 -0.0932  0.0056
  554SOL    HW1 1805   2.705   2.114   1.985 -0.8636  0.2676 -0.6271
  554SOL    HW2 1806   2.680   2.066   1.843 -2.7104 -2.8236  0.6332
  555SOL     OW 1807   3.354   1.524   0.153  0.0558 -0.2983  0.0200
  555SOL    HW1 1808   3.352   1.461   0.080  1.2392 -0.9842  0.5497
  555SOL    HW2 1809   3.415   1.592   0.124 -0.3227  0.0010 -0.0750
  556SOL     OW 1810   3.331   3.433   0.333 -0.2395  0.2108 -0.8294
  556SOL    HW1 1811   3.258   3.381   0.301  0.2867  0.6781 -2.9524
  556SOL    HW2 1812   3.297   3.522   0.338 -0.5246  0.0382  0.7112
  557SOL     OW 1813   0.473   1.824   2.736  0.1060  0.1319  0.9350
  557SOL    HW1 1814   0.462   1.905   2.686 -0.0010 -0.2269  0.3713
  557SOL    HW2 1815   0.540   1.776   2.688  0.6994  0.2012  1.6799
  558SOL     OW 1816   1.324   3.690   1.070  0.3784 -0.2228  0.6192
  558SOL    HW1 1817   1.413   3.720   1.051  0.1315  0.4997  0.5699
  558SOL    HW2 1818   1.323   3.599   1.042  1.1815 -0.3164  0.8619
  559SOL     OW 1819   1.324   2.532   2.688  0.3039  0.0264 -0.3191
  559SOL    HW1 1820   1.242   2.494   2.659  0.1652 -0.2719  0.4396
  559SOL    HW2 1821   1.301   2.582   2.766  0.9638 -0.7030  0.3609
  560SOL     OW 1822   0.121   3.264   2.913  0.2550  0.1488 -0.4656
  560SOL    HW1 1823   0.170   3.191   2.874  1.4706  0.5962  0.1685
  560SOL    HW2 1824   0.081   3.308   2.838  0.2634 -0.6256 -0.9402
  561SOL     OW 1825   2.798   3.247   3.135  0.4548 -0.4336 -0.1797
  561SOL    HW1 1826   2.843   3.162   3.132  0.4556 -0.4240 -2.3905
  561SOL    HW2 1827   2.868   3.311   3.144  0.4732 -0.6230  1.2369
  562SOL     OW 1828   1.324   0.609   0.767  0.3287 -0.5779 -0.2586
  562SOL    HW1 1829   1.343   0.562   0.686  0.9818 -1.5654  0.4318
  562SOL    HW2 1830   1.377   0.564   0.833 -0.1829  0.2085  0.7130
  563SOL     OW 1831   0.484   0.788   2.234 -0.0492 -0.0734 -0.0796
  563SOL    HW1 1832   0.540   0.864   2.249  0.8833 -0.4834 -1.3896
  563SOL    HW2 1833   0.399   0.826   2.210  0.6780  0.5925 -1.7357
  564SOL     OW 1834   2.247   0.050   3.615  0.4210 -0.5396  0.1739
  564SOL    HW1 1835   2.302   0.072   3.540 -0.1260 -1.3036 -0.4704
  564SOL    HW2 1836   2.307   0.053   3.690  1.3037 -1.1590 -0.4829
  565SOL     OW 1837   2.823   3.725   2.507 -0.1170 -0.1660 -0.5010
  565SOL    HW1 1838   2.822   3.789   2.578 -2.3134 -1.2036  0.5021
  565SOL    HW2 1839   2.873   3.651   2.540  1.3949  0.5136 -1.2041
  566SOL     OW 1840   3.611   2.400   3.152 -0.1547 -0.7417  0.1169
  566SOL    HW1 1841   3.559   2.426   3.076  0.0717  1.3604  0.6055
  566SOL    HW2 1842   3.553   2.416   3.227  0.2524 -0.9987  0.4883
  567SOL     OW 1843   1.417   0.532   2.562 -0.3358  0.2883 -0.0788
  567SOL    HW1 1844   1.433   0.440   2.583  0.3684 -0.0677 -1.9461
  567SOL    HW2 1845   1.505   0.567   2.545 -0.7691  0.7183 -1.5128
  568SOL     OW 1846   0.101   1.081   0.769 -0.0400  0.6561  0.6315
  568SOL    HW1 1847   0.036   1.071   0.700 -0.0426  1.2720  0.5410
  568SOL    HW2 1848   0.184   1.058   0.728 -0.0499  0.9678  0.4390
  569SOL     OW 1849   1.456   2.818   2.125  0.0782 -0.6376  0.1754
  569SOL    HW1 1850   1.372   2.839   2.086 -0.5018 -0.5614  1.4172
  569SOL    HW2 1851   1.439   2.814   2.219  1.5485 -0.2047  0.4909
  570SOL     OW 1852   2.824   3.310   0.069  0.0856 -0.4758 -0.1447
  570SOL    HW1 1853   2.908   3.331   0.110 -1.1001  1.9827  1.2534
  570SOL    HW2 1854   2.826   3.356  -0.015 -0.7782  1.8271  1.0094
  571SOL     OW 1855   2.512   1.410   3.014  0.3015  0.3268  0.2704
  571SOL    HW1 1856   2.483   1.499   2.993  1.1430  0.5089 -0.1793
  571SOL    HW2 1857   2.533   1.413   3.108 -1.7446 -0.0014  0.7840
  572SOL     OW 1858   2.922   0.667   1.770  0.4361  0.2522  0.3236
  572SOL    HW1 1859   2.971   0.720   1.832  2.8493 -1.1976 -0.2122
  572SOL    HW2 1860   2.979   0.661   1.693 -1.0882 -0.5821 -0.7997
  573SOL     OW 1861   3.274   0.370   2.892 -0.6486 -0.9726  0.3823
  573SOL    HW1 1862   3.330   0.407   2.959  0.0666  0.2455 -0.8465
  573SOL    HW2 1863   3.227   0.445   2.855 -2.2553 -1.8169  0.6092
  574SOL     OW 1864   0.374   0.388   3.360 -0.2024  0.9398  0.0633
  574SOL    HW1 1865   0.465   0.415   3.366 -0.0762  0.5930 -0.3199
  574SOL    HW2 1866   0.347   0.373   3.451 -0.2823  2.3776  0.2991
  575SOL     OW 1867   0.374   1.692   2.054 -0.2476 -0.1773  0.2179
  575SOL    HW1 1868   0.296   1.637   2.055 -0.7886  0.4896 -1.6821
  575SOL    HW2 1869   0.421   1.666   1.974  0.6609  0.5299  0.4947
  576SOL     OW 1870   0.040   0.121   3.387 -0.4997 -0.1288 -0.2732
  576SOL    HW1 1871   0.000   0.114   3.300 -0.3731  0.6536 -0.4013
  576SOL    HW2 1872   0.108   0.188   3.377  1.6963 -2.2306 -0.3616
  577SOL     OW 1873   2.662   3.477   0.352 -0.9993  0.4249  0.6018
  577SOL    HW1 1874   2.588   3.535   0.336 -0.2453  0.9725 -1.2085
  577SOL    HW2 1875   2.643   3.399   0.300  0.1508  1.0025 -0.7266
  578SOL     OW 1876   3.063   1.527   3.477  0.3009  0.1871  0.0409
  578SOL    HW1 1877   3.028   1.582   3.407 -1.4293 -1.2064 -0.2844
  578SOL    HW2 1878   3.158   1.538   3.472  0.1293  1.3632 -1.4444
  579SOL     OW 1879   3.058   1.038   1.739 -0.0548 -0.4313  0.6286
  579SOL    HW1 1880   2.967   1.038   1.709 -0.1081  2.0979  0.5733
  579SOL    HW2 1881   3.095   1.119   1.703  2.9132 -2.4149 -1.2314
  580SOL     OW 1882   0.699   2.488   1.660  0.5270 -0.2677  0.6533
  580SOL    HW1 1883   0.764   2.458   1.724  1.1287  1.2115  0.7677
  580SOL    HW2 1884   0.734   2.460   1.576  0.4716 -0.9299  0.8457
  581SOL     OW 1885   1.183   2.962   1.048  0.0368 -0.4858  0.1720
  581SOL    HW1 1886   1.251   2.899   1.025 -1.1634 -1.8777  0.2506
  581SOL    HW2 1887   1.118   2.910   1.097 -2.4758  0.0566 -2.3329
  582SOL     OW 1888   2.091   0.305   2.659 -0.0386 -0.4163 -0.4246
  582SOL    HW1 1889   2.079   0.372   2.592 -0.1821 -0.2447 -0.2293
  582SOL    HW2 1890   2.063   0.224   2.618 -2.3885  0.0375  0.1780
  583SOL     OW 1891   2.543   3.393   1.556 -0.3086 -0.1588 -0.1191
  583SOL    HW1 1892   2.561   3.441   1.475  0.4227 -0.3557 -0.0823
  583SOL    HW2 1893   2.630   3.374   1.592 -0.4853 -2.8992 -0.9257
  584SOL     OW 1894   1.839   2.427   0.642  0.3042  0.3036 -0.1296
  584SOL    HW1 1895   1.781   2.416   0.717  0.9452 -2.5188  0.0569
  584SOL    HW2 1896   1.781   2.422   0.566  0.0523 -0.5142  0.1055
  585SOL     OW 1897   2.674   0.929   0.143  0.6892 -0.0503  0.5278
  585SOL    HW1 1898   2.585   0.953   0.167  0.7119 -1.0258  1.7077
  585SOL    HW2 1899   2.696   0.985   0.069 -1.4619 -0.8995 -0.8312
  586SOL     OW 1900   0.985   3.464   3.399  0.4702  0.3760 -0.3548
  586SOL    HW1 1901   1.076   3.437   3.407  0.5571  0.7572  0.0070
  586SOL    HW2 1902   0.936   3.383   3.390  0.7355  0.1078  0.5432
  587SOL     OW 1903   2.972   1.284   3.300  0.4161 -0.2839 -0.1952
  587SOL    HW1 1904   2.883   1.291   3.336  0.4427 -0.8813 -0.0074
  587SOL    HW2 1905   2.981   1.360   3.243 -1.0236 -1.3562 -1.9667
  588SOL     OW 1906   3.172   3.496   0.720 -0.6713 -0.0050 -0.2468
  588SOL    HW1 1907   3.181   3.417   0.667  0.8732  0.3452 -0.5647
  588SOL    HW2 1908   3.130   3.466   0.800 -0.4977 -1.0797 -0.5379
  589SOL     OW 1909   2.043   2.016   3.701 -0.4215 -0.1786 -0.4012
  589SOL    HW1 1910   2.055   1.991   3.609 -1.8452  0.4007 -0.7613
  589SOL    HW2 1911   1.968   2.075   3.701 -1.4753 -1.4125  1.3378
  590SOL     OW 1912   0.963   2.361   3.080 -0.0626 -0.5379  0.5119
  590SOL    HW1 1913   1.034   2.421   3.103 -0.4666 -0.1337  0.7207
  590SOL    HW2 1914   0.952   2.373   2.985  0.2107 -0.6771  0.4605
  591SOL     OW 1915   2.259   2.538   0.491  0.6578 -0.0471 -0.1793
  591SOL    HW1 1916   2.289   2.625   0.516  1.4728 -0.2995 -0.2489
  591SOL    HW2 1917   2.335   2.481   0.507 -0.5543 -1.1412  2.0612
  592SOL     OW 1918   1.604   0.953   2.227  0.0378 -0.2000  0.3014
  592SOL    HW1 1919   1.680   0.914   2.184  0.4528  1.4333 -0.5255
  592SOL    HW2 1920   1.528   0.916   2.181  0.1766 -2.8781  1.9991
  593SOL     OW 1921   3.400   1.354   3.647  0.4539  0.4116  0.4267
  593SOL    HW1 1922   3.479   1.325   3.602  0.0238 -2.0484  1.0850
  593SOL    HW2 1923   3.329   1.337   3.585  0.3783  2.8885 -0.2814
  594SOL     OW 1924   0.771   3.512   1.925 -0.0876 -0.4024  0.1113
  594SOL    HW1 1925   0.825   3.530   1.849  0.5823  3.0889  1.2193
  594SOL    HW2 1926   0.706   3.583   1.926 -0.7860 -0.9949  2.1570
  595SOL     OW 1927   0.457   2.193   1.435  0.3434  0.0552 -0.7951
  595SOL    HW1 1928   0.520   2.194   1.363  1.4666 -1.9805  0.0621
  595SOL    HW2 1929   0.373   2.171   1.393  0.0237  3.1421 -1.9970
  596SOL     OW 1930   0.264   2.862   0.985  0.1994 -0.3170  0.5641
  596SOL    HW1 1931   0.306   2.943   1.014 -1.0899  0.7667 -0.4890
  596SOL    HW2 1932   0.193   2.890   0.927 -0.1046 -2.2099 -0.0721
  597SOL     OW 1933   3.352   0.135   3.385  0.3547  0.1442 -0.1028
  597SOL    HW1 1934   3.283   0.182   3.340 -1.0989 -0.6799  1.1846
  597SOL    HW2 1935   3.327   0.043   3.378 -0.1628  0.0071  2.6837
  598SOL     OW 1936   1.318   1.063   3.405  0.0664  0.0316  0.3997
  598SOL    HW1 1937   1.369   1.018   3.337 -0.2724 -1.4681  1.1037
  598SOL    HW2 1938   1.228   1.063   3.371 -0.2062 -1.2361  1.0735
  599SOL     OW 1939   0.653   2.368   3.119  0.4620  0.1930 -0.0160
  599SOL    HW1 1940   0.744   2.350   3.097  0.1835 -1.0573 -0.2338
  599SOL    HW2 1941   0.614   2.399   3.037  0.2682 -1.0544 -0.4184
  600SOL     OW 1942   0.141   1.614   3.400  0.3065  0.2131  0.3678
  600SOL    HW1 1943   0.050   1.583   3.398  0.9034 -1.6564  0.6625
  600SOL    HW2 1944   0.145   1.670   3.478 -0.9342  1.5410 -0.4710
  601SOL     OW 1945   1.222   1.581   2.358 -0.4049 -0.1215 -0.2741
  601SOL    HW1 1946   1.130   1.595   2.338 -0.5885 -2.1413 -1.0972
  601SOL    HW2 1947   1.239   1.491   2.329  2.1037  0.5765 -1.1914
  602SOL     OW 1948   2.770   2.101   1.125  0.2136  0.3253  0.0369
  602SOL    HW1 1949   2.700   2.102   1.191  0.4675  1.3149  0.3115
  602SOL    HW2 1950   2.831   2.034   1.156  0.0491  0.3883  0.5177
  603SOL     OW 1951   0.560   3.611   3.609  0.1612 -0.5808  0.2519
  603SOL    HW1 1952   0.652   3.640   3.613 -0.4663  1.7316 -0.2525
  603SOL    HW2 1953   0.563   3.529   3.560  2.1466 -1.7035  2.0793
  604SOL     OW 1954   2.493   3.516   1.940  0.3948  1.2313 -0.0574
  604SOL    HW1 1955   2.503   3.611   1.948 -0.4529  1.2960  0.3655
  604SOL    HW2 1956   2.416   3.505   1.885  0.6925  0.7828 -0.3907
  605SOL     OW 1957   0.632   3.221   0.953 -0.0885  0.2020  0.7351
  605SOL    HW1 1958   0.652   3.165   0.879 -1.0596  0.1944  0.4646
  605SOL    HW2 1959   0.638   3.310   0.918  3.1567  0.4257  1.5689
  606SOL     OW 1960   1.132   1.509   0.771  0.6836  0.5021  0.0079
  606SOL    HW1 1961   1.141   1.557   0.853  1.2178  0.5907 -0.0947
  606SOL    HW2 1962   1.152   1.574   0.703 -1.2599  0.8440 -0.2984
  607SOL     OW 1963   3.721   1.510   1.892  0.4796 -0.1697 -0.7049
  607SOL    HW1 1964   3.679   1.540   1.811 -1.5031 -1.3293 -0.1674
  607SOL    HW2 1965   3.735   1.590   1.942 -2.7322  0.2275 -0.2158
  608SOL     OW 1966   1.076   2.883   0.688 -0.0498 -0.1327 -0.0708
  608SOL    HW1 1967   1.020   2.835   0.748  1.5311 -1.8052  0.1563
  608SOL    HW2 1968   1.033   2.968   0.677 -2.6829 -1.3737 -0.0596
  609SOL     OW 1969   3.001   3.154   1.366 -0.1056  0.1278 -0.5024
  609SOL    HW1 1970   2.972   3.244   1.350 -2.2157  0.4311  3.6824
  609SOL    HW2 1971   3.082   3.164   1.415  0.0761 -0.2886 -0.7189
  610SOL     OW 1972   0.948   2.971   2.719  0.6135 -0.0338 -0.1927
  610SOL    HW1 1973   0.975   2.941   2.805  0.3989  0.2246 -0.0320
  610SOL    HW2 1974   1.014   2.937   2.659  1.8044  1.3349  0.2932
  611SOL     OW 1975   2.387   0.799   2.039  0.6268 -1.1881 -0.3232
  611SOL    HW1 1976   2.396   0.874   2.097  2.5712 -1.3059 -0.3894
  611SOL    HW2 1977   2.357   0.728   2.096 -0.8412 -0.4964 -0.1894
  612SOL     OW 1978   3.456   1.844   2.145 -0.2491 -1.1106 -0.1400
  612SOL    HW1 1979   3.413   1.928   2.126  0.5557 -0.6359  0.0843
  612SOL    HW2 1980   3.549   1.862   2.133  0.0491 -1.5973  1.2438
  613SOL     OW 1981   2.383   1.627   1.918 -0.2356 -0.1018  0.5121
  613SOL    HW1 1982   2.400   1.576   1.839  0.1308  0.0550  0.4833
  613SOL    HW2 1983   2.371   1.716   1.887  0.0221 -0.0205  0.6421
  614SOL     OW 1984   3.464   2.767   1.303  0.2557  0.1917 -0.0965
  614SOL    HW1 1985   3.535   2.815   1.262 -0.6550  0.6889 -1.1445
  614SOL    HW2 1986   3.437   2.823   1.376  2.8148 -1.3493  2.2168
  615SOL     OW 1987   2.415   0.285   3.224  0.5027  0.2665  0.1578
  615SOL    HW1 1988   2.353   0.303   3.152 -0.4733  0.8456  1.1132
  615SOL    HW2 1989   2.475   0.359   3.222 -0.1566  0.8301  0.5774
  616SOL     OW 1990   1.775   2.006   2.397 -0.4112  0.1158  0.0491
  616SOL    HW1 1991   1.825   1.953   2.335 -0.1032  2.2559 -1.6580
  616SOL    HW2 1992   1.709   1.946   2.432 -1.5068 -0.9342 -3.3843
  617SOL     OW 1993   1.414   3.305   0.338 -0.1491  0.1138  0.0209
  617SOL    HW1 1994   1.382   3.377   0.284 -0.3312 -0.0972 -0.1476
  617SOL    HW2 1995   1.508   3.299   0.317 -0.1591  0.2226 -0.0525
  618SOL     OW 1996   1.260   2.391   1.991 -0.0627 -0.0368 -0.5193
  618SOL    HW1 1997   1.171   2.381   2.026  0.1953  0.4933  0.3363
  618SOL    HW2 1998   1.316   2.352   2.058  0.5788  2.4184  0.4997
  619SOL     OW 1999   0.036   2.597   2.638 -0.5390  0.0393 -0.0662
  619SOL    HW1 2000   0.007   2.559   2.721  1.3194  0.3270  0.7651
  619SOL    HW2 2001   0.112   2.651   2.661 -0.4044  0.6864 -1.8549
  620SOL     OW 2002   1.299   2.625   0.184  0.2217 -0.5663  0.0630
  620SOL    HW1 2003   1.258   2.636   0.269 -1.3265 -0.4766 -0.6728
  620SOL    HW2 2004   1.324   2.714   0.158 -2.0126 -0.1550 -0.8594
  621SOL     OW 2005   1.682   1.143   0.795 -0.5132 -0.3144  0.5730
  621SOL    HW1 2006   1.602   1.136   0.846  0.1501  0.5926  1.7910
  621SOL    HW2 2007   1.653   1.165   0.707 -1.6685 -1.5806  0.5934
  622SOL     OW 2008   0.966   0.937   0.347 -0.2581  0.6003 -0.8763
  622SOL    HW1 2009   1.007   0.877   0.285  1.2452  0.3864  0.2816
  622SOL    HW2 2010   0.965   1.022   0.301 -0.4788  0.1591 -1.7087
  623SOL     OW 2011   1.920   1.243   1.736 -0.3203  0.3026 -0.1224
  623SOL    HW1 2012   1.957   1.316   1.686  0.4537 -0.7389 -1.1280
  623SOL    HW2 2013   1.962   1.165   1.699 -2.6621 -0.8440 -0.5218
  624SOL     OW 2014   1.516   1.911   1.481 -0.4164  0.0472 -0.5519
  624SOL    HW1 2015   1.479   1.967   1.412 -1.3507 -0.3794 -0.4176
  624SOL    HW2 2016   1.590   1.868   1.440 -0.2449  0.6877 -0.9337
  625SOL     OW 2017   3.112   1.870   2.708 -0.0721  0.4536 -0.4938
  625SOL    HW1 2018   3.072   1.846   2.792  0.3181  0.7952 -0.2032
  625SOL    HW2 2019   3.040   1.867   2.645 -0.5471  1.0140  0.0120
  626SOL     OW 2020   3.195   2.887   3.195 -0.5516  0.0209  0.1846
  626SOL    HW1 2021   3.195   2.813   3.135 -0.3699  0.0260  0.1786
  626SOL    HW2 2022   3.254   2.952   3.155 -1.1677  0.4113 -0.1052
  627SOL     OW 2023   1.821   1.256   2.009 -0.2363  0.0887  0.2979
  627SOL    HW1 2024   1.868   1.261   1.926  1.5380  1.0329  1.2913
  627SOL    HW2 2025   1.794   1.346   2.027 -0.7475 -0.1335  0.6765
  628SOL     OW 2026   1.670   0.477   0.207  0.6528  0.3425  0.1709
  628SOL    HW1 2027   1.628   0.422   0.141  1.5219 -0.4450  0.2709
  628SOL    HW2 2028   1.603   0.488   0.275 -0.1931  1.0185 -0.7242
  629SOL     OW 2029   0.413   2.593   0.385 -0.1721  0.2764 -0.3646
  629SOL    HW1 2030   0.469   2.522   0.416 -0.3226  0.9452  1.5315
  629SOL    HW2 2031   0.453   2.621   0.302  2.5377  0.9255  1.0496
  630SOL     OW 2032   1.819   0.873   1.794  0.5254 -0.1532 -0.0261
  630SOL    HW1 2033   1.794   0.875   1.702 -1.0210  1.1039  0.3660
  630SOL    HW2 2034   1.822   0.780   1.816 -1.1358 -0.4527 -0.8648
  631SOL     OW 2035   0.978   0.089   0.597  0.1001 -0.2134  0.6715
  631SOL    HW1 2036   0.928   0.132   0.667 -1.4014  2.0334 -1.6340
  631SOL    HW2 2037   1.005   0.160   0.539  0.8451 -2.0210 -1.3401
  632SOL     OW 2038   0.108   2.484   0.865 -0.5565 -0.2192  0.0676
  632SOL    HW1 2039   0.118   2.401   0.817 -0.7050 -0.5665  0.6289
  632SOL    HW2 2040   0.042   2.533   0.816 -1.0046 -0.7429  0.1421
  633SOL     OW 2041   3.345   2.778   0.170 -0.7839  0.1838  0.2792
  633SOL    HW1 2042   3.415   2.837   0.142 -0.8053  0.1834  0.2251
  633SOL    HW2 2043   3.359   2.698   0.119 -0.4078 -0.0710  0.7698
  634SOL     OW 2044   0.793   1.119   1.904  0.6101  0.2138  0.4719
  634SOL    HW1 2045   0.821   1.196   1.953  0.8167 -0.7901  1.9922
  634SOL    HW2 2046   0.844   1.047   1.942 -0.2814 -0.8223 -0.2506
  635SOL     OW 2047   2.258   3.639   0.870 -0.2441  0.9742 -0.1564
  635SOL    HW1 2048   2.283   3.724   0.834 -1.3688  0.8008 -1.4573
  635SOL    HW2 2049   2.186   3.610   0.814  0.5032 -1.1084 -0.1380
  636SOL     OW 2050   1.918   2.667   2.533 -0.1467  0.2220  0.6995
  636SOL    HW1 2051   1.872   2.747   2.510 -1.9107 -0.2167  2.3798
  636SOL    HW2 2052   1.943   2.680   2.625  2.5067  0.1279  0.0518
  637SOL     OW 2053   0.783   2.801   1.305 -0.0470 -0.1921 -0.3169
  637SOL    HW1 2054   0.790   2.817   1.399  1.4152  0.6476 -0.5465
  637SOL    HW2 2055   0.729   2.874   1.274 -0.5757 -0.4985 -0.1352
  638SOL     OW 2056   3.593   1.440   1.015  0.1553  0.7011 -0.4134
  638SOL    HW1 2057   3.522   1.449   0.952  0.0180  1.4284 -0.1625
  638SOL    HW2 2058   3.549   1.439   1.100  0.2121 -1.6058 -0.3404
  639SOL     OW 2059   1.172   0.020   3.508  0.1333  0.2844  0.1816
  639SOL    HW1 2060   1.264   0.019   3.482 -0.1217  1.4634 -0.8643
  639SOL    HW2 2061   1.173   0.041   3.601  0.9000  1.2902 -0.0382
  640SOL     OW 2062   2.562   1.885   0.967 -0.1741  0.6369  0.4229
  640SOL    HW1 2063   2.489   1.875   1.028 -1.2996  2.0462 -0.6255
  640SOL    HW2 2064   2.591   1.975   0.979 -1.2633  1.3830 -1.9415
  641SOL     OW 2065   2.675   0.828   2.694  0.0650  0.3717  0.0005
  641SOL    HW1 2066   2.693   0.739   2.664  0.1213  0.4677 -0.2566
  641SOL    HW2 2067   2.643   0.818   2.783  0.0239  0.0892 -0.0467
  642SOL     OW 2068   3.080   0.486   0.299 -0.3231  0.5429  0.0926
  642SOL    HW1 2069   3.170   0.482   0.266 -0.1513 -1.8195  0.6846
  642SOL    HW2 2070   3.084   0.547   0.372  0.5064  1.4303 -0.6626
  643SOL     OW 2071   1.812   2.238   2.175 -0.2717 -0.4931 -0.4463
  643SOL    HW1 2072   1.776   2.303   2.115  2.8473  2.6443  0.7253
  643SOL    HW2 2073   1.770   2.259   2.259  0.2471 -0.4503 -0.1986
  644SOL     OW 2074   1.183   2.725   2.809  0.5627 -0.0011 -0.3457
  644SOL    HW1 2075   1.183   2.819   2.789 -0.6967  0.3108  0.9609
  644SOL    HW2 2076   1.097   2.695   2.781  0.3718 -0.4307  0.6749
  645SOL     OW 2077   1.622   1.167   0.534  0.6197 -0.0333  1.0284
  645SOL    HW1 2078   1.569   1.239   0.501 -0.5225 -1.3475 -0.1303
  645SOL    HW2 2079   1.712   1.192   0.513  0.4645  1.8880  2.3504
  646SOL     OW 2080   0.491   0.316   0.595 -0.3938  0.2004  0.4801
  646SOL    HW1 2081   0.553   0.305   0.523 -1.5589  0.9775 -0.6706
  646SOL    HW2 2082   0.543   0.356   0.665  0.4964  0.4737 -0.3105
  647SOL     OW 2083   3.220   2.976   2.220  0.5746  0.9337  0.3593
  647SOL    HW1 2084   3.198   2.937   2.135  0.2052 -1.3800  1.4532
  647SOL    HW2 2085   3.202   3.070   2.208 -1.7732  0.3621 -1.3960
  648SOL     OW 2086   1.907   0.690   1.175  0.3317 -0.1647 -0.0174
  648SOL    HW1 2087   1.881   0.782   1.166 -0.4827 -0.2128  1.5058
  648SOL    HW2 2088   1.915   0.659   1.085  0.2655  1.2981 -0.5576
  649SOL     OW 2089   2.645   2.701   3.636  0.0682 -0.9126 -0.0956
  649SOL    HW1 2090   2.694   2.686   3.555  0.2660 -0.7469 -0.0074
  649SOL    HW2 2091   2.556   2.721   3.606 -0.1180 -1.8741 -0.2295
  650SOL     OW 2092   1.907   0.082   0.341  0.1762 -0.1228  0.0950
  650SOL    HW1 2093   1.908   0.167   0.296 -0.2302 -0.7043 -1.0754
  650SOL    HW2 2094   1.992   0.043   0.320 -0.0859 -0.4708 -0.3510
  651SOL     OW 2095   2.961   1.638   1.862 -0.8053 -0.2540 -0.4133
  651SOL    HW1 2096   2.936   1.576   1.931  2.0315  0.1724  1.1321
  651SOL    HW2 2097   3.045   1.607   1.830 -0.2321  1.7114 -0.9727
  652SOL     OW 2098   2.797   0.940   1.366 -0.3213 -0.6971  0.4667
  652SOL    HW1 2099   2.886   0.948   1.402 -0.6355  2.4893  0.7957
  652SOL    HW2 2100   2.809   0.893   1.284  2.0626  1.4466 -0.5643
  653SOL     OW 2101   2.330   1.174   3.666 -0.4191  0.2339  0.8854
  653SOL    HW1 2102   2.246   1.152   3.626 -0.0503  1.4836 -0.6629
  653SOL    HW2 2103   2.394   1.128   3.612  0.0684  1.6978  0.1925
  654SOL     OW 2104   3.608   1.526   3.132 -0.0291 -0.0227  0.0591
  654SOL    HW1 2105   3.666   1.464   3.088 -1.1013 -0.8766 -0.1751
  654SOL    HW2 2106   3.533   1.536   3.074 -0.8256 -0.1010  1.0454
  655SOL     OW 2107   3.441   2.548   2.110  0.6353  0.1580  0.0689
  655SOL    HW1 2108   3.453   2.506   2.025  0.2799 -1.4983  0.7963
  655SOL    HW2 2109   3.525   2.589   2.129  0.9049  0.0351 -0.8146
  656SOL     OW 2110   1.900   1.288   2.995  0.0600  0.4814  0.4654
  656SOL    HW1 2111   1.946   1.335   2.926 -1.7454  2.0286  0.2407
  656SOL    HW2 2112   1.925   1.334   3.075  0.7073 -0.1580  0.6429
  657SOL     OW 2113   3.102   2.617   0.150  0.2291  0.3509  0.1731
  657SOL    HW1 2114   3.063   2.531   0.134  0.9663  0.1456 -0.5561
  657SOL    HW2 2115   3.127   2.649   0.064  1.0534  0.7745  0.5582
  658SOL     OW 2116   2.115   2.645   1.512 -0.2482  0.1617 -0.2624
  658SOL    HW1 2117   2.068   2.583   1.567  1.7738 -0.5669  0.7362
  658SOL    HW2 2118   2.203   2.648   1.548 -0.4024  4.2861  0.2741
  659SOL     OW 2119   3.587   1.117   0.626 -0.5489  0.0009  0.0538
  659SOL    HW1 2120   3.591   1.176   0.701 -0.3393 -1.3122  1.1114
  659SOL    HW2 2121   3.540   1.166   0.559  2.3759  2.5896 -0.3096
  660SOL     OW 2122   0.713   0.766   3.194  0.2171 -0.5543 -0.4221
  660SOL    HW1 2123   0.637   0.806   3.152  0.4254 -1.3663 -1.6299
  660SOL    HW2 2124   0.702   0.672   3.181  1.6086 -0.6723 -1.0078
  661SOL     OW 2125   3.256   0.112   2.672 -0.3682 -0.2748 -0.8002
  661SOL    HW1 2126   3.180   0.065   2.706 -0.7930  0.6342 -0.4558
  661SOL    HW2 2127   3.324   0.099   2.738 -0.5192 -0.3149 -0.6507
  662SOL     OW 2128  -0.002   2.939   1.935  0.5240 -0.3641 -0.0196
  662SOL    HW1 2129   0.081   2.919   1.892  0.5351 -0.7230  0.1684
  662SOL    HW2 2130  -0.007   2.877   2.008 -0.0636 -0.5771 -0.2318
  663SOL     OW 2131   1.866   0.098   2.784 -0.0943 -0.1487  0.2053
  663SOL    HW1 2132   1.861   0.193   2.782  0.5872 -0.1301 -1.3424
  663SOL    HW2 2133   1.939   0.079   2.843 -1.3712  0.1986  1.9929
  664SOL     OW 2134   0.990   0.551   3.760  0.2359  0.3539  0.5636
  664SOL    HW1 2135   1.029   0.478   3.712 -1.0856  0.0079 -0.0153
  664SOL    HW2 2136   0.902   0.559   3.725 -0.3598  0.8866  2.0777
  665SOL     OW 2137   2.857   3.590   1.545  1.0635 -0.9820 -0.0500
  665SOL    HW1 2138   2.798   3.606   1.471 -0.2636  0.5973  1.2973
  665SOL    HW2 2139   2.931   3.648   1.529  0.9682 -0.9374 -0.3393
  666SOL     OW 2140   1.137   3.275   2.890  0.2020 -0.3100 -0.6991
  666SOL    HW1 2141   1.042   3.280   2.891  0.2734  1.9847  0.2974
  666SOL    HW2 2142   1.162   3.299   2.801 -0.1398  0.0606 -0.6989
  667SOL     OW 2143   2.350   0.735   2.769 -0.6785  0.4075  0.3574
  667SOL    HW1 2144   2.373   0.669   2.703 -0.0615  1.9594 -1.0278
  667SOL    HW2 2145   2.296   0.798   2.722 -1.0147  1.0652  1.5931
  668SOL     OW 2146   0.247   2.892   1.794  0.3494  0.1753 -0.4742
  668SOL    HW1 2147   0.250   2.850   1.708 -1.7179 -0.4828 -0.2854
  668SOL    HW2 2148   0.332   2.872   1.833  0.6648 -1.0296 -1.6805
  669SOL     OW 2149   3.176   2.672   2.684  0.5274  0.4483 -0.1580
  669SOL    HW1 2150   3.127   2.714   2.613  1.4305 -0.6788 -1.4949
  669SOL    HW2 2151   3.237   2.613   2.640  1.2328 -0.1768  1.5618
  670SOL     OW 2152   2.077   2.457   3.741 -0.8930  0.2138 -0.7938
  670SOL    HW1 2153   2.129   2.497   3.671  0.7258 -0.7175 -0.1805
  670SOL    HW2 2154   2.017   2.397   3.695 -2.0619  1.8821 -1.5726
  671SOL     OW 2155   3.598   3.126   2.572 -0.4782 -0.3294  0.0209
  671SOL    HW1 2156   3.583   3.153   2.481 -1.3219 -0.5249  0.0887
  671SOL    HW2 2157   3.620   3.033   2.566 -1.2396 -0.5254  0.0519
  672SOL     OW 2158   1.881   0.325   0.195  0.6983 -1.1850 -0.0657
  672SOL    HW1 2159   1.945   0.389   0.164 -0.4860  0.4268  0.7392
  672SOL    HW2 2160   1.796   0.362   0.174 -0.0763 -1.6123  2.0307
  673SOL     OW 2161   0.747   3.046   0.284  0.5475 -0.1247  0.0226
  673SOL    HW1 2162   0.709   2.959   0.298  0.0258  0.4701  2.9499
  673SOL    HW2 2163   0.679   3.095   0.239 -0.0817 -0.5573  0.4867
  674SOL     OW 2164   1.354   0.129   3.678  0.0885 -0.0753 -0.1382
  674SOL    HW1 2165   1.323   0.059   3.736  0.0154 -0.1613 -0.2808
  674SOL    HW2 2166   1.360   0.088   3.592 -3.0298  0.8575 -0.9286
  675SOL     OW 2167   0.567   1.685   0.983  0.4390  0.2241  0.4673
  675SOL    HW1 2168   0.529   1.759   1.031 -0.4550 -1.0047  1.7463
  675SOL    HW2 2169   0.634   1.649   1.041  0.4483 -0.3370  0.1243
  676SOL     OW 2170   0.738   1.206   0.145 -0.2274 -0.5602  0.1199
  676SOL    HW1 2171   0.665   1.209   0.207  0.1120 -0.5671  0.5251
  676SOL    HW2 2172   0.733   1.289   0.099  0.0964 -0.1386  0.8300
  677SOL     OW 2173   0.092   3.073   1.234  0.0026 -0.6219  0.2683
  677SOL    HW1 2174   0.071   3.083   1.327 -0.5694 -0.3029  0.1101
  677SOL    HW2 2175   0.144   3.151   1.212  1.7088 -1.5713  0.7393
  678SOL     OW 2176   1.155   1.088   2.124  1.0191  0.2064  0.1144
  678SOL    HW1 2177   1.116   1.167   2.088  0.9036 -0.3887 -1.1138
  678SOL    HW2 2178   1.147   1.098   2.219 -0.6856  0.8181 -0.0630
  679SOL     OW 2179   1.399   3.140   1.396  0.0195  0.2147  0.0068
  679SOL    HW1 2180   1.394   3.102   1.309 -0.8720 -0.6633  0.4212
  679SOL    HW2 2181   1.374   3.232   1.384 -2.2594 -0.3985 -0.3717
  680SOL     OW 2182   1.541   2.815   2.614  0.1320 -0.0190 -0.2217
  680SOL    HW1 2183   1.606   2.885   2.618 -1.2143  1.2193  1.2202
  680SOL    HW2 2184   1.471   2.844   2.672 -1.0497 -1.9973 -0.5720
  681SOL     OW 2185   0.090   0.334   1.081 -0.2339 -0.1530  0.1635
  681SOL    HW1 2186   0.094   0.385   1.001 -0.5572  0.1996  0.3686
  681SOL    HW2 2187   0.085   0.399   1.151  0.0943 -0.4558  0.4723
  682SOL     OW 2188   0.519   3.101   0.126 -0.2263  0.0300 -0.4037
  682SOL    HW1 2189   0.509   3.196   0.120  3.5202  0.6292  0.1253
  682SOL    HW2 2190   0.551   3.075   0.040  1.7589 -0.1388  0.3171
  683SOL     OW 2191   3.247   2.781   2.011  0.3079  0.6226 -0.0640
  683SOL    HW1 2192   3.223   2.705   2.064 -1.4179  0.3864 -1.1169
  683SOL    HW2 2193   3.332   2.808   2.046  1.3001 -2.1576 -0.0258
  684SOL     OW 2194   3.223   1.637   2.411 -0.2378 -0.1733 -0.2419
  684SOL    HW1 2195   3.140   1.684   2.422 -0.6340 -0.9148  0.0042
  684SOL    HW2 2196   3.202   1.566   2.351 -0.1003 -1.1374  0.8294
  685SOL     OW 2197   1.219   0.028   2.815 -0.3895 -0.1801  0.6400
  685SOL    HW1 2198   1.306   0.061   2.837  0.4882 -1.6801 -0.3728
  685SOL    HW2 2199   1.214  -0.058   2.857 -0.7012 -0.8385 -0.6797
  686SOL     OW 2200   2.542   2.555   0.580 -0.5142  0.3842  0.9079
  686SOL    HW1 2201   2.547   2.476   0.633  2.8462 -0.3332 -0.2272
  686SOL    HW2 2202   2.613   2.611   0.612 -1.2840  1.9103  0.1116
  687SOL     OW 2203   0.181   3.451   2.464  0.4266 -0.1679  0.3442
  687SOL    HW1 2204   0.230   3.533   2.455 -1.1593  0.7114 -0.6670
  687SOL    HW2 2205   0.109   3.459   2.403 -0.7212 -1.6331  1.4272
  688SOL     OW 2206   0.500   2.070   2.483  0.2421 -0.0879  0.1937
  688SOL    HW1 2207   0.469   2.154   2.518 -1.1849 -0.4052 -0.2275
  688SOL    HW2 2208   0.439   2.050   2.412 -0.3565 -2.1679  1.2082
  689SOL     OW 2209   0.234   1.377   1.855  0.1910 -0.4355  0.5294
  689SOL    HW1 2210   0.231   1.302   1.914  1.4565 -1.0609 -0.1678
  689SOL    HW2 2211   0.144   1.408   1.853 -0.6619 -2.7267 -0.1533
  690SOL     OW 2212   0.582   3.260   1.282 -0.2071  0.4232  0.4764
  690SOL    HW1 2213   0.601   3.268   1.375 -2.8319 -0.5912  1.1995
  690SOL    HW2 2214   0.535   3.341   1.260 -1.1941 -0.1118  0.5397
  691SOL     OW 2215   0.715   0.174   2.974 -0.1098  0.4088 -1.0111
  691SOL    HW1 2216   0.705   0.269   2.980  1.1378  0.5063  0.1789
  691SOL    HW2 2217   0.810   0.160   2.980 -0.2177 -0.8749 -1.9734
  692SOL     OW 2218   2.248   3.427   1.832  0.1269 -0.8686  0.0439
  692SOL    HW1 2219   2.209   3.505   1.792  3.0890  1.4622  1.3706
  692SOL    HW2 2220   2.271   3.372   1.758  1.1918  1.1744 -1.2344
  693SOL     OW 2221   1.103   3.091   3.272 -0.3254 -0.1200  0.1805
  693SOL    HW1 2222   1.025   3.112   3.324 -1.7804 -1.9225 -1.1026
  693SOL    HW2 2223   1.172   3.076   3.336 -2.3356 -3.4276  1.8332
  694SOL     OW 2224   1.736   3.046   0.260 -0.7596  0.2478  0.4341
  694SOL    HW1 2225   1.720   3.035   0.167 -2.7440 -1.7821  0.9264
  694SOL    HW2 2226   1.729   3.141   0.274  2.7785  1.0311 -1.8797
  695SOL     OW 2227   3.100   1.044   0.249 -0.0071 -0.7258 -0.2583
  695SOL    HW1 2228   3.159   1.068   0.178 -1.2208 -1.6538 -1.6353
  695SOL    HW2 2229   3.150   0.983   0.303  0.9591  0.0542 -0.2502
  696SOL     OW 2230   0.060   2.205   0.263  0.0930  0.0336  0.3880
  696SOL    HW1 2231   0.111   2.129   0.291 -1.4011 -1.1000  0.1678
  696SOL    HW2 2232  -0.014   2.208   0.323 -0.8971  0.1243 -0.7988
  697SOL     OW 2233   2.765   1.817   3.426  1.0709  0.6141 -0.3492
  697SOL    HW1 2234   2.743   1.881   3.494  0.3731  1.5624 -1.4155
  697SOL    HW2 2235   2.724   1.735   3.456 -0.1968  1.2850 -0.1533
  698SOL     OW 2236   0.316   0.753   3.158 -0.6377  0.2168 -0.0263
  698SOL    HW1 2237   0.318   0.830   3.101  0.4559  1.0542  1.0842
  698SOL    HW2 2238   0.344   0.786   3.244  0.1590 -1.4665  0.4008
  699SOL     OW 2239   0.440   2.240   3.281 -0.4491 -0.2510 -0.0173
  699SOL    HW1 2240   0.523   2.285   3.265 -0.5364  0.7599  2.1145
  699SOL    HW2 2241   0.375   2.310   3.284 -1.0856 -0.8409  0.2200
  700SOL     OW 2242   2.266   1.598   0.074 -0.0648 -0.1339 -0.3019
  700SOL    HW1 2243   2.197   1.664   0.077  0.5270  0.5098 -0.6967
  700SOL    HW2 2244   2.254   1.548   0.155 -0.6478  0.3212 -0.0990
  701SOL     OW 2245   2.495   0.929   3.575  0.2778 -0.0339 -0.3858
  701SOL    HW1 2246   2.563   0.936   3.643  2.0362 -0.7098 -1.9950
  701SOL    HW2 2247   2.476   0.836   3.570 -0.3345  0.0895 -0.3776
  702SOL     OW 2248   1.893   3.390   2.001 -0.0330 -0.1422 -0.2527
  702SOL    HW1 2249   1.907   3.481   1.974 -0.2183  0.0790  0.3772
  702SOL    HW2 2250   1.798   3.379   1.998 -0.1910  0.3226  1.6187
  703SOL     OW 2251   0.818   1.867   2.175 -0.4174 -0.3517  0.0045
  703SOL    HW1 2252   0.824   1.801   2.106 -1.7541  1.1126 -1.6219
  703SOL    HW2 2253   0.745   1.839   2.229 -0.1063 -0.9104  0.1423
  704SOL     OW 2254   0.273   2.610   2.129  0.0017  0.0898 -0.1638
  704SOL    HW1 2255   0.199   2.620   2.190 -0.1470  1.0366 -0.4822
  704SOL    HW2 2256   0.243   2.543   2.067 -0.2795 -0.0929  0.1596
  705SOL     OW 2257   0.722   2.306   0.230  0.0068  0.3544 -0.0347
  705SOL    HW1 2258   0.776   2.332   0.155 -0.3289 -1.7363 -1.0828
  705SOL    HW2 2259   0.674   2.229   0.199 -1.6207  0.5970  1.7284
  706SOL     OW 2260   2.966   2.986   1.639  0.1112 -0.9393 -0.7009
  706SOL    HW1 2261   2.954   3.080   1.631  0.1034 -0.9602 -0.9505
  706SOL    HW2 2262   3.045   2.976   1.693 -0.9952 -0.8062  1.0196
  707SOL     OW 2263   0.739   1.630   1.212  0.2450 -0.0410  0.0627
  707SOL    HW1 2264   0.718   1.536   1.213 -2.1082  0.4188 -0.6810
  707SOL    HW2 2265   0.820   1.636   1.161  0.9043 -1.7078  0.8160
  708SOL     OW 2266   2.384   1.021   0.488  0.0052 -0.0331  0.4173
  708SOL    HW1 2267   2.421   0.951   0.542 -2.2795 -0.8815  0.9935
  708SOL    HW2 2268   2.389   1.099   0.543 -2.1149 -0.8466  1.9063
  709SOL     OW 2269   0.288   3.243   2.628  0.3290 -0.8793 -0.0374
  709SOL    HW1 2270   0.380   3.269   2.624  1.0397 -2.6836  2.1832
  709SOL    HW2 2271   0.243   3.305   2.571  2.8315  0.3691 -0.8182
  710SOL     OW 2272   1.063   3.147   3.557 -0.5327  0.1245 -0.1169
  710SOL    HW1 2273   1.149   3.143   3.598 -1.4330 -0.2313  1.8352
  710SOL    HW2 2274   1.014   3.212   3.607 -1.1806  0.9018 -1.6843
  711SOL     OW 2275   3.621   3.504   3.239  0.3398 -0.4915 -0.5495
  711SOL    HW1 2276   3.549   3.455   3.279  0.8805 -0.1314  0.9086
  711SOL    HW2 2277   3.579   3.581   3.200 -0.3034 -1.2788 -1.4894
  712SOL     OW 2278   2.018   1.078   0.936 -0.0773  0.6330  0.2742
  712SOL    HW1 2279   2.084   1.058   1.003  2.3040  1.9231 -1.5430
  712SOL    HW2 2280   1.971   0.995   0.924  2.1616 -0.7859  0.6546
  713SOL     OW 2281   3.424   2.247   2.907  0.4565  0.7454  0.5451
  713SOL    HW1 2282   3.354   2.306   2.879  0.6674  0.3096 -1.0060
  713SOL    HW2 2283   3.501   2.279   2.860  0.8390 -0.0447  0.6315
  714SOL     OW 2284   1.099   1.246   3.687  0.0109  0.2824  0.5800
  714SOL    HW1 2285   1.029   1.229   3.624 -1.4931  0.5595  2.1051
  714SOL    HW2 2286   1.177   1.260   3.633 -0.9869 -0.5134 -1.1535
  715SOL     OW 2287   0.234   2.812   3.710  0.2800  0.2197 -0.1938
  715SOL    HW1 2288   0.262   2.894   3.669  0.6913 -1.0972 -2.7318
  715SOL    HW2 2289   0.296   2.798   3.781  1.8648  0.8173 -1.3981
  716SOL     OW 2290   0.091   2.981   2.332  0.3183  0.0038  0.1382
  716SOL    HW1 2291   0.011   3.000   2.283  0.7929  1.9007 -0.0012
  716SOL    HW2 2292   0.156   2.962   2.265  0.0991 -1.0995  0.2303
  717SOL     OW 2293   1.931   3.636   1.873  0.1773 -0.1087 -0.1709
  717SOL    HW1 2294   2.027   3.644   1.871  0.1852 -0.3878 -1.2995
  717SOL    HW2 2295   1.905   3.640   1.781 -0.8629 -0.4653  0.1032
  718SOL     OW 2296   3.462   0.667   3.027  0.3430  0.6465 -0.0965
  718SOL    HW1 2297   3.386   0.697   2.978 -0.1704 -0.3206  0.0681
  718SOL    HW2 2298   3.538   0.698   2.977 -0.1556 -0.6765 -1.7592
  719SOL     OW 2299   3.077   1.510   0.126 -0.0866  0.2582 -0.2377
  719SOL    HW1 2300   3.169   1.526   0.147 -0.2467  0.4754  0.2913
  719SOL    HW2 2301   3.029   1.539   0.203 -0.5730 -0.2165 -0.3577
  720SOL     OW 2302   0.242   2.762   2.726  0.4067 -0.3252  0.3084
  720SOL    HW1 2303   0.246   2.810   2.808  0.8244 -1.7852  1.1723
  720SOL    HW2 2304   0.289   2.817   2.663  0.1336  0.7757  1.0592
  721SOL     OW 2305   2.628   3.465   0.895  0.4348  0.5221 -0.8599
  721SOL    HW1 2306   2.603   3.530   0.960  1.3446  0.2924 -0.2599
  721SOL    HW2 2307   2.552   3.458   0.837 -1.9414 -1.8978  2.1753
  722SOL     OW 2308   3.100   3.196   3.242  0.9463  0.5876 -0.4163
  722SOL    HW1 2309   3.123   3.181   3.334  3.4803 -0.1724 -1.0880
  722SOL    HW2 2310   3.072   3.287   3.239 -0.6841  0.2216  1.3225
  723SOL     OW 2311   1.800   3.027   3.262 -0.2845  0.8803 -0.3692
  723SOL    HW1 2312   1.736   2.958   3.282  0.9643 -0.4169 -0.6251
  723SOL    HW2 2313   1.800   3.082   3.340 -2.2700  1.4127 -0.6760
  724SOL     OW 2314   1.913   3.384   1.260  0.3656  0.2655  0.3666
  724SOL    HW1 2315   1.899   3.479   1.258  2.0568  0.5759  1.2195
  724SOL    HW2 2316   2.004   3.374   1.287 -0.0592 -1.6335  1.2829
  725SOL     OW 2317   3.050   0.740   1.985  0.9870 -0.8611  0.1841
  725SOL    HW1 2318   3.014   0.722   2.072  0.4675  0.7515  0.3254
  725SOL    HW2 2319   3.132   0.786   2.002  2.4513 -3.1605 -0.1703
  726SOL     OW 2320   3.167   0.884   2.621  0.6781 -0.0866 -0.5303
  726SOL    HW1 2321   3.096   0.936   2.659  0.1244  0.7601 -2.5492
  726SOL    HW2 2322   3.224   0.863   2.694 -1.8081 -1.0746  1.2508
  727SOL     OW 2323   1.895   1.899   1.676 -0.2834  0.5244 -0.5006
  727SOL    HW1 2324   1.983   1.879   1.642  0.9476  1.9672  1.5783
  727SOL    HW2 2325   1.889   1.848   1.757 -1.4163  0.3729 -0.6749
  728SOL     OW 2326   3.094  -0.013   1.729  0.3587  0.1556  0.4080
  728SOL    HW1 2327   3.103   0.082   1.736  0.4036  0.1839  0.0041
  728SOL    HW2 2328   3.018  -0.034   1.784  0.5271  0.3887  0.7330
  729SOL     OW 2329   2.367   2.703   3.238 -0.0850 -0.0140  0.3909
  729SOL    HW1 2330   2.280   2.712   3.199  0.3167  0.6109 -0.4012
  729SOL    HW2 2331   2.359   2.741   3.325 -0.0382  2.3341 -0.5506
  730SOL     OW 2332   3.601   1.836   3.611  0.2412  0.2927  0.0129
  730SOL    HW1 2333   3.648   1.920   3.605  1.5302 -0.4509 -0.7442
  730SOL    HW2 2334   3.656   1.783   3.669 -0.3380 -0.1792  0.1320
  731SOL     OW 2335   2.846   0.441   3.370 -0.2949  0.0321 -0.7528
  731SOL    HW1 2336   2.754   0.451   3.347  0.1500  1.9693 -1.8499
  731SOL    HW2 2337   2.860   0.506   3.439  0.2041 -0.4812 -0.3591
  732SOL     OW 2338   0.312   0.714   1.131 -0.3682 -0.6446 -0.0230
  732SOL    HW1 2339   0.398   0.727   1.090  0.8965 -0.0143  2.6115
  732SOL    HW2 2340   0.250   0.755   1.072  1.6845  3.0904  0.1574
  733SOL     OW 2341   3.329   0.358   1.885 -0.6103  0.1730  0.0077
  733SOL    HW1 2342   3.343   0.421   1.814 -0.2587  0.6332  0.4740
  733SOL    HW2 2343   3.261   0.397   1.939  0.1548  0.5530  0.7330
  734SOL     OW 2344   3.458   2.477   1.847 -0.0419  0.6457  0.3988
  734SOL    HW1 2345   3.448   2.510   1.757  0.5588  0.9199  0.4279
  734SOL    HW2 2346   3.524   2.408   1.840 -1.6488 -0.9279  0.2572
  735SOL     OW 2347   0.512   1.023   0.617 -0.3381  0.1642  0.4791
  735SOL    HW1 2348   0.596   1.038   0.660 -0.6753 -1.9544  2.0155
  735SOL    HW2 2349   0.470   1.109   0.617  1.5888  1.1670  0.1095
  736SOL     OW 2350   1.976   1.700   1.219  0.4136  0.1121  0.5009
  736SOL    HW1 2351   2.021   1.770   1.171 -1.1278  2.1184  1.8203
  736SOL    HW2 2352   1.947   1.639   1.151  3.3818 -0.2863 -0.5344
  737SOL     OW 2353   0.228   2.528   3.673  0.1429  0.2566  0.0839
  737SOL    HW1 2354   0.191   2.532   3.761 -0.1667 -0.4454 -0.0070
  737SOL    HW2 2355   0.209   2.614   3.635 -0.2913  0.3404  0.4771
  738SOL     OW 2356   3.097   1.185   2.197  0.4455  0.2013  0.5644
  738SOL    HW1 2357   3.120   1.170   2.105  0.7677 -0.1994  0.7084
  738SOL    HW2 2358   3.080   1.098   2.232 -1.4001  0.4824  0.4452
  739SOL     OW 2359   0.790   3.236   2.898  0.6266 -0.0747 -0.1935
  739SOL    HW1 2360   0.737   3.281   2.964 -2.3183 -0.5918 -2.0211
  739SOL    HW2 2361   0.811   3.151   2.938 -0.2503 -0.0072  0.4371
  740SOL     OW 2362   1.106   1.106   3.126  0.4274 -0.4673 -0.3904
  740SOL    HW1 2363   1.037   1.041   3.138 -0.6360  0.7539  0.3931
  740SOL    HW2 2364   1.063   1.180   3.084  1.3581  0.1394 -0.3206
  741SOL     OW 2365   0.547   3.560   0.194  0.1532 -0.0325  0.8088
  741SOL    HW1 2366   0.496   3.603   0.263 -1.5320  0.9713 -0.9496
  741SOL    HW2 2367   0.581   3.632   0.141  1.3140 -0.7742  0.5174
  742SOL     OW 2368   1.369   3.608   1.379 -0.3078 -0.6648  0.4482
  742SOL    HW1 2369   1.320   3.534   1.345 -0.1388 -0.5184 -0.1178
  742SOL    HW2 2370   1.452   3.605   1.332 -0.4185  0.0665  0.2014
  743SOL     OW 2371   1.236   2.472  -0.035  0.0867 -0.4957  0.2051
  743SOL    HW1 2372   1.271   2.542   0.020  0.2635 -0.2945 -0.1648
  743SOL    HW2 2373   1.218   2.401   0.027  0.0009 -0.1640  0.5661
  744SOL     OW 2374   0.448   2.854   1.519  0.7881  0.4367 -0.0624
  744SOL    HW1 2375   0.421   2.808   1.440  0.2368 -0.3680  0.5819
  744SOL    HW2 2376   0.409   2.941   1.510 -1.1615 -0.3491  0.3367
  745SOL     OW 2377   3.302   0.421   2.612 -0.3403 -0.0796  0.2692
  745SOL    HW1 2378   3.300   0.356   2.542  1.3406  0.6778 -0.5224
  745SOL    HW2 2379   3.326   0.371   2.690 -0.7957 -0.6806  0.0362
  746SOL     OW 2380   2.046   2.395   0.395 -0.1566 -0.0397  0.5526
  746SOL    HW1 2381   2.114   2.457   0.421 -0.1169  0.0734  0.1848
  746SOL    HW2 2382   1.966   2.427   0.436 -0.4747  1.1745 -0.9023
  747SOL     OW 2383   2.984   2.206   2.336  0.0831 -0.0059  0.0257
  747SOL    HW1 2384   3.060   2.147   2.327  1.3754  1.5098  0.6422
  747SOL    HW2 2385   2.915   2.162   2.286  1.2652 -1.5816 -0.3280
  748SOL     OW 2386   1.627   3.407   1.994 -0.1599  0.8205 -0.4370
  748SOL    HW1 2387   1.561   3.338   2.001  0.1005  0.3362 -2.2298
  748SOL    HW2 2388   1.606   3.452   1.912  0.4474  2.0540  0.0654
  749SOL     OW 2389   3.674   1.950   1.991  0.1364 -0.0324 -0.1634
  749SOL    HW1 2390   3.646   1.962   1.901  0.4323 -0.6387 -0.3388
  749SOL    HW2 2391   3.767   1.931   1.986 -0.0312 -1.0555  0.1848
  750SOL     OW 2392   1.856   2.744   3.455  0.1458  0.0344 -0.4855
  750SOL    HW1 2393   1.906   2.665   3.479  1.2354  0.2897 -1.7807
  750SOL    HW2 2394   1.834   2.731   3.363 -0.1487  0.9995 -0.5596
  751SOL     OW 2395   0.783   3.446   0.073  0.0960  0.4562 -0.8738
  751SOL    HW1 2396   0.781   3.453   0.168 -1.6408  2.3532 -0.9785
  751SOL    HW2 2397   0.775   3.352   0.055  1.9063 -0.0691  0.8204
  752SOL     OW 2398   3.419   0.827   1.176 -0.0331 -0.1712  0.0195
  752SOL    HW1 2399   3.342   0.847   1.123  0.6226 -1.6806 -1.6299
  752SOL    HW2 2400   3.417   0.891   1.247 -1.8024  0.9725 -0.9806
  753SOL     OW 2401   0.127   2.807   1.446 -0.4466 -0.0775  0.0021
  753SOL    HW1 2402   0.200   2.833   1.389 -2.1021  0.4330 -2.0143
  753SOL    HW2 2403   0.091   2.729   1.404 -0.2210 -1.2043  1.7972
  754SOL     OW 2404   2.628   2.686   3.161  0.7303 -0.3876  0.0093
  754SOL    HW1 2405   2.533   2.689   3.173  0.4485 -2.4651 -1.1038
  754SOL    HW2 2406   2.653   2.597   3.187  1.9281 -0.7664 -2.1428
  755SOL     OW 2407   0.919   0.172   1.486 -0.8646 -0.0470  0.6107
  755SOL    HW1 2408   0.891   0.100   1.431  0.6803  1.0387 -1.7923
  755SOL    HW2 2409   0.980   0.132   1.549 -2.2298 -1.2306  1.2244
  756SOL     OW 2410   2.836   0.100   2.235  0.7091 -0.2347  0.6052
  756SOL    HW1 2411   2.829   0.005   2.233  0.8172 -0.2340 -0.3177
  756SOL    HW2 2412   2.896   0.119   2.308  0.5187 -0.8529  0.9275
  757SOL     OW 2413   1.033   0.199   2.943  0.3573  0.2640  0.6020
  757SOL    HW1 2414   1.096   0.135   2.911  0.8715  0.3056  1.4728
  757SOL    HW2 2415   1.081   0.282   2.942  0.0996  0.4149  0.6408
  758SOL     OW 2416   3.476   2.615   1.573 -0.5358 -0.2716 -0.3338
  758SOL    HW1 2417   3.454   2.673   1.500 -0.5602 -1.2182 -1.1062
  758SOL    HW2 2418   3.540   2.664   1.625 -1.6387  1.0017 -0.1521
  759SOL     OW 2419   0.540   0.701   0.970  0.4124  0.3223 -0.0743
  759SOL    HW1 2420   0.627   0.708   1.010  0.7008  0.7584 -0.7667
  759SOL    HW2 2421   0.554   0.725   0.879  0.0230 -2.0360 -0.8158
  760SOL     OW 2422   3.493   0.619   0.127 -0.5279  0.0473  0.0583
  760SOL    HW1 2423   3.478   0.594   0.036 -0.7319  0.5891 -0.0554
  760SOL    HW2 2424   3.573   0.572   0.151 -1.5125 -1.6708  0.2107
  761SOL     OW 2425   3.454   2.116   2.113 -0.3924  0.1676  0.0223
  761SOL    HW1 2426   3.416   2.196   2.077 -0.3922  1.0032  1.7747
  761SOL    HW2 2427   3.548   2.134   2.117 -0.4144  0.1793  0.6171
  762SOL     OW 2428   2.392   0.453   2.613  0.2590  0.8284 -0.2088
  762SOL    HW1 2429   2.300   0.460   2.641  0.4142  0.6573  0.3567
  762SOL    HW2 2430   2.437   0.413   2.688  0.6104 -0.0549 -0.8847
  763SOL     OW 2431   3.587   2.021   1.721  0.5308  0.2217 -0.1509
  763SOL    HW1 2432   3.511   2.066   1.759 -1.1407 -2.8938  0.4911
  763SOL    HW2 2433   3.571   2.025   1.626 -0.1769  0.0782 -0.0477
  764SOL     OW 2434   1.897   2.509   1.626  0.9872 -0.2171 -0.7502
  764SOL    HW1 2435   1.850   2.434   1.591  1.5758 -1.0835  0.2501
  764SOL    HW2 2436   1.833   2.553   1.682  0.7485 -0.1853 -1.0488
  765SOL     OW 2437   0.666   0.579   1.754  0.0788 -0.3763 -0.3345
  765SOL    HW1 2438   0.640   0.649   1.814 -1.6831  0.2681 -1.7968
  765SOL    HW2 2439   0.756   0.601   1.730 -0.2833  1.1337 -0.4074
  766SOL     OW 2440   1.727   1.478   3.261  0.2227  0.6381  0.7390
  766SOL    HW1 2441   1.786   1.550   3.238 -0.9312  1.6767  0.9115
  766SOL    HW2 2442   1.639   1.515   3.249 -0.3952 -0.5923  1.3362
  767SOL     OW 2443   0.884   3.021   1.024 -0.0252 -0.1157 -0.1394
  767SOL    HW1 2444   0.923   2.938   1.052  0.4603  0.6252  1.4975
  767SOL    HW2 2445   0.797   3.021   1.064  0.0634  0.2476  0.0611
  768SOL     OW 2446   3.282   1.162   2.450  0.4992  0.8679 -0.4650
  768SOL    HW1 2447   3.348   1.231   2.459  0.6227  0.8867 -1.4177
  768SOL    HW2 2448   3.198   1.206   2.463  0.6882  0.5479  2.4722
  769SOL     OW 2449   3.329   3.228   2.010  1.1078  0.3684  0.3989
  769SOL    HW1 2450   3.348   3.291   2.079  1.6561  1.4858 -0.7412
  769SOL    HW2 2451   3.406   3.170   2.009  0.6395 -0.3019  1.3896
  770SOL     OW 2452   2.535   0.788   3.303  0.1043  0.4959 -0.1597
  770SOL    HW1 2453   2.527   0.861   3.242  0.9395  0.1068 -0.7703
  770SOL    HW2 2454   2.629   0.781   3.320 -0.1302  0.7021  1.3227
  771SOL     OW 2455   3.478   0.624   0.918 -0.1470  0.4862  0.3382
  771SOL    HW1 2456   3.452   0.716   0.928  1.9432  0.9448  2.5494
  771SOL    HW2 2457   3.459   0.604   0.826 -0.5501  3.1678 -0.2556
  772SOL     OW 2458   1.192   3.331   0.503  0.0006  0.2634 -0.1707
  772SOL    HW1 2459   1.120   3.271   0.483  0.6913 -0.6300 -0.0415
  772SOL    HW2 2460   1.265   3.297   0.452  0.6352  0.4968  0.5705
  773SOL     OW 2461   1.306   1.680   2.006  0.2423  0.6413 -0.3238
  773SOL    HW1 2462   1.364   1.605   1.992  0.5725  0.9596 -0.6889
  773SOL    HW2 2463   1.333   1.715   2.091  1.5826  1.6408 -1.1092
  774SOL     OW 2464   3.499   2.083   1.474 -0.3733  0.0238  0.2176
  774SOL    HW1 2465   3.442   2.158   1.490  2.7895  2.3469  1.6072
  774SOL    HW2 2466   3.494   2.068   1.380  0.4938  3.5233 -0.5300
  775SOL     OW 2467   3.167   3.016   2.572 -0.4469 -0.6026 -0.1951
  775SOL    HW1 2468   3.100   3.083   2.586  0.0291 -0.2517  0.4554
  775SOL    HW2 2469   3.247   3.054   2.608 -0.0363 -1.2734 -0.3854
  776SOL     OW 2470   3.243   2.087   2.314  0.0470 -0.0241  0.5089
  776SOL    HW1 2471   3.280   2.172   2.337 -2.1221  1.5585 -1.3441
  776SOL    HW2 2472   3.308   2.048   2.256  2.0686 -0.7155  3.0721
  777SOL     OW 2473   0.921   3.149   0.096 -0.2034  0.5012  1.1767
  777SOL    HW1 2474   0.864   3.129   0.171  1.1865 -0.8023  1.9213
  777SOL    HW2 2475   0.896   3.085   0.029 -0.3472  0.6248  1.1121
  778SOL     OW 2476   2.936   1.949   2.954  0.2754 -0.2672  0.5125
  778SOL    HW1 2477   2.957   2.023   2.897 -0.1933 -1.7536 -1.7221
  778SOL    HW2 2478   3.016   1.934   3.004  1.4455 -0.1443 -1.2406
  779SOL     OW 2479   1.224   3.095   0.293 -0.0115 -0.0363 -0.1922
  779SOL    HW1 2480   1.163   3.083   0.366  0.3800  1.0173  0.3308
  779SOL    HW2 2481   1.308   3.067   0.328 -0.5299 -4.0975 -1.7320
  780SOL     OW 2482   2.027   1.886   0.573 -0.0245  0.2361  0.2637
  780SOL    HW1 2483   2.081   1.864   0.649  1.0696  0.1376 -0.5220
  780SOL    HW2 2484   1.938   1.864   0.600  0.0924  1.7289  2.1021
  781SOL     OW 2485   2.371   1.491   0.894 -0.4973 -0.4882  0.2904
  781SOL    HW1 2486   2.341   1.546   0.822  0.6138  0.2031  0.3310
  781SOL    HW2 2487   2.313   1.514   0.967 -0.8085 -0.2611 -0.0236
  782SOL     OW 2488   2.313   0.666   3.657  0.2692 -0.2367 -0.0312
  782SOL    HW1 2489   2.254   0.655   3.582  3.1595  0.1830 -2.5630
  782SOL    HW2 2490   2.373   0.591   3.651  0.4646 -0.3047  2.0408
  783SOL     OW 2491   1.564   2.628   0.326  0.4329 -0.5185 -0.2581
  783SOL    HW1 2492   1.608   2.604   0.244 -1.1151  0.2463 -1.3772
  783SOL    HW2 2493   1.471   2.630   0.303  0.1413  2.1911  0.8424
  784SOL     OW 2494   1.826   0.096   0.668  0.2336  0.0807  0.1887
  784SOL    HW1 2495   1.828   0.107   0.573  0.2288 -0.2166  0.1543
  784SOL    HW2 2496   1.787   0.177   0.700 -0.5326 -0.1595 -0.1186
  785SOL     OW 2497   2.324   0.461   3.002  0.3951 -0.1549  0.6047
  785SOL    HW1 2498   2.416   0.462   2.975 -0.3086  0.5305 -2.0500
  785SOL    HW2 2499   2.314   0.538   3.058  0.7780  1.8237 -1.8652
  786SOL     OW 2500   0.168   2.402   2.004  0.6010  0.7280 -0.5798
  786SOL    HW1 2501   0.198   2.387   1.914 -0.0960 -1.3748 -0.5238
  786SOL    HW2 2502   0.186   2.319   2.049 -0.2948  1.2867  0.8656
  787SOL     OW 2503   0.387   2.297   2.587  0.4023 -0.1156  0.2557
  787SOL    HW1 2504   0.342   2.242   2.651 -0.5976 -0.7619 -0.9627
  787SOL    HW2 2505   0.442   2.355   2.640 -0.6186 -0.4137  1.6994
  788SOL     OW 2506   2.188   2.174   0.575 -0.2450  0.3746  0.0548
  788SOL    HW1 2507   2.157   2.086   0.597  0.5527  0.1581  0.3734
  788SOL    HW2 2508   2.114   2.216   0.531  0.1245 -1.3274 -2.4322
  789SOL     OW 2509   3.416   2.088   1.031  0.2102  0.1252  0.1304
  789SOL    HW1 2510   3.466   2.168   1.012 -2.0741  1.2606 -1.6530
  789SOL    HW2 2511   3.340   2.094   0.973 -0.5697 -2.8742  0.7180
  790SOL     OW 2512   0.695   2.730   0.302 -0.5053  0.4567  0.2630
  790SOL    HW1 2513   0.759   2.730   0.374 -1.5204  0.5202  1.2050
  790SOL    HW2 2514   0.714   2.651   0.253  1.3787  1.3237 -0.4982
  791SOL     OW 2515   3.094   1.651   1.216  0.5391 -0.1638  0.3472
  791SOL    HW1 2516   3.020   1.635   1.275  0.4282  0.3811  0.3633
  791SOL    HW2 2517   3.119   1.564   1.185  1.0197 -0.5275  1.6938
  792SOL     OW 2518   2.534   3.205   1.803  0.1561  0.6623 -0.2609
  792SOL    HW1 2519   2.449   3.244   1.825 -0.3188 -0.1487 -0.5949
  792SOL    HW2 2520   2.514   3.143   1.732  1.0430  0.5215 -0.4008
  793SOL     OW 2521   3.173   2.853   1.754  0.7225 -0.2801 -0.0240
  793SOL    HW1 2522   3.185   2.831   1.846  0.7740 -0.4527 -0.0714
  793SOL    HW2 2523   3.172   2.769   1.709  0.5648 -0.2025 -0.1661
  794SOL     OW 2524   2.369   1.195   1.165 -0.7321 -0.6189  0.6008
  794SOL    HW1 2525   2.363   1.146   1.247 -1.3065 -2.6980 -0.5866
  794SOL    HW2 2526   2.287   1.243   1.160 -2.0038 -2.7145 -0.0070
  795SOL     OW 2527   1.023   0.829   0.063  0.2073  0.1938 -0.2706
  795SOL    HW1 2528   1.029   0.734   0.048 -0.2379  0.0065  0.6292
  795SOL    HW2 2529   1.113   0.857   0.076  0.2571 -0.3551  0.7286
  796SOL     OW 2530   0.694   2.923   2.969  0.1619  0.0569  0.5316
  796SOL    HW1 2531   0.607   2.961   2.982 -1.3022 -3.6137  3.4195
  796SOL    HW2 2532   0.734   2.925   3.057  0.8748 -2.7514  0.3509
  797SOL     OW 2533   3.055   1.308   2.490  0.1225  0.9456 -0.0675
  797SOL    HW1 2534   3.080   1.331   2.580 -0.6756  1.4444  0.0399
  797SOL    HW2 2535   3.087   1.381   2.437  0.0133  0.9733 -0.0959
  798SOL     OW 2536   2.725   2.817   0.607  0.5537 -0.0953 -0.3079
  798SOL    HW1 2537   2.687   2.883   0.550  0.8817  0.7071  0.3673
  798SOL    HW2 2538   2.795   2.864   0.653  0.4226 -0.7660  0.5936
  799SOL     OW 2539   0.352   1.582   0.088  0.8989 -0.5381 -0.2278
  799SOL    HW1 2540   0.439   1.583   0.048  1.1922  1.0155  0.3807
  799SOL    HW2 2541   0.368   1.605   0.180 -0.0272 -1.5811  0.2152
  800SOL     OW 2542   0.137   1.939   3.257 -0.0603 -0.3081 -0.1385
  800SOL    HW1 2543   0.052   1.976   3.282 -0.1150 -1.8417  2.2546
  800SOL    HW2 2544   0.125   1.844   3.262  1.4829 -0.5861 -0.9861
  801SOL     OW 2545   3.703   2.173   3.076 -0.7675 -0.2517 -0.2640
  801SOL    HW1 2546   3.669   2.227   3.147  0.0298 -0.2725  0.1530
  801SOL    HW2 2547   3.626   2.131   3.038 -1.5723  2.0842 -1.3991
  802SOL     OW 2548   1.119   2.311   3.504  0.1894 -0.4241  0.4767
  802SOL    HW1 2549   1.149   2.374   3.569 -0.4691 -0.1498  0.5273
  802SOL    HW2 2550   1.102   2.364   3.425 -0.3217 -0.5354  0.5047
  803SOL     OW 2551   2.539   3.212   3.245 -0.2054  0.1762 -0.1072
  803SOL    HW1 2552   2.526   3.149   3.174 -1.3857 -2.3166  2.1468
  803SOL    HW2 2553   2.618   3.259   3.221  0.4961 -1.8600 -2.1688
  804SOL     OW 2554   2.116   0.322   1.839  0.2680 -0.3543  0.2930
  804SOL    HW1 2555   2.182   0.271   1.790  0.7427 -0.0948  0.6526
  804SOL    HW2 2556   2.136   0.413   1.817 -0.5069 -0.3063 -0.2582
  805SOL     OW 2557   0.847   0.531   2.701  0.0405  0.4550 -0.1107
  805SOL    HW1 2558   0.850   0.616   2.745 -1.0790 -0.3600  1.6955
  805SOL    HW2 2559   0.775   0.540   2.638  0.8393  1.2534 -0.9403
  806SOL     OW 2560   0.602   2.043   0.495  0.0730  0.8948 -0.0238
  806SOL    HW1 2561   0.543   2.108   0.534 -0.9226  0.8461 -1.3855
  806SOL    HW2 2562   0.549   2.000   0.428  0.5207 -1.7349  1.1955
  807SOL     OW 2563   0.111   2.679   2.349  0.3206 -0.4305 -0.1594
  807SOL    HW1 2564   0.149   2.632   2.423  1.4571  1.2057  0.3501
  807SOL    HW2 2565   0.096   2.767   2.382 -0.2607  0.0200 -1.5482
  808SOL     OW 2566   1.825   1.147   2.255  0.0611 -0.4819  0.2897
  808SOL    HW1 2567   1.862   1.063   2.229 -0.7070 -0.2988 -1.5420
  808SOL    HW2 2568   1.822   1.199   2.175 -1.5851  0.4739  0.9065
  809SOL     OW 2569   1.007   1.226   3.446 -0.3289  0.7705 -0.1154
  809SOL    HW1 2570   0.948   1.292   3.409 -1.1567 -0.2953 -0.7385
  809SOL    HW2 2571   1.006   1.155   3.382 -0.1604 -0.2338  0.9746
  810SOL     OW 2572   2.989   1.254   1.475  0.3868 -0.1241 -0.2130
  810SOL    HW1 2573   2.912   1.277   1.423 -0.5106 -2.3641 -0.0144
  810SOL    HW2 2574   3.057   1.233   1.410  0.9344  2.0055 -0.3867
  811SOL     OW 2575   2.877   2.682   3.477 -0.7621  0.4335  0.2282
  811SOL    HW1 2576   2.929   2.701   3.556 -1.2325 -1.0595  0.9235
  811SOL    HW2 2577   2.893   2.589   3.459  0.7489  1.0921 -2.5264
  812SOL     OW 2578  -0.001   2.393   2.812 -0.4732  0.0429 -0.3115
  812SOL    HW1 2579   0.050   2.409   2.891  1.4812  0.8743 -1.6642
  812SOL    HW2 2580  -0.012   2.298   2.809  1.1830 -0.1853 -0.0583
  813SOL     OW 2581   0.786   2.312   1.897  0.2971 -0.3634 -0.3438
  813SOL    HW1 2582   0.722   2.269   1.839 -0.2094 -0.0757 -0.0066
  813SOL    HW2 2583   0.754   2.294   1.985  0.8634 -0.4830 -0.1618
  814SOL     OW 2584   3.466   3.440   0.661 -0.3211  0.2413  0.0368
  814SOL    HW1 2585   3.392   3.402   0.615 -0.0397  0.0450 -0.2530
  814SOL    HW2 2586   3.532   3.371   0.664 -1.1023 -0.5180  2.6319
  815SOL     OW 2587   3.583   1.940   3.286 -0.4073  0.0187 -0.1846
  815SOL    HW1 2588   3.607   1.927   3.194  3.0532 -0.9215  0.6746
  815SOL    HW2 2589   3.552   1.855   3.316  0.3385 -0.2092 -0.0414
  816SOL     OW 2590   2.081   2.140   0.310  0.2724 -0.4560  0.0936
  816SOL    HW1 2591   2.011   2.131   0.245 -0.5930 -1.0299  1.0816
  816SOL    HW2 2592   2.077   2.232   0.336 -0.8152 -0.6956  0.8755
  817SOL     OW 2593   1.888   1.658   3.613 -0.2814  0.8756  0.0434
  817SOL    HW1 2594   1.928   1.705   3.686 -2.2616 -0.0149  1.8036
  817SOL    HW2 2595   1.818   1.716   3.582 -1.0466  0.2340  0.5196
  818SOL     OW 2596   2.848   2.984   0.985 -0.5735  0.1988 -0.2491
  818SOL    HW1 2597   2.813   2.896   0.996 -2.2974  0.8544 -0.2307
  818SOL    HW2 2598   2.832   3.026   1.070  1.2834  0.2185  0.1386
  819SOL     OW 2599   3.548   0.968   2.601  0.4320 -0.5670 -0.4505
  819SOL    HW1 2600   3.486   0.917   2.550 -1.3967  0.6589  0.4423
  819SOL    HW2 2601   3.523   1.059   2.584  0.8873 -0.0963  1.2719
  820SOL     OW 2602   1.351   1.963   3.169 -0.4491  0.3626  0.3106
  820SOL    HW1 2603   1.430   1.917   3.142 -0.0604  0.1474  1.7403
  820SOL    HW2 2604   1.303   1.900   3.222 -0.4477  1.2144  1.3709
  821SOL     OW 2605   0.008   1.835   1.450  0.2864  0.0600 -0.4426
  821SOL    HW1 2606   0.039   1.925   1.458 -0.3324  0.4258 -1.8895
  821SOL    HW2 2607   0.016   1.815   1.357 -1.3598 -0.7265 -0.4418
  822SOL     OW 2608   1.115   2.555   0.881  0.4304  0.0178  0.1532
  822SOL    HW1 2609   1.160   2.513   0.954  2.5714  2.4194  0.3570
  822SOL    HW2 2610   1.177   2.549   0.808 -1.3492 -1.6382 -1.3410
  823SOL     OW 2611   0.072   2.102   1.506 -0.0200  0.0576 -0.4279
  823SOL    HW1 2612   0.089   2.179   1.560  0.8260  0.2898 -1.0079
  823SOL    HW2 2613  -0.023   2.105   1.489  0.2283  1.8932 -1.7951
  824SOL     OW 2614   3.122   1.679   0.521 -0.2184  0.1880 -0.5329
  824SOL    HW1 2615   3.068   1.755   0.502  0.1514  0.4341 -0.6124
  824SOL    HW2 2616   3.081   1.638   0.597 -0.3881  0.4959 -0.4596
  825SOL     OW 2617   2.965   3.424   0.365  0.0691  0.2106 -0.1277
  825SOL    HW1 2618   2.990   3.489   0.299  0.2533  1.4776  1.1441
  825SOL    HW2 2619   2.877   3.451   0.393 -0.9349 -1.5872 -1.3442
  826SOL     OW 2620   0.677   1.082   0.972  0.1304 -0.2367  0.2049
  826SOL    HW1 2621   0.770   1.058   0.970 -0.0101 -0.7557 -0.2883
  826SOL    HW2 2622   0.669   1.150   0.904  0.1160 -0.3243  0.1183
  827SOL     OW 2623   1.010   3.537   2.065 -0.4447  0.3262  0.1648
  827SOL    HW1 2624   0.921   3.523   2.034 -0.2127 -1.0990  0.0782
  827SOL    HW2 2625   1.011   3.628   2.096 -1.6610  0.6419 -0.6675
  828SOL     OW 2626   1.659   3.034   3.736 -0.0124  0.1957 -0.1561
  828SOL    HW1 2627   1.654   3.038   3.640 -1.0410 -1.0000 -0.1733
  828SOL    HW2 2628   1.591   3.095   3.766  1.7172  2.2406 -0.1098
  829SOL     OW 2629   2.337   0.048   3.340  0.9312  0.1404  0.1533
  829SOL    HW1 2630   2.369   0.139   3.345  0.3704  0.3054  1.1951
  829SOL    HW2 2631   2.266   0.051   3.277 -1.5754  1.2895  2.7823
  830SOL     OW 2632   3.525   3.103   2.290  0.4976 -0.0689 -0.1510
  830SOL    HW1 2633   3.485   3.036   2.345  0.5931 -0.8902 -1.0569
  830SOL    HW2 2634   3.472   3.182   2.306 -1.0694 -0.9451 -0.7824
  831SOL     OW 2635   0.181   1.935   2.667 -0.4245 -0.0519 -0.1835
  831SOL    HW1 2636   0.256   1.983   2.702  0.3698 -1.1526 -0.3382
  831SOL    HW2 2637   0.162   1.977   2.584 -2.2758  2.5397  1.3889
  832SOL     OW 2638   2.878   3.380   1.235 -0.6349  0.3406  0.2334
  832SOL    HW1 2639   2.791   3.352   1.207 -0.5838  1.2407 -0.9187
  832SOL    HW2 2640   2.861   3.448   1.300 -0.8173  0.9428 -0.4299
  833SOL     OW 2641   1.007   1.155   0.205 -0.6785  0.3179 -0.6497
  833SOL    HW1 2642   1.059   1.211   0.148 -0.5798  0.1413 -0.7344
  833SOL    HW2 2643   0.919   1.193   0.203 -0.2750  1.3901  0.5029
  834SOL     OW 2644   1.172   2.786   3.646 -0.7896  0.7196 -0.4659
  834SOL    HW1 2645   1.238   2.792   3.715 -0.5129  0.5627 -0.7142
  834SOL    HW2 2646   1.130   2.871   3.646  0.6321  1.4617 -1.5128
  835SOL     OW 2647   0.433   0.405   2.326 -0.2786  0.0297 -0.4106
  835SOL    HW1 2648   0.464   0.454   2.249 -1.4123 -0.9245 -1.5273
  835SOL    HW2 2649   0.497   0.334   2.335 -0.8917 -0.6858 -1.3916
  836SOL     OW 2650   2.694   1.498   0.875  0.6888  0.7354  0.0635
  836SOL    HW1 2651   2.667   1.448   0.797 -0.5457  0.5660  0.5808
  836SOL    HW2 2652   2.615   1.544   0.902  1.3306  1.4594  0.7283
  837SOL     OW 2653   1.479   3.740   0.648 -0.4263 -0.2357 -0.0742
  837SOL    HW1 2654   1.562   3.728   0.602 -0.6970  0.9605 -0.9164
  837SOL    HW2 2655   1.414   3.698   0.591 -0.6350  0.4179 -0.3257
  838SOL     OW 2656   2.840   1.158   2.025 -0.5702 -0.7686  0.0355
  838SOL    HW1 2657   2.913   1.103   1.995 -0.8356 -1.3491  0.4351
  838SOL    HW2 2658   2.883   1.231   2.070 -0.2173 -0.7537 -0.3165
  839SOL     OW 2659   2.240   0.257   0.262 -0.5497 -0.4192  1.2777
  839SOL    HW1 2660   2.311   0.230   0.203 -1.3080  0.4092 -0.0789
  839SOL    HW2 2661   2.188   0.177   0.274 -0.3698 -0.6076  0.8484
  840SOL     OW 2662   0.931   0.640   2.066  0.1292  0.1419 -0.8257
  840SOL    HW1 2663   0.913   0.617   2.157  0.0860  2.1806 -0.2592
  840SOL    HW2 2664   0.992   0.573   2.035 -1.0057 -1.4262  0.2072
  841SOL     OW 2665   0.962   1.251   0.849  0.1818 -0.2934 -0.5065
  841SOL    HW1 2666   1.019   1.319   0.812 -0.4837  0.3400 -0.4001
  841SOL    HW2 2667   0.907   1.224   0.776  0.2300 -0.4896 -0.4690
  842SOL     OW 2668   0.808   0.010   2.592  0.2091  0.3931  0.0363
  842SOL    HW1 2669   0.853   0.093   2.607 -1.1535  0.8976  1.5618
  842SOL    HW2 2670   0.872  -0.057   2.616  0.4990  1.0606  1.1712
  843SOL     OW 2671   2.145   1.803   0.969  0.4268  0.3151 -0.7239
  843SOL    HW1 2672   2.160   1.741   0.897 -3.0422 -0.6384 -0.8324
  843SOL    HW2 2673   2.074   1.859   0.937 -2.9032 -1.5930  2.5839
  844SOL     OW 2674   2.759   0.544   2.000 -0.5511 -0.3171 -0.2411
  844SOL    HW1 2675   2.688   0.605   2.018  2.0391  2.4882  1.4837
  844SOL    HW2 2676   2.806   0.583   1.926 -0.0747 -1.4724 -0.5806
  845SOL     OW 2677   1.796   3.581   3.436  0.3772 -0.3058  0.0044
  845SOL    HW1 2678   1.866   3.641   3.459  1.9219 -1.6870 -0.8370
  845SOL    HW2 2679   1.828   3.535   3.358 -1.8334 -0.4088 -0.9405
  846SOL     OW 2680   3.051   3.450   0.965  0.7998  0.4056 -0.1504
  846SOL    HW1 2681   3.018   3.418   1.049  0.9794 -1.2718 -0.6655
  846SOL    HW2 2682   3.029   3.543   0.963 -1.8680 -0.1493  0.4805
  847SOL     OW 2683   2.120   0.034   0.609 -0.4609 -0.4389  0.1267
  847SOL    HW1 2684   2.046   0.092   0.628 -0.5347 -1.1216  2.0609
  847SOL    HW2 2685   2.188   0.093   0.577 -1.1018  0.4804  0.3980
  848SOL     OW 2686   1.482   0.905   0.560  0.6342 -0.2558 -0.0983
  848SOL    HW1 2687   1.423   0.977   0.586 -1.7771 -1.6816 -1.2127
  848SOL    HW2 2688   1.548   0.947   0.505 -0.3692  1.1982 -0.2576
  849SOL     OW 2689   3.310   3.718   0.703 -0.1429 -0.7991  0.8141
  849SOL    HW1 2690   3.261   3.636   0.714 -0.7857 -0.5723 -0.2277
  849SOL    HW2 2691   3.398   3.697   0.736 -0.0770 -2.1608 -0.0906
  850SOL     OW 2692   2.672   1.298   3.268 -0.3001  0.2260 -0.6173
  850SOL    HW1 2693   2.615   1.227   3.296  1.3477 -1.2885 -0.9151
  850SOL    HW2 2694   2.645   1.373   3.321 -1.5248 -0.8341  0.3242
  851SOL     OW 2695   1.338   1.619   3.141  0.1684 -0.8007 -0.4344
  851SOL    HW1 2696   1.364   1.700   3.096 -1.9793  0.0052 -0.3451
  851SOL    HW2 2697   1.376   1.549   3.087  1.3583  0.2171 -0.9910
  852SOL     OW 2698   1.357   2.049   1.295  0.4942 -0.5701 -0.0875
  852SOL    HW1 2699   1.274   2.034   1.250  1.8525  2.6082 -4.2829
  852SOL    HW2 2700   1.340   2.124   1.351  0.2915 -0.5586 -0.1634
  853SOL     OW 2701   2.693   1.159   0.012 -0.1473 -0.1931 -0.2609
  853SOL    HW1 2702   2.621   1.221   0.021 -0.9071 -1.2088  0.9573
  853SOL    HW2 2703   2.772   1.212   0.024 -0.7285  0.7106 -0.3233
  854SOL     OW 2704   2.937   2.638   1.232  0.4964  0.2527 -0.8038
  854SOL    HW1 2705   2.909   2.700   1.300 -3.1167 -1.5082 -0.4922
  854SOL    HW2 2706   3.033   2.642   1.236  0.5978  0.2945  4.4117
  855SOL     OW 2707   2.225   1.204   3.281 -0.2497  0.4432  0.3608
  855SOL    HW1 2708   2.228   1.288   3.235 -0.6678  0.5815  0.5834
  855SOL    HW2 2709   2.158   1.154   3.234 -0.3031  0.3924  0.4904
  856SOL     OW 2710   1.700   2.610   2.774  0.0774 -0.1268  0.3074
  856SOL    HW1 2711   1.732   2.661   2.848  0.5579 -0.2439  0.1829
  856SOL    HW2 2712   1.647   2.671   2.723  0.1477  0.0826  0.4851
  857SOL     OW 2713   2.690   1.135   2.702 -0.1945 -0.5329  0.1176
  857SOL    HW1 2714   2.663   1.049   2.669 -0.8675 -0.2083 -0.2127
  857SOL    HW2 2715   2.627   1.154   2.772  0.2694 -0.5312  0.5409
  858SOL     OW 2716   0.391   1.354   2.070 -0.3966  0.2318  0.4316
  858SOL    HW1 2717   0.367   1.377   1.980  1.1612 -0.2818 -0.1613
  858SOL    HW2 2718   0.359   1.264   2.082 -0.7162  0.3471  0.4274
  859SOL     OW 2719   3.730   1.265   2.416 -0.2868  0.0068 -0.3076
  859SOL    HW1 2720   3.676   1.198   2.374  3.7040 -2.6052 -1.7647
  859SOL    HW2 2721   3.736   1.236   2.507 -0.2626 -0.4261 -0.4457
  860SOL     OW 2722   2.887   3.534   2.150 -0.7035 -0.0245 -0.2370
  860SOL    HW1 2723   2.799   3.497   2.161 -0.2217 -0.5938  2.2081
  860SOL    HW2 2724   2.946   3.464   2.179  0.4637  0.9475 -0.2139
  861SOL     OW 2725   1.925   1.717   3.272  0.8641 -0.1903  0.4371
  861SOL    HW1 2726   1.994   1.696   3.336  0.3287 -1.7320  0.5641
  861SOL    HW2 2727   1.853   1.751   3.324  0.7995 -0.4870  0.5437
  862SOL     OW 2728   1.360   2.157   2.840  0.1311 -0.2519  0.5551
  862SOL    HW1 2729   1.317   2.101   2.776  1.5411 -0.0108 -0.6338
  862SOL    HW2 2730   1.426   2.205   2.791  0.8359  0.4107  2.0673
  863SOL     OW 2731   2.437   1.019   3.067  0.0020  0.5953  0.2668
  863SOL    HW1 2732   2.360   1.034   3.012 -1.1004  0.5710  1.7296
  863SOL    HW2 2733   2.427   1.080   3.140  0.1196 -0.9847  1.6789
  864SOL     OW 2734   0.317   1.594   2.719 -0.1562 -0.4558  0.5037
  864SOL    HW1 2735   0.307   1.579   2.625 -0.4580 -2.5525  0.8395
  864SOL    HW2 2736   0.360   1.680   2.724 -3.0167  1.2878 -1.4440
  865SOL     OW 2737   2.932   2.915   0.737 -0.2977 -0.5452 -0.4336
  865SOL    HW1 2738   3.025   2.897   0.746 -0.5568 -1.2568  1.5020
  865SOL    HW2 2739   2.911   2.968   0.815 -1.4239 -0.0039 -1.0821
  866SOL     OW 2740   1.546   3.629   2.846  0.1080 -0.4865  0.4679
  866SOL    HW1 2741   1.612   3.622   2.915 -0.5742 -1.0983  1.0844
  866SOL    HW2 2742   1.556   3.718   2.812  0.0330  0.0704  1.8164
  867SOL     OW 2743   2.531   0.530   3.556  0.2714  0.5613  0.0750
  867SOL    HW1 2744   2.625   0.536   3.569  0.4285  1.3885 -1.2197
  867SOL    HW2 2745   2.518   0.558   3.465 -1.2074  0.3229  0.1896
  868SOL     OW 2746   2.089   1.867   2.309 -0.0346 -0.3427 -0.1211
  868SOL    HW1 2747   2.114   1.895   2.398 -0.9397  0.1239  0.0025
  868SOL    HW2 2748   2.158   1.902   2.253 -0.1280  0.4873  0.2641
  869SOL     OW 2749   2.225   3.108   0.764  0.5336  0.4149 -0.3258
  869SOL    HW1 2750   2.234   3.116   0.858  0.4397 -1.4515 -0.1086
  869SOL    HW2 2751   2.239   3.015   0.747  1.1870  0.8187 -2.2301
  870SOL     OW 2752   3.437   2.301   2.378 -0.0637 -0.2018  0.2771
  870SOL    HW1 2753   3.484   2.300   2.295 -0.6346 -0.0459 -0.0540
  870SOL    HW2 2754   3.503   2.326   2.442  0.4484 -0.5924 -0.0834
  871SOL     OW 2755   0.513   3.244   2.355 -0.2500 -0.3376 -0.2756
  871SOL    HW1 2756   0.535   3.155   2.327 -1.0234 -0.3230 -0.9809
  871SOL    HW2 2757   0.419   3.251   2.339 -0.3332  0.3739  0.4477
  872SOL     OW 2758   1.234   0.754   2.847 -0.1035 -0.5190 -0.0229
  872SOL    HW1 2759   1.246   0.802   2.765  1.3524  2.0116  1.5462
  872SOL    HW2 2760   1.139   0.738   2.852 -0.2100 -0.9487 -2.2339
  873SOL     OW 2761   3.529   2.833   3.264 -0.4335  0.7755  0.0896
  873SOL    HW1 2762   3.541   2.816   3.357 -1.0165 -0.1827 -0.0023
  873SOL    HW2 2763   3.466   2.767   3.235 -0.2727  1.0739 -0.9802
  874SOL     OW 2764   0.675   1.559   3.712 -0.2324  0.0273  0.1456
  874SOL    HW1 2765   0.689   1.629   3.648 -1.0386  2.0810  2.0572
  874SOL    HW2 2766   0.763   1.526   3.731  0.4471  1.9841  0.6569
  875SOL     OW 2767   2.482   1.774   0.698 -0.4719 -0.0046  0.1179
  875SOL    HW1 2768   2.529   1.826   0.633  0.1181 -0.4336  0.1934
  875SOL    HW2 2769   2.527   1.792   0.781 -0.5678 -0.2568  0.2290
  876SOL     OW 2770   1.919   2.222   3.003 -0.3564  0.1122 -0.4606
  876SOL    HW1 2771   2.011   2.197   3.013 -0.1802  0.7969 -0.3036
  876SOL    HW2 2772   1.887   2.170   2.930 -0.4373 -1.7452  0.8372
  877SOL     OW 2773   1.573   0.226   2.457 -0.6254  0.7300 -0.2563
  877SOL    HW1 2774   1.504   0.217   2.392  0.2389 -1.0140 -0.9814
  877SOL    HW2 2775   1.643   0.273   2.412 -0.5753  0.7801 -0.1273
  878SOL     OW 2776   3.494   3.017   2.026 -1.1422  0.5240 -0.7371
  878SOL    HW1 2777   3.512   3.006   2.119 -2.1238  1.2991 -0.4364
  878SOL    HW2 2778   3.569   2.976   1.982  1.3478  3.4660  0.3840
  879SOL     OW 2779   3.614   1.873   2.994 -0.0565 -0.3055 -0.5619
  879SOL    HW1 2780   3.557   1.884   2.919 -0.9687  0.2224  0.1845
  879SOL    HW2 2781   3.657   1.788   2.981 -2.0132 -1.3469 -0.4918
  880SOL     OW 2782   1.258   3.397   3.412 -0.5414  0.3021  0.1273
  880SOL    HW1 2783   1.328   3.433   3.357  0.8132 -1.4612  0.6141
  880SOL    HW2 2784   1.266   3.444   3.494 -2.9156  3.3406 -1.1782
  881SOL     OW 2785   3.390   2.663   0.929  0.0794 -0.1516 -0.8032
  881SOL    HW1 2786   3.343   2.726   0.984  0.3328 -0.1097 -0.6345
  881SOL    HW2 2787   3.444   2.717   0.872 -1.3087 -0.1087 -2.1669
  882SOL     OW 2788   1.828   0.453   2.086  0.0763 -0.3046  0.2395
  882SOL    HW1 2789   1.825   0.363   2.053  0.4841 -0.7251  1.3093
  882SOL    HW2 2790   1.741   0.468   2.123 -0.3403  0.1247 -0.8592
  883SOL     OW 2791   3.606   0.722   1.413 -0.5000  0.7138 -0.0637
  883SOL    HW1 2792   3.593   0.816   1.422 -0.7393  0.8565 -1.6523
  883SOL    HW2 2793   3.518   0.687   1.399 -0.3551  0.3020  0.0492
  884SOL     OW 2794   0.275   0.747   0.700 -0.0826  0.0118  0.0026
  884SOL    HW1 2795   0.252   0.657   0.724  2.8538 -0.1561  3.0610
  884SOL    HW2 2796   0.371   0.746   0.693  0.0616  2.8914  0.1816
  885SOL     OW 2797   1.880  -0.009   0.940 -0.3634 -0.1572  0.5233
  885SOL    HW1 2798   1.866   0.026   0.852 -3.4201 -3.0501 -0.3476
  885SOL    HW2 2799   1.951   0.044   0.976 -0.3708  2.5032 -2.8811
  886SOL     OW 2800   0.692   0.403   3.716 -0.4094  0.3295 -0.0175
  886SOL    HW1 2801   0.612   0.416   3.767 -0.7712 -1.4462 -0.0685
  886SOL    HW2 2802   0.687   0.469   3.647 -1.6972  0.4406  0.1495
  887SOL     OW 2803   1.283   3.143   0.732  0.1926  0.0957 -0.5856
  887SOL    HW1 2804   1.197   3.115   0.765 -0.6148  0.6659 -2.1151
  887SOL    HW2 2805   1.265   3.223   0.683  1.7643  0.7666 -0.1246
  888SOL     OW 2806   3.439   1.910   2.765 -0.0294 -0.1824 -0.1809
  888SOL    HW1 2807   3.505   1.974   2.739 -2.4438  1.4910 -2.8109
  888SOL    HW2 2808   3.387   1.897   2.686 -1.9318 -2.6011  1.3309
  889SOL     OW 2809   2.655   0.611   2.407  0.8780 -0.0509  0.5795
  889SOL    HW1 2810   2.606   0.536   2.372  2.2989 -0.0660 -1.6062
  889SOL    HW2 2811   2.690   0.580   2.490 -0.7771 -0.8628  1.0072
  890SOL     OW 2812   2.705   1.605   3.660  0.0054  0.1371 -0.2139
  890SOL    HW1 2813   2.793   1.643   3.667  0.6602 -0.1723 -4.4252
  890SOL    HW2 2814   2.720   1.510   3.654 -0.8871 -0.1418  1.4229
  891SOL     OW 2815   0.975   2.776   3.196 -0.1433  0.3422  0.1297
  891SOL    HW1 2816   0.971   2.682   3.185 -3.1154  0.6038 -2.5783
  891SOL    HW2 2817   1.046   2.791   3.258  0.9488 -3.5660  0.0286
  892SOL     OW 2818   2.126   1.881   0.309  0.5617  0.0626  0.3458
  892SOL    HW1 2819   2.109   1.862   0.401  1.3710  1.4315  0.8133
  892SOL    HW2 2820   2.103   1.973   0.299  2.1887  0.4335 -0.3539
  893SOL     OW 2821   1.729   2.362   1.839  0.1298 -0.0554  0.3247
  893SOL    HW1 2822   1.734   2.455   1.860  0.2714 -0.6531  3.3402
  893SOL    HW2 2823   1.658   2.355   1.774 -0.2632  2.0505  0.4719
  894SOL     OW 2824   2.969   1.124   2.674 -0.1141 -0.3731 -0.1279
  894SOL    HW1 2825   2.963   1.183   2.599 -1.8239 -1.1445 -0.6507
  894SOL    HW2 2826   2.879   1.120   2.709  0.4585 -0.7617  1.3892
  895SOL     OW 2827   3.072   3.622   2.683 -0.3611 -0.4965  0.0650
  895SOL    HW1 2828   2.991   3.575   2.662  0.5230 -1.2243 -2.0003
  895SOL    HW2 2829   3.142   3.564   2.651  0.9141  0.6851  0.6272
  896SOL     OW 2830   0.612   0.156   1.350 -0.1939  0.6668  0.7527
  896SOL    HW1 2831   0.568   0.148   1.265  3.0614 -3.1410 -0.9093
  896SOL    HW2 2832   0.683   0.218   1.335  1.1416 -0.9244  0.1697
  897SOL     OW 2833   2.651   1.648   0.411  0.3359 -0.5765 -0.7481
  897SOL    HW1 2834   2.623   1.563   0.444 -0.7356  0.0331 -0.0223
  897SOL    HW2 2835   2.611   1.656   0.324  0.0642 -0.6296 -0.6276
  898SOL     OW 2836   3.491   1.079   2.951  0.5560 -0.5155  0.0525
  898SOL    HW1 2837   3.563   1.103   3.009  0.3005 -0.2158  0.2519
  898SOL    HW2 2838   3.514   1.118   2.867  0.5033 -0.1911  0.1844
  899SOL     OW 2839   1.077   2.517   1.241 -0.1179 -0.5521 -0.0227
  899SOL    HW1 2840   0.998   2.471   1.212 -0.7930 -1.0291  2.3843
  899SOL    HW2 2841   1.149   2.462   1.209 -0.7539 -0.5509 -1.5350
  900SOL     OW 2842   3.587   2.248   0.439 -0.7809 -0.1602 -0.2315
  900SOL    HW1 2843   3.541   2.165   0.425 -0.0210 -0.7400  0.6671
  900SOL    HW2 2844   3.517   2.314   0.437 -1.6065 -0.9838  0.6593
  901SOL     OW 2845   0.921   3.610   1.703  0.5449  0.4157 -0.2227
  901SOL    HW1 2846   0.995   3.600   1.763  0.1451 -0.1839  0.1825
  901SOL    HW2 2847   0.876   3.689   1.733 -0.3428 -0.5355  1.0449
  902SOL     OW 2848   2.092   0.978   2.407  0.3989 -0.3091 -0.0594
  902SOL    HW1 2849   2.099   1.013   2.496  0.0790 -0.9022  0.2031
  902SOL    HW2 2850   2.000   0.952   2.399  0.0097  1.2730 -1.1427
  903SOL     OW 2851   3.572   3.183   0.972  0.0597 -0.1950 -0.1050
  903SOL    HW1 2852   3.583   3.219   1.060 -0.9294  3.0729 -1.2017
  903SOL    HW2 2853   3.495   3.126   0.979  0.8784 -1.2143  1.3911
  904SOL     OW 2854   1.115   0.979   1.873 -0.4688 -0.2150  0.3061
  904SOL    HW1 2855   1.132   1.006   1.963  0.4115  0.9198 -0.1633
  904SOL    HW2 2856   1.120   0.883   1.875 -0.2503 -0.1962  1.4155
  905SOL     OW 2857   0.125   3.487   0.053  0.2912  0.3395  0.0697
  905SOL    HW1 2858   0.057   3.485   0.120  0.0085 -0.6544 -0.2312
  905SOL    HW2 2859   0.081   3.519  -0.026  0.1615 -0.3141 -0.1277
  906SOL     OW 2860   1.485   0.388   2.914 -0.1572 -0.0695  0.8977
  906SOL    HW1 2861   1.491   0.478   2.881 -0.2203  0.1907  1.5934
  906SOL    HW2 2862   1.569   0.371   2.955 -1.4094  1.0705  4.2499
  907SOL     OW 2863   0.204   1.919   1.950  0.2164 -0.1803  0.5695
  907SOL    HW1 2864   0.286   1.874   1.973 -0.0657  0.1787  2.4131
  907SOL    HW2 2865   0.210   1.931   1.855  0.8330 -3.0438  0.1530
  908SOL     OW 2866   2.686   2.043   2.746 -0.3966  0.4092  0.2589
  908SOL    HW1 2867   2.703   2.046   2.652 -0.0815  0.9101  0.3306
  908SOL    HW2 2868   2.768   2.070   2.787 -0.3823 -0.2795  0.6937
  909SOL     OW 2869   0.401   2.797   3.431  0.4250 -0.4389 -0.3831
  909SOL    HW1 2870   0.421   2.868   3.493  0.7565 -1.0758  0.2513
  909SOL    HW2 2871   0.446   2.720   3.467  0.1858 -0.9443 -1.1385
  910SOL     OW 2872   0.016   0.189   2.941  0.4155 -0.5653  0.1344
  910SOL    HW1 2873   0.046   0.098   2.937 -0.7487 -1.0503  1.6264
  910SOL    HW2 2874  -0.022   0.198   3.028 -1.9693  0.5696 -0.9374
  911SOL     OW 2875   3.326   0.881   2.856 -0.6795  0.7551  0.5253
  911SOL    HW1 2876   3.392   0.950   2.861  1.0795 -0.8477  0.3690
  911SOL    HW2 2877   3.281   0.886   2.940 -0.2472  1.7583  0.7189
  912SOL     OW 2878   1.859   0.103   3.240 -0.9081  0.0948  0.4989
  912SOL    HW1 2879   1.894   0.095   3.151 -1.6649 -0.4908  0.2372
  912SOL    HW2 2880   1.922   0.057   3.295  0.0904  1.3289  0.4246
  913SOL     OW 2881   2.678   2.576   0.125  0.0510  1.6162  0.4464
  913SOL    HW1 2882   2.667   2.610   0.037  0.5953  0.5103 -0.0670
  913SOL    HW2 2883   2.617   2.627   0.179 -1.5549  1.1519 -0.8587
  914SOL     OW 2884   2.096   1.265   0.712 -0.0055 -0.7253  0.0743
  914SOL    HW1 2885   2.190   1.250   0.705 -0.2057 -1.8696 -0.3875
  914SOL    HW2 2886   2.067   1.204   0.781 -0.2773  0.2497  0.8372
  915SOL     OW 2887   1.005   0.124   2.147  0.3348 -0.1491  0.0722
  915SOL    HW1 2888   0.935   0.179   2.183  1.1920  0.9343  0.1100
  915SOL    HW2 2889   1.051   0.089   2.223  0.6870  0.2444  0.0399
  916SOL     OW 2890   3.445   0.210   0.472 -0.7297 -0.1461 -0.4590
  916SOL    HW1 2891   3.474   0.140   0.530 -2.3174 -0.2258  0.2952
  916SOL    HW2 2892   3.464   0.290   0.520 -1.5787 -0.1940 -0.0183
  917SOL     OW 2893   3.409   0.665   2.625  0.5594  0.2992 -0.1456
  917SOL    HW1 2894   3.439   0.709   2.546  1.0354 -1.4138 -0.9813
  917SOL    HW2 2895   3.382   0.578   2.595  0.5059 -0.3066  1.5359
  918SOL     OW 2896   0.183   1.154   2.017 -0.1596 -0.0942  0.4262
  918SOL    HW1 2897   0.176   1.119   2.106 -1.6597  0.5530  0.5934
  918SOL    HW2 2898   0.158   1.082   1.961 -0.7090 -0.0595  0.6218
  919SOL     OW 2899   0.745   2.991   3.675 -0.4495 -0.5202  0.1521
  919SOL    HW1 2900   0.780   2.992   3.586  1.6263 -0.2654  0.9180
  919SOL    HW2 2901   0.716   2.901   3.689  0.5410 -0.9256 -0.3221
  920SOL     OW 2902   3.605   3.464   2.455  0.3050  0.1484 -0.1899
  920SOL    HW1 2903   3.661   3.461   2.377 -0.2006 -1.6278 -0.5325
  920SOL    HW2 2904   3.564   3.551   2.452  2.5059  1.2623 -0.2608
  921SOL     OW 2905   0.727   3.694   3.370 -0.1263  0.2914  0.1199
  921SOL    HW1 2906   0.692   3.617   3.326  0.9938  0.7045 -1.5900
  921SOL    HW2 2907   0.661   3.762   3.357 -0.3340  0.0844  0.1039
  922SOL     OW 2908   0.683   0.975   1.666 -0.5468 -0.7690  0.2306
  922SOL    HW1 2909   0.687   0.880   1.681  0.5064 -0.6983  0.4751
  922SOL    HW2 2910   0.756   1.010   1.717 -0.8872  0.1679  0.0825
  923SOL     OW 2911   2.927   1.546   0.355  0.0382  0.0788 -0.1729
  923SOL    HW1 2912   3.002   1.571   0.409 -0.7782 -1.2040  1.6561
  923SOL    HW2 2913   2.867   1.621   0.361 -0.6084 -0.5451  1.8654
  924SOL     OW 2914   0.465   0.928   2.619  0.4370  0.1916  0.2090
  924SOL    HW1 2915   0.506   1.002   2.663  1.2070  0.0445 -0.2334
  924SOL    HW2 2916   0.451   0.958   2.529  1.6938 -0.5169 -0.2526
  925SOL     OW 2917   0.351   0.278   3.622 -0.0706  0.2000 -0.0080
  925SOL    HW1 2918   0.290   0.279   3.696  0.9864 -1.2486  0.9386
  925SOL    HW2 2919   0.348   0.187   3.591  1.2826  0.2085 -0.2037
  926SOL     OW 2920   0.930   0.906   3.257 -0.4493  0.2936  0.2965
  926SOL    HW1 2921   0.947   0.888   3.350 -0.3759  0.2357  0.2720
  926SOL    HW2 2922   0.851   0.856   3.237 -0.3802  0.1876  0.2896
  927SOL     OW 2923   2.240   2.573   3.550  0.0949 -0.8906  0.4201
  927SOL    HW1 2924   2.320   2.523   3.531 -0.2097 -1.4742  0.6931
  927SOL    HW2 2925   2.270   2.664   3.550  0.9234 -1.1400  1.2812
  928SOL     OW 2926   1.149   2.520   3.307  0.0804  0.4977 -0.0192
  928SOL    HW1 2927   1.173   2.548   3.219 -1.1784  0.6403 -0.3284
  928SOL    HW2 2928   1.226   2.541   3.361  0.5192  1.2160 -0.9145
  929SOL     OW 2929   0.188   0.238   2.282  0.4051  0.0708 -0.8199
  929SOL    HW1 2930   0.279   0.267   2.291  1.4889 -2.8096 -1.4956
  929SOL    HW2 2931   0.140   0.294   2.343  2.8572  0.6677  0.7375
  930SOL     OW 2932   2.158   0.325   3.573  0.6340  0.1489  0.1019
  930SOL    HW1 2933   2.214   0.251   3.594  1.8032  1.3227  1.3281
  930SOL    HW2 2934   2.213   0.382   3.519  0.4349  1.0382  0.8160
  931SOL     OW 2935   2.270   0.177   2.333  0.7450  0.4359  0.3280
  931SOL    HW1 2936   2.352   0.129   2.322  0.6407  0.4387 -0.4767
  931SOL    HW2 2937   2.242   0.198   2.244 -0.4619 -0.1327  0.5640
  932SOL     OW 2938   0.765   3.633   1.292 -0.0489  0.8646 -0.0646
  932SOL    HW1 2939   0.745   3.542   1.316 -0.8020  0.0717 -3.2215
  932SOL    HW2 2940   0.692   3.684   1.328  0.9654  0.4749  2.7404
  933SOL     OW 2941   1.146   0.533   3.201  0.3055 -0.1572 -0.3591
  933SOL    HW1 2942   1.211   0.603   3.196 -1.0383  1.1550 -0.4220
  933SOL    HW2 2943   1.194   0.453   3.181  2.4257  0.3790  2.0525
  934SOL     OW 2944   3.303   2.304   1.966  0.2590  0.4827 -0.4700
  934SOL    HW1 2945   3.297   2.230   1.906  0.3676  0.4478 -0.4386
  934SOL    HW2 2946   3.323   2.379   1.910 -0.3850  0.5852 -0.5662
  935SOL     OW 2947   1.725   1.432   0.442 -0.8602  0.2730  0.2075
  935SOL    HW1 2948   1.650   1.490   0.432 -0.2786  1.3978  1.9260
  935SOL    HW2 2949   1.792   1.468   0.383 -0.3304  1.7441  1.6150
  936SOL     OW 2950   2.286   0.670   3.162 -0.0704 -0.0328  0.4063
  936SOL    HW1 2951   2.198   0.681   3.126 -0.0751  0.2202  0.4922
  936SOL    HW2 2952   2.310   0.757   3.193  1.0780  0.4019 -1.5589
  937SOL     OW 2953   3.272   1.482   0.433  0.1496 -0.1104 -0.2024
  937SOL    HW1 2954   3.235   1.567   0.456 -1.8165 -0.1787 -2.6122
  937SOL    HW2 2955   3.289   1.488   0.339  0.8689 -2.0674 -0.2390
  938SOL     OW 2956   1.833   0.532   3.679  0.4243 -0.4004  0.4362
  938SOL    HW1 2957   1.810   0.585   3.756 -2.1430 -3.4259  1.9655
  938SOL    HW2 2958   1.884   0.459   3.715  0.7669 -0.9204 -1.0468
  939SOL     OW 2959   1.286   0.867   0.108  0.0956 -0.0352  0.3204
  939SOL    HW1 2960   1.303   0.777   0.082  0.2383 -0.5845  2.2037
  939SOL    HW2 2961   1.341   0.919   0.050 -2.1573 -0.8806 -2.8229
  940SOL     OW 2962   3.281   3.413   3.692  0.1501 -0.3991 -0.4664
  940SOL    HW1 2963   3.283   3.396   3.786  0.8917  2.1690  0.0567
  940SOL    HW2 2964   3.350   3.357   3.656  0.1932 -1.0439  0.5717
  941SOL     OW 2965   3.172   0.844   0.949  0.1819  0.0044 -0.0803
  941SOL    HW1 2966   3.242   0.905   0.926 -0.0886  1.5889  2.8105
  941SOL    HW2 2967   3.092   0.885   0.916 -0.0410  1.5325  2.1403
  942SOL     OW 2968   3.030   3.449   3.217 -0.1663  0.3898 -0.4325
  942SOL    HW1 2969   3.063   3.502   3.145  0.1850  1.4098  0.4401
  942SOL    HW2 2970   2.981   3.511   3.271  2.3171  0.4766  1.9478
  943SOL     OW 2971   2.560   2.989   3.079 -0.3084  0.4228 -0.0677
  943SOL    HW1 2972   2.506   2.944   3.013  0.9193 -0.5005 -0.4616
  943SOL    HW2 2973   2.596   2.919   3.133 -0.4962  1.1173  0.9912
  944SOL     OW 2974   0.469   1.457   0.700 -0.3809 -0.5111  0.4818
  944SOL    HW1 2975   0.509   1.504   0.627 -1.3831 -0.2967  0.0555
  944SOL    HW2 2976   0.477   1.516   0.774 -0.0462 -0.4116  0.3698
  945SOL     OW 2977   1.584   1.824   2.785  0.0414  0.0057 -0.8815
  945SOL    HW1 2978   1.545   1.737   2.775 -2.0368  0.9205 -1.1684
  945SOL    HW2 2979   1.611   1.848   2.696  0.0996 -0.1148 -0.8970
  946SOL     OW 2980   1.312   3.123  -0.011 -0.1929 -0.0369  0.1907
  946SOL    HW1 2981   1.249   3.143   0.058 -1.0897 -0.2926 -0.5256
  946SOL    HW2 2982   1.384   3.184   0.004 -0.5974  0.2480  1.0515
  947SOL     OW 2983   2.755   2.262   2.489 -0.6115  0.2623 -0.2965
  947SOL    HW1 2984   2.748   2.324   2.562 -2.2289 -3.5001  3.1202
  947SOL    HW2 2985   2.848   2.258   2.469 -0.0901  1.3490  1.6760
  948SOL     OW 2986   1.591   0.693   2.102 -0.0771  0.5048 -0.3179
  948SOL    HW1 2987   1.507   0.694   2.147 -0.3328  0.5738 -0.7878
  948SOL    HW2 2988   1.569   0.707   2.010  0.4793  0.9017 -0.3970
  949SOL     OW 2989   3.397   2.928   2.445  0.3249  0.3391 -0.1041
  949SOL    HW1 2990   3.335   2.914   2.373  0.9515  0.6625 -0.7208
  949SOL    HW2 2991   3.348   2.904   2.524 -0.0477 -1.0417 -0.7225
  950SOL     OW 2992   0.744   0.232   2.173 -0.2777 -0.4769 -0.3715
  950SOL    HW1 2993   0.691   0.232   2.253  0.0050  0.1930 -0.1740
  950SOL    HW2 2994   0.718   0.311   2.126  0.8772  0.1461 -0.0253
  951SOL     OW 2995   1.302   0.939   1.121  0.6684  0.3321 -0.0606
  951SOL    HW1 2996   1.259   0.943   1.206 -0.2935 -0.6500 -0.4673
  951SOL    HW2 2997   1.330   0.848   1.113 -0.8758 -0.0622 -1.5226
  952SOL     OW 2998   3.485   1.766   1.304  0.3495  0.5587  0.3979
  952SOL    HW1 2999   3.549   1.837   1.297  0.3280  0.5002 -0.6384
  952SOL    HW2 3000   3.435   1.786   1.383  0.5464  1.5335  0.2923
  953SOL     OW 3001   0.918   0.287   0.382 -0.5791 -0.3207  0.5897
  953SOL    HW1 3002   0.994   0.327   0.426  1.5467 -0.6670 -2.4439
  953SOL    HW2 3003   0.844   0.341   0.410  1.3168  2.2738  1.0328
  954SOL     OW 3004   1.010   1.854   1.042  0.7108  0.2046 -0.6075
  954SOL    HW1 3005   1.076   1.862   0.973  2.2065 -0.8064  0.6634
  954SOL    HW2 3006   0.942   1.799   1.003  1.2362  0.1652 -1.4963
  955SOL     OW 3007   2.163   1.377   1.182 -0.6198  0.1440  0.0905
  955SOL    HW1 3008   2.143   1.466   1.154  1.9201  0.5450 -0.7036
  955SOL    HW2 3009   2.080   1.343   1.216 -1.3407  3.3428  1.9808
  956SOL     OW 3010   1.283   3.582   2.098  0.0388  0.7859 -0.0275
  956SOL    HW1 3011   1.349   3.607   2.163  0.9212 -1.9139  0.2711
  956SOL    HW2 3012   1.201   3.617   2.132  1.0683  3.1226  0.2567
  957SOL     OW 3013   1.516   0.163   2.751 -0.2744  0.0144  0.7616
  957SOL    HW1 3014   1.571   0.205   2.686  0.8860 -0.3882  1.4589
  957SOL    HW2 3015   1.524   0.218   2.829 -1.7183  0.5415  0.5820
  958SOL     OW 3016   2.078   3.217   1.943 -0.5289 -0.0825 -0.5753
  958SOL    HW1 3017   2.135   3.283   1.905 -0.2252  0.2577  0.4619
  958SOL    HW2 3018   2.014   3.266   1.995 -0.3309 -0.5949  0.1648
  959SOL     OW 3019   1.490   0.747   1.828 -0.6252  0.3544  0.5410
  959SOL    HW1 3020   1.396   0.747   1.811 -0.3446  0.5222 -1.1786
  959SOL    HW2 3021   1.517   0.838   1.819 -0.2011  0.2138  0.2982
  960SOL     OW 3022   0.165   2.913   0.360  0.0066  0.0829 -0.9064
  960SOL    HW1 3023   0.196   2.973   0.428  0.6210 -2.0995  0.8246
  960SOL    HW2 3024   0.245   2.872   0.326 -0.5284 -1.2721 -0.5745
  961SOL     OW 3025   0.918   0.675   1.753 -0.4492 -0.5157 -0.2382
  961SOL    HW1 3026   0.966   0.598   1.783 -0.3737  0.0975  1.2828
  961SOL    HW2 3027   0.967   0.749   1.787 -2.5389  0.1331  1.6266
  962SOL     OW 3028   1.015   3.131   0.793 -0.6074  0.1835 -0.2069
  962SOL    HW1 3029   1.048   3.219   0.810  0.7878 -0.4064  0.2622
  962SOL    HW2 3030   0.977   3.103   0.876  0.3208 -0.2234  0.0877
  963SOL     OW 3031   3.480   2.056   3.710  0.2879 -0.1710  0.7045
  963SOL    HW1 3032   3.497   2.008   3.792  0.5238  0.2277  0.8918
  963SOL    HW2 3033   3.435   1.992   3.654  3.7599 -1.8497 -0.4433
  964SOL     OW 3034   0.052   3.279   3.193  1.2213 -0.1324 -0.1944
  964SOL    HW1 3035   0.005   3.362   3.203 -2.5391 -2.2315  1.5300
  964SOL    HW2 3036   0.075   3.277   3.100 -2.8935  0.8648 -1.4421
  965SOL     OW 3037   1.453   0.927   3.221 -0.6973 -0.0754  0.3396
  965SOL    HW1 3038   1.377   0.876   3.193 -1.5362  0.8776  0.7746
  965SOL    HW2 3039   1.529   0.876   3.194 -1.4941 -0.7156 -0.7450
  966SOL     OW 3040   1.343   2.037   1.829 -0.3839 -0.2207  0.4228
  966SOL    HW1 3041   1.382   2.122   1.806  2.2006 -0.4404  3.3295
  966SOL    HW2 3042   1.416   1.976   1.823 -1.0574 -1.3497  2.8183
  967SOL     OW 3043   0.385   1.118   0.985 -0.0354  0.0826 -0.3854
  967SOL    HW1 3044   0.468   1.084   1.018  0.7145  0.7721 -1.4841
  967SOL    HW2 3045   0.340   1.152   1.062  0.3988 -0.8802  0.3205
  968SOL     OW 3046   0.669   0.460   3.399 -0.4883 -0.9714 -0.3954
  968SOL    HW1 3047   0.730   0.442   3.328 -0.0624 -0.5198 -0.1481
  968SOL    HW2 3048   0.707   0.535   3.446 -2.7876  1.4689 -2.1326
  969SOL     OW 3049   0.290   2.125   0.035 -0.0470 -0.5781  0.0720
  969SOL    HW1 3050   0.207   2.147   0.077  0.1926  0.8054 -0.1334
  969SOL    HW2 3051   0.321   2.048   0.083 -2.0868 -2.0030 -0.7582
  970SOL     OW 3052   1.212   0.490   2.040  0.5937  0.4467  0.7935
  970SOL    HW1 3053   1.289   0.465   1.988  0.9318 -0.4064  1.6906
  970SOL    HW2 3054   1.238   0.474   2.130 -1.2404 -1.5799  1.0291
  971SOL     OW 3055   3.372   3.078   1.748 -0.3546  1.1120  0.4073
  971SOL    HW1 3056   3.429   3.098   1.822 -0.4528 -0.1540  0.8631
  971SOL    HW2 3057   3.293   3.040   1.788 -1.5020  2.7112 -0.2141
  972SOL     OW 3058   1.341   2.403   2.296  0.3749  0.2789 -0.3998
  972SOL    HW1 3059   1.402   2.459   2.343 -0.1354 -0.7930  1.6605
  972SOL    HW2 3060   1.261   2.456   2.289  1.0432  1.1648 -1.8812
  973SOL     OW 3061   3.552   3.706   0.864 -0.1015  0.4742  0.5334
  973SOL    HW1 3062   3.574   3.690   0.955  0.1799  0.0690  0.3943
  973SOL    HW2 3063   3.629   3.749   0.827  0.1480 -0.2020  0.2549
  974SOL     OW 3064   2.869   1.224   0.808  0.0734 -0.4149  0.1935
  974SOL    HW1 3065   2.828   1.279   0.875  0.0617 -0.7787  0.4817
  974SOL    HW2 3066   2.837   1.261   0.725 -0.2837 -0.2612  0.3958
  975SOL     OW 3067   2.755   1.073   3.401 -0.2988 -0.4950 -0.2274
  975SOL    HW1 3068   2.668   1.082   3.440 -0.1053  2.2121 -0.1856
  975SOL    HW2 3069   2.800   1.154   3.426  1.8384 -1.2979 -1.2488
  976SOL     OW 3070   1.415   0.480   1.834  0.1652 -0.0755  0.2950
  976SOL    HW1 3071   1.472   0.551   1.804 -0.2388  0.4378  0.7112
  976SOL    HW2 3072   1.467   0.401   1.822  0.2336  0.1604 -1.2132
  977SOL     OW 3073   1.166   3.547   2.989  0.3784 -0.3651  0.4767
  977SOL    HW1 3074   1.073   3.540   3.010 -0.0030 -1.1570 -1.2932
  977SOL    HW2 3075   1.187   3.464   2.948  1.2750  0.6739 -1.2683
  978SOL     OW 3076   1.171   1.175   1.023  0.1643  1.1023 -0.1215
  978SOL    HW1 3077   1.246   1.234   1.018 -0.7400  2.3079  0.2331
  978SOL    HW2 3078   1.125   1.187   0.940 -0.2287  1.1666  0.1059
  979SOL     OW 3079   1.344   1.295   3.536  0.2668  0.1419 -0.3045
  979SOL    HW1 3080   1.435   1.313   3.513 -0.3009  0.5628 -2.4369
  979SOL    HW2 3081   1.325   1.211   3.494  0.1021 -0.7550  1.4793
  980SOL     OW 3082   0.297   0.306   1.394 -0.0555  0.2988  0.2658
  980SOL    HW1 3083   0.292   0.249   1.470  1.6281  0.3147  0.4460
  980SOL    HW2 3084   0.207   0.327   1.373 -0.5598  1.0170  2.8018
  981SOL     OW 3085   0.472   1.908   1.127 -0.6561  0.7800 -0.2714
  981SOL    HW1 3086   0.516   1.979   1.172 -0.8225  0.2272  0.7963
  981SOL    HW2 3087   0.425   1.861   1.196  1.6796 -2.0481 -0.4065
  982SOL     OW 3088   3.339   1.862   0.654  0.3596 -0.2562 -0.8050
  982SOL    HW1 3089   3.361   1.769   0.652  2.4749  0.1743 -0.0037
  982SOL    HW2 3090   3.300   1.876   0.741  1.2716 -0.1658 -0.4008
  983SOL     OW 3091   0.972   2.675   1.945  0.4965  0.3864 -0.3827
  983SOL    HW1 3092   0.990   2.634   2.030 -2.9046 -1.4450 -0.3419
  983SOL    HW2 3093   1.025   2.626   1.882  2.7132  1.4689  0.5643
  984SOL     OW 3094   1.449   3.679   2.279  0.4084  0.1868  0.0259
  984SOL    HW1 3095   1.490   3.592   2.278  2.3909  1.0617 -1.6674
  984SOL    HW2 3096   1.449   3.703   2.372 -0.0977 -1.5443  0.5224
  985SOL     OW 3097   2.353   0.180   1.750 -0.6251 -0.5027 -0.0909
  985SOL    HW1 3098   2.410   0.251   1.778  0.2478 -0.9588 -0.6560
  985SOL    HW2 3099   2.409   0.125   1.694 -1.3897 -1.4059  0.0058
  986SOL     OW 3100   0.890   1.355   0.503 -0.7331 -0.5890  0.4503
  986SOL    HW1 3101   0.835   1.354   0.424 -0.2887 -0.2636  0.1326
  986SOL    HW2 3102   0.913   1.264   0.518 -3.4195 -1.1055  2.0527
  987SOL     OW 3103   1.325   2.661   1.662 -0.2717 -0.1610 -0.0495
  987SOL    HW1 3104   1.234   2.639   1.683 -0.8914  1.8977 -0.2701
  987SOL    HW2 3105   1.322   2.684   1.569  0.8010 -1.4878 -0.4309
  988SOL     OW 3106   2.872   0.633   2.250 -0.2201  0.1034  0.3195
  988SOL    HW1 3107   2.796   0.603   2.300 -0.8875  0.6362 -0.3391
  988SOL    HW2 3108   2.842   0.632   2.158  0.7271 -0.1350  0.0018
  989SOL     OW 3109   3.548   2.289   0.082 -0.2469  0.0794  0.6515
  989SOL    HW1 3110   3.513   2.216   0.030 -0.3347  0.1004  0.6829
  989SOL    HW2 3111   3.608   2.247   0.144  0.4813  0.1271 -0.0018
  990SOL     OW 3112   2.195   0.559   1.918 -0.1763 -0.5063 -0.8104
  990SOL    HW1 3113   2.254   0.524   1.984  0.9438 -0.1798 -1.6216
  990SOL    HW2 3114   2.252   0.596   1.851 -1.2889  1.5717 -0.6993
  991SOL     OW 3115   3.492   1.701   3.410 -0.1082 -0.0886  0.4901
  991SOL    HW1 3116   3.505   1.764   3.480 -0.8059 -0.8143  1.2945
  991SOL    HW2 3117   3.553   1.630   3.430  0.6948  0.3073 -0.4246
  992SOL     OW 3118   0.742   1.915   1.252 -0.1871  0.0374 -0.2888
  992SOL    HW1 3119   0.831   1.928   1.221 -0.9365  3.1639 -1.4768
  992SOL    HW2 3120   0.737   1.822   1.274  3.6232 -0.0624  0.7858
  993SOL     OW 3121   2.676   3.312   0.575 -0.2999  0.3191 -0.2414
  993SOL    HW1 3122   2.621   3.388   0.558 -0.1741 -0.0571 -2.5930
  993SOL    HW2 3123   2.619   3.252   0.624 -1.2084  0.9077 -0.5432
  994SOL     OW 3124   1.521   2.136   0.194  0.1887 -0.1753  0.2478
  994SOL    HW1 3125   1.454   2.181   0.142  1.9061 -1.9900 -4.0241
  994SOL    HW2 3126   1.473   2.091   0.263 -2.9183 -0.6703 -2.0695
  995SOL     OW 3127   2.194   0.729   1.066 -0.2711 -0.1958 -0.3387
  995SOL    HW1 3128   2.276   0.731   1.114  0.4827 -1.5276 -1.4868
  995SOL    HW2 3129   2.160   0.640   1.078 -2.6357  0.8558  1.7629
  996SOL     OW 3130   1.292   0.915   0.769  0.1123  0.3891  0.0203
  996SOL    HW1 3131   1.280   0.863   0.848  5.0051  1.4349  1.8183
  996SOL    HW2 3132   1.352   0.864   0.715  0.3798  1.6247 -0.9076
  997SOL     OW 3133   2.138   3.300   0.309 -0.1925 -0.7544  0.0185
  997SOL    HW1 3134   2.058   3.343   0.277 -0.3969 -0.3533  1.0079
  997SOL    HW2 3135   2.178   3.365   0.367  1.0285 -0.8342 -0.7011
  998SOL     OW 3136   2.263   1.280   0.418  0.8009  0.4095 -0.1409
  998SOL    HW1 3137   2.296   1.234   0.340  0.2497  0.5667 -0.4661
  998SOL    HW2 3138   2.169   1.284   0.406  0.8156  1.4680 -0.0307
  999SOL     OW 3139   1.030   0.452   1.859 -0.1014  0.0216 -0.4947
  999SOL    HW1 3140   1.076   0.390   1.802 -0.7554 -0.9108 -0.0407
  999SOL    HW2 3141   1.089   0.463   1.934  0.9508  1.5749 -1.4988
 1000SOL     OW 3142   0.747   3.250   1.971  0.1065  0.2089  0.1106
 1000SOL    HW1 3143   0.717   3.339   1.952 -1.8073 -0.2104  0.9486
 1000SOL    HW2 3144   0.828   3.262   2.021 -1.7101  1.6051  2.8920
 1001SOL     OW 3145   2.183  -0.018   1.861  0.1789  0.1266  0.3895
 1001SOL    HW1 3146   2.238   0.054   1.828 -2.1120  2.1545  0.7045
 1001SOL    HW2 3147   2.214  -0.032   1.951 -1.2375  2.9726  1.4620
 1002SOL     OW 3148   3.702   1.821   0.308 -0.5009  0.1593 -0.2439
 1002SOL    HW1 3149   3.714   1.753   0.242  2.3532  0.4082 -0.1336
 1002SOL    HW2 3150   3.710   1.775   0.392  1.8350  0.5542 -0.1666
 1003SOL     OW 3151   0.194   3.214   3.642 -0.0428  0.2901 -0.2536
 1003SOL    HW1 3152   0.190   3.273   3.717 -0.0008  1.4777 -1.1526
 1003SOL    HW2 3153   0.150   3.261   3.571 -0.4517 -0.9715 -0.8774
 1004SOL     OW 3154   3.620   2.226   0.722 -0.2122 -0.7420  0.1168
 1004SOL    HW1 3155   3.529   2.195   0.728 -0.1714 -0.7995  0.4505
 1004SOL    HW2 3156   3.634   2.240   0.629 -0.0593 -2.2215 -0.0952
 1005SOL     OW 3157   3.559   0.977   1.596  0.0205  0.3023  0.2169
 1005SOL    HW1 3158   3.632   1.035   1.574  0.5404  0.0140  1.1033
 1005SOL    HW2 3159   3.540   0.997   1.688  0.8088 -1.5172  0.8269
 1006SOL     OW 3160   1.412   2.216   1.514  0.4308  0.4626 -0.2295
 1006SOL    HW1 3161   1.440   2.196   1.603 -1.9453 -2.9211 -0.0295
 1006SOL    HW2 3162   1.319   2.238   1.522  0.2822  0.5782 -1.8041
 1007SOL     OW 3163   2.663   0.355   3.016 -0.1457 -0.4372 -0.7123
 1007SOL    HW1 3164   2.757   0.342   3.002  0.0164 -0.2906  0.1543
 1007SOL    HW2 3165   2.621   0.304   2.947  0.5362 -2.2915  0.1630
 1008SOL     OW 3166   2.052   2.237   1.143  0.5388 -0.2062  0.7339
 1008SOL    HW1 3167   2.000   2.293   1.199 -1.3911  1.1881 -2.2277
 1008SOL    HW2 3168   2.142   2.268   1.154 -0.1456  1.7440  1.1311
 1009SOL     OW 3169   2.828   1.787   0.207 -0.4671 -0.2576 -0.2185
 1009SOL    HW1 3170   2.870   1.763   0.124  0.0407  1.4038 -0.4774
 1009SOL    HW2 3171   2.741   1.817   0.183 -1.3559 -2.3673  0.1750
 1010SOL     OW 3172   2.027   1.401   2.541  0.6308 -0.7462  0.0576
 1010SOL    HW1 3173   2.035   1.371   2.450  0.7071 -1.5218  0.3098
 1010SOL    HW2 3174   1.987   1.488   2.534 -1.5026 -1.7074 -0.6033
 1011SOL     OW 3175   3.672   0.115   0.237 -0.7551  0.0368 -0.1310
 1011SOL    HW1 3176   3.598   0.151   0.286 -1.6720  1.9177 -2.6788
 1011SOL    HW2 3177   3.632   0.065   0.166  0.5154 -2.1300  0.5756
 1012SOL     OW 3178   0.896   1.553   0.290  0.6729  0.5987 -0.1824
 1012SOL    HW1 3179   0.892   1.632   0.236 -1.3959 -0.7918 -2.2762
 1012SOL    HW2 3180   0.914   1.483   0.228 -0.0811 -0.8894  1.2045
 1013SOL     OW 3181   2.873   0.400   2.479 -0.3082  0.8868  0.2285
 1013SOL    HW1 3182   2.797   0.352   2.510  0.3040 -0.8119 -0.8074
 1013SOL    HW2 3183   2.947   0.342   2.496  0.3904  1.1760 -1.6376
 1014SOL     OW 3184   0.869   3.213   1.713 -0.1505 -0.1173  0.1535
 1014SOL    HW1 3185   0.927   3.288   1.702 -0.1677 -0.2732 -1.1370
 1014SOL    HW2 3186   0.819   3.233   1.792  0.6065  0.7181  0.4316
 1015SOL     OW 3187   2.258   2.519   0.948 -0.2622 -0.1427  0.6969
 1015SOL    HW1 3188   2.295   2.465   0.878 -0.9387  2.6869 -2.0314
 1015SOL    HW2 3189   2.329   2.578   0.973 -1.0323  1.1901 -0.1656
 1016SOL     OW 3190   0.959   0.810   1.222  0.2810 -0.0677 -0.0811
 1016SOL    HW1 3191   0.986   0.820   1.314 -0.1957 -1.5463  0.2572
 1016SOL    HW2 3192   0.886   0.748   1.226  0.0874  0.0599 -1.4441
 1017SOL     OW 3193   0.774   2.961   3.217  0.0983 -0.5023  0.3887
 1017SOL    HW1 3194   0.856   2.923   3.184  0.1983 -1.7580  1.9664
 1017SOL    HW2 3195   0.742   2.897   3.281 -1.4907  0.5504  0.6951
 1018SOL     OW 3196   2.416   3.448   0.525  0.0754  0.0571 -0.3230
 1018SOL    HW1 3197   2.414   3.395   0.445  1.2658 -1.4423  0.5806
 1018SOL    HW2 3198   2.464   3.526   0.500  0.1012 -0.2197 -1.1777
 1019SOL     OW 3199   2.106   1.701   1.730 -0.0445  0.3925 -0.0937
 1019SOL    HW1 3200   2.147   1.623   1.767  0.5521  1.2958  1.2327
 1019SOL    HW2 3201   2.178   1.748   1.688 -0.4612  0.0941 -1.1800
 1020SOL     OW 3202   1.317   3.443   0.962 -0.2986  0.3287  0.3009
 1020SOL    HW1 3203   1.243   3.397   1.003 -1.3395 -0.8664 -2.6516
 1020SOL    HW2 3204   1.388   3.379   0.965 -1.2211 -0.9628 -2.1501
 1021SOL     OW 3205   0.353   2.302   1.110 -0.3029 -0.0609 -0.1742
 1021SOL    HW1 3206   0.415   2.353   1.162  0.2787 -0.6841 -0.2423
 1021SOL    HW2 3207   0.309   2.245   1.173 -2.3323  1.8131  0.2114
 1022SOL     OW 3208   0.029   3.638   3.588  0.6956  0.7368  0.6586
 1022SOL    HW1 3209  -0.044   3.684   3.629 -1.6066 -0.9168 -1.3457
 1022SOL    HW2 3210   0.052   3.691   3.512  2.5553  1.9137  1.9477
 1023SOL     OW 3211   1.125   2.190   1.587 -0.1231 -0.0480  0.3435
 1023SOL    HW1 3212   1.174   2.108   1.583  1.8945  1.0684  0.9274
 1023SOL    HW2 3213   1.098   2.198   1.678  0.2011  0.2250  0.4160
 1024SOL     OW 3214   2.269   1.561   2.150  0.8343 -0.1484 -0.5564
 1024SOL    HW1 3215   2.324   1.483   2.145  0.8833 -0.0808 -4.5201
 1024SOL    HW2 3216   2.309   1.622   2.087 -1.8496  1.2204 -1.0924
 1025SOL     OW 3217   0.969   3.169   0.452 -0.3539 -0.3763 -0.2204
 1025SOL    HW1 3218   0.894   3.135   0.403 -1.6310 -0.7076  1.8437
 1025SOL    HW2 3219   0.930   3.215   0.526  1.4822 -0.2857  0.7364
 1026SOL     OW 3220   2.335   0.730   0.171 -0.4491  0.1696 -0.7231
 1026SOL    HW1 3221   2.339   0.649   0.221 -0.5033  0.5861 -0.0276
 1026SOL    HW2 3222   2.304   0.704   0.084 -0.2331 -0.5803 -0.5834
 1027SOL     OW 3223   2.144   2.962   1.441  0.1186 -0.3103 -0.3957
 1027SOL    HW1 3224   2.070   2.998   1.490 -1.1669  0.6944 -2.8776
 1027SOL    HW2 3225   2.139   2.868   1.456 -1.0153 -0.1521  0.3618
 1028SOL     OW 3226   0.156   1.530   0.672 -0.5492 -0.0703  0.4595
 1028SOL    HW1 3227   0.212   1.462   0.710  1.2318 -0.1132 -1.9539
 1028SOL    HW2 3228   0.185   1.611   0.715 -0.7493 -0.4624  1.3635
 1029SOL     OW 3229   2.314   1.038   1.383 -0.2389 -0.0377  0.3860
 1029SOL    HW1 3230   2.316   1.108   1.448 -1.4730 -1.8272  2.5290
 1029SOL    HW2 3231   2.350   0.962   1.430  0.3566 -1.0462 -1.5995
 1030SOL     OW 3232   2.915   3.756   2.878  0.0511 -0.8806 -0.1161
 1030SOL    HW1 3233   2.981   3.700   2.837  0.4380 -1.3252  1.0552
 1030SOL    HW2 3234   2.915   3.729   2.970 -0.1622  0.6686  0.3715
 1031SOL     OW 3235   1.609   1.267   1.635 -0.1167 -0.4586  0.9651
 1031SOL    HW1 3236   1.654   1.349   1.655 -1.1990  0.1278  1.0761
 1031SOL    HW2 3237   1.627   1.210   1.710  1.9359 -0.9227  0.2029
 1032SOL     OW 3238   0.891   0.080   0.215  0.1106  0.1714  0.8734
 1032SOL    HW1 3239   0.796   0.075   0.209  0.2055 -1.8995  0.3129
 1032SOL    HW2 3240   0.908   0.147   0.282 -1.6825  1.3474  0.2161
 1033SOL     OW 3241   0.424   3.070   3.564  1.0116  0.0904  0.0565
 1033SOL    HW1 3242   0.421   3.109   3.476 -0.2725  1.4168  0.6323
 1033SOL    HW2 3243   0.363   3.123   3.615  1.2461 -1.0595  1.6003
 1034SOL     OW 3244   3.613   2.050   1.224 -0.0534  0.3773  0.1057
 1034SOL    HW1 3245   3.673   2.120   1.199  1.3761 -0.8544 -0.0608
 1034SOL    HW2 3246   3.551   2.045   1.151 -0.1629  1.4267  0.1059
 1035SOL     OW 3247   3.345   2.309   1.528 -0.5325  0.5202  0.2975
 1035SOL    HW1 3248   3.263   2.292   1.481 -0.6983 -0.2374  0.8463
 1035SOL    HW2 3249   3.336   2.399   1.560 -0.8004  0.7280 -0.3285
 1036SOL     OW 3250   2.088   0.464   0.071  0.1653  0.5812  0.1832
 1036SOL    HW1 3251   2.101   0.404  -0.003  1.1848  1.1389 -0.1100
 1036SOL    HW2 3252   2.157   0.441   0.133  0.4401  1.3185  0.1556
 1037SOL     OW 3253   1.568   1.433   3.688 -0.0844 -0.1426 -0.4892
 1037SOL    HW1 3254   1.550   1.348   3.728  0.5761 -0.0709 -0.0132
 1037SOL    HW2 3255   1.653   1.422   3.645  0.0390  0.2880 -0.3636
 1038SOL     OW 3256   2.739   0.262   1.457  0.2251  0.1562 -0.8076
 1038SOL    HW1 3257   2.783   0.271   1.541 -0.5601  1.3947 -0.4992
 1038SOL    HW2 3258   2.809   0.265   1.392  1.0168 -2.5110 -0.1787
 1039SOL     OW 3259   3.150   1.326   0.625 -0.2619 -0.2061  0.1975
 1039SOL    HW1 3260   3.190   1.367   0.548 -0.4939  0.2718  0.3279
 1039SOL    HW2 3261   3.059   1.312   0.600 -0.4061  0.2011  0.4740
 1040SOL     OW 3262   3.166   2.836   1.122 -0.1702  0.9263  0.1493
 1040SOL    HW1 3263   3.174   2.755   1.172  0.9206 -0.2153 -1.7551
 1040SOL    HW2 3264   3.095   2.884   1.166  0.5407 -0.0723  2.5820
 1041SOL     OW 3265   1.118   2.253   0.980 -0.6116  0.7169  0.5422
 1041SOL    HW1 3266   1.199   2.229   0.935 -0.3502 -2.0384  2.2802
 1041SOL    HW2 3267   1.049   2.235   0.916 -0.0170  0.5196 -0.0528
 1042SOL     OW 3268   1.304   1.018   2.800 -0.5738 -0.1970 -0.1395
 1042SOL    HW1 3269   1.379   0.977   2.843  1.1297  0.9735 -1.8056
 1042SOL    HW2 3270   1.308   1.110   2.826 -1.9123 -0.2408  0.3231
 1043SOL     OW 3271   1.539   2.509   1.671 -0.1200 -0.8519  0.4243
 1043SOL    HW1 3272   1.610   2.569   1.697  0.3194  0.0256 -2.4273
 1043SOL    HW2 3273   1.467   2.567   1.645 -0.5651 -1.6208 -0.1060
 1044SOL     OW 3274   0.791   0.909   3.691 -0.0328  0.6435 -0.0225
 1044SOL    HW1 3275   0.762   0.963   3.764  2.1371  0.9692  0.6644
 1044SOL    HW2 3276   0.880   0.882   3.714  0.1575 -0.5028 -1.8601
 1045SOL     OW 3277   3.323   1.769   3.724 -0.2892 -0.7431 -0.0946
 1045SOL    HW1 3278   3.294   1.805   3.641  0.7414  2.5344  0.8224
 1045SOL    HW2 3279   3.419   1.766   3.717 -0.0861  0.9029  1.4043
 1046SOL     OW 3280   1.761   2.859   1.158  0.2805 -0.3103 -0.1998
 1046SOL    HW1 3281   1.743   2.818   1.073  0.8436 -2.4654  0.6377
 1046SOL    HW2 3282   1.831   2.805   1.196 -1.4152 -0.8222  2.5212
 1047SOL     OW 3283   0.358   1.994   0.897 -0.2115  0.3079 -0.3219
 1047SOL    HW1 3284   0.388   1.981   0.987 -3.6504  0.2336  0.9515
 1047SOL    HW2 3285   0.412   2.066   0.864 -0.0279  1.5320  2.4243
 1048SOL     OW 3286   0.033   0.564   1.250  0.0716  0.3716  0.2691
 1048SOL    HW1 3287   0.036   0.594   1.159 -1.7635  1.3128  0.4780
 1048SOL    HW2 3288  -0.016   0.632   1.296 -0.0172 -0.6425  1.7415
 1049SOL     OW 3289   1.156   0.148   1.893  0.2927  0.2941  0.3291
 1049SOL    HW1 3290   1.151   0.086   1.966 -0.0397 -0.0066  0.0494
 1049SOL    HW2 3291   1.065   0.161   1.865  0.4236  0.3658 -0.0699
 1050SOL     OW 3292   2.667   0.587   1.615  0.7899 -0.5162  0.7556
 1050SOL    HW1 3293   2.682   0.669   1.662  3.7423 -0.0741 -0.7078
 1050SOL    HW2 3294   2.681   0.610   1.523  1.7197 -2.6233  0.3102
 1051SOL     OW 3295   3.419   1.193   0.400 -0.0078 -0.2839  0.5226
 1051SOL    HW1 3296   3.430   1.288   0.406 -0.8525 -0.2059  0.9933
 1051SOL    HW2 3297   3.324   1.180   0.399  0.0792 -1.1828  1.6155
 1052SOL     OW 3298   0.478   2.737   2.289 -0.1268  0.3209  0.0229
 1052SOL    HW1 3299   0.426   2.684   2.228  0.2402  1.0415 -0.9394
 1052SOL    HW2 3300   0.527   2.672   2.340 -1.3133 -0.3324  0.3673
 1053SOL     OW 3301   3.455   3.666   2.443  0.2792  0.0176  0.1063
 1053SOL    HW1 3302   3.525   3.727   2.419  0.6495 -0.0133  1.0320
 1053SOL    HW2 3303   3.432   3.690   2.533 -0.9557  0.0654 -0.2069
 1054SOL     OW 3304   3.307   2.065   1.289  0.1054  0.5789  0.1456
 1054SOL    HW1 3305   3.263   2.135   1.241 -2.0959 -0.3687  0.6274
 1054SOL    HW2 3306   3.294   1.987   1.236 -3.6668 -0.7949  2.6915
 1055SOL     OW 3307   1.633   1.086   1.868  0.4859 -0.1792 -0.4149
 1055SOL    HW1 3308   1.706   1.025   1.856 -0.5847 -1.3133 -1.4605
 1055SOL    HW2 3309   1.671   1.160   1.914  2.2439 -0.8455 -0.7155
 1056SOL     OW 3310   1.763   0.987   1.510 -0.5279 -0.0514  0.0320
 1056SOL    HW1 3311   1.771   1.067   1.562 -0.5478 -0.5491  0.8157
 1056SOL    HW2 3312   1.670   0.980   1.492 -0.7471 -0.6932  1.2750
 1057SOL     OW 3313   1.531   3.159   2.888 -0.2032 -0.0244 -0.4399
 1057SOL    HW1 3314   1.612   3.147   2.937 -1.8708 -1.3437  2.2361
 1057SOL    HW2 3315   1.525   3.254   2.874  0.5865  0.3849  1.6382
 1058SOL     OW 3316   1.851   1.780   3.005  0.1905 -0.3841 -0.2806
 1058SOL    HW1 3317   1.885   1.763   3.093 -0.1245  0.6155  0.0579
 1058SOL    HW2 3318   1.835   1.875   3.005 -3.2884 -0.8545 -0.1566
 1059SOL     OW 3319   1.857   3.534   2.748 -0.2672  0.4946  0.8690
 1059SOL    HW1 3320   1.845   3.448   2.706  3.6604  0.6481 -0.9923
 1059SOL    HW2 3321   1.841   3.597   2.678  0.8765  1.0443  1.0771
 1060SOL     OW 3322   2.115   2.629   0.765 -0.2352  0.3826  0.4346
 1060SOL    HW1 3323   2.125   2.588   0.851 -0.5875 -0.0937  0.2540
 1060SOL    HW2 3324   2.064   2.565   0.714  0.3641  0.4560 -0.2727
 1061SOL     OW 3325   2.844   0.019   1.235  0.2494  0.5161  0.3101
 1061SOL    HW1 3326   2.936   0.024   1.259  0.3156  2.5340 -0.2505
 1061SOL    HW2 3327   2.843  -0.023   1.149  0.3408 -2.4081  1.6014
 1062SOL     OW 3328   2.368   0.166   0.895 -0.6115 -0.4706 -0.1149
 1062SOL    HW1 3329   2.289   0.220   0.882 -1.3913 -1.8455 -1.3701
 1062SOL    HW2 3330   2.388   0.176   0.988 -0.3046  2.5028 -0.3967
 1063SOL     OW 3331   3.732   0.103   0.659  0.0067 -0.0311  0.4288
 1063SOL    HW1 3332   3.787   0.133   0.586 -1.3785 -0.6590 -0.9478
 1063SOL    HW2 3333   3.677   0.035   0.620 -2.0760  0.9092  1.6111
 1064SOL     OW 3334   2.946   2.188   2.805 -0.0280 -0.3698 -0.1994
 1064SOL    HW1 3335   2.981   2.175   2.717 -0.2799  2.7782 -0.8842
 1064SOL    HW2 3336   2.968   2.279   2.827 -1.0202 -0.6791  2.5147
 1065SOL     OW 3337   1.690   1.958   0.506  0.5379 -0.2006  0.0533
 1065SOL    HW1 3338   1.670   1.998   0.422 -0.7808  1.9653  1.2955
 1065SOL    HW2 3339   1.730   2.028   0.557  2.0652 -1.6814  1.0078
 1066SOL     OW 3340   1.606   2.161   1.224 -0.0075 -0.3692 -0.2094
 1066SOL    HW1 3341   1.637   2.206   1.302  0.1520  0.3948 -0.7082
 1066SOL    HW2 3342   1.516   2.135   1.245 -0.4770  1.1180 -0.2980
 1067SOL     OW 3343   0.057   2.614   3.214  0.1843  0.2056  1.0504
 1067SOL    HW1 3344   0.047   2.696   3.165  0.5654 -0.5719 -0.3962
 1067SOL    HW2 3345  -0.012   2.557   3.179  0.6260 -0.4552  1.2398
 1068SOL     OW 3346   2.868   1.640   1.398 -0.2922  0.3872 -0.1461
 1068SOL    HW1 3347   2.833   1.580   1.332  0.1821  1.9902 -1.9436
 1068SOL    HW2 3348   2.845   1.600   1.482  0.1532 -2.3720 -1.2421
 1069SOL     OW 3349   1.781   1.462   1.348 -0.2666  0.2101  0.1087
 1069SOL    HW1 3350   1.836   1.390   1.318  0.3370  1.0171 -0.7610
 1069SOL    HW2 3351   1.834   1.507   1.414 -1.1764 -0.9221  1.7067
 1070SOL     OW 3352   0.587   1.660   0.560  0.2257  0.0868 -0.3456
 1070SOL    HW1 3353   0.505   1.709   0.569  0.6890  0.7187  0.6018
 1070SOL    HW2 3354   0.655   1.727   0.566  0.9470 -0.7808  2.5458
 1071SOL     OW 3355   2.058   0.718   3.034  0.2880  0.3268  0.0567
 1071SOL    HW1 3356   2.004   0.651   3.077 -0.6197  1.1435  0.2194
 1071SOL    HW2 3357   2.090   0.675   2.955 -1.1612  0.0272 -0.3913
 1072SOL     OW 3358   0.377   2.784   3.160 -0.5457 -0.2391 -1.0634
 1072SOL    HW1 3359   0.464   2.745   3.146 -0.5209  0.0717 -1.7940
 1072SOL    HW2 3360   0.381   2.817   3.250 -0.0565 -0.6049 -0.9415
 1073SOL     OW 3361   2.033   1.777   0.098  0.3072 -0.2234  0.0801
 1073SOL    HW1 3362   2.028   1.864   0.060 -1.4934 -1.0707 -1.8310
 1073SOL    HW2 3363   2.054   1.792   0.190 -0.7825  2.2696 -0.0043
 1074SOL     OW 3364   2.115   0.130   1.063 -0.1613 -0.2919  0.4908
 1074SOL    HW1 3365   2.104   0.182   1.143 -1.4062  0.1656  0.0399
 1074SOL    HW2 3366   2.210   0.117   1.057  0.0436  0.5588  1.4807
 1075SOL     OW 3367   1.252   1.329   2.263  0.1009  0.3243 -0.0297
 1075SOL    HW1 3368   1.334   1.285   2.285  1.5610  2.5838 -0.5985
 1075SOL    HW2 3369   1.186   1.284   2.315  1.7664 -1.2457  0.8484
 1076SOL     OW 3370   0.511   2.870   0.458 -0.0176 -0.2743 -0.5081
 1076SOL    HW1 3371   0.473   2.818   0.529 -0.7414 -0.2966 -0.9027
 1076SOL    HW2 3372   0.582   2.816   0.424  0.4189 -0.2079  0.2812
 1077SOL     OW 3373   0.491   3.479   2.824  0.3294  0.5240 -1.1978
 1077SOL    HW1 3374   0.566   3.539   2.824 -0.2765  1.3119 -0.1195
 1077SOL    HW2 3375   0.510   3.418   2.752  2.1084  0.5598 -0.8248
 1078SOL     OW 3376   0.981   3.575   0.318 -0.3778  0.5299  0.3970
 1078SOL    HW1 3377   0.907   3.519   0.341  0.1347  0.0944  1.0430
 1078SOL    HW2 3378   0.942   3.660   0.295 -1.0478  0.4247  1.1226
 1079SOL     OW 3379   0.515   2.492   1.260 -0.2646  0.1856 -0.2575
 1079SOL    HW1 3380   0.609   2.503   1.269  0.5181 -4.7305  0.8932
 1079SOL    HW2 3381   0.479   2.515   1.346  0.2916 -0.2984  0.1093
 1080SOL     OW 3382   1.976   2.009   0.903 -0.4259 -0.2353 -0.2549
 1080SOL    HW1 3383   2.030   2.086   0.921 -0.2567 -0.7020  1.4392
 1080SOL    HW2 3384   1.900   2.019   0.960 -0.0293 -1.6752  0.5775
 1081SOL     OW 3385   3.250   3.430   2.593 -0.2285  0.1743  0.4906
 1081SOL    HW1 3386   3.331   3.425   2.644 -0.4756  1.4779  1.0601
 1081SOL    HW2 3387   3.194   3.361   2.630  0.2482 -0.0744  0.7597
 1082SOL     OW 3388   2.501   0.468   1.201 -0.5458 -0.6085 -0.3251
 1082SOL    HW1 3389   2.465   0.462   1.290 -1.4617 -0.5775 -0.6794
 1082SOL    HW2 3390   2.565   0.397   1.196  0.4140  0.1479  0.7549
 1083SOL     OW 3391   1.668   2.036   3.379 -0.1543  0.3775  0.2312
 1083SOL    HW1 3392   1.601   2.074   3.436  0.6063 -0.7791  1.9963
 1083SOL    HW2 3393   1.675   2.098   3.306 -4.9469 -0.7086 -1.5006
 1084SOL     OW 3394   3.384   3.148   0.198  0.4225  0.0793 -0.6489
 1084SOL    HW1 3395   3.300   3.138   0.152  0.0404 -0.6003  0.1529
 1084SOL    HW2 3396   3.371   3.100   0.280  1.3237  0.6726 -0.1503
 1085SOL     OW 3397   1.352   0.049   3.083  0.1481  0.4752 -0.1841
 1085SOL    HW1 3398   1.436   0.020   3.118 -0.0348  2.8118  2.5999
 1085SOL    HW2 3399   1.296  -0.028   3.086  0.9811 -0.1415  2.2609
 1086SOL     OW 3400   3.436   2.462   3.369 -0.0593  0.5542 -0.2619
 1086SOL    HW1 3401   3.466   2.373   3.389 -0.6256  0.6517  1.1681
 1086SOL    HW2 3402   3.502   2.519   3.408 -1.2550  0.7553  1.5900
 1087SOL     OW 3403   0.879   1.855   1.833 -0.4225  0.0476  0.6425
 1087SOL    HW1 3404   0.901   1.836   1.742 -1.5631  0.2442  0.3122
 1087SOL    HW2 3405   0.957   1.898   1.869 -0.6559  1.8392 -0.8271
 1088SOL     OW 3406   1.540   2.143   0.720 -0.3592 -0.3697  0.2291
 1088SOL    HW1 3407   1.634   2.129   0.730 -0.1956 -0.7813 -1.6166
 1088SOL    HW2 3408   1.507   2.062   0.683 -1.3630 -0.0113  0.3082
 1089SOL     OW 3409   1.743   1.548   2.871  0.1524 -0.0897 -0.1943
 1089SOL    HW1 3410   1.778   1.628   2.911 -0.1327  0.9071 -1.8364
 1089SOL    HW2 3411   1.820   1.497   2.848  0.3354 -0.3499  0.9039
 1090SOL     OW 3412   0.747   1.986   2.517 -0.6385  0.6945 -0.2421
 1090SOL    HW1 3413   0.667   2.022   2.478  0.2669  1.1407 -1.7766
 1090SOL    HW2 3414   0.803   2.063   2.530 -0.3126  0.3412  0.4878
 1091SOL     OW 3415   3.227   1.908   0.889  0.4961 -0.0956 -0.1344
 1091SOL    HW1 3416   3.248   1.897   0.982  3.2963  1.5848 -0.4176
 1091SOL    HW2 3417   3.133   1.893   0.883  0.3378 -0.9214  2.8381
 1092SOL     OW 3418   0.570   0.931   3.025 -0.0516  0.0325 -0.0282
 1092SOL    HW1 3419   0.625   1.009   3.025 -1.1034  0.8079 -1.3209
 1092SOL    HW2 3420   0.481   0.964   3.016 -0.5204 -1.3161 -0.5530
 1093SOL     OW 3421   0.370   0.865   1.359 -0.5308  0.6234  0.6365
 1093SOL    HW1 3422   0.406   0.941   1.313 -0.9205  1.9181  2.3534
 1093SOL    HW2 3423   0.404   0.789   1.312 -0.0636  1.8486 -1.0956
 1094SOL     OW 3424   0.290   1.841   1.365 -0.1370 -0.0416  0.6155
 1094SOL    HW1 3425   0.228   1.816   1.297 -0.5857  0.8531  0.6790
 1094SOL    HW2 3426   0.254   1.805   1.446 -0.2810  0.0008  0.5699
 1095SOL     OW 3427   0.211   2.620   1.657  0.2281  0.3132 -0.3351
 1095SOL    HW1 3428   0.301   2.594   1.641 -0.8712 -3.2782 -1.6145
 1095SOL    HW2 3429   0.179   2.650   1.572 -0.1004  0.4579 -0.1630
 1096SOL     OW 3430   0.090   1.664   2.133  0.2181 -0.0356  0.0652
 1096SOL    HW1 3431   0.075   1.757   2.147  3.0572  0.4042  0.8341
 1096SOL    HW2 3432   0.074   1.624   2.218  0.8936  0.0695  0.2486
 1097SOL     OW 3433   1.622   0.296   1.706  0.6585  0.0963  0.4967
 1097SOL    HW1 3434   1.581   0.241   1.773  1.4182 -1.1834 -0.0519
 1097SOL    HW2 3435   1.713   0.304   1.735  1.0323 -0.6126 -0.4720
 1098SOL     OW 3436   0.487   2.359   2.266  0.3905  0.4435  0.6214
 1098SOL    HW1 3437   0.524   2.415   2.334  1.0706  1.9366 -0.9035
 1098SOL    HW2 3438   0.523   2.394   2.184 -3.5001  1.3384 -0.9192
 1099SOL     OW 3439   0.828   0.161   0.808  0.1639 -0.2036 -0.0888
 1099SOL    HW1 3440   0.904   0.111   0.840 -0.7311 -1.8044 -0.3493
 1099SOL    HW2 3441   0.835   0.246   0.851  3.5762  0.7326 -2.0843
 1100SOL     OW 3442   0.435   2.825   0.164 -0.0807 -0.1086  0.3175
 1100SOL    HW1 3443   0.520   2.791   0.192 -0.2493 -1.9615 -1.2184
 1100SOL    HW2 3444   0.450   2.919   0.151  1.1822 -0.0563  1.9523
 1101SOL     OW 3445   2.062   0.319   1.288 -0.0929  0.1785 -0.3525
 1101SOL    HW1 3446   1.977   0.360   1.275 -0.1289  0.4385  0.6423
 1101SOL    HW2 3447   2.124   0.374   1.239 -0.5355 -0.2344 -1.4067
 1102SOL     OW 3448   1.559   1.295   2.255  0.8025  0.0966 -0.2550
 1102SOL    HW1 3449   1.634   1.355   2.247 -0.0570  1.2283 -0.0081
 1102SOL    HW2 3450   1.594   1.211   2.226  1.9296  0.7900 -1.0259
 1103SOL     OW 3451   1.498   3.412   3.255  0.2557  0.0304  0.5242
 1103SOL    HW1 3452   1.591   3.397   3.238  0.1009 -2.9362  1.8436
 1103SOL    HW2 3453   1.452   3.345   3.204 -0.9126 -0.6959  2.4073
 1104SOL     OW 3454   0.075   2.047   3.591  0.2887  0.6048 -0.8359
 1104SOL    HW1 3455   0.168   2.047   3.613  0.4313  0.4260 -1.4139
 1104SOL    HW2 3456   0.052   2.140   3.585  0.5637  0.6494 -1.2258
 1105SOL     OW 3457   2.770   1.547   1.636 -0.2763 -0.0446 -0.1371
 1105SOL    HW1 3458   2.780   1.620   1.697  0.7861  0.0900 -0.4366
 1105SOL    HW2 3459   2.842   1.488   1.658 -0.1904 -0.2398 -0.9106
 1106SOL     OW 3460   0.675   0.929   3.441 -0.3969  0.3250  0.3237
 1106SOL    HW1 3461   0.616   0.858   3.416  0.8969 -0.7172  0.0979
 1106SOL    HW2 3462   0.742   0.887   3.494  0.4290  1.3725  0.1542
 1107SOL     OW 3463   1.254   2.792   0.426 -0.4947  0.1501  0.1346
 1107SOL    HW1 3464   1.334   2.833   0.458  1.6432 -2.7075 -1.0626
 1107SOL    HW2 3465   1.204   2.771   0.506  1.1889 -0.2669  1.1138
 1108SOL     OW 3466   2.339   3.313   1.135 -0.8621 -0.1834  0.6654
 1108SOL    HW1 3467   2.315   3.264   1.214 -0.8277 -0.6368  0.4020
 1108SOL    HW2 3468   2.264   3.301   1.076 -0.4436 -0.7356  0.2339
 1109SOL     OW 3469   3.126   0.615   0.562  0.5488 -0.7536  0.8633
 1109SOL    HW1 3470   3.101   0.671   0.488 -0.2397 -2.4195 -0.1818
 1109SOL    HW2 3471   3.048   0.612   0.618  0.5840 -0.8282  0.9092
 1110SOL     OW 3472   2.678   3.557   1.344  0.4361  0.1158  0.8245
 1110SOL    HW1 3473   2.619   3.511   1.285 -0.6654  1.4770  0.8089
 1110SOL    HW2 3474   2.715   3.628   1.291  1.4844 -0.2280  1.0634
 1111SOL     OW 3475   3.295   0.847   2.040 -0.2385 -0.5451 -1.0711
 1111SOL    HW1 3476   3.381   0.809   2.057 -0.2705  0.0176  0.5367
 1111SOL    HW2 3477   3.313   0.927   1.991  0.4252  0.9623  1.4888
 1112SOL     OW 3478   0.788   1.839   0.529  0.0080 -0.1637  0.7247
 1112SOL    HW1 3479   0.727   1.913   0.536  1.1295  0.7284  1.5002
 1112SOL    HW2 3480   0.822   1.828   0.618  1.6123 -0.0555  0.1517
 1113SOL     OW 3481   3.345   0.372   0.284  0.1297  0.1170 -0.2260
 1113SOL    HW1 3482   3.433   0.404   0.303  2.6873 -2.9000 -4.8911
 1113SOL    HW2 3483   3.329   0.304   0.349  2.1643 -0.5469 -0.3420
 1114SOL     OW 3484   0.475   1.089   2.386 -0.4707 -0.1263 -0.1976
 1114SOL    HW1 3485   0.395   1.143   2.382 -0.3743 -0.0229 -1.1273
 1114SOL    HW2 3486   0.497   1.074   2.294  0.8545  0.2419  0.0500
 1115SOL     OW 3487   3.562   1.125   1.247 -0.2918 -0.4181 -0.1151
 1115SOL    HW1 3488   3.607   1.086   1.172 -0.0332 -0.1295 -0.1111
 1115SOL    HW2 3489   3.632   1.154   1.305 -0.1332  4.2268 -2.1325
 1116SOL     OW 3490   2.886   2.248   3.510 -0.3145  0.2976  0.0578
 1116SOL    HW1 3491   2.895   2.214   3.421 -1.3491 -0.9166  0.3846
 1116SOL    HW2 3492   2.805   2.209   3.542 -0.1871  1.0674  1.3873
 1117SOL     OW 3493   1.073   2.848   0.222 -0.2167  0.1261 -0.2343
 1117SOL    HW1 3494   1.146   2.840   0.285  0.7278  0.8228 -1.2017
 1117SOL    HW2 3495   1.050   2.941   0.225 -0.1703  0.1590 -0.9098
 1118SOL     OW 3496   0.027   3.477   2.234 -0.2121 -0.2770 -0.1361
 1118SOL    HW1 3497   0.116   3.484   2.199 -0.3155 -0.9373 -0.5523
 1118SOL    HW2 3498  -0.025   3.446   2.160 -1.1806  1.9281 -0.4713
 1119SOL     OW 3499   2.442   1.189   2.402  0.3994 -1.0804 -0.0827
 1119SOL    HW1 3500   2.447   1.094   2.393 -0.8021 -1.1916  0.1808
 1119SOL    HW2 3501   2.365   1.203   2.457 -1.1281  0.1437 -2.4047
 1120SOL     OW 3502   1.547   2.383   2.814 -1.0131 -0.1168  0.2175
 1120SOL    HW1 3503   1.473   2.418   2.764 -1.2156  0.0113  0.6067
 1120SOL    HW2 3504   1.617   2.446   2.801 -0.7253 -0.6044 -0.7609
 1121SOL     OW 3505   2.020   0.751   3.700 -0.1013 -0.2003  0.3624
 1121SOL    HW1 3506   2.048   0.771   3.611 -1.4426  2.7185  0.5022
 1121SOL    HW2 3507   2.020   0.655   3.703  0.5926 -0.3998 -2.5368
 1122SOL     OW 3508   1.983   1.671   2.568 -1.0221  0.6007  0.0610
 1122SOL    HW1 3509   1.939   1.714   2.495  0.7665  0.3460 -1.2382
 1122SOL    HW2 3510   2.059   1.727   2.586 -0.7455 -0.0167  0.8713
 1123SOL     OW 3511   1.402   1.383   0.790  0.0927 -0.1955 -0.3467
 1123SOL    HW1 3512   1.353   1.308   0.755 -0.4023 -0.7618  1.4512
 1123SOL    HW2 3513   1.336   1.435   0.836  0.7273  0.5181 -0.2152
 1124SOL     OW 3514   2.305   3.584   1.134  0.3931 -1.0637  0.2180
 1124SOL    HW1 3515   2.268   3.612   1.050  0.2075 -1.1379  0.2723
 1124SOL    HW2 3516   2.330   3.493   1.120  0.7912 -0.9347  0.1061
 1125SOL     OW 3517   1.659   2.105   1.616  0.5704  0.0347 -0.5107
 1125SOL    HW1 3518   1.733   2.089   1.556  1.4546 -1.5366  0.9028
 1125SOL    HW2 3519   1.591   2.045   1.586  0.9389 -0.6027 -0.1019
 1126SOL     OW 3520   0.097   0.676   3.539 -0.1329  0.4120  0.2905
 1126SOL    HW1 3521   0.080   0.613   3.469 -0.2588 -0.8504  1.4149
 1126SOL    HW2 3522   0.027   0.660   3.603 -0.4860  2.0777  0.3701
 1127SOL     OW 3523   1.416   2.326   3.328 -0.0939 -0.0133  0.0774
 1127SOL    HW1 3524   1.366   2.268   3.386  1.2358  0.7649  2.1050
 1127SOL    HW2 3525   1.380   2.309   3.241 -2.8894 -0.4941  1.2145
 1128SOL     OW 3526   2.678   0.708   0.779 -0.2370 -0.1465 -0.9347
 1128SOL    HW1 3527   2.608   0.647   0.803 -1.3137  1.4332  0.1502
 1128SOL    HW2 3528   2.641   0.759   0.707  0.2496 -0.0618 -1.1263
 1129SOL     OW 3529   3.485   0.115   3.144 -0.5633  0.4397 -0.3006
 1129SOL    HW1 3530   3.487   0.134   3.237  0.7793  0.2832 -0.2761
 1129SOL    HW2 3531   3.509   0.197   3.102 -0.7930  0.4095 -0.4938
 1130SOL     OW 3532   0.828   1.357   1.075 -0.1817 -0.0277  0.1747
 1130SOL    HW1 3533   0.869   1.309   1.003 -1.1752 -2.7313  1.2758
 1130SOL    HW2 3534   0.743   1.315   1.086 -0.7443  1.4398  1.8407
 1131SOL     OW 3535   0.220   1.157   3.502 -0.4127 -0.1563  0.3896
 1131SOL    HW1 3536   0.200   1.205   3.583  1.1388  1.6440 -0.2291
 1131SOL    HW2 3537   0.154   1.087   3.499 -0.6102 -0.2071  3.1193
 1132SOL     OW 3538   0.527   1.717   1.815 -0.0173 -0.4540  0.5659
 1132SOL    HW1 3539   0.583   1.646   1.783  1.2066 -0.0091  1.6782
 1132SOL    HW2 3540   0.523   1.778   1.742  3.1470  0.7892  1.2901
 1133SOL     OW 3541   0.119   3.448   0.421 -0.1578  0.5649  0.1865
 1133SOL    HW1 3542   0.168   3.400   0.487 -0.2699 -0.5055 -0.4922
 1133SOL    HW2 3543   0.029   3.418   0.432  0.1038 -1.0687 -1.6564
 1134SOL     OW 3544   0.288   0.229   1.656  0.0582  0.2654 -0.2071
 1134SOL    HW1 3545   0.318   0.278   1.733 -2.5091  1.5062  0.1302
 1134SOL    HW2 3546   0.254   0.147   1.691  0.6249 -0.0004 -0.2704
 1135SOL     OW 3547   2.432   1.655   2.940 -0.7704  0.3703 -0.3303
 1135SOL    HW1 3548   2.447   1.722   2.872 -0.9317 -0.0977 -0.8354
 1135SOL    HW2 3549   2.338   1.639   2.937 -1.3934  2.7867  2.3426
 1136SOL     OW 3550   0.459   0.591   2.741 -0.5261 -0.4356 -0.3785
 1136SOL    HW1 3551   0.459   0.666   2.683  1.6715  2.2782  2.7612
 1136SOL    HW2 3552   0.467   0.515   2.683  2.5010  2.0415 -3.5955
 1137SOL     OW 3553   1.608   2.576   2.063  0.2183  0.2820  0.6066
 1137SOL    HW1 3554   1.593   2.541   2.151  1.7337  2.5831  1.8861
 1137SOL    HW2 3555   1.550   2.652   2.058 -1.4735 -1.0580 -1.2893
 1138SOL     OW 3556   2.903   2.123   0.361  0.1262 -0.1447 -0.1565
 1138SOL    HW1 3557   2.889   2.210   0.397 -0.5187 -0.0008 -0.7451
 1138SOL    HW2 3558   2.913   2.137   0.267 -1.2143 -0.8242 -0.4187
 1139SOL     OW 3559   0.376   0.998   3.339 -0.0163 -0.4934  0.0996
 1139SOL    HW1 3560   0.320   1.045   3.401 -1.6728 -1.8698 -0.2855
 1139SOL    HW2 3561   0.439   1.064   3.309 -1.1140  0.9930  0.9284
 1140SOL     OW 3562   2.158   0.240   2.088 -0.2408  0.1113  0.2167
 1140SOL    HW1 3563   2.147   0.281   2.002  2.4212 -0.4388 -0.4855
 1140SOL    HW2 3564   2.092   0.170   2.090 -0.9396  0.7001 -1.0038
 1141SOL     OW 3565   0.383   2.460   0.891  0.3068  0.2722 -0.2019
 1141SOL    HW1 3566   0.297   2.474   0.851  0.1588 -3.3965 -1.5147
 1141SOL    HW2 3567   0.365   2.405   0.967  1.3767  0.9357  0.5636
 1142SOL     OW 3568   2.060   2.254   3.298  0.1546 -0.5829 -0.4705
 1142SOL    HW1 3569   2.125   2.213   3.241  0.2585  1.3139 -1.8167
 1142SOL    HW2 3570   1.977   2.243   3.250 -0.5119 -2.4973  0.9712
 1143SOL     OW 3571   0.046   2.321   3.586  0.1224  0.1158 -0.4360
 1143SOL    HW1 3572  -0.034   2.373   3.598  0.2385 -0.0123  1.1986
 1143SOL    HW2 3573   0.116   2.386   3.583  0.0697  0.1650 -0.5983
 1144SOL     OW 3574   1.651   2.854   2.932  0.2193 -0.2246 -0.4850
 1144SOL    HW1 3575   1.667   2.931   2.876  1.2241  1.6472  2.1944
 1144SOL    HW2 3576   1.579   2.881   2.989 -0.2662 -1.7885 -0.3210
 1145SOL     OW 3577   0.390   0.668   3.583 -0.0973  0.3027  0.4406
 1145SOL    HW1 3578   0.297   0.659   3.562 -0.4460  2.2094  0.9933
 1145SOL    HW2 3579   0.394   0.740   3.645  1.9503  1.7174 -1.1881
 1146SOL     OW 3580   2.911   0.783   1.159  0.2507  0.0262 -0.3851
 1146SOL    HW1 3581   2.908   0.820   1.071  0.9544  2.8194  0.6345
 1146SOL    HW2 3582   2.978   0.834   1.204  0.7609 -2.1101  1.4736
 1147SOL     OW 3583   1.986   1.582   1.497 -0.2640 -0.6378  0.1229
 1147SOL    HW1 3584   2.034   1.625   1.567  1.3310 -0.2575 -1.1568
 1147SOL    HW2 3585   1.960   1.653   1.438  0.0702 -1.1373 -0.6393
 1148SOL     OW 3586   0.047   1.295   2.703 -0.2428 -0.2642  0.5094
 1148SOL    HW1 3587   0.038   1.200   2.707  0.5200 -0.4323 -0.8878
 1148SOL    HW2 3588   0.114   1.315   2.769  0.5833 -0.8845 -0.1080
 1149SOL     OW 3589   1.818   3.562   3.018 -0.5979 -0.2780 -0.3192
 1149SOL    HW1 3590   1.879   3.635   3.030 -0.0407 -0.5725 -1.2319
 1149SOL    HW2 3591   1.822   3.543   2.924  2.1092 -3.8377  0.2828
 1150SOL     OW 3592   1.095   2.864   2.457  0.4635  0.7437 -0.4503
 1150SOL    HW1 3593   1.007   2.873   2.420  0.4771 -1.7019 -1.3293
 1150SOL    HW2 3594   1.116   2.950   2.491 -2.4805  1.2994  0.2646
 1151SOL     OW 3595   2.208   2.269   3.553  0.4435  0.6594  0.5137
 1151SOL    HW1 3596   2.284   2.313   3.512  1.2416 -2.4175 -1.6684
 1151SOL    HW2 3597   2.242   2.235   3.635  1.4468 -0.4649 -0.3229
 1152SOL     OW 3598   3.317   0.597   3.563 -0.5242  0.3521  0.5970
 1152SOL    HW1 3599   3.305   0.612   3.470  3.5154 -3.2407 -0.8368
 1152SOL    HW2 3600   3.249   0.535   3.587  1.1849 -2.5578 -1.4554
 1153SOL     OW 3601   1.384   0.730   2.286  0.9209 -0.1247  0.4838
 1153SOL    HW1 3602   1.326   0.793   2.242 -1.2643 -1.5137  1.1746
 1153SOL    HW2 3603   1.424   0.779   2.357  1.6999  1.2276 -0.8259
 1154SOL     OW 3604   0.292   0.473   0.732 -0.4140  0.3498 -0.4598
 1154SOL    HW1 3605   0.347   0.406   0.693  0.6720  1.1160 -0.2944
 1154SOL    HW2 3606   0.206   0.432   0.741  0.8887 -2.1615  2.5290
 1155SOL     OW 3607   0.333   1.035   3.036  0.8541  0.0932  0.3705
 1155SOL    HW1 3608   0.313   1.061   3.126  0.5146  0.1935  0.2663
 1155SOL    HW2 3609   0.290   1.100   2.981 -0.5258 -1.0027  0.0927
 1156SOL     OW 3610   1.528   1.727   0.311 -0.2725 -0.0003 -0.1204
 1156SOL    HW1 3611   1.612   1.761   0.281 -0.2518  0.0511 -0.0056
 1156SOL    HW2 3612   1.507   1.657   0.249 -0.7595  0.8127 -0.8918
 1157SOL     OW 3613   2.736   1.349   0.612 -0.2535  0.3787  0.3057
 1157SOL    HW1 3614   2.787   1.355   0.531 -0.0972  0.8186  0.4347
 1157SOL    HW2 3615   2.645   1.349   0.582 -0.1940 -1.1920  0.0261
 1158SOL     OW 3616   3.537   0.247   3.620 -0.4846  0.2449 -0.2904
 1158SOL    HW1 3617   3.519   0.154   3.635  1.4956  0.0001  0.8063
 1158SOL    HW2 3618   3.508   0.262   3.530 -0.9943 -1.3869 -0.4361
 1159SOL     OW 3619   3.279   1.862   0.380  0.0788 -0.3401 -0.6243
 1159SOL    HW1 3620   3.227   1.782   0.392  2.5050 -2.1593 -1.4135
 1159SOL    HW2 3621   3.279   1.904   0.466 -2.5253 -0.2927 -0.5713
 1160SOL     OW 3622   2.555   2.733   0.800  0.2871 -0.2102 -0.3344
 1160SOL    HW1 3623   2.585   2.642   0.806  1.8189  0.1448 -1.8280
 1160SOL    HW2 3624   2.620   2.776   0.744  0.7198  2.2938  1.8866
 1161SOL     OW 3625   1.820   2.129   0.688 -0.8463 -0.6724  0.5472
 1161SOL    HW1 3626   1.864   2.204   0.648 -1.0212 -1.0854 -0.4371
 1161SOL    HW2 3627   1.884   2.093   0.749 -0.7359  0.2255  0.9829
 1162SOL     OW 3628   1.248   2.889   1.967  0.0821 -0.4478  0.3851
 1162SOL    HW1 3629   1.253   2.899   1.872 -0.2751  0.8790  0.4924
 1162SOL    HW2 3630   1.156   2.870   1.985  0.2397 -1.1913  0.4313
 1163SOL     OW 3631   3.255   0.602   1.063 -0.7863 -0.2731  0.8188
 1163SOL    HW1 3632   3.342   0.577   1.031 -0.6897 -1.3904  1.9159
 1163SOL    HW2 3633   3.237   0.686   1.019 -0.2369 -1.2263 -1.3446
 1164SOL     OW 3634   0.681   0.502   2.177 -0.7265 -0.1524 -0.2506
 1164SOL    HW1 3635   0.649   0.592   2.175 -1.5243 -0.2280  2.7475
 1164SOL    HW2 3636   0.762   0.506   2.227 -0.9032 -1.0883  0.1448
 1165SOL     OW 3637   0.895   2.419   2.345  0.3882 -0.0840 -1.0571
 1165SOL    HW1 3638   0.893   2.367   2.426 -1.2493 -0.1556 -1.1022
 1165SOL    HW2 3639   0.964   2.484   2.360  1.4576 -1.3264 -0.4046
 1166SOL     OW 3640   1.042   1.418   1.483  0.5262 -0.5333 -0.2305
 1166SOL    HW1 3641   0.962   1.426   1.534  1.3400 -1.0647  1.1944
 1166SOL    HW2 3642   1.025   1.345   1.423  0.3754 -1.5054  0.9565
 1167SOL     OW 3643   1.400   2.230   1.005 -0.3225  0.4299  0.5836
 1167SOL    HW1 3644   1.407   2.254   0.912  0.7894  0.4724  0.6632
 1167SOL    HW2 3645   1.393   2.313   1.051  1.9283  0.6037  0.7323
 1168SOL     OW 3646   0.747   2.181   2.141  0.6545 -0.3526 -0.5049
 1168SOL    HW1 3647   0.738   2.087   2.125  1.9889 -0.3642 -1.3610
 1168SOL    HW2 3648   0.767   2.187   2.234 -1.8448 -0.7069  0.1165
 1169SOL     OW 3649   1.853   1.179   2.529  0.7490 -0.2752  0.0977
 1169SOL    HW1 3650   1.862   1.201   2.436  0.8640  1.2809  0.4523
 1169SOL    HW2 3651   1.839   1.085   2.529  0.6134 -0.2976 -1.5102
 1170SOL     OW 3652   3.533   0.921   0.934  0.2209  0.1767 -0.2128
 1170SOL    HW1 3653   3.548   0.887   1.022  1.3551  1.4487  0.1269
 1170SOL    HW2 3654   3.578   1.006   0.933  0.0683  0.2784 -1.9559
 1171SOL     OW 3655   3.706   3.341   2.685  0.3077 -0.6541  0.1082
 1171SOL    HW1 3656   3.707   3.404   2.614 -0.8144 -0.4410  0.2594
 1171SOL    HW2 3657   3.666   3.263   2.647  0.1708 -0.7112  0.3660
 1172SOL     OW 3658   3.622   0.130   2.061  0.5509  0.4838 -0.5664
 1172SOL    HW1 3659   3.599   0.223   2.066 -0.2323  0.4123 -2.1102
 1172SOL    HW2 3660   3.710   0.128   2.025  0.4988  0.6342 -0.7025
 1173SOL     OW 3661   0.090   3.280   0.829 -0.4487  0.5301  0.3376
 1173SOL    HW1 3662   0.159   3.228   0.870 -0.2337  0.5698  0.0282
 1173SOL    HW2 3663   0.075   3.352   0.891  1.6127  2.0015 -0.7245
 1174SOL     OW 3664   0.709   0.768   1.458  0.0648 -0.4296  0.0154
 1174SOL    HW1 3665   0.758   0.849   1.440  1.0987 -0.7732  1.1541
 1174SOL    HW2 3666   0.724   0.713   1.382  3.1658 -1.3083  1.1166
 1175SOL     OW 3667   1.888   2.848   1.648 -0.1920 -0.7147 -0.2555
 1175SOL    HW1 3668   1.861   2.938   1.664  1.3057 -0.5392  1.5846
 1175SOL    HW2 3669   1.817   2.811   1.595 -1.4702  1.1535  0.0575
 1176SOL     OW 3670   0.820   0.356   1.051  0.7568 -0.3161  0.0487
 1176SOL    HW1 3671   0.825   0.326   1.142  0.6503 -0.2458  0.0773
 1176SOL    HW2 3672   0.892   0.419   1.043  1.2343 -0.8709 -0.1210
 1177SOL     OW 3673   2.685   2.504   0.834  0.1635 -0.5759 -0.4958
 1177SOL    HW1 3674   2.706   2.420   0.793 -1.4538 -0.7381 -1.0627
 1177SOL    HW2 3675   2.769   2.537   0.865  1.0450 -1.7088 -1.5712
 1178SOL     OW 3676   3.257   1.304   3.422 -0.0781  0.0845  0.0253
 1178SOL    HW1 3677   3.165   1.319   3.398  0.2412  1.4809 -0.4497
 1178SOL    HW2 3678   3.305   1.370   3.371  0.9556  1.0205  2.1192
 1179SOL     OW 3679   2.120   3.036   0.337  0.4514  0.2892  0.7335
 1179SOL    HW1 3680   2.141   3.024   0.244  0.2889  0.0849  0.7217
 1179SOL    HW2 3681   2.100   3.129   0.345 -2.8898 -0.2214 -0.1538
 1180SOL     OW 3682   2.115   0.292   3.262  0.5868  0.6649 -0.1524
 1180SOL    HW1 3683   2.206   0.312   3.280  0.8110  0.4284 -0.9710
 1180SOL    HW2 3684   2.113   0.197   3.249 -0.1622  0.3431  2.0016
 1181SOL     OW 3685   0.617   2.937   1.721 -0.4041  0.3949 -0.1603
 1181SOL    HW1 3686   0.565   2.997   1.775  0.5124  0.8689  0.2186
 1181SOL    HW2 3687   0.554   2.901   1.659 -0.9077  2.0811 -0.6995
 1182SOL     OW 3688   1.489   3.160   1.949  0.2139  0.4019 -0.4037
 1182SOL    HW1 3689   1.529   3.126   1.869 -1.5608 -0.9842 -0.7822
 1182SOL    HW2 3690   1.410   3.106   1.961  1.1372 -0.4567  3.0878
 1183SOL     OW 3691   2.441   2.408   3.474 -0.1488 -0.0990 -0.4469
 1183SOL    HW1 3692   2.460   2.352   3.398  0.6049 -0.9497  0.3492
 1183SOL    HW2 3693   2.496   2.374   3.544  0.3493  1.6742  0.0786
 1184SOL     OW 3694   2.142   0.793   1.610 -0.7197 -0.0900 -0.6199
 1184SOL    HW1 3695   2.069   0.824   1.557 -2.0153 -0.1380  1.0618
 1184SOL    HW2 3696   2.198   0.869   1.621 -0.7766  0.0872 -1.4560
 1185SOL     OW 3697   0.134   1.017   1.633  0.2297  0.6317 -0.0913
 1185SOL    HW1 3698   0.117   0.982   1.546 -0.1552 -2.8287  1.2300
 1185SOL    HW2 3699   0.230   1.013   1.642  0.2897  1.2094 -0.3829
 1186SOL     OW 3700   3.243   3.250   0.935 -0.5627 -0.5233 -0.7574
 1186SOL    HW1 3701   3.160   3.296   0.948  0.2310  0.5779  0.6428
 1186SOL    HW2 3702   3.309   3.311   0.964  0.5763 -2.4049  0.8214
 1187SOL     OW 3703   0.450   0.445   0.966 -0.0307 -0.0613 -0.2324
 1187SOL    HW1 3704   0.474   0.533   0.994 -0.1516 -0.7273  2.1647
 1187SOL    HW2 3705   0.387   0.459   0.895 -1.6620  1.8633  1.4440
 1188SOL     OW 3706   0.894   2.892   2.257  0.6125 -0.4724  0.0985
 1188SOL    HW1 3707   0.845   2.890   2.175  0.1136  1.9781  0.2757
 1188SOL    HW2 3708   0.953   2.966   2.249  0.7478 -0.3341  1.8526
 1189SOL     OW 3709   3.222   2.589   1.268  0.0645 -0.0214  0.7195
 1189SOL    HW1 3710   3.312   2.609   1.294 -0.0502  0.6638  0.6107
 1189SOL    HW2 3711   3.230   2.516   1.207  0.6475  0.7248 -0.1300
 1190SOL     OW 3712   2.327   0.499   0.315 -0.2601 -0.3437 -0.2970
 1190SOL    HW1 3713   2.301   0.407   0.303  0.5838 -1.0785  2.6030
 1190SOL    HW2 3714   2.399   0.495   0.378  1.4842  2.1841 -1.9555
 1191SOL     OW 3715   0.800   2.048   3.385  0.8489  0.3456 -0.5031
 1191SOL    HW1 3716   0.850   2.014   3.459  0.5943 -0.3814 -0.6559
 1191SOL    HW2 3717   0.867   2.079   3.323  1.0994 -0.2390 -0.5294
 1192SOL     OW 3718   1.768   1.101   3.461 -0.3374 -0.0262 -0.6150
 1192SOL    HW1 3719   1.773   1.121   3.554 -3.3603  1.3835 -0.6357
 1192SOL    HW2 3720   1.835   1.157   3.421  0.3500  0.0584  0.5921
 1193SOL     OW 3721   0.613   0.432   1.479  0.8856 -0.0371 -0.1889
 1193SOL    HW1 3722   0.542   0.455   1.419  1.5078  2.1375 -0.1956
 1193SOL    HW2 3723   0.583   0.461   1.565  0.7838 -1.3756  0.2416
 1194SOL     OW 3724   3.670   1.150   3.132 -0.1386 -0.5087  0.2139
 1194SOL    HW1 3725   3.730   1.222   3.151 -0.2297  0.1278 -1.6622
 1194SOL    HW2 3726   3.629   1.130   3.216  0.2931  1.2728  0.8981
 1195SOL     OW 3727   0.889   0.433   3.222  0.7944  0.2614  0.6496
 1195SOL    HW1 3728   0.981   0.457   3.223  1.0731 -0.6943  2.5245
 1195SOL    HW2 3729   0.867   0.424   3.129  1.6946  3.5915 -0.0163
 1196SOL     OW 3730   1.165   1.948   2.941 -0.1798  0.1401 -0.2635
 1196SOL    HW1 3731   1.239   1.994   2.981  0.5647 -1.3711  0.1741
 1196SOL    HW2 3732   1.206   1.889   2.877 -0.8326 -1.7467  0.9825
 1197SOL     OW 3733   1.901   0.945   2.060 -0.1307  0.0756  0.2560
 1197SOL    HW1 3734   1.944   0.907   1.983  2.8242  3.5594 -0.1251
 1197SOL    HW2 3735   1.830   0.998   2.025 -2.2653 -2.4009  0.5425
 1198SOL     OW 3736   2.015   0.126   1.480 -0.5231 -0.1436  0.1816
 1198SOL    HW1 3737   2.046   0.208   1.441 -0.4240 -0.2778 -0.0218
 1198SOL    HW2 3738   2.096   0.079   1.502 -0.5538  0.3217  1.3923
 1199SOL     OW 3739   0.511   2.501   0.096  0.0652  0.0371 -0.4932
 1199SOL    HW1 3740   0.470   2.495   0.009  1.1398  0.1965 -1.0324
 1199SOL    HW2 3741   0.471   2.430   0.146 -1.1442  0.4330 -0.8710
 1200SOL     OW 3742   0.217   2.135   1.281  0.1725 -0.3894  0.4479
 1200SOL    HW1 3743   0.199   2.059   1.226 -0.4762  1.4599 -2.0454
 1200SOL    HW2 3744   0.158   2.125   1.356 -1.2455 -1.4380 -0.7501
 1201SOL     OW 3745   3.030   2.817   2.490 -0.5473 -0.0319  0.4616
 1201SOL    HW1 3746   3.086   2.892   2.511  2.3347 -2.2431  1.4815
 1201SOL    HW2 3747   3.072   2.775   2.415 -1.3424 -1.2874  0.6783
 1202SOL     OW 3748   2.464   1.121   3.359  0.2133 -0.3147  0.7787
 1202SOL    HW1 3749   2.445   1.039   3.404  0.8988 -0.7451  0.3086
 1202SOL    HW2 3750   2.379   1.151   3.326 -0.0174 -0.9164  0.8140
 1203SOL     OW 3751   1.825   0.907   2.479  0.3152  0.0358 -0.0562
 1203SOL    HW1 3752   1.808   0.851   2.403  0.0109 -1.0257  0.7674
 1203SOL    HW2 3753   1.765   0.875   2.547  1.2797  0.2860  0.9492
 1204SOL     OW 3754   2.891   2.243   3.071 -0.1248  0.2395  0.5354
 1204SOL    HW1 3755   2.938   2.193   3.003  0.7948  0.4730  0.9743
 1204SOL    HW2 3756   2.878   2.329   3.031  1.6022  0.8050  1.0981
 1205SOL     OW 3757   1.780   3.326   0.559 -1.0658 -0.9875  0.3184
 1205SOL    HW1 3758   1.776   3.382   0.636  1.5899 -1.0577  0.6151
 1205SOL    HW2 3759   1.797   3.238   0.594 -0.3165 -1.1011 -0.2949
 1206SOL     OW 3760   1.817   2.920   2.419 -0.4342  0.1715 -0.3447
 1206SOL    HW1 3761   1.753   2.915   2.349 -0.6305 -0.8067 -0.1140
 1206SOL    HW2 3762   1.894   2.960   2.379  0.0810 -1.9383 -1.6056
 1207SOL     OW 3763   1.707   1.997   3.703 -0.3606 -0.0019  0.7698
 1207SOL    HW1 3764   1.710   2.070   3.642 -0.1123  1.6137  2.6091
 1207SOL    HW2 3765   1.625   1.952   3.684 -0.6782  0.9565 -0.1741
 1208SOL     OW 3766   2.718   0.095   0.701 -0.0413 -0.7260 -0.4382
 1208SOL    HW1 3767   2.673   0.057   0.776 -0.3749 -0.5259 -0.5359
 1208SOL    HW2 3768   2.797   0.042   0.692  0.1439 -0.5757  0.2274
 1209SOL     OW 3769   2.528   1.407   0.418  0.4306  0.2976  0.3681
 1209SOL    HW1 3770   2.590   1.385   0.349  0.0557 -1.0130  0.4057
 1209SOL    HW2 3771   2.465   1.334   0.418 -1.5963  1.9437 -0.2038
 1210SOL     OW 3772   2.317   2.160   0.058 -0.4580  0.3867 -0.1198
 1210SOL    HW1 3773   2.272   2.185   0.139  0.0433 -0.6948  0.5060
 1210SOL    HW2 3774   2.324   2.065   0.062 -0.9992  0.2316 -1.7556
 1211SOL     OW 3775   0.690   3.496   0.831  0.3300 -0.5322  0.0926
 1211SOL    HW1 3776   0.715   3.537   0.913 -1.2532 -0.6228  0.6496
 1211SOL    HW2 3777   0.690   3.567   0.767  2.0606 -0.5543  0.0201
 1212SOL     OW 3778   1.848   0.727   2.270 -0.4806  0.5628 -0.0360
 1212SOL    HW1 3779   1.779   0.669   2.237 -1.1421  0.0054  2.1385
 1212SOL    HW2 3780   1.888   0.763   2.191 -0.7957 -1.9527 -1.4800
 1213SOL     OW 3781   0.948   2.632   0.113 -0.1369 -0.0064  0.2477
 1213SOL    HW1 3782   0.982   2.717   0.140  1.3828 -0.4211 -0.2398
 1213SOL    HW2 3783   1.011   2.600   0.048 -0.3473 -1.7482  0.8304
 1214SOL     OW 3784   3.002   1.269   0.031  0.1696 -0.5056  0.6868
 1214SOL    HW1 3785   3.089   1.229   0.033  0.0763 -0.7361  0.0351
 1214SOL    HW2 3786   3.015   1.355   0.072  0.6692 -0.6012  0.7337
 1215SOL     OW 3787   1.327   2.839   0.774  0.7827 -0.1622 -0.5361
 1215SOL    HW1 3788   1.239   2.849   0.737  0.7764 -1.1883 -0.8243
 1215SOL    HW2 3789   1.341   2.920   0.823 -0.6319 -0.2868  0.1592
 1216SOL     OW 3790   1.124   1.398   2.634  0.2146 -0.1964 -0.1281
 1216SOL    HW1 3791   1.103   1.338   2.705 -2.3831 -0.9225 -1.3922
 1216SOL    HW2 3792   1.205   1.363   2.596 -0.8139 -2.5006 -0.3357
 1217SOL     OW 3793   3.336   0.906   2.346  0.3456  0.0873  0.0971
 1217SOL    HW1 3794   3.286   0.982   2.377 -0.1953 -0.7515  1.3629
 1217SOL    HW2 3795   3.269   0.841   2.323  0.6898  0.7155 -3.1832
 1218SOL     OW 3796   2.532   2.709   0.326  0.0892  0.0016  0.0277
 1218SOL    HW1 3797   2.595   2.779   0.342  0.7992 -1.1058  2.5960
 1218SOL    HW2 3798   2.542   2.650   0.401 -2.2293 -1.5582 -0.7781
 1219SOL     OW 3799   1.678   2.702   0.887 -0.6388  0.5821 -0.1138
 1219SOL    HW1 3800   1.622   2.729   0.815 -2.8485 -0.2483  1.2053
 1219SOL    HW2 3801   1.754   2.662   0.844 -0.9332  1.8553 -1.9598
 1220SOL     OW 3802   3.244   3.682   1.156 -0.1454  0.3172 -0.5923
 1220SOL    HW1 3803   3.285   3.751   1.104  0.4125  0.8569  0.5482
 1220SOL    HW2 3804   3.307   3.610   1.154 -1.5452 -0.9829 -3.4120
 1221SOL     OW 3805   2.321   2.238   2.065  0.1541  0.8501 -0.3256
 1221SOL    HW1 3806   2.355   2.269   2.149 -1.2371  1.1461  0.1587
 1221SOL    HW2 3807   2.231   2.212   2.084 -0.6374  2.1893 -1.9891
 1222SOL     OW 3808   2.749   3.719   0.081 -0.1061 -0.6049  0.3704
 1222SOL    HW1 3809   2.702   3.701   0.162 -1.6883  0.0950 -0.3623
 1222SOL    HW2 3810   2.688   3.696   0.011  0.2689  1.1361 -0.6097
 1223SOL     OW 3811   1.824   1.754   1.917  0.0067 -0.8511 -0.5862
 1223SOL    HW1 3812   1.799   1.661   1.918  0.2444 -0.9288  1.1237
 1223SOL    HW2 3813   1.751   1.799   1.958  0.9723 -0.6301  0.9859
 1224SOL     OW 3814   3.146   3.016   0.141 -0.5453 -0.3387 -0.5661
 1224SOL    HW1 3815   3.088   2.979   0.207  1.4291  1.4027  2.3592
 1224SOL    HW2 3816   3.206   2.944   0.120 -0.9939 -0.8212 -0.2436
 1225SOL     OW 3817   0.137   3.187   0.232  0.7516  0.5752 -0.7085
 1225SOL    HW1 3818   0.183   3.269   0.249  2.8879 -0.8025  0.6453
 1225SOL    HW2 3819   0.133   3.143   0.317 -1.1292 -0.3641 -1.2373
 1226SOL     OW 3820   3.232   1.888   3.496 -0.1155  0.4028  0.1641
 1226SOL    HW1 3821   3.209   1.860   3.408 -1.9527 -0.9968  1.0032
 1226SOL    HW2 3822   3.172   1.960   3.515 -0.6133 -0.1349  0.6904
 1227SOL     OW 3823   2.437   2.682   1.039  0.6618 -0.4908 -0.5385
 1227SOL    HW1 3824   2.475   2.708   0.955 -0.7632  1.0179 -0.7781
 1227SOL    HW2 3825   2.501   2.710   1.104 -0.0114  2.1970 -0.9205
 1228SOL     OW 3826   3.126   1.464   2.224 -0.4959 -0.0714 -0.8887
 1228SOL    HW1 3827   3.031   1.461   2.214 -0.5371 -2.1480 -0.2756
 1228SOL    HW2 3828   3.154   1.373   2.223  1.3080  0.3912  0.6575
 1229SOL     OW 3829   2.400   3.265   0.242 -0.9554 -0.1056  0.1797
 1229SOL    HW1 3830   2.330   3.220   0.289  0.4425 -0.6001  1.8953
 1229SOL    HW2 3831   2.462   3.196   0.219 -0.4623  0.4694 -0.2596
 1230SOL     OW 3832   1.803   3.291   0.984  0.3933 -0.1783 -0.1350
 1230SOL    HW1 3833   1.816   3.203   0.949  0.6067 -0.6244  1.0291
 1230SOL    HW2 3834   1.860   3.296   1.060  0.7801  1.1606 -0.4697
 1231SOL     OW 3835   0.230   1.967   0.263 -0.0193  0.1355  0.2785
 1231SOL    HW1 3836   0.148   1.921   0.284  1.1535 -2.3994 -0.3442
 1231SOL    HW2 3837   0.296   1.924   0.317  1.5370 -0.5832 -2.0395
 1232SOL     OW 3838   3.011   3.402   1.863 -0.1050  0.0274 -0.9903
 1232SOL    HW1 3839   3.019   3.372   1.954  0.6198  0.4388 -0.9074
 1232SOL    HW2 3840   2.953   3.477   1.868  1.0588  0.9344 -0.6427
 1233SOL     OW 3841   2.578   2.259   0.019  0.3079  0.0449 -0.0641
 1233SOL    HW1 3842   2.593   2.342   0.064  0.9564 -0.0004 -0.1874
 1233SOL    HW2 3843   2.495   2.227   0.055 -0.5744  1.3234 -0.8837
 1234SOL     OW 3844   2.387   0.406   1.438  0.2000  0.3486 -0.1883
 1234SOL    HW1 3845   2.385   0.328   1.494 -2.6528  0.8748  0.5686
 1234SOL    HW2 3846   2.379   0.480   1.498 -1.0385  1.0172 -1.1146
 1235SOL     OW 3847   1.153   3.060   1.691  0.2752  0.1081 -0.5401
 1235SOL    HW1 3848   1.066   3.060   1.731  0.9249  0.1454  0.9679
 1235SOL    HW2 3849   1.140   3.024   1.604 -1.2091 -0.1010 -0.2564
 1236SOL     OW 3850   1.517   2.870   1.269 -0.4191  0.5581  0.0821
 1236SOL    HW1 3851   1.473   2.940   1.220 -0.2346  0.5631 -0.0760
 1236SOL    HW2 3852   1.609   2.875   1.242 -0.6239 -0.5553 -0.8719
 1237SOL     OW 3853   3.215   1.139   1.937 -0.4616 -0.2768 -0.6851
 1237SOL    HW1 3854   3.290   1.179   1.893 -1.2133 -0.9235 -2.6633
 1237SOL    HW2 3855   3.181   1.076   1.873 -2.4315 -0.3000  0.3270
 1238SOL     OW 3856   2.212   1.195   2.616 -0.3032 -0.4930 -0.1408
 1238SOL    HW1 3857   2.139   1.256   2.608  0.3141  0.3528  0.5517
 1238SOL    HW2 3858   2.269   1.234   2.682  0.1341 -1.7932  0.2911
 1239SOL     OW 3859   0.261   1.651   3.153  0.2151 -0.2966 -0.2318
 1239SOL    HW1 3860   0.215   1.634   3.236 -0.8322 -1.1506 -0.9573
 1239SOL    HW2 3861   0.340   1.698   3.179 -1.0776  1.3048  1.0870
 1240SOL     OW 3862   3.327   3.647   1.581 -0.3390  0.3919  0.3621
 1240SOL    HW1 3863   3.242   3.631   1.623 -0.7049 -1.0143 -0.8517
 1240SOL    HW2 3864   3.322   3.739   1.552 -1.2683  0.4563  0.6833
 1241SOL     OW 3865   2.436   2.128   1.432 -0.7078  0.0446  0.0885
 1241SOL    HW1 3866   2.448   2.223   1.431  1.7560 -0.2087  0.4460
 1241SOL    HW2 3867   2.353   2.114   1.385 -0.7904  2.3044 -0.5547
 1242SOL     OW 3868   1.945   1.555   0.995 -0.0785 -0.8993  0.0573
 1242SOL    HW1 3869   1.924   1.596   0.911 -0.4694 -0.9820  0.1109
 1242SOL    HW2 3870   1.874   1.491   1.008  1.4671 -2.9174 -0.9018
 1243SOL     OW 3871   3.258   1.861   1.473 -0.3836 -0.5358 -0.0400
 1243SOL    HW1 3872   3.295   1.949   1.468 -2.1988  0.2119 -1.9796
 1243SOL    HW2 3873   3.170   1.870   1.436 -0.5782 -3.2025 -0.4145
 1244SOL     OW 3874   1.830   3.069   2.172  0.0310 -0.2069 -0.1960
 1244SOL    HW1 3875   1.757   3.041   2.117 -1.3107 -0.0408  1.4042
 1244SOL    HW2 3876   1.893   3.106   2.112  0.4826 -3.6612 -2.1036
 1245SOL     OW 3877   2.813   2.005   2.234 -0.9135 -0.3127  0.0859
 1245SOL    HW1 3878   2.862   1.978   2.156  0.1751 -2.4294  1.4186
 1245SOL    HW2 3879   2.724   1.973   2.218 -1.2491  1.1000 -1.1342
 1246SOL     OW 3880   1.630   2.546   0.041  0.0181 -0.2428 -0.2182
 1246SOL    HW1 3881   1.609   2.468  -0.010  0.9050 -1.3913  1.0878
 1246SOL    HW2 3882   1.664   2.609  -0.023 -0.8735 -0.8443 -1.3194
 1247SOL     OW 3883   3.584   2.554   1.070  0.1237 -0.2001  0.2641
 1247SOL    HW1 3884   3.512   2.598   1.024  2.2996 -0.8835 -4.4389
 1247SOL    HW2 3885   3.643   2.625   1.094 -0.6604  0.1051  1.3682
 1248SOL     OW 3886   1.944   2.405   1.343 -0.0250 -0.1432  0.0837
 1248SOL    HW1 3887   1.936   2.500   1.338 -0.1092 -0.0866  1.0076
 1248SOL    HW2 3888   1.861   2.376   1.380 -0.2773 -0.6532 -0.8459
 1249SOL     OW 3889   1.375   3.540   1.639 -0.0344 -0.2830 -0.0699
 1249SOL    HW1 3890   1.374   3.547   1.544  0.1884 -2.2578 -0.2708
 1249SOL    HW2 3891   1.467   3.524   1.661 -0.3027 -1.4676  0.2887
 1250SOL     OW 3892   0.516   0.600   3.040 -0.2098  0.7437  0.0383
 1250SOL    HW1 3893   0.459   0.578   2.966 -1.7935 -0.4800  1.5297
 1250SOL    HW2 3894   0.471   0.670   3.085  0.2463  0.8104  0.4008
 1251SOL     OW 3895   3.345   1.039   1.391 -0.4217  0.4737  0.0603
 1251SOL    HW1 3896   3.376   1.018   1.479  0.7118 -1.3965 -0.7173
 1251SOL    HW2 3897   3.422   1.071   1.345 -0.5073 -0.4535 -0.7767
 1252SOL     OW 3898   2.705   2.542   1.543  0.4638 -0.2659  0.7544
 1252SOL    HW1 3899   2.782   2.596   1.562 -0.8353  1.6322  0.9267
 1252SOL    HW2 3900   2.727   2.494   1.464  1.7399  0.4228  0.6792
 1253SOL     OW 3901   3.374   2.423   0.644 -0.0802 -0.5192  0.5959
 1253SOL    HW1 3902   3.369   2.450   0.552 -2.6468  1.4520  1.2020
 1253SOL    HW2 3903   3.444   2.476   0.681  0.8218 -1.1662 -0.1435
 1254SOL     OW 3904   3.608   1.054   0.287 -0.5779  0.0405  0.0330
 1254SOL    HW1 3905   3.547   1.092   0.350  0.8749  0.2039  1.4074
 1254SOL    HW2 3906   3.553   1.023   0.216 -2.4824 -1.6246  2.0951
 1255SOL     OW 3907   2.095   1.534   0.570  0.0849 -0.6799  0.4817
 1255SOL    HW1 3908   2.007   1.571   0.572  0.1385 -0.5585  0.6739
 1255SOL    HW2 3909   2.090   1.456   0.626  0.4060  0.0319  1.5286
 1256SOL     OW 3910   2.931   2.560   0.915  0.1814  0.1071  0.2523
 1256SOL    HW1 3911   2.974   2.632   0.961  0.5318  0.9358 -1.2966
 1256SOL    HW2 3912   2.992   2.536   0.846 -1.6761  1.1500 -1.8659
 1257SOL     OW 3913   0.699   0.422   0.785 -0.5394  0.1923  0.3217
 1257SOL    HW1 3914   0.699   0.409   0.880  0.6081  1.9072  0.6122
 1257SOL    HW2 3915   0.681   0.516   0.774  1.2085  0.4200 -1.0477
 1258SOL     OW 3916   3.614   3.561   2.947  0.0049 -0.2356 -1.1433
 1258SOL    HW1 3917   3.692   3.604   2.983 -0.0057 -1.4034  0.4265
 1258SOL    HW2 3918   3.645   3.472   2.926 -0.7953 -0.5724 -0.9138
 1259SOL     OW 3919   1.472   0.573   3.505  0.4402  0.0137  0.3921
 1259SOL    HW1 3920   1.553   0.558   3.554 -0.0715 -0.2858  1.1648
 1259SOL    HW2 3921   1.481   0.519   3.427  1.0275  0.0558  0.4260
 1260SOL     OW 3922   2.563   3.648   1.064 -0.5185  0.2561 -0.9628
 1260SOL    HW1 3923   2.582   3.733   1.104 -1.9704  0.0711  0.2173
 1260SOL    HW2 3924   2.470   3.634   1.081 -0.0800 -2.0918 -0.0748
 1261SOL     OW 3925   1.008   2.332   2.105 -0.7870  0.1990 -0.1910
 1261SOL    HW1 3926   0.930   2.333   2.050 -1.8030  1.5377  1.1952
 1261SOL    HW2 3927   0.975   2.337   2.194  0.8709 -0.1604  0.4852
 1262SOL     OW 3928   1.005   1.700   3.483  0.0427  0.2731  0.3658
 1262SOL    HW1 3929   1.101   1.700   3.474 -0.1720  2.0322 -4.3178
 1262SOL    HW2 3930   0.976   1.627   3.429 -1.4100 -1.4958  3.2657
 1263SOL     OW 3931   3.685   2.258   2.204 -0.3271 -0.2819  0.6787
 1263SOL    HW1 3932   3.762   2.206   2.183 -0.0214  1.4328 -3.3662
 1263SOL    HW2 3933   3.717   2.348   2.209 -1.8750  0.3848 -0.3675
 1264SOL     OW 3934   1.685   2.315   2.401 -0.5803 -0.3898 -0.0024
 1264SOL    HW1 3935   1.690   2.262   2.481 -1.0972 -0.1812  0.1679
 1264SOL    HW2 3936   1.628   2.388   2.424 -0.9210 -0.4524 -0.6414
 1265SOL     OW 3937   2.403   2.079   2.732 -0.0206 -0.2973 -0.1737
 1265SOL    HW1 3938   2.497   2.072   2.745  0.3105  1.6463 -1.1190
 1265SOL    HW2 3939   2.390   2.167   2.697 -2.1607 -0.6264 -0.3651
 1266SOL     OW 3940   1.401   2.304   1.775 -0.0036 -0.4782 -0.4602
 1266SOL    HW1 3941   1.361   2.335   1.856  0.5107 -0.7845 -0.0770
 1266SOL    HW2 3942   1.434   2.383   1.733 -0.9408 -0.2358 -0.7456
 1267SOL     OW 3943   3.151   0.338   0.864 -0.0631  0.5386  0.1359
 1267SOL    HW1 3944   3.089   0.285   0.813 -0.3620  0.7684  0.2570
 1267SOL    HW2 3945   3.197   0.274   0.919  0.8160  0.1831 -0.9708
 1268SOL     OW 3946   3.257   0.228   2.140  0.2684 -0.7384 -0.3211
 1268SOL    HW1 3947   3.265   0.225   2.045 -1.3232 -2.5292 -0.4570
 1268SOL    HW2 3948   3.179   0.282   2.156 -0.4001 -1.7144 -0.1524
 1269SOL     OW 3949   1.856   0.250   1.840  0.1130  0.3139 -0.0146
 1269SOL    HW1 3950   1.946   0.265   1.869  0.7699  0.1018 -1.7952
 1269SOL    HW2 3951   1.860   0.169   1.789 -1.2783 -0.1794  0.5951
 1270SOL     OW 3952   3.454   1.617   0.714 -0.5805  0.9915 -0.0237
 1270SOL    HW1 3953   3.424   1.543   0.661 -0.2548 -1.3642  2.8227
 1270SOL    HW2 3954   3.404   1.610   0.795  2.4738  1.2826  2.0111
 1271SOL     OW 3955   3.631   3.532   1.938  0.2715  0.3149 -0.7158
 1271SOL    HW1 3956   3.563   3.469   1.962  1.6403 -1.1938 -0.5594
 1271SOL    HW2 3957   3.593   3.617   1.956  0.0079 -0.5457  3.8217
 1272SOL     OW 3958   1.931   0.077   2.075  0.2922  0.3147 -0.2660
 1272SOL    HW1 3959   1.920   0.052   1.983  1.7493 -0.1107 -0.3458
 1272SOL    HW2 3960   1.894   0.003   2.124 -0.8838  0.7345 -0.4908
 1273SOL     OW 3961   3.129   2.623   3.109  0.0364  0.6061 -0.0846
 1273SOL    HW1 3962   3.132   2.544   3.164  0.1440 -1.1690 -2.4881
 1273SOL    HW2 3963   3.043   2.660   3.125 -1.4749 -2.0306 -1.4323
 1274SOL     OW 3964   3.432   3.666   2.074  0.1899 -0.5714 -0.5826
 1274SOL    HW1 3965   3.355   3.700   2.120  0.7469 -0.7417  0.5019
 1274SOL    HW2 3966   3.492   3.740   2.069  1.3616 -1.2616  1.6901
 1275SOL     OW 3967   3.559   0.389   0.640  0.1827  0.1358  0.1778
 1275SOL    HW1 3968   3.485   0.441   0.672  1.4462  2.3529 -0.2403
 1275SOL    HW2 3969   3.577   0.425   0.553  1.9599 -0.0748  0.4249
 1276SOL     OW 3970   2.112   1.473   3.107  0.2323 -0.0155  0.0514
 1276SOL    HW1 3971   2.088   1.563   3.130  0.9913  0.6127 -1.4233
 1276SOL    HW2 3972   2.122   1.475   3.012 -2.5004 -2.3606 -0.4264
 1277SOL     OW 3973   3.143   0.395   3.620 -0.9096 -0.5213  0.8368
 1277SOL    HW1 3974   3.061   0.387   3.667 -0.8707 -0.3940  0.9254
 1277SOL    HW2 3975   3.204   0.340   3.669 -0.7953 -0.1604  1.1017
 1278SOL     OW 3976   3.308   1.581   0.937  0.2064  0.0662 -0.1425
 1278SOL    HW1 3977   3.225   1.537   0.918 -0.6795  1.8491 -0.6684
 1278SOL    HW2 3978   3.289   1.635   1.014  1.0194  0.1421  0.0127
 1279SOL     OW 3979   3.167   1.729   3.010 -0.2045 -0.2549 -0.4577
 1279SOL    HW1 3980   3.172   1.741   3.105 -2.2302 -1.2097 -0.1736
 1279SOL    HW2 3981   3.210   1.645   2.994 -0.0388 -0.1890 -0.3594
 1280SOL     OW 3982   3.601   0.808   2.038  0.1804 -0.3094 -0.2919
 1280SOL    HW1 3983   3.639   0.775   1.956  0.9433 -1.2983  0.4229
 1280SOL    HW2 3984   3.641   0.754   2.106  0.7545  1.5107  0.8905
 1281SOL     OW 3985   0.550   1.482   2.457 -0.0872 -0.2087  0.2698
 1281SOL    HW1 3986   0.460   1.515   2.454 -1.7391 -4.0344  1.5547
 1281SOL    HW2 3987   0.566   1.448   2.369  0.2186  0.6621 -0.0189
 1282SOL     OW 3988   2.419   2.867   3.516  1.0231  0.2238  0.0565
 1282SOL    HW1 3989   2.411   2.852   3.611 -1.6215  0.7469  0.0172
 1282SOL    HW2 3990   2.352   2.934   3.498  3.1955  2.0158 -1.8289
 1283SOL     OW 3991   1.831   1.547   0.192  0.3104  0.1323  0.5114
 1283SOL    HW1 3992   1.860   1.481   0.129  0.6283 -0.0255  0.8194
 1283SOL    HW2 3993   1.842   1.630   0.147  0.8661  0.0443  0.4754
 1284SOL     OW 3994   1.521   1.721   3.702 -0.2299  0.0163  0.3595
 1284SOL    HW1 3995   1.516   1.743   3.609 -1.4077  1.1233  0.6489
 1284SOL    HW2 3996   1.556   1.632   3.705  0.0903  0.0759 -1.1225
 1285SOL     OW 3997   3.127   2.470   3.365 -0.3836 -0.3020 -0.3683
 1285SOL    HW1 3998   3.216   2.471   3.399  0.4255  0.3208 -2.3987
 1285SOL    HW2 3999   3.114   2.381   3.333 -0.5444 -0.4200  0.0152
 1286SOL     OW 4000   3.259   0.231   1.546  0.0921  0.3418 -0.2306
 1286SOL    HW1 4001   3.341   0.275   1.521 -0.7330  1.7336 -0.6228
 1286SOL    HW2 4002   3.222   0.287   1.615 -2.0593  1.5753 -2.2248
 1287SOL     OW 4003   2.131   1.936   1.500  0.0122  0.0046  0.1615
 1287SOL    HW1 4004   2.120   2.010   1.441 -1.7204  1.0510  1.7076
 1287SOL    HW2 4005   2.189   1.968   1.569 -0.4905 -0.1588  0.6733
 1288SOL     OW 4006   3.392   2.916   1.511 -0.2401 -0.1374 -0.5117
 1288SOL    HW1 4007   3.334   2.981   1.471  0.6166  1.0280  0.0847
 1288SOL    HW2 4008   3.384   2.932   1.605  1.3191  0.3154 -0.4289
 1289SOL     OW 4009   2.860   1.376   3.546  0.2118  0.0697 -0.1852
 1289SOL    HW1 4010   2.907   1.320   3.608  0.2707  1.4144  1.0394
 1289SOL    HW2 4011   2.925   1.438   3.515 -0.7066  2.0935  1.6969
 1290SOL     OW 4012   1.294   2.971   2.772 -0.2501 -0.2274  0.4673
 1290SOL    HW1 4013   1.366   3.009   2.821 -0.0171  0.4665 -0.3976
 1290SOL    HW2 4014   1.288   3.023   2.692 -2.7006  0.7455  1.1724
 1291SOL     OW 4015   3.135   3.287   0.229 -0.6450 -0.2233 -0.3152
 1291SOL    HW1 4016   3.106   3.199   0.206  0.2331 -1.6551  3.3017
 1291SOL    HW2 4017   3.072   3.317   0.294  0.6121  0.6133  0.5775
 1292SOL     OW 4018   0.601   0.077   0.109 -0.8596 -0.0542  0.7660
 1292SOL    HW1 4019   0.543   0.106   0.179 -2.8038 -0.6631 -0.4865
 1292SOL    HW2 4020   0.574   0.129   0.033 -1.0082 -1.5664 -0.2687
 1293SOL     OW 4021   2.316   1.244   1.549  0.1410 -0.4052  0.7151
 1293SOL    HW1 4022   2.232   1.289   1.547  0.2560  0.1222  3.2887
 1293SOL    HW2 4023   2.307   1.180   1.619  1.1362 -2.0112 -0.5625
 1294SOL     OW 4024   2.363   2.279   2.336 -0.6191  0.0629 -0.4090
 1294SOL    HW1 4025   2.457   2.278   2.318 -0.6522 -1.1376 -0.5926
 1294SOL    HW2 4026   2.356   2.300   2.429 -0.0697 -1.6852  0.0618
 1295SOL     OW 4027   2.827   3.586   0.761 -0.5018  0.3239  0.9218
 1295SOL    HW1 4028   2.779   3.539   0.830 -0.9049 -0.5034  0.1044
 1295SOL    HW2 4029   2.901   3.529   0.741 -0.5973  0.3742  0.4162
 1296SOL     OW 4030   2.631   2.223   2.255 -0.4453 -0.5323  0.1061
 1296SOL    HW1 4031   2.654   2.134   2.228  2.4799 -0.1705  1.1072
 1296SOL    HW2 4032   2.680   2.238   2.336  1.1086  2.7587 -1.2498
 1297SOL     OW 4033   0.995   1.230   1.274  0.1530 -0.0825  0.2830
 1297SOL    HW1 4034   0.921   1.241   1.215 -0.4247  1.1586  1.2160
 1297SOL    HW2 4035   1.066   1.197   1.218 -0.3460  1.1448 -1.1256
 1298SOL     OW 4036   0.759   3.440   0.357 -0.4639 -0.5508  0.0783
 1298SOL    HW1 4037   0.672   3.481   0.359 -0.8275 -1.1741 -1.4633
 1298SOL    HW2 4038   0.758   3.379   0.430 -1.0605 -0.0624  0.4929
 1299SOL     OW 4039   1.622   0.689   0.957  0.2066  0.0070  0.8477
 1299SOL    HW1 4040   1.681   0.764   0.965 -1.4346  1.3225  1.0649
 1299SOL    HW2 4041   1.631   0.661   0.866  0.1980  1.0430  0.5121
 1300SOL     OW 4042   2.667   1.993   3.623 -0.2983  0.1961  0.1729
 1300SOL    HW1 4043   2.705   2.051   3.688 -0.0068  0.3310 -0.1130
 1300SOL    HW2 4044   2.580   1.971   3.657 -0.3565  0.6913  0.3479
 1301SOL     OW 4045   0.256   3.203   2.315  0.1906  0.4374  0.1375
 1301SOL    HW1 4046   0.194   3.199   2.242  1.4380  0.6898 -0.9742
 1301SOL    HW2 4047   0.228   3.134   2.375 -0.8581  0.2290 -0.5697
 1302SOL     OW 4048   2.396   1.448   2.552  0.2412 -0.1667 -0.2910
 1302SOL    HW1 4049   2.389   1.527   2.498  1.9241  0.9216  0.9883
 1302SOL    HW2 4050   2.467   1.398   2.511 -1.0819 -1.2560 -1.3304
 1303SOL     OW 4051   1.891   2.666   0.469 -0.0909  0.2002  0.1226
 1303SOL    HW1 4052   1.938   2.733   0.519  2.2483 -0.7896 -0.6401
 1303SOL    HW2 4053   1.856   2.606   0.535  1.0057  0.1510  0.6732
 1304SOL     OW 4054   3.460   1.436   2.708  0.1533 -0.6562 -0.6089
 1304SOL    HW1 4055   3.542   1.395   2.736  0.7679 -0.4855 -2.0267
 1304SOL    HW2 4056   3.489   1.514   2.659 -0.9163  0.2823  0.2177
 1305SOL     OW 4057   2.557   1.962   2.218  0.5683 -0.1628  0.2840
 1305SOL    HW1 4058   2.483   1.962   2.158  1.3246  1.9646 -0.7826
 1305SOL    HW2 4059   2.518   1.965   2.306 -0.7476  2.8596 -0.2663
 1306SOL     OW 4060   2.326   3.662   2.114  0.8594 -0.4953  0.0648
 1306SOL    HW1 4061   2.354   3.597   2.178  0.5165 -2.2566 -1.4926
 1306SOL    HW2 4062   2.406   3.711   2.094  1.5418 -1.5958 -0.0027
 1307SOL     OW 4063   2.571   0.909   2.331 -0.3909 -0.5717 -0.2328
 1307SOL    HW1 4064   2.628   0.833   2.342  0.1879 -0.3539 -1.6256
 1307SOL    HW2 4065   2.630   0.984   2.326 -0.8839 -0.1693 -0.2384
 1308SOL     OW 4066   2.909   0.872   3.527 -0.1703 -0.3783  0.1864
 1308SOL    HW1 4067   2.952   0.921   3.596  1.5431 -0.2517 -0.9080
 1308SOL    HW2 4068   2.878   0.938   3.465 -0.9232 -0.5347  0.3797
 1309SOL     OW 4069   1.667   0.512   2.437  0.3742 -0.1546  0.1709
 1309SOL    HW1 4070   1.748   0.562   2.424  0.3004 -0.2952 -0.9322
 1309SOL    HW2 4071   1.655   0.464   2.355 -0.8225 -0.1549  0.3306
 1310SOL     OW 4072   0.164   3.336   1.293  0.0336  0.5911  0.1938
 1310SOL    HW1 4073   0.193   3.379   1.374  0.5575 -1.0805  0.9452
 1310SOL    HW2 4074   0.215   3.379   1.224  1.1248  0.6557  1.0018
 1311SOL     OW 4075   0.645   1.454   0.363 -0.0162 -0.2161 -0.0756
 1311SOL    HW1 4076   0.721   1.504   0.332  0.1578 -1.0845 -1.0768
 1311SOL    HW2 4077   0.591   1.519   0.408  0.2385  0.8726 -1.2771
 1312SOL     OW 4078   0.563   2.782   2.672  0.2375  0.0993  0.0718
 1312SOL    HW1 4079   0.637   2.827   2.631 -0.1140  1.7362  1.1460
 1312SOL    HW2 4080   0.524   2.847   2.730 -1.5501 -0.9822  0.1699
 1313SOL     OW 4081   0.560   2.004   3.582  0.1487  0.6307 -1.2298
 1313SOL    HW1 4082   0.506   2.005   3.503  0.8285 -0.6234 -1.7396
 1313SOL    HW2 4083   0.650   2.015   3.550  0.3764  0.6539 -0.5939
 1314SOL     OW 4084   2.641   2.042   0.216 -0.1787 -0.4620  0.8154
 1314SOL    HW1 4085   2.557   1.997   0.225 -0.6655  0.3563  0.5668
 1314SOL    HW2 4086   2.622   2.133   0.240  0.1858  0.1442 -0.9864
 1315SOL     OW 4087   0.674   2.326   3.435  0.3084  0.6685  0.0190
 1315SOL    HW1 4088   0.726   2.253   3.402 -0.2152  0.3990 -0.2247
 1315SOL    HW2 4089   0.594   2.285   3.467  1.1351  0.8129  2.4405
 1316SOL     OW 4090   2.907   0.543   0.742  0.3287  0.3346 -0.1855
 1316SOL    HW1 4091   2.940   0.537   0.832 -1.5058 -2.7115  0.4208
 1316SOL    HW2 4092   2.866   0.629   0.738 -1.2554 -0.1615  2.5947
 1317SOL     OW 4093   0.547   0.915   0.332  0.2689 -0.0028 -0.3565
 1317SOL    HW1 4094   0.509   0.919   0.420  1.6474 -0.7409  0.3135
 1317SOL    HW2 4095   0.572   1.005   0.312 -2.2072  0.6005 -1.0405
 1318SOL     OW 4096   0.686   0.748   2.855 -1.0978  0.0310  0.0356
 1318SOL    HW1 4097   0.619   0.680   2.853 -0.5035 -0.6534  1.4717
 1318SOL    HW2 4098   0.640   0.827   2.882 -1.3982 -0.3545  0.6796
 1319SOL     OW 4099   3.663   2.577   3.479 -0.6331  0.5879  0.6407
 1319SOL    HW1 4100   3.725   2.611   3.415  0.1018 -0.7380  0.6194
 1319SOL    HW2 4101   3.673   2.634   3.555 -0.0396  0.9253  0.3116
 1320SOL     OW 4102   3.171   0.634   2.410 -0.5666  0.2934 -0.3363
 1320SOL    HW1 4103   3.079   0.649   2.434  0.0885  1.0533  2.0030
 1320SOL    HW2 4104   3.218   0.639   2.493  1.2571 -3.4251 -0.9415
 1321SOL     OW 4105   0.445   3.494   1.287 -0.5009  0.9185  0.3422
 1321SOL    HW1 4106   0.439   3.553   1.212  1.8288  1.1033  0.2275
 1321SOL    HW2 4107   0.444   3.552   1.363 -2.2434  0.7736  0.4622
 1322SOL     OW 4108   0.379   1.239   2.665  0.1238 -0.1447 -0.2134
 1322SOL    HW1 4109   0.296   1.263   2.707  0.4878 -0.6966  0.8515
 1322SOL    HW2 4110   0.395   1.310   2.603 -1.0943  0.0201 -0.3671
 1323SOL     OW 4111   2.900   2.449   3.715  0.1856 -0.6831 -0.2817
 1323SOL    HW1 4112   2.832   2.487   3.771  0.3505  0.7248 -1.0137
 1323SOL    HW2 4113   2.851   2.395   3.652 -0.0803 -1.3552  0.4826
 1324SOL     OW 4114   0.845   3.693   3.679  0.1450 -0.1032  0.2141
 1324SOL    HW1 4115   0.767   3.739   3.713 -0.3675 -1.4473  0.9295
 1324SOL    HW2 4116   0.867   3.630   3.748 -0.0381 -1.9238 -1.3194
 1325SOL     OW 4117   3.219   0.392   3.338  0.4370 -0.2692  0.0473
 1325SOL    HW1 4118   3.200   0.421   3.427  0.1358  1.3688 -0.5278
 1325SOL    HW2 4119   3.137   0.355   3.306  0.5462 -0.8621  0.4226
 1326SOL     OW 4120   0.893   2.738   2.920  0.2409 -0.0884  0.7119
 1326SOL    HW1 4121   0.826   2.806   2.913  0.0805 -0.1134  1.7712
 1326SOL    HW2 4122   0.938   2.757   3.002  0.5838 -0.9030  0.7256
 1327SOL     OW 4123   3.295   2.350   0.195  0.2360 -0.3389 -0.7815
 1327SOL    HW1 4124   3.344   2.369   0.115  0.0793 -2.7452 -1.5236
 1327SOL    HW2 4125   3.215   2.307   0.165  0.3199 -1.5781  0.6545
 1328SOL     OW 4126   1.438   2.958   3.062  0.3584  0.8524 -0.7519
 1328SOL    HW1 4127   1.447   3.052   3.073 -0.2946  0.7116  1.7745
 1328SOL    HW2 4128   1.344   2.944   3.055  0.3469  0.3101  0.2970
 1329SOL     OW 4129   1.133   1.640   0.450  0.2491 -0.0236  0.4462
 1329SOL    HW1 4130   1.049   1.596   0.441 -0.5073  1.4505 -0.0092
 1329SOL    HW2 4131   1.190   1.596   0.387  0.2056 -1.8418  1.6121
 1330SOL     OW 4132   1.528   3.356   1.098 -0.0451  0.3484  0.2370
 1330SOL    HW1 4133   1.605   3.328   1.049 -0.9721  1.0773 -1.7701
 1330SOL    HW2 4134   1.556   3.435   1.144  0.6971 -0.0154  0.4240
 1331SOL     OW 4135   1.764  -0.024   2.546  0.0349  0.5805  0.2029
 1331SOL    HW1 4136   1.823   0.027   2.602  2.0155  1.4305 -2.4118
 1331SOL    HW2 4137   1.714   0.042   2.498 -2.3760 -0.1322  1.5878
 1332SOL     OW 4138   0.883   0.846   0.758  0.0213  0.1566 -0.2959
 1332SOL    HW1 4139   0.916   0.883   0.839  0.5840 -1.3162  0.1869
 1332SOL    HW2 4140   0.932   0.764   0.747 -0.2469  0.1704 -1.9639
 1333SOL     OW 4141   2.583   1.745   2.693 -0.3523  0.1715 -0.0196
 1333SOL    HW1 4142   2.678   1.738   2.703 -0.5211  0.2167  1.9955
 1333SOL    HW2 4143   2.569   1.735   2.598  1.4648 -2.0894 -0.1718
 1334SOL     OW 4144   0.575  -0.002   0.776 -0.1194 -0.3376 -0.4474
 1334SOL    HW1 4145   0.630   0.067   0.811  0.7308 -1.9774  1.6370
 1334SOL    HW2 4146   0.485   0.029   0.791  0.2089  0.9682 -1.0285
 1335SOL     OW 4147   3.125   2.120   3.580  0.6657 -0.3367 -0.1159
 1335SOL    HW1 4148   3.109   2.094   3.671 -0.3698 -2.4959 -0.8272
 1335SOL    HW2 4149   3.042   2.160   3.553 -0.0370 -2.1207 -0.8078
 1336SOL     OW 4150   0.611   2.156   1.784  0.6555  0.3457 -0.2406
 1336SOL    HW1 4151   0.605   2.095   1.857 -0.6359  1.6105  0.7770
 1336SOL    HW2 4152   0.655   2.107   1.714  1.4429 -1.0713  1.1886
 1337SOL     OW 4153   3.603   0.268   2.717  0.1486 -0.1784 -0.0255
 1337SOL    HW1 4154   3.510   0.245   2.722 -0.4083  1.9304  0.7302
 1337SOL    HW2 4155   3.642   0.224   2.792 -0.3221 -0.7604 -0.1157
 1338SOL     OW 4156   2.366   3.534   3.452 -0.0289  0.4459 -0.5500
 1338SOL    HW1 4157   2.381   3.595   3.380  1.0677  3.0095  1.6885
 1338SOL    HW2 4158   2.291   3.571   3.499 -0.9889 -1.4072 -0.5366
 1339SOL     OW 4159   2.518   0.639   1.898 -0.4794 -0.3605  0.0940
 1339SOL    HW1 4160   2.555   0.681   1.821  1.4375 -0.7990  0.7109
 1339SOL    HW2 4161   2.475   0.709   1.947  2.0210  0.7977  0.7458
 1340SOL     OW 4162   0.530   0.771   1.940 -0.8766  0.1590 -0.3416
 1340SOL    HW1 4163   0.464   0.714   1.979  0.1093 -2.0952 -1.7853
 1340SOL    HW2 4164   0.486   0.856   1.933 -2.3662 -0.3133  2.0091
 1341SOL     OW 4165   0.367   1.087   0.103  0.2006 -0.2660  0.0267
 1341SOL    HW1 4166   0.287   1.122   0.064 -0.3394 -0.0960  1.2406
 1341SOL    HW2 4167   0.425   1.072   0.029  0.5410  3.3168 -0.6269
 1342SOL     OW 4168   2.667   1.639   2.428  0.1973  0.2956 -0.2000
 1342SOL    HW1 4169   2.587   1.648   2.376 -0.0958 -0.5429  0.1018
 1342SOL    HW2 4170   2.671   1.547   2.453  0.8811  0.4698  0.3977
 1343SOL     OW 4171   1.756   1.549   1.673 -0.4777  0.2305  0.0059
 1343SOL    HW1 4172   1.841   1.545   1.629 -0.0684 -0.9013  0.8705
 1343SOL    HW2 4173   1.705   1.610   1.619  0.0092 -1.0410 -2.0306
 1344SOL     OW 4174   1.306   2.472   0.579 -0.4879  0.9401  0.0286
 1344SOL    HW1 4175   1.219   2.507   0.600 -1.1519  0.1040 -1.2091
 1344SOL    HW2 4176   1.297   2.437   0.491  0.9354  0.2382  0.1346
 1345SOL     OW 4177   1.818   0.875   0.779  1.0799 -0.3853 -0.0102
 1345SOL    HW1 4178   1.828   0.848   0.688 -0.3229 -1.8545  0.2460
 1345SOL    HW2 4179   1.785   0.965   0.773  2.0802 -0.0408 -0.9033
 1346SOL     OW 4180   0.142   2.550   1.163 -0.1339  0.0563  0.2383
 1346SOL    HW1 4181   0.191   2.469   1.150  0.3180  0.1274  1.3525
 1346SOL    HW2 4182   0.102   2.568   1.078 -0.4055 -1.4376  0.0191
 1347SOL     OW 4183   1.163   3.534   1.829  0.6420 -0.4190  0.2760
 1347SOL    HW1 4184   1.202   3.564   1.911  2.0558 -2.4497  0.4171
 1347SOL    HW2 4185   1.237   3.523   1.770 -0.1812 -0.5387 -0.7725
 1348SOL     OW 4186   2.119   0.538   2.494 -0.2535  0.2859  0.3742
 1348SOL    HW1 4187   2.096   0.507   2.407 -1.2063  2.1285 -0.0716
 1348SOL    HW2 4188   2.188   0.603   2.479 -1.0480  1.2688  0.8843
 1349SOL     OW 4189   2.661   0.093   3.493 -0.4367  0.0985 -0.2509
 1349SOL    HW1 4190   2.756   0.087   3.500 -0.3047  1.3095 -0.7273
 1349SOL    HW2 4191   2.629   0.013   3.533  0.7987 -0.5374 -0.4880
 1350SOL     OW 4192   3.276   3.269   0.537  0.1955 -0.1492 -0.6846
 1350SOL    HW1 4193   3.294   3.306   0.451 -1.2063  2.2593 -0.0445
 1350SOL    HW2 4194   3.200   3.213   0.524 -1.0867  1.5261 -0.8148
 1351SOL     OW 4195   3.135   1.032   3.320 -0.6428  0.5253  0.2164
 1351SOL    HW1 4196   3.200   1.064   3.383 -0.0396 -0.2464  0.0068
 1351SOL    HW2 4197   3.063   1.095   3.325 -0.9337  0.1244  2.2121
 1352SOL     OW 4198   1.191   0.098   2.335 -0.3431 -0.3552 -0.5652
 1352SOL    HW1 4199   1.249   0.057   2.399  0.3334 -0.2917 -1.1262
 1352SOL    HW2 4200   1.183   0.189   2.365 -0.4703 -0.4641 -0.2684
 1353SOL     OW 4201   3.703   0.763   2.901  0.5502 -0.1839  0.1750
 1353SOL    HW1 4202   3.651   0.838   2.871 -0.5602 -0.6244  0.9105
 1353SOL    HW2 4203   3.704   0.703   2.826  0.3521  0.0161  0.0094
 1354SOL     OW 4204   2.546   0.063   1.510  0.5240  0.3512 -0.6644
 1354SOL    HW1 4205   2.585   0.008   1.578 -1.5150  1.5948  1.6434
 1354SOL    HW2 4206   2.606   0.138   1.504  0.9952 -0.0154 -0.6439
 1355SOL     OW 4207   0.173   0.511   2.398 -0.2354 -0.0792 -0.5029
 1355SOL    HW1 4208   0.267   0.500   2.407 -0.0984  1.3783  0.0575
 1355SOL    HW2 4209   0.135   0.444   2.456  0.5117  1.2974  1.6622
 1356SOL     OW 4210   0.567   3.265   1.637 -0.6088 -0.3616 -0.1188
 1356SOL    HW1 4211   0.647   3.214   1.649 -0.5778 -1.0729 -2.7424
 1356SOL    HW2 4212   0.496   3.202   1.648 -0.8526  0.1850  1.7961
 1357SOL     OW 4213   1.287   2.304   0.362 -0.2380  0.3794  0.5965
 1357SOL    HW1 4214   1.241   2.285   0.280  1.1170 -0.1300 -0.0826
 1357SOL    HW2 4215   1.253   2.239   0.424  1.7786 -2.1689 -0.7500
 1358SOL     OW 4216   2.097   0.994   0.591  0.4596  0.1143  0.3650
 1358SOL    HW1 4217   2.185   0.998   0.553  0.6012  0.0218  0.6749
 1358SOL    HW2 4218   2.112   0.975   0.684  0.1748  1.2610  0.6740
 1359SOL     OW 4219   0.607   1.413   2.196 -0.1718 -0.3891 -0.2829
 1359SOL    HW1 4220   0.527   1.392   2.147 -0.4444  0.6880 -0.3269
 1359SOL    HW2 4221   0.650   1.480   2.143 -0.6800  1.1149  1.1185
 1360SOL     OW 4222   0.834   3.641   1.027  0.1423 -0.1483 -0.0086
 1360SOL    HW1 4223   0.920   3.682   1.018  0.1419 -0.2890 -0.7444
 1360SOL    HW2 4224   0.810   3.654   1.119  0.8537  0.0790  0.1511
 1361SOL     OW 4225   2.634   3.643   2.319 -0.0643  0.2819  0.0514
 1361SOL    HW1 4226   2.554   3.650   2.371  0.4960  0.6556  0.8879
 1361SOL    HW2 4227   2.703   3.631   2.384  0.3527 -2.1121 -0.7354
 1362SOL     OW 4228   3.677   1.151   0.965  0.2144  0.0370 -0.3378
 1362SOL    HW1 4229   3.738   1.125   0.895 -0.0455 -0.0121 -0.5462
 1362SOL    HW2 4230   3.694   1.244   0.978 -0.9779  0.4863 -1.7224
 1363SOL     OW 4231   0.260   1.663   1.665 -0.5988 -0.0602 -0.2988
 1363SOL    HW1 4232   0.327   1.709   1.716 -2.1267 -0.5295  2.3034
 1363SOL    HW2 4233   0.183   1.719   1.670 -1.2482 -0.8974 -0.7268
 1364SOL     OW 4234   0.837   1.599   0.943 -0.3604 -0.1022  0.0867
 1364SOL    HW1 4235   0.844   1.519   0.995  0.7233 -1.0350 -1.4139
 1364SOL    HW2 4236   0.835   1.568   0.852 -2.1342  1.4689 -0.4742
 1365SOL     OW 4237   0.863   0.671   0.396  0.1226 -0.2190 -0.2268
 1365SOL    HW1 4238   0.864   0.758   0.437  0.8752 -0.3218 -0.0048
 1365SOL    HW2 4239   0.803   0.680   0.322  1.3269  0.9181 -1.0970
 1366SOL     OW 4240   1.637   1.134   1.250 -0.2298  0.0841  0.4946
 1366SOL    HW1 4241   1.569   1.089   1.298 -0.1376 -2.0571 -1.2262
 1366SOL    HW2 4242   1.591   1.198   1.196 -0.9490 -1.3585 -0.6681
 1367SOL     OW 4243   2.969   1.378   1.700 -0.5556 -0.3513 -0.1737
 1367SOL    HW1 4244   2.966   1.330   1.618 -1.7850  0.9131 -0.9266
 1367SOL    HW2 4245   3.061   1.375   1.726 -0.1625 -0.9137 -1.5150
 1368SOL     OW 4246   2.893   3.680   1.919 -0.3556  0.2479 -0.4549
 1368SOL    HW1 4247   2.828   3.749   1.910 -1.0008 -0.3353 -0.3881
 1368SOL    HW2 4248   2.883   3.649   2.009  1.4609  1.5488  0.2449
 1369SOL     OW 4249   0.620   0.474   2.534 -0.2583  0.1909  0.3657
 1369SOL    HW1 4250   0.623   0.384   2.503 -0.4350  0.7203 -1.2361
 1369SOL    HW2 4251   0.553   0.516   2.481  0.2262  1.4230  0.7004
 1370SOL     OW 4252   1.725   3.251   2.375  0.4678 -0.3877  0.6404
 1370SOL    HW1 4253   1.762   3.233   2.289 -0.8424  1.6765 -0.4420
 1370SOL    HW2 4254   1.632   3.228   2.367 -0.2514  2.2500  0.5959
 1371SOL     OW 4255   0.767   1.029   2.427 -0.4347  0.2686 -0.0183
 1371SOL    HW1 4256   0.773   1.106   2.484 -0.4118  1.7238 -1.8458
 1371SOL    HW2 4257   0.673   1.009   2.423 -0.7844  1.8660 -1.4704
 1372SOL     OW 4258   0.264   2.916   2.103  0.3295 -0.0084 -0.5359
 1372SOL    HW1 4259   0.238   2.824   2.112 -1.2933  0.4755 -0.0468
 1372SOL    HW2 4260   0.352   2.912   2.066  0.7792 -1.7843  0.5875
 1373SOL     OW 4261   2.063   3.570   3.300  0.3376  0.3341 -0.2588
 1373SOL    HW1 4262   2.065   3.649   3.246  1.4810  0.1943 -0.4351
 1373SOL    HW2 4263   2.132   3.584   3.365 -2.5704  1.6502  2.8721
 1374SOL     OW 4264   0.161   2.389   3.059  0.4784 -0.7694 -0.0426
 1374SOL    HW1 4265   0.200   2.423   3.139  0.3825  0.0377 -0.3292
 1374SOL    HW2 4266   0.117   2.308   3.086  0.3748 -0.4583  0.7330
 1375SOL     OW 4267   0.247   2.912   2.963  0.7700  0.3564 -0.5366
 1375SOL    HW1 4268   0.158   2.930   2.993  0.8425 -1.0476  0.6510
 1375SOL    HW2 4269   0.289   2.868   3.037  2.3123  0.5745 -1.2376
 1376SOL     OW 4270   2.288   1.907   2.912 -0.3274 -0.3450 -0.0276
 1376SOL    HW1 4271   2.325   1.974   2.854  2.2214 -0.6421  1.0793
 1376SOL    HW2 4272   2.353   1.899   2.983 -0.6089 -3.8314  0.0151
 1377SOL     OW 4273   2.809   0.361   1.740  0.0783 -0.7635 -0.3720
 1377SOL    HW1 4274   2.823   0.455   1.742  1.0335 -0.8825 -1.0662
 1377SOL    HW2 4275   2.716   0.350   1.760  0.3365  0.2103  1.5257
 1378SOL     OW 4276   3.445   3.486   1.382 -0.2581  0.6942 -0.2896
 1378SOL    HW1 4277   3.387   3.554   1.417  2.3250  2.2601  1.3063
 1378SOL    HW2 4278   3.467   3.432   1.457 -0.2620 -0.3674 -1.0299
 1379SOL     OW 4279   1.835   0.186   2.330 -0.1159  0.5596 -0.1048
 1379SOL    HW1 4280   1.863   0.211   2.242 -0.7046  0.6011 -0.2843
 1379SOL    HW2 4281   1.904   0.127   2.361 -0.7959 -0.9478 -1.3195
 1380SOL     OW 4282   2.420   0.799   0.653  0.2031  0.0022  0.4798
 1380SOL    HW1 4283   2.331   0.793   0.619  0.7003  1.6178 -1.3327
 1380SOL    HW2 4284   2.410   0.803   0.748 -1.5682 -0.7544  0.3510
 1381SOL     OW 4285   0.934   1.575   2.953  0.0869 -0.1707  0.1140
 1381SOL    HW1 4286   0.845   1.545   2.970 -0.1934  0.2190 -0.6119
 1381SOL    HW2 4287   0.924   1.640   2.884  1.1526 -1.5514 -1.3936
 1382SOL     OW 4288   2.507   0.397   1.750 -0.2615 -0.1228  0.5963
 1382SOL    HW1 4289   2.537   0.450   1.676  0.0722 -1.2153 -0.0719
 1382SOL    HW2 4290   2.519   0.453   1.826 -4.4945  2.6818 -0.4854
 1383SOL     OW 4291   0.876   2.212   0.525 -0.2232  0.3862  0.2504
 1383SOL    HW1 4292   0.785   2.193   0.500 -0.1029 -2.1982  1.4952
 1383SOL    HW2 4293   0.879   2.307   0.534 -1.9414  0.8860 -2.9123
 1384SOL     OW 4294   0.574   3.357   3.362 -0.3018 -0.2265  0.6794
 1384SOL    HW1 4295   0.517   3.290   3.323 -1.2510  1.5914 -1.3111
 1384SOL    HW2 4296   0.516   3.409   3.418 -0.2543  0.6027 -0.0119
 1385SOL     OW 4297   0.693   1.522   1.728 -0.6547  0.3395 -0.0480
 1385SOL    HW1 4298   0.788   1.508   1.727 -0.4307  1.3403 -2.8626
 1385SOL    HW2 4299   0.656   1.434   1.733  0.4001 -0.0886  0.7816
 1386SOL     OW 4300   1.558   1.845   3.058 -0.1520  0.0857 -0.1222
 1386SOL    HW1 4301   1.563   1.845   2.963  1.3397  2.1955 -0.1042
 1386SOL    HW2 4302   1.626   1.905   3.086 -0.3051 -0.7642  2.3244
 1387SOL     OW 4303   3.073   2.136   0.627  0.3192  0.0371  0.1462
 1387SOL    HW1 4304   3.044   2.219   0.664  3.0563 -0.5468  4.2223
 1387SOL    HW2 4305   3.119   2.160   0.547 -0.8489  2.1501  0.0394
 1388SOL     OW 4306   3.523   2.948   0.040  0.1927  0.4536  0.0593
 1388SOL    HW1 4307   3.517   3.043   0.051  0.9329  0.7697 -1.8595
 1388SOL    HW2 4308   3.599   2.935  -0.017  0.4769 -1.3457  0.7725
 1389SOL     OW 4309   1.053   2.174   2.777  0.8578 -0.3738  0.0809
 1389SOL    HW1 4310   1.118   2.208   2.838 -0.1518 -0.5533  1.2789
 1389SOL    HW2 4311   1.068   2.080   2.776  0.2309 -0.4895  0.8372
 1390SOL     OW 4312   0.585   1.826   0.057 -0.0498  0.8546 -0.1256
 1390SOL    HW1 4313   0.647   1.755   0.041 -0.4543  0.5261 -0.2543
 1390SOL    HW2 4314   0.583   1.874  -0.026 -1.5327 -0.3720 -0.8696
 1391SOL     OW 4315   1.849   3.489   1.520  0.0550 -0.1430 -0.3773
 1391SOL    HW1 4316   1.806   3.460   1.439  0.7697  1.4621 -1.4002
 1391SOL    HW2 4317   1.941   3.464   1.508  0.0952 -0.2372  0.1219
 1392SOL     OW 4318   2.003   2.955   3.069  0.2641  0.9950 -0.5539
 1392SOL    HW1 4319   1.975   2.997   3.150 -2.3399 -1.4266 -0.0288
 1392SOL    HW2 4320   2.098   2.961   3.069  0.1623  4.5890  0.6191
 1393SOL     OW 4321   1.436   0.160   1.882  0.5160 -0.0603  0.4955
 1393SOL    HW1 4322   1.340   0.160   1.874  0.6134 -0.1934 -0.9317
 1393SOL    HW2 4323   1.452   0.166   1.976 -0.8853  1.0032  0.7044
 1394SOL     OW 4324   1.528   2.879   3.328 -0.6120  0.1163 -0.4716
 1394SOL    HW1 4325   1.479   2.870   3.247 -1.0184  2.0839 -0.5036
 1394SOL    HW2 4326   1.495   2.960   3.367  2.4086  1.4307 -0.3876
 1395SOL     OW 4327   2.963   1.708   3.292 -0.4455  0.4584  0.0210
 1395SOL    HW1 4328   2.894   1.744   3.348  1.4165  1.0661  2.0866
 1395SOL    HW2 4329   3.024   1.780   3.280  0.6920 -0.5250 -0.2815
 1396SOL     OW 4330   3.482   2.163   3.423  0.2478 -0.1076 -0.1884
 1396SOL    HW1 4331   3.503   2.155   3.516  1.3688 -1.9134 -0.5441
 1396SOL    HW2 4332   3.540   2.100   3.380  0.7200  1.6413 -2.2658
 1397SOL     OW 4333   0.503   2.567   3.538 -0.3024  0.5694 -0.3808
 1397SOL    HW1 4334   0.432   2.504   3.549  0.3953  0.1283  2.6564
 1397SOL    HW2 4335   0.575   2.517   3.500 -1.0864  0.6422 -2.0127
 1398SOL     OW 4336   0.359   2.024   3.403 -0.6984 -0.2140  0.4533
 1398SOL    HW1 4337   0.277   1.984   3.373 -0.0846 -1.0679 -0.1054
 1398SOL    HW2 4338   0.374   2.096   3.341 -1.0204 -0.0546  0.5576
 1399SOL     OW 4339   1.976   1.124   0.173 -0.0176  0.1976 -0.2273
 1399SOL    HW1 4340   1.915   1.197   0.175 -1.1666 -0.7025 -0.9704
 1399SOL    HW2 4341   1.935   1.059   0.116  0.4146 -1.4940  1.2725
 1400SOL     OW 4342   1.432   1.021   3.651  0.8753  0.4298  0.4183
 1400SOL    HW1 4343   1.390   1.026   3.564  0.8382  0.7173  0.4512
 1400SOL    HW2 4344   1.422   1.110   3.687  3.1928  1.0614 -0.3464
 1401SOL     OW 4345   0.870   0.256   2.704 -0.3668  0.0890  0.2238
 1401SOL    HW1 4346   0.902   0.251   2.795 -2.5786  0.0598  1.0598
 1401SOL    HW2 4347   0.858   0.350   2.689  1.7575  0.2618 -0.7585
 1402SOL     OW 4348   2.314   1.458   3.562  0.2898 -0.0187 -0.5381
 1402SOL    HW1 4349   2.355   1.372   3.549 -0.8563 -0.5318 -0.9342
 1402SOL    HW2 4350   2.322   1.475   3.656  1.3800 -0.1062 -0.6095
 1403SOL     OW 4351   0.450   2.958   0.757  0.6632  0.0069 -0.2498
 1403SOL    HW1 4352   0.539   2.991   0.747  1.3796 -1.8525 -0.2713
 1403SOL    HW2 4353   0.455   2.865   0.736 -1.0654 -0.3881  0.8337
 1404SOL     OW 4354   1.733   0.340   2.714 -0.3682 -0.2236  0.4710
 1404SOL    HW1 4355   1.718   0.366   2.623  1.9622  0.7512  0.3006
 1404SOL    HW2 4356   1.765   0.420   2.756 -0.2895 -0.9725  1.8736
 1405SOL     OW 4357   0.861   0.128   1.836  0.3026 -0.2107  0.2519
 1405SOL    HW1 4358   0.804   0.187   1.786 -0.3062 -1.6041 -0.7600
 1405SOL    HW2 4359   0.848   0.155   1.927 -0.4597  0.7819 -0.1257
 1406SOL     OW 4360   0.555   3.338   2.611 -0.2474  0.1948  0.0774
 1406SOL    HW1 4361   0.631   3.285   2.635 -2.3942 -2.8958  0.6746
 1406SOL    HW2 4362   0.540   3.318   2.518 -0.2197  0.9606 -0.0977
 1407SOL     OW 4363   1.400   1.383   0.480 -0.3958 -0.1361  0.3402
 1407SOL    HW1 4364   1.400   1.411   0.571 -1.1059  1.9130 -0.2362
 1407SOL    HW2 4365   1.314   1.343   0.467 -0.9111  0.9807  0.2004
 1408SOL     OW 4366   3.057   0.102   0.715 -0.2945  0.0275  0.2097
 1408SOL    HW1 4367   3.029   0.122   0.626 -0.0662 -0.3128  0.0604
 1408SOL    HW2 4368   3.129   0.040   0.705  0.5759  0.9405  0.5896
 1409SOL     OW 4369   0.325   2.515   3.266  0.4951 -0.0206 -0.1121
 1409SOL    HW1 4370   0.239   2.557   3.260 -0.5452 -2.0893 -0.7770
 1409SOL    HW2 4371   0.387   2.585   3.244 -0.9727  1.5833  0.5800
 1410SOL     OW 4372   2.717   0.828   1.981  0.5531 -0.0099 -0.1902
 1410SOL    HW1 4373   2.760   0.913   1.971  1.9364 -0.5089  1.2489
 1410SOL    HW2 4374   2.645   0.845   2.042 -0.9455  0.6466 -1.9906
 1411SOL     OW 4375   2.116   3.448   1.439 -0.5727 -0.1633 -0.2496
 1411SOL    HW1 4376   2.183   3.517   1.437 -1.7547  1.0819  1.1171
 1411SOL    HW2 4377   2.164   3.369   1.464  0.4535  0.6062  0.2792
 1412SOL     OW 4378   3.754   3.211   1.634  0.2887 -0.0975 -0.2315
 1412SOL    HW1 4379   3.683   3.270   1.610  0.4252  1.8436  3.4630
 1412SOL    HW2 4380   3.722   3.124   1.611 -3.2101  0.7227  0.9883
 1413SOL     OW 4381   0.625   3.613   2.376 -0.2193 -0.0691 -0.2333
 1413SOL    HW1 4382   0.676   3.647   2.449 -0.2253 -0.2330 -0.1515
 1413SOL    HW2 4383   0.594   3.528   2.407 -0.1642 -0.1690 -0.4519
 1414SOL     OW 4384   0.106   0.960   1.361  0.0385  0.5534 -0.0512
 1414SOL    HW1 4385   0.172   0.892   1.355 -1.3445 -0.7657 -1.3363
 1414SOL    HW2 4386   0.113   1.009   1.278 -0.2794  0.6974  0.0028
 1415SOL     OW 4387   1.296   3.464   3.683  0.6169 -0.8842 -0.4418
 1415SOL    HW1 4388   1.382   3.504   3.696  0.5934 -1.6788  3.0084
 1415SOL    HW2 4389   1.286   3.404   3.756 -2.1266 -2.2459 -1.8004
 1416SOL     OW 4390   1.442   0.489   0.356  0.0544  0.5902 -0.0106
 1416SOL    HW1 4391   1.389   0.427   0.305  1.1575  0.8682 -1.5646
 1416SOL    HW2 4392   1.379   0.555   0.386 -0.5240  0.9367 -1.8342
 1417SOL     OW 4393   0.480   3.059   2.722  0.5610 -0.0250  0.1612
 1417SOL    HW1 4394   0.496   3.079   2.814  2.0336  1.8698 -0.4498
 1417SOL    HW2 4395   0.385   3.061   2.713  0.4490  1.1418  1.3679
 1418SOL     OW 4396   3.232   1.230   1.654 -0.3308 -0.1127 -0.1495
 1418SOL    HW1 4397   3.247   1.242   1.560 -0.7565  1.0776 -0.0912
 1418SOL    HW2 4398   3.300   1.284   1.696  0.2494 -1.1313  0.2437
 1419SOL     OW 4399   1.383   2.881   0.093 -0.2946  0.1052 -0.4602
 1419SOL    HW1 4400   1.353   2.971   0.082 -0.9401 -0.3224 -2.5894
 1419SOL    HW2 4401   1.471   2.880   0.054  0.1308  0.0133  0.4650
 1420SOL     OW 4402   0.439   1.452   0.996  0.5889 -0.4653 -0.3157
 1420SOL    HW1 4403   0.466   1.395   1.068  2.2451  0.8819  0.1962
 1420SOL    HW2 4404   0.454   1.541   1.029 -2.6572  0.3761 -0.7777
 1421SOL     OW 4405   1.158   0.137   0.964  0.7274  0.6351 -0.5685
 1421SOL    HW1 4406   1.225   0.167   0.903  1.9627 -0.3596  0.2471
 1421SOL    HW2 4407   1.203   0.073   1.019 -0.6461  0.6742  0.6516
 1422SOL     OW 4408   0.068   3.207   2.075 -0.2135  0.2270 -0.9009
 1422SOL    HW1 4409  -0.008   3.155   2.101  0.9543 -0.7720  0.6396
 1422SOL    HW2 4410   0.098   3.166   1.994  0.3587 -1.1887 -0.0048
 1423SOL     OW 4411   3.144   2.001   1.985  0.2844  0.2067  0.1435
 1423SOL    HW1 4412   3.116   2.085   1.949  0.2729  0.0450 -0.2316
 1423SOL    HW2 4413   3.236   2.013   2.006 -0.2250  1.0044  2.1524
 1424SOL     OW 4414   1.345   3.121   3.439  0.7637 -0.0529  0.0880
 1424SOL    HW1 4415   1.313   3.211   3.430  0.6136 -0.1405 -0.2414
 1424SOL    HW2 4416   1.327   3.099   3.531 -0.5868 -0.2700 -0.2037
 1425SOL     OW 4417   0.077   3.520   1.018 -0.1605 -0.3851 -0.9590
 1425SOL    HW1 4418   0.014   3.480   1.078 -2.2196 -0.0036 -2.7676
 1425SOL    HW2 4419   0.081   3.612   1.044 -1.5325 -0.0803 -1.7323
 1426SOL     OW 4420   3.269   1.168   0.047  0.3159 -0.2815  0.3357
 1426SOL    HW1 4421   3.319   1.243   0.013  0.1648 -0.5494 -0.5123
 1426SOL    HW2 4422   3.335   1.111   0.085  0.4521  0.2087  0.8461
 1427SOL     OW 4423   3.271   3.713   0.056  0.3445 -0.2904 -0.0373
 1427SOL    HW1 4424   3.192   3.672   0.092  2.3636 -0.9759  4.3216
 1427SOL    HW2 4425   3.257   3.807   0.067  0.5546 -0.4514  2.1342
 1428SOL     OW 4426   0.373   3.635   1.506  0.0787  0.2450 -0.4797
 1428SOL    HW1 4427   0.439   3.702   1.529  0.7103 -0.3779 -0.4529
 1428SOL    HW2 4428   0.382   3.569   1.575 -0.5950  0.1620 -0.4687
 1429SOL     OW 4429   0.546   3.014   2.213 -0.8274 -0.5391 -0.7173
 1429SOL    HW1 4430   0.509   2.926   2.221 -0.6070 -0.7538 -1.9197
 1429SOL    HW2 4431   0.585   3.016   2.126  2.5834 -0.5238  0.6820
 1430SOL     OW 4432   0.016   1.708   2.683  0.1769  0.0878  0.0958
 1430SOL    HW1 4433   0.010   1.707   2.778  0.0808 -1.1419  0.0913
 1430SOL    HW2 4434   0.074   1.781   2.663 -2.3361  2.4848  0.9115
 1431SOL     OW 4435   3.191   1.451   2.674  0.3971  0.0516  0.0911
 1431SOL    HW1 4436   3.202   1.544   2.651  1.3987 -0.1444 -0.2686
 1431SOL    HW2 4437   3.277   1.424   2.705 -0.5698  0.0108  3.1218
 1432SOL     OW 4438   0.787   2.398   1.143 -0.0125 -0.0554  0.1405
 1432SOL    HW1 4439   0.752   2.468   1.087  2.5286  0.5770 -0.7954
 1432SOL    HW2 4440   0.858   2.359   1.092 -0.6977 -2.6949  1.0708
 1433SOL     OW 4441   3.138   0.150   1.307 -0.2785 -0.7924 -0.3757
 1433SOL    HW1 4442   3.180   0.077   1.261  1.2923  0.0077 -0.2711
 1433SOL    HW2 4443   3.168   0.142   1.397  0.3993  0.3020 -0.4850
 1434SOL     OW 4444   2.880   3.108   0.457  0.5602  0.4956  0.0580
 1434SOL    HW1 4445   2.940   3.106   0.531  2.2501  0.3286 -1.2700
 1434SOL    HW2 4446   2.852   3.199   0.451 -1.0066  0.2305  1.9112
 1435SOL     OW 4447   1.992   2.543   1.043 -0.2237 -0.0933 -0.0279
 1435SOL    HW1 4448   2.064   2.558   1.104  0.8261 -1.2517 -0.9351
 1435SOL    HW2 4449   1.923   2.505   1.097  0.2114  0.0824  0.6693
 1436SOL     OW 4450   1.597   1.525   2.464 -0.4263  0.9649 -0.1258
 1436SOL    HW1 4451   1.685   1.511   2.429 -0.4936 -0.8396  0.3763
 1436SOL    HW2 4452   1.538   1.510   2.390 -0.4255 -0.3332  0.1131
 1437SOL     OW 4453   0.616   2.620   3.217 -0.0961 -0.0947  0.1246
 1437SOL    HW1 4454   0.677   2.615   3.291  1.8099  1.8653 -1.1887
 1437SOL    HW2 4455   0.606   2.529   3.188  2.5086 -0.4846  0.1996
 1438SOL     OW 4456   0.294   1.943   2.312 -0.4574  0.4782  0.1141
 1438SOL    HW1 4457   0.204   1.923   2.287 -0.1041  0.7644 -1.4877
 1438SOL    HW2 4458   0.340   1.958   2.229  1.1172  0.1517  0.8813
 1439SOL     OW 4459   0.098   0.601   3.146  0.2849  0.0347  0.8033
 1439SOL    HW1 4460   0.071   0.648   3.068  1.5522 -0.6999 -0.1021
 1439SOL    HW2 4461   0.174   0.648   3.178  0.3372 -0.2195  1.0577
 1440SOL     OW 4462   1.682   1.199   0.101  0.2868 -0.3118 -0.4836
 1440SOL    HW1 4463   1.678   1.107   0.074 -1.8691  0.0262 -1.4732
 1440SOL    HW2 4464   1.623   1.203   0.177  0.2559  0.2891 -0.5422
 1441SOL     OW 4465   3.390   2.939   0.384  0.7508 -0.4262  0.4045
 1441SOL    HW1 4466   3.365   2.869   0.323 -0.9714  0.6727 -0.2206
 1441SOL    HW2 4467   3.485   2.930   0.393  0.6412 -2.5015 -0.0633
 1442SOL     OW 4468   3.231   2.204   3.262  0.7380  0.0474 -0.0084
 1442SOL    HW1 4469   3.289   2.187   3.188 -0.0044 -2.4752 -0.1032
 1442SOL    HW2 4470   3.288   2.201   3.339  1.3107  1.4187 -0.3632
 1443SOL     OW 4471   0.167   2.564   0.502  0.2100  0.5188  0.4380
 1443SOL    HW1 4472   0.108   2.567   0.427  0.9061 -2.5631 -0.3974
 1443SOL    HW2 4473   0.255   2.564   0.463  0.6024 -0.2038  1.2780
 1444SOL     OW 4474   3.397   3.089   2.761  0.3235  0.1060  0.4802
 1444SOL    HW1 4475   3.456   3.112   2.690 -0.2876  0.8758  0.2013
 1444SOL    HW2 4476   3.452   3.088   2.839  0.6242  1.2518  0.2933
 1445SOL     OW 4477   1.354   1.368   1.082 -0.2462  0.1372 -0.1742
 1445SOL    HW1 4478   1.321   1.378   1.171  2.1629  1.3464  0.6673
 1445SOL    HW2 4479   1.396   1.451   1.062  2.1372 -1.1879 -1.1460
 1446SOL     OW 4480   1.994   1.277   3.447 -0.0006 -0.9163 -0.0953
 1446SOL    HW1 4481   2.047   1.306   3.373 -4.0654 -2.3601 -3.9635
 1446SOL    HW2 4482   1.955   1.357   3.482  0.4106 -0.4040 -0.7991
 1447SOL     OW 4483   2.517   3.276   3.594 -0.3738  0.4453  0.3778
 1447SOL    HW1 4484   2.591   3.298   3.536 -0.9539  5.2768  1.0613
 1447SOL    HW2 4485   2.447   3.250   3.534  0.4757  0.4683 -0.6721
 1448SOL     OW 4486   2.423   1.342   2.131 -0.7974  0.0246 -0.0688
 1448SOL    HW1 4487   2.437   1.289   2.052 -2.1819 -0.4833  0.0109
 1448SOL    HW2 4488   2.412   1.279   2.201 -2.7066  0.3628 -0.0121
 1449SOL     OW 4489   2.964   0.544   1.065 -0.2596  0.1056  0.0840
 1449SOL    HW1 4490   3.059   0.536   1.059 -0.2832 -0.5325  0.4526
 1449SOL    HW2 4491   2.950   0.626   1.111  0.1217  0.0940  0.2294
 1450SOL     OW 4492   1.776   1.438   3.518  0.2149  0.5610  0.3758
 1450SOL    HW1 4493   1.770   1.446   3.423 -1.0573 -0.4047  0.3590
 1450SOL    HW2 4494   1.805   1.525   3.547 -0.5455  1.2274 -0.7886
 1451SOL     OW 4495   0.039   1.553   1.487 -0.5324  0.5978  0.4311
 1451SOL    HW1 4496   0.017   1.644   1.465 -1.8084  0.6940  1.9298
 1451SOL    HW2 4497   0.110   1.561   1.551 -1.5217  0.6326  1.5622
 1452SOL     OW 4498   3.269   2.428   0.923  0.2088  0.3440 -0.0684
 1452SOL    HW1 4499   3.239   2.426   0.832  1.9600 -0.9190 -0.6792
 1452SOL    HW2 4500   3.330   2.501   0.926  0.0005  0.5087  0.1474
 1453SOL     OW 4501   2.087   1.051   3.599  0.3849  0.2254 -0.1320
 1453SOL    HW1 4502   2.018   1.019   3.658  0.6390  0.7602  0.4700
 1453SOL    HW2 4503   2.042   1.108   3.537  0.1354 -0.2255 -0.3655
 1454SOL     OW 4504   1.599   3.599   1.238 -0.2163 -0.0964 -0.2460
 1454SOL    HW1 4505   1.678   3.625   1.284  0.3744 -1.8469 -0.2266
 1454SOL    HW2 4506   1.597   3.655   1.160  1.6841 -0.8271 -0.8594
 1455SOL     OW 4507   0.423   3.129   3.277  0.3742 -0.3591 -0.3865
 1455SOL    HW1 4508   0.472   3.108   3.198  0.0977  1.6853 -1.1518
 1455SOL    HW2 4509   0.332   3.132   3.249 -0.1284 -2.7920  0.7441
 1456SOL     OW 4510   3.312   3.400   1.802 -0.0401 -0.3605  0.2833
 1456SOL    HW1 4511   3.289   3.349   1.880  0.1161 -0.1915  0.4392
 1456SOL    HW2 4512   3.231   3.447   1.780 -0.2372 -0.8038  0.0365
 1457SOL     OW 4513   0.383   3.128   0.964  0.4577  0.6851 -0.2498
 1457SOL    HW1 4514   0.469   3.169   0.953  0.3347  0.9184 -0.3453
 1457SOL    HW2 4515   0.376   3.068   0.889  0.7549  0.2805  0.0433
 1458SOL     OW 4516   0.085   3.342   3.444  0.3052  0.2329  0.1936
 1458SOL    HW1 4517   0.094   3.321   3.351 -0.0556  0.4687  0.1029
 1458SOL    HW2 4518  -0.007   3.365   3.454  0.4998  0.9289  0.4573
 1459SOL     OW 4519   1.166   1.877   0.805 -0.0466  0.0839  0.2661
 1459SOL    HW1 4520   1.259   1.899   0.810  0.6516 -2.0959 -1.3300
 1459SOL    HW2 4521   1.127   1.945   0.751  0.4953  1.3039  1.3778
 1460SOL     OW 4522   0.826   2.831   1.571 -0.0052 -0.0931  0.6184
 1460SOL    HW1 4523   0.766   2.894   1.612  0.7545  1.2771 -0.2772
 1460SOL    HW2 4524   0.841   2.765   1.639  0.0541  1.2934  2.0258
 1461SOL     OW 4525   0.908   0.552   2.310 -0.3714  0.0478 -0.2129
 1461SOL    HW1 4526   0.912   0.641   2.347 -0.9980  0.2035 -0.5238
 1461SOL    HW2 4527   0.956   0.498   2.374  0.1960  0.6409 -0.1259
 1462SOL     OW 4528   2.886   2.733   1.614 -0.1958  0.6450 -0.1457
 1462SOL    HW1 4529   2.895   2.828   1.622  1.5423  0.4171  1.2437
 1462SOL    HW2 4530   2.869   2.704   1.704  0.0598 -0.4096 -0.4316
 1463SOL     OW 4531   2.811   1.925   1.385  0.2978 -0.3072 -0.3088
 1463SOL    HW1 4532   2.884   1.901   1.442  0.0548  1.4651  0.8118
 1463SOL    HW2 4533   2.792   1.845   1.336  2.1683 -1.1634  0.2681
 1464SOL     OW 4534   3.526   0.461   3.308  0.0558  0.0070  0.4366
 1464SOL    HW1 4535   3.526   0.543   3.358  0.1063 -0.9379  2.0350
 1464SOL    HW2 4536   3.436   0.428   3.315 -0.6305  1.0558 -2.2213
 1465SOL     OW 4537   1.195   2.575   3.041 -0.4306  0.8368 -0.3691
 1465SOL    HW1 4538   1.185   2.628   2.961 -0.0879 -0.7062 -1.4743
 1465SOL    HW2 4539   1.289   2.569   3.054 -0.4930  1.5543  0.5088
 1466SOL     OW 4540   1.761   1.827   0.219 -0.1361 -0.5031  0.7032
 1466SOL    HW1 4541   1.746   1.895   0.154  1.1020 -1.4182 -0.6006
 1466SOL    HW2 4542   1.834   1.860   0.271  0.9085 -1.0708 -0.3490
 1467SOL     OW 4543   1.272   0.659   0.464 -0.0681 -0.3758  0.0894
 1467SOL    HW1 4544   1.268   0.749   0.497  0.0672 -0.8439  1.4170
 1467SOL    HW2 4545   1.204   0.656   0.396  0.8107  1.0774 -0.9131
 1468SOL     OW 4546   0.246   3.332   0.613 -0.0852  0.0310 -0.3091
 1468SOL    HW1 4547   0.327   3.325   0.665 -0.4219 -0.8200  0.1259
 1468SOL    HW2 4548   0.176   3.335   0.678 -0.3975  1.1203 -0.6765
 1469SOL     OW 4549   2.582   2.092   1.682  0.1982 -0.0612 -0.3029
 1469SOL    HW1 4550   2.506   2.140   1.716  0.5719 -0.2642  0.8510
 1469SOL    HW2 4551   2.556   2.068   1.593 -0.5005  1.1580 -0.4603
 1470SOL     OW 4552   1.473   1.353   1.404  0.6201  0.4237 -0.7517
 1470SOL    HW1 4553   1.552   1.354   1.350  1.5875  0.0996  0.5967
 1470SOL    HW2 4554   1.506   1.341   1.493 -1.0463 -1.2041 -0.3056
 1471SOL     OW 4555   1.928   2.280   3.575  0.4266  0.5779  0.7141
 1471SOL    HW1 4556   2.018   2.249   3.572  0.0626 -0.9679  2.8545
 1471SOL    HW2 4557   1.900   2.284   3.484  2.2287 -0.2428  0.0853
 1472SOL     OW 4558   2.416   1.903   3.679  0.0658  0.2911  0.1341
 1472SOL    HW1 4559   2.391   1.810   3.683 -0.8255  0.5508  0.9524
 1472SOL    HW2 4560   2.360   1.941   3.612  1.5984 -0.0781 -1.4252
 1473SOL     OW 4561   2.754   1.765   1.149  0.0110 -0.0964  0.5067
 1473SOL    HW1 4562   2.676   1.808   1.114 -1.6258 -2.7809  0.6096
 1473SOL    HW2 4563   2.815   1.760   1.075  0.8837  3.4363  0.8064
 1474SOL     OW 4564   1.238   0.529   1.405 -0.0079 -0.4157 -0.7172
 1474SOL    HW1 4565   1.219   0.504   1.315 -1.6465 -0.4552 -0.3848
 1474SOL    HW2 4566   1.232   0.448   1.455 -1.1736 -0.0731 -0.2711
 1475SOL     OW 4567   2.046   2.161   2.414 -0.8170  0.6990 -0.1551
 1475SOL    HW1 4568   2.084   2.122   2.493  0.4583  0.1040 -1.0434
 1475SOL    HW2 4569   1.970   2.105   2.394 -0.0365 -0.2926 -0.4099
 1476SOL     OW 4570   2.137   2.411   2.829 -0.3164 -0.0160 -0.7967
 1476SOL    HW1 4571   2.196   2.393   2.902 -0.9394  1.2468  0.0515
 1476SOL    HW2 4572   2.195   2.428   2.755  0.3814  0.4275 -0.1620
 1477SOL     OW 4573   3.552   0.732   3.563  0.0240 -0.2395  0.9109
 1477SOL    HW1 4574   3.557   0.745   3.468  0.5020  0.3155  1.0028
 1477SOL    HW2 4575   3.480   0.671   3.575  1.9320 -2.8588 -0.0292
 1478SOL     OW 4576   0.370   3.359   3.009  0.6765  0.1868 -0.3269
 1478SOL    HW1 4577   0.408   3.412   2.939  0.9041 -2.4323 -2.3234
 1478SOL    HW2 4578   0.279   3.346   2.984 -0.3321  2.2608  1.8719
 1479SOL     OW 4579   1.448   0.699   1.397 -0.2192  0.0810 -0.3863
 1479SOL    HW1 4580   1.379   0.638   1.424 -0.5767  0.4642 -0.4235
 1479SOL    HW2 4581   1.452   0.690   1.302  0.9759 -1.2003 -0.2473
 1480SOL     OW 4582   3.418   1.363   1.802 -0.3356  0.0540  0.0618
 1480SOL    HW1 4583   3.489   1.379   1.740 -1.6876  2.6269 -0.9821
 1480SOL    HW2 4584   3.456   1.382   1.888  0.4251  0.7715 -0.4207
 1481SOL     OW 4585   2.902   0.855   0.646 -1.1385 -0.0543  0.2942
 1481SOL    HW1 4586   2.847   0.865   0.723 -0.1555  0.0085  1.0081
 1481SOL    HW2 4587   2.990   0.877   0.676 -0.7988  0.3778 -0.9490
 1482SOL     OW 4588   1.933   0.577   3.426  0.3403 -0.4762 -0.2751
 1482SOL    HW1 4589   1.892   0.547   3.507 -0.4774  1.8288  0.2273
 1482SOL    HW2 4590   1.883   0.654   3.400  1.0461 -0.7116 -2.6047
 1483SOL     OW 4591   2.519   2.996   1.015  0.5737  0.2354  0.1814
 1483SOL    HW1 4592   2.503   2.926   0.952  2.5330  2.0560 -2.5663
 1483SOL    HW2 4593   2.562   3.065   0.964  0.8168  2.5313  3.2105
 1484SOL     OW 4594   0.297   3.686   2.427 -0.1536  0.2940  0.0232
 1484SOL    HW1 4595   0.389   3.708   2.440  0.1578 -0.5699 -0.6342
 1484SOL    HW2 4596   0.292   3.656   2.336 -0.6296 -1.7612  0.6679
 1485SOL     OW 4597   1.726   0.350   3.123  0.1073 -0.5706 -0.1947
 1485SOL    HW1 4598   1.769   0.267   3.142  1.7758 -0.0301 -1.3639
 1485SOL    HW2 4599   1.796   0.415   3.131 -1.0039  0.6376 -0.0273
 1486SOL     OW 4600   1.721   1.887   2.119  0.1094 -0.7302 -0.0016
 1486SOL    HW1 4601   1.734   1.943   2.042  2.5117 -1.6080 -0.3060
 1486SOL    HW2 4602   1.627   1.895   2.138  0.3241  3.9890  0.4457
 1487SOL     OW 4603   0.015   0.938   3.444  0.2021 -0.1887 -0.5496
 1487SOL    HW1 4604   0.077   0.873   3.477 -1.5680 -1.2464  0.8981
 1487SOL    HW2 4605  -0.024   0.898   3.367  1.5019  0.6181 -1.6621
 1488SOL     OW 4606   2.818   1.966   2.514 -0.1880 -0.2246  0.5393
 1488SOL    HW1 4607   2.810   1.988   2.421  2.7150  1.4826  0.5582
 1488SOL    HW2 4608   2.795   1.873   2.519 -3.2157  0.2829 -1.3222
 1489SOL     OW 4609   0.880   3.325   1.037 -0.1341  0.3768 -0.2159
 1489SOL    HW1 4610   0.813   3.264   1.006 -1.7243  2.3404 -0.8196
 1489SOL    HW2 4611   0.887   3.390   0.967  0.8110  1.4376  0.8389
 1490SOL     OW 4612   0.461   3.304   2.062 -0.2828 -0.1210  0.3483
 1490SOL    HW1 4613   0.537   3.326   2.116 -0.2798  0.6783  0.0225
 1490SOL    HW2 4614   0.386   3.311   2.121 -0.2875  0.8184  0.2446
 1491SOL     OW 4615   0.633   1.424   1.462 -0.7018  0.2155  0.4526
 1491SOL    HW1 4616   0.580   1.417   1.542  0.6231  0.2634  1.3639
 1491SOL    HW2 4617   0.689   1.499   1.477 -1.3787  1.0859 -1.1348
 1492SOL     OW 4618   0.832   1.477   2.450 -0.4644  0.5253 -0.1801
 1492SOL    HW1 4619   0.862   1.387   2.434 -0.5273  0.4622  0.0556
 1492SOL    HW2 4620   0.738   1.474   2.437 -0.8724 -0.0390  2.3562
 1493SOL     OW 4621   2.184   0.538   1.585 -0.3570  0.4066  0.3016
 1493SOL    HW1 4622   2.174   0.630   1.611  0.8032  0.2010  1.6251
 1493SOL    HW2 4623   2.126   0.528   1.510  1.0154  2.7733 -1.2112
 1494SOL     OW 4624   0.230   0.935   2.199  0.0189 -0.4774 -0.0331
 1494SOL    HW1 4625   0.218   0.953   2.293  0.6201 -1.6392  0.2813
 1494SOL    HW2 4626   0.153   0.885   2.175  0.6153 -1.5469  0.2303
 1495SOL     OW 4627   2.566   1.645   0.148 -0.4413  0.6834 -0.0569
 1495SOL    HW1 4628   2.472   1.658   0.132 -0.6096  1.2993  1.3704
 1495SOL    HW2 4629   2.604   1.643   0.060 -1.5510  2.2471 -0.6127
 1496SOL     OW 4630   2.643   1.290   1.651  0.0073 -0.0318  0.1961
 1496SOL    HW1 4631   2.662   1.382   1.668 -0.9566  0.2373 -0.1262
 1496SOL    HW2 4632   2.665   1.276   1.559  0.9575 -0.3533  0.4566
 1497SOL     OW 4633   1.086   3.109   2.271  0.3988 -0.5029  0.4032
 1497SOL    HW1 4634   1.147   3.104   2.197 -2.0055 -0.4560 -1.7117
 1497SOL    HW2 4635   1.040   3.192   2.258 -1.0462 -1.1563  1.1515
 1498SOL     OW 4636   1.351   2.765   2.359 -0.6130  0.0444 -0.3060
 1498SOL    HW1 4637   1.260   2.795   2.360 -0.5767  0.1932 -0.9319
 1498SOL    HW2 4638   1.384   2.786   2.446 -1.6879 -1.6395  0.5611
 1499SOL     OW 4639   3.630   1.450   3.397 -0.1780 -0.0461 -0.2355
 1499SOL    HW1 4640   3.604   1.365   3.431 -0.0402  0.2990  0.7446
 1499SOL    HW2 4641   3.624   1.440   3.302  0.1778 -1.2574 -0.1500
 1500SOL     OW 4642   2.435   2.136   1.060 -0.1258 -0.0049 -0.3424
 1500SOL    HW1 4643   2.436   2.162   0.968  0.5030  2.3374  0.2414
 1500SOL    HW2 4644   2.410   2.216   1.107  0.1131 -0.9848  1.5635
 1501SOL     OW 4645   1.378   1.965   0.329  0.1154 -0.1443  0.2733
 1501SOL    HW1 4646   1.422   1.880   0.337 -0.2618 -0.5620 -1.5579
 1501SOL    HW2 4647   1.325   1.973   0.408 -0.8815 -2.2480 -0.1076
 1502SOL     OW 4648   1.173   3.324   0.146 -0.2171  0.0625  0.1441
 1502SOL    HW1 4649   1.080   3.313   0.125 -0.0231 -0.6215 -0.4163
 1502SOL    HW2 4650   1.183   3.280   0.231 -0.1714 -1.0018 -0.3892
 1503SOL     OW 4651   1.343   3.575   0.463 -0.1428  0.4172  0.2104
 1503SOL    HW1 4652   1.414   3.534   0.414 -1.1434 -1.1374  0.0112
 1503SOL    HW2 4653   1.291   3.502   0.496 -0.9918  1.5009  1.3546
 1504SOL     OW 4654   2.962   0.767   0.387  0.1282 -0.1165 -0.1867
 1504SOL    HW1 4655   3.043   0.818   0.381  0.6730 -0.6543  1.8303
 1504SOL    HW2 4656   2.910   0.813   0.453 -0.9450 -0.1539 -0.9914
 1505SOL     OW 4657   0.425   2.484   2.953 -0.0859  0.4941  0.6162
 1505SOL    HW1 4658   0.366   2.558   2.972  0.9245  1.1774  1.1550
 1505SOL    HW2 4659   0.393   2.413   3.008 -0.6902  0.7089  0.5549
 1506SOL     OW 4660   0.677   1.316   0.792  0.4248 -0.3532 -0.4674
 1506SOL    HW1 4661   0.595   1.344   0.752 -0.2124  0.0517  1.0321
 1506SOL    HW2 4662   0.744   1.372   0.752 -0.1730  0.0337 -0.9444
 1507SOL     OW 4663   3.534   2.036   2.415  0.1832  0.3857 -1.0523
 1507SOL    HW1 4664   3.496   2.124   2.421 -0.5483 -0.0150  1.0692
 1507SOL    HW2 4665   3.469   1.979   2.457  1.6760 -0.7941 -0.2334
 1508SOL     OW 4666   3.153   1.914   3.222 -0.0816  0.8276 -0.1153
 1508SOL    HW1 4667   3.184   1.998   3.257  2.8395  0.7599 -2.2839
 1508SOL    HW2 4668   3.158   1.923   3.127 -1.8326 -1.1056 -0.4763
 1509SOL     OW 4669   0.420   1.071   1.887 -0.5443 -0.5466 -0.6550
 1509SOL    HW1 4670   0.426   1.031   1.800 -1.4068 -0.8491 -0.5816
 1509SOL    HW2 4671   0.335   1.044   1.920 -0.2527 -0.3759  0.2614
 1510SOL     OW 4672   3.361   2.531   0.401  0.2615  0.2489 -0.2871
 1510SOL    HW1 4673   3.329   2.611   0.359 -0.5224  0.3652  0.4922
 1510SOL    HW2 4674   3.337   2.461   0.341  1.9627  0.6615 -1.5378
 1511SOL     OW 4675   0.412   0.262   0.281  0.4704 -0.5969 -0.1425
 1511SOL    HW1 4676   0.329   0.245   0.235  0.2734 -2.1927  0.7382
 1511SOL    HW2 4677   0.397   0.229   0.369  1.7644 -0.0964  0.2736
 1512SOL     OW 4678   1.327   1.689   0.998 -0.0048 -0.5902 -0.3280
 1512SOL    HW1 4679   1.317   1.784   0.993 -1.8695 -0.8159 -1.7998
 1512SOL    HW2 4680   1.326   1.670   1.092 -0.9335  0.7320 -0.0445
 1513SOL     OW 4681   3.023   0.012   3.163  0.7057  0.1062  1.1112
 1513SOL    HW1 4682   3.115   0.029   3.141  0.4243  1.4528  0.8471
 1513SOL    HW2 4683   3.003   0.079   3.229 -0.8628  1.7514 -0.8943
 1514SOL     OW 4684   0.112   0.308   2.583  0.3139  0.2017 -0.2250
 1514SOL    HW1 4685   0.025   0.288   2.618  0.4080 -0.8935 -0.5875
 1514SOL    HW2 4686   0.163   0.228   2.596  1.1501  0.6873 -0.3986
 1515SOL     OW 4687   1.255   1.229   1.516 -0.3086  0.7144 -0.8387
 1515SOL    HW1 4688   1.201   1.300   1.550 -1.0125  0.6735 -1.8206
 1515SOL    HW2 4689   1.329   1.272   1.474  0.0654  0.7972 -0.1123
 1516SOL     OW 4690   2.376   1.787   3.317 -0.4649 -0.5182  0.1859
 1516SOL    HW1 4691   2.333   1.862   3.358  0.7515 -0.8999  2.3323
 1516SOL    HW2 4692   2.326   1.711   3.347 -1.0549 -0.6679 -1.1195
 1517SOL     OW 4693   2.651   0.082   3.176  0.3786  0.1216  0.6197
 1517SOL    HW1 4694   2.591   0.138   3.125  0.4213  0.4227  0.8951
 1517SOL    HW2 4695   2.647   0.118   3.264  2.1520  1.1307  0.3340
 1518SOL     OW 4696   1.027   1.513   3.222  0.0529 -0.4939 -0.2231
 1518SOL    HW1 4697   1.118   1.543   3.227 -0.4300  0.8371  1.4466
 1518SOL    HW2 4698   0.994   1.551   3.141 -0.0172  2.2130  0.9592
 1519SOL     OW 4699   3.094   2.554   0.666  0.0541  0.2666 -0.2369
 1519SOL    HW1 4700   3.189   2.556   0.664  0.1427 -2.0481 -0.3432
 1519SOL    HW2 4701   3.067   2.622   0.605  1.6996 -1.0198 -2.5206
 1520SOL     OW 4702   1.900   3.243   3.600  0.1402 -0.4643  0.1388
 1520SOL    HW1 4703   1.918   3.149   3.599 -3.6653 -1.3565 -2.0466
 1520SOL    HW2 4704   1.937   3.276   3.518 -0.4374 -0.5201 -0.1472
 1521SOL     OW 4705   2.176   0.668   0.518 -0.0717  0.5132 -0.8608
 1521SOL    HW1 4706   2.128   0.708   0.446 -1.6010 -0.4116 -0.4045
 1521SOL    HW2 4707   2.236   0.606   0.476  0.8319  1.7512 -1.4468
 1522SOL     OW 4708   1.141   3.242   1.082 -0.0309  0.1554 -0.6744
 1522SOL    HW1 4709   1.045   3.243   1.087 -0.0388 -2.0521  1.7313
 1522SOL    HW2 4710   1.163   3.154   1.053  1.2732  0.0333  0.5998
 1523SOL     OW 4711   0.525   2.199   0.800 -0.1598  0.3613  0.1969
 1523SOL    HW1 4712   0.520   2.292   0.779 -0.1612 -0.0550 -1.8020
 1523SOL    HW2 4713   0.608   2.190   0.848  0.1349  1.2921 -0.1149
 1524SOL     OW 4714   2.613   1.090   1.143 -0.1725  0.2260  0.7271
 1524SOL    HW1 4715   2.600   1.081   1.049 -0.9690  3.4178  0.3850
 1524SOL    HW2 4716   2.527   1.116   1.176  0.3796  0.3169  2.1332
 1525SOL     OW 4717   1.118   0.413   0.570 -0.6844  0.7443 -0.7041
 1525SOL    HW1 4718   1.040   0.409   0.626 -0.1841 -0.6614 -0.0628
 1525SOL    HW2 4719   1.133   0.506   0.556  0.1021  1.3061  2.8804
 1526SOL     OW 4720   3.255   3.151   1.214  0.1212 -1.0959 -0.2321
 1526SOL    HW1 4721   3.193   3.187   1.151 -0.8232 -3.0237 -0.4863
 1526SOL    HW2 4722   3.304   3.085   1.165 -0.3670 -2.3669  0.9157
 1527SOL     OW 4723   1.207   0.373   3.653 -0.1323 -0.0296 -0.3050
 1527SOL    HW1 4724   1.119   0.341   3.673 -0.6045  0.4866 -1.4522
 1527SOL    HW2 4725   1.261   0.294   3.651 -0.4996 -0.3241  0.6727
 1528SOL     OW 4726   2.862   1.402   2.187  0.1552  0.1572 -0.4136
 1528SOL    HW1 4727   2.790   1.427   2.128  0.1994 -0.5656 -0.7887
 1528SOL    HW2 4728   2.824   1.408   2.275  0.1591  1.4933 -0.4794
 1529SOL     OW 4729   3.738   0.643   1.017 -0.0635 -0.4647 -0.1685
 1529SOL    HW1 4730   3.738   0.738   1.005 -2.8718 -0.1756  1.3715
 1529SOL    HW2 4731   3.656   0.614   0.978 -0.5578 -1.8590  1.7677
 1530SOL     OW 4732   1.178   0.720   1.913  0.5285  0.4165  0.1194
 1530SOL    HW1 4733   1.181   0.640   1.964 -1.6973  1.1883  1.6282
 1530SOL    HW2 4734   1.172   0.690   1.822 -1.1534 -1.1985  0.6981
 1531SOL     OW 4735   3.327   0.515   0.724  0.2768  0.3525  0.7754
 1531SOL    HW1 4736   3.255   0.544   0.667  0.4350  0.2917  0.5432
 1531SOL    HW2 4737   3.284   0.467   0.794  0.0759  0.4617  0.7288
 1532SOL     OW 4738   3.634   1.706   1.717  0.9392  0.0459  0.1251
 1532SOL    HW1 4739   3.651   1.798   1.736  1.5188 -0.3540  1.7215
 1532SOL    HW2 4740   3.582   1.707   1.636  1.4371  1.7242 -0.2162
 1533SOL     OW 4741   2.059   0.079   2.506 -0.3934 -0.0036 -0.4306
 1533SOL    HW1 4742   2.087  -0.010   2.528 -0.7748 -0.4599 -1.7418
 1533SOL    HW2 4743   2.129   0.113   2.450  1.9585  2.1411  3.3245
 1534SOL     OW 4744   2.155   2.998   0.078  0.5015 -0.9107  0.4434
 1534SOL    HW1 4745   2.133   2.913   0.041 -2.0558  0.2057 -0.8328
 1534SOL    HW2 4746   2.194   3.046   0.005  1.5390 -0.8070  1.0438
 1535SOL     OW 4747   3.115   3.237   3.510  0.3200 -0.2991  0.2560
 1535SOL    HW1 4748   3.076   3.156   3.544 -1.1794 -0.5617 -1.8882
 1535SOL    HW2 4749   3.154   3.278   3.587  0.7405 -2.8162  1.5147
 1536SOL     OW 4750   1.652   1.776   0.860  0.2580 -0.3855 -0.0398
 1536SOL    HW1 4751   1.573   1.819   0.828  0.7282  0.8716  0.4383
 1536SOL    HW2 4752   1.625   1.686   0.879 -1.1061  0.0962  0.3447
 1537SOL     OW 4753   0.112   0.038   2.595  0.2557  0.1065 -0.1787
 1537SOL    HW1 4754   0.026   0.048   2.554 -0.2115  0.3842  0.8542
 1537SOL    HW2 4755   0.167  -0.001   2.526 -0.6476  0.0722 -0.8933
 1538SOL     OW 4756   0.160   0.903   1.871 -0.6448 -0.4094 -0.2255
 1538SOL    HW1 4757   0.143   0.941   1.785  1.4671  0.1977 -0.4152
 1538SOL    HW2 4758   0.171   0.809   1.853  0.3073 -0.2154 -0.7160
 1539SOL     OW 4759   1.303   2.202   3.106 -0.1628  0.3535  0.0770
 1539SOL    HW1 4760   1.290   2.201   3.011  1.0435  1.6936 -0.1362
 1539SOL    HW2 4761   1.295   2.111   3.133 -0.9864  0.0204 -1.2442
 1540SOL     OW 4762   1.034   1.319   2.897 -0.7024 -0.4713 -0.1337
 1540SOL    HW1 4763   1.011   1.409   2.919  0.6551 -0.4226  1.2667
 1540SOL    HW2 4764   0.976   1.296   2.825  0.0091  2.0778 -1.6382
 1541SOL     OW 4765   0.939   2.663   2.656 -0.2582  0.3046  0.2720
 1541SOL    HW1 4766   0.915   2.702   2.740 -3.9921 -0.5462 -0.2223
 1541SOL    HW2 4767   0.886   2.710   2.592  0.8475 -0.5501 -1.3347
 1542SOL     OW 4768   2.713   1.432   0.217 -0.3021  0.0339 -0.4375
 1542SOL    HW1 4769   2.651   1.500   0.190 -0.0215  0.0214 -1.1133
 1542SOL    HW2 4770   2.781   1.480   0.265 -1.9790 -0.1914  2.4483
 1543SOL     OW 4771   3.049   0.128   0.225 -0.3604 -0.0144  0.6739
 1543SOL    HW1 4772   3.058   0.153   0.317 -2.4228  0.9809  0.6589
 1543SOL    HW2 4773   2.988   0.193   0.188 -1.3776 -1.7305 -0.8218
 1544SOL     OW 4774   1.841   0.716   0.205  0.1174  0.1947 -0.0837
 1544SOL    HW1 4775   1.828   0.638   0.258  1.2546  0.2182  0.2659
 1544SOL    HW2 4776   1.935   0.736   0.215  0.1358  0.7892 -1.2760
 1545SOL     OW 4777   3.717   0.525   2.744 -0.1713 -0.0697  0.2070
 1545SOL    HW1 4778   3.638   0.484   2.707 -0.1678 -0.1356  0.2714
 1545SOL    HW2 4779   3.781   0.454   2.747  1.5708  0.9499 -4.4138
 1546SOL     OW 4780   1.519   2.528   2.486  0.6093  0.6789 -0.5837
 1546SOL    HW1 4781   1.553   2.618   2.482  1.2239  0.4350 -0.9356
 1546SOL    HW2 4782   1.446   2.534   2.548  0.1135  1.5866 -1.2311
 1547SOL     OW 4783   1.106   3.644   1.248  0.0231  0.0956 -0.4900
 1547SOL    HW1 4784   1.188   3.648   1.199  0.3960 -0.7108  0.0359
 1547SOL    HW2 4785   1.088   3.550   1.257  1.0648  0.0585  2.6443
 1548SOL     OW 4786   1.035   3.631   2.636 -0.0130  0.6445  0.6515
 1548SOL    HW1 4787   0.983   3.580   2.698 -0.1693  0.3980  0.3210
 1548SOL    HW2 4788   1.095   3.682   2.691 -0.8464  1.2143  1.0642
 1549SOL     OW 4789   1.285   0.056   0.306 -0.0387  0.2196 -0.4636
 1549SOL    HW1 4790   1.241   0.015   0.232 -0.4352  0.9874 -0.6558
 1549SOL    HW2 4791   1.322  -0.018   0.355  1.4469 -0.2376 -2.1607
 1550SOL     OW 4792   1.264   3.330   2.653 -0.1244 -0.1997  0.1230
 1550SOL    HW1 4793   1.349   3.364   2.679 -0.7819  0.1905  1.8698
 1550SOL    HW2 4794   1.246   3.373   2.569  1.5707 -0.6348 -0.4894
 1551SOL     OW 4795   1.446   2.586   3.118 -0.2236  0.3175  0.1355
 1551SOL    HW1 4796   1.522   2.582   3.061 -0.9069 -2.4808 -0.7690
 1551SOL    HW2 4797   1.478   2.557   3.203 -0.1330 -0.4074 -0.1308
 1552SOL     OW 4798   0.847   3.239   3.302  0.1049  0.2606 -0.2495
 1552SOL    HW1 4799   0.758   3.269   3.321  0.0207  1.3407 -2.0564
 1552SOL    HW2 4800   0.835   3.155   3.258 -0.0249  0.3477 -0.3829
 1553SOL     OW 4801   3.354   1.733   1.865  0.0040  0.5087 -0.5531
 1553SOL    HW1 4802   3.425   1.669   1.872 -0.1998  0.2832 -0.5506
 1553SOL    HW2 4803   3.378   1.802   1.927  1.6670  1.8292 -2.5256
 1554SOL     OW 4804   2.306   2.846   0.701 -0.7209  0.6433  0.6908
 1554SOL    HW1 4805   2.373   2.785   0.731  0.5342  1.5073 -0.2834
 1554SOL    HW2 4806   2.236   2.789   0.666 -0.4283 -0.2586  1.5295
 1555SOL     OW 4807   0.652   2.998   1.186  0.3669 -0.3323  0.2580
 1555SOL    HW1 4808   0.643   3.092   1.202  3.5541 -0.0173  0.8096
 1555SOL    HW2 4809   0.566   2.971   1.155 -0.4899  2.8790 -0.5409
 1556SOL     OW 4810   1.212   1.639   0.023 -0.0314 -0.0839  0.4632
 1556SOL    HW1 4811   1.242   1.618   0.111 -0.7711  0.9275  0.9909
 1556SOL    HW2 4812   1.290   1.672  -0.022  0.3298 -0.5166  0.7674
 1557SOL     OW 4813   0.374   2.106   2.790  0.2062  0.3999  0.0300
 1557SOL    HW1 4814   0.467   2.100   2.808  0.2614 -3.0400 -0.7784
 1557SOL    HW2 4815   0.332   2.087   2.874  0.2059  1.3326  0.2518
 1558SOL     OW 4816   2.345   0.894   0.932  0.2188 -0.5679  0.0851
 1558SOL    HW1 4817   2.296   0.812   0.937 -1.4300  0.3753  0.2950
 1558SOL    HW2 4818   2.385   0.903   1.019 -2.3132  0.3891  1.2605
 1559SOL     OW 4819   0.197   1.363   0.888  0.4514  0.1263 -0.0819
 1559SOL    HW1 4820   0.282   1.401   0.912  0.9099  1.4602 -3.2834
 1559SOL    HW2 4821   0.213   1.269   0.881  1.7797  0.3833 -0.8096
 1560SOL     OW 4822   1.958   3.165   1.534 -0.2569  0.1193 -0.1096
 1560SOL    HW1 4823   1.891   3.133   1.474 -0.6551  1.8908 -0.6627
 1560SOL    HW2 4824   1.952   3.261   1.529  0.5356  0.3229  1.8381
 1561SOL     OW 4825   2.580   3.615   3.629  0.3335 -0.6318  0.1765
 1561SOL    HW1 4826   2.501   3.599   3.577  0.6027 -1.7901  0.0966
 1561SOL    HW2 4827   2.627   3.532   3.628  3.0706  0.7566 -2.2215
 1562SOL     OW 4828   0.071   2.554   1.412  0.1531 -0.6121 -0.1953
 1562SOL    HW1 4829   0.102   2.548   1.322  1.4270 -1.6220  0.2944
 1562SOL    HW2 4830   0.004   2.486   1.419 -0.6079  0.0756 -0.6173
 1563SOL     OW 4831   2.747   2.409   3.282  0.5848 -0.1292  0.3412
 1563SOL    HW1 4832   2.804   2.350   3.232  0.5616 -1.1850  1.5124
 1563SOL    HW2 4833   2.709   2.354   3.350 -0.2645  1.0203  0.8358
 1564SOL     OW 4834   1.849   3.713   1.302  0.3536  0.8472  0.1658
 1564SOL    HW1 4835   1.859   3.709   1.397  1.5594 -1.5032  0.0029
 1564SOL    HW2 4836   1.916   3.776   1.274  0.7662  0.7072  0.8002
 1565SOL     OW 4837   2.953   0.650   2.586 -0.5846  0.5250 -0.7672
 1565SOL    HW1 4838   2.889   0.687   2.648  0.8667  0.3949  0.8864
 1565SOL    HW2 4839   2.917   0.565   2.563 -0.2752 -0.2687  1.4571
 1566SOL     OW 4840   0.750   3.138   2.625  0.3515 -0.6106 -0.3498
 1566SOL    HW1 4841   0.822   3.085   2.658 -0.5137 -1.1846  0.6418
 1566SOL    HW2 4842   0.674   3.114   2.679 -0.7108 -0.3733 -1.6755
 1567SOL     OW 4843   3.215   0.473   1.299  0.7272 -0.1102 -0.7808
 1567SOL    HW1 4844   3.184   0.386   1.278  1.1463 -0.3705 -0.3556
 1567SOL    HW2 4845   3.205   0.523   1.218 -0.8095 -0.1617 -0.6436
 1568SOL     OW 4846   1.697   3.322   0.294 -0.0930 -0.5431 -0.2719
 1568SOL    HW1 4847   1.710   3.312   0.388  0.0909  1.8547  0.0119
 1568SOL    HW2 4848   1.785   3.338   0.259 -0.4174  0.7673 -0.5168
 1569SOL     OW 4849   0.998   0.572   1.074 -0.4872  0.5790 -0.4720
 1569SOL    HW1 4850   1.075   0.536   1.118 -0.3570 -0.0031 -1.1531
 1569SOL    HW2 4851   0.986   0.658   1.112 -0.1165  0.2613  0.3865
 1570SOL     OW 4852   0.670   1.163   3.348  0.2684  0.0608 -0.6768
 1570SOL    HW1 4853   0.676   1.080   3.394  0.0899  0.5699  0.2998
 1570SOL    HW2 4854   0.729   1.222   3.396  0.1099  0.5972 -1.1236
 1571SOL     OW 4855   1.706   2.374   1.497  0.3664 -0.2298 -0.0098
 1571SOL    HW1 4856   1.643   2.445   1.482  1.1882  0.5293  0.1096
 1571SOL    HW2 4857   1.658   2.311   1.551 -1.2080 -0.9614 -2.1034
 1572SOL     OW 4858   0.698   0.712   0.194 -0.1277  0.2223 -0.1976
 1572SOL    HW1 4859   0.628   0.648   0.191 -0.9770  0.9701  1.7212
 1572SOL    HW2 4860   0.654   0.796   0.208  1.0938  0.6926  1.2559
 1573SOL     OW 4861   3.630   3.356   1.219  0.3795  0.2756 -0.1223
 1573SOL    HW1 4862   3.577   3.377   1.295  0.5021  0.5389 -0.1094
 1573SOL    HW2 4863   3.713   3.326   1.255  0.7632  1.2587 -0.1578
 1574SOL     OW 4864   1.895   3.354   0.117 -0.1679 -0.4560 -0.5937
 1574SOL    HW1 4865   1.864   3.310   0.037 -1.0899 -1.6429  0.3775
 1574SOL    HW2 4866   1.909   3.445   0.090 -2.8880 -0.2123 -1.5334
 1575SOL     OW 4867   2.850   0.690   2.909 -0.5097  1.1062 -0.1458
 1575SOL    HW1 4868   2.898   0.760   2.953 -0.5954  0.6368  0.7221
 1575SOL    HW2 4869   2.758   0.711   2.924 -0.5819 -0.5628  2.5059
 1576SOL     OW 4870   0.395   3.484   0.826  0.0838 -0.0795  0.0899
 1576SOL    HW1 4871   0.379   3.492   0.920 -0.6921 -0.6576  0.0232
 1576SOL    HW2 4872   0.490   3.492   0.817 -0.0274  2.8456  0.5946
 1577SOL     OW 4873   3.072   2.477   1.671  0.2097 -0.2440  0.1780
 1577SOL    HW1 4874   3.016   2.500   1.745 -0.7892  1.1384 -0.9360
 1577SOL    HW2 4875   3.113   2.560   1.645  1.6192 -0.9592  0.0126
 1578SOL     OW 4876   2.932   1.954   0.765 -0.3047 -0.5841  0.0091
 1578SOL    HW1 4877   2.997   2.005   0.716  2.1647 -1.6222  1.9875
 1578SOL    HW2 4878   2.930   1.869   0.720  1.4999 -1.3235  1.2006
 1579SOL     OW 4879   1.446   1.449   2.979 -0.0455  0.5139 -0.1178
 1579SOL    HW1 4880   1.459   1.354   2.977  1.1397  0.6696 -0.7462
 1579SOL    HW2 4881   1.526   1.485   2.941  1.2043  1.9244  3.4424
 1580SOL     OW 4882   3.122   1.906   0.108  0.1963  0.2648  0.5426
 1580SOL    HW1 4883   3.189   1.852   0.066  0.1252  1.1542 -0.7741
 1580SOL    HW2 4884   3.155   1.920   0.197  0.6525 -1.1481  0.6343
 1581SOL     OW 4885   0.922   3.454   3.087 -0.4053 -0.0058  0.7801
 1581SOL    HW1 4886   0.949   3.433   3.177  1.6148  1.7545  0.6711
 1581SOL    HW2 4887   0.827   3.443   3.087 -0.5732  0.8072  3.3942
 1582SOL     OW 4888   0.451   3.349   0.378  0.2482 -0.2944 -0.4909
 1582SOL    HW1 4889   0.494   3.384   0.300  0.0843  0.3054 -0.3240
 1582SOL    HW2 4890   0.443   3.425   0.437  1.4226 -0.9831  0.5980
 1583SOL     OW 4891   2.546   0.801   2.933 -0.1970 -0.2299  0.3154
 1583SOL    HW1 4892   2.517   0.881   2.977  0.1429  0.0408  0.0525
 1583SOL    HW2 4893   2.471   0.773   2.881  0.2965  0.9956 -1.1184
 1584SOL     OW 4894   2.421   0.760   1.179 -0.3653  0.4796  0.1918
 1584SOL    HW1 4895   2.453   0.670   1.176 -0.1504  0.5230  0.9684
 1584SOL    HW2 4896   2.448   0.792   1.265 -0.7617  1.1668  0.0671
 1585SOL     OW 4897   1.803   3.068   0.695 -0.0038  0.2459 -0.1574
 1585SOL    HW1 4898   1.718   3.036   0.666 -0.3644 -0.8305  1.8756
 1585SOL    HW2 4899   1.818   3.023   0.778  1.3673  2.3872  0.8446
 1586SOL     OW 4900   1.619   3.390   3.531 -0.3458  0.3613 -0.0931
 1586SOL    HW1 4901   1.705   3.417   3.498  0.3734 -2.3574 -0.7236
 1586SOL    HW2 4902   1.568   3.371   3.452 -0.1168 -1.8722  0.2246
 1587SOL     OW 4903   2.387   0.993   1.731  0.3240  0.4937 -0.6886
 1587SOL    HW1 4904   2.393   1.029   1.819  1.1867  2.8845 -1.6410
 1587SOL    HW2 4905   2.455   0.926   1.727  0.4717  0.5682  0.3615
 1588SOL     OW 4906   2.422   0.388   2.320  0.4862 -0.8146  0.0071
 1588SOL    HW1 4907   2.492   0.345   2.370 -1.0331 -1.3130  1.8178
 1588SOL    HW2 4908   2.351   0.325   2.318 -0.1969 -0.0477 -1.1645
 1589SOL     OW 4909   1.587   0.398   2.207  0.2618  0.6064  0.2664
 1589SOL    HW1 4910   1.506   0.446   2.221  0.4625  1.0118  0.0712
 1589SOL    HW2 4911   1.561   0.319   2.161  0.3757  2.6309 -3.7036
 1590SOL     OW 4912   1.560   0.960   2.930 -0.1150 -0.8577  0.3049
 1590SOL    HW1 4913   1.641   0.938   2.976  1.0723 -1.2452 -1.8033
 1590SOL    HW2 4914   1.544   1.052   2.950  0.4289 -0.9849  1.3523
 1591SOL     OW 4915   1.231   1.954   1.578  0.2972  0.1181  0.0738
 1591SOL    HW1 4916   1.281   1.914   1.507 -0.7493 -1.6909  0.3174
 1591SOL    HW2 4917   1.275   1.926   1.657  0.0062  0.0939  0.2277
 1592SOL     OW 4918   0.720   0.264   1.666  0.1893  0.0333 -0.0677
 1592SOL    HW1 4919   0.704   0.346   1.619 -0.2693  0.7081  1.2101
 1592SOL    HW2 4920   0.771   0.211   1.605 -0.8112  0.6663 -1.5131
 1593SOL     OW 4921   1.740   0.105   3.644  0.1595 -0.0561 -0.1418
 1593SOL    HW1 4922   1.733   0.135   3.554  0.8550 -0.7451 -0.4336
 1593SOL    HW2 4923   1.703   0.177   3.696 -0.4034  0.2753 -0.9746
 1594SOL     OW 4924   3.661   2.579   0.375  0.5780 -0.7633  0.1068
 1594SOL    HW1 4925   3.580   2.529   0.381  0.9421 -1.5586 -1.1482
 1594SOL    HW2 4926   3.634   2.666   0.347  0.1554 -1.0280 -0.3207
 1595SOL     OW 4927   2.581   3.181   0.828 -0.0533  0.2612  0.0483
 1595SOL    HW1 4928   2.498   3.225   0.806  0.0747  0.5213  0.0795
 1595SOL    HW2 4929   2.636   3.251   0.863  0.2153  0.1053 -0.0621
 1596SOL     OW 4930   3.539   3.707  -0.003  0.4591 -0.0245 -0.4611
 1596SOL    HW1 4931   3.443   3.701  -0.005  0.3058  1.6983  0.0306
 1596SOL    HW2 4932   3.565   3.649   0.069 -0.1832 -0.6820 -0.7432
 1597SOL     OW 4933   0.837   1.964   0.264  0.2901 -0.2768 -0.3031
 1597SOL    HW1 4934   0.781   1.918   0.326 -2.5356 -0.3629 -2.6826
 1597SOL    HW2 4935   0.841   1.907   0.188  1.9873  0.6742 -0.9964
 1598SOL     OW 4936   1.319   0.466   2.278 -0.1231  0.0029  0.0472
 1598SOL    HW1 4937   1.295   0.432   2.365  0.7699  1.0313  0.7293
 1598SOL    HW2 4938   1.314   0.561   2.287 -0.4697  0.1164 -1.1801
 1599SOL     OW 4939   2.949   0.421   2.835 -0.5047  0.1100  0.1027
 1599SOL    HW1 4940   2.961   0.390   2.925 -2.0987 -0.5207  0.1392
 1599SOL    HW2 4941   3.011   0.493   2.826  0.0142 -0.1191  1.5602
 1600SOL     OW 4942   2.649   3.681   1.711  0.0894 -0.2322 -0.5481
 1600SOL    HW1 4943   2.732   3.641   1.684  0.0198 -2.0180  1.6184
 1600SOL    HW2 4944   2.589   3.608   1.721 -0.1199  0.2556  3.3397
 1601SOL     OW 4945   3.369   0.333   2.363  0.2198  0.2832  0.0055
 1601SOL    HW1 4946   3.319   0.410   2.333  1.1428  0.4780 -1.0915
 1601SOL    HW2 4947   3.381   0.281   2.284  0.7819 -0.3169  0.4873
 1602SOL     OW 4948   1.926   0.643   0.899 -0.2600  0.1855  0.2234
 1602SOL    HW1 4949   1.921   0.728   0.855 -0.7899  0.4435  0.7728
 1602SOL    HW2 4950   1.847   0.596   0.872  0.2521 -0.3178 -0.4374
 1603SOL     OW 4951   3.159   3.016   0.508 -0.6186  0.4276 -0.1044
 1603SOL    HW1 4952   3.098   2.964   0.455 -0.2205  0.2522 -0.3946
 1603SOL    HW2 4953   3.246   2.991   0.476 -0.4101  3.9774 -2.8727
 1604SOL     OW 4954   0.365   1.256   0.561  0.0782 -0.1622  0.5095
 1604SOL    HW1 4955   0.270   1.246   0.551  0.1294  0.7401 -1.6336
 1604SOL    HW2 4956   0.375   1.331   0.619 -0.4976 -0.7890  1.4346
 1605SOL     OW 4957   1.669   0.298   0.476 -0.0717 -0.6930 -1.4318
 1605SOL    HW1 4958   1.664   0.297   0.380 -2.2827 -0.8600 -1.3656
 1605SOL    HW2 4959   1.584   0.332   0.504  0.0002 -1.9677  0.4976
 1606SOL     OW 4960   0.206   1.284   1.178 -0.2933 -0.5875 -0.2155
 1606SOL    HW1 4961   0.180   1.376   1.169 -1.1625 -0.9504 -1.7233
 1606SOL    HW2 4962   0.242   1.278   1.267  0.2123  1.3047 -0.2429
 1607SOL     OW 4963   3.311   0.263   0.054 -0.3015  0.3259  0.2634
 1607SOL    HW1 4964   3.313   0.312   0.136 -0.9078 -0.4810  0.7769
 1607SOL    HW2 4965   3.396   0.280   0.014 -0.8247  2.5321 -0.0467
 1608SOL     OW 4966   0.199   3.172   1.823 -0.0743  0.6860 -0.2995
 1608SOL    HW1 4967   0.136   3.195   1.754  0.2218 -0.0865 -0.8446
 1608SOL    HW2 4968   0.226   3.082   1.802  0.0383  0.4377  0.8193
 1609SOL     OW 4969   3.643   0.119   2.407  0.1365  0.6052  0.1664
 1609SOL    HW1 4970   3.614   0.207   2.431 -0.6748  1.0121 -2.0738
 1609SOL    HW2 4971   3.707   0.134   2.337  0.8268 -0.5498  0.5402
 1610SOL     OW 4972   0.210   2.224   0.783  0.0970 -0.1419  0.1646
 1610SOL    HW1 4973   0.275   2.243   0.851  1.3391 -1.1345 -0.6930
 1610SOL    HW2 4974   0.145   2.168   0.826 -0.4242  1.1709  1.1345
 1611SOL     OW 4975   1.092   1.935   0.481  0.8171  0.5536  0.2205
 1611SOL    HW1 4976   1.088   1.840   0.492  2.7002  0.5536  1.3922
 1611SOL    HW2 4977   1.012   1.958   0.434  1.0883 -1.8091 -1.5600
 1612SOL     OW 4978   2.388   3.020   0.481  0.0280 -0.5643 -0.2453
 1612SOL    HW1 4979   2.292   3.026   0.482  0.0056 -0.6998  1.2713
 1612SOL    HW2 4980   2.410   2.984   0.567  1.4702  0.0191 -0.3507
 1613SOL     OW 4981   2.935   2.634   0.467  0.1217  0.4767  0.0938
 1613SOL    HW1 4982   2.855   2.671   0.505 -0.4242  0.1293 -0.6814
 1613SOL    HW2 4983   2.952   2.688   0.390 -0.8671 -1.0207 -1.2398
 1614SOL     OW 4984   0.075   1.821   1.190  0.2329 -0.6457 -0.1242
 1614SOL    HW1 4985  -0.008   1.846   1.148  0.2425  0.7610  0.6281
 1614SOL    HW2 4986   0.091   1.732   1.160 -1.3142 -0.7745 -0.6704
 1615SOL     OW 4987   1.417   0.429   0.968 -0.0900  0.4083 -0.9213
 1615SOL    HW1 4988   1.390   0.346   0.929 -1.0972  0.8813 -1.2613
 1615SOL    HW2 4989   1.501   0.410   1.010 -2.3615 -2.0770  3.1459
 1616SOL     OW 4990   0.508   1.867   1.600 -0.2916  0.5020  0.4077
 1616SOL    HW1 4991   0.437   1.900   1.545 -2.1891 -2.0650  1.1487
 1616SOL    HW2 4992   0.584   1.918   1.573 -1.8767  1.7631 -2.0918
 1617SOL     OW 4993   1.187   2.251   0.104  0.2733  0.5710  0.7944
 1617SOL    HW1 4994   1.182   2.190   0.031 -1.4433  2.1487 -0.5112
 1617SOL    HW2 4995   1.103   2.240   0.150  0.5898  0.8682  1.4633
 1618SOL     OW 4996   1.513   3.402   2.736 -0.3079  0.2244 -0.6350
 1618SOL    HW1 4997   1.595   3.382   2.691 -0.4470 -1.0854 -0.3511
 1618SOL    HW2 4998   1.532   3.482   2.786  0.9753 -0.3658 -0.1221
 1619SOL     OW 4999   0.812   2.790   0.551 -0.2973  0.2686  0.1498
 1619SOL    HW1 5000   0.907   2.779   0.541 -0.3471 -0.4862  0.4337
 1619SOL    HW2 5001   0.802   2.851   0.623 -0.0222  0.4307  0.0506
 1620SOL     OW 5002   2.046   2.735   0.021 -0.0732  0.3122  0.3958
 1620SOL    HW1 5003   1.974   2.760   0.080  0.5369  1.0620  0.8453
 1620SOL    HW2 5004   2.069   2.646   0.048  0.3894  0.7438  1.5150
 1621SOL     OW 5005   3.560   3.688   0.548 -0.9671  0.2789  0.0887
 1621SOL    HW1 5006   3.597   3.675   0.460 -0.8442  1.6435 -0.0976
 1621SOL    HW2 5007   3.542   3.600   0.580  0.8461 -0.3638 -0.5004
 1622SOL     OW 5008   0.119   3.646   3.043 -0.1531 -1.0370  0.0276
 1622SOL    HW1 5009   0.192   3.609   3.092 -0.0790 -0.7753  0.1180
 1622SOL    HW2 5010   0.148   3.646   2.952  0.0127 -0.8148  0.0782
 1623SOL     OW 5011   1.230   0.389   2.816 -0.2486  0.0169  0.3073
 1623SOL    HW1 5012   1.222   0.481   2.790  2.0893 -0.1019 -1.1163
 1623SOL    HW2 5013   1.325   0.374   2.821 -0.5921 -2.0889  1.4266
 1624SOL     OW 5014   1.101   0.183   1.259  0.5294  0.8491 -0.6219
 1624SOL    HW1 5015   1.070   0.181   1.350 -1.0197  2.6808 -1.0424
 1624SOL    HW2 5016   1.080   0.096   1.225 -1.7740  1.1287 -0.0797
 1625SOL     OW 5017   2.780   3.246   1.909 -0.4629 -0.8415  0.3182
 1625SOL    HW1 5018   2.694   3.207   1.892 -1.0661  0.3214  0.5520
 1625SOL    HW2 5019   2.776   3.271   2.002 -0.6599  1.0053 -0.1434
 1626SOL     OW 5020   1.522   0.846   2.490  0.7751 -1.0814 -0.2731
 1626SOL    HW1 5021   1.574   0.891   2.423 -1.3052 -0.1701 -1.3566
 1626SOL    HW2 5022   1.568   0.863   2.572  0.0193  3.3298 -0.5484
 1627SOL     OW 5023   1.366   0.189   0.815 -0.7260  0.2373  0.0576
 1627SOL    HW1 5024   1.370   0.230   0.728  2.1386  0.9696  0.4447
 1627SOL    HW2 5025   1.414   0.107   0.804 -2.6592 -1.0008  0.3726
 1628SOL     OW 5026   0.898   0.797   2.443 -0.1343  0.3571 -0.3259
 1628SOL    HW1 5027   0.872   0.889   2.430 -0.6831  0.3382  0.5950
 1628SOL    HW2 5028   0.825   0.757   2.490  1.4912  0.3141  2.4154
 1629SOL     OW 5029   0.751   0.466   0.524 -0.1234  0.4773 -0.3921
 1629SOL    HW1 5030   0.754   0.470   0.620  1.3303 -0.0148 -0.3967
 1629SOL    HW2 5031   0.805   0.540   0.495  1.0120 -0.4894 -0.7946
 1630SOL     OW 5032   1.733   2.053   1.894 -0.4467 -0.2182  0.6298
 1630SOL    HW1 5033   1.719   2.038   1.800  1.3747  1.0291  0.1113
 1630SOL    HW2 5034   1.701   2.141   1.910  0.5991  0.1478  0.8227
 1631SOL     OW 5035   0.435   1.255   3.177 -0.4580  0.1843 -0.1383
 1631SOL    HW1 5036   0.506   1.267   3.240 -1.6372 -0.2682  1.3235
 1631SOL    HW2 5037   0.479   1.242   3.093  1.2559 -1.7652  0.9950
 1632SOL     OW 5038   3.313   2.073   1.768 -0.1984 -0.2678  0.6377
 1632SOL    HW1 5039   3.281   1.983   1.778 -0.1613 -0.2940  0.5194
 1632SOL    HW2 5040   3.256   2.112   1.703  0.5604 -0.5852 -0.2384
 1633SOL     OW 5041   3.406   3.037   3.090  0.1380  0.2504  0.3991
 1633SOL    HW1 5042   3.474   3.033   3.023 -0.3370 -0.8466 -0.0378
 1633SOL    HW2 5043   3.442   2.988   3.164  0.2424  0.5752  0.5665
 1634SOL     OW 5044   0.576   2.388   0.458 -0.0268 -0.4038 -0.4953
 1634SOL    HW1 5045   0.611   2.344   0.381 -1.3839 -0.0157 -1.3571
 1634SOL    HW2 5046   0.492   2.346   0.474 -0.0924  0.0188  0.3368
 1635SOL     OW 5047   0.156   0.814   0.178 -0.4334 -0.6897  0.2124
 1635SOL    HW1 5048   0.249   0.837   0.173 -0.3206 -1.0552  0.5548
 1635SOL    HW2 5049   0.112   0.878   0.122 -0.2127  0.7082  1.6010
 1636SOL     OW 5050   2.584   2.152   3.397 -0.3834 -0.1397  0.0666
 1636SOL    HW1 5051   2.650   2.116   3.338 -0.8211  0.7841 -1.0243
 1636SOL    HW2 5052   2.576   2.087   3.467  0.5722 -0.9830 -0.5875
 1637SOL     OW 5053   2.344   2.003   2.424 -0.2341 -0.5019 -0.0867
 1637SOL    HW1 5054   2.325   2.014   2.518 -1.0604 -0.6771 -0.2257
 1637SOL    HW2 5055   2.335   2.091   2.388 -1.6044 -0.7029 -0.2842
 1638SOL     OW 5056   0.253   1.218   2.301  0.1468  0.5402 -0.9560
 1638SOL    HW1 5057   0.159   1.209   2.319  0.0192 -0.1798 -1.9381
 1638SOL    HW2 5058   0.269   1.312   2.311 -0.2646  0.4513  1.0726
 1639SOL     OW 5059   0.699   1.481   3.035  0.6785 -0.1839 -0.0454
 1639SOL    HW1 5060   0.637   1.491   3.108  1.3156 -0.8759  0.6099
 1639SOL    HW2 5061   0.644   1.487   2.957 -0.0846  0.1348  0.4908
 1640SOL     OW 5062   0.742   2.975   2.006 -0.2730  0.0316 -0.1797
 1640SOL    HW1 5063   0.716   3.066   2.019 -0.0729 -0.1474  1.8255
 1640SOL    HW2 5064   0.675   2.938   1.948 -1.3407  1.0082  0.4016
 1641SOL     OW 5065   3.369   2.970   1.014 -0.0923 -0.6803  0.0303
 1641SOL    HW1 5066   3.288   2.937   1.051  0.7118 -2.5799  0.2065
 1641SOL    HW2 5067   3.347   2.993   0.923 -1.0544 -0.1458  0.3938
 1642SOL     OW 5068   1.229   1.773   2.748 -0.2100 -0.2542 -0.3257
 1642SOL    HW1 5069   1.162   1.719   2.705 -0.8618  0.5352 -0.3228
 1642SOL    HW2 5070   1.304   1.714   2.759  0.0402 -0.4831 -2.6685
 1643SOL     OW 5071   2.139   1.593   3.385  0.1075 -0.2745  0.3297
 1643SOL    HW1 5072   2.185   1.587   3.469  0.9404 -1.4532 -0.1891
 1643SOL    HW2 5073   2.161   1.511   3.340  0.0253  0.5334 -1.2255
 1644SOL     OW 5074   0.215   3.657   0.284  0.2854  0.0953  0.3028
 1644SOL    HW1 5075   0.182   3.620   0.201 -0.1282 -0.0260  0.5197
 1644SOL    HW2 5076   0.196   3.589   0.349 -1.4899  1.1118  0.9179
 1645SOL     OW 5077   3.624   0.402   2.376  0.0721 -0.1493 -0.9813
 1645SOL    HW1 5078   3.643   0.495   2.384  0.7738 -0.4177  0.9840
 1645SOL    HW2 5079   3.528   0.397   2.373 -0.0336  0.5535  0.5667
 1646SOL     OW 5080   0.915   2.176   1.384  0.0427 -0.4550  0.3130
 1646SOL    HW1 5081   0.962   2.161   1.302  0.4190  1.9413  0.0101
 1646SOL    HW2 5082   0.980   2.214   1.443 -1.1453  1.8107  0.2780
 1647SOL     OW 5083   3.147   0.584   2.784  0.6660 -0.7536  0.0974
 1647SOL    HW1 5084   3.080   0.611   2.722  1.5368  1.1392 -0.1218
 1647SOL    HW2 5085   3.230   0.602   2.738  1.3086 -0.8700  1.1817
 1648SOL     OW 5086   0.485   2.588   1.517 -0.5932 -0.7356 -0.2541
 1648SOL    HW1 5087   0.489   2.681   1.540 -3.0801 -0.8261  0.9201
 1648SOL    HW2 5088   0.555   2.548   1.568  0.1375  0.3983 -0.3292
 1649SOL     OW 5089   0.537   1.031   1.215  0.2546  0.6501 -0.0812
 1649SOL    HW1 5090   0.601   1.057   1.282  1.0538 -1.2704 -0.0192
 1649SOL    HW2 5091   0.590   1.010   1.138 -0.3235 -0.4946 -0.1865
 1650SOL     OW 5092   0.185   2.165   2.122  0.3289  0.2992  0.1312
 1650SOL    HW1 5093   0.205   2.183   2.214 -0.8115 -1.1538  0.7260
 1650SOL    HW2 5094   0.233   2.084   2.103  0.2657  0.3929 -0.4278
 1651SOL     OW 5095   2.182   1.445   1.840 -0.2606 -0.7330 -0.5428
 1651SOL    HW1 5096   2.249   1.485   1.896 -0.6540 -0.3286 -0.3596
 1651SOL    HW2 5097   2.168   1.359   1.880  3.1702 -2.6511 -2.9626
 1652SOL     OW 5098   2.801   2.258   0.854  0.5968  0.3921 -0.4528
 1652SOL    HW1 5099   2.830   2.223   0.938 -0.4629  0.4364 -0.0559
 1652SOL    HW2 5100   2.852   2.209   0.789 -0.6555 -1.7607  0.0904
 1653SOL     OW 5101   3.126   2.469   2.133 -0.0590 -0.0141  0.0286
 1653SOL    HW1 5102   3.094   2.400   2.191 -3.1883  0.2198 -1.2226
 1653SOL    HW2 5103   3.189   2.424   2.076 -0.0106 -1.1685  0.9417
 1654SOL     OW 5104   2.255   1.715   2.671 -0.2947 -0.3852  0.0289
 1654SOL    HW1 5105   2.316   1.774   2.716  0.1003 -1.1263  0.5028
 1654SOL    HW2 5106   2.310   1.642   2.642 -0.9060 -0.9173  0.1916
 1655SOL     OW 5107   1.343   2.503   1.106 -0.0095 -0.2997 -0.3162
 1655SOL    HW1 5108   1.391   2.536   1.182 -0.1905 -2.6009  0.9072
 1655SOL    HW2 5109   1.393   2.534   1.031  1.7343 -0.1768  0.8378
 1656SOL     OW 5110   0.742   3.087   0.721  0.3086 -0.4847  0.2655
 1656SOL    HW1 5111   0.710   3.139   0.647  0.1973  0.6217  1.0550
 1656SOL    HW2 5112   0.837   3.092   0.716  0.3008  0.3144  0.6582
 1657SOL     OW 5113   0.561   3.142   0.519  0.5562 -0.4240  0.4609
 1657SOL    HW1 5114   0.538   3.057   0.483  0.0401 -0.2827  0.4478
 1657SOL    HW2 5115   0.506   3.204   0.472  0.2160 -0.1861  1.1567
 1658SOL     OW 5116   0.207   1.315   2.930  0.4307 -0.3312  0.4651
 1658SOL    HW1 5117   0.154   1.342   3.004  0.4198 -1.6569  0.9705
 1658SOL    HW2 5118   0.294   1.352   2.947 -0.0123  0.8879  0.1989
 1659SOL     OW 5119   0.228   0.909   0.476 -0.4256 -0.2622 -0.1189
 1659SOL    HW1 5120   0.243   0.844   0.546 -2.9503 -0.8132 -0.0104
 1659SOL    HW2 5121   0.195   0.858   0.403 -2.3900  0.8326 -0.0631
 1660SOL     OW 5122   3.230   3.150   1.514 -0.7801 -0.5354  0.4258
 1660SOL    HW1 5123   3.274   3.136   1.598 -2.2078 -0.0402  1.2882
 1660SOL    HW2 5124   3.283   3.216   1.469 -0.8498  0.3416  1.6008
 1661SOL     OW 5125   3.066   1.362   1.210 -0.6875 -0.3923 -0.3067
 1661SOL    HW1 5126   2.988   1.324   1.168 -0.4199  0.5389 -1.7278
 1661SOL    HW2 5127   3.131   1.293   1.206 -0.8654 -0.5345 -0.8661
 1662SOL     OW 5128   2.835   0.199   2.666 -0.4009 -0.3775  0.2119
 1662SOL    HW1 5129   2.839   0.140   2.741  0.1722 -0.6293 -0.0080
 1662SOL    HW2 5130   2.876   0.280   2.696 -0.0140 -0.5365  0.1262
 1663SOL     OW 5131   0.613   2.532   2.402  0.2691  0.2281  0.4929
 1663SOL    HW1 5132   0.611   2.508   2.495  0.0085 -4.2107 -0.4196
 1663SOL    HW2 5133   0.702   2.511   2.374 -0.5323 -1.6776 -0.8332
 1664SOL     OW 5134   1.554   1.873   1.749  0.0026 -0.7202 -0.3089
 1664SOL    HW1 5135   1.649   1.873   1.759 -0.0323  0.4054  0.0795
 1664SOL    HW2 5136   1.540   1.875   1.654  0.3480 -1.7950 -0.3992
 1665SOL     OW 5137   3.252   1.416   1.429  0.8100 -0.0859  0.8600
 1665SOL    HW1 5138   3.185   1.454   1.373 -0.2092 -1.6383  0.9511
 1665SOL    HW2 5139   3.248   1.467   1.510  0.9169  0.9027  0.2503
 1666SOL     OW 5140   0.218   1.335  -0.013  0.1334 -0.6849  0.9427
 1666SOL    HW1 5141   0.160   1.320   0.061 -0.9093 -0.8626  0.1208
 1666SOL    HW2 5142   0.264   1.417   0.008  1.0133 -1.5402  2.4690
 1667SOL     OW 5143   0.424   0.249   1.924 -0.2753  0.6583  0.2654
 1667SOL    HW1 5144   0.362   0.196   1.974 -0.0781 -0.7918 -0.9467
 1667SOL    HW2 5145   0.496   0.189   1.904 -0.4846  1.0766 -1.9784
 1668SOL     OW 5146   2.951   2.220   1.889  0.2115 -0.0601  0.7849
 1668SOL    HW1 5147   2.873   2.165   1.900 -0.2222  0.6938  1.6101
 1668SOL    HW2 5148   2.918   2.310   1.892  0.7452  0.2929 -1.7484
 1669SOL     OW 5149   1.503   2.809   1.828  0.2796 -0.4130  0.2891
 1669SOL    HW1 5150   1.458   2.770   1.903  1.9598 -3.6544 -0.1673
 1669SOL    HW2 5151   1.456   2.775   1.752  1.4551 -1.1699 -0.1289
 1670SOL     OW 5152   2.957   1.589   0.704 -0.1363 -0.0301 -0.1574
 1670SOL    HW1 5153   2.995   1.560   0.787 -1.2450 -0.9540  0.0561
 1670SOL    HW2 5154   2.866   1.559   0.708 -0.1350 -0.3286 -1.8275
 1671SOL     OW 5155   0.971   2.103   3.195  0.0089  0.2892 -0.3026
 1671SOL    HW1 5156   0.969   2.181   3.140  2.3453 -0.6037 -1.8572
 1671SOL    HW2 5157   0.939   2.033   3.139  1.3483 -0.4529 -0.1796
 1672SOL     OW 5158   0.627   0.795   0.702 -0.0856 -0.5040  0.3971
 1672SOL    HW1 5159   0.590   0.868   0.653  0.1662  0.9370  2.2644
 1672SOL    HW2 5160   0.721   0.812   0.705 -0.2438  0.2056  2.5150
 1673SOL     OW 5161   1.070   1.995   2.198 -0.1648 -0.2359  0.7374
 1673SOL    HW1 5162   0.982   1.957   2.198  1.4119 -4.4792  1.1022
 1673SOL    HW2 5163   1.108   1.966   2.115  0.5954  2.6406 -0.0250
 1674SOL     OW 5164   3.443   1.502   1.244 -0.1794 -0.3310  0.2288
 1674SOL    HW1 5165   3.454   1.590   1.281  2.9554 -0.9290  1.0338
 1674SOL    HW2 5166   3.408   1.450   1.317  1.1999 -0.4128  0.8770
 1675SOL     OW 5167   0.600   1.321   3.617 -0.4989  0.4498 -0.3153
 1675SOL    HW1 5168   0.666   1.367   3.670 -0.3575 -1.0618  0.8983
 1675SOL    HW2 5169   0.562   1.389   3.562  0.4182  1.8115  0.6613
 1676SOL     OW 5170   1.994   0.022   3.504  0.4855 -0.0734 -0.0725
 1676SOL    HW1 5171   2.074   0.034   3.557  0.5052  0.3081 -0.1856
 1676SOL    HW2 5172   1.968   0.111   3.481  0.2968 -0.2263 -0.4417
 1677SOL     OW 5173   0.998   1.292   2.039 -0.0879  0.4659  0.2139
 1677SOL    HW1 5174   0.949   1.268   2.118 -1.7361 -1.4156 -1.2834
 1677SOL    HW2 5175   1.035   1.378   2.060  1.3158 -0.8058  3.7955
 1678SOL     OW 5176   3.461   2.846   3.519  0.0395 -0.9387  0.0838
 1678SOL    HW1 5177   3.451   2.867   3.612 -0.2307 -0.4782 -0.0481
 1678SOL    HW2 5178   3.386   2.888   3.477  0.9385  0.0939 -0.5446
 1679SOL     OW 5179   0.598   0.163   3.540 -0.3496 -0.7748 -0.9371
 1679SOL    HW1 5180   0.679   0.176   3.492 -0.0228 -3.6192 -1.3156
 1679SOL    HW2 5181   0.560   0.251   3.548  2.7282  0.6577 -0.7277
 1680SOL     OW 5182   0.326   3.604   3.243  0.5440 -0.6433 -0.8441
 1680SOL    HW1 5183   0.297   3.667   3.309  0.7505 -0.2755 -1.0951
 1680SOL    HW2 5184   0.386   3.654   3.188 -0.2407 -0.7084 -1.7877
 1681SOL     OW 5185   0.570   2.104   0.131  0.1843  0.2188  0.4084
 1681SOL    HW1 5186   0.589   2.021   0.176  1.1736  0.8727  1.2434
 1681SOL    HW2 5187   0.533   2.077   0.047  0.8093 -1.0938  0.5182
 1682SOL     OW 5188   0.590   1.259   1.748  0.0197  0.6127  0.2921
 1682SOL    HW1 5189   0.507   1.217   1.770 -0.1245  0.0297 -1.2167
 1682SOL    HW2 5190   0.652   1.227   1.814 -0.4882 -0.6028  0.1983
 1683SOL     OW 5191   3.697   2.705   1.727 -0.4752  0.1011 -0.6238
 1683SOL    HW1 5192   3.699   2.772   1.795 -0.8491 -1.3264  0.8401
 1683SOL    HW2 5193   3.785   2.707   1.689 -0.5843  1.6524 -0.8856
 1684SOL     OW 5194   3.571   0.486   0.374 -0.2998  0.4813  0.2613
 1684SOL    HW1 5195   3.580   0.581   0.378 -2.3158  0.7382 -0.2915
 1684SOL    HW2 5196   3.618   0.461   0.295 -0.6658  1.1734 -0.1906
 1685SOL     OW 5197   0.385   2.328   3.617 -0.0057  0.3451  0.4127
 1685SOL    HW1 5198   0.315   2.394   3.619  0.5469  0.9340  1.5915
 1685SOL    HW2 5199   0.353   2.256   3.670 -0.3515 -0.0866 -0.3611
 1686SOL     OW 5200   2.254   2.768   2.722 -0.8068  0.6506  0.4910
 1686SOL    HW1 5201   2.280   2.688   2.675 -0.0587  0.5070  1.1275
 1686SOL    HW2 5202   2.321   2.832   2.699 -0.9483  0.8489  0.6320
 1687SOL     OW 5203   1.418  -0.006   2.564 -0.2981 -0.3812  0.1993
 1687SOL    HW1 5204   1.416  -0.052   2.648  1.2384 -0.1763  0.3823
 1687SOL    HW2 5205   1.475   0.069   2.580  0.4956 -0.6641 -1.1776
 1688SOL     OW 5206   1.052   0.639   0.775  0.1309 -0.4689 -0.1966
 1688SOL    HW1 5207   1.035   0.603   0.862  0.2026 -2.2197 -0.8638
 1688SOL    HW2 5208   1.147   0.643   0.769  0.1256  1.0957  0.3339
 1689SOL     OW 5209   0.712   2.729   3.715  0.4296  0.0785  0.4469
 1689SOL    HW1 5210   0.665   2.648   3.735  0.4275  0.3030  1.3761
 1689SOL    HW2 5211   0.800   2.716   3.750  1.2806 -0.5371 -1.7184
 1690SOL     OW 5212   3.594   3.530   0.232  0.0711  0.1354 -0.5774
 1690SOL    HW1 5213   3.499   3.517   0.244 -0.0158  1.8536  0.9985
 1690SOL    HW2 5214   3.634   3.463   0.288 -0.2279  0.2324 -0.2457
 1691SOL     OW 5215   0.324   1.222   1.423  0.0355 -0.3371  0.3465
 1691SOL    HW1 5216   0.358   1.304   1.460  0.3317  0.1654 -0.9822
 1691SOL    HW2 5217   0.373   1.154   1.468  0.4066  0.2549  0.8593
 1692SOL     OW 5218   2.097   3.496   3.605 -1.1169 -0.8216 -0.1549
 1692SOL    HW1 5219   2.027   3.562   3.597  0.4220  0.6484 -3.1176
 1692SOL    HW2 5220   2.052   3.418   3.638 -3.8435  0.5105 -0.4011
 1693SOL     OW 5221   0.440   3.101   2.992 -0.1039  0.3211  0.5054
 1693SOL    HW1 5222   0.431   3.195   3.007 -1.6461  0.0741  1.4365
 1693SOL    HW2 5223   0.350   3.068   2.997  0.0827 -0.8836 -2.2661
 1694SOL     OW 5224   1.906   1.146   0.445 -0.4317 -0.1921 -0.2248
 1694SOL    HW1 5225   1.952   1.117   0.366 -0.2983  1.9023 -0.9729
 1694SOL    HW2 5226   1.970   1.133   0.516 -0.7394 -2.5906 -0.3154
 1695SOL     OW 5227   0.597   3.687   1.841 -0.7358  0.3620 -0.3960
 1695SOL    HW1 5228   0.597   3.724   1.753 -1.8194 -0.8674 -0.9492
 1695SOL    HW2 5229   0.527   3.621   1.839  0.1251 -0.6321  0.9828
 1696SOL     OW 5230   2.521   2.976   1.285 -0.4256 -0.4709 -0.2150
 1696SOL    HW1 5231   2.611   2.994   1.313  0.2149  0.1736 -2.4668
 1696SOL    HW2 5232   2.526   2.975   1.190 -2.8979 -0.0602 -0.4004
 1697SOL     OW 5233   1.796   0.959   1.113 -0.2555 -0.3142 -0.4102
 1697SOL    HW1 5234   1.711   0.986   1.148  0.2662  1.7153 -0.5511
 1697SOL    HW2 5235   1.852   1.036   1.125  1.7274 -1.7570  0.1582
 1698SOL     OW 5236   1.758   1.058   3.121  0.2063 -0.2350 -0.0094
 1698SOL    HW1 5237   1.689   1.122   3.141  2.4880  2.3451  0.2155
 1698SOL    HW2 5238   1.831   1.111   3.090  1.5025 -3.0009 -2.0942
 1699SOL     OW 5239   2.635   0.211   1.162  0.3943  0.0428 -0.6903
 1699SOL    HW1 5240   2.696   0.183   1.231 -0.5772 -1.0158 -0.2132
 1699SOL    HW2 5241   2.690   0.249   1.094  1.5689 -0.6983 -0.1817
 1700SOL     OW 5242   1.064   1.132   2.377  0.0004  0.1976 -0.3117
 1700SOL    HW1 5243   0.971   1.111   2.364  0.3023 -2.9178  1.4695
 1700SOL    HW2 5244   1.077   1.121   2.471  2.4336 -0.8658 -0.7114
 1701SOL     OW 5245   1.075   2.900   1.464  0.2266  0.8874 -0.1158
 1701SOL    HW1 5246   1.057   2.980   1.416 -0.9734  2.3902  2.5924
 1701SOL    HW2 5247   0.995   2.884   1.514  0.9930 -1.1692  0.5427
 1702SOL     OW 5248   1.631   1.697   0.558  0.6646  0.7605 -0.2580
 1702SOL    HW1 5249   1.663   1.788   0.559 -0.5196  1.1884  0.9654
 1702SOL    HW2 5250   1.588   1.688   0.473 -0.2663  1.7354  0.0966
 1703SOL     OW 5251   0.680   3.502   1.532  1.3012  0.2316 -0.0794
 1703SOL    HW1 5252   0.737   3.529   1.604  1.2695 -0.5954  0.2679
 1703SOL    HW2 5253   0.647   3.416   1.558  0.8599  0.1596 -0.8369
 1704SOL     OW 5254   3.465   0.091   1.715  0.2665 -0.5292  0.0109
 1704SOL    HW1 5255   3.422   0.011   1.686  0.1068 -0.7457  0.8085
 1704SOL    HW2 5256   3.395   0.144   1.753  0.2485  0.3126 -1.1723
 1705SOL     OW 5257   1.457   1.614   3.412  0.0299  0.5238  0.5865
 1705SOL    HW1 5258   1.452   1.531   3.460 -0.3383 -0.9667 -1.8522
 1705SOL    HW2 5259   1.367   1.645   3.407 -0.0729  0.1710  0.0960
 1706SOL     OW 5260   2.321   3.537   0.069  0.4563  0.4197 -0.1485
 1706SOL    HW1 5261   2.359   3.452   0.091  0.0303  0.4890  0.9194
 1706SOL    HW2 5262   2.264   3.518  -0.006  0.1987 -0.2925  0.2105
 1707SOL     OW 5263   1.065   0.710   3.436  0.2380  0.4974 -0.3025
 1707SOL    HW1 5264   1.121   0.664   3.497 -0.1219 -1.2084 -1.2114
 1707SOL    HW2 5265   1.070   0.660   3.355  2.2099  3.7328 -2.3753
 1708SOL     OW 5266   0.861   3.340   0.642 -0.7607 -0.6800 -0.0633
 1708SOL    HW1 5267   0.919   3.415   0.629  0.0601 -1.3072 -0.0663
 1708SOL    HW2 5268   0.812   3.361   0.721 -1.3291  0.3519 -0.6695
 1709SOL     OW 5269   1.508   0.304   1.448  0.2475  0.4269 -0.4574
 1709SOL    HW1 5270   1.555   0.276   1.526 -0.0055 -0.5959 -0.6488
 1709SOL    HW2 5271   1.524   0.398   1.442 -0.5855  0.7223  1.3924
 1710SOL     OW 5272   2.421   2.708   1.342 -0.1578 -0.1526 -0.5972
 1710SOL    HW1 5273   2.429   2.696   1.436 -0.0124 -3.2896 -0.8768
 1710SOL    HW2 5274   2.451   2.797   1.325 -3.3661  1.7840  2.6356
 1711SOL     OW 5275   1.505   0.650   2.903 -0.3640 -0.3862  0.5305
 1711SOL    HW1 5276   1.549   0.683   2.982 -1.3603  0.3848  0.7835
 1711SOL    HW2 5277   1.426   0.703   2.895 -0.0849 -0.1727 -1.2391
 1712SOL     OW 5278   0.348   2.246   1.684  0.1111 -0.7582 -0.1749
 1712SOL    HW1 5279   0.388   2.324   1.721  0.5623 -1.3588  0.6288
 1712SOL    HW2 5280   0.392   2.234   1.600  0.2667 -0.3403 -0.1568
 1713SOL     OW 5281   1.846   0.032   1.641 -0.3701  0.2443  0.0107
 1713SOL    HW1 5282   1.893   0.095   1.586 -0.8360  0.7514  0.1793
 1713SOL    HW2 5283   1.842  -0.048   1.589 -0.1102  0.4772 -0.3662
 1714SOL     OW 5284   1.298   1.804   2.498  0.6269 -0.0868  0.7869
 1714SOL    HW1 5285   1.277   1.724   2.451  0.3261  0.8677 -0.7637
 1714SOL    HW2 5286   1.261   1.791   2.585 -0.8912 -0.9550  0.0501
 1715SOL     OW 5287   2.262   3.071   1.017 -0.1303 -0.7799  0.3610
 1715SOL    HW1 5288   2.353   3.047   1.002 -0.6655 -1.7640 -1.5916
 1715SOL    HW2 5289   2.228   3.002   1.073 -0.3308 -1.8702 -1.0623
 1716SOL     OW 5290   2.790   0.255   2.011  0.1339 -0.6032 -0.2982
 1716SOL    HW1 5291   2.786   0.350   2.025 -0.2092 -0.8626  1.5632
 1716SOL    HW2 5292   2.838   0.221   2.086  0.7042 -1.8796 -1.1950
 1717SOL     OW 5293   1.370   1.168   1.851  0.3227  0.5064 -0.2337
 1717SOL    HW1 5294   1.456   1.127   1.842  0.2660  0.3955 -0.2764
 1717SOL    HW2 5295   1.308   1.096   1.838  0.2242  0.5789 -0.1676
 1718SOL     OW 5296   1.505   0.437   3.272  0.2555 -0.1014 -0.4767
 1718SOL    HW1 5297   1.572   0.442   3.203 -0.8311  0.8140 -1.5109
 1718SOL    HW2 5298   1.427   0.404   3.227 -0.1307 -0.6951  0.6064
 1719SOL     OW 5299   3.617   2.580   0.688  0.5138 -0.0211 -0.0148
 1719SOL    HW1 5300   3.656   2.616   0.608 -1.8577  1.2032 -0.6909
 1719SOL    HW2 5301   3.587   2.657   0.737 -0.5129 -0.8758  0.7420
 1720SOL     OW 5302   3.281   1.610   3.276 -0.0999 -0.1838 -0.5697
 1720SOL    HW1 5303   3.299   1.599   3.182  0.5619  0.3027 -0.5071
 1720SOL    HW2 5304   3.365   1.639   3.313  0.3288 -2.6309  0.5782
 1721SOL     OW 5305   0.344   3.102   1.485  0.5823  0.2099 -0.0365
 1721SOL    HW1 5306   0.269   3.149   1.521 -0.1852 -0.7000 -0.4187
 1721SOL    HW2 5307   0.364   3.149   1.403  1.4623  1.4246  0.8309
 1722SOL     OW 5308   1.945   1.094   2.778  0.3485  0.2067  0.3115
 1722SOL    HW1 5309   1.918   1.145   2.702 -0.1335  0.4993  0.6717
 1722SOL    HW2 5310   1.913   1.145   2.853  1.4218  0.2767  0.7317
 1723SOL     OW 5311   3.305   3.693   0.373 -0.0818  0.2080  0.1895
 1723SOL    HW1 5312   3.279   3.748   0.447  0.3435  2.6690 -1.3466
 1723SOL    HW2 5313   3.338   3.756   0.308 -1.7922 -1.6189 -2.6784
 1724SOL     OW 5314   2.703   1.774   2.940  0.0719  0.5735  0.0743
 1724SOL    HW1 5315   2.783   1.827   2.941  0.7957 -0.4747  1.5227
 1724SOL    HW2 5316   2.655   1.804   2.863  0.1881  3.6589  1.0794
 1725SOL     OW 5317   0.047   0.341   1.556  0.7493 -0.3628  0.5903
 1725SOL    HW1 5318   0.008   0.394   1.626  0.3996  0.3057 -0.0935
 1725SOL    HW2 5319   0.124   0.301   1.597  1.5482  1.3924  0.8929
 1726SOL     OW 5320   2.879   2.049   0.106 -0.2413 -0.1449 -0.7228
 1726SOL    HW1 5321   2.806   2.028   0.164 -0.5112 -3.0358 -1.9429
 1726SOL    HW2 5322   2.942   1.978   0.120  0.5104  0.1110 -2.5658
 1727SOL     OW 5323   0.924   2.215   2.548  0.1003  0.4947 -0.1327
 1727SOL    HW1 5324   0.985   2.175   2.486  0.6059  0.2862  0.4833
 1727SOL    HW2 5325   0.954   2.185   2.634 -1.3311 -0.2418  0.1406
 1728SOL     OW 5326   3.265   0.882   3.125  0.6115 -0.0223 -0.2498
 1728SOL    HW1 5327   3.280   0.794   3.160  0.4288  0.3129  0.6878
 1728SOL    HW2 5328   3.204   0.923   3.186 -1.5930 -0.2124 -2.2105
 1729SOL     OW 5329   3.257   1.619   1.590 -0.2631  0.1404 -0.7274
 1729SOL    HW1 5330   3.294   1.637   1.677  0.9546  1.8055 -1.5387
 1729SOL    HW2 5331   3.247   1.705   1.550 -2.7283 -0.4467 -1.5279
 1730SOL     OW 5332   1.163   2.065   3.407 -0.2046 -0.6030 -0.3204
 1730SOL    HW1 5333   1.142   2.154   3.435  2.0680 -0.0509 -0.2003
 1730SOL    HW2 5334   1.098   2.046   3.339 -2.5625 -0.0181  1.5818
 1731SOL     OW 5335   1.796   0.450   1.250 -0.5072 -0.1006  0.1327
 1731SOL    HW1 5336   1.739   0.469   1.324  0.2024 -0.8621  0.8930
 1731SOL    HW2 5337   1.813   0.536   1.210 -0.8684  0.3218  0.8735
 1732SOL     OW 5338   2.721   0.537   2.702 -0.2381  0.0322  0.2803
 1732SOL    HW1 5339   2.642   0.503   2.743  0.3338 -1.1710  0.4233
 1732SOL    HW2 5340   2.791   0.522   2.766  0.4283 -0.6527 -0.5680
 1733SOL     OW 5341   2.925   1.437   2.784 -0.1519 -0.2910  0.1428
 1733SOL    HW1 5342   3.019   1.437   2.762  0.1778  1.2928  1.3530
 1733SOL    HW2 5343   2.922   1.405   2.874 -1.0509 -2.5671 -0.6304
 1734SOL     OW 5344   0.410   0.663   2.468 -0.1777 -0.5548 -1.1204
 1734SOL    HW1 5345   0.455   0.687   2.387  0.1980  0.2198 -0.6877
 1734SOL    HW2 5346   0.318   0.684   2.451 -0.3395 -1.7480 -1.8546
 1735SOL     OW 5347   2.933   1.680   2.398  0.0738  0.1547  0.6945
 1735SOL    HW1 5348   2.838   1.672   2.393 -0.3588  2.4402  2.9893
 1735SOL    HW2 5349   2.959   1.721   2.316 -1.3049  1.8081  1.0398
 1736SOL     OW 5350   2.907   0.353   1.249  0.1854 -0.0629 -0.0497
 1736SOL    HW1 5351   2.930   0.263   1.225  0.7799  0.0332  0.1543
 1736SOL    HW2 5352   2.926   0.404   1.170  0.1286 -0.0729 -0.0697
 1737SOL     OW 5353   2.214   1.729   0.701  0.3136 -0.4884 -0.5251
 1737SOL    HW1 5354   2.194   1.671   0.626  1.2798  0.0051 -1.1774
 1737SOL    HW2 5355   2.299   1.767   0.680  0.1986  0.3244  0.4325
 1738SOL     OW 5356   3.615   3.173   0.691 -0.0566  0.0284  0.2925
 1738SOL    HW1 5357   3.704   3.197   0.719  0.2911 -0.9853  0.0976
 1738SOL    HW2 5358   3.563   3.176   0.771  0.6000 -1.3235  0.8118
 1739SOL     OW 5359   3.080   3.113   1.945 -0.0074 -0.5305 -0.4243
 1739SOL    HW1 5360   3.031   3.190   1.915 -0.9499 -0.5113  1.0800
 1739SOL    HW2 5361   3.166   3.148   1.969  0.2315 -0.2915 -1.5526
 1740SOL     OW 5362   1.896   2.344   2.690  0.8741 -0.5043  0.2315
 1740SOL    HW1 5363   1.810   2.361   2.727  0.7401  1.3803 -0.7875
 1740SOL    HW2 5364   1.958   2.368   2.759  0.5968  1.1557 -0.0529
 1741SOL     OW 5365   0.770   2.399   1.422 -0.1281 -0.2467 -0.2718
 1741SOL    HW1 5366   0.854   2.356   1.435  0.2314  0.3195 -0.6536
 1741SOL    HW2 5367   0.755   2.397   1.327 -0.1404  0.3811 -0.2920
 1742SOL     OW 5368   0.372   2.749   1.232 -0.2942 -0.3589 -0.1915
 1742SOL    HW1 5369   0.306   2.772   1.167  2.8202 -0.3278 -3.6748
 1742SOL    HW2 5370   0.370   2.653   1.235 -0.2508 -0.3721 -0.5719
 1743SOL     OW 5371   0.134   1.330   3.199  0.2361 -0.4653  0.3027
 1743SOL    HW1 5372   0.162   1.321   3.290 -1.0698 -1.9794  0.5871
 1743SOL    HW2 5373   0.216   1.326   3.149  0.9995  0.6347  1.3829
 1744SOL     OW 5374   0.397   3.667   1.069  0.5159  0.0467 -0.0784
 1744SOL    HW1 5375   0.309   3.696   1.045  0.3967 -0.0765  0.2084
 1744SOL    HW2 5376   0.446   3.748   1.083 -0.4923  0.2193  3.2865
 1745SOL     OW 5377   0.074   0.716   2.579 -0.1000 -0.0889  0.8513
 1745SOL    HW1 5378   0.115   0.664   2.510 -0.6498 -1.1656  1.3235
 1745SOL    HW2 5379   0.019   0.654   2.627 -0.8135  0.9364  1.3933
 1746SOL     OW 5380   2.161   3.715   0.229  0.2480 -0.2898 -0.3703
 1746SOL    HW1 5381   2.213   3.665   0.167  1.0265 -0.2729  0.2488
 1746SOL    HW2 5382   2.170   3.668   0.312 -1.6307 -0.9100 -0.4686
 1747SOL     OW 5383   0.465   3.359   0.036  0.1049  0.2890 -0.4175
 1747SOL    HW1 5384   0.415   3.377  -0.044 -1.0340  3.5433  0.8392
 1747SOL    HW2 5385   0.474   3.445   0.078  0.6185 -1.2626  2.9783
 1748SOL     OW 5386   3.539   1.147   2.274 -0.2367 -0.7523 -0.7930
 1748SOL    HW1 5387   3.458   1.105   2.303  0.4166 -0.8894  0.9068
 1748SOL    HW2 5388   3.512   1.199   2.198 -1.4202 -2.7122 -1.8091
 1749SOL     OW 5389   0.338   0.043   3.452  0.6275  0.2411  0.4655
 1749SOL    HW1 5390   0.311  -0.007   3.529  1.1405 -1.5427 -0.4480
 1749SOL    HW2 5391   0.433   0.051   3.461  0.6369  0.4065  0.2314
 1750SOL     OW 5392   0.125   1.165   0.410  0.1439  0.3981 -0.3593
 1750SOL    HW1 5393   0.177   1.085   0.416  0.2618  0.5187  0.4121
 1750SOL    HW2 5394   0.038   1.135   0.384  0.4270  0.1273 -1.0188
 1751SOL     OW 5395   3.605   2.381   1.441 -0.4248 -0.3422 -0.6314
 1751SOL    HW1 5396   3.548   2.345   1.373 -0.6073 -1.7945  0.2399
 1751SOL    HW2 5397   3.557   2.455   1.476 -0.2385  0.5554 -2.1981
 1752SOL     OW 5398   0.997   3.400   1.278 -0.0454 -0.1700  0.3824
 1752SOL    HW1 5399   0.949   3.400   1.195  1.2524  0.2314 -0.3916
 1752SOL    HW2 5400   0.974   3.316   1.318 -2.0905  0.3824  0.4867
 1753SOL     OW 5401   1.749   1.852   1.373  0.3349 -0.0389 -0.0460
 1753SOL    HW1 5402   1.820   1.801   1.334  0.4592 -1.0401  1.4135
 1753SOL    HW2 5403   1.789   1.937   1.392  0.6900 -0.0577 -0.6784
 1754SOL     OW 5404   3.258   2.613   2.341 -0.0963  0.1633  0.1675
 1754SOL    HW1 5405   3.301   2.582   2.262  1.6544  2.0389  0.3180
 1754SOL    HW2 5406   3.195   2.544   2.363  1.4774 -1.7892 -1.1628
 1755SOL     OW 5407   2.375   0.723   2.424 -0.4518 -0.4194  0.6993
 1755SOL    HW1 5408   2.460   0.680   2.416 -0.7193 -0.9239  0.5153
 1755SOL    HW2 5409   2.378   0.795   2.361 -0.8444 -1.5780 -0.7000
 1756SOL     OW 5410   2.420   2.166   0.418 -0.8986  0.1759 -0.2116
 1756SOL    HW1 5411   2.371   2.166   0.500 -0.5216 -1.1246  0.0365
 1756SOL    HW2 5412   2.411   2.077   0.385  0.5953  0.1277 -0.5670
 1757SOL     OW 5413   2.252   2.970   3.162  0.3748 -0.0245  0.2979
 1757SOL    HW1 5414   2.239   2.877   3.181  0.6600 -0.2801 -0.7103
 1757SOL    HW2 5415   2.204   3.015   3.232  1.7333 -0.8941  1.8852
 1758SOL     OW 5416   2.072   0.460   2.235 -0.1997  0.3256 -0.7574
 1758SOL    HW1 5417   1.990   0.488   2.193  0.0510 -1.4313 -2.6061
 1758SOL    HW2 5418   2.097   0.381   2.186  1.0362 -0.9117  1.7292
 1759SOL     OW 5419   1.401   0.693   1.122  0.2738  0.1000  0.1956
 1759SOL    HW1 5420   1.479   0.685   1.067  0.1513  2.2789 -0.3899
 1759SOL    HW2 5421   1.365   0.604   1.126  3.5022 -1.3236  1.6481
 1760SOL     OW 5422   1.916   1.240   1.248 -0.2925 -0.6453  0.1318
 1760SOL    HW1 5423   1.895   1.241   1.155 -0.0951 -1.3969  0.0709
 1760SOL    HW2 5424   1.866   1.168   1.284  1.4683 -1.9423  0.1320
 1761SOL     OW 5425   2.885   2.475   2.883 -0.0022 -0.3503 -0.5454
 1761SOL    HW1 5426   2.961   2.518   2.921  1.3993 -1.9707 -1.4060
 1761SOL    HW2 5427   2.883   2.506   2.792  0.0188 -0.8192 -0.7062
 1762SOL     OW 5428   1.436   1.174   3.045 -0.4750  0.2873  0.5174
 1762SOL    HW1 5429   1.358   1.135   3.084  0.8766 -0.5168  2.5872
 1762SOL    HW2 5430   1.485   1.208   3.119  0.3837  2.2972 -0.8747
 1763SOL     OW 5431   0.155   2.014   0.586 -1.0060 -0.2097  0.0953
 1763SOL    HW1 5432   0.177   2.093   0.635 -0.3456 -0.4925  0.2676
 1763SOL    HW2 5433   0.059   2.009   0.590 -1.0989  0.8837 -0.4005
 1764SOL     OW 5434   2.098   0.865   2.719 -0.2811 -0.1129 -0.3688
 1764SOL    HW1 5435   2.052   0.946   2.697 -1.0534 -1.3171 -3.7091
 1764SOL    HW2 5436   2.030   0.807   2.753 -0.3297 -0.3434 -0.8534
 1765SOL     OW 5437   0.754   2.653   1.056  0.1869 -0.3266  0.3558
 1765SOL    HW1 5438   0.759   2.696   1.142  1.1916  2.2365 -0.8507
 1765SOL    HW2 5439   0.667   2.675   1.023  0.7135  0.9705 -0.2761
 1766NA      NA 5440   0.931   3.701   3.451  0.2672 -0.4615  0.1701
   3.73630   3.73630   3.73630
