Protein in water
 5440
    0TYR      N    1   1.265   1.499   0.722 -0.7158 -0.2002  0.0505
    0TYR     H1    2   1.190   1.517   0.791  0.1300 -0.2294  1.0149
    0TYR     H2    3   1.352   1.472   0.773 -0.1176 -1.1249 -1.4081
    0TYR     H3    4   1.244   1.417   0.661 -1.8262  0.3097 -0.2691
    0TYR     CA    5   1.290   1.626   0.636 -0.5534 -0.3467 -0.0418
    0TYR     HA    6   1.326   1.706   0.699  1.0207  1.4056 -2.9526
    0TYR     CB    7   1.403   1.616   0.529  0.0157  0.0844  0.6787
    0TYR    HB1    8   1.505   1.598   0.569  1.8943  2.8986 -2.3299
    0TYR    HB2    9   1.407   1.711   0.470 -2.9214  0.6019  1.1894
    0TYR     CG   10   1.382   1.502   0.431 -0.4146  0.8027  0.2128
    0TYR    CD1   11   1.442   1.374   0.449 -0.0830 -0.0004  0.1319
    0TYR    HD1   12   1.511   1.366   0.532  3.2220  0.2819 -2.4007
    0TYR    CE1   13   1.414   1.268   0.364  0.5578 -0.5997 -0.0919
    0TYR    HE1   14   1.454   1.168   0.375  0.8861 -0.3452  1.1356
    0TYR     CZ   15   1.316   1.285   0.265 -1.3162  0.2446 -0.4306
    0TYR     OH   16   1.278   1.173   0.192  0.5160  0.3687  0.4206
    0TYR     HH   17   1.198   1.191   0.143  1.1361 -0.7207 -1.0529
    0TYR    CD2   18   1.293   1.515   0.325 -0.0977  0.2789  0.1784
    0TYR    HD2   19   1.244   1.609   0.308 -0.3387 -0.2665 -2.5545
    0TYR    CE2   20   1.252   1.408   0.247 -0.5844 -0.0327  0.3068
    0TYR    HE2   21   1.177   1.416   0.170  0.7044 -2.4023 -1.3214
    0TYR      C   22   1.165   1.681   0.561 -0.5930 -0.5007  0.3858
    0TYR      O   23   1.060   1.621   0.563 -0.2980  0.1745 -0.2852
    1TYR      N   24   1.176   1.804   0.504  0.2498 -0.3693  0.2040
    1TYR     HN   25   1.261   1.856   0.500  1.0682 -1.7235 -1.8924
    1TYR     CA   26   1.065   1.883   0.453 -1.0398 -0.2209  0.8110
    1TYR     HA   27   0.970   1.856   0.496 -0.5789 -0.9689  1.3762
    1TYR     CB   28   1.095   2.034   0.475  0.4428 -0.2352 -0.4602
    1TYR    HB1   29   1.197   2.071   0.451  0.2553  2.3883  2.1108
    1TYR    HB2   30   1.083   2.055   0.584  3.3109 -1.8412  0.2699
    1TYR     CG   31   0.998   2.127   0.409  0.1095  0.6508 -0.6431
    1TYR    CD1   32   0.861   2.126   0.449  0.1340  1.1630 -0.9486
    1TYR    HD1   33   0.832   2.050   0.520 -0.3760 -1.6010 -3.8756
    1TYR    CE1   34   0.774   2.221   0.407 -0.2027  0.4079  0.3748
    1TYR    HE1   35   0.670   2.223   0.436 -0.7810  1.5746 -1.5957
    1TYR     CZ   36   0.813   2.314   0.306 -0.0548 -0.3149 -0.4615
    1TYR     OH   37   0.707   2.390   0.262  0.1245  0.2376 -0.2674
    1TYR     HH   38   0.744   2.441   0.189  0.9912  0.5561  0.3843
    1TYR    CD2   39   1.039   2.228   0.322 -0.4236  1.0299 -0.6605
    1TYR    HD2   40   1.138   2.237   0.279 -0.7018 -1.6853 -2.0589
    1TYR    CE2   41   0.944   2.314   0.264  0.6658  0.1982  0.0401
    1TYR    HE2   42   0.972   2.390   0.192 -1.1908 -0.0675 -1.0381
    1TYR      C   43   1.053   1.854   0.298  0.3248  0.6544  0.3902
    1TYR      O   44   1.150   1.862   0.220 -0.0855 -0.1137  0.6854
    2ARG      N   45   0.926   1.828   0.247 -0.1937  0.3443 -0.1402
    2ARG     HN   46   0.847   1.843   0.305  0.3446  0.1716  0.6533
    2ARG     CA   47   0.908   1.802   0.111  0.6064 -0.4339  0.2903
    2ARG     HA   48   1.006   1.797   0.067  1.4099  2.4943  1.5427
    2ARG     CB   49   0.817   1.673   0.098  0.2099  0.7419 -0.4018
    2ARG    HB1   50   0.730   1.674   0.167 -0.1724  0.0599 -0.8611
    2ARG    HB2   51   0.887   1.600   0.143 -0.6327  1.0931  1.5740
    2ARG     CG   52   0.790   1.622  -0.044 -0.4626 -0.5713  1.0520
    2ARG    HG1   53   0.725   1.698  -0.092  0.4560 -1.1254 -1.2344
    2ARG    HG2   54   0.890   1.629  -0.092  0.0012 -1.3268  1.8740
    2ARG     CD   55   0.737   1.484  -0.067 -0.2803  0.1820  1.2154
    2ARG    HD1   56   0.804   1.404  -0.029  0.2656  0.1968  0.3038
    2ARG    HD2   57   0.646   1.471  -0.004  0.4872  0.4914  2.4262
    2ARG     NE   58   0.721   1.467  -0.220  0.2963  0.1199 -0.4549
    2ARG     HE   59   0.791   1.501  -0.282  0.7982  0.9190  0.5191
    2ARG     CZ   60   0.604   1.419  -0.274  0.1699  0.1401  0.0370
    2ARG    NH1   61   0.603   1.428  -0.405  0.3332  0.6997 -0.0408
    2ARG   HH11   62   0.689   1.457  -0.448  1.6591 -1.5831  0.8979
    2ARG   HH12   63   0.516   1.415  -0.452 -0.1903  0.0400  1.0621
    2ARG    NH2   64   0.508   1.373  -0.194  0.1334 -0.4598  0.4873
    2ARG   HH21   65   0.419   1.353  -0.233 -0.2505  2.2378 -0.2098
    2ARG   HH22   66   0.524   1.351  -0.097  1.6717  0.1553  0.4102
    2ARG      C   67   0.816   1.914   0.058  0.2443  0.6013  0.2077
    2ARG      O   68   0.696   1.917   0.078  0.3247  1.0481 -0.1917
    3PRO      N   69   0.867   2.010  -0.014  0.4775  0.1296 -0.0320
    3PRO     CD   70   1.007   2.028  -0.021 -0.6675 -0.3140  0.4665
    3PRO    HD1   71   1.038   2.063   0.080 -1.2634  1.3346  0.1123
    3PRO    HD2   72   1.052   1.935  -0.061 -0.9166  0.1805 -1.0253
    3PRO     CA   73   0.788   2.132  -0.039 -0.4608  0.4676  0.3211
    3PRO     HA   74   0.747   2.172   0.052 -0.1666 -1.5351  1.3858
    3PRO     CB   75   0.895   2.238  -0.086  0.7255  0.5345  0.4613
    3PRO    HB1   76   0.902   2.308  -0.000 -0.4299  3.2540 -1.5053
    3PRO    HB2   77   0.861   2.297  -0.174  0.3673 -0.8460 -0.3571
    3PRO     CG   78   1.021   2.149  -0.114 -0.4216  0.2601  0.5165
    3PRO    HG1   79   1.115   2.205  -0.094 -0.8610  0.6833  1.4268
    3PRO    HG2   80   1.024   2.092  -0.210  0.0898 -2.2087  1.8903
    3PRO      C   81   0.682   2.105  -0.148  0.4114 -0.2084  0.1858
    3PRO      O   82   0.589   2.185  -0.157 -0.3504 -0.2509 -0.3080
    4GLU      N   83   0.702   1.998  -0.232 -0.1402  0.4064  0.2700
    4GLU     HN   84   0.786   1.946  -0.222 -0.5436 -0.4852 -0.7751
    4GLU     CA   85   0.601   1.946  -0.332  0.2478 -0.7836 -0.7866
    4GLU     HA   86   0.592   2.018  -0.412  0.1508  1.2517  0.9762
    4GLU     CB   87   0.644   1.803  -0.385  0.1707  0.4418  0.0114
    4GLU    HB1   88   0.600   1.790  -0.486  1.0537 -1.3143 -0.1851
    4GLU    HB2   89   0.604   1.719  -0.324 -1.2292  3.0797  2.9886
    4GLU     CG   90   0.798   1.784  -0.403 -0.1971 -0.2557 -0.2323
    4GLU    HG1   91   0.840   1.750  -0.306 -1.1136 -2.8042 -0.6582
    4GLU    HG2   92   0.840   1.881  -0.436 -2.2933  0.8025  0.0139
    4GLU     CD   93   0.832   1.670  -0.500 -0.1783  0.1992  1.1154
    4GLU    OE1   94   0.830   1.551  -0.451  0.2028  0.1912 -0.5847
    4GLU    OE2   95   0.863   1.689  -0.619 -0.0581  0.3295 -0.0266
    4GLU      C   96   0.462   1.935  -0.270  0.1579  0.2131 -0.1116
    4GLU      O   97   0.364   1.988  -0.323 -0.8995  0.6206  0.5548
    5THR      N   98   0.451   1.870  -0.160  0.5502  0.8162 -0.2693
    5THR     HN   99   0.535   1.848  -0.111  0.5587 -0.2031 -0.7225
    5THR     CA  100   0.326   1.845  -0.095  0.3356  0.0580  0.4535
    5THR     HA  101   0.238   1.874  -0.150 -0.2852  2.3297  2.4456
    5THR     CB  102   0.309   1.695  -0.072 -0.1485 -0.0403 -0.7042
    5THR     HB  103   0.216   1.675  -0.014  0.1090  1.4616  0.2628
    5THR    OG1  104   0.422   1.636   0.007 -0.7847 -0.2475  0.2274
    5THR    HG1  105   0.389   1.624   0.097  1.3808 -2.0602  0.8695
    5THR    CG2  106   0.302   1.616  -0.203  0.2741 -0.7367  0.2984
    5THR   HG21  107   0.298   1.506  -0.190  0.7017 -1.1277 -2.2511
    5THR   HG22  108   0.387   1.638  -0.272 -1.5610  2.2990 -1.1881
    5THR   HG23  109   0.206   1.637  -0.255  0.9981  0.8493 -0.4730
    5THR      C  110   0.316   1.921   0.034 -0.1307  0.4659 -0.0623
    5THR      O  111   0.206   1.927   0.095 -0.0969  0.0484 -0.4119
    6GLY      N  112   0.420   2.003   0.073  0.0546 -0.1489 -0.0072
    6GLY     HN  113   0.491   2.024   0.007 -0.5809 -1.6083 -1.2307
    6GLY     CA  114   0.408   2.074   0.197  0.0553 -0.0148 -0.6573
    6GLY    HA1  115   0.310   2.117   0.212 -0.4347 -1.2685 -0.1119
    6GLY    HA2  116   0.493   2.139   0.186  0.1688 -0.3856 -2.1087
    6GLY      C  117   0.440   1.988   0.323  1.0452  0.1085  0.6906
    6GLY      O  118   0.421   2.047   0.433 -0.5116 -0.1528  0.0009
    7THR      N  119   0.474   1.855   0.304 -0.5131 -0.4418  0.1188
    7THR     HN  120   0.497   1.826   0.212  1.8970  3.3586 -0.7376
    7THR     CA  121   0.485   1.754   0.414 -0.4284  0.3098 -0.4540
    7THR     HA  122   0.402   1.763   0.483  0.2594  2.4831  0.1735
    7THR     CB  123   0.480   1.614   0.372 -0.2728  0.4119 -0.4435
    7THR     HB  124   0.578   1.584   0.329 -0.6587 -0.5682 -0.6677
    7THR    OG1  125   0.376   1.602   0.279  0.0861  0.0692  0.1322
    7THR    HG1  126   0.348   1.512   0.262  3.9653 -0.8822 -2.5534
    7THR    CG2  127   0.429   1.521   0.485  0.1865 -0.3391 -0.0226
    7THR   HG21  128   0.499   1.529   0.570 -0.7009 -1.3606  0.8406
    7THR   HG22  129   0.404   1.418   0.449 -3.0526 -0.7162  2.7992
    7THR   HG23  130   0.333   1.553   0.531 -0.8288 -2.2051 -0.6947
    7THR      C  131   0.608   1.764   0.504 -0.4304  0.9214 -0.0184
    7THR      O  132   0.723   1.774   0.455  0.0355  0.2076  0.0831
    8TRP      N  133   0.592   1.785   0.634  0.0815 -0.1738 -0.3609
    8TRP     HN  134   0.504   1.776   0.680 -0.0709 -1.7847 -0.9027
    8TRP     CA  135   0.706   1.785   0.725  0.8778  0.1723  0.5574
    8TRP     HA  136   0.792   1.821   0.670 -0.3986  2.0871 -0.3031
    8TRP     CB  137   0.685   1.888   0.841  0.2298 -0.1295 -0.5067
    8TRP    HB1  138   0.779   1.884   0.899 -0.4628 -0.0840  0.6572
    8TRP    HB2  139   0.605   1.871   0.917  0.7653  0.5124  0.2065
    8TRP     CG  140   0.681   2.037   0.805  0.5643  0.4353 -0.5031
    8TRP    CD1  141   0.631   2.101   0.695  0.1552  0.8090  0.2514
    8TRP    HD1  142   0.600   2.046   0.608 -1.1399 -0.0098  1.1935
    8TRP    NE1  143   0.609   2.233   0.717 -0.1417 -0.4107 -0.0406
    8TRP    HE1  144   0.598   2.303   0.649 -1.9268 -2.0220 -1.5451
    8TRP    CE2  145   0.641   2.255   0.850 -0.2921  0.6605  0.5181
    8TRP    CD2  146   0.675   2.128   0.911 -0.3595 -0.7617  0.4953
    8TRP    CE3  147   0.700   2.113   1.049  0.5752 -0.4238 -0.0103
    8TRP    HE3  148   0.714   2.021   1.104  1.4727  0.2004  0.8429
    8TRP    CZ3  149   0.684   2.236   1.123 -0.4016 -0.3649 -0.1239
    8TRP    HZ3  150   0.682   2.238   1.231 -1.0186  0.3816 -0.1401
    8TRP    CZ2  151   0.628   2.369   0.928 -0.6165 -0.4425 -0.2647
    8TRP    HZ2  152   0.575   2.456   0.891 -0.2876  0.6760  1.7469
    8TRP    CH2  153   0.647   2.358   1.064  0.9472  0.4503 -0.9251
    8TRP    HH2  154   0.610   2.438   1.126 -5.1995 -1.3758 -1.5868
    8TRP      C  155   0.721   1.646   0.777 -0.1011 -0.4143  0.7073
    8TRP      O  156   0.638   1.602   0.855  0.3398  0.2469 -0.0014
    9TYR      N  157   0.830   1.573   0.738 -0.2547 -0.5068 -0.1802
    9TYR     HN  158   0.903   1.604   0.677  0.6631 -0.5866  0.8371
    9TYR     CA  159   0.848   1.442   0.802 -0.0875 -0.3687 -0.2614
    9TYR     HA  160   0.758   1.395   0.839  0.0472 -1.7845 -1.5849
    9TYR     CB  161   0.910   1.342   0.699  0.4753 -0.0857 -0.4760
    9TYR    HB1  162   0.941   1.242   0.735  2.6331  0.9420  0.7204
    9TYR    HB2  163   1.005   1.393   0.672  1.2487 -0.9116  0.5823
    9TYR     CG  164   0.829   1.339   0.570  0.5827 -0.3698  0.0913
    9TYR    CD1  165   0.879   1.369   0.448  0.4910 -0.0933  0.4393
    9TYR    HD1  166   0.983   1.400   0.446  0.4935 -0.1470 -1.4966
    9TYR    CE1  167   0.807   1.342   0.330  0.4179  0.0161  0.1617
    9TYR    HE1  168   0.840   1.382   0.235 -2.5690  0.4991 -0.7744
    9TYR     CZ  169   0.674   1.295   0.336 -0.2544  0.0445 -0.4006
    9TYR     OH  170   0.587   1.298   0.228 -0.1155 -0.1583  0.2817
    9TYR     HH  171   0.498   1.280   0.260 -0.0101  1.3863  1.5915
    9TYR    CD2  172   0.703   1.276   0.577  0.0082 -0.5408 -0.3217
    9TYR    HD2  173   0.680   1.237   0.675  0.6160 -0.7653 -0.2601
    9TYR    CE2  174   0.621   1.264   0.462  0.0522 -0.6184  0.0328
    9TYR    HE2  175   0.520   1.227   0.470 -0.7706  1.1601 -1.4948
    9TYR      C  176   0.949   1.438   0.920 -0.2441 -0.9940 -0.5869
    9TYR    OT1  177   1.073   1.450   0.900  0.0914 -0.2292  0.1409
    9TYR    OT2  178   0.908   1.412   1.037 -0.1355 -0.4527  0.3442
   10SOL     OW  179   3.208   0.914   2.351  0.3468  0.4712 -0.4830
   10SOL    HW1  180   3.203   0.896   2.258 -1.5127 -0.4157 -0.2467
   10SOL    HW2  181   3.178   1.004   2.360  0.6618  0.6039 -0.7402
   11SOL     OW  182   1.164   1.594   3.738  0.4795 -0.4020 -0.6546
   11SOL    HW1  183   1.190   1.637   3.657 -1.6204  0.1051 -1.1237
   11SOL    HW2  184   1.174   1.501   3.720  1.9140 -0.2434 -0.7810
   12SOL     OW  185   2.831   0.922   1.592 -0.2543 -0.3288  0.3623
   12SOL    HW1  186   2.844   0.933   1.498 -1.5466  1.5635  0.3508
   12SOL    HW2  187   2.859   0.832   1.610  2.4763  0.0676 -1.3469
   13SOL     OW  188   3.147   2.749   2.887 -1.1258  0.1469  0.4738
   13SOL    HW1  189   3.116   2.658   2.887 -0.9335  0.0688 -0.5719
   13SOL    HW2  190   3.124   2.782   2.800 -0.6237  0.9062  0.6200
   14SOL     OW  191   0.728   1.058   3.261 -0.1615 -0.5274 -0.0409
   14SOL    HW1  192   0.720   1.019   3.348  0.8356 -0.5055  0.0797
   14SOL    HW2  193   0.773   1.141   3.277 -1.8609  0.4875 -0.3422
   15SOL     OW  194   2.036   3.076   2.743 -0.1405  0.1764  0.1891
   15SOL    HW1  195   2.114   3.038   2.701  0.2007  1.6909 -0.6492
   15SOL    HW2  196   2.031   3.033   2.828  3.2864  1.9104  1.4812
   16SOL     OW  197   0.342   1.602   1.957  0.0185 -0.3304 -0.0989
   16SOL    HW1  198   0.306   1.688   1.938  1.5314  0.6236  1.1281
   16SOL    HW2  199   0.276   1.560   2.012  1.1326  1.9051  3.2623
   17SOL     OW  200   0.173   2.701   0.699 -0.2325 -0.5735  0.5930
   17SOL    HW1  201   0.191   2.619   0.746 -0.0464 -0.0791  1.4076
   17SOL    HW2  202   0.136   2.759   0.765  1.4385  0.6580  0.5197
   18SOL     OW  203   1.378   0.632   1.130  0.0811  0.1531 -0.2122
   18SOL    HW1  204   1.393   0.574   1.205  0.6240  1.1626  0.4863
   18SOL    HW2  205   1.296   0.601   1.092  0.6950 -1.4887 -0.2790
   19SOL     OW  206   1.104   3.774   0.772  0.0327  0.2181  0.0317
   19SOL    HW1  207   1.157   3.749   0.696  1.6809  2.8077  0.2128
   19SOL    HW2  208   1.167   3.781   0.844 -1.1197  0.1641  1.0936
   20SOL     OW  209   0.948   3.820   1.964  0.7864 -0.3112 -0.9171
   20SOL    HW1  210   0.962   3.787   1.876 -1.0026  0.2291 -1.4579
   20SOL    HW2  211   0.969   3.914   1.958  0.3032 -0.1969 -0.8777
   21SOL     OW  212   0.905   3.578   0.793  0.2163  0.5931  0.2399
   21SOL    HW1  213   0.946   3.603   0.710 -1.6712  0.7864 -0.6716
   21SOL    HW2  214   0.963   3.615   0.860 -0.3026  4.0023 -0.9983
   22SOL     OW  215   3.360   1.128   1.350  0.1586 -0.2447  0.3695
   22SOL    HW1  216   3.398   1.100   1.433  0.2677  1.1574  0.8260
   22SOL    HW2  217   3.407   1.209   1.329 -1.0481  0.3447 -0.1617
   23SOL     OW  218   0.738   1.574   2.867 -0.2026 -0.3054 -0.2962
   23SOL    HW1  219   0.831   1.597   2.872 -0.2390 -0.3053  3.9858
   23SOL    HW2  220   0.693   1.657   2.851  0.4212  0.3559  1.1821
   24SOL     OW  221   0.474   0.414   1.504 -0.1515  0.5676 -0.1633
   24SOL    HW1  222   0.527   0.448   1.576  0.3852  1.4547 -0.9640
   24SOL    HW2  223   0.507   0.458   1.426 -0.3392 -0.8022 -1.0544
   25SOL     OW  224   1.511   1.328   1.294  0.3806  0.8427 -0.0056
   25SOL    HW1  225   1.451   1.257   1.273 -0.5037  1.6677 -0.3687
   25SOL    HW2  226   1.558   1.298   1.372  0.9797 -0.6815 -0.9136
   26SOL     OW  227   2.599   3.430   1.191 -0.3636  0.6446 -0.9305
   26SOL    HW1  228   2.682   3.412   1.234  0.3330 -0.4717 -2.6169
   26SOL    HW2  229   2.537   3.445   1.262  0.6876 -1.2044  0.4642
   27SOL     OW  230   1.360   2.543   0.182  0.6301  0.2413  0.6934
   27SOL    HW1  231   1.442   2.593   0.176  1.0941 -0.5987 -0.3924
   27SOL    HW2  232   1.328   2.541   0.092 -1.1539  1.4291  1.2402
   28SOL     OW  233   3.752   0.353   1.657 -0.1351  0.0390  0.4312
   28SOL    HW1  234   3.732   0.287   1.723 -1.1261  0.2735  0.3835
   28SOL    HW2  235   3.671   0.362   1.606  0.7797 -0.5594 -1.2092
   29SOL     OW  236   1.967   0.873   2.800  0.3482  0.0557 -0.2639
   29SOL    HW1  237   1.919   0.950   2.830 -2.0956 -1.5370  0.1748
   29SOL    HW2  238   2.019   0.846   2.875 -0.2134  0.2009  0.1776
   30SOL     OW  239   1.482   2.262   1.516  0.2857  0.6313  0.3114
   30SOL    HW1  240   1.549   2.263   1.585  0.3400 -0.3043  0.2914
   30SOL    HW2  241   1.488   2.174   1.479  0.9014  1.4118 -1.5511
   31SOL     OW  242   1.824   1.007   1.617  0.5520  0.0517  0.1113
   31SOL    HW1  243   1.825   1.056   1.699  0.0352 -2.3305  1.6064
   31SOL    HW2  244   1.912   1.020   1.581  0.7354  1.2680  0.9171
   32SOL     OW  245   1.046   2.808   2.269 -0.0211  0.4842  0.1153
   32SOL    HW1  246   1.070   2.777   2.356  0.8205 -0.7047 -0.5135
   32SOL    HW2  247   0.980   2.746   2.238  0.6596  0.0954 -0.6056
   33SOL     OW  248   2.749   0.387   0.857 -0.0132  0.2047  0.0224
   33SOL    HW1  249   2.782   0.469   0.821  1.1219  0.3214  1.2607
   33SOL    HW2  250   2.721   0.410   0.946 -0.9455 -0.4768 -0.0805
   34SOL     OW  251   3.080   3.692   2.791  0.0695 -0.0502  0.4367
   34SOL    HW1  252   2.996   3.694   2.746 -0.0889  0.1970  0.7397
   34SOL    HW2  253   3.132   3.627   2.742 -0.0188  0.3728 -0.2402
   35SOL     OW  254   0.967   1.593   3.002 -0.4299  0.3095  0.8774
   35SOL    HW1  255   0.920   1.619   3.081 -1.1710  0.2736  0.4627
   35SOL    HW2  256   1.049   1.643   3.004 -0.5704  0.5196  1.5161
   36SOL     OW  257   0.360   1.023   3.393  0.0145 -0.4548 -0.0276
   36SOL    HW1  258   0.293   0.960   3.419 -0.3566  0.0605  0.2991
   36SOL    HW2  259   0.443   0.984   3.419 -0.2783 -0.3998  1.0086
   37SOL     OW  260   1.494   1.982   1.407  0.1770 -0.3221  0.1626
   37SOL    HW1  261   1.531   1.994   1.320 -1.0473  2.5005 -0.0622
   37SOL    HW2  262   1.570   1.962   1.462  0.8301 -3.5252 -1.6164
   38SOL     OW  263   2.676   0.415   2.915  0.1185 -0.1799 -0.8513
   38SOL    HW1  264   2.713   0.503   2.923  0.0766 -0.1286 -1.2149
   38SOL    HW2  265   2.612   0.422   2.844 -0.4675 -0.3133 -0.3405
   39SOL     OW  266   1.254   1.396   3.241 -0.0331  0.0060 -0.4713
   39SOL    HW1  267   1.178   1.424   3.291  0.4685  0.3662  0.1034
   39SOL    HW2  268   1.305   1.476   3.228 -1.3428  0.4778 -3.7712
   40SOL     OW  269   1.103   3.122   2.993  0.1713 -0.6086  0.0295
   40SOL    HW1  270   1.108   3.200   3.049 -2.3508  0.2775 -0.8232
   40SOL    HW2  271   1.013   3.123   2.959 -0.1720 -4.2642  0.4438
   41SOL     OW  272   0.803   0.185   3.496  0.1815 -0.5041  0.6044
   41SOL    HW1  273   0.810   0.137   3.414  0.5345  0.6745 -0.0900
   41SOL    HW2  274   0.757   0.126   3.555 -0.5933 -1.1680 -0.6189
   42SOL     OW  275   3.445   0.757   1.298  0.0800 -0.2806 -0.3253
   42SOL    HW1  276   3.397   0.808   1.233  1.7877  2.6649  0.5285
   42SOL    HW2  277   3.389   0.755   1.375  1.1583  3.3253  0.7439
   43SOL     OW  278   0.548   3.263   1.189 -0.6622  0.8313 -0.0513
   43SOL    HW1  279   0.581   3.293   1.273 -0.1024 -0.0953  0.0692
   43SOL    HW2  280   0.616   3.288   1.126 -1.1905  1.7435 -0.2813
   44SOL     OW  281   1.253   3.421   3.446  0.0799  0.0971  0.1118
   44SOL    HW1  282   1.169   3.376   3.433  1.1134 -1.8580 -0.1857
   44SOL    HW2  283   1.237   3.510   3.416 -2.3872  0.3011  1.7491
   45SOL     OW  284   1.038   1.389   2.471  0.5357  0.2081  0.5838
   45SOL    HW1  285   0.944   1.380   2.488 -0.0383  1.8679 -1.3077
   45SOL    HW2  286   1.077   1.396   2.558 -0.8087 -2.3469  1.5014
   46SOL     OW  287   1.113   3.596   3.663  0.6711  0.0118  0.7166
   46SOL    HW1  288   1.114   3.673   3.606 -0.5001  0.4825  1.3004
   46SOL    HW2  289   1.201   3.560   3.656  0.7022  0.3258 -1.0180
   47SOL     OW  290   1.565   0.803   2.754  0.5652  0.0197 -0.0075
   47SOL    HW1  291   1.478   0.797   2.714  0.9631 -2.7971 -0.6520
   47SOL    HW2  292   1.626   0.805   2.681  1.1232  1.4689  0.4514
   48SOL     OW  293   2.280   2.643   2.643 -0.0041  0.3911 -0.1738
   48SOL    HW1  294   2.223   2.639   2.720  0.8581  0.6211  0.4866
   48SOL    HW2  295   2.368   2.649   2.678  0.3215  2.0339 -1.1722
   49SOL     OW  296   0.297   2.434   0.706 -0.0011 -0.1512 -0.2881
   49SOL    HW1  297   0.356   2.484   0.650  0.3530 -0.4521 -0.1903
   49SOL    HW2  298   0.290   2.349   0.664  1.1129 -0.7445  0.6573
   50SOL     OW  299   1.603   1.462   1.610 -0.0912  0.0548 -0.0114
   50SOL    HW1  300   1.679   1.454   1.668 -0.1151  1.3099  0.2236
   50SOL    HW2  301   1.565   1.547   1.632 -1.9441 -0.8220  0.3051
   51SOL     OW  302   2.686   1.492   3.423 -0.3189  0.7923  1.0430
   51SOL    HW1  303   2.591   1.484   3.415 -0.2214  1.5270 -1.9178
   51SOL    HW2  304   2.711   1.554   3.355  2.2752  0.9523  2.0220
   52SOL     OW  305   3.788   2.097   2.517 -0.2302 -0.8660  0.8907
   52SOL    HW1  306   3.703   2.055   2.528 -0.6402 -0.9573 -1.9495
   52SOL    HW2  307   3.802   2.100   2.422  2.7207 -0.3941  1.2345
   53SOL     OW  308   3.624   2.489   2.792 -0.2231  0.0294  0.3729
   53SOL    HW1  309   3.620   2.425   2.863  1.3633  1.6902  2.0883
   53SOL    HW2  310   3.718   2.505   2.780 -0.4184 -0.5831 -2.5263
   54SOL     OW  311   3.123   2.054   2.595  0.2075  0.1233 -0.0916
   54SOL    HW1  312   3.196   2.104   2.631  1.4856 -1.8060  0.1718
   54SOL    HW2  313   3.077   2.019   2.672  1.3259 -1.7694 -0.2093
   55SOL     OW  314   2.960   1.584   0.700  0.0984 -0.0245 -0.0642
   55SOL    HW1  315   3.035   1.539   0.739 -0.2935  0.7263  1.6343
   55SOL    HW2  316   2.884   1.548   0.746 -0.4718  0.2271 -0.7918
   56SOL     OW  317   3.740   3.312   2.227 -0.3993  0.3094  0.4281
   56SOL    HW1  318   3.759   3.396   2.268  0.1205 -0.0420  0.9257
   56SOL    HW2  319   3.645   3.311   2.216 -0.6430  0.1365  2.2684
   57SOL     OW  320   2.174   0.397   1.249  0.4652 -0.3291 -0.1113
   57SOL    HW1  321   2.156   0.393   1.155 -0.3533  0.1418  0.0241
   57SOL    HW2  322   2.262   0.436   1.254  0.1165  0.5674 -0.6557
   58SOL     OW  323   1.316   0.925   3.404 -0.3417 -0.3662 -0.1415
   58SOL    HW1  324   1.334   0.831   3.401  1.7433 -0.0101 -0.8389
   58SOL    HW2  325   1.348   0.957   3.320 -0.4597  1.0684  0.3406
   59SOL     OW  326   1.228   1.138   2.588  0.5053 -0.0847 -0.9019
   59SOL    HW1  327   1.207   1.174   2.502  0.7369 -0.1275 -0.9763
   59SOL    HW2  328   1.157   1.168   2.644  0.2800 -0.1713 -1.1384
   60SOL     OW  329   1.065   0.449   2.426  0.0575 -0.2093  0.2002
   60SOL    HW1  330   1.137   0.513   2.430 -1.6002  1.7616  0.1923
   60SOL    HW2  331   0.986   0.503   2.419 -1.5593 -2.2457  1.6846
   61SOL     OW  332   1.851   3.004   0.182  0.0909 -0.5462 -0.0232
   61SOL    HW1  333   1.924   2.982   0.240  1.9947  1.4600 -1.4959
   61SOL    HW2  334   1.773   2.986   0.234  1.6448 -0.7425  2.4049
   62SOL     OW  335   2.834   0.426   2.267  0.0361  0.3512  0.4892
   62SOL    HW1  336   2.804   0.368   2.337 -0.1289 -0.6345 -0.3667
   62SOL    HW2  337   2.811   0.379   2.187 -0.6765  1.9026 -0.2472
   63SOL     OW  338   2.925   2.965   0.105 -0.2917  0.1698 -0.6495
   63SOL    HW1  339   3.014   2.941   0.131 -0.3689  0.0847 -0.4575
   63SOL    HW2  340   2.926   3.061   0.105  0.2757  0.1872 -2.3196
   64SOL     OW  341   3.729   2.016   0.979  0.1979 -0.3618  0.4362
   64SOL    HW1  342   3.770   2.011   1.065 -0.6326 -0.6853  0.8184
   64SOL    HW2  343   3.636   1.999   0.995  0.1405 -1.1402 -0.6144
   65SOL     OW  344   0.528   1.307   2.502  0.2027 -0.4806  0.0493
   65SOL    HW1  345   0.443   1.291   2.460 -0.7911  1.2908  1.2770
   65SOL    HW2  346   0.536   1.237   2.567 -0.3032 -0.6771 -0.0926
   66SOL     OW  347   1.442   1.369   3.705  0.2536 -0.3127  0.0422
   66SOL    HW1  348   1.403   1.282   3.693 -0.9464 -0.0578  1.7793
   66SOL    HW2  349   1.491   1.384   3.624 -2.1875 -1.2120 -1.7229
   67SOL     OW  350   3.266   3.094   0.109  0.2717  0.3330 -0.0859
   67SOL    HW1  351   3.331   3.119   0.175 -0.8084  1.2453  0.6519
   67SOL    HW2  352   3.235   3.008   0.137  1.4261 -0.3117 -0.6775
   68SOL     OW  353   1.894   2.184   2.043 -0.5200 -0.2292  0.2188
   68SOL    HW1  354   1.852   2.267   2.023  0.3975  0.5293  1.3067
   68SOL    HW2  355   1.969   2.180   1.983 -0.0268  0.1791  0.8031
   69SOL     OW  356   2.786   1.428   0.125  0.0097  0.2775  0.2272
   69SOL    HW1  357   2.810   1.486   0.053 -0.1742 -1.8020 -1.6231
   69SOL    HW2  358   2.868   1.414   0.173  0.5141  0.3747 -0.5872
   70SOL     OW  359   3.623   3.659   1.374  0.3313 -0.1738  0.2711
   70SOL    HW1  360   3.715   3.641   1.355  1.1953  2.0580  1.9344
   70SOL    HW2  361   3.616   3.654   1.469 -0.8932  1.2409  0.2942
   71SOL     OW  362   3.828   1.654   2.031  0.4343  0.5366 -0.1580
   71SOL    HW1  363   3.753   1.715   2.028 -1.0238 -1.0483  1.7932
   71SOL    HW2  364   3.792   1.572   1.998  1.3762 -0.1952  0.6024
   72SOL     OW  365   2.134   0.220   2.970 -0.3488 -0.2398  0.1277
   72SOL    HW1  366   2.183   0.202   2.890  1.0728 -0.4619  1.0145
   72SOL    HW2  367   2.081   0.142   2.984  0.1257 -0.6032 -0.0784
   73SOL     OW  368   2.744   1.786   3.206 -0.3157  0.1502  0.0614
   73SOL    HW1  369   2.728   1.767   3.114  0.5006  0.9621 -0.2526
   73SOL    HW2  370   2.658   1.810   3.240 -0.4457  0.8270 -0.7230
   74SOL     OW  371   0.184   1.009   1.175  0.2499  1.5394  0.2004
   74SOL    HW1  372   0.178   0.961   1.257  1.2514  1.3158  0.1597
   74SOL    HW2  373   0.094   1.016   1.144  0.1151 -3.4490 -1.5502
   75SOL     OW  374   3.675   1.330   3.022  0.1296 -0.0654  0.5197
   75SOL    HW1  375   3.767   1.333   3.049  1.1698 -0.7200 -2.4685
   75SOL    HW2  376   3.661   1.414   2.977  0.9190 -1.7307 -3.2428
   76SOL     OW  377   1.658   0.273   0.412 -0.2861 -0.0603  0.4547
   76SOL    HW1  378   1.668   0.355   0.461 -1.7009  0.0122  0.6701
   76SOL    HW2  379   1.720   0.213   0.453 -1.8473 -0.2034  2.8382
   77SOL     OW  380   3.705   0.753   0.047  0.1880  0.1114  0.1401
   77SOL    HW1  381   3.777   0.812   0.023  0.4969 -0.6026 -0.7400
   77SOL    HW2  382   3.732   0.714   0.130  1.0702 -0.5281 -0.4268
   78SOL     OW  383   0.099   0.530   1.880  0.0052 -0.5332  0.3022
   78SOL    HW1  384   0.148   0.504   1.801  0.3407  0.4488  0.1792
   78SOL    HW2  385   0.141   0.481   1.951  1.4029  0.5440  0.2475
   79SOL     OW  386   3.588   0.745   2.691  0.1787 -0.2829  0.7128
   79SOL    HW1  387   3.502   0.744   2.733 -0.4693  0.3216 -0.5458
   79SOL    HW2  388   3.621   0.656   2.701 -1.9425 -1.4171 -1.4262
   80SOL     OW  389   2.922   3.229   3.339 -0.6008  0.4440  0.6162
   80SOL    HW1  390   2.894   3.197   3.425 -1.6153  0.2218  0.2144
   80SOL    HW2  391   3.012   3.258   3.353 -0.7632  0.4511  1.7667
   81SOL     OW  392   1.331   0.397   3.151 -0.6889 -0.4859 -0.2583
   81SOL    HW1  393   1.343   0.415   3.057  0.3103 -0.3096 -0.1069
   81SOL    HW2  394   1.313   0.483   3.189  1.1958 -0.1843  0.0351
   82SOL     OW  395   2.761   1.174   1.451 -0.3591  0.2082  0.0938
   82SOL    HW1  396   2.667   1.160   1.458 -0.3146  0.0569  0.4141
   82SOL    HW2  397   2.795   1.150   1.537 -0.2134  1.7452  0.4974
   83SOL     OW  398   1.003   3.559   3.064 -0.5667 -0.3688 -0.7176
   83SOL    HW1  399   1.048   3.635   3.101  1.4702 -1.5018 -0.6771
   83SOL    HW2  400   0.927   3.546   3.121 -0.3840  0.9943 -0.1064
   84SOL     OW  401   0.183   1.795   1.895  0.1624 -0.2524  0.2410
   84SOL    HW1  402   0.110   1.783   1.955 -0.5410  0.1030 -0.5321
   84SOL    HW2  403   0.149   1.853   1.827  0.1434 -2.5445 -1.8241
   85SOL     OW  404   0.859   1.922   3.126  0.7589 -0.5107 -0.7481
   85SOL    HW1  405   0.808   1.983   3.179  0.1444 -1.2409 -0.4847
   85SOL    HW2  406   0.880   1.850   3.185  2.1983 -0.1803 -0.8201
   86SOL     OW  407   3.277   0.871   2.757 -0.2260 -0.1445 -0.0986
   86SOL    HW1  408   3.306   0.798   2.812  0.3380 -0.6422 -1.0226
   86SOL    HW2  409   3.183   0.878   2.774 -0.6262 -2.1471 -1.1467
   87SOL     OW  410   0.640   0.481   2.661 -0.0858 -0.1982 -0.2881
   87SOL    HW1  411   0.598   0.566   2.653 -2.4530 -1.1439  0.9582
   87SOL    HW2  412   0.641   0.463   2.755 -0.7143 -1.9868 -0.5724
   88SOL     OW  413   3.820   3.469   3.126  0.3049  0.1418 -0.0876
   88SOL    HW1  414   3.775   3.405   3.181  1.5420  1.0971  2.1654
   88SOL    HW2  415   3.754   3.535   3.107 -0.0661 -0.0411  0.5389
   89SOL     OW  416   1.268   0.644   2.448  0.6617 -0.2415 -0.0892
   89SOL    HW1  417   1.332   0.643   2.377  0.1362  0.4918 -0.5930
   89SOL    HW2  418   1.274   0.733   2.484  0.2976 -0.3352  0.2090
   90SOL     OW  419   2.710   2.354   2.571  0.1810 -0.2124 -0.0028
   90SOL    HW1  420   2.754   2.344   2.487  1.6009  0.4162  0.6340
   90SOL    HW2  421   2.755   2.293   2.630  2.0342  2.2844  1.3192
   91SOL     OW  422   2.932   1.591   1.560 -0.0513 -0.4609  0.3711
   91SOL    HW1  423   2.985   1.670   1.558  0.4481 -0.6568  2.5202
   91SOL    HW2  424   2.995   1.520   1.546  0.0561 -0.6172  1.5514
   92SOL     OW  425   1.708   3.818   0.803 -0.6982 -0.2446  0.0760
   92SOL    HW1  426   1.672   3.752   0.861 -0.6903 -2.5721 -2.3377
   92SOL    HW2  427   1.636   3.841   0.744 -0.0019 -0.0901 -0.7465
   93SOL     OW  428   2.378   1.862   1.487  0.3499  0.0532  0.4928
   93SOL    HW1  429   2.318   1.791   1.465  1.4576 -0.3936 -1.2796
   93SOL    HW2  430   2.446   1.821   1.540  0.7486 -0.1230 -0.1492
   94SOL     OW  431   0.076   1.327   0.882  0.1199  0.2825  0.4130
   94SOL    HW1  432   0.134   1.251   0.879 -1.4537 -0.9413 -0.3858
   94SOL    HW2  433  -0.004   1.295   0.924  0.4450  2.2884  2.7856
   95SOL     OW  434   1.839   3.795   1.572 -0.3982 -0.0231 -0.1764
   95SOL    HW1  435   1.864   3.706   1.544  0.2666  0.0047  0.2964
   95SOL    HW2  436   1.800   3.782   1.659  0.9423  0.2720  0.5007
   96SOL     OW  437   1.080   0.662   0.585 -0.8428  0.0643  0.6067
   96SOL    HW1  438   1.081   0.612   0.503  1.2518  1.9476 -0.6340
   96SOL    HW2  439   1.120   0.603   0.649 -2.6193 -1.4792  0.3901
   97SOL     OW  440   1.541   0.185   1.328 -0.1114 -0.1366 -0.6162
   97SOL    HW1  441   1.482   0.190   1.253  0.3340 -3.3945 -1.3366
   97SOL    HW2  442   1.483   0.179   1.404 -0.5952  1.2572 -0.8536
   98SOL     OW  443   0.020   1.443   1.188 -0.5760 -0.5161  0.6125
   98SOL    HW1  444   0.010   1.446   1.283  0.6437  0.7920  0.7355
   98SOL    HW2  445   0.105   1.401   1.174 -0.6573 -0.5153  0.1183
   99SOL     OW  446   3.537   0.220   3.330  0.1251  0.0267 -0.0828
   99SOL    HW1  447   3.571   0.290   3.273  0.2277 -1.0578 -1.3954
   99SOL    HW2  448   3.610   0.158   3.337 -0.8263 -1.2824 -1.1926
  100SOL     OW  449   0.611   1.802   2.242 -0.1685 -0.0810  0.1124
  100SOL    HW1  450   0.560   1.765   2.314  1.4791  0.4333  1.6232
  100SOL    HW2  451   0.624   1.730   2.181  0.3665 -1.1925  1.4938
  101SOL     OW  452   2.726   2.923   2.088 -0.1262 -0.4162  0.1304
  101SOL    HW1  453   2.740   2.927   2.183  1.3482 -3.1835  0.1187
  101SOL    HW2  454   2.640   2.963   2.076 -0.2792  0.2012  2.5962
  102SOL     OW  455   0.640   2.722   0.843 -0.0639 -0.2733 -0.5115
  102SOL    HW1  456   0.669   2.808   0.873  0.9255 -0.8643  0.2988
  102SOL    HW2  457   0.631   2.731   0.748 -2.7063  1.4754 -0.1888
  103SOL     OW  458   1.940   0.816   1.325 -0.6039  0.6527 -0.1019
  103SOL    HW1  459   1.913   0.828   1.416 -2.3287 -0.3741 -0.4499
  103SOL    HW2  460   1.882   0.874   1.275 -0.5639  0.2199 -0.6615
  104SOL     OW  461   0.474   0.576   0.112 -0.1828  0.1794  0.5710
  104SOL    HW1  462   0.555   0.602   0.155 -0.7618 -1.0508  2.5642
  104SOL    HW2  463   0.479   0.480   0.108 -1.1993  0.1337  0.0338
  105SOL     OW  464   2.627   0.325   0.134 -0.0671  0.6983  0.1512
  105SOL    HW1  465   2.539   0.357   0.150  0.5996  1.8393  1.8378
  105SOL    HW2  466   2.630   0.240   0.179 -0.3744  0.5688 -0.0777
  106SOL     OW  467   3.658   3.800   0.449  0.4936  0.0274 -0.6389
  106SOL    HW1  468   3.679   3.753   0.529 -0.6670 -0.1404 -0.4049
  106SOL    HW2  469   3.670   3.892   0.470 -0.2112  0.0101 -0.1258
  107SOL     OW  470   0.696   2.370   3.488  0.4817  0.0555 -0.2618
  107SOL    HW1  471   0.634   2.325   3.546  1.3766 -0.3270  0.4104
  107SOL    HW2  472   0.735   2.300   3.436  0.3264  0.3027 -0.7179
  108SOL     OW  473   1.410   1.920   0.845  0.0959 -0.1945  0.1293
  108SOL    HW1  474   1.390   1.885   0.932 -1.9212 -0.6286 -0.4576
  108SOL    HW2  475   1.359   2.000   0.838 -0.9716 -0.9308 -1.1605
  109SOL     OW  476   2.957   3.674   2.227 -0.5168  0.4627  0.0246
  109SOL    HW1  477   3.017   3.651   2.298 -0.7776 -1.1017 -0.2241
  109SOL    HW2  478   2.995   3.634   2.149 -1.6567 -0.2129 -0.2078
  110SOL     OW  479   0.508   2.491   2.997 -0.2201 -0.2044  0.0552
  110SOL    HW1  480   0.433   2.474   2.940  0.4935 -1.2085 -0.6217
  110SOL    HW2  481   0.576   2.525   2.939  0.4226 -0.9613  0.3420
  111SOL     OW  482   2.011   1.327   3.805 -0.6362 -0.3607 -0.1882
  111SOL    HW1  483   2.088   1.379   3.827 -0.6004 -0.4543 -0.0914
  111SOL    HW2  484   1.969   1.308   3.889 -1.1828  0.3226 -0.3027
  112SOL     OW  485   0.307   1.114   0.857  0.1538 -0.5459  0.0352
  112SOL    HW1  486   0.356   1.194   0.878 -0.7450 -0.0484  0.2732
  112SOL    HW2  487   0.336   1.051   0.924 -0.9732  0.3438  1.4292
  113SOL     OW  488   0.463   2.998   0.595 -0.0260 -0.3151  0.0539
  113SOL    HW1  489   0.410   2.919   0.585 -1.0288  0.1312  1.4562
  113SOL    HW2  490   0.417   3.049   0.662  0.4898  1.5615 -0.9633
  114SOL     OW  491   3.192   1.400   2.982  0.4529  0.3368  0.6276
  114SOL    HW1  492   3.148   1.396   3.067  0.4219  0.7863  0.6305
  114SOL    HW2  493   3.217   1.491   2.971 -0.5459  0.5241 -0.3454
  115SOL     OW  494   3.587   3.089   0.223  0.1790  0.4954 -0.2310
  115SOL    HW1  495   3.637   3.087   0.141 -0.0533 -1.4999 -0.3791
  115SOL    HW2  496   3.649   3.058   0.289  0.3349  2.0006  0.3666
  116SOL     OW  497   1.248   0.994   0.607  0.7741  0.1452  0.0334
  116SOL    HW1  498   1.165   0.947   0.618  0.5074  1.0151  2.6564
  116SOL    HW2  499   1.227   1.084   0.632  2.8063  0.0358  2.5143
  117SOL     OW  500   3.154   1.226   1.136  0.5892  0.3687 -0.0393
  117SOL    HW1  501   3.123   1.254   1.222 -0.5211 -2.6492  0.6989
  117SOL    HW2  502   3.244   1.197   1.152  0.6173  0.4548 -0.0426
  118SOL     OW  503   0.569   2.771   1.309  0.0812  0.4899  0.3159
  118SOL    HW1  504   0.642   2.712   1.324 -0.4059 -0.1963  0.0543
  118SOL    HW2  505   0.493   2.714   1.303 -0.5116  1.2058  0.7820
  119SOL     OW  506   3.507   0.425   3.841 -0.2170 -0.7298  0.3466
  119SOL    HW1  507   3.521   0.449   3.750 -0.6863 -1.8598 -0.0390
  119SOL    HW2  508   3.592   0.395   3.872  0.8810  2.9416  1.3855
  120SOL     OW  509   2.572   2.176   3.732  0.4471 -0.2783  0.0285
  120SOL    HW1  510   2.491   2.128   3.715 -0.3315  0.6552  1.0028
  120SOL    HW2  511   2.567   2.199   3.825  0.9345  1.4107 -0.3299
  121SOL     OW  512   2.857   0.780   1.962  0.2383  0.2100  0.4968
  121SOL    HW1  513   2.870   0.776   2.057 -0.1997 -0.4416  0.5373
  121SOL    HW2  514   2.764   0.802   1.952  0.3924  0.7615  0.2134
  122SOL     OW  515   3.059   0.719   1.279  0.6436  0.2122  0.1966
  122SOL    HW1  516   2.991   0.687   1.220  0.6412 -0.0088  0.3180
  122SOL    HW2  517   3.012   0.738   1.361  0.7312  0.0205  0.2935
  123SOL     OW  518   3.820   2.489   2.555 -0.0951 -0.5007  0.1777
  123SOL    HW1  519   3.822   2.419   2.620 -1.0231 -2.1306 -1.4755
  123SOL    HW2  520   3.728   2.516   2.552  0.0717  0.0862  0.0550
  124SOL     OW  521   2.429   0.365   3.503 -0.3331 -0.8558  0.0704
  124SOL    HW1  522   2.390   0.278   3.504 -2.8349  0.1236 -1.9932
  124SOL    HW2  523   2.520   0.351   3.476 -0.9456 -2.7503 -1.1869
  125SOL     OW  524   2.665   0.408   2.608 -0.4596 -0.6745 -0.2586
  125SOL    HW1  525   2.691   0.500   2.604 -0.4433 -0.5453  1.8886
  125SOL    HW2  526   2.712   0.367   2.536  0.3167  0.8148 -0.6475
  126SOL     OW  527   2.406   0.069   2.493  0.4943 -0.1398 -0.6969
  126SOL    HW1  528   2.346   0.140   2.517  0.7046 -0.2257  0.1139
  126SOL    HW2  529   2.480   0.080   2.551  0.2040 -1.4724 -0.0409
  127SOL     OW  530   1.113   1.493   3.486  0.3093  0.6652 -0.1007
  127SOL    HW1  531   1.145   1.581   3.510 -1.5429  1.5528 -0.7302
  127SOL    HW2  532   1.023   1.507   3.460  0.0303 -1.4414 -0.3921
  128SOL     OW  533   2.381   1.996   3.668  0.6822 -0.2217  0.3564
  128SOL    HW1  534   2.418   1.920   3.621 -1.3231 -0.6985 -0.5426
  128SOL    HW2  535   2.351   1.959   3.751 -0.5140 -0.4962 -0.1805
  129SOL     OW  536   1.653   2.686   1.951 -0.2639 -0.5760 -0.2433
  129SOL    HW1  537   1.565   2.720   1.965  0.4338  0.5047  1.9271
  129SOL    HW2  538   1.687   2.738   1.878 -0.7748  0.3492  0.1545
  130SOL     OW  539   0.802   3.530   3.220 -0.4412 -0.3948 -0.0038
  130SOL    HW1  540   0.712   3.511   3.192 -0.8938  2.4907 -0.8791
  130SOL    HW2  541   0.793   3.564   3.309 -0.6302  2.2328 -0.9411
  131SOL     OW  542   2.165   0.812   0.204 -0.6284 -0.4530  0.3396
  131SOL    HW1  543   2.136   0.721   0.199  0.0514 -0.6925  0.6330
  131SOL    HW2  544   2.259   0.807   0.218 -0.4775  0.3070 -0.3250
  132SOL     OW  545   3.449   0.404   2.145 -0.4295  0.7732  0.3779
  132SOL    HW1  546   3.528   0.424   2.195 -0.1232  0.8254 -0.1269
  132SOL    HW2  547   3.380   0.456   2.187 -0.3003  0.3661  1.1149
  133SOL     OW  548   1.455   0.323   2.478 -0.0482 -0.0450 -0.2922
  133SOL    HW1  549   1.508   0.349   2.553 -0.3152 -0.7461  0.1463
  133SOL    HW2  550   1.457   0.399   2.420  0.7050  0.2605  0.1178
  134SOL     OW  551   3.655   1.743   1.394 -0.1756 -0.0498 -0.1378
  134SOL    HW1  552   3.608   1.661   1.407  2.7609 -2.1625 -1.4964
  134SOL    HW2  553   3.683   1.769   1.482  0.4648 -1.6465  0.1736
  135SOL     OW  554   0.507   3.844   0.180  0.1090 -0.2700 -0.7734
  135SOL    HW1  555   0.437   3.832   0.116 -0.9089  0.3312  0.2007
  135SOL    HW2  556   0.567   3.770   0.164 -0.1566 -0.1898 -2.3336
  136SOL     OW  557   2.480   0.292   1.473  0.4008  0.6988  0.4648
  136SOL    HW1  558   2.422   0.239   1.528  1.6519  0.7524  1.8741
  136SOL    HW2  559   2.443   0.380   1.478  0.5201  0.7089  1.2412
  137SOL     OW  560   3.661   1.366   1.671 -0.0229 -0.3222 -0.3912
  137SOL    HW1  561   3.593   1.300   1.660 -2.5655  2.0381 -0.1792
  137SOL    HW2  562   3.721   1.329   1.735 -0.3889 -2.9996 -1.4593
  138SOL     OW  563   1.676   1.762   2.540  0.2892  0.7641 -0.0747
  138SOL    HW1  564   1.638   1.844   2.508 -0.3789  0.4994  0.0328
  138SOL    HW2  565   1.747   1.790   2.598  0.7931  1.2536 -0.9025
  139SOL     OW  566   2.664   0.598   1.746  0.1321 -0.0201 -0.1088
  139SOL    HW1  567   2.614   0.644   1.813  0.3563  0.4161 -0.2355
  139SOL    HW2  568   2.754   0.629   1.757  0.1110  0.3398 -0.8450
  140SOL     OW  569   1.562   0.744   3.216  0.3293  0.0964 -0.0290
  140SOL    HW1  570   1.588   0.768   3.305  1.2081 -0.1483 -0.2099
  140SOL    HW2  571   1.503   0.670   3.227  1.4569 -0.7868  0.3153
  141SOL     OW  572   0.046   1.604   0.273 -0.3542  0.3915  0.2753
  141SOL    HW1  573  -0.000   1.676   0.230 -2.4032 -0.4964  0.8937
  141SOL    HW2  574   0.094   1.645   0.345 -0.9482  1.2166  0.2111
  142SOL     OW  575   3.478   1.536   0.701 -0.2735 -0.5479  0.1484
  142SOL    HW1  576   3.502   1.447   0.674  1.2455 -0.2890  0.5851
  142SOL    HW2  577   3.561   1.583   0.706 -1.0733  0.9772 -0.3031
  143SOL     OW  578   1.227   0.184   0.040  0.1263  0.5667  0.0133
  143SOL    HW1  579   1.165   0.206  -0.030 -0.7247 -0.0311  0.5632
  143SOL    HW2  580   1.297   0.136  -0.005 -2.0360 -2.8715 -0.0601
  144SOL     OW  581   1.448   2.964   0.119 -0.0004 -0.4833 -0.1182
  144SOL    HW1  582   1.517   2.899   0.101 -0.3126 -0.5042 -1.3381
  144SOL    HW2  583   1.493   3.033   0.168  0.6067 -1.0628  0.1652
  145SOL     OW  584   3.634   0.462   2.746 -0.0767  0.1325  0.0411
  145SOL    HW1  585   3.553   0.423   2.714 -0.8356 -0.7488  2.7415
  145SOL    HW2  586   3.695   0.455   2.673 -1.8035 -1.1704 -1.3560
  146SOL     OW  587   1.007   3.284   3.409  0.1029  0.4441 -0.5600
  146SOL    HW1  588   0.937   3.231   3.449  0.0170  1.6664  0.9628
  146SOL    HW2  589   1.001   3.263   3.315 -1.7124 -0.1679 -0.3504
  147SOL     OW  590   3.151   2.260   0.131 -0.1456  0.9235 -0.7121
  147SOL    HW1  591   3.130   2.238   0.041 -0.7888 -0.5370 -0.2289
  147SOL    HW2  592   3.066   2.260   0.176 -0.0985  3.5696 -0.4580
  148SOL     OW  593   2.048   1.940   0.748 -0.0762 -0.2679 -0.3320
  148SOL    HW1  594   1.990   1.951   0.673  0.1272 -0.8474 -0.5776
  148SOL    HW2  595   2.097   2.022   0.753  1.1900 -0.8964 -1.9214
  149SOL     OW  596   2.511   3.041   0.340  0.2088 -0.1657 -0.4283
  149SOL    HW1  597   2.491   3.112   0.402 -0.5678 -1.1789  0.5199
  149SOL    HW2  598   2.547   3.086   0.264 -1.3710  1.3813 -0.3391
  150SOL     OW  599   2.238   0.581   0.328  0.0816  0.3122 -0.3848
  150SOL    HW1  600   2.284   0.543   0.253 -1.6302  0.7098 -1.7139
  150SOL    HW2  601   2.153   0.536   0.329 -0.4454  1.2853  0.4868
  151SOL     OW  602   2.529   2.929   0.679 -0.1435 -0.0411 -0.1058
  151SOL    HW1  603   2.583   3.004   0.655  0.5578  0.1455  1.8687
  151SOL    HW2  604   2.542   2.919   0.773 -1.9972 -1.2486  0.0840
  152SOL     OW  605   2.775   0.316   2.034  0.0665 -0.0098 -0.0116
  152SOL    HW1  606   2.786   0.312   1.939  1.6945 -1.5052  0.1983
  152SOL    HW2  607   2.692   0.270   2.051 -0.1607  0.1457 -0.6816
  153SOL     OW  608   2.825   3.373   2.775  0.4513 -0.0928  0.2147
  153SOL    HW1  609   2.843   3.315   2.848  0.9460 -0.1283  0.0713
  153SOL    HW2  610   2.885   3.344   2.706 -1.2318 -1.2321 -0.8506
  154SOL     OW  611   1.267   2.171   0.863 -0.7038 -0.0040  0.0021
  154SOL    HW1  612   1.247   2.208   0.778  1.8251 -0.2543 -0.7857
  154SOL    HW2  613   1.185   2.134   0.894 -1.5827 -0.2949 -2.5268
  155SOL     OW  614   1.644   0.552   2.845 -0.9245  0.4287 -0.2223
  155SOL    HW1  615   1.604   0.630   2.806 -0.8422  1.8955  2.3701
  155SOL    HW2  616   1.702   0.587   2.913 -0.4295 -1.8867  0.6095
  156SOL     OW  617   1.547   3.488   0.438  0.0552  0.2922 -0.8733
  156SOL    HW1  618   1.458   3.460   0.416 -0.6002 -0.4583  2.2150
  156SOL    HW2  619   1.540   3.582   0.454 -0.3638  0.1358 -0.0700
  157SOL     OW  620   1.020   2.055   0.931  0.1571  0.5397 -0.1326
  157SOL    HW1  621   1.020   2.032   1.024 -1.5430  1.0644  0.0390
  157SOL    HW2  622   1.024   1.971   0.885 -0.9166  0.1523  0.4417
  158SOL     OW  623   2.231   1.857   2.561  0.4155 -0.3760 -0.1724
  158SOL    HW1  624   2.219   1.943   2.602  1.0763  0.1578 -1.0397
  158SOL    HW2  625   2.293   1.811   2.618  0.5546 -0.0245 -0.0371
  159SOL     OW  626   0.648   0.414   2.279  0.5911  0.3746  0.5535
  159SOL    HW1  627   0.575   0.466   2.313  0.2011  0.1866  0.0174
  159SOL    HW2  628   0.609   0.359   2.211  1.0839 -0.2936  0.8005
  160SOL     OW  629   3.374   3.198   1.102 -0.1025 -0.5271  0.5038
  160SOL    HW1  630   3.374   3.116   1.052 -0.5107 -0.0647 -0.2841
  160SOL    HW2  631   3.457   3.240   1.081  0.0445 -0.6705  0.7947
  161SOL     OW  632   1.898   1.243   3.124  0.3464 -0.0750  0.1951
  161SOL    HW1  633   1.846   1.324   3.123  1.0688  0.4172 -1.2697
  161SOL    HW2  634   1.833   1.173   3.130 -0.3839  0.5754  0.0293
  162SOL     OW  635   3.085   3.838   3.034 -0.7738  0.5627  0.0605
  162SOL    HW1  636   3.122   3.800   2.955 -0.8677 -0.0201  0.2871
  162SOL    HW2  637   3.014   3.894   3.003 -0.5368  0.6711 -0.2908
  163SOL     OW  638   0.290   3.428   1.825 -0.3431  0.1936  0.4794
  163SOL    HW1  639   0.280   3.336   1.848 -0.0552  0.2030  0.6377
  163SOL    HW2  640   0.235   3.475   1.888 -0.8645  0.1013  0.1069
  164SOL     OW  641   0.206   1.566   0.963 -0.5802  1.0503  0.3543
  164SOL    HW1  642   0.136   1.571   1.027 -1.3832 -0.1080 -0.4009
  164SOL    HW2  643   0.192   1.483   0.917 -0.5105  2.1690 -1.8569
  165SOL     OW  644   1.782   0.691   3.044  0.2929  0.5557 -0.1921
  165SOL    HW1  645   1.841   0.762   3.071 -0.2494  0.7102  0.6199
  165SOL    HW2  646   1.719   0.685   3.115  1.2444 -1.8076  0.5357
  166SOL     OW  647   0.051   2.777   3.872  0.3143  0.1093  0.5059
  166SOL    HW1  648   0.038   2.745   3.783  0.7591 -0.0370  0.4915
  166SOL    HW2  649  -0.018   2.842   3.884  1.0138  1.0627 -0.3979
  167SOL     OW  650   2.409   2.959   1.173  0.4151  0.2865 -0.4580
  167SOL    HW1  651   2.466   2.974   1.248  0.2288 -1.3211  0.0527
  167SOL    HW2  652   2.322   2.988   1.202  0.5058  0.4569 -0.3582
  168SOL     OW  653   0.863   0.119   0.213 -0.7729 -0.0668  0.2389
  168SOL    HW1  654   0.957   0.104   0.227 -0.6462 -0.9593 -1.2820
  168SOL    HW2  655   0.829   0.033   0.189 -1.4322  0.7195 -1.8860
  169SOL     OW  656   0.783   1.009   2.045 -0.3798  0.1276  0.3612
  169SOL    HW1  657   0.762   0.916   2.055 -0.5402  0.1742  0.4611
  169SOL    HW2  658   0.803   1.039   2.134  0.8665 -0.0928  0.1766
  170SOL     OW  659   3.095   1.677   2.679 -0.2905  0.4689 -0.0788
  170SOL    HW1  660   3.101   1.582   2.671 -1.7715  0.3398  0.1281
  170SOL    HW2  661   3.032   1.691   2.749 -0.4414  1.6074 -0.4291
  171SOL     OW  662   3.463   1.926   2.790 -0.0856 -0.4414 -0.0250
  171SOL    HW1  663   3.403   1.999   2.808 -0.4783 -0.7443 -0.0718
  171SOL    HW2  664   3.467   1.922   2.694 -0.7516 -1.0204 -0.0384
  172SOL     OW  665   3.079   0.364   2.921  0.1560 -0.6174 -0.8180
  172SOL    HW1  666   3.090   0.450   2.882  1.0491  0.1356  0.9766
  172SOL    HW2  667   3.161   0.318   2.904  0.1475 -0.6647 -0.7357
  173SOL     OW  668   2.367   2.363   3.489 -0.6086  0.2107 -0.2267
  173SOL    HW1  669   2.274   2.363   3.464 -0.9081  1.1173  0.8378
  173SOL    HW2  670   2.366   2.364   3.584  0.5059  0.0711 -0.2071
  174SOL     OW  671   1.934   2.837   1.793 -0.0162 -0.2032 -0.5242
  174SOL    HW1  672   1.908   2.876   1.709  1.3843 -0.0733 -0.9151
  174SOL    HW2  673   2.017   2.878   1.814 -0.4408 -0.1017  1.0468
  175SOL     OW  674   1.728   3.047   3.286 -0.0723 -0.1005  0.2958
  175SOL    HW1  675   1.683   3.066   3.369 -0.8996  2.7537 -0.7046
  175SOL    HW2  676   1.730   2.951   3.282  0.6275 -0.4054  3.9111
  176SOL     OW  677   3.093   3.359   0.596  0.3277 -0.5475  0.4035
  176SOL    HW1  678   3.032   3.422   0.635  1.8618  0.3996  1.3587
  176SOL    HW2  679   3.114   3.299   0.668  0.3310 -1.0338  0.0029
  177SOL     OW  680   3.203   2.255   3.539  0.6549  0.2674 -0.1920
  177SOL    HW1  681   3.197   2.287   3.449 -0.2107  0.5321 -0.0517
  177SOL    HW2  682   3.140   2.307   3.587  0.2239 -0.6987  0.3244
  178SOL     OW  683   0.058   3.752   0.918  0.0362 -0.6181 -0.6112
  178SOL    HW1  684   0.101   3.825   0.963  2.6209 -2.9353  1.0178
  178SOL    HW2  685   0.098   3.750   0.831 -0.7350  0.4033 -1.0098
  179SOL     OW  686   1.953   1.062   1.113 -0.0091 -0.2278 -0.5405
  179SOL    HW1  687   1.858   1.050   1.108 -0.3804  2.2783 -0.9762
  179SOL    HW2  688   1.977   1.091   1.025  0.7770  1.3323  0.1655
  180SOL     OW  689   1.101   3.069   1.546  0.0590 -0.1710 -0.1865
  180SOL    HW1  690   1.126   3.153   1.509  1.2418  0.2357  1.4277
  180SOL    HW2  691   1.139   3.004   1.487  2.0308  0.4491  0.3477
  181SOL     OW  692   3.247   0.945   3.557 -0.7449  0.3026 -0.5830
  181SOL    HW1  693   3.336   0.972   3.577 -0.6543  1.0397 -1.8735
  181SOL    HW2  694   3.199   0.955   3.639  0.9657 -2.9430  0.9774
  182SOL     OW  695   2.536   1.785   3.609  0.3229  0.1707 -0.2398
  182SOL    HW1  696   2.600   1.836   3.658 -0.4635  0.9589 -0.0001
  182SOL    HW2  697   2.539   1.698   3.649  3.5390 -0.8579 -2.3065
  183SOL     OW  698   3.024   2.631   1.520  0.4909  0.5545  0.1525
  183SOL    HW1  699   2.967   2.700   1.554 -0.1388 -0.0954  0.4371
  183SOL    HW2  700   2.966   2.556   1.506  1.2187 -0.0255  0.1631
  184SOL     OW  701   0.433   2.886   1.561  0.5318 -0.2864 -0.1364
  184SOL    HW1  702   0.457   2.978   1.556 -0.7013 -0.0305 -2.5017
  184SOL    HW2  703   0.509   2.839   1.527  1.0860 -0.1569  0.8882
  185SOL     OW  704   2.002   1.687   2.955 -0.1184  0.1732 -0.4336
  185SOL    HW1  705   2.035   1.636   3.029 -0.6957 -0.2252 -0.4365
  185SOL    HW2  706   2.042   1.773   2.965  1.0980 -0.3519 -0.5817
  186SOL     OW  707   1.680   0.097   2.425 -0.0296 -0.3458 -0.4334
  186SOL    HW1  708   1.661   0.191   2.415  0.0388 -0.3857 -1.0222
  186SOL    HW2  709   1.649   0.058   2.343 -0.5446 -0.9211  0.0262
  187SOL     OW  710   1.916   1.445   2.571 -0.4075 -0.1905 -0.1701
  187SOL    HW1  711   1.906   1.469   2.663  0.3829 -1.7290  0.3611
  187SOL    HW2  712   1.936   1.527   2.526 -0.1788  0.4940  1.1382
  188SOL     OW  713   2.622   2.333   0.116  0.3856 -0.1880 -0.2574
  188SOL    HW1  714   2.534   2.305   0.141  0.2202 -1.8072 -2.3490
  188SOL    HW2  715   2.612   2.426   0.094 -0.1836  0.3386  2.0398
  189SOL     OW  716   0.140   3.436   0.896  0.7527 -0.5551  0.0652
  189SOL    HW1  717   0.114   3.517   0.852  3.0935 -1.0205 -2.4959
  189SOL    HW2  718   0.106   3.366   0.840 -0.1563 -1.3776  1.5654
  190SOL     OW  719   2.248   0.704   3.693  0.3860 -0.1808 -0.2580
  190SOL    HW1  720   2.295   0.781   3.726  1.0719 -0.2253 -1.0922
  190SOL    HW2  721   2.271   0.701   3.600  1.6216 -2.2672  0.0553
  191SOL     OW  722   1.500   0.139   0.720 -0.5465  0.4159 -0.8160
  191SOL    HW1  723   1.427   0.151   0.660  0.6177  0.7099 -2.2261
  191SOL    HW2  724   1.526   0.227   0.745  2.1213  0.6796 -3.8933
  192SOL     OW  725   0.919   0.663   1.940 -0.1099  0.8438  0.4263
  192SOL    HW1  726   0.887   0.667   2.031 -1.8291  1.9337 -0.1705
  192SOL    HW2  727   0.912   0.753   1.908  1.5796  0.6980 -0.4635
  193SOL     OW  728   1.102   1.240   3.600  0.2898 -0.1450 -0.0735
  193SOL    HW1  729   1.128   1.193   3.520  1.5415 -0.2287  0.3558
  193SOL    HW2  730   1.121   1.332   3.580 -0.4977 -0.0252 -0.2826
  194SOL     OW  731   2.526   1.614   2.327  0.0352 -0.0727 -0.2872
  194SOL    HW1  732   2.445   1.563   2.323 -0.4049  0.4152  1.6897
  194SOL    HW2  733   2.513   1.684   2.263 -0.7524 -0.4621 -0.5742
  195SOL     OW  734   2.466   0.595   1.544  0.5469 -0.0413 -0.3441
  195SOL    HW1  735   2.548   0.611   1.591 -1.0494  0.0184  2.7230
  195SOL    HW2  736   2.402   0.578   1.614 -1.9181 -0.7761 -2.6190
  196SOL     OW  737   1.535   1.766   2.913 -0.3266 -0.0942  0.3482
  196SOL    HW1  738   1.465   1.747   2.850  1.5718 -0.0533 -1.9132
  196SOL    HW2  739   1.566   1.679   2.940 -0.2016 -0.1164  0.1306
  197SOL     OW  740   0.648   2.291   2.288 -0.2749 -0.0484  0.0623
  197SOL    HW1  741   0.674   2.266   2.377 -0.6488 -2.9215 -0.5335
  197SOL    HW2  742   0.562   2.252   2.277 -0.2945  0.3954 -1.5355
  198SOL     OW  743   3.212   2.264   0.836  0.7626  0.0074 -0.4464
  198SOL    HW1  744   3.157   2.198   0.878 -0.0381 -1.0166 -2.9094
  198SOL    HW2  745   3.288   2.272   0.893 -0.4368 -0.9515  1.3690
  199SOL     OW  746   2.697   0.338   1.771  0.2087  0.2347 -0.2708
  199SOL    HW1  747   2.655   0.284   1.705  0.7225  0.6112 -0.9141
  199SOL    HW2  748   2.667   0.427   1.753  0.6708  0.3955 -0.2557
  200SOL     OW  749   1.370   1.596   1.311  0.1246 -0.2929 -0.9618
  200SOL    HW1  750   1.379   1.565   1.401 -0.5541  1.2544 -0.3343
  200SOL    HW2  751   1.374   1.516   1.258  0.5565 -1.2299  0.4220
  201SOL     OW  752   1.489   0.455   0.885 -0.6863 -0.2830  0.3338
  201SOL    HW1  753   1.541   0.453   0.966 -0.6681  1.4405  0.4148
  201SOL    HW2  754   1.532   0.522   0.831 -0.7264 -1.3631 -1.1155
  202SOL     OW  755   0.831   3.153   2.964  0.5844  0.2172  0.2200
  202SOL    HW1  756   0.761   3.213   2.938 -0.0142 -1.2669 -1.8511
  202SOL    HW2  757   0.791   3.097   3.031  1.1402  1.9792  2.1500
  203SOL     OW  758   3.412   3.492   0.162  0.1066 -0.5396  0.2356
  203SOL    HW1  759   3.353   3.436   0.214 -0.3220  0.4849  0.8910
  203SOL    HW2  760   3.498   3.480   0.203  0.2998 -1.7479 -0.4843
  204SOL     OW  761   2.081   1.059   1.487  0.2670 -0.1543 -0.2762
  204SOL    HW1  762   2.095   1.029   1.398 -3.1344 -0.9448 -0.6708
  204SOL    HW2  763   2.065   1.153   1.479  4.5407  0.8507  0.2251
  205SOL     OW  764   3.742   3.104   3.855 -0.0799  0.4182 -0.2334
  205SOL    HW1  765   3.728   3.027   3.800  0.5291  0.9925 -1.2217
  205SOL    HW2  766   3.818   3.148   3.817 -0.8849  1.9404 -0.1836
  206SOL     OW  767   2.888   1.267   1.872  0.6160  0.5398  0.0843
  206SOL    HW1  768   2.930   1.347   1.842 -1.9551  1.5058 -1.2438
  206SOL    HW2  769   2.803   1.266   1.828  0.2368 -2.5626  0.6291
  207SOL     OW  770   3.036   1.747   1.152 -0.1047 -0.5669 -0.8509
  207SOL    HW1  771   2.941   1.756   1.162  0.1824  0.9450  1.0470
  207SOL    HW2  772   3.059   1.671   1.205 -0.2685 -1.0439 -1.4588
  208SOL     OW  773   2.731   0.030   3.133 -0.2499  0.0460  0.6984
  208SOL    HW1  774   2.769   0.098   3.190  0.4264  0.6032 -0.3982
  208SOL    HW2  775   2.781  -0.049   3.154 -0.4440  0.0868  1.3438
  209SOL     OW  776   3.217   1.489   0.666 -0.1967  0.4986 -0.1636
  209SOL    HW1  777   3.195   1.454   0.752  2.4056 -2.5507 -0.5856
  209SOL    HW2  778   3.306   1.523   0.675 -0.1832  0.8690 -1.4706
  210SOL     OW  779   1.228   0.750   0.874 -0.1826 -0.6188 -0.1804
  210SOL    HW1  780   1.233   0.658   0.848 -0.0127 -0.8690  0.6809
  210SOL    HW2  781   1.135   0.767   0.884 -0.2273 -0.6247 -0.5885
  211SOL     OW  782   0.786   0.457   0.608  0.0256  0.4894  0.0189
  211SOL    HW1  783   0.757   0.368   0.626  0.1142  0.1997 -1.2233
  211SOL    HW2  784   0.836   0.451   0.527 -0.0552  1.6907 -0.1434
  212SOL     OW  785   3.636   3.709   0.884  0.3187  0.0373  0.2475
  212SOL    HW1  786   3.646   3.635   0.944  0.7539  0.3785  0.5991
  212SOL    HW2  787   3.719   3.756   0.890 -0.3739  1.2264  0.9543
  213SOL     OW  788   2.503   3.212   3.522 -0.7956 -1.2551  0.0880
  213SOL    HW1  789   2.423   3.252   3.556 -0.6558 -1.2475  0.4119
  213SOL    HW2  790   2.528   3.267   3.448 -0.2384 -0.3283  0.9311
  214SOL     OW  791   0.838   2.352   1.517  0.2699 -0.6966 -0.4617
  214SOL    HW1  792   0.779   2.277   1.512  0.4501 -0.7671 -2.1053
  214SOL    HW2  793   0.915   2.325   1.466  0.1537  0.7530 -1.4669
  215SOL     OW  794   3.708   3.561   1.126  0.1942 -0.4712 -0.2228
  215SOL    HW1  795   3.763   3.551   1.203  2.5061 -0.4440 -1.7911
  215SOL    HW2  796   3.652   3.637   1.147  0.9023 -0.3273  1.3112
  216SOL     OW  797   3.710   0.744   1.390  0.2699 -0.2735 -0.3161
  216SOL    HW1  798   3.619   0.765   1.367 -0.0404 -1.6096 -0.4284
  216SOL    HW2  799   3.705   0.717   1.482  0.7445  0.6831 -0.0025
  217SOL     OW  800   2.802   1.250   3.651  0.9581  0.2337 -0.6465
  217SOL    HW1  801   2.862   1.202   3.593  0.3827  0.5524 -1.5381
  217SOL    HW2  802   2.770   1.322   3.597 -0.1408  0.1339 -0.1558
  218SOL     OW  803   1.529   1.319   3.187 -1.0148 -0.0020  0.0485
  218SOL    HW1  804   1.434   1.324   3.186 -1.0956 -1.0851 -1.2614
  218SOL    HW2  805   1.549   1.250   3.249 -1.1083 -0.0234  0.0546
  219SOL     OW  806   0.141   2.841   1.251  0.8542 -0.9904 -0.3577
  219SOL    HW1  807   0.210   2.788   1.290  1.2900  0.4808  1.0071
  219SOL    HW2  808   0.066   2.830   1.309  0.2839 -1.6922 -1.2054
  220SOL     OW  809   3.239   0.138   1.525  0.4822  0.0836 -0.5032
  220SOL    HW1  810   3.279   0.089   1.597 -0.5583  0.7461  0.5539
  220SOL    HW2  811   3.148   0.110   1.524  0.3320  0.5719 -1.1494
  221SOL     OW  812   0.150   2.579   0.240 -0.1069  0.0493  0.3085
  221SOL    HW1  813   0.079   2.525   0.275  0.0859 -1.3433 -1.3014
  221SOL    HW2  814   0.107   2.640   0.180 -0.1403  0.4965  0.7863
  222SOL     OW  815   0.080   0.645   2.392  0.3789 -0.1128  0.4622
  222SOL    HW1  816   0.168   0.637   2.356  0.0938 -3.4804  0.1877
  222SOL    HW2  817   0.023   0.654   2.315  0.3623  0.4384  0.5393
  223SOL     OW  818   1.657   2.037   2.496 -0.0949  0.4574  0.2921
  223SOL    HW1  819   1.629   2.080   2.415  3.1484  0.4271 -0.9809
  223SOL    HW2  820   1.611   2.084   2.565  0.1383  3.2500 -1.3141
  224SOL     OW  821   3.728   1.666   0.684 -0.4049  0.4528 -0.8700
  224SOL    HW1  822   3.776   1.583   0.673 -0.6855  0.0236  0.8182
  224SOL    HW2  823   3.791   1.724   0.727 -0.0123  1.3560 -2.5821
  225SOL     OW  824   0.914   3.231   0.462  0.2798  0.0243  0.4554
  225SOL    HW1  825   0.962   3.165   0.412 -0.5878 -0.2861  0.0146
  225SOL    HW2  826   0.855   3.181   0.518  0.0222  0.4085  0.5331
  226SOL     OW  827   1.049   3.010   0.298  1.1470 -0.5244 -0.0630
  226SOL    HW1  828   1.139   3.003   0.329  1.8946 -0.1680 -2.0073
  226SOL    HW2  829   1.050   2.971   0.210  0.3349  2.7050 -1.7023
  227SOL     OW  830   0.412   0.035   1.329 -0.4886 -0.1684 -0.0384
  227SOL    HW1  831   0.333   0.038   1.274 -0.9053 -1.4934  0.4377
  227SOL    HW2  832   0.378   0.039   1.419 -0.0206 -0.6350  0.1664
  228SOL     OW  833   3.346   2.913   1.987  0.0697 -0.1186 -0.1275
  228SOL    HW1  834   3.435   2.893   1.958 -1.0704 -1.0754 -3.5050
  228SOL    HW2  835   3.330   3.001   1.955 -0.5333 -0.3816 -0.5711
  229SOL     OW  836   0.574   0.105   1.124 -0.8050  0.0787 -0.3223
  229SOL    HW1  837   0.530   0.061   1.197  2.3725 -2.2121  0.4404
  229SOL    HW2  838   0.661   0.127   1.159  1.0145 -1.4701 -3.4234
  230SOL     OW  839   2.988   0.046   1.443  0.2970 -0.1333 -0.3146
  230SOL    HW1  840   3.024  -0.042   1.430 -0.6160 -0.3025 -1.9692
  230SOL    HW2  841   2.953   0.071   1.358  1.3433  2.2385 -0.1386
  231SOL     OW  842   0.494   3.372   2.460  0.6315  0.2419 -0.1377
  231SOL    HW1  843   0.443   3.453   2.459 -1.3647 -0.9082 -2.5019
  231SOL    HW2  844   0.442   3.311   2.513 -0.4853 -0.8698 -2.3686
  232SOL     OW  845   2.236   0.531   1.722  0.0872 -0.1792 -0.0917
  232SOL    HW1  846   2.188   0.587   1.661 -1.4635 -1.2068  0.1511
  232SOL    HW2  847   2.179   0.524   1.798  2.1354  1.3704  1.7005
  233SOL     OW  848   1.466   2.750   3.155  0.6662  0.0444 -0.4827
  233SOL    HW1  849   1.404   2.697   3.106  1.5964 -0.7928 -0.7950
  233SOL    HW2  850   1.412   2.804   3.212 -0.4650  1.1264 -2.4638
  234SOL     OW  851   3.205   2.264   0.565 -0.0208 -0.2175  0.5744
  234SOL    HW1  852   3.206   2.265   0.661  0.5856 -1.0921  0.5870
  234SOL    HW2  853   3.276   2.322   0.540  0.1809 -0.4219  0.6666
  235SOL     OW  854   2.965   0.513   3.627  0.0983 -0.5295  0.4087
  235SOL    HW1  855   2.899   0.475   3.685 -1.0970 -1.6091 -1.5700
  235SOL    HW2  856   2.915   0.553   3.556  1.5447 -1.5684 -1.2666
  236SOL     OW  857   3.329   2.892   1.325  0.1701 -0.2052 -0.1346
  236SOL    HW1  858   3.419   2.915   1.303  0.3883 -0.2950  0.6169
  236SOL    HW2  859   3.317   2.925   1.414 -0.0345 -1.5372  0.3560
  237SOL     OW  860   3.095   1.181   2.249 -0.5680 -0.1505  0.7701
  237SOL    HW1  861   3.088   1.274   2.228  0.7616  0.3037  2.1941
  237SOL    HW2  862   3.004   1.150   2.248 -1.0044  1.0621 -0.0355
  238SOL     OW  863   1.736   1.994   3.319  0.1108  0.2876 -0.2036
  238SOL    HW1  864   1.792   2.067   3.294  1.0282 -0.1944  0.3617
  238SOL    HW2  865   1.759   1.923   3.259  1.4179 -0.4717  1.1286
  239SOL     OW  866   2.860   0.177   3.308  0.6151  0.2012 -0.1859
  239SOL    HW1  867   2.900   0.252   3.353  1.1966 -0.4793  0.4552
  239SOL    HW2  868   2.867   0.105   3.370 -0.7622 -0.1859 -0.4347
  240SOL     OW  869   2.619   3.485   0.614 -0.4532  0.0530 -0.8403
  240SOL    HW1  870   2.700   3.535   0.608  0.6568 -1.7105 -1.4172
  240SOL    HW2  871   2.619   3.450   0.704 -0.5555  0.0186 -0.8537
  241SOL     OW  872   2.301   3.241   0.525  0.0427 -0.0328 -0.3956
  241SOL    HW1  873   2.303   3.238   0.621  1.1138 -0.0536 -0.4121
  241SOL    HW2  874   2.250   3.320   0.505  0.9773  0.7541  0.2137
  242SOL     OW  875   2.563   3.330   0.387 -0.4873 -0.6991  0.2448
  242SOL    HW1  876   2.656   3.347   0.371 -1.4061  1.8671 -3.8398
  242SOL    HW2  877   2.545   3.373   0.471  1.5969  0.7925  0.0085
  243SOL     OW  878   2.036   2.388   2.479 -0.9943 -0.1165 -0.0656
  243SOL    HW1  879   1.957   2.335   2.482 -1.4033  0.5171  0.6038
  243SOL    HW2  880   2.009   2.471   2.441 -1.0456  0.7165  1.6880
  244SOL     OW  881   2.296   0.571   3.402  0.2652 -0.7888 -0.2131
  244SOL    HW1  882   2.338   0.503   3.455  1.0759 -0.6656 -0.6980
  244SOL    HW2  883   2.215   0.530   3.370  0.0463 -1.0500  0.6503
  245SOL     OW  884   2.045   0.747   1.825  1.0514 -0.4512  0.5699
  245SOL    HW1  885   1.963   0.786   1.855 -0.0646 -1.4404 -1.0477
  245SOL    HW2  886   2.099   0.822   1.801 -0.2490  0.1934 -0.4853
  246SOL     OW  887   3.517   2.833   0.631  0.7785 -0.3183  0.3018
  246SOL    HW1  888   3.516   2.771   0.704  0.2023 -1.4039 -0.5801
  246SOL    HW2  889   3.481   2.783   0.558  4.2792 -0.4018 -1.6177
  247SOL     OW  890   0.731   1.060   2.544  0.4394 -0.2022 -0.2778
  247SOL    HW1  891   0.656   1.059   2.603  0.8461 -1.3200  0.2744
  247SOL    HW2  892   0.788   1.129   2.578  1.4148 -1.8586  1.7091
  248SOL     OW  893   2.246   0.162   1.537 -0.2004  0.0539  0.6923
  248SOL    HW1  894   2.179   0.150   1.470  0.1172  0.0319  0.3709
  248SOL    HW2  895   2.200   0.154   1.620 -0.1547 -2.6502  0.5196
  249SOL     OW  896   1.717   3.363   2.444 -0.3534 -0.6793  0.6024
  249SOL    HW1  897   1.793   3.357   2.501 -1.1575 -0.9357  1.6879
  249SOL    HW2  898   1.644   3.330   2.497 -1.6617  1.7467  0.4787
  250SOL     OW  899   2.268   0.180   3.257  0.3849 -0.1589 -0.0015
  250SOL    HW1  900   2.313   0.260   3.232  0.6997 -0.9465 -2.1886
  250SOL    HW2  901   2.338   0.116   3.270  0.1551 -0.0854  1.9643
  251SOL     OW  902   2.602   3.559   2.799  0.6262 -0.5372 -0.3460
  251SOL    HW1  903   2.683   3.509   2.810  1.4809  0.6205 -1.1502
  251SOL    HW2  904   2.631   3.649   2.786 -0.7811 -0.1562 -1.0258
  252SOL     OW  905   1.578   1.373   1.999 -0.2985 -0.2699 -0.1942
  252SOL    HW1  906   1.549   1.360   2.090 -0.9142  0.1542 -0.3225
  252SOL    HW2  907   1.511   1.329   1.946  0.3850 -1.0487 -0.4269
  253SOL     OW  908   0.286   1.355   2.819 -0.0894 -0.0854 -0.2346
  253SOL    HW1  909   0.279   1.450   2.816 -1.0539 -0.1062  0.7613
  253SOL    HW2  910   0.376   1.338   2.846 -0.1248  0.5602  0.3084
  254SOL     OW  911   1.097   0.933   2.189 -0.0859  0.5165 -0.4590
  254SOL    HW1  912   1.124   1.009   2.239  0.8129 -0.7921  1.1603
  254SOL    HW2  913   1.017   0.902   2.233 -1.5192  1.5141 -2.2169
  255SOL     OW  914   3.009   2.448   3.604  0.6980  0.1929 -0.1151
  255SOL    HW1  915   2.940   2.381   3.611  2.1753 -1.3362  0.5133
  255SOL    HW2  916   2.994   2.506   3.678 -1.7189  1.7617 -1.6770
  256SOL     OW  917   0.161   2.909   3.049 -0.1068  0.0047 -0.4066
  256SOL    HW1  918   0.109   2.830   3.031 -0.1043 -0.2436  0.6202
  256SOL    HW2  919   0.252   2.881   3.038 -0.1315  0.0733 -0.8090
  257SOL     OW  920   2.229   1.525   2.498 -0.5945 -0.8982  0.1479
  257SOL    HW1  921   2.152   1.571   2.466  0.1060  1.1751  1.2322
  257SOL    HW2  922   2.220   1.436   2.465 -3.4354 -0.7331  0.2451
  258SOL     OW  923   3.107   2.213   2.366 -0.0863 -0.1961  0.6444
  258SOL    HW1  924   3.139   2.148   2.303 -1.8800 -1.1788  0.6539
  258SOL    HW2  925   3.073   2.160   2.438  1.3185  0.8909  2.1639
  259SOL     OW  926   2.249   3.714   3.415 -0.4393  0.2721 -0.4606
  259SOL    HW1  927   2.252   3.627   3.375  0.5049 -0.6869  1.5650
  259SOL    HW2  928   2.299   3.769   3.355  1.5555 -1.2760 -0.3444
  260SOL     OW  929   2.383   2.159   0.217 -0.8159 -0.1235 -0.7382
  260SOL    HW1  930   2.384   2.198   0.304 -0.9876 -1.6855  0.0078
  260SOL    HW2  931   2.418   2.070   0.231 -0.6070 -0.3096 -2.3069
  261SOL     OW  932   0.135   3.116   1.964  0.0691  0.0694 -0.2488
  261SOL    HW1  933   0.166   3.068   2.041  0.1020  0.9243  0.2919
  261SOL    HW2  934   0.076   3.056   1.919 -1.5351  0.2269  1.5298
  262SOL     OW  935   2.966   3.585   0.700 -0.4707 -0.4495  0.2778
  262SOL    HW1  936   3.050   3.611   0.739 -0.6602  1.5209 -0.5038
  262SOL    HW2  937   2.903   3.648   0.735 -1.7175 -1.9989  0.9803
  263SOL     OW  938   2.412   2.336   2.606  0.2737  0.1710 -0.0465
  263SOL    HW1  939   2.362   2.364   2.529  1.4262  1.6779 -0.3110
  263SOL    HW2  940   2.503   2.338   2.577  0.5553 -2.4204  0.4481
  264SOL     OW  941   1.915   0.034   3.611 -0.1621  0.2394  0.7729
  264SOL    HW1  942   1.957   0.115   3.584  0.0621  0.8974  2.9183
  264SOL    HW2  943   1.825   0.041   3.580  0.0127  1.0508  0.4362
  265SOL     OW  944   2.097   2.195   1.843 -0.1379  0.2366  0.6999
  265SOL    HW1  945   2.096   2.101   1.826  0.1395  0.1332  1.2209
  265SOL    HW2  946   2.186   2.223   1.822  0.5927 -0.1206  3.0169
  266SOL     OW  947   2.812   2.326   3.331  0.2863 -0.2014  0.5260
  266SOL    HW1  948   2.811   2.341   3.426  0.1598 -1.1807  0.6910
  266SOL    HW2  949   2.721   2.305   3.309  0.2955  0.1319  0.1735
  267SOL     OW  950   0.665   0.043   2.938 -0.0275  1.3016  0.0662
  267SOL    HW1  951   0.589  -0.014   2.926  0.6311 -0.2232  2.4613
  267SOL    HW2  952   0.699   0.055   2.849 -2.1251  0.7451 -0.8889
  268SOL     OW  953   3.039   2.363   3.154 -0.3680 -0.1379 -0.4441
  268SOL    HW1  954   3.080   2.412   3.225 -0.3742 -0.5362 -0.1595
  268SOL    HW2  955   2.968   2.314   3.197 -1.8551  1.3397 -1.0784
  269SOL     OW  956   1.481   0.247   0.151 -0.1611 -0.3595 -0.4646
  269SOL    HW1  957   1.396   0.288   0.162 -0.4838 -1.4491  1.5150
  269SOL    HW2  958   1.532   0.274   0.227  0.5865 -1.2947 -0.6019
  270SOL     OW  959   2.269   0.144   0.835  0.2237  0.5040 -0.2508
  270SOL    HW1  960   2.180   0.161   0.863  0.1702 -0.7258  0.4265
  270SOL    HW2  961   2.260   0.104   0.748 -0.0323 -1.2476  0.5445
  271SOL     OW  962   0.483   1.692   1.329  0.9773 -0.3251 -0.2039
  271SOL    HW1  963   0.421   1.745   1.280  1.1482 -0.8612 -1.0477
  271SOL    HW2  964   0.526   1.639   1.261 -0.2748 -2.6708  0.7151
  272SOL     OW  965   2.179   1.511   0.842  0.0808 -0.2579 -0.1430
  272SOL    HW1  966   2.220   1.446   0.786 -2.3477 -0.1286 -2.2633
  272SOL    HW2  967   2.211   1.595   0.811 -2.1706 -0.1027 -2.3547
  273SOL     OW  968   0.121   3.042   3.294  0.0479 -0.3124  0.1618
  273SOL    HW1  969   0.105   3.012   3.205  0.7071 -0.5307  0.1130
  273SOL    HW2  970   0.120   2.962   3.347  0.0613 -0.2279  0.2897
  274SOL     OW  971   2.560   3.594   3.243 -0.7061  0.1016  0.6746
  274SOL    HW1  972   2.528   3.673   3.199  0.0442 -0.5944 -1.2405
  274SOL    HW2  973   2.481   3.545   3.265 -1.1068 -0.1275 -1.1146
  275SOL     OW  974   1.647   2.727   3.651 -0.4925  0.2050  0.4338
  275SOL    HW1  975   1.637   2.725   3.746 -0.7393 -0.9031  0.3993
  275SOL    HW2  976   1.739   2.708   3.636 -0.5309  0.0093  0.4433
  276SOL     OW  977   3.383   0.678   1.576  1.1222  0.1147 -0.0303
  276SOL    HW1  978   3.326   0.602   1.583  0.8431  0.0109 -2.4817
  276SOL    HW2  979   3.336   0.747   1.624  0.0981 -0.5797  0.0046
  277SOL     OW  980   3.515   2.049   2.548  0.1267  0.2207 -0.9055
  277SOL    HW1  981   3.479   2.017   2.465 -1.4418  1.4593 -0.7543
  277SOL    HW2  982   3.480   2.138   2.556 -1.4752 -0.5429  2.0458
  278SOL     OW  983   1.240   2.349   2.263 -0.1639  0.1921 -0.0354
  278SOL    HW1  984   1.147   2.326   2.263 -0.4657  1.3493 -0.0339
  278SOL    HW2  985   1.246   2.422   2.201  0.3742  1.5003  1.4884
  279SOL     OW  986   3.343   2.522   2.724  0.3914  0.6587 -0.6578
  279SOL    HW1  987   3.280   2.512   2.652 -0.7052  0.6465  0.2882
  279SOL    HW2  988   3.365   2.615   2.724  0.7346  0.5886 -1.2678
  280SOL     OW  989   2.851   3.733   2.621  0.6036 -0.0703 -0.1695
  280SOL    HW1  990   2.829   3.825   2.635  1.9151  0.7015 -2.5772
  280SOL    HW2  991   2.781   3.699   2.565  0.3687 -0.4174  0.3279
  281SOL     OW  992   3.161   0.965   1.444  0.1921 -0.2825  0.2927
  281SOL    HW1  993   3.124   0.891   1.396  0.6623 -0.5085  0.2705
  281SOL    HW2  994   3.219   1.008   1.381 -0.8551  0.7158 -0.0124
  282SOL     OW  995   3.092   1.458   0.931  0.6619  0.0866  0.2407
  282SOL    HW1  996   3.019   1.500   0.976  1.9402  0.7648  1.7790
  282SOL    HW2  997   3.146   1.423   1.002  1.1701 -1.5860 -0.9059
  283SOL     OW  998   1.687   3.549   1.872  0.6298 -0.2029  0.8907
  283SOL    HW1  999   1.672   3.587   1.959  0.2210 -1.7909  1.5427
  283SOL    HW2 1000   1.611   3.577   1.820 -0.0044 -0.6482  1.5534
  284SOL     OW 1001   2.159   2.666   1.238  0.0465 -0.2437  0.7000
  284SOL    HW1 1002   2.073   2.693   1.206  0.5581  0.9455  0.2493
  284SOL    HW2 1003   2.150   2.666   1.333 -0.6044 -0.6796  0.6452
  285SOL     OW 1004   1.430   3.394   2.317  0.2489  0.2099  0.5507
  285SOL    HW1 1005   1.488   3.334   2.270  0.8082  0.8034  0.4672
  285SOL    HW2 1006   1.429   3.362   2.407 -1.0455 -1.1026  0.0970
  286SOL     OW 1007   0.690   3.582   2.108 -1.0776 -0.2070 -0.1769
  286SOL    HW1 1008   0.664   3.496   2.141  3.2119 -0.8673  2.3319
  286SOL    HW2 1009   0.737   3.622   2.181  2.0539  1.8074 -2.9923
  287SOL     OW 1010   0.934   2.929   1.116 -0.2744 -0.4477 -0.4605
  287SOL    HW1 1011   0.854   2.951   1.164 -0.9966  1.4208 -2.4057
  287SOL    HW2 1012   0.973   3.014   1.094  0.8198 -1.2786 -1.8756
  288SOL     OW 1013  -0.016   0.095   1.320 -0.3429  0.1486 -0.1705
  288SOL    HW1 1014   0.054   0.158   1.334  0.2130 -0.0449 -1.8967
  288SOL    HW2 1015   0.009   0.020   1.374  0.8711  0.0325 -0.8558
  289SOL     OW 1016   1.638   2.403   1.971 -0.3228 -0.8371  0.4814
  289SOL    HW1 1017   1.710   2.400   1.908 -0.7178 -0.4056 -0.0063
  289SOL    HW2 1018   1.612   2.496   1.972 -1.2101 -1.0727  0.2496
  290SOL     OW 1019   1.769   0.346   0.076 -0.3853  0.3062 -0.2074
  290SOL    HW1 1020   1.718   0.291   0.135 -0.7972  0.4737 -0.4022
  290SOL    HW2 1021   1.739   0.322  -0.012  1.6149 -1.3473 -0.5052
  291SOL     OW 1022   1.048   3.056   1.829  0.0340  0.7679 -0.0917
  291SOL    HW1 1023   1.070   3.066   1.736  1.1722  1.2493  0.2161
  291SOL    HW2 1024   0.952   3.053   1.831 -0.0217 -2.4680 -1.6001
  292SOL     OW 1025   3.506   1.545   0.212  0.1405 -0.6212 -0.0581
  292SOL    HW1 1026   3.542   1.558   0.124 -1.4686 -1.4929 -0.8775
  292SOL    HW2 1027   3.492   1.634   0.245  0.5281 -0.2888 -0.7701
  293SOL     OW 1028   1.801   2.902   1.580  0.5959  0.2580  0.2093
  293SOL    HW1 1029   1.708   2.877   1.577  0.3120  1.3210 -0.6210
  293SOL    HW2 1030   1.799   2.996   1.595  1.5138  0.4435 -0.7789
  294SOL     OW 1031   0.204   2.623   1.544 -0.0286 -0.8633 -0.1987
  294SOL    HW1 1032   0.266   2.652   1.477 -0.2052  1.8757  0.6971
  294SOL    HW2 1033   0.214   2.686   1.614 -0.3569 -3.2283  2.1290
  295SOL     OW 1034   1.880   0.184   0.764 -0.1241 -0.4180  0.2124
  295SOL    HW1 1035   1.880   0.178   0.668 -0.0320 -0.6260  0.2236
  295SOL    HW2 1036   1.851   0.097   0.793  0.8819 -0.7063  0.3862
  296SOL     OW 1037   2.544   0.723   3.062  0.3695  0.1264 -0.4455
  296SOL    HW1 1038   2.470   0.706   3.120  0.0104  0.8919 -0.6543
  296SOL    HW2 1039   2.538   0.817   3.043  1.4974  0.2415 -0.3258
  297SOL     OW 1040   3.470   3.525   2.429  0.1218  0.2097  0.7213
  297SOL    HW1 1041   3.488   3.473   2.350 -1.3332  0.3421  0.2731
  297SOL    HW2 1042   3.461   3.461   2.499  1.8019  0.1133  0.8911
  298SOL     OW 1043   2.478   2.603   0.762  0.1437 -0.2531  0.7527
  298SOL    HW1 1044   2.529   2.524   0.782 -2.4074 -1.7713  1.7024
  298SOL    HW2 1045   2.474   2.651   0.845  2.5439  1.5422 -0.0454
  299SOL     OW 1046   3.007   2.516   2.919 -0.2531  0.2900  0.3550
  299SOL    HW1 1047   3.039   2.450   2.980 -0.6101  1.0281  1.3689
  299SOL    HW2 1048   2.995   2.595   2.972  0.6798  1.3459 -0.9345
  300SOL     OW 1049   2.954   1.702   2.188 -0.7412  0.0167 -0.4287
  300SOL    HW1 1050   2.927   1.775   2.133  1.7772  0.2825 -1.4192
  300SOL    HW2 1051   2.978   1.742   2.271 -0.4046  0.1970 -0.6093
  301SOL     OW 1052   2.448   3.662   0.183 -0.9087 -0.6273  0.3477
  301SOL    HW1 1053   2.392   3.657   0.260 -1.2254  2.3092  0.4456
  301SOL    HW2 1054   2.535   3.679   0.218 -1.1338  1.2161  0.1561
  302SOL     OW 1055   1.715   0.685   0.144 -0.2145  0.6124  1.2282
  302SOL    HW1 1056   1.730   0.738   0.066 -0.3795  0.5492  1.1505
  302SOL    HW2 1057   1.731   0.595   0.115  1.0755  0.6959  1.6234
  303SOL     OW 1058   1.150   0.435   0.722  0.1006  0.0659  0.1988
  303SOL    HW1 1059   1.085   0.394   0.664 -0.1859 -0.4819  0.8856
  303SOL    HW2 1060   1.229   0.441   0.669 -0.5010  0.7454 -0.6549
  304SOL     OW 1061   0.611   2.868   1.983  0.1060  0.9254 -0.3827
  304SOL    HW1 1062   0.688   2.890   2.036  0.4702  1.3362 -1.0653
  304SOL    HW2 1063   0.647   2.828   1.904 -0.5124 -2.1155  0.7388
  305SOL     OW 1064   3.386   3.715   1.256  0.3903  0.3646 -0.0471
  305SOL    HW1 1065   3.360   3.637   1.305  1.0351  0.7130  0.8765
  305SOL    HW2 1066   3.476   3.733   1.285  0.2237  1.4937 -0.1813
  306SOL     OW 1067   3.817   2.277   2.707 -0.3436 -0.0380  0.4694
  306SOL    HW1 1068   3.826   2.204   2.646  1.4162  0.8635 -0.4254
  306SOL    HW2 1069   3.857   2.245   2.788  2.1371  0.4464 -0.4541
  307SOL     OW 1070   2.392   3.672   2.366 -0.1481  0.0521 -0.9157
  307SOL    HW1 1071   2.384   3.620   2.446  2.1818 -2.5754 -2.1980
  307SOL    HW2 1072   2.405   3.762   2.396 -0.4958 -0.6766  1.5817
  308SOL     OW 1073   0.877   2.895   0.471  0.3621 -0.6770 -0.1819
  308SOL    HW1 1074   0.851   2.960   0.536  1.8726 -0.6272  0.4163
  308SOL    HW2 1075   0.934   2.942   0.410 -1.3372 -0.6245 -1.8328
  309SOL     OW 1076   3.638   2.203   1.608  0.3626 -0.1589  0.3779
  309SOL    HW1 1077   3.558   2.170   1.650 -0.1525  0.5633 -0.0171
  309SOL    HW2 1078   3.707   2.144   1.639 -0.5867 -1.8962 -0.6781
  310SOL     OW 1079   3.422   1.701   0.963 -0.1234  0.5344 -0.0034
  310SOL    HW1 1080   3.436   1.789   0.928 -2.1822  0.8295 -0.2267
  310SOL    HW2 1081   3.409   1.647   0.885 -2.1287  0.6985  0.1693
  311SOL     OW 1082  -0.018   1.980   1.757  0.7129  0.5070 -0.0326
  311SOL    HW1 1083   0.004   2.021   1.840  1.8554 -1.2255  0.5856
  311SOL    HW2 1084   0.020   2.037   1.691  0.1935  1.6652  0.6385
  312SOL     OW 1085   1.248   0.888   2.564  0.0198  0.0607 -0.2657
  312SOL    HW1 1086   1.205   0.863   2.645 -2.2181  0.4508 -1.2809
  312SOL    HW2 1087   1.230   0.981   2.554  0.5963  0.1065 -1.0426
  313SOL     OW 1088   1.122   0.294   1.770  0.5980  0.1207  0.6000
  313SOL    HW1 1089   1.147   0.382   1.799  0.9855 -0.3825  1.8359
  313SOL    HW2 1090   1.090   0.251   1.849  1.4346 -1.2126  0.2404
  314SOL     OW 1091   3.024   1.331   3.818  0.0429 -0.0061 -1.1347
  314SOL    HW1 1092   2.941   1.306   3.778  0.2841 -2.1173 -0.4357
  314SOL    HW2 1093   3.091   1.284   3.769  0.5776 -0.4468 -0.0321
  315SOL     OW 1094   1.614   0.272   3.335 -0.4755 -0.3501  1.2494
  315SOL    HW1 1095   1.602   0.353   3.384 -0.6443 -0.1279  0.8419
  315SOL    HW2 1096   1.527   0.232   3.333 -0.4079 -0.5047  1.3866
  316SOL     OW 1097   1.063   3.131   3.806 -0.3032 -0.0528  0.0925
  316SOL    HW1 1098   1.041   3.213   3.849  0.6238 -0.6730  1.8637
  316SOL    HW2 1099   1.136   3.152   3.748 -0.2906  0.4214  0.2784
  317SOL     OW 1100   0.240   2.404   1.685  0.0805  0.2605  0.0284
  317SOL    HW1 1101   0.232   2.476   1.623 -0.6680  0.3274  0.1948
  317SOL    HW2 1102   0.222   2.443   1.770  0.7056  0.0852  0.2475
  318SOL     OW 1103   2.283   0.313   2.560 -0.2516 -0.4480  0.5005
  318SOL    HW1 1104   2.344   0.342   2.492 -0.8239 -1.4017 -0.4718
  318SOL    HW2 1105   2.297   0.372   2.633  0.1340  0.8607 -0.5877
  319SOL     OW 1106   3.021   1.778   0.233  0.2312  0.7609 -0.0176
  319SOL    HW1 1107   3.040   1.719   0.306 -0.5843 -0.4797 -0.7754
  319SOL    HW2 1108   3.019   1.721   0.156 -2.3381  1.4536 -0.5438
  320SOL     OW 1109   3.024   2.152   1.997 -0.1608  0.0368 -0.5793
  320SOL    HW1 1110   2.957   2.221   1.997 -0.8853 -0.6457 -1.0962
  320SOL    HW2 1111   3.084   2.177   1.927 -0.1728  0.3741 -0.4712
  321SOL     OW 1112   3.191   3.546   3.647  0.8052  0.0294 -0.0665
  321SOL    HW1 1113   3.138   3.505   3.579 -0.3914 -3.3533  2.6121
  321SOL    HW2 1114   3.279   3.511   3.633  1.2096  1.4279 -1.3164
  322SOL     OW 1115   3.676   0.834   2.390 -0.3736  0.2778 -0.2828
  322SOL    HW1 1116   3.622   0.782   2.450  0.4300 -0.0305  0.1938
  322SOL    HW2 1117   3.650   0.924   2.407 -0.3485  0.1742  0.3357
  323SOL     OW 1118   3.379   3.246   0.305 -0.0334 -0.3739 -0.6840
  323SOL    HW1 1119   3.462   3.198   0.302  1.8107  2.6104 -1.2022
  323SOL    HW2 1120   3.364   3.263   0.398 -0.0115 -0.8193 -0.5967
  324SOL     OW 1121   0.085   0.622   0.994  0.3724 -0.6639  0.0541
  324SOL    HW1 1122   0.088   0.568   1.073 -2.3732  0.0150  0.7591
  324SOL    HW2 1123   0.149   0.691   1.010 -0.2598 -0.4260  1.8465
  325SOL     OW 1124   0.208   2.161   3.634  0.3167 -0.1559 -0.3728
  325SOL    HW1 1125   0.206   2.246   3.589 -1.6350 -1.2044 -2.5265
  325SOL    HW2 1126   0.279   2.113   3.591  0.3834 -0.1455 -0.2731
  326SOL     OW 1127   3.185   1.957   1.008 -0.4064 -0.4718  0.7626
  326SOL    HW1 1128   3.110   2.016   1.022  0.8783  1.1660  1.1560
  326SOL    HW2 1129   3.149   1.869   1.016 -2.1392  0.2807  1.7449
  327SOL     OW 1130   1.719   2.647   1.231 -0.3146 -0.0338 -0.0891
  327SOL    HW1 1131   1.792   2.705   1.209  1.4809 -1.9520  0.4998
  327SOL    HW2 1132   1.643   2.705   1.237  1.5451  2.4306  1.5212
  328SOL     OW 1133   1.443   1.058   1.073  0.3435 -0.1239 -0.6239
  328SOL    HW1 1134   1.359   1.043   1.117  0.1161  0.4799 -0.8340
  328SOL    HW2 1135   1.430   1.023   0.984  0.4225 -0.3134 -0.5619
  329SOL     OW 1136   0.918   0.165   0.839 -0.5380  0.1566  0.0052
  329SOL    HW1 1137   0.950   0.082   0.802  0.0986  0.2821  0.2517
  329SOL    HW2 1138   0.843   0.188   0.786 -1.0883 -0.8845  0.2924
  330SOL     OW 1139   1.072   0.202   2.318  0.0812  0.0457 -0.3665
  330SOL    HW1 1140   1.096   0.148   2.394 -0.3766 -0.6706 -0.7214
  330SOL    HW2 1141   1.044   0.285   2.356  0.1080 -0.2162  0.2371
  331SOL     OW 1142   2.932   2.594  -0.014 -0.0987  0.1182  0.2663
  331SOL    HW1 1143   2.898   2.684  -0.014  0.5844  0.3792  0.9034
  331SOL    HW2 1144   2.876   2.547   0.047 -0.4154  0.1239 -0.0169
  332SOL     OW 1145   0.985   2.244   2.995  0.5838 -0.6475  0.3854
  332SOL    HW1 1146   0.896   2.269   3.020  0.4677  0.9387 -1.4082
  332SOL    HW2 1147   0.975   2.202   2.909  1.7209  1.3880 -0.8139
  333SOL     OW 1148   3.069   1.733   1.891 -0.5019  0.1949 -0.3777
  333SOL    HW1 1149   3.112   1.798   1.836 -1.5150  0.4014 -0.9562
  333SOL    HW2 1150   2.983   1.770   1.910 -0.4397 -0.1949  0.7687
  334SOL     OW 1151   3.523   0.173   2.631  0.1160  0.0591  0.7006
  334SOL    HW1 1152   3.605   0.157   2.584 -0.9276  0.1543 -1.2353
  334SOL    HW2 1153   3.522   0.107   2.700  2.2032  0.6054  1.3495
  335SOL     OW 1154   2.367   0.541   0.067 -0.3820 -0.1148  0.0130
  335SOL    HW1 1155   2.301   0.586   0.015 -1.0290  1.1982  1.8479
  335SOL    HW2 1156   2.448   0.589   0.050 -0.2284 -0.7045 -0.9843
  336SOL     OW 1157   0.004   1.427   1.450  0.3357  0.3650  0.0307
  336SOL    HW1 1158  -0.077   1.413   1.498  0.0026 -1.8311 -1.0452
  336SOL    HW2 1159   0.073   1.414   1.515 -0.1377  0.4044  0.5454
  337SOL     OW 1160   1.231   2.343   1.910 -0.4942 -0.1885  0.0695
  337SOL    HW1 1161   1.248   2.404   1.839 -1.1925  0.2230  0.2465
  337SOL    HW2 1162   1.318   2.319   1.943 -0.1951  0.1541 -0.4660
  338SOL     OW 1163   3.240   2.550   0.770  0.1787 -0.1268  0.2972
  338SOL    HW1 1164   3.221   2.461   0.798 -0.2048 -0.8022 -1.8861
  338SOL    HW2 1165   3.164   2.601   0.798  0.0711 -0.6208  0.9243
  339SOL     OW 1166   3.459   3.538   2.936  0.1865 -0.2357 -0.1276
  339SOL    HW1 1167   3.514   3.559   3.012 -0.8558 -0.5573  0.7280
  339SOL    HW2 1168   3.450   3.622   2.890  0.2280  0.1211  0.4989
  340SOL     OW 1169   3.758   0.182   0.744 -0.1425  1.1206 -0.2542
  340SOL    HW1 1170   3.663   0.190   0.753  0.0424  2.9752  0.4500
  340SOL    HW2 1171   3.793   0.257   0.792  1.6808  0.5781 -0.6657
  341SOL     OW 1172   3.399   3.769   3.698  0.8728 -0.8680  0.4994
  341SOL    HW1 1173   3.320   3.772   3.644  1.4821 -2.3797 -0.5579
  341SOL    HW2 1174   3.368   3.743   3.785 -0.2360  2.3983  1.2234
  342SOL     OW 1175   3.416   2.934   2.287 -0.2648  0.6192 -0.8229
  342SOL    HW1 1176   3.412   2.850   2.332 -1.6266  1.7006  1.2293
  342SOL    HW2 1177   3.374   2.918   2.203 -0.7850 -0.6896 -0.3440
  343SOL     OW 1178   3.643   0.681   1.981  0.4751  0.2770 -0.1162
  343SOL    HW1 1179   3.636   0.654   2.072  3.5548  1.0314  0.4593
  343SOL    HW2 1180   3.725   0.641   1.950  1.2500  2.7270 -1.4950
  344SOL     OW 1181   0.780   0.712   3.388 -0.5833 -0.1794 -0.1574
  344SOL    HW1 1182   0.816   0.624   3.400 -1.4767 -0.3989  1.1391
  344SOL    HW2 1183   0.848   0.759   3.341  0.3221 -1.2836 -0.0070
  345SOL     OW 1184   2.179   2.920   3.490 -0.1536 -0.3248  0.2705
  345SOL    HW1 1185   2.089   2.915   3.522 -0.5336 -1.2651 -0.8765
  345SOL    HW2 1186   2.196   3.014   3.481 -1.7840 -0.1279 -1.4526
  346SOL     OW 1187   0.267   0.978   2.270  0.4347  0.2520 -0.5326
  346SOL    HW1 1188   0.246   1.015   2.356 -1.3593 -0.6364 -0.5493
  346SOL    HW2 1189   0.338   1.033   2.237  1.1857  0.6138  1.5141
  347SOL     OW 1190   0.020   1.160   3.292  0.0011 -0.5475  1.0261
  347SOL    HW1 1191   0.096   1.207   3.260 -0.9506 -0.5688 -1.4477
  347SOL    HW2 1192   0.013   1.083   3.236 -1.3265 -1.0299  1.7990
  348SOL     OW 1193   0.038   3.573   1.326 -0.3585 -0.1819 -0.7447
  348SOL    HW1 1194   0.071   3.485   1.309  0.5613  0.3034 -1.5067
  348SOL    HW2 1195   0.114   3.621   1.358 -0.8158  0.4010 -0.5251
  349SOL     OW 1196   0.680   1.607   1.139  0.1858 -0.4126  0.2965
  349SOL    HW1 1197   0.721   1.533   1.185 -0.5834 -0.8965  0.2298
  349SOL    HW2 1198   0.680   1.580   1.047 -0.5062 -0.5251  0.3295
  350SOL     OW 1199   3.426   0.530   0.958  0.4728 -0.4213 -0.0721
  350SOL    HW1 1200   3.364   0.535   1.031  2.8290 -1.3664  2.1220
  350SOL    HW2 1201   3.466   0.444   0.967  2.0945  0.1436 -1.4506
  351SOL     OW 1202   0.795   2.559   1.318 -0.1468 -0.0235 -0.3990
  351SOL    HW1 1203   0.852   2.543   1.243 -0.2502 -0.5235 -0.3734
  351SOL    HW2 1204   0.793   2.476   1.366  0.6659  0.5573  0.6795
  352SOL     OW 1205   1.636   3.755   2.067 -0.7367 -0.0016 -0.8236
  352SOL    HW1 1206   1.634   3.822   2.000 -2.1396  0.5446 -0.2680
  352SOL    HW2 1207   1.544   3.737   2.086 -0.3937  0.1811  1.2459
  353SOL     OW 1208   1.250   1.479   1.990 -0.0472  0.2742 -0.3313
  353SOL    HW1 1209   1.323   1.490   2.051 -0.6431 -0.8577  0.6212
  353SOL    HW2 1210   1.177   1.526   2.031 -0.0594  0.8003 -0.9332
  354SOL     OW 1211   1.322   0.158   3.294 -0.1840 -0.1326 -0.0093
  354SOL    HW1 1212   1.256   0.100   3.257  0.8164 -1.3055 -0.0337
  354SOL    HW2 1213   1.336   0.225   3.228 -0.7158 -0.3853 -0.3791
  355SOL     OW 1214   3.202   1.618   3.558  0.4097  0.3521 -0.3452
  355SOL    HW1 1215   3.200   1.543   3.498 -0.5014 -0.7315  0.9847
  355SOL    HW2 1216   3.133   1.676   3.526 -1.5186 -1.1869  0.7766
  356SOL     OW 1217   2.157   0.971   1.737  0.5639  0.0455 -0.1268
  356SOL    HW1 1218   2.117   0.997   1.654 -0.2475  0.0535  0.2523
  356SOL    HW2 1219   2.115   1.028   1.802  0.2367 -0.8263  0.4501
  357SOL     OW 1220   0.544   3.147   3.674 -0.8871 -0.1327 -0.0633
  357SOL    HW1 1221   0.559   3.060   3.636 -1.5073 -0.9396  1.4158
  357SOL    HW2 1222   0.620   3.163   3.729  0.2498  1.2503 -1.9357
  358SOL     OW 1223   0.823   3.298   1.071 -0.0183  0.4576  0.6371
  358SOL    HW1 1224   0.809   3.391   1.091  1.7981  0.9639 -0.2172
  358SOL    HW2 1225   0.907   3.277   1.112 -1.0597 -1.2413  2.0438
  359SOL     OW 1226   1.189   3.507   1.361 -0.6109 -0.1205  0.1693
  359SOL    HW1 1227   1.124   3.498   1.430 -0.0063  1.5704  1.0100
  359SOL    HW2 1228   1.273   3.501   1.406 -0.1517 -1.5143 -0.7956
  360SOL     OW 1229   2.442   0.871   2.477 -0.4329 -0.1754 -0.2794
  360SOL    HW1 1230   2.369   0.846   2.532  0.5533  0.5234  1.4184
  360SOL    HW2 1231   2.418   0.841   2.389 -2.9403  0.4850  0.1258
  361SOL     OW 1232   1.804   1.373   0.514  0.2975 -0.5635 -0.4947
  361SOL    HW1 1233   1.803   1.398   0.422 -1.6838  0.9830 -0.1227
  361SOL    HW2 1234   1.814   1.456   0.561  0.5937 -1.2553  0.7057
  362SOL     OW 1235   2.537   2.654   0.483  0.2896  0.3319 -0.0914
  362SOL    HW1 1236   2.561   2.594   0.553  1.4562  1.9817  0.9975
  362SOL    HW2 1237   2.543   2.741   0.523 -0.3590  1.2494 -1.8755
  363SOL     OW 1238   1.902   0.033   2.962  0.0761  0.3667 -0.2153
  363SOL    HW1 1239   1.821   0.002   2.922  0.9460 -0.3589 -1.5351
  363SOL    HW2 1240   1.875   0.080   3.041 -1.5596 -0.4849 -0.2325
  364SOL     OW 1241   0.135   3.359   1.182  0.2017  0.1412  0.6034
  364SOL    HW1 1242   0.114   3.395   1.096  1.8497  1.5635  0.7403
  364SOL    HW2 1243   0.140   3.264   1.167  1.5412  0.4198 -1.1612
  365SOL     OW 1244   2.102   0.869   2.267  0.3706  0.2342 -0.2757
  365SOL    HW1 1245   2.069   0.905   2.349 -1.2952 -1.8716  0.0363
  365SOL    HW2 1246   2.024   0.852   2.214  1.2525 -0.7035 -1.3333
  366SOL     OW 1247   1.442   2.700   2.250 -0.1958  0.3008 -0.6135
  366SOL    HW1 1248   1.418   2.751   2.173 -0.9602 -0.5690 -0.9709
  366SOL    HW2 1249   1.400   2.745   2.323  0.5199  1.1203 -0.6967
  367SOL     OW 1250   1.498   2.633   3.423  0.6852  0.0305  0.4510
  367SOL    HW1 1251   1.563   2.642   3.494  1.5784 -0.1224 -0.3265
  367SOL    HW2 1252   1.537   2.680   3.349 -0.0436 -0.1699 -0.0678
  368SOL     OW 1253   0.251   2.219   0.545 -0.7313  0.2896 -0.1687
  368SOL    HW1 1254   0.305   2.162   0.490 -0.1322  1.3523 -0.7207
  368SOL    HW2 1255   0.165   2.177   0.545  0.2380 -1.8321  1.3462
  369SOL     OW 1256   2.608   1.692   1.040  0.3741  0.1473  0.3037
  369SOL    HW1 1257   2.694   1.682   1.080 -0.1086 -0.6848  1.1432
  369SOL    HW2 1258   2.593   1.787   1.040  0.7625  0.2150  1.2722
  370SOL     OW 1259   3.548   2.590   0.293  0.1525  0.0196 -0.0985
  370SOL    HW1 1260   3.475   2.619   0.347 -0.5195  0.6835 -1.3364
  370SOL    HW2 1261   3.513   2.587   0.204  1.8629  1.2234 -0.8575
  371SOL     OW 1262   0.701   0.077   3.747 -0.4849  0.4709 -0.3470
  371SOL    HW1 1263   0.746   0.158   3.769  1.8886 -1.1684  1.4904
  371SOL    HW2 1264   0.656   0.052   3.828 -1.8221  0.3045 -1.1210
  372SOL     OW 1265   0.175   0.196   3.172 -0.1040  0.1612 -0.0646
  372SOL    HW1 1266   0.196   0.206   3.079  0.0407 -1.1745 -0.1974
  372SOL    HW2 1267   0.168   0.286   3.205 -3.1757  0.7901 -2.0119
  373SOL     OW 1268   2.465   1.974   0.572  0.2113  0.1871  0.8482
  373SOL    HW1 1269   2.370   1.969   0.566  0.1470 -2.6229  2.5271
  373SOL    HW2 1270   2.496   1.955   0.483 -0.8204 -1.3391  0.7748
  374SOL     OW 1271   3.300   3.561   1.494 -0.2902 -0.0861 -0.0221
  374SOL    HW1 1272   3.327   3.470   1.479 -1.4104 -0.5991  0.9405
  374SOL    HW2 1273   3.355   3.591   1.566  1.8891  0.8884 -1.9757
  375SOL     OW 1274   0.657   0.952   3.041  0.2637  0.1380  0.4969
  375SOL    HW1 1275   0.680   0.986   3.127  0.7423 -0.9620  0.8285
  375SOL    HW2 1276   0.564   0.971   3.031  0.2534  0.4607  1.1687
  376SOL     OW 1277   1.242   2.082   1.599 -0.1910  0.4893 -0.2803
  376SOL    HW1 1278   1.196   2.090   1.682  2.4921  1.0890  1.2535
  376SOL    HW2 1279   1.328   2.046   1.622 -0.0850 -1.3571 -3.0687
  377SOL     OW 1280   0.577   0.565   1.705  0.0535  0.5303 -0.1493
  377SOL    HW1 1281   0.655   0.615   1.682  1.4083 -1.2446  0.3578
  377SOL    HW2 1282   0.550   0.599   1.790  2.6534 -1.3533  1.5820
  378SOL     OW 1283   0.384   3.542   2.088 -0.1905 -0.6768  0.4317
  378SOL    HW1 1284   0.424   3.463   2.051  0.4486  0.4220 -1.2901
  378SOL    HW2 1285   0.455   3.606   2.090 -1.2833  0.6154 -0.5390
  379SOL     OW 1286   0.183   1.753   2.774 -0.1322  0.1993 -0.0217
  379SOL    HW1 1287   0.123   1.681   2.791  1.3635 -0.7675  1.5431
  379SOL    HW2 1288   0.160   1.783   2.686 -0.4685 -2.5599 -0.9846
  380SOL     OW 1289   1.050   2.708   0.609 -0.1881  0.7097  0.4819
  380SOL    HW1 1290   0.994   2.634   0.588  0.0733  0.2253  1.4078
  380SOL    HW2 1291   1.030   2.774   0.543  0.8439 -0.8264 -1.4569
  381SOL     OW 1292   3.579   1.932   2.286 -0.1306 -0.9598  0.4338
  381SOL    HW1 1293   3.560   1.841   2.261  1.7826 -0.7976 -2.0256
  381SOL    HW2 1294   3.674   1.939   2.277 -0.3692  1.6323 -0.8613
  382SOL     OW 1295   3.523   3.782   2.360 -0.4830  0.5859  0.1048
  382SOL    HW1 1296   3.438   3.823   2.341 -0.5296 -0.0151 -1.0461
  382SOL    HW2 1297   3.503   3.689   2.371 -0.3542  0.8021  2.5905
  383SOL     OW 1298   3.772   3.584   2.275  0.3149 -0.1999  0.2176
  383SOL    HW1 1299   3.855   3.619   2.242  0.8649 -0.2554  1.4850
  383SOL    HW2 1300   3.705   3.638   2.234  0.9254 -0.6548 -1.4441
  384SOL     OW 1301   1.623   1.833   0.168 -0.1371  0.6840 -0.0856
  384SOL    HW1 1302   1.592   1.747   0.139  2.2228 -0.9499  1.8315
  384SOL    HW2 1303   1.685   1.861   0.100 -1.1050  1.0505 -0.8435
  385SOL     OW 1304   0.195   3.077   0.213  0.3021 -0.4690 -0.1482
  385SOL    HW1 1305   0.133   3.038   0.275  1.0573 -0.4259  0.6712
  385SOL    HW2 1306   0.140   3.122   0.149 -0.5325  0.8612  1.3900
  386SOL     OW 1307   2.330   3.754   1.333 -0.2502  0.1762 -0.3947
  386SOL    HW1 1308   2.313   3.749   1.427  1.1546 -1.7343 -0.1957
  386SOL    HW2 1309   2.384   3.832   1.322 -0.2054  0.2622  0.4086
  387SOL     OW 1310   1.976   0.174   1.142  0.4822  0.0116  0.0128
  387SOL    HW1 1311   1.917   0.159   1.216 -1.3058 -0.3139 -1.3982
  387SOL    HW2 1312   2.019   0.257   1.162 -2.0009  1.3459  0.1933
  388SOL     OW 1313   2.071   2.962   2.272 -0.2498 -0.2711  0.2330
  388SOL    HW1 1314   1.981   2.983   2.298 -0.2348 -1.1823  1.0737
  388SOL    HW2 1315   2.124   3.030   2.313 -0.6271  0.9869 -1.2459
  389SOL     OW 1316   1.675   0.391   1.466  0.2446 -0.5153 -0.3883
  389SOL    HW1 1317   1.624   0.320   1.427  0.7089  0.2966 -2.6716
  389SOL    HW2 1318   1.720   0.432   1.391 -0.0763  2.2468  0.7962
  390SOL     OW 1319   2.504   0.258   2.023 -1.0256 -0.0980 -0.6264
  390SOL    HW1 1320   2.460   0.201   2.087 -0.0127  1.5635  1.7145
  390SOL    HW2 1321   2.537   0.198   1.957 -0.3499 -2.2402  1.4956
  391SOL     OW 1322   0.570   2.447   0.521 -0.7581 -0.7371 -0.8210
  391SOL    HW1 1323   0.593   2.441   0.429  0.8631 -1.5917 -0.4061
  391SOL    HW2 1324   0.606   2.530   0.550 -0.2223 -1.0052 -0.7045
  392SOL     OW 1325   0.335   3.337   2.899  0.4628 -0.2522 -0.0027
  392SOL    HW1 1326   0.269   3.383   2.848  2.2649 -0.4216 -2.6474
  392SOL    HW2 1327   0.314   3.244   2.888  1.0138 -0.2986 -0.6619
  393SOL     OW 1328   1.712   3.780   0.048 -0.3627  0.2061 -0.4599
  393SOL    HW1 1329   1.784   3.843   0.041  0.4467 -0.4107  1.6125
  393SOL    HW2 1330   1.755   3.696   0.066 -1.3786 -1.1156 -3.5207
  394SOL     OW 1331   2.962   3.183   3.620  0.6167  0.2845 -0.0763
  394SOL    HW1 1332   2.899   3.175   3.692  0.8662  2.5846  0.4787
  394SOL    HW2 1333   3.045   3.206   3.663  1.5544 -1.3281 -0.9079
  395SOL     OW 1334   2.478   2.483   3.183  0.1202  0.1626  0.1478
  395SOL    HW1 1335   2.500   2.542   3.255  0.2397  0.9077 -0.4914
  395SOL    HW2 1336   2.554   2.487   3.125  0.7079 -1.6219  0.7133
  396SOL     OW 1337   1.967   2.928   2.970  0.6473  0.2772 -1.2112
  396SOL    HW1 1338   1.904   2.865   3.007 -0.8996  1.8887 -0.9404
  396SOL    HW2 1339   2.049   2.908   3.014 -0.7227  1.0474  2.0230
  397SOL     OW 1340   3.779   2.979   0.399  0.3871 -0.4872  0.6556
  397SOL    HW1 1341   3.797   2.885   0.400  2.8091 -0.0880  1.4018
  397SOL    HW2 1342   3.774   3.003   0.491 -3.9295 -0.3976  0.5591
  398SOL     OW 1343   0.471   0.203   2.115 -0.1264 -0.2499 -0.0508
  398SOL    HW1 1344   0.436   0.222   2.028  2.4148  0.9182 -0.9181
  398SOL    HW2 1345   0.538   0.135   2.099  1.7719  1.3735  0.5892
  399SOL     OW 1346   1.611   1.676   1.224 -0.5807  0.4947  0.1381
  399SOL    HW1 1347   1.521   1.650   1.244  0.4191 -2.0677  1.8128
  399SOL    HW2 1348   1.653   1.687   1.309  0.3790  3.2618 -0.5792
  400SOL     OW 1349   1.761   2.693   2.220  0.3932  0.5741  0.1583
  400SOL    HW1 1350   1.779   2.667   2.130 -0.0543 -0.8612  0.4603
  400SOL    HW2 1351   1.670   2.667   2.235 -0.2482  2.7477  0.3744
  401SOL     OW 1352   3.501   2.008   3.558 -0.7525  0.0810  0.3055
  401SOL    HW1 1353   3.517   1.916   3.580 -0.3630  0.1905  0.4902
  401SOL    HW2 1354   3.588   2.043   3.539 -1.0612 -0.0192 -1.4676
  402SOL     OW 1355   3.797   0.517   2.167 -0.7544 -0.1039 -0.8563
  402SOL    HW1 1356   3.839   0.431   2.163 -0.2315  0.0517  0.8928
  402SOL    HW2 1357   3.862   0.577   2.130  0.1482 -0.0443  0.7250
  403SOL     OW 1358   1.626   3.735   0.315 -0.0647 -0.5926 -0.0010
  403SOL    HW1 1359   1.644   3.805   0.253 -0.6444 -0.7187 -0.3241
  403SOL    HW2 1360   1.710   3.691   0.328 -0.1636 -1.3631 -1.6915
  404SOL     OW 1361   3.091   1.330   1.675  0.0839  0.4547 -0.2123
  404SOL    HW1 1362   3.126   1.315   1.763  2.4371  0.5379 -1.0580
  404SOL    HW2 1363   3.168   1.334   1.619 -1.3345  0.6593 -2.2690
  405SOL     OW 1364   0.250   2.443   3.226  0.0404 -0.2948 -0.2512
  405SOL    HW1 1365   0.276   2.404   3.309  0.6432  0.7906  0.0973
  405SOL    HW2 1366   0.160   2.413   3.212 -0.5294  0.4974  1.4309
  406SOL     OW 1367   1.888   0.934   3.522  0.2011  0.1140  0.2210
  406SOL    HW1 1368   1.913   0.850   3.560 -0.2795  0.2008  0.7373
  406SOL    HW2 1369   1.965   0.989   3.534  1.3947 -0.8789 -2.1578
  407SOL     OW 1370   1.687   0.822   1.479  0.1319  1.0398 -0.3786
  407SOL    HW1 1371   1.721   0.756   1.540  0.2037  0.9936 -0.4687
  407SOL    HW2 1372   1.712   0.906   1.519 -0.8959  1.0474  0.2897
  408SOL     OW 1373   2.039   1.425   3.369  0.7377 -0.1166 -0.1539
  408SOL    HW1 1374   2.003   1.479   3.299  0.5327 -1.6985 -1.3344
  408SOL    HW2 1375   1.987   1.344   3.365  2.3510 -1.2149  0.1687
  409SOL     OW 1376   0.673   2.726   3.327 -0.2119  0.2663  0.1206
  409SOL    HW1 1377   0.696   2.633   3.326 -2.2504 -0.3323 -2.3027
  409SOL    HW2 1378   0.579   2.728   3.344 -0.2880  1.8459 -0.3068
  410SOL     OW 1379   2.170   3.726   0.730  0.0480 -0.4249  0.0603
  410SOL    HW1 1380   2.170   3.780   0.809  1.4055 -1.1000  0.5381
  410SOL    HW2 1381   2.078   3.703   0.717 -0.4553  1.3454  0.2831
  411SOL     OW 1382   1.999   3.025   0.633 -0.2909  0.1827 -0.6600
  411SOL    HW1 1383   1.937   2.993   0.699  0.2445  1.3800  0.4549
  411SOL    HW2 1384   2.032   3.108   0.668 -1.4644  1.9227 -3.3273
  412SOL     OW 1385   0.702   0.515   1.284  0.1271  0.1555 -0.1790
  412SOL    HW1 1386   0.745   0.440   1.326  0.1019 -0.3090 -0.9595
  412SOL    HW2 1387   0.763   0.542   1.216 -1.2002 -1.1684 -2.0079
  413SOL     OW 1388   3.793   2.054   0.531  0.6585 -0.1905  0.6744
  413SOL    HW1 1389   3.720   2.081   0.476  1.8131 -1.0241 -1.3955
  413SOL    HW2 1390   3.823   1.972   0.492  3.7861  0.9858  0.2997
  414SOL     OW 1391   3.268   0.037   0.665  0.1946 -0.3200 -0.3274
  414SOL    HW1 1392   3.237   0.127   0.676  0.3934 -0.3829  0.8605
  414SOL    HW2 1393   3.201  -0.017   0.706  1.6833 -0.4689  2.1538
  415SOL     OW 1394   1.904   0.737   2.104  0.2672  0.3721 -0.0874
  415SOL    HW1 1395   1.818   0.710   2.136 -0.3801  2.6652  0.3306
  415SOL    HW2 1396   1.885   0.803   2.037  1.7041  0.1190 -0.7761
  416SOL     OW 1397   1.230   1.742   3.533  0.6603 -0.2981  0.0720
  416SOL    HW1 1398   1.217   1.786   3.449 -2.4775 -1.4811 -0.1769
  416SOL    HW2 1399   1.311   1.781   3.568  0.1009  2.8677 -1.7890
  417SOL     OW 1400   2.956   2.446   1.043  0.2706  0.0708  0.5930
  417SOL    HW1 1401   3.043   2.479   1.023  0.4563 -1.2970 -1.0607
  417SOL    HW2 1402   2.906   2.525   1.067  1.0244  1.4450 -1.9202
  418SOL     OW 1403   1.215   0.909   1.184 -0.2910  0.4820 -0.1695
  418SOL    HW1 1404   1.236   0.855   1.260 -2.4975 -1.6078 -0.9324
  418SOL    HW2 1405   1.238   0.855   1.109 -2.8191  0.3850 -0.9684
  419SOL     OW 1406   1.147   2.150   3.193  0.1197 -0.2648 -0.1691
  419SOL    HW1 1407   1.081   2.170   3.128  0.5356 -1.3097 -0.9352
  419SOL    HW2 1408   1.148   2.227   3.251 -0.4865  0.5245 -1.1826
  420SOL     OW 1409   3.231   0.983   2.026  0.0207  0.0118  0.1478
  420SOL    HW1 1410   3.262   0.909   1.975 -0.0783 -0.8050  1.2360
  420SOL    HW2 1411   3.163   1.023   1.972  1.7127  0.7943 -1.5193
  421SOL     OW 1412   1.888   2.224   3.293 -0.2672  0.4354  0.4739
  421SOL    HW1 1413   1.965   2.274   3.319 -0.4728  1.0383 -0.0373
  421SOL    HW2 1414   1.858   2.266   3.212 -0.2335 -0.7422 -0.1788
  422SOL     OW 1415   2.862   0.654   1.116  0.4104 -0.0900 -0.3281
  422SOL    HW1 1416   2.842   0.736   1.072 -1.1503  0.7635  1.7766
  422SOL    HW2 1417   2.776   0.617   1.139  1.0805 -2.1188 -0.8416
  423SOL     OW 1418   3.061   0.585   2.792  0.2913  0.3815 -0.0550
  423SOL    HW1 1419   3.074   0.623   2.706 -1.0748 -0.4637 -0.6734
  423SOL    HW2 1420   3.028   0.657   2.846  0.1334  0.6645 -0.5293
  424SOL     OW 1421   3.259   0.209   1.223  0.0837 -0.5166  0.5750
  424SOL    HW1 1422   3.347   0.177   1.204  0.5704  1.2258 -0.2408
  424SOL    HW2 1423   3.246   0.187   1.316  0.6834 -2.2941  0.2796
  425SOL     OW 1424   3.229   2.790   1.693 -0.2340  0.6620  0.2154
  425SOL    HW1 1425   3.147   2.771   1.648  0.5943  1.6885 -1.8873
  425SOL    HW2 1426   3.215   2.760   1.783 -1.9320 -1.7159 -0.7348
  426SOL     OW 1427   1.025   0.944   3.521  0.4597 -0.2474 -0.3043
  426SOL    HW1 1428   0.981   0.918   3.440 -0.9649  1.6125 -0.1952
  426SOL    HW2 1429   1.118   0.938   3.501  0.1418 -0.5217 -1.8303
  427SOL     OW 1430   1.238   3.111   1.319 -0.1998  0.2849 -0.1853
  427SOL    HW1 1431   1.329   3.140   1.314 -0.7781  2.0954 -1.4583
  427SOL    HW2 1432   1.233   3.038   1.257  0.6849 -0.8298  1.0103
  428SOL     OW 1433   3.374   0.073   1.768 -0.1129 -0.1076 -0.3645
  428SOL    HW1 1434   3.367   0.165   1.794  0.4241 -0.2933  0.5196
  428SOL    HW2 1435   3.313   0.027   1.826  1.8768 -0.6649  1.4368
  429SOL     OW 1436   0.523   0.729   2.613  0.6536  0.3259  0.2710
  429SOL    HW1 1437   0.434   0.737   2.645 -0.3909  0.2608 -2.3341
  429SOL    HW2 1438   0.547   0.817   2.585 -0.0419 -0.1940 -2.2849
  430SOL     OW 1439   1.757   1.495   0.177 -0.2532  0.1610  0.3109
  430SOL    HW1 1440   1.762   1.546   0.096  0.2441  2.1112  1.5093
  430SOL    HW2 1441   1.781   1.557   0.246  2.0011 -2.0957  1.7196
  431SOL     OW 1442   2.170   3.181   0.255  0.6432 -0.0171  0.9710
  431SOL    HW1 1443   2.166   3.097   0.208 -0.0966  1.5115 -1.8892
  431SOL    HW2 1444   2.244   3.171   0.315  1.1781 -2.3824  0.0279
  432SOL     OW 1445   0.793   2.144   2.080 -0.1903  0.2838  0.4746
  432SOL    HW1 1446   0.807   2.204   2.007 -0.2873  0.7470  0.8317
  432SOL    HW2 1447   0.749   2.197   2.146  2.7294  0.8086  2.1625
  433SOL     OW 1448   2.346   3.168   0.850 -0.1275  0.9358  0.3640
  433SOL    HW1 1449   2.378   3.216   0.926  0.4519  0.0765  0.6699
  433SOL    HW2 1450   2.396   3.086   0.850 -1.6869 -0.0608  0.3602
  434SOL     OW 1451   3.703   3.022   0.664 -0.4442  0.6598 -0.2103
  434SOL    HW1 1452   3.661   2.939   0.643  2.0457 -0.6835 -0.3009
  434SOL    HW2 1453   3.687   3.034   0.758 -0.1732 -0.3500 -0.0253
  435SOL     OW 1454   0.541   3.256   0.106 -0.3484  0.0994  0.5025
  435SOL    HW1 1455   0.482   3.232   0.035 -1.5863  1.3777  1.0544
  435SOL    HW2 1456   0.534   3.184   0.168  0.4028 -0.8129 -0.4306
  436SOL     OW 1457   3.216   1.958   0.242  0.4015  0.2559  0.0992
  436SOL    HW1 1458   3.150   1.890   0.227 -0.0387  0.3306  1.5558
  436SOL    HW2 1459   3.169   2.040   0.228  0.5973  0.2906 -0.3749
  437SOL     OW 1460   3.010   1.501   2.002  0.1034 -0.3429 -0.2869
  437SOL    HW1 1461   2.981   1.550   2.078 -0.4813 -0.4981 -0.4062
  437SOL    HW2 1462   3.052   1.566   1.946 -0.8797  0.0748 -0.5547
  438SOL     OW 1463   3.721   1.604   2.439 -0.5244 -0.2381  0.5293
  438SOL    HW1 1464   3.735   1.509   2.436 -1.6548 -0.3971 -0.4079
  438SOL    HW2 1465   3.655   1.621   2.371  0.2064  1.3250  0.1633
  439SOL     OW 1466   1.448   3.017   1.040  0.1250  0.0822  0.0848
  439SOL    HW1 1467   1.482   3.101   1.011  0.4689 -0.0663  0.0626
  439SOL    HW2 1468   1.456   2.960   0.964 -0.9053  0.2550 -0.1744
  440SOL     OW 1469   1.883   3.644   0.304  0.2069  0.6896 -0.7510
  440SOL    HW1 1470   1.944   3.625   0.375 -1.6699  1.1206  1.0861
  440SOL    HW2 1471   1.936   3.641   0.224  1.8908 -2.6176  0.3291
  441SOL     OW 1472   0.329   2.628   1.302 -0.1704 -0.4843 -0.3001
  441SOL    HW1 1473   0.351   2.624   1.209  0.1212 -1.0238 -0.2101
  441SOL    HW2 1474   0.309   2.538   1.326 -1.4038 -0.1786 -0.1072
  442SOL     OW 1475   0.332   3.795   3.792 -0.4281 -0.4930  0.3889
  442SOL    HW1 1476   0.392   3.730   3.757  0.9829 -0.5294  2.6625
  442SOL    HW2 1477   0.248   3.749   3.799  0.6125 -2.2653  2.2664
  443SOL     OW 1478   2.634   1.659   0.276  0.3507  0.3327 -0.5155
  443SOL    HW1 1479   2.709   1.631   0.224  0.2770  0.4456 -0.6848
  443SOL    HW2 1480   2.660   1.644   0.367  0.6855  0.6360 -0.5582
  444SOL     OW 1481   1.496   1.325   2.840  0.0150  0.2666 -0.3717
  444SOL    HW1 1482   1.412   1.308   2.882  0.0049  0.0615 -0.4720
  444SOL    HW2 1483   1.511   1.248   2.785  0.3667  0.2067 -0.1939
  445SOL     OW 1484   3.402   3.650   3.357 -0.6113 -0.3003 -0.4170
  445SOL    HW1 1485   3.432   3.713   3.422 -0.2803 -0.7965 -0.0840
  445SOL    HW2 1486   3.332   3.696   3.309 -1.1297 -0.0669  0.5458
  446SOL     OW 1487   2.708   0.121   0.780 -0.2479  0.3188 -0.2419
  446SOL    HW1 1488   2.644   0.073   0.832  0.7004 -1.8897 -0.9896
  446SOL    HW2 1489   2.709   0.209   0.817 -0.0790 -0.9462  3.0820
  447SOL     OW 1490   3.138   2.698   1.301  0.1438  0.3707  0.2595
  447SOL    HW1 1491   3.196   2.773   1.316  0.6296 -0.4015  2.5629
  447SOL    HW2 1492   3.087   2.690   1.381 -0.7526 -1.0529 -0.4049
  448SOL     OW 1493   1.781   3.173   1.481 -0.8319  0.4130  0.2599
  448SOL    HW1 1494   1.836   3.244   1.514  0.7952  0.3359 -2.0163
  448SOL    HW2 1495   1.719   3.156   1.551 -0.1985  2.9288  1.5501
  449SOL     OW 1496   1.810   1.558   1.069 -0.1259  0.5637  0.0762
  449SOL    HW1 1497   1.739   1.614   1.098 -0.3888  0.9417 -1.2381
  449SOL    HW2 1498   1.854   1.608   0.999  0.8157 -0.0712  0.1879
  450SOL     OW 1499   2.855   1.454   1.082 -0.2177 -0.2358 -0.8083
  450SOL    HW1 1500   2.881   1.374   1.036 -1.2676  0.2895 -2.4125
  450SOL    HW2 1501   2.810   1.423   1.160  1.3206 -1.1653 -0.2445
  451SOL     OW 1502   0.569   0.881   1.593 -0.2581  0.2514  0.3799
  451SOL    HW1 1503   0.647   0.869   1.540 -1.0813 -0.9933 -0.6114
  451SOL    HW2 1504   0.522   0.953   1.550 -0.2331  0.2014  0.2686
  452SOL     OW 1505   0.770   2.099   2.826 -0.1240  0.4587 -0.0441
  452SOL    HW1 1506   0.696   2.079   2.883  0.3101  0.7544  0.6371
  452SOL    HW2 1507   0.776   2.194   2.827  0.5701  0.4128  0.2976
  453SOL     OW 1508   1.317   0.375   2.865  0.0077 -0.4717  0.1602
  453SOL    HW1 1509   1.405   0.344   2.846  1.0766  2.3419  0.0715
  453SOL    HW2 1510   1.271   0.373   2.781  1.3454  1.8742 -0.7140
  454SOL     OW 1511   1.235   3.655   3.353 -0.4737  0.4687  0.8211
  454SOL    HW1 1512   1.177   3.715   3.305 -1.0605 -0.6507  0.0986
  454SOL    HW2 1513   1.280   3.711   3.417 -1.4514  1.5723  0.5711
  455SOL     OW 1514   1.817   3.425   0.734 -0.4600  0.1718 -0.3495
  455SOL    HW1 1515   1.909   3.429   0.760 -0.3596  1.6266 -0.8087
  455SOL    HW2 1516   1.802   3.334   0.710  1.0734  0.0621 -0.9915
  456SOL     OW 1517   0.343   2.744   0.442 -0.1482  0.4783 -1.2108
  456SOL    HW1 1518   0.306   2.733   0.354 -0.3807  1.6062 -1.2660
  456SOL    HW2 1519   0.271   2.724   0.501 -0.4806  1.3520 -1.3052
  457SOL     OW 1520   1.776   1.685   0.366  0.3914 -0.0974 -0.2521
  457SOL    HW1 1521   1.732   1.767   0.346  1.0495 -0.3027 -2.8999
  457SOL    HW2 1522   1.760   1.671   0.459 -0.6567  2.4532  0.0204
  458SOL     OW 1523   3.105   1.530   1.314 -0.5188 -0.1245  0.0765
  458SOL    HW1 1524   3.189   1.529   1.359 -1.0904 -1.5886  1.1967
  458SOL    HW2 1525   3.075   1.439   1.318 -2.2574  0.4093 -0.1071
  459SOL     OW 1526   0.482   0.867   1.288 -0.3683  0.2512  0.4108
  459SOL    HW1 1527   0.577   0.862   1.302  0.1732  3.7386 -0.9606
  459SOL    HW2 1528   0.450   0.914   1.365 -0.7739  0.2157  0.2642
  460SOL     OW 1529   1.835   3.297   2.056  0.1459 -0.0180 -0.1660
  460SOL    HW1 1530   1.846   3.379   2.103 -2.4308  0.7665 -0.7381
  460SOL    HW2 1531   1.794   3.322   1.973 -2.3207 -1.9456  0.3418
  461SOL     OW 1532   1.348   1.939   1.113 -0.0987  0.5074 -0.1566
  461SOL    HW1 1533   1.296   1.934   1.193 -0.7872  1.0641 -0.5608
  461SOL    HW2 1534   1.387   2.026   1.116  2.1247 -0.4400  0.9196
  462SOL     OW 1535   3.613   2.487   1.086  0.2089 -0.1267  0.1362
  462SOL    HW1 1536   3.696   2.465   1.043  0.1137 -1.0479  0.4177
  462SOL    HW2 1537   3.633   2.565   1.137  1.2369 -1.0457  1.1840
  463SOL     OW 1538   1.377   3.119   3.041 -0.4884 -0.2671  0.2753
  463SOL    HW1 1539   1.282   3.114   3.028 -0.6800  1.5730  0.6414
  463SOL    HW2 1540   1.388   3.138   3.135  0.1395  0.9132 -0.0097
  464SOL     OW 1541   0.424   2.848   2.188 -0.3239  0.1890 -0.2865
  464SOL    HW1 1542   0.485   2.864   2.115  0.0734 -1.9461 -0.4940
  464SOL    HW2 1543   0.453   2.908   2.257  0.9227  0.4524 -1.0030
  465SOL     OW 1544   0.221   1.986   1.424 -0.7020 -0.5402  0.1524
  465SOL    HW1 1545   0.152   2.030   1.473  0.4444  0.3062  1.0521
  465SOL    HW2 1546   0.188   1.897   1.409 -1.9523 -0.1610  0.6061
  466SOL     OW 1547   1.095   2.726   3.640  0.7938 -0.1595 -0.2789
  466SOL    HW1 1548   1.044   2.647   3.620  0.0767  0.8459 -2.7907
  466SOL    HW2 1549   1.031   2.797   3.639  1.3993  0.5161  2.1197
  467SOL     OW 1550   0.260   2.834   1.777  0.1184 -0.8739  0.3731
  467SOL    HW1 1551   0.305   2.869   1.853  0.9248 -0.6482 -0.1963
  467SOL    HW2 1552   0.321   2.847   1.704 -1.0768 -0.0642 -0.5282
  468SOL     OW 1553   2.949   3.698   1.010  0.0051  0.3463  0.2551
  468SOL    HW1 1554   3.005   3.774   1.005 -0.7237  0.8635 -0.3971
  468SOL    HW2 1555   2.865   3.727   0.974 -0.4431 -0.6143  0.4679
  469SOL     OW 1556   1.262   2.598   0.442  0.0398 -0.1232  0.0311
  469SOL    HW1 1557   1.168   2.617   0.434  0.6559  2.7697 -2.0399
  469SOL    HW2 1558   1.286   2.560   0.358  0.8222 -0.5402  0.4279
  470SOL     OW 1559   0.015   2.362   1.011 -0.1190  0.5684  0.1778
  470SOL    HW1 1560   0.098   2.410   1.011 -1.1389  2.4341 -0.3579
  470SOL    HW2 1561   0.013   2.318   0.926  0.7685 -0.3649  0.6174
  471SOL     OW 1562   1.914   2.789  -0.018  0.0402 -0.0205  0.2104
  471SOL    HW1 1563   1.890   2.854   0.047  0.0034 -0.7508  0.9439
  471SOL    HW2 1564   1.917   2.706   0.030 -1.2608 -0.7991 -0.9424
  472SOL     OW 1565   0.023   3.287   3.396  0.4233 -0.4193 -0.3805
  472SOL    HW1 1566   0.066   3.267   3.479  0.6273 -2.7673 -0.9887
  472SOL    HW2 1567   0.022   3.204   3.349 -5.2783 -0.8365 -0.2088
  473SOL     OW 1568   1.317   2.413   3.512  0.2614  0.3391  0.1188
  473SOL    HW1 1569   1.362   2.352   3.570  0.0783  0.2102  0.1247
  473SOL    HW2 1570   1.387   2.467   3.476  0.5857 -0.7650 -0.9610
  474SOL     OW 1571   1.967   3.293   0.413  0.6081  0.3893 -1.2727
  474SOL    HW1 1572   2.019   3.220   0.381  0.1727  0.3743 -1.9504
  474SOL    HW2 1573   2.029   3.367   0.415  1.3217 -0.2003  0.3802
  475SOL     OW 1574   0.853   3.322   1.711  0.1600  0.1154  0.2970
  475SOL    HW1 1575   0.832   3.414   1.728  0.8701  0.2456  0.5114
  475SOL    HW2 1576   0.840   3.278   1.796  0.4398  0.1383  0.3525
  476SOL     OW 1577   0.236   1.084   2.512  0.2679 -1.1211  0.1509
  476SOL    HW1 1578   0.154   1.047   2.544  1.2122  0.0925  4.5788
  476SOL    HW2 1579   0.221   1.178   2.507  0.4803 -1.1438 -2.4749
  477SOL     OW 1580   2.840   2.956   0.811 -0.3874 -0.1557 -0.0993
  477SOL    HW1 1581   2.859   2.991   0.898 -0.1763  2.2272 -1.0271
  477SOL    HW2 1582   2.783   3.021   0.771 -0.4366 -1.1727 -1.7791
  478SOL     OW 1583   3.571   1.297   0.579 -0.5506 -0.0875  0.1551
  478SOL    HW1 1584   3.636   1.338   0.521  0.6360 -2.2623 -0.1908
  478SOL    HW2 1585   3.495   1.283   0.523 -0.1815 -0.2656 -0.3138
  479SOL     OW 1586   0.308   3.108   1.208  0.5784 -0.0546 -0.2304
  479SOL    HW1 1587   0.301   3.066   1.293  1.3173  0.9919  0.3637
  479SOL    HW2 1588   0.378   3.173   1.218  0.0032  0.7766 -1.3358
  480SOL     OW 1589   2.633   0.949   1.838  0.0139 -0.9794 -0.1437
  480SOL    HW1 1590   2.543   0.927   1.813  0.2295 -1.2102 -0.7386
  480SOL    HW2 1591   2.685   0.929   1.760  0.3744  0.6225 -0.3520
  481SOL     OW 1592   1.506   2.082   2.245  0.2892 -0.3658  0.0900
  481SOL    HW1 1593   1.495   2.108   2.153 -1.4852 -0.5440  0.2032
  481SOL    HW2 1594   1.462   1.997   2.250  2.1924 -1.3610  0.6781
  482SOL     OW 1595   1.202   2.824   0.142 -0.3152  0.2134 -0.0954
  482SOL    HW1 1596   1.280   2.880   0.138 -1.0258  1.1953 -0.9241
  482SOL    HW2 1597   1.236   2.735   0.147  0.8600  0.7049  1.4090
  483SOL     OW 1598   0.110   2.588   2.342  0.8366 -0.1536  0.6805
  483SOL    HW1 1599   0.039   2.576   2.405  0.6590 -2.7280  0.1002
  483SOL    HW2 1600   0.189   2.558   2.389  1.4911  2.0400  1.0884
  484SOL     OW 1601   1.190   0.074   2.517 -0.4800  0.4503  0.2944
  484SOL    HW1 1602   1.185   0.096   2.610 -1.1059 -0.2329  0.4355
  484SOL    HW2 1603   1.233  -0.011   2.514 -0.4694  0.4633 -0.0389
  485SOL     OW 1604   0.539   3.487   3.233 -0.4429  0.0181  0.1889
  485SOL    HW1 1605   0.473   3.423   3.207 -1.4972  0.4745  1.6084
  485SOL    HW2 1606   0.489   3.559   3.270  0.8485  0.5606  0.9448
  486SOL     OW 1607   0.193   1.892   2.186  0.0095  0.1474  0.5484
  486SOL    HW1 1608   0.274   1.929   2.151 -0.2614  0.6668  0.4531
  486SOL    HW2 1609   0.212   1.800   2.201  0.6250  0.2728  0.5480
  487SOL     OW 1610   2.525   0.523   0.676  0.2879  0.0508  0.5963
  487SOL    HW1 1611   2.600   0.470   0.650 -1.5091 -2.7361  0.6622
  487SOL    HW2 1612   2.488   0.554   0.593  0.5980  0.1433  0.4895
  488SOL     OW 1613   1.453   3.451   1.466 -0.0309 -0.0974  0.8448
  488SOL    HW1 1614   1.513   3.423   1.397 -0.9569 -0.0145 -0.0141
  488SOL    HW2 1615   1.433   3.371   1.515 -0.2804 -0.3768  0.2900
  489SOL     OW 1616   0.492   2.244   3.214 -0.1669  0.1273  0.0981
  489SOL    HW1 1617   0.484   2.326   3.165  0.0736  1.0041  1.4499
  489SOL    HW2 1618   0.500   2.272   3.305  0.1153 -1.4074  0.5722
  490SOL     OW 1619   1.331   2.166   2.437 -0.1215  0.4283  0.0990
  490SOL    HW1 1620   1.398   2.128   2.380 -1.8608 -1.2310 -0.9695
  490SOL    HW2 1621   1.287   2.231   2.383  1.3122  2.3848  1.1788
  491SOL     OW 1622   1.648   3.001   3.559 -0.6542  0.1056 -0.3251
  491SOL    HW1 1623   1.620   2.927   3.614 -1.1546  1.5897  1.5066
  491SOL    HW2 1624   1.573   3.018   3.503  0.3991 -2.4239 -2.7735
  492SOL     OW 1625   2.075   0.844   0.479  0.3005  0.0418 -0.2315
  492SOL    HW1 1626   2.145   0.861   0.416 -0.5015 -0.5560 -1.3163
  492SOL    HW2 1627   2.018   0.781   0.435  0.4215 -1.4489  1.6214
  493SOL     OW 1628   1.795   2.356   0.784 -0.0785 -0.2011  0.1572
  493SOL    HW1 1629   1.707   2.388   0.805  0.0103  0.1272  0.0330
  493SOL    HW2 1630   1.814   2.393   0.698  0.8560  1.1304  0.9068
  494SOL     OW 1631   2.030   2.650   2.358 -0.0142  0.3005 -0.2108
  494SOL    HW1 1632   2.092   2.674   2.289  0.2827 -0.2014 -0.1192
  494SOL    HW2 1633   1.974   2.727   2.367  0.9509  0.9773  0.1097
  495SOL     OW 1634   0.429   1.107   3.115 -0.3464 -0.3167 -0.1589
  495SOL    HW1 1635   0.475   1.181   3.075 -1.5146 -0.0733 -1.1104
  495SOL    HW2 1636   0.444   1.117   3.209  0.5872  0.3892 -0.3638
  496SOL     OW 1637   3.604   2.841  -0.005  0.2941  0.3784 -0.8184
  496SOL    HW1 1638   3.593   2.864   0.087  1.6207  0.7361 -0.7287
  496SOL    HW2 1639   3.521   2.866  -0.046 -0.2166  0.4410  0.2301
  497SOL     OW 1640   2.214   0.795   1.222 -0.0760 -0.4677 -0.5952
  497SOL    HW1 1641   2.220   0.780   1.128  0.1927  0.6166 -0.7724
  497SOL    HW2 1642   2.122   0.813   1.237 -0.1017 -0.5358 -0.6699
  498SOL     OW 1643   1.565   1.497   2.637 -0.0736 -0.3339  0.0280
  498SOL    HW1 1644   1.554   1.432   2.707 -0.2605 -0.2733  0.0545
  498SOL    HW2 1645   1.623   1.563   2.674 -0.3015 -0.2186  0.1844
  499SOL     OW 1646   0.993   0.909   0.623  0.0745 -0.3570 -0.2386
  499SOL    HW1 1647   1.017   0.817   0.614  0.4964 -0.1063 -1.8792
  499SOL    HW2 1648   0.911   0.917   0.575  0.0707  0.1475 -0.1514
  500SOL     OW 1649   1.296   3.769   0.943  0.4458 -0.2120 -0.1759
  500SOL    HW1 1650   1.387   3.798   0.947  0.4376  0.1254 -1.9379
  500SOL    HW2 1651   1.282   3.724   1.027  2.2712 -0.4275  0.0515
  501SOL     OW 1652   1.807   0.487   3.558  0.7082 -0.1738  0.2936
  501SOL    HW1 1653   1.825   0.474   3.465 -1.3010  0.7024 -0.2791
  501SOL    HW2 1654   1.892   0.506   3.597  1.4641  0.3720 -1.5323
  502SOL     OW 1655   0.075   0.696   0.725  0.7374 -0.4698 -0.5816
  502SOL    HW1 1656   0.014   0.688   0.799  0.9991 -1.8329 -0.4997
  502SOL    HW2 1657   0.161   0.673   0.762  1.2260  0.8148 -0.8454
  503SOL     OW 1658   2.437   1.808   2.115  0.2244  0.4620 -0.5442
  503SOL    HW1 1659   2.384   1.850   2.183  0.2223  0.8215 -0.7663
  503SOL    HW2 1660   2.466   1.881   2.059  2.8110  0.6177  0.8372
  504SOL     OW 1661   1.103   2.767   1.394 -0.2734 -0.1875  0.3027
  504SOL    HW1 1662   1.148   2.828   1.336 -0.9232  0.8477  0.8574
  504SOL    HW2 1663   1.118   2.681   1.355  0.1714  0.3810 -0.8145
  505SOL     OW 1664   3.747   2.141   1.996 -0.1047  0.0609 -0.1450
  505SOL    HW1 1665   3.732   2.235   2.010  0.8484 -0.0216  1.6062
  505SOL    HW2 1666   3.690   2.120   1.922 -2.7869  1.3452  1.3803
  506SOL     OW 1667   3.754   2.694   0.811 -0.6486  0.4640 -0.5776
  506SOL    HW1 1668   3.660   2.676   0.818 -0.8943  1.2910 -1.5438
  506SOL    HW2 1669   3.777   2.665   0.723  0.5267 -1.8537  0.4149
  507SOL     OW 1670   0.931   0.354   1.572 -0.2555 -0.1532  0.4835
  507SOL    HW1 1671   1.009   0.350   1.628 -0.8040  0.5643  1.3218
  507SOL    HW2 1672   0.870   0.292   1.611 -0.5183  0.1081  0.4939
  508SOL     OW 1673   0.229   3.514   3.811 -0.0167 -0.1068 -0.0293
  508SOL    HW1 1674   0.267   3.512   3.723 -0.4228 -0.5740 -0.1967
  508SOL    HW2 1675   0.295   3.559   3.864 -0.4789  1.6607 -0.8901
  509SOL     OW 1676   0.024   1.954   1.212  0.1632  0.3564  0.3749
  509SOL    HW1 1677  -0.003   1.863   1.203 -0.6898  0.6746 -0.4934
  509SOL    HW2 1678   0.119   1.952   1.196 -0.1184 -0.1679 -1.5540
  510SOL     OW 1679   3.377   2.025   1.551 -0.5950 -0.2841 -0.4249
  510SOL    HW1 1680   3.310   2.046   1.486  0.8680  0.7843 -1.6751
  510SOL    HW2 1681   3.460   2.039   1.505  0.5266 -3.1180  0.5519
  511SOL     OW 1682   0.812   2.696   2.177  0.5556 -0.2266 -0.2564
  511SOL    HW1 1683   0.846   2.642   2.249  0.3137 -1.6649 -1.1825
  511SOL    HW2 1684   0.721   2.668   2.167  0.6967 -0.3320 -1.3651
  512SOL     OW 1685   3.835   1.320   3.509 -0.1525  0.2268  0.4435
  512SOL    HW1 1686   3.761   1.331   3.568 -0.4514  0.5309  0.0219
  512SOL    HW2 1687   3.800   1.267   3.437 -0.2804  1.2798 -0.2980
  513SOL     OW 1688   0.026   2.625   2.939 -0.7916 -1.1964  0.2044
  513SOL    HW1 1689   0.094   2.558   2.936 -0.1131 -0.5347  0.5422
  513SOL    HW2 1690  -0.006   2.623   3.029  0.6554  0.2883  0.8171
  514SOL     OW 1691   3.211   0.472   1.543  0.5399  0.0016  0.2017
  514SOL    HW1 1692   3.221   0.380   1.567  0.0699 -0.8246 -2.5234
  514SOL    HW2 1693   3.117   0.484   1.531  0.6699  0.6169 -0.2475
  515SOL     OW 1694   3.206   3.674   1.870  0.7374  0.2545 -0.8292
  515SOL    HW1 1695   3.133   3.613   1.853  0.6672  0.1521 -0.2001
  515SOL    HW2 1696   3.163   3.755   1.897  0.8550 -0.0009  0.1653
  516SOL     OW 1697   2.553   2.257   3.315  0.3147 -0.0997  0.2831
  516SOL    HW1 1698   2.538   2.309   3.235  1.3177  0.5196  0.4870
  516SOL    HW2 1699   2.476   2.276   3.369  0.0198  0.1168 -0.1954
  517SOL     OW 1700   0.566   1.806   2.858 -0.2426  0.1370 -0.2034
  517SOL    HW1 1701   0.606   1.885   2.821 -0.9456 -0.0648 -1.4458
  517SOL    HW2 1702   0.505   1.839   2.924 -1.7307  0.7661 -1.8376
  518SOL     OW 1703   2.659   3.380   0.061  0.0618  0.3309  0.3261
  518SOL    HW1 1704   2.606   3.326   0.120 -0.8536  0.6256 -0.2053
  518SOL    HW2 1705   2.596   3.418   0.000  0.8091  1.2418  0.0958
  519SOL     OW 1706   1.127   0.850   2.805 -0.2466 -0.7362 -0.2973
  519SOL    HW1 1707   1.046   0.896   2.828 -0.1994 -1.7303  2.1603
  519SOL    HW2 1708   1.100   0.759   2.796  0.2267 -0.7430 -1.8439
  520SOL     OW 1709   2.788   2.231   0.594  0.2752  0.0525  0.5957
  520SOL    HW1 1710   2.848   2.176   0.544  0.3958  0.3763  0.3798
  520SOL    HW2 1711   2.845   2.278   0.655  0.4365  1.3685 -0.5088
  521SOL     OW 1712   3.382   3.115   3.696 -0.0714 -0.6586  0.1639
  521SOL    HW1 1713   3.351   3.101   3.786  0.8502  0.2106  0.6349
  521SOL    HW2 1714   3.379   3.210   3.684 -1.6653 -0.8480 -1.2864
  522SOL     OW 1715   3.582   0.671   0.782  0.4178  0.5639  0.4911
  522SOL    HW1 1716   3.600   0.764   0.794 -0.3927  0.7069  0.6488
  522SOL    HW2 1717   3.537   0.645   0.862  2.5876 -0.5048  1.4476
  523SOL     OW 1718   3.211   3.499   2.595  0.0727  0.3813 -0.0881
  523SOL    HW1 1719   3.158   3.420   2.600 -0.4925  0.7570  0.0267
  523SOL    HW2 1720   3.299   3.472   2.622 -1.1457  0.7701  5.4455
  524SOL     OW 1721   2.123   1.319   1.643  0.0337  0.7040  0.1470
  524SOL    HW1 1722   2.148   1.346   1.732 -2.3844 -1.2608  1.5737
  524SOL    HW2 1723   2.200   1.274   1.609  1.1662  1.8750  1.0573
  525SOL     OW 1724   0.402   0.610   3.213  0.4276 -0.2621  0.2659
  525SOL    HW1 1725   0.358   0.526   3.226  0.8940 -0.6071 -0.3689
  525SOL    HW2 1726   0.344   0.657   3.153  0.3861 -0.2945  0.2799
  526SOL     OW 1727   2.085   1.582   1.605 -0.2192 -0.6464 -0.0191
  526SOL    HW1 1728   2.091   1.487   1.598 -2.1784 -0.8637  0.7717
  526SOL    HW2 1729   2.151   1.606   1.671  0.7847 -1.3333 -0.7376
  527SOL     OW 1730   2.202   2.803   3.025 -0.1166  0.4916  0.3936
  527SOL    HW1 1731   2.293   2.828   3.009 -0.4574  1.0149 -0.8643
  527SOL    HW2 1732   2.182   2.741   2.955  0.2937 -2.4721  2.6737
  528SOL     OW 1733   2.116   0.016   1.757  0.0543  0.1392 -0.4102
  528SOL    HW1 1734   2.045   0.079   1.763  0.3822  0.4641  0.1750
  528SOL    HW2 1735   2.073  -0.066   1.731 -0.6928  0.0756  0.9094
  529SOL     OW 1736   0.887   0.892   2.347  0.2297 -0.0418  0.2060
  529SOL    HW1 1737   0.883   0.796   2.349  0.2292 -0.1854 -2.5174
  529SOL    HW2 1738   0.893   0.918   2.439  0.8804 -2.6746  0.9939
  530SOL     OW 1739   0.849   0.639   1.615 -0.0444 -0.5946 -0.5613
  530SOL    HW1 1740   0.877   0.549   1.604  1.0343 -0.5764  1.6767
  530SOL    HW2 1741   0.929   0.691   1.606 -0.2388 -0.0752  0.5139
  531SOL     OW 1742   3.624   1.746   0.438  0.1547 -0.3213  0.1186
  531SOL    HW1 1743   3.529   1.755   0.447  0.0995 -0.7702 -0.0108
  531SOL    HW2 1744   3.651   1.701   0.518  0.0617 -1.5410 -0.5260
  532SOL     OW 1745   3.545   2.341   2.556 -0.4381  0.1983  0.1927
  532SOL    HW1 1746   3.605   2.331   2.630  1.4312  4.0736 -0.5461
  532SOL    HW2 1747   3.469   2.386   2.593 -1.8704 -2.3757  0.6047
  533SOL     OW 1748   3.425   1.802   1.891  0.5601 -0.3934  0.4658
  533SOL    HW1 1749   3.460   1.725   1.846  0.4382  0.3999 -1.0368
  533SOL    HW2 1750   3.359   1.838   1.831  0.4805  0.7844  1.2196
  534SOL     OW 1751   2.902   2.722   1.129  0.5516  0.8363 -0.1049
  534SOL    HW1 1752   2.815   2.741   1.164  0.7255  0.5126  0.5183
  534SOL    HW2 1753   2.961   2.781   1.175  0.4508  2.4251 -1.8882
  535SOL     OW 1754   3.030   1.761   3.205  0.2883 -0.3833 -0.3758
  535SOL    HW1 1755   3.077   1.797   3.280  3.1471  0.4198 -2.4129
  535SOL    HW2 1756   2.938   1.764   3.232  1.0104  1.5195  2.3801
  536SOL     OW 1757   0.529   3.309   2.061  0.3834  0.0175  0.6995
  536SOL    HW1 1758   0.540   3.241   1.994 -2.5023 -1.4369  1.5283
  536SOL    HW2 1759   0.554   3.266   2.143 -0.0852  0.4097  1.0564
  537SOL     OW 1760   0.428   2.819   2.976 -1.0543  0.2057  0.2666
  537SOL    HW1 1761   0.470   2.745   3.020  0.8939 -0.2000 -2.0465
  537SOL    HW2 1762   0.500   2.874   2.946 -2.2647  0.9029 -1.5718
  538SOL     OW 1763   1.581   2.219   0.222  0.3885 -0.3049 -0.4716
  538SOL    HW1 1764   1.491   2.185   0.223  0.1975  0.1323 -1.3626
  538SOL    HW2 1765   1.608   2.211   0.131  1.6301 -1.3544 -0.0361
  539SOL     OW 1766   1.998   2.233   3.636  0.1711 -0.1693  0.1989
  539SOL    HW1 1767   1.996   2.328   3.637  0.5167 -0.1538  1.6767
  539SOL    HW2 1768   2.047   2.209   3.715 -2.3836 -1.6041  1.4844
  540SOL     OW 1769   1.815   0.897   1.916  0.8239  0.5205  0.3406
  540SOL    HW1 1770   1.764   0.978   1.914  1.7074  1.0885 -0.0847
  540SOL    HW2 1771   1.755   0.830   1.882  0.2546  1.0972  0.1848
  541SOL     OW 1772   1.755   0.111   2.694 -0.3908 -0.5696  0.3125
  541SOL    HW1 1773   1.846   0.139   2.682 -0.6300  0.2058  0.2956
  541SOL    HW2 1774   1.724   0.094   2.605 -0.4946 -0.0905  0.2548
  542SOL     OW 1775   1.049   1.601   2.720  0.1085  0.2493 -0.5845
  542SOL    HW1 1776   1.056   1.679   2.664 -1.7453  1.7538  1.0930
  542SOL    HW2 1777   0.955   1.581   2.721  0.3871 -1.1235  0.1861
  543SOL     OW 1778   3.002   3.058   2.449  0.8927  0.1544  0.4523
  543SOL    HW1 1779   2.979   2.970   2.419  0.4090  0.5289 -0.3034
  543SOL    HW2 1780   2.970   3.116   2.380 -3.2635  1.3608  3.0666
  544SOL     OW 1781   0.401   0.061   3.211  0.0061 -0.6857 -0.0847
  544SOL    HW1 1782   0.439   0.147   3.194  2.5751 -1.9066 -1.0930
  544SOL    HW2 1783   0.308   0.078   3.226  0.3235  2.1758 -0.8058
  545SOL     OW 1784   2.588   3.852   2.886 -0.1651  0.3421  0.6710
  545SOL    HW1 1785   2.657   3.841   2.951 -1.2714 -1.8993  1.5571
  545SOL    HW2 1786   2.514   3.803   2.921 -0.6746 -1.3982 -2.4736
  546SOL     OW 1787   1.919   3.546   2.154  0.0255  0.0781 -0.6544
  546SOL    HW1 1788   2.001   3.543   2.203 -0.2651 -1.4468 -0.1813
  546SOL    HW2 1789   1.860   3.597   2.210  0.5490  0.9170 -0.8546
  547SOL     OW 1790   0.132   0.736   2.879 -0.4583 -0.2179  0.5254
  547SOL    HW1 1791   0.219   0.714   2.844  0.2231 -1.0299  2.5659
  547SOL    HW2 1792   0.119   0.827   2.854  2.7989  1.2611  3.3959
  548SOL     OW 1793   0.943   3.270   2.732  0.2147 -0.5680  0.7744
  548SOL    HW1 1794   0.880   3.334   2.698 -0.2731 -0.0604  2.5068
  548SOL    HW2 1795   0.915   3.255   2.823  0.8177 -2.6371  0.6540
  549SOL     OW 1796   3.861   0.123  -0.012 -0.1370 -0.3607 -0.3047
  549SOL    HW1 1797   3.884   0.073   0.067  1.0164  0.0415 -0.3691
  549SOL    HW2 1798   3.791   0.072  -0.053 -1.5538 -0.0139  1.5486
  550SOL     OW 1799   2.910   2.924   1.607  0.2163  0.3745  0.2941
  550SOL    HW1 1800   2.837   2.877   1.647 -0.0177  1.5137  1.2802
  550SOL    HW2 1801   2.955   2.966   1.681  1.6587 -0.0022 -0.3348
  551SOL     OW 1802   3.469   1.926   1.298  0.0681 -0.4011 -0.4511
  551SOL    HW1 1803   3.523   1.859   1.339  1.6808  1.7713  1.1757
  551SOL    HW2 1804   3.460   1.897   1.207 -0.6252 -3.5344  0.4935
  552SOL     OW 1805   0.260   2.349   1.324  0.6528 -0.5854 -0.7898
  552SOL    HW1 1806   0.175   2.313   1.300  0.4819 -0.1954 -0.7658
  552SOL    HW2 1807   0.308   2.274   1.360  0.5897 -0.9765 -1.4893
  553SOL     OW 1808   2.698   1.098   0.644 -0.6664 -0.5382  0.2984
  553SOL    HW1 1809   2.721   1.036   0.713 -0.1960 -1.6808 -0.8302
  553SOL    HW2 1810   2.771   1.093   0.582 -0.4310  1.4597  0.3475
  554SOL     OW 1811   3.106   3.598   0.445  0.6492 -0.5115  0.2192
  554SOL    HW1 1812   3.128   3.506   0.448 -0.0692 -0.7160 -0.2964
  554SOL    HW2 1813   3.066   3.616   0.530  0.5827 -0.7319  0.2349
  555SOL     OW 1814   1.174   0.143   1.041  0.0272  0.3538 -0.4436
  555SOL    HW1 1815   1.112   0.144   0.968 -0.6228 -1.3623  0.0368
  555SOL    HW2 1816   1.228   0.065   1.025 -0.4052 -0.3070  1.0916
  556SOL     OW 1817   0.708   3.033   0.199 -0.1404  0.4121 -0.1915
  556SOL    HW1 1818   0.723   2.942   0.174  1.2135  0.4810  0.2847
  556SOL    HW2 1819   0.636   3.029   0.262  1.2088 -0.6033  1.3789
  557SOL     OW 1820   2.198   2.647   3.599  0.0991  0.0913  0.4400
  557SOL    HW1 1821   2.140   2.647   3.523  1.4644 -1.8760 -0.7195
  557SOL    HW2 1822   2.255   2.722   3.586 -2.0338  2.0064  1.5586
  558SOL     OW 1823   3.834   2.410   2.144  0.5447  0.2612 -0.3209
  558SOL    HW1 1824   3.826   2.455   2.228 -0.6392 -0.1033 -0.2127
  558SOL    HW2 1825   3.773   2.457   2.087 -0.3706 -0.8783 -0.3322
  559SOL     OW 1826   0.366   3.628   1.643  0.4027  0.4128  0.3119
  559SOL    HW1 1827   0.462   3.621   1.639  0.3786 -0.4536  0.9609
  559SOL    HW2 1828   0.339   3.557   1.701 -0.7132 -0.0149 -0.6863
  560SOL     OW 1829   1.139   3.305   2.422  0.1769  0.4680 -0.1663
  560SOL    HW1 1830   1.159   3.238   2.487 -2.2143  1.2326  1.4622
  560SOL    HW2 1831   1.180   3.385   2.457  0.9767  0.4007 -0.9005
  561SOL     OW 1832   3.409   2.308   1.033 -0.0212 -0.4847 -0.2364
  561SOL    HW1 1833   3.385   2.293   1.124  0.3080 -2.0457 -0.3774
  561SOL    HW2 1834   3.491   2.356   1.037  0.1799 -0.8645  0.3022
  562SOL     OW 1835   3.511   1.612   2.271  0.5533  0.2854  0.4657
  562SOL    HW1 1836   3.426   1.615   2.315  0.0328 -0.1083 -0.4755
  562SOL    HW2 1837   3.490   1.629   2.179  1.3684 -0.8689  0.0564
  563SOL     OW 1838   3.756   3.874   2.292  0.5148  0.8878  0.1703
  563SOL    HW1 1839   3.815   3.812   2.335 -0.3306  1.1004  1.7142
  563SOL    HW2 1840   3.668   3.848   2.322  0.0570  2.1754  0.0214
  564SOL     OW 1841   0.866   2.767   1.510 -0.0119 -1.0536  0.9090
  564SOL    HW1 1842   0.956   2.779   1.480 -1.3532  3.5467 -2.2065
  564SOL    HW2 1843   0.833   2.692   1.459  1.1367 -0.7302 -0.3447
  565SOL     OW 1844   2.976   0.209   2.662 -0.1122 -0.4444 -0.2079
  565SOL    HW1 1845   2.946   0.197   2.752  0.5027 -0.8694 -0.0545
  565SOL    HW2 1846   3.054   0.154   2.655  2.2107  2.5501  0.1930
  566SOL     OW 1847   3.129   2.100   1.465 -0.7376 -0.4181 -0.1701
  566SOL    HW1 1848   3.107   2.185   1.502  1.5327 -0.5739  1.7921
  566SOL    HW2 1849   3.047   2.050   1.470 -1.3680  0.6875  1.5670
  567SOL     OW 1850   1.754   3.357   0.268  0.5199  0.5464 -0.3930
  567SOL    HW1 1851   1.807   3.314   0.335 -1.3378 -1.7079 -0.2198
  567SOL    HW2 1852   1.729   3.441   0.307  2.2128  0.7625  0.3062
  568SOL     OW 1853   0.664   2.128   1.493  0.0562 -0.0494  0.1627
  568SOL    HW1 1854   0.607   2.085   1.430 -1.2675  0.8464  0.7127
  568SOL    HW2 1855   0.726   2.060   1.520 -1.7809 -1.5508  0.7980
  569SOL     OW 1856   3.001   1.658   3.827  1.5724 -0.1481  0.4723
  569SOL    HW1 1857   3.054   1.611   3.762  0.1223 -0.6194 -0.4057
  569SOL    HW2 1858   3.012   1.750   3.805  0.6693 -0.3249 -0.8199
  570SOL     OW 1859   3.179   1.899   3.799 -0.4956  0.2571  0.1830
  570SOL    HW1 1860   3.240   1.951   3.851  2.3363  0.8451 -3.3909
  570SOL    HW2 1861   3.194   1.926   3.709 -4.3398 -1.4617 -1.1864
  571SOL     OW 1862   1.259   1.937   3.352  0.2214 -0.3071  0.4133
  571SOL    HW1 1863   1.290   1.906   3.267 -1.5717 -0.9273 -0.0537
  571SOL    HW2 1864   1.230   2.027   3.335 -0.9330 -0.7135  0.1332
  572SOL     OW 1865   0.059   0.552   1.297  0.1914 -0.0438 -0.4656
  572SOL    HW1 1866  -0.007   0.620   1.309  1.0528  1.0800 -1.7855
  572SOL    HW2 1867   0.136   0.599   1.265  1.8006 -1.2466  1.3935
  573SOL     OW 1868   2.582   2.530   3.495 -0.8643 -0.4022  0.2493
  573SOL    HW1 1869   2.506   2.476   3.474 -1.2617 -1.3434  3.5789
  573SOL    HW2 1870   2.547   2.602   3.547  0.1750  1.0191 -0.9404
  574SOL     OW 1871   3.129   1.867   0.609  0.3283 -0.2561  0.5284
  574SOL    HW1 1872   3.201   1.852   0.547 -1.6101  1.2716 -2.3189
  574SOL    HW2 1873   3.104   1.779   0.637  1.7006 -0.9802 -0.3535
  575SOL     OW 1874   3.070   3.618   1.385  0.2058  0.0912 -0.2495
  575SOL    HW1 1875   3.138   3.590   1.445  0.7597 -1.5471 -1.5524
  575SOL    HW2 1876   3.105   3.599   1.298 -0.3124  2.9133 -1.1977
  576SOL     OW 1877   2.100   1.844   3.208  0.0032  0.2577  0.1551
  576SOL    HW1 1878   2.174   1.792   3.239 -0.0575 -0.5423 -0.9733
  576SOL    HW2 1879   2.133   1.933   3.203  1.3500 -0.3001 -1.7114
  577SOL     OW 1880   1.415   0.449   3.721 -0.6072  0.0486  0.4730
  577SOL    HW1 1881   1.342   0.472   3.663 -0.5519  1.1291  0.8123
  577SOL    HW2 1882   1.383   0.470   3.809 -0.1543 -0.1690  0.6893
  578SOL     OW 1883   2.296   1.701   3.393  0.3599 -0.3400 -0.2116
  578SOL    HW1 1884   2.347   1.706   3.474 -0.3383  0.3648  0.2123
  578SOL    HW2 1885   2.361   1.689   3.324  0.9522 -1.2128  0.4741
  579SOL     OW 1886   0.032   2.155   0.141  0.1422 -0.0608 -0.7232
  579SOL    HW1 1887  -0.028   2.119   0.206 -0.4010 -0.2782 -1.3301
  579SOL    HW2 1888   0.099   2.087   0.130  1.4379  0.8274  1.1156
  580SOL     OW 1889   1.665   2.767   2.801  0.2653 -0.0401  0.2163
  580SOL    HW1 1890   1.646   2.674   2.789 -0.2507  0.3440 -3.0282
  580SOL    HW2 1891   1.671   2.802   2.711  1.5199  2.8543  1.2910
  581SOL     OW 1892   0.089   0.509   0.459 -0.6408 -0.0086 -0.1248
  581SOL    HW1 1893   0.135   0.425   0.459 -1.5362 -0.5806 -2.7252
  581SOL    HW2 1894   0.036   0.508   0.539  2.5238  0.0335  2.2004
  582SOL     OW 1895   1.215   3.547   1.944 -0.1857  0.0881  0.0232
  582SOL    HW1 1896   1.181   3.526   2.031 -1.1694 -1.8951 -0.7896
  582SOL    HW2 1897   1.139   3.576   1.895  0.5229  2.1578  0.0140
  583SOL     OW 1898   2.790   1.994   3.677  0.0680 -1.0884 -0.2235
  583SOL    HW1 1899   2.781   1.995   3.581 -1.4660 -0.1577 -0.0980
  583SOL    HW2 1900   2.728   2.060   3.707  1.8973  0.0195  1.3314
  584SOL     OW 1901   1.391   0.500   1.442 -0.0506 -0.7752  0.2161
  584SOL    HW1 1902   1.430   0.518   1.528 -1.4795 -0.1247  0.7684
  584SOL    HW2 1903   1.338   0.422   1.457 -1.2031 -0.0086  0.2436
  585SOL     OW 1904   2.363   2.508   0.355  0.5053  0.2760 -0.1530
  585SOL    HW1 1905   2.386   2.420   0.383  0.4974  0.3673  0.1481
  585SOL    HW2 1906   2.439   2.561   0.377  2.3777 -0.3451 -4.1961
  586SOL     OW 1907   1.661   2.042   2.870  0.4311 -0.5889  0.4229
  586SOL    HW1 1908   1.591   2.100   2.838 -1.1657 -1.4676  2.1337
  586SOL    HW2 1909   1.627   1.954   2.854  1.5598 -1.0475  0.4960
  587SOL     OW 1910   1.707   2.492   0.197 -0.6024  0.1829 -0.3141
  587SOL    HW1 1911   1.646   2.427   0.233 -3.7275  2.2726 -1.3728
  587SOL    HW2 1912   1.764   2.441   0.139 -2.1224 -1.8054 -0.2003
  588SOL     OW 1913   3.240   1.998   3.532 -0.3022 -0.0376 -0.0090
  588SOL    HW1 1914   3.332   1.981   3.510 -0.5855 -0.3835 -0.9587
  588SOL    HW2 1915   3.233   2.094   3.532 -0.2862 -0.0131 -1.4836
  589SOL     OW 1916   1.823   0.449   0.819 -0.2461  0.1192  1.1139
  589SOL    HW1 1917   1.849   0.358   0.808 -0.6079  0.0975  0.3542
  589SOL    HW2 1918   1.780   0.452   0.905 -1.7423 -0.8023  0.4457
  590SOL     OW 1919   2.756   3.344   2.252  0.5597  0.0940 -0.3035
  590SOL    HW1 1920   2.750   3.346   2.347 -0.4004 -0.8678 -0.3260
  590SOL    HW2 1921   2.666   3.357   2.221  0.2188 -2.9992 -0.9581
  591SOL     OW 1922   3.580   2.864   1.860 -0.3031  0.1640  0.2089
  591SOL    HW1 1923   3.668   2.836   1.834 -0.1787 -0.9197  1.6943
  591SOL    HW2 1924   3.592   2.954   1.889  0.5749 -0.3635  1.5580
  592SOL     OW 1925   0.745   2.983   3.165 -0.8864  0.5596 -0.1862
  592SOL    HW1 1926   0.741   3.050   3.233 -0.0841  1.2691 -0.8063
  592SOL    HW2 1927   0.759   2.901   3.212 -0.0760  1.0730  0.5005
  593SOL     OW 1928   0.702   2.970   0.937 -0.1479  0.4457  0.0850
  593SOL    HW1 1929   0.670   3.055   0.907 -0.1166  0.0661 -1.0752
  593SOL    HW2 1930   0.742   2.988   1.022 -0.6738  1.4784  0.1308
  594SOL     OW 1931   1.273   3.496   0.085 -0.9593 -0.2765 -0.5101
  594SOL    HW1 1932   1.186   3.523   0.055  0.0879  0.9669 -2.6742
  594SOL    HW2 1933   1.307   3.441   0.015  0.3516  0.0297 -0.1517
  595SOL     OW 1934   2.290   3.821   3.851 -0.3453 -0.0340 -0.0995
  595SOL    HW1 1935   2.263   3.772   3.773 -0.0661  0.9601 -0.8392
  595SOL    HW2 1936   2.355   3.765   3.894  0.5130 -0.0086 -1.3250
  596SOL     OW 1937   1.947   1.166   1.792 -0.7152 -0.2912 -0.4019
  596SOL    HW1 1938   1.928   1.239   1.851 -0.7554 -0.5484 -0.0932
  596SOL    HW2 1939   2.008   1.203   1.728  0.0045 -0.2302  0.2977
  597SOL     OW 1940   3.610   1.139   3.370 -0.5335  0.6790  0.0036
  597SOL    HW1 1941   3.689   1.136   3.316 -0.7018 -0.5820 -0.2053
  597SOL    HW2 1942   3.544   1.179   3.313 -0.2896  0.8634 -0.1520
  598SOL     OW 1943   2.541   1.222   3.784 -0.1774  0.6392 -0.3177
  598SOL    HW1 1944   2.627   1.233   3.743  0.4964  1.7078  1.3164
  598SOL    HW2 1945   2.494   1.165   3.723  1.9396 -0.6552 -0.8862
  599SOL     OW 1946   0.562   2.160   1.743  0.0866  0.5282 -0.1885
  599SOL    HW1 1947   0.575   2.172   1.648 -0.1885  1.7189 -0.1017
  599SOL    HW2 1948   0.575   2.067   1.758  0.1193  0.3203 -1.4089
  600SOL     OW 1949   0.368   1.348   1.522 -0.7070  0.0653  0.6633
  600SOL    HW1 1950   0.392   1.428   1.474 -1.3327 -0.3226 -0.3088
  600SOL    HW2 1951   0.374   1.374   1.614  1.8679  0.4514  0.4807
  601SOL     OW 1952   1.281   1.091   2.930  0.0276 -0.2871  0.0966
  601SOL    HW1 1953   1.230   1.172   2.922 -0.4242 -0.6153 -0.4914
  601SOL    HW2 1954   1.233   1.028   2.876  0.3395 -0.9656  0.5979
  602SOL     OW 1955   2.462   3.422   2.986 -0.3065  0.2198  0.6647
  602SOL    HW1 1956   2.508   3.457   2.910 -3.0468 -1.9081 -2.2300
  602SOL    HW2 1957   2.515   3.347   3.013 -0.4185 -0.3640 -0.6514
  603SOL     OW 1958   3.245   2.923   3.210 -0.0290  0.4204  0.4646
  603SOL    HW1 1959   3.174   2.961   3.159  0.7945  1.3890 -0.0018
  603SOL    HW2 1960   3.277   2.996   3.264 -0.2860 -0.3521  1.7135
  604SOL     OW 1961   2.949   0.020   0.687  0.4281  0.0852  0.1507
  604SOL    HW1 1962   3.000   0.073   0.749 -0.7785  1.4075  0.0487
  604SOL    HW2 1963   2.858   0.039   0.707 -0.1308 -2.9392  0.9249
  605SOL     OW 1964   2.553   0.828   3.581  0.3234 -0.6724  0.4462
  605SOL    HW1 1965   2.571   0.755   3.641  1.2012  0.0030  1.0195
  605SOL    HW2 1966   2.627   0.829   3.521 -0.6732 -1.5028 -0.8477
  606SOL     OW 1967   3.109   0.666   2.520 -0.1998 -0.2653 -0.6390
  606SOL    HW1 1968   3.047   0.640   2.452 -1.5790  1.3562 -0.0752
  606SOL    HW2 1969   3.150   0.746   2.485 -1.2012  0.8056  0.5184
  607SOL     OW 1970   0.917   2.648   1.917  0.1634  0.1553 -0.0605
  607SOL    HW1 1971   0.869   2.656   2.000  2.5160 -1.1386  1.5550
  607SOL    HW2 1972   0.854   2.674   1.850 -1.6807  1.8640  2.1524
  608SOL     OW 1973   3.303   0.877   1.104 -0.2805  0.7565 -0.6349
  608SOL    HW1 1974   3.364   0.951   1.106 -0.4079  0.8743 -0.9574
  608SOL    HW2 1975   3.324   0.831   1.023 -0.3050  0.5273 -0.5119
  609SOL     OW 1976   0.568   2.061   3.036 -0.0920  0.4509 -0.2774
  609SOL    HW1 1977   0.534   2.128   3.095  0.6034 -0.6428  1.4287
  609SOL    HW2 1978   0.526   1.980   3.063  1.8914 -0.4780  0.2402
  610SOL     OW 1979   2.967   1.099   3.504  0.3191 -0.0252 -0.7414
  610SOL    HW1 1980   3.049   1.118   3.459  2.4240 -0.7713  2.4972
  610SOL    HW2 1981   2.993   1.061   3.587 -3.2267  2.5308  1.8431
  611SOL     OW 1982   0.759   3.471   2.705  0.3680  0.4130  0.0663
  611SOL    HW1 1983   0.717   3.411   2.766  0.4971  0.1015 -0.1534
  611SOL    HW2 1984   0.688   3.531   2.679  0.0217 -0.1992 -0.4147
  612SOL     OW 1985   2.857   1.154   3.093  0.0659  0.0888  0.1185
  612SOL    HW1 1986   2.886   1.203   3.170  2.0507 -0.9787  0.1007
  612SOL    HW2 1987   2.813   1.077   3.128 -1.1499  0.7720  0.1464
  613SOL     OW 1988   3.149   0.476   1.889  0.4243  0.7531  0.7545
  613SOL    HW1 1989   3.197   0.403   1.928  1.8336  0.5082 -1.2307
  613SOL    HW2 1990   3.158   0.548   1.952  0.8098 -0.1802  1.7941
  614SOL     OW 1991   2.517   3.494   1.632 -0.3415 -0.7570 -0.0633
  614SOL    HW1 1992   2.508   3.589   1.629  0.9516 -0.6284 -0.8185
  614SOL    HW2 1993   2.478   3.469   1.716 -3.4815  0.0554 -1.1409
  615SOL     OW 1994   3.221   0.557   0.332 -0.5893  0.0410 -0.4937
  615SOL    HW1 1995   3.207   0.464   0.312 -1.5960 -0.1173  0.8513
  615SOL    HW2 1996   3.231   0.598   0.246 -0.4117 -1.2641 -1.1254
  616SOL     OW 1997   2.992   2.697   2.542 -0.2945  0.4339 -0.2152
  616SOL    HW1 1998   2.998   2.628   2.608 -0.2426  1.4318  0.8582
  616SOL    HW2 1999   3.076   2.742   2.547 -0.7417  1.2638 -0.1275
  617SOL     OW 2000   2.430   2.708   1.861  0.5754 -0.6300 -0.4882
  617SOL    HW1 2001   2.427   2.803   1.845 -0.2507 -0.4529  0.6194
  617SOL    HW2 2002   2.452   2.700   1.954  1.0287 -1.5480 -0.6584
  618SOL     OW 2003   3.234   1.227   3.654 -0.0276 -0.4062  1.0055
  618SOL    HW1 2004   3.292   1.151   3.649 -0.7801 -0.9564  0.4110
  618SOL    HW2 2005   3.264   1.285   3.583  0.9360  0.1460  1.8450
  619SOL     OW 2006   1.634   3.748   2.862  0.6790 -0.3812 -0.1402
  619SOL    HW1 2007   1.611   3.812   2.930 -2.8911  0.6581 -2.0974
  619SOL    HW2 2008   1.640   3.799   2.782  2.2292 -1.9384 -1.0653
  620SOL     OW 2009   1.164   3.524   2.205 -0.0755  0.4053  0.0790
  620SOL    HW1 2010   1.229   3.478   2.257 -0.8096 -0.8906 -0.1264
  620SOL    HW2 2011   1.156   3.610   2.247  1.7101  0.5947  0.1320
  621SOL     OW 2012   2.919   2.412   0.763 -0.9417 -0.7813 -0.0727
  621SOL    HW1 2013   2.933   2.379   0.852  1.0082 -0.9828 -0.4112
  621SOL    HW2 2014   2.918   2.508   0.773  3.2004 -0.5685 -0.2038
  622SOL     OW 2015   0.085   3.513   0.353  0.1543  0.3234 -0.4527
  622SOL    HW1 2016   0.069   3.434   0.406  0.5848  0.4302 -0.1558
  622SOL    HW2 2017   0.175   3.538   0.375 -0.0166  0.9541 -0.4801
  623SOL     OW 2018   1.663   2.721   0.797  0.5341  0.6779  0.1293
  623SOL    HW1 2019   1.746   2.759   0.828  0.4036  1.8157 -0.8398
  623SOL    HW2 2020   1.601   2.793   0.804  0.1216  0.4598 -1.1676
  624SOL     OW 2021   2.532   1.932   3.327 -0.7476  0.5654 -0.1744
  624SOL    HW1 2022   2.463   1.987   3.291  0.3859  2.1888  0.0353
  624SOL    HW2 2023   2.500   1.907   3.414 -2.6457 -1.7948 -1.4436
  625SOL     OW 2024   1.635   0.856   3.451 -0.4570  0.4347 -0.1180
  625SOL    HW1 2025   1.594   0.865   3.537 -0.6290 -4.2255  0.5389
  625SOL    HW2 2026   1.729   0.869   3.468 -0.4277 -0.9755  0.9715
  626SOL     OW 2027   3.779   2.480   0.623  0.2626  0.9606 -0.4122
  626SOL    HW1 2028   3.762   2.448   0.534 -1.0324  1.4981 -0.3709
  626SOL    HW2 2029   3.828   2.409   0.665  0.4017  0.4691 -1.3802
  627SOL     OW 2030   1.848   1.908   1.063  0.2760  0.3322  0.2935
  627SOL    HW1 2031   1.927   1.871   1.024  0.5292  2.0389 -0.9099
  627SOL    HW2 2032   1.858   1.892   1.157  2.8864  1.9616  0.3973
  628SOL     OW 2033   3.287   0.348   0.688  0.4762  0.0491 -0.0368
  628SOL    HW1 2034   3.312   0.434   0.653  1.1342 -0.1055  0.0296
  628SOL    HW2 2035   3.194   0.357   0.709  0.3127  0.4516 -0.8883
  629SOL     OW 2036   0.638   2.866   2.419  0.6104  0.0854 -0.0421
  629SOL    HW1 2037   0.551   2.907   2.409 -0.2686 -0.4860  3.8222
  629SOL    HW2 2038   0.690   2.931   2.465  1.9638 -0.0194 -1.3455
  630SOL     OW 2039   1.337   3.788   3.600 -0.5729 -0.0023  0.0706
  630SOL    HW1 2040   1.390   3.784   3.679 -0.3168  0.2407 -0.0867
  630SOL    HW2 2041   1.269   3.852   3.619  0.0394  0.7581 -0.2285
  631SOL     OW 2042   1.466   0.802   0.553 -0.2923 -0.1779  0.6837
  631SOL    HW1 2043   1.406   0.875   0.535  1.3712  0.8901 -0.8932
  631SOL    HW2 2044   1.471   0.754   0.471  2.7717  1.1822 -0.0693
  632SOL     OW 2045  -0.011   0.852   0.461 -0.2182 -0.2077 -0.1682
  632SOL    HW1 2046  -0.017   0.778   0.400 -0.9142 -0.6071  0.3761
  632SOL    HW2 2047   0.078   0.846   0.496  0.4486  0.4450 -1.6489
  633SOL     OW 2048   1.077   2.020   2.396 -0.4409  0.2200 -0.6974
  633SOL    HW1 2049   1.171   2.032   2.414 -0.5450  0.5311 -0.3522
  633SOL    HW2 2050   1.052   2.101   2.352 -0.3811 -0.1787 -1.4795
  634SOL     OW 2051   0.433   2.759   3.519 -0.4833 -0.2252 -0.6083
  634SOL    HW1 2052   0.348   2.739   3.480 -0.3441 -0.6291 -0.7130
  634SOL    HW2 2053   0.430   2.719   3.606 -0.5913  0.2064 -0.4122
  635SOL     OW 2054   1.947   3.280   2.577  0.1323 -0.0201 -0.3746
  635SOL    HW1 2055   1.947   3.207   2.639 -1.5301  0.9794  0.8757
  635SOL    HW2 2056   1.980   3.355   2.626 -0.3589  0.5906 -0.9509
  636SOL     OW 2057   1.734   1.936   1.915 -0.0473 -0.4511  0.4306
  636SOL    HW1 2058   1.828   1.949   1.929 -0.0133  2.2798 -1.4805
  636SOL    HW2 2059   1.719   1.843   1.934  2.9846 -0.9286  0.9464
  637SOL     OW 2060   1.469   3.375   2.025 -0.2169 -0.9663  0.2265
  637SOL    HW1 2061   1.497   3.331   2.104  1.1699 -0.1315  0.2377
  637SOL    HW2 2062   1.420   3.451   2.055  2.3849  0.7485  0.4463
  638SOL     OW 2063   3.289   1.393   0.215 -0.4689 -0.1244 -0.2046
  638SOL    HW1 2064   3.304   1.342   0.136  1.3428  0.7193 -0.4672
  638SOL    HW2 2065   3.359   1.459   0.214  0.3615 -0.8151  2.6868
  639SOL     OW 2066   0.686   3.140   1.881  0.3062  0.2291  0.3257
  639SOL    HW1 2067   0.683   3.056   1.926 -0.4750  0.8343  1.4674
  639SOL    HW2 2068   0.688   3.118   1.788 -1.4029 -1.0466  0.5539
  640SOL     OW 2069   1.135   3.326   3.144  0.4347  0.6449 -0.6830
  640SOL    HW1 2070   1.226   3.344   3.166 -0.4313  0.4965  3.9529
  640SOL    HW2 2071   1.102   3.409   3.109  2.0755  0.9559 -1.5848
  641SOL     OW 2072   0.527   0.560   1.066  0.1531 -0.6054 -0.4567
  641SOL    HW1 2073   0.573   0.539   1.148  0.5853  0.1261 -0.5052
  641SOL    HW2 2074   0.597   0.568   1.001 -0.1233 -0.3738 -0.7255
  642SOL     OW 2075   3.284   3.276   2.999 -0.6037 -0.4921  0.2820
  642SOL    HW1 2076   3.286   3.369   2.978 -0.0573 -0.6805 -0.5481
  642SOL    HW2 2077   3.288   3.232   2.914  0.5776 -1.2836  0.7293
  643SOL     OW 2078   1.608   0.747   0.998 -0.4921 -0.4204 -0.2733
  643SOL    HW1 2079   1.536   0.711   1.049 -2.6892  1.6111 -1.6948
  643SOL    HW2 2080   1.605   0.699   0.915 -1.7388  1.1655 -1.1860
  644SOL     OW 2081   1.420   0.946   0.848 -0.3073 -0.3520  0.7632
  644SOL    HW1 2082   1.462   0.878   0.900  0.2964 -0.0477  0.6839
  644SOL    HW2 2083   1.342   0.904   0.812  0.7299 -1.4204 -0.3377
  645SOL     OW 2084   0.240   0.215   3.697 -0.0702 -0.8512  0.5855
  645SOL    HW1 2085   0.154   0.186   3.727 -0.1104 -0.8402  0.4813
  645SOL    HW2 2086   0.302   0.170   3.755 -0.1926  0.4495  1.7773
  646SOL     OW 2087   0.413   0.612   1.991  0.1683  0.1791  0.2764
  646SOL    HW1 2088   0.346   0.620   1.923  0.2077 -0.5318  0.1416
  646SOL    HW2 2089   0.414   0.697   2.035 -0.5630  0.3127  0.0396
  647SOL     OW 2090   2.077   1.079   3.639 -0.6002 -0.1258  0.4764
  647SOL    HW1 2091   2.060   1.170   3.662  0.6167 -0.6309  4.0134
  647SOL    HW2 2092   2.070   1.032   3.722 -1.3985 -3.3386 -1.2518
  648SOL     OW 2093   2.779   2.054   3.401  0.0216  0.7660  0.2567
  648SOL    HW1 2094   2.772   2.146   3.376 -1.3463  0.6664  0.1962
  648SOL    HW2 2095   2.693   2.017   3.381  0.1047 -0.1996  1.5585
  649SOL     OW 2096   0.736   2.991   2.676  0.3653  0.0149  0.3730
  649SOL    HW1 2097   0.766   3.065   2.730 -0.6142  0.6945  0.0094
  649SOL    HW2 2098   0.796   2.920   2.699  0.8619  0.6977  1.2970
  650SOL     OW 2099   3.732   1.029   2.851 -0.1805  0.1922  0.8346
  650SOL    HW1 2100   3.808   1.057   2.801 -1.5150  1.2501 -0.7239
  650SOL    HW2 2101   3.768   0.984   2.927  1.9652 -0.0841 -0.2724
  651SOL     OW 2102   2.547   2.920   0.918 -0.3331  0.2233 -0.0008
  651SOL    HW1 2103   2.478   2.903   0.982 -1.0262 -1.5397 -1.1202
  651SOL    HW2 2104   2.626   2.883   0.958 -0.7781 -0.9442 -0.1661
  652SOL     OW 2105   1.852   0.226   3.187  0.2068  0.0888  0.5378
  652SOL    HW1 2106   1.776   0.254   3.238 -1.9514 -3.9260 -0.0461
  652SOL    HW2 2107   1.928   0.252   3.240 -1.6353  1.7905  2.5285
  653SOL     OW 2108   1.519   0.625   0.380 -0.0040  0.3467  0.1438
  653SOL    HW1 2109   1.604   0.637   0.337  0.5466 -0.5251  0.9288
  653SOL    HW2 2110   1.477   0.554   0.332  0.3440 -0.2025  0.6329
  654SOL     OW 2111   1.360   3.692   0.301  0.5200  0.1976 -0.0463
  654SOL    HW1 2112   1.349   3.624   0.234  1.2069  1.8454 -1.9621
  654SOL    HW2 2113   1.451   3.720   0.291 -0.1571  2.4535 -0.4346
  655SOL     OW 2114   0.591   3.399   1.449  0.3075 -0.9968 -0.3585
  655SOL    HW1 2115   0.546   3.478   1.421 -0.2314 -0.5802  1.5825
  655SOL    HW2 2116   0.650   3.427   1.518 -0.2894 -2.3358  0.7528
  656SOL     OW 2117   2.006   2.554   0.140 -0.3279  0.2427  0.0728
  656SOL    HW1 2118   2.062   2.575   0.215 -0.0295 -0.2726  0.0011
  656SOL    HW2 2119   1.995   2.459   0.145 -1.4866  0.3634  0.2850
  657SOL     OW 2120   0.333   2.349   2.699 -0.1336 -1.0156  0.1681
  657SOL    HW1 2121   0.276   2.332   2.773 -0.9921  1.4740  0.1832
  657SOL    HW2 2122   0.283   2.320   2.623 -0.6911 -0.5127  0.3328
  658SOL     OW 2123   0.957   0.727   1.189 -0.5020  0.1497 -0.0183
  658SOL    HW1 2124   1.011   0.670   1.243  0.7446  2.8494  1.8360
  658SOL    HW2 2125   0.995   0.721   1.102  1.0704 -0.1213  0.6538
  659SOL     OW 2126   2.157   2.516   1.753 -0.2300 -0.0621  0.3195
  659SOL    HW1 2127   2.227   2.472   1.704 -1.4555 -1.3715 -0.3374
  659SOL    HW2 2128   2.084   2.522   1.691 -1.2719 -0.2584  1.4752
  660SOL     OW 2129   0.881   2.677   3.127 -0.4736  0.4975  0.3548
  660SOL    HW1 2130   0.827   2.708   3.200 -0.6248 -0.1180  0.5099
  660SOL    HW2 2131   0.966   2.659   3.166 -0.5193  0.2834  0.3564
  661SOL     OW 2132   3.408   2.245   3.195 -0.2603  0.2494 -0.3767
  661SOL    HW1 2133   3.378   2.295   3.120 -0.8599  1.1755  0.4565
  661SOL    HW2 2134   3.390   2.301   3.271  2.6586  0.4535  0.2820
  662SOL     OW 2135   3.838   2.053   2.256  0.4876  0.1428  0.2641
  662SOL    HW1 2136   3.913   2.007   2.218 -0.0128 -1.3929  1.0208
  662SOL    HW2 2137   3.784   2.078   2.181  0.5778 -0.9059 -0.1640
  663SOL     OW 2138   3.604   3.252   3.045 -0.4473 -0.2616  0.3850
  663SOL    HW1 2139   3.524   3.199   3.056 -0.3132 -0.1914  1.8560
  663SOL    HW2 2140   3.596   3.321   3.111  0.9628 -0.4206  0.7556
  664SOL     OW 2141   3.821   0.067   1.594 -0.0904  0.0089  0.1486
  664SOL    HW1 2142   3.847   0.159   1.598 -0.2232  0.0327  0.4741
  664SOL    HW2 2143   3.733   0.068   1.555  0.2008 -0.0376 -0.5260
  665SOL     OW 2144   3.253   1.611   2.356  0.3557 -0.0433  0.0885
  665SOL    HW1 2145   3.184   1.659   2.402  0.8451  1.0660 -0.3041
  665SOL    HW2 2146   3.254   1.648   2.268 -1.4154 -2.9729 -1.3311
  666SOL     OW 2147   0.780   2.379   2.752 -0.0985 -0.2797  0.1162
  666SOL    HW1 2148   0.748   2.459   2.793  0.3695 -0.5315  0.9909
  666SOL    HW2 2149   0.739   2.378   2.665  1.7557  2.1533 -0.9133
  667SOL     OW 2150   3.714   1.422   0.378 -0.0504  0.2059 -0.4464
  667SOL    HW1 2151   3.635   1.454   0.335 -0.9019 -0.2476  0.7375
  667SOL    HW2 2152   3.779   1.490   0.361 -1.2663  1.6395  0.3211
  668SOL     OW 2153   3.761  -0.021   2.726 -0.2959 -0.4957 -0.2089
  668SOL    HW1 2154   3.746   0.018   2.813 -0.5258  1.0487 -0.9031
  668SOL    HW2 2155   3.755   0.053   2.666 -2.2337 -1.8127 -1.7750
  669SOL     OW 2156   2.078   3.263   2.345 -0.1319  0.6022 -0.6513
  669SOL    HW1 2157   2.032   3.269   2.429 -1.9766  2.1432 -1.6801
  669SOL    HW2 2158   2.016   3.219   2.287  0.6080  0.6963 -1.5355
  670SOL     OW 2159   3.865   0.421   2.887 -0.0426 -0.0686  0.2443
  670SOL    HW1 2160   3.881   0.498   2.941  0.3213  0.1388 -0.1448
  670SOL    HW2 2161   3.789   0.444   2.834  0.9451  0.6364 -0.9437
  671SOL     OW 2162   3.319   1.794   0.414 -0.5361  1.2128  0.4443
  671SOL    HW1 2163   3.248   1.730   0.414  1.1469 -0.7686 -1.0934
  671SOL    HW2 2164   3.291   1.862   0.353 -0.2304 -0.6870 -1.9252
  672SOL     OW 2165   0.563   1.849   1.560 -0.2402 -0.1347  0.1508
  672SOL    HW1 2166   0.549   1.774   1.502 -0.9754  0.0724  0.0388
  672SOL    HW2 2167   0.514   1.920   1.518  2.3409  1.0786 -1.0216
  673SOL     OW 2168   2.836   1.408   2.992  0.5400 -0.1063 -0.4458
  673SOL    HW1 2169   2.840   1.314   3.006  1.8390 -0.0230 -0.1546
  673SOL    HW2 2170   2.742   1.429   2.994  0.1342 -1.6007 -2.0254
  674SOL     OW 2171   3.398   3.147   2.768 -0.2251 -0.5188 -0.4088
  674SOL    HW1 2172   3.400   3.087   2.694  1.5456 -0.4397 -0.4759
  674SOL    HW2 2173   3.478   3.127   2.818 -0.5532  0.5182  0.5857
  675SOL     OW 2174   3.257   2.277   1.891 -0.2788  0.2286  0.5754
  675SOL    HW1 2175   3.257   2.307   1.982  2.7080 -1.1231  1.1314
  675SOL    HW2 2176   3.320   2.335   1.847  1.3356 -1.5354  0.3941
  676SOL     OW 2177   3.788   1.704   1.156  0.9038  0.0950  0.3717
  676SOL    HW1 2178   3.728   1.717   1.229 -0.9566  1.0849 -1.2316
  676SOL    HW2 2179   3.807   1.610   1.157 -0.5930 -0.2258  1.0080
  677SOL     OW 2180   0.900   1.338   2.970  0.0875 -0.3782  0.1855
  677SOL    HW1 2181   0.908   1.433   2.976 -0.6957 -0.2156 -0.9906
  677SOL    HW2 2182   0.914   1.307   3.060  0.0050  0.8678  0.6503
  678SOL     OW 2183   1.545   1.435   3.452  0.3535 -0.7081  0.2450
  678SOL    HW1 2184   1.511   1.409   3.366  0.4348 -1.2271  0.3642
  678SOL    HW2 2185   1.546   1.531   3.450  1.9553 -0.7039 -0.9649
  679SOL     OW 2186   1.597   3.271   3.693  0.4094 -0.1421  0.2412
  679SOL    HW1 2187   1.614   3.189   3.648  1.2475 -0.0098  0.3164
  679SOL    HW2 2188   1.646   3.264   3.775  0.5855  0.4824  0.1948
  680SOL     OW 2189   0.994   2.259   2.265  0.1712 -0.0368  0.0091
  680SOL    HW1 2190   0.956   2.232   2.182  2.3845  0.4719 -1.2667
  680SOL    HW2 2191   0.951   2.342   2.286 -1.1002 -0.6561 -0.1071
  681SOL     OW 2192   1.448   2.046   2.696 -0.5156 -0.3994 -0.0068
  681SOL    HW1 2193   1.391   2.052   2.618 -1.4457  3.6450  0.7666
  681SOL    HW2 2194   1.387   2.051   2.770  0.5994  0.1389  0.8950
  682SOL     OW 2195   2.266   2.444   1.444 -0.2072 -0.2147  0.3838
  682SOL    HW1 2196   2.180   2.403   1.454 -0.2251 -0.0114  1.1910
  682SOL    HW2 2197   2.248   2.532   1.411 -0.5373  0.6762  2.6850
  683SOL     OW 2198   0.896   2.823   2.825 -0.3282 -0.4178  0.2735
  683SOL    HW1 2199   0.958   2.755   2.799 -0.3498 -1.4026  2.5414
  683SOL    HW2 2200   0.951   2.898   2.850 -0.0845 -0.8474  1.0653
  684SOL     OW 2201   0.889   0.713   0.375 -0.3432  0.2821 -0.7535
  684SOL    HW1 2202   0.884   0.643   0.440  0.1143 -0.0862 -1.1121
  684SOL    HW2 2203   0.823   0.777   0.404  0.4377  0.5286  0.5354
  685SOL     OW 2204   1.654   0.672   1.947 -0.1947  0.8342  0.4816
  685SOL    HW1 2205   1.717   0.613   1.986 -0.8146 -0.0491  0.1847
  685SOL    HW2 2206   1.569   0.638   1.974 -0.5695  1.5040  0.1842
  686SOL     OW 2207   0.168   2.490   1.927 -0.0690  0.2611 -0.0008
  686SOL    HW1 2208   0.178   2.574   1.972  0.3096  0.1246  0.1698
  686SOL    HW2 2209   0.106   2.441   1.981 -0.2424  0.4060 -0.0670
  687SOL     OW 2210   1.462   2.266   1.029 -0.6309 -0.4033  0.3799
  687SOL    HW1 2211   1.389   2.251   0.969 -1.1170  1.5709  0.3914
  687SOL    HW2 2212   1.519   2.326   0.983 -1.2580  1.5597  1.9914
  688SOL     OW 2213   2.426   2.045   2.678 -0.4146 -0.4083 -0.8441
  688SOL    HW1 2214   2.420   2.075   2.768 -0.5476 -0.7386 -0.7426
  688SOL    HW2 2215   2.398   2.120   2.626 -0.9586 -0.4240 -0.5820
  689SOL     OW 2216   2.195   0.662   3.006  0.0412 -0.1643  0.2421
  689SOL    HW1 2217   2.209   0.589   3.067  0.1467 -0.3758 -0.0291
  689SOL    HW2 2218   2.181   0.738   3.062 -0.0611 -0.3928  0.5300
  690SOL     OW 2219   2.995   2.101   0.520 -1.3378  0.1036  0.1994
  690SOL    HW1 2220   3.076   2.153   0.517 -1.9971  1.1566 -1.8163
  690SOL    HW2 2221   3.015   2.029   0.579 -0.0792  2.1569  2.4449
  691SOL     OW 2222   1.369   1.694   2.729 -0.7541  0.0688 -0.0181
  691SOL    HW1 2223   1.438   1.733   2.675  0.0333 -0.6997  0.4163
  691SOL    HW2 2224   1.360   1.605   2.695 -2.3015  0.4813 -0.7793
  692SOL     OW 2225   0.280   2.617   3.747 -0.1217  0.1850  0.1109
  692SOL    HW1 2226   0.202   2.615   3.802  0.1760  1.5311  0.6185
  692SOL    HW2 2227   0.319   2.530   3.757 -0.5144  0.1339  1.4022
  693SOL     OW 2228   0.830   1.520   1.558 -0.2267 -0.2330  0.0350
  693SOL    HW1 2229   0.808   1.484   1.472 -0.7707  0.4368 -0.1101
  693SOL    HW2 2230   0.908   1.574   1.542  0.9917 -1.7891  0.3670
  694SOL     OW 2231   2.936   3.826   3.484 -0.6542 -0.1195 -0.0188
  694SOL    HW1 2232   2.922   3.733   3.468 -0.3180  0.2849 -3.4562
  694SOL    HW2 2233   2.979   3.830   3.569 -0.7458 -3.0661  0.2699
  695SOL     OW 2234   2.813   2.019   2.397 -0.1506 -0.6657  0.1493
  695SOL    HW1 2235   2.867   1.941   2.406 -0.1705 -1.1014 -2.7702
  695SOL    HW2 2236   2.724   1.990   2.418  0.0007 -1.1692  0.1024
  696SOL     OW 2237   3.267   3.327   1.311 -0.2641 -0.4453  0.2173
  696SOL    HW1 2238   3.313   3.279   1.241  0.0960 -1.2661  0.9859
  696SOL    HW2 2239   3.202   3.380   1.265  1.8407  1.2482 -0.9864
  697SOL     OW 2240   1.161   1.432   1.461  0.5215 -0.1635  0.0505
  697SOL    HW1 2241   1.218   1.360   1.433  1.2637  0.5639 -0.3342
  697SOL    HW2 2242   1.170   1.433   1.556 -2.1027 -2.7237  0.4702
  698SOL     OW 2243   3.666   0.637   1.629  0.4564 -0.3231 -0.3055
  698SOL    HW1 2244   3.697   0.547   1.617 -1.4044 -1.3092  1.6083
  698SOL    HW2 2245   3.571   0.631   1.620  0.2344  1.3469  0.4750
  699SOL     OW 2246   3.663   3.403   0.259  0.2780  0.4404 -0.5414
  699SOL    HW1 2247   3.673   3.312   0.232  0.8655  0.0691  0.8107
  699SOL    HW2 2248   3.725   3.452   0.205  0.8271 -0.1463 -0.4478
  700SOL     OW 2249   1.193   0.513   3.584 -0.6815 -0.0336  0.1580
  700SOL    HW1 2250   1.116   0.471   3.546 -2.0674 -0.9951  3.6800
  700SOL    HW2 2251   1.160   0.595   3.621  0.1439 -0.1117  1.0981
  701SOL     OW 2252   3.360   1.216   2.264 -0.3411 -0.6264  0.4047
  701SOL    HW1 2253   3.333   1.282   2.327 -0.9477 -0.4940  0.0162
  701SOL    HW2 2254   3.278   1.175   2.235 -0.1679 -0.0162 -1.0181
  702SOL     OW 2255   0.629   3.300   2.877  0.6143  0.7242  0.3252
  702SOL    HW1 2256   0.569   3.363   2.918  0.1916  1.8549 -1.9157
  702SOL    HW2 2257   0.572   3.230   2.846  0.6326  1.0313 -0.4124
  703SOL     OW 2258   0.419   1.593   2.781 -0.2485  0.3854  0.0194
  703SOL    HW1 2259   0.335   1.639   2.781  1.2378  3.3441  1.1274
  703SOL    HW2 2260   0.483   1.659   2.809  2.4212 -1.8334 -0.4001
  704SOL     OW 2261   0.333   3.297   3.177  0.4062  0.0588  0.0579
  704SOL    HW1 2262   0.269   3.233   3.209 -0.6366  1.4868  0.9344
  704SOL    HW2 2263   0.298   3.326   3.093 -0.4159  1.1983  0.7587
  705SOL     OW 2264   1.326   0.448   0.258 -0.1150 -0.9580  0.2864
  705SOL    HW1 2265   1.263   0.519   0.250  1.2580  0.1947 -1.0985
  705SOL    HW2 2266   1.293   0.393   0.329 -2.0621  0.1790  0.3145
  706SOL     OW 2267   1.074   1.766   0.873  0.3458  0.2704 -0.2426
  706SOL    HW1 2268   1.005   1.705   0.900 -0.9629  1.2739 -1.1599
  706SOL    HW2 2269   1.153   1.735   0.917 -0.2943 -1.9967 -0.5656
  707SOL     OW 2270   1.593   3.383   1.014  0.2175  0.3346 -0.1039
  707SOL    HW1 2271   1.669   3.371   0.956 -0.1683  0.0617 -0.5591
  707SOL    HW2 2272   1.520   3.344   0.967 -0.5444  2.0043 -0.3872
  708SOL     OW 2273   3.124   1.086   0.846  0.2515  0.2434 -0.0867
  708SOL    HW1 2274   3.064   1.152   0.880 -0.7900 -0.8164  0.2036
  708SOL    HW2 2275   3.211   1.117   0.872 -0.2082  1.4956  0.0122
  709SOL     OW 2276   0.004   2.849   1.905  0.1520  1.0648 -0.0224
  709SOL    HW1 2277   0.041   2.803   1.829 -1.1271  0.2137 -0.1606
  709SOL    HW2 2278   0.036   2.800   1.981 -0.7056  0.2777 -0.1446
  710SOL     OW 2279   2.194   0.995   3.356 -0.0337  0.0367 -0.2512
  710SOL    HW1 2280   2.166   1.019   3.444  2.7960 -0.4369  0.8676
  710SOL    HW2 2281   2.203   1.079   3.310  1.0231  0.5011  0.7673
  711SOL     OW 2282   3.699   3.535   1.657  0.4787 -0.1776  0.0906
  711SOL    HW1 2283   3.687   3.450   1.614 -0.2887 -0.4727  0.8477
  711SOL    HW2 2284   3.782   3.527   1.704  0.2255 -0.6525  0.4676
  712SOL     OW 2285   2.646   2.237   1.871 -0.1933 -0.7869 -0.3899
  712SOL    HW1 2286   2.672   2.227   1.780 -0.0144  0.8636 -0.5534
  712SOL    HW2 2287   2.681   2.323   1.897  0.5110 -1.5886  1.4964
  713SOL     OW 2288   3.466   2.266   0.147 -0.2114 -1.0761  0.4092
  713SOL    HW1 2289   3.450   2.240   0.057 -1.0237  1.9125 -0.4389
  713SOL    HW2 2290   3.392   2.321   0.170  0.4653 -0.9488  2.5761
  714SOL     OW 2291   2.643   2.047   3.084 -0.2591 -0.2711 -0.0853
  714SOL    HW1 2292   2.590   1.978   3.043 -0.4817 -0.4054  0.4124
  714SOL    HW2 2293   2.614   2.128   3.043  0.9349 -0.5920 -1.6315
  715SOL     OW 2294   3.309   2.678   0.495 -0.5839 -0.0250 -0.4684
  715SOL    HW1 2295   3.227   2.678   0.445  0.5204 -0.0247 -2.3673
  715SOL    HW2 2296   3.281   2.676   0.586 -2.7190  1.2924 -1.0260
  716SOL     OW 2297   0.033   3.816   0.273  0.0551 -0.0311  0.2195
  716SOL    HW1 2298  -0.029   3.752   0.309 -1.6490  1.1783 -0.4739
  716SOL    HW2 2299   0.014   3.897   0.319  2.4160  0.0039  1.3224
  717SOL     OW 2300   1.810   3.147   3.037  0.0171 -0.2193 -0.1437
  717SOL    HW1 2301   1.877   3.091   2.996  0.2983  0.1053 -0.1362
  717SOL    HW2 2302   1.769   3.092   3.103 -1.2104 -1.1315 -1.5820
  718SOL     OW 2303   1.770   0.462   2.078 -0.1166 -1.1900  0.4408
  718SOL    HW1 2304   1.829   0.478   2.151  2.8494 -0.8345 -1.8022
  718SOL    HW2 2305   1.717   0.387   2.104  0.8447 -1.1054  2.8656
  719SOL     OW 2306   1.948   2.598   3.076  0.2627 -0.2551 -0.1166
  719SOL    HW1 2307   1.978   2.628   3.162 -0.2025  0.6550 -0.2661
  719SOL    HW2 2308   1.859   2.631   3.069 -0.0705 -1.2075 -0.5254
  720SOL     OW 2309   0.697   1.295   2.743 -0.2121  0.0999  0.4438
  720SOL    HW1 2310   0.762   1.360   2.770 -0.6017  0.6325  0.1305
  720SOL    HW2 2311   0.629   1.346   2.699 -0.3813 -0.5615 -0.0792
  721SOL     OW 2312   2.791   2.568   0.223 -0.2600 -0.3607 -0.1069
  721SOL    HW1 2313   2.811   2.533   0.310  1.3829  2.5414  0.8407
  721SOL    HW2 2314   2.742   2.648   0.241  2.9409  2.1612 -1.4692
  722SOL     OW 2315   1.916   1.247   0.191 -0.0461  0.3610  0.1476
  722SOL    HW1 2316   1.913   1.164   0.238  1.2694  1.1456  1.7281
  722SOL    HW2 2317   1.826   1.280   0.195 -0.2278 -0.2066  0.9983
  723SOL     OW 2318   2.370   1.556   1.090  0.3320  0.1692  0.2109
  723SOL    HW1 2319   2.293   1.542   1.034  1.2431  0.1853 -1.0814
  723SOL    HW2 2320   2.441   1.577   1.030  1.3478  0.2505  1.3832
  724SOL     OW 2321   0.748   1.272   1.681  0.9621 -0.1655  0.6264
  724SOL    HW1 2322   0.747   1.350   1.626  1.1841 -0.7082 -0.1626
  724SOL    HW2 2323   0.803   1.296   1.756  0.6486  0.5854  0.6230
  725SOL     OW 2324   2.909   0.604   1.519  0.0543 -0.4218  0.0136
  725SOL    HW1 2325   2.860   0.522   1.514 -1.1182  0.2807 -0.7047
  725SOL    HW2 2326   2.942   0.607   1.609 -1.6350 -0.7211  0.6882
  726SOL     OW 2327   0.656   0.057   2.008  0.5293  0.0967 -0.6591
  726SOL    HW1 2328   0.697  -0.016   2.052  0.5566 -1.0056 -2.4017
  726SOL    HW2 2329   0.728   0.118   1.991  1.2744 -1.1946 -2.4715
  727SOL     OW 2330   3.639   1.780   1.667 -0.3572  0.5625  0.5525
  727SOL    HW1 2331   3.647   1.700   1.719  1.7372 -0.6518 -1.4792
  727SOL    HW2 2332   3.717   1.831   1.689 -0.2374  0.7347 -0.2467
  728SOL     OW 2333   2.383   2.661   1.077  0.1976 -0.1870 -0.7994
  728SOL    HW1 2334   2.435   2.610   1.139 -1.1297 -3.9277 -2.4198
  728SOL    HW2 2335   2.299   2.673   1.121  0.9204  1.9507  0.1024
  729SOL     OW 2336   2.085   3.754   1.217  0.1380  0.0231  0.0808
  729SOL    HW1 2337   2.175   3.754   1.249  0.4222 -0.3149 -0.6984
  729SOL    HW2 2338   2.062   3.847   1.207 -0.3944  0.2040  2.4080
  730SOL     OW 2339   3.443   2.011   1.012  0.1896 -0.5678 -0.4601
  730SOL    HW1 2340   3.444   2.103   0.985  2.4565 -0.7597 -1.2318
  730SOL    HW2 2341   3.350   1.988   1.015 -0.3805  1.3676 -1.5983
  731SOL     OW 2342   2.852   3.596  -0.013  0.0371 -0.5053 -0.1050
  731SOL    HW1 2343   2.812   3.524   0.036  0.4304 -0.3744  0.4217
  731SOL    HW2 2344   2.946   3.582  -0.002  0.1255  0.6749  0.8962
  732SOL     OW 2345   3.667   0.501   0.576  0.2335 -0.2501  0.3261
  732SOL    HW1 2346   3.691   0.578   0.627 -1.3923  0.1975  0.4707
  732SOL    HW2 2347   3.573   0.510   0.561  0.3676 -1.2058 -1.3664
  733SOL     OW 2348   3.340   0.648   0.089 -0.4971 -0.1412 -0.4970
  733SOL    HW1 2349   3.429   0.680   0.074 -0.0404  0.7895  3.2985
  733SOL    HW2 2350   3.349   0.553   0.095 -0.5205 -0.4799 -3.7870
  734SOL     OW 2351   3.660   2.641   2.037  0.6335  0.1384  0.3192
  734SOL    HW1 2352   3.717   2.715   2.059 -0.1146  0.9395 -0.3497
  734SOL    HW2 2353   3.593   2.679   1.980 -0.7252 -0.7313  1.2969
  735SOL     OW 2354   2.377   2.303   1.745 -0.0054 -0.2815 -1.1278
  735SOL    HW1 2355   2.371   2.239   1.674  2.8480 -1.6282 -0.2946
  735SOL    HW2 2356   2.429   2.259   1.813 -2.5277  0.9351  1.8621
  736SOL     OW 2357   0.950   2.883   0.020 -0.0284 -0.0937  0.3317
  736SOL    HW1 2358   0.984   2.969  -0.001  0.2983 -0.5230 -0.9915
  736SOL    HW2 2359   1.028   2.829   0.033 -0.2128 -0.5083 -0.2458
  737SOL     OW 2360   1.932   2.933   3.631 -0.6091 -0.1115 -0.0077
  737SOL    HW1 2361   1.892   3.011   3.669  0.1782  1.0362 -1.4162
  737SOL    HW2 2362   1.933   2.869   3.702 -1.0564  1.2430  1.2631
  738SOL     OW 2363   0.651   0.068   2.380 -0.0944 -0.7070  0.1422
  738SOL    HW1 2364   0.719   0.044   2.316 -0.4623  0.0604 -0.5544
  738SOL    HW2 2365   0.686   0.144   2.425 -0.5736 -0.1776 -0.3671
  739SOL     OW 2366   3.691   1.529   3.802 -0.0700 -0.5854 -0.8295
  739SOL    HW1 2367   3.760   1.469   3.772 -0.2003 -0.0873 -2.2237
  739SOL    HW2 2368   3.725   1.616   3.781  0.3209 -0.0906  1.5944
  740SOL     OW 2369   3.602   0.322   1.937 -0.5460 -0.4610  0.2851
  740SOL    HW1 2370   3.650   0.404   1.928 -3.5078  1.4120  0.1090
  740SOL    HW2 2371   3.539   0.339   2.007 -3.0295 -1.5413 -1.5156
  741SOL     OW 2372   3.032   3.439   2.030 -0.4359 -0.3000  0.0486
  741SOL    HW1 2373   3.016   3.417   1.938  1.8674 -0.1740 -0.4420
  741SOL    HW2 2374   2.958   3.401   2.077 -0.6541 -2.1129 -1.6369
  742SOL     OW 2375   1.156   2.790   3.099 -0.2462 -0.0242  0.3672
  742SOL    HW1 2376   1.202   2.847   3.038  1.0161  0.6077  1.8465
  742SOL    HW2 2377   1.140   2.709   3.050  1.5856  0.1021 -0.5085
  743SOL     OW 2378   2.813   0.937   1.271 -0.3979 -0.5880  0.4275
  743SOL    HW1 2379   2.755   0.893   1.209 -0.4331 -0.5730  0.4496
  743SOL    HW2 2380   2.882   0.974   1.217 -0.0880 -1.1143  0.4647
  744SOL     OW 2381   0.684   2.988   1.209  0.3953 -0.5305 -0.7775
  744SOL    HW1 2382   0.630   3.059   1.242  0.5090  0.6088 -2.8622
  744SOL    HW2 2383   0.634   2.908   1.227 -1.1716  0.3507 -1.0975
  745SOL     OW 2384   0.637   2.519   1.742 -0.5893  0.6383 -0.4731
  745SOL    HW1 2385   0.696   2.457   1.699 -1.1628  0.1143 -0.5138
  745SOL    HW2 2386   0.567   2.465   1.777  0.4624  0.8774  2.2314
  746SOL     OW 2387   2.409   3.256   1.106 -0.3396  0.5976  0.3127
  746SOL    HW1 2388   2.435   3.329   1.162  0.4988 -0.0438  0.7836
  746SOL    HW2 2389   2.438   3.178   1.154 -3.9199 -0.2820  1.3648
  747SOL     OW 2390   2.124   3.726   3.050 -0.4139 -0.2882 -0.1827
  747SOL    HW1 2391   2.042   3.758   3.011 -0.6833  1.0557  1.3722
  747SOL    HW2 2392   2.096   3.664   3.117 -0.1469 -0.1239  0.0847
  748SOL     OW 2393   2.491   2.603   2.465 -0.5994  0.6285 -0.4686
  748SOL    HW1 2394   2.408   2.646   2.482 -0.1111  2.2219 -1.8755
  748SOL    HW2 2395   2.474   2.546   2.390 -0.5197  0.6645 -0.5147
  749SOL     OW 2396   3.815   1.579   2.707 -0.2295 -0.3749 -0.6939
  749SOL    HW1 2397   3.776   1.492   2.716 -0.1927 -0.2192  1.3077
  749SOL    HW2 2398   3.797   1.603   2.616 -3.1608 -1.0978 -0.4249
  750SOL     OW 2399   2.504   1.241   2.938  0.4079 -0.1570  0.0373
  750SOL    HW1 2400   2.517   1.197   3.022 -2.4353 -1.4925 -0.0943
  750SOL    HW2 2401   2.469   1.173   2.881  0.7698  1.1013 -1.7651
  751SOL     OW 2402   2.203   0.415   3.117 -0.3215  0.3956 -0.2699
  751SOL    HW1 2403   2.294   0.398   3.091  0.3014 -0.0045  2.0048
  751SOL    HW2 2404   2.151   0.360   3.058  0.8221  1.1093 -2.0453
  752SOL     OW 2405   0.448   2.188   2.145 -0.1347  0.4115  0.1196
  752SOL    HW1 2406   0.440   2.236   2.062  1.8427  1.6034  0.5676
  752SOL    HW2 2407   0.451   2.096   2.118  0.3133  0.7678 -1.1332
  753SOL     OW 2408   2.408   0.962   2.869  0.0756 -0.2302  0.7321
  753SOL    HW1 2409   2.425   0.885   2.816  0.3538  0.2148  0.1573
  753SOL    HW2 2410   2.398   1.033   2.805  3.3672  0.9413  1.3120
  754SOL     OW 2411   0.436   3.036   0.316 -0.4129  0.9384 -0.0791
  754SOL    HW1 2412   0.429   3.009   0.407 -1.9055 -1.5842 -0.8467
  754SOL    HW2 2413   0.346   3.042   0.285  0.0578  1.9841 -1.3469
  755SOL     OW 2414   0.411   3.058   3.317  0.0045 -0.3562 -0.8431
  755SOL    HW1 2415   0.347   3.052   3.246  0.2448 -0.8252 -1.0225
  755SOL    HW2 2416   0.459   3.139   3.299 -0.2229 -0.2496 -0.9710
  756SOL     OW 2417   2.904   0.707   2.315  0.0488  0.0016  0.7938
  756SOL    HW1 2418   2.864   0.625   2.289  0.1679  0.0469  0.4649
  756SOL    HW2 2419   2.973   0.722   2.250 -0.1791  0.5215  0.6622
  757SOL     OW 2420   1.795   3.492   2.712 -0.3408  0.0060  0.5375
  757SOL    HW1 2421   1.755   3.462   2.794 -2.3121  1.0640  0.0205
  757SOL    HW2 2422   1.737   3.562   2.681  0.6968  0.0529 -1.4571
  758SOL     OW 2423   3.412   1.525   2.664 -0.3230 -0.2042  0.5671
  758SOL    HW1 2424   3.495   1.570   2.644 -0.4588 -0.5236 -0.8093
  758SOL    HW2 2425   3.368   1.517   2.579 -0.5375 -2.4675  0.8383
  759SOL     OW 2426   1.528   2.471   2.514 -0.3184 -0.1862 -0.1685
  759SOL    HW1 2427   1.529   2.449   2.420 -1.1215 -0.9377 -0.0162
  759SOL    HW2 2428   1.565   2.393   2.556 -1.3988 -0.4898  0.2427
  760SOL     OW 2429   0.863   2.992   2.084  0.2497 -0.2102  0.0165
  760SOL    HW1 2430   0.879   2.897   2.088 -1.4422 -0.5249  0.3500
  760SOL    HW2 2431   0.930   3.030   2.140  0.0636 -1.3646  1.0810
  761SOL     OW 2432   2.034   1.810   1.314 -0.2566  0.1186  0.2367
  761SOL    HW1 2433   2.060   1.718   1.310  0.6373  0.2971  1.5459
  761SOL    HW2 2434   2.052   1.844   1.226 -1.2903 -1.1120 -0.4885
  762SOL     OW 2435   2.575   1.494   2.869  0.4405  0.2980 -0.7976
  762SOL    HW1 2436   2.570   1.491   2.774  0.4417 -0.5633 -0.7716
  762SOL    HW2 2437   2.519   1.422   2.899  0.1939  0.7498 -0.1375
  763SOL     OW 2438   1.443   1.609   3.827  0.2922 -0.1725  0.0384
  763SOL    HW1 2439   1.456   1.523   3.788  1.2029 -1.2226  2.5076
  763SOL    HW2 2440   1.348   1.617   3.839  0.2514 -1.1365  0.4086
  764SOL     OW 2441   2.929   0.211   1.698 -0.1003  0.9457 -0.2476
  764SOL    HW1 2442   2.870   0.275   1.737  0.3088  0.6683  0.8549
  764SOL    HW2 2443   2.916   0.221   1.603 -0.1663  2.5256 -0.0935
  765SOL     OW 2444   2.554   2.686   2.154 -0.3619 -0.6021 -0.2811
  765SOL    HW1 2445   2.613   2.746   2.108 -0.8869  0.8171  0.8374
  765SOL    HW2 2446   2.606   2.651   2.226 -0.6626  0.0853  0.2722
  766SOL     OW 2447   3.729   0.158   3.552 -0.7587  0.1677  0.0021
  766SOL    HW1 2448   3.706   0.147   3.644  0.9282  0.3739  0.4700
  766SOL    HW2 2449   3.740   0.068   3.519  2.4857  0.0327  1.0717
  767SOL     OW 2450   2.441   0.719   2.751 -0.5211 -0.0927 -0.0573
  767SOL    HW1 2451   2.449   0.672   2.834  1.0589 -0.2420 -0.2707
  767SOL    HW2 2452   2.371   0.672   2.705 -1.8927  0.3885  1.4107
  768SOL     OW 2453   2.583   2.021   2.012  0.4461 -0.0638 -0.7406
  768SOL    HW1 2454   2.622   2.078   1.945  1.4626  0.2166  0.0631
  768SOL    HW2 2455   2.568   2.080   2.086  3.1446 -1.1065  0.7666
  769SOL     OW 2456   1.996   0.981   0.048  0.4448  0.2233 -0.3832
  769SOL    HW1 2457   1.923   1.017   0.098  0.1540 -0.7600 -0.0856
  769SOL    HW2 2458   2.055   0.944   0.114  0.5172 -0.2494 -0.7050
  770SOL     OW 2459   2.118   1.289   0.481 -0.5647 -0.1471  0.2449
  770SOL    HW1 2460   2.052   1.231   0.519  0.5642 -0.7736  1.3540
  770SOL    HW2 2461   2.175   1.230   0.431  1.3575 -0.3087  2.4298
  771SOL     OW 2462   1.385   2.881   1.493 -0.2584 -1.0480 -0.7891
  771SOL    HW1 2463   1.337   2.835   1.563 -0.6230 -1.8341 -1.5385
  771SOL    HW2 2464   1.368   2.829   1.414 -0.0771 -0.0175 -1.5248
  772SOL     OW 2465   2.121   1.817   1.040 -0.1823 -0.2702  0.1857
  772SOL    HW1 2466   2.134   1.817   0.945 -0.1398  2.6358  0.0845
  772SOL    HW2 2467   2.199   1.861   1.075 -1.3563  1.0423  1.2734
  773SOL     OW 2468   2.218   2.520   0.657  0.5175 -1.1209  0.0944
  773SOL    HW1 2469   2.210   2.589   0.591  0.4013 -1.8026 -0.6136
  773SOL    HW2 2470   2.311   2.520   0.679  0.4668 -0.5250  0.3397
  774SOL     OW 2471   3.740   0.433   0.868 -0.6921  0.3732 -0.2282
  774SOL    HW1 2472   3.776   0.514   0.904 -2.4539  0.5063  1.3237
  774SOL    HW2 2473   3.667   0.462   0.813  0.2274 -0.0298 -1.7161
  775SOL     OW 2474   2.354   1.185   2.687  0.4784  0.2134 -0.1056
  775SOL    HW1 2475   2.434   1.209   2.640 -0.3516  2.0854 -0.6601
  775SOL    HW2 2476   2.293   1.156   2.618  0.3339 -0.1988  0.1927
  776SOL     OW 2477   0.458   1.410   1.776  0.4755 -0.4792  0.1095
  776SOL    HW1 2478   0.409   1.451   1.847  0.6830 -1.8864  1.1276
  776SOL    HW2 2479   0.536   1.464   1.765 -0.3782  0.7082 -0.2283
  777SOL     OW 2480   3.854   1.562   3.391  0.1448 -0.2074 -0.4594
  777SOL    HW1 2481   3.794   1.629   3.423 -0.5935  0.1224 -2.4098
  777SOL    HW2 2482   3.828   1.482   3.437  0.8320  0.7047  1.6648
  778SOL     OW 2483   2.270   2.063   3.247 -0.3913 -0.1590  0.1393
  778SOL    HW1 2484   2.229   2.082   3.331 -2.5290 -0.2229 -0.8284
  778SOL    HW2 2485   2.270   2.146   3.200 -0.2797 -0.3659 -0.2343
  779SOL     OW 2486   2.340   1.238   0.132 -0.2473  0.8690 -0.1608
  779SOL    HW1 2487   2.320   1.330   0.119 -1.0181  0.5825 -1.1583
  779SOL    HW2 2488   2.388   1.212   0.052 -0.2148  0.3622  0.0188
  780SOL     OW 2489   1.071   2.474   1.100  0.0932 -0.4281  0.1572
  780SOL    HW1 2490   1.027   2.535   1.041 -0.1504  0.2624  1.0215
  780SOL    HW2 2491   1.113   2.411   1.042  0.7774  0.8392 -0.7996
  781SOL     OW 2492   0.426   1.833   3.122  1.0842 -0.1413 -0.5168
  781SOL    HW1 2493   0.390   1.800   3.204  0.3347  1.3404 -0.2229
  781SOL    HW2 2494   0.507   1.784   3.110 -0.2681 -2.5686 -0.4723
  782SOL     OW 2495   2.549   1.429   2.579 -0.0445 -0.2856  0.0866
  782SOL    HW1 2496   2.456   1.428   2.555 -0.5102  1.6500  1.5504
  782SOL    HW2 2497   2.594   1.457   2.499 -0.8296 -0.3913 -0.3994
  783SOL     OW 2498   3.563   3.426   0.543  0.5130  0.1276 -0.1116
  783SOL    HW1 2499   3.587   3.376   0.465  0.9889 -0.4571  0.3963
  783SOL    HW2 2500   3.496   3.487   0.512  1.7655  0.9597 -1.3052
  784SOL     OW 2501   3.496   2.709   2.902 -0.3803 -0.3959 -0.8165
  784SOL    HW1 2502   3.534   2.783   2.854  1.1886 -0.5665  0.0980
  784SOL    HW2 2503   3.546   2.633   2.873  2.4519 -0.1805  2.8001
  785SOL     OW 2504   2.511   2.338   1.415 -0.1923 -0.0279 -0.4096
  785SOL    HW1 2505   2.447   2.385   1.469  0.1219  0.5567 -0.5371
  785SOL    HW2 2506   2.498   2.372   1.327 -0.0706 -0.3043 -0.5362
  786SOL     OW 2507   2.536   0.118   1.290  0.3509 -0.2177 -0.0214
  786SOL    HW1 2508   2.550   0.163   1.207 -0.2914 -0.5353 -0.3089
  786SOL    HW2 2509   2.513   0.188   1.351  0.9506  0.0316 -0.0729
  787SOL     OW 2510   3.854   3.416   1.967 -0.0905 -0.0280 -0.2729
  787SOL    HW1 2511   3.882   3.327   1.990 -1.5497 -0.6816 -0.9377
  787SOL    HW2 2512   3.771   3.404   1.921 -0.2263  1.6780 -0.5203
  788SOL     OW 2513   3.747   1.391   2.175 -0.4488 -0.7484  0.1710
  788SOL    HW1 2514   3.747   1.349   2.261 -1.1872  2.6288  1.9543
  788SOL    HW2 2515   3.663   1.365   2.136 -0.2744 -2.0092  0.5720
  789SOL     OW 2516   2.850   2.742   1.920 -0.3968 -0.1494 -0.0452
  789SOL    HW1 2517   2.803   2.813   1.965  0.5453 -0.3306  1.2838
  789SOL    HW2 2518   2.940   2.749   1.953 -0.2974 -1.9840  0.1379
  790SOL     OW 2519   1.151   2.761   0.872  0.4074  0.0992  0.1219
  790SOL    HW1 2520   1.061   2.740   0.896  0.7610 -0.9931  0.5455
  790SOL    HW2 2521   1.154   2.751   0.777 -0.2047  1.3086 -0.0346
  791SOL     OW 2522   2.753   2.274   1.237 -0.3794  0.3504 -0.4853
  791SOL    HW1 2523   2.676   2.256   1.292  0.2080 -0.4400  0.0876
  791SOL    HW2 2524   2.720   2.264   1.147 -1.4459  2.0567 -0.3229
  792SOL     OW 2525   3.641   1.261   3.775 -0.4091 -0.0540  0.4496
  792SOL    HW1 2526   3.574   1.224   3.833 -0.7631 -0.2239 -0.0693
  792SOL    HW2 2527   3.646   1.353   3.801 -1.0391  0.0264  0.3105
  793SOL     OW 2528   1.142   2.685   2.514 -0.4748  0.5225 -0.4842
  793SOL    HW1 2529   1.114   2.658   2.601 -1.5941  3.1326  0.0685
  793SOL    HW2 2530   1.237   2.686   2.518 -0.5214  0.6591  0.7393
  794SOL     OW 2531   1.208   2.911   1.152  0.7380  0.1057  0.9138
  794SOL    HW1 2532   1.249   2.907   1.065 -0.6193  2.8699  0.0100
  794SOL    HW2 2533   1.116   2.886   1.136  0.5043  0.5284  1.5756
  795SOL     OW 2534   1.630   1.514   2.986  0.0923  0.0493 -0.2694
  795SOL    HW1 2535   1.589   1.449   2.928 -0.2694  0.3404 -0.3448
  795SOL    HW2 2536   1.598   1.492   3.073 -0.2558  0.2984 -0.3332
  796SOL     OW 2537   3.689   1.339   2.731 -0.2917 -0.5050  0.3296
  796SOL    HW1 2538   3.604   1.300   2.710  0.6334 -1.7763 -1.3059
  796SOL    HW2 2539   3.721   1.288   2.805  0.3449 -2.1222 -0.9888
  797SOL     OW 2540   2.727   3.026   2.923 -0.2533 -0.5815 -0.7722
  797SOL    HW1 2541   2.786   3.100   2.936  1.4769 -1.7910 -1.3430
  797SOL    HW2 2542   2.763   2.980   2.847 -0.6506 -2.5652  0.1771
  798SOL     OW 2543   1.926   0.875   3.208 -0.7690  0.7792 -0.1731
  798SOL    HW1 2544   1.870   0.896   3.283 -1.0897 -2.1389  0.5395
  798SOL    HW2 2545   2.014   0.872   3.244 -0.9403 -0.7711  0.1740
  799SOL     OW 2546   2.573   2.588   2.740 -0.3959  0.1888 -0.1056
  799SOL    HW1 2547   2.557   2.615   2.649  2.6231 -0.2624 -0.8702
  799SOL    HW2 2548   2.611   2.501   2.733  0.9155  0.5847  1.4839
  800SOL     OW 2549   0.390   1.530   3.285  0.4927  0.6327 -0.0514
  800SOL    HW1 2550   0.477   1.553   3.253  0.9416  0.7963  1.2123
  800SOL    HW2 2551   0.344   1.613   3.291 -0.1718  0.4355 -1.7962
  801SOL     OW 2552   1.542   0.560   1.646  0.9232 -0.0738 -0.1618
  801SOL    HW1 2553   1.581   0.605   1.720  1.9742  1.6147 -1.6611
  801SOL    HW2 2554   1.599   0.485   1.630  0.5971 -0.5396  0.8055
  802SOL     OW 2555   3.219   3.213   0.790 -0.1930 -0.0827  0.2629
  802SOL    HW1 2556   3.292   3.248   0.739 -1.2990 -0.2045 -1.5258
  802SOL    HW2 2557   3.250   3.128   0.822 -0.1022 -0.9905 -2.0190
  803SOL     OW 2558   0.117   2.738   2.124  0.2909  0.1164  0.1831
  803SOL    HW1 2559   0.211   2.757   2.116  0.3091 -0.3920 -1.0284
  803SOL    HW2 2560   0.111   2.676   2.197  0.9307 -0.0511  0.1017
  804SOL     OW 2561   0.095   3.248   0.718  0.8276  0.1373  0.0621
  804SOL    HW1 2562   0.143   3.169   0.744  0.8739  0.0677 -0.2293
  804SOL    HW2 2563   0.003   3.223   0.725  0.7238  0.9803  2.8977
  805SOL     OW 2564   2.890   3.167   2.108 -0.3737  0.1059 -0.5888
  805SOL    HW1 2565   2.827   3.095   2.104 -0.5690  0.2577 -0.2559
  805SOL    HW2 2566   2.839   3.243   2.135  0.3643 -0.3016  2.2985
  806SOL     OW 2567   3.150   2.840   0.180 -0.3902  0.5842 -0.1302
  806SOL    HW1 2568   3.128   2.791   0.259 -1.2261  1.1726  0.0014
  806SOL    HW2 2569   3.182   2.772   0.119  1.8595  0.3091  1.2252
  807SOL     OW 2570   0.715   0.729   2.130  0.3709  0.5968 -0.2355
  807SOL    HW1 2571   0.654   0.718   2.203 -0.3485  0.0163 -0.9044
  807SOL    HW2 2572   0.660   0.761   2.058  0.8910  0.2211 -0.8042
  808SOL     OW 2573   3.393   1.743   1.601  0.2804 -0.4800 -0.3984
  808SOL    HW1 2574   3.353   1.817   1.556 -0.2567  2.6060  4.4543
  808SOL    HW2 2575   3.482   1.772   1.621 -0.0594 -0.8349  1.9513
  809SOL     OW 2576   3.256   1.720   2.085 -0.3730 -0.0313 -0.2456
  809SOL    HW1 2577   3.177   1.734   2.032 -0.4339  1.2219  0.1491
  809SOL    HW2 2578   3.324   1.768   2.039  0.2763 -1.3855 -0.7687
  810SOL     OW 2579   1.930   3.264   3.294 -0.6751 -0.0812 -0.5147
  810SOL    HW1 2580   1.912   3.282   3.202 -0.8017 -1.4208 -0.7715
  810SOL    HW2 2581   1.871   3.192   3.316 -0.6527  0.2322  0.6273
  811SOL     OW 2582   0.973   0.793   0.877 -0.2878 -0.5265  0.6631
  811SOL    HW1 2583   0.900   0.733   0.893 -0.1996 -0.9046 -0.3142
  811SOL    HW2 2584   0.950   0.837   0.795 -0.7531  1.3939  1.7607
  812SOL     OW 2585   1.812   1.471   1.885 -0.5269 -0.1374  0.5829
  812SOL    HW1 2586   1.743   1.417   1.923 -1.2630  1.5841  1.8192
  812SOL    HW2 2587   1.877   1.479   1.954 -1.6308  2.5891  1.4503
  813SOL     OW 2588   0.683   3.601   0.640  0.2833  0.7992 -0.5011
  813SOL    HW1 2589   0.720   3.575   0.724  1.5468 -0.4907 -1.4108
  813SOL    HW2 2590   0.758   3.606   0.581 -0.7536 -0.2057 -2.0020
  814SOL     OW 2591   3.238   0.865   1.729  0.2200 -0.1491 -0.2227
  814SOL    HW1 2592   3.158   0.891   1.775 -1.2692 -3.3781 -0.6912
  814SOL    HW2 2593   3.235   0.912   1.646 -0.4397  0.8369  0.3395
  815SOL     OW 2594   2.747   2.501   1.464  0.4219 -0.0516 -0.5209
  815SOL    HW1 2595   2.656   2.501   1.494  0.3420 -1.5073 -0.6978
  815SOL    HW2 2596   2.747   2.445   1.387  1.3916  0.3099 -0.8000
  816SOL     OW 2597   2.247   2.867   2.096 -0.2124 -0.3713 -0.6873
  816SOL    HW1 2598   2.194   2.792   2.068  0.5832 -1.3824  0.4028
  816SOL    HW2 2599   2.202   2.901   2.173 -0.2429 -0.1042 -0.8219
  817SOL     OW 2600   3.067   1.814   1.545 -0.1912 -0.4264 -0.2948
  817SOL    HW1 2601   2.994   1.867   1.514  0.6061  1.4321  0.8701
  817SOL    HW2 2602   3.131   1.817   1.473  0.4852  1.5317  0.3383
  818SOL     OW 2603   1.894   3.696   0.669  0.5111  0.3005  0.1371
  818SOL    HW1 2604   1.839   3.618   0.675  0.3698  0.4575  0.9761
  818SOL    HW2 2605   1.846   3.763   0.716  0.1484  1.1978 -1.4239
  819SOL     OW 2606   0.723   1.141   1.350  0.6235 -0.0693 -0.0292
  819SOL    HW1 2607   0.765   1.074   1.404 -0.3180  0.1786  1.0465
  819SOL    HW2 2608   0.793   1.205   1.334  0.7038  0.3640  1.7760
  820SOL     OW 2609   0.892   2.550   3.546  0.3783 -0.2400 -0.8081
  820SOL    HW1 2610   0.828   2.479   3.548  0.2173 -0.1466 -1.9821
  820SOL    HW2 2611   0.859   2.614   3.610 -0.5289 -0.3324 -1.1676
  821SOL     OW 2612   1.302   0.991   1.796  0.1339  0.4356 -0.3402
  821SOL    HW1 2613   1.296   0.901   1.764  0.1521 -0.5839  2.2426
  821SOL    HW2 2614   1.217   1.030   1.773 -0.4572 -0.7256 -0.2033
  822SOL     OW 2615   2.908   3.245   0.116  0.7881  1.0462 -0.2121
  822SOL    HW1 2616   2.970   3.300   0.068  0.1084  1.4340 -0.6606
  822SOL    HW2 2617   2.822   3.280   0.093  0.3406 -0.1690 -0.4621
  823SOL     OW 2618   3.042   1.832   3.477  0.0101  0.0808 -0.4137
  823SOL    HW1 2619   2.969   1.884   3.509  0.3109  0.0360  0.3817
  823SOL    HW2 2620   3.118   1.890   3.484  0.5293 -0.7435  1.4473
  824SOL     OW 2621   2.126   3.210   3.474 -0.4130  0.2022 -0.5766
  824SOL    HW1 2622   2.066   3.234   3.544 -0.7271  1.8579 -1.3691
  824SOL    HW2 2623   2.075   3.219   3.394  0.3843 -0.0994 -1.1353
  825SOL     OW 2624   0.411   3.552   0.187  0.6406 -0.4649 -0.1137
  825SOL    HW1 2625   0.401   3.457   0.194 -2.7788 -0.1637  1.0148
  825SOL    HW2 2626   0.446   3.579   0.272 -0.2260 -0.5822  0.2919
  826SOL     OW 2627   3.708   2.420   1.398 -0.1667 -0.0505  0.3434
  826SOL    HW1 2628   3.774   2.356   1.373 -1.7694 -1.8075  0.3845
  826SOL    HW2 2629   3.635   2.368   1.432 -2.3763  1.6356 -1.4721
  827SOL     OW 2630   2.028   2.019   2.228  0.4689 -0.1646 -0.0262
  827SOL    HW1 2631   2.012   2.045   2.318  0.9308  0.1925 -0.0464
  827SOL    HW2 2632   1.982   2.085   2.175 -0.0861 -0.5629 -0.0551
  828SOL     OW 2633   1.393   2.372   1.288  0.6179 -0.3191  0.1387
  828SOL    HW1 2634   1.408   2.332   1.373 -0.7283 -1.4136 -0.0989
  828SOL    HW2 2635   1.438   2.315   1.226 -0.0983 -0.6703 -0.0657
  829SOL     OW 2636   2.876   2.005   1.488  0.2147  0.1071 -0.0181
  829SOL    HW1 2637   2.821   2.073   1.524 -0.5815  0.3741 -1.6372
  829SOL    HW2 2638   2.833   1.980   1.406  2.0972 -0.1850 -0.9807
  830SOL     OW 2639   2.951   1.132   2.817 -0.8096 -0.1149 -0.1374
  830SOL    HW1 2640   2.886   1.162   2.754 -1.4116 -0.9514  0.0671
  830SOL    HW2 2641   2.919   1.164   2.902 -1.1929 -0.8858  0.0170
  831SOL     OW 2642   2.026   0.294   1.721  0.0073  0.2657 -0.4859
  831SOL    HW1 2643   2.082   0.353   1.773  1.0614 -1.1011  0.0023
  831SOL    HW2 2644   1.990   0.350   1.652 -0.1911  1.7982  0.7935
  832SOL     OW 2645   2.845   0.979   2.404  0.3988 -0.0558 -0.7370
  832SOL    HW1 2646   2.855   0.897   2.357  0.7264 -0.3272 -0.2061
  832SOL    HW2 2647   2.932   0.999   2.438  0.3156  0.4959 -0.8278
  833SOL     OW 2648   3.343   1.464   1.488 -0.2897  0.1720 -0.1762
  833SOL    HW1 2649   3.408   1.451   1.419  0.1291  1.7735 -0.1332
  833SOL    HW2 2650   3.376   1.539   1.538 -2.0331  0.8585  0.0200
  834SOL     OW 2651   2.499   0.946   0.525 -0.0156 -0.5892 -0.7191
  834SOL    HW1 2652   2.441   0.946   0.601  0.4156  0.9800 -0.3561
  834SOL    HW2 2653   2.568   1.008   0.548 -0.0456  0.1672 -2.5042
  835SOL     OW 2654   1.763   2.311   2.514  0.4310 -0.0473 -0.3994
  835SOL    HW1 2655   1.780   2.217   2.518  3.8545  0.4473 -0.5012
  835SOL    HW2 2656   1.732   2.326   2.425 -3.0022 -1.3292  0.4209
  836SOL     OW 2657   2.150   0.118   2.052 -0.0326  0.1617 -0.2838
  836SOL    HW1 2658   2.064   0.095   2.088  0.0231  0.8062  0.2815
  836SOL    HW2 2659   2.136   0.122   1.958 -0.9476  1.5292 -0.1194
  837SOL     OW 2660   0.521   3.737   0.965 -0.1964  0.1882  0.1763
  837SOL    HW1 2661   0.513   3.813   1.023 -2.3687  0.6084 -0.5429
  837SOL    HW2 2662   0.558   3.772   0.884 -2.0409  0.7680 -0.4853
  838SOL     OW 2663   0.174   2.096   3.195  0.1076 -0.3867  0.0689
  838SOL    HW1 2664   0.142   2.016   3.154 -0.7307 -1.5948  2.8821
  838SOL    HW2 2665   0.266   2.079   3.214  0.0989 -0.4048  0.0931
  839SOL     OW 2666   1.596   1.728   0.908 -0.8502  0.1794  0.2004
  839SOL    HW1 2667   1.680   1.766   0.933  0.0838 -1.3308 -0.4992
  839SOL    HW2 2668   1.552   1.798   0.860  1.1908  0.1928 -1.8395
  840SOL     OW 2669   2.718   0.722   2.772 -0.3345 -0.2293  0.2772
  840SOL    HW1 2670   2.631   0.755   2.793 -1.1480 -1.8671 -0.3524
  840SOL    HW2 2671   2.711   0.692   2.681  0.8126 -0.6061  0.2904
  841SOL     OW 2672   0.741   1.215   1.005  0.5826 -0.4536  1.1997
  841SOL    HW1 2673   0.801   1.289   1.014 -0.5619  0.7084 -0.2682
  841SOL    HW2 2674   0.791   1.140   1.038  1.5370  1.0300  3.3912
  842SOL     OW 2675   0.581   2.469   2.573 -0.8021 -0.1906  0.0033
  842SOL    HW1 2676   0.512   2.408   2.597 -0.8775  0.2026  0.8078
  842SOL    HW2 2677   0.548   2.513   2.495 -1.1596 -0.4816 -0.0125
  843SOL     OW 2678   1.068   0.380   0.453  0.0751 -0.6020  0.0815
  843SOL    HW1 2679   1.097   0.292   0.477 -0.7827 -0.4351  1.8926
  843SOL    HW2 2680   0.995   0.367   0.394 -1.3136 -1.2031  1.8436
  844SOL     OW 2681   0.753   0.294   2.496  0.0333  0.0782 -0.3656
  844SOL    HW1 2682   0.697   0.353   2.547  0.7369 -0.3558  0.9559
  844SOL    HW2 2683   0.755   0.333   2.409 -2.3766  0.0601 -0.5103
  845SOL     OW 2684   0.224   1.715   1.400 -0.3089  0.1155  0.2152
  845SOL    HW1 2685   0.316   1.698   1.422 -0.2270  1.1931  0.7875
  845SOL    HW2 2686   0.177   1.640   1.436  0.5585 -1.7892 -2.3380
  846SOL     OW 2687   2.128   3.456   1.370  0.0829  0.3602 -0.3877
  846SOL    HW1 2688   2.153   3.443   1.278 -1.3265 -5.2737 -0.3397
  846SOL    HW2 2689   2.037   3.483   1.367 -0.9080 -2.7356 -0.8392
  847SOL     OW 2690   1.296   3.454   0.442  0.7411  0.0916 -0.0961
  847SOL    HW1 2691   1.255   3.530   0.485  1.1206 -0.5478  1.4620
  847SOL    HW2 2692   1.265   3.379   0.492  1.9976 -0.6005 -0.3270
  848SOL     OW 2693   2.717   2.742   1.689 -0.7667  0.3527 -0.3647
  848SOL    HW1 2694   2.683   2.655   1.668 -0.7873  0.8161 -2.3498
  848SOL    HW2 2695   2.763   2.729   1.773 -1.3209 -1.4151 -0.2922
  849SOL     OW 2696   0.370   1.167   0.059  0.2861  0.0192 -0.4696
  849SOL    HW1 2697   0.330   1.112  -0.008 -0.7810 -1.5778  1.3364
  849SOL    HW2 2698   0.346   1.124   0.142  0.0758  2.7844  1.0304
  850SOL     OW 2699   1.818   1.160   0.669  0.3723  0.1625  0.1484
  850SOL    HW1 2700   1.795   1.201   0.752  1.2324  1.2571 -0.1425
  850SOL    HW2 2701   1.832   1.233   0.609  1.7637 -0.5569 -0.4309
  851SOL     OW 2702   2.053   0.981   0.731  0.5300  0.2775  0.0692
  851SOL    HW1 2703   1.965   1.018   0.734  0.3947  0.1952 -1.7707
  851SOL    HW2 2704   2.056   0.935   0.647  1.1231 -2.8187  1.6644
  852SOL     OW 2705   0.333   0.546   0.841  0.3370  0.2186  0.7651
  852SOL    HW1 2706   0.394   0.533   0.913  1.3730 -0.6822 -0.2423
  852SOL    HW2 2707   0.381   0.518   0.763 -1.2283 -0.1480 -0.1154
  853SOL     OW 2708   2.110   2.061   2.755 -0.0441  0.6523 -0.1220
  853SOL    HW1 2709   2.036   2.039   2.811  0.4676  0.2271  0.4121
  853SOL    HW2 2710   2.146   2.141   2.794  1.2535 -0.4934  1.1426
  854SOL     OW 2711   1.493   2.095   3.465  0.6541  0.2754 -0.4387
  854SOL    HW1 2712   1.554   2.021   3.473 -0.0325 -0.3154 -0.5248
  854SOL    HW2 2713   1.409   2.054   3.442 -0.2193  0.8880  1.4383
  855SOL     OW 2714   2.047   1.735   0.146 -1.0392 -0.3223  0.0248
  855SOL    HW1 2715   2.061   1.658   0.201  1.7157  1.7681  2.6020
  855SOL    HW2 2716   2.098   1.717   0.067 -0.4034 -1.1708  0.6003
  856SOL     OW 2717   2.215   0.508   2.782  0.0500 -0.4312  0.2914
  856SOL    HW1 2718   2.124   0.497   2.752 -0.6563  1.0752  1.7340
  856SOL    HW2 2719   2.210   0.575   2.849  2.2233 -0.5404  0.6272
  857SOL     OW 2720   3.296   0.857   0.557 -0.2974 -0.5258  0.2581
  857SOL    HW1 2721   3.371   0.909   0.586  1.6520 -1.4130 -2.6982
  857SOL    HW2 2722   3.264   0.902   0.479 -0.5012 -2.0711 -0.5892
  858SOL     OW 2723   0.177   1.384   0.232 -0.3142  0.2033 -0.5522
  858SOL    HW1 2724   0.134   1.363   0.149 -1.5216  1.2933 -0.2402
  858SOL    HW2 2725   0.136   1.466   0.259  1.0477  0.5816  0.4421
  859SOL     OW 2726   0.208   0.074   1.110 -0.3553 -0.5381 -0.6807
  859SOL    HW1 2727   0.119   0.080   1.144 -0.1434  0.1677 -0.2363
  859SOL    HW2 2728   0.253   0.150   1.146  0.6479 -1.3041 -0.2563
  860SOL     OW 2729   1.500   2.756   0.518  0.9987 -0.3254 -0.5765
  860SOL    HW1 2730   1.424   2.699   0.511  0.5046  0.3754 -1.0754
  860SOL    HW2 2731   1.561   2.708   0.573  0.2042 -0.9066 -0.1854
  861SOL     OW 2732   0.857   2.204   2.510 -0.2976  0.5254  0.3392
  861SOL    HW1 2733   0.934   2.212   2.566  0.2004 -0.0259 -0.2491
  861SOL    HW2 2734   0.889   2.158   2.432 -1.0355  1.0290 -0.2754
  862SOL     OW 2735   3.134   0.539   0.907 -0.1500 -0.1930 -0.1239
  862SOL    HW1 2736   3.174   0.623   0.882 -1.1104  0.2449 -0.2293
  862SOL    HW2 2737   3.148   0.533   1.002 -0.9109  0.5456  0.0419
  863SOL     OW 2738   1.266   2.990   2.200  0.7548  0.2930  0.2905
  863SOL    HW1 2739   1.243   3.079   2.174  1.7760  1.1111  2.0386
  863SOL    HW2 2740   1.181   2.945   2.208 -0.0190  1.9174  2.0926
  864SOL     OW 2741   1.047   1.947   1.205  0.0778  0.1248  0.1683
  864SOL    HW1 2742   0.956   1.915   1.204 -0.3336  1.2355 -0.8118
  864SOL    HW2 2743   1.084   1.911   1.286 -0.9116 -1.2051  0.0737
  865SOL     OW 2744   1.276   3.441   2.613 -0.5975  0.1516 -0.3376
  865SOL    HW1 2745   1.295   3.348   2.624 -1.8627  0.1089  2.1000
  865SOL    HW2 2746   1.339   3.485   2.669 -0.1639  0.8010 -1.2939
  866SOL     OW 2747   0.112   1.835   2.536 -0.0115 -0.2290 -0.5022
  866SOL    HW1 2748   0.112   1.899   2.465 -0.9136  0.0166 -0.3032
  866SOL    HW2 2749   0.054   1.765   2.505  1.1407 -1.0783 -0.8100
  867SOL     OW 2750   1.416   1.916   3.094 -0.1129  0.7065 -0.4802
  867SOL    HW1 2751   1.491   1.961   3.134  0.4582 -0.9921  0.4438
  867SOL    HW2 2752   1.455   1.850   3.037 -0.8393 -0.8530  0.7507
  868SOL     OW 2753   2.655   1.741   2.972 -0.3751 -0.3236  0.1500
  868SOL    HW1 2754   2.711   1.783   2.907 -1.3335 -1.6128 -1.6005
  868SOL    HW2 2755   2.627   1.659   2.930 -2.1992 -0.5186  1.6123
  869SOL     OW 2756   2.623   0.616   3.715 -0.4341 -0.1520 -0.1668
  869SOL    HW1 2757   2.687   0.594   3.648  0.8115 -0.9889  1.2429
  869SOL    HW2 2758   2.591   0.531   3.746 -1.2640  0.2321  0.0560
  870SOL     OW 2759   2.076   2.270   1.132  0.7283 -0.2570 -0.4118
  870SOL    HW1 2760   1.996   2.322   1.124  0.1962 -1.1682 -1.0661
  870SOL    HW2 2761   2.079   2.246   1.224  0.4141  0.0338 -0.3215
  871SOL     OW 2762   1.617   1.573   2.363 -0.1295 -0.2194  0.2597
  871SOL    HW1 2763   1.589   1.550   2.452 -0.5552  0.3652  0.2773
  871SOL    HW2 2764   1.688   1.637   2.376 -1.5141  1.3901  0.1706
  872SOL     OW 2765   0.553   1.335   1.260  0.3475 -0.3374 -0.2980
  872SOL    HW1 2766   0.591   1.250   1.281  3.0763  0.9911  0.5692
  872SOL    HW2 2767   0.570   1.347   1.167  0.3923 -0.5180 -0.3138
  873SOL     OW 2768   2.135   2.707   3.278 -0.3924  0.2841  0.0294
  873SOL    HW1 2769   2.132   2.749   3.191  0.8721 -0.1128 -0.2172
  873SOL    HW2 2770   2.160   2.778   3.337  2.7736 -0.2113 -0.5287
  874SOL     OW 2771   0.170   0.086   2.152 -0.4648  0.6254  0.0631
  874SOL    HW1 2772   0.086   0.049   2.181 -0.2868  0.7164  0.6945
  874SOL    HW2 2773   0.205   0.020   2.092 -0.0713 -0.3275  1.3066
  875SOL     OW 2774   2.349   1.862   0.038  0.2174  0.0066 -0.5768
  875SOL    HW1 2775   2.392   1.856   0.123 -0.6047 -0.4862 -0.1970
  875SOL    HW2 2776   2.317   1.774   0.020 -1.6784  0.6125 -0.3147
  876SOL     OW 2777   3.566   3.353   0.991  0.2126 -0.1148  0.4914
  876SOL    HW1 2778   3.650   3.380   1.029 -0.2155 -1.1953  2.3153
  876SOL    HW2 2779   3.579   3.261   0.968 -0.5023 -0.2953  0.8235
  877SOL     OW 2780   3.046   0.801   3.452 -0.0390  0.6045 -0.5982
  877SOL    HW1 2781   3.112   0.854   3.498 -0.9569 -0.2017  1.7578
  877SOL    HW2 2782   3.095   0.759   3.381  3.3549 -3.5337  3.5845
  878SOL     OW 2783   2.877   3.269   0.421 -0.6566 -0.2439  0.0860
  878SOL    HW1 2784   2.962   3.305   0.449  0.2288 -2.7385  0.8676
  878SOL    HW2 2785   2.895   3.234   0.334 -0.1455 -2.9002  1.1832
  879SOL     OW 2786   2.450   0.553   1.957 -0.1387  0.0972  0.1440
  879SOL    HW1 2787   2.402   0.546   1.874 -1.6912 -0.4909  1.0533
  879SOL    HW2 2788   2.462   0.463   1.986  2.1323  0.1784 -0.3384
  880SOL     OW 2789   2.595   3.091   1.345 -0.1965  0.0289  0.2200
  880SOL    HW1 2790   2.553   3.140   1.415  0.7124 -0.9057  1.4674
  880SOL    HW2 2791   2.688   3.087   1.370 -0.0912 -1.5369 -0.2639
  881SOL     OW 2792   2.935   0.562   0.261  0.0905 -0.0882  0.2636
  881SOL    HW1 2793   2.931   0.466   0.258  0.9698 -0.1363  0.4999
  881SOL    HW2 2794   3.010   0.584   0.205 -0.8939  0.5429 -0.8591
  882SOL     OW 2795   1.852   0.142   1.370 -0.3620  0.4079 -0.5031
  882SOL    HW1 2796   1.889   0.085   1.438  1.7934  0.5001 -1.5274
  882SOL    HW2 2797   1.775   0.182   1.412  1.3397  1.1330  2.1778
  883SOL     OW 2798   0.088   1.003   0.754  0.0377  0.0224 -0.5063
  883SOL    HW1 2799   0.107   0.913   0.726 -0.4461 -0.1252 -0.3691
  883SOL    HW2 2800   0.172   1.036   0.785  0.8696  0.5811 -3.1255
  884SOL     OW 2801   0.261   0.799   2.574  0.1723 -0.0526 -0.1181
  884SOL    HW1 2802   0.231   0.888   2.593 -1.1339 -0.6807  0.8926
  884SOL    HW2 2803   0.180   0.749   2.562  0.8525 -1.3592  0.5804
  885SOL     OW 2804   3.027   0.733   3.818  0.2897 -0.3768 -0.0793
  885SOL    HW1 2805   2.942   0.697   3.842  0.0046  0.2214 -0.1609
  885SOL    HW2 2806   3.056   0.680   3.744 -1.0712  0.8235 -1.5542
  886SOL     OW 2807   2.288   1.113   0.384  0.2259  0.0567  0.4992
  886SOL    HW1 2808   2.361   1.075   0.433 -1.1598 -4.1053 -0.2485
  886SOL    HW2 2809   2.323   1.128   0.296  0.7910  0.5326  0.7972
  887SOL     OW 2810   2.421   2.214   2.245 -0.4093  0.4448 -0.0174
  887SOL    HW1 2811   2.391   2.292   2.291 -0.6626 -0.2247  0.9736
  887SOL    HW2 2812   2.361   2.145   2.272  0.8885 -0.5066  0.5612
  888SOL     OW 2813   1.078   3.392   1.586 -0.7543 -0.0052 -0.1958
  888SOL    HW1 2814   1.149   3.390   1.650 -2.0910  1.6233  1.4352
  888SOL    HW2 2815   1.010   3.336   1.623 -0.7944 -0.6210 -1.1693
  889SOL     OW 2816   2.133   3.493   1.697 -0.4576  0.5025  0.4740
  889SOL    HW1 2817   2.146   3.525   1.786 -0.1025  0.8419  0.3029
  889SOL    HW2 2818   2.038   3.485   1.688 -0.5802  1.7259  0.4575
  890SOL     OW 2819   3.576   0.151   1.229 -0.4011 -0.0281 -0.5397
  890SOL    HW1 2820   3.667   0.127   1.244 -0.7108 -2.9441 -2.5334
  890SOL    HW2 2821   3.578   0.208   1.152 -0.2160  1.0527  0.2348
  891SOL     OW 2822   2.616   2.117   1.579  0.4249 -0.1503  1.0415
  891SOL    HW1 2823   2.530   2.077   1.571  0.2930  0.2726  0.1979
  891SOL    HW2 2824   2.617   2.185   1.511  1.6195 -0.5047  0.6839
  892SOL     OW 2825   3.013   2.979   3.032 -0.1258  0.1101 -0.4562
  892SOL    HW1 2826   3.074   2.958   2.960  1.2704  0.2277  0.6388
  892SOL    HW2 2827   2.996   2.895   3.074  0.6387  0.2874  0.2451
  893SOL     OW 2828   0.689   3.649   1.652  0.0484 -0.0704  0.1800
  893SOL    HW1 2829   0.672   3.728   1.704 -0.8804 -0.1969  0.0773
  893SOL    HW2 2830   0.722   3.586   1.716 -2.7064 -0.7869  1.0154
  894SOL     OW 2831   1.197   0.170   3.529 -0.1939 -0.3863  0.6633
  894SOL    HW1 2832   1.125   0.233   3.522 -0.4237 -0.5248  1.5927
  894SOL    HW2 2833   1.240   0.173   3.444 -1.1073 -0.0691  0.2021
  895SOL     OW 2834   0.718   0.653   0.181  0.1336 -0.5412 -0.1235
  895SOL    HW1 2835   0.760   0.627   0.099 -0.6534 -2.0630 -0.0751
  895SOL    HW2 2836   0.788   0.648   0.247  1.0082  1.6163 -0.8065
  896SOL     OW 2837   0.766   3.096   0.615 -0.0950  0.4688 -0.5621
  896SOL    HW1 2838   0.672   3.116   0.616  0.0207  1.1168 -1.4216
  896SOL    HW2 2839   0.799   3.135   0.696 -0.9754 -2.0326  1.1126
  897SOL     OW 2840   3.729   0.971   2.126  0.2227 -0.0815 -0.0524
  897SOL    HW1 2841   3.633   0.973   2.120  0.0420 -1.4060  1.6292
  897SOL    HW2 2842   3.747   0.921   2.205  2.3349 -0.1615 -0.5224
  898SOL     OW 2843   1.521   1.469   0.820  0.0383  0.7485 -0.0278
  898SOL    HW1 2844   1.544   1.532   0.888 -1.9864 -0.7143  2.1369
  898SOL    HW2 2845   1.550   1.385   0.855 -0.9236 -0.0305 -1.0546
  899SOL     OW 2846   1.705   1.248   1.478 -0.6482  0.2746 -0.4440
  899SOL    HW1 2847   1.783   1.220   1.525 -1.7378 -2.0692  0.1154
  899SOL    HW2 2848   1.679   1.330   1.520  0.5857  0.2406  0.4156
  900SOL     OW 2849   0.694   3.567   1.141  0.4975 -0.3810 -0.2849
  900SOL    HW1 2850   0.653   3.560   1.227  0.7541  0.2141 -0.1136
  900SOL    HW2 2851   0.648   3.640   1.099  2.6482  1.6118  0.6403
  901SOL     OW 2852   0.221   0.830   1.888  0.4104 -0.0719  0.0511
  901SOL    HW1 2853   0.232   0.807   1.796  0.2668 -0.2786  0.0844
  901SOL    HW2 2854   0.162   0.906   1.887  0.9594  0.3544 -0.0630
  902SOL     OW 2855   3.325   1.639   2.931  0.4818 -0.3552  0.0293
  902SOL    HW1 2856   3.414   1.642   2.964 -0.3249  2.3145  2.3212
  902SOL    HW2 2857   3.334   1.638   2.836  2.9931  2.3377  0.1147
  903SOL     OW 2858   2.276   2.956   0.091  1.0350  0.1931 -0.2066
  903SOL    HW1 2859   2.306   2.891   0.154  2.9035 -0.2731 -1.5074
  903SOL    HW2 2860   2.333   2.944   0.015  1.0311  2.9182 -0.7373
  904SOL     OW 2861   1.186   2.532   1.336  0.3161 -0.0706 -0.0861
  904SOL    HW1 2862   1.137   2.503   1.259  0.4980  0.7379 -0.5152
  904SOL    HW2 2863   1.276   2.504   1.319  1.2034  3.2812 -1.9936
  905SOL     OW 2864   1.040   1.934   2.925 -0.4091 -0.4188  0.3573
  905SOL    HW1 2865   0.992   1.941   3.008  0.9857 -1.3538  1.2847
  905SOL    HW2 2866   1.012   1.851   2.888 -1.3267  0.1764 -0.3452
  906SOL     OW 2867   2.367   0.099   3.569 -0.7374 -0.0772 -0.1928
  906SOL    HW1 2868   2.463   0.103   3.576 -0.8226  0.8090  0.7591
  906SOL    HW2 2869   2.341   0.032   3.632 -0.7674 -0.1612 -0.2932
  907SOL     OW 2870   3.027   3.167   0.981 -0.5147  0.3254 -0.0023
  907SOL    HW1 2871   2.993   3.256   0.984  0.1202  0.5510  0.8630
  907SOL    HW2 2872   3.103   3.171   0.923  0.5772  0.7488  1.4018
  908SOL     OW 2873   2.754   1.614   1.758 -0.6522  0.6985  0.3383
  908SOL    HW1 2874   2.821   1.580   1.698 -0.3678 -0.3421  1.2129
  908SOL    HW2 2875   2.803   1.635   1.838 -1.2608  0.6010  0.7395
  909SOL     OW 2876   0.143   3.391   2.403  0.0479 -0.3288  0.5475
  909SOL    HW1 2877   0.083   3.447   2.453  0.8698 -1.4660  3.0048
  909SOL    HW2 2878   0.106   3.388   2.315 -2.5711  0.3233  1.5289
  910SOL     OW 2879   1.598   2.351   2.275  0.2164  0.9190 -0.3916
  910SOL    HW1 2880   1.609   2.366   2.181 -0.9528  1.2543 -0.4870
  910SOL    HW2 2881   1.533   2.281   2.280  0.2335  0.9429  0.1778
  911SOL     OW 2882   2.716   1.597   0.511  0.5242  0.1670  0.4109
  911SOL    HW1 2883   2.806   1.623   0.530  0.2941  3.6508 -2.2273
  911SOL    HW2 2884   2.669   1.613   0.593  1.6907  2.0705  0.7854
  912SOL     OW 2885   1.266   0.270   1.505  0.1986  0.6646 -0.2478
  912SOL    HW1 2886   1.217   0.191   1.481 -0.1247  0.9418 -0.5164
  912SOL    HW2 2887   1.239   0.289   1.595 -3.2642  3.0309 -1.5859
  913SOL     OW 2888   2.866   3.344   1.305  0.1278  0.1791  0.4322
  913SOL    HW1 2889   2.935   3.403   1.336 -0.0125 -0.1423  1.3926
  913SOL    HW2 2890   2.894   3.257   1.335 -0.7967  0.0731  1.0361
  914SOL     OW 2891   1.385   2.201   3.681 -0.4358  0.5125  0.0608
  914SOL    HW1 2892   1.417   2.161   3.600  0.5595  2.4036 -0.5532
  914SOL    HW2 2893   1.360   2.127   3.736  2.8043 -1.0765 -0.3367
  915SOL     OW 2894   0.758   1.619   1.800 -0.0570  0.3308 -0.5211
  915SOL    HW1 2895   0.843   1.640   1.839 -0.2469  1.0672 -0.4931
  915SOL    HW2 2896   0.780   1.586   1.713  0.2557  0.6182 -0.5551
  916SOL     OW 2897   3.575   3.430   3.236  0.1882  0.5682  0.2496
  916SOL    HW1 2898   3.566   3.390   3.322 -0.6878 -0.0791 -0.1366
  916SOL    HW2 2899   3.524   3.511   3.242 -0.4003  0.2046  0.1371
  917SOL     OW 2900   1.702   2.287   3.487 -0.5856  0.3039  0.5647
  917SOL    HW1 2901   1.638   2.218   3.508 -2.2178  1.8536  1.0119
  917SOL    HW2 2902   1.758   2.249   3.421 -1.6833 -1.3230  0.5098
  918SOL     OW 2903   2.612   1.078   2.502 -0.3831  0.1855 -0.5548
  918SOL    HW1 2904   2.565   0.996   2.492 -0.5224  0.3639 -1.4100
  918SOL    HW2 2905   2.697   1.063   2.461  0.5310 -0.2893  1.3953
  919SOL     OW 2906   2.544   2.226   2.892 -0.0998  0.3938  0.5697
  919SOL    HW1 2907   2.493   2.252   2.815  2.2812 -0.1929 -1.3545
  919SOL    HW2 2908   2.580   2.308   2.926  2.4514  0.4090 -1.7849
  920SOL     OW 2909   0.845   2.133   3.296 -0.5118  0.5643 -0.3928
  920SOL    HW1 2910   0.924   2.117   3.349  0.1495 -2.8648 -2.1015
  920SOL    HW2 2911   0.879   2.163   3.212 -1.0193 -0.3273 -0.9338
  921SOL     OW 2912   0.889   0.395   2.760 -0.9043  0.5995  0.4356
  921SOL    HW1 2913   0.911   0.313   2.715 -2.8765 -0.4345  1.2486
  921SOL    HW2 2914   0.827   0.438   2.702  1.3291  2.4011 -0.7738
  922SOL     OW 2915   1.105   0.045   1.445 -0.2846 -0.0993 -0.0931
  922SOL    HW1 2916   1.159  -0.007   1.386 -1.4724  1.1672 -2.4400
  922SOL    HW2 2917   1.018   0.007   1.438 -0.5930  0.5192  0.3094
  923SOL     OW 2918   3.616   1.833   3.233 -0.6104  0.1844 -0.0403
  923SOL    HW1 2919   3.630   1.843   3.139  1.3508 -1.2912  0.0372
  923SOL    HW2 2920   3.563   1.753   3.240  0.6890 -0.6911  0.1377
  924SOL     OW 2921   2.029   0.277   3.369  0.3746 -0.5799  0.9413
  924SOL    HW1 2922   2.057   0.359   3.329  0.7717 -0.7702  0.8206
  924SOL    HW2 2923   2.100   0.216   3.350  0.0686 -0.9605  0.9985
  925SOL     OW 2924   2.026   0.625   0.753  0.5052  0.5222  0.0970
  925SOL    HW1 2925   1.949   0.573   0.778  1.2393  0.4943  2.6327
  925SOL    HW2 2926   1.989   0.708   0.723 -0.5899 -0.5476 -1.6833
  926SOL     OW 2927   3.730   2.454   3.403  0.8734  0.4457  0.3626
  926SOL    HW1 2928   3.739   2.479   3.311  1.4851 -0.7280  0.0887
  926SOL    HW2 2929   3.635   2.443   3.415  0.7979  0.5161 -0.1485
  927SOL     OW 2930   0.519   3.804   0.662 -0.2813  0.5944 -0.1495
  927SOL    HW1 2931   0.571   3.724   0.673 -0.6002  0.1621 -1.6258
  927SOL    HW2 2932   0.448   3.778   0.603 -1.8548  1.3283  1.3140
  928SOL     OW 2933   0.661   0.154   1.570 -0.1327 -0.1677  0.4623
  928SOL    HW1 2934   0.608   0.228   1.543  2.5363  2.0522  0.8034
  928SOL    HW2 2935   0.600   0.094   1.614 -3.0882 -0.0456 -3.0259
  929SOL     OW 2936   2.298   3.718   1.598 -0.2470  0.4528  0.0567
  929SOL    HW1 2937   2.292   3.769   1.679  0.7902 -0.1485  0.5394
  929SOL    HW2 2938   2.251   3.637   1.618  0.3867  0.1175  0.2286
  930SOL     OW 2939   3.447   2.451   1.724  0.4557  0.3986  0.3643
  930SOL    HW1 2940   3.469   2.544   1.737 -0.4186  0.5269  1.0305
  930SOL    HW2 2941   3.531   2.406   1.733  0.7945  1.0685  0.7027
  931SOL     OW 2942   1.165   2.516   3.027 -0.1982  0.8871  0.5184
  931SOL    HW1 2943   1.238   2.453   3.033 -0.5724  0.4578  0.6386
  931SOL    HW2 2944   1.087   2.463   3.042 -0.7781  0.8123 -2.2605
  932SOL     OW 2945   0.128   0.729   2.121  0.2788  0.2518 -0.3643
  932SOL    HW1 2946   0.130   0.814   2.166  0.1617 -0.7177  1.5553
  932SOL    HW2 2947   0.163   0.748   2.034  2.2922  1.8790  0.7155
  933SOL     OW 2948   1.466   1.820   2.190  0.1583  0.6398  0.1360
  933SOL    HW1 2949   1.454   1.736   2.234  1.4299  0.9595  1.1507
  933SOL    HW2 2950   1.516   1.799   2.110  1.8032  0.5671  1.1332
  934SOL     OW 2951   0.466   0.777   2.237  0.3645  0.2009  0.1323
  934SOL    HW1 2952   0.419   0.698   2.264 -0.1631  1.0425  1.8040
  934SOL    HW2 2953   0.401   0.847   2.243  0.8031  0.7889 -1.4078
  935SOL     OW 2954   0.587   0.877   3.475 -0.0852  0.4478  0.0724
  935SOL    HW1 2955   0.633   0.933   3.539 -0.9042  1.0691  0.1348
  935SOL    HW2 2956   0.651   0.810   3.452  0.4289  0.5645  1.0982
  936SOL     OW 2957   1.808   2.530   3.515 -0.3600 -0.5754  0.2311
  936SOL    HW1 2958   1.869   2.516   3.587  0.1669 -0.0939 -0.1225
  936SOL    HW2 2959   1.782   2.442   3.488  0.1824 -0.7782  0.3747
  937SOL     OW 2960   3.622   3.111   1.943 -0.6518 -0.3378  0.4862
  937SOL    HW1 2961   3.673   3.173   1.995 -1.6271  0.5146  0.4545
  937SOL    HW2 2962   3.546   3.161   1.913  0.2452 -0.5504 -2.4620
  938SOL     OW 2963   0.064   1.185   0.527 -0.0632  0.5531  0.1657
  938SOL    HW1 2964   0.057   1.118   0.595 -1.2163  1.6303  1.1596
  938SOL    HW2 2965  -0.026   1.214   0.514  0.3227  1.3466 -0.8244
  939SOL     OW 2966   2.135   2.383   3.345  0.2094  0.3910  0.2920
  939SOL    HW1 2967   2.167   2.358   3.258  0.1552  0.7381  0.1705
  939SOL    HW2 2968   2.092   2.467   3.331 -1.8422 -0.5979  0.1984
  940SOL     OW 2969   1.648   3.774   1.242 -0.5739  0.3169  0.4060
  940SOL    HW1 2970   1.573   3.812   1.287 -0.0108 -0.7080  2.3092
  940SOL    HW2 2971   1.707   3.848   1.228 -0.3252  0.5297  2.3208
  941SOL     OW 2972   3.223   1.820   1.326 -0.8959  0.0066  0.5333
  941SOL    HW1 2973   3.166   1.801   1.251 -0.5820  0.6281  0.1369
  941SOL    HW2 2974   3.288   1.881   1.293 -1.0742  0.7196  1.4553
  942SOL     OW 2975   0.757   3.658   3.504  0.1667  0.5854 -0.0835
  942SOL    HW1 2976   0.826   3.599   3.534 -0.2269  0.0351 -0.2431
  942SOL    HW2 2977   0.697   3.665   3.578 -0.1237  0.2653 -0.2847
  943SOL     OW 2978   0.288   3.212   2.586  0.2539 -0.2939  0.1858
  943SOL    HW1 2979   0.251   3.219   2.674 -0.2559  0.3079 -0.0698
  943SOL    HW2 2980   0.222   3.250   2.529  0.0040 -1.8486 -0.6232
  944SOL     OW 2981   2.325   2.105   0.964 -0.1953  0.6874 -0.4170
  944SOL    HW1 2982   2.298   2.116   1.055  0.4406  0.1028 -0.1487
  944SOL    HW2 2983   2.252   2.141   0.913 -0.8429  0.4399  0.3097
  945SOL     OW 2984   3.284   2.468   2.129  0.4324  0.3654 -0.2119
  945SOL    HW1 2985   3.360   2.468   2.188 -0.9458  1.2546  1.6989
  945SOL    HW2 2986   3.228   2.539   2.162 -0.6856  0.5427 -2.3031
  946SOL     OW 2987   0.152   1.218   1.629 -0.0982 -0.5437  0.0923
  946SOL    HW1 2988   0.168   1.138   1.679  1.6481 -0.3737 -0.1361
  946SOL    HW2 2989   0.239   1.255   1.614 -0.7235  0.4097 -1.4398
  947SOL     OW 2990   1.066   2.231   1.430 -0.2055 -0.7437  0.1845
  947SOL    HW1 2991   1.104   2.155   1.474 -1.0562 -1.0445  0.4221
  947SOL    HW2 2992   1.126   2.250   1.358  0.5819 -0.9770  0.7656
  948SOL     OW 2993   1.639   2.879   0.343  0.0123 -0.1729  0.1827
  948SOL    HW1 2994   1.679   2.943   0.402  0.6013  0.5131 -0.9230
  948SOL    HW2 2995   1.583   2.827   0.399  1.4974 -0.3557  1.5795
  949SOL     OW 2996   3.803   2.664   1.422 -0.4028 -0.5998  0.0957
  949SOL    HW1 2997   3.752   2.585   1.404 -1.3331  0.1232 -0.5558
  949SOL    HW2 2998   3.889   2.632   1.447 -1.0985 -1.8584  1.0139
  950SOL     OW 2999   0.152   1.630   2.264 -1.2765  0.5431  0.2779
  950SOL    HW1 3000   0.126   1.586   2.183  0.0610  3.3075 -1.8320
  950SOL    HW2 3001   0.078   1.687   2.285 -0.8458  1.2918 -0.1878
  951SOL     OW 3002   3.417   1.606   1.210 -0.1087  0.6690 -0.9821
  951SOL    HW1 3003   3.360   1.670   1.252 -0.2836  0.0047 -0.1883
  951SOL    HW2 3004   3.396   1.612   1.117 -1.3643  0.5324 -0.7157
  952SOL     OW 3005   0.427   1.743   1.021  0.2884 -0.8696 -0.1948
  952SOL    HW1 3006   0.510   1.725   0.978  1.2967  0.7741  0.9229
  952SOL    HW2 3007   0.366   1.678   0.986  1.5424 -0.8970 -2.4860
  953SOL     OW 3008   1.383   1.988   1.818  0.3628 -0.2001  0.1081
  953SOL    HW1 3009   1.301   2.003   1.865 -0.6854 -1.3331 -1.2420
  953SOL    HW2 3010   1.444   2.052   1.854 -0.7471 -0.1392  2.0233
  954SOL     OW 3011   1.347   0.778   1.628 -0.0050  0.9201 -0.2878
  954SOL    HW1 3012   1.392   0.848   1.582  0.3490  1.0604  0.2571
  954SOL    HW2 3013   1.405   0.702   1.620  0.6571  1.2596  0.9367
  955SOL     OW 3014   1.223   1.378   2.956  0.1151 -0.3242  0.6918
  955SOL    HW1 3015   1.137   1.414   2.936  0.2750  0.3697  1.2156
  955SOL    HW2 3016   1.229   1.380   3.052  0.3028 -1.3562  0.7217
  956SOL     OW 3017   2.695   3.612   2.383  0.4014 -0.6099  0.5990
  956SOL    HW1 3018   2.611   3.617   2.337  1.0701  1.6757 -0.5038
  956SOL    HW2 3019   2.761   3.624   2.316  1.4877  0.9216  1.8704
  957SOL     OW 3020   1.983   2.695   0.847  0.4061 -0.8230  0.1887
  957SOL    HW1 3021   2.050   2.749   0.888 -0.9642 -0.8284  2.6393
  957SOL    HW2 3022   2.024   2.660   0.768  1.6223  3.1547 -1.1757
  958SOL     OW 3023   3.639   3.058   2.826 -0.0568 -0.2958  0.0912
  958SOL    HW1 3024   3.709   3.068   2.761 -0.5921  2.2339 -0.2060
  958SOL    HW2 3025   3.659   3.124   2.893 -1.2744 -0.6300  0.8149
  959SOL     OW 3026   2.483   2.272   0.485 -0.1226  0.4745 -0.4235
  959SOL    HW1 3027   2.438   2.286   0.569  0.4006  2.1907 -0.3838
  959SOL    HW2 3028   2.569   2.239   0.510 -0.7826 -1.3313 -0.4276
  960SOL     OW 3029   1.287   3.055   0.400 -0.1458 -0.1283  0.2541
  960SOL    HW1 3030   1.348   2.982   0.413 -0.6832 -0.6392 -0.0346
  960SOL    HW2 3031   1.334   3.116   0.344 -0.5363 -1.3519 -1.5022
  961SOL     OW 3032   0.450   2.344   1.902  0.3438 -0.3287  0.0858
  961SOL    HW1 3033   0.498   2.276   1.854  1.7536  0.3038  0.5441
  961SOL    HW2 3034   0.371   2.358   1.851  1.2644 -0.4636 -1.4396
  962SOL     OW 3035   2.824   3.477   1.613  0.6406  0.4066 -0.0238
  962SOL    HW1 3036   2.839   3.556   1.561  1.2530  0.0819 -0.3497
  962SOL    HW2 3037   2.732   3.484   1.640  0.4076  0.7572 -0.8502
  963SOL     OW 3038   3.500   1.143   2.724  0.0642  0.0790  0.0730
  963SOL    HW1 3039   3.417   1.123   2.767 -0.0041 -0.1288 -0.1518
  963SOL    HW2 3040   3.561   1.076   2.755  0.3505  0.6754  0.8209
  964SOL     OW 3041   0.926   1.007   1.798 -0.1274  0.6772 -0.3920
  964SOL    HW1 3042   0.907   1.043   1.885 -0.7898  1.3470 -0.7965
  964SOL    HW2 3043   0.884   1.068   1.738 -0.3915 -0.2369 -1.1547
  965SOL     OW 3044   1.421   1.257   1.828 -0.2381  0.0510  0.6677
  965SOL    HW1 3045   1.435   1.306   1.748  0.5327 -0.3472  0.5494
  965SOL    HW2 3046   1.332   1.223   1.821 -0.4004  0.5581  0.2808
  966SOL     OW 3047   1.024   0.245   2.023  1.3138  0.1501  0.2878
  966SOL    HW1 3048   1.043   0.233   2.116  0.5577  0.8079  0.5428
  966SOL    HW2 3049   0.952   0.308   2.021  1.4207  0.2653 -0.7524
  967SOL     OW 3050   0.898   0.471   3.188  0.1942  0.0580  0.5720
  967SOL    HW1 3051   0.974   0.486   3.132 -0.0735  0.9695  0.4310
  967SOL    HW2 3052   0.832   0.433   3.129 -0.0050  0.7913  0.3090
  968SOL     OW 3053   3.468   1.150   1.688 -0.0456 -0.4105 -0.0355
  968SOL    HW1 3054   3.388   1.153   1.740  0.1870  1.9803  0.2718
  968SOL    HW2 3055   3.497   1.058   1.695 -1.8795 -0.9580  1.1367
  969SOL     OW 3056   1.459   2.760   1.228  0.0299  0.3820  0.2771
  969SOL    HW1 3057   1.421   2.702   1.161 -1.0841 -1.0050  1.9958
  969SOL    HW2 3058   1.422   2.846   1.209  0.1467  0.1487 -1.1599
  970SOL     OW 3059   3.622   0.003   3.789 -0.4015  0.3604  0.3347
  970SOL    HW1 3060   3.592   0.034   3.874  0.2532 -0.7089  0.9646
  970SOL    HW2 3061   3.541  -0.023   3.744 -0.9771  2.8710 -0.2148
  971SOL     OW 3062   2.959   3.866   0.392 -0.2660 -0.5898  0.6511
  971SOL    HW1 3063   2.961   3.888   0.486 -0.3621  1.8089  0.1608
  971SOL    HW2 3064   2.995   3.778   0.387  0.3190 -0.5412  2.8935
  972SOL     OW 3065   2.983   3.233   2.971  0.0071  0.4966  0.1396
  972SOL    HW1 3066   3.010   3.146   3.000 -1.5191  0.7429  2.5496
  972SOL    HW2 3067   2.997   3.289   3.048 -2.1158  1.6889 -0.2695
  973SOL     OW 3068   1.777   1.785   2.262  0.0571  0.9276 -0.1011
  973SOL    HW1 3069   1.754   1.790   2.169 -2.7484 -0.2028  0.4469
  973SOL    HW2 3070   1.781   1.876   2.290  0.2522  1.2660 -1.1630
  974SOL     OW 3071   1.739   0.872   0.633 -0.1053  0.1111  0.0119
  974SOL    HW1 3072   1.649   0.903   0.623 -0.2133  0.5901  2.0049
  974SOL    HW2 3073   1.793   0.952   0.629 -0.0251  0.1414  1.2631
  975SOL     OW 3074   3.721   3.269   1.542  0.1033  0.0941 -0.1339
  975SOL    HW1 3075   3.697   3.182   1.574  2.6940 -0.7736 -0.3367
  975SOL    HW2 3076   3.795   3.254   1.483 -0.5819  2.2765 -1.6566
  976SOL     OW 3077   0.202   0.121   0.582  0.1425 -0.8984  0.0004
  976SOL    HW1 3078   0.128   0.150   0.634  3.0318  1.2331  3.4262
  976SOL    HW2 3079   0.207   0.026   0.597 -0.7108 -0.7362  1.4013
  977SOL     OW 3080   1.919   2.614   1.627 -0.0235 -0.0398 -0.0854
  977SOL    HW1 3081   1.925   2.681   1.696  0.4286 -0.9019  0.7404
  977SOL    HW2 3082   1.834   2.630   1.586  0.4271  1.5477 -0.4664
  978SOL     OW 3083   2.390   0.854   1.766  0.3388 -0.7898 -0.0180
  978SOL    HW1 3084   2.370   0.804   1.845  2.5959 -0.7147  0.6795
  978SOL    HW2 3085   2.309   0.901   1.746 -0.2593 -0.6906  2.3182
  979SOL     OW 3086   0.288   0.129   1.902 -0.5750  0.1336 -0.5177
  979SOL    HW1 3087   0.231   0.057   1.874 -1.0182 -0.1890  1.1556
  979SOL    HW2 3088   0.229   0.204   1.913 -0.4155  0.2278 -0.3044
  980SOL     OW 3089   1.674   0.976   3.032  0.2123 -0.4855 -0.1529
  980SOL    HW1 3090   1.736   0.905   3.051  0.2445  0.3978  4.0653
  980SOL    HW2 3091   1.608   0.935   2.976  2.2127 -2.7138 -1.0683
  981SOL     OW 3092   0.222   2.459   2.946  0.1088  0.2223  0.4090
  981SOL    HW1 3093   0.266   2.463   3.031 -0.0701  0.3499  0.4963
  981SOL    HW2 3094   0.196   2.368   2.935 -1.0875  0.4588  1.1116
  982SOL     OW 3095   1.886   3.165   1.757  0.7264 -0.0605 -0.2685
  982SOL    HW1 3096   1.927   3.129   1.835 -0.9495 -0.2959  0.5613
  982SOL    HW2 3097   1.792   3.165   1.778  0.4868  2.9780 -0.9809
  983SOL     OW 3098   0.246   1.276   1.151 -0.4355  0.0417  0.3439
  983SOL    HW1 3099   0.232   1.181   1.148 -0.6081  0.0934 -1.1707
  983SOL    HW2 3100   0.341   1.287   1.147 -0.3577 -0.0635  1.4225
  984SOL     OW 3101   3.755   1.015   3.714  0.2279  0.6737 -0.3351
  984SOL    HW1 3102   3.740   1.108   3.727 -0.2832  0.5974 -0.3331
  984SOL    HW2 3103   3.850   1.004   3.721  0.1009  0.7775  2.3758
  985SOL     OW 3104   1.264   1.220   1.361 -0.3636  0.7934  0.7355
  985SOL    HW1 3105   1.181   1.187   1.326  0.5418 -0.8340  0.0075
  985SOL    HW2 3106   1.300   1.146   1.409  1.4559  0.8771 -0.4119
  986SOL     OW 3107   3.622   0.442   1.273  0.4632 -0.1337  0.0335
  986SOL    HW1 3108   3.617   0.509   1.204  0.3761 -0.8989 -0.7223
  986SOL    HW2 3109   3.715   0.432   1.290  0.6345 -1.2645 -1.3340
  987SOL     OW 3110   3.735   3.136   1.050 -0.4416  0.6273  0.2961
  987SOL    HW1 3111   3.761   3.140   1.142 -0.3512 -1.6233  0.4258
  987SOL    HW2 3112   3.738   3.043   1.028 -0.3222  1.1136 -2.0374
  988SOL     OW 3113   1.183   3.187   2.646 -0.1801  0.0370 -0.0072
  988SOL    HW1 3114   1.106   3.220   2.693  0.7073  2.1158  0.0922
  988SOL    HW2 3115   1.230   3.134   2.710 -0.9465 -0.3132  0.2726
  989SOL     OW 3116   3.716   3.601   3.723 -0.4053 -0.1930  0.2863
  989SOL    HW1 3117   3.687   3.692   3.731  0.3864  0.0899  0.0544
  989SOL    HW2 3118   3.754   3.581   3.808  0.6039  0.1341 -0.0695
  990SOL     OW 3119   3.623   0.728   3.016  0.2001  0.1397  0.1193
  990SOL    HW1 3120   3.606   0.819   3.037  0.6122  0.1956  0.2206
  990SOL    HW2 3121   3.554   0.704   2.954  0.5350  0.7383 -0.4916
  991SOL     OW 3122   2.278   3.409   3.619  0.1207 -0.5711 -0.7306
  991SOL    HW1 3123   2.227   3.489   3.615 -1.1857 -0.9441  3.5754
  991SOL    HW2 3124   2.228   3.345   3.568 -0.5214  0.5161 -1.4882
  992SOL     OW 3125   0.450   0.954   0.353  0.3618 -0.2161  0.1928
  992SOL    HW1 3126   0.514   0.974   0.421 -0.2629  0.4833  0.5937
  992SOL    HW2 3127   0.406   1.037   0.336 -2.3175 -1.1395  1.9161
  993SOL     OW 3128   0.606   1.609   2.039  0.5343 -0.3649 -0.0214
  993SOL    HW1 3129   0.656   1.592   1.959  0.9671 -0.5378  0.2811
  993SOL    HW2 3130   0.515   1.597   2.013  0.2516  3.4401 -1.5425
  994SOL     OW 3131   2.023   1.691   2.446  0.8106  0.1593 -0.1066
  994SOL    HW1 3132   2.097   1.736   2.487 -1.2825  0.8702  3.2901
  994SOL    HW2 3133   1.960   1.760   2.428 -1.3283 -0.8842  2.6329
  995SOL     OW 3134   1.985   2.515   3.708 -0.1812 -0.7117 -0.2920
  995SOL    HW1 3135   2.078   2.518   3.687 -0.3762 -3.4274 -2.0375
  995SOL    HW2 3136   1.981   2.535   3.802  2.3681 -2.1190  0.2251
  996SOL     OW 3137   3.030   1.264   1.376  0.3803 -0.0805  0.5528
  996SOL    HW1 3138   2.961   1.198   1.381 -0.3025  0.5594 -0.2676
  996SOL    HW2 3139   3.023   1.311   1.459  1.4210 -1.5256  1.5284
  997SOL     OW 3140   0.659   0.071   0.398 -0.3655  0.5656  0.3544
  997SOL    HW1 3141   0.602   0.014   0.348  0.5143 -0.2405  0.2614
  997SOL    HW2 3142   0.738   0.080   0.345 -0.0444  0.9514  0.8873
  998SOL     OW 3143   0.082   1.890   3.042 -0.2066 -0.6183  0.6328
  998SOL    HW1 3144  -0.013   1.892   3.033 -0.2909 -1.1024  1.3117
  998SOL    HW2 3145   0.114   1.867   2.955 -0.7296 -0.8063  0.4861
  999SOL     OW 3146   0.765   1.075   3.569 -0.1260  0.0338  0.1650
  999SOL    HW1 3147   0.858   1.063   3.550 -0.1191 -0.1627  0.3279
  999SOL    HW2 3148   0.761   1.158   3.616  0.0585 -0.3315  0.8440
 1000SOL     OW 3149   3.069   0.471   3.206 -0.0619  0.3978  0.4252
 1000SOL    HW1 3150   3.057   0.419   3.285  2.4717 -0.8090  0.1369
 1000SOL    HW2 3151   3.048   0.411   3.134  1.0716  0.3232  0.1351
 1001SOL     OW 3152   1.813   2.403   1.101  0.6642  0.0415 -0.4491
 1001SOL    HW1 3153   1.763   2.481   1.124  0.0346 -0.3938 -0.2814
 1001SOL    HW2 3154   1.812   2.401   1.005 -0.8726 -0.6972 -0.4598
 1002SOL     OW 3155   0.107   3.266   3.756  0.0149 -0.3779  0.3586
 1002SOL    HW1 3156   0.146   3.347   3.791 -0.7821  0.7871 -1.3102
 1002SOL    HW2 3157   0.155   3.250   3.675 -0.9184 -0.6401 -0.1540
 1003SOL     OW 3158   1.335   1.220   0.751  0.4991 -0.3833 -0.2006
 1003SOL    HW1 3159   1.282   1.197   0.828  1.0625 -0.9284  0.0365
 1003SOL    HW2 3160   1.413   1.165   0.758  0.9695  0.1986 -0.6981
 1004SOL     OW 3161   2.591   2.062   1.068  0.0903  0.3959  0.3692
 1004SOL    HW1 3162   2.653   2.119   1.022  0.2435 -0.4374 -0.4750
 1004SOL    HW2 3163   2.508   2.073   1.022  0.0963  0.0264  0.2624
 1005SOL     OW 3164   0.160   0.463   3.616 -0.1125 -0.3025  0.0503
 1005SOL    HW1 3165   0.227   0.498   3.557  0.2126 -0.7436  0.1544
 1005SOL    HW2 3166   0.193   0.377   3.642  0.6787  0.6267  2.3825
 1006SOL     OW 3167   1.149   2.792   1.960  0.0106 -0.2089  0.4618
 1006SOL    HW1 3168   1.086   2.721   1.949 -1.2634  0.6094  2.0283
 1006SOL    HW2 3169   1.104   2.869   1.927 -0.0486  0.4739  2.0272
 1007SOL     OW 3170   1.795   3.242   0.033 -0.4702  0.1667  0.1754
 1007SOL    HW1 3171   1.766   3.297   0.105 -2.5383  0.0650 -0.5310
 1007SOL    HW2 3172   1.827   3.162   0.075 -2.7554 -0.3850  0.9785
 1008SOL     OW 3173   2.020   0.153   0.243 -0.6584  0.6868  0.5011
 1008SOL    HW1 3174   2.030   0.074   0.190 -2.2145  1.1931 -0.6140
 1008SOL    HW2 3175   2.089   0.212   0.212 -0.7372  0.4925 -0.0515
 1009SOL     OW 3176   0.175   2.706   3.434 -0.1290  0.0132 -0.9844
 1009SOL    HW1 3177   0.126   2.704   3.516 -1.0734  1.2156 -1.4913
 1009SOL    HW2 3178   0.212   2.618   3.426 -0.8572 -0.4274  0.2204
 1010SOL     OW 3179   1.805   1.747   3.816 -0.2677  0.2956 -0.5667
 1010SOL    HW1 3180   1.826   1.699   3.736  0.7170 -1.1533  0.5356
 1010SOL    HW2 3181   1.883   1.739   3.871 -0.9213  1.2732  0.5477
 1011SOL     OW 3182   3.034   0.567   0.542  0.0066 -0.0254 -0.5828
 1011SOL    HW1 3183   3.102   0.554   0.476 -0.6792 -0.2391 -1.2587
 1011SOL    HW2 3184   2.986   0.644   0.512  0.1104  0.2907  0.0393
 1012SOL     OW 3185   0.575   1.091   2.277 -0.3712  0.5896  0.1948
 1012SOL    HW1 3186   0.564   0.996   2.282 -0.1396  0.6111  1.3672
 1012SOL    HW2 3187   0.632   1.112   2.351 -0.4487  1.6440 -0.0364
 1013SOL     OW 3188   3.150   0.020   3.674  0.3579 -0.1597  0.3122
 1013SOL    HW1 3189   3.103  -0.009   3.751 -2.3352 -0.3214 -1.2771
 1013SOL    HW2 3190   3.200   0.097   3.703 -0.0191 -0.6174  2.3132
 1014SOL     OW 3191   1.888   1.842   2.685 -0.0391  0.1977 -0.2589
 1014SOL    HW1 3192   1.952   1.774   2.708 -0.7240  0.3348  2.3609
 1014SOL    HW2 3193   1.889   1.901   2.760 -2.7838  0.5244 -0.4110
 1015SOL     OW 3194   2.958   3.529   3.414 -0.6998 -0.1754  0.3164
 1015SOL    HW1 3195   2.934   3.573   3.333 -2.0582 -1.7800 -0.2130
 1015SOL    HW2 3196   2.877   3.487   3.444  0.7375 -3.4717 -0.0047
 1016SOL     OW 3197   1.800   1.566   2.800  0.3378 -0.7653  0.8015
 1016SOL    HW1 3198   1.749   1.547   2.878  0.3143 -0.2660  0.9111
 1016SOL    HW2 3199   1.861   1.635   2.827 -2.8806  3.0862 -0.8068
 1017SOL     OW 3200   1.581   3.219   2.866  0.1636 -0.2456 -0.2848
 1017SOL    HW1 3201   1.653   3.172   2.908  0.5424  0.5341 -0.0333
 1017SOL    HW2 3202   1.505   3.200   2.921  0.6408  0.7130  0.7591
 1018SOL     OW 3203   3.031   0.974   1.137  0.1237  0.1008  0.3867
 1018SOL    HW1 3204   3.109   0.920   1.122  0.1312  0.3036 -0.3351
 1018SOL    HW2 3205   3.064   1.064   1.131 -0.8967  0.3839 -4.7450
 1019SOL     OW 3206   2.650   0.131   3.523 -0.2276  0.1370 -0.1831
 1019SOL    HW1 3207   2.725   0.153   3.578 -1.6135 -1.5225  2.6271
 1019SOL    HW2 3208   2.669   0.043   3.491 -0.6777 -0.0611  0.0721
 1020SOL     OW 3209   1.133   3.221   2.116 -0.1427  0.3964 -0.0463
 1020SOL    HW1 3210   1.144   3.276   2.193 -1.9427  0.5339  0.1522
 1020SOL    HW2 3211   1.047   3.246   2.081 -1.0791 -2.3089  0.0955
 1021SOL     OW 3212   0.213   0.207   2.895  0.2145 -0.9077  0.2014
 1021SOL    HW1 3213   0.133   0.249   2.863  1.1573 -0.6578 -2.0394
 1021SOL    HW2 3214   0.242   0.151   2.822  3.3903  0.9283 -0.1487
 1022SOL     OW 3215   0.346   2.005   1.088  0.6943 -0.2815  0.0740
 1022SOL    HW1 3216   0.346   1.916   1.052 -2.7191 -0.7727  0.8995
 1022SOL    HW2 3217   0.341   2.062   1.011  1.4776 -0.8639 -0.4203
 1023SOL     OW 3218   0.859   0.392   0.303 -0.3804  0.1356  0.0244
 1023SOL    HW1 3219   0.857   0.430   0.215  1.7054 -0.2217 -0.2359
 1023SOL    HW2 3220   0.841   0.299   0.290 -3.7231  0.6070  0.4628
 1024SOL     OW 3221   3.027   1.026   1.825  0.2069 -0.0161 -0.0679
 1024SOL    HW1 3222   2.969   1.099   1.844 -0.7491 -0.9900  0.8854
 1024SOL    HW2 3223   2.978   0.971   1.764  0.8679  0.0754 -0.6878
 1025SOL     OW 3224   0.747   2.770   1.747 -0.1822  0.2506 -0.5022
 1025SOL    HW1 3225   0.800   2.787   1.669  0.7924 -1.2052 -0.2010
 1025SOL    HW2 3226   0.683   2.705   1.717 -0.0880  0.0224 -0.2071
 1026SOL     OW 3227   2.869   1.306   0.777 -0.0770 -0.8587 -0.7426
 1026SOL    HW1 3228   2.775   1.320   0.762  0.3313 -0.0249 -2.8170
 1026SOL    HW2 3229   2.884   1.214   0.754 -0.8077 -1.8663  2.3126
 1027SOL     OW 3230   0.330   2.089   0.810  0.1292 -0.1950 -0.0161
 1027SOL    HW1 3231   0.276   2.143   0.752 -0.6702  0.4469  1.2839
 1027SOL    HW2 3232   0.420   2.109   0.784 -0.1801  1.0083 -0.2197
 1028SOL     OW 3233   2.163   0.814   2.572 -0.0635  0.6231  0.0341
 1028SOL    HW1 3234   2.088   0.858   2.532 -1.3486 -0.7746  0.7966
 1028SOL    HW2 3235   2.133   0.790   2.660 -0.3671 -3.8109 -1.0639
 1029SOL     OW 3236   0.188   1.330   3.215  0.0157  0.1732  0.4309
 1029SOL    HW1 3237   0.136   1.401   3.253 -0.7010  0.9935 -1.8891
 1029SOL    HW2 3238   0.275   1.368   3.201  0.4952 -0.3542  1.8335
 1030SOL     OW 3239   2.473   0.841   0.242 -0.8928  0.5155  0.0005
 1030SOL    HW1 3240   2.444   0.869   0.329 -1.2039  0.5274 -0.1058
 1030SOL    HW2 3241   2.559   0.801   0.257 -1.0044  0.3969  0.3356
 1031SOL     OW 3242   1.300   1.666   1.001  0.1118  0.0076  0.1155
 1031SOL    HW1 3243   1.293   1.576   1.032  4.0467 -0.8807 -0.9806
 1031SOL    HW2 3244   1.362   1.708   1.062 -0.6785  1.6167 -0.1315
 1032SOL     OW 3245   1.229   3.232   0.607  0.0369  0.3957  0.0065
 1032SOL    HW1 3246   1.174   3.184   0.669  3.8757 -1.1900  2.5685
 1032SOL    HW2 3247   1.257   3.166   0.543  2.8750 -0.2529  1.7521
 1033SOL     OW 3248   3.536   1.500   3.294 -0.0394  0.1845 -0.1813
 1033SOL    HW1 3249   3.476   1.570   3.270  0.7760  1.5182  1.4754
 1033SOL    HW2 3250   3.577   1.475   3.212 -1.0066  1.0078 -0.9436
 1034SOL     OW 3251   3.442   1.212   3.151 -0.4228  0.0600 -0.3098
 1034SOL    HW1 3252   3.359   1.186   3.110  0.5895 -4.9002  0.1631
 1034SOL    HW2 3253   3.503   1.220   3.078 -0.5939  0.3861 -0.4189
 1035SOL     OW 3254   3.085   2.698   2.248 -0.6855 -0.3969 -0.3388
 1035SOL    HW1 3255   2.992   2.684   2.266 -0.5482 -2.3611 -1.0028
 1035SOL    HW2 3256   3.120   2.730   2.331 -1.8308 -0.2348  0.1068
 1036SOL     OW 3257   2.522   1.312   0.816  0.1592 -0.7641  0.2643
 1036SOL    HW1 3258   2.453   1.338   0.755  2.1951  0.0615 -1.8385
 1036SOL    HW2 3259   2.540   1.220   0.795  1.2174 -0.3348 -0.8266
 1037SOL     OW 3260   0.392  -0.005   2.326 -0.3634  0.3498 -0.2052
 1037SOL    HW1 3261   0.366   0.045   2.249  0.3310 -1.3009 -1.5788
 1037SOL    HW2 3262   0.486   0.011   2.336 -0.4822  0.6914  0.4157
 1038SOL     OW 3263   3.608   0.889   1.770  0.2266  0.3597  0.3445
 1038SOL    HW1 3264   3.646   0.804   1.747  1.3682  1.2885 -1.4033
 1038SOL    HW2 3265   3.563   0.873   1.853  2.2410 -1.4554  1.1899
 1039SOL     OW 3266   2.616   0.040   1.866  0.3063 -0.4294  0.3712
 1039SOL    HW1 3267   2.702   0.082   1.867 -0.8889  2.2066 -0.1565
 1039SOL    HW2 3268   2.597   0.025   1.774  0.8860 -2.6876  0.5588
 1040SOL     OW 3269   3.295   1.963   3.231  0.1155 -0.7450  0.3006
 1040SOL    HW1 3270   3.263   1.939   3.144 -0.2143  1.2837 -0.1845
 1040SOL    HW2 3271   3.331   2.051   3.220  0.5771 -0.6725  2.1016
 1041SOL     OW 3272   0.347   0.199   0.373  0.0715 -0.8987  0.0370
 1041SOL    HW1 3273   0.282   0.168   0.437  0.1670 -1.9577 -0.3620
 1041SOL    HW2 3274   0.430   0.161   0.402  0.4183 -0.0374  0.2055
 1042SOL     OW 3275   1.220   1.723   2.966  0.2699  0.0880 -0.6448
 1042SOL    HW1 3276   1.182   1.811   2.970  1.5955  0.8267 -2.6074
 1042SOL    HW2 3277   1.257   1.717   2.878  1.5993 -1.8627 -0.0188
 1043SOL     OW 3278   2.186   1.309   2.878  0.3875  0.5751  0.0296
 1043SOL    HW1 3279   2.189   1.404   2.881  2.4803  0.5678 -0.1690
 1043SOL    HW2 3280   2.245   1.286   2.806  0.1751 -0.8750  0.2892
 1044SOL     OW 3281   2.734   1.638   1.404  0.2025 -0.1131  0.4147
 1044SOL    HW1 3282   2.726   1.544   1.386  0.1874  0.0863 -0.7106
 1044SOL    HW2 3283   2.803   1.644   1.471  0.2161 -0.9219  0.4861
 1045SOL     OW 3284   1.138   0.602   1.425 -0.7515  0.1131 -0.2915
 1045SOL    HW1 3285   1.077   0.532   1.399 -0.9192  1.3817 -3.9905
 1045SOL    HW2 3286   1.224   0.561   1.423 -1.1603 -1.0215  2.2282
 1046SOL     OW 3287   2.843   1.979   0.296  0.2045  0.6455 -0.2150
 1046SOL    HW1 3288   2.880   1.905   0.249  0.1934  1.2293 -1.1691
 1046SOL    HW2 3289   2.901   1.990   0.372  0.1114 -0.4197  0.0233
 1047SOL     OW 3290   3.048   1.018   3.762  0.1156  0.0601  0.5537
 1047SOL    HW1 3291   3.011   0.931   3.745 -0.0339  0.2483 -0.1299
 1047SOL    HW2 3292   3.097   1.008   3.844 -0.9844 -0.3350  1.1903
 1048SOL     OW 3293   2.573   1.363   1.819 -0.0804 -0.2042  0.3053
 1048SOL    HW1 3294   2.609   1.449   1.838  0.9455 -1.2540  3.9174
 1048SOL    HW2 3295   2.526   1.374   1.736 -1.9887  4.3982  1.6616
 1049SOL     OW 3296   2.326   1.386   0.633  0.9464  0.2541  0.0181
 1049SOL    HW1 3297   2.403   1.368   0.578  0.9273 -0.3561  0.1831
 1049SOL    HW2 3298   2.252   1.358   0.580  0.8289  0.8475 -0.1423
 1050SOL     OW 3299   0.945   2.368   1.941  0.3064 -0.1328  0.0641
 1050SOL    HW1 3300   0.914   2.456   1.918 -0.1502  0.0921  1.4426
 1050SOL    HW2 3301   1.039   2.370   1.922  0.3206  0.6770  0.1701
 1051SOL     OW 3302   2.060   3.815   0.950  0.1019 -0.0459  0.1618
 1051SOL    HW1 3303   1.991   3.871   0.984 -3.6476 -4.1442  0.2058
 1051SOL    HW2 3304   2.092   3.767   1.026  1.0977 -0.1191 -0.2885
 1052SOL     OW 3305   3.125   0.356   2.479  0.3314  0.0303 -0.2604
 1052SOL    HW1 3306   3.119   0.265   2.450  0.1709  0.5378 -1.8689
 1052SOL    HW2 3307   3.057   0.364   2.547  0.1784 -0.9698 -0.2822
 1053SOL     OW 3308   1.606   1.734   3.351  0.6752  0.3154  0.2675
 1053SOL    HW1 3309   1.621   1.827   3.370 -1.0385  0.6708  0.0166
 1053SOL    HW2 3310   1.683   1.707   3.301  1.7010  1.3136  1.2379
 1054SOL     OW 3311   1.176   0.140   0.522  0.0016  0.0043 -0.2959
 1054SOL    HW1 3312   1.212   0.063   0.565 -0.8985 -0.8171 -0.9794
 1054SOL    HW2 3313   1.152   0.110   0.435  0.1619  1.2034 -0.7685
 1055SOL     OW 3314   0.548   1.160   1.825 -0.1158  0.0759 -0.0824
 1055SOL    HW1 3315   0.620   1.172   1.764  1.0332  0.2276  1.2591
 1055SOL    HW2 3316   0.499   1.242   1.821  0.5860  0.5079 -0.0040
 1056SOL     OW 3317   0.790   3.313   0.801 -0.5626  0.3320  0.2331
 1056SOL    HW1 3318   0.826   3.402   0.795  1.3671 -0.4193 -0.0407
 1056SOL    HW2 3319   0.794   3.293   0.895  0.2519  0.0616  0.1457
 1057SOL     OW 3320   0.297   1.783   3.359 -0.3572 -0.3549 -0.0753
 1057SOL    HW1 3321   0.316   1.855   3.419  0.0075  0.2008 -0.8450
 1057SOL    HW2 3322   0.205   1.796   3.335  0.0908  0.7180 -1.3239
 1058SOL     OW 3323   3.601   2.975   1.305  0.2061 -0.4770 -0.8940
 1058SOL    HW1 3324   3.601   2.974   1.401 -0.6507 -0.4213 -0.8884
 1058SOL    HW2 3325   3.677   3.029   1.282 -0.2292  0.4478 -0.2318
 1059SOL     OW 3326   1.294   2.466   1.650  0.4114 -0.2761  0.2668
 1059SOL    HW1 3327   1.231   2.430   1.588  0.0062 -1.3703  1.2925
 1059SOL    HW2 3328   1.379   2.447   1.610  0.1949 -1.8979  0.5026
 1060SOL     OW 3329   2.326   0.939   0.753  0.3296  0.2267  0.3484
 1060SOL    HW1 3330   2.239   0.960   0.787  0.0413 -0.1291 -0.1537
 1060SOL    HW2 3331   2.372   0.898   0.827 -0.4558 -0.9985  0.1770
 1061SOL     OW 3332   3.047   1.361   3.242  0.5453  0.0255  0.2914
 1061SOL    HW1 3333   3.007   1.446   3.226  0.3577  0.3847  2.3389
 1061SOL    HW2 3334   3.130   1.381   3.285  0.0821 -0.8080  1.6491
 1062SOL     OW 3335   2.698   3.396   2.517  0.1862  0.0083 -0.3125
 1062SOL    HW1 3336   2.725   3.418   2.606  1.5917 -0.4563 -0.6029
 1062SOL    HW2 3337   2.692   3.481   2.473  1.7371  0.1238 -0.3670
 1063SOL     OW 3338   3.481   2.665   0.868  0.2153 -0.3338 -0.0757
 1063SOL    HW1 3339   3.520   2.624   0.945 -0.9234  0.7309  1.1225
 1063SOL    HW2 3340   3.392   2.629   0.864 -0.2111  0.6512 -0.0233
 1064SOL     OW 3341   2.109   0.435   0.990 -0.7530  0.4159  0.3559
 1064SOL    HW1 3342   2.065   0.400   0.913 -0.0589  0.9531 -0.3009
 1064SOL    HW2 3343   2.099   0.530   0.981 -1.6355  0.4540  1.5203
 1065SOL     OW 3344   0.568   0.458   2.921  0.3161 -0.6286 -0.0862
 1065SOL    HW1 3345   0.617   0.526   2.967  0.1484 -0.2107 -0.5255
 1065SOL    HW2 3346   0.480   0.493   2.911 -0.0916 -1.3830  0.7078
 1066SOL     OW 3347   0.244   0.503   1.659  0.3963 -0.3153 -0.4137
 1066SOL    HW1 3348   0.247   0.599   1.654  0.7788 -0.3885 -2.1628
 1066SOL    HW2 3349   0.317   0.474   1.605 -0.3395 -1.5999 -0.7485
 1067SOL     OW 3350   2.507   3.231   2.644 -0.4404 -0.1130 -0.3266
 1067SOL    HW1 3351   2.426   3.250   2.596 -0.3928  0.0270 -0.3528
 1067SOL    HW2 3352   2.573   3.284   2.600 -0.2398 -0.5850 -0.6087
 1068SOL     OW 3353   3.554   2.876   3.145 -0.2104  0.0839 -0.7451
 1068SOL    HW1 3354   3.483   2.862   3.208  1.0498 -2.1571  0.3106
 1068SOL    HW2 3355   3.527   2.827   3.067  0.5692 -1.7182  0.0483
 1069SOL     OW 3356   3.005   2.154   1.132  0.2090 -0.0011 -0.1065
 1069SOL    HW1 3357   3.079   2.204   1.168 -0.3422  1.7253 -1.2625
 1069SOL    HW2 3358   2.927   2.200   1.165 -0.3674 -1.2384  0.3252
 1070SOL     OW 3359   1.537   2.508   2.824  0.1894 -0.6174 -0.8092
 1070SOL    HW1 3360   1.536   2.462   2.741  3.4347 -2.4853  0.0259
 1070SOL    HW2 3361   1.478   2.457   2.880 -1.7735  0.4822 -1.7487
 1071SOL     OW 3362   2.418   1.494   1.576  0.0866  0.6320  0.1219
 1071SOL    HW1 3363   2.383   1.413   1.539  2.8916 -0.8834  0.5615
 1071SOL    HW2 3364   2.443   1.546   1.500  0.7198 -0.0741 -0.1588
 1072SOL     OW 3365   1.923   0.945   2.463 -0.3655  0.7727 -0.1530
 1072SOL    HW1 3366   1.897   1.022   2.513 -0.3608  0.9261 -0.3872
 1072SOL    HW2 3367   1.848   0.886   2.468 -0.7695  1.2140 -0.8337
 1073SOL     OW 3368   1.638   0.293   3.689  0.3328  0.4382 -0.2781
 1073SOL    HW1 3369   1.552   0.334   3.689 -0.4901 -1.1410 -1.8378
 1073SOL    HW2 3370   1.692   0.348   3.633 -0.6909 -0.3573 -2.1618
 1074SOL     OW 3371   2.718   1.717   2.506  0.5008  0.2525 -0.0297
 1074SOL    HW1 3372   2.761   1.641   2.545  1.4280  1.0897  0.6164
 1074SOL    HW2 3373   2.673   1.682   2.429  0.9560 -0.9352  0.2238
 1075SOL     OW 3374   1.927   0.025   2.147 -0.7448  0.1090 -0.6329
 1075SOL    HW1 3375   1.837   0.012   2.115 -0.0452 -1.0796 -2.2945
 1075SOL    HW2 3376   1.928  -0.019   2.232 -1.5009 -0.7476 -1.0387
 1076SOL     OW 3377   1.254   1.169   2.281 -0.3473 -1.1146 -0.0301
 1076SOL    HW1 3378   1.339   1.201   2.309 -0.8891 -1.2483  1.9618
 1076SOL    HW2 3379   1.216   1.241   2.231  0.5425 -0.6934 -0.1148
 1077SOL     OW 3380   3.518   1.360   1.258  0.0597 -0.3563  0.2121
 1077SOL    HW1 3381   3.493   1.438   1.208  0.7153 -1.0584 -1.2499
 1077SOL    HW2 3382   3.553   1.300   1.193 -1.3183 -2.2767  1.1492
 1078SOL     OW 3383   0.227   0.387   2.537  0.7636  0.2736  0.2627
 1078SOL    HW1 3384   0.220   0.299   2.574  1.3097  0.5486  1.0545
 1078SOL    HW2 3385   0.136   0.412   2.519  0.3566  0.4933  2.3625
 1079SOL     OW 3386   2.712   2.760   1.345 -0.0062  0.0131 -0.0214
 1079SOL    HW1 3387   2.726   2.705   1.422  1.2288 -0.2860 -0.4442
 1079SOL    HW2 3388   2.617   2.757   1.331  0.0589 -2.4702 -0.3534
 1080SOL     OW 3389   2.498   1.174   1.489  0.0978  0.3395  0.2634
 1080SOL    HW1 3390   2.443   1.241   1.449 -0.0822 -0.5395 -1.0299
 1080SOL    HW2 3391   2.447   1.093   1.482  0.5131 -0.0467  1.3476
 1081SOL     OW 3392   0.979   1.079   1.480 -0.2592 -0.0670  0.2970
 1081SOL    HW1 3393   0.957   0.988   1.499  0.4405 -0.4808 -0.7495
 1081SOL    HW2 3394   1.031   1.108   1.555  0.7408 -0.9994 -0.0145
 1082SOL     OW 3395   1.739   2.088   0.817 -0.0432  0.2643 -0.0819
 1082SOL    HW1 3396   1.764   2.180   0.831  0.9902  0.0633 -0.5153
 1082SOL    HW2 3397   1.795   2.038   0.876  0.7890 -0.2189 -1.2520
 1083SOL     OW 3398   1.490   3.243   2.543 -0.1759  0.9334  0.9258
 1083SOL    HW1 3399   1.497   3.244   2.638  0.1039  0.9689  0.9068
 1083SOL    HW2 3400   1.453   3.157   2.522 -0.3037  0.9532  1.0700
 1084SOL     OW 3401   2.988   0.365   1.197  0.1602 -0.5800 -0.0568
 1084SOL    HW1 3402   2.961   0.449   1.159  0.3407 -0.5864 -0.2019
 1084SOL    HW2 3403   3.079   0.355   1.169  0.1958 -0.7346  0.1179
 1085SOL     OW 3404   1.224   1.430   1.114 -0.3826  0.1667  0.0722
 1085SOL    HW1 3405   1.142   1.435   1.063 -0.1936  0.3387 -0.2210
 1085SOL    HW2 3406   1.230   1.338   1.140 -1.2162  0.3631  1.0190
 1086SOL     OW 3407   3.754   1.822   0.232  0.1451 -0.0952  0.5890
 1086SOL    HW1 3408   3.831   1.863   0.271 -0.9861  1.6260  1.0899
 1086SOL    HW2 3409   3.694   1.808   0.305 -0.9609  0.7913 -0.1138
 1087SOL     OW 3410   0.014   3.100   1.317  0.0280  0.8231  0.6243
 1087SOL    HW1 3411   0.063   3.043   1.258  1.6948  0.1520  2.5552
 1087SOL    HW2 3412   0.081   3.147   1.367 -1.3185  1.8020  1.5810
 1088SOL     OW 3413   3.669   2.265   2.969 -0.1867  0.6143 -0.0231
 1088SOL    HW1 3414   3.590   2.234   3.014  1.0606 -2.7370  0.1788
 1088SOL    HW2 3415   3.722   2.305   3.037 -0.2656 -0.3106  0.6102
 1089SOL     OW 3416   3.707   0.344   0.176  0.3280 -0.1398  0.1417
 1089SOL    HW1 3417   3.718   0.331   0.270  0.7325  0.0079  0.1184
 1089SOL    HW2 3418   3.758   0.273   0.136 -0.4698 -0.6657  0.0351
 1090SOL     OW 3419   2.274   1.180   2.065  0.0432 -0.4527  0.0978
 1090SOL    HW1 3420   2.263   1.173   2.160  1.6280 -3.3300  0.1787
 1090SOL    HW2 3421   2.369   1.178   2.052  0.0178  2.6435 -1.4905
 1091SOL     OW 3422   0.269   1.242   3.542 -0.3285  0.1931 -0.3044
 1091SOL    HW1 3423   0.173   1.239   3.536 -0.3079 -1.1923 -0.2146
 1091SOL    HW2 3424   0.299   1.171   3.485  0.6434  0.5766 -0.2862
 1092SOL     OW 3425   3.439   2.601   0.035  0.1352 -0.1995  0.1299
 1092SOL    HW1 3426   3.345   2.618   0.034  0.0316 -0.5842 -2.6368
 1092SOL    HW2 3427   3.476   2.662  -0.028  1.8869  0.3896  1.6256
 1093SOL     OW 3428   3.589   0.917   0.513  0.2528  0.6603  0.2922
 1093SOL    HW1 3429   3.576   0.823   0.528  1.8524  0.4040  0.2613
 1093SOL    HW2 3430   3.682   0.926   0.495  0.4679  2.4765  1.8953
 1094SOL     OW 3431   3.264   1.348   3.407 -0.2859 -0.7050 -0.2111
 1094SOL    HW1 3432   3.351   1.364   3.369 -0.7341  1.0599 -0.5896
 1094SOL    HW2 3433   3.240   1.261   3.375  1.2771 -1.1826 -0.1931
 1095SOL     OW 3434   0.437   2.507   0.185 -0.7205 -0.2624  0.0645
 1095SOL    HW1 3435   0.418   2.434   0.126  1.4548 -2.9007  2.3195
 1095SOL    HW2 3436   0.367   2.503   0.251 -0.4581 -0.5333  0.3332
 1096SOL     OW 3437   1.784   3.715   3.315 -0.3632  0.1628  0.1064
 1096SOL    HW1 3438   1.725   3.687   3.245  0.5714 -0.9395 -0.2830
 1096SOL    HW2 3439   1.741   3.790   3.354 -1.0654  0.6305 -1.4607
 1097SOL     OW 3440   2.576   1.959   0.293 -0.3344 -0.2103  0.0542
 1097SOL    HW1 3441   2.584   1.867   0.270 -2.0733 -1.2763  3.1485
 1097SOL    HW2 3442   2.666   1.988   0.309  0.1327 -1.7574  0.3328
 1098SOL     OW 3443   0.022   2.235   1.274 -0.3626 -0.0161 -0.3077
 1098SOL    HW1 3444   0.016   2.278   1.188 -3.9848  0.9149  0.2417
 1098SOL    HW2 3445  -0.012   2.147   1.259 -0.2772 -0.1092  0.0440
 1099SOL     OW 3446   0.419   3.580   3.629 -0.1890  0.1178  0.1956
 1099SOL    HW1 3447   0.432   3.606   3.538 -0.7818 -0.3097 -0.0142
 1099SOL    HW2 3448   0.485   3.511   3.644 -0.4694 -0.2136 -0.0833
 1100SOL     OW 3449   3.106   1.618   0.463  0.5868  0.2964 -0.5034
 1100SOL    HW1 3450   3.177   1.567   0.501  0.8069  0.8202 -0.1969
 1100SOL    HW2 3451   3.033   1.608   0.524  0.8281  0.8481 -0.1134
 1101SOL     OW 3452   2.638   0.032   1.590  0.8669  0.3594 -0.1782
 1101SOL    HW1 3453   2.594   0.060   1.510  1.2047 -0.4354 -0.6659
 1101SOL    HW2 3454   2.725   0.071   1.584  1.4761 -1.0476 -1.0554
 1102SOL     OW 3455   1.131   2.648   2.777 -0.6917 -0.2749  0.0408
 1102SOL    HW1 3456   1.196   2.717   2.782 -1.0240  0.0412  0.0608
 1102SOL    HW2 3457   1.139   2.600   2.859  0.7171 -1.3372 -0.6851
 1103SOL     OW 3458   2.681   3.680   3.639  0.2117 -0.3280 -0.3667
 1103SOL    HW1 3459   2.607   3.639   3.684  0.8011 -1.6283 -0.5183
 1103SOL    HW2 3460   2.756   3.663   3.697  0.2783  1.7522  0.2312
 1104SOL     OW 3461   3.096   1.411   2.709 -0.2948 -0.0468 -0.6702
 1104SOL    HW1 3462   3.032   1.362   2.761  0.3514 -0.1844  0.0211
 1104SOL    HW2 3463   3.170   1.423   2.768  0.2613  0.2399 -1.4112
 1105SOL     OW 3464   2.003   0.433   0.317  0.1086  0.6564  0.6539
 1105SOL    HW1 3465   1.951   0.377   0.260  1.0115  0.4647  0.0133
 1105SOL    HW2 3466   2.007   0.385   0.400 -0.6861  0.6533  0.6998
 1106SOL     OW 3467   1.148   1.180   0.949  0.2255  0.6921 -0.1397
 1106SOL    HW1 3468   1.116   1.136   1.028  0.5966  0.9013  0.1334
 1106SOL    HW2 3469   1.114   1.270   0.956  1.4945  1.1522  0.5592
 1107SOL     OW 3470   2.645   0.521   3.199 -0.3686  0.5018 -0.0834
 1107SOL    HW1 3471   2.711   0.485   3.140 -0.6487 -1.2349  0.5952
 1107SOL    HW2 3472   2.602   0.590   3.148  0.1965 -0.1299 -1.4748
 1108SOL     OW 3473   2.615   0.126   2.652  0.3473 -0.0098 -0.3838
 1108SOL    HW1 3474   2.620   0.219   2.671  1.0791 -0.3944  1.4604
 1108SOL    HW2 3475   2.619   0.083   2.737  3.5511 -1.8591 -1.2911
 1109SOL     OW 3476   1.190   1.478   1.732  0.0738  0.6564  0.1371
 1109SOL    HW1 3477   1.204   1.566   1.698 -1.8322  2.1538  2.7992
 1109SOL    HW2 3478   1.230   1.480   1.820 -0.8892 -0.7840  0.6386
 1110SOL     OW 3479   0.794   3.059   1.618 -0.2571  0.2604 -0.1083
 1110SOL    HW1 3480   0.870   3.107   1.585 -0.0509 -0.1451 -0.2405
 1110SOL    HW2 3481   0.793   2.978   1.566  0.1553 -0.4571  0.9523
 1111SOL     OW 3482   1.582   0.257   2.126 -0.0618 -0.2193 -0.0601
 1111SOL    HW1 3483   1.564   0.327   2.190  1.1613 -0.8330  0.9832
 1111SOL    HW2 3484   1.525   0.185   2.153  0.1741 -0.3461  0.0932
 1112SOL     OW 3485   2.795   0.865   3.435  0.3164  0.0339  0.1541
 1112SOL    HW1 3486   2.880   0.820   3.439  0.4858  0.2520 -0.6999
 1112SOL    HW2 3487   2.817   0.958   3.448  0.3302  0.1945 -0.9152
 1113SOL     OW 3488   3.465   2.671   2.462  0.1433 -0.3299  0.0204
 1113SOL    HW1 3489   3.445   2.580   2.441  1.3134 -0.2866 -1.4338
 1113SOL    HW2 3490   3.560   2.674   2.469  0.1748  0.9012 -0.6541
 1114SOL     OW 3491   2.056   3.217   0.794 -0.2954 -0.4662  0.6307
 1114SOL    HW1 3492   2.094   3.304   0.783 -0.4035 -0.5163 -0.2169
 1114SOL    HW2 3493   2.124   3.167   0.839 -0.1037 -0.0341  0.8258
 1115SOL     OW 3494   3.188   2.011   2.196 -0.7938  0.7366  0.0432
 1115SOL    HW1 3495   3.134   2.040   2.123 -2.1947  0.5798  0.9705
 1115SOL    HW2 3496   3.214   1.921   2.174 -0.3718  1.0338 -0.6930
 1116SOL     OW 3497   3.238   2.786   2.570 -0.0747 -0.2537  0.0652
 1116SOL    HW1 3498   3.317   2.751   2.529  1.0903  0.3067  1.7188
 1116SOL    HW2 3499   3.265   2.870   2.606 -2.1802  1.3173 -1.7347
 1117SOL     OW 3500   0.122   3.807   1.783  0.5487  0.0610 -0.0861
 1117SOL    HW1 3501   0.183   3.747   1.740 -1.4354 -2.1294 -0.0160
 1117SOL    HW2 3502   0.055   3.824   1.716  1.1220  2.3962 -0.1553
 1118SOL     OW 3503   3.464   2.993   2.562  0.0252  0.2255  0.3298
 1118SOL    HW1 3504   3.456   2.998   2.466 -0.1770  1.3619  0.3930
 1118SOL    HW2 3505   3.532   2.927   2.576  0.3381  0.3205 -0.6131
 1119SOL     OW 3506   3.115   0.695   2.127  0.3396 -0.9043  0.5500
 1119SOL    HW1 3507   3.184   0.729   2.070  1.0546 -2.2963  0.5619
 1119SOL    HW2 3508   3.158   0.630   2.182 -0.8209 -1.2426  1.1008
 1120SOL     OW 3509   2.088   1.468   0.260  0.3675 -0.1576 -0.4263
 1120SOL    HW1 3510   2.035   1.393   0.235  1.4354 -0.5675 -1.5799
 1120SOL    HW2 3511   2.120   1.448   0.348 -1.5177  0.1909  0.3677
 1121SOL     OW 3512   1.155   1.193   1.700  0.1390  1.1136 -0.1282
 1121SOL    HW1 3513   1.159   1.286   1.680  2.0371  0.9897 -0.5685
 1121SOL    HW2 3514   1.077   1.183   1.754 -0.9769  2.6879 -1.3493
 1122SOL     OW 3515   3.182   3.558   1.139 -0.0436 -0.6774  0.2809
 1122SOL    HW1 3516   3.255   3.619   1.149 -0.4716 -0.4790  2.7726
 1122SOL    HW2 3517   3.148   3.576   1.051  1.8374  0.3979 -0.2820
 1123SOL     OW 3518   1.238   1.843   1.396 -0.3020  0.3500  0.8317
 1123SOL    HW1 3519   1.301   1.915   1.406  0.2236  0.1354 -0.6585
 1123SOL    HW2 3520   1.290   1.769   1.365 -1.3060  0.2812 -0.8222
 1124SOL     OW 3521   0.481   2.001   1.326 -0.0768  0.0583  0.2753
 1124SOL    HW1 3522   0.458   1.969   1.238  0.5420 -2.9382  1.0812
 1124SOL    HW2 3523   0.397   2.016   1.368 -0.4290 -0.5742 -0.1681
 1125SOL     OW 3524   3.700   3.564   2.667  0.1870  0.0565  0.2077
 1125SOL    HW1 3525   3.696   3.651   2.707  0.3970 -0.0103  0.3808
 1125SOL    HW2 3526   3.613   3.550   2.630 -0.1041  0.0099  0.8878
 1126SOL     OW 3527   0.956   1.590   2.016  0.4943 -0.4341  0.7089
 1126SOL    HW1 3528   0.952   1.513   2.073  1.6775 -0.1828  1.1707
 1126SOL    HW2 3529   0.936   1.664   2.074  0.6899 -0.2727  0.5705
 1127SOL     OW 3530   3.729   0.222   0.471  0.1357 -0.6208 -0.2103
 1127SOL    HW1 3531   3.745   0.213   0.565 -0.5192 -1.0471 -0.1384
 1127SOL    HW2 3532   3.719   0.316   0.458  2.2800 -0.3289 -0.2008
 1128SOL     OW 3533   2.231   2.315   2.832  0.1854 -0.4822 -0.0684
 1128SOL    HW1 3534   2.279   2.313   2.750 -0.3369 -1.2974 -0.3610
 1128SOL    HW2 3535   2.182   2.398   2.829 -0.1649 -0.7077 -0.7739
 1129SOL     OW 3536   0.179   0.546   0.047  0.4461  0.1064  0.6480
 1129SOL    HW1 3537   0.269   0.525   0.072  0.7885  1.7092  0.9119
 1129SOL    HW2 3538   0.175   0.530  -0.047  1.1635  0.4587  0.5534
 1130SOL     OW 3539   2.903   2.683   3.119 -0.4874 -0.1077  0.4694
 1130SOL    HW1 3540   2.833   2.703   3.056  0.2525 -0.1894 -0.3986
 1130SOL    HW2 3541   2.857   2.666   3.201 -1.5531 -1.0185 -0.2941
 1131SOL     OW 3542   0.504   0.298   3.175  0.1539 -0.0661 -0.2760
 1131SOL    HW1 3543   0.517   0.329   3.086 -0.7523 -0.5066 -0.5693
 1131SOL    HW2 3544   0.592   0.289   3.211  0.4958  0.8829 -0.8576
 1132SOL     OW 3545   2.833   0.361  -0.014  0.1680  0.6297 -0.0144
 1132SOL    HW1 3546   2.762   0.362   0.050 -1.2677 -0.9790 -1.4749
 1132SOL    HW2 3547   2.850   0.268  -0.030  1.1854  0.9965 -1.2268
 1133SOL     OW 3548   2.936   2.841   3.492  0.2242 -0.2554 -0.2760
 1133SOL    HW1 3549   2.869   2.774   3.482 -0.0077  0.0001 -0.4525
 1133SOL    HW2 3550   2.888   2.924   3.487  0.2846 -0.0835  1.5499
 1134SOL     OW 3551   1.859   2.936   0.847 -0.3926  0.0109 -0.0718
 1134SOL    HW1 3552   1.891   2.846   0.850 -1.5912 -0.4449 -0.4233
 1134SOL    HW2 3553   1.861   2.965   0.938 -0.3314 -0.4987  0.0941
 1135SOL     OW 3554   0.862   1.886   2.167 -0.4730 -0.0238 -0.0872
 1135SOL    HW1 3555   0.783   1.841   2.196 -0.0052  0.3269  1.9082
 1135SOL    HW2 3556   0.832   1.973   2.140 -0.8990 -0.2793 -0.4570
 1136SOL     OW 3557   2.157   3.879   2.727  0.2574  0.5892  0.4303
 1136SOL    HW1 3558   2.219   3.813   2.697  2.4745  1.8306  1.9286
 1136SOL    HW2 3559   2.089   3.830   2.773  0.1838 -0.8034 -1.0850
 1137SOL     OW 3560   0.175   2.269   2.474  0.9248 -0.2305  0.3835
 1137SOL    HW1 3561   0.122   2.202   2.517  2.0406 -1.1533  0.3647
 1137SOL    HW2 3562   0.111   2.329   2.436 -0.0907 -0.5393  1.5458
 1138SOL     OW 3563   3.437   1.118   0.056 -0.0562  0.6833  0.7817
 1138SOL    HW1 3564   3.363   1.070   0.092  0.6356 -0.1882  1.0746
 1138SOL    HW2 3565   3.512   1.090   0.108  0.8982 -0.2406 -0.9735
 1139SOL     OW 3566   2.895   2.007   3.091  0.0795  0.2074  0.3887
 1139SOL    HW1 3567   2.801   1.994   3.101 -0.1293  1.7379  0.7614
 1139SOL    HW2 3568   2.931   1.989   3.178  0.3740 -1.8952 -0.1161
 1140SOL     OW 3569   3.504   0.398   1.514 -0.7219  0.6971  1.0710
 1140SOL    HW1 3570   3.544   0.426   1.432 -1.2915 -1.9710 -0.2159
 1140SOL    HW2 3571   3.419   0.443   1.516 -0.1166  1.8740  0.9433
 1141SOL     OW 3572   2.906   0.965   0.466  0.1577 -0.2799  0.1232
 1141SOL    HW1 3573   2.855   0.971   0.384  1.4011  0.0015 -0.6604
 1141SOL    HW2 3574   2.881   0.881   0.503  1.2406 -1.5257 -1.7541
 1142SOL     OW 3575   0.029   1.804   0.858  0.4811  0.0970  0.4229
 1142SOL    HW1 3576  -0.041   1.868   0.864 -0.5800 -1.0362  0.6582
 1142SOL    HW2 3577   0.024   1.755   0.941  1.7333  0.1813  0.5620
 1143SOL     OW 3578   1.417   2.829   2.002 -0.9760  0.1214 -0.1136
 1143SOL    HW1 3579   1.354   2.811   1.932  0.2343  0.2677 -1.2963
 1143SOL    HW2 3580   1.382   2.906   2.047 -1.5611  0.2939 -0.8482
 1144SOL     OW 3581   3.201   1.940   1.759  0.5302  0.2024  0.1776
 1144SOL    HW1 3582   3.252   2.012   1.722  1.3104 -0.9655 -1.1598
 1144SOL    HW2 3583   3.154   1.903   1.684  3.0516 -2.9745 -0.0587
 1145SOL     OW 3584   0.205   3.545   3.224 -0.3503 -0.7124 -0.0091
 1145SOL    HW1 3585   0.222   3.462   3.268 -1.3806  0.0438  1.9180
 1145SOL    HW2 3586   0.117   3.535   3.187  0.1797 -1.0386 -1.2407
 1146SOL     OW 3587   0.491   1.751   2.497 -0.7542  1.0375  0.0165
 1146SOL    HW1 3588   0.476   1.745   2.592  2.3488 -0.2128  0.5504
 1146SOL    HW2 3589   0.508   1.844   2.482 -3.0769  1.5666  0.2735
 1147SOL     OW 3590   1.989   1.351   2.071 -1.1643  0.2269 -0.2614
 1147SOL    HW1 3591   1.928   1.301   2.126 -1.3403  0.3860 -0.3117
 1147SOL    HW2 3592   2.075   1.326   2.103 -1.1315 -2.0020 -1.8582
 1148SOL     OW 3593   0.854   0.619   2.353 -0.6259  0.1151  0.0845
 1148SOL    HW1 3594   0.898   0.620   2.268 -1.3356  1.2589 -0.2892
 1148SOL    HW2 3595   0.767   0.586   2.334 -1.1709  1.4614  0.1500
 1149SOL     OW 3596   1.685   2.517   3.205  0.1788  0.0055  0.2483
 1149SOL    HW1 3597   1.601   2.473   3.214 -0.7287  1.4291 -0.7545
 1149SOL    HW2 3598   1.663   2.610   3.200  2.0246  0.6659  2.6408
 1150SOL     OW 3599   2.648   0.873   1.052 -0.8724  0.5634  0.2952
 1150SOL    HW1 3600   2.594   0.950   1.072 -0.0959  0.8061  1.5523
 1150SOL    HW2 3601   2.586   0.810   1.015 -1.8731  1.1338  0.9461
 1151SOL     OW 3602   3.727   3.641   0.646 -0.2852  0.1401 -0.2264
 1151SOL    HW1 3603   3.660   3.573   0.639  1.5921 -1.8534 -0.2324
 1151SOL    HW2 3604   3.713   3.680   0.732 -2.5199  1.0548 -0.9525
 1152SOL     OW 3605   1.675   0.709   2.344 -0.4335  0.3813 -0.2394
 1152SOL    HW1 3606   1.658   0.793   2.301 -1.8852  0.2912  0.0825
 1152SOL    HW2 3607   1.701   0.733   2.433 -2.1739  0.5190  0.2804
 1153SOL     OW 3608   2.857   0.971   0.807  0.2784  0.2555 -0.5827
 1153SOL    HW1 3609   2.953   0.967   0.812  0.2337  0.1249  2.0428
 1153SOL    HW2 3610   2.829   0.966   0.899 -2.2528  0.4023 -1.2783
 1154SOL     OW 3611   2.800   2.566   2.344  0.3421 -0.0025  0.9590
 1154SOL    HW1 3612   2.817   2.558   2.438  0.7129 -2.7905  0.7258
 1154SOL    HW2 3613   2.812   2.478   2.310 -4.3571 -0.1713 -1.0051
 1155SOL     OW 3614   1.375   3.697   2.091 -0.7533  0.0066  0.5329
 1155SOL    HW1 3615   1.328   3.778   2.110  0.9607  1.2462 -0.2651
 1155SOL    HW2 3616   1.333   3.663   2.012 -0.8340  0.6951  0.2681
 1156SOL     OW 3617   2.064   2.663   2.003 -0.3594  0.2139 -0.4439
 1156SOL    HW1 3618   1.984   2.709   1.978 -0.5198 -0.0233 -0.3712
 1156SOL    HW2 3619   2.089   2.613   1.926 -0.8240 -0.4752 -0.1498
 1157SOL     OW 3620   3.356   2.832   3.701  0.2204 -0.5237 -0.2505
 1157SOL    HW1 3621   3.285   2.787   3.656 -0.8011  0.6853  0.0887
 1157SOL    HW2 3622   3.351   2.923   3.669  0.3261  0.0430  1.2465
 1158SOL     OW 3623   3.602   2.105   0.307  0.1449 -0.1442  0.0662
 1158SOL    HW1 3624   3.575   2.034   0.249  3.1296 -0.2428 -1.3788
 1158SOL    HW2 3625   3.552   2.182   0.277 -2.0351 -1.2188  0.7187
 1159SOL     OW 3626   3.315   2.402   2.969 -0.9537  0.2849 -0.1407
 1159SOL    HW1 3627   3.305   2.481   3.024 -0.6539  0.3483 -0.1761
 1159SOL    HW2 3628   3.330   2.436   2.881  1.4228  0.2527  0.1828
 1160SOL     OW 3629   3.707   1.241   1.077  0.1436  0.2799  0.0923
 1160SOL    HW1 3630   3.739   1.329   1.061  1.6125 -0.6225 -2.6170
 1160SOL    HW2 3631   3.758   1.210   1.152 -1.5172  2.1769  2.1225
 1161SOL     OW 3632   2.949   0.604   1.764 -0.8004 -0.1191  0.3758
 1161SOL    HW1 3633   2.998   0.548   1.825  0.1874  1.1078  0.7381
 1161SOL    HW2 3634   2.912   0.673   1.819 -2.6669 -0.7864  0.0449
 1162SOL     OW 3635   1.605   0.336   2.692  0.5090 -0.3405 -0.3962
 1162SOL    HW1 3636   1.644   0.252   2.714  0.5875 -0.5989 -1.4769
 1162SOL    HW2 3637   1.629   0.393   2.765  0.3609 -1.2662  0.4014
 1163SOL     OW 3638   1.479   1.710   1.723 -0.1713  0.3346  0.9772
 1163SOL    HW1 3639   1.384   1.699   1.718  0.0792 -1.6604 -0.7877
 1163SOL    HW2 3640   1.492   1.803   1.742 -2.4359  1.5695 -2.6262
 1164SOL     OW 3641   1.837   3.091   2.333 -0.6205 -0.1012 -0.4029
 1164SOL    HW1 3642   1.793   3.137   2.405 -0.2442  1.4876 -1.1241
 1164SOL    HW2 3643   1.770   3.084   2.265  0.0547  2.0468 -1.3852
 1165SOL     OW 3644   3.189   2.603   0.033  0.1854  0.0851 -0.6469
 1165SOL    HW1 3645   3.191   2.520   0.082 -0.6368 -0.2388 -1.1367
 1165SOL    HW2 3646   3.103   2.604  -0.008 -0.3359  1.8039  0.3904
 1166SOL     OW 3647   2.560   1.805   1.751 -0.3707  0.2116  0.3505
 1166SOL    HW1 3648   2.623   1.866   1.789 -0.1842 -0.5605  1.3395
 1166SOL    HW2 3649   2.604   1.720   1.755 -1.4522 -0.3343  1.0216
 1167SOL     OW 3650   0.701   0.221   0.659 -0.4084  0.2831  0.0724
 1167SOL    HW1 3651   0.617   0.208   0.704 -0.5390 -0.1535 -0.2840
 1167SOL    HW2 3652   0.688   0.180   0.573  0.6689 -1.2168  0.5780
 1168SOL     OW 3653   2.462   0.299   3.082  0.2568 -0.0394 -0.0733
 1168SOL    HW1 3654   2.513   0.244   3.022 -0.7102  1.8945 -2.8316
 1168SOL    HW2 3655   2.528   0.356   3.122  0.6525  0.4098 -1.3114
 1169SOL     OW 3656   2.258   0.661   2.338  0.5046 -0.2119 -0.3857
 1169SOL    HW1 3657   2.190   0.701   2.284 -0.7365 -0.3340  1.0417
 1169SOL    HW2 3658   2.211   0.616   2.408  2.0465 -0.3702  0.6058
 1170SOL     OW 3659   2.424   1.089   3.490  0.6997 -0.3860 -0.4211
 1170SOL    HW1 3660   2.362   1.037   3.439 -0.2148  2.2358 -2.1641
 1170SOL    HW2 3661   2.476   1.024   3.537 -0.3225 -2.8766 -2.4697
 1171SOL     OW 3662   0.123   1.318   3.822 -0.2666 -0.5776 -0.0599
 1171SOL    HW1 3663   0.191   1.253   3.839 -1.7963 -1.9098  1.3784
 1171SOL    HW2 3664   0.111   1.315   3.727  0.5599 -1.5211 -0.1540
 1172SOL     OW 3665   1.460   1.826   3.644  0.1892 -0.5721  0.6173
 1172SOL    HW1 3666   1.548   1.853   3.618 -0.4897  0.9816 -0.1993
 1172SOL    HW2 3667   1.474   1.754   3.705  1.9700 -2.2581 -1.5923
 1173SOL     OW 3668   2.044   2.935   0.371 -0.3949 -0.4553  0.4162
 1173SOL    HW1 3669   2.034   2.851   0.416 -0.5530  0.4482  2.1855
 1173SOL    HW2 3670   2.072   2.995   0.440  0.1072  0.8691 -0.8896
 1174SOL     OW 3671   2.490   0.016   3.276  0.7358 -0.9094 -0.2184
 1174SOL    HW1 3672   2.548   0.017   3.199  0.0837 -0.7192 -0.7172
 1174SOL    HW2 3673   2.523   0.086   3.331  1.2675 -1.1050 -0.2768
 1175SOL     OW 3674   2.794   2.158   0.911 -0.0383  0.5306 -0.5505
 1175SOL    HW1 3675   2.869   2.101   0.930 -1.3305 -0.9034  0.5192
 1175SOL    HW2 3676   2.773   2.140   0.819  0.3187  0.2111 -0.5737
 1176SOL     OW 3677   0.509   3.622   1.345  0.0124  0.0454  0.2122
 1176SOL    HW1 3678   0.422   3.595   1.316  0.4760  1.3569 -2.7607
 1176SOL    HW2 3679   0.514   3.715   1.324  2.0330  0.0777  0.6005
 1177SOL     OW 3680   0.621   2.718   0.560  0.1568 -0.9644 -0.2090
 1177SOL    HW1 3681   0.553   2.741   0.497  0.5405  1.2852  0.1456
 1177SOL    HW2 3682   0.700   2.763   0.528  1.3667 -2.9440 -0.2261
 1178SOL     OW 3683   0.067   2.759   2.672  0.3626 -0.3183  0.0986
 1178SOL    HW1 3684   0.073   2.696   2.743  0.3635  0.1741  0.5421
 1178SOL    HW2 3685   0.133   2.730   2.609  0.5840 -0.5758  0.4456
 1179SOL     OW 3686   0.334   1.552   2.422  0.2648 -0.6776  0.3669
 1179SOL    HW1 3687   0.265   1.598   2.375  0.2022 -0.5345  0.5969
 1179SOL    HW2 3688   0.393   1.621   2.452 -1.3410 -0.3815  3.2305
 1180SOL     OW 3689   2.139   2.634   0.383  0.4378 -0.3942  0.3031
 1180SOL    HW1 3690   2.205   2.567   0.365  1.0474  0.6507 -1.6214
 1180SOL    HW2 3691   2.180   2.716   0.356 -0.8508  0.5696  1.1770
 1181SOL     OW 3692   2.404   3.466   1.377 -0.0158 -0.1047 -0.3909
 1181SOL    HW1 3693   2.310   3.476   1.392  0.1066  2.4199 -0.8700
 1181SOL    HW2 3694   2.444   3.482   1.462  0.0232 -0.6055 -0.3114
 1182SOL     OW 3695   0.507   0.561   0.641  0.2888 -0.6380  0.2528
 1182SOL    HW1 3696   0.471   0.609   0.566 -0.1665  2.2162  2.1537
 1182SOL    HW2 3697   0.569   0.499   0.602 -1.3624 -0.6599 -2.5894
 1183SOL     OW 3698   3.144   3.341   0.028 -0.3174 -0.2750 -0.5110
 1183SOL    HW1 3699   3.229   3.380   0.011 -1.3505  2.4713  0.1075
 1183SOL    HW2 3700   3.163   3.263   0.080  1.7800  0.3973 -0.2011
 1184SOL     OW 3701   1.863   1.015   0.335  0.0570 -0.3531  0.1017
 1184SOL    HW1 3702   1.772   0.984   0.339 -0.2162  0.4530  0.4354
 1184SOL    HW2 3703   1.914   0.946   0.378 -0.8077  0.5974  2.9153
 1185SOL     OW 3704   2.405   0.929   1.405 -0.2141 -0.3724 -0.0351
 1185SOL    HW1 3705   2.359   0.886   1.333 -0.3843 -2.1486  1.0745
 1185SOL    HW2 3706   2.403   0.865   1.476 -2.0483  2.1093  2.3595
 1186SOL     OW 3707  -0.011   1.599   3.098 -0.3271  0.9654 -0.6367
 1186SOL    HW1 3708   0.044   1.677   3.084  1.2209 -0.1403 -0.9807
 1186SOL    HW2 3709  -0.011   1.587   3.193  2.1150 -0.3812 -0.7205
 1187SOL     OW 3710   1.734   2.800   3.060 -0.3795 -0.0820  0.0619
 1187SOL    HW1 3711   1.647   2.797   3.099  0.3942 -2.0940  1.8333
 1187SOL    HW2 3712   1.718   2.797   2.966 -2.2415  1.1782  0.2922
 1188SOL     OW 3713   3.794   2.867   1.037 -0.0944  0.2673  1.1561
 1188SOL    HW1 3714   3.819   2.828   1.120 -1.6624  0.2810  1.6641
 1188SOL    HW2 3715   3.785   2.794   0.977 -1.5627 -0.0323  1.7137
 1189SOL     OW 3716   3.673   2.478   3.710  0.3636  0.2223 -0.4445
 1189SOL    HW1 3717   3.638   2.536   3.778 -1.5904 -0.4955 -0.7660
 1189SOL    HW2 3718   3.596   2.452   3.659  1.4371 -1.2393 -1.3930
 1190SOL     OW 3719   0.976   0.010   2.999  0.3104 -0.4643  0.2759
 1190SOL    HW1 3720   0.903  -0.042   2.966  0.7814 -0.0450 -1.5347
 1190SOL    HW2 3721   0.949   0.101   2.984  1.0575 -0.3008 -0.1300
 1191SOL     OW 3722   2.951   2.451   2.666  0.0686 -0.7834  0.4301
 1191SOL    HW1 3723   2.877   2.392   2.653 -0.0499 -0.4159 -0.6830
 1191SOL    HW2 3724   2.950   2.470   2.760 -2.1145  0.3150  0.2550
 1192SOL     OW 3725   0.742   0.894   0.547 -0.5900  0.1135  0.0171
 1192SOL    HW1 3726   0.760   0.987   0.530  2.7344 -0.1612  1.3002
 1192SOL    HW2 3727   0.699   0.892   0.632  2.1611  0.4160  1.5014
 1193SOL     OW 3728   2.231   2.829   1.629  0.1214  0.1662 -0.1862
 1193SOL    HW1 3729   2.314   2.854   1.670  0.0963 -1.1353  0.7206
 1193SOL    HW2 3730   2.199   2.756   1.682 -1.4108  0.3816 -0.7650
 1194SOL     OW 3731   2.495   0.076   0.966 -0.1849 -0.0908  0.0621
 1194SOL    HW1 3732   2.419   0.122   0.931 -0.5531 -0.4580  0.3681
 1194SOL    HW2 3733   2.460  -0.006   0.999  0.4577 -0.5717 -0.4323
 1195SOL     OW 3734   0.420   0.552   2.396  0.7573 -0.3693  0.0406
 1195SOL    HW1 3735   0.446   0.605   2.471  0.6048 -0.5420  0.2183
 1195SOL    HW2 3736   0.361   0.486   2.433  1.2719 -0.9203 -0.1082
 1196SOL     OW 3737   2.432   0.439   2.356 -0.5033 -0.3378  0.4530
 1196SOL    HW1 3738   2.407   0.509   2.295 -0.5727  0.8509  1.7985
 1196SOL    HW2 3739   2.524   0.454   2.374 -0.3700 -0.9579  0.3198
 1197SOL     OW 3740   0.852   3.812   1.484  0.2052  0.4793  0.3305
 1197SOL    HW1 3741   0.775   3.762   1.511  0.0210  1.0595  0.8936
 1197SOL    HW2 3742   0.844   3.895   1.530  0.7540  0.8537 -0.2333
 1198SOL     OW 3743   0.782   1.163   0.015  0.2079 -0.0352 -0.0247
 1198SOL    HW1 3744   0.735   1.080   0.005  0.9711 -0.3809 -0.9862
 1198SOL    HW2 3745   0.727   1.215   0.073 -2.9308  0.7369 -3.3232
 1199SOL     OW 3746   2.997   3.073   1.864  0.0798  0.2315  0.1032
 1199SOL    HW1 3747   3.048   3.036   1.936  0.9865 -0.0290 -0.6549
 1199SOL    HW2 3748   2.946   3.143   1.905 -0.0643 -0.4570  1.1484
 1200SOL     OW 3749   3.472   2.120   2.110  0.1108 -0.0401 -0.5599
 1200SOL    HW1 3750   3.523   2.087   2.184 -0.8042 -0.7381 -0.2212
 1200SOL    HW2 3751   3.412   2.183   2.149 -0.0536 -0.0582 -0.7847
 1201SOL     OW 3752   0.617   1.662   3.134 -0.0433 -0.1126  0.2149
 1201SOL    HW1 3753   0.702   1.676   3.175 -0.3262  1.6652  0.2682
 1201SOL    HW2 3754   0.638   1.641   3.042  0.4517  0.1674  0.2613
 1202SOL     OW 3755   2.218   1.426   3.572 -0.2825 -0.4542  0.1113
 1202SOL    HW1 3756   2.146   1.409   3.511 -1.1764  1.2678  0.6195
 1202SOL    HW2 3757   2.296   1.425   3.517 -1.0283  0.7088 -1.0320
 1203SOL     OW 3758   0.363   3.289   0.940 -0.4222 -0.0547 -0.4255
 1203SOL    HW1 3759   0.428   3.310   1.007  0.8281 -1.8912 -0.9820
 1203SOL    HW2 3760   0.316   3.371   0.925  1.1100  1.0777  0.7180
 1204SOL     OW 3761   1.016   0.383   3.448  0.4629 -0.2649 -0.0970
 1204SOL    HW1 3762   0.957   0.315   3.481  0.4414  0.3601  1.1748
 1204SOL    HW2 3763   0.998   0.385   3.353 -0.1188 -1.4495 -0.0335
 1205SOL     OW 3764   0.151   2.204   2.916  0.6830 -0.6242  0.1665
 1205SOL    HW1 3765   0.183   2.143   2.850 -2.2003 -1.7342 -0.3314
 1205SOL    HW2 3766   0.148   2.153   2.997 -0.7551 -0.8850 -0.0286
 1206SOL     OW 3767   2.664   1.377   1.301  0.1305  0.0937  0.3860
 1206SOL    HW1 3768   2.695   1.288   1.317  1.5442  0.0775 -1.9830
 1206SOL    HW2 3769   2.591   1.366   1.239  0.6052  0.5782 -0.2745
 1207SOL     OW 3770   3.592   0.038   1.933  0.8242 -0.0686 -0.6320
 1207SOL    HW1 3771   3.638   0.121   1.948  0.2934 -0.3486  3.8727
 1207SOL    HW2 3772   3.515   0.063   1.882  1.8672  1.7744 -1.4099
 1208SOL     OW 3773   0.137   1.569   1.725 -0.5801  0.2461  0.4602
 1208SOL    HW1 3774   0.120   1.479   1.753 -1.5259 -0.7284 -2.7777
 1208SOL    HW2 3775   0.148   1.618   1.806 -0.2493 -2.7196  2.3610
 1209SOL     OW 3776   0.982   1.176   2.768  0.5790  0.2163  0.5176
 1209SOL    HW1 3777   0.948   1.097   2.808  1.2860 -0.6677 -0.5555
 1209SOL    HW2 3778   0.943   1.248   2.818 -1.7123 -0.7507  0.2297
 1210SOL     OW 3779   3.125   3.208   1.554  0.2230  0.4289  0.6673
 1210SOL    HW1 3780   3.209   3.228   1.513  0.5297  1.8947  1.9187
 1210SOL    HW2 3781   3.070   3.175   1.482  1.3166  1.1064 -0.5143
 1211SOL     OW 3782   2.811   2.832   3.755  0.4232  0.3341  0.1869
 1211SOL    HW1 3783   2.869   2.868   3.688 -1.2988  1.6405 -0.6777
 1211SOL    HW2 3784   2.837   2.876   3.836  0.7840  0.7166 -0.1341
 1212SOL     OW 3785   0.351   2.831   0.054 -0.3611  0.2114  0.3029
 1212SOL    HW1 3786   0.327   2.744   0.023 -1.4310 -0.2489  2.2628
 1212SOL    HW2 3787   0.269   2.880   0.057  0.1404  1.1182 -0.1937
 1213SOL     OW 3788   0.372   0.319   1.144 -0.6620 -0.2634  0.2093
 1213SOL    HW1 3789   0.365   0.409   1.113  0.2957 -0.5978 -1.0699
 1213SOL    HW2 3790   0.432   0.277   1.083 -1.7568 -2.0076  0.2612
 1214SOL     OW 3791   3.462   1.344   2.072 -0.3589  0.7808 -0.5426
 1214SOL    HW1 3792   3.445   1.291   2.150 -0.2495  1.3895 -0.1017
 1214SOL    HW2 3793   3.375   1.360   2.035 -0.4300  0.7106 -0.4058
 1215SOL     OW 3794   0.856   0.155   1.121 -0.1649 -0.2540 -0.2328
 1215SOL    HW1 3795   0.881   0.064   1.139 -3.1103 -1.3326 -1.1307
 1215SOL    HW2 3796   0.884   0.169   1.030  0.6403 -0.1082  0.0301
 1216SOL     OW 3797   2.165   1.228   3.167 -0.4718  0.0110 -0.0345
 1216SOL    HW1 3798   2.192   1.227   3.075 -1.5474  0.9907 -0.3788
 1216SOL    HW2 3799   2.069   1.233   3.164 -0.6995 -2.1860  1.1396
 1217SOL     OW 3800   2.168   2.058   3.484 -0.9193 -0.0055 -0.3899
 1217SOL    HW1 3801   2.104   2.110   3.532  1.4526  1.2120  1.6701
 1217SOL    HW2 3802   2.239   2.043   3.546 -0.4254 -3.8561 -1.5934
 1218SOL     OW 3803   3.207   0.453   2.257 -0.3961 -0.6187  0.1226
 1218SOL    HW1 3804   3.167   0.402   2.187 -0.2985 -0.3776 -0.1110
 1218SOL    HW2 3805   3.167   0.420   2.337  0.8155 -2.1839  0.1278
 1219SOL     OW 3806   1.103   0.003   3.217 -0.6490  0.0926  0.1708
 1219SOL    HW1 3807   1.025  -0.001   3.273 -0.0956  2.2203  1.1996
 1219SOL    HW2 3808   1.068   0.014   3.129 -1.5260 -2.7166  0.0574
 1220SOL     OW 3809   3.272   1.343   2.476  0.0017  0.4024  0.8510
 1220SOL    HW1 3810   3.350   1.347   2.532  0.1703  0.8442  0.5905
 1220SOL    HW2 3811   3.199   1.338   2.537  0.2663 -0.6758  1.0929
 1221SOL     OW 3812   2.446   3.389   2.209 -0.0115 -0.0860  0.0347
 1221SOL    HW1 3813   2.422   3.349   2.293  1.1975 -1.4855 -0.2425
 1221SOL    HW2 3814   2.406   3.333   2.143 -1.3730  1.2870 -0.3589
 1222SOL     OW 3815   2.271   2.403   0.962 -0.2586  0.1797 -0.0008
 1222SOL    HW1 3816   2.244   2.454   0.886  0.6192  0.8266  0.1154
 1222SOL    HW2 3817   2.190   2.393   1.013 -0.7964 -0.0117 -0.8537
 1223SOL     OW 3818   3.094   0.755   3.186  0.5941 -0.3692  0.1791
 1223SOL    HW1 3819   3.118   0.778   3.097 -0.2971 -0.4071 -0.0842
 1223SOL    HW2 3820   3.082   0.660   3.184 -0.6187 -0.2242  0.0299
 1224SOL     OW 3821   0.583   1.838   1.835  0.3556 -0.3656 -0.0242
 1224SOL    HW1 3822   0.665   1.789   1.843 -0.5769 -1.7895  1.5950
 1224SOL    HW2 3823   0.552   1.819   1.747  1.4748 -0.2521 -0.4638
 1225SOL     OW 3824   1.292   3.719   0.576  0.4998 -0.3673 -0.0729
 1225SOL    HW1 3825   1.341   3.732   0.495 -0.6238 -2.1692 -1.1279
 1225SOL    HW2 3826   1.354   3.678   0.636  0.4519 -2.3404 -1.2879
 1226SOL     OW 3827   1.969   3.352   3.699  0.4345  0.2408 -0.0384
 1226SOL    HW1 3828   1.890   3.311   3.735 -1.2568 -0.0450 -3.5800
 1226SOL    HW2 3829   1.946   3.444   3.691  1.2176  0.5040  0.6630
 1227SOL     OW 3830   2.993   0.857   2.817  0.3737  0.6490 -0.1496
 1227SOL    HW1 3831   2.986   0.948   2.845  1.4352  0.8036 -0.3760
 1227SOL    HW2 3832   2.903   0.833   2.793  0.2812  2.0096 -1.2765
 1228SOL     OW 3833   1.143   0.551   1.879 -0.6344 -0.4099  0.8318
 1228SOL    HW1 3834   1.055   0.581   1.902 -0.3781  1.3362 -0.2379
 1228SOL    HW2 3835   1.188   0.630   1.850  2.4037 -0.5540  4.4303
 1229SOL     OW 3836   2.706   0.223   2.395  0.3042 -0.1151  0.6593
 1229SOL    HW1 3837   2.633   0.193   2.341  0.6309  1.0045 -0.4556
 1229SOL    HW2 3838   2.717   0.154   2.460 -2.7188  0.3728  1.8312
 1230SOL     OW 3839   1.915   1.684   0.850 -0.0887 -0.3804 -0.0057
 1230SOL    HW1 3840   1.998   1.636   0.850  0.0726 -0.1370 -1.2788
 1230SOL    HW2 3841   1.937   1.771   0.818 -1.1082 -0.9073 -2.3489
 1231SOL     OW 3842   2.096   0.471   1.943 -0.5358  0.5474  0.3432
 1231SOL    HW1 3843   2.135   0.444   2.027  0.2679 -1.4268 -0.5862
 1231SOL    HW2 3844   2.010   0.505   1.966 -0.3166  0.0761  1.9802
 1232SOL     OW 3845   0.306   1.204   0.377  0.4389  0.9782 -0.4016
 1232SOL    HW1 3846   0.272   1.261   0.308  0.0154  0.4980 -0.5981
 1232SOL    HW2 3847   0.233   1.193   0.437  0.5552  0.7375 -0.3037
 1233SOL     OW 3848   0.686   0.656   3.065 -0.3214  0.3968 -0.1886
 1233SOL    HW1 3849   0.673   0.751   3.063 -0.2919  0.3984 -0.3258
 1233SOL    HW2 3850   0.677   0.632   3.157  0.1923  0.6026 -0.0829
 1234SOL     OW 3851   1.633   3.224   1.826 -0.1896 -0.3507  0.4055
 1234SOL    HW1 3852   1.571   3.183   1.765  1.1821 -1.7665 -0.1031
 1234SOL    HW2 3853   1.578   3.264   1.893 -1.6966 -3.5438  1.2686
 1235SOL     OW 3854   2.116   3.461   0.788 -0.4445  0.0431 -0.0352
 1235SOL    HW1 3855   2.168   3.539   0.770  0.0968  0.0442  1.3775
 1235SOL    HW2 3856   2.119   3.452   0.883  1.0344 -2.6897 -0.2321
 1236SOL     OW 3857   3.041   3.344   1.753 -0.0343 -0.5120  0.1871
 1236SOL    HW1 3858   3.065   3.272   1.694 -0.0994 -1.1750  0.9535
 1236SOL    HW2 3859   2.982   3.398   1.701  3.1736  1.3404 -1.8757
 1237SOL     OW 3860   1.868   3.610   1.353 -0.4885  0.4444  0.1589
 1237SOL    HW1 3861   1.918   3.634   1.275 -1.1015 -2.5720 -1.3145
 1237SOL    HW2 3862   1.778   3.635   1.332 -0.7093 -0.6762 -0.2939
 1238SOL     OW 3863   1.388   1.634   3.223  0.8322  0.3873  0.9070
 1238SOL    HW1 3864   1.360   1.714   3.179 -0.2554 -0.5749 -0.2075
 1238SOL    HW2 3865   1.472   1.657   3.263 -0.3750  2.6554  2.3457
 1239SOL     OW 3866   1.475   0.032  -0.025  0.0637 -0.0676  0.0982
 1239SOL    HW1 3867   1.476   0.121   0.010  2.2465 -0.0167  0.0441
 1239SOL    HW2 3868   1.545  -0.013   0.021  0.9660 -0.9001 -1.9415
 1240SOL     OW 3869   1.220   0.899   0.237 -0.1454  0.4502  0.1356
 1240SOL    HW1 3870   1.276   0.957   0.289  1.1327  0.0269 -0.7259
 1240SOL    HW2 3871   1.133   0.912   0.273  0.3378  1.8629  0.8810
 1241SOL     OW 3872   0.165   0.299   1.337 -0.3527 -0.0185 -0.0812
 1241SOL    HW1 3873   0.238   0.332   1.284  0.5219  0.7224  1.5108
 1241SOL    HW2 3874   0.124   0.378   1.373 -1.0924 -0.4915  0.1236
 1242SOL     OW 3875   2.301   2.603   2.204 -0.1976 -0.3426  0.5698
 1242SOL    HW1 3876   2.253   2.606   2.122 -0.3351 -0.0450  0.6605
 1242SOL    HW2 3877   2.386   2.644   2.185 -0.0980 -0.5852  0.4895
 1243SOL     OW 3878   3.766   3.073   2.365 -0.7853  0.3837 -0.1949
 1243SOL    HW1 3879   3.680   3.060   2.325  0.2757 -1.1451 -2.1681
 1243SOL    HW2 3880   3.787   3.164   2.346 -1.5003  0.4553 -0.7058
 1244SOL     OW 3881   0.731   0.809   1.357 -0.2688 -0.2907 -0.0441
 1244SOL    HW1 3882   0.719   0.723   1.397 -2.6466 -1.2660 -2.5412
 1244SOL    HW2 3883   0.814   0.802   1.308 -1.6870 -2.2170 -2.3843
 1245SOL     OW 3884   1.876   3.737   2.409  0.0257  0.2644 -0.4095
 1245SOL    HW1 3885   1.821   3.806   2.445  2.1423  1.3148  1.0766
 1245SOL    HW2 3886   1.851   3.659   2.458 -2.2481 -0.0894 -1.9636
 1246SOL     OW 3887   0.547   1.307   2.966  0.0584 -0.1340 -0.3966
 1246SOL    HW1 3888   0.590   1.367   3.027 -1.0525  2.2145 -1.7973
 1246SOL    HW2 3889   0.606   1.301   2.891 -0.8126  1.0361 -1.2098
 1247SOL     OW 3890   1.422   3.296   0.809 -0.9427 -0.4650  0.1709
 1247SOL    HW1 3891   1.412   3.387   0.782 -0.4647 -0.6989 -0.8224
 1247SOL    HW2 3892   1.384   3.245   0.738 -0.4208 -1.0709  0.3120
 1248SOL     OW 3893   2.657   1.554   0.766 -0.1522 -0.2144 -0.2929
 1248SOL    HW1 3894   2.635   1.603   0.845 -0.2722  0.6612 -0.8537
 1248SOL    HW2 3895   2.620   1.467   0.781 -0.0061 -0.1233  0.6881
 1249SOL     OW 3896   0.327   1.315   2.243  0.1984 -0.4347 -0.0088
 1249SOL    HW1 3897   0.409   1.315   2.192 -0.6261 -1.5521 -1.4161
 1249SOL    HW2 3898   0.340   1.383   2.309  1.5270  0.7266 -1.3865
 1250SOL     OW 3899   2.368   3.585   0.549 -0.0293 -0.5528  0.3716
 1250SOL    HW1 3900   2.360   3.660   0.608 -0.3184  0.4305 -0.8699
 1250SOL    HW2 3901   2.462   3.563   0.551  0.3075  0.7255 -0.2733
 1251SOL     OW 3902   0.415   0.287   0.086  0.2750  0.2290 -0.1341
 1251SOL    HW1 3903   0.452   0.200   0.076  2.0971  0.8808  0.5304
 1251SOL    HW2 3904   0.385   0.291   0.177 -1.0012 -0.0990 -0.5115
 1252SOL     OW 3905   1.259   0.735   0.009 -0.1604 -0.5311 -0.0682
 1252SOL    HW1 3906   1.347   0.696   0.002 -0.0523 -0.1684 -0.7916
 1252SOL    HW2 3907   1.273   0.817   0.056 -0.4261 -1.4531  1.6978
 1253SOL     OW 3908   2.754   2.350   3.600  0.4887 -0.1876 -0.2825
 1253SOL    HW1 3909   2.689   2.295   3.644  0.8211  0.2250  0.7519
 1253SOL    HW2 3910   2.704   2.425   3.567  0.4592  0.2282  0.6871
 1254SOL     OW 3911   0.883   0.531   3.846 -0.0292 -0.2655 -0.4286
 1254SOL    HW1 3912   0.841   0.495   3.767 -1.0037 -2.0747  0.8440
 1254SOL    HW2 3913   0.954   0.586   3.812 -3.0925  2.7492 -2.7448
 1255SOL     OW 3914   3.249   0.212   2.778  0.7192 -0.3767 -0.3843
 1255SOL    HW1 3915   3.242   0.123   2.744 -0.3000  0.0263 -1.3105
 1255SOL    HW2 3916   3.248   0.268   2.700  0.5018  0.4757  0.2116
 1256SOL     OW 3917   1.092   1.781   2.279 -0.1426  0.5572  0.3353
 1256SOL    HW1 3918   1.099   1.862   2.330 -1.1560  1.4406 -0.8664
 1256SOL    HW2 3919   1.064   1.810   2.192 -1.6605 -1.1781  0.1884
 1257SOL     OW 3920   1.291   2.078   2.909  0.5956 -0.0620 -0.2152
 1257SOL    HW1 3921   1.198   2.078   2.931  0.4606 -1.9234 -0.6353
 1257SOL    HW2 3922   1.330   2.013   2.967  0.8298 -2.4480 -2.8126
 1258SOL     OW 3923   3.152   3.224   2.153  0.7749  0.1224 -0.3057
 1258SOL    HW1 3924   3.146   3.286   2.080  0.1437 -1.5874 -1.7665
 1258SOL    HW2 3925   3.065   3.184   2.157 -0.4048  2.4992  3.6391
 1259SOL     OW 3926   0.894   1.912   2.637 -0.1708 -0.2213  0.3415
 1259SOL    HW1 3927   0.850   1.985   2.681  1.5192  0.9170  0.2427
 1259SOL    HW2 3928   0.959   1.954   2.582 -0.7771 -1.7179 -1.6315
 1260SOL     OW 3929   3.683   0.156   2.920  0.5494 -0.0648  0.3126
 1260SOL    HW1 3930   3.735   0.236   2.933 -1.0399  1.1101 -0.2712
 1260SOL    HW2 3931   3.634   0.146   3.001  2.9570 -2.2639  1.6596
 1261SOL     OW 3932   0.272   1.098   2.897 -0.1174 -0.3411 -0.2822
 1261SOL    HW1 3933   0.290   1.105   2.991 -0.6798 -0.8948 -0.1213
 1261SOL    HW2 3934   0.241   1.185   2.872  0.4050 -0.0829 -0.0413
 1262SOL     OW 3935   0.794   2.744   3.680  0.1928  0.0358 -0.1602
 1262SOL    HW1 3936   0.731   2.790   3.624 -2.1974 -1.3476  1.2549
 1262SOL    HW2 3937   0.807   2.803   3.754 -0.6136 -0.2797  0.2470
 1263SOL     OW 3938   1.336   3.034   2.456  0.3243 -0.1997 -0.5282
 1263SOL    HW1 3939   1.332   3.026   2.360 -2.0237  3.2305 -0.9091
 1263SOL    HW2 3940   1.245   3.031   2.484  0.7924  1.0229  1.2869
 1264SOL     OW 3941   2.506   1.559   3.791  0.0866 -0.7619 -0.1845
 1264SOL    HW1 3942   2.470   1.471   3.781 -0.0116 -0.7945  0.3932
 1264SOL    HW2 3943   2.554   1.556   3.874  0.1788 -0.3059 -0.2165
 1265SOL     OW 3944   1.916   2.030   2.934 -0.4937  0.3971 -0.6725
 1265SOL    HW1 3945   1.936   2.112   2.980  1.2292 -0.1200 -0.4393
 1265SOL    HW2 3946   1.821   2.029   2.927 -0.6396  1.6718  0.7080
 1266SOL     OW 3947   3.631   0.804   3.616  0.0258  0.2767  0.2414
 1266SOL    HW1 3948   3.651   0.748   3.691 -0.5391  1.2632  1.1456
 1266SOL    HW2 3949   3.634   0.893   3.650 -1.2542  0.6947 -0.6594
 1267SOL     OW 3950  -0.010   3.030   2.651 -0.5935 -0.2262 -0.2332
 1267SOL    HW1 3951   0.007   2.937   2.638  0.2953 -0.0175 -0.5896
 1267SOL    HW2 3952   0.004   3.070   2.565  2.3024  0.7035  0.5440
 1268SOL     OW 3953   3.466   0.073   3.114 -0.3302  0.4836 -0.0846
 1268SOL    HW1 3954   3.493   0.142   3.174 -0.2630 -1.5277  2.3872
 1268SOL    HW2 3955   3.374   0.057   3.136 -0.6486  0.4839 -1.3611
 1269SOL     OW 3956   2.484   2.185   0.753  0.1187 -0.4347 -0.4572
 1269SOL    HW1 3957   2.505   2.114   0.693 -1.3004  0.0157 -1.5380
 1269SOL    HW2 3958   2.421   2.146   0.814 -0.3049 -0.2499 -0.7689
 1270SOL     OW 3959   3.431   2.986   0.895  0.2629 -0.4147  0.0524
 1270SOL    HW1 3960   3.448   3.008   0.804  0.9321  0.0090  0.2726
 1270SOL    HW2 3961   3.438   2.891   0.899  0.2101 -0.4362 -0.3374
 1271SOL     OW 3962   3.057   2.970   1.161 -0.0236  0.5882 -0.0628
 1271SOL    HW1 3963   3.149   2.945   1.151  0.1394  1.0220  0.2936
 1271SOL    HW2 3964   3.046   3.043   1.100 -0.3905 -0.0685 -0.8065
 1272SOL     OW 3965   2.004   1.617   2.162  0.5150  0.2364  0.3183
 1272SOL    HW1 3966   1.986   1.528   2.131 -2.4525  1.2538 -1.2043
 1272SOL    HW2 3967   1.938   1.633   2.230  2.2421  0.6869  1.9881
 1273SOL     OW 3968   2.128   1.286   2.433 -0.4630  0.2315 -0.3201
 1273SOL    HW1 3969   2.051   1.324   2.475 -0.6078 -1.4294  1.0084
 1273SOL    HW2 3970   2.102   1.196   2.411  1.2948 -0.6355  0.8586
 1274SOL     OW 3971   3.632   3.653   2.056  0.2215 -0.6070  0.0846
 1274SOL    HW1 3972   3.659   3.617   1.972  0.8248  1.1865 -0.5250
 1274SOL    HW2 3973   3.625   3.747   2.042  0.6128 -0.2158  2.1018
 1275SOL     OW 3974   2.456   2.962   2.733  0.4243 -0.1465 -0.3124
 1275SOL    HW1 3975   2.447   3.056   2.743  0.2866 -0.4197  3.3552
 1275SOL    HW2 3976   2.446   2.927   2.821 -1.1202 -3.7686 -1.7278
 1276SOL     OW 3977   1.884   0.679   0.350 -0.0021  0.0821 -0.7313
 1276SOL    HW1 3978   1.914   0.589   0.342 -0.3565 -0.0720 -0.4262
 1276SOL    HW2 3979   1.810   0.686   0.289  1.4275  0.8338 -2.4445
 1277SOL     OW 3980   0.074   1.468   0.628 -0.2091 -0.0911 -0.3022
 1277SOL    HW1 3981   0.107   1.442   0.714  0.4493  0.7107 -0.2971
 1277SOL    HW2 3982   0.065   1.386   0.580 -0.7744 -0.5640  0.5941
 1278SOL     OW 3983   2.419   3.684   3.026  0.2401 -0.1626 -0.6986
 1278SOL    HW1 3984   2.428   3.589   3.020  2.7176 -0.0425 -0.0681
 1278SOL    HW2 3985   2.328   3.698   3.050 -0.2063 -2.3722 -0.8691
 1279SOL     OW 3986   2.956   2.691   0.854  0.4471 -0.0209 -0.1037
 1279SOL    HW1 3987   2.920   2.775   0.827  1.1948  0.9666  1.7743
 1279SOL    HW2 3988   2.968   2.699   0.949  3.6623 -0.9930 -0.3018
 1280SOL     OW 3989   3.556   0.065   0.220  0.0779  0.0140  0.5586
 1280SOL    HW1 3990   3.561   0.159   0.239  0.7397 -0.0395  0.6641
 1280SOL    HW2 3991   3.582   0.022   0.301 -2.6044 -0.3399  1.3321
 1281SOL     OW 3992   3.350   3.013   1.607 -0.0114 -0.1596  0.6443
 1281SOL    HW1 3993   3.305   2.936   1.640 -1.4035  0.1570 -0.4127
 1281SOL    HW2 3994   3.292   3.086   1.629  0.3564  0.3636 -0.0756
 1282SOL     OW 3995   2.816   2.187   2.764  0.2083 -0.4449  0.3108
 1282SOL    HW1 3996   2.865   2.106   2.761  1.1336  0.0082  2.1036
 1282SOL    HW2 3997   2.750   2.173   2.832  1.4198  0.8192  1.8080
 1283SOL     OW 3998   2.365   1.379   3.289 -0.4869 -0.0651 -0.0012
 1283SOL    HW1 3999   2.441   1.322   3.285  1.0298  1.9390 -1.4750
 1283SOL    HW2 4000   2.303   1.342   3.226  1.3895  1.0527 -2.6585
 1284SOL     OW 4001   2.583   3.703   2.115  0.4293 -0.3272 -0.0990
 1284SOL    HW1 4002   2.620   3.744   2.036  0.4656 -2.0764 -1.0341
 1284SOL    HW2 4003   2.506   3.756   2.135  1.6911  1.5474  0.0978
 1285SOL     OW 4004   1.347   2.632   1.025 -0.4909 -0.0726  0.0735
 1285SOL    HW1 4005   1.302   2.685   0.959 -1.3588  1.0572  1.5079
 1285SOL    HW2 4006   1.277   2.593   1.077  0.1660 -1.6214 -0.1533
 1286SOL     OW 4007   2.785   2.462   1.871  0.3097  0.5410 -0.4993
 1286SOL    HW1 4008   2.869   2.473   1.826  0.5385  2.1176  0.2518
 1286SOL    HW2 4009   2.749   2.551   1.876 -1.5890 -0.1374 -1.1266
 1287SOL     OW 4010   2.282   3.200   1.867  0.1188 -0.7886  0.2996
 1287SOL    HW1 4011   2.232   3.273   1.830  0.1586 -1.0040 -0.1854
 1287SOL    HW2 4012   2.217   3.149   1.915  0.3567  0.4228  2.0212
 1288SOL     OW 4013   3.318   3.769   0.130 -0.0365 -0.0639 -0.1232
 1288SOL    HW1 4014   3.345   3.679   0.149 -0.7262  0.1957  2.4819
 1288SOL    HW2 4015   3.387   3.823   0.168  0.5353  0.5845 -1.9396
 1289SOL     OW 4016   3.172   3.856   2.613 -0.0264 -0.7111  0.0593
 1289SOL    HW1 4017   3.190   3.808   2.532 -0.4423 -1.8711  0.6335
 1289SOL    HW2 4018   3.128   3.793   2.670 -1.3376  0.5949  0.5568
 1290SOL     OW 4019   2.482   3.534   3.780  0.1015  0.3821  0.0493
 1290SOL    HW1 4020   2.430   3.547   3.860 -1.1227  0.0430 -0.6704
 1290SOL    HW2 4021   2.423   3.491   3.719  1.3729 -0.4055 -0.6712
 1291SOL     OW 4022   2.314   1.334   1.373  0.0779 -0.1664  0.1958
 1291SOL    HW1 4023   2.312   1.281   1.293 -3.1891 -0.5957  0.4048
 1291SOL    HW2 4024   2.266   1.413   1.350 -0.0323  0.1488  1.4554
 1292SOL     OW 4025   2.264   1.576   2.098  0.0919 -0.2404 -0.3032
 1292SOL    HW1 4026   2.320   1.653   2.085  0.0956 -0.2534 -0.3637
 1292SOL    HW2 4027   2.180   1.611   2.124  0.1718 -0.2253 -0.0618
 1293SOL     OW 4028   1.275   2.563   3.769 -0.7449  0.6186 -0.0421
 1293SOL    HW1 4029   1.263   2.650   3.730 -1.3560  0.3607 -0.4332
 1293SOL    HW2 4030   1.248   2.502   3.701 -0.1947  0.1105  0.1862
 1294SOL     OW 4031   2.178   3.149   1.304  0.1359 -0.1492 -0.0552
 1294SOL    HW1 4032   2.130   3.084   1.355  0.5918  0.5536  1.3497
 1294SOL    HW2 4033   2.168   3.230   1.355  1.2452  0.4136 -0.7100
 1295SOL     OW 4034   0.254   0.134   2.595  0.1416  0.2624  0.2672
 1295SOL    HW1 4035   0.332   0.136   2.539 -0.6164  0.9727 -0.7843
 1295SOL    HW2 4036   0.190   0.082   2.546  0.6539 -2.3511  2.1336
 1296SOL     OW 4037   0.917   2.676   0.987  0.2292  0.3551  0.2669
 1296SOL    HW1 4038   0.919   2.749   1.050  0.1559  1.6960 -1.2311
 1296SOL    HW2 4039   0.827   2.677   0.953  0.3604 -0.1605 -0.0940
 1297SOL     OW 4040   0.443   3.056   2.389 -0.5624  0.1341  0.3319
 1297SOL    HW1 4041   0.495   3.128   2.352 -0.0511 -0.7491 -0.7091
 1297SOL    HW2 4042   0.404   3.094   2.468  0.5713  1.2312  0.4073
 1298SOL     OW 4043   3.171   1.125   3.011  0.2059  0.2488 -0.2358
 1298SOL    HW1 4044   3.187   1.219   3.000 -2.1408  0.7664  0.2724
 1298SOL    HW2 4045   3.081   1.112   2.979 -0.4006 -1.3692  1.9031
 1299SOL     OW 4046   1.539   2.147   1.948 -0.0230 -0.4842  0.0281
 1299SOL    HW1 4047   1.617   2.096   1.926  1.0862 -0.0746  2.6157
 1299SOL    HW2 4048   1.574   2.227   1.989 -1.7889 -0.5617  1.8265
 1300SOL     OW 4049   1.365   3.213   1.571  0.0355  0.1213 -0.2348
 1300SOL    HW1 4050   1.334   3.230   1.659 -4.0230  0.5472 -1.5282
 1300SOL    HW2 4051   1.336   3.124   1.552 -0.5513  0.5809 -1.6253
 1301SOL     OW 4052   3.469   3.316   2.176 -0.5010 -0.0005 -0.1792
 1301SOL    HW1 4053   3.411   3.388   2.153 -2.4666 -0.9332  1.5773
 1301SOL    HW2 4054   3.438   3.285   2.261  2.4206 -0.7612  0.7378
 1302SOL     OW 4055   2.497   2.610   0.098  0.0548 -0.0441  0.1220
 1302SOL    HW1 4056   2.425   2.639   0.154  0.2549  2.5611 -0.8260
 1302SOL    HW2 4057   2.575   2.621   0.152 -0.0311 -0.6491  0.3783
 1303SOL     OW 4058   1.784   0.733   2.603 -0.0716  0.1624  0.8230
 1303SOL    HW1 4059   1.826   0.647   2.603  1.7305  0.9754  0.0884
 1303SOL    HW2 4060   1.844   0.788   2.654  0.9034  1.8310 -1.8987
 1304SOL     OW 4061   1.595   1.136   3.388  0.2132 -0.1312  0.3604
 1304SOL    HW1 4062   1.579   1.045   3.415  0.9070 -0.3323  0.1308
 1304SOL    HW2 4063   1.681   1.156   3.425  0.5158  0.0871 -0.4528
 1305SOL     OW 4064   3.107   3.247   2.621 -0.8099 -0.0204  0.9051
 1305SOL    HW1 4065   3.096   3.196   2.541 -2.1898  0.5434  0.7095
 1305SOL    HW2 4066   3.163   3.193   2.677  1.6022  0.3131 -1.0404
 1306SOL     OW 4067   1.605   1.679   1.992 -0.3454  0.3443  0.6360
 1306SOL    HW1 4068   1.567   1.671   1.905  3.0801  0.3143 -1.0383
 1306SOL    HW2 4069   1.614   1.588   2.023 -4.3468  0.3919  2.5747
 1307SOL     OW 4070   1.012   2.639   0.282 -0.1270  0.3920 -0.0623
 1307SOL    HW1 4071   0.972   2.638   0.195 -0.7872  0.9266  0.2320
 1307SOL    HW2 4072   1.047   2.728   0.291  0.3124  0.2116  0.0571
 1308SOL     OW 4073   0.790   2.584   0.074 -0.8071 -0.2441 -0.5859
 1308SOL    HW1 4074   0.729   2.646   0.114  0.4075  0.9306 -0.4898
 1308SOL    HW2 4075   0.799   2.614  -0.017 -1.7924 -1.5393 -1.1406
 1309SOL     OW 4076   0.967   2.289   0.823  0.2016 -0.2031 -0.1419
 1309SOL    HW1 4077   0.878   2.296   0.787  0.8539 -0.4967 -1.9083
 1309SOL    HW2 4078   0.976   2.197   0.845  0.0285 -0.1511  0.1489
 1310SOL     OW 4079   2.699   1.386   2.318  0.4148  0.3972  0.6772
 1310SOL    HW1 4080   2.755   1.345   2.252  1.2407  1.3347  0.7817
 1310SOL    HW2 4081   2.625   1.421   2.269 -1.2645 -2.6503  0.7431
 1311SOL     OW 4082   0.497   1.339   0.932 -0.0126  0.5499 -0.4247
 1311SOL    HW1 4083   0.572   1.289   0.964 -0.4390 -1.2257 -2.0039
 1311SOL    HW2 4084   0.528   1.430   0.929  0.7797  0.4942  2.6038
 1312SOL     OW 4085   2.213   0.694   0.944 -0.6297  0.2764 -0.1986
 1312SOL    HW1 4086   2.305   0.670   0.928 -0.0049  2.1900  0.2529
 1312SOL    HW2 4087   2.171   0.683   0.859  0.0577 -0.4603 -0.4596
 1313SOL     OW 4088   3.678   1.961   2.972  0.1647  0.2711  0.4986
 1313SOL    HW1 4089   3.595   1.962   2.924 -0.2702 -1.0190  1.1729
 1313SOL    HW2 4090   3.690   2.051   3.002 -1.3112  0.3525  0.9075
 1314SOL     OW 4091   1.296   2.726   1.698  0.5074  0.5169 -0.1849
 1314SOL    HW1 4092   1.283   2.631   1.696  2.9352  0.0404  1.5952
 1314SOL    HW2 4093   1.222   2.760   1.748 -1.4670 -0.0975 -2.4956
 1315SOL     OW 4094   3.646   2.708   1.206 -0.1362 -0.0677  0.2738
 1315SOL    HW1 4095   3.677   2.690   1.294 -0.5119 -0.8720  0.2528
 1315SOL    HW2 4096   3.587   2.782   1.215  0.1974  0.1592  0.6180
 1316SOL     OW 4097   2.380   1.733   0.302  0.3139 -0.1025  0.4677
 1316SOL    HW1 4098   2.349   1.646   0.328  0.6058 -0.1978  0.5043
 1316SOL    HW2 4099   2.474   1.722   0.292  0.4316  0.3433  1.0181
 1317SOL     OW 4100   3.125   2.785   1.990  0.2434 -1.1042  0.2944
 1317SOL    HW1 4101   3.211   2.827   1.990  0.9525 -2.5203 -0.3521
 1317SOL    HW2 4102   3.126   2.728   2.067 -0.5461 -0.3344  0.9036
 1318SOL     OW 4103   2.146   3.416   0.081 -0.4156  0.1506  0.3954
 1318SOL    HW1 4104   2.160   3.347   0.146  1.2769  0.4579  0.3859
 1318SOL    HW2 4105   2.111   3.369   0.005 -0.9844 -0.4280  0.9929
 1319SOL     OW 4106   3.728   0.825   3.366  0.2498  0.0681 -0.0425
 1319SOL    HW1 4107   3.686   0.850   3.448 -2.0145 -0.5224 -0.9595
 1319SOL    HW2 4108   3.715   0.730   3.361  1.0943 -0.0212 -0.7081
 1320SOL     OW 4109   1.888   0.488   2.640 -0.0902  0.5124 -0.2488
 1320SOL    HW1 4110   1.880   0.393   2.638  1.3296  0.3224  0.8617
 1320SOL    HW2 4111   1.860   0.513   2.728 -2.7997  1.4435 -1.2872
 1321SOL     OW 4112   1.712   0.431   1.056 -0.0181 -0.7191  0.0501
 1321SOL    HW1 4113   1.732   0.353   1.107 -0.0925 -0.1465  0.9818
 1321SOL    HW2 4114   1.733   0.504   1.115 -0.9068 -0.0516 -0.4362
 1322SOL     OW 4115   0.318   3.594   1.165  0.4753 -0.2786  0.2389
 1322SOL    HW1 4116   0.336   3.650   1.089 -1.4708  1.7749  1.1926
 1322SOL    HW2 4117   0.250   3.534   1.134  0.7319 -0.4199 -0.0552
 1323SOL     OW 4118   1.866   3.455   1.684 -0.1988 -0.3185  0.0281
 1323SOL    HW1 4119   1.889   3.364   1.699 -0.6422 -0.4944 -0.3278
 1323SOL    HW2 4120   1.794   3.473   1.744 -1.3208 -0.7417 -1.1418
 1324SOL     OW 4121   2.887   3.656   3.184 -0.5336  0.2974  0.1852
 1324SOL    HW1 4122   2.944   3.712   3.131 -0.6767  0.3309  0.0652
 1324SOL    HW2 4123   2.902   3.568   3.150 -0.5975  0.3140  0.1123
 1325SOL     OW 4124   0.912   3.422   3.611 -0.3720 -0.1087  0.3345
 1325SOL    HW1 4125   0.983   3.482   3.633 -0.9665  1.3495 -1.5454
 1325SOL    HW2 4126   0.947   3.366   3.542 -0.9125  0.3609 -0.3315
 1326SOL     OW 4127   3.199   3.629   0.818  0.5765 -0.2692 -0.2993
 1326SOL    HW1 4128   3.271   3.676   0.861 -0.5262  0.8343  0.4346
 1326SOL    HW2 4129   3.238   3.547   0.788  2.5473  1.0033 -1.4441
 1327SOL     OW 4130   0.405   3.772   2.986 -0.1214  0.0363 -0.7074
 1327SOL    HW1 4131   0.387   3.810   3.072 -0.4910 -0.6723 -0.4690
 1327SOL    HW2 4132   0.319   3.751   2.951  0.1226 -2.7888  0.1721
 1328SOL     OW 4133   0.869   0.931   2.873  0.3832 -0.0443  0.6716
 1328SOL    HW1 4134   0.815   0.910   2.796  1.2114  1.1168 -0.2521
 1328SOL    HW2 4135   0.806   0.963   2.938  0.0532  3.0124 -0.9930
 1329SOL     OW 4136   1.042   1.232   0.038  0.5521 -0.1580  0.9260
 1329SOL    HW1 4137   0.957   1.196   0.060  1.3883 -1.6878  1.8054
 1329SOL    HW2 4138   1.045   1.230  -0.058 -1.0471  1.5787  0.7848
 1330SOL     OW 4139   1.655   1.275   0.966 -0.1342 -0.0644 -0.0013
 1330SOL    HW1 4140   1.717   1.301   1.035  1.2668 -0.8787 -0.9072
 1330SOL    HW2 4141   1.589   1.222   1.012  0.6226 -0.3684  0.7648
 1331SOL     OW 4142   2.936   3.093   1.387 -0.6470  0.0434  0.3475
 1331SOL    HW1 4143   2.969   3.047   1.310  1.5339  1.0637  0.6281
 1331SOL    HW2 4144   2.930   3.025   1.454 -1.0293 -0.5259 -0.2464
 1332SOL     OW 4145   2.478   0.682   0.897 -0.1530  0.2122 -0.3077
 1332SOL    HW1 4146   2.470   0.685   0.802  1.3474  0.3501 -0.4526
 1332SOL    HW2 4147   2.521   0.598   0.915 -0.5776  0.1126  0.2666
 1333SOL     OW 4148   2.763   0.760   0.566 -0.1042 -0.9201 -0.4581
 1333SOL    HW1 4149   2.827   0.783   0.633 -1.1092 -1.0913  0.5897
 1333SOL    HW2 4150   2.679   0.764   0.611 -0.6941 -2.2999 -1.3882
 1334SOL     OW 4151   3.239   0.529   1.159 -0.1481 -0.1507  0.3205
 1334SOL    HW1 4152   3.196   0.598   1.211 -3.0977 -1.0590 -0.6706
 1334SOL    HW2 4153   3.271   0.466   1.223 -2.6052 -0.6261  1.2045
 1335SOL     OW 4154   1.562   2.488   0.876  0.1527  0.8921 -0.1545
 1335SOL    HW1 4155   1.477   2.510   0.915 -1.8109 -2.2792 -2.1895
 1335SOL    HW2 4156   1.592   2.571   0.837 -0.5081  2.7627  2.9384
 1336SOL     OW 4157   2.477   2.873   3.009  0.3393  0.5736 -0.0915
 1336SOL    HW1 4158   2.491   2.958   3.051  0.9974 -0.4908  1.9660
 1336SOL    HW2 4159   2.565   2.841   2.990  0.2377 -0.7551  1.5353
 1337SOL     OW 4160   3.636   3.099   3.572  0.1971 -0.3616 -0.7456
 1337SOL    HW1 4161   3.625   3.189   3.540 -1.0666 -0.7161 -1.3557
 1337SOL    HW2 4162   3.556   3.080   3.620  1.8258 -0.0344  2.3335
 1338SOL     OW 4163   0.043   3.807   3.139  0.0453  0.6710  0.0525
 1338SOL    HW1 4164   0.094   3.886   3.156  1.2988  0.0714 -0.7230
 1338SOL    HW2 4165   0.086   3.767   3.063  0.3888 -1.5477  1.3251
 1339SOL     OW 4166   2.625   2.385   0.860  0.3412  0.1913 -0.5006
 1339SOL    HW1 4167   2.566   2.317   0.827 -0.5127  1.0259 -0.7258
 1339SOL    HW2 4168   2.712   2.345   0.854 -0.2115 -1.1659  0.1222
 1340SOL     OW 4169   2.046   2.947   1.456 -0.5475 -0.4116  0.0186
 1340SOL    HW1 4170   1.960   2.915   1.484 -1.4439  1.0863 -0.8600
 1340SOL    HW2 4171   2.108   2.901   1.512 -2.1189  1.3467  3.5071
 1341SOL     OW 4172   2.518   2.898   3.817 -0.2027 -0.0012  0.3135
 1341SOL    HW1 4173   2.560   2.840   3.880  1.5781  1.2187  0.3335
 1341SOL    HW2 4174   2.591   2.943   3.773 -1.4582  0.9975 -0.8526
 1342SOL     OW 4175   1.563   2.696   1.684  0.0614 -0.0076 -0.5193
 1342SOL    HW1 4176   1.469   2.685   1.700 -0.3479  2.3256 -0.9530
 1342SOL    HW2 4177   1.580   2.645   1.605 -1.6570  2.1773 -2.4694
 1343SOL     OW 4178   1.557   0.092   1.905 -0.6967  0.1753  0.4515
 1343SOL    HW1 4179   1.587   0.182   1.918 -1.9052  0.4709  1.3635
 1343SOL    HW2 4180   1.494   0.098   1.833  0.1566 -0.1773 -0.3539
 1344SOL     OW 4181   2.881   0.606   0.767  0.2709 -0.2972  0.1410
 1344SOL    HW1 4182   2.967   0.585   0.804  0.9501  0.9512 -0.6567
 1344SOL    HW2 4183   2.887   0.575   0.677  0.5712  1.3894 -0.4564
 1345SOL     OW 4184   1.782   2.279   1.344  0.0251 -0.1236  0.3837
 1345SOL    HW1 4185   1.804   2.343   1.277  1.4567 -0.4449  0.5027
 1345SOL    HW2 4186   1.739   2.208   1.296 -2.0811  1.1098  0.3306
 1346SOL     OW 4187   2.157   2.189   0.017 -0.0044  0.5105 -0.0657
 1346SOL    HW1 4188   2.193   2.101   0.023  0.6800  0.8162  0.5612
 1346SOL    HW2 4189   2.224   2.245   0.057 -0.7052  1.2320  0.1339
 1347SOL     OW 4190   1.268   3.277   1.815 -0.2587  0.7168 -0.0086
 1347SOL    HW1 4191   1.214   3.212   1.861 -1.5290  1.9005  0.2494
 1347SOL    HW2 4192   1.300   3.335   1.885 -0.5747  1.3761 -0.4059
 1348SOL     OW 4193   2.120   1.921   1.788  0.4353 -0.7616 -0.5167
 1348SOL    HW1 4194   2.056   1.872   1.839  2.0388 -1.0473  1.3223
 1348SOL    HW2 4195   2.175   1.854   1.748  0.3093 -0.4952 -1.1537
 1349SOL     OW 4196   3.830   2.232   0.774 -0.7023 -0.2679 -0.1988
 1349SOL    HW1 4197   3.776   2.165   0.815 -0.0805 -0.6624 -0.0095
 1349SOL    HW2 4198   3.841   2.202   0.683 -2.5930  0.9159 -0.8782
 1350SOL     OW 4199   2.621   0.475   1.137  0.4950 -0.0150  0.2398
 1350SOL    HW1 4200   2.554   0.516   1.192 -0.1105  0.8149 -1.0513
 1350SOL    HW2 4201   2.571   0.422   1.074  1.2292 -2.2814  1.4419
 1351SOL     OW 4202   2.334   3.222   2.388 -0.3872  1.0086 -0.3815
 1351SOL    HW1 4203   2.333   3.129   2.409  0.4178  1.1358  0.2670
 1351SOL    HW2 4204   2.242   3.244   2.375 -0.6210  0.2035 -0.1880
 1352SOL     OW 4205   1.617   3.252   2.200 -0.5991  0.6106 -0.0447
 1352SOL    HW1 4206   1.696   3.236   2.149 -0.9100  1.2111 -0.7186
 1352SOL    HW2 4207   1.647   3.300   2.277 -0.4023  1.4942 -0.6661
 1353SOL     OW 4208   2.700   3.127   0.648  0.2158  0.2345  0.4898
 1353SOL    HW1 4209   2.655   3.190   0.593  1.4496  1.3696  0.7060
 1353SOL    HW2 4210   2.791   3.129   0.617  0.0615 -2.4643 -0.3823
 1354SOL     OW 4211   3.391   2.252   3.723  0.2411  0.1274 -0.3144
 1354SOL    HW1 4212   3.312   2.274   3.673  1.0064  3.4001 -0.3155
 1354SOL    HW2 4213   3.430   2.179   3.676 -2.2014 -0.8789 -0.9174
 1355SOL     OW 4214   0.460   2.687   1.049  0.3559  0.2916  0.4390
 1355SOL    HW1 4215   0.523   2.697   0.977 -2.0703  2.7697 -1.5751
 1355SOL    HW2 4216   0.386   2.742   1.024 -2.1488 -1.4699  3.2439
 1356SOL     OW 4217   3.695   2.567   1.701 -0.4828  0.3253  0.3125
 1356SOL    HW1 4218   3.704   2.636   1.635 -1.2106 -0.1953 -0.3417
 1356SOL    HW2 4219   3.767   2.507   1.682 -1.3888 -0.4524 -0.7955
 1357SOL     OW 4220   2.802   2.881   2.334 -0.0793  0.1954  0.7142
 1357SOL    HW1 4221   2.726   2.916   2.381 -0.2908  0.8417 -0.1105
 1357SOL    HW2 4222   2.805   2.789   2.361 -2.4875 -0.4533 -0.9143
 1358SOL     OW 4223   2.886   2.253   0.208  0.1724 -0.3565  0.0111
 1358SOL    HW1 4224   2.815   2.305   0.170  1.1362 -0.0582 -1.4943
 1358SOL    HW2 4225   2.847   2.168   0.228 -1.4356  0.8607  2.4785
 1359SOL     OW 4226   2.192   1.629   3.761 -0.6082 -0.8988  0.1438
 1359SOL    HW1 4227   2.160   1.700   3.705 -1.8747 -0.4860  1.3278
 1359SOL    HW2 4228   2.182   1.550   3.708 -1.4646 -0.4797 -0.3431
 1360SOL     OW 4229   0.540   3.152   1.536  0.3194 -0.4068  0.4885
 1360SOL    HW1 4230   0.525   3.244   1.512 -0.1876 -0.7518 -0.5587
 1360SOL    HW2 4231   0.627   3.152   1.576  0.2649  0.5537  0.6285
 1361SOL     OW 4232   0.070   3.443   2.830 -0.2352 -0.2931  0.5614
 1361SOL    HW1 4233  -0.002   3.472   2.774 -0.5576 -0.7400  0.7448
 1361SOL    HW2 4234   0.028   3.413   2.910  0.2971  1.3618  1.5044
 1362SOL     OW 4235   1.769   3.070   0.492  1.0880  0.1558  0.1328
 1362SOL    HW1 4236   1.861   3.061   0.515  1.3201 -0.0794 -0.8135
 1362SOL    HW2 4237   1.746   3.160   0.515  2.0104  0.7362 -1.0958
 1363SOL     OW 4238   0.668   3.152   2.249 -0.4092 -0.2248  0.5217
 1363SOL    HW1 4239   0.744   3.187   2.296 -0.9228  0.9129  0.5529
 1363SOL    HW2 4240   0.704   3.085   2.191  0.6198  0.3263  0.4938
 1364SOL     OW 4241   1.515   0.501   2.277  0.7199  0.4982  0.0460
 1364SOL    HW1 4242   1.493   0.533   2.190  1.1078 -0.9235 -0.6072
 1364SOL    HW2 4243   1.577   0.565   2.312  1.5211  0.4352 -1.2233
 1365SOL     OW 4244   3.195   2.751   3.426 -1.0439  0.5152 -0.2939
 1365SOL    HW1 4245   3.248   2.780   3.353 -0.4409 -1.3761 -0.6768
 1365SOL    HW2 4246   3.120   2.810   3.427 -2.1747 -0.6381 -3.8093
 1366SOL     OW 4247   3.326   3.409   1.783  0.1126 -0.0238 -0.1264
 1366SOL    HW1 4248   3.361   3.488   1.742 -0.5577  1.4483  1.9867
 1366SOL    HW2 4249   3.231   3.419   1.776  0.0204 -1.0649 -0.5415
 1367SOL     OW 4250   2.011   3.539   3.263  0.8425  0.0805  0.7280
 1367SOL    HW1 4251   1.950   3.602   3.302  0.4417  0.4670 -0.4886
 1367SOL    HW2 4252   1.974   3.453   3.286  1.2048  0.2538  2.0900
 1368SOL     OW 4253   3.244   0.021   3.249 -0.8262 -0.2871 -0.0591
 1368SOL    HW1 4254   3.223   0.091   3.311 -1.0945 -1.3049  1.0527
 1368SOL    HW2 4255   3.171   0.020   3.188  0.8945  2.8027 -2.4276
 1369SOL     OW 4256   0.299   3.728   0.368  0.0933 -0.3767 -0.7053
 1369SOL    HW1 4257   0.382   3.760   0.334  0.6561 -0.7966  0.2461
 1369SOL    HW2 4258   0.234   3.756   0.303  1.0969 -0.9414 -1.9919
 1370SOL     OW 4259   2.005   1.289   0.958  0.1383  0.3695  0.1082
 1370SOL    HW1 4260   2.049   1.346   0.895 -0.0480  0.3331 -0.0563
 1370SOL    HW2 4261   1.924   1.335   0.980  0.7642  0.9582  1.2516
 1371SOL     OW 4262   0.897   3.183   2.381  0.0697  0.5060  0.9222
 1371SOL    HW1 4263   0.878   3.144   2.467 -0.0343  1.4469  1.3334
 1371SOL    HW2 4264   0.986   3.215   2.389  1.2686 -2.2076 -0.3839
 1372SOL     OW 4265   1.792   1.177   3.704 -0.2214 -0.3409  0.5687
 1372SOL    HW1 4266   1.718   1.187   3.764  0.7402 -1.5567  2.0326
 1372SOL    HW2 4267   1.859   1.235   3.740 -0.5051  0.9800 -0.9177
 1373SOL     OW 4268   2.232   2.897   0.701 -0.0400 -0.2803  0.4756
 1373SOL    HW1 4269   2.306   2.938   0.656  0.6317 -0.5928  1.2624
 1373SOL    HW2 4270   2.155   2.947   0.672  0.8202  2.1016  2.0289
 1374SOL     OW 4271   1.974   3.623   0.036  0.5857 -0.3402 -0.7663
 1374SOL    HW1 4272   2.011   3.695  -0.016  1.5449 -1.9600 -2.4435
 1374SOL    HW2 4273   2.046   3.560   0.044 -0.2767 -1.1981  0.5215
 1375SOL     OW 4274   0.389   3.677   3.362  0.5295 -0.2863 -0.2228
 1375SOL    HW1 4275   0.404   3.758   3.312  0.7218 -0.4284 -0.3991
 1375SOL    HW2 4276   0.319   3.633   3.315  0.2176 -0.0831  0.0446
 1376SOL     OW 4277   1.398   2.688   2.566 -1.2238 -0.7477 -0.1633
 1376SOL    HW1 4278   1.446   2.606   2.565 -1.7977 -1.1535  1.7780
 1376SOL    HW2 4279   1.449   2.747   2.511  1.6179 -1.0838  1.9298
 1377SOL     OW 4280   2.762   1.240   0.359 -0.3377  0.4422 -0.0731
 1377SOL    HW1 4281   2.858   1.236   0.353 -0.3615 -0.9162 -0.0051
 1377SOL    HW2 4282   2.735   1.271   0.273  0.1638  0.6230 -0.1726
 1378SOL     OW 4283   3.666   1.845   2.020 -0.4475 -0.5595 -0.4573
 1378SOL    HW1 4284   3.669   1.941   2.023 -0.6204 -0.5552 -0.4060
 1378SOL    HW2 4285   3.584   1.825   1.974  0.0351 -0.6730 -1.2757
 1379SOL     OW 4286   2.574   3.149   3.118  0.0267 -0.0085 -0.4544
 1379SOL    HW1 4287   2.647   3.124   3.062 -1.1206 -2.5766 -0.9254
 1379SOL    HW2 4288   2.599   3.118   3.205  0.0727  0.3573 -0.3346
 1380SOL     OW 4289   2.344   2.812   0.320 -0.1229 -0.1911 -1.0671
 1380SOL    HW1 4290   2.391   2.753   0.380 -0.7722  0.4982  0.1634
 1380SOL    HW2 4291   2.388   2.897   0.331 -0.6959  0.1040 -1.0394
 1381SOL     OW 4292   3.771   0.155   2.528  0.3240 -0.5974  0.1183
 1381SOL    HW1 4293   3.787   0.249   2.524 -1.3602 -0.3029 -0.1391
 1381SOL    HW2 4294   3.763   0.128   2.437  1.0956 -1.0722  0.1756
 1382SOL     OW 4295   3.807   0.434   2.519  0.6701 -0.2359 -0.8182
 1382SOL    HW1 4296   3.847   0.521   2.515  0.4839 -0.1707 -1.4914
 1382SOL    HW2 4297   3.727   0.443   2.466 -0.4589 -0.2414  0.8236
 1383SOL     OW 4298   0.385   2.139   2.410  0.6401 -0.6713 -0.0576
 1383SOL    HW1 4299   0.399   2.156   2.317  1.5382  1.3375  0.3856
 1383SOL    HW2 4300   0.313   2.197   2.435 -0.9767 -2.6448  0.1378
 1384SOL     OW 4301   2.697   0.092   0.313 -0.3568 -0.2962  0.0331
 1384SOL    HW1 4302   2.659   0.123   0.395  0.0870 -0.8880  0.4701
 1384SOL    HW2 4303   2.781   0.054   0.338 -0.0403 -0.1346 -0.7526
 1385SOL     OW 4304   2.848   2.792   2.761  0.6487 -0.3078  0.1667
 1385SOL    HW1 4305   2.829   2.732   2.689  1.7529  0.4700 -0.8168
 1385SOL    HW2 4306   2.890   2.867   2.719  0.8261  0.4086  1.5643
 1386SOL     OW 4307   0.621   3.256   3.358 -0.4059  0.8074  0.4348
 1386SOL    HW1 4308   0.619   3.325   3.291 -0.7274  0.2588 -0.1352
 1386SOL    HW2 4309   0.685   3.287   3.422 -1.0410  1.9469  0.5421
 1387SOL     OW 4310   0.190   3.095   2.842  0.8093  0.1199  0.1886
 1387SOL    HW1 4311   0.131   3.052   2.780  1.7381 -0.5801 -0.2249
 1387SOL    HW2 4312   0.181   3.045   2.923  0.9700 -0.0950  0.0734
 1388SOL     OW 4313   1.417   1.018   3.153  0.3276  0.1624  0.2178
 1388SOL    HW1 4314   1.508   0.998   3.133  0.4710  0.8304  0.1624
 1388SOL    HW2 4315   1.378   1.043   3.069  0.1440  0.0615  0.2710
 1389SOL     OW 4316   1.769   1.857   1.470  0.3204  0.3158  0.5904
 1389SOL    HW1 4317   1.861   1.838   1.451  0.1048  0.2069 -0.3752
 1389SOL    HW2 4318   1.749   1.801   1.545  0.9445  0.0907  0.6001
 1390SOL     OW 4319   0.080   3.755   2.470 -0.1158 -0.4032  0.1472
 1390SOL    HW1 4320   0.151   3.692   2.474 -0.5072 -0.8006  1.1315
 1390SOL    HW2 4321   0.021   3.730   2.541 -0.4475  0.8616  0.3562
 1391SOL     OW 4322   1.064   0.478   2.961 -0.5549 -0.4873  1.2356
 1391SOL    HW1 4323   1.002   0.452   2.893 -0.2323  2.0098 -0.1556
 1391SOL    HW2 4324   1.137   0.417   2.952 -1.0426 -0.9305  0.1158
 1392SOL     OW 4325   1.635   2.517   1.504 -0.1567 -0.5850  0.5289
 1392SOL    HW1 4326   1.655   2.560   1.421 -2.0210  0.9701  0.8188
 1392SOL    HW2 4327   1.649   2.423   1.487  0.8188 -0.1735 -1.0998
 1393SOL     OW 4328   2.552   1.334   0.516 -0.0944  0.3242  0.3847
 1393SOL    HW1 4329   2.606   1.257   0.497 -0.1537  0.2808  0.3922
 1393SOL    HW2 4330   2.598   1.406   0.473 -0.1192  0.2594  0.2499
 1394SOL     OW 4331   1.887   0.341   2.876  0.2346 -0.0560  0.0717
 1394SOL    HW1 4332   1.976   0.314   2.852  0.2956 -0.9471  1.1978
 1394SOL    HW2 4333   1.857   0.272   2.936 -1.3149  0.0889 -0.5039
 1395SOL     OW 4334   2.474   3.503   1.937 -0.3374 -0.9805 -0.3253
 1395SOL    HW1 4335   2.488   3.498   2.032  1.9762  3.1951 -0.1824
 1395SOL    HW2 4336   2.389   3.545   1.927 -0.1334 -0.4863 -0.0227
 1396SOL     OW 4337   0.250   0.858   3.128 -0.6259 -0.3292 -0.9026
 1396SOL    HW1 4338   0.314   0.921   3.096  0.3512 -1.4896 -1.3219
 1396SOL    HW2 4339   0.250   0.868   3.223  0.2511 -0.3767 -0.8944
 1397SOL     OW 4340   2.364   0.920   2.146  0.9945  0.3026  0.2059
 1397SOL    HW1 4341   2.289   0.901   2.203  0.9925 -1.2270 -0.2847
 1397SOL    HW2 4342   2.331   0.986   2.085  0.0516 -0.3069  0.0350
 1398SOL     OW 4343   1.902   0.378   2.306 -0.0120 -0.0551 -0.3260
 1398SOL    HW1 4344   1.983   0.328   2.293 -0.7722 -1.7786  1.1160
 1398SOL    HW2 4345   1.906   0.407   2.398 -2.0743 -2.3346  0.6012
 1399SOL     OW 4346   0.489   1.078   2.665  0.0398 -0.1627 -0.5147
 1399SOL    HW1 4347   0.502   1.101   2.757  2.5927  2.8743 -1.4779
 1399SOL    HW2 4348   0.394   1.074   2.654 -0.3779  1.5893  1.7893
 1400SOL     OW 4349   3.711   0.419   3.610  0.0323 -0.6085  0.8218
 1400SOL    HW1 4350   3.733   0.330   3.583  2.2302 -0.7646  2.7928
 1400SOL    HW2 4351   3.796   0.462   3.622 -0.9571  2.0120 -0.6906
 1401SOL     OW 4352   1.460   0.994   1.474  0.1447  0.3025  0.4402
 1401SOL    HW1 4353   1.524   0.932   1.438  0.5810  1.1016 -0.1912
 1401SOL    HW2 4354   1.514   1.065   1.510 -0.1997 -0.8856  3.6079
 1402SOL     OW 4355   2.410   2.788   3.560 -0.4319 -0.0299  0.3636
 1402SOL    HW1 4356   2.463   2.818   3.635 -0.9999 -0.0115  0.7624
 1402SOL    HW2 4357   2.362   2.865   3.532  1.8321  0.7248 -1.8280
 1403SOL     OW 4358   2.512   2.920   1.670  0.0359  0.6655  0.5349
 1403SOL    HW1 4359   2.599   2.879   1.666  0.8707  2.3782  0.4500
 1403SOL    HW2 4360   2.524   3.006   1.631 -1.6460  1.0670  0.8330
 1404SOL     OW 4361   0.147   1.431   2.072  0.0804  0.8598  0.4460
 1404SOL    HW1 4362   0.055   1.411   2.086 -0.0581  1.1467 -0.0323
 1404SOL    HW2 4363   0.194   1.377   2.136 -0.4837  1.5738  1.4818
 1405SOL     OW 4364   2.657   3.417   0.907 -0.0286 -0.3077 -0.1609
 1405SOL    HW1 4365   2.746   3.424   0.942 -0.4528 -0.9983  1.1148
 1405SOL    HW2 4366   2.601   3.411   0.984 -1.3137  1.2269 -0.9106
 1406SOL     OW 4367   3.556   1.012   1.055  0.4564  0.1266 -0.3591
 1406SOL    HW1 4368   3.609   0.972   0.986  1.1424 -1.8079  1.1869
 1406SOL    HW2 4369   3.595   1.099   1.067  3.0162 -1.0259  0.3525
 1407SOL     OW 4370   3.499   1.734   3.556  0.0279 -0.0230  0.6278
 1407SOL    HW1 4371   3.489   1.678   3.479 -3.7008  0.3714  0.6806
 1407SOL    HW2 4372   3.432   1.704   3.617  0.2830  2.2175  2.1219
 1408SOL     OW 4373   1.523   3.568   0.720  0.2730  0.0536  0.2393
 1408SOL    HW1 4374   1.536   3.580   0.814 -1.0508  1.9542  0.2359
 1408SOL    HW2 4375   1.591   3.506   0.693  1.5507  0.5585  2.1788
 1409SOL     OW 4376   0.970   3.610   2.780 -0.0604  0.3231 -0.8204
 1409SOL    HW1 4377   0.974   3.587   2.873 -1.9292  1.2032 -0.4791
 1409SOL    HW2 4378   0.910   3.546   2.742  0.3280  0.2602 -1.3477
 1410SOL     OW 4379   2.787   1.941   1.226  0.2616  0.2965 -0.0376
 1410SOL    HW1 4380   2.721   1.977   1.167  1.1494  0.1237 -1.1922
 1410SOL    HW2 4381   2.867   1.990   1.204  1.1568 -1.3609 -0.6451
 1411SOL     OW 4382   1.751   2.773   3.363  0.0991 -0.1255 -0.2623
 1411SOL    HW1 4383   1.772   2.687   3.399 -0.9028 -0.0749  0.4665
 1411SOL    HW2 4384   1.756   2.833   3.437 -1.1033  0.1281 -0.3587
 1412SOL     OW 4385   0.026   1.294   1.848 -0.2214  0.2365  0.3242
 1412SOL    HW1 4386   0.021   1.198   1.845  0.6682  0.1925 -0.2374
 1412SOL    HW2 4387   0.070   1.314   1.930  0.6536  0.0961 -0.0980
 1413SOL     OW 4388   2.450   2.700   1.425  0.1340 -0.0607 -0.2495
 1413SOL    HW1 4389   2.460   2.676   1.517  0.3953 -0.6469 -0.4275
 1413SOL    HW2 4390   2.424   2.793   1.427 -0.7768 -0.3177  0.4445
 1414SOL     OW 4391   2.442   1.629   1.326  0.2614 -0.5090  0.1662
 1414SOL    HW1 4392   2.420   1.615   1.234 -1.4215  0.1486  0.4270
 1414SOL    HW2 4393   2.520   1.684   1.324  0.1776 -0.4090 -0.8843
 1415SOL     OW 4394   0.211   2.054   2.692  0.0250  0.3748 -0.3729
 1415SOL    HW1 4395   0.167   1.974   2.666  1.7768 -0.9409  0.5490
 1415SOL    HW2 4396   0.297   2.050   2.650 -0.4163  2.6291 -1.7106
 1416SOL     OW 4397   0.120   0.854   1.400 -1.0522  0.2977  0.7330
 1416SOL    HW1 4398   0.088   0.896   1.480 -0.7739 -0.5136  1.2877
 1416SOL    HW2 4399   0.044   0.808   1.364 -0.7946 -0.7456  1.4713
 1417SOL     OW 4400   2.920   3.406   1.012  0.1078  0.4574  0.0018
 1417SOL    HW1 4401   2.957   3.492   1.030  0.6469  0.3305 -0.4777
 1417SOL    HW2 4402   2.878   3.380   1.094  1.3101  0.4899  0.6499
 1418SOL     OW 4403   1.808   0.831   3.751  0.0732  0.3228 -1.1169
 1418SOL    HW1 4404   1.759   0.907   3.719 -0.3685  0.3375 -0.4282
 1418SOL    HW2 4405   1.884   0.868   3.795 -0.2325  0.3750 -0.6308
 1419SOL     OW 4406   1.209   0.660   3.129  0.2518 -0.1418  0.0031
 1419SOL    HW1 4407   1.160   0.614   3.060 -1.1005 -1.3212  1.6577
 1419SOL    HW2 4408   1.245   0.737   3.085 -0.8903 -0.6205 -1.9282
 1420SOL     OW 4409   3.351   0.714   1.953  0.4331  0.1003 -0.0243
 1420SOL    HW1 4410   3.444   0.716   1.975  0.4244  1.5341 -0.0131
 1420SOL    HW2 4411   3.345   0.655   1.879  1.6229  1.2133 -1.0568
 1421SOL     OW 4412   1.827   1.668   1.685 -0.5618  0.4649 -0.6722
 1421SOL    HW1 4413   1.788   1.638   1.767 -1.6100  0.4652 -1.1600
 1421SOL    HW2 4414   1.908   1.617   1.677 -0.6640  0.1574  0.1391
 1422SOL     OW 4415   3.307   3.220   2.374  0.0946  0.1245 -0.0058
 1422SOL    HW1 4416   3.246   3.232   2.301 -0.8173 -0.7995  0.5578
 1422SOL    HW2 4417   3.313   3.125   2.384 -0.5607  0.2215  1.6957
 1423SOL     OW 4418   0.811   0.550   0.869 -0.1228 -0.2593  0.0185
 1423SOL    HW1 4419   0.779   0.552   0.779  0.3202  1.5633 -0.1409
 1423SOL    HW2 4420   0.893   0.502   0.866  0.1290  0.2047 -0.6559
 1424SOL     OW 4421   1.035   1.111   1.203 -0.2336 -0.5529  0.0666
 1424SOL    HW1 4422   0.969   1.086   1.267  0.3307  1.1981  1.3891
 1424SOL    HW2 4423   1.086   1.031   1.189 -0.4742 -1.0228  1.6984
 1425SOL     OW 4424   2.129   0.675   1.513 -0.9242 -0.5244 -0.3086
 1425SOL    HW1 4425   2.180   0.726   1.450 -0.4899  0.9223  1.1414
 1425SOL    HW2 4426   2.041   0.671   1.475 -1.1652  1.9796 -0.1746
 1426SOL     OW 4427   0.335   3.608   2.456 -0.9293  0.3347  0.3981
 1426SOL    HW1 4428   0.362   3.692   2.419 -3.9151  0.8973 -0.7269
 1426SOL    HW2 4429   0.315   3.553   2.381  0.0488 -1.1210  1.1396
 1427SOL     OW 4430   2.078   0.482   3.689  0.2843 -0.2008  0.2261
 1427SOL    HW1 4431   2.152   0.430   3.660 -1.5975 -0.9983 -3.7220
 1427SOL    HW2 4432   2.107   0.573   3.678  0.8478 -0.4947 -0.8513
 1428SOL     OW 4433   0.963   0.365   1.296 -0.2175  0.6228 -0.0773
 1428SOL    HW1 4434   0.959   0.329   1.385  2.6279 -0.6042 -0.3133
 1428SOL    HW2 4435   0.944   0.291   1.239  2.5998  0.1222 -0.5076
 1429SOL     OW 4436   2.103   1.771   3.558  0.3235 -0.6750  0.1714
 1429SOL    HW1 4437   2.157   1.727   3.493 -1.1914 -2.2832 -0.0592
 1429SOL    HW2 4438   2.066   1.846   3.512  0.1808 -1.1413 -0.4932
 1430SOL     OW 4439   2.853   1.843   0.837  0.0290 -0.5730  0.1513
 1430SOL    HW1 4440   2.793   1.774   0.806  1.8859 -2.0369 -0.3710
 1430SOL    HW2 4441   2.940   1.805   0.826  1.2965  2.4853 -1.8091
 1431SOL     OW 4442   3.363   0.584   0.580  0.0979 -0.1304 -0.3564
 1431SOL    HW1 4443   3.341   0.573   0.488 -0.4795  0.1755 -0.2637
 1431SOL    HW2 4444   3.311   0.660   0.608 -1.2117 -1.3633  0.6900
 1432SOL     OW 4445   2.403   1.139   2.319 -0.5129  0.3819  0.0374
 1432SOL    HW1 4446   2.409   1.055   2.272 -1.6256  1.2259 -1.7334
 1432SOL    HW2 4447   2.488   1.149   2.361  0.7422 -0.2672 -2.1986
 1433SOL     OW 4448   1.325   0.139   2.276 -0.4243  0.0908 -1.0684
 1433SOL    HW1 4449   1.235   0.171   2.285 -1.2680 -2.2836 -0.3186
 1433SOL    HW2 4450   1.367   0.161   2.359 -0.4374  0.7968 -1.2433
 1434SOL     OW 4451   3.232   2.400   1.525  0.7670  0.0774 -0.5174
 1434SOL    HW1 4452   3.181   2.480   1.536  0.7918 -0.1841  1.9155
 1434SOL    HW2 4453   3.312   2.415   1.576  0.4450 -1.7378  0.6011
 1435SOL     OW 4454   2.314   0.780   3.252  0.7407 -0.6419  0.1103
 1435SOL    HW1 4455   2.311   0.716   3.323  0.7367  0.0948  0.7918
 1435SOL    HW2 4456   2.260   0.853   3.283 -0.1951 -0.7662 -1.1234
 1436SOL     OW 4457   3.314   0.491   2.594 -0.0144 -0.3976 -0.5337
 1436SOL    HW1 4458   3.253   0.565   2.588  0.5878  0.0567 -1.2697
 1436SOL    HW2 4459   3.269   0.418   2.553 -0.7283 -0.5330  0.4466
 1437SOL     OW 4460   3.047   2.697   0.435  0.1616 -0.0508  0.4277
 1437SOL    HW1 4461   2.988   2.766   0.465 -0.3062 -0.0635 -0.4558
 1437SOL    HW2 4462   3.003   2.616   0.460  1.2957 -0.0894  2.6331
 1438SOL     OW 4463   0.986   1.395   2.189 -0.6609  0.0181  0.4362
 1438SOL    HW1 4464   0.902   1.418   2.228 -0.5242 -2.0061  2.0653
 1438SOL    HW2 4465   1.018   1.322   2.241  0.8263 -1.0998 -1.8608
 1439SOL     OW 4466   3.394   0.718   3.438 -0.1640 -0.4009  0.1103
 1439SOL    HW1 4467   3.473   0.764   3.467  0.3810  1.2509 -3.4870
 1439SOL    HW2 4468   3.322   0.769   3.476  0.3908 -1.1743  2.3686
 1440SOL     OW 4469   3.197   1.040   0.380 -0.1343  0.4807  0.4667
 1440SOL    HW1 4470   3.250   1.114   0.412 -1.0113  0.8853  1.0432
 1440SOL    HW2 4471   3.108   1.060   0.410 -0.1931 -1.4089  1.7200
 1441SOL     OW 4472   3.858   0.944   2.595  0.3213  0.0846 -0.1374
 1441SOL    HW1 4473   3.781   0.933   2.651 -0.0976  1.4452 -0.4197
 1441SOL    HW2 4474   3.831   0.908   2.510  1.0857 -2.3399  0.5611
 1442SOL     OW 4475   3.542   3.387   1.924  0.1044  0.3055 -0.2606
 1442SOL    HW1 4476   3.521   3.362   2.014  2.5929  1.7972  0.8443
 1442SOL    HW2 4477   3.457   3.412   1.886 -1.1529 -1.2898  1.2922
 1443SOL     OW 4478   0.890   3.727   2.229 -0.2005  0.2863 -0.1492
 1443SOL    HW1 4479   0.952   3.740   2.157 -0.6823  3.1243 -0.1658
 1443SOL    HW2 4480   0.946   3.706   2.305  0.6426  0.9814 -0.5582
 1444SOL     OW 4481   0.161   3.687   0.622 -0.3304 -0.2721 -0.3843
 1444SOL    HW1 4482   0.068   3.671   0.609  0.0349 -2.0878 -1.0919
 1444SOL    HW2 4483   0.201   3.662   0.539  0.6137  2.6300 -0.9151
 1445SOL     OW 4484   3.131   0.062   1.027  0.7477 -0.5593  0.4865
 1445SOL    HW1 4485   3.202  -0.001   1.014  0.4785 -0.9232  0.7711
 1445SOL    HW2 4486   3.158   0.113   1.103 -0.3288 -2.1938  2.0564
 1446SOL     OW 4487   3.362   1.705   3.279 -0.7758  0.2151 -0.5771
 1446SOL    HW1 4488   3.299   1.706   3.207  1.1531  2.3721 -2.4067
 1446SOL    HW2 4489   3.356   1.792   3.317  0.9043  0.4017 -0.6706
 1447SOL     OW 4490   1.072   0.822   1.565 -0.1483 -0.5765  0.0080
 1447SOL    HW1 4491   1.152   0.840   1.616 -1.0785 -0.1114  1.3540
 1447SOL    HW2 4492   1.091   0.740   1.519  1.3818 -0.0783 -0.3041
 1448SOL     OW 4493   3.347   3.159   3.259  0.3230 -0.3057  0.1667
 1448SOL    HW1 4494   3.285   3.231   3.262 -1.0622 -1.2237 -2.7316
 1448SOL    HW2 4495   3.431   3.200   3.238 -0.9597  0.4286 -4.4622
 1449SOL     OW 4496   2.416   0.896   3.830  0.4195  0.1509  0.4415
 1449SOL    HW1 4497   2.497   0.921   3.785 -0.1237  3.2376  0.9989
 1449SOL    HW2 4498   2.441   0.888   3.922  0.2590  0.2118  0.4906
 1450SOL     OW 4499   2.807   2.865   0.529  0.1091 -0.6765  0.2560
 1450SOL    HW1 4500   2.800   2.885   0.623 -1.7336 -1.6441  0.3694
 1450SOL    HW2 4501   2.776   2.944   0.485  2.0115  0.1987  0.3787
 1451SOL     OW 4502   1.365   2.766   2.852 -0.1214 -0.0643  0.0315
 1451SOL    HW1 4503   1.402   2.678   2.853  1.5865  0.5969 -1.2936
 1451SOL    HW2 4504   1.439   2.824   2.867 -0.7724  1.2684 -1.6522
 1452SOL     OW 4505   1.655   0.025   3.518 -0.2405 -0.3854 -0.4255
 1452SOL    HW1 4506   1.636   0.007   3.610 -1.9039 -0.7392 -0.8067
 1452SOL    HW2 4507   1.575   0.066   3.484  0.2361 -0.5228 -1.7817
 1453SOL     OW 4508   1.122   0.624   0.242  0.6442  0.1859  0.1407
 1453SOL    HW1 4509   1.033   0.635   0.275  0.4160 -1.5161  0.1962
 1453SOL    HW2 4510   1.153   0.713   0.226 -0.1098  0.9631  2.5752
 1454SOL     OW 4511   3.273   0.238   3.756 -0.1786 -0.5799  0.4743
 1454SOL    HW1 4512   3.234   0.317   3.794  0.0528 -0.5164  0.5844
 1454SOL    HW2 4513   3.349   0.221   3.812  1.7989  1.0731 -1.5267
 1455SOL     OW 4514   3.742   2.707   0.442  0.1736 -0.7125 -0.0213
 1455SOL    HW1 4515   3.731   2.634   0.503  1.6940 -2.4138 -1.6270
 1455SOL    HW2 4516   3.678   2.691   0.373  0.4164 -0.4394 -0.3119
 1456SOL     OW 4517   2.108   3.542   0.460  0.0025 -0.4621  0.2276
 1456SOL    HW1 4518   2.196   3.568   0.485 -1.0609  2.3913  1.3965
 1456SOL    HW2 4519   2.057   3.548   0.540 -2.0001  1.8762 -1.0626
 1457SOL     OW 4520   2.212   3.617   1.923 -0.2224 -0.3472 -0.9803
 1457SOL    HW1 4521   2.189   3.616   2.016 -1.4046 -1.9361 -1.2635
 1457SOL    HW2 4522   2.178   3.700   1.891  0.1280  0.1816 -0.0215
 1458SOL     OW 4523   2.292   1.949   2.305  0.3811 -0.3489 -0.4384
 1458SOL    HW1 4524   2.204   1.973   2.275  0.4857  1.5345  0.5857
 1458SOL    HW2 4525   2.278   1.916   2.394  0.8272  2.1418  0.6741
 1459SOL     OW 4526   3.006   0.214   0.844 -0.0914 -0.1122 -0.1037
 1459SOL    HW1 4527   2.932   0.273   0.855 -0.0193 -0.1479  0.6209
 1459SOL    HW2 4528   3.042   0.203   0.932  1.9409  1.3939 -0.6717
 1460SOL     OW 4529   0.825   2.506   2.369  0.1440  0.7727 -0.2237
 1460SOL    HW1 4530   0.751   2.455   2.337  0.6735  0.6600 -1.3076
 1460SOL    HW2 4531   0.836   2.478   2.460 -1.1429  0.8130 -0.0314
 1461SOL     OW 4532   3.658   3.378   3.543  0.1986  0.3524  0.3872
 1461SOL    HW1 4533   3.696   3.442   3.602  2.3339 -1.6914  1.3755
 1461SOL    HW2 4534   3.728   3.357   3.481 -1.3064  0.8601 -1.6229
 1462SOL     OW 4535   3.045   1.789   2.427 -0.0302 -0.4016 -0.1720
 1462SOL    HW1 4536   3.117   1.841   2.464  0.0247 -0.6540  0.0780
 1462SOL    HW2 4537   3.007   1.744   2.502 -0.9777  0.3589 -0.1724
 1463SOL     OW 4538   2.013   0.223   2.621  0.2269 -0.1802 -0.6758
 1463SOL    HW1 4539   2.080   0.262   2.566 -0.0946 -0.3405 -1.1917
 1463SOL    HW2 4540   2.059   0.158   2.674  0.7589  0.8466  0.1513
 1464SOL     OW 4541   3.113   0.379   0.116 -0.2397  0.4929 -0.2438
 1464SOL    HW1 4542   3.052   0.410   0.049 -0.8478 -0.9168 -0.3883
 1464SOL    HW2 4543   3.100   0.284   0.118 -0.4746  0.5167  2.0956
 1465SOL     OW 4544   3.438   3.409   3.715  0.3111 -0.2918 -0.2441
 1465SOL    HW1 4545   3.532   3.419   3.699  0.6249 -1.2467  0.8554
 1465SOL    HW2 4546   3.425   3.446   3.802  0.0629 -1.9948  0.4884
 1466SOL     OW 4547   3.792   0.597   3.163  0.1317 -0.1204  0.0935
 1466SOL    HW1 4548   3.743   0.636   3.090  0.6263 -1.6039 -1.0983
 1466SOL    HW2 4549   3.732   0.601   3.237 -1.2422 -0.5179 -0.9474
 1467SOL     OW 4550   2.308   1.658   1.773 -0.3172 -0.0132 -0.1226
 1467SOL    HW1 4551   2.383   1.709   1.802  0.2430 -0.4758 -0.7244
 1467SOL    HW2 4552   2.344   1.595   1.711 -0.7422 -2.0806  1.6267
 1468SOL     OW 4553   3.843   0.987   1.884  0.2006 -0.4173  0.6245
 1468SOL    HW1 4554   3.816   1.017   1.970  0.3755 -0.7384  0.7902
 1468SOL    HW2 4555   3.764   0.952   1.844 -0.3834  1.6723 -0.1800
 1469SOL     OW 4556   1.979   2.083   2.495 -0.1855 -0.0812  0.0701
 1469SOL    HW1 4557   2.036   2.108   2.567 -1.2482  0.1437  0.8610
 1469SOL    HW2 4558   1.910   2.030   2.535 -0.9124  0.2237 -0.7212
 1470SOL     OW 4559   0.847   0.253   2.999 -0.5265  0.3572  0.8200
 1470SOL    HW1 4560   0.835   0.325   2.937  0.8736 -1.4942 -1.8009
 1470SOL    HW2 4561   0.774   0.193   2.981 -0.3612  0.0107  1.2928
 1471SOL     OW 4562   3.607   2.823   3.476  0.1385 -0.4513 -0.2259
 1471SOL    HW1 4563   3.602   2.842   3.570 -0.6289 -1.0128 -0.1387
 1471SOL    HW2 4564   3.626   2.908   3.435 -0.2126 -0.0688  0.3825
 1472SOL     OW 4565   1.245   3.726   2.722  0.1080  0.2292  0.1769
 1472SOL    HW1 4566   1.163   3.699   2.764  0.8863  0.8408  2.2284
 1472SOL    HW2 4567   1.271   3.650   2.670 -0.5025 -0.9432  1.5044
 1473SOL     OW 4568   0.734   3.705   0.154 -0.0808 -0.7006 -0.1516
 1473SOL    HW1 4569   0.707   3.656   0.076 -1.1826 -0.9397  0.3620
 1473SOL    HW2 4570   0.755   3.637   0.218  2.3180 -0.5482 -0.6705
 1474SOL     OW 4571   0.297   3.237   3.573  0.2039 -0.1481  0.7133
 1474SOL    HW1 4572   0.316   3.191   3.491 -0.4709  2.8396 -1.2780
 1474SOL    HW2 4573   0.360   3.201   3.636  3.4180  0.0715 -2.1003
 1475SOL     OW 4574   2.687   2.425   3.023 -0.0476  0.1576  0.3941
 1475SOL    HW1 4575   2.695   2.507   2.975  1.9001 -1.3019 -1.9988
 1475SOL    HW2 4576   2.771   2.415   3.068 -1.4029  0.9065  3.3483
 1476SOL     OW 4577   0.568   1.305   2.117 -0.5568  0.0236 -0.1313
 1476SOL    HW1 4578   0.561   1.284   2.024 -0.9064 -0.0777 -0.0856
 1476SOL    HW2 4579   0.577   1.220   2.161 -1.4413 -0.0110  0.0094
 1477SOL     OW 4580   1.738   1.611   0.671 -0.2461  0.7678  0.2097
 1477SOL    HW1 4581   1.795   1.633   0.745 -0.2006  1.1280  0.0682
 1477SOL    HW2 4582   1.655   1.584   0.711 -0.4903  1.7379  0.3720
 1478SOL     OW 4583   0.905   3.328   2.033  0.4398 -0.2635 -0.0510
 1478SOL    HW1 4584   0.850   3.404   2.051  1.7700  0.1004  3.2373
 1478SOL    HW2 4585   0.844   3.260   2.005 -2.4379 -0.7190  5.7740
 1479SOL     OW 4586   2.057   3.467   2.776 -0.2504 -0.1133 -0.4976
 1479SOL    HW1 4587   2.047   3.435   2.865 -0.7186 -0.1812 -0.5716
 1479SOL    HW2 4588   1.973   3.509   2.756 -0.1858 -0.1890 -0.9387
 1480SOL     OW 4589   0.335   0.534   2.826 -0.0521 -0.8062 -0.0707
 1480SOL    HW1 4590   0.270   0.492   2.882 -0.9429 -2.1345 -2.0238
 1480SOL    HW2 4591   0.318   0.500   2.739  0.7925  1.7787 -1.3422
 1481SOL     OW 4592   2.410   3.665   1.054 -0.1375 -0.0126 -1.3111
 1481SOL    HW1 4593   2.385   3.727   1.123 -0.9390  0.1424 -1.7226
 1481SOL    HW2 4594   2.465   3.601   1.098 -0.4733  0.1965 -0.5642
 1482SOL     OW 4595   0.365   2.403   3.502  0.0747  0.8379 -0.4801
 1482SOL    HW1 4596   0.278   2.430   3.533 -0.3685 -0.3206 -0.6817
 1482SOL    HW2 4597   0.425   2.437   3.568 -0.7759 -0.9597  1.3370
 1483SOL     OW 4598   3.004   3.007   2.711  0.1409  0.1989  0.0170
 1483SOL    HW1 4599   2.998   3.022   2.617 -1.4984 -0.4156 -0.0145
 1483SOL    HW2 4600   2.991   3.093   2.751  0.1076  0.3418 -0.3015
 1484SOL     OW 4601   1.028   3.733   1.710 -0.4964  0.7030  0.0554
 1484SOL    HW1 4602   1.078   3.787   1.648  0.1088  0.5321  0.3786
 1484SOL    HW2 4603   0.988   3.665   1.655  0.7168  0.0522 -0.0616
 1485SOL     OW 4604   3.191   2.444   2.510 -0.6564  0.5705 -0.4574
 1485SOL    HW1 4605   3.211   2.385   2.437  1.4746 -0.2878  0.7158
 1485SOL    HW2 4606   3.098   2.429   2.528 -0.2621 -2.3614 -0.3371
 1486SOL     OW 4607   3.371   1.188   0.874 -0.0099  0.6060 -0.1583
 1486SOL    HW1 4608   3.426   1.136   0.933 -1.6689  0.3023  1.2125
 1486SOL    HW2 4609   3.421   1.194   0.793  2.1688  0.6623  1.1238
 1487SOL     OW 4610   2.874   0.064  -0.023  0.0003 -0.1847  0.5144
 1487SOL    HW1 4611   2.933   0.095   0.046  2.0764 -0.3385 -1.1189
 1487SOL    HW2 4612   2.854  -0.026   0.002  2.6553 -1.0506 -0.2358
 1488SOL     OW 4613   1.960   1.264   1.318 -0.2809 -0.4585 -0.3260
 1488SOL    HW1 4614   1.870   1.232   1.319 -0.8784  0.9581 -2.5603
 1488SOL    HW2 4615   1.996   1.231   1.236  1.0129 -0.3833  0.1914
 1489SOL     OW 4616   0.112   2.421   3.536  0.4547  0.0791 -1.6630
 1489SOL    HW1 4617   0.027   2.451   3.504  0.6052  0.8943 -1.3119
 1489SOL    HW2 4618   0.094   2.393   3.626  0.3693 -0.6579 -1.9016
 1490SOL     OW 4619   1.897   1.977   0.141 -0.2850  0.9535 -0.0043
 1490SOL    HW1 4620   1.960   1.906   0.133  0.7164  1.8801 -0.7732
 1490SOL    HW2 4621   1.867   1.974   0.232 -0.4383 -0.5631 -0.0829
 1491SOL     OW 4622   3.550   1.562   1.867 -0.7919  0.1331 -0.5084
 1491SOL    HW1 4623   3.582   1.514   1.790 -0.4159  2.4444 -1.8753
 1491SOL    HW2 4624   3.520   1.493   1.926  2.8828 -2.0616 -0.8310
 1492SOL     OW 4625   3.495   2.454   2.298 -0.2773 -0.0609  0.2435
 1492SOL    HW1 4626   3.582   2.491   2.287 -0.4952  0.9860  1.7622
 1492SOL    HW2 4627   3.505   2.389   2.368 -0.4590 -0.9107 -0.5038
 1493SOL     OW 4628   2.725   0.346   0.556  0.0273  0.5233 -0.2387
 1493SOL    HW1 4629   2.749   0.269   0.609  0.2860 -0.1039 -1.2420
 1493SOL    HW2 4630   2.804   0.365   0.506 -0.0893  1.3681 -0.1029
 1494SOL     OW 4631   2.840   2.298   2.341  0.1924  0.0433  0.5268
 1494SOL    HW1 4632   2.831   2.206   2.365  1.1824  0.1540  1.3933
 1494SOL    HW2 4633   2.928   2.305   2.303  0.3165  0.7129  0.9134
 1495SOL     OW 4634   0.680   3.474   0.033 -0.6262  0.2007  0.5036
 1495SOL    HW1 4635   0.663   3.447  -0.057  0.2516 -1.0322  0.6790
 1495SOL    HW2 4636   0.643   3.404   0.086  1.4131 -0.6039  0.9880
 1496SOL     OW 4637   3.566   1.106   2.431 -0.0323  0.4930 -0.3012
 1496SOL    HW1 4638   3.507   1.062   2.492 -0.0456  0.9344  0.0129
 1496SOL    HW2 4639   3.508   1.144   2.365 -0.2245  1.9379  0.6505
 1497SOL     OW 4640   3.471   2.501   3.329  0.7106 -0.5966 -0.2326
 1497SOL    HW1 4641   3.485   2.564   3.259 -1.5424  0.2300 -0.0048
 1497SOL    HW2 4642   3.379   2.510   3.352  0.5174 -3.3976  0.4014
 1498SOL     OW 4643   3.166   1.069   3.301  0.3309  0.1410  0.1935
 1498SOL    HW1 4644   3.214   0.987   3.297  0.0159 -0.1855  2.3115
 1498SOL    HW2 4645   3.138   1.084   3.211  0.4051 -2.0434 -0.2456
 1499SOL     OW 4646   3.390   3.446   0.777  0.4159  0.2179 -0.6812
 1499SOL    HW1 4647   3.457   3.429   0.711  0.6242 -1.6821 -0.0393
 1499SOL    HW2 4648   3.436   3.436   0.860 -0.6945 -1.5749 -0.2193
 1500SOL     OW 4649   3.448   3.635   1.711 -0.1688  0.1901 -0.7015
 1500SOL    HW1 4650   3.451   3.731   1.719  0.7584  0.2015 -1.0954
 1500SOL    HW2 4651   3.538   3.607   1.721 -0.6032 -0.7831  0.7736
 1501SOL     OW 4652   2.230   1.886   0.469  0.4974 -0.2657  0.2277
 1501SOL    HW1 4653   2.181   1.946   0.413  2.1622  2.2746  1.3428
 1501SOL    HW2 4654   2.277   1.829   0.408 -0.7596 -0.1968 -0.8537
 1502SOL     OW 4655   0.531   3.659   2.635 -0.4650  0.0011  0.2092
 1502SOL    HW1 4656   0.459   3.639   2.576 -0.4551 -2.8132  1.0118
 1502SOL    HW2 4657   0.489   3.671   2.721 -0.2265  1.4733  0.1507
 1503SOL     OW 4658   0.447   1.929   2.049 -0.4853  0.0195  0.1018
 1503SOL    HW1 4659   0.513   1.890   2.106  1.7003  1.1142 -1.5749
 1503SOL    HW2 4660   0.473   1.905   1.961 -3.0485 -0.5118 -0.6092
 1504SOL     OW 4661   1.640   3.393   1.283 -0.2872 -0.1045 -0.3917
 1504SOL    HW1 4662   1.638   3.372   1.190 -1.5444  1.6739 -0.8102
 1504SOL    HW2 4663   1.707   3.334   1.319  0.6959 -0.3930 -2.5136
 1505SOL     OW 4664   1.953   2.668   2.622 -0.0675 -0.2316 -0.2948
 1505SOL    HW1 4665   1.919   2.730   2.558  0.9169 -0.0169 -0.6257
 1505SOL    HW2 4666   2.029   2.629   2.580  1.9844  1.5487  1.5091
 1506SOL     OW 4667   3.080   0.124   2.337 -0.5991 -0.6075 -0.4321
 1506SOL    HW1 4668   3.123   0.050   2.294  0.1451 -0.4320 -0.0135
 1506SOL    HW2 4669   2.994   0.091   2.362  0.1773 -1.7543  0.8862
 1507SOL     OW 4670   0.021   2.307   3.197 -0.4250  0.0777 -0.3107
 1507SOL    HW1 4671  -0.039   2.278   3.266 -0.4758 -1.3747 -0.9271
 1507SOL    HW2 4672   0.074   2.230   3.177  0.1003  0.6860 -1.3670
 1508SOL     OW 4673   2.788   2.628   3.364  0.8656 -0.0754 -0.4977
 1508SOL    HW1 4674   2.864   2.588   3.406 -0.8354 -1.7711  1.1127
 1508SOL    HW2 4675   2.713   2.581   3.399 -1.0921  2.6243 -0.7406
 1509SOL     OW 4676   0.825   3.554   1.868  0.2682 -0.0366 -0.3322
 1509SOL    HW1 4677   0.910   3.583   1.902  0.1633 -0.1516  0.0330
 1509SOL    HW2 4678   0.762   3.584   1.934 -0.0610  0.7382 -0.9799
 1510SOL     OW 4679   0.717   3.854   2.674  0.5463 -0.0457 -0.9009
 1510SOL    HW1 4680   0.691   3.765   2.649  0.7488 -0.6013  0.7277
 1510SOL    HW2 4681   0.685   3.909   2.603  0.2574 -1.3961 -1.8672
 1511SOL     OW 4682   0.598   2.756   0.153  0.1231 -0.0838 -0.6081
 1511SOL    HW1 4683   0.551   2.675   0.173 -0.0116  0.6507  2.5003
 1511SOL    HW2 4684   0.529   2.817   0.126 -0.0723 -0.3382 -0.6942
 1512SOL     OW 4685   3.237   0.786   0.827 -0.2755 -0.2668  0.7386
 1512SOL    HW1 4686   3.179   0.858   0.851  0.7371  0.6049  0.6098
 1512SOL    HW2 4687   3.231   0.780   0.731 -0.7517 -0.7077  0.7886
 1513SOL     OW 4688   0.602   2.534   2.120  0.0754 -0.3730 -0.8826
 1513SOL    HW1 4689   0.567   2.506   2.035 -2.8212 -1.1713  0.4424
 1513SOL    HW2 4690   0.552   2.484   2.184  0.9478  1.4634  1.3801
 1514SOL     OW 4691   3.810   2.711   3.626 -0.1162 -0.1889  0.1014
 1514SOL    HW1 4692   3.773   2.624   3.642 -0.1005 -0.0995  0.6278
 1514SOL    HW2 4693   3.769   2.739   3.544  0.9317 -1.2720 -0.8286
 1515SOL     OW 4694   1.427   2.022   0.050 -0.4935 -0.0243  0.2506
 1515SOL    HW1 4695   1.356   1.958   0.044 -0.9117  0.2113  2.0940
 1515SOL    HW2 4696   1.498   1.976   0.094 -0.7733  0.7205  1.5305
 1516SOL     OW 4697   3.432   3.405   2.704  0.2198  0.5191  0.2212
 1516SOL    HW1 4698   3.447   3.452   2.786  1.6702 -0.1008  0.3365
 1516SOL    HW2 4699   3.416   3.314   2.731 -0.9831  0.6187 -0.0963
 1517SOL     OW 4700   0.373   2.349   3.784  0.1094  0.6554 -0.3136
 1517SOL    HW1 4701   0.450   2.294   3.772 -0.2767  0.1671 -0.5823
 1517SOL    HW2 4702   0.299   2.293   3.758 -0.3391  1.0929 -0.0004
 1518SOL     OW 4703   2.137   3.533   2.282  0.0300  1.1380 -0.1155
 1518SOL    HW1 4704   2.142   3.438   2.292 -1.3882  1.1434  0.8279
 1518SOL    HW2 4705   2.229   3.562   2.283  0.5129 -0.2592 -1.0713
 1519SOL     OW 4706   0.803   1.588   2.530 -0.2859 -0.1442 -0.2125
 1519SOL    HW1 4707   0.725   1.568   2.478 -0.9118  1.7704 -0.1234
 1519SOL    HW2 4708   0.816   1.682   2.515  1.9169 -0.3971 -0.0753
 1520SOL     OW 4709   3.373   1.698   3.795 -0.1182 -0.2995  0.0956
 1520SOL    HW1 4710   3.313   1.772   3.782  1.3124  1.0560  0.8132
 1520SOL    HW2 4711   3.341   1.630   3.736 -2.6105  0.1928  0.7683
 1521SOL     OW 4712   3.197   3.411   3.360  0.0636 -0.0246 -0.0360
 1521SOL    HW1 4713   3.121   3.462   3.387  0.7623  0.5867  0.8624
 1521SOL    HW2 4714   3.270   3.473   3.364  0.8491 -0.9526  0.5476
 1522SOL     OW 4715   2.544   2.534   1.677  0.3402 -0.2425  0.4606
 1522SOL    HW1 4716   2.513   2.445   1.664  1.1930 -0.4587 -0.2037
 1522SOL    HW2 4717   2.478   2.575   1.733 -1.1684 -0.6372 -0.9477
 1523SOL     OW 4718   0.942   3.367   0.039  0.3178 -0.2291 -0.4009
 1523SOL    HW1 4719   0.885   3.421   0.093 -0.9378 -2.5259  0.7098
 1523SOL    HW2 4720   0.916   3.387  -0.051 -0.5519  0.5235  0.0014
 1524SOL     OW 4721   0.632   0.851   1.862 -0.1137  0.2752 -0.3999
 1524SOL    HW1 4722   0.598   0.847   1.773  1.8371  1.3859 -1.2460
 1524SOL    HW2 4723   0.654   0.943   1.876  1.9020 -0.2609  0.3000
 1525SOL     OW 4724   2.615   2.975   2.503  0.6397 -0.3017  0.1850
 1525SOL    HW1 4725   2.615   3.070   2.515 -2.2093  0.0912 -1.9874
 1525SOL    HW2 4726   2.588   2.941   2.588 -1.4510  1.1035  0.1612
 1526SOL     OW 4727   0.609   2.946   3.497  1.0449  0.3208  0.6440
 1526SOL    HW1 4728   0.563   2.862   3.494  2.7165 -0.6406 -1.1875
 1526SOL    HW2 4729   0.564   3.000   3.432  1.6072 -0.1516 -0.1649
 1527SOL     OW 4730   0.167   0.965  -0.020  0.3960  0.1901 -0.1439
 1527SOL    HW1 4731   0.138   0.962   0.071 -1.1419 -0.1879 -0.6300
 1527SOL    HW2 4732   0.231   0.893  -0.026  2.0321  1.4382  1.0862
 1528SOL     OW 4733   1.629   2.270   3.778 -0.9861 -0.5414  0.1293
 1528SOL    HW1 4734   1.678   2.299   3.702 -0.2822  0.1633  0.8382
 1528SOL    HW2 4735   1.541   2.253   3.745 -0.6616 -0.3557 -0.8532
 1529SOL     OW 4736   3.285   2.114   2.845  0.5311  0.7078 -0.2910
 1529SOL    HW1 4737   3.254   2.202   2.864  1.1199  0.7627  0.4616
 1529SOL    HW2 4738   3.236   2.058   2.905  0.7643  0.6189 -0.1831
 1530SOL     OW 4739   3.656   1.145   0.254  0.3543  0.6541 -0.5644
 1530SOL    HW1 4740   3.665   1.237   0.278 -1.1032  0.8005 -0.5112
 1530SOL    HW2 4741   3.600   1.107   0.322  0.3045 -0.0887 -1.0002
 1531SOL     OW 4742   2.335   0.710   0.561 -0.1121  0.3223  0.4103
 1531SOL    HW1 4743   2.280   0.784   0.588 -0.0558  0.2225  0.8024
 1531SOL    HW2 4744   2.311   0.694   0.470 -0.0020  0.9317  0.2732
 1532SOL     OW 4745   1.356   2.343   2.954  0.0828  0.2336 -0.2603
 1532SOL    HW1 4746   1.404   2.325   3.035  1.6594  0.5636 -1.0892
 1532SOL    HW2 4747   1.352   2.260   2.908 -0.4980  0.1226 -0.0136
 1533SOL     OW 4748   0.912   3.532   0.516 -0.1093 -0.3856  0.2270
 1533SOL    HW1 4749   0.953   3.532   0.429  0.8002 -0.5795  0.6468
 1533SOL    HW2 4750   0.939   3.449   0.555  0.7664  0.3749  1.2820
 1534SOL     OW 4751   1.060   2.360   3.406  0.3067  0.1460 -0.0915
 1534SOL    HW1 4752   1.146   2.374   3.445 -0.6631  2.2078  1.4933
 1534SOL    HW2 4753   1.007   2.434   3.436 -1.9581 -0.8841 -1.2523
 1535SOL     OW 4754   1.301   3.691   2.418 -0.2710  0.2800  0.1691
 1535SOL    HW1 4755   1.346   3.611   2.392 -0.9001  0.9464 -3.6686
 1535SOL    HW2 4756   1.359   3.761   2.388 -0.3043  1.2949  2.3415
 1536SOL     OW 4757   2.092   2.621   2.838  0.0112  0.1182 -0.4311
 1536SOL    HW1 4758   2.040   2.598   2.915  0.2500  0.4229 -0.1761
 1536SOL    HW2 4759   2.028   2.640   2.770 -0.1986 -1.1516 -0.6091
 1537SOL     OW 4760   1.816   1.278   3.437 -0.2419  0.4553 -0.2774
 1537SOL    HW1 4761   1.741   1.330   3.465 -0.2649 -0.2361  0.9704
 1537SOL    HW2 4762   1.826   1.211   3.504  1.3915  0.4295 -0.5005
 1538SOL     OW 4763   1.182   0.326   2.642 -0.0750  0.0505 -0.4191
 1538SOL    HW1 4764   1.257   0.311   2.585  0.5267 -0.5006  0.4965
 1538SOL    HW2 4765   1.118   0.370   2.586 -0.2764 -2.1866 -2.0830
 1539SOL     OW 4766   3.410  -0.016   2.862  0.3601 -0.6168 -0.5196
 1539SOL    HW1 4767   3.373   0.071   2.847 -1.5680 -1.1903  0.6140
 1539SOL    HW2 4768   3.448  -0.012   2.950 -3.0598 -1.8695  1.1834
 1540SOL     OW 4769   1.179   3.686   1.149  0.9630 -0.2853 -0.9679
 1540SOL    HW1 4770   1.184   3.614   1.212 -0.9631  0.0619 -0.3712
 1540SOL    HW2 4771   1.090   3.720   1.158  1.4364  1.3645 -2.1460
 1541SOL     OW 4772   1.843   2.319   3.051 -0.1925 -0.8432  0.4774
 1541SOL    HW1 4773   1.901   2.395   3.056  0.4470 -1.3210  0.4763
 1541SOL    HW2 4774   1.756   2.355   3.033  0.1774 -0.1452  0.0790
 1542SOL     OW 4775   2.752   1.252   2.676 -0.1728 -0.1835  0.0423
 1542SOL    HW1 4776   2.718   1.337   2.650  0.7322 -0.1799 -1.2911
 1542SOL    HW2 4777   2.703   1.189   2.623  1.3468 -0.2155 -1.4550
 1543SOL     OW 4778   0.629   3.403   3.623  0.4321 -0.2746  0.1362
 1543SOL    HW1 4779   0.719   3.388   3.597  0.0194 -2.1139 -0.3852
 1543SOL    HW2 4780   0.587   3.317   3.615 -1.0929  0.3008  1.4359
 1544SOL     OW 4781   1.715   1.962   3.639  0.0266 -0.1935  0.3757
 1544SOL    HW1 4782   1.745   2.036   3.691 -1.1642 -0.2157  1.1368
 1544SOL    HW2 4783   1.785   1.898   3.645  0.7980  0.6201  0.2222
 1545SOL     OW 4784   1.687   3.429   3.462 -0.0667 -0.5586  0.5952
 1545SOL    HW1 4785   1.723   3.516   3.481  1.1011 -1.0350  0.6255
 1545SOL    HW2 4786   1.643   3.403   3.544 -2.2033  0.8200 -0.0380
 1546SOL     OW 4787   3.802   1.169   1.318 -0.1627  0.0567 -0.0451
 1546SOL    HW1 4788   3.808   1.089   1.370  2.0965 -1.1708 -1.9490
 1546SOL    HW2 4789   3.851   1.235   1.368 -0.6542 -0.1965  0.7813
 1547SOL     OW 4790   0.155   0.872   3.444 -0.4459  1.0225 -0.3807
 1547SOL    HW1 4791   0.148   0.804   3.511 -0.1115  1.2018 -0.1608
 1547SOL    HW2 4792   0.068   0.911   3.439 -0.4628  1.0265 -0.0302
 1548SOL     OW 4793   3.268   3.172   1.866 -0.0954  0.5915  0.0825
 1548SOL    HW1 4794   3.179   3.167   1.831  0.8007  0.2426 -2.3711
 1548SOL    HW2 4795   3.297   3.260   1.844 -0.1600  1.1150  1.9046
 1549SOL     OW 4796   1.110   0.492   0.994  0.4543 -0.0444 -0.0240
 1549SOL    HW1 4797   1.096   0.459   0.906  2.0783  0.9194 -0.6990
 1549SOL    HW2 4798   1.140   0.417   1.045 -2.4048 -1.0786  0.3033
 1550SOL     OW 4799   0.583   0.800   0.751 -0.1803  0.2111 -0.0337
 1550SOL    HW1 4800   0.506   0.827   0.801  0.8474  0.3562  1.5133
 1550SOL    HW2 4801   0.572   0.705   0.741  0.4064 -0.0885  1.9226
 1551SOL     OW 4802   0.027   0.671   0.260  0.5321  0.4225 -0.0524
 1551SOL    HW1 4803   0.053   0.616   0.334  0.2942  0.6631  0.2116
 1551SOL    HW2 4804   0.068   0.630   0.184  2.2191  1.1569  0.4202
 1552SOL     OW 4805   2.517   2.412   1.109  0.5917  0.9342  0.6509
 1552SOL    HW1 4806   2.562   2.493   1.084  2.0332 -0.2036 -0.7435
 1552SOL    HW2 4807   2.457   2.395   1.036  1.6321 -0.1397 -0.0074
 1553SOL     OW 4808   1.766   0.583   1.265  0.0028 -0.2641 -0.3124
 1553SOL    HW1 4809   1.696   0.603   1.327  1.0462 -0.0451  0.8455
 1553SOL    HW2 4810   1.837   0.643   1.290  0.7088 -0.6803 -1.2626
 1554SOL     OW 4811   3.321   1.265   0.474  0.4571  0.6266 -0.1595
 1554SOL    HW1 4812   3.292   1.333   0.534  0.0772 -0.9351  1.5352
 1554SOL    HW2 4813   3.293   1.295   0.388  0.7641  2.8129  0.4345
 1555SOL     OW 4814   3.028   0.271   2.105 -0.6202 -0.3594 -0.2073
 1555SOL    HW1 4815   3.014   0.240   2.195  0.9957  1.2527  0.6783
 1555SOL    HW2 4816   2.940   0.295   2.075 -1.6599 -3.7593 -0.2775
 1556SOL     OW 4817   0.270   3.057   0.807  0.3534  0.3133 -1.0206
 1556SOL    HW1 4818   0.256   2.988   0.872  1.0390  0.8070 -0.3252
 1556SOL    HW2 4819   0.288   3.135   0.859 -3.0545  1.7197 -1.6749
 1557SOL     OW 4820   2.504   1.152   3.222  0.1089 -0.0102  0.6690
 1557SOL    HW1 4821   2.468   1.101   3.296 -3.0743 -1.7241 -1.7823
 1557SOL    HW2 4822   2.585   1.106   3.199 -0.6256 -1.5855  1.0323
 1558SOL     OW 4823   0.346   0.648   3.468  0.0770  0.0124  0.0808
 1558SOL    HW1 4824   0.415   0.710   3.493 -0.0861  0.7881 -1.3200
 1558SOL    HW2 4825   0.357   0.637   3.374 -1.2218 -0.4585 -0.0267
 1559SOL     OW 4826   2.731   1.896   2.705 -0.6791  0.6708 -0.3861
 1559SOL    HW1 4827   2.795   1.956   2.666  1.1855 -1.4484 -0.7680
 1559SOL    HW2 4828   2.715   1.830   2.637  1.9982 -2.6316  1.8771
 1560SOL     OW 4829   0.067   1.021   0.242  0.2307  0.2117  0.1429
 1560SOL    HW1 4830   0.051   0.983   0.328  1.8057  1.4050  1.0225
 1560SOL    HW2 4831  -0.009   1.078   0.226  1.1700  2.1503  2.0720
 1561SOL     OW 4832   2.336   2.470   3.750 -0.2290 -0.2416  0.3187
 1561SOL    HW1 4833   2.383   2.521   3.815 -0.5756 -0.0896  0.4554
 1561SOL    HW2 4834   2.275   2.533   3.710 -0.3043 -0.4285  0.1389
 1562SOL     OW 4835   2.398   0.406   0.924 -0.8707 -0.0923  0.1849
 1562SOL    HW1 4836   2.396   0.429   0.831 -1.3922  0.0507  0.2310
 1562SOL    HW2 4837   2.307   0.389   0.947 -0.7421 -0.1369  0.6697
 1563SOL     OW 4838   1.506   1.125   2.665 -0.0065 -0.2481  0.1234
 1563SOL    HW1 4839   1.558   1.067   2.609 -0.7611  0.2582 -1.1434
 1563SOL    HW2 4840   1.417   1.117   2.631 -0.4646  0.1878  1.1756
 1564SOL     OW 4841   2.463   1.755   2.673 -0.1396 -0.4757  0.2111
 1564SOL    HW1 4842   2.536   1.729   2.617  0.1941  1.2952 -0.2569
 1564SOL    HW2 4843   2.476   1.849   2.688 -1.2885 -0.4993  1.6898
 1565SOL     OW 4844   2.316   1.754   0.746 -0.3246 -0.2741 -0.0037
 1565SOL    HW1 4845   2.397   1.756   0.695  0.1896  0.3386  0.8057
 1565SOL    HW2 4846   2.257   1.813   0.699 -0.4031 -0.9206 -0.7375
 1566SOL     OW 4847   1.223   1.565   2.388  0.0383 -0.0203 -0.0237
 1566SOL    HW1 4848   1.145   1.513   2.406  0.5468 -0.9502 -0.4799
 1566SOL    HW2 4849   1.190   1.646   2.349 -0.6835 -0.5043 -0.4283
 1567SOL     OW 4850   1.888   0.117   0.477  0.0877  0.8847 -0.1611
 1567SOL    HW1 4851   1.908   0.131   0.385 -2.5483  1.1078 -0.7541
 1567SOL    HW2 4852   1.888   0.021   0.487 -1.2016  0.8113 -0.7903
 1568SOL     OW 4853   0.390   0.948   1.042  0.3083 -0.3652  0.0781
 1568SOL    HW1 4854   0.467   0.918   1.091  0.7146  2.7500  1.5663
 1568SOL    HW2 4855   0.324   0.965   1.109 -0.8799 -0.7024 -0.9666
 1569SOL     OW 4856   3.646   1.047   0.790  0.0724  0.1939 -0.3346
 1569SOL    HW1 4857   3.622   1.037   0.698  0.1873  0.1552 -0.3607
 1569SOL    HW2 4858   3.739   1.024   0.793 -0.3876 -1.9069  0.1381
 1570SOL     OW 4859   1.637   2.746   0.115  0.4174 -0.1545  0.6046
 1570SOL    HW1 4860   1.639   2.782   0.204  3.1909  1.3194  0.0796
 1570SOL    HW2 4861   1.653   2.652   0.127  0.2368 -0.0602  1.6953
 1571SOL     OW 4862   0.157   3.702   2.898 -0.3573  0.5580 -0.3176
 1571SOL    HW1 4863   0.084   3.731   2.842 -1.9155 -1.2356  0.6555
 1571SOL    HW2 4864   0.174   3.612   2.869 -0.2856  0.0730  1.1700
 1572SOL     OW 4865   1.674   3.412   3.193  0.0632  0.9243 -0.2956
 1572SOL    HW1 4866   1.682   3.420   3.288 -0.2534  0.6429 -0.2443
 1572SOL    HW2 4867   1.697   3.321   3.175  0.1083  0.9732 -0.4898
 1573SOL     OW 4868   2.064   3.051   1.071  0.2343  0.0077 -0.5223
 1573SOL    HW1 4869   2.096   3.099   1.147 -1.3108  0.3413 -0.0538
 1573SOL    HW2 4870   2.142   3.008   1.035  1.1878  0.7949  0.5448
 1574SOL     OW 4871   2.327   2.132   1.558 -0.4989  0.1689  0.5178
 1574SOL    HW1 4872   2.317   2.040   1.532 -0.3392  0.4955 -0.7429
 1574SOL    HW2 4873   2.247   2.175   1.526  0.6629  0.9982 -1.4287
 1575SOL     OW 4874   1.842   2.261   0.103  0.2929  0.1505  0.2820
 1575SOL    HW1 4875   1.757   2.251   0.059 -0.6335  3.2480  1.1316
 1575SOL    HW2 4876   1.895   2.189   0.068 -2.8774 -2.4776  0.3589
 1576SOL     OW 4877   2.145   2.105   0.316 -0.3309  0.8183 -0.3732
 1576SOL    HW1 4878   2.209   2.114   0.245 -0.5021  1.5491 -0.4472
 1576SOL    HW2 4879   2.061   2.100   0.272 -0.2631 -1.4164 -0.3389
 1577SOL     OW 4880   2.214   3.482   1.069  0.0300  0.8461 -0.3658
 1577SOL    HW1 4881   2.250   3.394   1.058  1.8900  1.4422  0.4832
 1577SOL    HW2 4882   2.290   3.540   1.059 -0.9990  2.3010 -0.0569
 1578SOL     OW 4883   2.214   1.376   1.891  0.1062 -0.2554 -0.3368
 1578SOL    HW1 4884   2.253   1.308   1.945  0.7881  1.4435  1.4620
 1578SOL    HW2 4885   2.218   1.455   1.945  1.4353  1.7683 -3.1268
 1579SOL     OW 4886   1.726   2.131   1.624  0.2831  0.2960  0.7344
 1579SOL    HW1 4887   1.781   2.150   1.700  1.2611  1.5347 -0.2193
 1579SOL    HW2 4888   1.787   2.092   1.560 -0.8393 -2.2427  1.1120
 1580SOL     OW 4889   3.209   1.892   2.990 -0.0371 -0.0046 -0.8593
 1580SOL    HW1 4890   3.222   1.807   2.948  0.0722  0.9165 -2.7948
 1580SOL    HW2 4891   3.134   1.878   3.048 -1.2241 -1.0078 -2.5170
 1581SOL     OW 4892   3.822   0.933   3.122 -0.2157  0.0491  0.5009
 1581SOL    HW1 4893   3.782   0.891   3.198 -0.3112 -0.0070  0.4195
 1581SOL    HW2 4894   3.904   0.885   3.110 -1.1315 -1.3118 -0.6730
 1582SOL     OW 4895   3.726   2.364   0.351  0.2264 -0.0780  0.0279
 1582SOL    HW1 4896   3.656   2.405   0.300  0.7663 -0.5861 -1.1478
 1582SOL    HW2 4897   3.698   2.273   0.363 -0.0980  0.1357  1.0435
 1583SOL     OW 4898   1.404   2.909   3.405 -0.3462  0.0422  0.1439
 1583SOL    HW1 4899   1.331   2.935   3.461  1.7624  1.6109  2.3618
 1583SOL    HW2 4900   1.429   2.822   3.435 -1.5682 -0.7563 -1.0149
 1584SOL     OW 4901   3.532   0.086   1.516  0.3704 -0.0865  0.1318
 1584SOL    HW1 4902   3.518   0.115   1.425  1.2024  1.1084  0.3580
 1584SOL    HW2 4903   3.483   0.150   1.568 -1.7414 -1.8857  0.4833
 1585SOL     OW 4904   1.938   3.673   1.868  0.4485 -0.5351  0.2666
 1585SOL    HW1 4905   1.962   3.719   1.949  1.3168  1.2063 -0.9062
 1585SOL    HW2 4906   1.876   3.606   1.896  0.9038 -0.1547  2.4014
 1586SOL     OW 4907   1.448   2.332   3.213 -0.5100 -0.2595  0.4528
 1586SOL    HW1 4908   1.489   2.283   3.284  0.0451 -1.2440 -0.5149
 1586SOL    HW2 4909   1.374   2.376   3.254  0.4419  0.0969  1.8648
 1587SOL     OW 4910   2.894   0.159   2.936  0.2183  0.1120 -0.3873
 1587SOL    HW1 4911   2.802   0.167   2.961 -0.2008 -1.1626 -1.4553
 1587SOL    HW2 4912   2.925   0.250   2.933 -1.3774  0.6636 -1.3601
 1588SOL     OW 4913   0.137   3.631   2.115 -0.9346 -0.0232  0.0292
 1588SOL    HW1 4914   0.230   3.607   2.115 -0.8134  0.4232 -0.6087
 1588SOL    HW2 4915   0.096   3.569   2.055 -1.2667 -0.9881  1.2236
 1589SOL     OW 4916   2.705   0.939   3.199 -0.2825  0.6314 -0.1750
 1589SOL    HW1 4917   2.747   0.910   3.280 -0.4386  1.8171  0.3497
 1589SOL    HW2 4918   2.666   0.859   3.163  3.2495 -0.7853 -1.2625
 1590SOL     OW 4919   2.706   0.709   0.320 -0.1630 -0.4302 -0.1783
 1590SOL    HW1 4920   2.783   0.657   0.295 -0.5527 -1.2497  0.2947
 1590SOL    HW2 4921   2.723   0.734   0.411 -0.3370 -0.3972 -0.1547
 1591SOL     OW 4922   2.437   3.193   0.049  0.0517  0.2566  0.3786
 1591SOL    HW1 4923   2.405   3.105   0.028 -1.3030  0.9935 -0.8558
 1591SOL    HW2 4924   2.365   3.234   0.098  0.9665  0.4493  1.6119
 1592SOL     OW 4925   1.964   0.545   3.248  0.3120 -0.4149  0.2755
 1592SOL    HW1 4926   2.016   0.494   3.186  1.2520  1.4864 -0.5900
 1592SOL    HW2 4927   1.895   0.585   3.195  0.6354  0.5823  0.5847
 1593SOL     OW 4928   2.231   0.242   0.110  0.0112  0.0934  0.0215
 1593SOL    HW1 4929   2.239   0.306   0.039 -0.8189 -0.2972 -0.4459
 1593SOL    HW2 4930   2.243   0.158   0.067 -0.7710 -0.1636  0.2798
 1594SOL     OW 4931   0.746   2.329   3.083 -0.2654  0.0017  0.4357
 1594SOL    HW1 4932   0.690   2.398   3.047  0.6848 -0.0436 -1.2217
 1594SOL    HW2 4933   0.691   2.285   3.148 -2.7919 -1.0540 -2.1939
 1595SOL     OW 4934   0.054   2.366   3.796 -0.1087  0.0493  0.3260
 1595SOL    HW1 4935   0.058   2.300   3.865  1.5245 -0.1994  0.0339
 1595SOL    HW2 4936  -0.038   2.394   3.795  0.1922  1.8583  4.2777
 1596SOL     OW 4937   0.757   3.847   3.290  0.5199 -0.2515 -0.1514
 1596SOL    HW1 4938   0.711   3.791   3.352 -0.5976  2.7949  2.0216
 1596SOL    HW2 4939   0.699   3.851   3.213 -0.2991 -0.5729  0.4390
 1597SOL     OW 4940   1.016   1.644   1.408 -0.8308 -0.0824 -0.6071
 1597SOL    HW1 4941   1.083   1.576   1.402 -0.4527  0.0147  1.5699
 1597SOL    HW2 4942   1.034   1.702   1.333  0.7134 -0.7535 -0.7961
 1598SOL     OW 4943   2.296   2.995   2.515 -0.5755 -0.1592  0.6780
 1598SOL    HW1 4944   2.247   2.914   2.502 -1.7116  0.3878  1.3957
 1598SOL    HW2 4945   2.367   2.971   2.574  0.9304 -1.2683 -1.4562
 1599SOL     OW 4946   1.397   2.918   0.789  0.2686  0.0304  0.1197
 1599SOL    HW1 4947   1.308   2.887   0.807 -0.0352 -0.0832 -1.4615
 1599SOL    HW2 4948   1.415   2.889   0.700  1.4821  1.0062  0.0239
 1600SOL     OW 4949   2.470   3.012   2.009  0.4955  0.3766 -0.4001
 1600SOL    HW1 4950   2.424   3.064   1.943  1.1463  2.3974  0.6535
 1600SOL    HW2 4951   2.400   2.972   2.061 -0.1227  2.1299  0.2021
 1601SOL     OW 4952   0.187   0.367   2.107  0.3718  0.8703  0.0727
 1601SOL    HW1 4953   0.169   0.275   2.129  2.1497 -0.0491 -1.9581
 1601SOL    HW2 4954   0.275   0.382   2.143  0.7092  1.2754 -0.9027
 1602SOL     OW 4955   2.564   1.972   2.434 -0.0384 -0.5398 -0.8247
 1602SOL    HW1 4956   2.511   1.994   2.510 -0.0849  3.6563 -1.8258
 1602SOL    HW2 4957   2.504   1.974   2.360  0.9638  1.9687 -1.6808
 1603SOL     OW 4958   3.374   3.746   0.971  0.3744 -0.4904 -0.0109
 1603SOL    HW1 4959   3.449   3.732   0.914  1.5935  0.4452  1.2902
 1603SOL    HW2 4960   3.411   3.746   1.059 -1.2277 -0.4625  0.6934
 1604SOL     OW 4961   0.701   3.357   0.333  0.1087 -0.4020 -0.5878
 1604SOL    HW1 4962   0.779   3.333   0.383 -0.8929  0.5557  1.5521
 1604SOL    HW2 4963   0.686   3.283   0.275  1.6055 -1.3647  0.1961
 1605SOL     OW 4964   1.065   3.471   0.280 -0.5555 -0.5469  0.0637
 1605SOL    HW1 4965   1.027   3.385   0.260 -1.5422 -0.7376  2.4587
 1605SOL    HW2 4966   1.160   3.455   0.278 -0.6833 -2.5335  3.3269
 1606SOL     OW 4967   1.859   1.191   2.580 -0.3965  1.0301 -0.0294
 1606SOL    HW1 4968   1.896   1.174   2.666 -0.6587  1.1790  0.1162
 1606SOL    HW2 4969   1.823   1.280   2.587 -1.9458  0.4131  0.2485
 1607SOL     OW 4970   2.407   0.561   1.291  0.4134  0.1591  0.0175
 1607SOL    HW1 4971   2.428   0.573   1.383  1.6640  1.7977 -0.4299
 1607SOL    HW2 4972   2.351   0.637   1.270  1.6931  0.8616 -0.9879
 1608SOL     OW 4973   0.189   3.224   1.479  0.2385  0.5717 -0.3565
 1608SOL    HW1 4974   0.250   3.294   1.454  1.0079  0.0492  0.0334
 1608SOL    HW2 4975   0.203   3.212   1.573 -1.8329  1.7461  0.1719
 1609SOL     OW 4976   2.949   1.671   2.975  0.4794  0.2254 -0.7274
 1609SOL    HW1 4977   2.992   1.691   3.058  1.3961 -1.1340 -0.8369
 1609SOL    HW2 4978   2.906   1.587   2.990 -1.0923  0.9327 -1.0323
 1610SOL     OW 4979   2.970   1.977   2.805  0.1533  1.1934  0.0852
 1610SOL    HW1 4980   2.931   1.893   2.782  3.1300 -0.4065  0.4582
 1610SOL    HW2 4981   2.972   1.977   2.901  0.9952  1.2609  0.0717
 1611SOL     OW 4982   1.391   0.498   0.606 -0.0572  0.1278 -0.4562
 1611SOL    HW1 4983   1.458   0.430   0.610  0.3041  0.0725 -4.3164
 1611SOL    HW2 4984   1.431   0.569   0.555 -1.9652  1.3551 -0.3556
 1612SOL     OW 4985   1.937   2.839   1.222 -0.2590 -0.0992  0.3950
 1612SOL    HW1 4986   1.974   2.864   1.307  2.4007 -1.4042 -0.2866
 1612SOL    HW2 4987   1.953   2.915   1.166  1.3495 -0.5612  0.1682
 1613SOL     OW 4988   1.134   0.059   0.267 -0.8314  0.5974  0.4483
 1613SOL    HW1 4989   1.181  -0.023   0.283 -2.5002 -0.3149  0.9140
 1613SOL    HW2 4990   1.175   0.095   0.189  0.0406 -0.6083  0.3179
 1614SOL     OW 4991   2.000   3.102   1.990  0.1497 -0.2782 -0.5093
 1614SOL    HW1 4992   1.935   3.161   2.028  0.9140 -0.4784  1.2491
 1614SOL    HW2 4993   2.021   3.040   2.061  3.4654  0.8081 -0.3463
 1615SOL     OW 4994   1.942   1.146   2.843 -0.7550  0.4184 -0.3480
 1615SOL    HW1 4995   2.028   1.187   2.834 -1.4367  1.8573 -0.6823
 1615SOL    HW2 4996   1.917   1.162   2.935 -0.5175 -0.3153 -0.1521
 1616SOL     OW 4997   2.485   3.184   1.621 -0.0093  0.0219 -0.3453
 1616SOL    HW1 4998   2.491   3.277   1.599 -0.6660  0.1379 -0.0809
 1616SOL    HW2 4999   2.411   3.179   1.682 -1.4888 -0.9654 -2.1113
 1617SOL     OW 5000   1.868   2.377   1.798 -0.0533  0.4785 -0.6207
 1617SOL    HW1 5001   1.893   2.410   1.711  2.0699  0.5370 -0.0396
 1617SOL    HW2 5002   1.943   2.324   1.826 -0.7303  0.4008  1.1590
 1618SOL     OW 5003   0.178   0.465   3.260  0.1188  0.0697 -0.1331
 1618SOL    HW1 5004   0.118   0.527   3.219  1.8876  1.0675 -1.3349
 1618SOL    HW2 5005   0.153   0.464   3.352 -0.2055  2.3106 -0.1466
 1619SOL     OW 5006   0.727   1.379   2.332 -0.1130 -0.3326 -0.5636
 1619SOL    HW1 5007   0.694   1.340   2.413  0.5219 -1.7173 -0.9551
 1619SOL    HW2 5008   0.651   1.379   2.273 -0.0601 -1.2017 -0.6366
 1620SOL     OW 5009   3.017   1.346   0.249 -0.4633 -0.2568 -0.1556
 1620SOL    HW1 5010   3.015   1.318   0.158 -2.0221 -1.0512  0.0963
 1620SOL    HW2 5011   3.101   1.391   0.258  0.8143 -2.2641 -1.3444
 1621SOL     OW 5012   3.734   1.304   2.473  0.3394 -0.3899 -0.2618
 1621SOL    HW1 5013   3.699   1.216   2.462 -0.8687  0.1109 -0.6089
 1621SOL    HW2 5014   3.739   1.316   2.568 -1.5547 -0.0713 -0.1748
 1622SOL     OW 5015   3.024   0.334   3.443  0.1319 -0.2190  0.2455
 1622SOL    HW1 5016   3.114   0.300   3.451  0.4793  0.6273  0.0255
 1622SOL    HW2 5017   3.014   0.392   3.518  0.9493  2.2577 -1.4322
 1623SOL     OW 5018   1.518   0.893   2.220 -0.5281  0.2165  0.5014
 1623SOL    HW1 5019   1.437   0.861   2.181  0.9190 -2.2733 -0.7103
 1623SOL    HW2 5020   1.563   0.938   2.148  0.1266 -0.3857  0.5187
 1624SOL     OW 5021   3.097   0.089   0.148 -0.0622  0.0919 -0.2284
 1624SOL    HW1 5022   3.040   0.064   0.220  0.5215 -1.5644 -0.3064
 1624SOL    HW2 5023   3.160   0.017   0.141  1.0331  1.0979 -1.1953
 1625SOL     OW 5024   1.720   0.496   0.561 -0.4537  0.0951 -0.1785
 1625SOL    HW1 5025   1.741   0.475   0.652  3.6885 -3.1783 -1.5122
 1625SOL    HW2 5026   1.695   0.588   0.562 -2.2639 -0.2017  4.3493
 1626SOL     OW 5027   3.354   0.480   3.153  0.6549 -0.0240 -0.0191
 1626SOL    HW1 5028   3.365   0.523   3.237  1.2018  0.5395 -0.3673
 1626SOL    HW2 5029   3.259   0.470   3.143  0.4728  1.5076 -0.1144
 1627SOL     OW 5030   3.052   0.072   1.873  0.0363 -0.4930  0.1666
 1627SOL    HW1 5031   3.001   0.108   1.800  0.6295 -2.0454 -1.0787
 1627SOL    HW2 5032   3.048   0.140   1.940 -3.2457 -0.2788 -0.0369
 1628SOL     OW 5033   1.578   2.076   0.577 -0.4080 -0.4057 -0.7187
 1628SOL    HW1 5034   1.485   2.067   0.599 -0.4876  0.8513 -0.5010
 1628SOL    HW2 5035   1.623   2.065   0.660 -0.2676 -2.0450 -0.9779
 1629SOL     OW 5036   0.521   0.003   1.784 -0.2414  0.4846 -0.0251
 1629SOL    HW1 5037   0.428   0.025   1.778 -0.3654 -0.2340 -1.2529
 1629SOL    HW2 5038   0.543   0.014   1.876 -2.1152 -1.5145  0.7416
 1630SOL     OW 5039   1.082   1.147   3.325  0.0794 -0.6885 -0.3657
 1630SOL    HW1 5040   1.077   1.052   3.324 -1.4469 -0.7365  2.2642
 1630SOL    HW2 5041   1.161   1.168   3.275  0.0658 -3.2580 -1.5986
 1631SOL     OW 5042   2.078   2.246   0.745 -0.1869 -0.2840  0.1032
 1631SOL    HW1 5043   1.986   2.270   0.738 -0.4653 -1.4493 -0.5407
 1631SOL    HW2 5044   2.126   2.323   0.712 -0.9369  0.2199  0.1732
 1632SOL     OW 5045   3.488   0.184   0.783 -0.5945 -0.2648  0.1430
 1632SOL    HW1 5046   3.435   0.247   0.734 -0.7903 -1.3712 -1.1132
 1632SOL    HW2 5047   3.447   0.099   0.767  0.7678 -0.9779  0.2353
 1633SOL     OW 5048   0.439   0.684   0.380  0.1145 -0.4812  0.8503
 1633SOL    HW1 5049   0.441   0.650   0.290  1.3200 -0.3067  0.7859
 1633SOL    HW2 5050   0.427   0.779   0.369  1.4668 -0.2907  0.7859
 1634SOL     OW 5051   1.440   0.577   3.418 -0.2281  0.6319  0.1056
 1634SOL    HW1 5052   1.479   0.592   3.504 -0.8209  2.4903  0.0906
 1634SOL    HW2 5053   1.354   0.539   3.436  0.9583 -2.2822  0.1718
 1635SOL     OW 5054   1.402   0.299   1.090 -0.6009  0.7180  0.4396
 1635SOL    HW1 5055   1.331   0.238   1.071 -0.5495  0.0823  2.0635
 1635SOL    HW2 5056   1.421   0.342   1.007 -1.9458 -0.0983 -0.3152
 1636SOL     OW 5057   2.268   1.576   2.775  0.0141 -0.2118  0.2923
 1636SOL    HW1 5058   2.342   1.636   2.763  2.4869 -2.9238  0.7404
 1636SOL    HW2 5059   2.237   1.558   2.687  1.0428 -0.3412 -0.0526
 1637SOL     OW 5060   2.160   1.550   3.139 -0.0794  0.3204 -0.7092
 1637SOL    HW1 5061   2.179   1.504   3.220 -0.4720 -0.3366 -0.9793
 1637SOL    HW2 5062   2.240   1.597   3.118 -0.3322  1.4341  0.6612
 1638SOL     OW 5063   1.414   1.520   2.199  0.1067  0.2123 -0.2777
 1638SOL    HW1 5064   1.493   1.526   2.253 -0.5221  1.0675  0.5558
 1638SOL    HW2 5065   1.342   1.537   2.259 -0.5483  2.5571 -1.6148
 1639SOL     OW 5066   3.716   2.755   2.464 -0.3125 -0.3875  0.4136
 1639SOL    HW1 5067   3.750   2.838   2.430 -2.4562  1.1176  1.6741
 1639SOL    HW2 5068   3.775   2.733   2.535  0.4894 -0.1389 -0.1616
 1640SOL     OW 5069   0.748   2.594   2.902  0.0318 -0.3434 -0.6640
 1640SOL    HW1 5070   0.773   2.670   2.849 -0.2917  0.1996 -0.0649
 1640SOL    HW2 5071   0.810   2.596   2.976  0.5037 -1.1114 -1.0334
 1641SOL     OW 5072   2.922   2.465   0.477 -0.1647 -0.4522 -0.2297
 1641SOL    HW1 5073   2.961   2.401   0.417  2.2291  0.0116  0.7286
 1641SOL    HW2 5074   2.888   2.412   0.549  0.7842 -0.7436  0.0154
 1642SOL     OW 5075   2.833   1.247   2.139  0.0979  0.7166 -0.2433
 1642SOL    HW1 5076   2.860   1.275   2.052  1.8724 -0.1724 -0.0118
 1642SOL    HW2 5077   2.770   1.177   2.123 -0.6350  1.4827 -0.7956
 1643SOL     OW 5078   0.868   1.323   3.273  0.7025  0.3039 -0.3104
 1643SOL    HW1 5079   0.870   1.416   3.294 -0.4786 -0.0726  1.8136
 1643SOL    HW2 5080   0.937   1.285   3.328  1.6498 -0.0327 -1.6779
 1644SOL     OW 5081   3.428   3.109   0.610 -0.0724 -0.0851 -0.1186
 1644SOL    HW1 5082   3.523   3.104   0.611 -0.0978 -1.3520  2.0132
 1644SOL    HW2 5083   3.401   3.034   0.558  0.0779  0.2106 -0.6296
 1645SOL     OW 5084   2.040   2.036   1.483 -0.2541 -0.0376 -0.1442
 1645SOL    HW1 5085   2.061   1.996   1.567  3.0050 -0.2195 -0.9171
 1645SOL    HW2 5086   2.028   1.962   1.424 -1.0098  0.1144 -0.1980
 1646SOL     OW 5087   1.216   1.731   1.682 -0.5834 -0.3787 -0.0181
 1646SOL    HW1 5088   1.163   1.786   1.740  0.2411  1.1141 -0.6322
 1646SOL    HW2 5089   1.205   1.769   1.595  0.1585 -1.0753 -0.4354
 1647SOL     OW 5090   3.353   2.631   3.101 -0.2123  0.1187  0.4547
 1647SOL    HW1 5091   3.425   2.664   3.047  1.7953  1.2150  3.5665
 1647SOL    HW2 5092   3.280   2.690   3.081  1.1032  1.8365  0.4183
 1648SOL     OW 5093   3.664   2.110   3.236 -0.4790  0.0323 -0.5479
 1648SOL    HW1 5094   3.630   2.021   3.242 -0.3178 -0.2110 -2.5440
 1648SOL    HW2 5095   3.586   2.166   3.240 -0.4900 -0.0301  2.1642
 1649SOL     OW 5096   0.775   0.395   1.993  0.1211 -0.1856 -0.5510
 1649SOL    HW1 5097   0.755   0.433   2.079  1.5000  0.5686 -0.5304
 1649SOL    HW2 5098   0.781   0.471   1.935 -0.8767 -0.7004 -1.3385
 1650SOL     OW 5099   3.636   0.368   3.123  0.4061  0.3448  0.3203
 1650SOL    HW1 5100   3.552   0.413   3.122 -1.1120 -2.2494 -0.8384
 1650SOL    HW2 5101   3.701   0.437   3.136 -1.6994  2.7964 -1.2711
 1651SOL     OW 5102   2.272   1.229   1.093  0.5194 -0.3291 -0.1446
 1651SOL    HW1 5103   2.200   1.184   1.048 -1.3288  0.1088  2.2382
 1651SOL    HW2 5104   2.261   1.321   1.070  0.0404 -0.2080  0.5419
 1652SOL     OW 5105   0.760   3.433   2.355  0.1514 -0.5907  0.0921
 1652SOL    HW1 5106   0.813   3.357   2.380  0.8672  0.4909  2.1203
 1652SOL    HW2 5107   0.673   3.415   2.390  0.6819  0.0882  1.8859
 1653SOL     OW 5108   1.539   3.694   1.582  0.0006 -0.6624 -0.0776
 1653SOL    HW1 5109   1.496   3.615   1.549 -3.0050  1.1711 -1.0076
 1653SOL    HW2 5110   1.630   3.687   1.553 -1.1854 -1.7515 -4.1698
 1654SOL     OW 5111   0.656   0.932   0.060  0.3315  0.4650 -0.0752
 1654SOL    HW1 5112   0.561   0.931   0.050  0.4730 -0.2661 -1.6822
 1654SOL    HW2 5113   0.674   0.863   0.124 -0.1554 -0.2473 -0.6804
 1655SOL     OW 5114   1.829   1.161   2.256 -0.4902 -0.6394 -0.5529
 1655SOL    HW1 5115   1.733   1.162   2.259 -0.4775 -0.8605  1.7484
 1655SOL    HW2 5116   1.856   1.146   2.347  1.7569  0.6072 -0.9343
 1656SOL     OW 5117   3.165   2.501   3.383  0.3992 -0.0940  0.2568
 1656SOL    HW1 5118   3.179   2.595   3.387 -0.0495  0.0268 -0.6053
 1656SOL    HW2 5119   3.110   2.481   3.459  1.0219  0.2296  0.7996
 1657SOL     OW 5120   0.756   0.395   3.663 -0.0466  0.1293 -0.1071
 1657SOL    HW1 5121   0.666   0.407   3.632  0.3931  1.4868 -0.9427
 1657SOL    HW2 5122   0.800   0.349   3.591 -0.2928 -1.4383  0.7097
 1658SOL     OW 5123   1.808   1.780   3.167  0.3067 -0.4107  0.2824
 1658SOL    HW1 5124   1.890   1.808   3.208 -0.1960  1.5368  0.0199
 1658SOL    HW2 5125   1.831   1.761   3.076  0.6237 -0.7566  0.4303
 1659SOL     OW 5126   2.698   3.467   3.442 -0.0950  0.1380  0.0264
 1659SOL    HW1 5127   2.674   3.538   3.383  0.3754  1.5591  1.4677
 1659SOL    HW2 5128   2.675   3.499   3.529  1.4658 -0.8660  0.8680
 1660SOL     OW 5129   0.478   2.636   2.374  0.1389 -0.7178 -0.0629
 1660SOL    HW1 5130   0.536   2.696   2.418  0.4841 -1.4172  0.4518
 1660SOL    HW2 5131   0.475   2.667   2.283 -1.2956  1.2735  0.6023
 1661SOL     OW 5132   2.868   1.880   1.978 -0.3284  0.5952 -0.0782
 1661SOL    HW1 5133   2.920   1.961   1.976  0.7824 -0.0825 -2.4514
 1661SOL    HW2 5134   2.778   1.910   1.991  0.0222  2.2685 -1.1437
 1662SOL     OW 5135   2.017   2.322   1.457 -0.2815  0.2015  0.2684
 1662SOL    HW1 5136   2.018   2.226   1.455  2.5895  0.1378 -1.4591
 1662SOL    HW2 5137   1.937   2.346   1.410 -0.5413 -1.3866 -0.1675
 1663SOL     OW 5138   3.207   2.591   1.047  0.4014 -0.1507 -0.6703
 1663SOL    HW1 5139   3.192   2.644   1.125  0.0107  0.1252 -0.9293
 1663SOL    HW2 5140   3.253   2.514   1.079  0.1031 -0.1146 -0.1393
 1664SOL     OW 5141   2.157   0.307   2.238  0.0329  0.7956  0.0548
 1664SOL    HW1 5142   2.147   0.237   2.173  0.7769  1.9863 -1.3893
 1664SOL    HW2 5143   2.248   0.302   2.265  0.5205  2.2153 -1.2657
 1665SOL     OW 5144   0.489   2.021   2.607  0.4966  0.3044  0.3669
 1665SOL    HW1 5145   0.574   2.065   2.608  1.3200 -1.2268  0.0621
 1665SOL    HW2 5146   0.453   2.042   2.521  1.7164 -1.1003 -0.5327
 1666SOL     OW 5147   3.401   0.626   2.864  0.2771  0.0143  0.3745
 1666SOL    HW1 5148   3.401   0.560   2.933  2.2663 -0.4523 -0.0230
 1666SOL    HW2 5149   3.376   0.578   2.785 -4.9539  1.0522  1.0134
 1667SOL     OW 5150   0.810   3.137   3.767 -0.2608 -0.1114 -0.2117
 1667SOL    HW1 5151   0.903   3.132   3.791 -0.4878  1.2850  1.0833
 1667SOL    HW2 5152   0.764   3.114   3.848 -1.0622 -0.6213 -0.8053
 1668SOL     OW 5153   0.471   1.084   1.445 -0.2782 -0.4653 -0.5137
 1668SOL    HW1 5154   0.429   1.166   1.473 -0.3938 -0.6547 -0.1381
 1668SOL    HW2 5155   0.559   1.110   1.418 -0.7294 -0.0060 -1.6240
 1669SOL     OW 5156   0.556   3.564   0.405  0.1185  0.1199 -0.1407
 1669SOL    HW1 5157   0.597   3.590   0.487  1.9476  2.3690 -1.6407
 1669SOL    HW2 5158   0.596   3.480   0.384  0.4317  0.0450  0.7329
 1670SOL     OW 5159   3.770   3.773   3.398 -0.1432  0.0021 -0.2615
 1670SOL    HW1 5160   3.795   3.686   3.428 -2.0520 -0.5148 -0.0449
 1670SOL    HW2 5161   3.834   3.795   3.330  0.8028 -1.2369  0.1957
 1671SOL     OW 5162   1.397   3.442   3.152 -0.0517  0.0781 -0.5867
 1671SOL    HW1 5163   1.462   3.409   3.213 -0.6376 -1.5823 -0.7781
 1671SOL    HW2 5164   1.357   3.516   3.196 -0.2822 -0.9152  0.9587
 1672SOL     OW 5165   3.265   0.263   2.002 -0.0866 -0.5263  0.3507
 1672SOL    HW1 5166   3.188   0.246   2.056 -0.4404  2.7587  1.1344
 1672SOL    HW2 5167   3.332   0.291   2.065  0.6803 -0.1745 -0.6008
 1673SOL     OW 5168   3.577   1.687   2.982  0.3078  0.1416 -0.0497
 1673SOL    HW1 5169   3.576   1.762   2.923  0.2720  0.1584 -0.0283
 1673SOL    HW2 5170   3.668   1.660   2.985  0.1022 -0.7356 -1.2111
 1674SOL     OW 5171   1.600   1.220   0.038 -0.0803  0.0816  0.2713
 1674SOL    HW1 5172   1.563   1.237   0.125  0.3594  0.7474  0.3313
 1674SOL    HW2 5173   1.552   1.277  -0.021 -0.2519 -0.2357  0.1003
 1675SOL     OW 5174   2.086   1.524   1.285  0.1435 -0.2420  0.3462
 1675SOL    HW1 5175   2.022   1.561   1.225  2.1915  1.3947 -0.9701
 1675SOL    HW2 5176   2.043   1.446   1.320 -1.2013 -1.2854 -3.1740
 1676SOL     OW 5177   3.776   2.070   3.598  0.2177  0.2740 -0.1153
 1676SOL    HW1 5178   3.805   1.989   3.556 -1.1555 -0.6661  0.6554
 1676SOL    HW2 5179   3.855   2.105   3.639  0.9305 -0.4334 -0.8438
 1677SOL     OW 5180   0.235   2.508   0.957 -0.5685  0.6170 -0.1403
 1677SOL    HW1 5181   0.262   2.512   0.865 -0.0219 -2.5211 -0.2057
 1677SOL    HW2 5182   0.317   2.501   1.006 -0.9264 -0.0802  0.3830
 1678SOL     OW 5183   1.284   3.296   3.701  0.0436 -0.9313 -0.8537
 1678SOL    HW1 5184   1.373   3.272   3.675  0.8462  0.2924  0.5814
 1678SOL    HW2 5185   1.250   3.347   3.627  0.8183 -0.7955 -1.1249
 1679SOL     OW 5186   3.538   0.411   2.426  0.0560  0.1865 -0.2918
 1679SOL    HW1 5187   3.528   0.320   2.454 -1.3869  0.1376 -0.8654
 1679SOL    HW2 5188   3.502   0.462   2.499 -1.3442  0.1638 -0.9231
 1680SOL     OW 5189   0.808   1.819   1.232  0.1532  0.2243 -0.8248
 1680SOL    HW1 5190   0.753   1.751   1.194  1.9077 -2.6888  1.4226
 1680SOL    HW2 5191   0.756   1.856   1.303 -0.2176  0.1216 -1.0410
 1681SOL     OW 5192   1.538   3.006   1.680  0.1598  0.0612 -0.4820
 1681SOL    HW1 5193   1.489   3.020   1.599 -0.0426 -0.3530 -0.4361
 1681SOL    HW2 5194   1.496   2.930   1.720  0.5697 -0.0353 -0.2278
 1682SOL     OW 5195   0.235   2.861   0.988 -0.2061 -0.7733 -0.4051
 1682SOL    HW1 5196   0.251   2.899   1.075  0.3743 -0.8669 -0.4694
 1682SOL    HW2 5197   0.140   2.848   0.985 -0.3398  0.1037 -0.1497
 1683SOL     OW 5198   1.281   0.068   2.964 -0.0925  0.1755  0.1819
 1683SOL    HW1 5199   1.262   0.160   2.946  1.9960  0.7520  0.6463
 1683SOL    HW2 5200   1.269   0.024   2.880 -1.5269  0.7663  0.0489
 1684SOL     OW 5201   1.969   0.418   1.481  0.5047 -0.5529  0.5611
 1684SOL    HW1 5202   2.055   0.431   1.440  0.0573 -0.6997 -0.4282
 1684SOL    HW2 5203   1.920   0.364   1.419 -0.7229  0.5205  0.5550
 1685SOL     OW 5204   0.986   3.720   2.498 -0.1081  0.3795  0.0313
 1685SOL    HW1 5205   0.951   3.679   2.577  0.5227 -0.3154 -0.0379
 1685SOL    HW2 5206   1.043   3.790   2.531 -0.4922  0.6271  0.1712
 1686SOL     OW 5207   3.167   3.671   2.389  0.1399  0.2276  0.4667
 1686SOL    HW1 5208   3.177   3.619   2.469 -0.1272  0.3033  0.5509
 1686SOL    HW2 5209   3.248   3.656   2.341 -0.7005 -1.8413 -0.4204
 1687SOL     OW 5210   0.280   0.680   1.183 -0.2269  0.0193 -0.2225
 1687SOL    HW1 5211   0.326   0.733   1.248  0.2171 -0.9207  0.2460
 1687SOL    HW2 5212   0.339   0.678   1.107  0.2541 -0.6769  0.1549
 1688SOL     OW 5213   1.085   3.236   1.116  0.3704 -0.3152 -0.6211
 1688SOL    HW1 5214   1.132   3.315   1.090  2.0207 -1.3128 -0.7837
 1688SOL    HW2 5215   1.135   3.200   1.190  0.0278 -1.5374 -0.9484
 1689SOL     OW 5216   3.487   1.065   3.580 -0.9295  0.4560  0.4927
 1689SOL    HW1 5217   3.530   1.097   3.501  1.0072 -1.6954  0.5887
 1689SOL    HW2 5218   3.543   1.094   3.652 -1.0837 -0.0844  0.8388
 1690SOL     OW 5219   1.560   0.081   3.071 -0.5547  0.4384 -0.0478
 1690SOL    HW1 5220   1.560   0.175   3.091 -0.2265 -0.1371  3.0356
 1690SOL    HW2 5221   1.476   0.049   3.104  0.6427 -0.8445  1.9780
 1691SOL     OW 5222   1.413   0.588   2.009  0.7183  0.1100  0.2414
 1691SOL    HW1 5223   1.364   0.530   1.951 -0.0844  0.0947  0.9168
 1691SOL    HW2 5224   1.357   0.664   2.021  0.6681 -0.0844  1.3510
 1692SOL     OW 5225   2.178   0.450   0.615  0.1453 -0.0662 -0.4449
 1692SOL    HW1 5226   2.222   0.508   0.553  2.6821  0.5920  1.7964
 1692SOL    HW2 5227   2.133   0.508   0.676 -0.1215 -0.5795 -0.1407
 1693SOL     OW 5228   1.839   2.832   2.439  0.6662 -0.0734  0.4401
 1693SOL    HW1 5229   1.842   2.921   2.405  3.1054 -0.5893 -0.9610
 1693SOL    HW2 5230   1.792   2.782   2.372  1.7131 -0.2970 -0.1575
 1694SOL     OW 5231   2.353   3.574   2.628  0.0768  0.0658  0.5599
 1694SOL    HW1 5232   2.422   3.537   2.683 -0.0976  0.6606  1.1960
 1694SOL    HW2 5233   2.272   3.549   2.670 -0.1008 -0.4084 -0.0452
 1695SOL     OW 5234   2.385   0.053   2.197  0.3135  0.0319  0.0033
 1695SOL    HW1 5235   2.295   0.063   2.166 -0.6175 -3.1852  1.2831
 1695SOL    HW2 5236   2.376   0.022   2.287  2.7564  0.7312  0.5580
 1696SOL     OW 5237   1.678   2.974   2.113  1.0334  0.3442 -0.2342
 1696SOL    HW1 5238   1.681   2.884   2.145  0.3841  0.8883  1.4866
 1696SOL    HW2 5239   1.616   2.972   2.041 -0.0408 -0.3562  0.6784
 1697SOL     OW 5240   3.281   0.255   3.459 -0.0428  0.3835 -0.1479
 1697SOL    HW1 5241   3.303   0.285   3.547  0.8572 -1.0272  0.1296
 1697SOL    HW2 5242   3.364   0.226   3.422 -0.6678 -0.4895 -0.9004
 1698SOL     OW 5243   1.028   0.723   3.740  0.4144 -0.1105 -0.7131
 1698SOL    HW1 5244   0.986   0.809   3.737 -0.2736 -0.1694  2.7556
 1698SOL    HW2 5245   1.099   0.733   3.803  1.8259 -1.5709 -1.9664
 1699SOL     OW 5246   0.359   0.788   3.810  0.1647 -0.0127  0.3416
 1699SOL    HW1 5247   0.379   0.708   3.859 -0.0370  0.6426  1.5418
 1699SOL    HW2 5248   0.351   0.760   3.719 -0.0983 -1.3919  0.7752
 1700SOL     OW 5249   2.129   3.709   3.657  0.4805  0.5971 -0.7810
 1700SOL    HW1 5250   2.175   3.720   3.574  0.5504  1.5754 -0.6165
 1700SOL    HW2 5251   2.049   3.761   3.648 -0.0560 -0.1749 -0.6370
 1701SOL     OW 5252   1.484   1.916   0.381  0.5182 -0.3493  1.1012
 1701SOL    HW1 5253   1.541   1.882   0.313  0.3393 -0.6600  1.1019
 1701SOL    HW2 5254   1.543   1.952   0.447  0.7000 -0.3574  0.9415
 1702SOL     OW 5255   1.487   3.238   0.229 -0.2708  0.0180  0.0758
 1702SOL    HW1 5256   1.568   3.273   0.267  0.6671  1.7863 -3.1688
 1702SOL    HW2 5257   1.441   3.315   0.196 -0.5328 -1.3158 -3.0217
 1703SOL     OW 5258   0.825   3.124   3.504  0.3114 -0.3008  0.1006
 1703SOL    HW1 5259   0.763   3.055   3.482 -0.2301  0.9536 -2.8470
 1703SOL    HW2 5260   0.825   3.127   3.600 -0.9900 -3.1132  0.2835
 1704SOL     OW 5261   1.266   0.808   2.029  0.5983 -0.3572 -0.0243
 1704SOL    HW1 5262   1.278   0.858   1.948 -0.0703  0.5893  0.4408
 1704SOL    HW2 5263   1.198   0.856   2.076  1.7372 -0.2717  1.6040
 1705SOL     OW 5264   0.187   3.746   1.473  0.1625  0.2157  0.2254
 1705SOL    HW1 5265   0.249   3.696   1.526  1.3325  0.1957 -1.0983
 1705SOL    HW2 5266   0.193   3.835   1.506  0.1114  0.0152  0.7855
 1706SOL     OW 5267   0.113   1.870   0.415  0.0513  0.1215  0.0939
 1706SOL    HW1 5268   0.174   1.940   0.390  1.3272 -1.0600 -0.1967
 1706SOL    HW2 5269   0.156   1.828   0.490 -1.5538  0.7336  1.4258
 1707SOL     OW 5270   3.735   2.674   3.214 -0.1084  0.4991  0.0432
 1707SOL    HW1 5271   3.684   2.753   3.196  0.1665  1.0997  1.6895
 1707SOL    HW2 5272   3.760   2.683   3.306 -0.2026 -1.5880  0.3219
 1708SOL     OW 5273   1.700   0.998   1.099  0.0195 -0.3158  0.0284
 1708SOL    HW1 5274   1.616   1.040   1.082  1.6861  2.7469 -1.4489
 1708SOL    HW2 5275   1.690   0.909   1.065 -1.8080  0.7875 -2.6565
 1709SOL     OW 5276   1.562   1.314   2.413  0.2633  0.1302 -0.1700
 1709SOL    HW1 5277   1.513   1.360   2.481 -1.0826 -2.7773  0.9895
 1709SOL    HW2 5278   1.652   1.343   2.424 -0.2578  1.2055  1.5602
 1710SOL     OW 5279   2.538   1.154   1.061 -0.1041  0.2237 -0.0840
 1710SOL    HW1 5280   2.452   1.150   1.104  0.3017  1.4457  0.9071
 1710SOL    HW2 5281   2.530   1.226   0.999  0.1420  0.1917 -0.1524
 1711SOL     OW 5282   0.895   3.735   1.234  0.2475  0.0729  0.7217
 1711SOL    HW1 5283   0.859   3.760   1.319  1.6899 -2.0786  2.0545
 1711SOL    HW2 5284   0.856   3.649   1.216  1.3888 -0.3439  0.1359
 1712SOL     OW 5285   2.692   2.719   2.955  0.8626  0.1874  0.4935
 1712SOL    HW1 5286   2.632   2.663   2.905  0.6501  1.1541 -0.3759
 1712SOL    HW2 5287   2.748   2.759   2.889 -1.1444  3.5870  0.6366
 1713SOL     OW 5288   3.625   0.563   3.369  0.1926  0.1230 -0.4311
 1713SOL    HW1 5289   3.541   0.602   3.393 -0.6538  0.3743 -3.3475
 1713SOL    HW2 5290   3.656   0.519   3.448 -1.3350  2.3182  1.5094
 1714SOL     OW 5291   1.970   1.843   2.021  0.0827 -0.0789  0.5815
 1714SOL    HW1 5292   2.000   1.905   2.087  1.8148 -0.3596  0.1049
 1714SOL    HW2 5293   1.988   1.757   2.058 -1.8482 -0.3461  1.0273
 1715SOL     OW 5294   0.270   0.789   1.624  0.1196  0.4009 -0.3923
 1715SOL    HW1 5295   0.361   0.802   1.598  0.6848 -2.0848  0.1042
 1715SOL    HW2 5296   0.222   0.781   1.542  1.1998 -3.0317 -0.8561
 1716SOL     OW 5297   0.980   0.815   3.267 -0.0298  0.9419 -0.1820
 1716SOL    HW1 5298   1.025   0.740   3.229  0.0560  0.6151  0.5448
 1716SOL    HW2 5299   0.957   0.870   3.192 -0.0301  0.2283 -0.7177
 1717SOL     OW 5300   1.551   2.418   0.545 -0.0570  0.3293 -0.2927
 1717SOL    HW1 5301   1.531   2.326   0.529  1.2173 -0.0728  0.2947
 1717SOL    HW2 5302   1.632   2.435   0.496  1.0760  0.4409  1.5010
 1718SOL     OW 5303   2.697   2.832   0.206 -0.3799  0.4345  0.0958
 1718SOL    HW1 5304   2.777   2.864   0.166 -0.3507  1.2421  0.7855
 1718SOL    HW2 5305   2.717   2.825   0.299 -0.7034 -0.6490  0.1053
 1719SOL     OW 5306   0.497   3.059   2.804  0.7651 -0.3220  0.8177
 1719SOL    HW1 5307   0.556   3.025   2.736  0.4384 -1.5840  1.1403
 1719SOL    HW2 5308   0.409   3.049   2.768  0.7006  1.4126  0.4047
 1720SOL     OW 5309   2.678   3.102   3.702 -0.3520  0.0277  0.2447
 1720SOL    HW1 5310   2.647   3.098   3.611 -0.7952  0.4002  0.3723
 1720SOL    HW2 5311   2.621   3.167   3.743  0.2172  0.2744  0.6490
 1721SOL     OW 5312   1.893   1.529   3.618  0.7530 -0.5437  0.3069
 1721SOL    HW1 5313   1.934   1.462   3.672  1.0117 -1.3020 -0.8016
 1721SOL    HW2 5314   1.946   1.533   3.539 -0.0629 -0.0076 -0.2305
 1722SOL     OW 5315   2.688   0.660   2.491  0.2767 -0.9824  0.2861
 1722SOL    HW1 5316   2.761   0.710   2.455  0.2028 -1.4526 -0.5387
 1722SOL    HW2 5317   2.615   0.722   2.492  0.0446 -1.1965 -1.2260
 1723SOL     OW 5318   1.242   2.315   0.641  0.3249 -0.7388 -0.2119
 1723SOL    HW1 5319   1.284   2.358   0.567 -0.3863 -1.8444 -1.2853
 1723SOL    HW2 5320   1.190   2.384   0.683  2.6789  0.5407  0.8312
 1724SOL     OW 5321   0.203   1.360   2.547  0.2240  0.6361 -0.2566
 1724SOL    HW1 5322   0.249   1.422   2.491 -0.6163  1.2340 -0.2974
 1724SOL    HW2 5323   0.227   1.386   2.636  0.9102  0.1930 -0.3040
 1725SOL     OW 5324   3.365   3.603   2.099 -0.1508 -0.1811 -0.3342
 1725SOL    HW1 5325   3.455   3.632   2.086 -0.4115  1.1343  0.5679
 1725SOL    HW2 5326   3.319   3.634   2.021  0.6719 -3.4564 -2.2977
 1726SOL     OW 5327   0.286   0.146   1.561  0.7550  0.6982  0.3262
 1726SOL    HW1 5328   0.246   0.215   1.507 -0.2420  1.6551  2.1811
 1726SOL    HW2 5329   0.321   0.193   1.637 -0.4444 -0.8742  1.9304
 1727SOL     OW 5330   2.324   3.462   3.242  0.4907  0.0443  0.2113
 1727SOL    HW1 5331   2.229   3.470   3.235  0.6428  3.1644  0.3105
 1727SOL    HW2 5332   2.350   3.417   3.162 -1.0950 -1.8184  0.6620
 1728SOL     OW 5333   2.728   0.572   3.479  0.8411 -0.5584  0.1525
 1728SOL    HW1 5334   2.697   0.653   3.440  1.5990 -0.9696 -1.3921
 1728SOL    HW2 5335   2.715   0.506   3.412 -0.3284 -1.8765  1.5949
 1729SOL     OW 5336   2.838   0.323   1.415  0.1661 -0.2103  0.3875
 1729SOL    HW1 5337   2.906   0.343   1.351  0.2010  0.0831  0.5142
 1729SOL    HW2 5338   2.756   0.332   1.367  0.1425  0.9364  0.6104
 1730SOL     OW 5339   0.088   2.165   1.598 -0.7850  0.5575  0.2104
 1730SOL    HW1 5340   0.162   2.223   1.617  0.4134 -0.0426 -2.2954
 1730SOL    HW2 5341   0.043   2.208   1.525 -0.4559 -1.1136 -1.0282
 1731SOL     OW 5342   1.254   2.580   2.121 -0.7023  0.4373 -0.2576
 1731SOL    HW1 5343   1.334   2.598   2.169  0.5300  1.1518 -2.4273
 1731SOL    HW2 5344   1.223   2.666   2.092 -0.2861 -0.0312 -2.3129
 1732SOL     OW 5345   3.527   2.066   1.840 -0.7362  0.8350 -0.0174
 1732SOL    HW1 5346   3.477   2.002   1.789  0.0416 -0.6247  0.9877
 1732SOL    HW2 5347   3.488   2.064   1.927  1.4300 -0.8794  1.0106
 1733SOL     OW 5348   0.232   1.869   0.696 -0.3919  0.2579  0.0696
 1733SOL    HW1 5349   0.187   1.816   0.762  2.0166  0.1719  1.7603
 1733SOL    HW2 5350   0.265   1.944   0.744  0.9159  0.5061 -1.1632
 1734SOL     OW 5351   2.200   2.824   0.945 -0.0262  0.0565  0.7722
 1734SOL    HW1 5352   2.276   2.768   0.958  1.6075  1.9511 -0.0124
 1734SOL    HW2 5353   2.215   2.865   0.860 -2.6355 -0.5073 -0.0409
 1735SOL     OW 5354   1.777   2.115   0.380  1.1173 -0.3884  0.2062
 1735SOL    HW1 5355   1.710   2.108   0.448  0.3448  2.6265 -0.1098
 1735SOL    HW2 5356   1.733   2.160   0.308  2.6372 -1.2221 -1.2978
 1736SOL     OW 5357   1.494   3.509   2.816  0.0316 -0.4223 -0.3120
 1736SOL    HW1 5358   1.464   3.483   2.903 -1.0991 -0.4873 -0.6986
 1736SOL    HW2 5359   1.517   3.602   2.826  0.2380 -0.5175  0.1323
 1737SOL     OW 5360   3.627   3.690   3.118  0.6242 -0.0493 -0.5481
 1737SOL    HW1 5361   3.714   3.723   3.140 -0.2973  1.4742  1.1179
 1737SOL    HW2 5362   3.567   3.756   3.153 -1.2644 -1.9478  0.0439
 1738SOL     OW 5363   1.591   0.680   0.749  0.3014 -0.1141  0.0179
 1738SOL    HW1 5364   1.511   0.714   0.709 -0.2986 -1.5122 -0.0301
 1738SOL    HW2 5365   1.658   0.745   0.728 -1.2381  2.2990  2.0275
 1739SOL     OW 5366   0.938   1.313   1.893 -0.2055 -0.1946  0.0264
 1739SOL    HW1 5367   0.963   1.404   1.913 -1.5608  0.2950 -0.4117
 1739SOL    HW2 5368   0.923   1.273   1.979 -0.1321  0.1429  0.1990
 1740SOL     OW 5369   1.648   2.061   1.170  0.2262 -0.2134 -0.3214
 1740SOL    HW1 5370   1.667   1.983   1.117  0.1372  0.2561 -1.0523
 1740SOL    HW2 5371   1.640   2.132   1.107 -0.7361  0.2043  0.2495
 1741SOL     OW 5372   3.808   1.790   3.747 -0.1482 -0.2568  0.5440
 1741SOL    HW1 5373   3.800   1.847   3.824 -0.1862  0.5961 -0.0821
 1741SOL    HW2 5374   3.725   1.800   3.701 -0.2272 -0.9638  0.5148
 1742SOL     OW 5375   3.637   3.004   1.586  0.3699 -0.3800 -0.0420
 1742SOL    HW1 5376   3.652   2.954   1.666  1.0138 -0.8905 -0.4743
 1742SOL    HW2 5377   3.543   2.998   1.572 -0.1525  1.7433  1.9785
 1743SOL     OW 5378   2.298   2.407   2.388 -0.0462 -0.0952  0.1832
 1743SOL    HW1 5379   2.207   2.394   2.414 -0.5497  3.5304  0.7996
 1743SOL    HW2 5380   2.292   2.460   2.308  1.6128 -2.4340 -1.6565
 1744SOL     OW 5381   1.574   1.023   1.926 -0.1203 -0.0352  0.6124
 1744SOL    HW1 5382   1.548   1.105   1.883  1.8726  0.1306 -0.4078
 1744SOL    HW2 5383   1.503   0.962   1.907  0.7088 -0.0338 -3.1861
 1745SOL     OW 5384   2.876   1.506   2.552 -0.5300  0.6284 -0.2180
 1745SOL    HW1 5385   2.947   1.450   2.581 -1.5651 -0.3257  0.5717
 1745SOL    HW2 5386   2.830   1.455   2.486  0.7189  2.0728 -2.3473
 1746SOL     OW 5387   1.575   3.679   0.996  0.5079  0.5283 -0.0864
 1746SOL    HW1 5388   1.620   3.690   1.080  0.8839  1.3666 -0.3841
 1746SOL    HW2 5389   1.546   3.588   0.996 -0.7142  0.8876  1.5363
 1747SOL     OW 5390   2.577   1.163   2.012  0.5414 -0.1832 -0.0446
 1747SOL    HW1 5391   2.584   1.232   1.947  3.0197  0.6476  0.9786
 1747SOL    HW2 5392   2.619   1.087   1.971  1.3652  0.1039  0.2400
 1748SOL     OW 5393   1.873   2.456   0.531  0.1615  0.1794 -0.0998
 1748SOL    HW1 5394   1.894   2.516   0.459  1.2312 -1.2878 -1.0614
 1748SOL    HW2 5395   1.884   2.369   0.494 -2.4954 -0.6812  0.9279
 1749SOL     OW 5396   0.027   1.876   3.374 -0.6625 -0.6097 -0.0819
 1749SOL    HW1 5397   0.080   1.942   3.329  0.2293 -0.3200  1.3590
 1749SOL    HW2 5398  -0.063   1.903   3.356 -0.3271  1.1069  0.5699
 1750SOL     OW 5399   3.247   2.282   1.272  0.3573 -0.3595  0.2588
 1750SOL    HW1 5400   3.246   2.355   1.333  0.7074 -0.2669  0.1554
 1750SOL    HW2 5401   3.259   2.204   1.326 -3.9789 -0.8563  0.8841
 1751SOL     OW 5402   1.849   0.659   1.623  0.0863  0.3783 -1.0941
 1751SOL    HW1 5403   1.869   0.565   1.622  0.5790  0.4630 -0.1671
 1751SOL    HW2 5404   1.928   0.700   1.659 -0.5448  1.0327 -0.4255
 1752SOL     OW 5405   3.381   3.669   0.533 -0.8737 -0.4461  0.5508
 1752SOL    HW1 5406   3.304   3.649   0.480 -1.0377  0.5172  0.4236
 1752SOL    HW2 5407   3.364   3.755   0.570  0.4184  0.0530  0.0329
 1753SOL     OW 5408   2.242   2.370   3.097 -0.0385 -0.5673 -1.0250
 1753SOL    HW1 5409   2.264   2.349   3.006  1.1642 -0.2649 -0.8262
 1753SOL    HW2 5410   2.305   2.437   3.121  0.0017 -1.0327  0.2004
 1754SOL     OW 5411   3.218   0.933   0.122  0.4601  0.6489 -0.0244
 1754SOL    HW1 5412   3.207   0.961   0.213 -0.4752  1.3798 -0.3420
 1754SOL    HW2 5413   3.248   0.843   0.128 -0.4357  0.3979  1.0059
 1755SOL     OW 5414   1.121   2.097   1.843  0.0484 -0.1103  0.9286
 1755SOL    HW1 5415   1.047   2.080   1.900  0.1709  0.5401  1.2893
 1755SOL    HW2 5416   1.156   2.180   1.873 -0.1546  0.4717 -0.3738
 1756SOL     OW 5417   2.363   2.028   1.262 -0.5385  0.4669 -0.1863
 1756SOL    HW1 5418   2.362   1.974   1.341  2.8935  2.9924  1.9135
 1756SOL    HW2 5419   2.455   2.026   1.233 -0.7937  3.0103 -1.5010
 1757SOL     OW 5420   0.878   1.402   1.306  0.2442 -0.2727  0.3475
 1757SOL    HW1 5421   0.962   1.372   1.340  0.9119 -0.3957 -1.3100
 1757SOL    HW2 5422   0.890   1.405   1.211 -2.2268 -2.2306 -0.1348
 1758SOL     OW 5423   0.006   3.529   0.105  0.2977 -0.3106  0.0575
 1758SOL    HW1 5424   0.074   3.539   0.038 -0.8956 -0.7636 -1.2787
 1758SOL    HW2 5425   0.051   3.544   0.187  1.8632  0.1183 -0.8328
 1759SOL     OW 5426   1.041   2.347   2.697 -0.2925 -0.4763 -0.1209
 1759SOL    HW1 5427   0.950   2.361   2.723  0.3665  1.0667  1.5844
 1759SOL    HW2 5428   1.081   2.434   2.701  1.8054 -1.4279  1.5290
 1760SOL     OW 5429   3.240   1.286   1.938 -0.2090 -0.5669  0.2253
 1760SOL    HW1 5430   3.239   1.205   1.990  0.3331  0.2160  1.5091
 1760SOL    HW2 5431   3.170   1.339   1.974 -0.2687 -0.2745 -0.3102
 1761SOL     OW 5432   2.764   3.395   3.152  0.1266 -0.2946  0.1094
 1761SOL    HW1 5433   2.793   3.341   3.226 -0.5476 -1.3840 -0.3834
 1761SOL    HW2 5434   2.690   3.444   3.186 -0.2010 -0.8174  0.1732
 1762SOL     OW 5435   2.605   0.772   2.069 -0.1783  0.6004  0.3735
 1762SOL    HW1 5436   2.544   0.840   2.098 -2.1239 -1.8483  2.5077
 1762SOL    HW2 5437   2.551   0.694   2.056  1.8649 -0.5144 -2.5312
 1763SOL     OW 5438   2.419   1.678   3.137  0.4348  0.0088 -0.2746
 1763SOL    HW1 5439   2.463   1.594   3.125 -0.0546 -0.3069  0.1610
 1763SOL    HW2 5440   2.463   1.736   3.074  0.3721 -0.7150 -1.0006
   3.84680   3.84680   3.84680
