Converted from md.pdb
4560
    0  TYR    N    1   2.473   2.681   2.005
    0  TYR   H1    2   2.545   2.714   1.937
    0  TYR   H2    3   2.468   2.578   1.989
    0  TYR   H3    4   2.505   2.704   2.101
    0  TYR   CA    5   2.341   2.743   1.981
    0  TYR   HA    6   2.356   2.846   2.013
    0  TYR   CB    7   2.305   2.717   1.833
    0  TYR  HB1    8   2.251   2.623   1.813
    0  TYR  HB2    9   2.397   2.715   1.770
    0  TYR   CG   10   2.237   2.833   1.776
    0  TYR  CD1   11   2.101   2.821   1.756
    0  TYR  HD1   12   2.067   2.719   1.757
    0  TYR  CE1   13   2.008   2.932   1.740
    0  TYR  HE1   14   1.902   2.925   1.721
    0  TYR   CZ   15   2.067   3.056   1.733
    0  TYR   OH   16   1.990   3.167   1.725
    0  TYR   HH   17   1.901   3.142   1.701
    0  TYR  CD2   18   2.288   2.962   1.759
    0  TYR  HD2   19   2.394   2.975   1.772
    0  TYR  CE2   20   2.205   3.076   1.737
    0  TYR  HE2   21   2.261   3.168   1.729
    0  TYR    C   22   2.233   2.676   2.061
    0  TYR    O   23   2.239   2.558   2.092
    1  TYR    N   24   2.147   2.767   2.117
    1  TYR   HN   25   2.161   2.864   2.098
    1  TYR   CA   26   2.029   2.732   2.205
    1  TYR   HA   27   1.955   2.810   2.190
    1  TYR   CB   28   1.952   2.606   2.176
    1  TYR  HB1   29   1.884   2.575   2.258
    1  TYR  HB2   30   2.019   2.518   2.166
    1  TYR   CG   31   1.885   2.616   2.040
    1  TYR  CD1   32   1.941   2.549   1.937
    1  TYR  HD1   33   2.025   2.485   1.956
    1  TYR  CE1   34   1.894   2.553   1.809
    1  TYR  HE1   35   1.926   2.490   1.728
    1  TYR   CZ   36   1.787   2.639   1.781
    1  TYR   OH   37   1.734   2.646   1.655
    1  TYR   HH   38   1.671   2.718   1.659
    1  TYR  CD2   39   1.773   2.704   2.011
    1  TYR  HD2   40   1.733   2.765   2.091
    1  TYR  CE2   41   1.725   2.714   1.876
    1  TYR  HE2   42   1.633   2.766   1.855
    1  TYR    C   43   2.061   2.745   2.352
    1  TYR    O   44   2.147   2.681   2.408
    2  ASP    N   45   1.984   2.824   2.421
    2  ASP   HN   46   1.910   2.867   2.371
    2  ASP   CA   47   2.005   2.861   2.563
    2  ASP   HA   48   2.104   2.832   2.594
    2  ASP   CB   49   1.994   3.010   2.572
    2  ASP  HB1   50   1.994   3.038   2.680
    2  ASP  HB2   51   1.894   3.040   2.533
    2  ASP   CG   52   2.114   3.089   2.511
    2  ASP  OD1   53   2.092   3.207   2.474
    2  ASP  OD2   54   2.231   3.048   2.513
    2  ASP    C   55   1.908   2.787   2.653
    2  ASP    O   56   1.800   2.752   2.614
    3  PRO    N   57   1.940   2.774   2.783
    3  PRO   CD   58   2.074   2.773   2.832
    3  PRO  HD1   59   2.148   2.697   2.801
    3  PRO  HD2   60   2.115   2.874   2.808
    3  PRO   CA   61   1.845   2.730   2.888
    3  PRO   HA   62   1.780   2.656   2.842
    3  PRO   CB   63   1.932   2.676   2.994
    3  PRO  HB1   64   1.969   2.572   2.979
    3  PRO  HB2   65   1.894   2.686   3.098
    3  PRO   CG   66   2.048   2.770   2.980
    3  PRO  HG1   67   2.136   2.744   3.043
    3  PRO  HG2   68   2.010   2.868   3.017
    3  PRO    C   69   1.764   2.852   2.932
    3  PRO    O   70   1.776   2.958   2.864
    4  ALA    N   71   1.683   2.834   3.038
    4  ALA   HN   72   1.666   2.738   3.057
    4  ALA   CA   73   1.600   2.946   3.082
    4  ALA   HA   74   1.652   3.040   3.088
    4  ALA   CB   75   1.470   2.976   3.006
    4  ALA  HB1   76   1.407   3.051   3.057
    4  ALA  HB2   77   1.491   2.981   2.897
    4  ALA  HB3   78   1.410   2.883   2.994
    4  ALA    C   79   1.548   2.914   3.228
    4  ALA    O   80   1.525   2.802   3.276
    5  THR    N   81   1.528   3.011   3.316
    5  THR   HN   82   1.552   3.104   3.286
    5  THR   CA   83   1.472   2.994   3.446
    5  THR   HA   84   1.470   2.891   3.479
    5  THR   CB   85   1.549   3.072   3.547
    5  THR   HB   86   1.532   3.181   3.538
    5  THR  OG1   87   1.690   3.061   3.523
    5  THR  HG1   88   1.734   3.136   3.561
    5  THR  CG2   89   1.519   3.017   3.685
    5  THR 1HG2   90   1.582   3.056   3.767
    5  THR 2HG2   91   1.535   2.909   3.666
    5  THR 3HG2   92   1.413   3.032   3.716
    5  THR    C   93   1.329   3.034   3.455
    5  THR    O   94   1.289   3.146   3.417
    6  GLY    N   95   1.248   2.946   3.518
    6  GLY   HN   96   1.288   2.862   3.555
    6  GLY   CA   97   1.108   2.976   3.551
    6  GLY  HA1   98   1.052   2.885   3.560
    6  GLY  HA2   99   1.074   3.028   3.462
    6  GLY    C  100   1.093   3.071   3.680
    6  GLY    O  101   1.190   3.113   3.744
    7  THR    N  102   0.968   3.122   3.714
    7  THR   HN  103   0.888   3.101   3.659
    7  THR   CA  104   0.953   3.231   3.803
    7  THR   HA  105   1.010   3.204   3.891
    7  THR   CB  106   0.996   3.378   3.762
    7  THR   HB  107   0.921   3.419   3.692
    7  THR  OG1  108   1.112   3.381   3.678
    7  THR  HG1  109   1.139   3.289   3.687
    7  THR  CG2  110   1.032   3.453   3.888
    7  THR 1HG2  111   1.125   3.418   3.939
    7  THR 2HG2  112   0.950   3.448   3.963
    7  THR 3HG2  113   1.054   3.560   3.869
    7  THR    C  114   0.810   3.238   3.847
    7  THR    O  115   0.716   3.276   3.780
    8  TRP    N  116   0.785   3.190   3.969
    8  TRP   HN  117   0.863   3.143   4.007
    8  TRP   CA  118   0.667   3.191   4.050
    8  TRP   HA  119   0.586   3.242   4.000
    8  TRP   CB  120   0.632   3.048   4.072
    8  TRP  HB1  121   0.613   2.992   3.977
    8  TRP  HB2  122   0.540   3.038   4.133
    8  TRP   CG  123   0.730   2.949   4.142
    8  TRP  CD1  124   0.725   2.916   4.274
    8  TRP  HD1  125   0.651   2.947   4.346
    8  TRP  NE1  126   0.828   2.827   4.305
    8  TRP  HE1  127   0.844   2.795   4.396
    8  TRP  CE2  128   0.883   2.788   4.181
    8  TRP  CD2  129   0.825   2.864   4.080
    8  TRP  CE3  130   0.862   2.848   3.948
    8  TRP  HE3  131   0.823   2.911   3.869
    8  TRP  CZ3  132   0.971   2.768   3.923
    8  TRP  HZ3  133   0.999   2.759   3.819
    8  TRP  CZ2  134   0.987   2.696   4.153
    8  TRP  HZ2  135   1.030   2.634   4.231
    8  TRP  CH2  136   1.028   2.685   4.020
    8  TRP  HH2  137   1.115   2.623   4.000
    8  TRP    C  138   0.696   3.263   4.177
    8  TRP    O  139   0.802   3.321   4.205
    9  TYR    N  140   0.595   3.279   4.259
    9  TYR   HN  141   0.502   3.249   4.239
    9  TYR   CA  142   0.600   3.367   4.373
    9  TYR   HA  143   0.699   3.396   4.406
    9  TYR   CB  144   0.534   3.509   4.345
    9  TYR  HB1  145   0.533   3.574   4.436
    9  TYR  HB2  146   0.429   3.497   4.312
    9  TYR   CG  147   0.623   3.585   4.243
    9  TYR  CD1  148   0.577   3.601   4.112
    9  TYR  HD1  149   0.482   3.552   4.093
    9  TYR  CE1  150   0.654   3.664   4.007
    9  TYR  HE1  151   0.614   3.673   3.908
    9  TYR   CZ  152   0.777   3.728   4.037
    9  TYR   OH  153   0.857   3.790   3.943
    9  TYR   HH  154   0.827   3.773   3.853
    9  TYR  CD2  155   0.741   3.645   4.271
    9  TYR  HD2  156   0.773   3.647   4.374
    9  TYR  CE2  157   0.821   3.704   4.167
    9  TYR  HE2  158   0.922   3.735   4.191
    9  TYR    C  159   0.548   3.305   4.504
    9  TYR  OT1  160   0.487   3.378   4.588
    9  TYR  OT2  161   0.573   3.186   4.529
   10  SOL   OW  162   0.734   1.842   0.226
   10  SOL  HW1  163   0.668   1.776   0.208
   10  SOL  HW2  164   0.698   1.924   0.193
   11  SOL   OW  165   2.745   0.159   0.574
   11  SOL  HW1  166   2.714   0.226   0.513
   11  SOL  HW2  167   2.841   0.160   0.563
   12  SOL   OW  168   1.383   2.654   1.926
   12  SOL  HW1  169   1.290   2.678   1.914
   12  SOL  HW2  170   1.387   2.561   1.905
   13  SOL   OW  171   0.388   2.369   1.715
   13  SOL  HW1  172   0.305   2.380   1.762
   13  SOL  HW2  173   0.367   2.307   1.645
   14  SOL   OW  174   2.006   2.143   2.892
   14  SOL  HW1  175   1.967   2.224   2.858
   14  SOL  HW2  176   1.966   2.133   2.978
   15  SOL   OW  177   1.735   0.975   2.078
   15  SOL  HW1  178   1.680   0.962   2.155
   15  SOL  HW2  179   1.756   0.887   2.048
   16  SOL   OW  180   3.219   0.142   0.103
   16  SOL  HW1  181   3.172   0.223   0.085
   16  SOL  HW2  182   3.191   0.082   0.034
   17  SOL   OW  183   1.595   0.895   0.158
   17  SOL  HW1  184   1.592   0.802   0.139
   17  SOL  HW2  185   1.620   0.901   0.250
   18  SOL   OW  186   1.238   3.440   2.166
   18  SOL  HW1  187   1.186   3.432   2.246
   18  SOL  HW2  188   1.191   3.506   2.114
   19  SOL   OW  189   1.167   2.292   1.657
   19  SOL  HW1  190   1.133   2.285   1.568
   19  SOL  HW2  191   1.096   2.260   1.712
   20  SOL   OW  192   1.681   2.693   0.731
   20  SOL  HW1  193   1.676   2.785   0.758
   20  SOL  HW2  194   1.700   2.696   0.638
   21  SOL   OW  195   1.114   2.567   2.196
   21  SOL  HW1  196   1.180   2.626   2.234
   21  SOL  HW2  197   1.114   2.589   2.103
   22  SOL   OW  198   0.699   0.818   2.277
   22  SOL  HW1  199   0.749   0.737   2.264
   22  SOL  HW2  200   0.727   0.875   2.206
   23  SOL   OW  201   3.335   0.615   3.272
   23  SOL  HW1  202   3.354   0.630   3.179
   23  SOL  HW2  203   3.309   0.523   3.276
   24  SOL   OW  204   0.891   2.336   2.569
   24  SOL  HW1  205   0.854   2.265   2.622
   24  SOL  HW2  206   0.876   2.415   2.621
   25  SOL   OW  207   0.667   2.346   0.616
   25  SOL  HW1  208   0.677   2.319   0.525
   25  SOL  HW2  209   0.573   2.348   0.631
   26  SOL   OW  210   3.340   3.353   1.622
   26  SOL  HW1  211   3.428   3.374   1.654
   26  SOL  HW2  212   3.346   3.363   1.527
   27  SOL   OW  213   3.153   1.671   3.234
   27  SOL  HW1  214   3.148   1.738   3.165
   27  SOL  HW2  215   3.170   1.589   3.188
   28  SOL   OW  216   3.456   0.205   2.302
   28  SOL  HW1  217   3.464   0.291   2.344
   28  SOL  HW2  218   3.547   0.175   2.292
   29  SOL   OW  219   3.084   2.633   0.298
   29  SOL  HW1  220   3.121   2.593   0.219
   29  SOL  HW2  221   3.150   2.617   0.366
   30  SOL   OW  222   1.918   2.816   0.905
   30  SOL  HW1  223   1.937   2.824   0.812
   30  SOL  HW2  224   1.958   2.732   0.930
   31  SOL   OW  225   2.456   1.332   3.173
   31  SOL  HW1  226   2.490   1.243   3.172
   31  SOL  HW2  227   2.486   1.371   3.091
   32  SOL   OW  228   2.910   2.101   2.565
   32  SOL  HW1  229   2.820   2.111   2.536
   32  SOL  HW2  230   2.917   2.010   2.594
   33  SOL   OW  231   1.358   1.642   2.330
   33  SOL  HW1  232   1.388   1.594   2.407
   33  SOL  HW2  233   1.271   1.607   2.312
   34  SOL   OW  234   1.546   2.349   2.531
   34  SOL  HW1  235   1.558   2.423   2.471
   34  SOL  HW2  236   1.615   2.359   2.596
   35  SOL   OW  237   0.732   2.970   0.131
   35  SOL  HW1  238   0.705   3.041   0.072
   35  SOL  HW2  239   0.658   2.960   0.191
   36  SOL   OW  240   0.127   3.238   1.230
   36  SOL  HW1  241   0.110   3.151   1.266
   36  SOL  HW2  242   0.222   3.247   1.230
   37  SOL   OW  243   2.453   0.810   3.274
   37  SOL  HW1  244   2.510   0.736   3.297
   37  SOL  HW2  245   2.507   0.888   3.290
   38  SOL   OW  246   0.034   0.585   1.151
   38  SOL  HW1  247   0.034   0.511   1.212
   38  SOL  HW2  248  -0.054   0.620   1.156
   39  SOL   OW  249   0.801   2.272   0.823
   39  SOL  HW1  250   0.725   2.214   0.831
   39  SOL  HW2  251   0.791   2.313   0.737
   40  SOL   OW  252   2.089   1.228   2.657
   40  SOL  HW1  253   2.050   1.313   2.637
   40  SOL  HW2  254   2.085   1.179   2.575
   41  SOL   OW  255   0.158   0.184   3.403
   41  SOL  HW1  256   0.218   0.110   3.405
   41  SOL  HW2  257   0.116   0.183   3.489
   42  SOL   OW  258   0.513   1.462   1.637
   42  SOL  HW1  259   0.598   1.493   1.606
   42  SOL  HW2  260   0.498   1.380   1.589
   43  SOL   OW  261   3.057   1.381   1.664
   43  SOL  HW1  262   3.000   1.341   1.729
   43  SOL  HW2  263   3.113   1.440   1.715
   44  SOL   OW  264   2.199   1.710   0.940
   44  SOL  HW1  265   2.169   1.668   0.860
   44  SOL  HW2  266   2.293   1.723   0.927
   45  SOL   OW  267   2.579   0.206   2.474
   45  SOL  HW1  268   2.625   0.122   2.480
   45  SOL  HW2  269   2.512   0.191   2.407
   46  SOL   OW  270   3.260   0.371   0.312
   46  SOL  HW1  271   3.247   0.285   0.272
   46  SOL  HW2  272   3.263   0.432   0.238
   47  SOL   OW  273   1.714   1.411   1.185
   47  SOL  HW1  274   1.643   1.406   1.249
   47  SOL  HW2  275   1.794   1.403   1.237
   48  SOL   OW  276   2.035   1.058   1.016
   48  SOL  HW1  277   1.963   1.113   0.986
   48  SOL  HW2  278   2.015   0.971   0.982
   49  SOL   OW  279   1.594   2.211   1.282
   49  SOL  HW1  280   1.545   2.156   1.343
   49  SOL  HW2  281   1.683   2.176   1.284
   50  SOL   OW  282   3.433   2.462   2.468
   50  SOL  HW1  283   3.481   2.544   2.455
   50  SOL  HW2  284   3.467   2.427   2.551
   51  SOL   OW  285   3.380   0.411   0.890
   51  SOL  HW1  286   3.430   0.476   0.840
   51  SOL  HW2  287   3.427   0.404   0.973
   52  SOL   OW  288   0.065   0.771   2.504
   52  SOL  HW1  289   0.016   0.690   2.494
   52  SOL  HW2  290   0.146   0.757   2.455
   53  SOL   OW  291   1.028   0.641   0.387
   53  SOL  HW1  292   1.057   0.599   0.468
   53  SOL  HW2  293   1.105   0.639   0.330
   54  SOL   OW  294   2.770   0.755   1.755
   54  SOL  HW1  295   2.679   0.736   1.732
   54  SOL  HW2  296   2.820   0.686   1.713
   55  SOL   OW  297   2.672   2.123   2.436
   55  SOL  HW1  298   2.577   2.135   2.439
   55  SOL  HW2  299   2.689   2.091   2.347
   56  SOL   OW  300   3.022   3.472   2.432
   56  SOL  HW1  301   3.110   3.434   2.431
   56  SOL  HW2  302   3.016   3.522   2.351
   57  SOL   OW  303   0.535   2.808   0.304
   57  SOL  HW1  304   0.489   2.795   0.387
   57  SOL  HW2  305   0.598   2.737   0.301
   58  SOL   OW  306   0.914   2.829   2.471
   58  SOL  HW1  307   0.839   2.869   2.427
   58  SOL  HW2  308   0.990   2.862   2.423
   59  SOL   OW  309   3.430   1.631   0.967
   59  SOL  HW1  310   3.504   1.687   0.944
   59  SOL  HW2  311   3.369   1.642   0.894
   60  SOL   OW  312   1.495   2.298   1.636
   60  SOL  HW1  313   1.452   2.335   1.559
   60  SOL  HW2  314   1.588   2.318   1.624
   61  SOL   OW  315   0.210   0.048   2.726
   61  SOL  HW1  316   0.249   0.089   2.649
   61  SOL  HW2  317   0.150   0.114   2.760
   62  SOL   OW  318   0.188   0.488   1.576
   62  SOL  HW1  319   0.096   0.486   1.550
   62  SOL  HW2  320   0.235   0.512   1.496
   63  SOL   OW  321   0.650   2.173   1.730
   63  SOL  HW1  322   0.697   2.216   1.659
   63  SOL  HW2  323   0.568   2.223   1.739
   64  SOL   OW  324   0.173   1.182   1.617
   64  SOL  HW1  325   0.177   1.262   1.566
   64  SOL  HW2  326   0.081   1.153   1.611
   65  SOL   OW  327   3.414   2.992   2.942
   65  SOL  HW1  328   3.495   2.990   2.891
   65  SOL  HW2  329   3.348   3.027   2.882
   66  SOL   OW  330   2.323   0.149   1.878
   66  SOL  HW1  331   2.249   0.179   1.930
   66  SOL  HW2  332   2.397   0.200   1.911
   67  SOL   OW  333   0.343   0.009   0.205
   67  SOL  HW1  334   0.388   0.015   0.121
   67  SOL  HW2  335   0.290   0.089   0.209
   68  SOL   OW  336   3.104   2.736   1.953
   68  SOL  HW1  337   3.187   2.708   1.913
   68  SOL  HW2  338   3.115   2.717   2.046
   69  SOL   OW  339   0.200   1.294   0.183
   69  SOL  HW1  340   0.196   1.216   0.127
   69  SOL  HW2  341   0.286   1.332   0.164
   70  SOL   OW  342   0.413   1.193   1.751
   70  SOL  HW1  343   0.324   1.159   1.740
   70  SOL  HW2  344   0.401   1.284   1.776
   71  SOL   OW  345   1.621   0.579   0.961
   71  SOL  HW1  346   1.641   0.625   1.042
   71  SOL  HW2  347   1.533   0.544   0.974
   72  SOL   OW  348   0.494   3.105   2.073
   72  SOL  HW1  349   0.557   3.032   2.070
   72  SOL  HW2  350   0.524   3.164   2.004
   73  SOL   OW  351   0.549   0.398   0.828
   73  SOL  HW1  352   0.589   0.366   0.910
   73  SOL  HW2  353   0.538   0.318   0.775
   74  SOL   OW  354   0.886   1.666   0.088
   74  SOL  HW1  355   0.856   1.730   0.152
   74  SOL  HW2  356   0.969   1.634   0.122
   75  SOL   OW  357   1.617   0.101   2.009
   75  SOL  HW1  358   1.523   0.113   1.997
   75  SOL  HW2  359   1.639   0.026   1.953
   76  SOL   OW  360   3.412   2.623   1.267
   76  SOL  HW1  361   3.404   2.614   1.362
   76  SOL  HW2  362   3.381   2.539   1.233
   77  SOL   OW  363   1.303   1.757   3.210
   77  SOL  HW1  364   1.392   1.743   3.178
   77  SOL  HW2  365   1.308   1.839   3.261
   78  SOL   OW  366   1.443   1.737   2.688
   78  SOL  HW1  367   1.364   1.754   2.739
   78  SOL  HW2  368   1.506   1.801   2.720
   79  SOL   OW  369   3.310   1.784   1.908
   79  SOL  HW1  370   3.367   1.824   1.843
   79  SOL  HW2  371   3.341   1.818   1.992
   80  SOL   OW  372   2.511   2.819   3.283
   80  SOL  HW1  373   2.444   2.773   3.232
   80  SOL  HW2  374   2.479   2.910   3.286
   81  SOL   OW  375   1.195   0.379   1.313
   81  SOL  HW1  376   1.264   0.436   1.347
   81  SOL  HW2  377   1.190   0.307   1.375
   82  SOL   OW  378   3.426   3.109   1.349
   82  SOL  HW1  379   3.388   3.184   1.303
   82  SOL  HW2  380   3.378   3.033   1.315
   83  SOL   OW  381   1.387   0.716   2.150
   83  SOL  HW1  382   1.426   0.628   2.149
   83  SOL  HW2  383   1.376   0.737   2.242
   84  SOL   OW  384   0.581   1.284   2.256
   84  SOL  HW1  385   0.615   1.370   2.230
   84  SOL  HW2  386   0.656   1.240   2.297
   85  SOL   OW  387   1.184   1.883   1.242
   85  SOL  HW1  388   1.194   1.974   1.268
   85  SOL  HW2  389   1.192   1.884   1.146
   86  SOL   OW  390   0.385   3.210   2.452
   86  SOL  HW1  391   0.309   3.249   2.496
   86  SOL  HW2  392   0.369   3.224   2.359
   87  SOL   OW  393   2.900   0.702   0.469
   87  SOL  HW1  394   2.825   0.674   0.522
   87  SOL  HW2  395   2.967   0.637   0.486
   88  SOL   OW  396   1.460   1.997   1.392
   88  SOL  HW1  397   1.381   2.036   1.354
   88  SOL  HW2  398   1.458   1.906   1.362
   89  SOL   OW  399   3.274   0.055   2.875
   89  SOL  HW1  400   3.363   0.027   2.897
   89  SOL  HW2  401   3.284   0.146   2.849
   90  SOL   OW  402   1.487   0.350   1.369
   90  SOL  HW1  403   1.431   0.277   1.396
   90  SOL  HW2  404   1.572   0.310   1.352
   91  SOL   OW  405   0.470   0.286   1.544
   91  SOL  HW1  406   0.391   0.310   1.497
   91  SOL  HW2  407   0.541   0.328   1.496
   92  SOL   OW  408   2.873   2.611   1.849
   92  SOL  HW1  409   2.961   2.641   1.872
   92  SOL  HW2  410   2.830   2.595   1.933
   93  SOL   OW  411   3.411   2.771   0.803
   93  SOL  HW1  412   3.465   2.770   0.882
   93  SOL  HW2  413   3.331   2.723   0.828
   94  SOL   OW  414   3.442   0.943   1.908
   94  SOL  HW1  415   3.528   0.967   1.941
   94  SOL  HW2  416   3.423   0.859   1.949
   95  SOL   OW  417   1.448   1.962   1.936
   95  SOL  HW1  418   1.366   1.929   1.899
   95  SOL  HW2  419   1.446   1.934   2.027
   96  SOL   OW  420   0.188   1.341   2.316
   96  SOL  HW1  421   0.205   1.247   2.324
   96  SOL  HW2  422   0.158   1.353   2.226
   97  SOL   OW  423   2.262   2.449   3.369
   97  SOL  HW1  424   2.296   2.374   3.321
   97  SOL  HW2  425   2.205   2.410   3.435
   98  SOL   OW  426   3.237   0.817   0.188
   98  SOL  HW1  427   3.290   0.811   0.268
   98  SOL  HW2  428   3.301   0.811   0.117
   99  SOL   OW  429   2.686   0.168   3.441
   99  SOL  HW1  430   2.711   0.238   3.382
   99  SOL  HW2  431   2.761   0.109   3.443
  100  SOL   OW  432   3.460   2.730   2.776
  100  SOL  HW1  433   3.543   2.689   2.750
  100  SOL  HW2  434   3.428   2.770   2.695
  101  SOL   OW  435   0.106   0.299   2.807
  101  SOL  HW1  436   0.055   0.379   2.816
  101  SOL  HW2  437   0.154   0.292   2.889
  102  SOL   OW  438   2.793   2.356   2.484
  102  SOL  HW1  439   2.884   2.325   2.493
  102  SOL  HW2  440   2.743   2.277   2.462
  103  SOL   OW  441   3.061   0.371   0.087
  103  SOL  HW1  442   2.997   0.393   0.154
  103  SOL  HW2  443   3.060   0.446   0.027
  104  SOL   OW  444   2.728   0.869   3.455
  104  SOL  HW1  445   2.795   0.858   3.522
  104  SOL  HW2  446   2.645   0.870   3.502
  105  SOL   OW  447   0.204   0.846   1.638
  105  SOL  HW1  448   0.295   0.869   1.658
  105  SOL  HW2  449   0.157   0.929   1.643
  106  SOL   OW  450   3.301   2.850   1.469
  106  SOL  HW1  451   3.393   2.861   1.491
  106  SOL  HW2  452   3.302   2.823   1.377
  107  SOL   OW  453   1.493   2.742   2.184
  107  SOL  HW1  454   1.445   2.794   2.248
  107  SOL  HW2  455   1.428   2.723   2.116
  108  SOL   OW  456   3.360   2.393   1.156
  108  SOL  HW1  457   3.423   2.352   1.096
  108  SOL  HW2  458   3.301   2.322   1.181
  109  SOL   OW  459   1.772   3.041   1.093
  109  SOL  HW1  460   1.689   3.022   1.050
  109  SOL  HW2  461   1.839   3.006   1.033
  110  SOL   OW  462   0.664   1.996   0.916
  110  SOL  HW1  463   0.690   1.910   0.883
  110  SOL  HW2  464   0.683   1.992   1.010
  111  SOL   OW  465   1.845   0.612   1.809
  111  SOL  HW1  466   1.851   0.701   1.774
  111  SOL  HW2  467   1.832   0.556   1.732
  112  SOL   OW  468   3.367   2.766   0.102
  112  SOL  HW1  469   3.435   2.788   0.165
  112  SOL  HW2  470   3.337   2.679   0.129
  113  SOL   OW  471   3.372   0.634   3.017
  113  SOL  HW1  472   3.466   0.638   2.998
  113  SOL  HW2  473   3.343   0.551   2.981
  114  SOL   OW  474   2.881   0.535   1.643
  114  SOL  HW1  475   2.892   0.457   1.698
  114  SOL  HW2  476   2.853   0.500   1.558
  115  SOL   OW  477   3.169   0.479   1.413
  115  SOL  HW1  478   3.107   0.430   1.358
  115  SOL  HW2  479   3.130   0.566   1.422
  116  SOL   OW  480   0.654   1.911   1.865
  116  SOL  HW1  481   0.680   1.922   1.956
  116  SOL  HW2  482   0.659   1.999   1.827
  117  SOL   OW  483   0.454   1.347   0.092
  117  SOL  HW1  484   0.546   1.327   0.111
  117  SOL  HW2  485   0.458   1.416   0.026
  118  SOL   OW  486   1.240   0.257   1.700
  118  SOL  HW1  487   1.158   0.301   1.722
  118  SOL  HW2  488   1.238   0.175   1.749
  119  SOL   OW  489   1.133   0.221   2.917
  119  SOL  HW1  490   1.161   0.145   2.968
  119  SOL  HW2  491   1.214   0.259   2.884
  120  SOL   OW  492   0.483   1.864   2.925
  120  SOL  HW1  493   0.412   1.801   2.930
  120  SOL  HW2  494   0.559   1.812   2.899
  121  SOL   OW  495   2.207   2.994   1.318
  121  SOL  HW1  496   2.251   2.935   1.378
  121  SOL  HW2  497   2.262   2.996   1.240
  122  SOL   OW  498   0.233   3.418   0.454
  122  SOL  HW1  499   0.168   3.390   0.390
  122  SOL  HW2  500   0.259   3.505   0.424
  123  SOL   OW  501   1.916   1.141   1.958
  123  SOL  HW1  502   1.871   1.137   1.873
  123  SOL  HW2  503   1.869   1.079   2.013
  124  SOL   OW  504   1.321   0.276   3.125
  124  SOL  HW1  505   1.332   0.273   3.220
  124  SOL  HW2  506   1.263   0.202   3.106
  125  SOL   OW  507   2.156   0.308   1.089
  125  SOL  HW1  508   2.070   0.270   1.069
  125  SOL  HW2  509   2.212   0.232   1.104
  126  SOL   OW  510   2.458   1.746   1.050
  126  SOL  HW1  511   2.479   1.720   1.140
  126  SOL  HW2  512   2.542   1.744   1.005
  127  SOL   OW  513   1.022   0.372   2.685
  127  SOL  HW1  514   1.043   0.317   2.761
  127  SOL  HW2  515   0.993   0.455   2.723
  128  SOL   OW  516   3.388   2.872   1.190
  128  SOL  HW1  517   3.420   2.785   1.216
  128  SOL  HW2  518   3.339   2.857   1.110
  129  SOL   OW  519   2.359   1.977   0.254
  129  SOL  HW1  520   2.436   1.977   0.198
  129  SOL  HW2  521   2.393   1.966   0.343
  130  SOL   OW  522   1.894   0.874   1.750
  130  SOL  HW1  523   1.948   0.887   1.672
  130  SOL  HW2  524   1.826   0.941   1.744
  131  SOL   OW  525   0.436   2.288   2.368
  131  SOL  HW1  526   0.412   2.378   2.347
  131  SOL  HW2  527   0.369   2.259   2.429
  132  SOL   OW  528   0.440   2.510   2.789
  132  SOL  HW1  529   0.463   2.417   2.782
  132  SOL  HW2  530   0.498   2.543   2.857
  133  SOL   OW  531   1.999   2.788   0.625
  133  SOL  HW1  532   2.023   2.696   0.619
  133  SOL  HW2  533   1.937   2.801   0.552
  134  SOL   OW  534   3.452   0.355   0.516
  134  SOL  HW1  535   3.395   0.369   0.440
  134  SOL  HW2  536   3.409   0.287   0.567
  135  SOL   OW  537   2.093   2.210   2.073
  135  SOL  HW1  538   2.088   2.233   1.980
  135  SOL  HW2  539   2.002   2.191   2.097
  136  SOL   OW  540   3.466   2.563   1.532
  136  SOL  HW1  541   3.399   2.546   1.599
  136  SOL  HW2  542   3.519   2.633   1.569
  137  SOL   OW  543   0.296   3.022   0.803
  137  SOL  HW1  544   0.322   3.029   0.895
  137  SOL  HW2  545   0.284   3.112   0.775
  138  SOL   OW  546   1.990   1.179   3.202
  138  SOL  HW1  547   1.962   1.153   3.290
  138  SOL  HW2  548   2.086   1.169   3.203
  139  SOL   OW  549   1.435   1.882   2.227
  139  SOL  HW1  550   1.417   1.810   2.287
  139  SOL  HW2  551   1.484   1.946   2.280
  140  SOL   OW  552   1.189   2.517   3.369
  140  SOL  HW1  553   1.222   2.593   3.418
  140  SOL  HW2  554   1.266   2.481   3.325
  141  SOL   OW  555   1.354   2.394   1.841
  141  SOL  HW1  556   1.431   2.360   1.796
  141  SOL  HW2  557   1.281   2.375   1.782
  142  SOL   OW  558   2.518   0.749   1.641
  142  SOL  HW1  559   2.469   0.794   1.572
  142  SOL  HW2  560   2.464   0.673   1.662
  143  SOL   OW  561   1.781   1.955   1.089
  143  SOL  HW1  562   1.824   1.923   1.169
  143  SOL  HW2  563   1.798   2.049   1.089
  144  SOL   OW  564   0.837   2.135  -0.024
  144  SOL  HW1  565   0.908   2.140   0.041
  144  SOL  HW2  566   0.758   2.121   0.028
  145  SOL   OW  567   3.110   1.893   1.761
  145  SOL  HW1  568   3.154   1.855   1.837
  145  SOL  HW2  569   3.026   1.923   1.795
  146  SOL   OW  570   2.602   0.193   1.971
  146  SOL  HW1  571   2.579   0.100   1.966
  146  SOL  HW2  572   2.649   0.202   2.054
  147  SOL   OW  573   2.991   0.297   2.114
  147  SOL  HW1  574   3.077   0.254   2.120
  147  SOL  HW2  575   2.949   0.279   2.198
  148  SOL   OW  576   2.968   1.822   2.523
  148  SOL  HW1  577   2.975   1.747   2.583
  148  SOL  HW2  578   3.053   1.827   2.480
  149  SOL   OW  579   2.597   1.622   1.279
  149  SOL  HW1  580   2.661   1.682   1.238
  149  SOL  HW2  581   2.651   1.557   1.324
  150  SOL   OW  582   2.744   0.961   0.432
  150  SOL  HW1  583   2.774   0.870   0.428
  150  SOL  HW2  584   2.824   1.012   0.417
  151  SOL   OW  585   3.016   0.632   1.113
  151  SOL  HW1  586   2.954   0.563   1.139
  151  SOL  HW2  587   3.018   0.627   1.018
  152  SOL   OW  588   3.136   1.854   3.055
  152  SOL  HW1  589   3.059   1.857   2.998
  152  SOL  HW2  590   3.175   1.941   3.047
  153  SOL   OW  591   0.998   3.297   2.515
  153  SOL  HW1  592   0.932   3.357   2.480
  153  SOL  HW2  593   1.063   3.354   2.555
  154  SOL   OW  594   2.318   1.382   0.995
  154  SOL  HW1  595   2.278   1.450   0.939
  154  SOL  HW2  596   2.294   1.408   1.084
  155  SOL   OW  597   2.561   3.209   0.080
  155  SOL  HW1  598   2.633   3.268   0.056
  155  SOL  HW2  599   2.528   3.244   0.163
  156  SOL   OW  600   0.673   0.304   1.111
  156  SOL  HW1  601   0.681   0.214   1.141
  156  SOL  HW2  602   0.704   0.357   1.185
  157  SOL   OW  603   2.438   0.591   2.163
  157  SOL  HW1  604   2.440   0.687   2.159
  157  SOL  HW2  605   2.417   0.571   2.254
  158  SOL   OW  606   2.465   1.494   1.921
  158  SOL  HW1  607   2.532   1.558   1.900
  158  SOL  HW2  608   2.476   1.477   2.014
  159  SOL   OW  609   2.054   1.660   3.312
  159  SOL  HW1  610   2.011   1.699   3.236
  159  SOL  HW2  611   2.100   1.584   3.277
  160  SOL   OW  612   3.369   1.207   1.380
  160  SOL  HW1  613   3.385   1.278   1.443
  160  SOL  HW2  614   3.294   1.159   1.416
  161  SOL   OW  615   2.397   1.665   3.086
  161  SOL  HW1  616   2.339   1.602   3.128
  161  SOL  HW2  617   2.451   1.699   3.157
  162  SOL   OW  618   2.745   2.593   2.848
  162  SOL  HW1  619   2.713   2.542   2.774
  162  SOL  HW2  620   2.751   2.530   2.920
  163  SOL   OW  621   3.330   1.547   0.192
  163  SOL  HW1  622   3.244   1.563   0.153
  163  SOL  HW2  623   3.363   1.635   0.213
  164  SOL   OW  624   0.926   0.466   2.441
  164  SOL  HW1  625   1.000   0.434   2.492
  164  SOL  HW2  626   0.851   0.457   2.499
  165  SOL   OW  627   3.312   0.201   1.617
  165  SOL  HW1  628   3.260   0.134   1.575
  165  SOL  HW2  629   3.399   0.193   1.577
  166  SOL   OW  630   2.077   3.039   0.973
  166  SOL  HW1  631   2.050   2.989   1.050
  166  SOL  HW2  632   2.102   2.972   0.909
  167  SOL   OW  633   1.416   0.115   1.020
  167  SOL  HW1  634   1.358   0.157   0.957
  167  SOL  HW2  635   1.358   0.082   1.089
  168  SOL   OW  636   1.216   2.029   3.369
  168  SOL  HW1  637   1.124   2.023   3.345
  168  SOL  HW2  638   1.224   2.110   3.419
  169  SOL   OW  639   0.886   2.242   2.317
  169  SOL  HW1  640   0.796   2.245   2.284
  169  SOL  HW2  641   0.880   2.281   2.404
  170  SOL   OW  642   1.761   0.410   2.240
  170  SOL  HW1  643   1.751   0.471   2.313
  170  SOL  HW2  644   1.854   0.416   2.217
  171  SOL   OW  645   2.586   1.854   0.436
  171  SOL  HW1  646   2.654   1.915   0.408
  171  SOL  HW2  647   2.617   1.768   0.408
  172  SOL   OW  648   1.107   2.671   2.568
  172  SOL  HW1  649   1.042   2.713   2.513
  172  SOL  HW2  650   1.167   2.628   2.507
  173  SOL   OW  651   0.941   0.291   1.030
  173  SOL  HW1  652   0.854   0.327   1.046
  173  SOL  HW2  653   0.999   0.367   1.030
  174  SOL   OW  654   0.042   3.522   0.848
  174  SOL  HW1  655   0.106   3.455   0.872
  174  SOL  HW2  656  -0.014   3.480   0.783
  175  SOL   OW  657   2.464   3.217   0.653
  175  SOL  HW1  658   2.491   3.153   0.719
  175  SOL  HW2  659   2.521   3.292   0.668
  176  SOL   OW  660   2.324   1.850   2.689
  176  SOL  HW1  661   2.344   1.839   2.596
  176  SOL  HW2  662   2.273   1.772   2.711
  177  SOL   OW  663   0.040   2.857   1.535
  177  SOL  HW1  664   0.108   2.821   1.477
  177  SOL  HW2  665   0.086   2.923   1.587
  178  SOL   OW  666   1.453   2.796   2.646
  178  SOL  HW1  667   1.389   2.867   2.655
  178  SOL  HW2  668   1.497   2.814   2.563
  179  SOL   OW  669   2.224   3.342   2.166
  179  SOL  HW1  670   2.221   3.248   2.179
  179  SOL  HW2  671   2.214   3.354   2.071
  180  SOL   OW  672   2.237   3.242   3.148
  180  SOL  HW1  673   2.301   3.209   3.212
  180  SOL  HW2  674   2.155   3.199   3.172
  181  SOL   OW  675   2.917   1.127   0.079
  181  SOL  HW1  676   2.838   1.078   0.100
  181  SOL  HW2  677   2.942   1.168   0.162
  182  SOL   OW  678   2.976   0.107   1.680
  182  SOL  HW1  679   3.033   0.046   1.726
  182  SOL  HW2  680   3.023   0.128   1.600
  183  SOL   OW  681   2.769   1.427   1.376
  183  SOL  HW1  682   2.699   1.375   1.336
  183  SOL  HW2  683   2.844   1.368   1.380
  184  SOL   OW  684   2.431   1.014   1.652
  184  SOL  HW1  685   2.406   1.099   1.615
  184  SOL  HW2  686   2.519   0.998   1.619
  185  SOL   OW  687   2.491   0.498   0.645
  185  SOL  HW1  688   2.472   0.430   0.710
  185  SOL  HW2  689   2.404   0.530   0.619
  186  SOL   OW  690   2.569   2.928   0.834
  186  SOL  HW1  691   2.656   2.891   0.846
  186  SOL  HW2  692   2.538   2.891   0.751
  187  SOL   OW  693   0.351   0.959   2.584
  187  SOL  HW1  694   0.377   0.910   2.506
  187  SOL  HW2  695   0.377   1.049   2.567
  188  SOL   OW  696   2.650   1.753   1.618
  188  SOL  HW1  697   2.650   1.658   1.606
  188  SOL  HW2  698   2.709   1.768   1.692
  189  SOL   OW  699   0.192   3.084   1.748
  189  SOL  HW1  700   0.193   3.139   1.669
  189  SOL  HW2  701   0.128   3.125   1.805
  190  SOL   OW  702   1.734   2.457   3.143
  190  SOL  HW1  703   1.793   2.491   3.210
  190  SOL  HW2  704   1.785   2.391   3.096
  191  SOL   OW  705   0.853   0.639   3.171
  191  SOL  HW1  706   0.881   0.548   3.185
  191  SOL  HW2  707   0.758   0.632   3.157
  192  SOL   OW  708   2.046   1.267   2.303
  192  SOL  HW1  709   1.965   1.232   2.266
  192  SOL  HW2  710   2.019   1.346   2.350
  193  SOL   OW  711   3.234   2.147   1.183
  193  SOL  HW1  712   3.192   2.092   1.249
  193  SOL  HW2  713   3.295   2.088   1.139
  194  SOL   OW  714   1.330   0.952   3.074
  194  SOL  HW1  715   1.328   1.014   3.001
  194  SOL  HW2  716   1.262   0.984   3.134
  195  SOL   OW  717   1.470   1.173   1.297
  195  SOL  HW1  718   1.550   1.153   1.250
  195  SOL  HW2  719   1.482   1.263   1.327
  196  SOL   OW  720   0.164   1.153   1.954
  196  SOL  HW1  721   0.155   1.224   2.018
  196  SOL  HW2  722   0.100   1.173   1.886
  197  SOL   OW  723   1.939   0.508   1.289
  197  SOL  HW1  724   1.955   0.498   1.383
  197  SOL  HW2  725   2.000   0.578   1.263
  198  SOL   OW  726   3.157   1.079   0.300
  198  SOL  HW1  727   3.228   1.120   0.249
  198  SOL  HW2  728   3.164   0.985   0.279
  199  SOL   OW  729   0.107   3.178   3.269
  199  SOL  HW1  730   0.147   3.184   3.356
  199  SOL  HW2  731   0.056   3.096   3.272
  200  SOL   OW  732   2.116   1.008   2.232
  200  SOL  HW1  733   2.207   0.997   2.257
  200  SOL  HW2  734   2.089   1.090   2.275
  201  SOL   OW  735   0.391   2.634   3.193
  201  SOL  HW1  736   0.314   2.688   3.175
  201  SOL  HW2  737   0.356   2.545   3.202
  202  SOL   OW  738   1.623   0.650   3.304
  202  SOL  HW1  739   1.585   0.563   3.298
  202  SOL  HW2  740   1.548   0.709   3.306
  203  SOL   OW  741   0.870   3.353   1.614
  203  SOL  HW1  742   0.875   3.348   1.518
  203  SOL  HW2  743   0.907   3.270   1.644
  204  SOL   OW  744   1.610   0.378   1.927
  204  SOL  HW1  745   1.694   0.332   1.923
  204  SOL  HW2  746   1.586   0.376   2.019
  205  SOL   OW  747   0.325   2.533   2.256
  205  SOL  HW1  748   0.328   2.556   2.349
  205  SOL  HW2  749   0.274   2.603   2.216
  206  SOL   OW  750   2.595   3.444   1.254
  206  SOL  HW1  751   2.539   3.422   1.329
  206  SOL  HW2  752   2.623   3.534   1.271
  207  SOL   OW  753   3.177   1.234   2.321
  207  SOL  HW1  754   3.120   1.308   2.343
  207  SOL  HW2  755   3.152   1.165   2.382
  208  SOL   OW  756   2.913   3.513   3.453
  208  SOL  HW1  757   3.004   3.495   3.474
  208  SOL  HW2  758   2.869   3.428   3.463
  209  SOL   OW  759   0.945   2.559   1.377
  209  SOL  HW1  760   0.850   2.549   1.377
  209  SOL  HW2  761   0.961   2.636   1.322
  210  SOL   OW  762   2.861   0.748   0.208
  210  SOL  HW1  763   2.876   0.732   0.301
  210  SOL  HW2  764   2.949   0.761   0.171
  211  SOL   OW  765   2.299   3.500   0.553
  211  SOL  HW1  766   2.393   3.481   0.554
  211  SOL  HW2  767   2.284   3.551   0.633
  212  SOL   OW  768   1.493   0.446   2.219
  212  SOL  HW1  769   1.587   0.428   2.225
  212  SOL  HW2  770   1.452   0.359   2.217
  213  SOL   OW  771   0.422   1.220   0.612
  213  SOL  HW1  772   0.507   1.178   0.596
  213  SOL  HW2  773   0.360   1.148   0.620
  214  SOL   OW  774   3.473   3.478   3.269
  214  SOL  HW1  775   3.391   3.506   3.228
  214  SOL  HW2  776   3.450   3.397   3.316
  215  SOL   OW  777   3.300   2.811   3.353
  215  SOL  HW1  778   3.237   2.742   3.331
  215  SOL  HW2  779   3.316   2.800   3.446
  216  SOL   OW  780   2.990   3.004   0.433
  216  SOL  HW1  781   3.030   2.989   0.348
  216  SOL  HW2  782   3.055   2.971   0.496
  217  SOL   OW  783   1.666   0.240   3.256
  217  SOL  HW1  784   1.655   0.145   3.266
  217  SOL  HW2  785   1.578   0.275   3.270
  218  SOL   OW  786   3.415   1.210   3.052
  218  SOL  HW1  787   3.490   1.266   3.033
  218  SOL  HW2  788   3.449   1.121   3.042
  219  SOL   OW  789   0.484   1.714   2.032
  219  SOL  HW1  790   0.552   1.688   2.094
  219  SOL  HW2  791   0.524   1.701   1.946
  220  SOL   OW  792   0.452   0.468   0.294
  220  SOL  HW1  793   0.459   0.554   0.335
  220  SOL  HW2  794   0.443   0.407   0.366
  221  SOL   OW  795   0.901   1.764   1.568
  221  SOL  HW1  796   0.851   1.833   1.524
  221  SOL  HW2  797   0.842   1.689   1.569
  222  SOL   OW  798   2.468   2.393   1.621
  222  SOL  HW1  799   2.554   2.388   1.578
  222  SOL  HW2  800   2.489   2.410   1.713
  223  SOL   OW  801   0.789   3.108   1.445
  223  SOL  HW1  802   0.761   3.072   1.362
  223  SOL  HW2  803   0.874   3.149   1.426
  224  SOL   OW  804   1.470   3.275   3.225
  224  SOL  HW1  805   1.559   3.308   3.239
  224  SOL  HW2  806   1.416   3.327   3.284
  225  SOL   OW  807   2.538   1.163   2.760
  225  SOL  HW1  808   2.580   1.094   2.709
  225  SOL  HW2  809   2.497   1.116   2.833
  226  SOL   OW  810   3.495   1.316   3.422
  226  SOL  HW1  811   3.446   1.318   3.504
  226  SOL  HW2  812   3.462   1.239   3.376
  227  SOL   OW  813   1.172   3.457   2.740
  227  SOL  HW1  814   1.180   3.384   2.802
  227  SOL  HW2  815   1.249   3.450   2.685
  228  SOL   OW  816   0.562   0.799   1.025
  228  SOL  HW1  817   0.470   0.825   1.020
  228  SOL  HW2  818   0.582   0.766   0.938
  229  SOL   OW  819   1.549   2.089   3.041
  229  SOL  HW1  820   1.609   2.034   2.991
  229  SOL  HW2  821   1.544   2.171   2.991
  230  SOL   OW  822   0.589   3.338   1.491
  230  SOL  HW1  823   0.629   3.253   1.473
  230  SOL  HW2  824   0.612   3.357   1.582
  231  SOL   OW  825   0.591   1.030   1.922
  231  SOL  HW1  826   0.571   1.113   1.878
  231  SOL  HW2  827   0.534   1.029   1.998
  232  SOL   OW  828   2.827   1.415   0.976
  232  SOL  HW1  829   2.741   1.412   1.019
  232  SOL  HW2  830   2.843   1.509   0.962
  233  SOL   OW  831   0.963   0.991   2.626
  233  SOL  HW1  832   0.873   1.015   2.603
  233  SOL  HW2  833   1.013   1.010   2.547
  234  SOL   OW  834   2.405   0.118   0.982
  234  SOL  HW1  835   2.394   0.081   1.070
  234  SOL  HW2  836   2.331   0.084   0.933
  235  SOL   OW  837   3.226   0.704   0.619
  235  SOL  HW1  838   3.248   0.655   0.699
  235  SOL  HW2  839   3.162   0.648   0.575
  236  SOL   OW  840   0.755   1.479   2.921
  236  SOL  HW1  841   0.677   1.446   2.877
  236  SOL  HW2  842   0.823   1.415   2.902
  237  SOL   OW  843   1.853   1.093   0.668
  237  SOL  HW1  844   1.766   1.060   0.689
  237  SOL  HW2  845   1.845   1.127   0.579
  238  SOL   OW  846   1.053   3.455   1.422
  238  SOL  HW1  847   1.006   3.512   1.483
  238  SOL  HW2  848   1.144   3.484   1.429
  239  SOL   OW  849   2.524   2.200   0.777
  239  SOL  HW1  850   2.451   2.165   0.725
  239  SOL  HW2  851   2.508   2.167   0.865
  240  SOL   OW  852   0.037   1.831   0.367
  240  SOL  HW1  853  -0.026   1.829   0.295
  240  SOL  HW2  854   0.086   1.750   0.359
  241  SOL   OW  855   3.381   0.821   3.463
  241  SOL  HW1  856   3.474   0.798   3.466
  241  SOL  HW2  857   3.349   0.779   3.383
  242  SOL   OW  858   0.879   0.119   1.567
  242  SOL  HW1  859   0.855   0.060   1.639
  242  SOL  HW2  860   0.930   0.188   1.609
  243  SOL   OW  861   2.115   0.684   1.852
  243  SOL  HW1  862   2.030   0.640   1.843
  243  SOL  HW2  863   2.102   0.747   1.923
  244  SOL   OW  864   2.856   1.108   0.693
  244  SOL  HW1  865   2.914   1.054   0.639
  244  SOL  HW2  866   2.901   1.115   0.777
  245  SOL   OW  867   2.534   2.406   0.620
  245  SOL  HW1  868   2.518   2.333   0.679
  245  SOL  HW2  869   2.468   2.471   0.644
  246  SOL   OW  870   2.254   0.296   0.791
  246  SOL  HW1  871   2.222   0.224   0.844
  246  SOL  HW2  872   2.221   0.375   0.834
  247  SOL   OW  873   0.067   0.149   1.530
  247  SOL  HW1  874   0.145   0.134   1.477
  247  SOL  HW2  875   0.052   0.066   1.575
  248  SOL   OW  876   0.882   1.146   0.950
  248  SOL  HW1  877   0.821   1.151   1.024
  248  SOL  HW2  878   0.938   1.224   0.960
  249  SOL   OW  879   1.764   2.528   0.941
  249  SOL  HW1  880   1.800   2.448   0.904
  249  SOL  HW2  881   1.741   2.582   0.866
  250  SOL   OW  882   2.023   1.986   0.729
  250  SOL  HW1  883   2.067   2.040   0.795
  250  SOL  HW2  884   1.965   1.930   0.780
  251  SOL   OW  885   2.955   1.106   3.189
  251  SOL  HW1  886   2.867   1.084   3.218
  251  SOL  HW2  887   3.003   1.023   3.193
  252  SOL   OW  888   1.303   1.361   2.898
  252  SOL  HW1  889   1.232   1.368   2.962
  252  SOL  HW2  890   1.380   1.394   2.944
  253  SOL   OW  891   2.980   3.377   0.320
  253  SOL  HW1  892   2.889   3.405   0.311
  253  SOL  HW2  893   2.982   3.290   0.279
  254  SOL   OW  894   0.323   0.905   0.365
  254  SOL  HW1  895   0.350   0.974   0.305
  254  SOL  HW2  896   0.281   0.951   0.438
  255  SOL   OW  897   2.063   3.424   0.437
  255  SOL  HW1  898   2.135   3.412   0.499
  255  SOL  HW2  899   2.024   3.337   0.428
  256  SOL   OW  900   3.406   1.661   2.870
  256  SOL  HW1  901   3.436   1.621   2.952
  256  SOL  HW2  902   3.475   1.724   2.847
  257  SOL   OW  903   0.260   2.407   0.549
  257  SOL  HW1  904   0.203   2.475   0.515
  257  SOL  HW2  905   0.323   2.391   0.479
  258  SOL   OW  906   2.917   0.055   0.830
  258  SOL  HW1  907   2.913   0.030   0.737
  258  SOL  HW2  908   2.828   0.041   0.863
  259  SOL   OW  909   2.789   2.352   1.856
  259  SOL  HW1  910   2.838   2.271   1.841
  259  SOL  HW2  911   2.856   2.421   1.853
  260  SOL   OW  912   0.706   3.049   2.847
  260  SOL  HW1  913   0.661   3.086   2.771
  260  SOL  HW2  914   0.741   2.966   2.816
  261  SOL   OW  915   1.792   3.004   2.278
  261  SOL  HW1  916   1.795   3.085   2.329
  261  SOL  HW2  917   1.850   3.021   2.203
  262  SOL   OW  918   0.178   1.071   2.269
  262  SOL  HW1  919   0.188   0.980   2.295
  262  SOL  HW2  920   0.094   1.074   2.223
  263  SOL   OW  921   1.318   2.891   0.565
  263  SOL  HW1  922   1.267   2.967   0.594
  263  SOL  HW2  923   1.314   2.829   0.638
  264  SOL   OW  924   1.909   0.384   1.951
  264  SOL  HW1  925   1.945   0.453   2.006
  264  SOL  HW2  926   1.859   0.431   1.884
  265  SOL   OW  927   1.487   1.645   0.816
  265  SOL  HW1  928   1.402   1.641   0.773
  265  SOL  HW2  929   1.484   1.578   0.884
  266  SOL   OW  930   2.283   2.321   0.485
  266  SOL  HW1  931   2.374   2.339   0.506
  266  SOL  HW2  932   2.261   2.384   0.416
  267  SOL   OW  933   0.680   3.146   1.671
  267  SOL  HW1  934   0.719   3.143   1.584
  267  SOL  HW2  935   0.605   3.087   1.666
  268  SOL   OW  936   0.065   1.544   2.706
  268  SOL  HW1  937   0.109   1.619   2.667
  268  SOL  HW2  938  -0.021   1.578   2.732
  269  SOL   OW  939   1.677   1.661   0.633
  269  SOL  HW1  940   1.617   1.640   0.705
  269  SOL  HW2  941   1.721   1.578   0.614
  270  SOL   OW  942   2.415   1.266   2.506
  270  SOL  HW1  943   2.355   1.340   2.519
  270  SOL  HW2  944   2.478   1.273   2.578
  271  SOL   OW  945   1.622   1.972   2.806
  271  SOL  HW1  946   1.663   1.991   2.721
  271  SOL  HW2  947   1.540   2.020   2.804
  272  SOL   OW  948   2.761   0.280   3.192
  272  SOL  HW1  949   2.742   0.374   3.190
  272  SOL  HW2  950   2.718   0.245   3.114
  273  SOL   OW  951   1.551   2.365   3.448
  273  SOL  HW1  952   1.594   2.281   3.437
  273  SOL  HW2  953   1.534   2.372   3.542
  274  SOL   OW  954   0.923   0.018   1.082
  274  SOL  HW1  955   0.852  -0.017   1.135
  274  SOL  HW2  956   0.924   0.112   1.101
  275  SOL   OW  957   0.735   0.172   2.408
  275  SOL  HW1  958   0.792   0.139   2.477
  275  SOL  HW2  959   0.701   0.255   2.443
  276  SOL   OW  960   1.283   1.524   1.441
  276  SOL  HW1  961   1.230   1.602   1.454
  276  SOL  HW2  962   1.273   1.474   1.522
  277  SOL   OW  963   2.540   0.357   1.498
  277  SOL  HW1  964   2.471   0.421   1.515
  277  SOL  HW2  965   2.590   0.353   1.580
  278  SOL   OW  966   0.921   1.119   0.213
  278  SOL  HW1  967   0.873   1.049   0.256
  278  SOL  HW2  968   0.982   1.075   0.154
  279  SOL   OW  969   2.627   0.860   2.589
  279  SOL  HW1  970   2.686   0.785   2.601
  279  SOL  HW2  971   2.539   0.823   2.593
  280  SOL   OW  972   2.173   2.690   3.318
  280  SOL  HW1  973   2.210   2.602   3.318
  280  SOL  HW2  974   2.180   2.719   3.227
  281  SOL   OW  975   3.052   2.680   3.419
  281  SOL  HW1  976   2.957   2.666   3.427
  281  SOL  HW2  977   3.070   2.669   3.326
  282  SOL   OW  978   2.157   0.866   3.271
  282  SOL  HW1  979   2.249   0.854   3.248
  282  SOL  HW2  980   2.131   0.947   3.226
  283  SOL   OW  981   3.484   1.586   3.430
  283  SOL  HW1  982   3.500   1.499   3.395
  283  SOL  HW2  983   3.426   1.571   3.505
  284  SOL   OW  984   3.067   1.836   0.280
  284  SOL  HW1  985   3.007   1.769   0.314
  284  SOL  HW2  986   3.149   1.821   0.327
  285  SOL   OW  987   2.582   1.441   0.198
  285  SOL  HW1  988   2.647   1.506   0.223
  285  SOL  HW2  989   2.566   1.458   0.105
  286  SOL   OW  990   1.469   0.285   0.739
  286  SOL  HW1  991   1.553   0.257   0.702
  286  SOL  HW2  992   1.482   0.378   0.759
  287  SOL   OW  993   0.951   2.223   1.798
  287  SOL  HW1  994   0.866   2.190   1.769
  287  SOL  HW2  995   0.953   2.205   1.892
  288  SOL   OW  996   2.244   1.844   0.595
  288  SOL  HW1  997   2.153   1.821   0.575
  288  SOL  HW2  998   2.245   1.940   0.596
  289  SOL   OW  999   2.989   0.015   2.875
  289  SOL  HW1 1000   2.997   0.102   2.915
  289  SOL  HW2 1001   2.952   0.031   2.789
  290  SOL   OW 1002   2.268   2.277   0.201
  290  SOL  HW1 1003   2.269   2.186   0.228
  290  SOL  HW2 1004   2.356   2.294   0.167
  291  SOL   OW 1005   1.209   2.359   0.554
  291  SOL  HW1 1006   1.292   2.312   0.546
  291  SOL  HW2 1007   1.147   2.294   0.587
  292  SOL   OW 1008   0.786   1.450   3.233
  292  SOL  HW1 1009   0.812   1.465   3.142
  292  SOL  HW2 1010   0.768   1.356   3.238
  293  SOL   OW 1011   1.219   3.047   0.937
  293  SOL  HW1 1012   1.173   3.091   0.866
  293  SOL  HW2 1013   1.149   3.013   0.993
  294  SOL   OW 1014   3.503   0.130   0.095
  294  SOL  HW1 1015   3.415   0.157   0.069
  294  SOL  HW2 1016   3.490   0.054   0.151
  295  SOL   OW 1017   0.599   3.395   2.575
  295  SOL  HW1 1018   0.546   3.317   2.590
  295  SOL  HW2 1019   0.630   3.420   2.662
  296  SOL   OW 1020   1.001   1.386   1.072
  296  SOL  HW1 1021   1.071   1.344   1.120
  296  SOL  HW2 1022   1.041   1.465   1.034
  297  SOL   OW 1023   0.679   2.503   1.312
  297  SOL  HW1 1024   0.628   2.477   1.235
  297  SOL  HW2 1025   0.635   2.582   1.344
  298  SOL   OW 1026   3.042   0.486   0.503
  298  SOL  HW1 1027   3.010   0.416   0.561
  298  SOL  HW2 1028   3.104   0.442   0.445
  299  SOL   OW 1029   2.306   0.504   3.127
  299  SOL  HW1 1030   2.237   0.542   3.182
  299  SOL  HW2 1031   2.374   0.477   3.188
  300  SOL   OW 1032   3.398   0.246   3.360
  300  SOL  HW1 1033   3.344   0.180   3.317
  300  SOL  HW2 1034   3.485   0.206   3.365
  301  SOL   OW 1035   3.304   3.265   0.971
  301  SOL  HW1 1036   3.291   3.172   0.990
  301  SOL  HW2 1037   3.362   3.266   0.895
  302  SOL   OW 1038   2.266   2.430   2.797
  302  SOL  HW1 1039   2.192   2.431   2.737
  302  SOL  HW2 1040   2.316   2.508   2.775
  303  SOL   OW 1041   1.044   1.201   1.585
  303  SOL  HW1 1042   1.051   1.118   1.632
  303  SOL  HW2 1043   1.114   1.198   1.520
  304  SOL   OW 1044   0.921   2.503   1.771
  304  SOL  HW1 1045   0.825   2.504   1.763
  304  SOL  HW2 1046   0.943   2.410   1.777
  305  SOL   OW 1047   1.263   3.228   1.155
  305  SOL  HW1 1048   1.217   3.158   1.109
  305  SOL  HW2 1049   1.324   3.183   1.214
  306  SOL   OW 1050   2.099   0.679   1.553
  306  SOL  HW1 1051   2.084   0.774   1.544
  306  SOL  HW2 1052   2.082   0.661   1.645
  307  SOL   OW 1053   2.319   2.627   0.586
  307  SOL  HW1 1054   2.349   2.660   0.501
  307  SOL  HW2 1055   2.237   2.583   0.567
  308  SOL   OW 1056   0.263   1.966   2.484
  308  SOL  HW1 1057   0.304   1.898   2.431
  308  SOL  HW2 1058   0.185   1.991   2.434
  309  SOL   OW 1059   2.301   0.944   1.883
  309  SOL  HW1 1060   2.352   0.970   1.806
  309  SOL  HW2 1061   2.241   0.877   1.850
  310  SOL   OW 1062   0.395   2.378   0.331
  310  SOL  HW1 1063   0.473   2.350   0.284
  310  SOL  HW2 1064   0.374   2.463   0.293
  311  SOL   OW 1065   2.202   2.882   0.773
  311  SOL  HW1 1066   2.134   2.846   0.716
  311  SOL  HW2 1067   2.265   2.921   0.712
  312  SOL   OW 1068   0.911   0.542   0.839
  312  SOL  HW1 1069   0.848   0.536   0.768
  312  SOL  HW2 1070   0.893   0.627   0.880
  313  SOL   OW 1071   0.184   0.731   3.012
  313  SOL  HW1 1072   0.250   0.793   3.042
  313  SOL  HW2 1073   0.174   0.749   2.918
  314  SOL   OW 1074   3.114   3.032   2.504
  314  SOL  HW1 1075   3.067   2.980   2.439
  314  SOL  HW2 1076   3.184   3.075   2.454
  315  SOL   OW 1077   2.303   1.719   3.420
  315  SOL  HW1 1078   2.315   1.808   3.452
  315  SOL  HW2 1079   2.212   1.715   3.390
  316  SOL   OW 1080   2.687   2.286   0.190
  316  SOL  HW1 1081   2.659   2.369   0.230
  316  SOL  HW2 1082   2.761   2.257   0.243
  317  SOL   OW 1083   1.747   0.608   2.435
  317  SOL  HW1 1084   1.839   0.617   2.460
  317  SOL  HW2 1085   1.703   0.683   2.474
  318  SOL   OW 1086   2.405   1.402   0.410
  318  SOL  HW1 1087   2.481   1.419   0.354
  318  SOL  HW2 1088   2.382   1.310   0.392
  319  SOL   OW 1089   2.470   0.923   0.497
  319  SOL  HW1 1090   2.561   0.937   0.470
  319  SOL  HW2 1091   2.474   0.922   0.593
  320  SOL   OW 1092   0.429   1.411   0.811
  320  SOL  HW1 1093   0.453   1.340   0.751
  320  SOL  HW2 1094   0.479   1.392   0.891
  321  SOL   OW 1095   2.361   2.589   0.840
  321  SOL  HW1 1096   2.344   2.622   0.752
  321  SOL  HW2 1097   2.309   2.646   0.898
  322  SOL   OW 1098   2.697   0.576   1.130
  322  SOL  HW1 1099   2.692   0.657   1.081
  322  SOL  HW2 1100   2.667   0.509   1.068
  323  SOL   OW 1101   0.207   0.085   2.252
  323  SOL  HW1 1102   0.281   0.050   2.301
  323  SOL  HW2 1103   0.247   0.130   2.177
  324  SOL   OW 1104   3.284   2.570   1.717
  324  SOL  HW1 1105   3.210   2.631   1.717
  324  SOL  HW2 1106   3.252   2.493   1.764
  325  SOL   OW 1107   3.183   0.229   0.823
  325  SOL  HW1 1108   3.255   0.286   0.848
  325  SOL  HW2 1109   3.210   0.190   0.740
  326  SOL   OW 1110   2.241   0.385   3.481
  326  SOL  HW1 1111   2.198   0.455   3.431
  326  SOL  HW2 1112   2.170   0.337   3.521
  327  SOL   OW 1113   0.348   0.383   3.438
  327  SOL  HW1 1114   0.302   0.314   3.390
  327  SOL  HW2 1115   0.291   0.402   3.513
  328  SOL   OW 1116   0.536   0.627   1.598
  328  SOL  HW1 1117   0.577   0.651   1.515
  328  SOL  HW2 1118   0.451   0.591   1.574
  329  SOL   OW 1119   2.547   2.002   1.794
  329  SOL  HW1 1120   2.628   1.955   1.780
  329  SOL  HW2 1121   2.548   2.073   1.730
  330  SOL   OW 1122   1.235   2.784   3.203
  330  SOL  HW1 1123   1.215   2.713   3.142
  330  SOL  HW2 1124   1.319   2.759   3.243
  331  SOL   OW 1125   2.054   3.380   1.895
  331  SOL  HW1 1126   2.147   3.395   1.877
  331  SOL  HW2 1127   2.022   3.332   1.818
  332  SOL   OW 1128   1.676   0.024   1.256
  332  SOL  HW1 1129   1.688  -0.017   1.171
  332  SOL  HW2 1130   1.672   0.118   1.237
  333  SOL   OW 1131   0.664   2.592   0.516
  333  SOL  HW1 1132   0.657   2.502   0.546
  333  SOL  HW2 1133   0.758   2.612   0.522
  334  SOL   OW 1134   1.630   1.607   2.185
  334  SOL  HW1 1135   1.581   1.526   2.197
  334  SOL  HW2 1136   1.706   1.599   2.244
  335  SOL   OW 1137   2.313   3.357   1.905
  335  SOL  HW1 1138   2.337   3.445   1.874
  335  SOL  HW2 1139   2.393   3.306   1.898
  336  SOL   OW 1140   1.496   3.376   1.008
  336  SOL  HW1 1141   1.467   3.362   1.099
  336  SOL  HW2 1142   1.459   3.460   0.984
  337  SOL   OW 1143   1.645   2.240   1.013
  337  SOL  HW1 1144   1.565   2.207   0.973
  337  SOL  HW2 1145   1.624   2.247   1.106
  338  SOL   OW 1146   0.739   0.550   0.573
  338  SOL  HW1 1147   0.804   0.620   0.579
  338  SOL  HW2 1148   0.716   0.547   0.480
  339  SOL   OW 1149   1.055   0.436   0.583
  339  SOL  HW1 1150   1.034   0.386   0.505
  339  SOL  HW2 1151   1.067   0.371   0.652
  340  SOL   OW 1152   2.689   1.932   0.669
  340  SOL  HW1 1153   2.669   1.924   0.575
  340  SOL  HW2 1154   2.686   2.026   0.686
  341  SOL   OW 1155   0.507   3.417   2.168
  341  SOL  HW1 1156   0.533   3.329   2.143
  341  SOL  HW2 1157   0.512   3.467   2.086
  342  SOL   OW 1158   1.202   3.499   1.124
  342  SOL  HW1 1159   1.108   3.518   1.124
  342  SOL  HW2 1160   1.208   3.406   1.147
  343  SOL   OW 1161   1.615   2.556   2.391
  343  SOL  HW1 1162   1.599   2.539   2.298
  343  SOL  HW2 1163   1.594   2.648   2.403
  344  SOL   OW 1164   2.332   0.970   2.936
  344  SOL  HW1 1165   2.277   0.899   2.902
  344  SOL  HW2 1166   2.414   0.927   2.962
  345  SOL   OW 1167   1.676   1.619   0.348
  345  SOL  HW1 1168   1.674   1.686   0.416
  345  SOL  HW2 1169   1.618   1.550   0.380
  346  SOL   OW 1170   0.255   2.444   1.960
  346  SOL  HW1 1171   0.180   2.484   1.915
  346  SOL  HW2 1172   0.317   2.516   1.972
  347  SOL   OW 1173   0.454   0.307   1.809
  347  SOL  HW1 1174   0.509   0.386   1.814
  347  SOL  HW2 1175   0.464   0.276   1.719
  348  SOL   OW 1176   0.240   0.575   0.945
  348  SOL  HW1 1177   0.200   0.592   0.859
  348  SOL  HW2 1178   0.167   0.578   1.006
  349  SOL   OW 1179   0.153   2.143   1.254
  349  SOL  HW1 1180   0.086   2.078   1.274
  349  SOL  HW2 1181   0.115   2.195   1.183
  350  SOL   OW 1182   1.861   1.800   0.872
  350  SOL  HW1 1183   1.826   1.716   0.903
  350  SOL  HW2 1184   1.842   1.861   0.944
  351  SOL   OW 1185   2.589   1.014   1.920
  351  SOL  HW1 1186   2.510   0.972   1.887
  351  SOL  HW2 1187   2.558   1.085   1.976
  352  SOL   OW 1188   2.963   2.055   2.934
  352  SOL  HW1 1189   2.926   2.114   2.869
  352  SOL  HW2 1190   2.894   2.045   2.999
  353  SOL   OW 1191   2.400   3.367   2.417
  353  SOL  HW1 1192   2.446   3.449   2.397
  353  SOL  HW2 1193   2.347   3.349   2.339
  354  SOL   OW 1194   0.023   1.889   2.321
  354  SOL  HW1 1195   0.081   1.820   2.289
  354  SOL  HW2 1196  -0.008   1.933   2.242
  355  SOL   OW 1197   1.238   1.916   1.800
  355  SOL  HW1 1198   1.149   1.933   1.771
  355  SOL  HW2 1199   1.294   1.956   1.734
  356  SOL   OW 1200   1.767   1.729   2.801
  356  SOL  HW1 1201   1.716   1.811   2.807
  356  SOL  HW2 1202   1.760   1.690   2.888
  357  SOL   OW 1203   3.366   3.366   0.677
  357  SOL  HW1 1204   3.436   3.300   0.678
  357  SOL  HW2 1205   3.305   3.334   0.610
  358  SOL   OW 1206   2.733   2.429   1.443
  358  SOL  HW1 1207   2.741   2.339   1.477
  358  SOL  HW2 1208   2.776   2.426   1.357
  359  SOL   OW 1209   2.233   3.268   1.390
  359  SOL  HW1 1210   2.222   3.174   1.373
  359  SOL  HW2 1211   2.320   3.274   1.430
  360  SOL   OW 1212   3.081   0.871   2.038
  360  SOL  HW1 1213   3.156   0.929   2.043
  360  SOL  HW2 1214   3.109   0.792   2.084
  361  SOL   OW 1215   0.299   1.836   0.960
  361  SOL  HW1 1216   0.273   1.753   0.998
  361  SOL  HW2 1217   0.371   1.814   0.901
  362  SOL   OW 1218   2.831   0.488   3.409
  362  SOL  HW1 1219   2.893   0.417   3.425
  362  SOL  HW2 1220   2.881   0.568   3.425
  363  SOL   OW 1221   0.539   2.106   0.723
  363  SOL  HW1 1222   0.577   2.061   0.647
  363  SOL  HW2 1223   0.586   2.070   0.798
  364  SOL   OW 1224   0.647   0.678   1.323
  364  SOL  HW1 1225   0.724   0.713   1.279
  364  SOL  HW2 1226   0.591   0.647   1.253
  365  SOL   OW 1227   1.131   2.957   1.868
  365  SOL  HW1 1228   1.144   2.875   1.917
  365  SOL  HW2 1229   1.087   3.015   1.929
  366  SOL   OW 1230   3.230   2.212   0.728
  366  SOL  HW1 1231   3.199   2.244   0.813
  366  SOL  HW2 1232   3.278   2.132   0.748
  367  SOL   OW 1233   1.612   0.825   2.534
  367  SOL  HW1 1234   1.520   0.812   2.556
  367  SOL  HW2 1235   1.653   0.849   2.617
  368  SOL   OW 1236   2.091   3.170   3.521
  368  SOL  HW1 1237   2.060   3.175   3.430
  368  SOL  HW2 1238   2.058   3.249   3.562
  369  SOL   OW 1239   2.588   0.591   3.321
  369  SOL  HW1 1240   2.568   0.599   3.414
  369  SOL  HW2 1241   2.670   0.541   3.319
  370  SOL   OW 1242   1.313   0.929   0.342
  370  SOL  HW1 1243   1.344   0.840   0.326
  370  SOL  HW2 1244   1.268   0.924   0.427
  371  SOL   OW 1245   0.112   2.951   0.143
  371  SOL  HW1 1246   0.187   2.947   0.203
  371  SOL  HW2 1247   0.131   2.884   0.077
  372  SOL   OW 1248   0.957   0.796   1.372
  372  SOL  HW1 1249   0.880   0.839   1.409
  372  SOL  HW2 1250   1.012   0.775   1.448
  373  SOL   OW 1251   0.657   1.177   3.261
  373  SOL  HW1 1252   0.670   1.124   3.340
  373  SOL  HW2 1253   0.655   1.114   3.189
  374  SOL   OW 1254   2.036   0.252   0.643
  374  SOL  HW1 1255   2.013   0.162   0.666
  374  SOL  HW2 1256   2.118   0.269   0.690
  375  SOL   OW 1257   1.175   3.129   3.161
  375  SOL  HW1 1258   1.097   3.137   3.216
  375  SOL  HW2 1259   1.248   3.133   3.223
  376  SOL   OW 1260   1.310   1.905   0.692
  376  SOL  HW1 1261   1.251   1.965   0.647
  376  SOL  HW2 1262   1.299   1.822   0.645
  377  SOL   OW 1263   1.798   1.432   1.933
  377  SOL  HW1 1264   1.711   1.468   1.915
  377  SOL  HW2 1265   1.785   1.337   1.936
  378  SOL   OW 1266   3.343   0.509   0.027
  378  SOL  HW1 1267   3.427   0.542  -0.005
  378  SOL  HW2 1268   3.334   0.422  -0.012
  379  SOL   OW 1269   3.048   3.324   0.842
  379  SOL  HW1 1270   3.135   3.353   0.816
  379  SOL  HW2 1271   2.994   3.403   0.836
  380  SOL   OW 1272   2.938   2.293   3.497
  380  SOL  HW1 1273   2.978   2.224   3.445
  380  SOL  HW2 1274   2.924   2.254   3.583
  381  SOL   OW 1275   3.220   1.384   0.753
  381  SOL  HW1 1276   3.214   1.344   0.666
  381  SOL  HW2 1277   3.258   1.316   0.808
  382  SOL   OW 1278   2.310   1.301   1.811
  382  SOL  HW1 1279   2.365   1.377   1.829
  382  SOL  HW2 1280   2.291   1.264   1.897
  383  SOL   OW 1281   0.644   0.413   2.514
  383  SOL  HW1 1282   0.614   0.389   2.602
  383  SOL  HW2 1283   0.583   0.480   2.485
  384  SOL   OW 1284   1.798   0.123   2.206
  384  SOL  HW1 1285   1.728   0.119   2.141
  384  SOL  HW2 1286   1.808   0.217   2.224
  385  SOL   OW 1287   1.230   2.935   2.654
  385  SOL  HW1 1288   1.191   2.951   2.740
  385  SOL  HW2 1289   1.204   2.846   2.632
  386  SOL   OW 1290   2.284   0.188   1.330
  386  SOL  HW1 1291   2.297   0.102   1.288
  386  SOL  HW2 1292   2.318   0.177   1.418
  387  SOL   OW 1293   1.717   2.480   2.679
  387  SOL  HW1 1294   1.668   2.518   2.751
  387  SOL  HW2 1295   1.737   2.554   2.622
  388  SOL   OW 1296   2.025   2.282   2.401
  388  SOL  HW1 1297   2.044   2.189   2.397
  388  SOL  HW2 1298   1.945   2.293   2.348
  389  SOL   OW 1299   0.758   1.064   2.848
  389  SOL  HW1 1300   0.723   0.975   2.839
  389  SOL  HW2 1301   0.812   1.060   2.926
  390  SOL   OW 1302   2.298   2.134   0.661
  390  SOL  HW1 1303   2.277   2.200   0.595
  390  SOL  HW2 1304   2.240   2.155   0.734
  391  SOL   OW 1305   1.761   1.601   0.994
  391  SOL  HW1 1306   1.757   1.558   1.079
  391  SOL  HW2 1307   1.669   1.613   0.970
  392  SOL   OW 1308   1.530   2.031   0.165
  392  SOL  HW1 1309   1.441   2.059   0.185
  392  SOL  HW2 1310   1.573   2.024   0.250
  393  SOL   OW 1311   0.908   1.467   0.380
  393  SOL  HW1 1312   0.926   1.545   0.328
  393  SOL  HW2 1313   0.847   1.416   0.327
  394  SOL   OW 1314   0.073   0.471   3.079
  394  SOL  HW1 1315   0.141   0.534   3.054
  394  SOL  HW2 1316   0.121   0.395   3.111
  395  SOL   OW 1317   2.261   1.133   0.202
  395  SOL  HW1 1318   2.195   1.202   0.198
  395  SOL  HW2 1319   2.244   1.077   0.127
  396  SOL   OW 1320   1.610   1.192   2.480
  396  SOL  HW1 1321   1.660   1.186   2.399
  396  SOL  HW2 1322   1.591   1.286   2.489
  397  SOL   OW 1323   1.921   1.975   3.435
  397  SOL  HW1 1324   1.978   1.958   3.511
  397  SOL  HW2 1325   1.942   1.905   3.373
  398  SOL   OW 1326   0.294   1.571   2.409
  398  SOL  HW1 1327   0.333   1.646   2.365
  398  SOL  HW2 1328   0.303   1.499   2.347
  399  SOL   OW 1329   1.986   1.284   0.425
  399  SOL  HW1 1330   2.067   1.241   0.453
  399  SOL  HW2 1331   1.985   1.367   0.474
  400  SOL   OW 1332   1.246   0.798   1.059
  400  SOL  HW1 1333   1.219   0.708   1.075
  400  SOL  HW2 1334   1.169   0.850   1.083
  401  SOL   OW 1335   0.385   3.439   1.761
  401  SOL  HW1 1336   0.325   3.479   1.824
  401  SOL  HW2 1337   0.334   3.433   1.680
  402  SOL   OW 1338   0.498   1.530   3.066
  402  SOL  HW1 1339   0.480   1.496   2.979
  402  SOL  HW2 1340   0.577   1.485   3.095
  403  SOL   OW 1341   2.011   2.811   1.210
  403  SOL  HW1 1342   2.018   2.866   1.287
  403  SOL  HW2 1343   1.982   2.726   1.243
  404  SOL   OW 1344   0.432   2.204   2.920
  404  SOL  HW1 1345   0.521   2.179   2.895
  404  SOL  HW2 1346   0.414   2.152   2.999
  405  SOL   OW 1347   0.762   1.213   1.451
  405  SOL  HW1 1348   0.853   1.213   1.481
  405  SOL  HW2 1349   0.712   1.248   1.525
  406  SOL   OW 1350   2.402   0.788   1.118
  406  SOL  HW1 1351   2.445   0.810   1.200
  406  SOL  HW2 1352   2.364   0.870   1.088
  407  SOL   OW 1353   2.479   1.409   3.456
  407  SOL  HW1 1354   2.467   1.319   3.426
  407  SOL  HW2 1355   2.429   1.462   3.392
  408  SOL   OW 1356   1.084   0.403   2.105
  408  SOL  HW1 1357   1.103   0.332   2.166
  408  SOL  HW2 1358   0.997   0.383   2.072
  409  SOL   OW 1359   1.442   0.183   0.352
  409  SOL  HW1 1360   1.431   0.192   0.447
  409  SOL  HW2 1361   1.486   0.100   0.341
  410  SOL   OW 1362   0.585   2.283   2.690
  410  SOL  HW1 1363   0.661   2.250   2.737
  410  SOL  HW2 1364   0.586   2.236   2.606
  411  SOL   OW 1365   0.080   1.804   1.288
  411  SOL  HW1 1366   0.001   1.790   1.236
  411  SOL  HW2 1367   0.054   1.870   1.353
  412  SOL   OW 1368   3.428   2.674   3.076
  412  SOL  HW1 1369   3.461   2.702   2.990
  412  SOL  HW2 1370   3.388   2.753   3.113
  413  SOL   OW 1371   0.313   3.282   0.668
  413  SOL  HW1 1372   0.288   3.333   0.591
  413  SOL  HW2 1373   0.263   3.320   0.740
  414  SOL   OW 1374   0.749   1.287   1.714
  414  SOL  HW1 1375   0.810   1.361   1.719
  414  SOL  HW2 1376   0.781   1.225   1.779
  415  SOL   OW 1377   3.249   0.214   2.135
  415  SOL  HW1 1378   3.295   0.210   2.052
  415  SOL  HW2 1379   3.318   0.216   2.201
  416  SOL   OW 1380   2.732   1.602   2.960
  416  SOL  HW1 1381   2.662   1.539   2.979
  416  SOL  HW2 1382   2.780   1.609   3.042
  417  SOL   OW 1383   0.654   0.178   2.735
  417  SOL  HW1 1384   0.729   0.134   2.697
  417  SOL  HW2 1385   0.688   0.221   2.814
  418  SOL   OW 1386   0.905   0.519   1.541
  418  SOL  HW1 1387   0.825   0.568   1.561
  418  SOL  HW2 1388   0.930   0.548   1.453
  419  SOL   OW 1389   0.433   0.414   2.888
  419  SOL  HW1 1390   0.365   0.402   2.821
  419  SOL  HW2 1391   0.431   0.507   2.907
  420  SOL   OW 1392   1.897   0.600   3.433
  420  SOL  HW1 1393   1.820   0.654   3.418
  420  SOL  HW2 1394   1.882   0.522   3.380
  421  SOL   OW 1395   0.815   0.282   0.157
  421  SOL  HW1 1396   0.733   0.315   0.122
  421  SOL  HW2 1397   0.814   0.188   0.139
  422  SOL   OW 1398   0.975   0.315   1.704
  422  SOL  HW1 1399   0.931   0.372   1.641
  422  SOL  HW2 1400   0.907   0.292   1.767
  423  SOL   OW 1401   0.813   2.806   3.007
  423  SOL  HW1 1402   0.852   2.888   3.038
  423  SOL  HW2 1403   0.797   2.821   2.914
  424  SOL   OW 1404   3.364   2.061   3.018
  424  SOL  HW1 1405   3.450   2.029   3.047
  424  SOL  HW2 1406   3.352   2.022   2.932
  425  SOL   OW 1407   2.459   2.304   2.963
  425  SOL  HW1 1408   2.457   2.229   2.904
  425  SOL  HW2 1409   2.404   2.370   2.921
  426  SOL   OW 1410   2.500   2.528   0.004
  426  SOL  HW1 1411   2.413   2.525  -0.035
  426  SOL  HW2 1412   2.504   2.614   0.046
  427  SOL   OW 1413   3.330   0.746   1.482
  427  SOL  HW1 1414   3.249   0.784   1.516
  427  SOL  HW2 1415   3.323   0.653   1.501
  428  SOL   OW 1416   3.238   3.269   0.430
  428  SOL  HW1 1417   3.151   3.287   0.395
  428  SOL  HW2 1418   3.275   3.205   0.370
  429  SOL   OW 1419   1.061   0.389   0.159
  429  SOL  HW1 1420   0.976   0.346   0.151
  429  SOL  HW2 1421   1.040   0.479   0.186
  430  SOL   OW 1422   3.293   0.194   1.220
  430  SOL  HW1 1423   3.235   0.267   1.200
  430  SOL  HW2 1424   3.258   0.121   1.168
  431  SOL   OW 1425   1.530   3.026   0.981
  431  SOL  HW1 1426   1.445   3.067   0.968
  431  SOL  HW2 1427   1.512   2.947   1.032
  432  SOL   OW 1428   2.405   2.949   2.674
  432  SOL  HW1 1429   2.447   3.002   2.741
  432  SOL  HW2 1430   2.322   2.994   2.655
  433  SOL   OW 1431   1.739   3.353   3.266
  433  SOL  HW1 1432   1.813   3.408   3.239
  433  SOL  HW2 1433   1.772   3.303   3.340
  434  SOL   OW 1434   0.453   1.074   2.156
  434  SOL  HW1 1435   0.363   1.094   2.127
  434  SOL  HW2 1436   0.493   1.160   2.169
  435  SOL   OW 1437  -0.004   2.385   0.791
  435  SOL  HW1 1438   0.029   2.295   0.797
  435  SOL  HW2 1439  -0.003   2.405   0.698
  436  SOL   OW 1440   2.567   3.077   0.377
  436  SOL  HW1 1441   2.519   3.016   0.433
  436  SOL  HW2 1442   2.571   3.034   0.292
  437  SOL   OW 1443   3.364   0.911   0.464
  437  SOL  HW1 1444   3.386   1.001   0.490
  437  SOL  HW2 1445   3.316   0.876   0.539
  438  SOL   OW 1446   2.346   1.498   1.583
  438  SOL  HW1 1447   2.439   1.474   1.588
  438  SOL  HW2 1448   2.330   1.546   1.665
  439  SOL   OW 1449   1.116   1.416   3.183
  439  SOL  HW1 1450   1.096   1.491   3.239
  439  SOL  HW2 1451   1.182   1.367   3.231
  440  SOL   OW 1452   2.817   2.724   1.124
  440  SOL  HW1 1453   2.909   2.721   1.148
  440  SOL  HW2 1454   2.816   2.714   1.029
  441  SOL   OW 1455   1.848   2.204   2.592
  441  SOL  HW1 1456   1.879   2.242   2.510
  441  SOL  HW2 1457   1.857   2.275   2.656
  442  SOL   OW 1458   0.981   2.584   3.223
  442  SOL  HW1 1459   0.963   2.510   3.166
  442  SOL  HW2 1460   1.058   2.559   3.274
  443  SOL   OW 1461   0.211   1.047   0.632
  443  SOL  HW1 1462   0.121   1.068   0.608
  443  SOL  HW2 1463   0.202   0.988   0.707
  444  SOL   OW 1464   1.187   0.884   0.619
  444  SOL  HW1 1465   1.226   0.809   0.665
  444  SOL  HW2 1466   1.212   0.960   0.672
  445  SOL   OW 1467   1.782   3.305   0.049
  445  SOL  HW1 1468   1.865   3.329   0.089
  445  SOL  HW2 1469   1.729   3.384   0.055
  446  SOL   OW 1470   2.168   1.901   1.162
  446  SOL  HW1 1471   2.186   1.846   1.238
  446  SOL  HW2 1472   2.175   1.842   1.087
  447  SOL   OW 1473   2.739   3.163   1.519
  447  SOL  HW1 1474   2.829   3.194   1.511
  447  SOL  HW2 1475   2.742   3.072   1.488
  448  SOL   OW 1476   3.481   2.357   3.010
  448  SOL  HW1 1477   3.485   2.261   3.008
  448  SOL  HW2 1478   3.419   2.379   2.940
  449  SOL   OW 1479   0.996   3.144   0.736
  449  SOL  HW1 1480   0.937   3.217   0.719
  449  SOL  HW2 1481   1.080   3.172   0.700
  450  SOL   OW 1482   2.662   0.394   0.448
  450  SOL  HW1 1483   2.609   0.469   0.473
  450  SOL  HW2 1484   2.718   0.427   0.377
  451  SOL   OW 1485   0.288   2.234   2.642
  451  SOL  HW1 1486   0.255   2.144   2.636
  451  SOL  HW2 1487   0.371   2.226   2.689
  452  SOL   OW 1488   1.416   2.183   0.589
  452  SOL  HW1 1489   1.416   2.095   0.552
  452  SOL  HW2 1490   1.403   2.170   0.683
  453  SOL   OW 1491   3.330   2.044   0.337
  453  SOL  HW1 1492   3.339   2.125   0.388
  453  SOL  HW2 1493   3.420   2.020   0.315
  454  SOL   OW 1494   1.310   3.406   2.493
  454  SOL  HW1 1495   1.311   3.314   2.466
  454  SOL  HW2 1496   1.380   3.446   2.442
  455  SOL   OW 1497   0.332   1.486   2.051
  455  SOL  HW1 1498   0.369   1.570   2.077
  455  SOL  HW2 1499   0.408   1.432   2.030
  456  SOL   OW 1500   0.761   3.090   2.528
  456  SOL  HW1 1501   0.678   3.138   2.533
  456  SOL  HW2 1502   0.814   3.139   2.466
  457  SOL   OW 1503   3.044   1.515   0.053
  457  SOL  HW1 1504   3.064   1.474  -0.031
  457  SOL  HW2 1505   2.948   1.517   0.056
  458  SOL   OW 1506   1.117   2.934   2.903
  458  SOL  HW1 1507   1.152   2.918   2.991
  458  SOL  HW2 1508   1.043   2.993   2.916
  459  SOL   OW 1509   0.586   0.932   0.588
  459  SOL  HW1 1510   0.613   0.967   0.503
  459  SOL  HW2 1511   0.616   0.998   0.651
  460  SOL   OW 1512   0.721   3.388   2.812
  460  SOL  HW1 1513   0.676   3.307   2.835
  460  SOL  HW2 1514   0.801   3.386   2.864
  461  SOL   OW 1515   2.432   0.958   0.770
  461  SOL  HW1 1516   2.398   0.972   0.859
  461  SOL  HW2 1517   2.378   0.887   0.735
  462  SOL   OW 1518   0.937   1.849   3.043
  462  SOL  HW1 1519   0.980   1.917   2.991
  462  SOL  HW2 1520   0.923   1.890   3.129
  463  SOL   OW 1521   1.291   1.093   2.202
  463  SOL  HW1 1522   1.303   1.059   2.291
  463  SOL  HW2 1523   1.207   1.140   2.206
  464  SOL   OW 1524   0.173   2.592   2.806
  464  SOL  HW1 1525   0.178   2.661   2.872
  464  SOL  HW2 1526   0.257   2.548   2.811
  465  SOL   OW 1527   2.646   2.781   1.812
  465  SOL  HW1 1528   2.699   2.849   1.770
  465  SOL  HW2 1529   2.707   2.707   1.823
  466  SOL   OW 1530   0.202   0.608   1.814
  466  SOL  HW1 1531   0.200   0.703   1.815
  466  SOL  HW2 1532   0.205   0.585   1.721
  467  SOL   OW 1533   1.928   1.615   2.075
  467  SOL  HW1 1534   1.881   1.552   2.020
  467  SOL  HW2 1535   1.932   1.573   2.161
  468  SOL   OW 1536   3.024   1.520   0.362
  468  SOL  HW1 1537   2.963   1.461   0.406
  468  SOL  HW2 1538   3.048   1.474   0.282
  469  SOL   OW 1539   3.105   2.885   0.672
  469  SOL  HW1 1540   3.192   2.866   0.637
  469  SOL  HW2 1541   3.079   2.805   0.717
  470  SOL   OW 1542   0.372   3.514   3.386
  470  SOL  HW1 1543   0.349   3.448   3.320
  470  SOL  HW2 1544   0.443   3.474   3.436
  471  SOL   OW 1545   0.524   2.541   2.062
  471  SOL  HW1 1546   0.590   2.472   2.067
  471  SOL  HW2 1547   0.470   2.528   2.140
  472  SOL   OW 1548   0.505   0.672   0.103
  472  SOL  HW1 1549   0.544   0.736   0.164
  472  SOL  HW2 1550   0.484   0.597   0.159
  473  SOL   OW 1551   1.920   0.163   1.070
  473  SOL  HW1 1552   1.832   0.197   1.054
  473  SOL  HW2 1553   1.910   0.101   1.142
  474  SOL   OW 1554   1.341   1.695   2.056
  474  SOL  HW1 1555   1.393   1.678   2.135
  474  SOL  HW2 1556   1.313   1.786   2.066
  475  SOL   OW 1557   0.576   0.353   0.086
  475  SOL  HW1 1558   0.552   0.398   0.167
  475  SOL  HW2 1559   0.510   0.380   0.022
  476  SOL   OW 1560   2.075   0.360   1.501
  476  SOL  HW1 1561   2.109   0.325   1.419
  476  SOL  HW2 1562   2.118   0.445   1.511
  477  SOL   OW 1563   1.713   1.190   0.430
  477  SOL  HW1 1564   1.687   1.098   0.432
  477  SOL  HW2 1565   1.769   1.198   0.353
  478  SOL   OW 1566   3.179   3.259   2.000
  478  SOL  HW1 1567   3.116   3.195   1.966
  478  SOL  HW2 1568   3.198   3.315   1.924
  479  SOL   OW 1569   1.947   3.495   3.199
  479  SOL  HW1 1570   2.026   3.521   3.247
  479  SOL  HW2 1571   1.966   3.517   3.108
  480  SOL   OW 1572   3.163   2.592   1.406
  480  SOL  HW1 1573   3.173   2.682   1.438
  480  SOL  HW2 1574   3.099   2.553   1.466
  481  SOL   OW 1575   1.652   3.093   2.662
  481  SOL  HW1 1576   1.686   3.030   2.725
  481  SOL  HW2 1577   1.729   3.143   2.633
  482  SOL   OW 1578   2.794   2.233   2.106
  482  SOL  HW1 1579   2.700   2.216   2.119
  482  SOL  HW2 1580   2.797   2.300   2.038
  483  SOL   OW 1581   3.516   1.847   3.407
  483  SOL  HW1 1582   3.429   1.866   3.440
  483  SOL  HW2 1583   3.520   1.752   3.403
  484  SOL   OW 1584   1.114   1.187   0.430
  484  SOL  HW1 1585   1.052   1.186   0.503
  484  SOL  HW2 1586   1.096   1.106   0.382
  485  SOL   OW 1587   0.323   1.938   3.305
  485  SOL  HW1 1588   0.408   1.898   3.321
  485  SOL  HW2 1589   0.284   1.946   3.392
  486  SOL   OW 1590   0.395   2.010   0.293
  486  SOL  HW1 1591   0.352   2.059   0.223
  486  SOL  HW2 1592   0.330   2.008   0.363
  487  SOL   OW 1593   3.511   0.715   2.066
  487  SOL  HW1 1594   3.461   0.664   2.002
  487  SOL  HW2 1595   3.449   0.732   2.137
  488  SOL   OW 1596   3.319   2.286   0.470
  488  SOL  HW1 1597   3.250   2.352   0.458
  488  SOL  HW2 1598   3.327   2.277   0.565
  489  SOL   OW 1599   1.012   0.985   1.769
  489  SOL  HW1 1600   0.979   1.036   1.843
  489  SOL  HW2 1601   1.004   0.894   1.797
  490  SOL   OW 1602   2.781   2.884   1.596
  490  SOL  HW1 1603   2.874   2.872   1.614
  490  SOL  HW2 1604   2.760   2.815   1.533
  491  SOL   OW 1605   2.047   1.500   1.096
  491  SOL  HW1 1606   2.117   1.563   1.111
  491  SOL  HW2 1607   2.047   1.486   1.001
  492  SOL   OW 1608   1.839   0.525   2.746
  492  SOL  HW1 1609   1.836   0.619   2.731
  492  SOL  HW2 1610   1.759   0.506   2.794
  493  SOL   OW 1611   2.099   3.435   2.970
  493  SOL  HW1 1612   2.080   3.358   2.916
  493  SOL  HW2 1613   2.138   3.399   3.050
  494  SOL   OW 1614   3.337   1.278   1.102
  494  SOL  HW1 1615   3.245   1.282   1.127
  494  SOL  HW2 1616   3.385   1.278   1.185
  495  SOL   OW 1617   3.314   2.389   2.794
  495  SOL  HW1 1618   3.248   2.459   2.789
  495  SOL  HW2 1619   3.388   2.422   2.743
  496  SOL   OW 1620   1.199   0.744   2.909
  496  SOL  HW1 1621   1.257   0.813   2.942
  496  SOL  HW2 1622   1.223   0.667   2.960
  497  SOL   OW 1623   1.467   3.421   2.995
  497  SOL  HW1 1624   1.431   3.364   2.927
  497  SOL  HW2 1625   1.493   3.362   3.065
  498  SOL   OW 1626   2.922   1.104   2.110
  498  SOL  HW1 1627   2.993   1.065   2.160
  498  SOL  HW2 1628   2.876   1.030   2.071
  499  SOL   OW 1629   2.153   1.249   1.238
  499  SOL  HW1 1630   2.149   1.231   1.144
  499  SOL  HW2 1631   2.104   1.177   1.278
  500  SOL   OW 1632   1.339   3.377   1.930
  500  SOL  HW1 1633   1.318   3.385   2.023
  500  SOL  HW2 1634   1.295   3.297   1.902
  501  SOL   OW 1635   2.395   0.348   2.911
  501  SOL  HW1 1636   2.352   0.390   2.985
  501  SOL  HW2 1637   2.485   0.332   2.942
  502  SOL   OW 1638   1.264   1.088   0.874
  502  SOL  HW1 1639   1.236   1.179   0.868
  502  SOL  HW2 1640   1.289   1.076   0.966
  503  SOL   OW 1641   0.692   0.385   2.937
  503  SOL  HW1 1642   0.624   0.385   2.871
  503  SOL  HW2 1643   0.679   0.466   2.986
  504  SOL   OW 1644   3.255   2.498   0.895
  504  SOL  HW1 1645   3.346   2.470   0.884
  504  SOL  HW2 1646   3.206   2.416   0.898
  505  SOL   OW 1647   0.881   1.656   0.770
  505  SOL  HW1 1648   0.789   1.667   0.795
  505  SOL  HW2 1649   0.883   1.571   0.726
  506  SOL   OW 1650   1.202   1.250   1.199
  506  SOL  HW1 1651   1.164   1.174   1.243
  506  SOL  HW2 1652   1.297   1.238   1.208
  507  SOL   OW 1653   3.075   0.926   2.443
  507  SOL  HW1 1654   3.023   0.872   2.384
  507  SOL  HW2 1655   3.014   0.954   2.510
  508  SOL   OW 1656   1.686   0.033   0.082
  508  SOL  HW1 1657   1.682   0.039   0.178
  508  SOL  HW2 1658   1.746   0.103   0.056
  509  SOL   OW 1659   1.044   1.576   2.288
  509  SOL  HW1 1660   1.014   1.662   2.257
  509  SOL  HW2 1661   0.999   1.564   2.372
  510  SOL   OW 1662   2.958   1.110   0.970
  510  SOL  HW1 1663   3.000   1.035   1.012
  510  SOL  HW2 1664   2.995   1.186   1.015
  511  SOL   OW 1665   0.003   3.455   2.897
  511  SOL  HW1 1666   0.054   3.415   2.826
  511  SOL  HW2 1667  -0.019   3.381   2.955
  512  SOL   OW 1668   0.509   0.373   2.125
  512  SOL  HW1 1669   0.496   0.466   2.110
  512  SOL  HW2 1670   0.483   0.360   2.216
  513  SOL   OW 1671   0.223   0.952   2.834
  513  SOL  HW1 1672   0.277   0.927   2.758
  513  SOL  HW2 1673   0.271   1.024   2.874
  514  SOL   OW 1674   0.578   3.341   3.136
  514  SOL  HW1 1675   0.519   3.413   3.115
  514  SOL  HW2 1676   0.541   3.265   3.089
  515  SOL   OW 1677   3.127   0.514   2.854
  515  SOL  HW1 1678   3.146   0.547   2.766
  515  SOL  HW2 1679   3.076   0.584   2.895
  516  SOL   OW 1680   1.172   0.164   0.795
  516  SOL  HW1 1681   1.264   0.181   0.775
  516  SOL  HW2 1682   1.167   0.070   0.811
  517  SOL   OW 1683   0.095   1.911   3.144
  517  SOL  HW1 1684   0.071   1.893   3.235
  517  SOL  HW2 1685   0.188   1.889   3.139
  518  SOL   OW 1686   2.066   0.204   0.105
  518  SOL  HW1 1687   2.105   0.148   0.038
  518  SOL  HW2 1688   1.972   0.204   0.084
  519  SOL   OW 1689   0.662   3.515   1.226
  519  SOL  HW1 1690   0.624   3.490   1.310
  519  SOL  HW2 1691   0.624   3.453   1.163
  520  SOL   OW 1692   2.774   1.532   3.501
  520  SOL  HW1 1693   2.758   1.490   3.416
  520  SOL  HW2 1694   2.702   1.594   3.511
  521  SOL   OW 1695   1.737   0.308   1.310
  521  SOL  HW1 1696   1.796   0.372   1.270
  521  SOL  HW2 1697   1.794   0.250   1.360
  522  SOL   OW 1698   1.438   2.529   0.403
  522  SOL  HW1 1699   1.534   2.537   0.398
  522  SOL  HW2 1700   1.423   2.458   0.465
  523  SOL   OW 1701   2.632   0.202   1.262
  523  SOL  HW1 1702   2.577   0.238   1.192
  523  SOL  HW2 1703   2.616   0.259   1.337
  524  SOL   OW 1704   0.003   0.512   2.399
  524  SOL  HW1 1705   0.037   0.505   2.309
  524  SOL  HW2 1706   0.072   0.474   2.453
  525  SOL   OW 1707   2.218   3.044   0.348
  525  SOL  HW1 1708   2.129   3.037   0.315
  525  SOL  HW2 1709   2.273   3.024   0.273
  526  SOL   OW 1710   1.729   2.623   0.198
  526  SOL  HW1 1711   1.766   2.542   0.163
  526  SOL  HW2 1712   1.667   2.651   0.131
  527  SOL   OW 1713   1.603   2.903   1.338
  527  SOL  HW1 1714   1.540   2.833   1.321
  527  SOL  HW2 1715   1.684   2.874   1.294
  528  SOL   OW 1716   1.173   2.248   2.674
  528  SOL  HW1 1717   1.101   2.246   2.612
  528  SOL  HW2 1718   1.188   2.341   2.691
  529  SOL   OW 1719   0.097   2.068   1.930
  529  SOL  HW1 1720   0.130   2.133   1.992
  529  SOL  HW2 1721   0.164   2.000   1.929
  530  SOL   OW 1722   1.147   1.736   1.500
  530  SOL  HW1 1723   1.140   1.803   1.432
  530  SOL  HW2 1724   1.062   1.739   1.545
  531  SOL   OW 1725   0.188   0.824   1.344
  531  SOL  HW1 1726   0.149   0.841   1.429
  531  SOL  HW2 1727   0.118   0.841   1.281
  532  SOL   OW 1728   2.570   1.363   2.936
  532  SOL  HW1 1729   2.616   1.283   2.910
  532  SOL  HW2 1730   2.577   1.421   2.860
  533  SOL   OW 1731   3.061   1.946   1.328
  533  SOL  HW1 1732   3.066   1.938   1.232
  533  SOL  HW2 1733   2.982   1.898   1.352
  534  SOL   OW 1734   2.435   3.078   3.327
  534  SOL  HW1 1735   2.521   3.077   3.370
  534  SOL  HW2 1736   2.373   3.084   3.399
  535  SOL   OW 1737   1.987   1.578   0.055
  535  SOL  HW1 1738   2.022   1.592  -0.033
  535  SOL  HW2 1739   1.921   1.647   0.066
  536  SOL   OW 1740   0.017   2.947   3.342
  536  SOL  HW1 1741   0.072   2.899   3.405
  536  SOL  HW2 1742  -0.062   2.895   3.334
  537  SOL   OW 1743   1.294   1.292   1.988
  537  SOL  HW1 1744   1.364   1.354   2.009
  537  SOL  HW2 1745   1.303   1.223   2.054
  538  SOL   OW 1746   2.808   2.326   0.660
  538  SOL  HW1 1747   2.788   2.288   0.746
  538  SOL  HW2 1748   2.729   2.375   0.637
  539  SOL   OW 1749   2.703   3.221   2.300
  539  SOL  HW1 1750   2.796   3.200   2.296
  539  SOL  HW2 1751   2.661   3.139   2.326
  540  SOL   OW 1752   3.268   0.305   2.764
  540  SOL  HW1 1753   3.208   0.344   2.828
  540  SOL  HW2 1754   3.346   0.360   2.768
  541  SOL   OW 1755   2.684   0.536   3.073
  541  SOL  HW1 1756   2.644   0.572   3.152
  541  SOL  HW2 1757   2.637   0.579   3.001
  542  SOL   OW 1758   1.961   3.307   1.446
  542  SOL  HW1 1759   1.931   3.375   1.506
  542  SOL  HW2 1760   2.057   3.313   1.448
  543  SOL   OW 1761   1.728   2.123   0.734
  543  SOL  HW1 1762   1.693   2.034   0.729
  543  SOL  HW2 1763   1.723   2.145   0.827
  544  SOL   OW 1764   2.070   0.445   2.407
  544  SOL  HW1 1765   2.029   0.487   2.331
  544  SOL  HW2 1766   2.123   0.514   2.446
  545  SOL   OW 1767   0.197   0.435   0.157
  545  SOL  HW1 1768   0.264   0.477   0.211
  545  SOL  HW2 1769   0.147   0.382   0.219
  546  SOL   OW 1770   2.581   3.042   2.856
  546  SOL  HW1 1771   2.636   3.028   2.933
  546  SOL  HW2 1772   2.643   3.045   2.783
  547  SOL   OW 1773   0.961   1.927   1.774
  547  SOL  HW1 1774   0.956   1.851   1.715
  547  SOL  HW2 1775   0.903   1.904   1.847
  548  SOL   OW 1776   0.093   1.643   2.186
  548  SOL  HW1 1777   0.053   1.570   2.138
  548  SOL  HW2 1778   0.107   1.609   2.274
  549  SOL   OW 1779   2.282   0.434   0.257
  549  SOL  HW1 1780   2.307   0.348   0.292
  549  SOL  HW2 1781   2.246   0.415   0.170
  550  SOL   OW 1782   0.457   3.006   1.724
  550  SOL  HW1 1783   0.430   3.018   1.633
  550  SOL  HW2 1784   0.378   3.027   1.775
  551  SOL   OW 1785   2.070   0.269   3.110
  551  SOL  HW1 1786   2.143   0.215   3.138
  551  SOL  HW2 1787   2.081   0.280   3.016
  552  SOL   OW 1788   3.102   0.386   2.470
  552  SOL  HW1 1789   3.071   0.322   2.534
  552  SOL  HW2 1790   3.139   0.457   2.523
  553  SOL   OW 1791   0.027   3.023   2.473
  553  SOL  HW1 1792  -0.024   2.945   2.495
  553  SOL  HW2 1793   0.114   3.006   2.509
  554  SOL   OW 1794   1.418   1.157   0.237
  554  SOL  HW1 1795   1.482   1.172   0.307
  554  SOL  HW2 1796   1.359   1.090   0.273
  555  SOL   OW 1797   0.281   0.036   1.180
  555  SOL  HW1 1798   0.279   0.130   1.162
  555  SOL  HW2 1799   0.363   0.006   1.140
  556  SOL   OW 1800   1.930   1.996   2.355
  556  SOL  HW1 1801   1.867   1.983   2.283
  556  SOL  HW2 1802   1.883   1.966   2.433
  557  SOL   OW 1803   0.737   2.382   3.389
  557  SOL  HW1 1804   0.774   2.429   3.463
  557  SOL  HW2 1805   0.745   2.290   3.413
  558  SOL   OW 1806   2.837   0.468   2.270
  558  SOL  HW1 1807   2.865   0.474   2.179
  558  SOL  HW2 1808   2.819   0.376   2.284
  559  SOL   OW 1809   0.011   2.678   0.322
  559  SOL  HW1 1810   0.049   2.624   0.253
  559  SOL  HW2 1811   0.042   2.638   0.404
  560  SOL   OW 1812   2.188   0.159   2.860
  560  SOL  HW1 1813   2.273   0.198   2.878
  560  SOL  HW2 1814   2.184   0.082   2.917
  561  SOL   OW 1815  -0.000   1.594   3.129
  561  SOL  HW1 1816  -0.052   1.636   3.197
  561  SOL  HW2 1817   0.089   1.592   3.164
  562  SOL   OW 1818   2.935   2.866   3.051
  562  SOL  HW1 1819   2.908   2.892   2.962
  562  SOL  HW2 1820   2.878   2.792   3.072
  563  SOL   OW 1821   1.603   1.664   1.482
  563  SOL  HW1 1822   1.659   1.711   1.544
  563  SOL  HW2 1823   1.607   1.717   1.402
  564  SOL   OW 1824   2.443   3.409   2.793
  564  SOL  HW1 1825   2.480   3.342   2.850
  564  SOL  HW2 1826   2.398   3.469   2.853
  565  SOL   OW 1827   0.672   1.144   0.736
  565  SOL  HW1 1828   0.712   1.226   0.707
  565  SOL  HW2 1829   0.713   1.126   0.820
  566  SOL   OW 1830   0.499   1.566   3.458
  566  SOL  HW1 1831   0.431   1.627   3.485
  566  SOL  HW2 1832   0.534   1.604   3.377
  567  SOL   OW 1833   1.225   0.038   3.085
  567  SOL  HW1 1834   1.208   0.002   3.172
  567  SOL  HW2 1835   1.289  -0.022   3.046
  568  SOL   OW 1836   3.201   2.182   0.119
  568  SOL  HW1 1837   3.195   2.111   0.055
  568  SOL  HW2 1838   3.247   2.143   0.194
  569  SOL   OW 1839   3.199   1.344   0.465
  569  SOL  HW1 1840   3.213   1.288   0.389
  569  SOL  HW2 1841   3.148   1.418   0.430
  570  SOL   OW 1842   2.052   0.974   0.331
  570  SOL  HW1 1843   2.119   1.032   0.295
  570  SOL  HW2 1844   1.976   1.030   0.345
  571  SOL   OW 1845   1.341   0.121   1.423
  571  SOL  HW1 1846   1.345   0.125   1.518
  571  SOL  HW2 1847   1.394   0.044   1.400
  572  SOL   OW 1848   1.915   1.074   2.837
  572  SOL  HW1 1849   1.967   1.111   2.766
  572  SOL  HW2 1850   1.825   1.099   2.817
  573  SOL   OW 1851   2.864   1.060   1.812
  573  SOL  HW1 1852   2.772   1.040   1.828
  573  SOL  HW2 1853   2.908   0.974   1.817
  574  SOL   OW 1854   2.590   1.819   2.467
  574  SOL  HW1 1855   2.619   1.852   2.553
  574  SOL  HW2 1856   2.669   1.821   2.413
  575  SOL   OW 1857   0.104   1.170   2.680
  575  SOL  HW1 1858   0.110   1.080   2.712
  575  SOL  HW2 1859   0.017   1.200   2.709
  576  SOL   OW 1860   2.178   1.708   1.374
  576  SOL  HW1 1861   2.213   1.626   1.338
  576  SOL  HW2 1862   2.227   1.720   1.456
  577  SOL   OW 1863   0.980   2.390   0.401
  577  SOL  HW1 1864   0.995   2.399   0.307
  577  SOL  HW2 1865   1.062   2.421   0.441
  578  SOL   OW 1866   0.742   2.404   3.112
  578  SOL  HW1 1867   0.779   2.319   3.090
  578  SOL  HW2 1868   0.746   2.408   3.208
  579  SOL   OW 1869   0.955   0.624   1.904
  579  SOL  HW1 1870   0.921   0.706   1.941
  579  SOL  HW2 1871   0.879   0.567   1.895
  580  SOL   OW 1872   2.377   1.931   2.324
  580  SOL  HW1 1873   2.379   2.025   2.343
  580  SOL  HW2 1874   2.458   1.897   2.361
  581  SOL   OW 1875   1.289   0.108   0.133
  581  SOL  HW1 1876   1.354   0.129   0.200
  581  SOL  HW2 1877   1.232   0.043   0.175
  582  SOL   OW 1878   1.228   3.251   0.609
  582  SOL  HW1 1879   1.281   3.274   0.685
  582  SOL  HW2 1880   1.200   3.335   0.572
  583  SOL   OW 1881   1.542   1.061   0.705
  583  SOL  HW1 1882   1.495   0.979   0.692
  583  SOL  HW2 1883   1.557   1.066   0.799
  584  SOL   OW 1884   0.971   1.838   2.126
  584  SOL  HW1 1885   1.017   1.921   2.113
  584  SOL  HW2 1886   0.890   1.847   2.076
  585  SOL   OW 1887   2.757   1.520   1.889
  585  SOL  HW1 1888   2.850   1.521   1.866
  585  SOL  HW2 1889   2.754   1.546   1.981
  586  SOL   OW 1890   0.744   0.900   1.507
  586  SOL  HW1 1891   0.654   0.879   1.480
  586  SOL  HW2 1892   0.754   0.993   1.488
  587  SOL   OW 1893   1.838  -0.002   0.840
  587  SOL  HW1 1894   1.853   0.081   0.885
  587  SOL  HW2 1895   1.799  -0.059   0.907
  588  SOL   OW 1896   0.063   3.114   0.993
  588  SOL  HW1 1897   0.067   3.018   0.993
  588  SOL  HW2 1898   0.035   3.137   1.081
  589  SOL   OW 1899   2.500   0.612   2.834
  589  SOL  HW1 1900   2.483   0.521   2.856
  589  SOL  HW2 1901   2.429   0.635   2.773
  590  SOL   OW 1902   0.926   1.095   3.365
  590  SOL  HW1 1903   0.968   1.170   3.406
  590  SOL  HW2 1904   0.897   1.127   3.280
  591  SOL   OW 1905   1.591   0.726   2.807
  591  SOL  HW1 1906   1.603   0.665   2.880
  591  SOL  HW2 1907   1.599   0.813   2.847
  592  SOL   OW 1908   0.849   2.665   0.075
  592  SOL  HW1 1909   0.884   2.746   0.113
  592  SOL  HW2 1910   0.822   2.689  -0.013
  593  SOL   OW 1911   0.056   0.730   0.457
  593  SOL  HW1 1912  -0.006   0.802   0.466
  593  SOL  HW2 1913   0.124   0.764   0.398
  594  SOL   OW 1914   2.528   1.146   0.170
  594  SOL  HW1 1915   2.449   1.156   0.223
  594  SOL  HW2 1916   2.579   1.226   0.188
  595  SOL   OW 1917   0.180   3.180   2.228
  595  SOL  HW1 1918   0.112   3.119   2.257
  595  SOL  HW2 1919   0.206   3.147   2.142
  596  SOL   OW 1920   0.964   3.131   2.752
  596  SOL  HW1 1921   0.893   3.131   2.687
  596  SOL  HW2 1922   0.974   3.223   2.777
  597  SOL   OW 1923   3.377   1.734   2.516
  597  SOL  HW1 1924   3.407   1.646   2.497
  597  SOL  HW2 1925   3.424   1.790   2.455
  598  SOL   OW 1926   2.649   1.736   0.863
  598  SOL  HW1 1927   2.691   1.818   0.835
  598  SOL  HW2 1928   2.585   1.717   0.794
  599  SOL   OW 1929   1.419   3.212   2.243
  599  SOL  HW1 1930   1.435   3.306   2.243
  599  SOL  HW2 1931   1.486   3.177   2.303
  600  SOL   OW 1932   2.951   3.465   0.582
  600  SOL  HW1 1933   2.961   3.484   0.489
  600  SOL  HW2 1934   2.973   3.373   0.590
  601  SOL   OW 1935   1.886   0.855   0.120
  601  SOL  HW1 1936   1.801   0.895   0.103
  601  SOL  HW2 1937   1.905   0.876   0.211
  602  SOL   OW 1938   2.538   2.123   2.746
  602  SOL  HW1 1939   2.574   2.037   2.723
  602  SOL  HW2 1940   2.448   2.105   2.772
  603  SOL   OW 1941   2.816   2.430   1.195
  603  SOL  HW1 1942   2.730   2.438   1.154
  603  SOL  HW2 1943   2.866   2.504   1.160
  604  SOL   OW 1944   1.262   2.085   3.102
  604  SOL  HW1 1945   1.232   2.069   3.192
  604  SOL  HW2 1946   1.357   2.085   3.109
  605  SOL   OW 1947   2.108   2.205  -0.027
  605  SOL  HW1 1948   2.134   2.241   0.058
  605  SOL  HW2 1949   2.013   2.201  -0.024
  606  SOL   OW 1950   2.918   0.042   1.178
  606  SOL  HW1 1951   2.843   0.087   1.140
  606  SOL  HW2 1952   2.979   0.031   1.105
  607  SOL   OW 1953   2.085   0.137   2.466
  607  SOL  HW1 1954   2.050   0.055   2.432
  607  SOL  HW2 1955   2.112   0.186   2.389
  608  SOL   OW 1956   1.601   0.927   2.991
  608  SOL  HW1 1957   1.655   0.996   3.028
  608  SOL  HW2 1958   1.512   0.948   3.021
  609  SOL   OW 1959   1.858   0.661   3.081
  609  SOL  HW1 1960   1.763   0.652   3.085
  609  SOL  HW2 1961   1.892   0.585   3.129
  610  SOL   OW 1962   2.219   1.682   1.756
  610  SOL  HW1 1963   2.127   1.708   1.753
  610  SOL  HW2 1964   2.266   1.757   1.719
  611  SOL   OW 1965   0.318   1.159   3.119
  611  SOL  HW1 1966   0.254   1.224   3.090
  611  SOL  HW2 1967   0.356   1.196   3.198
  612  SOL   OW 1968   1.568   2.471   2.119
  612  SOL  HW1 1969   1.550   2.564   2.104
  612  SOL  HW2 1970   1.662   2.462   2.102
  613  SOL   OW 1971   1.932   2.136   0.217
  613  SOL  HW1 1972   1.991   2.072   0.179
  613  SOL  HW2 1973   1.928   2.114   0.310
  614  SOL   OW 1974   2.366   1.038   2.363
  614  SOL  HW1 1975   2.348   1.109   2.425
  614  SOL  HW2 1976   2.445   1.065   2.317
  615  SOL   OW 1977   3.127   3.326   2.995
  615  SOL  HW1 1978   3.215   3.348   3.025
  615  SOL  HW2 1979   3.098   3.403   2.947
  616  SOL   OW 1980   2.782   1.410   2.546
  616  SOL  HW1 1981   2.697   1.422   2.588
  616  SOL  HW2 1982   2.774   1.328   2.497
  617  SOL   OW 1983   1.576   2.657   3.506
  617  SOL  HW1 1984   1.583   2.571   3.465
  617  SOL  HW2 1985   1.564   2.717   3.433
  618  SOL   OW 1986   1.434   2.291   2.257
  618  SOL  HW1 1987   1.345   2.311   2.229
  618  SOL  HW2 1988   1.488   2.358   2.215
  619  SOL   OW 1989   1.544   3.440   2.259
  619  SOL  HW1 1990   1.622   3.395   2.292
  619  SOL  HW2 1991   1.575   3.528   2.237
  620  SOL   OW 1992   1.671   0.833   1.520
  620  SOL  HW1 1993   1.650   0.739   1.526
  620  SOL  HW2 1994   1.609   0.875   1.579
  621  SOL   OW 1995   2.688   0.033   1.001
  621  SOL  HW1 1996   2.657  -0.024   1.071
  621  SOL  HW2 1997   2.611   0.049   0.947
  622  SOL   OW 1998   1.753   2.723   1.132
  622  SOL  HW1 1999   1.784   2.667   1.060
  622  SOL  HW2 2000   1.814   2.797   1.134
  623  SOL   OW 2001   0.115   2.196   2.374
  623  SOL  HW1 2002   0.132   2.161   2.287
  623  SOL  HW2 2003   0.033   2.157   2.401
  624  SOL   OW 2004   1.921   2.538   3.320
  624  SOL  HW1 2005   1.993   2.508   3.265
  624  SOL  HW2 2006   1.956   2.536   3.409
  625  SOL   OW 2007   0.790   0.542   3.534
  625  SOL  HW1 2008   0.708   0.536   3.487
  625  SOL  HW2 2009   0.852   0.490   3.483
  626  SOL   OW 2010   3.418   1.595   0.489
  626  SOL  HW1 2011   3.397   1.502   0.493
  626  SOL  HW2 2012   3.512   1.600   0.506
  627  SOL   OW 2013   3.467   0.940   1.293
  627  SOL  HW1 2014   3.461   1.035   1.285
  627  SOL  HW2 2015   3.387   0.914   1.339
  628  SOL   OW 2016   0.264   0.315   1.030
  628  SOL  HW1 2017   0.186   0.283   1.075
  628  SOL  HW2 2018   0.237   0.399   0.993
  629  SOL   OW 2019   3.115   0.552   2.050
  629  SOL  HW1 2020   3.174   0.539   2.125
  629  SOL  HW2 2021   3.094   0.463   2.021
  630  SOL   OW 2022   1.349   1.658   1.739
  630  SOL  HW1 2023   1.305   1.714   1.676
  630  SOL  HW2 2024   1.326   1.695   1.824
  631  SOL   OW 2025   1.242   2.264   0.004
  631  SOL  HW1 2026   1.303   2.287   0.075
  631  SOL  HW2 2027   1.231   2.346  -0.045
  632  SOL   OW 2028   2.905   1.856   0.062
  632  SOL  HW1 2029   2.967   1.836   0.132
  632  SOL  HW2 2030   2.869   1.770   0.037
  633  SOL   OW 2031   0.196   0.433   2.574
  633  SOL  HW1 2032   0.259   0.370   2.541
  633  SOL  HW2 2033   0.154   0.389   2.648
  634  SOL   OW 2034   0.694   0.947   3.125
  634  SOL  HW1 2035   0.688   0.883   3.197
  634  SOL  HW2 2036   0.779   0.931   3.085
  635  SOL   OW 2037   1.727   1.746   1.723
  635  SOL  HW1 2038   1.677   1.682   1.773
  635  SOL  HW2 2039   1.817   1.716   1.727
  636  SOL   OW 2040   0.950   1.917   0.818
  636  SOL  HW1 2041   0.931   1.970   0.741
  636  SOL  HW2 2042   0.921   1.829   0.795
  637  SOL   OW 2043   2.827   3.247   3.499
  637  SOL  HW1 2044   2.868   3.202   3.573
  637  SOL  HW2 2045   2.886   3.230   3.425
  638  SOL   OW 2046   2.019   1.741   3.013
  638  SOL  HW1 2047   2.071   1.813   3.049
  638  SOL  HW2 2048   2.082   1.685   2.968
  639  SOL   OW 2049   3.442   1.115   2.160
  639  SOL  HW1 2050   3.383   1.179   2.201
  639  SOL  HW2 2051   3.412   1.031   2.192
  640  SOL   OW 2052   0.109   3.255   1.528
  640  SOL  HW1 2053   0.049   3.217   1.464
  640  SOL  HW2 2054   0.162   3.317   1.478
  641  SOL   OW 2055   0.239   2.207   2.123
  641  SOL  HW1 2056   0.261   2.255   2.203
  641  SOL  HW2 2057   0.257   2.268   2.052
  642  SOL   OW 2058   1.153   2.326   3.096
  642  SOL  HW1 2059   1.184   2.236   3.085
  642  SOL  HW2 2060   1.208   2.361   3.166
  643  SOL   OW 2061   0.223   2.434   3.158
  643  SOL  HW1 2062   0.241   2.342   3.179
  643  SOL  HW2 2063   0.160   2.431   3.086
  644  SOL   OW 2064   1.031   3.430   0.824
  644  SOL  HW1 2065   0.954   3.387   0.787
  644  SOL  HW2 2066   0.996   3.485   0.894
  645  SOL   OW 2067   0.441   3.518   2.416
  645  SOL  HW1 2068   0.484   3.473   2.343
  645  SOL  HW2 2069   0.484   3.484   2.494
  646  SOL   OW 2070   1.500   3.165   1.302
  646  SOL  HW1 2071   1.560   3.091   1.308
  646  SOL  HW2 2072   1.538   3.231   1.359
  647  SOL   OW 2073   2.313   1.509   0.640
  647  SOL  HW1 2074   2.354   1.471   0.562
  647  SOL  HW2 2075   2.360   1.591   0.656
  648  SOL   OW 2076   1.563   1.398   3.304
  648  SOL  HW1 2077   1.645   1.364   3.270
  648  SOL  HW2 2078   1.578   1.409   3.398
  649  SOL   OW 2079   1.007   2.185   0.157
  649  SOL  HW1 2080   1.044   2.266   0.123
  649  SOL  HW2 2081   1.080   2.123   0.154
  650  SOL   OW 2082   3.175   0.921   0.822
  650  SOL  HW1 2083   3.125   0.848   0.860
  650  SOL  HW2 2084   3.149   0.921   0.730
  651  SOL   OW 2085   3.057   2.556   1.155
  651  SOL  HW1 2086   3.079   2.469   1.124
  651  SOL  HW2 2087   3.139   2.590   1.193
  652  SOL   OW 2088   3.471   3.335  -0.015
  652  SOL  HW1 2089   3.471   3.395   0.060
  652  SOL  HW2 2090   3.561   3.305  -0.022
  653  SOL   OW 2091   1.995   1.871   1.477
  653  SOL  HW1 2092   2.078   1.826   1.466
  653  SOL  HW2 2093   1.936   1.830   1.413
  654  SOL   OW 2094   2.550   1.904   3.015
  654  SOL  HW1 2095   2.461   1.937   3.002
  654  SOL  HW2 2096   2.542   1.809   3.007
  655  SOL   OW 2097   3.410   2.037   2.132
  655  SOL  HW1 2098   3.334   2.086   2.101
  655  SOL  HW2 2099   3.474   2.046   2.061
  656  SOL   OW 2100   3.263   2.481   0.139
  656  SOL  HW1 2101   3.353   2.479   0.108
  656  SOL  HW2 2102   3.230   2.393   0.122
  657  SOL   OW 2103   2.785   0.433   0.220
  657  SOL  HW1 2104   2.797   0.521   0.183
  657  SOL  HW2 2105   2.712   0.396   0.171
  658  SOL   OW 2106   0.253   2.966   2.052
  658  SOL  HW1 2107   0.243   2.959   1.957
  658  SOL  HW2 2108   0.347   2.970   2.067
  659  SOL   OW 2109   1.032   1.242   2.466
  659  SOL  HW1 2110   1.127   1.251   2.472
  659  SOL  HW2 2111   0.998   1.324   2.501
  660  SOL   OW 2112   0.782   2.817   2.739
  660  SOL  HW1 2113   0.766   2.734   2.694
  660  SOL  HW2 2114   0.853   2.858   2.689
  661  SOL   OW 2115   0.398   0.997   1.278
  661  SOL  HW1 2116   0.387   1.031   1.189
  661  SOL  HW2 2117   0.341   0.920   1.282
  662  SOL   OW 2118   0.980   3.228   3.321
  662  SOL  HW1 2119   1.049   3.284   3.355
  662  SOL  HW2 2120   0.935   3.281   3.255
  663  SOL   OW 2121   2.339   2.595   0.304
  663  SOL  HW1 2122   2.433   2.596   0.324
  663  SOL  HW2 2123   2.334   2.606   0.209
  664  SOL   OW 2124   2.192   1.950   3.138
  664  SOL  HW1 2125   2.214   1.962   3.230
  664  SOL  HW2 2126   2.213   2.033   3.096
  665  SOL   OW 2127   2.410   2.182   2.444
  665  SOL  HW1 2128   2.381   2.195   2.534
  665  SOL  HW2 2129   2.363   2.249   2.394
  666  SOL   OW 2130   1.725   0.244   0.696
  666  SOL  HW1 2131   1.775   0.301   0.754
  666  SOL  HW2 2132   1.781   0.233   0.619
  667  SOL   OW 2133   1.297   0.568   2.398
  667  SOL  HW1 2134   1.261   0.515   2.469
  667  SOL  HW2 2135   1.365   0.512   2.360
  668  SOL   OW 2136   0.233   0.300   2.004
  668  SOL  HW1 2137   0.218   0.312   1.910
  668  SOL  HW2 2138   0.324   0.329   2.017
  669  SOL   OW 2139   0.895   1.927   2.676
  669  SOL  HW1 2140   0.966   1.903   2.616
  669  SOL  HW2 2141   0.940   1.961   2.754
  670  SOL   OW 2142   1.125   2.170   0.833
  670  SOL  HW1 2143   1.133   2.263   0.855
  670  SOL  HW2 2144   1.070   2.134   0.903
  671  SOL   OW 2145   2.477   0.115   2.266
  671  SOL  HW1 2146   2.499   0.071   2.184
  671  SOL  HW2 2147   2.407   0.176   2.243
  672  SOL   OW 2148   2.635   1.461   0.597
  672  SOL  HW1 2149   2.637   1.501   0.684
  672  SOL  HW2 2150   2.590   1.377   0.610
  673  SOL   OW 2151   3.334   3.008   2.044
  673  SOL  HW1 2152   3.318   3.025   2.137
  673  SOL  HW2 2153   3.260   3.048   1.999
  674  SOL   OW 2154   3.256   1.416   3.130
  674  SOL  HW1 2155   3.327   1.479   3.143
  674  SOL  HW2 2156   3.299   1.336   3.102
  675  SOL   OW 2157   0.186   2.781   3.056
  675  SOL  HW1 2158   0.105   2.787   3.106
  675  SOL  HW2 2159   0.192   2.863   3.007
  676  SOL   OW 2160   1.935   0.514   0.566
  676  SOL  HW1 2161   1.897   0.478   0.646
  676  SOL  HW2 2162   2.027   0.487   0.570
  677  SOL   OW 2163   1.238   2.472   0.861
  677  SOL  HW1 2164   1.256   2.544   0.922
  677  SOL  HW2 2165   1.304   2.483   0.792
  678  SOL   OW 2166   2.132   2.178   1.183
  678  SOL  HW1 2167   2.107   2.217   1.266
  678  SOL  HW2 2168   2.137   2.084   1.201
  679  SOL   OW 2169   3.053   0.900  -0.014
  679  SOL  HW1 2170   3.007   0.980   0.010
  679  SOL  HW2 2171   3.120   0.888   0.054
  680  SOL   OW 2172   1.965   0.561   2.151
  680  SOL  HW1 2173   1.889   0.618   2.136
  680  SOL  HW2 2174   2.040   0.613   2.121
  681  SOL   OW 2175   2.139   0.059   0.885
  681  SOL  HW1 2176   2.064   0.077   0.941
  681  SOL  HW2 2177   2.148  -0.037   0.886
  682  SOL   OW 2178   1.816   1.610   2.553
  682  SOL  HW1 2179   1.850   1.552   2.621
  682  SOL  HW2 2180   1.785   1.687   2.600
  683  SOL   OW 2181   0.882   2.069   0.492
  683  SOL  HW1 2182   0.796   2.028   0.484
  683  SOL  HW2 2183   0.868   2.159   0.463
  684  SOL   OW 2184   3.097   2.254   0.956
  684  SOL  HW1 2185   3.011   2.216   0.939
  684  SOL  HW2 2186   3.126   2.213   1.037
  685  SOL   OW 2187   2.104   1.919   0.159
  685  SOL  HW1 2188   2.072   1.845   0.211
  685  SOL  HW2 2189   2.195   1.929   0.186
  686  SOL   OW 2190   1.228   0.718   1.438
  686  SOL  HW1 2191   1.280   0.793   1.467
  686  SOL  HW2 2192   1.229   0.657   1.512
  687  SOL   OW 2193   2.053   2.481   0.576
  687  SOL  HW1 2194   2.037   2.427   0.654
  687  SOL  HW2 2195   1.997   2.442   0.508
  688  SOL   OW 2196   3.011   0.184   2.629
  688  SOL  HW1 2197   3.051   0.128   2.563
  688  SOL  HW2 2198   3.072   0.180   2.703
  689  SOL   OW 2199   1.478   0.001   3.405
  689  SOL  HW1 2200   1.546   0.008   3.472
  689  SOL  HW2 2201   1.400   0.038   3.447
  690  SOL   OW 2202   1.226   0.276   3.440
  690  SOL  HW1 2203   1.155   0.335   3.466
  690  SOL  HW2 2204   1.248   0.228   3.520
  691  SOL   OW 2205   3.470   1.121   0.614
  691  SOL  HW1 2206   3.483   1.198   0.559
  691  SOL  HW2 2207   3.436   1.156   0.697
  692  SOL   OW 2208   3.444   0.539   2.752
  692  SOL  HW1 2209   3.521   0.587   2.723
  692  SOL  HW2 2210   3.370   0.596   2.730
  693  SOL   OW 2211   1.772   1.161   0.157
  693  SOL  HW1 2212   1.832   1.155   0.082
  693  SOL  HW2 2213   1.688   1.131   0.123
  694  SOL   OW 2214   0.348   2.624   1.633
  694  SOL  HW1 2215   0.383   2.536   1.617
  694  SOL  HW2 2216   0.328   2.658   1.546
  695  SOL   OW 2217   0.716   1.660   0.455
  695  SOL  HW1 2218   0.804   1.656   0.416
  695  SOL  HW2 2219   0.657   1.652   0.380
  696  SOL   OW 2220   2.817   2.186   0.918
  696  SOL  HW1 2221   2.787   2.121   0.983
  696  SOL  HW2 2222   2.776   2.268   0.946
  697  SOL   OW 2223   1.570   1.231   1.944
  697  SOL  HW1 2224   1.562   1.240   1.849
  697  SOL  HW2 2225   1.519   1.152   1.964
  698  SOL   OW 2226   1.303   2.983   1.629
  698  SOL  HW1 2227   1.254   2.957   1.550
  698  SOL  HW2 2228   1.254   2.944   1.701
  699  SOL   OW 2229   0.206   3.198   0.003
  699  SOL  HW1 2230   0.152   3.127   0.037
  699  SOL  HW2 2231   0.296   3.169   0.019
  700  SOL   OW 2232   0.169   1.422   0.729
  700  SOL  HW1 2233   0.257   1.401   0.761
  700  SOL  HW2 2234   0.112   1.405   0.804
  701  SOL   OW 2235  -0.020   0.867   2.727
  701  SOL  HW1 2236   0.058   0.877   2.781
  701  SOL  HW2 2237   0.012   0.836   2.643
  702  SOL   OW 2238   1.502   2.097   2.412
  702  SOL  HW1 2239   1.526   2.149   2.489
  702  SOL  HW2 2240   1.471   2.161   2.349
  703  SOL   OW 2241   1.089   2.670   1.940
  703  SOL  HW1 2242   1.009   2.703   1.980
  703  SOL  HW2 2243   1.058   2.623   1.862
  704  SOL   OW 2244   3.280   2.250   1.986
  704  SOL  HW1 2245   3.326   2.254   1.902
  704  SOL  HW2 2246   3.344   2.280   2.050
  705  SOL   OW 2247   2.405   2.712   2.760
  705  SOL  HW1 2248   2.389   2.796   2.718
  705  SOL  HW2 2249   2.497   2.717   2.788
  706  SOL   OW 2250   2.013   1.360   2.983
  706  SOL  HW1 2251   1.971   1.281   3.018
  706  SOL  HW2 2252   2.080   1.327   2.923
  707  SOL   OW 2253   1.656   1.102   2.746
  707  SOL  HW1 2254   1.634   1.109   2.653
  707  SOL  HW2 2255   1.573   1.122   2.791
  708  SOL   OW 2256   2.043   1.544   0.563
  708  SOL  HW1 2257   2.134   1.523   0.587
  708  SOL  HW2 2258   2.051   1.602   0.488
  709  SOL   OW 2259   2.718   3.127   1.050
  709  SOL  HW1 2260   2.699   3.167   0.965
  709  SOL  HW2 2261   2.673   3.043   1.047
  710  SOL   OW 2262   2.311   2.773   0.045
  710  SOL  HW1 2263   2.300   2.868   0.050
  710  SOL  HW2 2264   2.307   2.753  -0.049
  711  SOL   OW 2265   1.737   1.678   0.080
  711  SOL  HW1 2266   1.753   1.707   0.170
  711  SOL  HW2 2267   1.645   1.699   0.065
  712  SOL   OW 2268   3.020   1.474   2.316
  712  SOL  HW1 2269   2.962   1.426   2.256
  712  SOL  HW2 2270   2.963   1.538   2.358
  713  SOL   OW 2271   1.812   0.260   3.516
  713  SOL  HW1 2272   1.768   0.309   3.585
  713  SOL  HW2 2273   1.784   0.303   3.435
  714  SOL   OW 2274   2.230   2.461   1.462
  714  SOL  HW1 2275   2.262   2.518   1.392
  714  SOL  HW2 2276   2.291   2.475   1.534
  715  SOL   OW 2277   2.141   0.621   3.341
  715  SOL  HW1 2278   2.150   0.714   3.320
  715  SOL  HW2 2279   2.068   0.616   3.402
  716  SOL   OW 2280   0.912   3.078   3.038
  716  SOL  HW1 2281   0.936   3.168   3.058
  716  SOL  HW2 2282   0.838   3.086   2.978
  717  SOL   OW 2283   1.733   2.659   0.472
  717  SOL  HW1 2284   1.779   2.634   0.393
  717  SOL  HW2 2285   1.680   2.735   0.447
  718  SOL   OW 2286   2.600   2.974   2.462
  718  SOL  HW1 2287   2.647   3.032   2.522
  718  SOL  HW2 2288   2.521   2.948   2.509
  719  SOL   OW 2289   0.738   1.696   2.612
  719  SOL  HW1 2290   0.774   1.746   2.685
  719  SOL  HW2 2291   0.789   1.724   2.536
  720  SOL   OW 2292   0.471   1.946   1.534
  720  SOL  HW1 2293   0.410   1.903   1.475
  720  SOL  HW2 2294   0.557   1.915   1.506
  721  SOL   OW 2295   1.962   1.598   1.710
  721  SOL  HW1 2296   1.976   1.554   1.626
  721  SOL  HW2 2297   1.954   1.527   1.773
  722  SOL   OW 2298   0.619   1.598   0.210
  722  SOL  HW1 2299   0.581   1.598   0.122
  722  SOL  HW2 2300   0.708   1.563   0.198
  723  SOL   OW 2301   2.811   1.956   0.349
  723  SOL  HW1 2302   2.868   2.004   0.289
  723  SOL  HW2 2303   2.870   1.914   0.411
  724  SOL   OW 2304   1.591   2.478   1.390
  724  SOL  HW1 2305   1.590   2.392   1.347
  724  SOL  HW2 2306   1.679   2.484   1.429
  725  SOL   OW 2307   2.140   1.205   0.755
  725  SOL  HW1 2308   2.171   1.252   0.832
  725  SOL  HW2 2309   2.054   1.173   0.779
  726  SOL   OW 2310   3.189   1.731   2.715
  726  SOL  HW1 2311   3.256   1.752   2.649
  726  SOL  HW2 2312   3.236   1.737   2.798
  727  SOL   OW 2313   3.430   1.393   1.579
  727  SOL  HW1 2314   3.406   1.341   1.655
  727  SOL  HW2 2315   3.469   1.472   1.616
  728  SOL   OW 2316   0.742   1.442   0.993
  728  SOL  HW1 2317   0.661   1.393   1.006
  728  SOL  HW2 2318   0.808   1.393   1.042
  729  SOL   OW 2319   0.135   2.835   0.958
  729  SOL  HW1 2320   0.191   2.880   0.894
  729  SOL  HW2 2321   0.162   2.744   0.954
  730  SOL   OW 2322   0.037   3.228   2.661
  730  SOL  HW1 2323  -0.000   3.151   2.619
  730  SOL  HW2 2324   0.059   3.286   2.588
  731  SOL   OW 2325   2.270   3.465   1.193
  731  SOL  HW1 2326   2.286   3.376   1.225
  731  SOL  HW2 2327   2.174   3.472   1.191
  732  SOL   OW 2328   0.165   2.029   0.017
  732  SOL  HW1 2329   0.107   2.096   0.054
  732  SOL  HW2 2330   0.106   1.968  -0.028
  733  SOL   OW 2331   0.715   0.744   2.797
  733  SOL  HW1 2332   0.797   0.695   2.793
  733  SOL  HW2 2333   0.694   0.762   2.706
  734  SOL   OW 2334   2.366   3.001   0.552
  734  SOL  HW1 2335   2.390   3.092   0.573
  734  SOL  HW2 2336   2.288   3.009   0.498
  735  SOL   OW 2337   0.193   0.910   0.876
  735  SOL  HW1 2338   0.106   0.924   0.914
  735  SOL  HW2 2339   0.193   0.817   0.853
  736  SOL   OW 2340   1.479   3.232   0.754
  736  SOL  HW1 2341   1.489   3.255   0.846
  736  SOL  HW2 2342   1.534   3.295   0.708
  737  SOL   OW 2343   2.379   1.145   1.410
  737  SOL  HW1 2344   2.306   1.201   1.384
  737  SOL  HW2 2345   2.456   1.183   1.367
  738  SOL   OW 2346   2.296   3.302   0.291
  738  SOL  HW1 2347   2.273   3.220   0.335
  738  SOL  HW2 2348   2.344   3.351   0.357
  739  SOL   OW 2349   1.438   0.888   1.721
  739  SOL  HW1 2350   1.384   0.809   1.715
  739  SOL  HW2 2351   1.395   0.942   1.788
  740  SOL   OW 2352   3.404   2.834   1.808
  740  SOL  HW1 2353   3.367   2.911   1.851
  740  SOL  HW2 2354   3.422   2.863   1.719
  741  SOL   OW 2355   2.523   0.544   0.082
  741  SOL  HW1 2356   2.549   0.587   0.164
  741  SOL  HW2 2357   2.480   0.463   0.111
  742  SOL   OW 2358   0.523   1.740   0.622
  742  SOL  HW1 2359   0.578   1.685   0.567
  742  SOL  HW2 2360   0.553   1.722   0.711
  743  SOL   OW 2361   3.012   0.602   3.127
  743  SOL  HW1 2362   3.094   0.601   3.078
  743  SOL  HW2 2363   3.015   0.524   3.182
  744  SOL   OW 2364   0.981   3.363   2.922
  744  SOL  HW1 2365   1.070   3.397   2.920
  744  SOL  HW2 2366   0.953   3.375   3.013
  745  SOL   OW 2367   3.009   1.328   1.969
  745  SOL  HW1 2368   3.022   1.238   1.998
  745  SOL  HW2 2369   2.941   1.363   2.026
  746  SOL   OW 2370   3.153   2.492   2.428
  746  SOL  HW1 2371   3.142   2.405   2.467
  746  SOL  HW2 2372   3.247   2.501   2.416
  747  SOL   OW 2373   3.228   2.589   0.549
  747  SOL  HW1 2374   3.319   2.610   0.567
  747  SOL  HW2 2375   3.180   2.623   0.625
  748  SOL   OW 2376   1.864   0.343   0.338
  748  SOL  HW1 2377   1.851   0.399   0.415
  748  SOL  HW2 2378   1.886   0.404   0.268
  749  SOL   OW 2379   0.178   1.087   3.531
  749  SOL  HW1 2380   0.221   1.050   3.454
  749  SOL  HW2 2381   0.086   1.095   3.506
  750  SOL   OW 2382   0.520   2.833   3.025
  750  SOL  HW1 2383   0.613   2.810   3.025
  750  SOL  HW2 2384   0.478   2.767   3.079
  751  SOL   OW 2385   1.819   2.933   0.313
  751  SOL  HW1 2386   1.854   2.895   0.233
  751  SOL  HW2 2387   1.729   2.901   0.318
  752  SOL   OW 2388   2.759   3.087   3.127
  752  SOL  HW1 2389   2.813   3.149   3.176
  752  SOL  HW2 2390   2.820   3.018   3.100
  753  SOL   OW 2391   1.137   1.623   3.394
  753  SOL  HW1 2392   1.062   1.672   3.426
  753  SOL  HW2 2393   1.171   1.675   3.321
  754  SOL   OW 2394   2.723   2.947   1.259
  754  SOL  HW1 2395   2.772   2.873   1.224
  754  SOL  HW2 2396   2.766   3.024   1.221
  755  SOL   OW 2397   2.590   2.503   0.352
  755  SOL  HW1 2398   2.577   2.453   0.433
  755  SOL  HW2 2399   2.668   2.556   0.369
  756  SOL   OW 2400   1.043   2.474   0.145
  756  SOL  HW1 2401   0.952   2.503   0.151
  756  SOL  HW2 2402   1.077   2.518   0.067
  757  SOL   OW 2403   2.099   2.482   2.589
  757  SOL  HW1 2404   2.086   2.405   2.533
  757  SOL  HW2 2405   2.107   2.555   2.527
  758  SOL   OW 2406   1.989   2.920   0.108
  758  SOL  HW1 2407   2.023   3.004   0.078
  758  SOL  HW2 2408   1.980   2.868   0.028
  759  SOL   OW 2409   2.686   0.115   1.701
  759  SOL  HW1 2410   2.667   0.201   1.739
  759  SOL  HW2 2411   2.781   0.112   1.694
  760  SOL   OW 2412   0.327   3.006   1.470
  760  SOL  HW1 2413   0.263   2.958   1.418
  760  SOL  HW2 2414   0.348   3.084   1.418
  761  SOL   OW 2415   0.872   1.483   2.522
  761  SOL  HW1 2416   0.802   1.424   2.552
  761  SOL  HW2 2417   0.846   1.569   2.554
  762  SOL   OW 2418   1.653   1.104   3.305
  762  SOL  HW1 2419   1.705   1.024   3.303
  762  SOL  HW2 2420   1.592   1.091   3.378
  763  SOL   OW 2421   2.613   1.096   2.219
  763  SOL  HW1 2422   2.627   1.002   2.225
  763  SOL  HW2 2423   2.667   1.133   2.289
  764  SOL   OW 2424   2.461   0.027   0.310
  764  SOL  HW1 2425   2.401   0.072   0.370
  764  SOL  HW2 2426   2.410   0.015   0.230
  765  SOL   OW 2427   2.955   2.449   3.236
  765  SOL  HW1 2428   2.874   2.475   3.280
  765  SOL  HW2 2429   3.011   2.417   3.306
  766  SOL   OW 2430   2.258   0.568   0.499
  766  SOL  HW1 2431   2.272   0.648   0.449
  766  SOL  HW2 2432   2.234   0.503   0.434
  767  SOL   OW 2433   1.115   1.620   2.825
  767  SOL  HW1 2434   1.181   1.688   2.837
  767  SOL  HW2 2435   1.037   1.655   2.868
  768  SOL   OW 2436   2.836   2.886   0.751
  768  SOL  HW1 2437   2.929   2.910   0.750
  768  SOL  HW2 2438   2.810   2.885   0.659
  769  SOL   OW 2439   0.144   2.200   0.378
  769  SOL  HW1 2440   0.235   2.224   0.397
  769  SOL  HW2 2441   0.108   2.174   0.463
  770  SOL   OW 2442   2.405   2.908   1.071
  770  SOL  HW1 2443   2.428   2.897   0.979
  770  SOL  HW2 2444   2.464   2.848   1.117
  771  SOL   OW 2445   2.373   1.841   1.556
  771  SOL  HW1 2446   2.391   1.935   1.564
  771  SOL  HW2 2447   2.460   1.800   1.560
  772  SOL   OW 2448   0.635   1.685   0.879
  772  SOL  HW1 2449   0.673   1.598   0.893
  772  SOL  HW2 2450   0.570   1.693   0.949
  773  SOL   OW 2451   1.937   1.413   1.321
  773  SOL  HW1 2452   1.982   1.465   1.254
  773  SOL  HW2 2453   2.007   1.383   1.379
  774  SOL   OW 2454   1.170   1.025   0.056
  774  SOL  HW1 2455   1.195   0.978   0.135
  774  SOL  HW2 2456   1.253   1.047   0.013
  775  SOL   OW 2457   3.289   2.977   0.952
  775  SOL  HW1 2458   3.197   2.950   0.957
  775  SOL  HW2 2459   3.317   2.952   0.863
  776  SOL   OW 2460   0.199   3.423   3.159
  776  SOL  HW1 2461   0.121   3.420   3.216
  776  SOL  HW2 2462   0.205   3.335   3.122
  777  SOL   OW 2463   0.085   1.393   2.964
  777  SOL  HW1 2464   0.035   1.453   3.020
  777  SOL  HW2 2465   0.071   1.427   2.875
  778  SOL   OW 2466   0.975   1.443   1.697
  778  SOL  HW1 2467   1.014   1.360   1.669
  778  SOL  HW2 2468   1.014   1.461   1.782
  779  SOL   OW 2469   2.227   3.157   2.821
  779  SOL  HW1 2470   2.255   3.172   2.912
  779  SOL  HW2 2471   2.134   3.135   2.828
  780  SOL   OW 2472   0.105   3.372   2.413
  780  SOL  HW1 2473   0.114   3.334   2.326
  780  SOL  HW2 2474   0.185   3.423   2.425
  781  SOL   OW 2475   2.554   1.084   3.130
  781  SOL  HW1 2476   2.558   1.024   3.055
  781  SOL  HW2 2477   2.631   1.062   3.182
  782  SOL   OW 2478   2.290   0.688   0.099
  782  SOL  HW1 2479   2.327   0.624   0.038
  782  SOL  HW2 2480   2.271   0.637   0.178
  783  SOL   OW 2481   2.365   0.567   2.459
  783  SOL  HW1 2482   2.358   0.651   2.504
  783  SOL  HW2 2483   2.400   0.508   2.525
  784  SOL   OW 2484   1.590   2.900   0.473
  784  SOL  HW1 2485   1.494   2.902   0.482
  784  SOL  HW2 2486   1.622   2.929   0.558
  785  SOL   OW 2487   0.334   2.899   2.333
  785  SOL  HW1 2488   0.295   2.949   2.261
  785  SOL  HW2 2489   0.410   2.856   2.294
  786  SOL   OW 2490   2.840   1.600   3.220
  786  SOL  HW1 2491   2.852   1.509   3.195
  786  SOL  HW2 2492   2.922   1.625   3.262
  787  SOL   OW 2493   2.969   0.899   1.176
  787  SOL  HW1 2494   2.894   0.901   1.236
  787  SOL  HW2 2495   2.980   0.806   1.155
  788  SOL   OW 2496   3.325   1.149   0.860
  788  SOL  HW1 2497   3.313   1.182   0.948
  788  SOL  HW2 2498   3.290   1.060   0.863
  789  SOL   OW 2499   0.871   2.797   2.068
  789  SOL  HW1 2500   0.826   2.878   2.046
  789  SOL  HW2 2501   0.800   2.737   2.093
  790  SOL   OW 2502   2.995   2.035   0.734
  790  SOL  HW1 2503   3.064   2.088   0.694
  790  SOL  HW2 2504   2.927   2.097   0.759
  791  SOL   OW 2505   0.456   1.648   2.677
  791  SOL  HW1 2506   0.415   1.614   2.598
  791  SOL  HW2 2507   0.546   1.668   2.651
  792  SOL   OW 2508   2.988   3.115   1.299
  792  SOL  HW1 2509   2.954   3.203   1.313
  792  SOL  HW2 2510   2.986   3.103   1.204
  793  SOL   OW 2511   1.460   2.742   1.072
  793  SOL  HW1 2512   1.452   2.647   1.071
  793  SOL  HW2 2513   1.553   2.758   1.090
  794  SOL   OW 2514   1.736   3.144   1.625
  794  SOL  HW1 2515   1.750   3.117   1.534
  794  SOL  HW2 2516   1.643   3.129   1.641
  795  SOL   OW 2517   2.660   2.686   1.449
  795  SOL  HW1 2518   2.579   2.646   1.417
  795  SOL  HW2 2519   2.723   2.614   1.451
  796  SOL   OW 2520   0.274   3.213   2.817
  796  SOL  HW1 2521   0.195   3.226   2.765
  796  SOL  HW2 2522   0.303   3.301   2.839
  797  SOL   OW 2523   1.397   2.163   0.893
  797  SOL  HW1 2524   1.306   2.161   0.865
  797  SOL  HW2 2525   1.417   2.071   0.914
  798  SOL   OW 2526   3.381   1.082   3.329
  798  SOL  HW1 2527   3.362   0.999   3.374
  798  SOL  HW2 2528   3.345   1.070   3.241
  799  SOL   OW 2529   1.153   3.489   3.378
  799  SOL  HW1 2530   1.097   3.561   3.407
  799  SOL  HW2 2531   1.176   3.443   3.459
  800  SOL   OW 2532   1.124   1.003   1.280
  800  SOL  HW1 2533   1.195   0.973   1.337
  800  SOL  HW2 2534   1.057   0.935   1.289
  801  SOL   OW 2535   0.124   1.497   1.874
  801  SOL  HW1 2536   0.119   1.574   1.817
  801  SOL  HW2 2537   0.215   1.496   1.904
  802  SOL   OW 2538   2.303   2.080   2.896
  802  SOL  HW1 2539   2.216   2.102   2.929
  802  SOL  HW2 2540   2.289   2.001   2.843
  803  SOL   OW 2541   3.515   2.426   3.440
  803  SOL  HW1 2542   3.491   2.352   3.384
  803  SOL  HW2 2543   3.521   2.501   3.380
  804  SOL   OW 2544   1.509   0.746   0.565
  804  SOL  HW1 2545   1.469   0.708   0.487
  804  SOL  HW2 2546   1.458   0.711   0.638
  805  SOL   OW 2547   0.275   1.400   1.260
  805  SOL  HW1 2548   0.317   1.374   1.342
  805  SOL  HW2 2549   0.182   1.409   1.282
  806  SOL   OW 2550   0.483   0.696   0.429
  806  SOL  HW1 2551   0.535   0.716   0.507
  806  SOL  HW2 2552   0.451   0.781   0.399
  807  SOL   OW 2553   3.277   1.656   0.750
  807  SOL  HW1 2554   3.249   1.702   0.670
  807  SOL  HW2 2555   3.280   1.564   0.725
  808  SOL   OW 2556   2.842   0.741   2.927
  808  SOL  HW1 2557   2.859   0.669   2.987
  808  SOL  HW2 2558   2.852   0.702   2.840
  809  SOL   OW 2559   2.315   0.674   1.415
  809  SOL  HW1 2560   2.324   0.612   1.342
  809  SOL  HW2 2561   2.227   0.659   1.449
  810  SOL   OW 2562   3.127   2.245   2.528
  810  SOL  HW1 2563   3.050   2.188   2.536
  810  SOL  HW2 2564   3.172   2.237   2.611
  811  SOL   OW 2565   2.539   2.692   1.177
  811  SOL  HW1 2566   2.634   2.697   1.191
  811  SOL  HW2 2567   2.528   2.620   1.115
  812  SOL   OW 2568   2.772   2.512   3.501
  812  SOL  HW1 2569   2.829   2.438   3.522
  812  SOL  HW2 2570   2.683   2.476   3.505
  813  SOL   OW 2571   2.783   0.460   1.387
  813  SOL  HW1 2572   2.703   0.425   1.427
  813  SOL  HW2 2573   2.754   0.497   1.304
  814  SOL   OW 2574   3.107   2.591   2.825
  814  SOL  HW1 2575   3.089   2.632   2.740
  814  SOL  HW2 2576   3.156   2.658   2.873
  815  SOL   OW 2577   0.403   1.893   1.776
  815  SOL  HW1 2578   0.442   1.924   1.695
  815  SOL  HW2 2579   0.475   1.897   1.840
  816  SOL   OW 2580   0.207   2.794   3.468
  816  SOL  HW1 2581   0.153   2.735   3.416
  816  SOL  HW2 2582   0.296   2.782   3.434
  817  SOL   OW 2583   1.693   0.094   2.466
  817  SOL  HW1 2584   1.740   0.160   2.517
  817  SOL  HW2 2585   1.745   0.084   2.387
  818  SOL   OW 2586   1.868   2.898   3.341
  818  SOL  HW1 2587   1.820   2.840   3.282
  818  SOL  HW2 2588   1.809   2.912   3.415
  819  SOL   OW 2589   2.476   0.890   1.391
  819  SOL  HW1 2590   2.441   0.976   1.414
  819  SOL  HW2 2591   2.407   0.829   1.416
  820  SOL   OW 2592   1.414   2.340   0.226
  820  SOL  HW1 2593   1.411   2.421   0.278
  820  SOL  HW2 2594   1.505   2.310   0.235
  821  SOL   OW 2595   2.998   1.875   0.974
  821  SOL  HW1 2596   2.983   1.947   0.914
  821  SOL  HW2 2597   2.989   1.796   0.920
  822  SOL   OW 2598   2.142   2.424   3.081
  822  SOL  HW1 2599   2.155   2.421   2.986
  822  SOL  HW2 2600   2.222   2.385   3.117
  823  SOL   OW 2601   0.627   1.975   0.488
  823  SOL  HW1 2602   0.561   1.991   0.420
  823  SOL  HW2 2603   0.613   1.884   0.514
  824  SOL   OW 2604   0.959   3.115   1.671
  824  SOL  HW1 2605   0.873   3.083   1.644
  824  SOL  HW2 2606   0.986   3.054   1.740
  825  SOL   OW 2607   0.766   0.641   0.302
  825  SOL  HW1 2608   0.847   0.607   0.340
  825  SOL  HW2 2609   0.777   0.627   0.208
  826  SOL   OW 2610   0.630   0.576   1.831
  826  SOL  HW1 2611   0.670   0.660   1.853
  826  SOL  HW2 2612   0.598   0.587   1.742
  827  SOL   OW 2613   2.389   2.820   3.035
  827  SOL  HW1 2614   2.380   2.778   2.949
  827  SOL  HW2 2615   2.409   2.911   3.015
  828  SOL   OW 2616   2.784   2.622   2.423
  828  SOL  HW1 2617   2.771   2.535   2.460
  828  SOL  HW2 2618   2.696   2.659   2.417
  829  SOL   OW 2619   2.334   1.049   1.022
  829  SOL  HW1 2620   2.355   1.127   0.971
  829  SOL  HW2 2621   2.243   1.029   1.000
  830  SOL   OW 2622   1.679   2.127   3.462
  830  SOL  HW1 2623   1.770   2.098   3.466
  830  SOL  HW2 2624   1.637   2.088   3.538
  831  SOL   OW 2625   2.820   1.405   2.159
  831  SOL  HW1 2626   2.814   1.310   2.149
  831  SOL  HW2 2627   2.729   1.434   2.174
  832  SOL   OW 2628   1.667   3.405   0.642
  832  SOL  HW1 2629   1.728   3.340   0.608
  832  SOL  HW2 2630   1.717   3.453   0.708
  833  SOL   OW 2631   3.477   0.887   1.028
  833  SOL  HW1 2632   3.494   0.938   1.107
  833  SOL  HW2 2633   3.435   0.807   1.060
  834  SOL   OW 2634   3.099   3.036   1.857
  834  SOL  HW1 2635   3.095   3.041   1.761
  834  SOL  HW2 2636   3.047   2.959   1.879
  835  SOL   OW 2637   1.955   3.157   2.919
  835  SOL  HW1 2638   1.905   3.238   2.934
  835  SOL  HW2 2639   1.891   3.097   2.880
  836  SOL   OW 2640   0.129   0.278   1.750
  836  SOL  HW1 2641   0.168   0.351   1.703
  836  SOL  HW2 2642   0.076   0.232   1.684
  837  SOL   OW 2643   0.231   1.667   0.608
  837  SOL  HW1 2644   0.198   1.581   0.636
  837  SOL  HW2 2645   0.322   1.651   0.585
  838  SOL   OW 2646   0.333   1.736   1.347
  838  SOL  HW1 2647   0.252   1.769   1.308
  838  SOL  HW2 2648   0.305   1.673   1.413
  839  SOL   OW 2649   0.893   0.068   2.591
  839  SOL  HW1 2650   0.980   0.100   2.567
  839  SOL  HW2 2651   0.907   0.018   2.671
  840  SOL   OW 2652   0.927   0.959   2.149
  840  SOL  HW1 2653   1.005   0.938   2.098
  840  SOL  HW2 2654   0.941   0.916   2.233
  841  SOL   OW 2655   3.341   1.955   2.759
  841  SOL  HW1 2656   3.398   1.879   2.747
  841  SOL  HW2 2657   3.368   2.017   2.692
  842  SOL   OW 2658   0.779   3.090   2.229
  842  SOL  HW1 2659   0.736   3.170   2.260
  842  SOL  HW2 2660   0.774   3.095   2.134
  843  SOL   OW 2661   2.082   1.905   1.921
  843  SOL  HW1 2662   2.014   1.916   1.988
  843  SOL  HW2 2663   2.153   1.860   1.967
  844  SOL   OW 2664   0.585   3.371   0.036
  844  SOL  HW1 2665   0.623   3.306  -0.022
  844  SOL  HW2 2666   0.625   3.353   0.121
  845  SOL   OW 2667   1.815   3.333   2.081
  845  SOL  HW1 2668   1.868   3.403   2.042
  845  SOL  HW2 2669   1.736   3.329   2.027
  846  SOL   OW 2670   2.247   1.233   2.086
  846  SOL  HW1 2671   2.205   1.147   2.096
  846  SOL  HW2 2672   2.175   1.295   2.087
  847  SOL   OW 2673   1.949   3.186   0.381
  847  SOL  HW1 2674   1.922   3.126   0.311
  847  SOL  HW2 2675   1.882   3.176   0.448
  848  SOL   OW 2676   3.252   3.182   3.383
  848  SOL  HW1 2677   3.336   3.193   3.427
  848  SOL  HW2 2678   3.248   3.088   3.363
  849  SOL   OW 2679   0.620   2.541   1.788
  849  SOL  HW1 2680   0.569   2.487   1.728
  849  SOL  HW2 2681   0.565   2.551   1.865
  850  SOL   OW 2682   2.666   1.645   2.121
  850  SOL  HW1 2683   2.718   1.676   2.196
  850  SOL  HW2 2684   2.610   1.576   2.157
  851  SOL   OW 2685   0.091   1.309   1.004
  851  SOL  HW1 2686   0.056   1.220   1.011
  851  SOL  HW2 2687   0.017   1.366   1.026
  852  SOL   OW 2688   2.312   1.422   2.283
  852  SOL  HW1 2689   2.288   1.331   2.264
  852  SOL  HW2 2690   2.274   1.472   2.211
  853  SOL   OW 2691   2.759   2.864   0.027
  853  SOL  HW1 2692   2.851   2.840   0.038
  853  SOL  HW2 2693   2.757   2.916  -0.053
  854  SOL   OW 2694   0.709   2.541   2.669
  854  SOL  HW1 2695   0.634   2.500   2.625
  854  SOL  HW2 2696   0.681   2.549   2.760
  855  SOL   OW 2697   2.730   0.834   2.119
  855  SOL  HW1 2698   2.766   0.763   2.066
  855  SOL  HW2 2699   2.679   0.886   2.057
  856  SOL   OW 2700   1.309   2.669   0.058
  856  SOL  HW1 2701   1.394   2.625   0.058
  856  SOL  HW2 2702   1.302   2.708   0.145
  857  SOL   OW 2703   2.740   1.130   2.460
  857  SOL  HW1 2704   2.818   1.123   2.514
  857  SOL  HW2 2705   2.693   1.048   2.475
  858  SOL   OW 2706   2.966   1.101   2.647
  858  SOL  HW1 2707   2.961   1.067   2.736
  858  SOL  HW2 2708   2.988   1.194   2.658
  859  SOL   OW 2709   1.372   0.199   1.986
  859  SOL  HW1 2710   1.294   0.148   1.968
  859  SOL  HW2 2711   1.345   0.290   1.973
  860  SOL   OW 2712   1.939   3.265   0.703
  860  SOL  HW1 2713   1.898   3.344   0.737
  860  SOL  HW2 2714   2.021   3.257   0.751
  861  SOL   OW 2715   2.593   1.190   0.679
  861  SOL  HW1 2716   2.689   1.188   0.684
  861  SOL  HW2 2717   2.567   1.098   0.677
  862  SOL   OW 2718   1.186   3.199   1.786
  862  SOL  HW1 2719   1.115   3.199   1.722
  862  SOL  HW2 2720   1.185   3.111   1.823
  863  SOL   OW 2721   0.266   1.666   2.916
  863  SOL  HW1 2722   0.287   1.603   2.847
  863  SOL  HW2 2723   0.256   1.612   2.995
  864  SOL   OW 2724   1.943   0.572   0.202
  864  SOL  HW1 2725   1.944   0.662   0.233
  864  SOL  HW2 2726   1.948   0.578   0.107
  865  SOL   OW 2727   0.732   3.155   3.431
  865  SOL  HW1 2728   0.683   3.119   3.358
  865  SOL  HW2 2729   0.823   3.132   3.412
  866  SOL   OW 2730   2.927   0.344   1.832
  866  SOL  HW1 2731   2.959   0.258   1.805
  866  SOL  HW2 2732   2.909   0.335   1.925
  867  SOL   OW 2733   2.500   2.234   3.498
  867  SOL  HW1 2734   2.558   2.264   3.567
  867  SOL  HW2 2735   2.494   2.308   3.437
  868  SOL   OW 2736   3.441   3.259   3.051
  868  SOL  HW1 2737   3.483   3.237   3.135
  868  SOL  HW2 2738   3.434   3.175   3.005
  869  SOL   OW 2739   1.919   2.325   0.744
  869  SOL  HW1 2740   1.991   2.277   0.786
  869  SOL  HW2 2741   1.850   2.260   0.734
  870  SOL   OW 2742   1.990   0.867   0.838
  870  SOL  HW1 2743   1.973   0.953   0.801
  870  SOL  HW2 2744   1.906   0.821   0.832
  871  SOL   OW 2745   3.347   2.918   0.502
  871  SOL  HW1 2746   3.403   2.993   0.519
  871  SOL  HW2 2747   3.408   2.850   0.471
  872  SOL   OW 2748   0.640   2.096   0.138
  872  SOL  HW1 2749   0.554   2.057   0.125
  872  SOL  HW2 2750   0.628   2.159   0.209
  873  SOL   OW 2751   0.434   0.928   3.034
  873  SOL  HW1 2752   0.386   1.009   3.049
  873  SOL  HW2 2753   0.520   0.943   3.074
  874  SOL   OW 2754   3.053   1.714   2.145
  874  SOL  HW1 2755   3.041   1.651   2.216
  874  SOL  HW2 2756   3.077   1.796   2.189
  875  SOL   OW 2757   3.247   0.075   3.168
  875  SOL  HW1 2758   3.157   0.101   3.187
  875  SOL  HW2 2759   3.251   0.070   3.073
  876  SOL   OW 2760   1.086   0.548   1.120
  876  SOL  HW1 2761   1.107   0.521   1.210
  876  SOL  HW2 2762   0.996   0.581   1.126
  877  SOL   OW 2763   2.626   1.753   3.228
  877  SOL  HW1 2764   2.608   1.742   3.322
  877  SOL  HW2 2765   2.702   1.698   3.212
  878  SOL   OW 2766   2.463   2.578   2.453
  878  SOL  HW1 2767   2.476   2.567   2.548
  878  SOL  HW2 2768   2.372   2.552   2.438
  879  SOL   OW 2769   0.729   2.352   1.542
  879  SOL  HW1 2770   0.675   2.391   1.473
  879  SOL  HW2 2771   0.815   2.342   1.503
  880  SOL   OW 2772   2.071   0.950   1.548
  880  SOL  HW1 2773   2.071   1.022   1.611
  880  SOL  HW2 2774   2.054   0.992   1.463
  881  SOL   OW 2775   1.613   1.081   0.961
  881  SOL  HW1 2776   1.624   1.018   1.033
  881  SOL  HW2 2777   1.676   1.150   0.980
  882  SOL   OW 2778   1.949   2.402   2.798
  882  SOL  HW1 2779   1.861   2.431   2.773
  882  SOL  HW2 2780   2.007   2.439   2.731
  883  SOL   OW 2781   0.798   0.825   0.803
  883  SOL  HW1 2782   0.719   0.778   0.777
  883  SOL  HW2 2783   0.782   0.849   0.895
  884  SOL   OW 2784   2.267   1.179   0.512
  884  SOL  HW1 2785   2.314   1.097   0.529
  884  SOL  HW2 2786   2.264   1.223   0.597
  885  SOL   OW 2787   1.842   1.414   3.226
  885  SOL  HW1 2788   1.840   1.404   3.131
  885  SOL  HW2 2789   1.922   1.369   3.253
  886  SOL   OW 2790   1.704   2.019   1.631
  886  SOL  HW1 2791   1.621   1.997   1.589
  886  SOL  HW2 2792   1.704   1.967   1.712
  887  SOL   OW 2793   0.056   2.652   0.625
  887  SOL  HW1 2794   0.003   2.709   0.682
  887  SOL  HW2 2795   0.129   2.708   0.599
  888  SOL   OW 2796   0.656   2.102   1.212
  888  SOL  HW1 2797   0.570   2.076   1.178
  888  SOL  HW2 2798   0.676   2.183   1.165
  889  SOL   OW 2799   2.284   2.487   1.175
  889  SOL  HW1 2800   2.208   2.439   1.208
  889  SOL  HW2 2801   2.255   2.522   1.091
  890  SOL   OW 2802   0.753   0.937   0.016
  890  SOL  HW1 2803   0.770   0.950   0.110
  890  SOL  HW2 2804   0.827   0.980  -0.028
  891  SOL   OW 2805   1.162   1.058   3.236
  891  SOL  HW1 2806   1.181   1.137   3.287
  891  SOL  HW2 2807   1.082   1.024   3.276
  892  SOL   OW 2808   0.483   1.185   2.531
  892  SOL  HW1 2809   0.415   1.238   2.574
  892  SOL  HW2 2810   0.497   1.227   2.447
  893  SOL   OW 2811   0.400   1.989   1.179
  893  SOL  HW1 2812   0.354   1.953   1.102
  893  SOL  HW2 2813   0.332   2.035   1.228
  894  SOL   OW 2814   1.577   0.219   2.887
  894  SOL  HW1 2815   1.523   0.144   2.911
  894  SOL  HW2 2816   1.665   0.195   2.915
  895  SOL   OW 2817   2.025   1.923   2.685
  895  SOL  HW1 2818   2.007   2.016   2.675
  895  SOL  HW2 2819   1.974   1.896   2.761
  896  SOL   OW 2820   2.776   3.062   1.815
  896  SOL  HW1 2821   2.847   3.106   1.861
  896  SOL  HW2 2822   2.778   3.099   1.726
  897  SOL   OW 2823   0.312   1.394   2.610
  897  SOL  HW1 2824   0.270   1.442   2.539
  897  SOL  HW2 2825   0.244   1.335   2.643
  898  SOL   OW 2826   0.582   0.675   3.100
  898  SOL  HW1 2827   0.572   0.670   3.195
  898  SOL  HW2 2828   0.573   0.768   3.080
  899  SOL   OW 2829   3.126   0.069   1.412
  899  SOL  HW1 2830   3.053   0.055   1.352
  899  SOL  HW2 2831   3.163   0.153   1.385
  900  SOL   OW 2832   0.343   2.294   1.108
  900  SOL  HW1 2833   0.267   2.332   1.152
  900  SOL  HW2 2834   0.380   2.233   1.173
  901  SOL   OW 2835   1.854   1.808   0.500
  901  SOL  HW1 2836   1.839   1.748   0.572
  901  SOL  HW2 2837   1.894   1.755   0.432
  902  SOL   OW 2838   1.404   0.028   0.662
  902  SOL  HW1 2839   1.421   0.119   0.686
  902  SOL  HW2 2840   1.489  -0.014   0.667
  903  SOL   OW 2841   2.986   0.269   1.002
  903  SOL  HW1 2842   3.076   0.299   0.987
  903  SOL  HW2 2843   2.967   0.213   0.927
  904  SOL   OW 2844   2.809   1.643   2.384
  904  SOL  HW1 2845   2.796   1.565   2.439
  904  SOL  HW2 2846   2.846   1.708   2.444
  905  SOL   OW 2847   1.823   3.100   1.365
  905  SOL  HW1 2848   1.875   3.180   1.362
  905  SOL  HW2 2849   1.827   3.066   1.276
  906  SOL   OW 2850   1.434   0.332   2.494
  906  SOL  HW1 2851   1.527   0.308   2.489
  906  SOL  HW2 2852   1.391   0.278   2.428
  907  SOL   OW 2853   1.038   1.270   2.147
  907  SOL  HW1 2854   1.055   1.358   2.111
  907  SOL  HW2 2855   0.997   1.287   2.232
  908  SOL   OW 2856   3.153   2.222   3.113
  908  SOL  HW1 2857   3.221   2.203   3.049
  908  SOL  HW2 2858   3.071   2.215   3.063
  909  SOL   OW 2859   1.833   2.116   1.326
  909  SOL  HW1 2860   1.906   2.173   1.351
  909  SOL  HW2 2861   1.857   2.030   1.361
  910  SOL   OW 2862   3.198   0.058   0.380
  910  SOL  HW1 2863   3.194   0.085   0.288
  910  SOL  HW2 2864   3.141  -0.019   0.385
  911  SOL   OW 2865   0.823   2.153   3.112
  911  SOL  HW1 2866   0.739   2.107   3.108
  911  SOL  HW2 2867   0.877   2.099   3.168
  912  SOL   OW 2868   2.896   1.383   0.588
  912  SOL  HW1 2869   2.933   1.349   0.669
  912  SOL  HW2 2870   2.802   1.393   0.606
  913  SOL   OW 2871   0.192   0.009   1.946
  913  SOL  HW1 2872   0.166   0.101   1.952
  913  SOL  HW2 2873   0.148  -0.033   2.021
  914  SOL   OW 2874   3.438   2.315   1.424
  914  SOL  HW1 2875   3.449   2.351   1.336
  914  SOL  HW2 2876   3.452   2.390   1.482
  915  SOL   OW 2877   0.316   1.736   0.053
  915  SOL  HW1 2878   0.317   1.740   0.148
  915  SOL  HW2 2879   0.227   1.712   0.030
  916  SOL   OW 2880   2.512   0.043   1.477
  916  SOL  HW1 2881   2.427   0.086   1.485
  916  SOL  HW2 2882   2.571   0.095   1.531
  917  SOL   OW 2883   2.466   1.722   0.680
  917  SOL  HW1 2884   2.378   1.758   0.668
  917  SOL  HW2 2885   2.521   1.770   0.618
  918  SOL   OW 2886   2.586   0.858   2.939
  918  SOL  HW1 2887   2.570   0.771   2.901
  918  SOL  HW2 2888   2.681   0.864   2.945
  919  SOL   OW 2889   0.526   1.268   1.030
  919  SOL  HW1 2890   0.434   1.242   1.037
  919  SOL  HW2 2891   0.574   1.198   1.074
  920  SOL   OW 2892   3.443   0.558   1.858
  920  SOL  HW1 2893   3.418   0.601   1.776
  920  SOL  HW2 2894   3.538   0.550   1.852
  921  SOL   OW 2895   1.843   0.891   3.292
  921  SOL  HW1 2896   1.814   0.820   3.235
  921  SOL  HW2 2897   1.935   0.872   3.309
  922  SOL   OW 2898   1.370   1.087   2.832
  922  SOL  HW1 2899   1.346   1.082   2.740
  922  SOL  HW2 2900   1.302   1.141   2.872
  923  SOL   OW 2901   3.079   0.883   3.214
  923  SOL  HW1 2902   3.087   0.882   3.309
  923  SOL  HW2 2903   3.057   0.793   3.190
  924  SOL   OW 2904   0.473   1.998   2.669
  924  SOL  HW1 2905   0.484   1.933   2.738
  924  SOL  HW2 2906   0.392   1.973   2.625
  925  SOL   OW 2907   0.669   2.370   2.230
  925  SOL  HW1 2908   0.691   2.447   2.283
  925  SOL  HW2 2909   0.583   2.343   2.262
  926  SOL   OW 2910   0.028   3.188   0.312
  926  SOL  HW1 2911   0.096   3.151   0.369
  926  SOL  HW2 2912   0.036   3.139   0.230
  927  SOL   OW 2913   2.755   3.268   0.787
  927  SOL  HW1 2914   2.842   3.276   0.826
  927  SOL  HW2 2915   2.771   3.255   0.694
  928  SOL   OW 2916   0.087   2.632   3.284
  928  SOL  HW1 2917   0.027   2.639   3.209
  928  SOL  HW2 2918   0.150   2.565   3.259
  929  SOL   OW 2919   2.658   2.006   1.083
  929  SOL  HW1 2920   2.600   2.002   1.159
  929  SOL  HW2 2921   2.702   1.921   1.083
  930  SOL   OW 2922   1.750   0.710   2.048
  930  SOL  HW1 2923   1.666   0.665   2.048
  930  SOL  HW2 2924   1.792   0.681   1.966
  931  SOL   OW 2925   0.439   2.869   2.762
  931  SOL  HW1 2926   0.514   2.841   2.712
  931  SOL  HW2 2927   0.469   2.871   2.853
  932  SOL   OW 2928   3.017   2.695   2.545
  932  SOL  HW1 2929   2.939   2.675   2.494
  932  SOL  HW2 2930   3.077   2.623   2.527
  933  SOL   OW 2931   3.210   3.488   1.821
  933  SOL  HW1 2932   3.279   3.525   1.875
  933  SOL  HW2 2933   3.256   3.445   1.749
  934  SOL   OW 2934   1.558   1.667   3.086
  934  SOL  HW1 2935   1.539   1.575   3.066
  934  SOL  HW2 2936   1.603   1.664   3.171
  935  SOL   OW 2937   0.415   1.261   1.453
  935  SOL  HW1 2938   0.395   1.209   1.530
  935  SOL  HW2 2939   0.399   1.202   1.379
  936  SOL   OW 2940   2.526   2.406   1.904
  936  SOL  HW1 2941   2.506   2.360   1.986
  936  SOL  HW2 2942   2.620   2.396   1.893
  937  SOL   OW 2943   2.782   0.274   2.744
  937  SOL  HW1 2944   2.868   0.249   2.709
  937  SOL  HW2 2945   2.746   0.334   2.678
  938  SOL   OW 2946   3.338   2.870   2.542
  938  SOL  HW1 2947   3.327   2.813   2.466
  938  SOL  HW2 2948   3.248   2.891   2.569
  939  SOL   OW 2949   1.571   1.902   0.677
  939  SOL  HW1 2950   1.475   1.900   0.679
  939  SOL  HW2 2951   1.596   1.814   0.650
  940  SOL   OW 2952   0.452   0.865   1.725
  940  SOL  HW1 2953   0.515   0.800   1.695
  940  SOL  HW2 2954   0.503   0.926   1.777
  941  SOL   OW 2955   3.237   2.031   1.519
  941  SOL  HW1 2956   3.172   2.013   1.451
  941  SOL  HW2 2957   3.209   1.979   1.594
  942  SOL   OW 2958   0.829   3.436   1.851
  942  SOL  HW1 2959   0.765   3.388   1.903
  942  SOL  HW2 2960   0.833   3.391   1.767
  943  SOL   OW 2961   2.870   0.645   2.006
  943  SOL  HW1 2962   2.953   0.598   2.004
  943  SOL  HW2 2963   2.858   0.675   1.916
  944  SOL   OW 2964   1.734   1.883   2.179
  944  SOL  HW1 2965   1.757   1.903   2.088
  944  SOL  HW2 2966   1.653   1.833   2.173
  945  SOL   OW 2967   0.614   2.592   2.376
  945  SOL  HW1 2968   0.681   2.645   2.420
  945  SOL  HW2 2969   0.545   2.582   2.441
  946  SOL   OW 2970   0.670   0.394   1.401
  946  SOL  HW1 2971   0.750   0.342   1.388
  946  SOL  HW2 2972   0.695   0.482   1.373
  947  SOL   OW 2973   0.330   0.586   1.367
  947  SOL  HW1 2974   0.289   0.672   1.360
  947  SOL  HW2 2975   0.366   0.569   1.280
  948  SOL   OW 2976   0.377   3.017   1.061
  948  SOL  HW1 2977   0.445   3.083   1.046
  948  SOL  HW2 2978   0.350   3.030   1.152
  949  SOL   OW 2979   1.340   1.216   2.555
  949  SOL  HW1 2980   1.323   1.308   2.573
  949  SOL  HW2 2981   1.434   1.211   2.536
  950  SOL   OW 2982   0.989   1.353   2.839
  950  SOL  HW1 2983   1.047   1.426   2.816
  950  SOL  HW2 2984   1.025   1.278   2.791
  951  SOL   OW 2985   2.036   1.674   0.331
  951  SOL  HW1 2986   2.009   1.605   0.270
  951  SOL  HW2 2987   2.132   1.671   0.330
  952  SOL   OW 2988   3.281   1.547   1.235
  952  SOL  HW1 2989   3.288   1.513   1.145
  952  SOL  HW2 2990   3.190   1.529   1.260
  953  SOL   OW 2991   0.771   1.818   2.337
  953  SOL  HW1 2992   0.829   1.851   2.269
  953  SOL  HW2 2993   0.707   1.889   2.350
  954  SOL   OW 2994   0.451   0.565   2.407
  954  SOL  HW1 2995   0.492   0.644   2.373
  954  SOL  HW2 2996   0.358   0.579   2.397
  955  SOL   OW 2997   1.302   1.348   0.110
  955  SOL  HW1 2998   1.341   1.275   0.158
  955  SOL  HW2 2999   1.365   1.419   0.119
  956  SOL   OW 3000   1.553   1.902   0.953
  956  SOL  HW1 3001   1.558   1.821   0.902
  956  SOL  HW2 3002   1.641   1.913   0.989
  957  SOL   OW 3003   0.937   0.834   3.018
  957  SOL  HW1 3004   0.918   0.758   3.074
  957  SOL  HW2 3005   0.991   0.798   2.947
  958  SOL   OW 3006   0.053   1.334   0.420
  958  SOL  HW1 3007   0.100   1.323   0.337
  958  SOL  HW2 3008   0.122   1.338   0.486
  959  SOL   OW 3009   0.405   1.803   2.309
  959  SOL  HW1 3010   0.491   1.797   2.350
  959  SOL  HW2 3011   0.419   1.860   2.233
  960  SOL   OW 3012   2.982   1.616   1.322
  960  SOL  HW1 3013   3.047   1.636   1.390
  960  SOL  HW2 3014   2.919   1.559   1.365
  961  SOL   OW 3015   1.372   0.194   2.266
  961  SOL  HW1 3016   1.389   0.149   2.183
  961  SOL  HW2 3017   1.281   0.174   2.286
  962  SOL   OW 3018   1.820   2.190   2.051
  962  SOL  HW1 3019   1.825   2.243   1.971
  962  SOL  HW2 3020   1.754   2.123   2.032
  963  SOL   OW 3021   2.624   1.201   1.282
  963  SOL  HW1 3022   2.679   1.148   1.339
  963  SOL  HW2 3023   2.639   1.164   1.195
  964  SOL   OW 3024   3.496   3.203   1.926
  964  SOL  HW1 3025   3.451   3.130   1.969
  964  SOL  HW2 3026   3.487   3.276   1.987
  965  SOL   OW 3027   1.365   0.486   1.060
  965  SOL  HW1 3028   1.284   0.458   1.020
  965  SOL  HW2 3029   1.349   0.479   1.154
  966  SOL   OW 3030   1.562   3.383   1.459
  966  SOL  HW1 3031   1.602   3.412   1.377
  966  SOL  HW2 3032   1.618   3.419   1.527
  967  SOL   OW 3033   1.576   1.553   1.884
  967  SOL  HW1 3034   1.519   1.564   1.807
  967  SOL  HW2 3035   1.531   1.601   1.954
  968  SOL   OW 3036   3.312   1.951   0.796
  968  SOL  HW1 3037   3.377   1.900   0.747
  968  SOL  HW2 3038   3.244   1.888   0.818
  969  SOL   OW 3039   1.307   0.401   0.300
  969  SOL  HW1 3040   1.250   0.388   0.224
  969  SOL  HW2 3041   1.327   0.312   0.331
  970  SOL   OW 3042   1.847   1.252   0.968
  970  SOL  HW1 3043   1.818   1.318   1.031
  970  SOL  HW2 3044   1.880   1.303   0.894
  971  SOL   OW 3045   1.287   0.510   3.000
  971  SOL  HW1 3046   1.306   0.428   3.045
  971  SOL  HW2 3047   1.331   0.501   2.915
  972  SOL   OW 3048   1.328   0.982   1.477
  972  SOL  HW1 3049   1.380   1.041   1.422
  972  SOL  HW2 3050   1.377   0.977   1.559
  973  SOL   OW 3051   1.960   2.106   0.492
  973  SOL  HW1 3052   2.018   2.166   0.538
  973  SOL  HW2 3053   1.951   2.031   0.550
  974  SOL   OW 3054   0.823   1.705   3.327
  974  SOL  HW1 3055   0.820   1.692   3.422
  974  SOL  HW2 3056   0.810   1.618   3.290
  975  SOL   OW 3057   0.825   2.216   2.825
  975  SOL  HW1 3058   0.821   2.161   2.904
  975  SOL  HW2 3059   0.888   2.285   2.847
  976  SOL   OW 3060   0.689   0.951   2.557
  976  SOL  HW1 3061   0.610   1.004   2.572
  976  SOL  HW2 3062   0.693   0.942   2.461
  977  SOL   OW 3063   0.802   0.890   0.369
  977  SOL  HW1 3064   0.841   0.880   0.456
  977  SOL  HW2 3065   0.792   0.800   0.338
  978  SOL   OW 3066   3.026   3.127   0.152
  978  SOL  HW1 3067   3.122   3.130   0.155
  978  SOL  HW2 3068   3.006   3.038   0.123
  979  SOL   OW 3069   0.042   2.808   2.045
  979  SOL  HW1 3070   0.116   2.869   2.042
  979  SOL  HW2 3071  -0.006   2.824   1.963
  980  SOL   OW 3072   1.980   1.481   0.826
  980  SOL  HW1 3073   1.901   1.526   0.855
  980  SOL  HW2 3074   1.989   1.506   0.734
  981  SOL   OW 3075   1.392   2.036   1.646
  981  SOL  HW1 3076   1.419   2.043   1.555
  981  SOL  HW2 3077   1.399   2.126   1.680
  982  SOL   OW 3078   0.620   2.324   1.048
  982  SOL  HW1 3079   0.527   2.328   1.027
  982  SOL  HW2 3080   0.655   2.408   1.017
  983  SOL   OW 3081   2.484   3.225   1.510
  983  SOL  HW1 3082   2.464   3.136   1.480
  983  SOL  HW2 3083   2.580   3.226   1.517
  984  SOL   OW 3084   1.847   3.325   2.606
  984  SOL  HW1 3085   1.803   3.401   2.643
  984  SOL  HW2 3086   1.938   3.351   2.596
  985  SOL   OW 3087   1.288   3.259   1.521
  985  SOL  HW1 3088   1.311   3.199   1.592
  985  SOL  HW2 3089   1.345   3.232   1.449
  986  SOL   OW 3090   0.755   3.022   1.957
  986  SOL  HW1 3091   0.758   2.985   1.869
  986  SOL  HW2 3092   0.822   3.090   1.957
  987  SOL   OW 3093   0.993   1.922   0.259
  987  SOL  HW1 3094   0.980   1.984   0.330
  987  SOL  HW2 3095   0.905   1.893   0.236
  988  SOL   OW 3096   0.467   0.542   1.146
  988  SOL  HW1 3097   0.398   0.536   1.080
  988  SOL  HW2 3098   0.527   0.471   1.124
  989  SOL   OW 3099   1.172   1.352   0.782
  989  SOL  HW1 3100   1.131   1.430   0.819
  989  SOL  HW2 3101   1.199   1.378   0.693
  990  SOL   OW 3102   2.439   3.541   3.028
  990  SOL  HW1 3103   2.371   3.545   3.095
  990  SOL  HW2 3104   2.476   3.453   3.036
  991  SOL   OW 3105   0.267   1.867   2.052
  991  SOL  HW1 3106   0.317   1.809   1.995
  991  SOL  HW2 3107   0.217   1.808   2.109
  992  SOL   OW 3108   2.873   3.351   1.331
  992  SOL  HW1 3109   2.779   3.342   1.317
  992  SOL  HW2 3110   2.896   3.432   1.286
  993  SOL   OW 3111   3.014   2.974   2.249
  993  SOL  HW1 3112   2.929   2.941   2.220
  993  SOL  HW2 3113   3.003   3.069   2.252
  994  SOL   OW 3114   0.736   1.739   2.901
  994  SOL  HW1 3115   0.808   1.761   2.960
  994  SOL  HW2 3116   0.738   1.644   2.895
  995  SOL   OW 3117   1.497   2.259   2.804
  995  SOL  HW1 3118   1.503   2.270   2.709
  995  SOL  HW2 3119   1.441   2.331   2.832
  996  SOL   OW 3120   0.576   1.430   1.911
  996  SOL  HW1 3121   0.639   1.359   1.895
  996  SOL  HW2 3122   0.558   1.466   1.825
  997  SOL   OW 3123   2.703   3.477   2.472
  997  SOL  HW1 3124   2.796   3.453   2.482
  997  SOL  HW2 3125   2.659   3.393   2.459
  998  SOL   OW 3126   2.795   2.013   3.142
  998  SOL  HW1 3127   2.726   1.948   3.128
  998  SOL  HW2 3128   2.748   2.094   3.161
  999  SOL   OW 3129   0.823   0.676   1.129
  999  SOL  HW1 3130   0.745   0.677   1.072
  999  SOL  HW2 3131   0.873   0.753   1.101
 1000  SOL   OW 3132   1.313   0.591   1.673
 1000  SOL  HW1 3133   1.282   0.559   1.757
 1000  SOL  HW2 3134   1.398   0.549   1.660
 1001  SOL   OW 3135   2.961   2.506   1.593
 1001  SOL  HW1 3136   2.944   2.553   1.675
 1001  SOL  HW2 3137   2.875   2.479   1.563
 1002  SOL   OW 3138   0.836   3.379   3.149
 1002  SOL  HW1 3139   0.829   3.457   3.204
 1002  SOL  HW2 3140   0.750   3.337   3.155
 1003  SOL   OW 3141   0.913   2.434   1.053
 1003  SOL  HW1 3142   0.904   2.383   0.972
 1003  SOL  HW2 3143   1.002   2.417   1.083
 1004  SOL   OW 3144   0.426   3.017   0.054
 1004  SOL  HW1 3145   0.479   3.026  -0.026
 1004  SOL  HW2 3146   0.445   2.929   0.085
 1005  SOL   OW 3147   0.739   3.355   2.347
 1005  SOL  HW1 3148   0.684   3.383   2.420
 1005  SOL  HW2 3149   0.747   3.432   2.292
 1006  SOL   OW 3150   1.336   2.366   1.438
 1006  SOL  HW1 3151   1.369   2.445   1.395
 1006  SOL  HW2 3152   1.287   2.398   1.514
 1007  SOL   OW 3153   0.041   1.470   1.339
 1007  SOL  HW1 3154   0.020   1.498   1.428
 1007  SOL  HW2 3155  -0.031   1.504   1.286
 1008  SOL   OW 3156   1.483   0.862   1.155
 1008  SOL  HW1 3157   1.482   0.834   1.063
 1008  SOL  HW2 3158   1.400   0.830   1.191
 1009  SOL   OW 3159   3.470   1.909   1.695
 1009  SOL  HW1 3160   3.441   1.952   1.615
 1009  SOL  HW2 3161   3.519   1.976   1.743
 1010  SOL   OW 3162   2.943   2.179   0.233
 1010  SOL  HW1 3163   3.035   2.160   0.217
 1010  SOL  HW2 3164   2.942   2.231   0.313
 1011  SOL   OW 3165   2.446   0.310   3.321
 1011  SOL  HW1 3166   2.529   0.356   3.332
 1011  SOL  HW2 3167   2.388   0.348   3.387
 1012  SOL   OW 3168   1.307   2.889   2.300
 1012  SOL  HW1 3169   1.274   2.905   2.389
 1012  SOL  HW2 3170   1.305   2.975   2.258
 1013  SOL   OW 3171   1.298   0.600   0.677
 1013  SOL  HW1 3172   1.259   0.556   0.752
 1013  SOL  HW2 3173   1.275   0.545   0.602
 1014  SOL   OW 3174   3.055   1.095   2.934
 1014  SOL  HW1 3175   3.133   1.084   2.989
 1014  SOL  HW2 3176   2.991   1.137   2.991
 1015  SOL   OW 3177   0.435   0.707   2.845
 1015  SOL  HW1 3178   0.527   0.688   2.828
 1015  SOL  HW2 3179   0.436   0.791   2.889
 1016  SOL   OW 3180   1.845   2.149   3.139
 1016  SOL  HW1 3181   1.796   2.073   3.107
 1016  SOL  HW2 3182   1.818   2.159   3.230
 1017  SOL   OW 3183   2.901   1.033   1.531
 1017  SOL  HW1 3184   2.876   1.049   1.622
 1017  SOL  HW2 3185   2.883   0.940   1.518
 1018  SOL   OW 3186   1.874   0.401   3.259
 1018  SOL  HW1 3187   1.943   0.358   3.209
 1018  SOL  HW2 3188   1.796   0.349   3.241
 1019  SOL   OW 3189   1.641   0.633   0.190
 1019  SOL  HW1 3190   1.724   0.647   0.235
 1019  SOL  HW2 3191   1.659   0.654   0.098
 1020  SOL   OW 3192   0.275   1.574   1.044
 1020  SOL  HW1 3193   0.314   1.515   0.980
 1020  SOL  HW2 3194   0.243   1.516   1.114
 1021  SOL   OW 3195   2.207   0.165   0.321
 1021  SOL  HW1 3196   2.165   0.097   0.373
 1021  SOL  HW2 3197   2.148   0.177   0.246
 1022  SOL   OW 3198   2.976   3.245   2.246
 1022  SOL  HW1 3199   3.063   3.261   2.211
 1022  SOL  HW2 3200   2.925   3.321   2.220
 1023  SOL   OW 3201   1.102   1.577   0.204
 1023  SOL  HW1 3202   1.135   1.488   0.190
 1023  SOL  HW2 3203   1.149   1.631   0.141
 1024  SOL   OW 3204   0.992   0.358   3.259
 1024  SOL  HW1 3205   0.993   0.345   3.164
 1024  SOL  HW2 3206   0.989   0.269   3.295
 1025  SOL   OW 3207   3.052   0.975   0.555
 1025  SOL  HW1 3208   3.050   0.903   0.493
 1025  SOL  HW2 3209   3.088   1.049   0.505
 1026  SOL   OW 3210   1.738   0.947   1.285
 1026  SOL  HW1 3211   1.705   0.932   1.373
 1026  SOL  HW2 3212   1.735   0.861   1.244
 1027  SOL   OW 3213   1.928   0.791   2.787
 1027  SOL  HW1 3214   1.911   0.777   2.880
 1027  SOL  HW2 3215   1.952   0.883   2.781
 1028  SOL   OW 3216   1.435   0.840   0.850
 1028  SOL  HW1 3217   1.348   0.820   0.883
 1028  SOL  HW2 3218   1.456   0.926   0.887
 1029  SOL   OW 3219   1.997   0.237   2.696
 1029  SOL  HW1 3220   2.075   0.237   2.751
 1029  SOL  HW2 3221   2.027   0.204   2.611
 1030  SOL   OW 3222   1.400   0.661   0.328
 1030  SOL  HW1 3223   1.350   0.579   0.334
 1030  SOL  HW2 3224   1.480   0.637   0.282
 1031  SOL   OW 3225   2.872   1.665   2.734
 1031  SOL  HW1 3226   2.818   1.648   2.812
 1031  SOL  HW2 3227   2.962   1.657   2.765
 1032  SOL   OW 3228   0.583   0.490   3.332
 1032  SOL  HW1 3229   0.617   0.400   3.331
 1032  SOL  HW2 3230   0.491   0.481   3.358
 1033  SOL   OW 3231   3.380   1.282   0.196
 1033  SOL  HW1 3232   3.460   1.268   0.246
 1033  SOL  HW2 3233   3.363   1.376   0.203
 1034  SOL   OW 3234   1.091   0.123   1.960
 1034  SOL  HW1 3235   1.009   0.166   1.982
 1034  SOL  HW2 3236   1.068   0.064   1.887
 1035  SOL   OW 3237   1.624   0.505   2.981
 1035  SOL  HW1 3238   1.616   0.417   2.946
 1035  SOL  HW2 3239   1.586   0.500   3.069
 1036  SOL   OW 3240   1.591   0.568   1.523
 1036  SOL  HW1 3241   1.524   0.507   1.492
 1036  SOL  HW2 3242   1.669   0.515   1.535
 1037  SOL   OW 3243   1.380   2.645   1.381
 1037  SOL  HW1 3244   1.350   2.681   1.464
 1037  SOL  HW2 3245   1.446   2.580   1.406
 1038  SOL   OW 3246   2.328   3.055   0.091
 1038  SOL  HW1 3247   2.258   3.119   0.082
 1038  SOL  HW2 3248   2.409   3.106   0.085
 1039  SOL   OW 3249   0.390   0.241   2.566
 1039  SOL  HW1 3250   0.448   0.237   2.642
 1039  SOL  HW2 3251   0.427   0.178   2.504
 1040  SOL   OW 3252   1.667   0.919   0.415
 1040  SOL  HW1 3253   1.731   0.848   0.411
 1040  SOL  HW2 3254   1.600   0.888   0.476
 1041  SOL   OW 3255   1.136   2.592   1.574
 1041  SOL  HW1 3256   1.102   2.574   1.661
 1041  SOL  HW2 3257   1.059   2.588   1.517
 1042  SOL   OW 3258   0.277   3.090   0.434
 1042  SOL  HW1 3259   0.271   3.155   0.504
 1042  SOL  HW2 3260   0.329   3.133   0.366
 1043  SOL   OW 3261   2.063   1.328   0.167
 1043  SOL  HW1 3262   2.045   1.414   0.131
 1043  SOL  HW2 3263   2.012   1.325   0.248
 1044  SOL   OW 3264   0.466   3.124   3.018
 1044  SOL  HW1 3265   0.503   3.047   2.976
 1044  SOL  HW2 3266   0.403   3.158   2.954
 1045  SOL   OW 3267   1.246   3.497   1.702
 1045  SOL  HW1 3268   1.257   3.466   1.792
 1045  SOL  HW2 3269   1.259   3.419   1.648
 1046  SOL   OW 3270   2.265   0.114   3.225
 1046  SOL  HW1 3271   2.230   0.075   3.305
 1046  SOL  HW2 3272   2.339   0.166   3.254
 1047  SOL   OW 3273   1.453   1.065  -0.029
 1047  SOL  HW1 3274   1.480   0.986   0.019
 1047  SOL  HW2 3275   1.444   1.132   0.038
 1048  SOL   OW 3276   3.247   0.550   2.290
 1048  SOL  HW1 3277   3.192   0.479   2.324
 1048  SOL  HW2 3278   3.335   0.528   2.321
 1049  SOL   OW 3279   1.770   1.444   0.526
 1049  SOL  HW1 3280   1.761   1.350   0.513
 1049  SOL  HW2 3281   1.800   1.478   0.442
 1050  SOL   OW 3282   2.619   0.528   1.983
 1050  SOL  HW1 3283   2.572   0.522   2.067
 1050  SOL  HW2 3284   2.683   0.597   1.997
 1051  SOL   OW 3285   1.170   0.444   0.860
 1051  SOL  HW1 3286   1.082   0.476   0.843
 1051  SOL  HW2 3287   1.160   0.348   0.862
 1052  SOL   OW 3288   2.969   2.198   1.722
 1052  SOL  HW1 3289   3.003   2.279   1.759
 1052  SOL  HW2 3290   3.046   2.141   1.714
 1053  SOL   OW 3291   3.327   1.822   0.156
 1053  SOL  HW1 3292   3.294   1.797   0.070
 1053  SOL  HW2 3293   3.285   1.907   0.174
 1054  SOL   OW 3294   3.198   1.387   2.610
 1054  SOL  HW1 3295   3.255   1.454   2.570
 1054  SOL  HW2 3296   3.169   1.426   2.692
 1055  SOL   OW 3297   2.989   0.351   1.273
 1055  SOL  HW1 3298   2.958   0.303   1.196
 1055  SOL  HW2 3299   2.911   0.364   1.327
 1056  SOL   OW 3300   2.301   2.138   1.867
 1056  SOL  HW1 3301   2.231   2.073   1.877
 1056  SOL  HW2 3302   2.373   2.089   1.827
 1057  SOL   OW 3303   2.744   0.780   1.442
 1057  SOL  HW1 3304   2.696   0.698   1.450
 1057  SOL  HW2 3305   2.677   0.846   1.426
 1058  SOL   OW 3306   0.374   2.738   1.106
 1058  SOL  HW1 3307   0.433   2.679   1.059
 1058  SOL  HW2 3308   0.386   2.823   1.065
 1059  SOL   OW 3309   1.645   2.367   0.496
 1059  SOL  HW1 3310   1.707   2.393   0.564
 1059  SOL  HW2 3311   1.581   2.312   0.541
 1060  SOL   OW 3312   0.380   0.979   3.381
 1060  SOL  HW1 3313   0.321   0.940   3.317
 1060  SOL  HW2 3314   0.444   0.911   3.399
 1061  SOL   OW 3315   1.520   0.261   1.646
 1061  SOL  HW1 3316   1.546   0.283   1.736
 1061  SOL  HW2 3317   1.424   0.263   1.648
 1062  SOL   OW 3318   1.850   0.444   0.828
 1062  SOL  HW1 3319   1.923   0.495   0.863
 1062  SOL  HW2 3320   1.772   0.491   0.860
 1063  SOL   OW 3321   1.132   2.069   0.568
 1063  SOL  HW1 3322   1.117   2.092   0.659
 1063  SOL  HW2 3323   1.047   2.038   0.537
 1064  SOL   OW 3324   1.410   2.430   3.246
 1064  SOL  HW1 3325   1.459   2.463   3.171
 1064  SOL  HW2 3326   1.477   2.398   3.307
 1065  SOL   OW 3327   2.045   2.257   1.447
 1065  SOL  HW1 3328   2.113   2.324   1.452
 1065  SOL  HW2 3329   2.067   2.196   1.518
 1066  SOL   OW 3330   3.333   0.135   0.605
 1066  SOL  HW1 3331   3.368   0.064   0.658
 1066  SOL  HW2 3332   3.298   0.092   0.528
 1067  SOL   OW 3333   1.278   2.179   2.004
 1067  SOL  HW1 3334   1.343   2.109   1.997
 1067  SOL  HW2 3335   1.322   2.256   1.970
 1068  SOL   OW 3336   2.574   1.967   0.084
 1068  SOL  HW1 3337   2.654   1.960   0.136
 1068  SOL  HW2 3338   2.589   2.043   0.028
 1069  SOL   OW 3339   1.214   3.243   2.900
 1069  SOL  HW1 3340   1.243   3.198   2.820
 1069  SOL  HW2 3341   1.189   3.173   2.960
 1070  SOL   OW 3342   3.153   1.681   1.551
 1070  SOL  HW1 3343   3.147   1.745   1.621
 1070  SOL  HW2 3344   3.163   1.597   1.596
 1071  SOL   OW 3345   3.174   1.890   2.345
 1071  SOL  HW1 3346   3.203   1.971   2.305
 1071  SOL  HW2 3347   3.255   1.848   2.375
 1072  SOL   OW 3348   1.555   0.009   2.682
 1072  SOL  HW1 3349   1.554   0.102   2.706
 1072  SOL  HW2 3350   1.577   0.009   2.588
 1073  SOL   OW 3351   2.849   1.868   1.824
 1073  SOL  HW1 3352   2.903   1.790   1.839
 1073  SOL  HW2 3353   2.790   1.871   1.899
 1074  SOL   OW 3354   3.033   2.851   0.104
 1074  SOL  HW1 3355   3.083   2.806   0.172
 1074  SOL  HW2 3356   3.046   2.797   0.026
 1075  SOL   OW 3357   3.308   1.813   1.292
 1075  SOL  HW1 3358   3.267   1.815   1.378
 1075  SOL  HW2 3359   3.292   1.725   1.259
 1076  SOL   OW 3360   2.649   0.209   2.957
 1076  SOL  HW1 3361   2.599   0.129   2.940
 1076  SOL  HW2 3362   2.708   0.216   2.882
 1077  SOL   OW 3363   2.405   2.131   1.583
 1077  SOL  HW1 3364   2.310   2.137   1.567
 1077  SOL  HW2 3365   2.427   2.216   1.622
 1078  SOL   OW 3366   3.466   0.967   1.630
 1078  SOL  HW1 3367   3.418   0.917   1.563
 1078  SOL  HW2 3368   3.422   0.945   1.712
 1079  SOL   OW 3369   0.030   3.493   1.233
 1079  SOL  HW1 3370   0.114   3.532   1.206
 1079  SOL  HW2 3371   0.045   3.399   1.229
 1080  SOL   OW 3372   0.762   2.704   3.324
 1080  SOL  HW1 3373   0.800   2.792   3.316
 1080  SOL  HW2 3374   0.819   2.648   3.271
 1081  SOL   OW 3375   2.685   0.783   0.940
 1081  SOL  HW1 3376   2.756   0.846   0.932
 1081  SOL  HW2 3377   2.605   0.836   0.941
 1082  SOL   OW 3378   1.463   2.458   1.056
 1082  SOL  HW1 3379   1.483   2.409   0.976
 1082  SOL  HW2 3380   1.543   2.455   1.107
 1083  SOL   OW 3381   2.181   0.022   3.451
 1083  SOL  HW1 3382   2.272   0.030   3.477
 1083  SOL  HW2 3383   2.146  -0.047   3.508
 1084  SOL   OW 3384   1.505   1.960   3.305
 1084  SOL  HW1 3385   1.548   1.974   3.221
 1084  SOL  HW2 3386   1.547   2.022   3.365
 1085  SOL   OW 3387   0.459   2.355   3.383
 1085  SOL  HW1 3388   0.540   2.385   3.343
 1085  SOL  HW2 3389   0.394   2.359   3.313
 1086  SOL   OW 3390   1.632   2.012   0.423
 1086  SOL  HW1 3391   1.635   1.947   0.493
 1086  SOL  HW2 3392   1.684   2.086   0.456
 1087  SOL   OW 3393   2.588   3.449   2.059
 1087  SOL  HW1 3394   2.581   3.377   2.123
 1087  SOL  HW2 3395   2.591   3.405   1.974
 1088  SOL   OW 3396   1.971   3.094   2.095
 1088  SOL  HW1 3397   1.984   3.087   2.001
 1088  SOL  HW2 3398   1.909   3.167   2.105
 1089  SOL   OW 3399   1.373   0.642   3.548
 1089  SOL  HW1 3400   1.299   0.610   3.498
 1089  SOL  HW2 3401   1.415   0.706   3.491
 1090  SOL   OW 3402   3.419   1.239   1.862
 1090  SOL  HW1 3403   3.408   1.144   1.868
 1090  SOL  HW2 3404   3.407   1.270   1.952
 1091  SOL   OW 3405   1.279   2.106   0.288
 1091  SOL  HW1 3406   1.234   2.106   0.373
 1091  SOL  HW2 3407   1.336   2.182   0.291
 1092  SOL   OW 3408   3.111   1.474   2.859
 1092  SOL  HW1 3409   3.164   1.554   2.853
 1092  SOL  HW2 3410   3.133   1.437   2.945
 1093  SOL   OW 3411   2.976   0.289   0.640
 1093  SOL  HW1 3412   3.058   0.259   0.678
 1093  SOL  HW2 3413   2.922   0.313   0.715
 1094  SOL   OW 3414   3.099   2.652   0.772
 1094  SOL  HW1 3415   3.010   2.626   0.795
 1094  SOL  HW2 3416   3.155   2.587   0.814
 1095  SOL   OW 3417   3.430   1.955   1.076
 1095  SOL  HW1 3418   3.390   1.931   0.993
 1095  SOL  HW2 3419   3.400   1.888   1.137
 1096  SOL   OW 3420   1.105   0.794   2.317
 1096  SOL  HW1 3421   1.174   0.848   2.355
 1096  SOL  HW2 3422   1.148   0.711   2.297
 1097  SOL   OW 3423   0.026   2.238   1.037
 1097  SOL  HW1 3424   0.063   2.204   0.956
 1097  SOL  HW2 3425  -0.020   2.164   1.076
 1098  SOL   OW 3426   1.464   0.381   3.367
 1098  SOL  HW1 3427   1.369   0.370   3.378
 1098  SOL  HW2 3428   1.498   0.382   3.456
 1099  SOL   OW 3429   0.726   1.271   2.660
 1099  SOL  HW1 3430   0.657   1.223   2.615
 1099  SOL  HW2 3431   0.770   1.205   2.714
 1100  SOL   OW 3432   0.970   0.887   1.050
 1100  SOL  HW1 3433   0.992   0.913   0.960
 1100  SOL  HW2 3434   0.929   0.965   1.088
 1101  SOL   OW 3435   3.389   0.194   1.895
 1101  SOL  HW1 3436   3.360   0.213   1.806
 1101  SOL  HW2 3437   3.475   0.235   1.902
 1102  SOL   OW 3438   3.259   2.482   3.213
 1102  SOL  HW1 3439   3.271   2.388   3.197
 1102  SOL  HW2 3440   3.288   2.523   3.132
 1103  SOL   OW 3441   0.519   2.814   2.150
 1103  SOL  HW1 3442   0.564   2.731   2.168
 1103  SOL  HW2 3443   0.491   2.807   2.058
 1104  SOL   OW 3444   3.302   0.661   1.182
 1104  SOL  HW1 3445   3.208   0.661   1.168
 1104  SOL  HW2 3446   3.315   0.718   1.257
 1105  SOL   OW 3447   0.736   0.821   1.817
 1105  SOL  HW1 3448   0.707   0.900   1.862
 1105  SOL  HW2 3449   0.754   0.849   1.727
 1106  SOL   OW 3450   0.529   0.134   2.000
 1106  SOL  HW1 3451   0.529   0.212   2.055
 1106  SOL  HW2 3452   0.496   0.164   1.915
 1107  SOL   OW 3453   0.264   1.343   3.372
 1107  SOL  HW1 3454   0.320   1.281   3.418
 1107  SOL  HW2 3455   0.182   1.343   3.422
 1108  SOL   OW 3456   0.836   1.864   1.136
 1108  SOL  HW1 3457   0.873   1.776   1.125
 1108  SOL  HW2 3458   0.799   1.863   1.224
 1109  SOL   OW 3459   1.953   1.163   3.481
 1109  SOL  HW1 3460   2.010   1.232   3.515
 1109  SOL  HW2 3461   2.010   1.087   3.473
 1110  SOL   OW 3462   2.415   0.383   2.629
 1110  SOL  HW1 3463   2.375   0.375   2.715
 1110  SOL  HW2 3464   2.461   0.300   2.615
 1111  SOL   OW 3465   1.199   3.103   2.107
 1111  SOL  HW1 3466   1.276   3.151   2.139
 1111  SOL  HW2 3467   1.136   3.107   2.179
 1112  SOL   OW 3468   2.828   0.427   0.816
 1112  SOL  HW1 3469   2.777   0.369   0.872
 1112  SOL  HW2 3470   2.765   0.461   0.753
 1113  SOL   OW 3471   2.935   2.341   0.429
 1113  SOL  HW1 3472   2.934   2.434   0.405
 1113  SOL  HW2 3473   2.891   2.338   0.514
 1114  SOL   OW 3474   1.735   1.187   3.067
 1114  SOL  HW1 3475   1.696   1.188   3.154
 1114  SOL  HW2 3476   1.826   1.163   3.081
 1115  SOL   OW 3477   1.451   1.463   1.000
 1115  SOL  HW1 3478   1.380   1.501   1.052
 1115  SOL  HW2 3479   1.456   1.372   1.028
 1116  SOL   OW 3480   2.354   2.725   1.376
 1116  SOL  HW1 3481   2.384   2.701   1.288
 1116  SOL  HW2 3482   2.400   2.806   1.395
 1117  SOL   OW 3483   0.781   1.978   1.405
 1117  SOL  HW1 3484   0.719   2.026   1.350
 1117  SOL  HW2 3485   0.849   2.042   1.427
 1118  SOL   OW 3486   2.933   1.807   0.549
 1118  SOL  HW1 3487   2.925   1.887   0.601
 1118  SOL  HW2 3488   3.027   1.796   0.536
 1119  SOL   OW 3489   2.327   2.064   0.995
 1119  SOL  HW1 3490   2.250   2.034   1.042
 1119  SOL  HW2 3491   2.401   2.018   1.035
 1120  SOL   OW 3492   3.217   3.407   2.654
 1120  SOL  HW1 3493   3.227   3.474   2.722
 1120  SOL  HW2 3494   3.137   3.360   2.678
 1121  SOL   OW 3495   0.435   2.675   0.633
 1121  SOL  HW1 3496   0.452   2.709   0.721
 1121  SOL  HW2 3497   0.516   2.631   0.608
 1122  SOL   OW 3498   2.362   2.227   3.222
 1122  SOL  HW1 3499   2.401   2.211   3.136
 1122  SOL  HW2 3500   2.353   2.140   3.260
 1123  SOL   OW 3501   1.597   2.858   2.429
 1123  SOL  HW1 3502   1.646   2.914   2.368
 1123  SOL  HW2 3503   1.664   2.823   2.488
 1124  SOL   OW 3504   1.165   2.368   1.117
 1124  SOL  HW1 3505   1.182   2.275   1.131
 1124  SOL  HW2 3506   1.226   2.393   1.047
 1125  SOL   OW 3507   1.537   1.224   1.679
 1125  SOL  HW1 3508   1.587   1.237   1.598
 1125  SOL  HW2 3509   1.449   1.254   1.658
 1126  SOL   OW 3510   0.108   2.246   1.722
 1126  SOL  HW1 3511   0.118   2.192   1.801
 1126  SOL  HW2 3512   0.175   2.214   1.662
 1127  SOL   OW 3513   1.315   0.946   2.444
 1127  SOL  HW1 3514   1.293   1.010   2.511
 1127  SOL  HW2 3515   1.371   0.883   2.489
 1128  SOL   OW 3516   0.519   1.696   1.136
 1128  SOL  HW1 3517   0.486   1.769   1.188
 1128  SOL  HW2 3518   0.453   1.627   1.147
 1129  SOL   OW 3519   2.205   2.725   1.042
 1129  SOL  HW1 3520   2.284   2.780   1.042
 1129  SOL  HW2 3521   2.139   2.777   1.086
 1130  SOL   OW 3522   0.550   3.016   3.295
 1130  SOL  HW1 3523   0.501   3.042   3.217
 1130  SOL  HW2 3524   0.578   2.926   3.276
 1131  SOL   OW 3525   1.737   1.653   3.315
 1131  SOL  HW1 3526   1.750   1.663   3.409
 1131  SOL  HW2 3527   1.775   1.568   3.294
 1132  SOL   OW 3528   0.843   0.076   3.289
 1132  SOL  HW1 3529   0.854   0.097   3.196
 1132  SOL  HW2 3530   0.766   0.127   3.316
 1133  SOL   OW 3531   2.198   0.701   2.949
 1133  SOL  HW1 3532   2.243   0.630   2.996
 1133  SOL  HW2 3533   2.144   0.656   2.884
 1134  SOL   OW 3534   1.082   1.040   2.869
 1134  SOL  HW1 3535   1.022   1.033   2.795
 1134  SOL  HW2 3536   1.044   0.983   2.936
 1135  SOL   OW 3537   1.393   0.795   3.312
 1135  SOL  HW1 3538   1.400   0.877   3.263
 1135  SOL  HW2 3539   1.300   0.788   3.333
 1136  SOL   OW 3540   1.818   0.153   2.970
 1136  SOL  HW1 3541   1.890   0.185   3.025
 1136  SOL  HW2 3542   1.858   0.142   2.883
 1137  SOL   OW 3543   2.254   1.129   3.191
 1137  SOL  HW1 3544   2.298   1.104   3.110
 1137  SOL  HW2 3545   2.325   1.140   3.255
 1138  SOL   OW 3546   1.592   1.401   0.069
 1138  SOL  HW1 3547   1.640   1.355   0.138
 1138  SOL  HW2 3548   1.625   1.491   0.074
 1139  SOL   OW 3549   0.295   3.468   1.432
 1139  SOL  HW1 3550   0.281   3.506   1.345
 1139  SOL  HW2 3551   0.383   3.496   1.456
 1140  SOL   OW 3552   2.589   0.667   0.320
 1140  SOL  HW1 3553   2.634   0.729   0.263
 1140  SOL  HW2 3554   2.510   0.713   0.348
 1141  SOL   OW 3555   1.026   3.051   1.161
 1141  SOL  HW1 3556   1.040   3.106   1.238
 1141  SOL  HW2 3557   0.953   3.093   1.115
 1142  SOL   OW 3558   1.633   2.997   2.015
 1142  SOL  HW1 3559   1.604   2.908   2.037
 1142  SOL  HW2 3560   1.632   3.044   2.098
 1143  SOL   OW 3561   2.264   0.746   0.751
 1143  SOL  HW1 3562   2.250   0.696   0.670
 1143  SOL  HW2 3563   2.178   0.746   0.794
 1144  SOL   OW 3564   3.110   0.799   2.867
 1144  SOL  HW1 3565   3.173   0.855   2.912
 1144  SOL  HW2 3566   3.025   0.824   2.904
 1145  SOL   OW 3567   2.351   0.511   1.776
 1145  SOL  HW1 3568   2.349   0.445   1.845
 1145  SOL  HW2 3569   2.272   0.563   1.791
 1146  SOL   OW 3570   0.292   0.289   1.323
 1146  SOL  HW1 3571   0.199   0.313   1.327
 1146  SOL  HW2 3572   0.333   0.359   1.272
 1147  SOL   OW 3573   2.216   3.074   2.199
 1147  SOL  HW1 3574   2.209   3.077   2.295
 1147  SOL  HW2 3575   2.125   3.079   2.169
 1148  SOL   OW 3576   0.666   3.015   1.201
 1148  SOL  HW1 3577   0.639   3.088   1.145
 1148  SOL  HW2 3578   0.716   2.958   1.143
 1149  SOL   OW 3579   3.157   2.724   2.210
 1149  SOL  HW1 3580   3.104   2.798   2.240
 1149  SOL  HW2 3581   3.130   2.651   2.266
 1150  SOL   OW 3582   3.391   3.411   2.105
 1150  SOL  HW1 3583   3.376   3.480   2.170
 1150  SOL  HW2 3584   3.321   3.348   2.120
 1151  SOL   OW 3585   1.151   2.302   2.301
 1151  SOL  HW1 3586   1.066   2.263   2.324
 1151  SOL  HW2 3587   1.128   2.379   2.250
 1152  SOL   OW 3588   2.093   0.508   0.910
 1152  SOL  HW1 3589   2.134   0.454   0.978
 1152  SOL  HW2 3590   2.074   0.591   0.953
 1153  SOL   OW 3591   2.587   2.773   0.213
 1153  SOL  HW1 3592   2.562   2.682   0.195
 1153  SOL  HW2 3593   2.622   2.806   0.130
 1154  SOL   OW 3594   1.554   2.849   1.592
 1154  SOL  HW1 3595   1.586   2.889   1.511
 1154  SOL  HW2 3596   1.468   2.891   1.606
 1155  SOL   OW 3597   3.459   3.439   0.265
 1155  SOL  HW1 3598   3.464   3.349   0.298
 1155  SOL  HW2 3599   3.378   3.474   0.303
 1156  SOL   OW 3600   1.465   3.271   2.744
 1156  SOL  HW1 3601   1.511   3.350   2.715
 1156  SOL  HW2 3602   1.518   3.198   2.713
 1157  SOL   OW 3603   3.255   1.398   2.076
 1157  SOL  HW1 3604   3.166   1.370   2.052
 1157  SOL  HW2 3605   3.260   1.385   2.170
 1158  SOL   OW 3606   1.381   0.946   1.991
 1158  SOL  HW1 3607   1.400   0.865   2.038
 1158  SOL  HW2 3608   1.368   1.011   2.059
 1159  SOL   OW 3609   0.537   0.673   0.797
 1159  SOL  HW1 3610   0.579   0.589   0.777
 1159  SOL  HW2 3611   0.444   0.657   0.784
 1160  SOL   OW 3612   1.736   1.945   1.898
 1160  SOL  HW1 3613   1.745   1.851   1.882
 1160  SOL  HW2 3614   1.644   1.958   1.919
 1161  SOL   OW 3615   2.973   3.254   2.599
 1161  SOL  HW1 3616   3.013   3.295   2.523
 1161  SOL  HW2 3617   2.980   3.160   2.582
 1162  SOL   OW 3618   0.325   0.369   0.550
 1162  SOL  HW1 3619   0.318   0.313   0.628
 1162  SOL  HW2 3620   0.293   0.455   0.580
 1163  SOL   OW 3621   2.303   2.012   3.405
 1163  SOL  HW1 3622   2.384   2.058   3.429
 1163  SOL  HW2 3623   2.233   2.074   3.426
 1164  SOL   OW 3624   0.758   2.757   1.684
 1164  SOL  HW1 3625   0.703   2.686   1.718
 1164  SOL  HW2 3626   0.847   2.728   1.700
 1165  SOL   OW 3627   0.257   1.539   3.197
 1165  SOL  HW1 3628   0.268   1.472   3.265
 1165  SOL  HW2 3629   0.346   1.559   3.169
 1166  SOL   OW 3630   1.566   0.962   2.274
 1166  SOL  HW1 3631   1.589   0.925   2.359
 1166  SOL  HW2 3632   1.483   1.007   2.289
 1167  SOL   OW 3633   0.739   1.508   2.255
 1167  SOL  HW1 3634   0.770   1.599   2.256
 1167  SOL  HW2 3635   0.779   1.468   2.332
 1168  SOL   OW 3636   0.209   0.785   2.202
 1168  SOL  HW1 3637   0.146   0.763   2.134
 1168  SOL  HW2 3638   0.293   0.754   2.169
 1169  SOL   OW 3639   1.024   3.201   1.387
 1169  SOL  HW1 3640   1.027   3.297   1.383
 1169  SOL  HW2 3641   1.103   3.176   1.435
 1170  SOL   OW 3642   0.390   2.182   0.058
 1170  SOL  HW1 3643   0.435   2.239  -0.005
 1170  SOL  HW2 3644   0.310   2.155   0.012
 1171  SOL   OW 3645   0.479   2.736   3.429
 1171  SOL  HW1 3646   0.472   2.692   3.344
 1171  SOL  HW2 3647   0.573   2.750   3.441
 1172  SOL   OW 3648   2.735   1.597   0.371
 1172  SOL  HW1 3649   2.702   1.542   0.442
 1172  SOL  HW2 3650   2.825   1.617   0.396
 1173  SOL   OW 3651   0.905   3.222   1.996
 1173  SOL  HW1 3652   0.870   3.262   2.076
 1173  SOL  HW2 3653   0.966   3.287   1.961
 1174  SOL   OW 3654   1.877   0.733   0.411
 1174  SOL  HW1 3655   1.886   0.653   0.463
 1174  SOL  HW2 3656   1.959   0.781   0.426
 1175  SOL   OW 3657   2.107   1.371   1.551
 1175  SOL  HW1 3658   2.186   1.419   1.574
 1175  SOL  HW2 3659   2.108   1.294   1.607
 1176  SOL   OW 3660   1.204   2.017   2.310
 1176  SOL  HW1 3661   1.232   2.108   2.322
 1176  SOL  HW2 3662   1.283   1.972   2.279
 1177  SOL   OW 3663   0.299   1.114   1.015
 1177  SOL  HW1 3664   0.234   1.184   1.008
 1177  SOL  HW2 3665   0.272   1.050   0.949
 1178  SOL   OW 3666   2.765   2.955   2.099
 1178  SOL  HW1 3667   2.747   2.965   2.005
 1178  SOL  HW2 3668   2.682   2.928   2.137
 1179  SOL   OW 3669   1.570   1.760   1.225
 1179  SOL  HW1 3670   1.523   1.692   1.177
 1179  SOL  HW2 3671   1.559   1.839   1.173
 1180  SOL   OW 3672   3.358   1.177   2.728
 1180  SOL  HW1 3673   3.276   1.150   2.768
 1180  SOL  HW2 3674   3.332   1.216   2.644
 1181  SOL   OW 3675   2.640   1.476   1.641
 1181  SOL  HW1 3676   2.687   1.459   1.723
 1181  SOL  HW2 3677   2.698   1.443   1.573
 1182  SOL   OW 3678   1.131   2.657   2.830
 1182  SOL  HW1 3679   1.112   2.744   2.865
 1182  SOL  HW2 3680   1.118   2.666   2.736
 1183  SOL   OW 3681   1.815   0.431   1.577
 1183  SOL  HW1 3682   1.897   0.384   1.557
 1183  SOL  HW2 3683   1.752   0.362   1.594
 1184  SOL   OW 3684   0.410   3.215   1.291
 1184  SOL  HW1 3685   0.441   3.248   1.206
 1184  SOL  HW2 3686   0.455   3.269   1.356
 1185  SOL   OW 3687   3.352   0.916   2.966
 1185  SOL  HW1 3688   3.356   0.838   3.021
 1185  SOL  HW2 3689   3.380   0.886   2.880
 1186  SOL   OW 3690   1.507   1.281   0.581
 1186  SOL  HW1 3691   1.585   1.319   0.623
 1186  SOL  HW2 3692   1.509   1.189   0.607
 1187  SOL   OW 3693   1.292   1.293   3.342
 1187  SOL  HW1 3694   1.376   1.322   3.305
 1187  SOL  HW2 3695   1.298   1.319   3.434
 1188  SOL   OW 3696   2.592   2.424   2.664
 1188  SOL  HW1 3697   2.665   2.411   2.603
 1188  SOL  HW2 3698   2.589   2.343   2.716
 1189  SOL   OW 3699   2.504   2.026   1.298
 1189  SOL  HW1 3700   2.545   2.101   1.342
 1189  SOL  HW2 3701   2.413   2.028   1.328
 1190  SOL   OW 3702   3.385   3.083   1.690
 1190  SOL  HW1 3703   3.352   3.080   1.600
 1190  SOL  HW2 3704   3.384   3.176   1.713
 1191  SOL   OW 3705   1.546   1.396   3.026
 1191  SOL  HW1 3706   1.546   1.387   3.122
 1191  SOL  HW2 3707   1.611   1.331   2.997
 1192  SOL   OW 3708   0.328   1.966   0.583
 1192  SOL  HW1 3709   0.315   1.879   0.620
 1192  SOL  HW2 3710   0.382   2.012   0.647
 1193  SOL   OW 3711   0.597   1.101   0.378
 1193  SOL  HW1 3712   0.536   1.092   0.305
 1193  SOL  HW2 3713   0.672   1.047   0.353
 1194  SOL   OW 3714   0.849   3.167   0.964
 1194  SOL  HW1 3715   0.765   3.197   0.931
 1194  SOL  HW2 3716   0.907   3.170   0.887
 1195  SOL   OW 3717   2.565   1.452   1.065
 1195  SOL  HW1 3718   2.564   1.493   1.151
 1195  SOL  HW2 3719   2.473   1.450   1.039
 1196  SOL   OW 3720   1.755   3.291   2.346
 1196  SOL  HW1 3721   1.813   3.310   2.420
 1196  SOL  HW2 3722   1.796   3.334   2.271
 1197  SOL   OW 3723   0.910   0.281   1.325
 1197  SOL  HW1 3724   0.999   0.301   1.296
 1197  SOL  HW2 3725   0.922   0.216   1.395
 1198  SOL   OW 3726   1.617   3.483   0.342
 1198  SOL  HW1 3727   1.672   3.513   0.415
 1198  SOL  HW2 3728   1.618   3.388   0.349
 1199  SOL   OW 3729   2.989   0.146   3.232
 1199  SOL  HW1 3730   2.986   0.118   3.323
 1199  SOL  HW2 3731   2.900   0.177   3.214
 1200  SOL   OW 3732   2.593   0.218   0.194
 1200  SOL  HW1 3733   2.678   0.188   0.162
 1200  SOL  HW2 3734   2.567   0.151   0.257
 1201  SOL   OW 3735   1.164   2.869   1.431
 1201  SOL  HW1 3736   1.208   2.835   1.353
 1201  SOL  HW2 3737   1.074   2.840   1.422
 1202  SOL   OW 3738  -0.003   1.634   1.642
 1202  SOL  HW1 3739   0.083   1.630   1.599
 1202  SOL  HW2 3740  -0.014   1.726   1.664
 1203  SOL   OW 3741   3.005   0.299   2.942
 1203  SOL  HW1 3742   3.061   0.363   2.898
 1203  SOL  HW2 3743   2.919   0.311   2.903
 1204  SOL   OW 3744   1.313   2.456   2.886
 1204  SOL  HW1 3745   1.254   2.520   2.845
 1204  SOL  HW2 3746   1.255   2.401   2.938
 1205  SOL   OW 3747   1.188   1.889   0.950
 1205  SOL  HW1 3748   1.235   1.883   0.867
 1205  SOL  HW2 3749   1.099   1.913   0.926
 1206  SOL   OW 3750   3.393   2.160   2.533
 1206  SOL  HW1 3751   3.335   2.227   2.497
 1206  SOL  HW2 3752   3.449   2.207   2.595
 1207  SOL   OW 3753   0.135   2.719   2.446
 1207  SOL  HW1 3754   0.200   2.784   2.421
 1207  SOL  HW2 3755   0.062   2.733   2.385
 1208  SOL   OW 3756   3.460   1.444   2.438
 1208  SOL  HW1 3757   3.521   1.389   2.488
 1208  SOL  HW2 3758   3.466   1.409   2.348
 1209  SOL   OW 3759   2.411   0.577   0.919
 1209  SOL  HW1 3760   2.362   0.608   0.842
 1209  SOL  HW2 3761   2.419   0.655   0.974
 1210  SOL   OW 3762   2.102   0.682   1.115
 1210  SOL  HW1 3763   2.056   0.758   1.150
 1210  SOL  HW2 3764   2.193   0.696   1.139
 1211  SOL   OW 3765   2.870   1.251   0.313
 1211  SOL  HW1 3766   2.906   1.240   0.401
 1211  SOL  HW2 3767   2.793   1.307   0.325
 1212  SOL   OW 3768   2.844   3.280   2.871
 1212  SOL  HW1 3769   2.919   3.318   2.918
 1212  SOL  HW2 3770   2.880   3.200   2.831
 1213  SOL   OW 3771   2.142   0.952   0.013
 1213  SOL  HW1 3772   2.173   0.892  -0.054
 1213  SOL  HW2 3773   2.084   0.900   0.068
 1214  SOL   OW 3774   1.774   1.873   3.093
 1214  SOL  HW1 3775   1.722   1.793   3.095
 1214  SOL  HW2 3776   1.859   1.846   3.058
 1215  SOL   OW 3777   2.006   3.090   3.214
 1215  SOL  HW1 3778   1.971   3.010   3.253
 1215  SOL  HW2 3779   1.962   3.097   3.129
 1216  SOL   OW 3780   3.310   0.819   2.217
 1216  SOL  HW1 3781   3.253   0.745   2.241
 1216  SOL  HW2 3782   3.337   0.857   2.301
 1217  SOL   OW 3783   0.856   1.405   0.643
 1217  SOL  HW1 3784   0.882   1.414   0.552
 1217  SOL  HW2 3785   0.905   1.329   0.675
 1218  SOL   OW 3786   1.184   1.821   0.094
 1218  SOL  HW1 3787   1.204   1.907   0.058
 1218  SOL  HW2 3788   1.119   1.838   0.162
 1219  SOL   OW 3789   0.994   2.424   2.894
 1219  SOL  HW1 3790   1.037   2.509   2.880
 1219  SOL  HW2 3791   1.032   2.391   2.975
 1220  SOL   OW 3792   0.585   3.278   1.900
 1220  SOL  HW1 3793   0.524   3.324   1.843
 1220  SOL  HW2 3794   0.649   3.238   1.840
 1221  SOL   OW 3795   3.213   1.814   0.516
 1221  SOL  HW1 3796   3.213   1.901   0.479
 1221  SOL  HW2 3797   3.286   1.769   0.473
 1222  SOL   OW 3798   1.210   0.553   1.922
 1222  SOL  HW1 3799   1.133   0.601   1.893
 1222  SOL  HW2 3800   1.177   0.493   1.990
 1223  SOL   OW 3801   1.381   1.813   0.337
 1223  SOL  HW1 3802   1.323   1.877   0.297
 1223  SOL  HW2 3803   1.442   1.789   0.268
 1224  SOL   OW 3804   0.175   0.184   3.099
 1224  SOL  HW1 3805   0.138   0.165   3.185
 1224  SOL  HW2 3806   0.127   0.127   3.039
 1225  SOL   OW 3807   0.939   2.260   1.381
 1225  SOL  HW1 3808   0.882   2.221   1.315
 1225  SOL  HW2 3809   0.955   2.349   1.348
 1226  SOL   OW 3810   1.726   1.961   2.549
 1226  SOL  HW1 3811   1.756   2.051   2.554
 1226  SOL  HW2 3812   1.645   1.966   2.499
 1227  SOL   OW 3813   0.072   2.135   0.793
 1227  SOL  HW1 3814   0.148   2.150   0.736
 1227  SOL  HW2 3815   0.042   2.047   0.770
 1228  SOL   OW 3816   2.702   0.453   2.543
 1228  SOL  HW1 3817   2.619   0.410   2.523
 1228  SOL  HW2 3818   2.720   0.508   2.466
 1229  SOL   OW 3819   2.157   1.764   2.426
 1229  SOL  HW1 3820   2.089   1.818   2.465
 1229  SOL  HW2 3821   2.210   1.826   2.374
 1230  SOL   OW 3822   0.143   2.960   2.845
 1230  SOL  HW1 3823   0.191   3.042   2.854
 1230  SOL  HW2 3824   0.179   2.919   2.766
 1231  SOL   OW 3825   1.774   1.116   1.729
 1231  SOL  HW1 3826   1.807   1.133   1.641
 1231  SOL  HW2 3827   1.679   1.125   1.721
 1232  SOL   OW 3828   3.191   1.013   1.518
 1232  SOL  HW1 3829   3.137   1.005   1.597
 1232  SOL  HW2 3830   3.132   0.987   1.447
 1233  SOL   OW 3831   0.185   2.574   0.917
 1233  SOL  HW1 3832   0.120   2.527   0.864
 1233  SOL  HW2 3833   0.267   2.526   0.902
 1234  SOL   OW 3834   1.734   0.326   2.584
 1234  SOL  HW1 3835   1.714   0.417   2.564
 1234  SOL  HW2 3836   1.821   0.328   2.624
 1235  SOL   OW 3837   0.450   3.434   2.874
 1235  SOL  HW1 3838   0.541   3.422   2.849
 1235  SOL  HW2 3839   0.438   3.528   2.878
 1236  SOL   OW 3840   2.817   3.203   0.530
 1236  SOL  HW1 3841   2.735   3.178   0.487
 1236  SOL  HW2 3842   2.884   3.152   0.484
 1237  SOL   OW 3843   2.507   3.036   2.162
 1237  SOL  HW1 3844   2.413   3.045   2.181
 1237  SOL  HW2 3845   2.523   3.098   2.091
 1238  SOL   OW 3846   0.299   1.670   0.319
 1238  SOL  HW1 3847   0.359   1.731   0.363
 1238  SOL  HW2 3848   0.314   1.586   0.361
 1239  SOL   OW 3849   2.504   2.773   2.256
 1239  SOL  HW1 3850   2.519   2.703   2.320
 1239  SOL  HW2 3851   2.518   2.853   2.305
 1240  SOL   OW 3852   0.665   1.124   1.210
 1240  SOL  HW1 3853   0.599   1.055   1.222
 1240  SOL  HW2 3854   0.680   1.158   1.298
 1241  SOL   OW 3855   0.097   0.627  -0.007
 1241  SOL  HW1 3856   0.086   0.679   0.073
 1241  SOL  HW2 3857   0.133   0.544   0.023
 1242  SOL   OW 3858   1.107   1.597   0.917
 1242  SOL  HW1 3859   1.023   1.603   0.870
 1242  SOL  HW2 3860   1.132   1.688   0.933
 1243  SOL   OW 3861   2.544   3.397   1.735
 1243  SOL  HW1 3862   2.502   3.359   1.657
 1243  SOL  HW2 3863   2.593   3.472   1.702
 1244  SOL   OW 3864   2.038   3.426   2.357
 1244  SOL  HW1 3865   2.064   3.345   2.401
 1244  SOL  HW2 3866   2.091   3.427   2.277
 1245  SOL   OW 3867   1.414   1.440   0.363
 1245  SOL  HW1 3868   1.327   1.468   0.392
 1245  SOL  HW2 3869   1.449   1.389   0.436
 1246  SOL   OW 3870   1.672   2.969   0.724
 1246  SOL  HW1 3871   1.633   3.002   0.805
 1246  SOL  HW2 3872   1.708   3.046   0.681
 1247  SOL   OW 3873   2.750   2.712   3.301
 1247  SOL  HW1 3874   2.659   2.742   3.295
 1247  SOL  HW2 3875   2.752   2.656   3.379
 1248  SOL   OW 3876   2.567   0.337   0.983
 1248  SOL  HW1 3877   2.510   0.407   0.950
 1248  SOL  HW2 3878   2.521   0.257   0.958
 1249  SOL   OW 3879   1.029   1.315   3.490
 1249  SOL  HW1 3880   1.057   1.397   3.451
 1249  SOL  HW2 3881   1.103   1.287   3.544
 1250  SOL   OW 3882   3.227   0.348   3.141
 1250  SOL  HW1 3883   3.151   0.290   3.141
 1250  SOL  HW2 3884   3.302   0.289   3.142
 1251  SOL   OW 3885   1.145   0.180   2.533
 1251  SOL  HW1 3886   1.147   0.254   2.594
 1251  SOL  HW2 3887   1.190   0.110   2.580
 1252  SOL   OW 3888   1.816   2.279   1.618
 1252  SOL  HW1 3889   1.888   2.301   1.559
 1252  SOL  HW2 3890   1.797   2.187   1.599
 1253  SOL   OW 3891   1.124   0.846   1.998
 1253  SOL  HW1 3892   1.157   0.765   2.038
 1253  SOL  HW2 3893   1.202   0.891   1.967
 1254  SOL   OW 3894   2.955   3.252   3.228
 1254  SOL  HW1 3895   2.985   3.287   3.145
 1254  SOL  HW2 3896   3.036   3.234   3.277
 1255  SOL   OW 3897   0.857   0.580   2.206
 1255  SOL  HW1 3898   0.946   0.582   2.170
 1255  SOL  HW2 3899   0.861   0.517   2.278
 1256  SOL   OW 3900   2.045   2.589   0.055
 1256  SOL  HW1 3901   2.099   2.612  -0.021
 1256  SOL  HW2 3902   2.034   2.672   0.102
 1257  SOL   OW 3903   1.871   1.752   1.277
 1257  SOL  HW1 3904   1.789   1.703   1.280
 1257  SOL  HW2 3905   1.931   1.695   1.228
 1258  SOL   OW 3906   0.129   2.489   1.185
 1258  SOL  HW1 3907   0.041   2.527   1.180
 1258  SOL  HW2 3908   0.160   2.489   1.095
 1259  SOL   OW 3909   3.064   2.947   1.568
 1259  SOL  HW1 3910   3.146   2.898   1.562
 1259  SOL  HW2 3911   3.040   2.965   1.476
 1260  SOL   OW 3912   2.691   0.699   0.655
 1260  SOL  HW1 3913   2.657   0.725   0.740
 1260  SOL  HW2 3914   2.621   0.648   0.615
 1261  SOL   OW 3915   3.060   0.737   1.485
 1261  SOL  HW1 3916   3.062   0.745   1.581
 1261  SOL  HW2 3917   2.968   0.718   1.464
 1262  SOL   OW 3918   2.509   0.870   0.112
 1262  SOL  HW1 3919   2.519   0.946   0.169
 1262  SOL  HW2 3920   2.419   0.839   0.128
 1263  SOL   OW 3921   0.603   1.478   1.322
 1263  SOL  HW1 3922   0.600   1.555   1.266
 1263  SOL  HW2 3923   0.554   1.411   1.274
 1264  SOL   OW 3924   1.090   2.041   2.833
 1264  SOL  HW1 3925   1.129   2.081   2.755
 1264  SOL  HW2 3926   1.118   2.097   2.905
 1265  SOL   OW 3927   0.610   2.046   2.320
 1265  SOL  HW1 3928   0.547   2.117   2.306
 1265  SOL  HW2 3929   0.662   2.074   2.395
 1266  SOL   OW 3930   1.823   0.156   1.523
 1266  SOL  HW1 3931   1.748   0.112   1.564
 1266  SOL  HW2 3932   1.885   0.168   1.595
 1267  SOL   OW 3933   0.415   2.373   0.760
 1267  SOL  HW1 3934   0.408   2.285   0.797
 1267  SOL  HW2 3935   0.368   2.368   0.677
 1268  SOL   OW 3936   0.598   2.444   0.129
 1268  SOL  HW1 3937   0.587   2.405   0.042
 1268  SOL  HW2 3938   0.537   2.518   0.131
 1269  SOL   OW 3939   2.292   0.787   0.366
 1269  SOL  HW1 3940   2.344   0.849   0.417
 1269  SOL  HW2 3941   2.208   0.830   0.354
 1270  SOL   OW 3942   3.058   1.329   1.122
 1270  SOL  HW1 3943   2.978   1.360   1.079
 1270  SOL  HW2 3944   3.042   1.343   1.215
 1271  SOL   OW 3945   2.107   2.205   0.896
 1271  SOL  HW1 3946   2.065   2.257   0.965
 1271  SOL  HW2 3947   2.196   2.190   0.928
 1272  SOL   OW 3948   1.648   3.490   1.693
 1272  SOL  HW1 3949   1.651   3.451   1.780
 1272  SOL  HW2 3950   1.586   3.563   1.702
 1273  SOL   OW 3951   1.848   0.089   0.436
 1273  SOL  HW1 3952   1.897   0.170   0.425
 1273  SOL  HW2 3953   1.914   0.023   0.456
 1274  SOL   OW 3954   1.520   3.109   1.747
 1274  SOL  HW1 3955   1.441   3.066   1.714
 1274  SOL  HW2 3956   1.542   3.062   1.827
 1275  SOL   OW 3957   2.453   1.124   3.430
 1275  SOL  HW1 3958   2.400   1.044   3.432
 1275  SOL  HW2 3959   2.464   1.147   3.522
 1276  SOL   OW 3960   3.046   0.634   3.503
 1276  SOL  HW1 3961   3.034   0.726   3.482
 1276  SOL  HW2 3962   3.140   0.625   3.519
 1277  SOL   OW 3963   2.308   1.646   0.301
 1277  SOL  HW1 3964   2.332   1.556   0.322
 1277  SOL  HW2 3965   2.389   1.696   0.309
 1278  SOL   OW 3966   1.739   1.245   2.210
 1278  SOL  HW1 3967   1.707   1.166   2.168
 1278  SOL  HW2 3968   1.706   1.317   2.156
 1279  SOL   OW 3969   0.131   2.137   2.874
 1279  SOL  HW1 3970   0.091   2.222   2.856
 1279  SOL  HW2 3971   0.225   2.156   2.880
 1280  SOL   OW 3972   0.045   2.242   0.120
 1280  SOL  HW1 3973   0.092   2.259   0.202
 1280  SOL  HW2 3974   0.059   2.322   0.069
 1281  SOL   OW 3975   0.765   2.679   1.037
 1281  SOL  HW1 3976   0.775   2.583   1.039
 1281  SOL  HW2 3977   0.821   2.710   1.107
 1282  SOL   OW 3978   2.592   3.198   1.955
 1282  SOL  HW1 3979   2.644   3.118   1.954
 1282  SOL  HW2 3980   2.597   3.231   1.866
 1283  SOL   OW 3981   0.022   1.405   2.106
 1283  SOL  HW1 3982  -0.074   1.409   2.098
 1283  SOL  HW2 3983   0.054   1.431   2.019
 1284  SOL   OW 3984   1.069   1.534   1.949
 1284  SOL  HW1 3985   1.108   1.597   1.888
 1284  SOL  HW2 3986   1.089   1.569   2.036
 1285  SOL   OW 3987   2.319   1.785   2.084
 1285  SOL  HW1 3988   2.287   1.695   2.093
 1285  SOL  HW2 3989   2.320   1.820   2.174
 1286  SOL   OW 3990   2.289   0.334   2.276
 1286  SOL  HW1 3991   2.205   0.374   2.300
 1286  SOL  HW2 3992   2.343   0.344   2.355
 1287  SOL   OW 3993   0.148   2.909   0.595
 1287  SOL  HW1 3994   0.190   2.943   0.674
 1287  SOL  HW2 3995   0.181   2.966   0.525
 1288  SOL   OW 3996   1.676   3.192   0.441
 1288  SOL  HW1 3997   1.692   3.182   0.347
 1288  SOL  HW2 3998   1.581   3.186   0.450
 1289  SOL   OW 3999   2.191   1.547   2.073
 1289  SOL  HW1 4000   2.234   1.565   1.989
 1289  SOL  HW2 4001   2.107   1.595   2.067
 1290  SOL   OW 4002   1.985   2.082   1.736
 1290  SOL  HW1 4003   1.922   2.021   1.700
 1290  SOL  HW2 4004   2.023   2.036   1.811
 1291  SOL   OW 4005   1.694   2.306   0.236
 1291  SOL  HW1 4006   1.758   2.235   0.239
 1291  SOL  HW2 4007   1.678   2.327   0.328
 1292  SOL   OW 4008   2.880   0.598   2.677
 1292  SOL  HW1 4009   2.798   0.550   2.661
 1292  SOL  HW2 4010   2.924   0.601   2.592
 1293  SOL   OW 4011   2.268   2.402   2.334
 1293  SOL  HW1 4012   2.190   2.357   2.366
 1293  SOL  HW2 4013   2.247   2.426   2.244
 1294  SOL   OW 4014   2.929   0.722   2.307
 1294  SOL  HW1 4015   2.914   0.632   2.278
 1294  SOL  HW2 4016   2.883   0.776   2.243
 1295  SOL   OW 4017   3.498   0.630   0.750
 1295  SOL  HW1 4018   3.539   0.592   0.672
 1295  SOL  HW2 4019   3.474   0.719   0.723
 1296  SOL   OW 4020   1.360   0.776   2.669
 1296  SOL  HW1 4021   1.284   0.745   2.718
 1296  SOL  HW2 4022   1.435   0.741   2.716
 1297  SOL   OW 4023   1.212   2.743   1.182
 1297  SOL  HW1 4024   1.289   2.761   1.129
 1297  SOL  HW2 4025   1.224   2.652   1.211
 1298  SOL   OW 4026   0.180   0.189   0.415
 1298  SOL  HW1 4027   0.259   0.217   0.461
 1298  SOL  HW2 4028   0.110   0.244   0.450
 1299  SOL   OW 4029   2.720   3.158   2.639
 1299  SOL  HW1 4030   2.811   3.167   2.611
 1299  SOL  HW2 4031   2.697   3.243   2.675
 1300  SOL   OW 4032   3.461   2.362   2.142
 1300  SOL  HW1 4033   3.465   2.399   2.230
 1300  SOL  HW2 4034   3.532   2.405   2.094
 1301  SOL   OW 4035   0.294   1.622   1.675
 1301  SOL  HW1 4036   0.370   1.568   1.655
 1301  SOL  HW2 4037   0.331   1.703   1.711
 1302  SOL   OW 4038   1.475   1.716   3.505
 1302  SOL  HW1 4039   1.380   1.722   3.519
 1302  SOL  HW2 4040   1.490   1.760   3.422
 1303  SOL   OW 4041   1.155   0.583   3.387
 1303  SOL  HW1 4042   1.100   0.659   3.403
 1303  SOL  HW2 4043   1.120   0.544   3.306
 1304  SOL   OW 4044   2.708   2.829   0.455
 1304  SOL  HW1 4045   2.737   2.918   0.439
 1304  SOL  HW2 4046   2.673   2.799   0.371
 1305  SOL   OW 4047   2.239   1.518   2.509
 1305  SOL  HW1 4048   2.217   1.610   2.498
 1305  SOL  HW2 4049   2.276   1.491   2.425
 1306  SOL   OW 4050   0.151   0.833   0.150
 1306  SOL  HW1 4051   0.230   0.827   0.204
 1306  SOL  HW2 4052   0.169   0.907   0.091
 1307  SOL   OW 4053   2.994   3.080   1.013
 1307  SOL  HW1 4054   3.022   3.144   0.948
 1307  SOL  HW2 4055   2.902   3.099   1.029
 1308  SOL   OW 4056   0.595   0.780   3.374
 1308  SOL  HW1 4057   0.577   0.699   3.420
 1308  SOL  HW2 4058   0.673   0.815   3.416
 1309  SOL   OW 4059   2.064   0.805   2.548
 1309  SOL  HW1 4060   2.009   0.811   2.626
 1309  SOL  HW2 4061   2.018   0.856   2.482
 1310  SOL   OW 4062   0.273   2.666   1.366
 1310  SOL  HW1 4063   0.331   2.713   1.307
 1310  SOL  HW2 4064   0.232   2.599   1.312
 1311  SOL   OW 4065   0.349   2.603   0.177
 1311  SOL  HW1 4066   0.391   2.660   0.113
 1311  SOL  HW2 4067   0.340   2.656   0.255
 1312  SOL   OW 4068   3.417   0.465   1.559
 1312  SOL  HW1 4069   3.406   0.400   1.629
 1312  SOL  HW2 4070   3.335   0.461   1.509
 1313  SOL   OW 4071   2.328   0.464   1.240
 1313  SOL  HW1 4072   2.407   0.482   1.190
 1313  SOL  HW2 4073   2.277   0.406   1.183
 1314  SOL   OW 4074   0.507   1.379   2.839
 1314  SOL  HW1 4075   0.524   1.288   2.812
 1314  SOL  HW2 4076   0.451   1.414   2.770
 1315  SOL   OW 4077   2.027   3.403   0.146
 1315  SOL  HW1 4078   1.976   3.474   0.185
 1315  SOL  HW2 4079   2.084   3.372   0.217
 1316  SOL   OW 4080   2.562   1.692   3.493
 1316  SOL  HW1 4081   2.548   1.779   3.530
 1316  SOL  HW2 4082   2.474   1.660   3.472
 1317  SOL   OW 4083   0.206   3.333   0.922
 1317  SOL  HW1 4084   0.164   3.262   0.968
 1317  SOL  HW2 4085   0.285   3.352   0.973
 1318  SOL   OW 4086   1.523   1.416   1.399
 1318  SOL  HW1 4087   1.439   1.461   1.412
 1318  SOL  HW2 4088   1.588   1.475   1.436
 1319  SOL   OW 4089   2.667   1.081   1.027
 1319  SOL  HW1 4090   2.747   1.113   0.985
 1319  SOL  HW2 4091   2.596   1.130   0.985
 1320  SOL   OW 4092   0.426   3.231   0.246
 1320  SOL  HW1 4093   0.480   3.190   0.179
 1320  SOL  HW2 4094   0.419   3.322   0.218
 1321  SOL   OW 4095   2.542   2.405   2.255
 1321  SOL  HW1 4096   2.501   2.318   2.255
 1321  SOL  HW2 4097   2.490   2.455   2.317
 1322  SOL   OW 4098   3.015   2.077   2.151
 1322  SOL  HW1 4099   3.093   2.120   2.116
 1322  SOL  HW2 4100   2.945   2.141   2.140
 1323  SOL   OW 4101   1.089   0.150   2.270
 1323  SOL  HW1 4102   1.064   0.147   2.363
 1323  SOL  HW2 4103   1.006   0.153   2.223
 1324  SOL   OW 4104   2.539   1.375   2.167
 1324  SOL  HW1 4105   2.479   1.375   2.241
 1324  SOL  HW2 4106   2.567   1.284   2.158
 1325  SOL   OW 4107   2.500   2.940   1.425
 1325  SOL  HW1 4108   2.575   2.955   1.368
 1325  SOL  HW2 4109   2.534   2.879   1.492
 1326  SOL   OW 4110   2.091   1.151   1.722
 1326  SOL  HW1 4111   2.047   1.148   1.806
 1326  SOL  HW2 4112   2.183   1.165   1.743
 1327  SOL   OW 4113   2.152   3.451   2.666
 1327  SOL  HW1 4114   2.148   3.514   2.595
 1327  SOL  HW2 4115   2.138   3.502   2.745
 1328  SOL   OW 4116   0.768   1.327   0.150
 1328  SOL  HW1 4117   0.818   1.259   0.195
 1328  SOL  HW2 4118   0.812   1.336   0.065
 1329  SOL   OW 4119   0.431   1.079   0.157
 1329  SOL  HW1 4120   0.432   1.174   0.161
 1329  SOL  HW2 4121   0.405   1.059   0.067
 1330  SOL   OW 4122   2.027   0.871   2.033
 1330  SOL  HW1 4123   2.060   0.915   2.111
 1330  SOL  HW2 4124   1.965   0.933   1.994
 1331  SOL   OW 4125   3.125   0.753   1.748
 1331  SOL  HW1 4126   3.150   0.820   1.811
 1331  SOL  HW2 4127   3.135   0.670   1.796
 1332  SOL   OW 4128   0.277   2.967   2.589
 1332  SOL  HW1 4129   0.322   2.963   2.504
 1332  SOL  HW2 4130   0.334   2.918   2.648
 1333  SOL   OW 4131   2.826   1.945   2.304
 1333  SOL  HW1 4132   2.853   1.940   2.396
 1333  SOL  HW2 4133   2.901   1.984   2.259
 1334  SOL   OW 4134   0.967   2.110   1.075
 1334  SOL  HW1 4135   0.922   2.027   1.092
 1334  SOL  HW2 4136   0.896   2.174   1.065
 1335  SOL   OW 4137   1.456   2.547   0.707
 1335  SOL  HW1 4138   1.427   2.632   0.741
 1335  SOL  HW2 4139   1.550   2.558   0.692
 1336  SOL   OW 4140   0.653   2.582   2.948
 1336  SOL  HW1 4141   0.722   2.643   2.972
 1336  SOL  HW2 4142   0.664   2.508   3.007
 1337  SOL   OW 4143   0.061   2.358   2.679
 1337  SOL  HW1 4144   0.103   2.437   2.714
 1337  SOL  HW2 4145   0.133   2.307   2.641
 1338  SOL   OW 4146   2.998   1.641   1.907
 1338  SOL  HW1 4147   3.033   1.684   1.985
 1338  SOL  HW2 4148   3.067   1.581   1.880
 1339  SOL   OW 4149   0.880   1.168   1.952
 1339  SOL  HW1 4150   0.823   1.098   1.985
 1339  SOL  HW2 4151   0.945   1.181   2.021
 1340  SOL   OW 4152   0.584   0.194   3.318
 1340  SOL  HW1 4153   0.556   0.175   3.228
 1340  SOL  HW2 4154   0.517   0.153   3.372
 1341  SOL   OW 4155   2.620   3.441   0.637
 1341  SOL  HW1 4156   2.655   3.428   0.726
 1341  SOL  HW2 4157   2.657   3.525   0.610
 1342  SOL   OW 4158   2.729   2.153   1.563
 1342  SOL  HW1 4159   2.790   2.155   1.637
 1342  SOL  HW2 4160   2.740   2.066   1.525
 1343  SOL   OW 4161   3.229   1.527   1.816
 1343  SOL  HW1 4162   3.235   1.471   1.894
 1343  SOL  HW2 4163   3.280   1.605   1.838
 1344  SOL   OW 4164   2.861   2.618   0.464
 1344  SOL  HW1 4165   2.821   2.704   0.466
 1344  SOL  HW2 4166   2.942   2.630   0.414
 1345  SOL   OW 4167   1.763   3.347   2.928
 1345  SOL  HW1 4168   1.669   3.335   2.914
 1345  SOL  HW2 4169   1.769   3.429   2.978
 1346  SOL   OW 4170   0.770   1.537   1.575
 1346  SOL  HW1 4171   0.855   1.498   1.594
 1346  SOL  HW2 4172   0.743   1.498   1.492
 1347  SOL   OW 4173   1.956   0.204   1.759
 1347  SOL  HW1 4174   2.051   0.201   1.747
 1347  SOL  HW2 4175   1.943   0.268   1.830
 1348  SOL   OW 4176   1.300   2.538   2.432
 1348  SOL  HW1 4177   1.395   2.541   2.438
 1348  SOL  HW2 4178   1.280   2.448   2.406
 1349  SOL   OW 4179   1.027   0.811   3.417
 1349  SOL  HW1 4180   1.047   0.885   3.476
 1349  SOL  HW2 4181   0.951   0.841   3.367
 1350  SOL   OW 4182   2.846   1.340   3.144
 1350  SOL  HW1 4183   2.757   1.308   3.131
 1350  SOL  HW2 4184   2.902   1.263   3.128
 1351  SOL   OW 4185   2.267   1.327   2.876
 1351  SOL  HW1 4186   2.344   1.279   2.907
 1351  SOL  HW2 4187   2.240   1.280   2.797
 1352  SOL   OW 4188   0.527   2.623   0.904
 1352  SOL  HW1 4189   0.618   2.647   0.919
 1352  SOL  HW2 4190   0.532   2.540   0.857
 1353  SOL   OW 4191   3.342   2.244   1.711
 1353  SOL  HW1 4192   3.437   2.237   1.718
 1353  SOL  HW2 4193   3.325   2.258   1.618
 1354  SOL   OW 4194   1.573   0.361   0.154
 1354  SOL  HW1 4195   1.566   0.449   0.189
 1354  SOL  HW2 4196   1.532   0.305   0.220
 1355  SOL   OW 4197   0.034   1.862   0.673
 1355  SOL  HW1 4198   0.029   1.877   0.579
 1355  SOL  HW2 4199   0.121   1.824   0.687
 1356  SOL   OW 4200   0.408   0.586   1.983
 1356  SOL  HW1 4201   0.490   0.593   1.934
 1356  SOL  HW2 4202   0.340   0.579   1.917
 1357  SOL   OW 4203   0.920   1.201   3.080
 1357  SOL  HW1 4204   0.961   1.200   2.993
 1357  SOL  HW2 4205   0.964   1.272   3.126
 1358  SOL   OW 4206   1.745   3.334   1.070
 1358  SOL  HW1 4207   1.760   3.245   1.101
 1358  SOL  HW2 4208   1.650   3.341   1.061
 1359  SOL   OW 4209   3.535   2.558   1.880
 1359  SOL  HW1 4210   3.460   2.554   1.820
 1359  SOL  HW2 4211   3.521   2.638   1.929
 1360  SOL   OW 4212   2.243   1.640   2.858
 1360  SOL  HW1 4213   2.310   1.640   2.926
 1360  SOL  HW2 4214   2.220   1.548   2.847
 1361  SOL   OW 4215   3.336   3.392   1.359
 1361  SOL  HW1 4216   3.413   3.435   1.320
 1361  SOL  HW2 4217   3.268   3.460   1.358
 1362  SOL   OW 4218   0.030   0.347   1.297
 1362  SOL  HW1 4219  -0.032   0.303   1.355
 1362  SOL  HW2 4220   0.007   0.316   1.209
 1363  SOL   OW 4221   1.579   1.464   2.469
 1363  SOL  HW1 4222   1.655   1.522   2.462
 1363  SOL  HW2 4223   1.536   1.491   2.550
 1364  SOL   OW 4224   3.494   2.011   1.416
 1364  SOL  HW1 4225   3.404   1.983   1.431
 1364  SOL  HW2 4226   3.494   2.105   1.435
 1365  SOL   OW 4227   1.607   3.340   1.907
 1365  SOL  HW1 4228   1.525   3.384   1.929
 1365  SOL  HW2 4229   1.580   3.266   1.853
 1366  SOL   OW 4230   1.941   1.509   2.779
 1366  SOL  HW1 4231   1.962   1.456   2.855
 1366  SOL  HW2 4232   1.914   1.594   2.815
 1367  SOL   OW 4233   2.689   1.882   2.747
 1367  SOL  HW1 4234   2.746   1.806   2.749
 1367  SOL  HW2 4235   2.669   1.900   2.839
 1368  SOL   OW 4236   2.400   3.189   1.076
 1368  SOL  HW1 4237   2.484   3.206   1.119
 1368  SOL  HW2 4238   2.400   3.094   1.061
 1369  SOL   OW 4239   1.316   1.620   1.188
 1369  SOL  HW1 4240   1.285   1.581   1.269
 1369  SOL  HW2 4241   1.274   1.706   1.184
 1370  SOL   OW 4242   2.749   1.920   1.403
 1370  SOL  HW1 4243   2.681   1.891   1.343
 1370  SOL  HW2 4244   2.733   1.872   1.483
 1371  SOL   OW 4245   0.604   2.022   3.134
 1371  SOL  HW1 4246   0.563   1.954   3.080
 1371  SOL  HW2 4247   0.540   2.039   3.203
 1372  SOL   OW 4248   2.141   2.302   1.709
 1372  SOL  HW1 4249   2.068   2.241   1.716
 1372  SOL  HW2 4250   2.210   2.264   1.764
 1373  SOL   OW 4251   2.279   0.388   2.012
 1373  SOL  HW1 4252   2.334   0.429   2.078
 1373  SOL  HW2 4253   2.217   0.334   2.062
 1374  SOL   OW 4254   0.068   3.462   1.715
 1374  SOL  HW1 4255   0.112   3.392   1.668
 1374  SOL  HW2 4256   0.096   3.451   1.806
 1375  SOL   OW 4257   2.187   1.453   3.181
 1375  SOL  HW1 4258   2.249   1.386   3.210
 1375  SOL  HW2 4259   2.159   1.424   3.094
 1376  SOL   OW 4260   0.927   0.895   0.587
 1376  SOL  HW1 4261   1.022   0.882   0.596
 1376  SOL  HW2 4262   0.890   0.858   0.667
 1377  SOL   OW 4263   2.689   2.257   3.142
 1377  SOL  HW1 4264   2.607   2.281   3.098
 1377  SOL  HW2 4265   2.757   2.270   3.076
 1378  SOL   OW 4266   2.845   1.740   1.113
 1378  SOL  HW1 4267   2.889   1.804   1.056
 1378  SOL  HW2 4268   2.917   1.686   1.148
 1379  SOL   OW 4269   3.393   1.004   2.451
 1379  SOL  HW1 4270   3.440   0.992   2.534
 1379  SOL  HW2 4271   3.301   0.991   2.474
 1380  SOL   OW 4272   0.161   2.965   1.251
 1380  SOL  HW1 4273   0.070   2.941   1.270
 1380  SOL  HW2 4274   0.185   2.908   1.178
 1381  SOL   OW 4275   0.887   0.185   3.041
 1381  SOL  HW1 4276   0.828   0.239   2.988
 1381  SOL  HW2 4277   0.966   0.178   2.989
 1382  SOL   OW 4278   1.314   2.807   0.839
 1382  SOL  HW1 4279   1.355   2.770   0.918
 1382  SOL  HW2 4280   1.310   2.901   0.857
 1383  SOL   OW 4281   0.017   3.156   0.718
 1383  SOL  HW1 4282   0.029   3.064   0.694
 1383  SOL  HW2 4283   0.032   3.160   0.812
 1384  SOL   OW 4284   1.688   0.216   1.001
 1384  SOL  HW1 4285   1.599   0.185   0.990
 1384  SOL  HW2 4286   1.682   0.311   0.990
 1385  SOL   OW 4287   1.718   0.652   1.206
 1385  SOL  HW1 4288   1.794   0.598   1.230
 1385  SOL  HW2 4289   1.652   0.632   1.272
 1386  SOL   OW 4290   1.308   2.762   0.306
 1386  SOL  HW1 4291   1.359   2.686   0.334
 1386  SOL  HW2 4292   1.284   2.806   0.388
 1387  SOL   OW 4293   3.038   0.013   2.149
 1387  SOL  HW1 4294   3.124   0.054   2.137
 1387  SOL  HW2 4295   2.986   0.045   2.076
 1388  SOL   OW 4296   3.159   3.507   1.043
 1388  SOL  HW1 4297   3.132   3.530   0.954
 1388  SOL  HW2 4298   3.207   3.425   1.033
 1389  SOL   OW 4299   2.729   1.113   3.334
 1389  SOL  HW1 4300   2.745   1.032   3.382
 1389  SOL  HW2 4301   2.704   1.177   3.402
 1390  SOL   OW 4302   2.870   1.331   2.819
 1390  SOL  HW1 4303   2.899   1.371   2.737
 1390  SOL  HW2 4304   2.918   1.378   2.887
 1391  SOL   OW 4305   0.939   1.958   3.290
 1391  SOL  HW1 4306   0.915   1.866   3.305
 1391  SOL  HW2 4307   0.888   2.007   3.354
 1392  SOL   OW 4308   2.956   0.669   0.825
 1392  SOL  HW1 4309   2.915   0.691   0.741
 1392  SOL  HW2 4310   2.929   0.578   0.842
 1393  SOL   OW 4311   2.603   0.366   1.760
 1393  SOL  HW1 4312   2.601   0.455   1.795
 1393  SOL  HW2 4313   2.603   0.310   1.837
 1394  SOL   OW 4314   0.459   0.858   2.353
 1394  SOL  HW1 4315   0.552   0.860   2.332
 1394  SOL  HW2 4316   0.417   0.905   2.281
 1395  SOL   OW 4317   2.511   2.460   1.047
 1395  SOL  HW1 4318   2.472   2.462   0.960
 1395  SOL  HW2 4319   2.436   2.449   1.107
 1396  SOL   OW 4320   1.106   1.854   2.522
 1396  SOL  HW1 4321   1.189   1.808   2.532
 1396  SOL  HW2 4322   1.126   1.927   2.462
 1397  SOL   OW 4323   3.298   3.396   2.414
 1397  SOL  HW1 4324   3.299   3.400   2.510
 1397  SOL  HW2 4325   3.375   3.445   2.387
 1398  SOL   OW 4326   2.002   3.426   1.205
 1398  SOL  HW1 4327   1.933   3.381   1.157
 1398  SOL  HW2 4328   2.014   3.373   1.284
 1399  SOL   OW 4329   2.617   1.969   2.100
 1399  SOL  HW1 4330   2.591   1.878   2.084
 1399  SOL  HW2 4331   2.682   1.964   2.170
 1400  SOL   OW 4332   0.184   0.656   2.738
 1400  SOL  HW1 4333   0.271   0.692   2.756
 1400  SOL  HW2 4334   0.190   0.621   2.649
 1401  SOL   OW 4335   0.806   1.152   2.316
 1401  SOL  HW1 4336   0.868   1.183   2.383
 1401  SOL  HW2 4337   0.857   1.091   2.264
 1402  SOL   OW 4338   2.146   0.510   2.733
 1402  SOL  HW1 4339   2.126   0.557   2.652
 1402  SOL  HW2 4340   2.072   0.449   2.744
 1403  SOL   OW 4341   3.196   2.801   2.962
 1403  SOL  HW1 4342   3.267   2.865   2.958
 1403  SOL  HW2 4343   3.117   2.853   2.975
 1404  SOL   OW 4344   0.299   2.707   0.412
 1404  SOL  HW1 4345   0.331   2.669   0.493
 1404  SOL  HW2 4346   0.256   2.788   0.439
 1405  SOL   OW 4347   2.859   0.190   2.353
 1405  SOL  HW1 4348   2.802   0.116   2.333
 1405  SOL  HW2 4349   2.869   0.187   2.449
 1406  SOL   OW 4350   0.089   1.865   2.800
 1406  SOL  HW1 4351   0.154   1.813   2.846
 1406  SOL  HW2 4352   0.094   1.951   2.842
 1407  SOL   OW 4353   0.828   0.253   2.149
 1407  SOL  HW1 4354   0.755   0.240   2.210
 1407  SOL  HW2 4355   0.788   0.296   2.074
 1408  SOL   OW 4356   0.168   0.799   3.280
 1408  SOL  HW1 4357   0.163   0.754   3.196
 1408  SOL  HW2 4358   0.115   0.746   3.340
 1409  SOL   OW 4359   1.188   3.127   2.446
 1409  SOL  HW1 4360   1.114   3.186   2.460
 1409  SOL  HW2 4361   1.213   3.098   2.534
 1410  SOL   OW 4362   2.447   0.041   3.503
 1410  SOL  HW1 4363   2.494   0.071   3.425
 1410  SOL  HW2 4364   2.479   0.098   3.573
 1411  SOL   OW 4365   1.303   1.360   1.710
 1411  SOL  HW1 4366   1.274   1.328   1.796
 1411  SOL  HW2 4367   1.303   1.455   1.719
 1412  SOL   OW 4368   0.970   1.159   0.679
 1412  SOL  HW1 4369   0.932   1.071   0.670
 1412  SOL  HW2 4370   1.056   1.143   0.719
 1413  SOL   OW 4371   0.703   2.080   2.558
 1413  SOL  HW1 4372   0.617   2.057   2.594
 1413  SOL  HW2 4373   0.764   2.019   2.600
 1414  SOL   OW 4374   1.815   1.188   1.470
 1414  SOL  HW1 4375   1.835   1.143   1.388
 1414  SOL  HW2 4376   1.847   1.277   1.457
 1415  SOL   OW 4377   3.193   3.468   3.419
 1415  SOL  HW1 4378   3.239   3.385   3.419
 1415  SOL  HW2 4379   3.197   3.497   3.327
 1416  SOL   OW 4380   2.582   3.294   3.021
 1416  SOL  HW1 4381   2.612   3.246   3.098
 1416  SOL  HW2 4382   2.662   3.307   2.968
 1417  SOL   OW 4383   1.969   1.053   1.278
 1417  SOL  HW1 4384   2.014   1.056   1.194
 1417  SOL  HW2 4385   1.888   1.006   1.261
 1418  SOL   OW 4386   2.345   0.817   2.548
 1418  SOL  HW1 4387   2.257   0.827   2.586
 1418  SOL  HW2 4388   2.352   0.889   2.485
 1419  SOL   OW 4389   2.970   2.459   2.227
 1419  SOL  HW1 4390   2.895   2.403   2.246
 1419  SOL  HW2 4391   3.029   2.447   2.302
 1420  SOL   OW 4392   2.965   1.629   0.847
 1420  SOL  HW1 4393   2.927   1.612   0.760
 1420  SOL  HW2 4394   3.051   1.588   0.844
 1421  SOL   OW 4395   3.326   3.140   2.308
 1421  SOL  HW1 4396   3.319   3.230   2.340
 1421  SOL  HW2 4397   3.395   3.101   2.360
 1422  SOL   OW 4398   0.374   1.415   0.439
 1422  SOL  HW1 4399   0.444   1.383   0.381
 1422  SOL  HW2 4400   0.370   1.351   0.510
 1423  SOL   OW 4401   2.292   1.465   1.289
 1423  SOL  HW1 4402   2.316   1.467   1.381
 1423  SOL  HW2 4403   2.226   1.396   1.282
 1424  SOL   OW 4404   1.773   2.292   2.306
 1424  SOL  HW1 4405   1.790   2.256   2.219
 1424  SOL  HW2 4406   1.686   2.259   2.328
 1425  SOL   OW 4407   1.963   2.585   1.365
 1425  SOL  HW1 4408   1.907   2.563   1.440
 1425  SOL  HW2 4409   2.052   2.571   1.397
 1426  SOL   OW 4410   0.253   0.666   0.630
 1426  SOL  HW1 4411   0.186   0.663   0.562
 1426  SOL  HW2 4412   0.332   0.696   0.585
 1427  SOL   OW 4413   3.251   1.870   3.396
 1427  SOL  HW1 4414   3.167   1.916   3.392
 1427  SOL  HW2 4415   3.235   1.789   3.348
 1428  SOL   OW 4416   2.921   2.373   2.972
 1428  SOL  HW1 4417   2.933   2.397   3.064
 1428  SOL  HW2 4418   2.968   2.441   2.923
 1429  SOL   OW 4419   0.390   2.600   2.530
 1429  SOL  HW1 4420   0.316   2.652   2.560
 1429  SOL  HW2 4421   0.390   2.524   2.587
 1430  SOL   OW 4422   0.947   2.776   1.200
 1430  SOL  HW1 4423   1.033   2.734   1.192
 1430  SOL  HW2 4424   0.965   2.869   1.195
 1431  SOL   OW 4425   1.006   0.630   2.772
 1431  SOL  HW1 4426   1.078   0.669   2.822
 1431  SOL  HW2 4427   0.995   0.688   2.697
 1432  SOL   OW 4428   0.247   2.169   3.165
 1432  SOL  HW1 4429   0.284   2.088   3.198
 1432  SOL  HW2 4430   0.152   2.159   3.178
 1433  SOL   OW 4431   0.434   2.803   1.881
 1433  SOL  HW1 4432   0.372   2.741   1.843
 1433  SOL  HW2 4433   0.450   2.867   1.811
 1434  SOL   OW 4434   1.966   2.407   0.330
 1434  SOL  HW1 4435   2.019   2.466   0.276
 1434  SOL  HW2 4436   1.968   2.324   0.283
 1435  SOL   OW 4437   2.975   1.280   1.417
 1435  SOL  HW1 4438   2.963   1.190   1.447
 1435  SOL  HW2 4439   3.012   1.325   1.493
 1436  SOL   OW 4440   1.337   1.464   2.640
 1436  SOL  HW1 4441   1.368   1.554   2.651
 1436  SOL  HW2 4442   1.303   1.440   2.726
 1437  SOL   OW 4443   2.538   1.532   2.681
 1437  SOL  HW1 4444   2.570   1.614   2.643
 1437  SOL  HW2 4445   2.449   1.524   2.647
 1438  SOL   OW 4446   2.837   2.635   0.843
 1438  SOL  HW1 4447   2.821   2.560   0.786
 1438  SOL  HW2 4448   2.826   2.712   0.786
 1439  SOL   OW 4449   1.723   0.793   0.790
 1439  SOL  HW1 4450   1.702   0.822   0.701
 1439  SOL  HW2 4451   1.639   0.767   0.827
 1440  SOL   OW 4452   0.763   1.991   2.099
 1440  SOL  HW1 4453   0.694   2.017   2.161
 1440  SOL  HW2 4454   0.827   2.062   2.104
 1441  SOL   OW 4455   0.607   2.750   1.428
 1441  SOL  HW1 4456   0.555   2.829   1.447
 1441  SOL  HW2 4457   0.646   2.727   1.512
 1442  SOL   OW 4458   1.221   2.142   1.310
 1442  SOL  HW1 4459   1.137   2.182   1.285
 1442  SOL  HW2 4460   1.277   2.217   1.330
 1443  SOL   OW 4461   2.726   2.545   2.108
 1443  SOL  HW1 4462   2.671   2.487   2.161
 1443  SOL  HW2 4463   2.811   2.544   2.153
 1444  SOL   OW 4464   3.055   2.399   1.920
 1444  SOL  HW1 4465   3.123   2.332   1.934
 1444  SOL  HW2 4466   3.026   2.423   2.009
 1445  SOL   OW 4467   3.298   3.066   0.190
 1445  SOL  HW1 4468   3.329   2.978   0.167
 1445  SOL  HW2 4469   3.378   3.119   0.194
 1446  SOL   OW 4470   3.197   0.673   2.641
 1446  SOL  HW1 4471   3.187   0.716   2.556
 1446  SOL  HW2 4472   3.159   0.735   2.704
 1447  SOL   OW 4473   2.166   3.300   0.944
 1447  SOL  HW1 4474   2.123   3.217   0.965
 1447  SOL  HW2 4475   2.238   3.306   1.007
 1448  SOL   OW 4476   1.378   0.345   2.780
 1448  SOL  HW1 4477   1.367   0.372   2.688
 1448  SOL  HW2 4478   1.464   0.304   2.782
 1449  SOL   OW 4479   2.302   0.159   1.601
 1449  SOL  HW1 4480   2.219   0.113   1.603
 1449  SOL  HW2 4481   2.318   0.185   1.692
 1450  SOL   OW 4482   1.175   1.432   0.496
 1450  SOL  HW1 4483   1.103   1.463   0.441
 1450  SOL  HW2 4484   1.188   1.341   0.470
 1451  SOL   OW 4485   0.573   1.761   3.226
 1451  SOL  HW1 4486   0.545   1.693   3.164
 1451  SOL  HW2 4487   0.667   1.747   3.236
 1452  SOL   OW 4488   1.543   2.625   2.842
 1452  SOL  HW1 4489   1.507   2.682   2.774
 1452  SOL  HW2 4490   1.470   2.568   2.867
 1453  SOL   OW 4491   0.756   0.333   1.878
 1453  SOL  HW1 4492   0.689   0.269   1.853
 1453  SOL  HW2 4493   0.709   0.415   1.891
 1454  SOL   OW 4494   2.714   3.444   0.359
 1454  SOL  HW1 4495   2.625   3.470   0.334
 1454  SOL  HW2 4496   2.708   3.429   0.453
 1455  SOL   OW 4497   0.028   0.190   1.064
 1455  SOL  HW1 4498   0.056   0.127   0.997
 1455  SOL  HW2 4499  -0.014   0.136   1.131
 1456  SOL   OW 4500   3.093   1.339   3.341
 1456  SOL  HW1 4501   3.053   1.254   3.327
 1456  SOL  HW2 4502   3.157   1.347   3.270
 1457  SOL   OW 4503   1.991   1.562   2.346
 1457  SOL  HW1 4504   2.072   1.609   2.366
 1457  SOL  HW2 4505   1.929   1.593   2.412
 1458  SOL   OW 4506   3.411   2.752   2.288
 1458  SOL  HW1 4507   3.450   2.800   2.215
 1458  SOL  HW2 4508   3.320   2.739   2.262
 1459  SOL   OW 4509   3.052   2.102   3.349
 1459  SOL  HW1 4510   3.103   2.135   3.274
 1459  SOL  HW2 4511   2.977   2.059   3.309
 1460  SOL   OW 4512   2.030   0.206   2.090
 1460  SOL  HW1 4513   1.983   0.123   2.100
 1460  SOL  HW2 4514   1.968   0.263   2.044
 1461  SOL   OW 4515   0.519   3.155   2.663
 1461  SOL  HW1 4516   0.466   3.112   2.730
 1461  SOL  HW2 4517   0.464   3.153   2.585
 1462  SOL   OW 4518   0.076   0.460   2.139
 1462  SOL  HW1 4519   0.118   0.542   2.111
 1462  SOL  HW2 4520   0.123   0.392   2.091
 1463  SOL   OW 4521   1.268   1.816   2.907
 1463  SOL  HW1 4522   1.272   1.775   2.994
 1463  SOL  HW2 4523   1.250   1.908   2.925
 1464  SOL   OW 4524   0.989   2.135   2.075
 1464  SOL  HW1 4525   0.969   2.156   2.166
 1464  SOL  HW2 4526   1.083   2.150   2.067
 1465  SOL   OW 4527   0.706   2.310   0.339
 1465  SOL  HW1 4528   0.797   2.332   0.360
 1465  SOL  HW2 4529   0.685   2.365   0.264
 1466  SOL   OW 4530   0.279   0.224   0.791
 1466  SOL  HW1 4531   0.199   0.172   0.792
 1466  SOL  HW2 4532   0.287   0.258   0.880
 1467  SOL   OW 4533   2.397   0.851   2.101
 1467  SOL  HW1 4534   2.338   0.918   2.066
 1467  SOL  HW2 4535   2.428   0.803   2.024
 1468  SOL   OW 4536   0.453   0.180   3.083
 1468  SOL  HW1 4537   0.359   0.162   3.082
 1468  SOL  HW2 4538   0.462   0.264   3.036
 1469  SOL   OW 4539   1.388   3.228   0.403
 1469  SOL  HW1 4540   1.359   3.251   0.491
 1469  SOL  HW2 4541   1.349   3.143   0.386
 1470  SOL   OW 4542   2.449   2.176   2.097
 1470  SOL  HW1 4543   2.493   2.091   2.086
 1470  SOL  HW2 4544   2.377   2.175   2.035
 1471  SOL   OW 4545   0.324   2.173   1.541
 1471  SOL  HW1 4546   0.356   2.083   1.543
 1471  SOL  HW2 4547   0.292   2.185   1.451
 1472  SOL   OW 4548   0.925   2.906   3.272
 1472  SOL  HW1 4549   0.909   2.960   3.195
 1472  SOL  HW2 4550   1.003   2.855   3.250
 1473  SOL   OW 4551   1.292   1.673   0.573
 1473  SOL  HW1 4552   1.249   1.593   0.544
 1473  SOL  HW2 4553   1.349   1.698   0.500
 1474  SOL   OW 4554   3.376   2.205   3.303
 1474  SOL  HW1 4555   3.366   2.117   3.266
 1474  SOL  HW2 4556   3.298   2.252   3.273
 1475  SOL   OW 4557   2.882   2.836   2.798
 1475  SOL  HW1 4558   2.918   2.822   2.711
 1475  SOL  HW2 4559   2.840   2.753   2.821
 1476   NA   NA 4560   2.301   3.275   2.620
   3.51340   3.51340   3.51340
