Protein in water
 4560
    0TYR      N    1   2.021   1.929   3.156 -0.2283  0.0114 -0.1381
    0TYR     H1    2   1.921   1.917   3.131 -0.2015 -1.9368  0.4995
    0TYR     H2    3   2.030   1.921   3.259  0.2124  0.4585 -0.1385
    0TYR     H3    4   2.067   1.858   3.095  1.4230  1.8176 -1.1223
    0TYR     CA    5   2.076   2.056   3.091  0.2354  0.8955  0.3463
    0TYR     HA    6   2.038   2.059   2.989 -1.9839  0.7649  1.1244
    0TYR     CB    7   2.036   2.186   3.163 -0.1584  0.4218  0.3801
    0TYR    HB1    8   2.072   2.269   3.098 -0.6774  1.2889  1.1758
    0TYR    HB2    9   2.084   2.185   3.263 -3.2089  0.1271  1.9702
    0TYR     CG   10   1.891   2.219   3.178 -0.3145  0.1275  0.0070
    0TYR    CD1   11   1.831   2.223   3.309  0.3534  0.0159  0.4319
    0TYR    HD1   12   1.895   2.198   3.392  0.7362 -0.0963  0.1043
    0TYR    CE1   13   1.693   2.263   3.318  0.3457  0.2617  1.1264
    0TYR    HE1   14   1.644   2.250   3.414 -0.4562 -1.6798  0.5109
    0TYR     CZ   15   1.618   2.285   3.196 -0.0583  0.4270 -0.2368
    0TYR     OH   16   1.479   2.299   3.190  0.3914  0.4827 -0.2995
    0TYR     HH   17   1.451   2.280   3.279  0.3143 -1.6953 -0.7267
    0TYR    CD2   18   1.820   2.251   3.063  0.2483  0.5649 -0.8911
    0TYR    HD2   19   1.867   2.224   2.970  0.0005 -0.0525 -0.8477
    0TYR    CE2   20   1.686   2.289   3.075 -0.3948 -0.3139  0.4846
    0TYR    HE2   21   1.624   2.299   2.987  1.9222  1.0767 -1.1049
    0TYR      C   22   2.229   2.048   3.084  0.3873  0.2343  0.1947
    0TYR      O   23   2.280   2.033   2.976  0.6882  0.4623 -0.7811
    1TYR      N   24   2.299   2.046   3.198  0.3910 -0.1733 -0.2329
    1TYR     HN   25   2.262   2.075   3.286  0.4510 -1.4758  0.2469
    1TYR     CA   26   2.438   2.057   3.185  0.5077  0.7146  0.2256
    1TYR     HA   27   2.477   2.101   3.095  0.3309  2.5536  0.9868
    1TYR     CB   28   2.486   2.153   3.296 -0.7884  0.4424 -0.3626
    1TYR    HB1   29   2.597   2.162   3.298 -0.8571  1.4000  1.3917
    1TYR    HB2   30   2.456   2.116   3.397 -0.1174 -0.6525 -0.5501
    1TYR     CG   31   2.438   2.292   3.277  0.0358  0.3897  0.2137
    1TYR    CD1   32   2.478   2.364   3.161  0.2389  0.5310 -0.1893
    1TYR    HD1   33   2.538   2.318   3.083  0.4938  1.1992 -0.3877
    1TYR    CE1   34   2.438   2.495   3.142  0.0237  0.6729  0.6036
    1TYR    HE1   35   2.477   2.550   3.058  0.6415 -1.4711 -0.5850
    1TYR     CZ   36   2.368   2.557   3.246 -1.2715 -0.0130  0.2296
    1TYR     OH   37   2.359   2.695   3.251  0.6408  0.0864 -0.2872
    1TYR     HH   38   2.276   2.719   3.294  0.6791  1.9581 -1.1565
    1TYR    CD2   39   2.348   2.351   3.370 -0.5738 -0.3529  0.3910
    1TYR    HD2   40   2.307   2.300   3.456 -1.0824 -0.9147 -0.1758
    1TYR    CE2   41   2.320   2.488   3.352  0.4453  0.1681  0.0469
    1TYR    HE2   42   2.253   2.536   3.421  2.9077  1.0979  1.9296
    1TYR      C   43   2.501   1.925   3.214 -0.1963 -0.1063 -0.5717
    1TYR      O   44   2.465   1.849   3.303  0.7200  0.8348  0.2856
    2ASP      N   45   2.612   1.889   3.146 -0.1895 -0.0810  0.2639
    2ASP     HN   46   2.636   1.933   3.060  0.0342  0.5603  0.6465
    2ASP     CA   47   2.693   1.772   3.179  0.9709  0.3954 -0.2662
    2ASP     HA   48   2.631   1.711   3.243 -1.3375  0.9393 -1.8392
    2ASP     CB   49   2.715   1.692   3.048 -0.0540  0.2604 -0.2911
    2ASP    HB1   50   2.791   1.748   2.991 -1.4764  0.6758 -1.8651
    2ASP    HB2   51   2.622   1.695   2.988 -1.6602 -0.5879  1.9938
    2ASP     CG   52   2.734   1.539   3.066  0.5348 -0.3289  0.3885
    2ASP    OD1   53   2.834   1.480   3.017  0.4185 -0.1701 -0.1033
    2ASP    OD2   54   2.644   1.470   3.129  0.0315  0.7419  0.5156
    2ASP      C   55   2.836   1.799   3.252  0.1107 -0.5613 -0.1423
    2ASP      O   56   2.886   1.910   3.222  0.2585  0.0615 -0.1957
    3PRO      N   57   2.897   1.709   3.323  0.6158 -0.4220 -0.5903
    3PRO     CD   58   2.833   1.600   3.397 -0.1227 -0.6675  0.2214
    3PRO    HD1   59   2.736   1.640   3.435  0.8630  0.0538  2.1350
    3PRO    HD2   60   2.814   1.514   3.330  0.6990 -0.6746 -0.0150
    3PRO     CA   61   3.027   1.748   3.381  0.6703 -0.0367 -0.2903
    3PRO     HA   62   3.038   1.856   3.386  3.4851 -0.1893 -1.5147
    3PRO     CB   63   3.026   1.689   3.523  0.7064  0.2404  0.0417
    3PRO    HB1   64   2.997   1.769   3.595  0.9817  0.0463  0.3723
    3PRO    HB2   65   3.123   1.637   3.539  0.8630  0.7938  0.9673
    3PRO     CG   66   2.924   1.566   3.511 -0.2127 -0.0153 -0.8265
    3PRO    HG1   67   2.873   1.530   3.603 -0.0438 -3.1361 -1.8138
    3PRO    HG2   68   2.999   1.489   3.482  0.7865  0.7479 -0.3470
    3PRO      C   69   3.123   1.695   3.287  0.2848 -0.1508  0.1772
    3PRO      O   70   3.231   1.750   3.287 -0.2249  0.3631 -0.0961
    4GLY      N   71   3.086   1.603   3.207 -0.4037 -0.5981 -0.2220
    4GLY     HN   72   2.994   1.567   3.213 -0.4219 -1.0384 -2.4090
    4GLY     CA   73   3.166   1.554   3.094 -0.0091 -0.1630 -0.6600
    4GLY    HA1   74   3.143   1.452   3.068 -0.4425  0.4597 -3.0139
    4GLY    HA2   75   3.270   1.566   3.121  0.1024 -0.4373 -0.9612
    4GLY      C   76   3.140   1.633   2.965 -0.1415  0.4828 -0.2227
    4GLY      O   77   3.162   1.754   2.960 -0.5519  0.3531  0.2022
    5THR      N   78   3.104   1.561   2.857  0.5454  0.4169  0.2314
    5THR     HN   79   3.094   1.461   2.862 -1.6580  0.3375 -2.7758
    5THR     CA   80   3.126   1.606   2.719 -0.0595  0.0774  0.1988
    5THR     HA   81   3.197   1.687   2.727  0.6542 -0.4809 -0.3744
    5THR     CB   82   3.178   1.484   2.636 -0.2152 -0.4299  0.1936
    5THR     HB   83   3.169   1.514   2.529 -2.7821  0.3352  0.5412
    5THR    OG1   84   3.102   1.367   2.662  0.8322  0.4071 -0.1804
    5THR    HG1   85   3.152   1.304   2.611 -0.6591  0.5782 -1.9746
    5THR    CG2   86   3.322   1.463   2.684 -0.1060  0.3196  0.5272
    5THR   HG21   87   3.380   1.557   2.672 -0.0277  0.4203  1.6019
    5THR   HG22   88   3.371   1.388   2.617  3.1912  2.6618  0.0773
    5THR   HG23   89   3.330   1.428   2.789  1.0711 -0.7340  0.1112
    5THR      C   90   3.008   1.673   2.660 -0.2279  0.0920 -0.6763
    5THR      O   91   2.998   1.690   2.536 -0.0629  0.3113  0.6585
    6GLY      N   92   2.899   1.704   2.741  0.7412  0.4300 -0.8180
    6GLY     HN   93   2.883   1.698   2.839 -1.8239 -2.7524 -1.2635
    6GLY     CA   94   2.785   1.780   2.685 -0.1486 -0.1095  0.1438
    6GLY    HA1   95   2.701   1.783   2.752 -0.3380  1.0991 -0.1395
    6GLY    HA2   96   2.749   1.728   2.598  2.1307  0.9357 -1.5261
    6GLY      C   97   2.812   1.914   2.615 -0.1332 -0.7049 -0.6932
    6GLY      O   98   2.922   1.968   2.626 -0.3298  0.1355  0.0377
    7THR      N   99   2.712   1.967   2.542 -0.4639  0.2323  0.1499
    7THR     HN  100   2.624   1.922   2.527 -0.6876  1.0003 -0.9990
    7THR     CA  101   2.712   2.099   2.484 -0.6654  0.0343  0.7743
    7THR     HA  102   2.808   2.123   2.441 -0.0536 -1.0713  1.4824
    7THR     CB  103   2.604   2.124   2.386  0.0094 -0.3665  0.5072
    7THR     HB  104   2.577   2.231   2.371 -1.7512 -1.1233 -2.5293
    7THR    OG1  105   2.483   2.055   2.410  0.4689  0.0203 -0.6070
    7THR    HG1  106   2.423   2.078   2.338 -0.6129  1.2800  0.6560
    7THR    CG2  107   2.654   2.069   2.254  0.5011  0.0330 -0.1352
    7THR   HG21  108   2.752   2.117   2.234  0.9554 -0.2921  1.1814
    7THR   HG22  109   2.586   2.099   2.173  1.1885  2.3817  0.0941
    7THR   HG23  110   2.673   1.959   2.260  4.3243  0.5772  0.9411
    7THR      C  111   2.687   2.197   2.589  0.2109 -0.0473 -0.3233
    7THR      O  112   2.623   2.171   2.691  0.0831  0.3300  0.0513
    8TRP      N  113   2.734   2.317   2.565 -0.4434 -0.4484 -0.5137
    8TRP     HN  114   2.780   2.349   2.483 -1.3518 -0.4274 -1.0327
    8TRP     CA  115   2.716   2.438   2.649 -0.0390  0.0494 -0.2668
    8TRP     HA  116   2.692   2.402   2.748 -1.4503 -0.5947 -0.8053
    8TRP     CB  117   2.851   2.511   2.655 -0.3596 -0.7840 -0.2838
    8TRP    HB1  118   2.856   2.589   2.735  1.5971 -0.7279 -0.4110
    8TRP    HB2  119   2.862   2.571   2.562 -0.7375 -0.4276 -0.1053
    8TRP     CG  120   2.972   2.424   2.681  0.2557  0.3075 -1.0373
    8TRP    CD1  121   3.008   2.365   2.803  0.4806 -0.1980 -0.0392
    8TRP    HD1  122   2.953   2.358   2.896  2.3569 -0.3260  1.1220
    8TRP    NE1  123   3.127   2.292   2.788 -0.3856 -0.3521  0.5178
    8TRP    HE1  124   3.164   2.235   2.859 -0.1592  0.0121  0.6971
    8TRP    CE2  125   3.171   2.312   2.660  0.0492 -0.9465 -0.4771
    8TRP    CD2  126   3.082   2.399   2.593  0.9596  0.5187  0.3522
    8TRP    CE3  127   3.092   2.429   2.460  0.8222 -0.2511 -0.0731
    8TRP    HE3  128   3.013   2.478   2.404  2.8806  0.9182 -2.1152
    8TRP    CZ3  129   3.201   2.368   2.391 -0.0163 -0.5642  0.4387
    8TRP    HZ3  130   3.224   2.390   2.288 -0.8869 -0.8480  0.1711
    8TRP    CZ2  131   3.290   2.268   2.600  0.1576  0.4131  0.0328
    8TRP    HZ2  132   3.365   2.205   2.646  0.4993  0.4349 -0.4812
    8TRP    CH2  133   3.296   2.296   2.462  0.5978 -0.2261  0.7300
    8TRP    HH2  134   3.385   2.268   2.408  0.9566 -0.2555  1.3319
    8TRP      C  135   2.602   2.534   2.602 -0.4287  0.0429  0.2283
    8TRP      O  136   2.521   2.502   2.516 -0.1897  0.2775  0.1118
    9TYR      N  137   2.596   2.652   2.666  0.1180 -0.5898 -0.4404
    9TYR     HN  138   2.651   2.681   2.743 -0.9427  1.2119 -0.3000
    9TYR     CA  139   2.473   2.739   2.645 -0.1680  0.4965 -0.1895
    9TYR     HA  140   2.417   2.720   2.555 -3.7586  0.1883  1.9168
    9TYR     CB  141   2.373   2.726   2.761 -0.5000  0.7258 -0.3242
    9TYR    HB1  142   2.304   2.813   2.750 -2.5593 -1.0823 -2.9976
    9TYR    HB2  143   2.439   2.746   2.848  0.0082  1.9867 -0.9767
    9TYR     CG  144   2.296   2.598   2.769  1.0835 -0.5858  0.5781
    9TYR    CD1  145   2.344   2.478   2.806 -0.2497 -0.3880 -0.4784
    9TYR    HD1  146   2.450   2.476   2.827  0.0680  0.2607 -1.9006
    9TYR    CE1  147   2.276   2.360   2.827  0.0706 -0.0736 -0.2607
    9TYR    HE1  148   2.319   2.269   2.867 -0.5245 -1.0139 -1.6803
    9TYR     CZ  149   2.142   2.358   2.788  0.1229 -0.6381 -0.3711
    9TYR     OH  150   2.056   2.242   2.790 -0.5181 -0.2242  0.2069
    9TYR     HH  151   1.975   2.253   2.740 -1.8997 -2.6427  1.7003
    9TYR    CD2  152   2.161   2.592   2.729  0.4373 -0.0839  0.0617
    9TYR    HD2  153   2.122   2.684   2.687  1.9881  0.1073 -1.0330
    9TYR    CE2  154   2.082   2.478   2.734 -0.3577  0.1341  0.0848
    9TYR    HE2  155   1.981   2.476   2.696  0.0065  0.0669 -0.9230
    9TYR      C  156   2.507   2.894   2.638 -0.2499  0.9842  0.3227
    9TYR    OT1  157   2.432   2.968   2.572  0.5895  0.2525 -0.2528
    9TYR    OT2  158   2.613   2.935   2.690 -0.1375 -0.0269  0.0549
   10SOL     OW  159   2.517   0.589   0.426 -0.6031 -0.3904 -0.6392
   10SOL    HW1  160   2.483   0.504   0.453 -0.1643 -0.6623 -0.9292
   10SOL    HW2  161   2.586   0.609   0.490  0.1613 -0.8476 -1.3021
   11SOL     OW  162   0.912   0.384   0.154  0.1381 -0.0198 -0.0244
   11SOL    HW1  163   0.933   0.467   0.112 -0.2484  0.1172  0.0515
   11SOL    HW2  164   0.823   0.395   0.186 -0.3625 -0.8853 -1.0544
   12SOL     OW  165   0.188   1.673   1.818  0.4381  0.4741  0.3192
   12SOL    HW1  166   0.110   1.728   1.819  0.8911  1.1177  0.8267
   12SOL    HW2  167   0.261   1.734   1.812  0.8772 -0.1677 -1.7027
   13SOL     OW  168   0.453   2.900   3.251  0.1455  0.2919  0.1004
   13SOL    HW1  169   0.374   2.886   3.198 -0.0547  1.8297 -0.0382
   13SOL    HW2  170   0.436   2.853   3.332 -0.4532 -0.2886 -0.3453
   14SOL     OW  171   3.387   0.850   2.620 -0.5404  0.5380 -0.0750
   14SOL    HW1  172   3.444   0.806   2.683 -1.0056  0.5060  0.3200
   14SOL    HW2  173   3.318   0.786   2.602 -0.3342  0.4857 -0.7331
   15SOL     OW  174   0.525   0.289   0.177 -1.1716  0.4603 -0.7207
   15SOL    HW1  175   0.448   0.292   0.120 -1.8353  1.0406  0.1718
   15SOL    HW2  176   0.492   0.255   0.261 -0.4820  0.8303 -0.2883
   16SOL     OW  177   1.478   2.829   0.650 -0.3725 -0.6041  0.0365
   16SOL    HW1  178   1.441   2.764   0.589 -1.5653  2.3320 -2.6436
   16SOL    HW2  179   1.565   2.847   0.615 -1.6271  2.2318 -2.0155
   17SOL     OW  180   3.374   1.879   0.687  0.4867 -0.1763 -0.0267
   17SOL    HW1  181   3.374   1.832   0.770 -3.2404  0.5169  0.5684
   17SOL    HW2  182   3.408   1.966   0.708 -2.0395  0.6033  1.3700
   18SOL     OW  183   0.722   2.331   3.286  0.0389 -0.0022  0.1129
   18SOL    HW1  184   0.766   2.310   3.204 -0.3565  0.9303 -0.3587
   18SOL    HW2  185   0.726   2.250   3.337 -0.2082 -0.7653 -1.0443
   19SOL     OW  186   0.841   3.501   1.614 -0.1638 -0.0845 -0.4374
   19SOL    HW1  187   0.835   3.408   1.637  0.5498 -0.3349 -1.2008
   19SOL    HW2  188   0.887   3.501   1.530  0.7159  1.0101  0.0207
   20SOL     OW  189   2.504   0.491   1.977  0.2518  0.3751  0.0583
   20SOL    HW1  190   2.490   0.582   1.950 -4.2941 -0.8308 -2.8340
   20SOL    HW2  191   2.437   0.475   2.043  1.3177 -0.8403  0.8913
   21SOL     OW  192   2.192   2.164   0.241  0.2660 -0.2345  0.7639
   21SOL    HW1  193   2.188   2.075   0.207 -1.4868  0.7243 -1.8238
   21SOL    HW2  194   2.267   2.204   0.198  0.8092 -0.2991  1.6164
   22SOL     OW  195   2.506   2.346   0.895 -0.1688 -0.5161  0.7812
   22SOL    HW1  196   2.517   2.435   0.859  1.9780 -0.4072  1.5673
   22SOL    HW2  197   2.537   2.289   0.825 -1.2041 -0.6325  0.4132
   23SOL     OW  198   2.476   1.254   2.100 -0.3460  0.3186 -0.1498
   23SOL    HW1  199   2.495   1.240   2.193 -1.6303 -1.4845 -0.1016
   23SOL    HW2  200   2.428   1.337   2.098  2.8436  2.3474  0.2732
   24SOL     OW  201   1.488   0.824   0.133  0.3484 -0.2480  0.0023
   24SOL    HW1  202   1.518   0.734   0.128  0.0427 -0.4122  0.8947
   24SOL    HW2  203   1.481   0.842   0.227 -0.6160  0.3593 -0.1675
   25SOL     OW  204   2.944   1.941   2.332  0.7228  0.0614  0.2748
   25SOL    HW1  205   2.990   1.937   2.416  2.2334 -0.1908 -0.5278
   25SOL    HW2  206   2.994   2.002   2.279  1.0762 -1.3847 -1.1576
   26SOL     OW  207   3.480   0.464   0.091 -0.3168  0.5480 -0.1169
   26SOL    HW1  208   3.491   0.515   0.171  2.0898  1.2107 -0.7850
   26SOL    HW2  209   3.456   0.528   0.024  0.4670  0.4866 -0.4780
   27SOL     OW  210   2.707   1.393   0.815  0.2189 -0.4629  0.1228
   27SOL    HW1  211   2.626   1.435   0.787  0.1907  1.0575  2.2013
   27SOL    HW2  212   2.757   1.380   0.735 -0.8560  1.2767 -0.8936
   28SOL     OW  213   1.021   3.510   0.579  0.1274  0.0417 -0.4150
   28SOL    HW1  214   1.086   3.441   0.564 -1.0984 -1.2146 -0.1563
   28SOL    HW2  215   0.939   3.471   0.551 -0.8302  0.8618  1.1130
   29SOL     OW  216   0.859   1.731   2.480 -0.5765  0.0268  0.0996
   29SOL    HW1  217   0.808   1.759   2.404 -0.5830  0.0021  0.0947
   29SOL    HW2  218   0.821   1.646   2.504 -0.4971 -0.0197  0.0585
   30SOL     OW  219   0.528   3.064   3.502 -0.2328 -0.3247 -0.7235
   30SOL    HW1  220   0.437   3.083   3.479 -0.0892  1.1854 -0.1663
   30SOL    HW2  221   0.575   3.145   3.485  0.8584 -0.8193 -0.1847
   31SOL     OW  222   2.017   1.424   1.290 -0.6726  0.2471  0.2088
   31SOL    HW1  223   2.003   1.336   1.324  0.5905  0.3060  0.9371
   31SOL    HW2  224   2.047   1.474   1.365  1.5809  0.5466 -0.8138
   32SOL     OW  225   2.252   3.469   1.012  0.0945 -0.4498  0.3354
   32SOL    HW1  226   2.190   3.427   0.952 -0.6677 -0.1287  0.8933
   32SOL    HW2  227   2.305   3.397   1.046 -1.0709 -0.9545  1.1331
   33SOL     OW  228   0.870   3.121   2.993 -0.3916  0.0848 -0.3544
   33SOL    HW1  229   0.815   3.094   3.066  0.7503 -2.3426 -0.2711
   33SOL    HW2  230   0.816   3.107   2.915 -0.2507 -1.4150 -0.2136
   34SOL     OW  231   0.911   2.604   3.243  0.1795  0.0335  0.2583
   34SOL    HW1  232   0.821   2.573   3.254  0.3675 -0.1516  1.4985
   34SOL    HW2  233   0.916   2.632   3.152 -0.0458 -3.4502 -1.0018
   35SOL     OW  234   3.231   0.592   2.581  0.1523 -0.2701 -0.2636
   35SOL    HW1  235   3.311   0.549   2.549  1.3556  1.2233  0.5946
   35SOL    HW2  236   3.185   0.524   2.630  0.4068 -1.4158 -1.5491
   36SOL     OW  237   0.353   2.277   2.908  0.8833 -0.0722 -0.2171
   36SOL    HW1  238   0.282   2.213   2.903 -0.3446  1.2909 -1.1464
   36SOL    HW2  239   0.321   2.344   2.967  1.6909  0.2522 -0.1308
   37SOL     OW  240   2.889   0.752   0.850 -0.3396 -0.0073  0.6298
   37SOL    HW1  241   2.865   0.702   0.929  0.9297 -0.2178  0.9151
   37SOL    HW2  242   2.982   0.773   0.863 -0.0958 -0.0706 -0.8278
   38SOL     OW  243   2.436   3.144   1.797  0.0515  0.6929  1.0279
   38SOL    HW1  244   2.491   3.161   1.873  0.9570  2.3439  0.0782
   38SOL    HW2  245   2.496   3.109   1.731 -0.4490  0.5509  0.6403
   39SOL     OW  246   1.442   0.219   2.717  0.3889 -0.5145 -0.2938
   39SOL    HW1  247   1.500   0.167   2.773  0.1806 -0.0623  0.3594
   39SOL    HW2  248   1.438   0.305   2.760 -0.6388 -0.4911 -0.3939
   40SOL     OW  249   1.718   1.533   2.092  0.4260 -0.2440 -0.1501
   40SOL    HW1  250   1.671   1.451   2.110 -0.8184  0.3051 -0.7997
   40SOL    HW2  251   1.795   1.505   2.042  0.6321 -1.1261  0.6307
   41SOL     OW  252   2.796   0.601   1.906  0.0364  0.0998  0.1582
   41SOL    HW1  253   2.716   0.554   1.927  0.3893 -0.6032 -0.0525
   41SOL    HW2  254   2.826   0.638   1.989 -1.2408  1.5497  0.0167
   42SOL     OW  255   1.237   3.403   1.728  0.4901 -0.4567 -0.0228
   42SOL    HW1  256   1.177   3.369   1.794 -1.0990  1.7748 -0.2171
   42SOL    HW2  257   1.319   3.356   1.744 -1.0464 -3.0357  0.7443
   43SOL     OW  258   2.630   1.602   0.175 -0.0853 -0.3068 -0.1940
   43SOL    HW1  259   2.615   1.691   0.143 -3.1906 -0.4372  0.5278
   43SOL    HW2  260   2.723   1.599   0.197  0.8347  1.6837 -3.2392
   44SOL     OW  261   0.824   1.854   0.560 -0.1226  0.0573 -0.2072
   44SOL    HW1  262   0.822   1.758   0.556  0.5591  0.0472 -0.3133
   44SOL    HW2  263   0.917   1.877   0.557 -0.3099  0.7649 -1.1853
   45SOL     OW  264   0.815   1.864   1.459  0.1669 -0.0234 -0.1609
   45SOL    HW1  265   0.909   1.852   1.470  0.6283 -1.0888 -4.0125
   45SOL    HW2  266   0.787   1.907   1.540  3.8105 -0.2078  1.3774
   46SOL     OW  267   1.637   1.950   3.480 -0.3299  1.1205 -0.0881
   46SOL    HW1  268   1.556   1.916   3.517  0.3899 -0.1116  0.4206
   46SOL    HW2  269   1.610   2.022   3.423 -1.6650  1.4977  0.9847
   47SOL     OW  270   0.501   2.790   1.415  0.1097  0.8923  0.6987
   47SOL    HW1  271   0.494   2.884   1.434  1.0645  1.1452 -0.0790
   47SOL    HW2  272   0.540   2.787   1.327 -0.4234 -0.2367  0.4896
   48SOL     OW  273   1.438   0.214   2.449 -0.5127  0.2878  0.3930
   48SOL    HW1  274   1.525   0.183   2.425 -1.0102 -0.1226 -1.0211
   48SOL    HW2  275   1.441   0.223   2.544  0.5950 -1.2171  0.5474
   49SOL     OW  276   0.187   0.550   2.662 -0.2763 -0.0355  0.4562
   49SOL    HW1  277   0.247   0.487   2.704 -0.1784 -0.8295 -0.8142
   49SOL    HW2  278   0.234   0.633   2.664 -1.3643  0.6702  4.3497
   50SOL     OW  279   2.682   2.619   0.077  1.0618  0.5317 -0.3537
   50SOL    HW1  280   2.694   2.712   0.054  0.8456  0.3695 -1.1684
   50SOL    HW2  281   2.762   2.577   0.047  1.4602  0.5576  0.6548
   51SOL     OW  282   0.664   0.351   1.226  0.2469 -0.2818 -0.8713
   51SOL    HW1  283   0.700   0.436   1.253  2.5563 -1.6899  0.8463
   51SOL    HW2  284   0.712   0.329   1.147  3.2325 -1.9952  1.2257
   52SOL     OW  285   1.743   1.882   2.492  0.2382  0.3208 -0.3639
   52SOL    HW1  286   1.796   1.810   2.459  1.1492  0.8549 -0.0788
   52SOL    HW2  287   1.690   1.842   2.562  1.4297  0.1300  0.4475
   53SOL     OW  288   1.594   2.616   0.305 -0.3610  0.2849  0.6619
   53SOL    HW1  289   1.644   2.691   0.338  0.4826 -1.8780  4.9628
   53SOL    HW2  290   1.655   2.543   0.310 -2.3303 -1.4385  0.7138
   54SOL     OW  291   1.934   1.407   0.848 -0.2993  0.5898 -0.1486
   54SOL    HW1  292   1.926   1.418   0.942 -1.2147  0.3348 -0.1840
   54SOL    HW2  293   1.943   1.496   0.814 -1.3302  0.7981  0.0780
   55SOL     OW  294   1.176   1.656   2.595 -0.2275 -0.2778 -0.0555
   55SOL    HW1  295   1.178   1.704   2.512 -1.3972  0.1751  0.1504
   55SOL    HW2  296   1.258   1.679   2.638 -0.1983  0.5312 -0.5193
   56SOL     OW  297   1.076   3.265   1.901  0.1671  0.7043 -0.1365
   56SOL    HW1  298   1.042   3.306   1.981  0.5025  0.2174  0.2611
   56SOL    HW2  299   1.160   3.227   1.927 -0.6482 -1.2634 -0.1649
   57SOL     OW  300   2.287   1.716   2.217 -0.2207 -0.2876 -0.1359
   57SOL    HW1  301   2.350   1.735   2.287 -1.2699  0.6173  0.6142
   57SOL    HW2  302   2.337   1.727   2.136  0.0896  2.8501  0.3350
   58SOL     OW  303   1.310   0.520   0.408  0.7414 -0.3997  0.5387
   58SOL    HW1  304   1.320   0.547   0.317 -0.0514  3.5799  1.4446
   58SOL    HW2  305   1.216   0.508   0.420  0.7576 -0.0394  1.0389
   59SOL     OW  306   2.700   0.943   0.375  0.6407 -0.4157  0.9085
   59SOL    HW1  307   2.633   0.940   0.307  0.2497  1.2313  1.1690
   59SOL    HW2  308   2.657   0.908   0.452  0.3428 -0.1677  0.8596
   60SOL     OW  309   1.978   2.153   2.266  0.4050  0.1808 -0.5535
   60SOL    HW1  310   2.046   2.204   2.311 -0.7838  2.1479 -0.8738
   60SOL    HW2  311   2.017   2.131   2.181  0.9957  0.4109 -0.3489
   61SOL     OW  312   0.521   0.981   2.163 -0.5463 -0.4795  0.1474
   61SOL    HW1  313   0.573   0.901   2.168 -2.5485 -1.8140  1.2938
   61SOL    HW2  314   0.541   1.019   2.077  2.7185 -0.5241  0.7698
   62SOL     OW  315   0.511   2.260  -0.003  0.5285 -0.1302  0.1291
   62SOL    HW1  316   0.475   2.344  -0.031 -0.6744  0.3813  2.9418
   62SOL    HW2  317   0.594   2.282   0.040  1.8607 -0.8137 -1.8898
   63SOL     OW  318   1.713   1.243   3.383  0.1901 -0.0558 -0.5757
   63SOL    HW1  319   1.790   1.239   3.440  0.4758 -2.2494 -1.0113
   63SOL    HW2  320   1.640   1.221   3.440  0.1521  0.0646 -0.5771
   64SOL     OW  321   0.370   2.513   3.513  0.6985  0.0251 -0.3633
   64SOL    HW1  322   0.313   2.570   3.461  2.8194 -0.1232 -3.0863
   64SOL    HW2  323   0.458   2.551   3.502  1.7114 -1.9275  0.4249
   65SOL     OW  324   2.801   1.128   1.537 -0.7547  0.3162  0.1342
   65SOL    HW1  325   2.837   1.107   1.451  0.4016  1.0714  0.4067
   65SOL    HW2  326   2.865   1.094   1.599 -0.3735  1.8268  0.6294
   66SOL     OW  327   3.048   0.391   2.042 -0.0576 -0.0648 -0.3118
   66SOL    HW1  328   3.119   0.445   2.077  1.2709  0.0072 -2.9034
   66SOL    HW2  329   2.973   0.413   2.097  1.3846  1.4568  1.1914
   67SOL     OW  330   2.409   1.535   2.986 -0.7809  0.1865  0.0976
   67SOL    HW1  331   2.489   1.510   3.033 -1.8988 -1.2342  1.3530
   67SOL    HW2  332   2.425   1.624   2.957  1.9303 -0.6482 -1.2205
   68SOL     OW  333   0.212   0.290   2.107 -0.8962 -0.1448  0.1292
   68SOL    HW1  334   0.294   0.324   2.072 -1.2336  0.0894 -0.4467
   68SOL    HW2  335   0.148   0.307   2.038 -1.1810 -1.4798  0.0318
   69SOL     OW  336   1.566   1.482   0.830 -0.2464 -0.2827 -0.0463
   69SOL    HW1  337   1.527   1.395   0.825  0.2572 -0.4643 -1.0852
   69SOL    HW2  338   1.493   1.542   0.817 -0.5116 -0.5512  0.1788
   70SOL     OW  339   1.089   3.250   2.823  0.0771  0.2234  0.2482
   70SOL    HW1  340   1.038   3.212   2.894  0.0638  0.1544  0.2014
   70SOL    HW2  341   1.028   3.257   2.750  0.2974 -0.4474 -0.0042
   71SOL     OW  342   1.797   1.817   1.575 -0.5437  0.9126 -0.3837
   71SOL    HW1  343   1.863   1.864   1.626 -1.7664  1.9833  0.2876
   71SOL    HW2  344   1.717   1.824   1.628 -1.7984  1.8427 -2.2966
   72SOL     OW  345   0.413   0.463   1.385 -0.1257  0.0238 -0.0484
   72SOL    HW1  346   0.464   0.429   1.312  1.0117 -0.3391  0.8887
   72SOL    HW2  347   0.478   0.490   1.449 -1.0558  1.7518  0.2295
   73SOL     OW  348   2.586   1.910   1.544  0.1579 -0.0249 -0.1395
   73SOL    HW1  349   2.527   1.946   1.478 -0.5310 -1.5560 -0.3879
   73SOL    HW2  350   2.660   1.876   1.493 -0.7467 -1.9421 -0.2527
   74SOL     OW  351   2.925   1.319   0.665 -0.0427  0.6898  0.2102
   74SOL    HW1  352   2.933   1.225   0.654 -1.4146  0.6463 -0.6202
   74SOL    HW2  353   3.014   1.353   0.653  0.4029 -0.4562  0.1935
   75SOL     OW  354   3.065   1.728   0.392  0.1661 -0.2469  0.2070
   75SOL    HW1  355   3.022   1.725   0.478 -0.4224 -0.0490 -0.0759
   75SOL    HW2  356   3.107   1.642   0.383 -1.0782 -0.8530  0.0351
   76SOL     OW  357   1.135   0.672   1.932 -0.6464 -0.1472  0.5957
   76SOL    HW1  358   1.160   0.764   1.937 -0.6813  0.0508 -2.0155
   76SOL    HW2  359   1.218   0.625   1.928 -0.5262  0.1452 -2.5364
   77SOL     OW  360   3.493   0.427   2.008  0.2041 -0.0276 -0.2358
   77SOL    HW1  361   3.517   0.410   2.099 -1.4303  0.2463  0.2671
   77SOL    HW2  362   3.491   0.523   2.002  3.4853  0.1121 -1.4749
   78SOL     OW  363   0.538   1.260   1.942 -0.5842  0.2631 -0.5517
   78SOL    HW1  364   0.502   1.182   1.900  0.9853  0.3028 -2.1102
   78SOL    HW2  365   0.477   1.330   1.919 -1.7426 -0.4009  0.4492
   79SOL     OW  366   0.015   2.863   0.508  0.0697  0.4134  0.2897
   79SOL    HW1  367   0.035   2.954   0.486 -1.3962  1.0924  1.6393
   79SOL    HW2  368  -0.049   2.868   0.579 -0.4268 -1.6734  0.0595
   80SOL     OW  369   3.463   1.067   1.684 -0.4708  0.0979  0.7285
   80SOL    HW1  370   3.437   1.008   1.755  1.4343 -4.0028 -1.6067
   80SOL    HW2  371   3.405   1.044   1.611  1.8507 -0.8145 -0.9756
   81SOL     OW  372   0.613   1.671   1.272 -0.0321 -0.3380  0.1814
   81SOL    HW1  373   0.625   1.753   1.320  2.8448 -1.5146  1.7014
   81SOL    HW2  374   0.617   1.697   1.180 -0.1529  1.3192  0.6106
   82SOL     OW  375   0.710   0.134   0.614  0.0005 -0.5746 -0.3264
   82SOL    HW1  376   0.795   0.151   0.574  0.7900 -1.3264  0.9617
   82SOL    HW2  377   0.649   0.130   0.540  0.8210  1.3255 -1.1758
   83SOL     OW  378   3.475   1.999   0.454  0.2076 -0.8182 -0.3777
   83SOL    HW1  379   3.446   1.947   0.529  0.4482  0.0050  0.2963
   83SOL    HW2  380   3.411   1.979   0.386 -1.9404  0.8249  1.0244
   84SOL     OW  381   1.158   3.087   0.631  0.0207 -0.7611 -0.0485
   84SOL    HW1  382   1.190   3.169   0.669 -1.7965  0.3845 -0.8381
   84SOL    HW2  383   1.204   3.080   0.547 -0.7108  0.1170 -0.5360
   85SOL     OW  384   0.972   3.470   0.857 -0.1922 -0.5949 -0.3707
   85SOL    HW1  385   0.974   3.533   0.785 -0.9052  1.1451  1.0673
   85SOL    HW2  386   1.058   3.427   0.853  1.1700  1.9081 -0.2102
   86SOL     OW  387   1.683   1.858   1.807  0.1307  0.1339 -0.5867
   86SOL    HW1  388   1.609   1.827   1.859  0.4486  0.6237  0.1756
   86SOL    HW2  389   1.759   1.812   1.843  0.1787 -0.6087 -1.5691
   87SOL     OW  390   1.203   0.578   2.657  0.0689 -0.2566  0.5554
   87SOL    HW1  391   1.239   0.528   2.583  1.8634 -0.6688  1.6237
   87SOL    HW2  392   1.113   0.597   2.632  0.5685 -0.4999 -1.6628
   88SOL     OW  393   1.471   1.987   3.037  0.5466 -0.2061 -0.0430
   88SOL    HW1  394   1.440   1.994   3.127 -0.4127  0.3740 -0.4102
   88SOL    HW2  395   1.450   1.897   3.011  0.5425 -0.2770  0.2047
   89SOL     OW  396   3.037   0.475   0.818 -0.2529  0.1392  0.3403
   89SOL    HW1  397   2.945   0.450   0.819 -0.1379 -0.3464 -0.5387
   89SOL    HW2  398   3.061   0.483   0.911 -1.8678  2.8948  0.6403
   90SOL     OW  399   3.318   0.104   0.839 -0.1647 -0.0473 -0.2848
   90SOL    HW1  400   3.315   0.185   0.788  0.5068 -0.4963 -1.0752
   90SOL    HW2  401   3.227   0.075   0.844 -0.3283  0.4085 -0.5740
   91SOL     OW  402   1.149   1.670   0.565  0.1980  0.1386 -0.2073
   91SOL    HW1  403   1.141   1.627   0.480  0.0950  1.1597 -0.7326
   91SOL    HW2  404   1.229   1.722   0.557 -0.3480  1.0120 -0.0435
   92SOL     OW  405   2.504   2.744   2.262  0.0003  0.0277  0.6917
   92SOL    HW1  406   2.425   2.720   2.214 -0.1829  2.6191 -0.4617
   92SOL    HW2  407   2.573   2.746   2.195  0.4927  0.2692  1.1973
   93SOL     OW  408   0.382   2.092   2.541 -0.8095 -0.0243 -0.3873
   93SOL    HW1  409   0.379   2.072   2.447  0.0117  0.1821 -0.4580
   93SOL    HW2  410   0.315   2.159   2.553 -1.9734 -1.1141 -0.5529
   94SOL     OW  411   1.754   1.568   2.653  0.0809 -1.0613  0.4054
   94SOL    HW1  412   1.768   1.481   2.614  0.6831 -1.3520  1.2299
   94SOL    HW2  413   1.839   1.610   2.647 -0.6195  0.1960 -1.6236
   95SOL     OW  414   1.790   2.824   1.270  0.0494  0.3586  0.1388
   95SOL    HW1  415   1.863   2.879   1.242  0.3405 -0.9594 -1.8420
   95SOL    HW2  416   1.793   2.829   1.366  3.2094 -0.2478  0.1884
   96SOL     OW  417   0.862   2.603   0.762  0.6164  0.1877 -0.3813
   96SOL    HW1  418   0.915   2.613   0.841  1.7627  0.3493 -1.1445
   96SOL    HW2  419   0.887   2.518   0.727  1.2412  0.7453 -1.3525
   97SOL     OW  420   0.200   2.666   3.335 -0.0007 -0.7165  0.4928
   97SOL    HW1  421   0.123   2.610   3.330 -0.5818  0.1445 -3.4701
   97SOL    HW2  422   0.178   2.730   3.402 -2.7735 -0.5640 -0.4107
   98SOL     OW  423   1.469   2.486   2.878 -0.1199 -0.3234  0.3226
   98SOL    HW1  424   1.432   2.399   2.890 -4.3269  1.2034 -0.0057
   98SOL    HW2  425   1.394   2.546   2.884  2.2122  3.1594 -1.4127
   99SOL     OW  426   0.771   0.479   0.745  0.2283 -0.0418 -0.2720
   99SOL    HW1  427   0.706   0.457   0.679  0.1104  1.1087 -0.5688
   99SOL    HW2  428   0.729   0.548   0.797  0.0755 -1.3443  1.4122
  100SOL     OW  429   0.198   3.309   1.248 -0.1163 -0.8096  0.6996
  100SOL    HW1  430   0.272   3.262   1.287 -0.9988 -1.7219  1.3368
  100SOL    HW2  431   0.137   3.321   1.321 -0.1888  0.7894  0.3961
  101SOL     OW  432   2.009   0.645   1.021  0.1777  0.6704 -0.2771
  101SOL    HW1  433   1.983   0.613   0.934  1.4162 -0.8876 -0.1172
  101SOL    HW2  434   2.085   0.701   1.004 -1.8296  3.5547 -0.5278
  102SOL     OW  435   0.590   3.255   3.100  0.2089 -0.3982  0.0708
  102SOL    HW1  436   0.611   3.259   3.006 -1.4839 -2.0705 -0.4451
  102SOL    HW2  437   0.611   3.165   3.124 -1.1870 -0.5492  0.8040
  103SOL     OW  438   0.883   0.256   2.177  0.0009  0.1889 -0.4981
  103SOL    HW1  439   0.866   0.309   2.255  1.9150  0.0973  0.0192
  103SOL    HW2  440   0.871   0.166   2.206 -1.6199  0.2218 -0.9576
  104SOL     OW  441   2.063   1.286   3.292  0.1871  0.8322 -0.2559
  104SOL    HW1  442   2.130   1.327   3.237  0.9112  0.0029 -0.0099
  104SOL    HW2  443   2.061   1.195   3.264 -1.1049  0.9186 -0.4992
  105SOL     OW  444   0.977   1.598   0.264 -0.9318 -0.4653  0.1859
  105SOL    HW1  445   0.925   1.523   0.234  0.1171 -1.4042  0.6445
  105SOL    HW2  446   0.928   1.631   0.339 -1.9670  0.0008 -0.6606
  106SOL     OW  447   2.054   0.993   2.625  0.2871  0.6017 -0.1763
  106SOL    HW1  448   2.037   0.933   2.552  0.7074  0.5635 -0.2434
  106SOL    HW2  449   2.081   0.936   2.697 -0.5354  0.5998  0.1438
  107SOL     OW  450   0.088   2.564   1.981 -0.0958  0.4791  0.2017
  107SOL    HW1  451   0.088   2.623   2.057 -1.9932  0.3288  0.3610
  107SOL    HW2  452   0.155   2.600   1.923  0.7859  1.1040  1.5493
  108SOL     OW  453   3.312   0.067   1.851 -0.2845 -0.0151 -0.1405
  108SOL    HW1  454   3.345   0.002   1.789  1.1989  0.2322  0.3556
  108SOL    HW2  455   3.347   0.150   1.820  0.1316  0.1665  0.7874
  109SOL     OW  456   2.390   0.658   2.983 -0.5159 -0.2767  0.2793
  109SOL    HW1  457   2.478   0.677   2.949 -0.7033 -1.0096 -0.6727
  109SOL    HW2  458   2.405   0.626   3.072  0.4150 -2.5615 -0.6211
  110SOL     OW  459   1.728   2.513   2.830  0.1650  0.1003 -0.0515
  110SOL    HW1  460   1.755   2.449   2.765  1.7536  0.1631  0.4933
  110SOL    HW2  461   1.634   2.496   2.843 -0.2408  0.2351 -2.4572
  111SOL     OW  462   2.030   2.832   2.925  0.2510 -0.0394  0.0414
  111SOL    HW1  463   2.000   2.913   2.967 -1.4250 -0.6602  0.1269
  111SOL    HW2  464   2.095   2.860   2.861  1.8746  1.0800  2.0713
  112SOL     OW  465   0.870   2.631   2.604 -0.4413 -0.5138  0.4050
  112SOL    HW1  466   0.817   2.610   2.527  0.8169 -0.1623 -0.5904
  112SOL    HW2  467   0.825   2.588   2.676  0.6852 -4.6637 -1.1088
  113SOL     OW  468   3.218   1.145   2.547  0.0036  0.3867 -0.1537
  113SOL    HW1  469   3.190   1.109   2.631 -0.4047  2.3012  0.5838
  113SOL    HW2  470   3.303   1.105   2.531  0.8045  1.1070  1.9597
  114SOL     OW  471   3.044   2.170   3.539  0.1273  0.8427  0.1913
  114SOL    HW1  472   2.966   2.206   3.498 -0.4007  0.5490  0.9143
  114SOL    HW2  473   3.087   2.119   3.470 -1.8792 -1.4499  0.5031
  115SOL     OW  474   2.928   1.480   0.965 -0.8435 -0.1957  0.4492
  115SOL    HW1  475   2.880   1.512   1.041 -0.7820  2.1113 -0.4052
  115SOL    HW2  476   2.859   1.447   0.906 -1.0798  0.0006  0.6127
  116SOL     OW  477   1.647   0.600   1.409  0.6331  0.0578 -0.3253
  116SOL    HW1  478   1.689   0.586   1.325 -1.5724  0.4699 -1.5640
  116SOL    HW2  479   1.690   0.677   1.445  0.4482  0.9127 -1.8718
  117SOL     OW  480   0.925   1.158   0.169 -0.4827  0.9463 -0.1158
  117SOL    HW1  481   0.935   1.087   0.232  0.8835  0.2775 -1.0442
  117SOL    HW2  482   0.838   1.145   0.131 -0.6539  0.3802  0.4574
  118SOL     OW  483   0.557   2.024   2.328 -0.0509 -0.2005  0.7587
  118SOL    HW1  484   0.616   1.957   2.365  1.2000  0.0167 -0.7448
  118SOL    HW2  485   0.525   1.985   2.247  0.4666  0.8853  0.0127
  119SOL     OW  486   1.773   3.236   2.787 -0.1442 -0.8895 -0.0548
  119SOL    HW1  487   1.727   3.217   2.869  0.6221  1.4152  0.9943
  119SOL    HW2  488   1.720   3.193   2.720 -1.7668 -1.4136  1.4684
  120SOL     OW  489   3.104   2.264   3.227  0.1996 -0.4559 -0.2526
  120SOL    HW1  490   3.149   2.213   3.295 -1.2504 -0.4295  0.7824
  120SOL    HW2  491   3.139   2.353   3.237  1.0431 -0.7476 -0.5165
  121SOL     OW  492   1.054   1.888   2.458  0.2139 -0.0401  0.4490
  121SOL    HW1  493   0.981   1.827   2.470  0.8762 -0.6731  1.3604
  121SOL    HW2  494   1.072   1.921   2.546  2.1124 -1.1843  0.5545
  122SOL     OW  495   0.092   3.444   0.573  0.0906  0.1446 -0.5342
  122SOL    HW1  496   0.074   3.431   0.480 -2.6939  1.9198 -0.3423
  122SOL    HW2  497   0.068   3.535   0.590 -0.6471 -0.4574  2.1485
  123SOL     OW  498   2.337   3.438   2.042  0.6931 -0.4497 -0.3270
  123SOL    HW1  499   2.399   3.397   2.102  0.0692  1.1128  1.4754
  123SOL    HW2  500   2.308   3.518   2.087 -3.0344 -1.3377 -0.7956
  124SOL     OW  501   2.840   3.355   1.079  0.1439 -0.5152 -0.1557
  124SOL    HW1  502   2.819   3.438   1.121 -1.1450 -1.1392  0.4795
  124SOL    HW2  503   2.815   3.368   0.987  1.5134  0.3311 -0.4352
  125SOL     OW  504   0.144   1.515   1.042 -0.4892 -0.6094 -0.3039
  125SOL    HW1  505   0.083   1.481   1.107  1.4522  0.2884  2.1522
  125SOL    HW2  506   0.186   1.438   1.005 -0.4006 -1.1031  0.7987
  126SOL     OW  507   2.825   0.362   0.009  0.2133 -0.0176 -0.9964
  126SOL    HW1  508   2.885   0.347   0.082  0.5810  2.3115 -0.7390
  126SOL    HW2  509   2.881   0.389  -0.064 -0.3408 -0.0499 -1.4481
  127SOL     OW  510   0.730   0.084   2.315  0.3825  0.8426 -0.2687
  127SOL    HW1  511   0.664   0.021   2.285  0.0516  1.4018 -0.7673
  127SOL    HW2  512   0.686   0.169   2.305  0.8901  1.1593  0.1938
  128SOL     OW  513   3.216   2.049   3.363 -0.2216  0.0419  0.4595
  128SOL    HW1  514   3.205   2.009   3.277 -0.7833  1.6428 -0.2567
  128SOL    HW2  515   3.277   1.991   3.409 -1.2601 -1.7950 -0.3562
  129SOL     OW  516   2.029   1.192   2.427 -0.4855  0.5496 -1.0364
  129SOL    HW1  517   2.002   1.282   2.442  2.2292  1.3776 -0.6401
  129SOL    HW2  518   2.055   1.159   2.513  0.1156 -0.0419 -1.4297
  130SOL     OW  519   1.871   1.966   0.950  0.3543  0.0860  0.5145
  130SOL    HW1  520   1.892   1.926   1.035  0.7576  1.2381  0.9837
  130SOL    HW2  521   1.779   1.945   0.935  0.3124 -0.2333  1.1800
  131SOL     OW  522   1.039   1.172   1.738  0.3659  0.5427  0.3046
  131SOL    HW1  523   1.025   1.146   1.647 -0.3105  0.6466  0.3672
  131SOL    HW2  524   0.958   1.147   1.782  1.9823 -2.7622  1.6670
  132SOL     OW  525   1.100   1.076   1.488  0.0974  0.1706 -0.2639
  132SOL    HW1  526   1.157   0.999   1.494 -0.5349 -0.2315  0.9536
  132SOL    HW2  527   1.048   1.061   1.409  0.4919 -0.2987 -0.4411
  133SOL     OW  528   0.943   0.844   1.303 -0.0735 -0.6991 -0.4323
  133SOL    HW1  529   1.012   0.791   1.265 -0.3628 -0.5247 -1.2137
  133SOL    HW2  530   0.935   0.920   1.245 -1.1087 -0.8571 -0.5270
  134SOL     OW  531   2.612   2.859   3.029 -0.1100  0.0196 -0.0775
  134SOL    HW1  532   2.665   2.867   2.950 -0.6876 -0.4633 -0.5282
  134SOL    HW2  533   2.524   2.884   3.001 -0.1952  0.4483  0.5674
  135SOL     OW  534   3.107   3.064   0.849  0.0435 -0.4076  0.3451
  135SOL    HW1  535   3.084   3.113   0.927  0.7075  0.6666 -0.1150
  135SOL    HW2  536   3.115   2.973   0.880 -1.4487 -0.2992  1.1445
  136SOL     OW  537   1.929   2.773   2.333  0.1273 -0.0145  0.0245
  136SOL    HW1  538   1.990   2.815   2.393 -0.1605 -1.9741  1.8198
  136SOL    HW2  539   1.969   2.688   2.313 -1.3333 -0.7627  0.1344
  137SOL     OW  540   3.372   3.191   3.053 -0.6572 -0.1698  0.6722
  137SOL    HW1  541   3.422   3.136   2.993  0.6728  0.1919  1.4022
  137SOL    HW2  542   3.317   3.244   2.996  0.7003  0.2864 -0.2714
  138SOL     OW  543   1.174   0.174   0.370 -0.5049  0.0681 -0.3224
  138SOL    HW1  544   1.090   0.133   0.392 -0.4785  1.1159  2.0019
  138SOL    HW2  545   1.239   0.107   0.391 -0.7083 -1.1654 -3.1828
  139SOL     OW  546   1.115   2.016   2.681 -0.7260 -0.0972 -0.1453
  139SOL    HW1  547   1.161   1.983   2.758  1.6995 -1.4897 -2.0510
  139SOL    HW2  548   1.145   2.106   2.671 -0.1314 -0.2936 -0.1233
  140SOL     OW  549   2.737   1.043   0.775  0.2711 -0.0609  0.0111
  140SOL    HW1  550   2.681   1.120   0.771  2.1314  1.2869 -1.5850
  140SOL    HW2  551   2.699   0.982   0.712 -0.4888  0.0408  0.3609
  141SOL     OW  552   1.956   1.172   0.082  0.2754 -0.0683 -0.3080
  141SOL    HW1  553   1.925   1.156   0.171 -3.4169  0.6571 -1.2619
  141SOL    HW2  554   1.974   1.086   0.046 -1.8397 -0.7354  0.0834
  142SOL     OW  555   2.739   0.999   1.914 -0.2400 -0.3610 -0.2025
  142SOL    HW1  556   2.652   1.037   1.921 -0.5912 -1.4185  2.9125
  142SOL    HW2  557   2.783   1.026   1.994  1.4374 -1.8590 -0.5470
  143SOL     OW  558   0.117   0.302   2.353  0.3533  0.3126 -0.3260
  143SOL    HW1  559   0.022   0.306   2.355  0.2537 -1.3118 -0.6415
  143SOL    HW2  560   0.139   0.299   2.260  0.7866  1.5757 -0.2854
  144SOL     OW  561   0.640   1.131   0.154 -0.3387 -0.3569 -0.7508
  144SOL    HW1  562   0.645   1.036   0.159  1.5303 -0.2645 -0.3717
  144SOL    HW2  563   0.555   1.148   0.113 -1.3373 -2.1265  0.4706
  145SOL     OW  564   3.284   3.512   3.283 -0.5530 -0.0584 -0.1643
  145SOL    HW1  565   3.353   3.446   3.275 -0.7398 -0.2104 -0.5255
  145SOL    HW2  566   3.278   3.529   3.377 -1.2025 -1.2918  0.0375
  146SOL     OW  567   2.628   0.153   2.126 -0.2360  0.3453 -0.3984
  146SOL    HW1  568   2.567   0.090   2.165 -1.9969  1.9468 -0.3617
  146SOL    HW2  569   2.710   0.105   2.116 -1.5955 -2.0678 -0.8305
  147SOL     OW  570   0.298   3.033   1.982  0.2338  0.5747 -0.4155
  147SOL    HW1  571   0.350   3.110   1.956  2.6470 -0.7969  0.0632
  147SOL    HW2  572   0.239   3.067   2.049  2.1851  1.8069  0.7859
  148SOL     OW  573   2.235   2.329   1.987 -0.2273 -0.1128 -0.2625
  148SOL    HW1  574   2.326   2.354   1.975  0.5613 -1.8931  1.5040
  148SOL    HW2  575   2.186   2.411   1.979  1.3872  0.7320 -2.1536
  149SOL     OW  576   0.017   0.725   2.793  0.2498  0.0214  0.0041
  149SOL    HW1  577   0.009   0.667   2.868 -1.7882  0.0647 -0.1221
  149SOL    HW2  578   0.075   0.678   2.732  3.5480  0.8151  2.2672
  150SOL     OW  579   2.986   3.272   2.533  0.0919  0.0489 -0.1056
  150SOL    HW1  580   3.032   3.227   2.604 -0.0416  0.1184  0.0265
  150SOL    HW2  581   3.046   3.341   2.506 -0.0795  0.3611  0.3043
  151SOL     OW  582   3.356   1.764   0.948  0.4329  0.0774  0.1630
  151SOL    HW1  583   3.293   1.730   1.012  1.1933 -0.8501  0.4321
  151SOL    HW2  584   3.412   1.823   0.998  0.9562 -0.5603  0.3394
  152SOL     OW  585   0.509  -0.004   1.744  0.0182 -0.1612 -0.2635
  152SOL    HW1  586   0.469   0.083   1.741 -0.4082 -0.3080  0.7267
  152SOL    HW2  587   0.465  -0.053   1.674  0.2416  0.4007 -0.8093
  153SOL     OW  588   2.672   3.194   2.870 -0.1891 -0.5357 -0.4158
  153SOL    HW1  589   2.658   3.228   2.958 -0.0958 -0.0228 -0.5911
  153SOL    HW2  590   2.767   3.196   2.857 -0.1812 -0.8876 -0.4213
  154SOL     OW  591   2.737   0.604   0.630 -0.4313  0.1231  0.6178
  154SOL    HW1  592   2.761   0.686   0.673 -2.8571 -0.2652  2.9806
  154SOL    HW2  593   2.705   0.548   0.701 -2.7951 -1.3440 -1.4429
  155SOL     OW  594   2.004   2.834   1.718  0.2684  0.3189  0.2601
  155SOL    HW1  595   2.066   2.764   1.736 -1.1656 -0.5319  2.3577
  155SOL    HW2  596   2.039   2.910   1.764  0.7910  0.4336 -0.3154
  156SOL     OW  597   2.881   0.207   1.741  0.3188 -0.2344  0.1811
  156SOL    HW1  598   2.801   0.209   1.795 -0.4925  1.3053 -1.0079
  156SOL    HW2  599   2.945   0.161   1.796 -0.6302  0.7241  2.2187
  157SOL     OW  600   0.932   2.892   0.940  0.7458 -0.1375 -0.3279
  157SOL    HW1  601   0.931   2.906   0.845  0.5276 -0.0527 -0.3116
  157SOL    HW2  602   1.014   2.844   0.956 -1.1060 -3.9987 -1.0976
  158SOL     OW  603   0.951   1.636   2.748 -0.0532  0.2511  0.3317
  158SOL    HW1  604   1.021   1.646   2.683 -0.6892  1.1517 -0.2384
  158SOL    HW2  605   0.906   1.720   2.748 -1.8982 -0.6852 -0.2162
  159SOL     OW  606   2.981   0.031   2.271  0.3510 -0.3209  0.1547
  159SOL    HW1  607   2.952   0.115   2.308 -1.9990 -0.8837 -0.2643
  159SOL    HW2  608   3.069   0.019   2.307 -0.0943  1.2797  1.9815
  160SOL     OW  609   2.671   2.984   1.580 -0.1966 -0.5651  0.4985
  160SOL    HW1  610   2.719   3.066   1.589  0.2382 -0.3528 -2.5840
  160SOL    HW2  611   2.589   3.009   1.538 -0.8897 -1.5226  1.2300
  161SOL     OW  612   3.379   2.455   1.839  1.0737 -0.1763  0.0601
  161SOL    HW1  613   3.466   2.481   1.870  2.7573 -2.6100 -2.2169
  161SOL    HW2  614   3.362   2.515   1.766  1.5261 -0.6113 -0.4110
  162SOL     OW  615   2.813   1.378   2.782  0.2710  0.1611 -0.0164
  162SOL    HW1  616   2.820   1.442   2.853  0.8524 -1.4141  1.4182
  162SOL    HW2  617   2.894   1.388   2.732  1.1149 -0.5481  1.1810
  163SOL     OW  618   0.672   0.983   2.925  0.4947 -0.6371  0.8368
  163SOL    HW1  619   0.729   0.906   2.928  1.4393 -0.0873 -1.1966
  163SOL    HW2  620   0.719   1.050   2.974  1.1935 -0.4642 -0.0406
  164SOL     OW  621   0.509   3.063   0.278 -0.0079 -0.0514 -0.3485
  164SOL    HW1  622   0.559   3.059   0.196 -2.5408 -1.8435 -1.9623
  164SOL    HW2  623   0.473   2.974   0.288 -1.6876  0.7514  1.4432
  165SOL     OW  624   3.402   0.319   1.769 -0.4561  0.2776  0.3697
  165SOL    HW1  625   3.328   0.378   1.783 -0.3233  0.5111  0.1063
  165SOL    HW2  626   3.471   0.353   1.826 -0.4155  0.3154  0.2994
  166SOL     OW  627   2.449   0.466   2.595  0.0943 -0.5364 -0.2799
  166SOL    HW1  628   2.494   0.402   2.540  1.9654 -1.6663  2.3809
  166SOL    HW2  629   2.387   0.413   2.646 -2.0057  0.5633 -1.5440
  167SOL     OW  630   3.333   2.753   1.744  0.2244 -0.1138  0.3361
  167SOL    HW1  631   3.403   2.787   1.689 -0.8551 -2.0971 -2.4653
  167SOL    HW2  632   3.281   2.830   1.768 -0.0047  0.7509 -2.6004
  168SOL     OW  633   3.201   2.895   1.253  0.0509 -0.0719 -0.2045
  168SOL    HW1  634   3.126   2.942   1.292  0.0028  0.5633 -1.0465
  168SOL    HW2  635   3.164   2.812   1.223 -0.2023  0.0230 -0.1573
  169SOL     OW  636   1.085   1.805   1.229 -0.0980 -0.1316 -0.3130
  169SOL    HW1  637   1.162   1.754   1.202 -0.9185 -0.7851 -1.4923
  169SOL    HW2  638   1.102   1.827   1.321  2.2874  1.2131 -0.9930
  170SOL     OW  639   3.394   0.536   1.467 -0.4191  0.1124  0.8131
  170SOL    HW1  640   3.376   0.443   1.461 -0.0297  0.1017 -0.8819
  170SOL    HW2  641   3.324   0.578   1.416  0.4085  0.5734  0.0118
  171SOL     OW  642   3.063   2.830   2.626 -0.1172  0.2595 -0.1026
  171SOL    HW1  643   2.970   2.824   2.650 -0.4350  0.8337 -1.1476
  171SOL    HW2  644   3.065   2.816   2.532  0.8814  0.1225 -0.0699
  172SOL     OW  645   2.999   1.013   0.702  0.2108  0.2193 -0.8922
  172SOL    HW1  646   3.031   0.942   0.757 -1.0560 -0.2114 -0.6666
  172SOL    HW2  647   2.915   1.037   0.741 -0.5441  0.1603 -2.4088
  173SOL     OW  648   2.004   1.668   0.700 -0.0048  0.3927 -0.7493
  173SOL    HW1  649   2.068   1.674   0.771 -0.0232 -0.0664 -0.6858
  173SOL    HW2  650   2.038   1.597   0.644 -0.2426  0.4274 -0.9391
  174SOL     OW  651   1.879   0.922   0.589 -0.0283  0.1708 -0.4807
  174SOL    HW1  652   1.863   1.013   0.616  1.8809 -0.2816  2.6185
  174SOL    HW2  653   1.941   0.888   0.653 -0.1539 -3.1803 -1.9201
  175SOL     OW  654   1.938   2.301   0.646  0.2203  0.0479 -0.3218
  175SOL    HW1  655   2.021   2.268   0.610  0.5948  1.4688 -0.8241
  175SOL    HW2  656   1.874   2.234   0.623  0.7056  0.2664 -2.4853
  176SOL     OW  657   1.705   1.614   0.613  0.2647  0.0396  0.1696
  176SOL    HW1  658   1.678   1.535   0.659 -1.5067  1.7260  2.2171
  176SOL    HW2  659   1.794   1.631   0.644 -0.2532  0.1689  1.6311
  177SOL     OW  660   3.471   0.509   0.524  0.3388  0.6528 -0.1290
  177SOL    HW1  661   3.414   0.581   0.550  0.3561 -0.0128  1.9547
  177SOL    HW2  662   3.539   0.506   0.591  2.5282  0.9960 -2.1799
  178SOL     OW  663   1.802   2.222   2.689  0.3037 -0.0294  0.4612
  178SOL    HW1  664   1.749   2.172   2.751  0.7140 -0.7229  0.2611
  178SOL    HW2  665   1.759   2.209   2.605  0.6200 -0.3372  0.3494
  179SOL     OW  666   2.222   0.147   1.198 -0.1202 -0.2844  0.0637
  179SOL    HW1  667   2.263   0.119   1.280  0.7592  1.0854  0.1286
  179SOL    HW2  668   2.243   0.078   1.136 -0.1249 -0.9658  0.7989
  180SOL     OW  669   0.504   1.052   2.492  0.1864  0.2559  0.3151
  180SOL    HW1  670   0.512   1.053   2.587  1.5516 -2.4425  0.3189
  180SOL    HW2  671   0.423   1.004   2.476  1.1761 -1.4545  0.1765
  181SOL     OW  672   1.576   1.610   2.922 -0.1000 -0.7303  0.7111
  181SOL    HW1  673   1.671   1.612   2.906 -0.0537  2.2314  0.8096
  181SOL    HW2  674   1.568   1.620   3.017 -0.4836  0.2259  0.5886
  182SOL     OW  675   0.577   1.732   1.000 -0.0494 -0.6631  0.8137
  182SOL    HW1  676   0.507   1.764   0.942 -0.0539 -0.8159  0.7351
  182SOL    HW2  677   0.657   1.745   0.950  0.0415  0.0556  1.1299
  183SOL     OW  678   2.438   1.400   1.354  0.2783  0.2388 -0.1930
  183SOL    HW1  679   2.501   1.359   1.413 -0.3485  1.2804  1.2691
  183SOL    HW2  680   2.378   1.330   1.329  0.5380 -0.2088  0.4320
  184SOL     OW  681   3.201   1.903   2.638 -0.2573  0.2102 -0.7102
  184SOL    HW1  682   3.111   1.931   2.649 -0.1825 -0.2468  1.5608
  184SOL    HW2  683   3.246   1.932   2.717  0.9038 -2.0401 -0.4386
  185SOL     OW  684   0.220   2.632   1.195  0.3155 -0.4990 -0.2967
  185SOL    HW1  685   0.139   2.596   1.231  1.2109 -0.8934  1.4321
  185SOL    HW2  686   0.224   2.722   1.228 -0.6088  0.4125 -2.4516
  186SOL     OW  687   1.136   0.264   1.699  0.1873 -0.5252  0.0306
  186SOL    HW1  688   1.042   0.245   1.692  0.0277 -0.7501  2.0561
  186SOL    HW2  689   1.162   0.288   1.610 -1.9215  0.1684 -0.4667
  187SOL     OW  690   1.557   1.333   1.874  0.4248 -0.3361  0.1511
  187SOL    HW1  691   1.633   1.278   1.895  0.3601 -1.9533 -3.1706
  187SOL    HW2  692   1.497   1.320   1.947  1.7929 -2.1141  1.0375
  188SOL     OW  693   1.157   1.261   2.236 -0.0661 -0.0748  0.0695
  188SOL    HW1  694   1.077   1.209   2.244  0.1496 -0.4771 -0.3581
  188SOL    HW2  695   1.188   1.244   2.146 -0.5139  1.5310 -0.4211
  189SOL     OW  696   1.869   0.294   1.844 -0.5077  1.3663 -0.2079
  189SOL    HW1  697   1.822   0.246   1.775  0.7902  0.7724 -0.7127
  189SOL    HW2  698   1.897   0.226   1.905  0.5650  1.5708 -0.4564
  190SOL     OW  699   1.644   2.122   1.702 -0.4695  0.0851 -0.3119
  190SOL    HW1  700   1.597   2.180   1.762 -0.4204 -1.3536  1.1864
  190SOL    HW2  701   1.596   2.040   1.706  0.7465 -0.6589 -0.6668
  191SOL     OW  702   1.369   3.095   2.968 -0.0253 -0.2836  0.1778
  191SOL    HW1  703   1.333   3.011   2.996 -1.6583 -0.3660 -1.9084
  191SOL    HW2  704   1.299   3.159   2.988 -0.4154 -0.0650 -1.7406
  192SOL     OW  705   0.611   1.298   2.447 -0.3768 -0.2522  1.0500
  192SOL    HW1  706   0.607   1.317   2.353  2.8974 -0.2143  0.8095
  192SOL    HW2  707   0.565   1.215   2.456 -3.4963  1.1991  0.0149
  193SOL     OW  708   2.691   2.602   1.840  0.3913 -0.0849  0.0037
  193SOL    HW1  709   2.759   2.667   1.821 -0.9441  1.2272 -0.4937
  193SOL    HW2  710   2.674   2.560   1.756  0.2152 -0.0391  0.0165
  194SOL     OW  711   3.434   1.116   2.812  0.1977 -0.4057 -0.1569
  194SOL    HW1  712   3.361   1.101   2.752 -1.1501  0.4243  1.1955
  194SOL    HW2  713   3.478   1.031   2.818 -0.1077 -0.7009 -1.6711
  195SOL     OW  714   0.579   1.926   2.057  0.1730  0.2584 -0.3051
  195SOL    HW1  715   0.652   1.988   2.058  0.9186 -0.6083  0.2441
  195SOL    HW2  716   0.602   1.862   1.990 -0.6385  0.6139 -0.9386
  196SOL     OW  717   0.147   0.193   0.385 -0.3371 -0.0101  0.0203
  196SOL    HW1  718   0.200   0.271   0.374  0.4734 -0.3415  1.4004
  196SOL    HW2  719   0.111   0.199   0.474 -1.5809 -0.4225 -0.4244
  197SOL     OW  720   3.358   1.033   0.543  0.0502 -0.5668 -0.3356
  197SOL    HW1  721   3.291   1.060   0.481 -0.4070  0.4141  0.5522
  197SOL    HW2  722   3.435   1.084   0.520 -0.3634  0.4221  0.3872
  198SOL     OW  723   2.757   1.787   1.777 -0.8246  0.1341  0.6006
  198SOL    HW1  724   2.837   1.797   1.725 -0.4633 -0.0368  1.1069
  198SOL    HW2  725   2.686   1.787   1.713 -0.3662 -0.4710  0.0688
  199SOL     OW  726   2.713   2.181   1.047  0.2358 -0.0723  0.5314
  199SOL    HW1  727   2.675   2.109   0.997 -0.1927  0.8949 -0.5770
  199SOL    HW2  728   2.639   2.220   1.094  0.0805  0.9055 -0.4868
  200SOL     OW  729   2.098   2.742   3.243 -0.4221  0.0966 -0.0797
  200SOL    HW1  730   2.063   2.790   3.168 -0.5335  1.3698  0.7719
  200SOL    HW2  731   2.038   2.667   3.253 -0.0187 -0.4883 -1.6547
  201SOL     OW  732   3.363   1.324   2.344 -0.1938 -0.4447  0.1702
  201SOL    HW1  733   3.275   1.308   2.308 -0.1215 -0.1514 -0.1454
  201SOL    HW2  734   3.381   1.247   2.397 -1.9160  0.8096  2.8107
  202SOL     OW  735   2.088   3.399   0.620 -0.0738 -0.3875  0.3391
  202SOL    HW1  736   2.066   3.307   0.635  0.6488 -0.2292  2.7258
  202SOL    HW2  737   2.051   3.445   0.695  0.7017  1.0912 -0.1559
  203SOL     OW  738   0.577   1.487   2.693 -1.0094  0.0786 -0.6487
  203SOL    HW1  739   0.575   1.460   2.601 -1.1759  0.7459 -0.8437
  203SOL    HW2  740   0.533   1.572   2.694  0.1296  0.6748 -0.1542
  204SOL     OW  741   0.538   1.893   2.925 -0.0033  0.2115 -0.0159
  204SOL    HW1  742   0.597   1.847   2.865  1.3996  0.1695  1.3397
  204SOL    HW2  743   0.450   1.877   2.889  0.6656 -1.1602 -1.1409
  205SOL     OW  744   2.129   3.006   2.051  0.2221  0.5953  0.4377
  205SOL    HW1  745   2.177   2.993   1.969  1.1097  0.6419  0.9376
  205SOL    HW2  746   2.051   3.057   2.026  0.2311  0.1924 -0.4456
  206SOL     OW  747   0.934   0.810   2.032 -0.2151  0.6468  0.2080
  206SOL    HW1  748   0.969   0.723   2.013 -0.6189  0.3403  0.7960
  206SOL    HW2  749   0.967   0.866   1.962 -1.3149 -0.3238 -1.1362
  207SOL     OW  750   2.202   0.901   1.866 -0.5548  0.0695  0.4442
  207SOL    HW1  751   2.125   0.940   1.908 -0.3877 -1.1320  1.9311
  207SOL    HW2  752   2.264   0.887   1.938  1.0871  1.0266 -0.7271
  208SOL     OW  753   0.176   1.779   0.416 -0.2024  0.1913  1.0180
  208SOL    HW1  754   0.193   1.868   0.384  1.0223 -0.4144 -0.0939
  208SOL    HW2  755   0.200   1.722   0.343  1.7354 -1.2008  2.6408
  209SOL     OW  756   3.211   1.614   0.760  0.3551 -0.2415  0.3996
  209SOL    HW1  757   3.255   1.662   0.830 -0.3510  0.2374  0.5259
  209SOL    HW2  758   3.189   1.529   0.799  3.2126 -1.4305 -0.3678
  210SOL     OW  759   0.681   2.036   0.719 -0.1726 -0.4820 -0.2626
  210SOL    HW1  760   0.678   2.029   0.815  0.1346  0.2762 -0.1860
  210SOL    HW2  761   0.758   1.985   0.693  0.7764  0.7071  0.0724
  211SOL     OW  762   2.521   2.651   1.432 -0.0187  0.4473  0.1256
  211SOL    HW1  763   2.429   2.647   1.459 -0.0717 -0.6244 -0.1839
  211SOL    HW2  764   2.563   2.580   1.481  0.2732 -0.2338 -1.0796
  212SOL     OW  765   0.380   0.562   1.082  0.5426 -0.0869  0.5437
  212SOL    HW1  766   0.374   0.617   1.004  2.0640 -0.4444  0.1318
  212SOL    HW2  767   0.450   0.601   1.134 -0.5679  0.2529  1.8456
  213SOL     OW  768   2.463   0.045   3.252  0.2733  0.3931  0.3455
  213SOL    HW1  769   2.378   0.009   3.278  1.2651 -1.2137  1.5471
  213SOL    HW2  770   2.446   0.138   3.240 -1.8107  0.0190 -0.1777
  214SOL     OW  771   0.794   1.625   1.703  0.4865  0.3099  0.3127
  214SOL    HW1  772   0.715   1.676   1.686 -0.1546 -0.8319 -0.2599
  214SOL    HW2  773   0.763   1.534   1.710  1.7548 -0.1772 -0.0781
  215SOL     OW  774   2.156   1.586   1.565  0.1069  0.6020 -0.3232
  215SOL    HW1  775   2.099   1.551   1.634 -1.0274  1.4973 -0.7659
  215SOL    HW2  776   2.210   1.652   1.609  0.4979  0.0648  0.0117
  216SOL     OW  777   3.485   0.448   2.867  0.6302  0.4565  0.2826
  216SOL    HW1  778   3.580   0.452   2.881  0.6520 -0.6390  0.5375
  216SOL    HW2  779   3.476   0.417   2.777  0.5475 -1.2425  0.8397
  217SOL     OW  780   1.581   1.371   2.497 -0.2283 -0.4668  0.5759
  217SOL    HW1  781   1.586   1.466   2.495 -1.0068 -0.4150  0.5301
  217SOL    HW2  782   1.488   1.352   2.484 -0.1928 -1.2101  1.3193
  218SOL     OW  783   2.176   0.491   1.852  0.2664 -0.3213  0.5144
  218SOL    HW1  784   2.227   0.548   1.794  0.5082 -1.0890 -0.0563
  218SOL    HW2  785   2.184   0.404   1.812 -0.7680 -0.6108  0.9033
  219SOL     OW  786   0.874   2.244   1.620  0.7261 -0.5369 -0.5415
  219SOL    HW1  787   0.932   2.168   1.618  2.8471  1.0268 -2.9709
  219SOL    HW2  788   0.847   2.257   1.529 -0.0294  1.2908 -0.1068
  220SOL     OW  789   3.348   3.200   2.074  0.4776 -0.2454 -0.1817
  220SOL    HW1  790   3.264   3.170   2.038 -0.1740  0.9508  0.2759
  220SOL    HW2  791   3.330   3.216   2.167  1.1870  0.1143 -0.0993
  221SOL     OW  792   0.747   0.964   2.673 -0.6120 -0.3306 -0.1372
  221SOL    HW1  793   0.814   1.015   2.628 -1.7392  1.7006  0.3659
  221SOL    HW2  794   0.732   1.010   2.755 -2.6271 -0.6707 -0.2454
  222SOL     OW  795   0.611   1.999   2.612  0.5843  0.0243  0.0627
  222SOL    HW1  796   0.686   2.059   2.615  1.5837 -1.2051  0.4295
  222SOL    HW2  797   0.545   2.047   2.562  1.1289  1.6633  0.8227
  223SOL     OW  798   0.726   3.504   3.214  0.6805  0.2368 -0.1616
  223SOL    HW1  799   0.662   3.435   3.198  0.0062  0.5473  1.1112
  223SOL    HW2  800   0.679   3.585   3.196  1.6527  0.4010 -2.2756
  224SOL     OW  801   0.435   3.476  -0.026  0.3999  0.4669 -0.8939
  224SOL    HW1  802   0.377   3.454   0.046  1.7845 -1.2886 -0.2332
  224SOL    HW2  803   0.522   3.480   0.013  1.0173  0.8275 -2.2354
  225SOL     OW  804   3.264   1.311   3.438  0.1320 -0.1258 -0.9555
  225SOL    HW1  805   3.208   1.235   3.453  0.9405 -0.4005  0.9202
  225SOL    HW2  806   3.330   1.280   3.376 -1.4824  0.1050 -2.9205
  226SOL     OW  807   2.261   0.105   2.460 -0.2591 -0.3584 -0.2710
  226SOL    HW1  808   2.261   0.009   2.458  0.8156 -0.3645 -1.0931
  226SOL    HW2  809   2.219   0.127   2.542  0.7337 -1.5708  0.5998
  227SOL     OW  810   2.978   2.663   1.004  0.4293  0.2945 -0.2918
  227SOL    HW1  811   2.934   2.727   0.947 -3.4017 -3.1651 -1.6920
  227SOL    HW2  812   3.027   2.607   0.943  0.1932 -0.6420  0.3636
  228SOL     OW  813   0.693   0.626   0.971  0.0691 -0.2594 -0.2336
  228SOL    HW1  814   0.737   0.699   0.928 -1.2923  2.0533  2.0300
  228SOL    HW2  815   0.726   0.627   1.061 -3.3643  0.7094  1.1718
  229SOL     OW  816   0.939   0.568   1.432  0.0466 -0.0176 -0.4841
  229SOL    HW1  817   0.852   0.560   1.392 -1.3687 -0.3069  2.4259
  229SOL    HW2  818   0.945   0.660   1.459  0.3091 -0.1879  0.0460
  230SOL     OW  819   2.958   1.328   1.285  0.2484 -0.4699  0.1637
  230SOL    HW1  820   3.053   1.322   1.277  0.1347 -3.7786 -0.0213
  230SOL    HW2  821   2.927   1.238   1.277 -2.9675  0.5214 -0.1416
  231SOL     OW  822   2.918   2.071   2.886 -0.0366  0.7093 -0.2895
  231SOL    HW1  823   2.940   2.147   2.831  0.5255  1.1236  0.4910
  231SOL    HW2  824   2.992   2.064   2.946 -0.3446 -0.1387 -0.0079
  232SOL     OW  825   0.212   2.233   1.659 -0.0872  0.2475 -0.0216
  232SOL    HW1  826   0.147   2.195   1.720  0.5611  1.6684  1.6201
  232SOL    HW2  827   0.291   2.244   1.712  0.4789  1.6327 -1.1055
  233SOL     OW  828   3.021   2.197   1.042  0.0403  0.1115  0.0977
  233SOL    HW1  829   2.938   2.155   1.063  0.7246 -0.9387  0.8278
  233SOL    HW2  830   3.043   2.247   1.121 -0.4480  1.3533 -0.5246
  234SOL     OW  831   1.305   1.020   0.160 -0.0269  0.3744  0.5404
  234SOL    HW1  832   1.223   0.971   0.154 -1.1528  2.3475 -2.5213
  234SOL    HW2  833   1.373   0.954   0.145 -0.9631 -1.2119  2.6545
  235SOL     OW  834   1.375   0.987   3.350 -0.0365  0.3370 -0.1663
  235SOL    HW1  835   1.309   1.007   3.283  1.1522  0.0375 -1.4945
  235SOL    HW2  836   1.325   0.970   3.429 -1.5334  0.3989 -1.0588
  236SOL     OW  837   3.426   3.131   2.681 -0.2893  0.6168 -0.6480
  236SOL    HW1  838   3.473   3.074   2.742 -2.4053 -0.1773  0.3423
  236SOL    HW2  839   3.444   3.095   2.595  0.4250 -0.0189 -0.2452
  237SOL     OW  840   0.909   1.474   2.006  0.5553 -0.5064 -0.0759
  237SOL    HW1  841   0.946   1.487   2.093 -0.9620 -0.4879  0.5861
  237SOL    HW2  842   0.965   1.527   1.948  1.3205 -0.1856  0.9303
  238SOL     OW  843   1.191   2.393   2.716 -0.2804 -0.0546  0.1134
  238SOL    HW1  844   1.130   2.425   2.782  0.4667 -0.7967  1.2078
  238SOL    HW2  845   1.251   2.336   2.765  0.4384 -0.4379 -1.1707
  239SOL     OW  846   1.211   1.142   2.671 -0.2157  0.1467  0.7920
  239SOL    HW1  847   1.278   1.115   2.733  0.3011  1.7107  0.9632
  239SOL    HW2  848   1.221   1.237   2.664  0.0344  0.0062 -2.0326
  240SOL     OW  849   3.535   0.673   0.292 -0.1701  0.2432  0.6639
  240SOL    HW1  850   3.462   0.732   0.273  0.8497  1.4819  0.4802
  240SOL    HW2  851   3.506   0.623   0.368 -1.3624  0.4413  0.3555
  241SOL     OW  852   0.728   1.898  -0.035  0.2038  0.0587 -0.2279
  241SOL    HW1  853   0.774   1.878   0.047 -0.8076 -0.9084  0.1198
  241SOL    HW2  854   0.643   1.932  -0.007  0.4950  1.4106 -0.8764
  242SOL     OW  855   0.414   0.208   0.698  0.4327 -0.2016 -0.1336
  242SOL    HW1  856   0.486   0.147   0.712 -0.4726 -1.3188 -0.1544
  242SOL    HW2  857   0.340   0.168   0.744 -0.3813  0.5042 -0.7907
  243SOL     OW  858   1.265   1.843   1.751  0.0508  0.3618  0.3112
  243SOL    HW1  859   1.308   1.771   1.798  3.0119  0.3867 -2.0479
  243SOL    HW2  860   1.312   1.921   1.780 -1.3309  1.0324  0.8195
  244SOL     OW  861   2.176   2.205   0.498  0.3475  0.5084  0.3343
  244SOL    HW1  862   2.265   2.186   0.528  0.0598  0.1622  0.9815
  244SOL    HW2  863   2.175   2.176   0.407  0.5061 -0.7450  0.7104
  245SOL     OW  864   2.292   2.576   2.388 -0.4969 -0.5399 -0.5013
  245SOL    HW1  865   2.240   2.519   2.332 -1.3330 -0.9431  0.6496
  245SOL    HW2  866   2.350   2.517   2.435 -0.5050 -0.3139 -0.2024
  246SOL     OW  867   0.067   2.713   2.214 -0.3525 -0.5875 -0.6794
  246SOL    HW1  868   0.067   2.671   2.300  1.5914 -0.7614 -0.7208
  246SOL    HW2  869   0.150   2.762   2.211 -0.2894 -0.7394 -2.5138
  247SOL     OW  870   0.716   3.293   0.835  0.2023 -0.0107  0.0407
  247SOL    HW1  871   0.790   3.353   0.827 -0.7655  1.3278  0.6193
  247SOL    HW2  872   0.734   3.241   0.913 -0.2628  1.5388  1.2300
  248SOL     OW  873   2.044   2.491   2.243 -0.5796 -0.0856 -0.0642
  248SOL    HW1  874   1.978   2.455   2.184 -0.1751 -0.1276 -0.4901
  248SOL    HW2  875   2.093   2.554   2.190 -0.4411  0.1333  0.3195
  249SOL     OW  876   1.782   3.151   1.149  0.1966  0.0216  0.1611
  249SOL    HW1  877   1.861   3.109   1.181 -1.4198 -0.7875  3.4843
  249SOL    HW2  878   1.735   3.082   1.102  1.1929  0.4279 -1.5529
  250SOL     OW  879   1.808   2.405   1.139  1.1216  0.3683  0.5241
  250SOL    HW1  880   1.864   2.336   1.103 -0.2650 -0.7177  0.3588
  250SOL    HW2  881   1.867   2.479   1.151  2.1426 -0.0052 -1.6881
  251SOL     OW  882   0.911   2.509   0.352  0.0255 -0.1555  0.3057
  251SOL    HW1  883   0.955   2.568   0.414 -0.1974  3.4499 -2.6290
  251SOL    HW2  884   0.820   2.508   0.381 -0.0838  1.4874  0.1294
  252SOL     OW  885   1.046   0.410   0.418 -0.2320 -0.2207 -0.0219
  252SOL    HW1  886   0.977   0.411   0.352 -1.7770  0.1620  1.5299
  252SOL    HW2  887   1.108   0.344   0.387 -0.8443  0.0171 -1.8778
  253SOL     OW  888   0.143   0.933   1.320  0.7542 -0.1854  0.1505
  253SOL    HW1  889   0.085   0.879   1.374  1.6029 -1.3464 -0.0668
  253SOL    HW2  890   0.194   0.871   1.269  0.7621  0.8659 -1.1876
  254SOL     OW  891   2.126   2.491   1.394 -0.3315 -0.2003 -0.0716
  254SOL    HW1  892   2.051   2.496   1.453 -1.4413 -1.8399 -1.2542
  254SOL    HW2  893   2.102   2.548   1.321 -0.6142 -0.9689 -0.5984
  255SOL     OW  894   1.966   2.924   0.795  0.7217  0.2382 -0.0515
  255SOL    HW1  895   1.997   2.960   0.712  0.3917  1.4574  0.3457
  255SOL    HW2  896   1.951   3.000   0.851  1.1198 -0.5790  1.2009
  256SOL     OW  897   1.813   1.348   3.087  0.0388 -0.4626  0.2883
  256SOL    HW1  898   1.856   1.425   3.051  0.4747 -1.1005 -0.6171
  256SOL    HW2  899   1.838   1.347   3.179 -0.5068  0.8182  0.4678
  257SOL     OW  900   1.536   3.221   2.608  0.1117 -0.4977 -0.9829
  257SOL    HW1  901   1.508   3.269   2.686  4.1353  0.4651  0.1114
  257SOL    HW2  902   1.513   3.277   2.535  1.1176  1.2755 -0.0085
  258SOL     OW  903   2.841   2.967   0.192  0.3729 -0.0017 -0.6137
  258SOL    HW1  904   2.828   3.062   0.183  0.2613  0.0184 -0.2715
  258SOL    HW2  905   2.823   2.950   0.285 -2.1234 -0.7602 -1.1639
  259SOL     OW  906   0.388   0.382   2.756  0.2842 -0.0702  0.1270
  259SOL    HW1  907   0.462   0.383   2.695 -0.2412 -3.4254 -0.7469
  259SOL    HW2  908   0.360   0.291   2.758 -2.0242  0.5790  2.6878
  260SOL     OW  909   2.489   2.071   1.893  1.3053  0.4815  0.3852
  260SOL    HW1  910   2.528   1.995   1.936 -0.3027 -1.2160 -0.9980
  260SOL    HW2  911   2.563   2.120   1.859  2.4034 -0.2967  1.5781
  261SOL     OW  912   1.393   2.100   1.341  0.0921  0.7230  0.4351
  261SOL    HW1  913   1.411   2.043   1.415  2.0506  1.3927  0.5189
  261SOL    HW2  914   1.436   2.183   1.362  0.9519  0.8500 -1.5367
  262SOL     OW  915   0.889   3.291   0.280 -0.5243 -0.4829  0.2570
  262SOL    HW1  916   0.966   3.309   0.226 -0.0830  0.2605  1.1253
  262SOL    HW2  917   0.846   3.376   0.289 -1.7678 -0.9709 -0.6624
  263SOL     OW  918   1.699   3.373   0.522 -0.3673  0.4411  0.1071
  263SOL    HW1  919   1.632   3.378   0.454  1.0709 -0.3142 -1.4405
  263SOL    HW2  920   1.661   3.420   0.596 -1.8248  1.6825 -1.3442
  264SOL     OW  921   1.185   0.943   0.761  0.5820 -0.1876  0.4727
  264SOL    HW1  922   1.176   0.890   0.682 -0.9827 -0.1448  0.5875
  264SOL    HW2  923   1.160   1.031   0.734  0.3483 -0.1100  0.9336
  265SOL     OW  924   0.675   2.747   0.945 -0.6010  0.1120 -0.5004
  265SOL    HW1  925   0.723   2.684   0.890  0.2329 -0.9086  1.3088
  265SOL    HW2  926   0.707   2.833   0.916  0.3692 -0.4279 -1.1002
  266SOL     OW  927   1.346   2.841   3.106 -0.4265  0.6217  0.1211
  266SOL    HW1  928   1.296   2.802   3.035  1.0926 -0.3222 -0.4835
  266SOL    HW2  929   1.389   2.767   3.149  1.8593  1.4893 -0.5287
  267SOL     OW  930   0.935   2.747   1.320 -0.4822  0.0313  0.9778
  267SOL    HW1  931   0.874   2.820   1.331 -0.2249  0.1466  1.6452
  267SOL    HW2  932   0.882   2.678   1.280 -0.9150  0.3122  1.0579
  268SOL     OW  933   0.764   1.074   0.618  0.7308 -0.5690 -0.4172
  268SOL    HW1  934   0.689   1.134   0.616  0.8514 -0.2200  2.0621
  268SOL    HW2  935   0.834   1.123   0.574  0.1183  0.0501 -0.7270
  269SOL     OW  936   0.160   1.153   2.048  0.2102 -0.4736  0.2817
  269SOL    HW1  937   0.113   1.220   1.998  1.4367 -0.1082 -0.4221
  269SOL    HW2  938   0.120   1.156   2.135  0.1132  1.0727  0.2208
  270SOL     OW  939   1.323   1.394   2.421 -0.1864 -0.0255  0.3550
  270SOL    HW1  940   1.346   1.481   2.388 -0.1239  0.1938  0.9766
  270SOL    HW2  941   1.293   1.346   2.343  1.2025  0.0656 -0.2707
  271SOL     OW  942   2.445   3.366   0.454 -0.0699 -0.2188 -0.5216
  271SOL    HW1  943   2.450   3.291   0.395 -2.0643 -0.3530 -0.5919
  271SOL    HW2  944   2.354   3.396   0.448  0.3908  1.5225  0.3518
  272SOL     OW  945   2.167   3.286   1.240  0.3577 -0.0833  0.1282
  272SOL    HW1  946   2.260   3.271   1.224  0.4433  1.0014 -0.4752
  272SOL    HW2  947   2.126   3.275   1.154  0.1479  1.0157  0.0823
  273SOL     OW  948   0.283   0.684   0.136 -0.1589 -0.3789 -0.6597
  273SOL    HW1  949   0.311   0.751   0.198  2.0521 -0.2592 -1.6728
  273SOL    HW2  950   0.188   0.692   0.133 -0.1105  1.3653  0.7329
  274SOL     OW  951   3.402   1.890   2.417  0.1575 -0.0981 -0.4491
  274SOL    HW1  952   3.353   1.928   2.490  0.8701 -0.9987  0.5415
  274SOL    HW2  953   3.374   1.798   2.415  2.1299 -0.7938  0.5071
  275SOL     OW  954   3.498   2.321   3.163  0.0404  0.3891 -0.5595
  275SOL    HW1  955   3.436   2.277   3.105  0.3587  1.7952 -2.0395
  275SOL    HW2  956   3.476   2.289   3.251 -1.9165 -0.1147 -1.1942
  276SOL     OW  957   1.366   1.283   0.008 -0.1510  0.3180  0.1937
  276SOL    HW1  958   1.387   1.195   0.039 -0.2145 -0.1596 -1.0747
  276SOL    HW2  959   1.272   1.293   0.025  0.0264  0.4737  1.1162
  277SOL     OW  960   3.313   0.976   1.890 -0.2182  0.4754 -0.1641
  277SOL    HW1  961   3.270   1.037   1.950  1.4803  1.8213 -0.2382
  277SOL    HW2  962   3.280   0.890   1.915 -1.3877  1.2459  1.0702
  278SOL     OW  963   3.381   2.350   0.402 -0.1115  0.1545 -0.3352
  278SOL    HW1  964   3.466   2.364   0.444  0.4898  0.4124 -1.6052
  278SOL    HW2  965   3.347   2.438   0.386 -0.7685  0.0520  0.4381
  279SOL     OW  966   1.513   3.314   1.763  0.3513  0.0602 -0.0399
  279SOL    HW1  967   1.564   3.335   1.685 -0.3063  2.5704  0.1137
  279SOL    HW2  968   1.566   3.348   1.835 -0.0647 -0.2441  0.4139
  280SOL     OW  969   0.432   0.937   1.493 -0.3771  0.7402 -0.4866
  280SOL    HW1  970   0.385   0.926   1.576 -2.2301  1.8533 -1.3237
  280SOL    HW2  971   0.431   1.031   1.477 -1.5543  0.4202 -2.5791
  281SOL     OW  972   3.375   1.601   2.250 -0.5760 -0.6856 -0.1792
  281SOL    HW1  973   3.294   1.651   2.243 -0.1447  0.0508 -0.0049
  281SOL    HW2  974   3.347   1.511   2.268 -1.3055 -0.0700  2.0403
  282SOL     OW  975   0.663   2.994   0.805 -0.3708  0.1099 -0.1820
  282SOL    HW1  976   0.570   2.994   0.828 -0.7124  1.0654 -1.4781
  282SOL    HW2  977   0.684   3.085   0.784  0.4526 -0.3294 -1.4358
  283SOL     OW  978   1.659   3.499   3.113 -0.1406  0.4332  0.2170
  283SOL    HW1  979   1.751   3.511   3.138 -0.3487 -0.8925  1.8669
  283SOL    HW2  980   1.662   3.481   3.019  1.2032  1.1596  0.0940
  284SOL     OW  981   0.938   3.247   1.200 -0.2209  0.6328  0.0175
  284SOL    HW1  982   1.028   3.217   1.193 -0.6693 -0.4762 -1.8491
  284SOL    HW2  983   0.937   3.331   1.155  0.1888  1.5251  1.5880
  285SOL     OW  984   3.409   3.151   3.331  0.3323 -0.0134  0.3499
  285SOL    HW1  985   3.404   3.183   3.241  0.4761  0.6422  0.5660
  285SOL    HW2  986   3.423   3.057   3.322 -2.1696 -0.3962 -0.3072
  286SOL     OW  987   0.882   3.247   1.706 -0.1978 -0.0396  0.2907
  286SOL    HW1  988   0.823   3.207   1.770  0.4077 -1.3811  0.0359
  286SOL    HW2  989   0.958   3.273   1.756 -0.5629  0.7552  0.4446
  287SOL     OW  990   1.225   2.745   0.209  0.3204  0.3072  0.0024
  287SOL    HW1  991   1.254   2.660   0.240 -2.3004 -0.8944 -0.5702
  287SOL    HW2  992   1.152   2.726   0.150  0.6642  2.8775 -1.4245
  288SOL     OW  993   2.826   0.610   2.683  0.1293 -0.2498 -0.2393
  288SOL    HW1  994   2.789   0.531   2.722  0.3863 -0.2079  0.0919
  288SOL    HW2  995   2.852   0.664   2.758  0.2172  0.0236 -0.4654
  289SOL     OW  996   0.812   0.158   0.325 -0.3933 -0.1435  0.1699
  289SOL    HW1  997   0.750   0.085   0.319 -0.4210 -0.1154  0.1106
  289SOL    HW2  998   0.852   0.163   0.238  0.9543 -1.2641  0.6780
  290SOL     OW  999   1.756   2.813   0.606  0.4846  0.3417 -0.5523
  290SOL    HW1 1000   1.787   2.853   0.687  0.8568 -1.0891  0.0362
  290SOL    HW2 1001   1.835   2.783   0.562  0.1160 -2.0230  0.2629
  291SOL     OW 1002   0.222   0.922   1.723 -0.5461  0.0376 -0.3622
  291SOL    HW1 1003   0.139   0.945   1.681 -0.1372 -0.2364 -1.3255
  291SOL    HW2 1004   0.230   0.828   1.710 -0.4356 -0.0658  0.3900
  292SOL     OW 1005   1.244   0.835   3.080 -0.1371 -0.1210 -1.1293
  292SOL    HW1 1006   1.210   0.773   3.145 -0.0164  0.6962 -0.2700
  292SOL    HW2 1007   1.301   0.782   3.025  1.9413 -0.3655  1.0848
  293SOL     OW 1008   1.320   0.801   1.705  0.2438 -0.0096 -0.5900
  293SOL    HW1 1009   1.264   0.865   1.748  2.1762  3.0391 -2.2316
  293SOL    HW2 1010   1.341   0.738   1.773 -0.7024  1.8591  1.5697
  294SOL     OW 1011   2.324   0.357   1.048 -0.1598  0.4007  0.2885
  294SOL    HW1 1012   2.374   0.411   1.109  1.3356  0.0223 -0.5544
  294SOL    HW2 1013   2.289   0.286   1.103  0.8448  0.2706  0.7815
  295SOL     OW 1014   1.569   0.763   3.241  0.0773  0.4424 -0.0900
  295SOL    HW1 1015   1.491   0.708   3.228  0.4156 -0.2442  0.7373
  295SOL    HW2 1016   1.537   0.839   3.289 -0.3084  0.7691 -0.8447
  296SOL     OW 1017   1.312   2.106   0.516 -0.3542 -0.1427 -0.4493
  296SOL    HW1 1018   1.255   2.183   0.514  0.3197  0.4524  1.2519
  296SOL    HW2 1019   1.396   2.138   0.484 -0.2430 -0.3160 -0.3348
  297SOL     OW 1020   3.347   0.287   0.401  0.3185  1.0593  0.3275
  297SOL    HW1 1021   3.333   0.276   0.307  0.6711  0.4416  0.3425
  297SOL    HW2 1022   3.409   0.359   0.408  0.0298  1.3318  0.1024
  298SOL     OW 1023   0.685   0.597   3.166  0.1716  0.3585  0.2186
  298SOL    HW1 1024   0.755   0.604   3.102  0.8593  2.6304  1.1142
  298SOL    HW2 1025   0.670   0.503   3.176  1.4747 -0.0960 -1.6875
  299SOL     OW 1026   0.404   3.058   1.300 -0.2929  0.1392 -0.0064
  299SOL    HW1 1027   0.318   3.061   1.341 -0.4926 -1.8074 -0.1884
  299SOL    HW2 1028   0.455   3.124   1.346 -1.3574  0.0441  1.3771
  300SOL     OW 1029   1.438   0.106   1.648  0.5949  0.1281 -0.5089
  300SOL    HW1 1030   1.353   0.139   1.678 -0.2501 -2.3030  0.0053
  300SOL    HW2 1031   1.417   0.024   1.603  2.5178  0.4373 -2.0982
  301SOL     OW 1032   0.117   1.343   0.019  0.8701 -0.0641 -0.0795
  301SOL    HW1 1033   0.049   1.337   0.086 -0.3063 -1.1822 -1.3109
  301SOL    HW2 1034   0.097   1.272  -0.041  2.4921  0.2850 -1.0837
  302SOL     OW 1035   1.159   1.411   1.332 -0.4559  0.2016 -0.4968
  302SOL    HW1 1036   1.078   1.411   1.382 -0.8799  0.8682 -1.1529
  302SOL    HW2 1037   1.210   1.338   1.368 -0.1256  1.5005  1.8428
  303SOL     OW 1038   0.779   3.043   1.112 -0.5418 -0.3793 -0.1043
  303SOL    HW1 1039   0.840   3.115   1.130 -0.0338 -1.3167  2.2955
  303SOL    HW2 1040   0.826   2.988   1.049  0.3578 -0.1559  0.3472
  304SOL     OW 1041   2.105   1.181   0.910 -0.7195 -0.1106  0.3550
  304SOL    HW1 1042   2.044   1.124   0.957  0.3008 -0.2852  1.5450
  304SOL    HW2 1043   2.052   1.255   0.881 -1.1389  0.8772  3.3270
  305SOL     OW 1044   1.931   1.461   2.437 -0.0292 -0.1716  0.3452
  305SOL    HW1 1045   1.953   1.544   2.480 -0.8343 -0.3695  1.1577
  305SOL    HW2 1046   1.979   1.464   2.354  0.9153  0.5762  0.8882
  306SOL     OW 1047   2.974   0.802   1.145 -0.1598  0.0339 -0.1741
  306SOL    HW1 1048   2.988   0.880   1.092 -3.0931  0.8932  0.1163
  306SOL    HW2 1049   2.980   0.729   1.084 -3.6807  1.0016 -1.9754
  307SOL     OW 1050   3.461   1.322   0.866  0.0575  0.8742 -0.3266
  307SOL    HW1 1051   3.395   1.253   0.875  0.1867  0.9261  1.1728
  307SOL    HW2 1052   3.529   1.299   0.930 -0.1102  2.6342  0.5387
  308SOL     OW 1053   0.161   1.936   0.733 -0.0145  0.2697  0.3605
  308SOL    HW1 1054   0.166   1.841   0.746 -0.5903  0.3222  1.0316
  308SOL    HW2 1055   0.168   1.948   0.639 -1.9759 -0.5910  0.0621
  309SOL     OW 1056   3.043   2.961   0.000 -0.2703 -0.1708 -0.0015
  309SOL    HW1 1057   3.109   2.993   0.062 -1.6937  2.5251  0.2617
  309SOL    HW2 1058   2.965   2.946   0.054 -2.2862  4.4247 -1.1277
  310SOL     OW 1059   2.011   0.468   1.222  0.2979 -0.3318 -0.2717
  310SOL    HW1 1060   2.076   0.498   1.286 -0.2651  1.9755 -0.6975
  310SOL    HW2 1061   2.026   0.523   1.145  0.2877 -2.3483 -1.8229
  311SOL     OW 1062   1.544   0.717   2.695 -0.0786 -0.3920  0.2417
  311SOL    HW1 1063   1.532   0.643   2.636  1.7362 -1.5084  1.1538
  311SOL    HW2 1064   1.621   0.693   2.747 -0.6265  1.2714  1.9207
  312SOL     OW 1065   3.329   1.671   0.491 -0.0884  0.7927  0.4534
  312SOL    HW1 1066   3.416   1.642   0.515  0.1132  0.8355 -0.1955
  312SOL    HW2 1067   3.292   1.707   0.571 -0.4234 -1.3817  1.3496
  313SOL     OW 1068   2.055   0.237   3.223  0.5758 -0.1697  0.8326
  313SOL    HW1 1069   2.022   0.277   3.303 -2.7207 -0.9040  0.0050
  313SOL    HW2 1070   2.088   0.311   3.171 -1.6597  1.0414  0.9952
  314SOL     OW 1071   1.401   2.564   0.042 -0.5997 -0.3263 -0.0375
  314SOL    HW1 1072   1.377   2.548   0.134 -0.8604  1.0129  0.1459
  314SOL    HW2 1073   1.320   2.595   0.002 -0.4117 -0.6340 -0.6570
  315SOL     OW 1074   0.099   3.350   1.502 -0.7530  0.2357  0.4858
  315SOL    HW1 1075   0.186   3.388   1.490 -0.1984 -0.5095  1.9028
  315SOL    HW2 1076   0.081   3.361   1.595 -1.8101 -0.3908  0.3680
  316SOL     OW 1077   2.927   2.569   2.152 -0.4118  0.1053  0.5063
  316SOL    HW1 1078   2.924   2.657   2.189  0.1262 -0.2464  1.4316
  316SOL    HW2 1079   2.852   2.524   2.191 -1.7545  0.6537 -1.3546
  317SOL     OW 1080   1.453   3.022   0.317 -0.1600  0.2451 -0.0009
  317SOL    HW1 1081   1.451   3.041   0.224  0.4757 -0.9815 -0.2908
  317SOL    HW2 1082   1.535   2.975   0.330 -1.3202 -1.6666  0.7595
  318SOL     OW 1083   2.808   1.651   2.342  0.6440 -0.2011  0.1826
  318SOL    HW1 1084   2.887   1.644   2.396  1.7616  0.0860 -1.3750
  318SOL    HW2 1085   2.792   1.746   2.336  0.0996 -0.2624  0.5778
  319SOL     OW 1086   2.356   3.304   2.789  0.0768 -0.4132  1.4541
  319SOL    HW1 1087   2.302   3.332   2.715  1.4902 -0.1137  0.5085
  319SOL    HW2 1088   2.359   3.380   2.847  0.0534 -0.1897  1.1643
  320SOL     OW 1089   2.847   2.728   0.353  0.0512 -0.5515 -0.0243
  320SOL    HW1 1090   2.792   2.713   0.430 -0.9066  0.1514 -0.5468
  320SOL    HW2 1091   2.815   2.666   0.288 -0.2678 -0.0155 -0.3896
  321SOL     OW 1092   0.759   0.726   3.387 -0.2062 -0.6872  0.0572
  321SOL    HW1 1093   0.719   0.808   3.360  0.5340  0.1997  1.5655
  321SOL    HW2 1094   0.726   0.662   3.324  0.4754  1.0209 -2.1607
  322SOL     OW 1095   0.120   2.049   2.369  0.8031 -0.4031 -0.7750
  322SOL    HW1 1096   0.139   2.000   2.289  0.0706 -0.4897 -0.9049
  322SOL    HW2 1097   0.028   2.029   2.389  0.3012  1.3250 -1.1347
  323SOL     OW 1098   1.523   3.038   1.848  0.0776  0.3841 -0.2737
  323SOL    HW1 1099   1.448   3.004   1.799 -1.3670 -0.4987  2.4060
  323SOL    HW2 1100   1.519   3.133   1.834 -2.0298  0.4381  0.3815
  324SOL     OW 1101   2.037   1.029   3.128 -0.2870 -0.4916  0.0650
  324SOL    HW1 1102   1.983   1.100   3.091  1.9050  0.4132 -1.6211
  324SOL    HW2 1103   1.977   0.981   3.185 -2.6293  0.9590 -1.0124
  325SOL     OW 1104   1.448   2.869   0.930 -0.0813  0.0867  0.0892
  325SOL    HW1 1105   1.367   2.843   0.973 -0.3438  1.8556  0.7694
  325SOL    HW2 1106   1.433   2.851   0.837 -1.2471  0.3572  0.2062
  326SOL     OW 1107   1.411   2.924   2.657  0.0194  0.1541  0.0048
  326SOL    HW1 1108   1.452   2.845   2.623  1.1354  1.2685 -1.4032
  326SOL    HW2 1109   1.484   2.977   2.690 -0.5624  1.0472 -0.0888
  327SOL     OW 1110   1.321   2.849   1.799  0.1273  0.2206 -0.4588
  327SOL    HW1 1111   1.269   2.864   1.721 -0.9596 -0.6966  0.0621
  327SOL    HW2 1112   1.323   2.753   1.809  1.1874  0.2686  0.0217
  328SOL     OW 1113   1.045   3.474   1.383  0.8921  0.0010  0.7491
  328SOL    HW1 1114   1.093   3.541   1.432 -0.6951  1.7123  0.0909
  328SOL    HW2 1115   1.055   3.499   1.292 -0.9615  0.2821  0.5808
  329SOL     OW 1116   0.079   3.395   3.390  0.6222  0.4207  0.3474
  329SOL    HW1 1117   0.146   3.364   3.330 -0.3801 -0.5301 -0.3152
  329SOL    HW2 1118   0.058   3.318   3.444 -1.3559  0.0773 -0.8121
  330SOL     OW 1119   2.502   3.043   1.252  0.5136  0.0356  0.0155
  330SOL    HW1 1120   2.466   2.981   1.316  0.2443 -0.6928 -0.8257
  330SOL    HW2 1121   2.430   3.059   1.191  0.8090  0.6183 -0.1911
  331SOL     OW 1122   1.025   2.073   1.192  0.4218  0.3395 -0.3053
  331SOL    HW1 1123   1.119   2.089   1.191  0.6755 -0.9505  0.1674
  331SOL    HW2 1124   1.017   1.979   1.210 -0.9444  0.3007 -0.9646
  332SOL     OW 1125   2.156   0.895   1.237 -0.4635 -0.3747 -0.3125
  332SOL    HW1 1126   2.235   0.868   1.191 -0.2046  0.6640 -0.5011
  332SOL    HW2 1127   2.144   0.987   1.214 -1.7902 -0.5355 -0.3731
  333SOL     OW 1128   1.430   1.053   2.824  0.2904  0.3240 -0.5407
  333SOL    HW1 1129   1.444   1.117   2.893 -0.3894  0.1274 -0.2062
  333SOL    HW2 1130   1.488   0.980   2.846  2.9378  1.7524 -2.2464
  334SOL     OW 1131   0.479   0.196   0.413  0.1588 -0.1914 -0.6302
  334SOL    HW1 1132   0.446   0.117   0.369 -0.9413  0.3916 -0.9046
  334SOL    HW2 1133   0.450   0.187   0.504 -1.1923  0.5175 -0.9629
  335SOL     OW 1134   0.500   2.599   2.978  0.3699 -0.0249  0.2290
  335SOL    HW1 1135   0.547   2.563   3.054 -0.5826  1.4153  1.5584
  335SOL    HW2 1136   0.414   2.556   2.981 -0.3389  1.3944  1.1097
  336SOL     OW 1137   1.547   0.363   0.497  0.0558  0.2948  0.1042
  336SOL    HW1 1138   1.529   0.272   0.476  1.0041  0.3076 -0.8656
  336SOL    HW2 1139   1.471   0.411   0.464  1.0865  0.2162 -2.7548
  337SOL     OW 1140   3.350   1.070   0.831  0.5095 -0.1404  0.4690
  337SOL    HW1 1141   3.416   1.018   0.877  2.1433  0.2407 -1.3361
  337SOL    HW2 1142   3.359   1.045   0.739 -0.6061  1.2789 -0.0621
  338SOL     OW 1143   0.209   0.449   1.764  0.3851  0.2881  0.1954
  338SOL    HW1 1144   0.171   0.537   1.763  1.2460  0.7089 -1.8238
  338SOL    HW2 1145   0.160   0.401   1.696  1.1229 -0.2111  0.0012
  339SOL     OW 1146   0.368   3.460   1.490 -0.0256 -0.6128 -0.9187
  339SOL    HW1 1147   0.410   3.543   1.467 -0.3328 -0.5027 -1.1035
  339SOL    HW2 1148   0.425   3.393   1.454  0.1210 -0.4721 -0.9474
  340SOL     OW 1149   2.618   0.043   0.940  0.3815  0.0641 -0.0273
  340SOL    HW1 1150   2.593   0.068   1.028 -1.1137  0.2181 -0.4653
  340SOL    HW2 1151   2.601   0.121   0.887  0.1483 -0.3897 -0.6320
  341SOL     OW 1152   0.830   2.184   0.413 -0.1176  0.3062  0.1225
  341SOL    HW1 1153   0.818   2.242   0.488  1.5608 -0.8660  1.3891
  341SOL    HW2 1154   0.759   2.120   0.419 -1.4118  1.6167 -0.7342
  342SOL     OW 1155   1.680   1.588   3.427 -0.5866  0.5885 -0.0482
  342SOL    HW1 1156   1.713   1.542   3.504  0.8077  0.6009 -0.6223
  342SOL    HW2 1157   1.603   1.538   3.400  1.4585 -2.0963 -1.2897
  343SOL     OW 1158   1.958   2.132   1.429 -0.0546 -0.5261 -0.2620
  343SOL    HW1 1159   1.921   2.063   1.374 -1.5144  0.5675 -0.7244
  343SOL    HW2 1160   1.886   2.194   1.440  1.3658  1.2153 -0.3549
  344SOL     OW 1161   0.626   2.346   1.145 -0.2656 -0.2181 -0.1508
  344SOL    HW1 1162   0.579   2.277   1.193 -1.5413  1.0456  0.4953
  344SOL    HW2 1163   0.566   2.369   1.074 -0.3899  1.0034  0.3268
  345SOL     OW 1164   0.242   3.300   2.750  0.3861  0.0466 -0.2964
  345SOL    HW1 1165   0.277   3.324   2.836 -0.0805  1.5085 -0.4847
  345SOL    HW2 1166   0.150   3.327   2.754 -0.0092 -1.1449 -0.7919
  346SOL     OW 1167   0.241   1.768   3.538  0.0695  0.2751 -0.0890
  346SOL    HW1 1168   0.160   1.806   3.505  0.1021 -0.4582 -1.0439
  346SOL    HW2 1169   0.274   1.714   3.466  1.8135  1.1584 -0.0075
  347SOL     OW 1170   2.542   3.429   0.056  0.6146 -0.2752 -0.0294
  347SOL    HW1 1171   2.487   3.361   0.018  0.6881  0.3796 -1.3570
  347SOL    HW2 1172   2.495   3.511   0.037  1.5961  0.2170 -0.3857
  348SOL     OW 1173   3.150   0.819   0.924  0.1884 -0.7424  0.3066
  348SOL    HW1 1174   3.170   0.912   0.937 -0.5067 -0.5618  0.1007
  348SOL    HW2 1175   3.235   0.778   0.912  0.5413 -0.2140  0.9376
  349SOL     OW 1176   2.522   1.244   3.041 -0.2440  0.6115 -0.0633
  349SOL    HW1 1177   2.506   1.206   3.128  0.7032 -0.3967 -0.3025
  349SOL    HW2 1178   2.567   1.327   3.059 -1.2830  1.0832  0.4383
  350SOL     OW 1179   2.848   0.572   1.057 -0.2383  0.3326  0.0707
  350SOL    HW1 1180   2.819   0.638   1.121  0.2546 -0.4388  1.1073
  350SOL    HW2 1181   2.782   0.503   1.062 -2.8552  2.2384 -3.6447
  351SOL     OW 1182   1.507   1.085   0.527 -0.0263 -0.6931  0.1339
  351SOL    HW1 1183   1.568   1.158   0.530 -2.0748  1.1290 -0.1724
  351SOL    HW2 1184   1.496   1.059   0.619 -1.1084  1.0580  0.5516
  352SOL     OW 1185   0.759   1.573   0.464 -0.1866 -0.5002  0.5075
  352SOL    HW1 1186   0.678   1.558   0.513 -1.6342  0.4879 -1.4627
  352SOL    HW2 1187   0.741   1.538   0.377  0.5053  2.0933 -0.7492
  353SOL     OW 1188   1.646   0.107   0.120  0.1300 -0.0124 -0.1296
  353SOL    HW1 1189   1.717   0.051   0.090 -0.7307 -1.4090  0.3565
  353SOL    HW2 1190   1.566   0.065   0.089 -0.5897  0.4305  1.0213
  354SOL     OW 1191   2.346   1.478   2.573  0.5053  0.4949  0.4016
  354SOL    HW1 1192   2.421   1.452   2.520  0.1682 -2.4136  1.1664
  354SOL    HW2 1193   2.355   1.427   2.654 -2.2120  0.0473  0.5288
  355SOL     OW 1194   3.468   1.050   2.445 -0.2291 -0.1505  0.2133
  355SOL    HW1 1195   3.426   0.971   2.480 -0.1750 -0.3322 -0.1231
  355SOL    HW2 1196   3.544   1.064   2.502 -0.2205 -0.3628  0.2558
  356SOL     OW 1197   1.628   1.941   0.794 -0.6039  0.2115 -0.2677
  356SOL    HW1 1198   1.579   1.998   0.854 -1.6658 -0.2337 -0.6898
  356SOL    HW2 1199   1.673   2.002   0.735 -0.1428  0.6374  0.5052
  357SOL     OW 1200   0.038   0.215   2.690  0.2936 -1.0309  0.4080
  357SOL    HW1 1201   0.121   0.168   2.684  0.4320 -0.6145 -1.3698
  357SOL    HW2 1202   0.024   0.253   2.603 -1.3378 -0.3615  0.9046
  358SOL     OW 1203   3.382   1.815   1.751  0.1832  0.4682 -0.3570
  358SOL    HW1 1204   3.382   1.825   1.847  0.3726 -2.0791 -0.0122
  358SOL    HW2 1205   3.359   1.902   1.718  0.3725  1.4959  1.9846
  359SOL     OW 1206   1.314   1.988   3.276 -0.0001  0.1778 -0.1080
  359SOL    HW1 1207   1.288   1.919   3.338  1.2207 -1.2585 -1.1189
  359SOL    HW2 1208   1.254   2.060   3.294  0.5923  0.0374  3.0758
  360SOL     OW 1209   3.194   1.501   1.343  0.0974 -0.1075 -0.1746
  360SOL    HW1 1210   3.247   1.552   1.404  0.8200 -0.3050 -0.6316
  360SOL    HW2 1211   3.160   1.565   1.282  2.3018 -0.3135 -1.7143
  361SOL     OW 1212   1.864   0.797   2.848  0.0445  0.0598  0.4684
  361SOL    HW1 1213   1.838   0.782   2.757  1.6793  0.7486 -0.1368
  361SOL    HW2 1214   1.784   0.828   2.890 -1.5499 -3.0373  0.0264
  362SOL     OW 1215   1.262   1.197   0.391 -0.6173  0.2923  0.0822
  362SOL    HW1 1216   1.316   1.152   0.456  1.0527  0.7680 -0.9173
  362SOL    HW2 1217   1.283   1.154   0.308 -0.7227  1.4075 -0.5438
  363SOL     OW 1218   0.476   3.147   1.713  0.5358 -0.6214  0.8132
  363SOL    HW1 1219   0.525   3.065   1.718  1.6168  0.0918  3.2078
  363SOL    HW2 1220   0.519   3.205   1.775  0.2948  2.0932 -1.3519
  364SOL     OW 1221   2.283   0.140   2.189 -0.0297  0.2121  0.0751
  364SOL    HW1 1222   2.245   0.227   2.181 -0.4425  0.0047 -0.3147
  364SOL    HW2 1223   2.265   0.114   2.279 -0.6244  0.2123 -0.0352
  365SOL     OW 1224   1.450   0.558   0.941 -0.3877 -0.0200 -0.3591
  365SOL    HW1 1225   1.525   0.498   0.946  0.4914  1.0347 -0.4321
  365SOL    HW2 1226   1.488   0.640   0.911 -1.8446  0.1167 -1.9596
  366SOL     OW 1227   2.417   1.430   0.753  0.4482 -0.4528 -0.5620
  366SOL    HW1 1228   2.453   1.515   0.776  0.6841 -0.3535 -1.2986
  366SOL    HW2 1229   2.345   1.417   0.815 -0.4354  0.8672 -1.2776
  367SOL     OW 1230   3.285   2.196   1.823  0.2829  0.3335  0.0474
  367SOL    HW1 1231   3.279   2.291   1.827  0.4223  0.4317 -1.3494
  367SOL    HW2 1232   3.325   2.170   1.906  1.2302  1.5921  0.0068
  368SOL     OW 1233   0.706   3.045   0.503  0.3205 -0.1012 -0.3516
  368SOL    HW1 1234   0.667   3.085   0.424  0.7506  3.8295  1.2124
  368SOL    HW2 1235   0.663   2.960   0.509 -0.3162 -0.2909 -4.3443
  369SOL     OW 1236   2.562   0.554   0.913 -0.1061  0.0678  1.0250
  369SOL    HW1 1237   2.562   0.648   0.896  3.0120  0.0011  0.1727
  369SOL    HW2 1238   2.480   0.523   0.874  0.3900  1.9429 -1.8373
  370SOL     OW 1239   0.628   2.631   2.107  0.9795 -0.6161 -0.1792
  370SOL    HW1 1240   0.574   2.697   2.064  1.0795  0.5528  1.4167
  370SOL    HW2 1241   0.606   2.549   2.062  1.4024  0.5756 -2.7174
  371SOL     OW 1242   1.477   1.337   2.787  0.2191 -0.3094 -0.2994
  371SOL    HW1 1243   1.523   1.419   2.769 -1.6345  1.0159  0.6315
  371SOL    HW2 1244   1.409   1.333   2.719  0.6138 -1.3603 -0.6471
  372SOL     OW 1245   1.022   1.237   3.177 -0.3755  0.2549  0.0594
  372SOL    HW1 1246   1.105   1.196   3.153 -0.4970  0.1596 -0.2046
  372SOL    HW2 1247   0.976   1.170   3.228 -0.3708  0.2402  0.0439
  373SOL     OW 1248   1.786   0.807   1.081  0.1500 -0.5664 -0.4244
  373SOL    HW1 1249   1.876   0.775   1.074  0.2367 -0.2033 -1.0422
  373SOL    HW2 1250   1.735   0.728   1.099 -0.0362 -1.7013 -4.8118
  374SOL     OW 1251   2.866   2.360   0.697  0.0316 -0.8338  0.0092
  374SOL    HW1 1252   2.925   2.376   0.623 -0.8595  1.3166 -0.3268
  374SOL    HW2 1253   2.916   2.389   0.774  0.1203 -0.8712 -0.0337
  375SOL     OW 1254   1.764   1.424   0.147  0.4160  0.4349 -0.8618
  375SOL    HW1 1255   1.817   1.452   0.221 -1.8857  0.0251  1.0472
  375SOL    HW2 1256   1.817   1.356   0.105  1.5289  0.2397  0.7463
  376SOL     OW 1257   1.525   1.656   3.204 -0.3477  0.6626 -0.1422
  376SOL    HW1 1258   1.500   1.571   3.238  0.7899  0.1237 -0.5751
  376SOL    HW2 1259   1.558   1.704   3.280  0.6739  0.0482 -0.1683
  377SOL     OW 1260   1.177   0.745   1.206 -0.5484  0.1406 -0.3494
  377SOL    HW1 1261   1.168   0.799   1.127  0.5804  0.1604 -0.4666
  377SOL    HW2 1262   1.195   0.657   1.174  3.2833  0.7131 -0.1678
  378SOL     OW 1263   1.225   0.724   2.333 -0.4023 -0.3317 -0.5310
  378SOL    HW1 1264   1.227   0.803   2.386  0.1175 -1.4861  1.2421
  378SOL    HW2 1265   1.235   0.755   2.243 -0.3721  1.6086  0.1116
  379SOL     OW 1266   0.322   2.895   1.749  0.3983  0.1688 -0.0234
  379SOL    HW1 1267   0.380   2.948   1.694  0.8427  0.6305  0.8663
  379SOL    HW2 1268   0.295   2.954   1.819 -2.7036  0.5899 -1.3642
  380SOL     OW 1269   0.471   1.532   2.444  0.3004  0.3641  0.3410
  380SOL    HW1 1270   0.408   1.536   2.371 -0.5220  2.2414  1.0982
  380SOL    HW2 1271   0.546   1.486   2.407 -0.9272 -0.6591 -1.0357
  381SOL     OW 1272   0.328   2.794   2.197  0.2292 -0.5542  0.1333
  381SOL    HW1 1273   0.351   2.872   2.248  2.7190 -0.8743 -0.3638
  381SOL    HW2 1274   0.347   2.818   2.107 -0.4464 -1.2523 -0.1975
  382SOL     OW 1275   3.481   0.872   0.075 -0.2024 -0.1496 -0.0125
  382SOL    HW1 1276   3.428   0.936   0.028  0.1570 -0.6685 -1.1571
  382SOL    HW2 1277   3.554   0.923   0.111  1.1636 -0.1442 -2.5602
  383SOL     OW 1278   3.239  -0.029   0.413 -0.3754 -1.2454 -0.3044
  383SOL    HW1 1279   3.295   0.048   0.401  0.7833 -1.7057  1.7523
  383SOL    HW2 1280   3.162  -0.011   0.358  0.9615  0.2123 -1.8070
  384SOL     OW 1281   2.015   3.054   0.575  0.1332 -0.1739  0.1322
  384SOL    HW1 1282   2.094   3.020   0.532  1.2051  0.2550  1.6954
  384SOL    HW2 1283   1.960   3.085   0.502  1.6772  0.1264 -0.9573
  385SOL     OW 1284   0.736   3.185   2.418 -0.2706 -0.1611 -0.1298
  385SOL    HW1 1285   0.730   3.130   2.340 -1.5967 -0.5724  0.2361
  385SOL    HW2 1286   0.770   3.126   2.486 -2.2486 -0.7369  0.4112
  386SOL     OW 1287   1.296   0.228   0.099 -0.7889 -0.1509 -0.2512
  386SOL    HW1 1288   1.260   0.208   0.185  2.5763  1.4652  1.7148
  386SOL    HW2 1289   1.248   0.306   0.070 -0.4369  0.6400  1.2251
  387SOL     OW 1290   0.958   1.463   3.379  0.4642 -0.1840  0.0438
  387SOL    HW1 1291   1.020   1.402   3.339  1.7531 -1.1522  3.1397
  387SOL    HW2 1292   0.980   1.548   3.341  0.8321 -1.1266 -1.9782
  388SOL     OW 1293   0.628   1.464   3.165 -0.1870 -0.3047 -0.2719
  388SOL    HW1 1294   0.701   1.480   3.105  1.3101 -1.0723  1.2535
  388SOL    HW2 1295   0.562   1.528   3.140  1.1772  0.7262 -1.4301
  389SOL     OW 1296   2.674   1.220   2.343 -0.1666 -0.2489 -0.1795
  389SOL    HW1 1297   2.684   1.288   2.276  0.3920 -1.3499 -1.2584
  389SOL    HW2 1298   2.676   1.268   2.426  1.9798  0.9151 -0.8178
  390SOL     OW 1299   2.165   2.195   2.465 -0.1132 -0.2225  0.0924
  390SOL    HW1 1300   2.086   2.204   2.518 -1.1549 -0.2847 -1.3767
  390SOL    HW2 1301   2.228   2.255   2.505 -1.2489  0.6145  0.6848
  391SOL     OW 1302   1.445   0.730   0.649  0.5547 -0.2569 -0.0185
  391SOL    HW1 1303   1.522   0.673   0.650 -0.5247 -1.8296  2.6606
  391SOL    HW2 1304   1.466   0.800   0.710  0.2397 -0.1438 -0.0399
  392SOL     OW 1305   0.677   1.009   3.335 -0.4730 -0.2783  0.2758
  392SOL    HW1 1306   0.609   1.020   3.268  0.5148  2.5266 -0.4030
  392SOL    HW2 1307   0.720   1.094   3.339 -0.0121 -0.5445  4.0433
  393SOL     OW 1308   1.684   2.152   0.557 -0.1470  0.1083  0.7160
  393SOL    HW1 1309   1.636   2.073   0.531 -2.1693  1.2985  0.6825
  393SOL    HW2 1310   1.653   2.220   0.498  1.6952  0.9223  0.6338
  394SOL     OW 1311   1.788   2.827   1.539 -0.4435  0.7049 -0.3932
  394SOL    HW1 1312   1.712   2.858   1.590 -1.3096 -0.1977 -1.1030
  394SOL    HW2 1313   1.860   2.825   1.602 -0.8501  2.1559  0.1552
  395SOL     OW 1314   0.313   2.586   0.919 -0.8966  0.3182 -0.4741
  395SOL    HW1 1315   0.264   2.595   1.001  0.5683  0.0465  0.4804
  395SOL    HW2 1316   0.367   2.665   0.915  2.1576 -1.4757  1.0761
  396SOL     OW 1317   0.497   1.812   0.684 -0.8159  0.0775 -0.3518
  396SOL    HW1 1318   0.555   1.888   0.678 -0.6311 -0.0943 -0.8201
  396SOL    HW2 1319   0.429   1.828   0.619 -1.1251  0.1346 -0.0153
  397SOL     OW 1320   2.565   0.400   3.166 -0.0977  0.3107 -0.3719
  397SOL    HW1 1321   2.471   0.401   3.185  0.0742 -0.5272  0.6345
  397SOL    HW2 1322   2.591   0.309   3.179  1.2514  0.9069  1.5270
  398SOL     OW 1323   2.654   2.010   2.895 -0.8221 -0.0064 -0.3545
  398SOL    HW1 1324   2.745   2.035   2.910 -1.5468  2.2456  0.7077
  398SOL    HW2 1325   2.630   2.054   2.813 -1.2510  0.3434 -0.0504
  399SOL     OW 1326   0.239   2.112   0.919 -0.1557 -0.3437 -0.1543
  399SOL    HW1 1327   0.225   2.038   0.859  0.8896 -0.6147 -0.0767
  399SOL    HW2 1328   0.183   2.181   0.884 -1.8561 -1.4103  0.2714
  400SOL     OW 1329   2.474   3.302   0.817 -0.4563 -0.2247 -0.1470
  400SOL    HW1 1330   2.508   3.287   0.905  0.2465 -1.0326 -0.5377
  400SOL    HW2 1331   2.524   3.376   0.784 -0.8380  0.1869  0.1869
  401SOL     OW 1332   1.998   1.451   3.492 -0.5326 -0.3111 -0.4662
  401SOL    HW1 1333   2.019   1.384   3.557 -0.7718 -1.0761 -1.1653
  401SOL    HW2 1334   2.017   1.409   3.408 -0.0659  0.7214 -0.8903
  402SOL     OW 1335   0.268   0.083   2.730  0.5437 -0.2843 -0.5068
  402SOL    HW1 1336   0.346   0.105   2.678  0.4642  1.6676  0.1109
  402SOL    HW2 1337   0.293   0.005   2.778  1.0828 -1.3877 -2.4621
  403SOL     OW 1338   3.418   0.649   3.426 -0.1356 -0.1263 -1.0348
  403SOL    HW1 1339   3.424   0.677   3.335 -2.8570 -0.8907 -1.5492
  403SOL    HW2 1340   3.434   0.729   3.477 -1.2222  0.9141 -2.2593
  404SOL     OW 1341   2.538   2.817   0.766 -0.5115  0.2984 -0.1277
  404SOL    HW1 1342   2.582   2.744   0.810  1.0158  0.2876 -1.5581
  404SOL    HW2 1343   2.572   2.895   0.809 -0.3851  0.2397 -0.1202
  405SOL     OW 1344   0.997   0.161   3.493 -0.4811  0.2328 -0.6176
  405SOL    HW1 1345   0.961   0.219   3.560 -2.3119 -1.5215  0.0168
  405SOL    HW2 1346   0.952   0.186   3.413  1.4020  2.0439 -1.2241
  406SOL     OW 1347   1.280   0.210   0.690 -0.0042  0.8430 -0.5169
  406SOL    HW1 1348   1.260   0.177   0.602 -0.3023 -0.2199 -0.0688
  406SOL    HW2 1349   1.197   0.248   0.721 -0.8704 -1.7011  0.5342
  407SOL     OW 1350   0.277   0.999   2.280 -0.4110 -0.1996  0.5854
  407SOL    HW1 1351   0.262   0.920   2.227  0.3485  1.5082 -2.4215
  407SOL    HW2 1352   0.370   1.017   2.270 -0.4711  0.8216  1.6621
  408SOL     OW 1353   0.597   0.234   3.169  0.4809 -0.2362 -0.1590
  408SOL    HW1 1354   0.617   0.276   3.085  1.6802 -0.3060  0.0712
  408SOL    HW2 1355   0.506   0.206   3.160  0.0767  1.1968 -0.8131
  409SOL     OW 1356   1.043   1.808   0.766 -0.0529  0.4451  0.0781
  409SOL    HW1 1357   1.090   1.772   0.691  1.0976 -0.6983  1.2976
  409SOL    HW2 1358   1.073   1.899   0.771  0.8376  0.1784 -0.1216
  410SOL     OW 1359   1.076   0.262   2.890 -0.1982 -0.2721  0.2324
  410SOL    HW1 1360   1.030   0.184   2.923 -2.1543  1.3167  1.4788
  410SOL    HW2 1361   1.029   0.286   2.811 -1.2291  1.0653  1.2263
  411SOL     OW 1362   2.064   1.306   1.757 -0.0950  0.4690 -0.1062
  411SOL    HW1 1363   2.013   1.294   1.678  1.8429  0.2230 -1.3959
  411SOL    HW2 1364   2.073   1.218   1.794  2.2002 -0.1234 -1.8009
  412SOL     OW 1365   2.094   0.894   2.316 -0.4851 -0.0885  0.2558
  412SOL    HW1 1366   2.067   0.979   2.349  1.2001 -0.4860  2.8827
  412SOL    HW2 1367   2.170   0.912   2.261 -0.4237  0.1313  0.4136
  413SOL     OW 1368   1.526   0.361   3.132 -0.5777  0.1051  0.0797
  413SOL    HW1 1369   1.466   0.307   3.081 -1.7668  0.6118  0.9065
  413SOL    HW2 1370   1.611   0.347   3.090 -1.0865 -1.3298 -0.5657
  414SOL     OW 1371   0.862   2.073   2.902  0.9654 -0.4437  0.5083
  414SOL    HW1 1372   0.922   2.140   2.936 -0.0603 -0.9852  3.7538
  414SOL    HW2 1373   0.810   2.119   2.836 -0.0870  2.2690  2.9845
  415SOL     OW 1374   1.149   2.014   2.991  0.8932  0.2026 -0.7008
  415SOL    HW1 1375   1.176   1.928   3.021  2.0111  0.4167 -1.0120
  415SOL    HW2 1376   1.109   2.055   3.067 -0.6808 -0.9785 -0.8540
  416SOL     OW 1377   3.521   2.648   0.059 -0.1562 -0.3976 -0.2814
  416SOL    HW1 1378   3.552   2.641   0.149 -0.7080 -1.0704 -0.1290
  416SOL    HW2 1379   3.426   2.662   0.068 -0.2314 -0.5988 -0.7524
  417SOL     OW 1380   0.091   2.093   1.921  0.3811  0.1048  0.4054
  417SOL    HW1 1381   0.175   2.065   1.957  0.4872 -0.4560 -0.2405
  417SOL    HW2 1382   0.034   2.017   1.931  0.6150 -0.3201 -1.2079
  418SOL     OW 1383   0.241   2.823   3.070  0.0095 -0.2592  0.5620
  418SOL    HW1 1384   0.182   2.776   3.129  1.2880 -0.9558  1.3408
  418SOL    HW2 1385   0.245   2.768   2.992  0.8706 -1.0584  1.1514
  419SOL     OW 1386   1.180   1.408   2.722 -0.3602 -0.1172 -0.5687
  419SOL    HW1 1387   1.175   1.461   2.643 -1.8843 -0.9040 -1.0329
  419SOL    HW2 1388   1.123   1.452   2.784  0.1639  0.0226 -0.1763
  420SOL     OW 1389   2.228   3.136   0.823  0.7988  0.0782 -0.4536
  420SOL    HW1 1390   2.238   3.107   0.732 -0.0920 -0.8905 -0.2714
  420SOL    HW2 1391   2.282   3.214   0.830 -0.5187  1.2197 -2.3120
  421SOL     OW 1392   0.065   0.568   0.858 -0.4202 -0.0877  0.4634
  421SOL    HW1 1393   0.102   0.508   0.922  1.2592  0.4001  0.0037
  421SOL    HW2 1394   0.001   0.516   0.809  1.0786 -1.5586 -0.0121
  422SOL     OW 1395   0.730   1.029   1.288  0.1306  0.2353  0.0106
  422SOL    HW1 1396   0.784   1.105   1.266 -0.2970  1.0814  1.7036
  422SOL    HW2 1397   0.765   0.998   1.372 -0.0190 -1.1550 -0.4153
  423SOL     OW 1398   1.527   3.303   1.063  0.2402 -0.6255  0.4814
  423SOL    HW1 1399   1.558   3.350   0.985 -0.6274  0.1669  0.5860
  423SOL    HW2 1400   1.607   3.273   1.107  0.7794 -0.1503 -0.1501
  424SOL     OW 1401   1.894   0.833   1.868 -0.5123 -0.3249 -0.5830
  424SOL    HW1 1402   1.904   0.818   1.961  1.3471  2.0388 -0.3043
  424SOL    HW2 1403   1.903   0.747   1.828 -0.0730 -1.2015  1.3104
  425SOL     OW 1404   3.415   0.780   0.985  0.0510  0.5427  0.2424
  425SOL    HW1 1405   3.411   0.700   1.037  2.0858  2.4907  3.6914
  425SOL    HW2 1406   3.496   0.772   0.935  0.1076  0.3384  0.3661
  426SOL     OW 1407   0.400   3.247   2.545  0.3846 -0.4110 -0.1891
  426SOL    HW1 1408   0.455   3.170   2.560  2.6517  1.2263  0.5031
  426SOL    HW2 1409   0.353   3.260   2.627 -1.4794 -2.0542 -0.9157
  427SOL     OW 1410   0.368   0.229   1.747 -0.1764 -0.9512 -0.3576
  427SOL    HW1 1411   0.351   0.319   1.774  1.4416 -0.1665 -1.7328
  427SOL    HW2 1412   0.297   0.209   1.685  0.8591  0.3575 -2.0371
  428SOL     OW 1413   0.147   2.512   0.675 -0.2056 -0.4276  0.4868
  428SOL    HW1 1414   0.167   2.515   0.581  2.1868  0.7390  0.9574
  428SOL    HW2 1415   0.230   2.535   0.718 -1.6088  0.5649  2.8573
  429SOL     OW 1416   2.112   0.480   0.219  0.4778  0.4085  0.1534
  429SOL    HW1 1417   2.050   0.426   0.267  0.2107  1.5432  1.1272
  429SOL    HW2 1418   2.062   0.517   0.146  0.2620  0.5272  0.3604
  430SOL     OW 1419   2.661   0.372   0.288 -0.1825  0.0631  0.0713
  430SOL    HW1 1420   2.664   0.309   0.360  1.1102 -0.2560 -0.2462
  430SOL    HW2 1421   2.673   0.319   0.209 -1.8982  0.3675 -0.4336
  431SOL     OW 1422   0.152   2.484   1.558 -0.3672 -0.0742 -0.3742
  431SOL    HW1 1423   0.173   2.399   1.598  0.3269  0.5540  0.6295
  431SOL    HW2 1424   0.236   2.528   1.548 -0.9207  1.6638  1.8239
  432SOL     OW 1425   2.046   0.040   1.776  0.5470 -0.4755 -0.2138
  432SOL    HW1 1426   2.092  -0.041   1.753 -0.6870 -1.2785  0.0186
  432SOL    HW2 1427   1.994   0.061   1.698  2.5683  1.3999 -1.1332
  433SOL     OW 1428   0.811   2.063   3.264 -0.5209  0.2824 -0.2244
  433SOL    HW1 1429   0.782   2.008   3.191 -0.5492 -0.5870  0.4325
  433SOL    HW2 1430   0.806   2.006   3.341 -0.0309  1.0447  0.3876
  434SOL     OW 1431   2.579   1.394   3.378  0.2739 -0.1956  0.4316
  434SOL    HW1 1432   2.590   1.300   3.383  1.8150  0.0135  2.1203
  434SOL    HW2 1433   2.604   1.418   3.289 -0.7247 -1.4106 -0.1992
  435SOL     OW 1434   0.807   0.828   0.804  0.1039 -0.1573 -0.3312
  435SOL    HW1 1435   0.856   0.814   0.723 -0.4482  1.3704 -0.9606
  435SOL    HW2 1436   0.764   0.912   0.792 -1.0455 -0.5109  1.0339
  436SOL     OW 1437   0.950   0.647   2.319  0.5624 -0.2597 -0.5218
  436SOL    HW1 1438   1.034   0.686   2.296  0.4224 -1.1451 -2.8069
  436SOL    HW2 1439   0.891   0.721   2.332  1.8197  0.3986  1.9053
  437SOL     OW 1440   0.600   3.329   0.553  0.0155  0.5773  0.4950
  437SOL    HW1 1441   0.652   3.250   0.537 -2.0687 -1.0384  1.0784
  437SOL    HW2 1442   0.624   3.356   0.641  1.2755  1.0624  0.0209
  438SOL     OW 1443   1.328   0.220   2.986 -0.6092 -0.3071 -0.2564
  438SOL    HW1 1444   1.294   0.136   3.016 -0.6886  0.0411  0.6834
  438SOL    HW2 1445   1.255   0.261   2.941 -0.9156 -0.2939  0.2385
  439SOL     OW 1446   1.214   3.499   2.598  0.4888 -0.1653 -0.4429
  439SOL    HW1 1447   1.290   3.451   2.566  0.3656 -2.6481  2.6038
  439SOL    HW2 1448   1.248   3.556   2.667  0.4668  3.8009 -3.3322
  440SOL     OW 1449   2.754   0.580   3.255  0.1166 -0.5141 -0.0117
  440SOL    HW1 1450   2.739   0.665   3.298  2.0508 -1.4841  2.9262
  440SOL    HW2 1451   2.668   0.540   3.249 -0.5480  0.7596  0.6647
  441SOL     OW 1452   2.422   2.669   0.107  0.2716 -0.0075 -0.2325
  441SOL    HW1 1453   2.373   2.587   0.112 -0.5996  0.5253  0.1228
  441SOL    HW2 1454   2.508   2.643   0.073 -0.5659 -0.8346 -1.8429
  442SOL     OW 1455   0.871   1.843   3.058  0.4659 -0.3530 -0.5161
  442SOL    HW1 1456   0.885   1.926   3.014 -1.4963 -1.0236 -2.6092
  442SOL    HW2 1457   0.849   1.782   2.988  3.2108 -3.0723  0.7343
  443SOL     OW 1458   1.291   3.438   0.471 -0.5896 -0.1916  0.1635
  443SOL    HW1 1459   1.306   3.384   0.549  1.6069 -1.2453 -0.9105
  443SOL    HW2 1460   1.281   3.375   0.400 -0.3509  0.7900 -0.7634
  444SOL     OW 1461   0.958   2.902   0.647  0.2879 -0.0519 -0.4445
  444SOL    HW1 1462   1.048   2.935   0.637 -0.6518  2.6818 -0.5526
  444SOL    HW2 1463   0.907   2.952   0.584 -1.5727 -0.4607  0.6708
  445SOL     OW 1464   3.198   0.721   1.340 -0.1103 -0.3981  0.1069
  445SOL    HW1 1465   3.263   0.782   1.304  2.0870 -2.2098  0.7562
  445SOL    HW2 1466   3.123   0.729   1.282  1.8810 -0.4765 -2.6765
  446SOL     OW 1467   0.916   0.585   2.917 -0.1911 -0.4160  0.1197
  446SOL    HW1 1468   0.931   0.530   2.840  1.4793 -0.9612  0.7901
  446SOL    HW2 1469   0.943   0.673   2.890 -0.5899 -0.3863 -0.2081
  447SOL     OW 1470   1.144   1.434   0.409 -0.3810 -0.8129  0.4801
  447SOL    HW1 1471   1.113   1.474   0.328 -2.0863  0.4050  1.6629
  447SOL    HW2 1472   1.193   1.357   0.381 -0.8679 -0.3899 -1.6891
  448SOL     OW 1473   2.851   1.028   1.309 -0.1359  0.3879 -0.2396
  448SOL    HW1 1474   2.780   0.966   1.327  0.8006 -0.9326 -0.8705
  448SOL    HW2 1475   2.919   0.974   1.267  0.7155  1.8665 -0.8244
  449SOL     OW 1476   3.146   3.106   2.699 -0.1462 -0.7484  0.0526
  449SOL    HW1 1477   3.241   3.119   2.705 -0.1772 -0.1840 -0.6417
  449SOL    HW2 1478   3.136   3.011   2.702  0.4179 -0.8078  0.4056
  450SOL     OW 1479   1.936   3.204   0.085  0.3873  0.4035 -0.4928
  450SOL    HW1 1480   1.850   3.162   0.073  1.3281 -2.1557  0.8433
  450SOL    HW2 1481   1.999   3.138   0.056  1.9838  1.0837  1.2220
  451SOL     OW 1482   2.286   0.797   0.571  0.4948 -0.0191 -0.0241
  451SOL    HW1 1483   2.249   0.883   0.593 -2.4046 -0.9219 -0.8229
  451SOL    HW2 1484   2.211   0.748   0.537  2.3430 -2.4388 -0.8546
  452SOL     OW 1485   3.048   0.083   0.252  0.4642  0.5657  0.5334
  452SOL    HW1 1486   2.959   0.048   0.254  1.5557 -2.7589 -1.4203
  452SOL    HW2 1487   3.037   0.177   0.245 -2.8189  0.4455  2.2798
  453SOL     OW 1488   3.050   0.048   1.910  0.2547 -0.3363  0.2587
  453SOL    HW1 1489   3.133   0.061   1.864  0.0815  2.2782  0.5243
  453SOL    HW2 1490   3.057   0.103   1.988 -0.8600 -1.8857  1.5197
  454SOL     OW 1491   0.694   0.110   0.021 -0.2415  0.0371 -0.3813
  454SOL    HW1 1492   0.645   0.158   0.087 -0.4262  0.3836 -0.7688
  454SOL    HW2 1493   0.756   0.174  -0.014  0.3173 -0.3237 -0.0791
  455SOL     OW 1494   1.550   2.616   1.631  0.4166 -0.5121 -0.1937
  455SOL    HW1 1495   1.523   2.689   1.575 -0.7651 -0.4233  0.4749
  455SOL    HW2 1496   1.578   2.658   1.712 -2.3403 -0.8473  1.0389
  456SOL     OW 1497   2.010   3.008   1.221 -0.1493 -0.7761 -0.3541
  456SOL    HW1 1498   2.073   3.062   1.268 -1.0820 -0.6077  0.7394
  456SOL    HW2 1499   2.063   2.939   1.181  0.5969 -1.3689  1.5807
  457SOL     OW 1500   2.706   0.410   2.822 -0.5718  0.1636 -0.2456
  457SOL    HW1 1501   2.700   0.477   2.889  1.6489  0.0034  0.1640
  457SOL    HW2 1502   2.659   0.335   2.859 -1.6300  0.9059 -0.0231
  458SOL     OW 1503   3.207   2.742   2.391  0.7686  0.4060 -0.2487
  458SOL    HW1 1504   3.269   2.679   2.428  1.8092  0.1277 -2.3514
  458SOL    HW2 1505   3.151   2.691   2.334  0.2113  1.0678 -0.3088
  459SOL     OW 1506   2.311   0.570   0.755  0.1574  0.0889  0.0399
  459SOL    HW1 1507   2.317   0.648   0.700  0.7265  0.0865  0.0944
  459SOL    HW2 1508   2.235   0.523   0.722  1.1710 -0.5090 -1.5205
  460SOL     OW 1509   2.484   3.069   2.298  0.0252  0.1030 -0.3133
  460SOL    HW1 1510   2.513   3.046   2.386 -1.5393  0.4610  0.3081
  460SOL    HW2 1511   2.510   2.994   2.244 -0.3971 -0.8246  0.7433
  461SOL     OW 1512   3.341   1.277   3.022 -0.0422  0.2144  0.2861
  461SOL    HW1 1513   3.387   1.229   2.952  0.2171 -1.2945  1.4452
  461SOL    HW2 1514   3.406   1.339   3.055  0.3712 -0.2012  0.2666
  462SOL     OW 1515   2.420   2.680   1.925  0.1063 -0.7856 -0.2154
  462SOL    HW1 1516   2.509   2.715   1.915  0.8418 -2.1698  1.1123
  462SOL    HW2 1517   2.431   2.586   1.931 -1.3381 -0.9177  1.0377
  463SOL     OW 1518   2.496   1.617   1.192  0.3318 -0.5599 -0.0004
  463SOL    HW1 1519   2.447   1.562   1.252  2.4116 -0.8015  1.5793
  463SOL    HW2 1520   2.455   1.704   1.199 -0.4385 -0.9608  0.5362
  464SOL     OW 1521   3.497   1.513   0.687  0.2012  0.5068  0.2469
  464SOL    HW1 1522   3.413   1.550   0.714 -0.4659 -1.0252  0.3635
  464SOL    HW2 1523   3.514   1.443   0.749  0.2758 -0.8971 -1.2848
  465SOL     OW 1524   2.292   3.354   2.372 -0.2148 -0.0828 -0.5005
  465SOL    HW1 1525   2.265   3.283   2.314 -0.8614  0.1925 -0.5534
  465SOL    HW2 1526   2.369   3.321   2.418 -0.1638 -0.5938 -0.9511
  466SOL     OW 1527   1.168   2.634   1.886  0.2026 -0.3464  0.2969
  466SOL    HW1 1528   1.079   2.665   1.903  0.1104 -1.8135  2.8002
  466SOL    HW2 1529   1.198   2.599   1.969  2.5693 -1.3422 -0.8939
  467SOL     OW 1530   2.762   2.058   0.374 -0.5073 -0.2626 -0.3355
  467SOL    HW1 1531   2.823   2.047   0.448 -0.4084 -1.5735 -0.5882
  467SOL    HW2 1532   2.676   2.069   0.415 -0.2697  0.4497 -0.0062
  468SOL     OW 1533   0.903   0.015   2.858 -0.3977 -0.0224 -0.0099
  468SOL    HW1 1534   0.937  -0.007   2.771  2.4445  0.4316  0.8621
  468SOL    HW2 1535   0.808   0.008   2.850 -0.1915 -0.6179 -2.9547
  469SOL     OW 1536   1.199   0.095   2.345 -0.1841  0.4822  0.4314
  469SOL    HW1 1537   1.278   0.110   2.398  0.3062  0.4743 -0.2905
  469SOL    HW2 1538   1.131   0.074   2.410  0.0383  1.9095  1.1743
  470SOL     OW 1539   2.615   2.367   2.008  0.3360 -0.0441 -0.4018
  470SOL    HW1 1540   2.692   2.314   1.987  1.5515  1.9476 -1.1999
  470SOL    HW2 1541   2.627   2.448   1.959 -1.6578  0.8390  0.4593
  471SOL     OW 1542   2.190   0.646   2.352  0.6446  0.6326 -0.3197
  471SOL    HW1 1543   2.140   0.727   2.339  0.0225  0.2215 -0.5595
  471SOL    HW2 1544   2.234   0.658   2.436 -0.3016  0.7932  0.1709
  472SOL     OW 1545   2.054   0.883   0.781  0.4791  0.3812  0.9816
  472SOL    HW1 1546   2.088   0.950   0.721 -0.1897  0.3435  0.5471
  472SOL    HW2 1547   2.126   0.865   0.841  0.5801  1.7117  1.2973
  473SOL     OW 1548   0.703   2.026   1.286 -0.2641 -0.2471 -0.0767
  473SOL    HW1 1549   0.758   1.962   1.332  1.6793 -0.0429 -1.9233
  473SOL    HW2 1550   0.752   2.108   1.292 -0.1347 -0.1246 -2.0410
  474SOL     OW 1551   2.606   2.274   0.570  0.0742  0.6168 -0.3696
  474SOL    HW1 1552   2.691   2.287   0.612 -0.4137  0.5709  0.6827
  474SOL    HW2 1553   2.573   2.193   0.608 -0.4596  0.6597 -0.7297
  475SOL     OW 1554   2.637   1.524   0.510 -0.0789 -0.3403  0.2981
  475SOL    HW1 1555   2.728   1.505   0.486 -0.7364 -1.5742 -1.4163
  475SOL    HW2 1556   2.638   1.617   0.533  1.5372 -0.2277 -0.0838
  476SOL     OW 1557   2.082   2.478   0.389 -0.1548  0.0330  0.3858
  476SOL    HW1 1558   2.165   2.525   0.374 -0.4587  1.3680  2.4775
  476SOL    HW2 1559   2.108   2.390   0.416  0.4852 -0.3249 -1.2696
  477SOL     OW 1560   0.603   1.277   0.699  0.1824 -0.2157  0.2738
  477SOL    HW1 1561   0.631   1.368   0.693  0.8542 -0.3541  1.0818
  477SOL    HW2 1562   0.651   1.242   0.774  1.4031 -1.7616 -1.1467
  478SOL     OW 1563   0.745   1.271   3.350  0.2251  0.2466 -0.3310
  478SOL    HW1 1564   0.685   1.298   3.420  1.7773 -0.9317  1.5420
  478SOL    HW2 1565   0.819   1.331   3.358  1.4178 -1.2748  0.5686
  479SOL     OW 1566   0.981   3.347   3.099 -0.1123  0.5230 -0.6103
  479SOL    HW1 1567   0.929   3.267   3.087  0.2838  0.5666 -3.1513
  479SOL    HW2 1568   0.918   3.418   3.090 -0.0520  0.5302 -0.9892
  480SOL     OW 1569   2.813   2.835   2.815  0.1727  0.2637  0.2421
  480SOL    HW1 1570   2.845   2.906   2.870  0.7731  1.4784 -1.5848
  480SOL    HW2 1571   2.748   2.876   2.759  0.0088 -0.7985 -0.3707
  481SOL     OW 1572   1.479   2.267   2.490 -0.6496  0.5041  0.7553
  481SOL    HW1 1573   1.560   2.227   2.458  0.2164  2.9626 -0.4071
  481SOL    HW2 1574   1.488   2.268   2.585  0.5811  0.4991  0.6493
  482SOL     OW 1575   3.078   2.372   0.221 -0.2250  0.1282 -0.2472
  482SOL    HW1 1576   3.069   2.292   0.170 -0.3148 -0.3905  0.5671
  482SOL    HW2 1577   3.047   2.441   0.163  0.1645 -0.3761 -1.0814
  483SOL     OW 1578   2.673   1.814   0.517  0.6698  0.5167 -0.2049
  483SOL    HW1 1579   2.656   1.908   0.517  2.0593  0.8663  3.0902
  483SOL    HW2 1580   2.764   1.806   0.489  0.2516  0.0159 -1.4947
  484SOL     OW 1581   1.201   3.093   2.618 -0.3778 -0.5507  0.2378
  484SOL    HW1 1582   1.190   3.139   2.701 -0.2445 -1.2499  0.6470
  484SOL    HW2 1583   1.285   3.048   2.626  0.1607  0.2470 -0.6992
  485SOL     OW 1584   1.038   2.889   2.817  0.1321  0.4609  0.1982
  485SOL    HW1 1585   1.016   2.858   2.729  0.4897  0.7679 -0.0006
  485SOL    HW2 1586   1.129   2.915   2.811  0.6149 -0.9169  1.0494
  486SOL     OW 1587   2.331   0.043   2.929  0.7217 -0.0624 -0.3418
  486SOL    HW1 1588   2.299   0.010   3.013 -1.3275 -0.2137 -1.1276
  486SOL    HW2 1589   2.389   0.116   2.953 -1.1803  1.0431  1.2080
  487SOL     OW 1590   1.497   2.812   1.181  0.2685 -0.5842 -0.4261
  487SOL    HW1 1591   1.518   2.857   1.099  1.3232  0.5786  0.4526
  487SOL    HW2 1592   1.575   2.821   1.235 -1.1475  0.6463  1.5685
  488SOL     OW 1593   3.106   0.604   0.274 -0.3950 -0.2854 -0.1791
  488SOL    HW1 1594   3.030   0.652   0.242 -1.4335 -0.8157  1.4227
  488SOL    HW2 1595   3.119   0.634   0.364  1.4764 -0.0177 -0.4814
  489SOL     OW 1596   1.259   0.001   0.862  0.4186  0.8303  0.2356
  489SOL    HW1 1597   1.233   0.038   0.946 -1.5423  1.5616 -0.6315
  489SOL    HW2 1598   1.311   0.070   0.820  0.0499  1.1002  0.2143
  490SOL     OW 1599   3.406   2.249   3.405  0.1038 -0.4831 -0.5539
  490SOL    HW1 1600   3.484   2.244   3.460  0.4597 -0.7368 -1.0794
  490SOL    HW2 1601   3.347   2.183   3.441  0.3524 -0.6744 -0.4998
  491SOL     OW 1602   1.697   2.531   0.010  0.3609 -0.2978 -0.0965
  491SOL    HW1 1603   1.623   2.587  -0.014  0.8790 -0.0698 -1.1740
  491SOL    HW2 1604   1.704   2.541   0.105  2.5168  4.1261 -0.5083
  492SOL     OW 1605   0.460   0.773   3.208  0.3915  0.1178  0.0012
  492SOL    HW1 1606   0.538   0.721   3.192  0.1459 -1.2209  2.5856
  492SOL    HW2 1607   0.426   0.741   3.292 -3.0597  0.4881 -1.0662
  493SOL     OW 1608   1.086   3.052   3.134  0.1947 -0.6358 -0.6602
  493SOL    HW1 1609   1.074   2.957   3.135  1.3756 -0.7996 -0.8255
  493SOL    HW2 1610   1.004   3.086   3.098 -0.6926 -1.5013  0.4433
  494SOL     OW 1611   1.026   2.405   0.096  0.0137  0.0447  0.3539
  494SOL    HW1 1612   1.033   2.310   0.101 -0.8806 -0.0084  0.8360
  494SOL    HW2 1613   1.016   2.434   0.187  1.1117  0.6822  0.2927
  495SOL     OW 1614   0.268   2.788   0.646  0.4718 -0.0985 -0.5335
  495SOL    HW1 1615   0.174   2.785   0.626  0.4513  2.6563 -1.3081
  495SOL    HW2 1616   0.281   2.873   0.688  2.5132 -0.8141  0.4238
  496SOL     OW 1617   2.447   0.659   3.255  0.6208 -0.2412 -0.0130
  496SOL    HW1 1618   2.414   0.744   3.286  1.0849  0.4018 -1.2182
  496SOL    HW2 1619   2.445   0.603   3.333  0.7108  0.9987  0.9155
  497SOL     OW 1620   1.430   1.447   1.641  0.2193  0.0388 -0.1802
  497SOL    HW1 1621   1.338   1.424   1.657  0.2846 -0.0938  0.0143
  497SOL    HW2 1622   1.475   1.419   1.721  0.5119 -0.3826 -0.4895
  498SOL     OW 1623   1.907   0.078   2.972 -0.4837 -0.2371 -0.2986
  498SOL    HW1 1624   1.970   0.071   3.043 -0.9336  1.9355  0.3718
  498SOL    HW2 1625   1.941   0.147   2.915 -0.7420 -1.1167 -1.5672
  499SOL     OW 1626   0.421   2.818   0.334  0.2852 -0.4030 -0.4920
  499SOL    HW1 1627   0.408   2.737   0.285 -0.8453 -0.1781 -0.5981
  499SOL    HW2 1628   0.362   2.811   0.409 -0.4640  0.6523 -0.9436
  500SOL     OW 1629   2.098   2.820   0.183 -0.8655  0.6864 -0.4104
  500SOL    HW1 1630   2.072   2.902   0.140 -0.9303  1.1749  0.5255
  500SOL    HW2 1631   2.054   2.752   0.132 -2.0875  1.3424 -0.2796
  501SOL     OW 1632   0.553   3.382   2.357 -0.0066 -0.2336 -0.0460
  501SOL    HW1 1633   0.613   3.312   2.382  1.0663 -0.1175 -2.0720
  501SOL    HW2 1634   0.467   3.353   2.389  0.4854 -2.2644 -0.4245
  502SOL     OW 1635   0.383   1.617   3.089 -0.7203 -0.0047  0.2002
  502SOL    HW1 1636   0.353   1.657   3.008 -0.4166 -1.7024 -0.8141
  502SOL    HW2 1637   0.308   1.568   3.121 -0.3178 -0.8406 -0.0863
  503SOL     OW 1638   2.641   2.867   1.085  0.9983 -0.4231  0.1437
  503SOL    HW1 1639   2.622   2.961   1.084  0.0934 -0.5965 -0.0884
  503SOL    HW2 1640   2.673   2.850   1.174 -1.4888 -0.3732  1.1180
  504SOL     OW 1641   1.675   3.146   1.430  0.3852 -0.6804 -0.0732
  504SOL    HW1 1642   1.669   3.128   1.337 -0.8318 -0.4242 -0.0666
  504SOL    HW2 1643   1.769   3.156   1.447  0.5245  1.5025 -1.7062
  505SOL     OW 1644   3.453   2.939   1.343 -0.5214  0.7880  0.1100
  505SOL    HW1 1645   3.362   2.932   1.316 -0.4519  2.7363 -0.8081
  505SOL    HW2 1646   3.485   2.849   1.345 -2.5012  0.0419  0.6894
  506SOL     OW 1647   1.406   0.464   2.812 -0.2492 -0.1054 -0.1593
  506SOL    HW1 1648   1.375   0.457   2.902  0.4502  0.2314  0.1132
  506SOL    HW2 1649   1.346   0.527   2.771 -0.1166  0.3102  0.2775
  507SOL     OW 1650   2.361   2.776   1.050  0.1772 -0.6303  0.2399
  507SOL    HW1 1651   2.333   2.693   1.012 -2.3263  0.2347  0.0053
  507SOL    HW2 1652   2.455   2.765   1.066  0.4909 -2.5006 -2.3381
  508SOL     OW 1653   1.931   2.569   3.036  0.3412 -0.0158  0.2684
  508SOL    HW1 1654   1.981   2.641   2.998 -0.8095 -0.3776 -2.1400
  508SOL    HW2 1655   1.877   2.537   2.964 -0.3630 -2.2627  1.6915
  509SOL     OW 1656   0.313   3.254   3.231 -0.4710  0.8997  0.1740
  509SOL    HW1 1657   0.385   3.317   3.222  0.0770  0.0892 -1.3284
  509SOL    HW2 1658   0.339   3.199   3.305  2.0031 -1.2839 -2.1358
  510SOL     OW 1659   0.316   2.543   2.337 -0.5695  0.2949 -0.3843
  510SOL    HW1 1660   0.338   2.611   2.274  0.7375 -0.8150 -1.2013
  510SOL    HW2 1661   0.394   2.487   2.339 -1.6492 -1.2500  0.1288
  511SOL     OW 1662   0.290   2.104   1.437 -0.4018 -0.2973 -0.9385
  511SOL    HW1 1663   0.207   2.056   1.430 -0.5053 -0.3035  0.1793
  511SOL    HW2 1664   0.271   2.175   1.499  0.0648  0.5222 -1.7036
  512SOL     OW 1665   1.005   1.914   1.913  0.3065  0.5535  0.0069
  512SOL    HW1 1666   0.977   1.823   1.904 -1.3572  0.9677  0.5801
  512SOL    HW2 1667   1.065   1.914   1.988  3.5658 -0.6683 -2.3588
  513SOL     OW 1668   3.172   3.074   0.194 -0.2603 -0.2155 -0.1183
  513SOL    HW1 1669   3.203   3.111   0.276  1.7637  0.1886 -0.9910
  513SOL    HW2 1670   3.088   3.117   0.178 -1.1688 -0.9960  2.1462
  514SOL     OW 1671   2.491   2.189   1.208  0.1113 -0.4641  0.7782
  514SOL    HW1 1672   2.500   2.218   1.299  1.3642 -1.2625  0.9388
  514SOL    HW2 1673   2.397   2.175   1.196  0.0074 -1.1481  2.2130
  515SOL     OW 1674   0.387   2.538   1.443  0.0786  0.5449 -0.3551
  515SOL    HW1 1675   0.374   2.529   1.348 -1.4981  2.1632 -0.3462
  515SOL    HW2 1676   0.414   2.629   1.456 -2.2667  1.1485  0.9055
  516SOL     OW 1677   1.067   0.709   3.260 -0.0141 -0.0981 -0.5682
  516SOL    HW1 1678   1.062   0.638   3.196 -0.2429 -0.7438  0.1459
  516SOL    HW2 1679   1.048   0.666   3.344 -0.7056  0.9058 -0.1967
  517SOL     OW 1680   0.369   2.258   0.667  0.2925 -0.0208 -0.3398
  517SOL    HW1 1681   0.309   2.281   0.596 -1.3602  0.2004  1.0557
  517SOL    HW2 1682   0.394   2.168   0.648  0.0885  0.1231 -1.3446
  518SOL     OW 1683   1.818   2.867   3.351 -0.1636  0.0166 -0.4842
  518SOL    HW1 1684   1.829   2.775   3.373 -0.7030  0.1277  0.2891
  518SOL    HW2 1685   1.744   2.896   3.405  2.1524  1.7822  1.9749
  519SOL     OW 1686   3.120   2.836   0.365  0.1249 -0.2572  0.1640
  519SOL    HW1 1687   3.137   2.912   0.310  0.0578  0.0436  0.5560
  519SOL    HW2 1688   3.025   2.822   0.357  0.1672 -0.4201 -0.0615
  520SOL     OW 1689   2.249   2.452   0.160 -0.1878 -0.5257 -0.3633
  520SOL    HW1 1690   2.170   2.505   0.159 -1.2492 -2.0329 -0.9691
  520SOL    HW2 1691   2.259   2.425   0.251 -0.2367 -0.1531 -0.2463
  521SOL     OW 1692   1.739   1.007   2.357 -0.4059  0.3671  0.4216
  521SOL    HW1 1693   1.721   0.971   2.444 -2.1025  0.3964  0.1098
  521SOL    HW2 1694   1.697   0.946   2.297  1.3188 -0.0250 -0.4602
  522SOL     OW 1695   2.545   0.869   0.593  0.3426  0.0440 -0.9901
  522SOL    HW1 1696   2.465   0.831   0.559  0.2742 -1.0304  0.2866
  522SOL    HW2 1697   2.546   0.845   0.686  2.0253  0.2080 -0.9218
  523SOL     OW 1698   3.198   1.549   1.917  0.5354 -0.1423 -0.0290
  523SOL    HW1 1699   3.269   1.490   1.939  0.3904 -0.2022  0.2848
  523SOL    HW2 1700   3.121   1.493   1.910  0.8219 -0.3505 -2.1408
  524SOL     OW 1701   2.198   1.003  -0.007  0.3654 -0.1355  0.4340
  524SOL    HW1 1702   2.188   1.087   0.038 -0.7576  0.2161 -0.4328
  524SOL    HW2 1703   2.151   0.941   0.048  0.3701 -0.0090  0.5812
  525SOL     OW 1704   2.235   2.155   0.997 -0.3545  0.1711 -0.1199
  525SOL    HW1 1705   2.306   2.133   0.938  0.5081  1.2405  0.4930
  525SOL    HW2 1706   2.225   2.077   1.052 -2.1715 -1.4644 -2.5187
  526SOL     OW 1707   3.336   2.230   1.014 -0.0745 -0.2788  0.3735
  526SOL    HW1 1708   3.372   2.144   1.035  2.0057 -0.6509 -3.7771
  526SOL    HW2 1709   3.406   2.291   1.037  0.8856 -0.3883 -1.9906
  527SOL     OW 1710   2.728   1.293   1.066  0.4590 -0.2500 -0.5627
  527SOL    HW1 1711   2.715   1.324   0.976  0.0463  0.0905 -0.3912
  527SOL    HW2 1712   2.730   1.373   1.119  1.2467 -0.4110 -0.3268
  528SOL     OW 1713   0.068   3.465   0.296  0.4522 -0.2738 -0.1982
  528SOL    HW1 1714   0.092   3.554   0.324 -3.0344  0.2767  1.5152
  528SOL    HW2 1715   0.010   3.478   0.221  0.0089 -1.1306 -0.0106
  529SOL     OW 1716   1.084   1.312   0.036 -0.5546  0.0632 -0.3806
  529SOL    HW1 1717   1.021   1.365  -0.013 -1.1263 -2.3296 -2.4200
  529SOL    HW2 1718   1.030   1.261   0.097 -0.0772  1.1322  1.0103
  530SOL     OW 1719   1.177   0.553   0.984 -0.0709  0.2013 -0.0436
  530SOL    HW1 1720   1.272   0.553   0.992 -0.1072  2.3444  0.8137
  530SOL    HW2 1721   1.160   0.593   0.899 -0.2314  0.3030  0.0359
  531SOL     OW 1722   3.051   3.074   2.361  0.1317  0.9600 -0.3120
  531SOL    HW1 1723   3.133   3.113   2.330  1.8734 -1.8149  0.5021
  531SOL    HW2 1724   3.047   3.098   2.454  2.6299 -2.6764  0.9356
  532SOL     OW 1725   0.034   1.779   1.210 -0.3769 -0.3088 -0.3359
  532SOL    HW1 1726   0.120   1.797   1.248 -0.9812 -2.2436  2.2787
  532SOL    HW2 1727   0.049   1.709   1.148  0.2568  1.1794 -1.9438
  533SOL     OW 1728   1.745   3.248   2.371 -0.3483 -0.3059  0.5025
  533SOL    HW1 1729   1.740   3.313   2.441  1.5759  1.2436 -0.6880
  533SOL    HW2 1730   1.654   3.226   2.352 -0.9933  0.9688  1.9160
  534SOL     OW 1731   1.776   1.912   1.318 -0.4895  0.5576 -0.1265
  534SOL    HW1 1732   1.778   1.826   1.275  0.9605  0.7986 -0.6130
  534SOL    HW2 1733   1.798   1.894   1.409 -0.4580  0.3753 -0.1691
  535SOL     OW 1734   2.933   0.773   0.185 -0.3978  0.3724  0.6698
  535SOL    HW1 1735   2.938   0.839   0.254 -0.9050  1.9764 -0.7723
  535SOL    HW2 1736   2.839   0.766   0.166 -0.3175 -0.5466  0.5819
  536SOL     OW 1737   0.989   0.976   3.267  0.0555 -0.0747 -0.0999
  536SOL    HW1 1738   0.904   0.964   3.310 -1.8594  0.2373 -3.4716
  536SOL    HW2 1739   1.021   0.887   3.253  0.5916 -0.1865  1.6071
  537SOL     OW 1740   2.407   3.033   2.911  0.1516  0.4499  0.3165
  537SOL    HW1 1741   2.316   3.025   2.881  0.5400  0.0143 -0.8144
  537SOL    HW2 1742   2.401   3.078   2.995 -1.1363  0.1399  0.4147
  538SOL     OW 1743   0.331   1.112   1.206  0.1868 -0.4258  0.4717
  538SOL    HW1 1744   0.404   1.126   1.267  0.6382 -1.4147  0.1786
  538SOL    HW2 1745   0.267   1.063   1.257  0.5001 -1.1199  0.2131
  539SOL     OW 1746   2.185   3.464   0.377 -0.2789 -0.5318  0.0377
  539SOL    HW1 1747   2.140   3.402   0.434  1.0764  0.4817  2.3398
  539SOL    HW2 1748   2.115   3.500   0.322 -1.4650 -2.3330  0.2697
  540SOL     OW 1749   1.329   1.239   1.425 -0.1507 -0.1500  0.0540
  540SOL    HW1 1750   1.270   1.218   1.497 -0.0554 -0.1408  0.1343
  540SOL    HW2 1751   1.398   1.292   1.465  0.4007 -0.9100  0.1334
  541SOL     OW 1752   2.929   2.408   1.735  0.1416  0.2935 -0.1917
  541SOL    HW1 1753   3.017   2.441   1.749  0.1645 -0.1064  0.6644
  541SOL    HW2 1754   2.913   2.422   1.642  1.9458 -1.5904 -0.8621
  542SOL     OW 1755   0.298   0.673   1.610  0.7185 -0.1683  0.1597
  542SOL    HW1 1756   0.364   0.682   1.678 -0.1162  0.0089  0.9701
  542SOL    HW2 1757   0.312   0.586   1.573  1.2926 -0.1892  0.4256
  543SOL     OW 1758   1.560   1.078   0.809 -0.2250 -0.7207 -0.4630
  543SOL    HW1 1759   1.627   1.120   0.864  1.3837 -1.3160 -1.8941
  543SOL    HW2 1760   1.480   1.127   0.829  0.5104 -0.2215  1.5812
  544SOL     OW 1761   2.534   3.313   2.539  0.1612  0.0797 -0.4927
  544SOL    HW1 1762   2.597   3.253   2.500  0.6329  0.0161  0.3517
  544SOL    HW2 1763   2.571   3.400   2.523  1.3210 -0.0147  1.3990
  545SOL     OW 1764   1.054   0.367   0.713 -0.2722  0.5172  0.4628
  545SOL    HW1 1765   0.970   0.351   0.756 -0.1774 -1.3997  0.0418
  545SOL    HW2 1766   1.033   0.381   0.621 -0.0623 -3.3102 -0.3604
  546SOL     OW 1767   3.002   0.636   1.531  0.1418  0.2642  0.5841
  546SOL    HW1 1768   3.033   0.548   1.552 -1.2228 -0.2889  0.3616
  546SOL    HW2 1769   3.048   0.660   1.451  0.8806 -0.0431  0.9105
  547SOL     OW 1770   2.722   0.789   3.432 -0.5810  0.7123 -0.3962
  547SOL    HW1 1771   2.638   0.806   3.390 -0.9999  0.4578  0.3248
  547SOL    HW2 1772   2.700   0.755   3.519  0.2482 -1.0968 -0.8394
  548SOL     OW 1773   2.572   0.243   1.838  0.2397 -0.1848  0.0200
  548SOL    HW1 1774   2.583   0.193   1.920 -0.4805 -0.6920 -0.1862
  548SOL    HW2 1775   2.560   0.334   1.867 -1.6504 -0.5750  0.5934
  549SOL     OW 1776   0.521   2.507   1.796 -0.3260  0.3442 -0.6396
  549SOL    HW1 1777   0.485   2.457   1.723  0.6415 -0.0035 -0.8935
  549SOL    HW2 1778   0.609   2.533   1.766  0.0726  0.2199  0.3860
  550SOL     OW 1779   1.111   1.870   1.483 -0.3395  0.3959  0.1297
  550SOL    HW1 1780   1.121   1.945   1.541  0.5170  0.3742  0.0287
  550SOL    HW2 1781   1.185   1.813   1.505  0.4865  0.7490 -1.5017
  551SOL     OW 1782   1.718   2.544   0.674 -0.9875  0.0097 -0.2011
  551SOL    HW1 1783   1.710   2.636   0.646 -2.6970 -0.2885 -0.8339
  551SOL    HW2 1784   1.788   2.545   0.739  0.4992  1.3863 -1.7126
  552SOL     OW 1785   1.153   0.442   1.266  0.7169 -0.4297  0.2197
  552SOL    HW1 1786   1.089   0.382   1.227  1.4311 -1.2393  0.2477
  552SOL    HW2 1787   1.105   0.486   1.336 -0.0233 -0.4402 -0.2733
  553SOL     OW 1788   2.973   1.163   2.884 -0.0051  0.3194  0.8140
  553SOL    HW1 1789   2.943   1.227   2.819 -1.9834 -0.6389  0.6977
  553SOL    HW2 1790   3.047   1.119   2.842 -1.5114 -0.5807 -1.0435
  554SOL     OW 1791   0.374   1.063   1.901  0.0472  0.1199 -0.3038
  554SOL    HW1 1792   0.323   1.022   1.832 -2.1328  2.4843 -0.2397
  554SOL    HW2 1793   0.308   1.092   1.965  1.8384 -0.2958  1.8505
  555SOL     OW 1794   1.067   2.075   1.681 -0.6502  0.7441  0.1579
  555SOL    HW1 1795   1.068   2.169   1.701  0.6281  0.9843 -0.8616
  555SOL    HW2 1796   1.071   2.032   1.766  0.8512  1.6480  0.5825
  556SOL     OW 1797   0.897   3.244   0.561 -0.0034 -0.3064  0.2259
  556SOL    HW1 1798   0.909   3.251   0.466  1.8568 -0.1520  0.4444
  556SOL    HW2 1799   0.854   3.159   0.573  1.1952 -1.0733 -0.6735
  557SOL     OW 1800   3.282   1.939   1.255  0.6049  0.0286 -0.0547
  557SOL    HW1 1801   3.342   1.905   1.322 -0.4538  0.3186  1.0853
  557SOL    HW2 1802   3.329   2.012   1.215 -0.2220  2.7355  3.3596
  558SOL     OW 1803   2.172   0.400   2.105  0.7071 -0.1096 -0.0810
  558SOL    HW1 1804   2.083   0.423   2.130  0.6043 -0.9033  0.3308
  558SOL    HW2 1805   2.186   0.444   2.021  0.6532  1.6768  0.8063
  559SOL     OW 1806   2.130   3.356   2.608  0.0748  0.6752  0.4518
  559SOL    HW1 1807   2.072   3.280   2.605  0.5409  0.2841  1.1409
  559SOL    HW2 1808   2.167   3.361   2.519 -1.2882  1.1612 -0.1075
  560SOL     OW 1809   0.982   0.339   1.049  0.1398  0.3280  0.2099
  560SOL    HW1 1810   1.027   0.413   1.008 -1.4196  1.5338  0.5628
  560SOL    HW2 1811   0.914   0.314   0.986  1.7815 -2.0914 -0.7485
  561SOL     OW 1812   1.900   1.721   1.955 -0.7110 -0.1724 -0.1489
  561SOL    HW1 1813   1.909   1.629   1.979 -0.9539  0.1975  1.5399
  561SOL    HW2 1814   1.961   1.767   2.013  1.7503  0.5461 -3.0397
  562SOL     OW 1815   2.361   0.734   0.250 -0.2943  0.0421  0.3605
  562SOL    HW1 1816   2.271   0.736   0.283 -0.5155  1.2921 -0.2470
  562SOL    HW2 1817   2.412   0.693   0.320 -1.0726  0.8349  1.4228
  563SOL     OW 1818   2.129   1.903   1.138 -0.1848 -0.0651  0.7543
  563SOL    HW1 1819   2.083   1.845   1.077 -0.2910  0.0221  0.7533
  563SOL    HW2 1820   2.093   1.881   1.224  0.4982 -0.7241  0.8854
  564SOL     OW 1821   1.578   0.789   1.636  0.2934  0.1833 -0.0648
  564SOL    HW1 1822   1.485   0.800   1.621  0.7151 -0.2524 -4.0912
  564SOL    HW2 1823   1.594   0.695   1.627  1.0865  0.2256  0.7513
  565SOL     OW 1824   0.374   0.813   2.654  0.3000  0.2653  0.0462
  565SOL    HW1 1825   0.350   0.846   2.740 -0.4370  0.7500 -0.3407
  565SOL    HW2 1826   0.464   0.782   2.664  0.5769  1.2784  0.7161
  566SOL     OW 1827   0.015   1.782   2.680 -0.0652  0.5820  0.3139
  566SOL    HW1 1828   0.006   1.780   2.585  1.1117  3.2879  0.0530
  566SOL    HW2 1829   0.108   1.801   2.695  0.5359 -3.0568  2.1590
  567SOL     OW 1830   1.446   3.416   2.429  0.2094 -0.4285  0.1911
  567SOL    HW1 1831   1.534   3.443   2.454  0.1613  1.8739 -1.7000
  567SOL    HW2 1832   1.441   3.433   2.335 -2.4721  0.3145  0.3587
  568SOL     OW 1833   0.380   0.155   1.130 -0.6711  0.0647  0.0371
  568SOL    HW1 1834   0.436   0.108   1.191 -1.5821  0.9966  1.6767
  568SOL    HW2 1835   0.438   0.215   1.084 -0.2024  0.5816  1.2646
  569SOL     OW 1836   2.823   3.068   2.156  0.0556  0.0995  0.5256
  569SOL    HW1 1837   2.843   3.159   2.133  1.4722  0.3622  2.5563
  569SOL    HW2 1838   2.894   3.041   2.214  0.3655 -2.7721 -1.0126
  570SOL     OW 1839   0.313   0.103   2.380  0.3325 -0.3368 -0.2770
  570SOL    HW1 1840   0.247   0.172   2.371  2.2264  1.3485 -2.8786
  570SOL    HW2 1841   0.265   0.022   2.363 -1.5756  0.5096  0.7635
  571SOL     OW 1842   3.040   0.855   3.130 -0.7860 -0.2151 -0.8958
  571SOL    HW1 1843   3.071   0.934   3.174 -1.2923 -0.3429 -0.2984
  571SOL    HW2 1844   3.113   0.829   3.074 -0.3266  0.2394 -0.5189
  572SOL     OW 1845   3.308   2.684   2.102 -0.3942  0.9035 -0.1473
  572SOL    HW1 1846   3.385   2.689   2.159  0.5036  1.2768 -1.3515
  572SOL    HW2 1847   3.343   2.657   2.017 -1.7836 -0.2519 -0.3942
  573SOL     OW 1848   1.247   2.524   2.152 -0.0343  0.4015 -0.0902
  573SOL    HW1 1849   1.175   2.461   2.153  0.4256 -0.1611 -0.8981
  573SOL    HW2 1850   1.284   2.520   2.239 -2.1541  2.1288  1.0031
  574SOL     OW 1851   3.341   2.097   2.172 -0.2160  0.1284  0.5675
  574SOL    HW1 1852   3.424   2.144   2.183  0.5185 -0.9314 -0.2638
  574SOL    HW2 1853   3.325   2.056   2.257 -1.1271  2.2097  1.4770
  575SOL     OW 1854   0.488   1.712   3.401  0.0196 -0.3749  0.0663
  575SOL    HW1 1855   0.514   1.737   3.313 -0.6961 -0.0769 -0.0670
  575SOL    HW2 1856   0.522   1.782   3.457  0.6969 -0.6937  0.0694
  576SOL     OW 1857   2.228   0.655   1.367  0.2531 -0.2807 -0.5746
  576SOL    HW1 1858   2.211   0.731   1.311  1.1037 -0.2820 -0.8577
  576SOL    HW2 1859   2.305   0.681   1.418  0.7299 -1.0520 -0.8847
  577SOL     OW 1860  -0.003   3.350   1.757 -0.0705  0.5681  0.4327
  577SOL    HW1 1861   0.073   3.371   1.812  2.1112 -0.5913 -1.9231
  577SOL    HW2 1862  -0.008   3.255   1.757 -1.2883  0.6164  0.2014
  578SOL     OW 1863   2.446   0.814   0.003 -0.1941 -0.0953 -0.0839
  578SOL    HW1 1864   2.396   0.894  -0.009 -0.2407 -0.0657  0.2813
  578SOL    HW2 1865   2.431   0.791   0.095  0.5490 -0.0287  0.0551
  579SOL     OW 1866   1.547  -0.021   0.754 -0.2669  0.3884 -0.2056
  579SOL    HW1 1867   1.627   0.021   0.787  0.5014 -0.4560 -0.9713
  579SOL    HW2 1868   1.483   0.051   0.750  0.9399  1.4525 -1.2282
  580SOL     OW 1869   2.075   3.012   3.487  0.0442  0.4570 -0.3907
  580SOL    HW1 1870   2.011   2.953   3.446  1.4655 -2.4643  1.2954
  580SOL    HW2 1871   2.147   3.014   3.424 -0.2497  0.9388 -0.7226
  581SOL     OW 1872   2.968   0.459   2.985  0.1291 -0.3964 -0.6480
  581SOL    HW1 1873   3.003   0.536   3.030  1.3091 -0.8757 -0.7197
  581SOL    HW2 1874   2.960   0.393   3.054 -1.4614 -0.0532 -0.4623
  582SOL     OW 1875  -0.030   1.997   1.071  0.2260 -0.5007  1.0205
  582SOL    HW1 1876   0.010   1.930   1.127 -1.8177 -0.8286  2.2045
  582SOL    HW2 1877   0.042   2.030   1.017  2.1546 -0.7013  3.3078
  583SOL     OW 1878   0.540   0.453   0.586  0.1122 -0.5352 -0.4422
  583SOL    HW1 1879   0.483   0.528   0.568  1.1322  0.5106  0.5172
  583SOL    HW2 1880   0.492   0.402   0.651 -0.1724 -0.1987 -0.3864
  584SOL     OW 1881   2.512   3.470   1.802 -0.6870 -0.0409 -0.1378
  584SOL    HW1 1882   2.454   3.419   1.859 -0.3098 -0.9745 -0.5753
  584SOL    HW2 1883   2.600   3.439   1.824 -0.3892  0.8867  0.0418
  585SOL     OW 1884   1.046   3.130   2.375  0.6439 -0.1837  0.1904
  585SOL    HW1 1885   1.090   3.114   2.459  1.1410 -0.8343 -0.1833
  585SOL    HW2 1886   1.007   3.045   2.353  3.5639 -1.0835 -1.9904
  586SOL     OW 1887   3.356   0.153   2.899  0.7039 -0.5447 -0.4428
  586SOL    HW1 1888   3.389   0.221   2.840  1.6754 -1.2157 -0.6906
  586SOL    HW2 1889   3.264   0.176   2.912  0.8698  0.4960 -0.9709
  587SOL     OW 1890   0.684   2.539   1.520  0.6737  0.4400 -0.3473
  587SOL    HW1 1891   0.687   2.528   1.425 -0.7093  2.1672 -0.6537
  587SOL    HW2 1892   0.726   2.624   1.535 -0.7977  1.0890  0.3378
  588SOL     OW 1893   0.021   3.099   1.766 -0.5982  0.4145  0.2666
  588SOL    HW1 1894  -0.030   3.057   1.835  0.3757  0.6137  1.1343
  588SOL    HW2 1895   0.048   3.027   1.709  0.0134  0.0084  1.0500
  589SOL     OW 1896   0.129   3.238   0.188  0.4508 -0.2862 -0.1435
  589SOL    HW1 1897   0.123   3.327   0.225  2.8370 -0.4960  1.0026
  589SOL    HW2 1898   0.040   3.204   0.193 -0.2077  1.4255  1.0680
  590SOL     OW 1899   0.211   2.289   2.583 -0.5379 -0.0390 -0.2263
  590SOL    HW1 1900   0.139   2.254   2.635 -0.5975 -0.6167 -0.6863
  590SOL    HW2 1901   0.169   2.326   2.505 -0.5773  1.9402  0.6679
  591SOL     OW 1902   0.107   1.664   1.505  0.2568 -0.0506 -0.2237
  591SOL    HW1 1903   0.125   1.677   1.599  1.9903  1.9669 -0.7480
  591SOL    HW2 1904   0.181   1.611   1.475  0.5590  0.6295 -0.7095
  592SOL     OW 1905   1.532   0.111   0.401 -0.0582  0.2518  0.7879
  592SOL    HW1 1906   1.463   0.050   0.376 -0.3102  0.0511  1.9129
  592SOL    HW2 1907   1.593   0.110   0.327 -1.4478  0.7545 -0.4123
  593SOL     OW 1908   0.424   2.881   1.028 -0.3194 -0.4628 -0.2227
  593SOL    HW1 1909   0.498   2.828   0.998 -1.0161 -1.3223 -0.4615
  593SOL    HW2 1910   0.457   2.926   1.106  0.7532 -0.0747 -0.8785
  594SOL     OW 1911   3.249   1.020   1.487 -0.0798  0.6123 -0.5014
  594SOL    HW1 1912   3.221   0.958   1.554  0.4932  1.2482  0.3448
  594SOL    HW2 1913   3.237   0.973   1.405 -0.6622 -0.2315  0.0502
  595SOL     OW 1914   1.089   1.310   0.803  0.0385  0.0333 -0.0130
  595SOL    HW1 1915   0.994   1.309   0.817 -0.0520 -1.9396 -0.5935
  595SOL    HW2 1916   1.123   1.359   0.878 -1.3895  0.2966  0.4947
  596SOL     OW 1917   3.368   2.164   0.204 -0.8537 -0.1833  0.2786
  596SOL    HW1 1918   3.391   2.225   0.274  0.6891 -1.9419  1.4162
  596SOL    HW2 1919   3.277   2.141   0.221 -1.6366  2.0942 -0.4751
  597SOL     OW 1920   2.457   1.740   2.537 -0.0305  0.2581 -0.0675
  597SOL    HW1 1921   2.426   1.674   2.598 -1.0302  0.1630 -0.6609
  597SOL    HW2 1922   2.413   1.821   2.565 -1.4406 -0.0228 -1.3479
  598SOL     OW 1923   2.274   0.711   2.588  0.2143  0.7964  0.1282
  598SOL    HW1 1924   2.345   0.650   2.608  0.1103  0.2844 -1.0020
  598SOL    HW2 1925   2.300   0.793   2.629  0.9183  0.3080  0.6767
  599SOL     OW 1926   2.888   0.463   0.473  0.9329  0.0814 -0.5197
  599SOL    HW1 1927   2.834   0.444   0.397  0.8093  0.6742 -0.5798
  599SOL    HW2 1928   2.840   0.529   0.522  1.2111  0.0127 -0.1433
  600SOL     OW 1929   1.873   2.580   3.316  0.1991  0.1719  0.3121
  600SOL    HW1 1930   1.877   2.530   3.235  1.2736  0.2675  0.2889
  600SOL    HW2 1931   1.798   2.544   3.363  0.1425 -0.5303 -0.2963
  601SOL     OW 1932   2.062   0.730   0.397 -0.5510  0.0906  0.2058
  601SOL    HW1 1933   1.989   0.749   0.456 -1.1153 -2.7758  0.5617
  601SOL    HW2 1934   2.043   0.643   0.362  0.8495  0.7862 -2.6089
  602SOL     OW 1935   2.783   0.338   0.821 -0.4880  0.1897  0.5823
  602SOL    HW1 1936   2.808   0.301   0.736 -0.4875  1.2379  0.1015
  602SOL    HW2 1937   2.704   0.291   0.845  0.1014 -0.8667  0.5249
  603SOL     OW 1938   0.278   1.582   0.220 -1.0355  0.3480 -0.2122
  603SOL    HW1 1939   0.263   1.629   0.138 -3.3692 -1.7305 -1.1022
  603SOL    HW2 1940   0.269   1.489   0.197  2.4463 -0.6183  1.6416
  604SOL     OW 1941   0.910   1.614   1.090 -0.9977 -0.2777 -0.5404
  604SOL    HW1 1942   0.946   1.685   1.144  1.3689 -1.9012  0.1678
  604SOL    HW2 1943   0.872   1.659   1.014  1.5431  1.7252 -0.7691
  605SOL     OW 1944   3.133   0.034   1.086 -0.1580 -0.4065 -0.2758
  605SOL    HW1 1945   3.179   0.116   1.104  0.1520 -0.7823  0.6947
  605SOL    HW2 1946   3.101   0.044   0.996  0.7303  0.3764 -0.5206
  606SOL     OW 1947   2.759   1.579   1.173  0.7377 -0.0129  0.1119
  606SOL    HW1 1948   2.667   1.607   1.173  0.4928 -0.7879  0.2595
  606SOL    HW2 1949   2.782   1.573   1.266  0.8836  0.0124  0.0773
  607SOL     OW 1950   3.279   1.302   1.192  0.3200  0.9554 -0.4644
  607SOL    HW1 1951   3.269   1.379   1.248 -2.4105 -0.6019  1.4491
  607SOL    HW2 1952   3.344   1.248   1.236  1.4172  1.6495 -1.2099
  608SOL     OW 1953   0.864   0.248   1.715 -0.5162 -0.6139 -0.4146
  608SOL    HW1 1954   0.813   0.291   1.784 -1.0962 -0.6831 -0.7917
  608SOL    HW2 1955   0.822   0.163   1.704 -0.1281 -0.7951 -0.5244
  609SOL     OW 1956   3.174   1.385   0.920  0.4269 -0.7549  0.4887
  609SOL    HW1 1957   3.216   1.400   1.004  1.9661 -0.4196 -0.3159
  609SOL    HW2 1958   3.081   1.375   0.942  0.8112 -0.8648  2.2311
  610SOL     OW 1959   1.233   2.990   2.230 -0.0224 -0.2987 -0.4405
  610SOL    HW1 1960   1.182   3.051   2.284  0.4270  0.4735 -0.8599
  610SOL    HW2 1961   1.253   2.917   2.288  0.3575  0.4638  0.4087
  611SOL     OW 1962   2.511   0.155   1.537 -0.3369  0.7372 -0.0769
  611SOL    HW1 1963   2.597   0.112   1.539 -0.0043  1.3759 -0.4034
  611SOL    HW2 1964   2.486   0.160   1.629  0.9488  2.4309  0.2280
  612SOL     OW 1965   1.176   3.152   1.153  0.1853 -0.0591 -0.1995
  612SOL    HW1 1966   1.165   3.074   1.208  0.7791  0.2361  0.3453
  612SOL    HW2 1967   1.258   3.191   1.182 -0.2633  0.9502 -0.2570
  613SOL     OW 1968   0.191   2.033   0.292 -0.4847 -0.2086 -0.0809
  613SOL    HW1 1969   0.157   2.012   0.206 -0.9464 -0.1789  0.0921
  613SOL    HW2 1970   0.114   2.031   0.350 -0.4259  1.2232  0.0712
  614SOL     OW 1971   0.963   1.705   3.276 -0.5277 -0.1071  0.2094
  614SOL    HW1 1972   0.967   1.724   3.182 -2.8015  2.6180  0.5416
  614SOL    HW2 1973   0.872   1.719   3.299 -0.0583 -0.8997  2.8401
  615SOL     OW 1974   2.740   1.004   3.211 -0.1277  0.1378 -0.6436
  615SOL    HW1 1975   2.783   1.053   3.141  0.4571  2.6942  1.3427
  615SOL    HW2 1976   2.799   0.931   3.229  0.0145 -0.2038 -2.3463
  616SOL     OW 1977   1.805   0.613   0.313  0.1559  0.8621  0.5251
  616SOL    HW1 1978   1.827   0.532   0.359  0.0191  1.8457  2.3855
  616SOL    HW2 1979   1.739   0.587   0.249  3.6638 -1.4729 -2.6241
  617SOL     OW 1980   0.794   0.116   2.576 -0.4257 -0.5597  0.1127
  617SOL    HW1 1981   0.824   0.032   2.610  0.4923 -0.7274 -1.0539
  617SOL    HW2 1982   0.804   0.109   2.481 -0.3899  0.8296 -0.0091
  618SOL     OW 1983   2.895   3.332   0.769 -0.8581 -0.5002 -0.1825
  618SOL    HW1 1984   2.867   3.349   0.679  1.6083  0.1176 -0.9295
  618SOL    HW2 1985   2.991   3.324   0.763 -0.4187  1.1899  2.6118
  619SOL     OW 1986   1.194   2.689   3.419  0.0419 -0.1310 -0.0593
  619SOL    HW1 1987   1.209   2.762   3.359 -0.1509  0.7217  0.8969
  619SOL    HW2 1988   1.100   2.692   3.436  0.1281 -0.2237  0.4476
  620SOL     OW 1989   2.015   1.702   0.097 -0.3839 -0.1477 -0.5780
  620SOL    HW1 1990   2.015   1.625   0.040  1.2677 -0.0693 -0.7475
  620SOL    HW2 1991   2.046   1.669   0.181 -1.8257 -0.0654  0.0110
  621SOL     OW 1992   0.684   1.754   2.248  0.5219 -0.1427 -0.5139
  621SOL    HW1 1993   0.683   1.659   2.231  0.8205 -0.1244 -0.6480
  621SOL    HW2 1994   0.660   1.793   2.164  0.3023 -0.1021 -0.4320
  622SOL     OW 1995   0.814   1.233   1.954 -0.7841  0.1759  0.4729
  622SOL    HW1 1996   0.839   1.320   1.986  0.2273  0.3984 -0.8483
  622SOL    HW2 1997   0.719   1.232   1.960 -1.0037  2.1815 -1.3654
  623SOL     OW 1998   0.761   2.287   0.864 -0.1712 -0.4720  0.1988
  623SOL    HW1 1999   0.753   2.196   0.895 -0.3682 -0.3200  0.5990
  623SOL    HW2 2000   0.696   2.335   0.915 -0.3949 -0.1871 -0.3474
  624SOL     OW 2001   0.141   2.715   2.802  0.4044  0.6178 -0.3382
  624SOL    HW1 2002   0.212   2.664   2.762  0.6643  0.2501  0.5701
  624SOL    HW2 2003   0.075   2.649   2.824  0.3122  0.8028 -0.0654
  625SOL     OW 2004   1.908   0.563   1.867 -0.1679 -0.1506  0.6386
  625SOL    HW1 2005   1.891   0.470   1.853 -0.5824 -0.1560  1.1757
  625SOL    HW2 2006   2.001   0.574   1.845  0.0261 -0.7987  1.1110
  626SOL     OW 2007   0.947   3.399   2.568 -0.4996 -0.3545 -0.1505
  626SOL    HW1 2008   1.034   3.408   2.608 -0.8410  1.5779  0.2602
  626SOL    HW2 2009   0.962   3.345   2.491  1.5079  1.6287 -1.2875
  627SOL     OW 2010   1.800   1.326   1.417 -0.1863 -0.0195 -1.2557
  627SOL    HW1 2011   1.725   1.306   1.361 -0.3967 -1.1946 -0.5916
  627SOL    HW2 2012   1.771   1.400   1.469 -0.8164 -0.3227 -1.1601
  628SOL     OW 2013   1.823   3.163   0.811  0.4301 -0.0630  0.3492
  628SOL    HW1 2014   1.770   3.106   0.867 -0.0780  1.3601  1.3876
  628SOL    HW2 2015   1.777   3.164   0.727 -0.9163  0.6992  1.0621
  629SOL     OW 2016   0.666   0.832   0.154 -0.5204  0.0116  0.3071
  629SOL    HW1 2017   0.655   0.753   0.102 -0.2232 -0.3671  0.8081
  629SOL    HW2 2018   0.703   0.801   0.237 -2.4220  0.3892  1.3581
  630SOL     OW 2019   3.289   0.973   2.255  0.9853 -0.4856  0.6020
  630SOL    HW1 2020   3.253   0.885   2.266 -1.2821  0.4430  1.0673
  630SOL    HW2 2021   3.384   0.960   2.257  0.7164 -2.8029  1.4879
  631SOL     OW 2022   2.715   2.473   2.995 -0.5397 -0.1263 -0.5748
  631SOL    HW1 2023   2.654   2.470   3.068  1.4248  0.3401  1.2091
  631SOL    HW2 2024   2.754   2.385   2.993 -0.3621 -0.0429 -0.8692
  632SOL     OW 2025   1.663   0.585   2.012 -0.0491  0.9061  0.3093
  632SOL    HW1 2026   1.665   0.496   2.047  0.0708  0.3268 -1.0970
  632SOL    HW2 2027   1.746   0.593   1.964 -1.1662  0.8434 -1.7190
  633SOL     OW 2028   1.667   2.171   1.189 -0.1842 -0.4157  0.5035
  633SOL    HW1 2029   1.712   2.253   1.207 -2.6661  0.7493  1.8834
  633SOL    HW2 2030   1.689   2.115   1.264 -0.6216 -0.0094  0.9466
  634SOL     OW 2031   1.899   0.120   0.526 -0.6430  0.3513  0.7194
  634SOL    HW1 2032   1.830   0.057   0.541 -0.7961  0.0971 -0.8176
  634SOL    HW2 2033   1.980   0.073   0.546 -0.7563 -0.3537 -0.3924
  635SOL     OW 2034   0.134   1.457   2.783 -0.0868 -0.4871  0.1436
  635SOL    HW1 2035   0.216   1.414   2.805 -0.1192 -0.1590  0.9415
  635SOL    HW2 2036   0.082   1.453   2.863 -0.3945  0.3362  0.0041
  636SOL     OW 2037   1.307   2.502   0.286  0.1631  0.3057 -0.0338
  636SOL    HW1 2038   1.295   2.419   0.239 -1.8455  0.2374  0.4947
  636SOL    HW2 2039   1.284   2.481   0.377 -0.7047  1.4856  0.0356
  637SOL     OW 2040   0.870   2.269   1.327 -0.0295  0.0334  1.0452
  637SOL    HW1 2041   0.923   2.204   1.281 -1.3229  0.0531 -0.5574
  637SOL    HW2 2042   0.853   2.337   1.262 -0.2688  1.0708  2.1459
  638SOL     OW 2043   0.108   0.959   0.851  0.3835  0.6446 -1.0043
  638SOL    HW1 2044   0.188   0.909   0.863 -1.5029 -2.0972  1.9374
  638SOL    HW2 2045   0.131   1.048   0.875  2.6274  0.0270 -0.6886
  639SOL     OW 2046   0.426   3.024   2.302  0.6630 -0.0411 -0.4426
  639SOL    HW1 2047   0.421   3.118   2.282  0.9771  0.0047 -0.3162
  639SOL    HW2 2048   0.519   3.005   2.302  0.6564 -0.1502  0.4557
  640SOL     OW 2049   0.635   2.843   2.924  0.0719  0.2300 -0.6438
  640SOL    HW1 2050   0.588   2.762   2.941  0.0573 -0.1114 -2.1341
  640SOL    HW2 2051   0.573   2.896   2.873  0.4486  0.7562 -0.5606
  641SOL     OW 2052   0.023   0.903   2.020 -0.3520  0.0036  0.1168
  641SOL    HW1 2053  -0.061   0.913   1.975  0.3485 -1.6289 -1.7063
  641SOL    HW2 2054   0.076   0.974   1.986 -0.1558 -0.6083 -0.8975
  642SOL     OW 2055   0.068   2.321   0.819  0.4161 -0.1251  0.3315
  642SOL    HW1 2056   0.094   2.409   0.791  1.3689 -0.0014  1.5274
  642SOL    HW2 2057   0.050   2.330   0.912 -2.8034 -0.5101 -0.1606
  643SOL     OW 2058   0.432   0.080   2.079 -0.0304 -0.1833 -0.4135
  643SOL    HW1 2059   0.383   0.122   2.151 -0.7087 -3.5260  1.2843
  643SOL    HW2 2060   0.364   0.039   2.026  0.4285  2.6121 -3.4407
  644SOL     OW 2061   0.496   1.797   0.226  0.0485 -0.4609  0.1125
  644SOL    HW1 2062   0.441   1.722   0.202 -2.7082  0.2375  3.4054
  644SOL    HW2 2063   0.466   1.868   0.170 -0.2393 -0.8369 -0.2145
  645SOL     OW 2064   3.351   3.213   1.287 -0.2373  0.1599  0.7431
  645SOL    HW1 2065   3.322   3.199   1.197 -2.8929  0.4880  1.4751
  645SOL    HW2 2066   3.425   3.153   1.298 -0.0242 -0.0898 -1.5325
  646SOL     OW 2067   1.809   0.020   1.455  0.2544 -0.0362  0.4190
  646SOL    HW1 2068   1.865  -0.057   1.444  1.9570  1.2200 -0.1529
  646SOL    HW2 2069   1.870   0.092   1.470 -1.2899  1.2163  0.9517
  647SOL     OW 2070   0.070   1.965   1.505  0.3791 -0.0317  0.4974
  647SOL    HW1 2071  -0.011   1.984   1.553  1.0158  1.7259  0.9559
  647SOL    HW2 2072   0.072   1.870   1.500 -1.4930 -0.1470  0.8554
  648SOL     OW 2073   2.949   1.277   3.137  0.1274 -0.6721 -0.0678
  648SOL    HW1 2074   2.885   1.343   3.110 -1.1099 -1.6227  0.4347
  648SOL    HW2 2075   2.979   1.239   3.054  0.1149 -0.1434 -0.3178
  649SOL     OW 2076   2.213   2.229   1.366  0.6290  0.5505 -0.1722
  649SOL    HW1 2077   2.206   2.324   1.361  1.5332  0.8960  3.0666
  649SOL    HW2 2078   2.123   2.199   1.375  0.2753  0.9736 -1.9376
  650SOL     OW 2079   3.303   2.156   3.010  0.1650  0.3371 -0.3960
  650SOL    HW1 2080   3.235   2.104   3.053 -0.2749  1.1926 -0.0265
  650SOL    HW2 2081   3.360   2.092   2.968  0.6179 -0.5343  1.4719
  651SOL     OW 2082   0.510   2.075   1.666  0.5667 -0.1804  0.0845
  651SOL    HW1 2083   0.507   2.017   1.590 -0.5070 -0.2970  0.1935
  651SOL    HW2 2084   0.503   2.163   1.629  1.8366 -0.1238 -0.0571
  652SOL     OW 2085   0.630   0.714   2.705  0.1977  0.2992 -0.1242
  652SOL    HW1 2086   0.675   0.798   2.709 -2.4845  1.8311  0.1281
  652SOL    HW2 2087   0.597   0.699   2.793 -0.5347 -0.3187 -0.4828
  653SOL     OW 2088   1.226   0.250   1.444 -0.2303 -1.0433 -0.2663
  653SOL    HW1 2089   1.210   0.297   1.362  0.2705 -0.9375 -0.3081
  653SOL    HW2 2090   1.317   0.221   1.437 -0.3994 -1.6374 -0.0490
  654SOL     OW 2091   0.626   0.554   1.521  0.2511 -0.0126 -0.5770
  654SOL    HW1 2092   0.613   0.588   1.609  0.8147  1.2397 -0.9477
  654SOL    HW2 2093   0.683   0.618   1.479  0.8051 -1.1070 -1.5412
  655SOL     OW 2094   3.102   0.814   3.468 -0.4353  0.6995 -0.0086
  655SOL    HW1 2095   3.050   0.792   3.545  0.9325  1.0960  1.0724
  655SOL    HW2 2096   3.055   0.774   3.395 -2.4955  1.4431  0.8344
  656SOL     OW 2097   2.086   0.591   2.873 -0.0945  0.1884 -0.5778
  656SOL    HW1 2098   2.168   0.636   2.891  0.1457 -0.1753 -0.7620
  656SOL    HW2 2099   2.028   0.659   2.839  0.4456  0.2535 -1.3832
  657SOL     OW 2100   0.523   2.385   2.045  0.2472 -0.0609  0.7597
  657SOL    HW1 2101   0.512   2.431   1.962 -0.7279  0.5413  1.2058
  657SOL    HW2 2102   0.489   2.297   2.028  0.5836 -0.1227  0.3721
  658SOL     OW 2103   3.084   0.246   3.423 -0.0176  0.1457  0.4308
  658SOL    HW1 2104   3.125   0.333   3.432 -0.6943  0.4040  1.1490
  658SOL    HW2 2105   3.126   0.193   3.491 -0.0529  0.0944  0.4120
  659SOL     OW 2106   0.540   2.334   2.715  0.1160  0.3130 -0.1377
  659SOL    HW1 2107   0.497   2.301   2.794  0.9470  0.2205  0.2914
  659SOL    HW2 2108   0.495   2.289   2.643 -0.4160  0.1311  0.2999
  660SOL     OW 2109   1.061   1.973   0.501 -0.0419  0.2550  0.2517
  660SOL    HW1 2110   1.140   2.026   0.507 -0.4318  0.8018  0.6881
  660SOL    HW2 2111   0.990   2.037   0.493 -0.3575 -0.2415 -1.1772
  661SOL     OW 2112   2.065   1.858   2.125 -0.1529 -0.5127 -0.3154
  661SOL    HW1 2113   2.144   1.821   2.164 -0.5290  1.1563  2.2452
  661SOL    HW2 2114   2.095   1.938   2.082 -0.5029  0.5878  1.4057
  662SOL     OW 2115   0.716   0.423   0.401 -0.6428  0.3603 -0.7030
  662SOL    HW1 2116   0.649   0.430   0.469 -0.9594 -1.2157 -0.8191
  662SOL    HW2 2117   0.716   0.331   0.376  0.9126  0.5118 -1.3933
  663SOL     OW 2118   0.871   1.456   2.541 -0.1748  0.6846 -0.3205
  663SOL    HW1 2119   0.858   1.480   2.633  2.8488  2.4021 -0.2106
  663SOL    HW2 2120   0.832   1.369   2.534  0.4396 -0.0042  2.8969
  664SOL     OW 2121   2.199   2.412   0.852 -0.3035 -0.5978  0.4324
  664SOL    HW1 2122   2.287   2.382   0.876 -0.2869 -1.0349 -0.1335
  664SOL    HW2 2123   2.148   2.331   0.847 -1.9340 -0.1307  5.1721
  665SOL     OW 2124   0.718   0.365   3.393 -0.1546 -0.1239 -0.0771
  665SOL    HW1 2125   0.783   0.350   3.324 -0.9851 -0.0621 -0.8962
  665SOL    HW2 2126   0.635   0.334   3.355 -0.4996 -0.8671  1.2014
  666SOL     OW 2127   2.743   3.194   0.075  0.0756 -0.4255 -0.0301
  666SOL    HW1 2128   2.655   3.158   0.091 -0.2232  0.2213 -0.1653
  666SOL    HW2 2129   2.726   3.282   0.040  0.7871  0.2529  1.2471
  667SOL     OW 2130   2.376   1.120   2.496 -0.2548  0.4716  0.0682
  667SOL    HW1 2131   2.444   1.156   2.554  0.1878 -0.6129  0.2426
  667SOL    HW2 2132   2.308   1.089   2.556 -1.1659  1.9840 -0.1189
  668SOL     OW 2133   0.109   0.836   0.585  0.1858  0.4011 -0.9785
  668SOL    HW1 2134   0.104   0.900   0.656  2.5880  2.2044 -2.2685
  668SOL    HW2 2135   0.018   0.810   0.570 -0.9623  3.5433 -0.3483
  669SOL     OW 2136   2.682   2.892  -0.000  0.0178 -0.2097  0.2457
  669SOL    HW1 2137   2.590   2.908   0.021  0.4326 -0.4754  2.4530
  669SOL    HW2 2138   2.731   2.934   0.071  1.6520  0.2793 -1.0835
  670SOL     OW 2139   0.060   1.605   2.448 -0.0458  0.8010  0.4805
  670SOL    HW1 2140  -0.011   1.563   2.400 -1.0661  1.6392  1.2399
  670SOL    HW2 2141   0.102   1.533   2.496  0.4647  0.0947 -0.9702
  671SOL     OW 2142   0.246   3.143   3.470 -0.4916  0.3920  0.4944
  671SOL    HW1 2143   0.181   3.073   3.470 -0.7800  0.6390  1.2740
  671SOL    HW2 2144   0.237   3.183   3.557 -1.9032  2.8419 -0.6865
  672SOL     OW 2145   1.423   0.605   1.879 -0.1359 -0.7366 -0.2408
  672SOL    HW1 2146   1.508   0.616   1.921  0.1878  0.9634 -1.2105
  672SOL    HW2 2147   1.439   0.545   1.806  1.1087  1.9732 -2.4179
  673SOL     OW 2148   2.426   2.122   1.515 -0.3379 -0.6037  0.2978
  673SOL    HW1 2149   2.476   2.198   1.545 -0.8347  0.2188 -0.8866
  673SOL    HW2 2150   2.341   2.158   1.489 -0.7622 -1.6471  0.1863
  674SOL     OW 2151   3.269   3.464   2.124 -0.2655  0.2497  0.0384
  674SOL    HW1 2152   3.218   3.515   2.062 -1.9208 -0.8455  0.4536
  674SOL    HW2 2153   3.282   3.379   2.082 -1.4443 -0.5197  1.1698
  675SOL     OW 2154   1.486   2.008   1.073  0.0333  0.0942  0.0326
  675SOL    HW1 2155   1.442   2.041   1.152  0.7230  0.8499  0.1037
  675SOL    HW2 2156   1.570   2.053   1.071  1.3035 -2.0826  0.4594
  676SOL     OW 2157   2.912   0.731   2.116  0.2214  0.6307 -0.1805
  676SOL    HW1 2158   2.834   0.784   2.132 -2.0370 -1.6162 -2.7527
  676SOL    HW2 2159   2.944   0.709   2.203 -3.0926  0.1838  1.0696
  677SOL     OW 2160   3.125   1.098   1.066  0.2282 -0.1766  0.4563
  677SOL    HW1 2161   3.034   1.090   1.037  0.6963  0.1636 -1.1745
  677SOL    HW2 2162   3.143   1.192   1.066  1.0500 -0.3140 -0.7996
  678SOL     OW 2163   0.717   2.506   2.784  0.2692  0.1899 -0.4622
  678SOL    HW1 2164   0.665   2.551   2.851  0.7355  0.1507 -0.0698
  678SOL    HW2 2165   0.652   2.461   2.730 -0.2401  1.5682 -1.0626
  679SOL     OW 2166   0.260   3.266   0.717  0.3275 -0.0966  0.0754
  679SOL    HW1 2167   0.295   3.317   0.790 -1.0610 -0.5103  1.0744
  679SOL    HW2 2168   0.222   3.330   0.657 -0.5934  0.1261  0.8746
  680SOL     OW 2169   0.442   0.620   3.434  0.0293  0.9821  0.0648
  680SOL    HW1 2170   0.391   0.624   3.514 -1.7771  0.9940 -1.0415
  680SOL    HW2 2171   0.527   0.583   3.461 -0.8452  0.1519  1.8104
  681SOL     OW 2172   1.537   0.502   1.643  0.0020  0.9030  0.8672
  681SOL    HW1 2173   1.578   0.416   1.654 -0.0572  1.0603  2.4485
  681SOL    HW2 2174   1.540   0.517   1.548 -2.0602 -1.8859  0.2128
  682SOL     OW 2175   2.942   3.257   0.249 -0.1193  0.1349  0.5739
  682SOL    HW1 2176   2.905   3.335   0.291 -0.9827 -0.2444  0.5430
  682SOL    HW2 2177   2.895   3.250   0.167 -0.9259 -1.1011  1.1136
  683SOL     OW 2178   1.332   2.921   0.040  0.4490  0.0980 -0.0408
  683SOL    HW1 2179   1.307   2.830   0.060 -1.3452  0.0796 -1.9347
  683SOL    HW2 2180   1.250   2.970   0.046  1.0340  1.2185 -0.8336
  684SOL     OW 2181   3.411   3.132   0.093 -0.4130  0.2959  0.1408
  684SOL    HW1 2182   3.331   3.120   0.145 -0.8512  0.9416 -0.3612
  684SOL    HW2 2183   3.379   3.148   0.004  0.2747  0.5298 -0.0669
  685SOL     OW 2184   1.843   0.702   2.601 -0.1199 -0.7710  0.4124
  685SOL    HW1 2185   1.789   0.684   2.525 -0.2664 -1.6524  0.7119
  685SOL    HW2 2186   1.925   0.655   2.584 -0.1769 -1.0257  0.8237
  686SOL     OW 2187   2.932   3.303   2.125  0.2519  0.1967  0.2486
  686SOL    HW1 2188   2.933   3.377   2.186  1.2000 -0.3001  0.8468
  686SOL    HW2 2189   2.879   3.334   2.052 -2.6615  0.1251  2.1578
  687SOL     OW 2190   3.100   3.119   2.012 -0.0992  0.9527 -0.9871
  687SOL    HW1 2191   3.035   3.186   2.032  1.4286  2.8937 -2.1481
  687SOL    HW2 2192   3.066   3.075   1.934 -0.6690  0.9943 -0.7688
  688SOL     OW 2193   2.226   2.873   2.428  0.2315 -0.2773  0.5641
  688SOL    HW1 2194   2.300   2.920   2.467  0.6614 -0.9709  0.6074
  688SOL    HW2 2195   2.264   2.791   2.396 -0.2734 -0.0693 -0.6123
  689SOL     OW 2196   1.500   1.666   0.418 -0.5797  0.5648  0.6771
  689SOL    HW1 2197   1.566   1.657   0.487  1.3313  0.8831 -0.9997
  689SOL    HW2 2198   1.514   1.590   0.361 -0.9767  1.1667 -0.2555
  690SOL     OW 2199   3.313   0.946   1.202  0.2794  0.2556  0.2521
  690SOL    HW1 2200   3.251   1.001   1.154 -0.1548 -0.0139  0.4998
  690SOL    HW2 2201   3.372   0.912   1.136 -0.6860 -0.6143 -0.2006
  691SOL     OW 2202   1.474   2.855   1.489 -0.3070 -0.0698  0.2648
  691SOL    HW1 2203   1.430   2.940   1.486  0.1786  0.1549 -1.0303
  691SOL    HW2 2204   1.468   2.822   1.399  1.3855 -0.4245  0.2519
  692SOL     OW 2205   3.152   0.450   1.804 -0.6428 -0.4364 -0.5622
  692SOL    HW1 2206   3.116   0.414   1.885 -2.0085  0.0693 -0.9165
  692SOL    HW2 2207   3.083   0.436   1.739 -1.1300  2.4691 -0.7966
  693SOL     OW 2208   3.173   0.999   2.785 -0.0055  0.5956  0.2518
  693SOL    HW1 2209   3.099   0.939   2.796  0.8349 -0.3142  1.0870
  693SOL    HW2 2210   3.240   0.966   2.844  1.1805  1.2441 -0.6843
  694SOL     OW 2211   2.104   0.283   0.875  0.6188 -0.3283  0.3670
  694SOL    HW1 2212   2.036   0.267   0.941 -0.4371  1.1683 -0.2750
  694SOL    HW2 2213   2.182   0.305   0.925  0.2740 -0.8164  1.1285
  695SOL     OW 2214   1.535   3.382   0.266  0.1995 -0.4050  0.3454
  695SOL    HW1 2215   1.458   3.341   0.227 -0.6986  1.2667  0.2923
  695SOL    HW2 2216   1.607   3.356   0.209 -0.5143 -0.9539 -0.3372
  696SOL     OW 2217   0.948   0.973   2.417 -0.2582 -0.0027 -0.4208
  696SOL    HW1 2218   0.940   1.064   2.446  0.1361 -0.0734 -0.0802
  696SOL    HW2 2219   1.027   0.941   2.460 -1.4870 -1.1361  1.1675
  697SOL     OW 2220   2.480   1.387   0.319 -0.3939  0.3920  0.6539
  697SOL    HW1 2221   2.507   1.437   0.242  0.0006 -1.2506 -0.3125
  697SOL    HW2 2222   2.559   1.383   0.373  0.2196 -1.0392 -0.3110
  698SOL     OW 2223   0.146   1.246   2.307  0.3242  0.0677  0.2930
  698SOL    HW1 2224   0.071   1.225   2.363 -0.0839 -1.3073 -0.7165
  698SOL    HW2 2225   0.192   1.163   2.297  1.9415  0.8587  0.7859
  699SOL     OW 2226   0.143   1.065   0.202 -0.5864 -0.6215  0.1444
  699SOL    HW1 2227   0.140   1.127   0.274 -1.7868  1.3311 -1.4955
  699SOL    HW2 2228   0.236   1.052   0.185 -0.2815  1.5292 -0.0763
  700SOL     OW 2229   3.163   0.386   2.767  0.1589  0.2158  0.0544
  700SOL    HW1 2230   3.098   0.332   2.722 -0.1203  1.2983 -0.8756
  700SOL    HW2 2231   3.138   0.382   2.859  0.1854 -1.2776  0.0309
  701SOL     OW 2232   0.128   2.303   2.088  0.3720 -0.0525 -0.4085
  701SOL    HW1 2233   0.093   2.253   2.014 -0.9974  2.1791 -1.4193
  701SOL    HW2 2234   0.133   2.393   2.055  1.4105  0.7318  1.6891
  702SOL     OW 2235   0.078   1.987   3.358  0.0227 -0.3713  0.0021
  702SOL    HW1 2236   0.136   2.062   3.347  0.1794 -0.3236  1.1053
  702SOL    HW2 2237   0.045   1.994   3.447 -1.4011 -0.6131 -0.4654
  703SOL     OW 2238   2.485   2.028   0.510 -0.0954 -1.1323  0.7738
  703SOL    HW1 2239   2.444   1.977   0.441  1.5564  0.3739 -1.4522
  703SOL    HW2 2240   2.439   2.002   0.590 -1.2400 -3.8849 -0.6534
  704SOL     OW 2241   1.347   1.648   0.799  0.4785 -0.6365  0.0199
  704SOL    HW1 2242   1.307   1.578   0.749  0.4436  0.1481 -1.0856
  704SOL    HW2 2243   1.326   1.728   0.750  0.3759  0.1714  1.3212
  705SOL     OW 2244   1.892   3.368   3.256  0.5264 -0.3915 -0.4490
  705SOL    HW1 2245   1.971   3.316   3.268 -0.3306 -1.1212  3.0455
  705SOL    HW2 2246   1.821   3.304   3.259 -0.3888  0.6452  0.8302
  706SOL     OW 2247   0.985   0.408   2.411 -0.3423  0.4431 -0.2715
  706SOL    HW1 2248   0.969   0.496   2.379  1.9357  0.5504 -1.2963
  706SOL    HW2 2249   1.080   0.401   2.416 -0.4292 -2.1356 -0.7560
  707SOL     OW 2250   0.941   1.190   2.597 -0.8103  0.7475  0.0953
  707SOL    HW1 2251   1.026   1.172   2.638  0.0383  1.1374 -1.4441
  707SOL    HW2 2252   0.899   1.251   2.657  0.6778  1.8255  0.0977
  708SOL     OW 2253   0.966   2.688   0.046  0.6906  0.3134  0.6928
  708SOL    HW1 2254   0.943   2.595   0.046 -0.3089  0.5221 -0.6947
  708SOL    HW2 2255   0.905   2.728   0.109  0.5000  0.1597  0.6068
  709SOL     OW 2256   0.718   0.683   1.296  0.0197 -0.4732  0.1543
  709SOL    HW1 2257   0.632   0.724   1.299 -0.8175 -2.1135 -0.4662
  709SOL    HW2 2258   0.779   0.756   1.282 -1.2729  0.6819  0.3508
  710SOL     OW 2259   0.248   1.457   2.180  1.1710 -0.4345 -0.1967
  710SOL    HW1 2260   0.205   1.402   2.247  2.2202 -2.1938 -0.8869
  710SOL    HW2 2261   0.222   1.418   2.097  2.4823 -0.3104 -0.6892
  711SOL     OW 2262   0.223   0.102   0.869 -0.1829  0.0110 -0.5368
  711SOL    HW1 2263   0.295   0.044   0.893 -0.5004 -0.6613 -1.1525
  711SOL    HW2 2264   0.144   0.052   0.890 -0.5460  1.4904  1.9921
  712SOL     OW 2265   3.277   3.433   2.562  0.4433 -0.0727  0.2756
  712SOL    HW1 2266   3.358   3.400   2.601 -0.1341 -1.2649  0.5220
  712SOL    HW2 2267   3.304   3.507   2.509  1.5217  0.3730  1.3981
  713SOL     OW 2268   0.036   3.447   2.479  0.6254  0.0605 -0.0982
  713SOL    HW1 2269   0.058   3.358   2.451 -2.7841 -1.0884  0.3529
  713SOL    HW2 2270   0.019   3.494   2.397 -0.4546 -0.6334 -0.3028
  714SOL     OW 2271   0.982   1.487   2.305 -0.3693 -0.0676  0.4245
  714SOL    HW1 2272   1.044   1.415   2.294  0.0925  0.3084  0.5163
  714SOL    HW2 2273   0.928   1.461   2.379 -0.0589 -0.2207  0.6001
  715SOL     OW 2274   1.075   2.639   0.503  0.2921  0.0146 -1.1173
  715SOL    HW1 2275   1.160   2.636   0.545  0.1023 -0.6955 -0.7717
  715SOL    HW2 2276   1.017   2.677   0.569  0.0047 -1.0550 -0.7285
  716SOL     OW 2277   1.166   1.442   1.028  0.1325 -0.0523  1.0996
  716SOL    HW1 2278   1.113   1.451   1.107 -0.4663  1.2995  0.5793
  716SOL    HW2 2279   1.183   1.532   1.000  1.4965 -0.4881  0.4400
  717SOL     OW 2280   3.310   3.217   0.402 -0.5644  0.2139  0.1136
  717SOL    HW1 2281   3.293   3.311   0.392 -1.1580 -0.0300 -1.5105
  717SOL    HW2 2282   3.392   3.212   0.451 -0.6061  1.5672  0.3560
  718SOL     OW 2283   1.195   0.607   0.724 -0.3696  0.3766  0.0383
  718SOL    HW1 2284   1.162   0.522   0.695 -0.8427  0.3229  0.7042
  718SOL    HW2 2285   1.288   0.605   0.702  0.0745 -1.1254  1.8022
  719SOL     OW 2286   0.529   3.227   1.460 -0.6199  0.6965 -0.4856
  719SOL    HW1 2287   0.498   3.199   1.547 -3.0761 -0.6066 -1.6650
  719SOL    HW2 2288   0.622   3.206   1.460 -0.8911 -0.7784  1.2739
  720SOL     OW 2289   3.081   0.752   2.353 -0.4746  0.4659  0.5051
  720SOL    HW1 2290   3.025   0.829   2.365  0.0960  0.7013  1.9209
  720SOL    HW2 2291   3.086   0.714   2.441  0.3646 -0.4024  0.0853
  721SOL     OW 2292   0.673   3.002   3.143 -0.2576 -0.0467 -0.1457
  721SOL    HW1 2293   0.673   2.944   3.066  0.5070 -2.3780  1.4912
  721SOL    HW2 2294   0.593   2.980   3.189  0.5244 -0.6140  1.0062
  722SOL     OW 2295   0.705   2.019   0.980  0.5559  0.2872  0.1553
  722SOL    HW1 2296   0.650   2.044   1.054  0.6788  1.3232 -0.0814
  722SOL    HW2 2297   0.785   1.985   1.021 -0.0298 -0.7040  0.4951
  723SOL     OW 2298   1.658   2.730   1.861 -0.0052  0.1810 -0.3424
  723SOL    HW1 2299   1.636   2.689   1.944 -0.2597  1.2621  0.1495
  723SOL    HW2 2300   1.612   2.814   1.863 -1.5174 -0.5191 -2.3663
  724SOL     OW 2301   3.391   2.223   1.319  0.1265 -0.3024  0.7573
  724SOL    HW1 2302   3.303   2.231   1.283  0.0051 -2.3165  0.4912
  724SOL    HW2 2303   3.385   2.260   1.407 -0.8178  0.1566  0.5127
  725SOL     OW 2304   0.311   2.320   1.239 -0.5789 -0.4530 -0.3058
  725SOL    HW1 2305   0.360   2.277   1.169 -1.1316  0.1151 -1.0605
  725SOL    HW2 2306   0.330   2.268   1.317 -1.3888 -2.2343 -1.2161
  726SOL     OW 2307   3.096   2.424   0.878 -0.0090  0.2046  0.0249
  726SOL    HW1 2308   3.115   2.350   0.935  1.4799  1.8451  1.7646
  726SOL    HW2 2309   3.149   2.408   0.800  1.8489  0.3777  1.2100
  727SOL     OW 2310   3.238   3.457   1.338 -0.3870  0.1840 -0.7777
  727SOL    HW1 2311   3.222   3.480   1.247 -2.5086 -1.6196 -0.9520
  727SOL    HW2 2312   3.274   3.368   1.335 -0.2670  0.1909  0.1066
  728SOL     OW 2313   2.209   0.394   3.078 -0.2056  0.6348  0.7045
  728SOL    HW1 2314   2.262   0.408   3.156 -0.0652  2.0952  0.3769
  728SOL    HW2 2315   2.192   0.482   3.045 -0.7662  0.0668 -0.5742
  729SOL     OW 2316   3.303   0.273   1.466 -0.6273  0.2050 -0.5347
  729SOL    HW1 2317   3.315   0.193   1.519  2.0432  2.0885  2.0858
  729SOL    HW2 2318   3.217   0.305   1.491 -0.5641 -0.4180  0.5939
  730SOL     OW 2319   0.663   1.668   1.963 -0.0521  0.3951  0.4340
  730SOL    HW1 2320   0.696   1.584   1.995 -1.9154 -0.6506 -0.2336
  730SOL    HW2 2321   0.668   1.660   1.867 -1.4629  0.4627  0.3270
  731SOL     OW 2322   0.118   0.172   1.614  0.3573  0.9238 -0.5991
  731SOL    HW1 2323   0.024   0.176   1.595  0.4367  0.2252 -1.1852
  731SOL    HW2 2324   0.160   0.207   1.536  0.5673  2.3427  0.1172
  732SOL     OW 2325   0.424   1.395   1.161  0.0482  0.4331 -0.4390
  732SOL    HW1 2326   0.428   1.468   1.222  0.8893  0.4414 -0.5002
  732SOL    HW2 2327   0.410   1.318   1.217 -0.4264  0.5872 -0.3427
  733SOL     OW 2328   2.638   0.390   1.100 -0.4121 -0.2034 -0.6489
  733SOL    HW1 2329   2.601   0.436   1.024 -1.3524 -0.2616 -0.2439
  733SOL    HW2 2330   2.576   0.407   1.170 -0.0908 -1.0125 -0.1586
  734SOL     OW 2331   2.128   2.663   2.059  0.4282 -0.0230 -0.3312
  734SOL    HW1 2332   2.129   2.757   2.075  1.2518 -0.1399  0.3564
  734SOL    HW2 2333   2.127   2.655   1.963 -0.3585  0.6748 -0.3915
  735SOL     OW 2334   1.793   2.733   2.628 -0.1328  0.4799 -0.0247
  735SOL    HW1 2335   1.829   2.653   2.589  0.5451  0.6915  0.1407
  735SOL    HW2 2336   1.858   2.800   2.608 -0.9508  1.1087 -0.6088
  736SOL     OW 2337   1.217   1.272   1.943  0.2756  0.3397 -0.0438
  736SOL    HW1 2338   1.167   1.253   1.864 -0.1308 -0.3709  0.3683
  736SOL    HW2 2339   1.288   1.207   1.942 -0.2574 -0.2698  0.6223
  737SOL     OW 2340   1.525   1.414   0.278 -0.2418  0.4582  0.7409
  737SOL    HW1 2341   1.588   1.452   0.216  1.2209  0.3205  2.0894
  737SOL    HW2 2342   1.540   1.319   0.272 -1.5846  0.2672 -0.1940
  738SOL     OW 2343   1.691   2.956   0.997  0.1663 -0.2230 -0.0074
  738SOL    HW1 2344   1.743   2.876   0.989 -0.8970 -1.1506  1.6255
  738SOL    HW2 2345   1.609   2.935   0.953  0.2302  0.3296 -0.4003
  739SOL     OW 2346   3.393   0.324   1.224  0.0431 -0.3267  0.2076
  739SOL    HW1 2347   3.360   0.284   1.305 -0.2833 -0.9465 -0.2290
  739SOL    HW2 2348   3.474   0.277   1.205 -0.5877 -1.1194 -0.5676
  740SOL     OW 2349   0.176   3.066   1.421 -0.5375  0.5304  0.0671
  740SOL    HW1 2350   0.134   3.103   1.498 -0.6499  1.2838 -0.3566
  740SOL    HW2 2351   0.115   2.999   1.390 -0.4920  0.2214  0.6211
  741SOL     OW 2352   1.551   0.311   0.760 -0.2590 -0.3841  0.1776
  741SOL    HW1 2353   1.456   0.318   0.749 -0.3671 -1.9619 -0.1219
  741SOL    HW2 2354   1.585   0.317   0.671 -0.1090 -0.2786  0.2427
  742SOL     OW 2355   1.366   1.080   2.371  0.5943  0.5023  0.1297
  742SOL    HW1 2356   1.329   1.153   2.420 -1.5314  0.6476 -1.5822
  742SOL    HW2 2357   1.423   1.035   2.434 -2.8671 -0.0410  3.1710
  743SOL     OW 2358   1.709   2.828   2.901 -0.6799  1.2844 -0.6191
  743SOL    HW1 2359   1.716   2.767   2.827 -0.5840  0.0826  0.3537
  743SOL    HW2 2360   1.799   2.841   2.930 -0.8166  0.7020  0.0992
  744SOL     OW 2361   0.193   0.898   3.237  0.5157  0.3151  0.0951
  744SOL    HW1 2362   0.171   0.826   3.297 -1.2939  0.8867  0.1843
  744SOL    HW2 2363   0.253   0.953   3.287  2.2752 -1.2935 -0.1189
  745SOL     OW 2364   0.606   0.661   2.174  0.6641 -0.2789  0.1146
  745SOL    HW1 2365   0.654   0.731   2.219 -1.4205  0.2489  1.7004
  745SOL    HW2 2366   0.671   0.619   2.118  1.9878  3.0945 -1.1537
  746SOL     OW 2367   3.145   2.511   3.303 -0.5482 -0.2848  0.0325
  746SOL    HW1 2368   3.100   2.596   3.293  2.2646  1.2392 -0.6425
  746SOL    HW2 2369   3.185   2.516   3.390  0.7944 -0.2926 -0.5718
  747SOL     OW 2370   0.351   1.247   1.585  0.4966 -0.0350 -0.4608
  747SOL    HW1 2371   0.262   1.252   1.549  0.4943 -1.4018 -0.6965
  747SOL    HW2 2372   0.407   1.236   1.508  0.6872 -0.9440 -0.1992
  748SOL     OW 2373   1.315   2.783   2.408 -0.0181  0.0669 -0.5154
  748SOL    HW1 2374   1.335   2.775   2.501 -0.5865  0.0013 -0.3908
  748SOL    HW2 2375   1.368   2.716   2.366  2.5664  2.0449 -0.6216
  749SOL     OW 2376   0.456   0.959   3.482  0.1433  0.3046  0.2750
  749SOL    HW1 2377   0.545   0.966   3.447 -0.1635 -1.1593 -0.8692
  749SOL    HW2 2378   0.458   0.883   3.539  0.2666  1.8465  2.4683
  750SOL     OW 2379   0.157   0.352   3.304  0.2328 -0.3260 -0.2656
  750SOL    HW1 2380   0.232   0.305   3.341  0.6085  1.2354  1.0318
  750SOL    HW2 2381   0.121   0.291   3.239  2.8301 -0.9914 -1.2206
  751SOL     OW 2382   3.421   2.998   2.431 -0.4991 -0.6352  0.2902
  751SOL    HW1 2383   3.370   2.917   2.430 -0.4698 -0.7103 -2.5041
  751SOL    HW2 2384   3.466   2.999   2.347 -1.6242  2.9619 -0.4377
  752SOL     OW 2385   2.167   3.497   3.161 -0.5376 -0.2325  0.0083
  752SOL    HW1 2386   2.095   3.451   3.119 -0.4273 -0.0826 -0.3442
  752SOL    HW2 2387   2.125   3.564   3.215 -0.6893 -0.6040  0.3636
  753SOL     OW 2388   3.070   2.782   2.065  0.3699  0.2766  0.2121
  753SOL    HW1 2389   3.037   2.805   2.152 -0.9435 -0.7123  0.0150
  753SOL    HW2 2390   3.152   2.737   2.082  0.8273  1.3215  0.8424
  754SOL     OW 2391   0.788   1.848   2.777 -0.5693  0.0303 -0.4829
  754SOL    HW1 2392   0.823   1.932   2.805  1.2164 -0.8679  0.1354
  754SOL    HW2 2393   0.736   1.868   2.699 -0.2862  1.7076 -0.2705
  755SOL     OW 2394   1.515   0.782   1.161  0.0456 -0.3471  0.0143
  755SOL    HW1 2395   1.504   0.689   1.180 -1.0945 -0.4490 -1.0342
  755SOL    HW2 2396   1.451   0.801   1.093 -0.0201  1.3066  0.4788
  756SOL     OW 2397   2.323   3.028   3.209 -0.1336 -0.1970 -0.5559
  756SOL    HW1 2398   2.376   3.069   3.277 -0.3439 -0.6835 -0.0912
  756SOL    HW2 2399   2.361   2.941   3.197 -1.4351 -0.9557  0.5339
  757SOL     OW 2400   0.294   3.331   0.989  0.0805 -0.4120 -0.2762
  757SOL    HW1 2401   0.371   3.305   1.040  1.3438  3.4931  0.0922
  757SOL    HW2 2402   0.224   3.338   1.054  0.4055 -0.2749  0.0675
  758SOL     OW 2403   1.470   1.876   2.389  0.7535 -0.0240  0.5412
  758SOL    HW1 2404   1.554   1.917   2.371 -0.4673  2.4120  0.0764
  758SOL    HW2 2405   1.416   1.895   2.312 -1.0380  0.8026  1.9274
  759SOL     OW 2406   0.134   1.324   1.451  0.0243  0.3834 -0.2882
  759SOL    HW1 2407   0.069   1.273   1.404  0.4878  1.6105 -2.4069
  759SOL    HW2 2408   0.097   1.337   1.538 -1.5304 -0.7883 -0.7393
  760SOL     OW 2409   1.252   0.132   1.878 -0.3353 -0.1506  1.3505
  760SOL    HW1 2410   1.214   0.063   1.824 -0.6004  0.6504  0.4868
  760SOL    HW2 2411   1.213   0.213   1.844  1.3687  0.6035  1.0827
  761SOL     OW 2412   1.548   2.141   2.715  0.0619  0.2882 -0.3089
  761SOL    HW1 2413   1.474   2.136   2.775 -0.7744  1.0318 -1.2566
  761SOL    HW2 2414   1.570   2.049   2.696 -0.9581  0.0573 -0.4219
  762SOL     OW 2415   2.510   0.270   2.396 -0.6423 -0.2637  0.8520
  762SOL    HW1 2416   2.507   0.333   2.324 -1.5504 -0.6336  0.5517
  762SOL    HW2 2417   2.425   0.227   2.393 -0.2035 -1.1831  1.3477
  763SOL     OW 2418   3.231   1.334   1.659  0.3019 -0.1487 -0.2077
  763SOL    HW1 2419   3.154   1.392   1.662 -1.4209 -2.2949 -0.2775
  763SOL    HW2 2420   3.261   1.338   1.569 -0.0888  0.2742 -0.3239
  764SOL     OW 2421   1.196   1.701   3.083 -0.3779  0.1037 -0.0817
  764SOL    HW1 2422   1.274   1.669   3.128  0.5232  1.4610 -0.6339
  764SOL    HW2 2423   1.136   1.626   3.082  0.7823 -0.8543  0.6372
  765SOL     OW 2424   3.021   2.700   1.794  0.0435 -0.2364 -0.0132
  765SOL    HW1 2425   3.107   2.697   1.752 -0.6100 -1.1276 -1.3539
  765SOL    HW2 2426   3.040   2.708   1.887  1.5901 -0.9477 -0.2388
  766SOL     OW 2427   3.344   0.399   0.760 -0.6577 -0.1317  0.1560
  766SOL    HW1 2428   3.278   0.428   0.698  0.1262  2.2352  0.3120
  766SOL    HW2 2429   3.297   0.387   0.842 -0.8626  2.3062  0.4684
  767SOL     OW 2430   0.220   0.945   2.836  0.0694  0.1776 -0.6342
  767SOL    HW1 2431   0.146   0.887   2.854 -0.0942  0.6322  0.2069
  767SOL    HW2 2432   0.190   1.031   2.865  1.7966 -0.0418  2.1778
  768SOL     OW 2433   0.669   3.445   0.327 -0.4778 -0.8442 -0.1083
  768SOL    HW1 2434   0.597   3.412   0.273  0.6107 -0.3087 -1.9954
  768SOL    HW2 2435   0.658   3.401   0.411 -1.1876 -3.1785 -1.3375
  769SOL     OW 2436   3.168   2.959   1.570 -0.0963  0.6153  0.1793
  769SOL    HW1 2437   3.103   2.976   1.502 -1.4698  2.2620  1.7742
  769SOL    HW2 2438   3.228   3.034   1.564  1.7689 -0.9088 -1.3012
  770SOL     OW 2439   1.295   0.865   1.447  0.3600  0.0860 -0.0717
  770SOL    HW1 2440   1.297   0.789   1.388 -3.1895 -0.4609  0.2710
  770SOL    HW2 2441   1.293   0.827   1.535  0.5927  0.6498  0.1783
  771SOL     OW 2442   2.595   1.927   1.222  0.5219 -0.2015  0.2357
  771SOL    HW1 2443   2.565   2.017   1.207 -1.2638 -0.9320 -0.9096
  771SOL    HW2 2444   2.532   1.891   1.285  0.5121 -0.9888 -0.2086
  772SOL     OW 2445   1.963   2.221   1.042  0.2503 -0.6165  0.4339
  772SOL    HW1 2446   1.938   2.129   1.036 -1.2808 -0.4975  3.3504
  772SOL    HW2 2447   2.059   2.220   1.036  0.2728 -2.4096  0.6710
  773SOL     OW 2448   1.799   2.464   0.289 -0.7161 -0.0627  0.1661
  773SOL    HW1 2449   1.867   2.498   0.347 -1.2493  0.2524  0.6171
  773SOL    HW2 2450   1.833   2.379   0.260  0.0634  0.2902  0.0303
  774SOL     OW 2451   1.895   1.186   2.886  0.0467 -0.0438  0.0663
  774SOL    HW1 2452   1.843   1.193   2.806  0.3837 -1.5395 -0.3170
  774SOL    HW2 2453   1.859   1.253   2.945 -1.3714 -0.1210 -0.6891
  775SOL     OW 2454   0.159   0.253   0.069  0.3024 -0.5419  0.4292
  775SOL    HW1 2455   0.182   0.265   0.161 -1.2293 -0.6036  0.8386
  775SOL    HW2 2456   0.133   0.339   0.039 -0.1246 -0.7058  0.3225
  776SOL     OW 2457   3.232   0.591   2.199  0.0813 -0.0750  0.1321
  776SOL    HW1 2458   3.306   0.582   2.259  1.7409  0.8073 -1.6862
  776SOL    HW2 2459   3.170   0.648   2.244 -0.1888 -1.9001  2.2476
  777SOL     OW 2460   0.767   2.180   2.378 -0.2043 -0.1887  0.0171
  777SOL    HW1 2461   0.697   2.128   2.337 -0.6858  0.1886  0.3519
  777SOL    HW2 2462   0.847   2.151   2.334 -0.6936  0.1344 -1.1196
  778SOL     OW 2463   1.352   1.192   0.949 -0.5074  0.0497  0.3142
  778SOL    HW1 2464   1.315   1.280   0.941 -0.3325  0.2174  1.2301
  778SOL    HW2 2465   1.328   1.164   1.037  0.5265 -0.3063  0.5033
  779SOL     OW 2466   3.009   2.987   1.788 -0.0617  0.3703 -0.5167
  779SOL    HW1 2467   2.987   2.903   1.828  0.2488  0.5999  0.1548
  779SOL    HW2 2468   3.090   2.971   1.740  0.6219  0.5435  0.5451
  780SOL     OW 2469   2.514   1.827   0.061 -0.7135  0.4681 -0.0686
  780SOL    HW1 2470   2.494   1.829  -0.033  0.6934  1.1215 -0.3867
  780SOL    HW2 2471   2.570   1.903   0.075 -0.0168 -0.2219  1.0934
  781SOL     OW 2472   3.503   2.649   1.390  0.3037 -0.3774  0.3219
  781SOL    HW1 2473   3.532   2.568   1.433  1.7502 -0.3510 -0.5348
  781SOL    HW2 2474   3.431   2.622   1.333  0.4771 -0.9793  0.3774
  782SOL     OW 2475   2.892   2.116   1.326 -0.0780 -0.1963  0.0178
  782SOL    HW1 2476   2.836   2.193   1.333  1.9300  1.2293  1.6912
  782SOL    HW2 2477   2.832   2.042   1.333 -1.7728  1.2439  1.8495
  783SOL     OW 2478   0.071   3.092   0.790  0.1912 -0.1107 -0.6912
  783SOL    HW1 2479   0.095   3.080   0.881  1.0465  0.5569 -0.8125
  783SOL    HW2 2480   0.119   3.171   0.763 -2.1881  1.3483 -0.9444
  784SOL     OW 2481   2.471   1.142   1.127 -0.8568  0.2351  0.1937
  784SOL    HW1 2482   2.412   1.158   1.201 -0.2166 -0.3271  0.8379
  784SOL    HW2 2483   2.550   1.192   1.149 -0.8004  0.3688 -0.2989
  785SOL     OW 2484   2.598   0.946   1.638  0.0463  0.3230 -0.0646
  785SOL    HW1 2485   2.639   1.032   1.626  0.3090  0.1305 -0.5559
  785SOL    HW2 2486   2.603   0.930   1.732  4.1688 -1.1945 -0.3482
  786SOL     OW 2487   3.109   1.811   1.456 -0.4089  0.4810  0.3204
  786SOL    HW1 2488   3.173   1.775   1.518  0.7271  1.4308 -0.2589
  786SOL    HW2 2489   3.163   1.848   1.386 -1.5844  1.8316  0.0914
  787SOL     OW 2490   1.575   1.294   1.263  0.8500 -0.4193  0.1945
  787SOL    HW1 2491   1.480   1.288   1.269  0.6867  0.8410 -0.7335
  787SOL    HW2 2492   1.604   1.203   1.255 -0.3934 -0.7524 -0.9173
  788SOL     OW 2493   2.138   1.361   0.268  0.3997 -0.1459  0.0011
  788SOL    HW1 2494   2.216   1.306   0.275  0.2806 -0.2738  0.3509
  788SOL    HW2 2495   2.108   1.348   0.178  0.0049 -1.1621  0.2683
  789SOL     OW 2496   3.468   0.074   0.022 -0.1670  0.4130 -0.0717
  789SOL    HW1 2497   3.518   0.002  -0.017  1.6181  0.9366  1.1606
  789SOL    HW2 2498   3.527   0.149   0.021 -2.0180  1.9361 -1.3875
  790SOL     OW 2499   2.750   2.758   1.338  0.1071 -0.1746  0.0205
  790SOL    HW1 2500   2.747   2.823   1.408 -2.1376  2.7178 -2.4526
  790SOL    HW2 2501   2.663   2.717   1.340  0.8106 -1.7292  0.2796
  791SOL     OW 2502   3.172   0.193   2.504  0.0967  0.2052  0.1262
  791SOL    HW1 2503   3.158   0.142   2.584 -0.6112  0.7997  0.3947
  791SOL    HW2 2504   3.098   0.254   2.502 -1.5906 -1.6814 -2.4760
  792SOL     OW 2505   0.570   0.135   1.478  0.6100 -1.0393  0.3245
  792SOL    HW1 2506   0.648   0.087   1.508 -0.5858 -1.3035  3.4044
  792SOL    HW2 2507   0.603   0.223   1.457  1.8917 -1.4316  0.5960
  793SOL     OW 2508   3.092   0.584   3.209 -0.7089 -0.4122  0.0853
  793SOL    HW1 2509   3.009   0.624   3.233 -0.3932 -0.2011  0.8348
  793SOL    HW2 2510   3.121   0.538   3.287 -0.3731 -0.9309 -0.3356
  794SOL     OW 2511   1.744   1.001   1.545  0.2356  0.1104 -0.2310
  794SOL    HW1 2512   1.768   1.054   1.621 -0.3650 -1.1338  0.8645
  794SOL    HW2 2513   1.665   0.954   1.572 -0.9548  0.8331 -2.1955
  795SOL     OW 2514   1.690   0.276   2.342 -0.0045 -0.0051  0.2513
  795SOL    HW1 2515   1.674   0.295   2.249 -1.9962 -0.3757  0.4769
  795SOL    HW2 2516   1.785   0.269   2.349  0.1453 -0.8626 -1.9436
  796SOL     OW 2517   2.587   0.463   1.504 -0.4742 -0.5880 -0.4222
  796SOL    HW1 2518   2.591   0.372   1.532 -1.5886 -0.7425 -0.6852
  796SOL    HW2 2519   2.652   0.508   1.558 -0.5197 -1.3876  0.3290
  797SOL     OW 2520   1.826   0.112   2.667  0.1821  0.1905 -0.1990
  797SOL    HW1 2521   1.919   0.094   2.656 -0.1420 -1.1215 -1.0028
  797SOL    HW2 2522   1.820   0.207   2.674  1.3391  0.5229 -2.7143
  798SOL     OW 2523   1.271   2.630   1.405 -0.1213 -0.3880  0.2366
  798SOL    HW1 2524   1.208   2.587   1.462 -1.0105 -0.1610 -0.5491
  798SOL    HW2 2525   1.277   2.720   1.438  1.1510 -0.8633  1.3978
  799SOL     OW 2526   1.535   3.064   2.349 -0.1797  0.0314  0.0131
  799SOL    HW1 2527   1.481   3.078   2.427 -1.9603  0.8876 -1.2895
  799SOL    HW2 2528   1.583   2.984   2.367 -1.1282 -0.2135  1.6805
  800SOL     OW 2529   3.037   3.260   3.346  0.2547 -0.2244  0.5641
  800SOL    HW1 2530   3.112   3.223   3.300 -0.7096  0.2365 -1.5029
  800SOL    HW2 2531   2.963   3.204   3.321 -0.5508  0.8914  0.3746
  801SOL     OW 2532   1.362   1.854   0.632 -0.2197 -0.3102 -0.5850
  801SOL    HW1 2533   1.353   1.937   0.585 -2.7246  0.1430  0.5233
  801SOL    HW2 2534   1.451   1.825   0.613 -0.0964  1.3755 -3.0195
  802SOL     OW 2535   2.632   1.624   2.127  0.1538  0.3657  0.4496
  802SOL    HW1 2536   2.689   1.653   2.198  1.3525  1.7289 -0.9949
  802SOL    HW2 2537   2.682   1.558   2.080  0.5402  1.4540 -0.7318
  803SOL     OW 2538   1.915   1.054   1.073  0.3167 -0.1518  0.6669
  803SOL    HW1 2539   1.861   1.129   1.049  0.3937 -0.4726 -0.6315
  803SOL    HW2 2540   1.855   0.980   1.073  0.6467 -0.4454 -0.3851
  804SOL     OW 2541   2.012   2.556   0.078  0.1664  0.3603  0.5312
  804SOL    HW1 2542   2.039   2.534  -0.011 -0.0305  1.3440  0.2213
  804SOL    HW2 2543   1.927   2.513   0.088  0.5235 -0.3743  0.5190
  805SOL     OW 2544   1.155   2.354   1.730  0.1266  0.1495 -0.3032
  805SOL    HW1 2545   1.182   2.361   1.638  2.8978  1.2017  0.4950
  805SOL    HW2 2546   1.087   2.420   1.740 -0.8011 -0.5304 -1.7448
  806SOL     OW 2547   0.748   2.934   1.348 -0.9501 -0.1085  0.0038
  806SOL    HW1 2548   0.765   2.991   1.273 -1.0954 -0.3624 -0.2263
  806SOL    HW2 2549   0.763   2.989   1.425 -0.8782  0.1763 -0.2138
  807SOL     OW 2550   0.706   1.403   1.307 -0.0572 -0.6373 -0.3227
  807SOL    HW1 2551   0.683   1.492   1.281  0.5688 -0.6686 -0.9931
  807SOL    HW2 2552   0.780   1.413   1.367 -0.7182 -0.6458  0.5230
  808SOL     OW 2553   0.211   3.087   3.057  0.1874 -0.4289  0.6133
  808SOL    HW1 2554   0.241   2.996   3.066  1.2795 -0.2246 -0.6920
  808SOL    HW2 2555   0.243   3.131   3.135  0.8559 -0.8650  0.5903
  809SOL     OW 2556   1.344   0.846   0.969  0.4819  0.0043  0.3287
  809SOL    HW1 2557   1.379   0.926   0.930  0.2498 -0.5922 -1.1696
  809SOL    HW2 2558   1.263   0.829   0.921 -0.0758 -0.5182  1.4101
  810SOL     OW 2559   2.603   1.255   2.631 -0.6481  0.1901 -0.5111
  810SOL    HW1 2560   2.682   1.303   2.659 -0.3778  0.3474 -1.5199
  810SOL    HW2 2561   2.533   1.293   2.684  0.1547 -0.9778  1.4967
  811SOL     OW 2562   2.428   0.736   1.597  0.0617 -0.5845  0.8658
  811SOL    HW1 2563   2.507   0.688   1.576  1.2051  1.7797 -0.6124
  811SOL    HW2 2564   2.459   0.821   1.629 -1.7893  0.8216 -0.7851
  812SOL     OW 2565   2.128   0.077   2.743  0.0948 -0.2255 -0.0239
  812SOL    HW1 2566   2.126  -0.010   2.702 -2.2783 -0.6500  0.8538
  812SOL    HW2 2567   2.148   0.059   2.835  0.0887  0.2165  0.0627
  813SOL     OW 2568   2.802   3.505   0.239 -0.3753 -0.5040  0.4737
  813SOL    HW1 2569   2.835   3.507   0.149 -1.2831  0.9531  0.1458
  813SOL    HW2 2570   2.707   3.507   0.230 -0.4730  0.1325  1.4625
  814SOL     OW 2571   2.215   2.036   1.805  0.0610 -0.3931  0.1894
  814SOL    HW1 2572   2.193   2.111   1.750  0.1578 -0.3845  0.1609
  814SOL    HW2 2573   2.309   2.045   1.821 -0.0962 -0.0086  0.9474
  815SOL     OW 2574   3.182   0.445   1.057 -0.2262  0.3828 -0.0450
  815SOL    HW1 2575   3.258   0.413   1.106 -0.9525  0.4065  1.1449
  815SOL    HW2 2576   3.110   0.439   1.119 -1.0459  1.1125 -0.9035
  816SOL     OW 2577   3.494   2.609   3.185 -0.0667  0.4217  0.6049
  816SOL    HW1 2578   3.507   2.514   3.183 -0.9333  0.2831  1.0231
  816SOL    HW2 2579   3.427   2.625   3.119  0.3368  0.7942  0.2800
  817SOL     OW 2580   1.956   0.314   3.469 -1.0633  0.4865  0.2981
  817SOL    HW1 2581   1.874   0.283   3.507 -1.3116  0.3874 -0.3176
  817SOL    HW2 2582   1.953   0.409   3.481 -2.0011  0.6587 -1.1319
  818SOL     OW 2583   1.902   0.275   1.068 -0.0722 -0.3268  0.0760
  818SOL    HW1 2584   1.959   0.317   1.133  0.4457  0.0774 -0.6288
  818SOL    HW2 2585   1.904   0.182   1.091  0.8193 -0.3074  0.1061
  819SOL     OW 2586   2.220   1.899   0.575 -0.6456 -0.3068  0.2104
  819SOL    HW1 2587   2.199   1.829   0.512  0.1693 -1.7770  1.5021
  819SOL    HW2 2588   2.135   1.936   0.598 -0.9573  0.3799 -1.8354
  820SOL     OW 2589   2.735   1.373   2.052  0.2452 -0.5422  0.2189
  820SOL    HW1 2590   2.667   1.315   2.017  0.5179 -0.9207  0.3029
  820SOL    HW2 2591   2.806   1.368   1.989  0.3919 -0.5434  0.3820
  821SOL     OW 2592   0.009   1.149   3.362  0.1343  0.3959  0.0926
  821SOL    HW1 2593  -0.061   1.085   3.347 -0.3050  0.8368  0.2267
  821SOL    HW2 2594   0.090   1.100   3.346 -0.1510 -0.4768  1.1585
  822SOL     OW 2595   1.606   1.149   0.265 -0.4226  0.3077  0.4997
  822SOL    HW1 2596   1.671   1.080   0.266  1.0323  1.5775 -1.1368
  822SOL    HW2 2597   1.555   1.135   0.345  1.4315 -1.1168  1.4959
  823SOL     OW 2598   2.018   2.726   0.521 -0.4465 -0.1687  0.3640
  823SOL    HW1 2599   2.087   2.758   0.578 -0.7404  4.9626 -1.6760
  823SOL    HW2 2600   2.050   2.641   0.490  3.3657  0.4991  1.9552
  824SOL     OW 2601   0.639   0.330   2.317  0.1062  0.2361 -0.6908
  824SOL    HW1 2602   0.565   0.338   2.377  1.1495  0.5129  0.6051
  824SOL    HW2 2603   0.707   0.385   2.355  1.0857 -0.2439 -1.6944
  825SOL     OW 2604   0.908   3.025   0.216  0.1962  0.6949  0.3686
  825SOL    HW1 2605   0.905   3.116   0.245 -0.9710  1.1624 -1.1141
  825SOL    HW2 2606   0.995   3.015   0.178  0.2621  1.2409  0.3680
  826SOL     OW 2607   0.204   0.694   3.023 -0.3760  0.7754  0.1158
  826SOL    HW1 2608   0.208   0.773   3.077 -0.1781  0.5357  0.4552
  826SOL    HW2 2609   0.252   0.628   3.073  1.0511  0.9203 -0.9957
  827SOL     OW 2610   1.452   2.415   0.690 -0.1939  0.3140  0.1133
  827SOL    HW1 2611   1.524   2.478   0.681 -2.0609  2.1961 -3.6252
  827SOL    HW2 2612   1.493   2.338   0.728  3.4288  1.8263 -0.3201
  828SOL     OW 2613   2.891   0.235   2.416 -0.4132 -0.2567 -0.4511
  828SOL    HW1 2614   2.891   0.202   2.506  0.7200 -2.3310 -1.1478
  828SOL    HW2 2615   2.885   0.330   2.426 -1.0900 -0.4631  1.7784
  829SOL     OW 2616   0.292   1.766   2.414 -0.0742  0.2607 -0.0731
  829SOL    HW1 2617   0.228   1.714   2.365 -2.0486  3.0110 -0.6097
  829SOL    HW2 2618   0.245   1.793   2.493  0.8291  1.3806  0.0994
  830SOL     OW 2619   2.082   3.173   3.218 -0.0272  0.6324 -0.3652
  830SOL    HW1 2620   2.166   3.130   3.235 -0.2128  0.6281  0.5783
  830SOL    HW2 2621   2.041   3.119   3.151 -1.8543 -3.0013  3.2164
  831SOL     OW 2622   1.950   1.708   1.054 -0.1791 -0.5208 -0.3045
  831SOL    HW1 2623   1.879   1.712   0.990 -0.4467 -1.7180 -0.1015
  831SOL    HW2 2624   1.939   1.623   1.097  1.7247 -0.9736 -0.6494
  832SOL     OW 2625   1.679   3.210   0.072  0.4693  0.1839  0.2895
  832SOL    HW1 2626   1.643   3.268   0.005 -0.1357 -0.7318 -0.1989
  832SOL    HW2 2627   1.634   3.127   0.058  0.5450 -0.1113  1.6515
  833SOL     OW 2628   1.631   0.619   0.079  0.6578 -0.1757  0.5578
  833SOL    HW1 2629   1.626   0.528   0.048 -0.8042  0.1519 -0.3017
  833SOL    HW2 2630   1.697   0.660   0.023  1.9293 -0.8906  1.5016
  834SOL     OW 2631   2.317   3.046   1.074  0.6632 -0.3607 -0.7701
  834SOL    HW1 2632   2.270   3.061   0.992 -0.7085  0.1945  0.0763
  834SOL    HW2 2633   2.323   2.951   1.081 -1.1077 -0.4809 -0.5144
  835SOL     OW 2634   2.187   1.044   0.604  0.2496 -0.0011  0.0824
  835SOL    HW1 2635   2.121   1.111   0.590 -0.4290 -1.2440 -4.0412
  835SOL    HW2 2636   2.270   1.092   0.607 -0.4502  1.2290  1.2378
  836SOL     OW 2637   1.476   2.392   1.434 -0.2837 -0.5051  0.1043
  836SOL    HW1 2638   1.458   2.389   1.340 -1.7799  0.1882  0.3441
  836SOL    HW2 2639   1.469   2.484   1.457 -0.1300 -0.6946  0.9412
  837SOL     OW 2640   1.191   2.268   0.795  0.2319  0.5719 -0.2670
  837SOL    HW1 2641   1.280   2.304   0.794  0.3485  0.3064  0.2340
  837SOL    HW2 2642   1.203   2.175   0.776  0.1778  0.3045  0.9456
  838SOL     OW 2643   3.207   0.514   3.487  0.7844 -0.3908  0.5507
  838SOL    HW1 2644   3.209   0.533   3.581  1.3855 -2.2697  0.9613
  838SOL    HW2 2645   3.274   0.571   3.449 -0.4922  1.5009  0.9893
  839SOL     OW 2646   1.386   0.255   2.183  0.4928 -0.6894 -0.3721
  839SOL    HW1 2647   1.291   0.257   2.183  0.4916  1.1236 -0.2663
  839SOL    HW2 2648   1.410   0.250   2.275  0.5016 -1.5378 -0.4197
  840SOL     OW 2649   3.389   1.945   2.851 -0.0425 -0.2842  0.3536
  840SOL    HW1 2650   3.331   1.892   2.904  0.0782 -0.0635  0.7098
  840SOL    HW2 2651   3.436   1.882   2.796 -2.3126 -0.3193 -1.6876
  841SOL     OW 2652   2.568   0.107   0.443  0.1044  0.0310  0.5795
  841SOL    HW1 2653   2.541   0.015   0.450 -2.0076  0.4961 -0.4267
  841SOL    HW2 2654   2.636   0.118   0.509 -0.0411 -2.1019  1.1448
  842SOL     OW 2655   0.752   1.991   1.706 -0.4747  0.0743 -0.1203
  842SOL    HW1 2656   0.804   1.992   1.787  0.2737 -0.7721 -0.5707
  842SOL    HW2 2657   0.679   2.050   1.724  0.2267  0.6871  0.8130
  843SOL     OW 2658   0.880   1.329   1.027 -0.2254 -0.3630 -0.4169
  843SOL    HW1 2659   0.908   1.420   1.022  0.0488 -0.4983 -1.6883
  843SOL    HW2 2660   0.786   1.332   1.012 -0.1932 -0.3081 -0.6031
  844SOL     OW 2661   0.668   0.360   2.955  0.2893 -0.9093  0.6643
  844SOL    HW1 2662   0.589   0.385   2.908  1.0770  4.9857  1.6781
  844SOL    HW2 2663   0.740   0.394   2.900  1.6036 -0.0722  2.7852
  845SOL     OW 2664   0.447   2.152   3.252  0.0621 -0.1891  0.0449
  845SOL    HW1 2665   0.480   2.186   3.334 -1.4241 -0.8617  0.9694
  845SOL    HW2 2666   0.522   2.153   3.193  0.4260  3.4385  0.3533
  846SOL     OW 2667   0.424   1.072   0.444 -0.1226  0.3108  0.7874
  846SOL    HW1 2668   0.434   1.150   0.390  0.5438  0.5572  1.2538
  846SOL    HW2 2669   0.395   1.105   0.529 -1.3551 -0.0906  0.5405
  847SOL     OW 2670   2.103   1.923   2.472  0.1647  0.7304 -0.0828
  847SOL    HW1 2671   2.064   1.880   2.396  1.3247 -1.7505  0.6383
  847SOL    HW2 2672   2.141   2.004   2.436  1.8032 -0.9568 -2.4539
  848SOL     OW 2673   1.965   0.470   1.546 -0.5011  0.3693 -0.0765
  848SOL    HW1 2674   1.912   0.500   1.620  0.2980  1.0548  0.2314
  848SOL    HW2 2675   1.933   0.520   1.471 -1.1627 -0.1675 -0.1654
  849SOL     OW 2676   0.081   2.942   0.021 -0.8704 -0.2654  0.1636
  849SOL    HW1 2677   0.022   3.010   0.053 -0.9813 -0.5707  0.6036
  849SOL    HW2 2678   0.061   2.865   0.074 -0.8816 -0.7042 -0.4614
  850SOL     OW 2679   0.626   3.508   1.194  0.4563 -0.6752  0.1810
  850SOL    HW1 2680   0.638   3.516   1.288  1.9890 -1.8879  0.1213
  850SOL    HW2 2681   0.626   3.414   1.177 -1.6545 -0.5546 -0.8473
  851SOL     OW 2682   2.806   0.209   0.556  0.9030  0.3025  0.2837
  851SOL    HW1 2683   2.856   0.133   0.527  1.0891 -0.7783  3.1237
  851SOL    HW2 2684   2.854   0.284   0.523  0.8191 -0.7303 -2.4441
  852SOL     OW 2685   0.611   2.580   3.281  0.3096 -0.0415  0.3849
  852SOL    HW1 2686   0.578   2.627   3.357 -1.1635 -0.5230  0.0731
  852SOL    HW2 2687   0.623   2.490   3.311 -0.1027 -0.1930  0.1107
  853SOL     OW 2688   0.733   1.370   1.710 -0.1473 -0.3792  0.3225
  853SOL    HW1 2689   0.681   1.290   1.702 -0.0153 -0.3977 -0.4294
  853SOL    HW2 2690   0.822   1.340   1.724  0.0456 -0.3975 -0.8046
  854SOL     OW 2691   1.747   0.058   0.928 -0.0942 -0.1402  0.1360
  854SOL    HW1 2692   1.665   0.105   0.941 -0.3926 -0.5112 -0.3416
  854SOL    HW2 2693   1.778   0.039   1.016 -0.1942  0.5578  0.3270
  855SOL     OW 2694   2.545   3.139   0.275 -0.1415  0.1794  0.5838
  855SOL    HW1 2695   2.557   3.124   0.369  0.3340  0.0171  0.4967
  855SOL    HW2 2696   2.483   3.072   0.248 -0.6627  0.5318  0.8759
  856SOL     OW 2697   1.568   1.215   3.008  0.5970 -0.3518 -0.4474
  856SOL    HW1 2698   1.540   1.275   2.939  0.8812 -0.2637 -0.4881
  856SOL    HW2 2699   1.652   1.251   3.038 -1.0185  1.5727  2.2400
  857SOL     OW 2700   0.528   1.537   0.620  0.7140 -0.2658 -0.1766
  857SOL    HW1 2701   0.529   1.621   0.665 -0.7521 -0.4553  0.2494
  857SOL    HW2 2702   0.436   1.521   0.600  1.0654 -1.3726 -1.0123
  858SOL     OW 2703   1.318   3.260   3.551 -0.3790  0.1547  0.5941
  858SOL    HW1 2704   1.317   3.194   3.481 -0.5587  0.0341  0.7103
  858SOL    HW2 2705   1.281   3.339   3.509 -0.0862  0.2068  0.4317
  859SOL     OW 2706   1.110   3.162   1.507  0.3503 -0.5112  0.4839
  859SOL    HW1 2707   1.197   3.158   1.546  0.2548 -0.5905  0.6927
  859SOL    HW2 2708   1.090   3.255   1.502  1.1880 -0.3705 -1.2479
  860SOL     OW 2709   2.153   1.617   0.318 -0.3591  0.4368  0.2241
  860SOL    HW1 2710   2.224   1.644   0.377  0.5434  0.5349 -0.8806
  860SOL    HW2 2711   2.161   1.522   0.313  0.2860  0.5272 -0.6147
  861SOL     OW 2712   0.218   3.484   1.890 -0.3412  0.2235  0.0683
  861SOL    HW1 2713   0.187   3.574   1.877 -0.6549  0.0040 -0.7843
  861SOL    HW2 2714   0.293   3.477   1.831  0.8382  0.4771  1.4658
  862SOL     OW 2715   1.312   3.234   2.070  0.2370  0.3189  0.2977
  862SOL    HW1 2716   1.310   3.329   2.069  2.5108  0.4168 -1.0483
  862SOL    HW2 2717   1.356   3.211   2.152  0.8490  0.4921  0.0221
  863SOL     OW 2718   0.373   1.375   2.865 -0.2062 -0.3775  0.1231
  863SOL    HW1 2719   0.398   1.294   2.821  0.3274 -0.7525  1.0736
  863SOL    HW2 2720   0.425   1.443   2.821  1.5846 -0.9698  1.1976
  864SOL     OW 2721   0.675   2.313   0.228 -0.1285 -0.6227 -0.0187
  864SOL    HW1 2722   0.631   2.323   0.313  0.6160  2.1159  0.1122
  864SOL    HW2 2723   0.753   2.262   0.247 -0.6412 -1.1837  0.6543
  865SOL     OW 2724   1.056   2.740   2.318 -1.0047  0.1976 -0.5093
  865SOL    HW1 2725   1.132   2.751   2.375 -0.1642  1.6993 -1.8197
  865SOL    HW2 2726   1.059   2.649   2.290 -0.5556 -0.1466  0.6300
  866SOL     OW 2727   1.934   0.856   0.136 -0.2224  0.4245  0.6959
  866SOL    HW1 2728   1.871   0.862   0.207  0.9259  0.2595  1.7520
  866SOL    HW2 2729   2.017   0.880   0.175  0.1413  2.4133 -1.0625
  867SOL     OW 2730   2.017   3.353   2.973 -0.8285  0.3322  0.2728
  867SOL    HW1 2731   1.984   3.275   2.929 -1.1899  0.2242  0.7211
  867SOL    HW2 2732   1.966   3.425   2.937 -0.3542  0.3902 -0.2887
  868SOL     OW 2733   1.385   1.046   2.018  0.3910  0.1461 -0.2472
  868SOL    HW1 2734   1.365   0.990   2.093  0.5954 -0.5757 -0.7245
  868SOL    HW2 2735   1.468   1.011   1.984  0.6441  0.8872 -0.4086
  869SOL     OW 2736   2.340   1.829   1.325  1.0675  0.3640 -0.1997
  869SOL    HW1 2737   2.291   1.747   1.333  1.9616 -0.2552 -0.8987
  869SOL    HW2 2738   2.276   1.897   1.348  0.7484 -0.5889  1.9896
  870SOL     OW 2739   0.287   1.417   1.891 -0.0209 -0.0822  0.0801
  870SOL    HW1 2740   0.262   1.501   1.853 -2.4504  0.4379  2.5129
  870SOL    HW2 2741   0.240   1.352   1.839 -1.2409  0.4090  0.5316
  871SOL     OW 2742   2.906   2.055   0.630 -0.6888 -0.2937 -0.2437
  871SOL    HW1 2743   2.939   2.007   0.706  0.0299 -2.0777 -1.6044
  871SOL    HW2 2744   2.968   2.127   0.619  0.0417 -0.8612  0.0360
  872SOL     OW 2745   0.685   2.613   2.373  0.3398  0.3346 -0.0397
  872SOL    HW1 2746   0.699   2.630   2.280 -1.0699  3.3941  0.2062
  872SOL    HW2 2747   0.664   2.519   2.377  1.1058 -0.0209 -2.6721
  873SOL     OW 2748   1.720  -0.007   2.451  0.5118 -0.1873 -0.1646
  873SOL    HW1 2749   1.723   0.067   2.389  3.3483 -0.8291 -0.9248
  873SOL    HW2 2750   1.769   0.023   2.527  0.3533 -0.7588  0.1695
  874SOL     OW 2751   3.457   0.577   2.436 -0.2976 -0.1157 -0.6859
  874SOL    HW1 2752   3.469   0.670   2.456 -0.2780 -0.0783 -0.8671
  874SOL    HW2 2753   3.545   0.539   2.447 -0.1617  0.0202 -1.2971
  875SOL     OW 2754   0.963   0.896   2.922  0.2033  0.4440 -0.2844
  875SOL    HW1 2755   1.028   0.924   2.858 -0.0754  1.8831  0.0209
  875SOL    HW2 2756   1.010   0.891   3.005  0.1921  0.2514 -0.2887
  876SOL     OW 2757   2.593   0.717   2.461  0.1484 -0.0300  0.2861
  876SOL    HW1 2758   2.577   0.643   2.520  1.0173 -0.8444 -0.4633
  876SOL    HW2 2759   2.608   0.791   2.520  0.9703 -0.8113  1.1058
  877SOL     OW 2760   2.261   2.712   1.511 -0.4467 -0.7641 -0.2256
  877SOL    HW1 2761   2.227   2.629   1.480 -1.1826 -0.0366 -1.4585
  877SOL    HW2 2762   2.211   2.731   1.590  1.5797 -2.7313  1.6750
  878SOL     OW 2763   2.178   2.774   1.251  0.4606 -0.1432  0.3339
  878SOL    HW1 2764   2.231   2.770   1.330  0.6337  0.1687  0.2349
  878SOL    HW2 2765   2.241   2.761   1.180  0.1813 -1.2947  0.2848
  879SOL     OW 2766   2.181   0.192   0.558 -0.1277  0.4488 -0.1980
  879SOL    HW1 2767   2.160   0.174   0.649 -2.3241 -0.3788 -0.8165
  879SOL    HW2 2768   2.216   0.109   0.524  1.4314  0.9688  0.0364
  880SOL     OW 2769   2.812   1.018   2.190 -0.0698 -0.7408  0.2391
  880SOL    HW1 2770   2.741   1.075   2.220 -1.1139 -1.6556 -0.3897
  880SOL    HW2 2771   2.882   1.030   2.254 -0.8739  0.0419  0.9929
  881SOL     OW 2772   0.268   1.117   3.392  0.5224 -0.6644 -0.0999
  881SOL    HW1 2773   0.304   1.182   3.332 -1.4384 -1.0389 -1.7768
  881SOL    HW2 2774   0.346   1.075   3.430  1.9368 -1.0885 -3.1484
  882SOL     OW 2775   0.794   3.164   1.480  0.3900  0.5839 -0.4533
  882SOL    HW1 2776   0.822   3.198   1.565  0.0237  0.6430 -0.3551
  882SOL    HW2 2777   0.872   3.169   1.426  0.6240  0.5582 -0.1236
  883SOL     OW 2778   1.219   3.474   3.109 -0.0904  0.5548 -0.2232
  883SOL    HW1 2779   1.273   3.405   3.150 -0.4465  0.4571  0.0933
  883SOL    HW2 2780   1.136   3.430   3.089 -0.3468  0.9104  0.0507
  884SOL     OW 2781   0.685   2.783   0.627  0.1831  0.8229 -0.1331
  884SOL    HW1 2782   0.747   2.717   0.656  1.7268  2.4013  0.3842
  884SOL    HW2 2783   0.718   2.865   0.665 -1.9586  1.8253 -0.2358
  885SOL     OW 2784   1.713   0.275   2.949 -0.0243 -0.5789 -0.2695
  885SOL    HW1 2785   1.808   0.279   2.943 -0.0348  0.2707 -0.0095
  885SOL    HW2 2786   1.689   0.194   2.904  0.6383  0.4402 -2.5847
  886SOL     OW 2787   2.564   0.899   1.131 -0.3913  0.1524  0.0938
  886SOL    HW1 2788   2.529   0.988   1.126  1.3141  0.9258  0.8992
  886SOL    HW2 2789   2.596   0.891   1.221  2.4420 -0.0339 -0.8225
  887SOL     OW 2790   0.456   1.995   3.525 -0.2346  0.0364 -0.1634
  887SOL    HW1 2791   0.473   2.089   3.526 -0.5603  0.1014  0.9057
  887SOL    HW2 2792   0.381   1.984   3.466  0.2227  0.3669 -0.8042
  888SOL     OW 2793   3.037   0.068   0.843 -0.0730 -0.4766 -0.1413
  888SOL    HW1 2794   3.051   0.116   0.761 -1.9194 -0.0678 -0.2644
  888SOL    HW2 2795   2.975  -0.001   0.820 -1.5161  0.3511  1.1175
  889SOL     OW 2796   2.522   0.754   1.922 -0.2223  0.1170  0.7706
  889SOL    HW1 2797   2.500   0.753   2.015  0.6116 -1.0046  0.9771
  889SOL    HW2 2798   2.611   0.791   1.919 -0.3335  0.3575  0.3960
  890SOL     OW 2799   2.771   3.505   2.748 -0.1782 -0.1013 -0.3085
  890SOL    HW1 2800   2.732   3.436   2.694  0.2543 -0.2103 -0.4793
  890SOL    HW2 2801   2.841   3.462   2.796 -2.8302 -0.9287  3.1836
  891SOL     OW 2802   2.751   2.375   1.356 -0.0949 -0.4925 -0.5722
  891SOL    HW1 2803   2.782   2.405   1.271 -1.2850  0.2596 -0.7528
  891SOL    HW2 2804   2.783   2.441   1.418  0.2603 -0.7239 -0.5042
  892SOL     OW 2805   2.423   2.941   0.080  0.2194  0.1881 -0.6178
  892SOL    HW1 2806   2.394   2.850   0.089  2.3099 -0.3287  3.2150
  892SOL    HW2 2807   2.350   2.992   0.116  0.9861 -0.5281  2.2439
  893SOL     OW 2808   2.562   1.896   0.943 -0.2585 -0.2193 -0.5889
  893SOL    HW1 2809   2.645   1.852   0.926 -0.4455 -0.2201 -1.5241
  893SOL    HW2 2810   2.563   1.913   1.037  0.9843  0.1466 -0.6490
  894SOL     OW 2811   2.019   2.900   2.602  0.0954 -0.5604 -0.0990
  894SOL    HW1 2812   2.110   2.890   2.576  0.9764  0.4715  2.2278
  894SOL    HW2 2813   1.995   2.988   2.574 -0.7332 -1.3632 -2.0462
  895SOL     OW 2814   0.942   2.342   0.663  0.0018 -0.2343  0.5382
  895SOL    HW1 2815   0.888   2.315   0.737  0.8277 -1.0105  0.8723
  895SOL    HW2 2816   1.031   2.315   0.687  0.5578  1.0198  0.0112
  896SOL     OW 2817   2.362   1.799   1.682 -0.6751 -0.0729  0.3698
  896SOL    HW1 2818   2.438   1.753   1.646 -0.8935 -0.5161  0.4692
  896SOL    HW2 2819   2.362   1.884   1.637  1.4592  1.0641  2.3223
  897SOL     OW 2820   0.894   2.803   3.045  0.2015 -0.3666  0.0403
  897SOL    HW1 2821   0.815   2.815   2.993  0.9278 -0.4086 -1.1010
  897SOL    HW2 2822   0.966   2.817   2.984  1.0985  0.3876  1.2129
  898SOL     OW 2823   3.372   0.484   3.097  0.0928 -0.5465 -0.2527
  898SOL    HW1 2824   3.411   0.450   3.017  0.1158 -0.5790 -0.2277
  898SOL    HW2 2825   3.322   0.410   3.133 -0.9242 -0.1888 -0.8738
  899SOL     OW 2826   0.015   1.394   0.379  0.3810  0.0307  0.5320
  899SOL    HW1 2827  -0.043   1.357   0.312  2.0423 -0.6913 -0.5642
  899SOL    HW2 2828   0.044   1.477   0.342  1.7122 -0.6078  0.0886
  900SOL     OW 2829   1.406   1.879   2.126 -0.0603  0.0260  0.9768
  900SOL    HW1 2830   1.444   1.823   2.059 -2.4921  0.3200 -0.8027
  900SOL    HW2 2831   1.448   1.964   2.113 -1.2188  0.3709 -0.9992
  901SOL     OW 2832   0.047   2.637   0.334 -0.5182  0.6790 -0.6840
  901SOL    HW1 2833   0.142   2.640   0.330 -0.3311  1.0866  1.9607
  901SOL    HW2 2834   0.023   2.707   0.395 -2.2737 -0.8830  0.5666
  902SOL     OW 2835   0.168   3.027   1.060 -0.1222 -0.0462  0.4006
  902SOL    HW1 2836   0.196   3.087   1.129 -0.9704 -1.9495  2.5394
  902SOL    HW2 2837   0.245   2.973   1.042  0.4611  1.1982 -1.0966
  903SOL     OW 2838   2.826   1.493   1.418  0.3111  0.3917 -0.6091
  903SOL    HW1 2839   2.877   1.423   1.378  0.8281 -1.4963  2.9191
  903SOL    HW2 2840   2.753   1.448   1.461  0.5700  1.9478  1.6536
  904SOL     OW 2841   1.134   2.251   2.473  0.3672  0.3069  0.0005
  904SOL    HW1 2842   1.225   2.281   2.462  0.1041  1.5487  0.9911
  904SOL    HW2 2843   1.090   2.323   2.516 -1.5642  0.4427 -2.0107
  905SOL     OW 2844   2.072   1.820   1.456 -0.2235 -0.3687 -0.1645
  905SOL    HW1 2845   2.052   1.842   1.547 -0.2716  1.7455 -0.6541
  905SOL    HW2 2846   2.087   1.725   1.458 -0.8112 -0.4727  1.9244
  906SOL     OW 2847   2.172   1.199   2.832 -0.0492 -0.2016 -0.2603
  906SOL    HW1 2848   2.206   1.110   2.832 -0.1589 -0.2759  1.3782
  906SOL    HW2 2849   2.077   1.189   2.839 -0.0734  0.0400 -0.2223
  907SOL     OW 2850   2.698   2.432   2.295 -0.3960 -0.3581  0.5254
  907SOL    HW1 2851   2.619   2.485   2.308  0.1658  1.2076 -1.8597
  907SOL    HW2 2852   2.680   2.382   2.215  0.0414 -2.0128  1.4196
  908SOL     OW 2853   2.537   0.954   2.330 -0.4697  0.1011 -0.2192
  908SOL    HW1 2854   2.565   0.884   2.389  0.7114  1.2754  0.6704
  908SOL    HW2 2855   2.492   1.016   2.388  1.1761  1.5328 -0.4297
  909SOL     OW 2856   2.009   0.201   1.491  0.0941 -0.5997 -0.1159
  909SOL    HW1 2857   1.975   0.287   1.517  0.2673 -0.3717 -0.6308
  909SOL    HW2 2858   2.079   0.220   1.429  1.4364 -1.0605  1.2225
  910SOL     OW 2859   1.634   1.029   1.241  0.2084  0.1411 -0.0493
  910SOL    HW1 2860   1.586   0.950   1.217 -0.3043  0.4863 -0.1746
  910SOL    HW2 2861   1.688   1.003   1.316  3.3265 -1.5296 -2.6010
  911SOL     OW 2862   3.116   1.089  -0.011  0.0746 -0.2702 -0.8663
  911SOL    HW1 2863   3.076   1.084   0.076  0.9138  0.3480 -0.4341
  911SOL    HW2 2864   3.139   0.998  -0.032  0.7925 -0.3102  0.0116
  912SOL     OW 2865   2.717   0.108   3.218  0.0867 -0.3099  0.7419
  912SOL    HW1 2866   2.628   0.089   3.249 -0.0159 -2.2754 -0.5724
  912SOL    HW2 2867   2.770   0.037   3.254  0.8527  0.0523  0.3462
  913SOL     OW 2868   1.881   0.962   3.399 -0.0535 -0.4032  0.0204
  913SOL    HW1 2869   1.858   0.903   3.471  0.1717 -0.9387 -0.3328
  913SOL    HW2 2870   1.805   1.020   3.390 -0.0221 -0.2438  0.7759
  914SOL     OW 2871   1.882   0.770   2.148  0.0818  0.0185 -0.4653
  914SOL    HW1 2872   1.822   0.738   2.216 -2.4191  0.6589 -2.2196
  914SOL    HW2 2873   1.950   0.817   2.196 -0.9810 -0.4792  1.6504
  915SOL     OW 2874   3.028   2.679   1.284  0.6135  0.4887  0.8473
  915SOL    HW1 2875   2.961   2.742   1.311 -1.3056 -1.7903  1.7729
  915SOL    HW2 2876   2.995   2.641   1.203 -0.5913 -2.3639  2.5166
  916SOL     OW 2877   1.552   3.426   3.422  0.2696  0.4973  0.1281
  916SOL    HW1 2878   1.460   3.419   3.398  0.0849  1.7391  0.4206
  916SOL    HW2 2879   1.598   3.433   3.338 -0.0440  1.3168  0.0169
  917SOL     OW 2880   2.871   3.028   3.058 -0.1549 -0.0210  0.0372
  917SOL    HW1 2881   2.824   2.973   3.120 -0.6043  1.1809  0.8120
  917SOL    HW2 2882   2.954   3.048   3.101 -0.6124  1.1087  0.4527
  918SOL     OW 2883   3.373   3.235   0.898 -0.3596 -0.1763 -0.6114
  918SOL    HW1 2884   3.307   3.179   0.937 -0.2149 -0.1625 -0.3461
  918SOL    HW2 2885   3.430   3.176   0.849 -1.2280 -0.0657 -1.7907
  919SOL     OW 2886   2.845   2.230   3.107 -0.7111 -0.4703  0.4811
  919SOL    HW1 2887   2.816   2.141   3.127 -0.2117 -0.7972 -0.2170
  919SOL    HW2 2888   2.933   2.236   3.144 -0.6932 -0.3123  0.4145
  920SOL     OW 2889   3.355   0.750   0.553  0.3210 -0.0229 -0.2158
  920SOL    HW1 2890   3.263   0.728   0.569  0.4222  0.8323  1.9899
  920SOL    HW2 2891   3.354   0.845   0.538  0.7215 -0.2147 -1.5233
  921SOL     OW 2892   2.429   2.949   1.535  0.3877 -0.5772  1.1250
  921SOL    HW1 2893   2.359   3.010   1.513  0.6965 -0.9110 -1.0386
  921SOL    HW2 2894   2.383   2.867   1.556  0.1012 -0.8314 -0.4080
  922SOL     OW 2895   1.208   2.974   0.343  0.0425 -0.0966 -0.3515
  922SOL    HW1 2896   1.302   2.980   0.358  0.0151 -1.4006  0.5200
  922SOL    HW2 2897   1.196   2.890   0.298 -0.6677  0.2338 -0.7936
  923SOL     OW 2898   2.862   0.492   2.448  0.3125  0.0783  0.1933
  923SOL    HW1 2899   2.795   0.503   2.381  0.2068 -0.9980  0.1175
  923SOL    HW2 2900   2.831   0.546   2.522 -0.4839 -0.1754  0.0490
  924SOL     OW 2901   0.982   2.140   0.180  0.3800 -0.0933  0.2408
  924SOL    HW1 2902   0.942   2.148   0.266 -4.4235 -1.5067 -1.5208
  924SOL    HW2 2903   1.009   2.048   0.175  1.7013  0.2678  0.5952
  925SOL     OW 2904   0.203   0.281   1.381  0.0677 -0.5929 -0.1030
  925SOL    HW1 2905   0.288   0.325   1.388  0.4295 -1.3748  0.6415
  925SOL    HW2 2906   0.207   0.234   1.298  1.2068 -2.2674  0.8274
  926SOL     OW 2907   3.480   0.587   1.175  0.1225  0.5523 -0.2029
  926SOL    HW1 2908   3.443   0.500   1.192  0.4887  0.4990  0.3350
  926SOL    HW2 2909   3.549   0.597   1.241 -1.1969  2.0636  1.0096
  927SOL     OW 2910   3.108   2.283   1.290 -0.1690  0.1904 -0.2211
  927SOL    HW1 2911   3.055   2.204   1.304  1.6320 -1.0008  0.3083
  927SOL    HW2 2912   3.083   2.341   1.361 -0.8878 -0.2643 -0.0871
  928SOL     OW 2913   0.062   1.174   0.517 -0.4101  0.0844  0.2522
  928SOL    HW1 2914   0.147   1.176   0.560  0.4435 -3.1599 -0.9377
  928SOL    HW2 2915   0.055   1.258   0.472  2.7401 -0.0063 -0.5847
  929SOL     OW 2916   0.301   1.704   2.860 -0.4224  0.2504 -0.8781
  929SOL    HW1 2917   0.233   1.638   2.846 -1.8102  1.3306  0.3633
  929SOL    HW2 2918   0.253   1.787   2.864  0.8709  0.9941  0.6657
  930SOL     OW 2919   2.184   1.569   1.145 -0.4171  0.0775  0.4349
  930SOL    HW1 2920   2.221   1.503   1.086 -0.1484  1.8356 -1.4799
  930SOL    HW2 2921   2.126   1.519   1.202  0.9676 -2.0359  0.1481
  931SOL     OW 2922   2.148   0.909   2.880  0.5962  0.0877 -0.8699
  931SOL    HW1 2923   2.058   0.876   2.876 -0.1029  1.8826 -0.8413
  931SOL    HW2 2924   2.152   0.955   2.964  1.0732  1.2820 -1.5293
  932SOL     OW 2925   2.985   1.503   1.662  0.0475  0.4846 -0.1538
  932SOL    HW1 2926   3.007   1.591   1.690 -0.9581  0.3930  0.9731
  932SOL    HW2 2927   2.932   1.515   1.584 -0.6826  0.9111  0.3995
  933SOL     OW 2928   3.473   2.621   0.950 -0.0841 -0.1713  0.2863
  933SOL    HW1 2929   3.462   2.590   0.860 -0.9036  2.4577 -0.5929
  933SOL    HW2 2930   3.518   2.705   0.941 -3.0551  1.7848  2.0004
  934SOL     OW 2931   2.739   3.164   2.443 -0.3454  0.5501 -0.4846
  934SOL    HW1 2932   2.762   3.071   2.436  1.7155  1.0158 -0.4710
  934SOL    HW2 2933   2.821   3.207   2.465 -1.5974  2.2022  1.2227
  935SOL     OW 2934   1.092   3.054   3.486  0.3070 -0.4020  0.1403
  935SOL    HW1 2935   1.084   3.149   3.475 -0.9113 -0.2068  2.2837
  935SOL    HW2 2936   1.021   3.018   3.433  0.0113 -0.0434  0.2882
  936SOL     OW 2937   2.337   0.320   3.305 -0.3102 -0.1608 -0.1113
  936SOL    HW1 2938   2.406   0.359   3.360 -1.2886  0.4410  0.7360
  936SOL    HW2 2939   2.279   0.277   3.368 -0.3543 -1.2467 -0.8769
  937SOL     OW 2940   1.527   1.859   2.657  0.1446  0.2572 -0.2395
  937SOL    HW1 2941   1.467   1.806   2.710  1.3144 -0.9907 -0.1073
  937SOL    HW2 2942   1.486   1.863   2.571 -0.2885 -0.3011 -0.0670
  938SOL     OW 2943   0.501   1.134   2.798 -0.0023 -0.1548  0.2202
  938SOL    HW1 2944   0.523   1.069   2.864 -0.3385 -0.8067 -0.3043
  938SOL    HW2 2945   0.582   1.184   2.787  0.0229  0.0415  1.2011
  939SOL     OW 2946   1.508   2.291   0.386 -0.3303 -0.4134  0.6477
  939SOL    HW1 2947   1.516   2.381   0.353  0.5951  0.5347  3.1583
  939SOL    HW2 2948   1.478   2.240   0.311 -0.9912  2.0053 -0.8446
  940SOL     OW 2949   1.234  -0.021   2.100  0.1725  0.4095  0.0129
  940SOL    HW1 2950   1.232   0.028   2.182  0.8803  0.9955 -0.3044
  940SOL    HW2 2951   1.243   0.047   2.033  1.1113 -0.1457 -0.4390
  941SOL     OW 2952   3.018   1.117   1.730  0.8515  0.8136  0.3557
  941SOL    HW1 2953   3.074   1.155   1.663 -0.1695  2.3609  0.3280
  941SOL    HW2 2954   3.059   1.033   1.751  2.4552  1.3345 -0.5401
  942SOL     OW 2955   2.277   1.298   0.047 -0.0558 -0.1769  0.0430
  942SOL    HW1 2956   2.358   1.249   0.039 -0.0450 -0.1873  0.2083
  942SOL    HW2 2957   2.303   1.389   0.035 -0.0954 -0.2216 -0.3936
  943SOL     OW 2958   2.983   0.799   2.835  0.0907 -0.5944  0.7298
  943SOL    HW1 2959   3.053   0.735   2.829 -0.4321 -1.4702  2.9256
  943SOL    HW2 2960   2.968   0.810   2.929 -0.9634  1.5260  0.3954
  944SOL     OW 2961   2.674   2.158   1.665  0.2556 -0.2228 -0.0269
  944SOL    HW1 2962   2.765   2.142   1.688  0.0693 -0.4225  0.6093
  944SOL    HW2 2963   2.634   2.071   1.664  0.1477 -0.1684 -0.6354
  945SOL     OW 2964   0.782   2.576   1.202  0.2428 -0.2303  0.3258
  945SOL    HW1 2965   0.749   2.492   1.171 -1.6804 -0.3346  2.3573
  945SOL    HW2 2966   0.732   2.641   1.152 -0.6110 -0.3690  0.9640
  946SOL     OW 2967   1.587   1.008   3.478 -0.1484 -0.0004 -0.0078
  946SOL    HW1 2968   1.567   0.966   3.562  2.5891 -2.7155 -0.5498
  946SOL    HW2 2969   1.502   1.013   3.434 -1.4583  0.3558  2.3736
  947SOL     OW 2970   1.884   1.103   1.802 -0.0050  0.5729  0.2666
  947SOL    HW1 2971   1.900   1.009   1.806 -2.5968  0.0144 -0.6047
  947SOL    HW2 2972   1.802   1.115   1.849 -0.3111  2.2363 -0.6470
  948SOL     OW 2973   0.029   0.654   1.766  0.7649 -0.2643 -0.5682
  948SOL    HW1 2974  -0.049   0.658   1.821  1.5302 -1.2258  0.6358
  948SOL    HW2 2975   0.023   0.732   1.711 -0.3878  0.3642  0.3989
  949SOL     OW 2976  -0.020   2.976   2.933  0.2253  0.5587 -0.1501
  949SOL    HW1 2977  -0.008   2.891   2.892 -0.5359 -0.1134  0.9591
  949SOL    HW2 2978   0.068   3.003   2.960  0.4083 -0.1001 -0.0897
  950SOL     OW 2979   1.375   0.553   3.289  0.0851 -0.2956  0.3029
  950SOL    HW1 2980   1.300   0.507   3.326  0.2688 -1.1063 -0.3269
  950SOL    HW2 2981   1.426   0.486   3.245  0.0795  0.5886 -1.0992
  951SOL     OW 2982   0.370   0.664   0.611  0.7622 -0.1228  0.0598
  951SOL    HW1 2983   0.441   0.727   0.596  2.2786 -2.0981 -1.6531
  951SOL    HW2 2984   0.293   0.704   0.570  0.7930  2.0576  1.9499
  952SOL     OW 2985   1.907   1.581   2.923 -0.2422  0.3582  0.0274
  952SOL    HW1 2986   1.998   1.612   2.920 -0.4120  0.8235 -0.4016
  952SOL    HW2 2987   1.865   1.623   2.848  0.0503 -2.5941 -1.9573
  953SOL     OW 2988   2.444   0.453   1.276 -0.5428  0.2235 -0.1584
  953SOL    HW1 2989   2.352   0.452   1.302 -0.9438 -2.7101 -1.2908
  953SOL    HW2 2990   2.493   0.449   1.358 -1.5114 -0.4953  0.3988
  954SOL     OW 2991   3.305   0.813   0.261  0.2033  0.3635 -0.0351
  954SOL    HW1 2992   3.359   0.850   0.192 -2.1674  2.3086 -1.0021
  954SOL    HW2 2993   3.235   0.766   0.215 -1.8171  2.2582  0.8818
  955SOL     OW 2994   2.105   2.251   1.652  0.4893  0.5088  0.0171
  955SOL    HW1 2995   2.047   2.224   1.581  1.2655  0.6378 -0.6904
  955SOL    HW2 2996   2.046   2.277   1.723 -0.3413  1.4323 -0.9691
  956SOL     OW 2997   0.543   2.887   1.981  0.3653 -0.5909  0.3279
  956SOL    HW1 2998   0.466   2.939   1.958 -1.5683 -3.1555  0.5434
  956SOL    HW2 2999   0.603   2.899   1.907 -0.1748  1.4740  0.1515
  957SOL     OW 3000   1.543   2.110   2.115  0.2371  0.4592 -0.1657
  957SOL    HW1 3001   1.605   2.137   2.183 -1.3346  1.2279  0.9983
  957SOL    HW2 3002   1.554   2.176   2.046  2.0631 -0.5019 -0.8768
  958SOL     OW 3003   2.358   1.273   0.532 -0.0697  0.2629  0.0230
  958SOL    HW1 3004   2.378   1.334   0.461  0.4901  0.1824  0.1073
  958SOL    HW2 3005   2.388   1.317   0.611  0.2904 -0.0983  0.0899
  959SOL     OW 3006   2.219   3.376   1.681 -0.3565  0.4389  0.0773
  959SOL    HW1 3007   2.185   3.297   1.723  1.3833 -1.0846 -1.2483
  959SOL    HW2 3008   2.314   3.367   1.685 -0.1214  1.2307 -2.3055
  960SOL     OW 3009   3.396   2.884   0.751 -1.0892 -0.1323  0.5838
  960SOL    HW1 3010   3.466   2.950   0.750  2.2960 -3.3392 -1.9782
  960SOL    HW2 3011   3.377   2.871   0.844  0.6650  1.9167  1.3139
  961SOL     OW 3012   2.754   2.319   0.211  0.3134  0.3600  0.0281
  961SOL    HW1 3013   2.836   2.358   0.241  0.4118  1.0101 -1.0304
  961SOL    HW2 3014   2.718   2.276   0.288  0.6922  1.7257  0.9887
  962SOL     OW 3015   1.818   1.235   0.652  0.0388  0.2746 -0.1750
  962SOL    HW1 3016   1.730   1.265   0.626  0.6991  0.8596 -1.8646
  962SOL    HW2 3017   1.837   1.284   0.732 -2.0509 -1.5330  1.5462
  963SOL     OW 3018   1.876   1.725   2.309 -0.2164  0.7280  0.7142
  963SOL    HW1 3019   1.811   1.667   2.269  0.6661  0.8273 -0.9605
  963SOL    HW2 3020   1.924   1.762   2.235  0.4347  2.2156  1.8233
  964SOL     OW 3021   3.391   1.315   0.160  0.2152 -0.0108  0.5390
  964SOL    HW1 3022   3.333   1.246   0.191  1.3763 -1.7459 -0.9786
  964SOL    HW2 3023   3.352   1.343   0.077  1.3014 -0.9072 -0.2917
  965SOL     OW 3024   2.374   0.329   0.170  0.1161 -0.5212  0.0114
  965SOL    HW1 3025   2.299   0.384   0.148 -0.0103 -1.1041 -1.0645
  965SOL    HW2 3026   2.390   0.347   0.263 -1.0352 -0.0181  0.1316
  966SOL     OW 3027   0.629   2.534   0.091  0.5655 -0.1082 -0.1933
  966SOL    HW1 3028   0.707   2.589   0.103 -0.8252  1.6516  1.6922
  966SOL    HW2 3029   0.627   2.479   0.169  0.3265 -0.6860 -0.6040
  967SOL     OW 3030   2.370   1.560   0.016  0.0199 -0.4737  0.9510
  967SOL    HW1 3031   2.380   1.629   0.082 -0.2482  2.0481 -1.4444
  967SOL    HW2 3032   2.458   1.528   0.001  0.2978  0.0894  1.3446
  968SOL     OW 3033   0.211   2.470   3.053  0.6382 -0.3436  0.6090
  968SOL    HW1 3034   0.130   2.418   3.059  0.1925  0.4283  1.4551
  968SOL    HW2 3035   0.212   2.522   3.133  0.7525  1.4135 -0.4940
  969SOL     OW 3036   1.143   2.971   1.966  0.3615  0.1117 -0.2013
  969SOL    HW1 3037   1.201   2.983   2.041  0.5792 -1.9657  0.0243
  969SOL    HW2 3038   1.202   2.957   1.892  0.1460  0.3594 -0.4214
  970SOL     OW 3039   2.283   1.483   3.215  0.0074  0.1146  0.0312
  970SOL    HW1 3040   2.359   1.491   3.273 -1.2747  2.0086  1.5810
  970SOL    HW2 3041   2.319   1.448   3.133  2.1717 -1.0467  1.3790
  971SOL     OW 3042   1.826   2.481   2.059 -0.6522 -0.2505 -0.2545
  971SOL    HW1 3043   1.768   2.406   2.043  0.0354 -0.8729  0.0774
  971SOL    HW2 3044   1.844   2.516   1.972 -0.5361 -0.8186 -0.4639
  972SOL     OW 3045   1.634   2.559   2.308  0.0303 -0.8203  0.5960
  972SOL    HW1 3046   1.619   2.570   2.214  3.0455  0.8043  0.2079
  972SOL    HW2 3047   1.550   2.581   2.348 -0.5925  1.1871 -1.5769
  973SOL     OW 3048   0.493   2.756   3.490 -0.2223  0.5530 -0.5460
  973SOL    HW1 3049   0.573   2.711   3.517 -1.5464 -0.6465  1.6645
  973SOL    HW2 3050   0.502   2.845   3.524  0.5098  0.6875 -1.0705
  974SOL     OW 3051   0.359   3.242   0.441 -0.9660  0.1534 -0.2729
  974SOL    HW1 3052   0.424   3.277   0.501 -1.2877 -0.6506  0.5720
  974SOL    HW2 3053   0.408   3.182   0.384 -0.3615  2.0877 -1.9065
  975SOL     OW 3054   2.841   3.368   1.870 -0.4250 -0.5052  0.0501
  975SOL    HW1 3055   2.919   3.423   1.860  1.2179 -2.3010  2.0052
  975SOL    HW2 3056   2.846   3.307   1.797  1.1919 -1.8439  1.1832
  976SOL     OW 3057   2.707   2.837   2.085 -0.0494  0.2221 -0.1224
  976SOL    HW1 3058   2.697   2.833   1.990 -2.8056 -0.6843  0.1263
  976SOL    HW2 3059   2.780   2.898   2.098  2.6187 -2.0822 -2.8253
  977SOL     OW 3060   0.575   1.362   2.190  0.7581 -0.1232  0.4902
  977SOL    HW1 3061   0.582   1.295   2.121 -1.7729  0.5737 -0.5426
  977SOL    HW2 3062   0.494   1.409   2.170  1.8394  2.5328  1.8591
  978SOL     OW 3063   0.898   2.607   2.021  0.0939  0.8351  0.0983
  978SOL    HW1 3064   0.878   2.562   1.939  0.7708 -1.3868  1.0795
  978SOL    HW2 3065   0.813   2.632   2.056 -0.4199 -0.7717  0.0692
  979SOL     OW 3066   0.844   1.428   0.694  0.0182  0.0129 -0.3911
  979SOL    HW1 3067   0.929   1.388   0.674 -0.4057 -0.4302 -1.3359
  979SOL    HW2 3068   0.813   1.461   0.610 -0.0208  1.6197  0.2201
  980SOL     OW 3069   0.624   3.202   2.829 -0.1047  0.2968  0.0232
  980SOL    HW1 3070   0.595   3.288   2.799 -1.0937  1.4976  3.7612
  980SOL    HW2 3071   0.573   3.140   2.778 -0.8743  2.0096 -1.3916
  981SOL     OW 3072   0.071   2.689   2.474  0.0495 -0.5327  0.3605
  981SOL    HW1 3073   0.157   2.702   2.514  0.8086 -3.0493 -0.2852
  981SOL    HW2 3074   0.013   2.671   2.548  0.5972 -1.1909  0.6372
  982SOL     OW 3075   1.665   3.085   0.526 -0.2261 -0.2639  0.1404
  982SOL    HW1 3076   1.572   3.068   0.544 -0.2878  0.0136  0.0811
  982SOL    HW2 3077   1.667   3.175   0.495  0.0183 -0.3842 -0.1959
  983SOL     OW 3078   2.924   0.291   3.193  0.0983  0.6276 -0.6538
  983SOL    HW1 3079   2.968   0.278   3.277 -0.1209  1.1642 -0.4486
  983SOL    HW2 3080   2.856   0.224   3.191 -0.4030  1.1047 -0.0438
  984SOL     OW 3081   2.177   3.076   2.790  0.5573  0.2821 -0.3776
  984SOL    HW1 3082   2.178   3.044   2.700  2.8195 -1.5398  0.1963
  984SOL    HW2 3083   2.173   3.171   2.781 -1.1411  0.0905 -2.3144
  985SOL     OW 3084   1.660   2.656   3.113  0.1955  0.3657  0.6730
  985SOL    HW1 3085   1.745   2.612   3.106 -1.0274 -1.9910 -0.9034
  985SOL    HW2 3086   1.651   2.704   3.031 -0.2572  0.0363  0.5239
  986SOL     OW 3087   1.169   2.761   0.970  0.1928 -0.4056  0.5524
  986SOL    HW1 3088   1.118   2.681   0.982 -0.2748 -0.2593 -0.3512
  986SOL    HW2 3089   1.195   2.759   0.878  0.2632  0.4343  0.5467
  987SOL     OW 3090   1.117   2.889   1.609 -0.0749 -0.7525 -0.4670
  987SOL    HW1 3091   1.072   2.955   1.661  3.6192  0.0638  2.1152
  987SOL    HW2 3092   1.165   2.938   1.543  1.0874 -0.9626  0.1837
  988SOL     OW 3093   2.384   2.418   0.459  0.1600 -0.1869 -0.4714
  988SOL    HW1 3094   2.366   2.486   0.523 -0.2071 -0.7179  0.0000
  988SOL    HW2 3095   2.480   2.411   0.457  0.1643 -0.6009  0.5002
  989SOL     OW 3096   1.594   2.368   1.983 -0.5122  0.6851  0.7667
  989SOL    HW1 3097   1.569   2.450   2.026  2.2831  2.5489 -0.8077
  989SOL    HW2 3098   1.556   2.374   1.895  1.0338  1.1366  0.0941
  990SOL     OW 3099   2.049   0.105   0.180 -0.2250  0.3766 -0.0261
  990SOL    HW1 3100   2.004   0.189   0.186 -0.9308  0.0431 -0.5522
  990SOL    HW2 3101   1.996   0.053   0.120  0.1894 -0.4557  0.3050
  991SOL     OW 3102   2.706   3.035   0.775 -0.0226  0.2355 -0.3925
  991SOL    HW1 3103   2.783   2.985   0.803 -0.1414 -0.4854 -1.2761
  991SOL    HW2 3104   2.740   3.094   0.707 -0.5656 -1.5807 -2.3420
  992SOL     OW 3105   2.216   3.115   1.454 -0.1394  0.2156 -0.0146
  992SOL    HW1 3106   2.188   3.184   1.394 -1.5869 -0.1999  0.1406
  992SOL    HW2 3107   2.140   3.101   1.511 -0.0329 -1.7385 -0.2634
  993SOL     OW 3108   0.561   1.711   1.639  0.3390 -0.3071 -0.5014
  993SOL    HW1 3109   0.509   1.767   1.697 -0.7172 -2.4606  0.7446
  993SOL    HW2 3110   0.576   1.765   1.562 -0.2257  1.8451  0.7973
  994SOL     OW 3111   3.011   2.736   3.318  0.6846 -0.1113 -0.4986
  994SOL    HW1 3112   3.040   2.827   3.319  0.6983 -0.1183 -0.2153
  994SOL    HW2 3113   2.921   2.741   3.285  0.4236  0.0850  0.2326
  995SOL     OW 3114   1.376   0.307   1.155 -0.0658 -0.1112 -0.0444
  995SOL    HW1 3115   1.308   0.374   1.151 -0.1415 -0.2161 -0.5642
  995SOL    HW2 3116   1.441   0.343   1.216 -1.0608 -0.4669  1.2809
  996SOL     OW 3117   2.773   0.037   1.547  0.1148  0.2845 -0.5170
  996SOL    HW1 3118   2.853   0.017   1.498  0.1701 -1.1006  0.1041
  996SOL    HW2 3119   2.803   0.096   1.617  0.4830  0.2665 -0.6545
  997SOL     OW 3120   0.685   1.436   0.237  0.2688  0.1378 -0.6051
  997SOL    HW1 3121   0.666   1.451   0.144  0.9980 -1.3409 -1.0377
  997SOL    HW2 3122   0.669   1.342   0.250 -1.4137  0.6146  1.1941
  998SOL     OW 3123   1.152   0.408   3.467 -0.1953  0.2466  0.1132
  998SOL    HW1 3124   1.100   0.328   3.461  0.2454  0.0637 -2.6688
  998SOL    HW2 3125   1.100   0.475   3.422 -0.1292  1.3230  1.5573
  999SOL     OW 3126   2.927   2.814   2.298  0.2721 -0.1620 -0.2299
  999SOL    HW1 3127   2.835   2.822   2.321  0.3175 -0.3873  0.0405
  999SOL    HW2 3128   2.969   2.889   2.339  0.1730  0.0586 -0.5370
 1000SOL     OW 3129   1.558   0.816   2.173  0.5264 -0.4420  0.2075
 1000SOL    HW1 3130   1.466   0.836   2.190  0.5357 -1.0992  1.1203
 1000SOL    HW2 3131   1.556   0.746   2.108  0.3450 -1.0936  0.9048
 1001SOL     OW 3132   2.183   2.648   1.760  0.1629 -0.4009 -0.3015
 1001SOL    HW1 3133   2.223   2.564   1.737  0.1494 -0.4763 -0.0583
 1001SOL    HW2 3134   2.256   2.707   1.773  0.2466 -0.7422  0.9320
 1002SOL     OW 3135   2.749   2.782   3.283 -0.1968  0.5187 -0.1159
 1002SOL    HW1 3136   2.693   2.798   3.207  0.4593  0.0407 -0.7137
 1002SOL    HW2 3137   2.715   2.841   3.350  1.1405  3.3811 -1.7328
 1003SOL     OW 3138   3.318   2.055   1.609  0.3586  0.0188 -0.1251
 1003SOL    HW1 3139   3.293   2.098   1.691 -0.4479 -0.5785 -0.0405
 1003SOL    HW2 3140   3.310   2.123   1.542 -0.5489  0.1029  0.0597
 1004SOL     OW 3141   3.291   2.596   0.356  0.7432  0.0178 -0.1246
 1004SOL    HW1 3142   3.376   2.629   0.329  0.1670  1.1187 -0.6518
 1004SOL    HW2 3143   3.236   2.674   0.365 -0.7474 -0.7805 -1.6923
 1005SOL     OW 3144   0.334   0.467   3.091 -0.1463 -0.2017 -0.6168
 1005SOL    HW1 3145   0.343   0.386   3.040 -1.1771  0.3233 -1.6749
 1005SOL    HW2 3146   0.254   0.455   3.142  0.5977 -0.5047  0.5370
 1006SOL     OW 3147   0.967   3.336   3.394  0.0977  0.3554  0.4646
 1006SOL    HW1 3148   0.898   3.336   3.327  0.6593 -3.4967 -0.3645
 1006SOL    HW2 3149   1.049   3.340   3.344  0.4993 -0.2000  1.0691
 1007SOL     OW 3150   3.046   0.331   1.523  0.3021 -0.7362  0.3298
 1007SOL    HW1 3151   3.038   0.346   1.429  0.7242  0.9832  0.5253
 1007SOL    HW2 3152   2.979   0.266   1.543 -0.6981 -0.1474 -0.9542
 1008SOL     OW 3153   3.512   1.961   0.095  0.2594  0.1134  0.0040
 1008SOL    HW1 3154   3.459   2.035   0.125 -1.5035 -0.2351 -2.0006
 1008SOL    HW2 3155   3.463   1.884   0.125 -0.9357 -0.2240 -2.5902
 1009SOL     OW 3156   0.429   2.110   1.127 -0.3495  0.2311 -0.0093
 1009SOL    HW1 3157   0.400   2.027   1.166 -1.3098  0.8582  0.6176
 1009SOL    HW2 3158   0.364   2.129   1.059 -0.1450  0.5023 -0.1304
 1010SOL     OW 3159   2.004   0.047   0.812  0.2936  0.4948  0.2921
 1010SOL    HW1 3160   1.928   0.058   0.869  0.5081  1.3876  0.4167
 1010SOL    HW2 3161   2.066   0.114   0.840  1.8188 -1.2059  1.2606
 1011SOL     OW 3162   0.677   3.329   0.035 -0.2131  0.3958 -0.5863
 1011SOL    HW1 3163   0.750   3.268   0.050 -0.8873 -0.4698 -0.7171
 1011SOL    HW2 3164   0.717   3.416   0.040  1.6808 -0.0002 -4.5487
 1012SOL     OW 3165   2.627   1.863   1.987  0.3112  0.2209  0.4350
 1012SOL    HW1 3166   2.681   1.851   1.910  1.2505 -0.5921  1.2018
 1012SOL    HW2 3167   2.647   1.788   2.043 -0.3747  0.7711  1.4533
 1013SOL     OW 3168   3.244   0.270   3.181  0.0150  0.3567  0.4778
 1013SOL    HW1 3169   3.179   0.269   3.251  0.6465  1.5001  1.1188
 1013SOL    HW2 3170   3.279   0.182   3.179 -1.3633 -0.2170  0.2872
 1014SOL     OW 3171   1.149   0.951   1.893  0.5608 -0.0973  0.1534
 1014SOL    HW1 3172   1.221   0.992   1.942 -0.2185  0.0966  1.1835
 1014SOL    HW2 3173   1.118   1.020   1.834  1.3522 -0.2526 -0.4563
 1015SOL     OW 3174   2.593   2.886   1.835  0.1220  0.1805  0.0857
 1015SOL    HW1 3175   2.606   2.981   1.841 -2.9733  0.6438  1.5748
 1015SOL    HW2 3176   2.605   2.867   1.742  1.2703  1.9219 -0.1786
 1016SOL     OW 3177   1.632   0.826   0.865 -0.1567  0.5713 -0.3563
 1016SOL    HW1 3178   1.662   0.823   0.956 -1.3185  0.9156  0.0514
 1016SOL    HW2 3179   1.616   0.919   0.849  1.0308  0.6468 -1.2644
 1017SOL     OW 3180   0.319   1.333   0.377  0.5900 -0.1639 -0.0634
 1017SOL    HW1 3181   0.350   1.423   0.369  0.7819  0.0471  2.3077
 1017SOL    HW2 3182   0.301   1.322   0.471  0.8809 -2.7020 -0.2378
 1018SOL     OW 3183   1.991   3.136   2.488 -0.2889 -0.0513  0.3353
 1018SOL    HW1 3184   2.037   3.122   2.405  1.1043 -0.8908  1.2190
 1018SOL    HW2 3185   1.906   3.172   2.462 -0.0715 -0.7423 -1.4811
 1019SOL     OW 3186   2.833   1.456   0.331 -0.6443 -0.3454  0.2947
 1019SOL    HW1 3187   2.826   1.364   0.357 -0.9347 -0.1619  0.8763
 1019SOL    HW2 3188   2.916   1.461   0.283  0.0923 -0.6220  1.4981
 1020SOL     OW 3189   1.831   3.044   1.900 -0.6915 -0.4468 -0.3340
 1020SOL    HW1 3190   1.854   2.967   1.952  2.1444  0.5306  0.0374
 1020SOL    HW2 3191   1.758   3.015   1.846 -0.2557 -3.1493  0.3576
 1021SOL     OW 3192   0.248   2.302   0.327  0.2952 -0.4560 -0.3354
 1021SOL    HW1 3193   0.182   2.284   0.394  1.9183 -1.3487  1.1426
 1021SOL    HW2 3194   0.253   2.222   0.276 -0.7776  0.1428 -1.4138
 1022SOL     OW 3195   3.484   3.457   2.757 -0.3057 -0.6678 -0.5087
 1022SOL    HW1 3196   3.531   3.481   2.677 -0.4213  0.9145 -0.1208
 1022SOL    HW2 3197   3.434   3.534   2.781  1.2981 -0.3255  2.2221
 1023SOL     OW 3198   3.351   0.031   1.563  0.5338 -0.0459  0.0372
 1023SOL    HW1 3199   3.317   0.012   1.476  1.5081  0.6922 -0.5317
 1023SOL    HW2 3200   3.445   0.018   1.555  0.7901  1.2648  0.6142
 1024SOL     OW 3201   0.513   0.066   2.599 -0.6944  0.4894  0.2182
 1024SOL    HW1 3202   0.462   0.043   2.521  0.2737  1.0187 -0.6025
 1024SOL    HW2 3203   0.596   0.099   2.564 -0.9222  2.5107  1.4050
 1025SOL     OW 3204   1.261   1.728   0.261 -0.2716  1.3657 -0.2509
 1025SOL    HW1 3205   1.295   1.656   0.209 -0.9515  1.2771 -0.5880
 1025SOL    HW2 3206   1.326   1.741   0.330  1.1528  2.1592 -1.6751
 1026SOL     OW 3207   2.686   2.518   3.320 -0.0400 -0.9793  0.0758
 1026SOL    HW1 3208   2.731   2.601   3.335  0.3163 -1.5444  2.6111
 1026SOL    HW2 3209   2.598   2.532   3.356  0.4347 -2.0523  1.7383
 1027SOL     OW 3210   1.967   1.180   0.426  0.2158  0.2089  0.1563
 1027SOL    HW1 3211   1.979   1.252   0.364 -0.8668 -0.1776 -0.5328
 1027SOL    HW2 3212   1.903   1.211   0.489 -1.5418 -0.6850 -1.1042
 1028SOL     OW 3213   3.328   0.904   2.982 -0.2923 -0.0160 -0.1843
 1028SOL    HW1 3214   3.382   0.882   3.058 -1.6087  1.5774  1.2943
 1028SOL    HW2 3215   3.289   0.821   2.956 -2.7653 -0.1779  3.3350
 1029SOL     OW 3216   2.534   0.061   1.228 -0.0285  0.1603 -0.3013
 1029SOL    HW1 3217   2.547   0.155   1.216  1.8475 -0.1691 -1.1062
 1029SOL    HW2 3218   2.513   0.052   1.321  0.3256  1.3055 -0.0915
 1030SOL     OW 3219   1.901   1.936   0.052 -0.6496 -0.3680  0.0813
 1030SOL    HW1 3220   1.919   1.846   0.078 -0.7525  0.1055  1.9605
 1030SOL    HW2 3221   1.822   1.931  -0.001  0.9544 -1.6737 -2.3785
 1031SOL     OW 3222   2.012   0.315   2.870  0.1950 -0.5589 -0.2151
 1031SOL    HW1 3223   2.085   0.321   2.932  0.0520 -1.0473  0.0075
 1031SOL    HW2 3224   2.010   0.400   2.827  1.6827 -0.9405 -1.1010
 1032SOL     OW 3225   0.417   0.359   2.463 -0.4000  0.1669 -0.2806
 1032SOL    HW1 3226   0.335   0.405   2.446 -1.3104 -1.4331 -0.3901
 1032SOL    HW2 3227   0.404   0.271   2.427  0.6594 -0.7194  1.3293
 1033SOL     OW 3228   2.428   3.157   3.428  0.1522 -0.4837 -0.4529
 1033SOL    HW1 3229   2.423   3.091   3.497  0.9516  0.3186  0.4083
 1033SOL    HW2 3230   2.357   3.218   3.448  1.5103  0.7585  0.7927
 1034SOL     OW 3231   1.831   1.757   0.327  0.0635 -0.3724 -0.1277
 1034SOL    HW1 3232   1.893   1.817   0.370 -0.7335 -0.2923  0.9281
 1034SOL    HW2 3233   1.885   1.710   0.264  1.8992 -2.3699  2.6858
 1035SOL     OW 3234   0.124   2.098   2.904  0.3770  0.1122 -0.1109
 1035SOL    HW1 3235   0.124   2.065   2.994  1.6153 -0.9490 -0.4686
 1035SOL    HW2 3236   0.088   2.026   2.852 -0.6150  0.8278 -0.4631
 1036SOL     OW 3237   3.231   1.141   2.072 -0.4605 -0.2030 -0.7646
 1036SOL    HW1 3238   3.270   1.095   2.147  0.0661 -0.7180 -1.3451
 1036SOL    HW2 3239   3.139   1.152   2.096 -0.2923 -0.3321 -0.0293
 1037SOL     OW 3240   1.122   1.708   2.175 -0.5593  0.3304  0.4189
 1037SOL    HW1 3241   1.177   1.758   2.235 -0.5652  1.4843 -0.5208
 1037SOL    HW2 3242   1.077   1.645   2.232  0.0564  0.8417  1.5057
 1038SOL     OW 3243   2.247   3.017   0.467  0.3721 -0.4456  0.6537
 1038SOL    HW1 3244   2.321   3.055   0.513  1.0887 -0.9023 -0.0951
 1038SOL    HW2 3245   2.275   2.927   0.446 -1.2012 -1.3681  2.2206
 1039SOL     OW 3246   0.135   3.198   2.411 -0.5336  0.1622 -0.0395
 1039SOL    HW1 3247   0.226   3.208   2.438 -0.2362  1.0024 -1.2594
 1039SOL    HW2 3248   0.139   3.153   2.327 -1.2042  0.7015 -0.3754
 1040SOL     OW 3249   0.310   0.742   0.867 -0.7966  0.6102 -0.0469
 1040SOL    HW1 3250   0.338   0.718   0.779 -1.8001 -0.2984 -0.1511
 1040SOL    HW2 3251   0.219   0.712   0.872 -1.2029  1.8860  0.8354
 1041SOL     OW 3252   3.061   0.120   2.926 -0.3292 -0.0423  0.5020
 1041SOL    HW1 3253   2.966   0.112   2.931 -0.3264  0.1677  0.8730
 1041SOL    HW2 3254   3.094   0.069   3.000 -0.0391 -2.2718 -1.0588
 1042SOL     OW 3255   1.879   3.001   3.090 -0.9366 -0.3651 -0.2659
 1042SOL    HW1 3256   1.806   3.062   3.077 -1.3972 -0.9976 -0.7107
 1042SOL    HW2 3257   1.875   2.979   3.183 -0.9018  0.1072 -0.1483
 1043SOL     OW 3258   2.176   1.678   0.886 -0.9107  0.0409  0.2876
 1043SOL    HW1 3259   2.263   1.714   0.900 -0.1329 -1.4827 -0.4085
 1043SOL    HW2 3260   2.132   1.690   0.970 -0.1477  1.0857  0.5643
 1044SOL     OW 3261   2.735   3.313   0.521  0.1848 -0.2021 -0.3476
 1044SOL    HW1 3262   2.743   3.223   0.490 -1.6951 -1.6029  2.7917
 1044SOL    HW2 3263   2.655   3.346   0.481  0.1934 -0.3678 -0.5024
 1045SOL     OW 3264   2.629   0.761   2.167  0.1073 -0.1398 -0.2657
 1045SOL    HW1 3265   2.596   0.701   2.234 -1.5980  1.0588  0.0290
 1045SOL    HW2 3266   2.646   0.842   2.214  3.2687 -0.5380 -0.4797
 1046SOL     OW 3267   1.489   1.600   2.328  0.5002  0.1126  0.3633
 1046SOL    HW1 3268   1.551   1.596   2.255  0.7278 -0.9185  0.5902
 1046SOL    HW2 3269   1.482   1.693   2.349 -0.8123  0.6207 -2.0036
 1047SOL     OW 3270   2.422   1.108   0.263 -0.0683  0.3761 -0.0869
 1047SOL    HW1 3271   2.451   1.194   0.293  0.6160 -0.4413  1.7199
 1047SOL    HW2 3272   2.499   1.069   0.223  0.6785 -0.7182  2.2500
 1048SOL     OW 3273   2.287   0.113   0.022 -0.9896  0.1295  0.1612
 1048SOL    HW1 3274   2.334   0.185   0.064  0.9435 -2.2060  2.3227
 1048SOL    HW2 3275   2.218   0.091   0.085 -1.3071 -0.1636 -0.2912
 1049SOL     OW 3276   2.663   1.021   0.125 -0.6822 -0.6041  0.2516
 1049SOL    HW1 3277   2.715   0.956   0.077  3.3220  3.7178 -2.1146
 1049SOL    HW2 3278   2.647   1.090   0.061 -2.1531  2.0637  3.2486
 1050SOL     OW 3279   1.113   2.419   3.344  0.8444  0.1549 -0.6222
 1050SOL    HW1 3280   1.044   2.475   3.308 -0.2187 -1.6886 -1.6167
 1050SOL    HW2 3281   1.096   2.417   3.438  0.3409  0.7608 -0.6983
 1051SOL     OW 3282   0.663   0.248   1.952 -0.4674  0.3656  1.0528
 1051SOL    HW1 3283   0.594   0.182   1.958  1.5351 -1.8349  0.9741
 1051SOL    HW2 3284   0.743   0.202   1.974  1.2918  2.3620 -0.7084
 1052SOL     OW 3285   2.338   2.624   0.654 -0.2352  0.5333  0.3540
 1052SOL    HW1 3286   2.274   2.588   0.715 -3.5940  1.5337 -2.3108
 1052SOL    HW2 3287   2.381   2.693   0.703 -1.2786 -0.0765  2.2246
 1053SOL     OW 3288   1.399   3.110   1.509 -0.1110 -0.3549  0.1205
 1053SOL    HW1 3289   1.495   3.112   1.511 -0.0025 -0.3295 -2.2512
 1053SOL    HW2 3290   1.375   3.180   1.448 -1.6726 -0.1964  0.8766
 1054SOL     OW 3291   1.143   2.628   2.610  0.7071 -0.2852 -0.4057
 1054SOL    HW1 3292   1.049   2.614   2.614  0.9460 -2.7056 -1.4498
 1054SOL    HW2 3293   1.180   2.555   2.661  2.0544 -1.0359 -2.3371
 1055SOL     OW 3294   0.248   1.544   0.548  0.1456 -0.0696  0.0994
 1055SOL    HW1 3295   0.222   1.628   0.510  1.3159  0.3785  0.2435
 1055SOL    HW2 3296   0.166   1.501   0.571 -0.6200 -0.0623 -2.2726
 1056SOL     OW 3297   1.319   1.625   1.259 -0.5119 -0.8405 -0.2443
 1056SOL    HW1 3298   1.298   1.532   1.251  1.5992 -1.5893  1.6128
 1056SOL    HW2 3299   1.400   1.636   1.209 -1.2774  0.2495 -1.2768
 1057SOL     OW 3300   0.630   1.806   3.176  0.4407  0.0148  0.6276
 1057SOL    HW1 3301   0.575   1.831   3.103 -2.5382 -0.3919  2.5432
 1057SOL    HW2 3302   0.720   1.814   3.143 -0.6673  1.8683 -2.3309
 1058SOL     OW 3303   1.930   2.492   0.845 -0.3629  0.4717 -0.2993
 1058SOL    HW1 3304   1.921   2.430   0.772  1.0316  0.5113 -0.5301
 1058SOL    HW2 3305   2.019   2.476   0.879 -0.6383  1.1257  0.7781
 1059SOL     OW 3306   2.611   0.060   2.529  0.2560 -0.0026 -0.2587
 1059SOL    HW1 3307   2.595   0.139   2.478  0.3649  0.0113 -0.2718
 1059SOL    HW2 3308   2.700   0.071   2.563 -0.3989  0.7367  1.2922
 1060SOL     OW 3309   3.215   2.573   1.588 -0.3857  0.5485 -0.2469
 1060SOL    HW1 3310   3.175   2.593   1.503 -2.1369 -0.9914  0.1620
 1060SOL    HW2 3311   3.250   2.657   1.618 -0.1816  1.2257 -2.2389
 1061SOL     OW 3312   2.453   1.301   1.743  0.4161 -0.2636  0.1594
 1061SOL    HW1 3313   2.449   1.215   1.786  0.8532 -0.0736  0.5981
 1061SOL    HW2 3314   2.378   1.348   1.778 -0.0006 -0.5747 -0.3192
 1062SOL     OW 3315   0.369   0.143   3.321 -0.5871  0.1702  0.1832
 1062SOL    HW1 3316   0.389   0.219   3.375 -1.6806  0.0633  0.7675
 1062SOL    HW2 3317   0.382   0.068   3.379 -1.0596  0.0154  0.0988
 1063SOL     OW 3318   1.631   3.169   3.010  0.0291 -0.0385  0.0589
 1063SOL    HW1 3319   1.548   3.121   2.998 -0.9217  0.9947  2.0496
 1063SOL    HW2 3320   1.640   3.178   3.105  0.6431  2.8661 -0.1888
 1064SOL     OW 3321   1.103   0.834   0.186 -0.1600 -0.2396 -0.3185
 1064SOL    HW1 3322   1.145   0.764   0.235 -1.3648 -2.0160 -1.6874
 1064SOL    HW2 3323   1.034   0.867   0.244 -1.1354 -1.8481 -0.5162
 1065SOL     OW 3324   2.471   3.306   1.456 -0.8458  0.2074  0.2527
 1065SOL    HW1 3325   2.425   3.390   1.451 -1.9669 -0.3956  0.0859
 1065SOL    HW2 3326   2.401   3.242   1.469 -0.1405 -0.8712 -1.1083
 1066SOL     OW 3327   1.372   2.275   3.428 -0.0695  0.8589  0.7318
 1066SOL    HW1 3328   1.310   2.347   3.418 -0.4845  0.5022  0.6692
 1066SOL    HW2 3329   1.396   2.276   3.520 -1.0587  0.2980  1.0099
 1067SOL     OW 3330   2.831   1.782   1.415  0.6245 -0.8076 -0.1217
 1067SOL    HW1 3331   2.844   1.688   1.408  1.6336 -0.6235 -0.9108
 1067SOL    HW2 3332   2.917   1.817   1.438  0.0480 -0.1585  1.1849
 1068SOL     OW 3333   2.002   1.688   2.569 -0.3064 -0.4247  0.0335
 1068SOL    HW1 3334   2.008   1.775   2.529 -1.0207 -0.4544 -0.1569
 1068SOL    HW2 3335   2.072   1.686   2.634  0.4221 -0.1137 -0.7318
 1069SOL     OW 3336   2.299   1.370   1.005  0.1998  0.7518 -0.0755
 1069SOL    HW1 3337   2.390   1.342   0.991  0.2061 -0.6919  2.2725
 1069SOL    HW2 3338   2.247   1.292   0.986 -0.8551  2.1378 -3.4968
 1070SOL     OW 3339   1.990   3.344   1.443  0.1106 -0.0791 -0.6778
 1070SOL    HW1 3340   2.027   3.298   1.518 -0.2710 -0.3878 -0.6777
 1070SOL    HW2 3341   2.057   3.336   1.375 -0.5811 -2.0152 -1.1989
 1071SOL     OW 3342   1.065   0.466   3.131 -0.3788  0.1389 -0.7742
 1071SOL    HW1 3343   1.033   0.388   3.176 -1.5887  1.4881  0.8452
 1071SOL    HW2 3344   1.045   0.450   3.039  0.0097 -1.7225 -0.5686
 1072SOL     OW 3345   0.932   1.554   1.470  0.1159 -0.3793  0.7403
 1072SOL    HW1 3346   0.868   1.562   1.541 -1.0145 -1.6492 -0.0689
 1072SOL    HW2 3347   0.917   1.632   1.416 -1.7102 -1.2427 -0.1190
 1073SOL     OW 3348   0.931   0.337   2.669 -0.0905 -0.6043  0.7072
 1073SOL    HW1 3349   0.960   0.368   2.583 -1.0329  2.2532  1.3169
 1073SOL    HW2 3350   0.884   0.256   2.651 -1.9364  0.8808 -1.8064
 1074SOL     OW 3351   0.646   2.326   0.593  0.5413 -0.0136 -0.1808
 1074SOL    HW1 3352   0.550   2.334   0.590  0.4336  2.6311  3.3624
 1074SOL    HW2 3353   0.663   2.288   0.679  2.7013 -0.3529 -0.7190
 1075SOL     OW 3354   2.925   2.827   0.788 -0.2654  0.8992  0.0794
 1075SOL    HW1 3355   2.895   2.752   0.736 -1.5070  1.3745  0.0647
 1075SOL    HW2 3356   3.012   2.847   0.754 -0.3611  0.1404 -0.6492
 1076SOL     OW 3357   0.845   1.554   2.992  0.4395 -0.2118 -0.0708
 1076SOL    HW1 3358   0.927   1.511   3.015  0.5416 -1.1071 -1.9579
 1076SOL    HW2 3359   0.865   1.603   2.912 -0.1409  1.9581  1.0210
 1077SOL     OW 3360   1.941   3.269   0.382  0.3058  0.0003  0.0747
 1077SOL    HW1 3361   1.877   3.321   0.430 -0.0816 -0.7508  0.3949
 1077SOL    HW2 3362   1.909   3.270   0.292 -0.0125 -0.1420  0.1834
 1078SOL     OW 3363   2.843   1.160   0.328  0.0469  0.2380 -0.1831
 1078SOL    HW1 3364   2.808   1.200   0.248  0.3488 -0.9809 -0.9656
 1078SOL    HW2 3365   2.791   1.080   0.339 -0.1419  0.5042  0.9867
 1079SOL     OW 3366   1.178   0.899   2.546  0.4952 -0.2513  0.2627
 1079SOL    HW1 3367   1.195   0.843   2.622  0.2812  0.8351  1.1584
 1079SOL    HW2 3368   1.181   0.988   2.582 -0.3162  0.2582 -0.8739
 1080SOL     OW 3369   2.029   1.251   2.154  0.3698  0.3379 -0.3227
 1080SOL    HW1 3370   1.985   1.255   2.239 -0.3000 -2.1136 -0.4888
 1080SOL    HW2 3371   2.122   1.257   2.175  0.1367  2.3105  0.3161
 1081SOL     OW 3372   1.216   2.423   1.185 -0.0809  0.0811 -0.0857
 1081SOL    HW1 3373   1.310   2.427   1.166  0.6349 -3.0006  2.0579
 1081SOL    HW2 3374   1.203   2.483   1.258  0.4656 -0.3501  0.3681
 1082SOL     OW 3375   3.045   1.755   1.778 -0.1816  0.0266  0.2578
 1082SOL    HW1 3376   3.006   1.825   1.830 -2.2613 -0.6184 -0.3467
 1082SOL    HW2 3377   3.130   1.740   1.819 -0.6780  1.2661  1.8666
 1083SOL     OW 3378   0.614   0.529   0.098  0.5549  0.3583  0.7671
 1083SOL    HW1 3379   0.645   0.467   0.031 -0.3550 -0.5766  1.1950
 1083SOL    HW2 3380   0.565   0.475   0.160 -0.6334  1.5680  0.9208
 1084SOL     OW 3381   2.000   0.600   0.013 -0.1878  0.3215 -0.0199
 1084SOL    HW1 3382   1.916   0.604  -0.033  0.2277 -0.7490 -0.9082
 1084SOL    HW2 3383   2.016   0.691   0.042 -1.3389  0.6525 -0.3697
 1085SOL     OW 3384   1.914   2.213   0.242  0.5010  0.8629  0.3536
 1085SOL    HW1 3385   1.891   2.123   0.219 -0.2158  0.3391  2.8177
 1085SOL    HW2 3386   2.009   2.216   0.234  0.6596 -0.5047  1.3576
 1086SOL     OW 3387   2.598   1.023   2.887 -0.7456 -0.6224 -0.0762
 1086SOL    HW1 3388   2.553   1.091   2.936 -0.8237 -0.4816 -0.3411
 1086SOL    HW2 3389   2.686   1.058   2.871 -1.3500  0.2148 -1.8116
 1087SOL     OW 3390   2.034   3.135   1.674 -0.0840 -0.4326 -0.6831
 1087SOL    HW1 3391   2.007   3.161   1.762  0.0512  0.4064 -0.8860
 1087SOL    HW2 3392   1.973   3.065   1.650 -0.7512  0.0164 -0.3130
 1088SOL     OW 3393   0.206   0.630   1.299  0.3045  0.3152 -0.7084
 1088SOL    HW1 3394   0.240   0.633   1.209 -1.6999 -0.8112 -1.5684
 1088SOL    HW2 3395   0.231   0.543   1.330  1.0588  0.7314 -0.1159
 1089SOL     OW 3396  -0.008   1.488   1.295  0.8237 -0.0551 -0.9578
 1089SOL    HW1 3397   0.005   1.580   1.319  0.9166 -0.1457 -0.6647
 1089SOL    HW2 3398   0.059   1.440   1.344 -0.9783 -0.6048  1.1524
 1090SOL     OW 3399   0.905   0.267   3.230  0.4644 -0.3653 -0.0896
 1090SOL    HW1 3400   0.856   0.202   3.179  0.9208 -0.7763 -0.0123
 1090SOL    HW2 3401   0.997   0.241   3.219  0.5711 -0.4172  0.8800
 1091SOL     OW 3402   1.011   2.402   2.194  0.1974  0.9503 -0.1190
 1091SOL    HW1 3403   1.032   2.324   2.142 -1.2844 -0.3734  1.1646
 1091SOL    HW2 3404   0.974   2.463   2.131  1.6994  0.7762 -1.2154
 1092SOL     OW 3405   1.263   3.216   3.261  0.4030  0.3112  0.3596
 1092SOL    HW1 3406   1.332   3.150   3.258 -0.3147 -0.4352 -1.5981
 1092SOL    HW2 3407   1.191   3.177   3.211 -0.8140  1.7434  0.9213
 1093SOL     OW 3408   2.905   1.249   3.413  0.1705 -0.0354  0.0521
 1093SOL    HW1 3409   2.904   1.279   3.323 -1.9510  0.1868  0.0859
 1093SOL    HW2 3410   2.985   1.198   3.421 -0.6447 -1.9927 -2.6264
 1094SOL     OW 3411   1.292   0.824   0.434 -0.2246 -0.0743  0.6233
 1094SOL    HW1 3412   1.298   0.735   0.469  0.9832  0.1586  1.0510
 1094SOL    HW2 3413   1.378   0.862   0.452 -0.8259  1.2776  0.7007
 1095SOL     OW 3414   0.615   1.413   0.979 -0.0119  0.0893  0.0514
 1095SOL    HW1 3415   0.605   1.502   0.947  1.3668  0.3463  0.2543
 1095SOL    HW2 3416   0.562   1.409   1.058 -0.5459  0.5468 -0.2794
 1096SOL     OW 3417   1.379   2.624   0.521  0.1845 -0.0151  0.3694
 1096SOL    HW1 3418   1.376   2.550   0.582 -0.0959  1.5617  2.3662
 1096SOL    HW2 3419   1.443   2.597   0.455  1.2746 -1.4285  1.8970
 1097SOL     OW 3420   0.949   0.690   2.619 -0.0601 -0.3610 -0.2932
 1097SOL    HW1 3421   0.900   0.772   2.613 -0.1266 -0.3602  0.2296
 1097SOL    HW2 3422   0.892   0.626   2.575 -1.4678 -0.7737  1.9642
 1098SOL     OW 3423   2.820   1.817   0.834 -0.0139  0.1875  0.1683
 1098SOL    HW1 3424   2.898   1.861   0.867  0.1008  0.0516  0.0836
 1098SOL    HW2 3425   2.854   1.751   0.773 -0.1098 -0.7369  1.0813
 1099SOL     OW 3426   1.265   1.093   3.112  0.2366  0.1402  0.0577
 1099SOL    HW1 3427   1.260   1.004   3.077  0.6205  0.0777  0.1558
 1099SOL    HW2 3428   1.355   1.120   3.095 -0.1478  0.8807 -0.8752
 1100SOL     OW 3429   0.918   2.919   2.148 -0.4649 -0.0506  0.1559
 1100SOL    HW1 3430   0.983   2.927   2.078 -1.5519 -0.3659 -0.9161
 1100SOL    HW2 3431   0.960   2.862   2.212  1.1880  1.5390  0.5623
 1101SOL     OW 3432   2.194   3.111   2.284 -0.3133 -0.2446 -0.6584
 1101SOL    HW1 3433   2.214   3.033   2.336  1.4800  0.1452 -0.6917
 1101SOL    HW2 3434   2.168   3.077   2.199  0.1227 -0.8314 -0.5665
 1102SOL     OW 3435   0.384   1.552   1.510 -0.5388  0.0128  0.5184
 1102SOL    HW1 3436   0.459   1.600   1.546 -0.3843  0.0329  0.1775
 1102SOL    HW2 3437   0.359   1.491   1.579  0.8831 -1.2041  0.0004
 1103SOL     OW 3438   0.399   1.308   3.265  0.0904  0.1465  0.5703
 1103SOL    HW1 3439   0.361   1.267   3.187 -2.3679  3.0109  0.0875
 1103SOL    HW2 3440   0.484   1.342   3.235  0.2453 -0.8193 -0.1481
 1104SOL     OW 3441   2.254   0.807   0.947  0.2879 -0.1972  0.3728
 1104SOL    HW1 3442   2.336   0.856   0.950  1.0821 -1.5407  1.6806
 1104SOL    HW2 3443   2.280   0.717   0.933 -0.9460 -0.6924  1.0834
 1105SOL     OW 3444   2.873   3.453   3.505 -0.5150  0.0748  0.1808
 1105SOL    HW1 3445   2.898   3.368   3.467 -1.9644 -1.0690  1.6428
 1105SOL    HW2 3446   2.934   3.515   3.466  0.8070 -1.6813 -0.7149
 1106SOL     OW 3447   2.369   2.002   2.680 -0.4271  0.5667  0.0345
 1106SOL    HW1 3448   2.414   2.046   2.608  1.3214  1.5652  1.6365
 1106SOL    HW2 3449   2.336   2.074   2.735  0.2049 -0.1277  1.3581
 1107SOL     OW 3450   0.794   0.696   0.393  0.5359  0.5054 -1.4309
 1107SOL    HW1 3451   0.854   0.715   0.465 -0.0352  2.1131 -1.3442
 1107SOL    HW2 3452   0.787   0.600   0.393 -0.8524  0.4745  1.8270
 1108SOL     OW 3453   1.284   1.092   1.205  0.3778 -0.4310 -0.6633
 1108SOL    HW1 3454   1.283   1.136   1.290  0.0996  0.3610 -1.0770
 1108SOL    HW2 3455   1.293   0.999   1.227  1.0618 -0.1728  0.2105
 1109SOL     OW 3456   1.106   1.457   3.062 -0.7770 -0.7999 -0.7156
 1109SOL    HW1 3457   1.161   1.418   2.994 -1.8151 -0.2980 -1.8870
 1109SOL    HW2 3458   1.067   1.381   3.107 -0.0113 -1.1378 -0.6118
 1110SOL     OW 3459   0.475   1.045   3.152 -0.1127  0.3518 -0.4303
 1110SOL    HW1 3460   0.421   1.065   3.075  0.3284  1.2532 -0.5078
 1110SOL    HW2 3461   0.446   0.957   3.178 -2.2954  1.1651  0.1056
 1111SOL     OW 3462   0.970   1.064   2.179  0.0414 -0.3289  0.1254
 1111SOL    HW1 3463   0.883   1.070   2.140  0.0615  0.2816  0.1660
 1111SOL    HW2 3464   0.956   1.021   2.263 -0.2848  0.1466  0.3192
 1112SOL     OW 3465   2.532   3.295   2.161 -0.2698  0.2067  0.3888
 1112SOL    HW1 3466   2.591   3.338   2.223 -0.6179 -0.0320  0.8917
 1112SOL    HW2 3467   2.501   3.217   2.207  1.3253 -1.3210 -0.9512
 1113SOL     OW 3468   2.291   1.167   1.343 -0.2515  0.2488 -0.0302
 1113SOL    HW1 3469   2.310   1.160   1.436  1.3847  1.3025 -0.2472
 1113SOL    HW2 3470   2.195   1.159   1.338 -0.2048 -2.3863  1.4291
 1114SOL     OW 3471   1.503   2.626   2.068 -0.3623 -0.0191  0.5794
 1114SOL    HW1 3472   1.416   2.586   2.071 -0.8170  0.9695  2.5618
 1114SOL    HW2 3473   1.485   2.720   2.055  0.4971  0.0058 -0.5008
 1115SOL     OW 3474   1.787   0.384   2.675  0.4898 -0.3570  0.7313
 1115SOL    HW1 3475   1.745   0.436   2.743  0.6785 -0.3885  0.8724
 1115SOL    HW2 3476   1.863   0.436   2.648  1.1804 -0.9361  1.4795
 1116SOL     OW 3477   2.318   0.940   3.270  0.2047 -0.3188 -0.0774
 1116SOL    HW1 3478   2.278   0.990   3.341  0.5653  1.5449 -1.1277
 1116SOL    HW2 3479   2.248   0.926   3.207  0.1798 -0.8829  0.0725
 1117SOL     OW 3480   1.972   1.991   0.411 -0.2204 -0.3768 -0.3739
 1117SOL    HW1 3481   1.963   2.086   0.404  1.5990 -0.2784 -2.1661
 1117SOL    HW2 3482   1.956   1.973   0.503  1.2062  1.9100  0.4174
 1118SOL     OW 3483   2.829   2.259   1.927 -0.2059 -0.0426  0.1077
 1118SOL    HW1 3484   2.864   2.302   1.849 -0.1390 -1.9575 -0.9729
 1118SOL    HW2 3485   2.897   2.272   1.994  0.6704 -0.1043 -0.7453
 1119SOL     OW 3486   3.300   3.229   2.347 -0.0201 -0.2433  0.0765
 1119SOL    HW1 3487   3.309   3.291   2.420 -1.9091  0.2140  0.0004
 1119SOL    HW2 3488   3.341   3.149   2.378 -1.0821 -0.1705  1.8195
 1120SOL     OW 3489   2.830   2.620   0.652  0.3103 -0.2157  0.1456
 1120SOL    HW1 3490   2.798   2.530   0.667 -3.7516  1.1438  1.0052
 1120SOL    HW2 3491   2.870   2.616   0.565  0.1107 -2.8399  0.0841
 1121SOL     OW 3492   2.861   1.056   1.012 -0.1944 -0.3004  0.0456
 1121SOL    HW1 3493   2.805   1.012   0.948 -1.2198 -0.9030  1.3065
 1121SOL    HW2 3494   2.820   1.142   1.025 -1.0419 -0.8446  1.1736
 1122SOL     OW 3495   0.653   2.540   0.435  0.3747  0.4591  0.2903
 1122SOL    HW1 3496   0.607   2.602   0.491  0.8596  1.0332  0.0502
 1122SOL    HW2 3497   0.673   2.466   0.492 -0.5910  0.3180  0.4713
 1123SOL     OW 3498   0.097   0.135   1.150 -0.0421  0.1373 -0.1243
 1123SOL    HW1 3499   0.076   0.060   1.095 -0.1215  1.1103 -1.4813
 1123SOL    HW2 3500   0.186   0.160   1.126 -0.7987  1.8453 -1.4191
 1124SOL     OW 3501   0.747   1.282   2.815 -0.0423  0.0736 -0.4908
 1124SOL    HW1 3502   0.684   1.354   2.810 -1.8946 -1.3813  0.5650
 1124SOL    HW2 3503   0.741   1.251   2.905 -1.2445 -2.9971 -1.4905
 1125SOL     OW 3504   0.497   0.640   2.920 -0.4040  0.0238 -0.6407
 1125SOL    HW1 3505   0.483   0.708   2.987  0.2447  0.1589 -0.6369
 1125SOL    HW2 3506   0.455   0.562   2.956  3.6716 -1.2215  2.1108
 1126SOL     OW 3507   1.718   0.696   2.358 -0.1302  0.1532  0.3487
 1126SOL    HW1 3508   1.663   0.633   2.404 -0.2411 -0.8341 -1.0475
 1126SOL    HW2 3509   1.660   0.735   2.292  0.2581  0.8000  0.3828
 1127SOL     OW 3510   1.716   2.242   1.464  1.0196  0.7944 -0.2490
 1127SOL    HW1 3511   1.634   2.284   1.438  0.5408  0.8616  1.2592
 1127SOL    HW2 3512   1.697   2.202   1.549  2.1319 -0.4826 -0.5566
 1128SOL     OW 3513   0.569   3.223   1.116 -0.6851 -0.2268  0.7296
 1128SOL    HW1 3514   0.510   3.172   1.172  0.5396 -0.7620  1.5627
 1128SOL    HW2 3515   0.643   3.164   1.099  0.9548  1.3821  2.0404
 1129SOL     OW 3516   0.814   1.660   0.846 -0.3712  0.4785  0.3742
 1129SOL    HW1 3517   0.885   1.711   0.809  0.7053 -0.8757  0.5049
 1129SOL    HW2 3518   0.819   1.575   0.802 -1.5351  0.1510  0.8158
 1130SOL     OW 3519   2.288   2.432   1.686 -0.1853 -0.0108 -1.2030
 1130SOL    HW1 3520   2.221   2.365   1.702  0.7363 -0.6387  0.2022
 1130SOL    HW2 3521   2.344   2.395   1.619  0.5777 -0.8659 -0.1145
 1131SOL     OW 3522   2.323   0.031   1.431 -0.3750 -0.2901  0.6707
 1131SOL    HW1 3523   2.378   0.092   1.479  2.7674 -2.2424 -0.1183
 1131SOL    HW2 3524   2.246   0.020   1.486 -0.9096  3.8526  1.0721
 1132SOL     OW 3525   3.340   1.673   1.527 -0.4266  0.2289  0.5661
 1132SOL    HW1 3526   3.434   1.671   1.507 -0.5549 -1.1880 -0.0527
 1132SOL    HW2 3527   3.335   1.700   1.618  0.7106 -1.3654  1.1397
 1133SOL     OW 3528   2.345   2.075   2.176 -0.4477  0.3272 -0.3223
 1133SOL    HW1 3529   2.325   2.009   2.109 -1.1063 -0.3488  0.5092
 1133SOL    HW2 3530   2.298   2.153   2.147 -2.3694 -0.5234  0.3125
 1134SOL     OW 3531   2.991   2.073   1.576 -0.1189  0.1709  0.1645
 1134SOL    HW1 3532   3.037   1.989   1.570  0.3405  0.3161  1.3579
 1134SOL    HW2 3533   2.970   2.095   1.485  2.2418  0.1356 -0.4484
 1135SOL     OW 3534   1.800   1.520   1.602 -0.0760 -0.3590  0.2292
 1135SOL    HW1 3535   1.815   1.614   1.586 -0.7097 -0.0414  1.3977
 1135SOL    HW2 3536   1.723   1.518   1.658 -0.9523 -1.6645 -0.9888
 1136SOL     OW 3537   2.978   0.383   1.262  0.4268  0.2437  0.5356
 1136SOL    HW1 3538   2.901   0.439   1.272 -1.3912 -2.2056  1.4025
 1136SOL    HW2 3539   2.946   0.308   1.211  2.4847 -0.4533  0.1923
 1137SOL     OW 3540   1.295   0.059   1.183  0.2072  0.5424  0.0156
 1137SOL    HW1 3541   1.201   0.059   1.165 -0.2200  0.0391  2.0036
 1137SOL    HW2 3542   1.322   0.149   1.168 -0.6258  0.7217 -0.4639
 1138SOL     OW 3543   0.244   1.900   3.078 -0.1237 -0.1654  0.0464
 1138SOL    HW1 3544   0.292   1.841   3.136 -0.4939 -0.0109  0.5164
 1138SOL    HW2 3545   0.249   1.985   3.122  1.2495  0.3847 -1.1042
 1139SOL     OW 3546   2.715   1.294   0.077  0.6437  0.2910 -0.0111
 1139SOL    HW1 3547   2.790   1.302   0.019  2.8527  1.0081  2.7146
 1139SOL    HW2 3548   2.688   1.384   0.095 -1.2233  0.0455 -1.2584
 1140SOL     OW 3549   2.893   0.233   2.675 -0.1532  0.3583 -0.7595
 1140SOL    HW1 3550   2.833   0.177   2.724 -0.4358  0.1390 -1.3325
 1140SOL    HW2 3551   2.873   0.322   2.704  0.3486  0.1632  0.2110
 1141SOL     OW 3552   1.689   3.139   3.285  0.6387  0.6726 -0.1724
 1141SOL    HW1 3553   1.603   3.099   3.276  0.9916 -0.2613  0.4890
 1141SOL    HW2 3554   1.743   3.072   3.326  1.8168  1.0697 -1.0080
 1142SOL     OW 3555   0.383   2.161   2.052 -0.0452 -0.1416 -0.0109
 1142SOL    HW1 3556   0.397   2.072   2.083  1.7891 -0.0874 -0.5384
 1142SOL    HW2 3557   0.323   2.200   2.116 -0.8197 -1.7199  0.2505
 1143SOL     OW 3558   3.105   1.667   1.111  0.6339 -0.2920  0.2992
 1143SOL    HW1 3559   3.073   1.751   1.142  0.9720 -0.7043  1.8522
 1143SOL    HW2 3560   3.031   1.630   1.062  0.4115  0.7905 -0.2197
 1144SOL     OW 3561   0.178   1.692   0.813  0.6459 -0.1560 -0.1915
 1144SOL    HW1 3562   0.135   1.651   0.889 -0.0351 -0.0721 -0.5259
 1144SOL    HW2 3563   0.142   1.645   0.738  1.6865 -0.5754 -0.4488
 1145SOL     OW 3564   1.579   0.507   2.484 -0.8658 -0.4443  0.0619
 1145SOL    HW1 3565   1.493   0.466   2.476 -0.3491 -1.6868  0.6165
 1145SOL    HW2 3566   1.641   0.434   2.485  0.1876  0.4137 -0.1015
 1146SOL     OW 3567   1.452   2.997   3.288  0.1398  0.0725  0.1487
 1146SOL    HW1 3568   1.413   2.928   3.234 -0.9573  1.0394 -0.3477
 1146SOL    HW2 3569   1.458   2.959   3.375  0.9334 -1.1467 -0.4110
 1147SOL     OW 3570   1.877   3.254   2.131  0.4177 -0.0007  0.3909
 1147SOL    HW1 3571   1.839   3.209   2.206 -0.3669 -0.3740 -0.2065
 1147SOL    HW2 3572   1.841   3.207   2.055  1.9366 -0.2407 -0.2146
 1148SOL     OW 3573   3.361   1.318   1.893 -0.2985  0.6309 -0.1641
 1148SOL    HW1 3574   3.314   1.329   1.810 -1.1208  0.7046  0.2964
 1148SOL    HW2 3575   3.317   1.245   1.937  1.6041 -0.9577 -0.7723
 1149SOL     OW 3576   2.715   0.420   2.218 -0.2871 -0.0961  0.2455
 1149SOL    HW1 3577   2.700   0.325   2.225 -3.0418  0.3751  2.7119
 1149SOL    HW2 3578   2.643   0.452   2.165 -1.1786  0.9024  1.9616
 1150SOL     OW 3579   1.043   1.677   1.810  0.0374  0.3065  0.2380
 1150SOL    HW1 3580   0.970   1.653   1.754  0.2516  0.4629 -0.1111
 1150SOL    HW2 3581   1.086   1.749   1.764  0.8908 -0.3084  0.0372
 1151SOL     OW 3582   2.368   0.905   2.754 -0.2212 -0.1503 -0.0967
 1151SOL    HW1 3583   2.283   0.905   2.799 -0.2644  0.2726 -0.1742
 1151SOL    HW2 3584   2.429   0.941   2.819 -0.1316 -0.2946 -0.1003
 1152SOL     OW 3585   1.303   2.189   2.869 -0.8179  0.5713  0.0692
 1152SOL    HW1 3586   1.367   2.201   2.938  1.1230 -1.7059 -1.2033
 1152SOL    HW2 3587   1.242   2.123   2.903 -0.5698  0.3392  0.0627
 1153SOL     OW 3588   1.528   2.670   2.624  0.2363  0.1619 -0.2028
 1153SOL    HW1 3589   1.502   2.596   2.678 -0.6251 -2.2999 -3.6585
 1153SOL    HW2 3590   1.624   2.665   2.620  0.5640  1.8511  2.7856
 1154SOL     OW 3591   2.559   1.600   1.547 -0.4166  0.4694 -0.4461
 1154SOL    HW1 3592   2.486   1.555   1.505 -1.4063  1.9143 -0.3394
 1154SOL    HW2 3593   2.617   1.624   1.474 -0.1288 -0.4965 -0.5506
 1155SOL     OW 3594   2.105   3.293   1.939 -0.0821  0.0046 -0.0875
 1155SOL    HW1 3595   2.045   3.320   2.009 -0.3322 -1.4291  0.2926
 1155SOL    HW2 3596   2.191   3.322   1.969 -0.1440 -0.8493  0.9871
 1156SOL     OW 3597   3.131   0.210   0.574  0.4163 -0.2098  0.1117
 1156SOL    HW1 3598   3.184   0.185   0.499  1.1995 -0.3657  0.7050
 1156SOL    HW2 3599   3.099   0.298   0.553  0.5076 -0.3138 -0.4657
 1157SOL     OW 3600   3.154   1.997   0.284  0.4109  0.2110  0.1013
 1157SOL    HW1 3601   3.111   1.923   0.327  1.9777 -1.2352 -0.6930
 1157SOL    HW2 3602   3.096   2.019   0.211  0.6611 -1.2846 -0.5848
 1158SOL     OW 3603   1.569   3.407   1.478  0.2551  0.1365  0.5211
 1158SOL    HW1 3604   1.647   3.452   1.447  0.1778  0.2712  0.5182
 1158SOL    HW2 3605   1.515   3.394   1.399  0.3490 -0.1074  0.4960
 1159SOL     OW 3606   3.336   2.947   1.950  0.3548  0.4285  0.2112
 1159SOL    HW1 3607   3.367   3.024   1.997  0.3355  0.5720 -0.0091
 1159SOL    HW2 3608   3.294   2.893   2.017  1.7567 -0.1437  0.6746
 1160SOL     OW 3609   2.146   1.712   3.319 -0.4277  0.1261 -0.5388
 1160SOL    HW1 3610   2.168   1.628   3.278 -0.3791 -0.5869  0.8693
 1160SOL    HW2 3611   2.213   1.723   3.387 -1.6784  0.2218  0.7185
 1161SOL     OW 3612   1.482   2.377   1.718 -0.0658 -0.7602 -0.0897
 1161SOL    HW1 3613   1.516   2.464   1.696 -1.3909 -0.3025 -0.4254
 1161SOL    HW2 3614   1.466   2.335   1.633 -1.4319 -0.5123  0.0328
 1162SOL     OW 3615   0.254   0.436   0.319  0.1157 -0.0996  0.1858
 1162SOL    HW1 3616   0.243   0.517   0.269  0.3798 -0.0338  0.2312
 1162SOL    HW2 3617   0.296   0.464   0.400  0.2839 -0.2927  0.1663
 1163SOL     OW 3618   1.703   2.107   2.337  0.0081  0.2011  0.1734
 1163SOL    HW1 3619   1.792   2.141   2.328  0.1248 -0.0851  0.2404
 1163SOL    HW2 3620   1.709   2.041   2.407  0.2260 -1.4611 -1.3305
 1164SOL     OW 3621   1.216   2.840   0.725 -0.0591  0.2449  0.5452
 1164SOL    HW1 3622   1.296   2.842   0.673  1.7285 -0.4168  3.0469
 1164SOL    HW2 3623   1.183   2.930   0.722  1.6374  0.9053  0.6106
 1165SOL     OW 3624   0.292   1.799   1.273 -0.1773  0.9943 -0.2224
 1165SOL    HW1 3625   0.322   1.731   1.212 -0.2662  0.3505  0.4246
 1165SOL    HW2 3626   0.357   1.797   1.344 -0.6544  0.9657  0.2239
 1166SOL     OW 3627   1.720   1.699   0.892  0.2423  0.1833  0.0678
 1166SOL    HW1 3628   1.666   1.622   0.877 -0.6306  0.7497  0.1987
 1166SOL    HW2 3629   1.678   1.767   0.839 -0.1314  1.0367  1.4071
 1167SOL     OW 3630   1.289   1.521   0.074  0.4274 -0.5953  0.1245
 1167SOL    HW1 3631   1.359   1.457   0.070  0.3605 -0.6712 -3.8204
 1167SOL    HW2 3632   1.211   1.474   0.046 -0.0042  0.6820 -0.9732
 1168SOL     OW 3633   3.317   0.648   1.945 -0.3974  0.3204  0.6437
 1168SOL    HW1 3634   3.243   0.600   1.907 -1.1400  1.3786  0.7055
 1168SOL    HW2 3635   3.313   0.626   2.038 -0.3011 -0.0452  0.5646
 1169SOL     OW 3636   0.882   2.532   1.755 -0.1380  0.4272 -0.8390
 1169SOL    HW1 3637   0.870   2.453   1.703  1.5707  0.6686 -1.6773
 1169SOL    HW2 3638   0.878   2.604   1.691 -1.7690  1.0736 -0.0813
 1170SOL     OW 3639   2.501   3.298   3.209 -0.7363 -0.5732 -0.3776
 1170SOL    HW1 3640   2.448   3.378   3.209 -1.1853 -0.8551  0.7795
 1170SOL    HW2 3641   2.474   3.251   3.288 -0.0278 -1.5742 -0.7135
 1171SOL     OW 3642   2.584   2.789   0.494  0.6633  0.7500 -0.3251
 1171SOL    HW1 3643   2.563   2.803   0.587 -0.0286  0.0925 -0.3673
 1171SOL    HW2 3644   2.502   2.808   0.449  0.7501  0.2281 -0.7145
 1172SOL     OW 3645   1.269   2.741   2.836  0.3569 -0.1860 -0.0160
 1172SOL    HW1 3646   1.328   2.812   2.811 -3.0668  3.7182  1.6933
 1172SOL    HW2 3647   1.228   2.713   2.753  0.0509  1.6580 -0.5338
 1173SOL     OW 3648   2.658   0.815   1.379  0.2126 -0.2268  0.3484
 1173SOL    HW1 3649   2.670   0.875   1.453  0.1089 -1.7440  1.6406
 1173SOL    HW2 3650   2.661   0.728   1.418  2.1644 -1.1717 -1.7275
 1174SOL     OW 3651   0.637   1.978   0.415 -0.2491 -0.3639 -0.5942
 1174SOL    HW1 3652   0.589   1.900   0.386 -0.8622 -0.6280  1.0560
 1174SOL    HW2 3653   0.701   1.944   0.477  0.4940  0.2866 -0.9917
 1175SOL     OW 3654   1.842   2.493   2.496  0.1370  0.2201  0.1496
 1175SOL    HW1 3655   1.769   2.506   2.436  1.2561  3.2930 -0.7201
 1175SOL    HW2 3656   1.916   2.470   2.439  0.6099  0.5485  0.6131
 1176SOL     OW 3657   1.080   2.153   3.230  0.1289 -0.0176  0.3485
 1176SOL    HW1 3658   0.991   2.135   3.259  0.4917 -2.9114 -0.0299
 1176SOL    HW2 3659   1.097   2.243   3.258 -2.2626  0.0076  1.9855
 1177SOL     OW 3660   2.334   2.784   0.339 -0.3252  0.0480  0.3354
 1177SOL    HW1 3661   2.377   2.736   0.268 -0.2567 -2.6206  2.0258
 1177SOL    HW2 3662   2.240   2.778   0.318 -0.2140  0.9172 -0.4584
 1178SOL     OW 3663   3.508   0.015   2.209  0.1474 -0.3964  0.0732
 1178SOL    HW1 3664   3.424  -0.004   2.167  0.7998 -1.0501 -1.0154
 1178SOL    HW2 3665   3.532   0.102   2.178  0.8471 -1.0646 -1.3524
 1179SOL     OW 3666   2.172   1.570   2.827 -0.0513  0.4598 -0.3439
 1179SOL    HW1 3667   2.265   1.560   2.843 -0.1540 -0.4167 -0.2378
 1179SOL    HW2 3668   2.153   1.511   2.754 -0.5696  0.4248 -0.1859
 1180SOL     OW 3669   0.109   2.379   2.345 -0.0480 -0.4688  0.3140
 1180SOL    HW1 3670   0.110   2.322   2.268  3.7210 -1.8920  1.1672
 1180SOL    HW2 3671   0.175   2.446   2.326 -0.2345  0.1207  1.6427
 1181SOL     OW 3672   0.254   1.918   2.124 -0.1865 -0.1788  0.3230
 1181SOL    HW1 3673   0.296   1.869   2.195  1.3136 -0.5524 -0.7487
 1181SOL    HW2 3674   0.188   1.859   2.090  1.7022 -1.6253 -1.0518
 1182SOL     OW 3675   1.863   2.746   0.955  0.3893  0.1647  0.6532
 1182SOL    HW1 3676   1.920   2.798   0.897 -0.7985  2.0656  1.1032
 1182SOL    HW2 3677   1.881   2.655   0.931  0.4376  0.8398 -2.2684
 1183SOL     OW 3678   2.481   1.075   1.920  0.5415 -0.2444  0.6883
 1183SOL    HW1 3679   2.388   1.050   1.925  0.6840 -1.0004 -0.0981
 1183SOL    HW2 3680   2.491   1.145   1.983 -0.4319 -0.5956  1.2460
 1184SOL     OW 3681   1.505   3.456   2.166 -0.5653 -0.1465 -0.6472
 1184SOL    HW1 3682   1.431   3.512   2.146  0.2520  0.3966 -2.4602
 1184SOL    HW2 3683   1.565   3.468   2.091  1.4649 -0.3468  0.8508
 1185SOL     OW 3684   3.206   3.338   2.881  0.4794 -0.0243  0.0334
 1185SOL    HW1 3685   3.276   3.404   2.881  2.4341 -1.9645  0.5389
 1185SOL    HW2 3686   3.207   3.302   2.792 -0.9902  0.9606 -0.4200
 1186SOL     OW 3687   0.150   0.798   2.482  0.2528  0.5698  0.1147
 1186SOL    HW1 3688   0.233   0.806   2.529  0.3633  0.8615 -0.1275
 1186SOL    HW2 3689   0.123   0.888   2.465 -0.5171  0.4968  0.8849
 1187SOL     OW 3690   1.264   0.472   2.364  0.2791 -0.4076 -0.1124
 1187SOL    HW1 3691   1.262   0.565   2.346 -0.0415 -0.3140  0.3816
 1187SOL    HW2 3692   1.249   0.430   2.279 -1.1499  0.0150 -0.0844
 1188SOL     OW 3693   3.444   1.888   3.137 -0.4863 -1.0086 -0.0699
 1188SOL    HW1 3694   3.385   1.833   3.188 -2.0063  0.4950 -0.1243
 1188SOL    HW2 3695   3.502   1.928   3.202 -1.8745  0.2532  0.4441
 1189SOL     OW 3696   2.501   0.258   0.815  0.1122  0.2755  0.1318
 1189SOL    HW1 3697   2.460   0.311   0.746 -2.4190  0.3995  1.6267
 1189SOL    HW2 3698   2.434   0.250   0.883  1.6306 -1.9592  1.5040
 1190SOL     OW 3699   0.507   1.920   1.449 -0.1786 -0.1002 -0.4343
 1190SOL    HW1 3700   0.559   1.958   1.378  0.5500  1.1294  0.6923
 1190SOL    HW2 3701   0.421   1.961   1.440  0.1799  0.7473 -0.0870
 1191SOL     OW 3702   2.417   1.788   2.848  0.6166  0.0075  0.3652
 1191SOL    HW1 3703   2.349   1.825   2.903 -0.7391  1.0291 -1.8734
 1191SOL    HW2 3704   2.457   1.863   2.804  0.7355 -0.8132 -1.0196
 1192SOL     OW 3705   0.621   0.565   2.455  0.7388  0.6338 -0.7267
 1192SOL    HW1 3706   0.623   0.625   2.530  1.1899  0.0998 -0.3072
 1192SOL    HW2 3707   0.619   0.623   2.379  1.6470  1.1870 -0.3430
 1193SOL     OW 3708   2.948   1.985   1.909  0.2114 -0.0808 -0.2941
 1193SOL    HW1 3709   2.907   2.027   1.986  1.0692  0.8884 -0.3385
 1193SOL    HW2 3710   2.994   2.057   1.866  0.0919 -0.7116 -1.4884
 1194SOL     OW 3711   1.487   1.417   3.315 -0.3151 -0.2066  0.1330
 1194SOL    HW1 3712   1.563   1.360   3.307  0.9414  1.2938  0.7931
 1194SOL    HW2 3713   1.422   1.364   3.361  1.1414 -0.8400  1.5748
 1195SOL     OW 3714   3.063   1.031   0.435  0.5104  0.6879  0.3218
 1195SOL    HW1 3715   3.040   1.023   0.528 -0.7719 -2.6120 -0.1594
 1195SOL    HW2 3716   2.985   1.072   0.395 -1.0128 -2.2130  0.0863
 1196SOL     OW 3717   2.248   1.917   0.160  0.7979 -0.1310  0.2927
 1196SOL    HW1 3718   2.198   1.843   0.192  0.9493 -0.5815 -0.4909
 1196SOL    HW2 3719   2.334   1.881   0.138  1.6585  0.7071  2.0466
 1197SOL     OW 3720   0.520   3.505   0.861  0.1763  0.5628 -0.4302
 1197SOL    HW1 3721   0.518   3.531   0.953  0.5662 -1.4803  0.1977
 1197SOL    HW2 3722   0.576   3.428   0.858  0.6444  0.9056 -2.4939
 1198SOL     OW 3723   0.392   1.861   1.813  0.0691 -0.3019  0.0663
 1198SOL    HW1 3724   0.437   1.933   1.768 -0.5321  0.0336 -0.0088
 1198SOL    HW2 3725   0.406   1.878   1.906  0.8229 -0.6761  0.0254
 1199SOL     OW 3726   2.361   2.046   0.766  0.7106 -0.0180  0.2619
 1199SOL    HW1 3727   2.291   2.001   0.719  0.3658  1.0981 -0.3391
 1199SOL    HW2 3728   2.410   1.976   0.809  0.1978 -0.9556 -0.6313
 1200SOL     OW 3729   0.056   2.804   1.607 -0.0610 -0.3868  0.1405
 1200SOL    HW1 3730   0.119   2.747   1.651  0.4637  0.1929  0.1523
 1200SOL    HW2 3731   0.016   2.748   1.540  0.7874 -0.6398 -0.1588
 1201SOL     OW 3732   3.378   2.868   1.032  0.1761 -0.3921 -0.1541
 1201SOL    HW1 3733   3.454   2.903   1.078  0.1419 -2.8864  2.0882
 1201SOL    HW2 3734   3.310   2.860   1.099 -1.3505 -0.2905 -1.6066
 1202SOL     OW 3735   2.092   1.410   0.583  0.1916 -0.1270  0.1841
 1202SOL    HW1 3736   2.176   1.374   0.552  0.3000  0.1272  0.1820
 1202SOL    HW2 3737   2.057   1.342   0.641 -1.3580 -1.9229 -2.6231
 1203SOL     OW 3738   2.992   3.034   1.366  0.4199  0.5633 -0.0954
 1203SOL    HW1 3739   2.991   3.103   1.432 -0.1383 -0.3073  0.8293
 1203SOL    HW2 3740   2.904   3.036   1.327 -0.2634 -0.8325  1.2609
 1204SOL     OW 3741   1.032   1.855   0.155  0.5264  1.0349  0.3011
 1204SOL    HW1 3742   1.116   1.833   0.196 -0.9887 -0.6369  2.7346
 1204SOL    HW2 3743   0.985   1.773   0.151 -0.6033  1.6936 -2.2447
 1205SOL     OW 3744   3.137   3.347   0.652 -0.3814  0.0945 -0.1929
 1205SOL    HW1 3745   3.170   3.405   0.584 -1.0258 -2.1602 -2.6085
 1205SOL    HW2 3746   3.210   3.287   0.669  0.2170  1.3737  2.1384
 1206SOL     OW 3747   1.641   0.335   0.013 -0.2219 -0.7795  0.2928
 1206SOL    HW1 3748   1.567   0.327  -0.047  1.0448  0.0702 -1.4854
 1206SOL    HW2 3749   1.642   0.252   0.061 -0.2729 -2.3335 -2.1568
 1207SOL     OW 3750   2.229   0.982   1.548 -0.4048 -0.1675  0.4264
 1207SOL    HW1 3751   2.222   0.932   1.630  0.2216 -2.1380 -0.6503
 1207SOL    HW2 3752   2.147   0.963   1.502 -1.0063  1.3927  0.7954
 1208SOL     OW 3753   2.695   3.136   1.918  0.2250 -0.3657  0.4732
 1208SOL    HW1 3754   2.685   3.107   2.009 -1.9062  2.1829  1.1794
 1208SOL    HW2 3755   2.723   3.227   1.926  2.4989 -0.7803 -1.5526
 1209SOL     OW 3756   1.753   0.884   0.346  0.2336  0.1556  0.2392
 1209SOL    HW1 3757   1.783   0.915   0.431  2.8142  1.7194 -1.1278
 1209SOL    HW2 3758   1.739   0.790   0.358  1.4725  0.1708  2.1331
 1210SOL     OW 3759   2.249   0.380   1.455 -0.8770  0.4090 -0.8917
 1210SOL    HW1 3760   2.261   0.342   1.542  4.3679  1.0433 -1.0401
 1210SOL    HW2 3761   2.199   0.460   1.471  0.0030  0.5636  1.6003
 1211SOL     OW 3762   1.353   1.957   0.083  0.5921  0.1440  0.0636
 1211SOL    HW1 3763   1.293   1.906   0.137 -0.3330  1.2245  0.0925
 1211SOL    HW2 3764   1.347   1.917  -0.004 -0.6555  0.5975 -0.0817
 1212SOL     OW 3765   0.065   1.452   3.044 -0.5414  0.0312 -0.4128
 1212SOL    HW1 3766   0.127   1.460   3.117 -0.9233 -1.7744  0.1406
 1212SOL    HW2 3767   0.038   1.542   3.026  0.2340  0.5955  1.0870
 1213SOL     OW 3768   2.474   3.114   0.601 -0.0175  0.1402  0.3310
 1213SOL    HW1 3769   2.527   3.052   0.651 -1.5312 -1.6953 -0.2050
 1213SOL    HW2 3770   2.484   3.197   0.646  2.4099 -0.3826  0.8525
 1214SOL     OW 3771   0.892   0.531   1.727 -0.7931 -0.6594 -0.2655
 1214SOL    HW1 3772   0.968   0.472   1.718  0.4522  1.0884 -2.1556
 1214SOL    HW2 3773   0.829   0.497   1.663 -0.5581 -0.6246 -0.5182
 1215SOL     OW 3774   1.436   2.617   3.227 -0.0676 -0.0382  0.1470
 1215SOL    HW1 3775   1.430   2.547   3.292 -3.3898 -1.0283 -1.0379
 1215SOL    HW2 3776   1.528   2.614   3.198  0.0651 -3.6455  0.4690
 1216SOL     OW 3777   1.864   0.584   3.064 -0.1955  0.4376  0.3325
 1216SOL    HW1 3778   1.821   0.626   2.989 -0.3595 -0.5032 -0.1042
 1216SOL    HW2 3779   1.955   0.574   3.037 -1.0738 -4.3390 -1.8459
 1217SOL     OW 3780   3.076   3.201   1.075  1.3748 -0.6318  0.6838
 1217SOL    HW1 3781   3.047   3.165   1.159 -1.4442 -0.3951 -0.0946
 1217SOL    HW2 3782   3.013   3.271   1.055  1.9420 -0.6947 -1.6404
 1218SOL     OW 3783   3.109   3.064   3.190 -0.3788 -0.0208  0.8845
 1218SOL    HW1 3784   3.171   3.003   3.231 -0.1184  0.6692  1.5271
 1218SOL    HW2 3785   3.156   3.099   3.114 -0.6494 -0.8578  0.3174
 1219SOL     OW 3786   1.910   0.086   2.007  0.0674 -0.0988 -0.1319
 1219SOL    HW1 3787   1.930   0.039   2.088 -0.6332  0.3202  0.2922
 1219SOL    HW2 3788   1.980   0.060   1.946  0.0040 -1.2593  0.2631
 1220SOL     OW 3789   0.203   1.494   3.285  0.2573 -0.2371  0.0174
 1220SOL    HW1 3790   0.262   1.421   3.304 -1.3919 -1.9222 -0.9530
 1220SOL    HW2 3791   0.147   1.499   3.363  1.7142  1.4796  1.0181
 1221SOL     OW 3792   2.272   3.371   3.410 -0.3182  0.9406  0.2182
 1221SOL    HW1 3793   2.211   3.397   3.341 -0.3463  0.2739 -0.0173
 1221SOL    HW2 3794   2.269   3.443   3.473 -1.2505  0.9808  0.1442
 1222SOL     OW 3795   2.951   1.665   0.641 -0.0699  0.0585 -0.1740
 1222SOL    HW1 3796   3.035   1.662   0.686 -0.5588 -0.2599  0.7414
 1222SOL    HW2 3797   2.917   1.576   0.647 -0.5332  0.2136 -0.4274
 1223SOL     OW 3798   2.745   0.637   1.634 -0.0099 -0.6997 -0.0474
 1223SOL    HW1 3799   2.765   0.626   1.727 -1.4687  0.4237  0.4471
 1223SOL    HW2 3800   2.828   0.663   1.595  0.8816 -2.2822  0.7086
 1224SOL     OW 3801   0.388   0.666   1.937  0.7828  0.9066  0.3567
 1224SOL    HW1 3802   0.411   0.686   2.028 -0.3218 -0.3490  0.9432
 1224SOL    HW2 3803   0.295   0.644   1.940  1.1700 -1.0943 -0.7371
 1225SOL     OW 3804   1.059   2.493   0.944  0.6758  0.6656 -0.1389
 1225SOL    HW1 3805   1.076   2.409   0.902 -0.3130  0.9239 -1.1214
 1225SOL    HW2 3806   1.092   2.483   1.033 -2.1473 -1.8898  0.8033
 1226SOL     OW 3807   1.929   1.449   1.940 -0.1913  0.6768  0.1562
 1226SOL    HW1 3808   1.952   1.408   1.856 -1.6088 -0.2957  0.2117
 1226SOL    HW2 3809   1.999   1.421   1.999 -1.6329 -2.7101  0.4807
 1227SOL     OW 3810   1.702   0.155   1.656  0.1734 -0.0535  0.2529
 1227SOL    HW1 3811   1.736   0.114   1.577 -2.6503 -0.9004 -0.6453
 1227SOL    HW2 3812   1.607   0.145   1.649 -0.8745  6.0574  0.2614
 1228SOL     OW 3813   1.904   3.455   3.533  0.8935  0.3122 -0.2933
 1228SOL    HW1 3814   1.918   3.364   3.560  0.1793  0.6061  1.1595
 1228SOL    HW2 3815   1.896   3.450   3.437  0.7039 -1.1724 -0.2310
 1229SOL     OW 3816   0.026   1.698   2.933  0.1202 -0.1427 -0.0540
 1229SOL    HW1 3817   0.000   1.733   2.847 -1.5369  1.7183  1.1248
 1229SOL    HW2 3818   0.007   1.768   2.995 -1.8040 -2.4888  2.2806
 1230SOL     OW 3819   1.597   1.907   0.431  0.0701  0.0299 -0.1691
 1230SOL    HW1 3820   1.687   1.890   0.402  0.8780  0.9679  1.5786
 1230SOL    HW2 3821   1.550   1.827   0.411  0.7375  0.2675 -3.0490
 1231SOL     OW 3822   1.829   1.792   3.322 -0.4339  0.4479  0.0852
 1231SOL    HW1 3823   1.758   1.733   3.349  0.4391 -0.1558  1.1341
 1231SOL    HW2 3824   1.909   1.743   3.340  0.2743  0.5353 -2.4029
 1232SOL     OW 3825   2.159   1.494   2.302 -0.1499  0.5466  0.6356
 1232SOL    HW1 3826   2.200   1.525   2.383 -0.7548  2.3116  0.3179
 1232SOL    HW2 3827   2.176   1.564   2.239 -1.1477 -0.0171 -0.2872
 1233SOL     OW 3828   2.638   0.947   2.620 -0.2913  0.1716  0.5414
 1233SOL    HW1 3829   2.628   1.041   2.605 -0.6819  0.7191  3.6144
 1233SOL    HW2 3830   2.592   0.931   2.702  0.9625 -2.4551  0.8203
 1234SOL     OW 3831   2.398   1.700   0.461 -0.4816  0.3993 -0.4525
 1234SOL    HW1 3832   2.446   1.756   0.522 -0.5577  0.3641 -0.3602
 1234SOL    HW2 3833   2.463   1.639   0.427 -0.7618 -0.6442  0.8167
 1235SOL     OW 3834   2.405   1.519   2.000  1.2648 -0.0037  0.2862
 1235SOL    HW1 3835   2.481   1.554   2.047  1.5246 -0.1758 -0.0026
 1235SOL    HW2 3836   2.399   1.572   1.921 -0.3649  1.6225  1.4112
 1236SOL     OW 3837   1.297   1.392   0.643 -0.5779 -0.1664  0.3461
 1236SOL    HW1 3838   1.237   1.344   0.700  0.5637 -1.2681  0.6546
 1236SOL    HW2 3839   1.247   1.404   0.561 -0.8018 -2.2019  0.1255
 1237SOL     OW 3840   0.408   3.030   0.691  0.1374  1.4358 -0.3559
 1237SOL    HW1 3841   0.366   3.117   0.691 -1.4506  0.7203 -0.9943
 1237SOL    HW2 3842   0.468   3.033   0.616 -0.2382  1.8441 -0.6484
 1238SOL     OW 3843   3.338   2.329   1.549  0.1494  0.2660 -0.4945
 1238SOL    HW1 3844   3.272   2.394   1.571 -1.3662 -1.7224  1.2859
 1238SOL    HW2 3845   3.404   2.336   1.618  0.6518  0.7406 -1.0141
 1239SOL     OW 3846   2.291   0.296   2.750  0.2450 -0.2466  0.1352
 1239SOL    HW1 3847   2.251   0.213   2.724  2.5494 -0.8512 -1.7955
 1239SOL    HW2 3848   2.253   0.315   2.836 -2.6680 -1.6752 -0.7162
 1240SOL     OW 3849   1.345   1.685   1.510  0.2017 -0.5001 -0.1578
 1240SOL    HW1 3850   1.320   1.657   1.422  2.1533 -1.0967 -0.5774
 1240SOL    HW2 3851   1.383   1.607   1.551  3.1738  0.6858 -0.3432
 1241SOL     OW 3852   1.322   0.746   2.838 -0.4569 -0.2541  0.0519
 1241SOL    HW1 3853   1.262   0.688   2.792  0.4745 -1.5968  0.4611
 1241SOL    HW2 3854   1.398   0.753   2.780 -0.7875  1.0499 -0.2542
 1242SOL     OW 3855   2.593   1.515   2.400 -0.5200  0.3922  0.0460
 1242SOL    HW1 3856   2.547   1.596   2.423 -0.3084 -0.1998  2.8558
 1242SOL    HW2 3857   2.680   1.544   2.371 -0.7597  1.2116  0.1224
 1243SOL     OW 3858   1.489   2.900   2.055 -0.6811 -0.3177 -0.0136
 1243SOL    HW1 3859   1.513   2.958   1.983 -0.3529 -1.6465 -1.0057
 1243SOL    HW2 3860   1.436   2.955   2.114 -1.3148  0.6849 -1.4666
 1244SOL     OW 3861   1.770   1.907   3.054 -0.2672  0.0298 -0.2481
 1244SOL    HW1 3862   1.685   1.912   3.009 -0.4825  0.9024  0.2281
 1244SOL    HW2 3863   1.753   1.852   3.130 -0.0608 -0.9097 -0.8575
 1245SOL     OW 3864   1.589   0.924   2.994 -0.5152  0.5212  0.6731
 1245SOL    HW1 3865   1.594   0.869   3.072  3.7585 -2.4813 -1.3143
 1245SOL    HW2 3866   1.624   1.008   3.022  1.5306 -0.6785  1.9960
 1246SOL     OW 3867   1.260   2.005   0.854 -0.4410  0.3041  0.1551
 1246SOL    HW1 3868   1.311   1.996   0.934 -1.7288 -0.6922  0.8969
 1246SOL    HW2 3869   1.280   1.926   0.804  0.6625  1.0990 -0.7380
 1247SOL     OW 3870   3.294   2.512   3.516 -0.6419 -0.2633 -0.2635
 1247SOL    HW1 3871   3.323   2.432   3.560 -0.8786 -0.5117 -0.5486
 1247SOL    HW2 3872   3.343   2.512   3.433 -0.0950  0.2712  0.0514
 1248SOL     OW 3873   3.233   1.845   2.031 -0.4074 -0.3279  0.0431
 1248SOL    HW1 3874   3.166   1.914   2.033 -0.1366 -0.0612  0.0640
 1248SOL    HW2 3875   3.221   1.797   2.113 -0.5884 -0.2955  0.0357
 1249SOL     OW 3876   2.279   1.263   2.289 -0.9659 -0.1846  0.2776
 1249SOL    HW1 3877   2.314   1.209   2.359 -0.2546  0.7764  0.6905
 1249SOL    HW2 3878   2.207   1.312   2.329 -2.7163 -1.9657 -0.5059
 1250SOL     OW 3879   2.532   1.102   3.313  0.3047 -0.7693  0.3140
 1250SOL    HW1 3880   2.611   1.070   3.269 -0.1139 -0.6955 -0.5025
 1250SOL    HW2 3881   2.467   1.034   3.298  0.7367 -1.8046  2.7033
 1251SOL     OW 3882   1.554   1.356   0.568  0.3287  0.1878 -0.4437
 1251SOL    HW1 3883   1.557   1.405   0.487 -2.4589 -1.0164 -1.4030
 1251SOL    HW2 3884   1.466   1.372   0.603  0.3053 -1.8789  0.6021
 1252SOL     OW 3885   1.495   1.922   1.499 -0.4275 -0.1671 -0.5200
 1252SOL    HW1 3886   1.586   1.892   1.492  0.0256  0.3150  2.3368
 1252SOL    HW2 3887   1.443   1.842   1.493  0.2991 -0.6485 -0.5180
 1253SOL     OW 3888   1.246   1.755   3.421 -0.7351 -0.0385  0.3685
 1253SOL    HW1 3889   1.259   1.691   3.491  1.6636 -1.6078 -1.3372
 1253SOL    HW2 3890   1.162   1.730   3.382  0.1358 -2.3300 -0.2703
 1254SOL     OW 3891   0.147   1.185   1.028 -0.3721 -0.3134  0.5569
 1254SOL    HW1 3892   0.075   1.130   1.059 -1.7860  0.6422 -0.8437
 1254SOL    HW2 3893   0.218   1.170   1.091 -2.4635  0.2550  3.2601
 1255SOL     OW 3894   2.310   0.996   2.140  0.0671  0.5189 -0.5169
 1255SOL    HW1 3895   2.402   0.994   2.166 -0.2991 -0.8695  0.7961
 1255SOL    HW2 3896   2.277   1.078   2.176  0.3364  0.0918  0.7718
 1256SOL     OW 3897   3.309   0.270   0.141 -0.3027  0.6611  0.5163
 1256SOL    HW1 3898   3.351   0.186   0.122 -3.8194 -1.2373  0.1387
 1256SOL    HW2 3899   3.365   0.335   0.100  2.1170 -1.5789  0.0099
 1257SOL     OW 3900   2.928   1.305   1.885 -1.0633 -0.4979  0.5461
 1257SOL    HW1 3901   2.933   1.373   1.818 -0.9772 -0.6432  0.4039
 1257SOL    HW2 3902   2.957   1.225   1.840 -0.1059 -0.4218  1.0037
 1258SOL     OW 3903   3.305   3.236   1.601  0.1129 -0.4352 -0.5675
 1258SOL    HW1 3904   3.334   3.300   1.667  0.4510 -1.6226  0.4701
 1258SOL    HW2 3905   3.369   3.243   1.531  1.0625 -0.7148  0.2409
 1259SOL     OW 3906   0.312   0.840   0.386  0.3050 -0.1414  0.1278
 1259SOL    HW1 3907   0.222   0.848   0.419  0.2037 -1.1224  0.1065
 1259SOL    HW2 3908   0.351   0.926   0.404 -0.7817  0.4694 -0.3323
 1260SOL     OW 3909   1.805   1.251   2.627  0.2435  0.2294  0.2954
 1260SOL    HW1 3910   1.848   1.182   2.576  0.2074  1.0052 -0.8329
 1260SOL    HW2 3911   1.717   1.256   2.590 -0.1399  0.0897  1.1684
 1261SOL     OW 3912   1.820   2.841   2.061 -0.3367  0.6300  0.3205
 1261SOL    HW1 3913   1.728   2.832   2.087 -0.5976 -1.4220 -1.0321
 1261SOL    HW2 3914   1.866   2.776   2.114 -0.3302 -1.0247 -1.5572
 1262SOL     OW 3915   3.009   3.091   0.587 -0.3035 -0.0138 -0.0833
 1262SOL    HW1 3916   3.037   3.177   0.557 -2.2294  1.1964  1.3192
 1262SOL    HW2 3917   3.011   3.097   0.683 -0.4732 -1.5512  0.0525
 1263SOL     OW 3918   1.208   2.885   1.291 -0.0182  0.0283  0.1007
 1263SOL    HW1 3919   1.281   2.849   1.240 -1.6056 -1.8369 -0.9360
 1263SOL    HW2 3920   1.140   2.818   1.288 -0.8037  0.5247  3.3806
 1264SOL     OW 3921   2.388   0.460   2.237 -0.1581  0.0343  1.0596
 1264SOL    HW1 3922   2.302   0.437   2.201  0.8911 -0.8588 -1.0822
 1264SOL    HW2 3923   2.370   0.529   2.301 -2.1051  3.0102 -2.3439
 1265SOL     OW 3924   1.518   0.188   1.965 -0.4219 -0.1447 -0.0205
 1265SOL    HW1 3925   1.479   0.218   2.047 -0.9905  1.5829 -0.8686
 1265SOL    HW2 3926   1.444   0.178   1.906  0.1222  0.2553 -0.7867
 1266SOL     OW 3927   2.296   2.508   1.124 -0.4659 -0.0609  0.4353
 1266SOL    HW1 3928   2.390   2.502   1.140 -0.2201  0.3165 -0.7703
 1266SOL    HW2 3929   2.266   2.417   1.118  0.3471 -0.2437 -1.9345
 1267SOL     OW 3930   3.225   3.458   0.071  0.7140  0.1872 -0.9226
 1267SOL    HW1 3931   3.176   3.376   0.067  0.9121  0.0357 -0.3375
 1267SOL    HW2 3932   3.174   3.513   0.130  0.8358  0.3136 -0.9357
 1268SOL     OW 3933   3.520   3.462   0.952 -0.4017  0.1751  0.1594
 1268SOL    HW1 3934   3.482   3.375   0.940 -1.3469  0.5588  0.2675
 1268SOL    HW2 3935   3.456   3.522   0.912  0.2176  0.8182  0.1184
 1269SOL     OW 3936   0.728   0.845   2.344 -0.6948 -0.3663  0.7922
 1269SOL    HW1 3937   0.809   0.889   2.369 -1.2647  1.3493 -0.1883
 1269SOL    HW2 3938   0.658   0.903   2.374 -1.4526  0.0045 -1.4458
 1270SOL     OW 3939   0.960   1.234   0.489 -1.0213 -0.4711 -1.0524
 1270SOL    HW1 3940   0.917   1.306   0.442  0.9355  1.5049  0.0398
 1270SOL    HW2 3941   1.053   1.250   0.478 -0.5028 -1.3148  1.4182
 1271SOL     OW 3942   1.327   2.205   0.218  0.2833  0.3986 -0.1088
 1271SOL    HW1 3943   1.235   2.180   0.228  0.4536 -0.1536  0.0933
 1271SOL    HW2 3944   1.366   2.132   0.169  0.2258  1.4336 -1.7595
 1272SOL     OW 3945   2.827   2.782   1.625  0.3120 -0.4679 -0.3234
 1272SOL    HW1 3946   2.783   2.867   1.628  3.1992  1.1524 -0.9431
 1272SOL    HW2 3947   2.887   2.783   1.700  1.7295 -1.1452 -1.4047
 1273SOL     OW 3948   0.071   3.042   2.183 -0.5102 -0.6729  0.1168
 1273SOL    HW1 3949   0.024   2.997   2.112 -1.5678 -1.6546  1.3966
 1273SOL    HW2 3950   0.072   3.134   2.156 -2.1568 -0.8005 -0.5304
 1274SOL     OW 3951   0.979   0.650   0.022  0.0647  0.1701  0.1821
 1274SOL    HW1 3952   0.896   0.668  -0.023 -0.8436 -1.3887  1.1184
 1274SOL    HW2 3953   0.999   0.730   0.069 -0.0157  1.1393 -1.3486
 1275SOL     OW 3954   2.005   0.192   2.378  0.2245 -0.3059  0.6812
 1275SOL    HW1 3955   1.992   0.100   2.355  2.1229 -0.6800  0.8882
 1275SOL    HW2 3956   2.096   0.196   2.407  0.8448  2.0200 -1.2351
 1276SOL     OW 3957   2.482   1.613   0.914  0.2347  0.1782 -0.4763
 1276SOL    HW1 3958   2.481   1.603   1.009  1.0594 -0.1306 -0.4978
 1276SOL    HW2 3959   2.507   1.704   0.900  1.6915 -0.1977 -0.4129
 1277SOL     OW 3960   2.937   3.364   2.920  0.0038 -0.2825  0.1590
 1277SOL    HW1 3961   2.904   3.372   3.009 -1.1897  1.0273 -0.3553
 1277SOL    HW2 3962   3.032   3.351   2.930 -0.2133 -0.8574  1.6119
 1278SOL     OW 3963   1.165   0.197   3.230  0.3588 -0.4974  0.0614
 1278SOL    HW1 3964   1.253   0.212   3.266  0.5020 -2.2112  0.5311
 1278SOL    HW2 3965   1.176   0.123   3.170 -0.9783 -1.5728  1.0919
 1279SOL     OW 3966   0.190   0.377   1.009 -0.0166  0.1095  0.6582
 1279SOL    HW1 3967   0.198   0.284   1.028  2.6390 -0.2754 -1.5697
 1279SOL    HW2 3968   0.257   0.419   1.063 -1.0012  0.7200  1.4362
 1280SOL     OW 3969   0.281   2.647   1.806  0.3172  0.0188 -0.0738
 1280SOL    HW1 3970   0.284   2.738   1.776 -0.1410 -0.2673 -1.0469
 1280SOL    HW2 3971   0.360   2.607   1.771  0.4887  0.0244  0.3030
 1281SOL     OW 3972   0.466   0.425   2.069 -0.0681 -0.4256  0.3657
 1281SOL    HW1 3973   0.532   0.365   2.036  0.0972  0.1555 -0.3959
 1281SOL    HW2 3974   0.516   0.500   2.102 -0.2283 -0.9991  1.9819
 1282SOL     OW 3975   0.348   0.647   2.262  0.3612 -0.2978 -0.3047
 1282SOL    HW1 3976   0.435   0.639   2.224 -0.0523 -0.8013 -1.1749
 1282SOL    HW2 3977   0.349   0.586   2.336  0.7143 -0.3787 -0.3762
 1283SOL     OW 3978   2.666   0.671   0.154  0.0551  0.0661 -0.2081
 1283SOL    HW1 3979   2.615   0.673   0.235  0.8814  0.7179  0.3157
 1283SOL    HW2 3980   2.696   0.580   0.147 -0.5618 -0.1451 -0.1343
 1284SOL     OW 3981   1.139   0.440   2.117 -0.6867  0.0773  0.0244
 1284SOL    HW1 3982   1.111   0.489   2.040 -0.5425  1.3940  0.7872
 1284SOL    HW2 3983   1.070   0.375   2.130 -0.9981  0.2137 -0.8808
 1285SOL     OW 3984   0.075   1.294   1.746  0.2936  0.4007  0.1018
 1285SOL    HW1 3985  -0.013   1.303   1.782  0.8339 -0.1960  1.6434
 1285SOL    HW2 3986   0.080   1.203   1.717 -0.3188  1.0065 -2.0958
 1286SOL     OW 3987   0.889   2.284   3.057 -0.5520 -0.1100 -0.0829
 1286SOL    HW1 3988   0.820   2.218   3.057 -0.0792 -0.6364  1.1070
 1286SOL    HW2 3989   0.964   2.241   3.098  1.4033 -0.4043 -3.5448
 1287SOL     OW 3990   2.697   3.466   2.290 -0.6249  0.6200 -1.1804
 1287SOL    HW1 3991   2.793   3.476   2.289 -0.5365 -0.1651 -2.0355
 1287SOL    HW2 3992   2.668   3.524   2.360  0.6741 -0.7662  0.6323
 1288SOL     OW 3993   1.881   2.546   1.804 -0.1849 -0.9640  0.1401
 1288SOL    HW1 3994   1.809   2.610   1.805 -0.8618 -1.6938 -0.3121
 1288SOL    HW2 3995   1.928   2.564   1.723 -0.6387 -1.3151 -0.2052
 1289SOL     OW 3996   3.014   2.627   0.075  0.1083  0.0578  0.0796
 1289SOL    HW1 3997   3.109   2.626   0.069  0.5450  3.3941  2.9567
 1289SOL    HW2 3998   2.986   2.690   0.009 -0.3570 -1.8121 -1.6157
 1290SOL     OW 3999   3.004   3.217   1.579 -0.0702 -0.4369 -0.1330
 1290SOL    HW1 4000   2.981   3.169   1.658  0.8314 -1.4252 -0.4425
 1290SOL    HW2 4001   3.092   3.250   1.595 -0.8205  1.5119  0.2288
 1291SOL     OW 4002   0.589   2.148   3.020 -0.3064 -0.1203  0.0585
 1291SOL    HW1 4003   0.594   2.062   2.979  0.0351  0.4439 -1.1249
 1291SOL    HW2 4004   0.506   2.185   2.989  0.6423  0.8964 -1.3514
 1292SOL     OW 4005   3.195   1.135   3.197 -0.3122 -0.1987  1.1337
 1292SOL    HW1 4006   3.103   1.154   3.181 -0.2737 -1.5323 -1.1357
 1292SOL    HW2 4007   3.243   1.194   3.140  0.2087 -0.2342  1.5204
 1293SOL     OW 4008   0.625   0.002   2.862 -0.4627  0.1656 -0.5477
 1293SOL    HW1 4009   0.554  -0.025   2.920 -1.0979  0.9742 -0.9206
 1293SOL    HW2 4010   0.581   0.038   2.785  0.3071  1.8825 -0.2414
 1294SOL     OW 4011   0.103   1.696   2.174 -0.0233  0.3233 -0.5028
 1294SOL    HW1 4012   0.024   1.662   2.216  1.2509  0.0049  1.7796
 1294SOL    HW2 4013   0.161   1.620   2.167  0.8650  0.9588 -0.2154
 1295SOL     OW 4014   0.319   3.378   2.991  0.8850  0.0478 -0.0621
 1295SOL    HW1 4015   0.321   3.287   3.019 -0.5222 -0.3354 -1.1094
 1295SOL    HW2 4016   0.237   3.413   3.027  0.9828  0.6563 -0.4118
 1296SOL     OW 4017   3.133   1.958   3.121  0.5411 -0.1004 -0.1672
 1296SOL    HW1 4018   3.157   1.871   3.087  1.2722 -0.4415  1.1250
 1296SOL    HW2 4019   3.038   1.959   3.120  0.5317 -0.4030 -1.4074
 1297SOL     OW 4020   0.112   3.307   2.116  0.6045 -0.0878  0.4502
 1297SOL    HW1 4021   0.069   3.385   2.151  1.0406 -0.1178  1.0673
 1297SOL    HW2 4022   0.152   3.336   2.034  0.7852  0.3502  0.6886
 1298SOL     OW 4023   2.840   2.311   3.439  0.3689 -0.1224 -0.4493
 1298SOL    HW1 4024   2.760   2.324   3.490  1.0186 -1.8974  1.1500
 1298SOL    HW2 4025   2.838   2.380   3.373 -1.9320  0.5368  0.2167
 1299SOL     OW 4026   1.500   0.128   0.993  0.3218  0.3690  0.7531
 1299SOL    HW1 4027   1.474   0.215   1.023 -0.1927  0.1012  1.1123
 1299SOL    HW2 4028   1.435   0.069   1.032  0.3964 -0.1279  0.1361
 1300SOL     OW 4029   2.116   1.999   3.416 -0.7679 -0.4249 -0.5003
 1300SOL    HW1 4030   2.034   2.001   3.466 -0.7716  0.1412 -0.5214
 1300SOL    HW2 4031   2.177   1.952   3.472 -0.2376  1.7848  0.8888
 1301SOL     OW 4032   2.024   0.508   2.532  0.0853  0.1178  0.2124
 1301SOL    HW1 4033   2.046   0.538   2.444  0.6193 -2.3815 -0.5922
 1301SOL    HW2 4034   2.107   0.476   2.568 -0.5280 -0.9763  0.7202
 1302SOL     OW 4035   0.341   0.189   3.047 -0.1788  0.2302 -0.2813
 1302SOL    HW1 4036   0.353   0.108   3.096 -0.8092  1.5271  2.2007
 1302SOL    HW2 4037   0.247   0.202   3.043 -0.0772  1.1437 -0.0620
 1303SOL     OW 4038   3.177   1.466   0.405  0.0903 -1.1049  0.1230
 1303SOL    HW1 4039   3.258   1.516   0.412 -0.6086 -0.0860  1.5818
 1303SOL    HW2 4040   3.191   1.390   0.462 -0.2668 -0.4651  1.0974
 1304SOL     OW 4041   0.117   2.297   0.024  0.5953 -0.1498  0.2142
 1304SOL    HW1 4042   0.107   2.292   0.119  2.0946 -2.9354  0.3164
 1304SOL    HW2 4043   0.190   2.356   0.011  2.2921 -1.9638  1.0375
 1305SOL     OW 4044   1.769   1.201   2.017 -0.1525  0.4936 -0.6902
 1305SOL    HW1 4045   1.854   1.246   2.022  0.0439  0.3498 -2.1826
 1305SOL    HW2 4046   1.742   1.191   2.108  0.5959  2.1131 -0.2417
 1306SOL     OW 4047   0.494   2.596   0.657  0.8418 -0.3970 -0.2606
 1306SOL    HW1 4048   0.568   2.655   0.650  0.9479 -0.4814  0.1424
 1306SOL    HW2 4049   0.417   2.651   0.643  0.9673 -0.2541 -0.3729
 1307SOL     OW 4050   2.226   3.120   0.203 -0.4443  0.0582 -0.1459
 1307SOL    HW1 4051   2.213   3.089   0.292  0.4520 -0.2654 -0.1098
 1307SOL    HW2 4052   2.159   3.187   0.190 -1.0569 -0.4083  0.5119
 1308SOL     OW 4053   0.200   1.082   2.575 -0.5402  0.6651  1.3066
 1308SOL    HW1 4054   0.238   1.017   2.634  0.5266 -2.0306 -2.0299
 1308SOL    HW2 4055   0.274   1.135   2.546 -0.8321  1.1043  1.3530
 1309SOL     OW 4056   0.224   1.206   3.068  0.0964 -0.6483  0.1384
 1309SOL    HW1 4057   0.139   1.230   3.103  0.2300 -1.6049  1.1760
 1309SOL    HW2 4058   0.247   1.277   3.007 -0.6678  0.4597  1.1197
 1310SOL     OW 4059   2.354   1.081   0.867  0.1363  0.1803 -0.3783
 1310SOL    HW1 4060   2.391   1.110   0.950  0.0921 -0.2033 -0.2231
 1310SOL    HW2 4061   2.262   1.108   0.870 -0.5988 -2.1495  0.8539
 1311SOL     OW 4062   1.649   0.980   2.623  0.0018  0.1140 -0.3672
 1311SOL    HW1 4063   1.609   0.895   2.643 -0.7563  0.5993  0.2839
 1311SOL    HW2 4064   1.634   1.032   2.703  1.1542  0.6061 -0.4557
 1312SOL     OW 4065   0.356   3.470   0.237  0.1567 -0.3752  0.2122
 1312SOL    HW1 4066   0.370   3.411   0.311  0.7883 -1.1029 -0.4722
 1312SOL    HW2 4067   0.263   3.461   0.216  0.3794 -1.6349 -0.2962
 1313SOL     OW 4068   1.606   0.927   1.885  0.1317 -0.2945 -0.5330
 1313SOL    HW1 4069   1.683   0.890   1.926 -0.1158 -1.3202 -0.9435
 1313SOL    HW2 4070   1.611   0.897   1.794 -0.5650 -0.0865 -0.6464
 1314SOL     OW 4071   1.839   0.395   0.467  0.3687 -0.0058 -0.2350
 1314SOL    HW1 4072   1.759   0.424   0.511  0.2386  2.6640 -1.9978
 1314SOL    HW2 4073   1.851   0.304   0.496 -1.8157  0.3432  2.1256
 1315SOL     OW 4074   3.348   0.933   3.339 -0.3367 -0.2498 -0.1761
 1315SOL    HW1 4075   3.388   0.866   3.284 -1.0960  0.8953 -2.2475
 1315SOL    HW2 4076   3.303   0.991   3.277 -2.8866  0.0567  1.8275
 1316SOL     OW 4077   1.002   1.156   1.210  0.0647 -0.0590  0.0197
 1316SOL    HW1 4078   1.094   1.168   1.186 -0.0622 -1.5371 -1.3136
 1316SOL    HW2 4079   0.954   1.211   1.149 -0.0311 -0.6748 -0.4644
 1317SOL     OW 4080   1.202   3.258   0.299 -0.2936  0.0912 -0.1786
 1317SOL    HW1 4081   1.222   3.261   0.206 -0.9712  0.6862 -0.3180
 1317SOL    HW2 4082   1.222   3.168   0.326 -0.0138 -0.0553 -0.8772
 1318SOL     OW 4083   0.214   2.993   2.653  0.1738 -0.5354 -0.5030
 1318SOL    HW1 4084   0.176   3.033   2.575  0.5338  0.0695 -0.3773
 1318SOL    HW2 4085   0.165   2.912   2.666 -0.4714 -0.2012 -0.8481
 1319SOL     OW 4086   1.664   0.389   0.971 -0.1918 -0.7607 -0.0316
 1319SOL    HW1 4087   1.634   0.371   0.882  0.0226 -2.1297  0.1512
 1319SOL    HW2 4088   1.741   0.334   0.982 -0.3989 -0.8573  1.1048
 1320SOL     OW 4089   2.921   2.568   1.509 -0.7122 -0.6819 -0.0086
 1320SOL    HW1 4090   2.885   2.644   1.554 -1.7153 -1.5506  0.6863
 1320SOL    HW2 4091   2.950   2.602   1.424  0.3223  0.7806  0.8840
 1321SOL     OW 4092   1.372   2.500   2.398  0.2724 -0.1793  0.3847
 1321SOL    HW1 4093   1.403   2.410   2.409 -0.9609 -0.6740 -0.0045
 1321SOL    HW2 4094   1.304   2.511   2.465 -1.0751 -0.2684 -0.9147
 1322SOL     OW 4095   0.059   0.179   3.070 -0.5763 -0.0408  0.3963
 1322SOL    HW1 4096   0.048   0.085   3.086 -0.3838 -0.0342  0.5610
 1322SOL    HW2 4097  -0.015   0.202   3.013 -1.3188 -0.0437  1.3335
 1323SOL     OW 4098   0.057   2.324   1.108 -0.5443 -0.0547 -0.1326
 1323SOL    HW1 4099   0.139   2.306   1.154 -1.2104  0.0946  1.1457
 1323SOL    HW2 4100  -0.006   2.344   1.177 -1.6961 -0.2688 -1.0852
 1324SOL     OW 4101   3.409   2.635   2.910  0.6632  0.5174 -0.6435
 1324SOL    HW1 4102   3.391   2.636   2.816 -0.4886  0.3193 -0.4405
 1324SOL    HW2 4103   3.328   2.603   2.950  0.6245  1.9443  0.5251
 1325SOL     OW 4104   0.560   1.457   3.499  0.3772  0.0406  0.1231
 1325SOL    HW1 4105   0.509   1.413   3.431  3.2209 -0.5913 -1.7893
 1325SOL    HW2 4106   0.544   1.551   3.484  0.0235 -0.1336 -0.6485
 1326SOL     OW 4107   0.353   2.631   2.643  0.5001  0.1888 -0.2880
 1326SOL    HW1 4108   0.374   2.548   2.601  2.0673 -0.3727  1.4882
 1326SOL    HW2 4109   0.427   2.688   2.621  0.2909  0.5463 -0.0714
 1327SOL     OW 4110   2.579   2.606   0.980  0.0670 -0.7019  0.1069
 1327SOL    HW1 4111   2.619   2.524   1.012 -3.6432 -1.5346  3.4733
 1327SOL    HW2 4112   2.637   2.675   1.011  1.2140 -1.9223  0.7735
 1328SOL     OW 4113   2.846   2.426   1.098 -0.2704 -0.3311 -0.4979
 1328SOL    HW1 4114   2.824   2.345   1.053  1.7105 -1.2692  0.0819
 1328SOL    HW2 4115   2.915   2.465   1.045 -1.0868  0.9306 -0.6760
 1329SOL     OW 4116   0.394   1.248   0.127  0.1629 -0.4011  0.0342
 1329SOL    HW1 4117   0.376   1.284   0.213  0.5626  0.1487 -0.1029
 1329SOL    HW2 4118   0.310   1.248   0.082  0.2245  0.8905 -0.1462
 1330SOL     OW 4119   1.774   0.601   3.341 -0.6788 -0.1472  0.2154
 1330SOL    HW1 4120   1.832   0.596   3.265  0.6952  0.9753  1.1476
 1330SOL    HW2 4121   1.695   0.644   3.308  0.1039  0.7866 -0.4739
 1331SOL     OW 4122   0.985   2.472   2.866  0.1645 -0.5069 -0.0604
 1331SOL    HW1 4123   0.908   2.525   2.845  0.7035 -0.3171 -1.7007
 1331SOL    HW2 4124   0.958   2.418   2.940 -0.5754  1.6461  1.3016
 1332SOL     OW 4125   3.174   2.537   3.014 -0.1795  0.7365 -0.0011
 1332SOL    HW1 4126   3.090   2.576   2.992  0.5499  2.3635 -0.0088
 1332SOL    HW2 4127   3.161   2.501   3.102 -1.4797 -0.9595 -0.8263
 1333SOL     OW 4128   1.613   0.037   2.830  0.1487 -0.3086  0.4606
 1333SOL    HW1 4129   1.681   0.054   2.764  0.7973 -0.3955  1.0886
 1333SOL    HW2 4130   1.557  -0.029   2.790  0.3840 -0.1761 -0.1085
 1334SOL     OW 4131   1.215   2.456   3.046 -0.4500  0.1113 -0.0667
 1334SOL    HW1 4132   1.176   2.417   3.124 -0.2907 -0.2477 -0.1669
 1334SOL    HW2 4133   1.294   2.498   3.077  0.5716 -1.5529 -0.3090
 1335SOL     OW 4134   2.751   3.257   3.274  0.0257  0.8914 -0.2340
 1335SOL    HW1 4135   2.660   3.287   3.268 -0.6198 -0.9257 -0.3856
 1335SOL    HW2 4136   2.745   3.177   3.327  1.7047  1.3046  0.6513
 1336SOL     OW 4137   3.348   2.547   1.183  0.2586  1.4235 -0.5046
 1336SOL    HW1 4138   3.382   2.604   1.114 -0.3541  1.6027 -0.6554
 1336SOL    HW2 4139   3.278   2.497   1.142  0.6749  0.6762 -0.3307
 1337SOL     OW 4140   0.526   1.198   1.364  0.4259 -0.7529 -0.4251
 1337SOL    HW1 4141   0.582   1.276   1.370 -0.2033 -0.3144 -0.1814
 1337SOL    HW2 4142   0.587   1.127   1.343  1.1300 -0.3483  0.1786
 1338SOL     OW 4143   3.075   2.101   2.181 -0.2961  0.1214  0.5911
 1338SOL    HW1 4144   3.060   2.176   2.122 -0.6349 -1.0428 -0.8699
 1338SOL    HW2 4145   3.171   2.095   2.188 -0.2555  0.3594  0.2795
 1339SOL     OW 4146   3.106   1.720   2.234 -0.2998  0.2849 -0.0347
 1339SOL    HW1 4147   3.060   1.636   2.240 -1.1580  0.5229 -2.1256
 1339SOL    HW2 4148   3.043   1.784   2.268 -0.7011  0.3442 -0.8415
 1340SOL     OW 4149   1.949   3.532   1.116  0.1057  0.7663 -0.1337
 1340SOL    HW1 4150   1.958   3.448   1.071 -0.1404  0.7278 -0.1170
 1340SOL    HW2 4151   2.031   3.543   1.165 -0.2725  0.0241  0.7063
 1341SOL     OW 4152   2.853   0.140   1.106 -0.4984  0.0368  0.3823
 1341SOL    HW1 4153   2.796   0.214   1.086 -2.1718 -1.3078  0.0098
 1341SOL    HW2 4154   2.875   0.103   1.020 -0.6169 -0.5768  0.6116
 1342SOL     OW 4155   3.007   2.447   0.467  0.5936 -0.0035 -0.4792
 1342SOL    HW1 4156   3.023   2.423   0.375  1.9158 -4.3892  0.6479
 1342SOL    HW2 4157   3.092   2.478   0.498  0.7883 -0.7567 -0.2298
 1343SOL     OW 4158   3.459   0.729   3.175  0.0730 -0.0029  0.6520
 1343SOL    HW1 4159   3.552   0.706   3.178 -0.1396 -0.9009  3.3347
 1343SOL    HW2 4160   3.419   0.658   3.124  0.7834  0.1270 -0.1040
 1344SOL     OW 4161   0.861   2.894   2.451 -0.4152  0.1146 -0.2694
 1344SOL    HW1 4162   0.843   2.867   2.541 -0.1982  1.1374  0.0943
 1344SOL    HW2 4163   0.924   2.829   2.418 -1.3973 -0.9515 -0.0948
 1345SOL     OW 4164   0.174   0.637   3.335 -0.6804  0.3596 -0.3326
 1345SOL    HW1 4165   0.269   0.634   3.342 -0.7433  1.6961  3.2137
 1345SOL    HW2 4166   0.147   0.545   3.334  0.6083 -0.2451  3.3408
 1346SOL     OW 4167   2.305   2.922   1.817 -0.1894 -0.9518  0.0355
 1346SOL    HW1 4168   2.375   2.862   1.844 -0.5166 -1.3917 -0.0676
 1346SOL    HW2 4169   2.345   3.008   1.818  0.6153 -1.2961 -0.8765
 1347SOL     OW 4170   1.676   0.542   2.861  0.4347 -0.1258 -0.0803
 1347SOL    HW1 4171   1.684   0.490   2.941 -0.9668  1.6467  1.2856
 1347SOL    HW2 4172   1.583   0.538   2.839  0.4632  1.0323 -0.4708
 1348SOL     OW 4173   2.016   1.147   1.307  0.1075 -0.2074 -0.4249
 1348SOL    HW1 4174   1.982   1.091   1.237  1.5434 -0.3634 -1.0198
 1348SOL    HW2 4175   1.944   1.153   1.370 -1.2652  0.0363 -1.9579
 1349SOL     OW 4176   2.892   0.996   2.657 -0.0443 -0.2176  0.2655
 1349SOL    HW1 4177   2.809   0.971   2.617 -1.1526 -0.2159  2.3986
 1349SOL    HW2 4178   2.914   0.923   2.715  1.3053 -0.0736 -0.0148
 1350SOL     OW 4179   2.136   0.718   1.680  0.3738 -0.5166 -0.6072
 1350SOL    HW1 4180   2.150   0.774   1.756 -0.8922 -0.6055 -0.2843
 1350SOL    HW2 4181   2.209   0.737   1.622  1.9741 -1.2270  1.0857
 1351SOL     OW 4182   3.055   0.343   0.228  0.2122 -0.2428  0.3809
 1351SOL    HW1 4183   3.148   0.343   0.204  0.1909  1.1382  0.2138
 1351SOL    HW2 4184   3.038   0.432   0.260 -1.4819  0.1434 -1.3594
 1352SOL     OW 4185   2.602   0.175   2.931  0.0602 -0.0738 -0.3290
 1352SOL    HW1 4186   2.616   0.112   2.861  1.3694  0.6260 -0.7323
 1352SOL    HW2 4187   2.639   0.133   3.009 -1.0899 -0.7112 -0.1161
 1353SOL     OW 4188   2.526   0.402   3.459  0.2996 -0.8017 -0.1188
 1353SOL    HW1 4189   2.621   0.406   3.470  0.0815  0.1263  1.6672
 1353SOL    HW2 4190   2.492   0.384   3.547 -1.2555  0.2017 -0.4782
 1354SOL     OW 4191   1.881   1.456   0.399  0.1888  0.1527  0.3377
 1354SOL    HW1 4192   1.856   1.544   0.428  0.8503  1.0070 -1.4797
 1354SOL    HW2 4193   1.969   1.444   0.433  0.3620  0.4932  0.0201
 1355SOL     OW 4194   0.578   0.854   0.521 -0.1410  0.2734  0.1082
 1355SOL    HW1 4195   0.635   0.799   0.467 -0.3003  0.8821 -0.7001
 1355SOL    HW2 4196   0.547   0.922   0.461 -2.2265 -0.4018  0.3552
 1356SOL     OW 4197   0.026   0.762   1.481  0.7638  0.5745  0.5861
 1356SOL    HW1 4198  -0.044   0.696   1.477 -0.6819  2.1093 -1.0249
 1356SOL    HW2 4199   0.104   0.715   1.450 -0.2461 -0.3908 -0.6421
 1357SOL     OW 4200   3.376   0.242   2.310  0.2058  0.4716  0.0396
 1357SOL    HW1 4201   3.328   0.191   2.374 -0.2257 -1.1989 -1.5267
 1357SOL    HW2 4202   3.310   0.268   2.245  1.1291 -0.7421 -1.4594
 1358SOL     OW 4203   2.508   0.831   0.861 -0.4948  0.1254  0.5167
 1358SOL    HW1 4204   2.547   0.842   0.948 -1.5369  1.1822  0.8747
 1358SOL    HW2 4205   2.462   0.914   0.845 -0.4534 -0.1225 -0.9723
 1359SOL     OW 4206   0.077   0.671   2.173 -0.1118 -0.1768  0.2852
 1359SOL    HW1 4207   0.142   0.679   2.242  0.0938  1.3069 -0.0490
 1359SOL    HW2 4208   0.094   0.745   2.115  1.1592 -2.5147 -2.5982
 1360SOL     OW 4209   1.534   2.469   1.130  0.2724  0.1194  0.4278
 1360SOL    HW1 4210   1.630   2.466   1.136  0.3371 -1.5795 -0.6832
 1360SOL    HW2 4211   1.515   2.555   1.092  1.5257 -0.3628 -1.3957
 1361SOL     OW 4212   3.177   0.809   1.658 -0.4773 -0.0036  0.0034
 1361SOL    HW1 4213   3.159   0.719   1.631  0.0848 -0.1070 -0.0352
 1361SOL    HW2 4214   3.123   0.821   1.736  1.1191 -1.1221  1.3351
 1362SOL     OW 4215   0.500   3.024   2.658  0.2144 -0.0446  0.0918
 1362SOL    HW1 4216   0.405   3.017   2.666  0.3810 -0.7555  1.8114
 1362SOL    HW2 4217   0.526   2.947   2.608  0.0044 -0.6205  0.8470
 1363SOL     OW 4218   2.694   2.852   2.410 -0.3080 -0.1270 -0.5571
 1363SOL    HW1 4219   2.618   2.822   2.361 -0.8119 -0.3603  0.3488
 1363SOL    HW2 4220   2.664   2.860   2.501  1.2873 -2.3959  0.2633
 1364SOL     OW 4221   1.887   2.240   1.809 -0.0244  0.1121  0.6314
 1364SOL    HW1 4222   1.883   2.331   1.837  0.8411  0.4595 -0.3143
 1364SOL    HW2 4223   1.798   2.207   1.820 -0.4582  1.2147  0.5060
 1365SOL     OW 4224   2.684   0.619   2.999 -0.4826  0.3978 -0.2262
 1365SOL    HW1 4225   2.640   0.592   3.080 -0.4670  2.2620  0.4399
 1365SOL    HW2 4226   2.774   0.588   3.008 -0.7880 -0.4768 -0.0989
 1366SOL     OW 4227   2.687   3.269   1.627  0.1453 -0.1816  0.4464
 1366SOL    HW1 4228   2.629   3.306   1.562 -1.4763 -3.3910 -0.1523
 1366SOL    HW2 4229   2.775   3.278   1.590 -0.4248  0.8207 -0.7040
 1367SOL     OW 4230   0.990   0.749   0.578  0.2941  0.0885 -0.1515
 1367SOL    HW1 4231   1.023   0.679   0.635  1.8309  1.1271  0.3204
 1367SOL    HW2 4232   1.056   0.755   0.508  1.0403  2.0446  0.6532
 1368SOL     OW 4233   0.265   1.924   2.702 -0.2630 -0.1735  0.2479
 1368SOL    HW1 4234   0.290   1.995   2.643  0.8183  0.2693  1.2027
 1368SOL    HW2 4235   0.342   1.867   2.707 -0.1235  0.0852  1.6234
 1369SOL     OW 4236   1.014   0.911   1.034  0.1452 -0.3250 -0.2350
 1369SOL    HW1 4237   1.055   0.958   0.962  0.6852  0.9905  0.8981
 1369SOL    HW2 4238   0.931   0.879   0.997 -0.2772  1.5704 -1.0494
 1370SOL     OW 4239   1.705   1.249   0.988  0.2693  0.6534 -0.3234
 1370SOL    HW1 4240   1.680   1.250   1.081  0.6016  0.0809 -0.2249
 1370SOL    HW2 4241   1.688   1.338   0.958 -0.2909  0.7188  0.1681
 1371SOL     OW 4242   3.115   0.582   0.569 -0.2763  0.1726  0.8472
 1371SOL    HW1 4243   3.040   0.530   0.542 -0.8032  0.7361  1.1828
 1371SOL    HW2 4244   3.136   0.551   0.657 -0.7075  0.6508  1.1199
 1372SOL     OW 4245   0.835   3.027   1.868 -0.0264 -0.7040  0.2686
 1372SOL    HW1 4246   0.915   2.975   1.860  0.9296  0.8532 -0.8232
 1372SOL    HW2 4247   0.819   3.032   1.962  1.7276 -0.2541  0.5842
 1373SOL     OW 4248   3.007   1.462   2.226  0.0241  0.3698  0.0252
 1373SOL    HW1 4249   3.022   1.443   2.133  0.7494 -0.8325  0.3661
 1373SOL    HW2 4250   2.914   1.443   2.239  0.0001  0.1979 -0.3768
 1374SOL     OW 4251   1.312   1.503   2.064 -0.0568 -0.0576  0.1903
 1374SOL    HW1 4252   1.269   1.425   2.027 -0.7751  0.3104  0.2244
 1374SOL    HW2 4253   1.240   1.564   2.081  0.5157  0.6850  0.0073
 1375SOL     OW 4254   0.410   3.283   2.106  0.1996  0.2562 -0.1678
 1375SOL    HW1 4255   0.481   3.304   2.045 -1.1769 -1.4457 -2.4996
 1375SOL    HW2 4256   0.419   3.348   2.175  3.9991  0.1496 -0.3261
 1376SOL     OW 4257   1.121   2.285   0.440  0.4033 -0.5256 -0.4352
 1376SOL    HW1 4258   1.118   2.373   0.478  0.7871  0.0872 -1.7667
 1376SOL    HW2 4259   1.031   2.267   0.413  0.1850 -0.8471  0.4844
 1377SOL     OW 4260   2.447   3.321   1.159 -0.4069  0.0494  0.4562
 1377SOL    HW1 4261   2.495   3.271   1.224  1.1073  1.0967  0.1984
 1377SOL    HW2 4262   2.465   3.413   1.180  0.2732  0.4264 -1.5121
 1378SOL     OW 4263   2.989   0.845   1.855  0.4087 -0.4551 -0.0610
 1378SOL    HW1 4264   2.918   0.890   1.810  0.1044 -0.3315  0.5342
 1378SOL    HW2 4265   2.949   0.809   1.934  1.4612  1.5460  1.4747
 1379SOL     OW 4266   2.423   0.345   0.507  0.1823 -0.2070 -0.4772
 1379SOL    HW1 4267   2.475   0.268   0.484 -0.1278 -0.8696  0.9319
 1379SOL    HW2 4268   2.334   0.312   0.515  0.0416  0.3070  0.1093
 1380SOL     OW 4269   3.362   1.781   0.224  0.2625 -0.2577 -0.5115
 1380SOL    HW1 4270   3.283   1.835   0.231  0.2409 -0.5618  2.8974
 1380SOL    HW2 4271   3.364   1.729   0.305  3.1777 -1.3806 -1.1703
 1381SOL     OW 4272   1.954   0.509   2.190 -0.3899  0.4343  0.1421
 1381SOL    HW1 4273   1.936   0.587   2.138 -1.0007  1.7228  2.1871
 1381SOL    HW2 4274   1.869   0.483   2.225 -0.4207 -1.9010 -1.3916
 1382SOL     OW 4275   1.980   1.926   0.697 -0.2607 -0.2562  0.0772
 1382SOL    HW1 4276   1.952   1.957   0.784  0.7312  0.1738  0.2514
 1382SOL    HW2 4277   2.000   1.833   0.711  1.6092  0.2140  0.7496
 1383SOL     OW 4278   2.234   0.276   1.726 -0.2283  0.0897  0.3086
 1383SOL    HW1 4279   2.163   0.216   1.750 -1.1840  0.1512 -2.1819
 1383SOL    HW2 4280   2.309   0.244   1.777 -1.3035 -1.7642  0.8357
 1384SOL     OW 4281   1.669   2.846   2.403 -0.2004  0.7369  0.5922
 1384SOL    HW1 4282   1.687   2.798   2.484  0.0841  1.1853  0.7982
 1384SOL    HW2 4283   1.750   2.841   2.353 -0.6481 -0.2852 -0.0617
 1385SOL     OW 4284   2.081   1.949   2.763 -0.3269  0.4506  0.1726
 1385SOL    HW1 4285   2.073   1.966   2.669  0.3005  1.1971  0.2455
 1385SOL    HW2 4286   2.175   1.932   2.776 -0.7084 -1.9976  0.2992
 1386SOL     OW 4287   1.603   2.921   0.042  0.0585  0.2899 -0.3311
 1386SOL    HW1 4288   1.637   2.904   0.130  0.1593 -0.2457 -0.4687
 1386SOL    HW2 4289   1.509   2.904   0.050 -0.3584  2.5307  0.2437
 1387SOL     OW 4290   1.991   3.447   2.279 -0.2742 -0.2108  0.2500
 1387SOL    HW1 4291   2.077   3.404   2.275 -0.0963  0.2233 -1.9612
 1387SOL    HW2 4292   1.930   3.382   2.246 -0.6457 -0.1654  0.8422
 1388SOL     OW 4293   2.643   2.057   0.061  0.0301 -0.1881  0.0428
 1388SOL    HW1 4294   2.699   2.106   0.001  1.1271 -2.0735 -0.5441
 1388SOL    HW2 4295   2.678   2.077   0.148  1.0705 -0.6466 -0.2573
 1389SOL     OW 4296   0.472   1.749   2.621 -0.0486  0.4181 -0.4213
 1389SOL    HW1 4297   0.515   1.834   2.607  2.1011 -0.8338 -2.0964
 1389SOL    HW2 4298   0.423   1.733   2.540 -1.6861  0.6790  0.4784
 1390SOL     OW 4299   1.672   3.458   1.946 -0.0897 -0.1197  0.1427
 1390SOL    HW1 4300   1.759   3.462   1.985 -0.6614 -0.5691  1.5212
 1390SOL    HW2 4301   1.653   3.548   1.920 -0.2606  0.5238  2.2891
 1391SOL     OW 4302   0.905   2.723   1.576  0.3676 -0.9424 -0.3924
 1391SOL    HW1 4303   0.914   2.704   1.483 -0.4166 -0.2273 -0.6324
 1391SOL    HW2 4304   0.985   2.770   1.600 -0.0837  0.2335 -1.0864
 1392SOL     OW 4305   0.688   0.982   1.564 -0.2735  0.1796 -0.3136
 1392SOL    HW1 4306   0.607   0.936   1.544 -0.3130  0.3915 -0.6416
 1392SOL    HW2 4307   0.729   0.930   1.633 -0.6260  0.0033 -0.2376
 1393SOL     OW 4308   0.103   2.241   0.549  0.6130  0.3642  0.0831
 1393SOL    HW1 4309   0.118   2.258   0.642 -1.9197  0.2306  0.5848
 1393SOL    HW2 4310   0.024   2.188   0.547 -0.8880  2.4821 -2.2609
 1394SOL     OW 4311   0.467   0.790   1.260  0.5279  0.1607 -0.3670
 1394SOL    HW1 4312   0.428   0.825   1.340  1.2428 -1.4873  0.7431
 1394SOL    HW2 4313   0.481   0.867   1.205 -1.5961  1.1363  0.3345
 1395SOL     OW 4314   2.541   2.394   1.558  0.0592 -0.1103  0.1960
 1395SOL    HW1 4315   2.557   2.336   1.632 -0.9330 -1.8160 -0.8553
 1395SOL    HW2 4316   2.620   2.387   1.504 -0.2878 -0.9719 -0.2157
 1396SOL     OW 4317   1.535   1.749   1.111  0.3610 -0.2326 -0.1574
 1396SOL    HW1 4318   1.509   1.839   1.090  2.6990  0.3236 -1.0127
 1396SOL    HW2 4319   1.602   1.728   1.045  0.4663 -2.2990  0.5413
 1397SOL     OW 4320   0.667   2.943   1.695  0.1107  0.1403 -0.8836
 1397SOL    HW1 4321   0.713   2.860   1.682  1.0390  0.4822  0.0513
 1397SOL    HW2 4322   0.724   2.993   1.754 -1.4421  0.6159  0.2747
 1398SOL     OW 4323   1.199   0.937   2.178  0.1132 -0.1835  0.4547
 1398SOL    HW1 4324   1.119   0.980   2.149  1.1177  0.7170 -1.1681
 1398SOL    HW2 4325   1.247   1.004   2.227 -0.3813 -0.9026  1.9513
 1399SOL     OW 4326   0.795   2.076   2.064 -0.1685 -0.3036 -0.1834
 1399SOL    HW1 4327   0.814   2.143   1.998 -0.6050  0.1826  0.1822
 1399SOL    HW2 4328   0.868   2.083   2.126 -0.4450  0.1341  0.0922
 1400SOL     OW 4329   0.784   0.270   0.915  0.0935  0.5637 -0.0756
 1400SOL    HW1 4330   0.763   0.195   0.859  0.4406  1.4747 -1.4775
 1400SOL    HW2 4331   0.748   0.345   0.868  1.9544  1.5680  0.0158
 1401SOL     OW 4332   2.362   1.804   1.965 -0.0789  0.5658 -0.7218
 1401SOL    HW1 4333   2.354   1.814   1.870  1.5832 -1.3894 -1.1468
 1401SOL    HW2 4334   2.450   1.836   1.985  1.1372 -2.5215 -0.5402
 1402SOL     OW 4335   0.313   1.419   0.867 -0.1778  0.2051  0.1033
 1402SOL    HW1 4336   0.402   1.408   0.899  0.5239  0.9704 -1.5042
 1402SOL    HW2 4337   0.295   1.512   0.876 -1.0767 -0.0350  1.0081
 1403SOL     OW 4338   1.595   2.248   0.897 -0.4194  0.7162 -0.3505
 1403SOL    HW1 4339   1.569   2.309   0.966  0.8834  1.6383 -0.6424
 1403SOL    HW2 4340   1.688   2.265   0.883  0.0102 -1.3761 -0.4286
 1404SOL     OW 4341   0.626   3.295   1.864 -0.2570 -0.0351 -0.0913
 1404SOL    HW1 4342   0.647   3.313   1.956 -0.1045 -1.3598  0.1603
 1404SOL    HW2 4343   0.611   3.381   1.825  1.5086  0.6894  0.7234
 1405SOL     OW 4344   1.730   2.896   0.295 -0.3355 -0.5836 -0.6450
 1405SOL    HW1 4345   1.710   2.950   0.371 -0.8963 -0.0170 -1.1828
 1405SOL    HW2 4346   1.797   2.835   0.325 -0.6641 -0.4645  0.3424
 1406SOL     OW 4347   1.524   1.660   1.954  0.8067 -0.3052 -0.3227
 1406SOL    HW1 4348   1.460   1.597   1.988  1.3741 -1.5179 -1.3984
 1406SOL    HW2 4349   1.608   1.632   1.991  0.8649  0.7217  0.3556
 1407SOL     OW 4350   3.499   1.839   1.996  0.5943 -0.5123  0.5344
 1407SOL    HW1 4351   3.544   1.782   2.058  0.8146 -0.4242  0.4564
 1407SOL    HW2 4352   3.407   1.835   2.022  0.9993  1.7115  2.6572
 1408SOL     OW 4353   0.649   2.951   2.238  0.0597 -0.1394 -0.2654
 1408SOL    HW1 4354   0.609   2.928   2.154 -0.3082  2.5218 -0.9075
 1408SOL    HW2 4355   0.743   2.950   2.222  0.0379 -0.6874 -0.3825
 1409SOL     OW 4356   3.266   2.679   2.698 -0.0645 -0.6905  0.2687
 1409SOL    HW1 4357   3.211   2.754   2.674  0.0393 -0.6548  0.1439
 1409SOL    HW2 4358   3.209   2.625   2.752  0.2042  0.0337  1.3135
 1410SOL     OW 4359   3.220   0.655   2.921  0.5545  0.3774 -0.4208
 1410SOL    HW1 4360   3.232   0.612   2.836  1.7007 -0.2467  0.0310
 1410SOL    HW2 4361   3.252   0.591   2.985 -1.0167  0.5217  0.5579
 1411SOL     OW 4362   2.027   1.865   1.726 -0.3647 -0.0008 -0.4992
 1411SOL    HW1 4363   1.997   1.814   1.802  0.7130 -0.0077 -0.0580
 1411SOL    HW2 4364   2.109   1.905   1.756  0.9762 -1.3436 -2.2069
 1412SOL     OW 4365   2.194   1.742   3.021  0.1000  0.1343 -0.4523
 1412SOL    HW1 4366   2.227   1.696   3.099 -0.9448  2.0016  1.1849
 1412SOL    HW2 4367   2.183   1.674   2.956  0.4625 -1.6079  1.2165
 1413SOL     OW 4368   0.981   3.325   2.137  0.0656 -0.4597 -0.7401
 1413SOL    HW1 4369   0.989   3.255   2.202  0.3129 -1.5338 -1.8822
 1413SOL    HW2 4370   1.040   3.394   2.169 -0.5133 -0.5653  0.6300
 1414SOL     OW 4371   3.038   1.967   0.839 -0.2844 -0.9023 -0.4598
 1414SOL    HW1 4372   3.049   2.047   0.890 -0.4583 -1.1990  0.0503
 1414SOL    HW2 4373   3.127   1.944   0.811 -0.2524 -0.4593 -0.7208
 1415SOL     OW 4374   0.778   1.206   3.078 -0.2262 -0.9916  0.3155
 1415SOL    HW1 4375   0.867   1.235   3.098 -0.4404 -0.6169  0.7544
 1415SOL    HW2 4376   0.725   1.237   3.152 -0.7633 -0.9985 -0.0564
 1416SOL     OW 4377   1.112   2.393   1.464  0.0245 -0.7998 -0.1591
 1416SOL    HW1 4378   1.142   2.328   1.400  2.0970 -0.6708  0.5947
 1416SOL    HW2 4379   1.020   2.371   1.480 -0.0596 -1.8672 -1.8972
 1417SOL     OW 4380   2.987   1.023   2.403 -0.3580 -0.1943  0.3463
 1417SOL    HW1 4381   2.941   0.996   2.482 -0.1181  0.0144  0.5581
 1417SOL    HW2 4382   3.060   1.076   2.435 -1.3773  1.5499 -0.0975
 1418SOL     OW 4383   1.908   2.526   1.514  0.1041  0.3418  0.1262
 1418SOL    HW1 4384   1.858   2.588   1.461 -0.0738 -0.5740 -0.8165
 1418SOL    HW2 4385   1.849   2.451   1.526  1.9516 -1.9100 -3.1662
 1419SOL     OW 4386   2.742   3.042   0.471  0.3021 -0.2025 -0.1126
 1419SOL    HW1 4387   2.824   3.016   0.513  0.7189 -0.0197 -0.7907
 1419SOL    HW2 4388   2.689   2.963   0.471  0.3751 -0.2579  0.5666
 1420SOL     OW 4389   1.745   0.548   1.167  0.4792  0.5900  0.1840
 1420SOL    HW1 4390   1.831   0.511   1.185 -0.3099 -1.7592 -0.5681
 1420SOL    HW2 4391   1.709   0.494   1.096 -1.3061  1.9868 -0.0521
 1421SOL     OW 4392   1.337   3.292   0.699  0.3527  0.8076  0.0919
 1421SOL    HW1 4393   1.345   3.372   0.751  0.0771  0.3991  0.7715
 1421SOL    HW2 4394   1.377   3.224   0.753 -0.8843  0.1738  0.2349
 1422SOL     OW 4395   1.159   1.432   1.691  0.7105  0.0793 -0.5620
 1422SOL    HW1 4396   1.164   1.497   1.762 -0.4724 -3.7883  3.5196
 1422SOL    HW2 4397   1.101   1.473   1.626 -1.2589  2.5883  2.4294
 1423SOL     OW 4398   1.242  -0.013   3.449 -0.3076 -0.5097  0.6088
 1423SOL    HW1 4399   1.284   0.033   3.522 -1.1574 -0.3500  1.0199
 1423SOL    HW2 4400   1.166   0.041   3.427 -0.8381 -1.2633  0.5244
 1424SOL     OW 4401   0.861   0.040   1.940 -0.7038 -0.7290  0.4516
 1424SOL    HW1 4402   0.913  -0.022   1.889  2.2313  0.1782  2.1118
 1424SOL    HW2 4403   0.804  -0.015   1.993 -0.5816 -1.8352 -0.5198
 1425SOL     OW 4404   0.332   1.222   0.645 -0.1429  0.3864  0.1961
 1425SOL    HW1 4405   0.426   1.224   0.666 -0.0197  2.3475 -0.3126
 1425SOL    HW2 4406   0.292   1.282   0.707 -0.8090  0.7723 -0.5815
 1426SOL     OW 4407   0.529   2.371   2.368 -0.1368 -0.0640  0.0894
 1426SOL    HW1 4408   0.595   2.308   2.397 -0.3877 -0.4340 -0.1318
 1426SOL    HW2 4409   0.501   2.339   2.282 -1.3501 -0.4978  0.6235
 1427SOL     OW 4410   2.936   2.643   2.950 -0.4416 -0.0401 -1.0216
 1427SOL    HW1 4411   2.892   2.723   2.920  0.4649  1.9011  2.3703
 1427SOL    HW2 4412   2.866   2.589   2.988 -0.7067  0.2888 -1.0414
 1428SOL     OW 4413   0.790   2.205   2.666 -0.3616  0.4482  0.4209
 1428SOL    HW1 4414   0.824   2.216   2.578 -0.0423 -1.0982  0.3272
 1428SOL    HW2 4415   0.758   2.292   2.691  1.7411  1.4660 -0.2823
 1429SOL     OW 4416   3.249   1.119   0.275 -0.2779  0.2290 -0.5551
 1429SOL    HW1 4417   3.188   1.087   0.342 -0.5310 -1.4804 -1.5521
 1429SOL    HW2 4418   3.295   1.041   0.245  0.1615  1.0215 -2.0632
 1430SOL     OW 4419   0.997   2.292   1.943 -0.1461  0.4516  0.3317
 1430SOL    HW1 4420   1.073   2.318   1.891  0.7311 -0.9544  0.8491
 1430SOL    HW2 4421   0.999   2.197   1.942 -2.4531  0.3456 -0.3802
 1431SOL     OW 4422   3.051   2.366   2.060 -0.3768  0.6063  0.6313
 1431SOL    HW1 4423   2.993   2.439   2.082 -1.3258 -0.3568  1.4227
 1431SOL    HW2 4424   3.131   2.408   2.026 -0.9502  1.9940  0.9366
 1432SOL     OW 4425   2.172   1.000   0.281 -0.3418  0.5029 -0.6903
 1432SOL    HW1 4426   2.139   1.012   0.370  0.7722  1.2779 -0.3577
 1432SOL    HW2 4427   2.256   1.045   0.280  2.0765 -3.5557 -0.7205
 1433SOL     OW 4428   2.970   0.008   1.349 -0.1030 -0.0489 -0.6850
 1433SOL    HW1 4429   3.065  -0.001   1.358 -0.1241 -2.6481 -2.2136
 1433SOL    HW2 4430   2.955   0.012   1.255 -1.5044  0.8060 -0.4535
 1434SOL     OW 4431   3.162   2.810   0.640 -0.5042 -0.1770 -0.0934
 1434SOL    HW1 4432   3.229   2.865   0.681 -2.6523  0.8365  2.3258
 1434SOL    HW2 4433   3.159   2.839   0.549  1.5357  0.4701 -0.0204
 1435SOL     OW 4434   1.356   3.329   1.266  0.2560 -0.4827 -0.3244
 1435SOL    HW1 4435   1.422   3.302   1.202 -0.9561  0.4095 -2.0162
 1435SOL    HW2 4436   1.323   3.413   1.234  0.6680  0.8010  2.3129
 1436SOL     OW 4437   0.383   2.030   0.511 -0.7547 -0.5454 -0.2267
 1436SOL    HW1 4438   0.466   2.025   0.464  0.0901  1.8821  0.8437
 1436SOL    HW2 4439   0.321   2.063   0.446 -0.0523  0.9416 -0.1711
 1437SOL     OW 4440   1.352   2.103   1.832  0.4818 -0.2084 -0.2353
 1437SOL    HW1 4441   1.332   2.135   1.920 -0.7193 -0.9608 -0.2123
 1437SOL    HW2 4442   1.356   2.182   1.778  0.4192  0.1996  0.3452
 1438SOL     OW 4443   3.477   1.149   1.372  0.3639 -0.5318  0.5885
 1438SOL    HW1 4444   3.399   1.108   1.409  1.0424 -2.2051  0.2314
 1438SOL    HW2 4445   3.538   1.077   1.357  1.6203  0.6153 -0.0535
 1439SOL     OW 4446   1.735   1.288   2.281  0.3589 -0.2863 -0.1002
 1439SOL    HW1 4447   1.766   1.215   2.334 -2.1867 -1.5683 -0.2419
 1439SOL    HW2 4448   1.680   1.339   2.339  0.4764  0.3886 -0.5643
 1440SOL     OW 4449   3.205   1.284   0.613 -0.0383  0.2476  0.2914
 1440SOL    HW1 4450   3.172   1.195   0.604 -2.8422  1.2768 -0.7663
 1440SOL    HW2 4451   3.229   1.292   0.705 -0.8000 -1.2748  0.6497
 1441SOL     OW 4452   0.919   0.970   0.381 -0.0796  0.4166 -0.0442
 1441SOL    HW1 4453   0.900   1.032   0.450 -1.0779  0.2631 -0.1637
 1441SOL    HW2 4454   0.849   0.905   0.386  2.3844 -2.3630  1.9113
 1442SOL     OW 4455   2.057   2.113   2.022 -0.5820  0.0612  0.3879
 1442SOL    HW1 4456   1.984   2.113   1.961 -0.1713 -2.7487 -0.2475
 1442SOL    HW2 4457   2.133   2.136   1.969 -0.5825  0.1381  0.4196
 1443SOL     OW 4458   0.870   2.935   3.326  0.5674 -0.1511  0.0761
 1443SOL    HW1 4459   0.803   2.935   3.258 -0.8014 -0.0097  1.3792
 1443SOL    HW2 4460   0.890   2.842   3.340 -0.9267 -0.3552  1.1238
 1444SOL     OW 4461   0.758   2.796   0.167  0.5786 -0.0236 -0.6386
 1444SOL    HW1 4462   0.805   2.876   0.143  1.7775 -0.6134 -0.3379
 1444SOL    HW2 4463   0.715   2.817   0.249 -1.6499  1.2627 -2.0177
 1445SOL     OW 4464   1.914   0.765   1.510  0.1021 -0.3705  0.8960
 1445SOL    HW1 4465   1.994   0.760   1.562 -0.2327 -2.3765  1.3137
 1445SOL    HW2 4466   1.887   0.856   1.516  2.5267  0.4606  0.4372
 1446SOL     OW 4467   0.758   0.504   2.021  0.0934  0.2974  0.0772
 1446SOL    HW1 4468   0.733   0.418   1.988  0.1396  0.4628 -0.3984
 1446SOL    HW2 4469   0.840   0.489   2.069  1.1305  0.3744 -1.6168
 1447SOL     OW 4470   0.504   2.332   1.580  0.2517  0.7716  0.2273
 1447SOL    HW1 4471   0.455   2.399   1.533  1.3068  0.5282 -1.2978
 1447SOL    HW2 4472   0.595   2.359   1.572  0.5587  0.0645  1.1160
 1448SOL     OW 4473   3.381   2.138   0.756  0.6100 -0.3283 -0.9295
 1448SOL    HW1 4474   3.454   2.194   0.784 -0.2595  1.3699 -1.8743
 1448SOL    HW2 4475   3.308   2.161   0.813  0.2075 -0.4255 -1.3944
 1449SOL     OW 4476   0.606   0.583   1.799 -0.0036 -0.1082  0.2788
 1449SOL    HW1 4477   0.528   0.573   1.854 -1.6560 -2.8040 -2.2960
 1449SOL    HW2 4478   0.678   0.554   1.856 -1.2916 -0.6447  1.7230
 1450SOL     OW 4479   3.034   3.466   3.171  0.2931  0.4128  0.0707
 1450SOL    HW1 4480   3.024   3.400   3.240 -0.9897  0.5026  0.0000
 1450SOL    HW2 4481   3.118   3.508   3.189  2.9121 -3.4313 -1.7919
 1451SOL     OW 4482   1.017   2.096   2.280  0.0751 -0.5254 -0.6115
 1451SOL    HW1 4483   1.057   2.163   2.336 -1.4500 -0.0606 -0.0298
 1451SOL    HW2 4484   1.038   2.013   2.323 -0.4263 -0.2232  0.2481
 1452SOL     OW 4485   0.718   3.365   2.099 -0.1123 -0.0445  0.8150
 1452SOL    HW1 4486   0.672   3.384   2.180 -0.8213  0.9625  0.1900
 1452SOL    HW2 4487   0.811   3.362   2.125 -0.4556 -1.9015  2.0359
 1453SOL     OW 4488   2.604   1.304   1.521 -0.6936  0.1294 -0.1861
 1453SOL    HW1 4489   2.561   1.330   1.602  0.9427  0.5407  0.5882
 1453SOL    HW2 4490   2.674   1.245   1.548 -0.1971  0.1744 -1.3084
 1454SOL     OW 4491   1.280   0.588   0.130  0.5699 -0.3929  0.2562
 1454SOL    HW1 4492   1.225   0.524   0.084  1.4068 -1.1310  0.2585
 1454SOL    HW2 4493   1.335   0.626   0.061  0.3785  0.0172  0.3257
 1455SOL     OW 4494   2.403   1.327   2.792  0.4101 -0.4721  0.1763
 1455SOL    HW1 4495   2.326   1.281   2.824  1.2378 -1.1478  1.2752
 1455SOL    HW2 4496   2.455   1.343   2.870  0.3311  2.0502 -0.2078
 1456SOL     OW 4497   1.790   1.504   1.169  0.2730  0.0569  0.6573
 1456SOL    HW1 4498   1.715   1.512   1.229  0.4232  0.6535  0.7709
 1456SOL    HW2 4499   1.849   1.442   1.212 -0.2214 -0.5508  0.4897
 1457SOL     OW 4500   0.308   2.572   0.252  0.3599 -0.1606  0.0751
 1457SOL    HW1 4501   0.345   2.570   0.164 -1.0357  1.2874 -0.6052
 1457SOL    HW2 4502   0.280   2.482   0.269  1.2342 -0.5893 -0.6913
 1458SOL     OW 4503   1.406   3.367   2.835  0.5877  0.0153  0.1106
 1458SOL    HW1 4504   1.397   3.427   2.910  1.5214 -0.3276  0.5160
 1458SOL    HW2 4505   1.376   3.283   2.868 -1.5489  0.3879 -0.7139
 1459SOL     OW 4506   1.345   1.707   2.793 -0.4846 -0.2276  0.7895
 1459SOL    HW1 4507   1.275   1.713   2.857  0.2586 -0.2359  1.6179
 1459SOL    HW2 4508   1.418   1.666   2.840 -0.4616 -1.8049 -0.5285
 1460SOL     OW 4509   0.802   0.820   1.742 -1.2317 -0.3901  0.2132
 1460SOL    HW1 4510   0.762   0.820   1.829 -2.9875  1.6722 -0.5031
 1460SOL    HW2 4511   0.846   0.735   1.736 -2.0860 -1.0890  2.6260
 1461SOL     OW 4512   2.011   0.513   0.795 -0.5425  0.3006  0.6431
 1461SOL    HW1 4513   2.038   0.422   0.808  1.5300  0.9417  1.2418
 1461SOL    HW2 4514   1.952   0.509   0.719 -0.7353 -1.5622  0.8283
 1462SOL     OW 4515   3.409   2.889   3.178  0.1361 -0.0439  0.1184
 1462SOL    HW1 4516   3.434   2.798   3.161 -2.1738 -0.5875 -0.6355
 1462SOL    HW2 4517   3.441   2.938   3.102 -2.1421 -0.9509 -1.5120
 1463SOL     OW 4518   2.044   3.271   0.974  0.3227 -0.1514 -0.1716
 1463SOL    HW1 4519   1.956   3.272   0.937  0.7922  0.8653 -1.3586
 1463SOL    HW2 4520   2.095   3.218   0.912  0.3644 -1.5261  1.0032
 1464SOL     OW 4521   0.050   0.260   0.671  0.3553 -0.6038 -0.1632
 1464SOL    HW1 4522  -0.034   0.291   0.704  0.7546 -0.9613  1.2452
 1464SOL    HW2 4523   0.100   0.237   0.749  1.4798 -1.1412 -1.0074
 1465SOL     OW 4524   2.755   3.116   1.292 -0.0728  0.9099  0.3813
 1465SOL    HW1 4525   2.769   3.190   1.232  1.3926  0.6462  0.3639
 1465SOL    HW2 4526   2.664   3.090   1.277 -0.8048  3.0736  0.8176
 1466SOL     OW 4527   1.739   0.669   0.662 -0.1588  0.1692 -0.0511
 1466SOL    HW1 4528   1.728   0.693   0.753  2.4274 -0.2298  0.4431
 1466SOL    HW2 4529   1.776   0.747   0.620 -1.5161  0.4239 -0.8553
 1467SOL     OW 4530   1.209   2.048   2.069  0.1452 -0.9176 -0.5190
 1467SOL    HW1 4531   1.268   1.975   2.086  0.7210 -0.2438  0.4521
 1467SOL    HW2 4532   1.158   2.058   2.149 -0.9226 -1.1424 -1.1497
 1468SOL     OW 4533   0.038   3.400   3.034 -0.1019 -0.2457 -0.1538
 1468SOL    HW1 4534  -0.023   3.329   3.053 -1.0269  0.9368  1.6060
 1468SOL    HW2 4535   0.007   3.436   2.950  0.7537 -2.2202 -1.3840
 1469SOL     OW 4536   1.027   0.060   1.101 -0.0625  0.1207 -0.6527
 1469SOL    HW1 4537   0.998   0.013   1.023  1.7209 -0.9491 -0.7420
 1469SOL    HW2 4538   1.006   0.151   1.084 -4.0389 -0.5494 -0.3155
 1470SOL     OW 4539   1.715   0.339   2.069  0.6071 -0.0590  0.1553
 1470SOL    HW1 4540   1.800   0.328   2.025  1.4181  1.4742  1.2136
 1470SOL    HW2 4541   1.654   0.287   2.018  1.9312 -0.0981 -1.4727
 1471SOL     OW 4542   1.980   2.632   1.190 -0.5661 -0.4707  0.0974
 1471SOL    HW1 4543   2.062   2.680   1.200 -0.0487 -1.3487  0.1964
 1471SOL    HW2 4544   1.923   2.691   1.141  0.7212 -0.5169 -1.5405
 1472SOL     OW 4545   0.084   3.151   0.482 -0.1223 -0.7706 -0.0299
 1472SOL    HW1 4546   0.153   3.163   0.416 -1.4783  0.9462 -1.2356
 1472SOL    HW2 4547   0.128   3.167   0.565  0.9738  0.1801 -0.7484
 1473SOL     OW 4548   3.203   2.547   0.633  0.2039 -0.0453  0.0944
 1473SOL    HW1 4549   3.183   2.641   0.638  0.6768  0.0376  0.4783
 1473SOL    HW2 4550   3.280   2.542   0.575 -0.5159 -0.3081 -0.8674
 1474SOL     OW 4551   0.535   2.799   2.500  0.1569 -0.0457 -0.4032
 1474SOL    HW1 4552   0.475   2.771   2.431 -1.6057 -0.1418  1.0803
 1474SOL    HW2 4553   0.620   2.761   2.476 -0.8001 -1.5236 -1.6004
 1475SOL     OW 4554   0.490   2.390   0.911  0.0776  0.2324 -0.2616
 1475SOL    HW1 4555   0.447   2.476   0.909  0.4536  0.4126 -1.7899
 1475SOL    HW2 4556   0.464   2.348   0.829 -3.6389 -2.9608  2.1437
 1476SOL     OW 4557   3.150   2.190   0.584  0.6919 -0.4323  0.1787
 1476SOL    HW1 4558   3.177   2.227   0.500  2.5914 -0.8522  0.5677
 1476SOL    HW2 4559   3.217   2.125   0.605 -0.5903 -1.4601  1.2783
 1477NA      NA 4560   2.511   3.148   2.721 -0.0348  0.1252  0.1365
   3.51470   3.51470   3.51470
