Converted from md.pdb
6934
    0  TYR    N    1   0.710   1.028   1.664
    0  TYR   H1    2   0.623   0.994   1.620
    0  TYR   H2    3   0.684   1.048   1.763
    0  TYR   H3    4   0.754   0.937   1.686
    0  TYR   CA    5   0.794   1.127   1.601
    0  TYR   HA    6   0.871   1.075   1.547
    0  TYR   CB    7   0.726   1.222   1.495
    0  TYR  HB1    8   0.797   1.294   1.448
    0  TYR  HB2    9   0.649   1.276   1.553
    0  TYR   CG   10   0.657   1.142   1.382
    0  TYR  CD1   11   0.734   1.104   1.276
    0  TYR  HD1   12   0.835   1.143   1.271
    0  TYR  CE1   13   0.682   1.033   1.168
    0  TYR  HE1   14   0.738   1.010   1.079
    0  TYR   CZ   15   0.544   0.997   1.168
    0  TYR   OH   16   0.492   0.918   1.063
    0  TYR   HH   17   0.410   0.887   1.103
    0  TYR  CD2   18   0.522   1.108   1.385
    0  TYR  HD2   19   0.471   1.144   1.473
    0  TYR  CE2   20   0.465   1.029   1.279
    0  TYR  HE2   21   0.360   1.009   1.294
    0  TYR    C   22   0.871   1.209   1.712
    0  TYR    O   23   0.836   1.198   1.829
    1  TYR    N   24   0.982   1.284   1.677
    1  TYR   HN   25   1.024   1.290   1.586
    1  TYR   CA   26   1.071   1.346   1.780
    1  TYR   HA   27   1.014   1.376   1.867
    1  TYR   CB   28   1.167   1.238   1.835
    1  TYR  HB1   29   1.249   1.205   1.768
    1  TYR  HB2   30   1.109   1.146   1.860
    1  TYR   CG   31   1.229   1.294   1.965
    1  TYR  CD1   32   1.164   1.302   2.088
    1  TYR  HD1   33   1.062   1.268   2.099
    1  TYR  CE1   34   1.231   1.358   2.199
    1  TYR  HE1   35   1.193   1.349   2.300
    1  TYR   CZ   36   1.358   1.411   2.183
    1  TYR   OH   37   1.419   1.468   2.295
    1  TYR   HH   38   1.350   1.483   2.360
    1  TYR  CD2   39   1.356   1.343   1.949
    1  TYR  HD2   40   1.417   1.321   1.863
    1  TYR  CE2   41   1.427   1.393   2.062
    1  TYR  HE2   42   1.530   1.422   2.051
    1  TYR    C   43   1.137   1.477   1.727
    1  TYR    O   44   1.196   1.477   1.619
    2  ASP    N   45   1.135   1.585   1.814
    2  ASP   HN   46   1.095   1.581   1.906
    2  ASP   CA   47   1.187   1.715   1.775
    2  ASP   HA   48   1.228   1.705   1.675
    2  ASP   CB   49   1.068   1.811   1.766
    2  ASP  HB1   50   1.003   1.791   1.854
    2  ASP  HB2   51   1.009   1.781   1.677
    2  ASP   CG   52   1.110   1.961   1.764
    2  ASP  OD1   53   1.197   1.994   1.676
    2  ASP  OD2   54   1.062   2.034   1.854
    2  ASP    C   55   1.297   1.749   1.874
    2  ASP    O   56   1.267   1.795   1.984
    3  PRO    N   57   1.427   1.727   1.843
    3  PRO   CD   58   1.461   1.646   1.734
    3  PRO  HD1   59   1.395   1.563   1.701
    3  PRO  HD2   60   1.494   1.700   1.642
    3  PRO   CA   61   1.546   1.759   1.933
    3  PRO   HA   62   1.534   1.699   2.022
    3  PRO   CB   63   1.659   1.695   1.848
    3  PRO  HB1   64   1.750   1.671   1.907
    3  PRO  HB2   65   1.693   1.762   1.766
    3  PRO   CG   66   1.590   1.574   1.783
    3  PRO  HG1   67   1.569   1.502   1.865
    3  PRO  HG2   68   1.639   1.521   1.699
    3  PRO    C   69   1.562   1.912   1.970
    3  PRO    O   70   1.520   1.996   1.894
    4  ARG    N   71   1.618   1.944   2.091
    4  ARG   HN   72   1.654   1.877   2.155
    4  ARG   CA   73   1.633   2.088   2.130
    4  ARG   HA   74   1.678   2.129   2.041
    4  ARG   CB   75   1.499   2.153   2.182
    4  ARG  HB1   76   1.491   2.128   2.290
    4  ARG  HB2   77   1.407   2.118   2.132
    4  ARG   CG   78   1.500   2.307   2.171
    4  ARG  HG1   79   1.502   2.345   2.067
    4  ARG  HG2   80   1.601   2.337   2.205
    4  ARG   CD   81   1.390   2.382   2.240
    4  ARG  HD1   82   1.395   2.365   2.349
    4  ARG  HD2   83   1.410   2.489   2.218
    4  ARG   NE   84   1.261   2.330   2.180
    4  ARG   HE   85   1.246   2.267   2.104
    4  ARG   CZ   86   1.143   2.358   2.234
    4  ARG  NH1   87   1.035   2.297   2.183
    4  ARG 1HH1   88   0.947   2.344   2.182
    4  ARG 2HH1   89   1.038   2.229   2.110
    4  ARG  NH2   90   1.124   2.453   2.325
    4  ARG 1HH2   91   1.032   2.448   2.363
    4  ARG 2HH2   92   1.206   2.491   2.368
    4  ARG    C   93   1.750   2.085   2.235
    4  ARG    O   94   1.759   1.996   2.321
    5  THR    N   95   1.839   2.183   2.217
    5  THR   HN   96   1.825   2.238   2.135
    5  THR   CA   97   1.947   2.216   2.304
    5  THR   HA   98   1.932   2.178   2.404
    5  THR   CB   99   2.070   2.142   2.249
    5  THR   HB  100   2.043   2.038   2.220
    5  THR  OG1  101   2.168   2.119   2.351
    5  THR  HG1  102   2.216   2.037   2.334
    5  THR  CG2  103   2.139   2.210   2.130
    5  THR 1HG2  104   2.088   2.178   2.036
    5  THR 2HG2  105   2.242   2.171   2.113
    5  THR 3HG2  106   2.145   2.321   2.138
    5  THR    C  107   1.973   2.366   2.316
    5  THR    O  108   1.920   2.446   2.237
    6  GLY    N  109   2.063   2.416   2.409
    6  GLY   HN  110   2.123   2.353   2.457
    6  GLY   CA  111   2.093   2.561   2.412
    6  GLY  HA1  112   2.086   2.582   2.518
    6  GLY  HA2  113   2.019   2.622   2.361
    6  GLY    C  114   2.231   2.599   2.366
    6  GLY    O  115   2.295   2.500   2.327
    7  THR    N  116   2.279   2.720   2.360
    7  THR   HN  117   2.226   2.799   2.392
    7  THR   CA  118   2.414   2.752   2.327
    7  THR   HA  119   2.472   2.662   2.337
    7  THR   CB  120   2.431   2.806   2.184
    7  THR   HB  121   2.535   2.843   2.176
    7  THR  OG1  122   2.330   2.904   2.152
    7  THR  HG1  123   2.251   2.849   2.145
    7  THR  CG2  124   2.407   2.708   2.073
    7  THR 1HG2  125   2.465   2.616   2.099
    7  THR 2HG2  126   2.440   2.756   1.978
    7  THR 3HG2  127   2.308   2.663   2.054
    7  THR    C  128   2.474   2.855   2.425
    7  THR    O  129   2.431   2.958   2.476
    8  TRP    N  130   2.604   2.834   2.464
    8  TRP   HN  131   2.649   2.752   2.429
    8  TRP   CA  132   2.673   2.895   2.571
    8  TRP   HA  133   2.615   2.983   2.596
    8  TRP   CB  134   2.699   2.802   2.698
    8  TRP  HB1  135   2.780   2.842   2.763
    8  TRP  HB2  136   2.738   2.705   2.663
    8  TRP   CG  137   2.572   2.775   2.773
    8  TRP  CD1  138   2.523   2.841   2.883
    8  TRP  HD1  139   2.577   2.923   2.930
    8  TRP  NE1  140   2.409   2.775   2.934
    8  TRP  HE1  141   2.354   2.810   3.007
    8  TRP  CE2  142   2.390   2.662   2.857
    8  TRP  CD2  143   2.478   2.667   2.748
    8  TRP  CE3  144   2.478   2.568   2.649
    8  TRP  HE3  145   2.537   2.562   2.559
    8  TRP  CZ3  146   2.391   2.458   2.665
    8  TRP  HZ3  147   2.379   2.384   2.587
    8  TRP  CZ2  148   2.295   2.555   2.865
    8  TRP  HZ2  149   2.225   2.550   2.946
    8  TRP  CH2  150   2.296   2.450   2.772
    8  TRP  HH2  151   2.238   2.361   2.793
    8  TRP    C  152   2.817   2.945   2.520
    8  TRP    O  153   2.902   2.858   2.490
    9  TYR    N  154   2.843   3.079   2.520
    9  TYR   HN  155   2.775   3.139   2.562
    9  TYR   CA  156   2.967   3.143   2.484
    9  TYR   HA  157   3.036   3.081   2.429
    9  TYR   CB  158   2.942   3.258   2.377
    9  TYR  HB1  159   3.042   3.294   2.346
    9  TYR  HB2  160   2.871   3.338   2.409
    9  TYR   CG  161   2.868   3.194   2.257
    9  TYR  CD1  162   2.726   3.199   2.244
    9  TYR  HD1  163   2.675   3.258   2.318
    9  TYR  CE1  164   2.654   3.140   2.143
    9  TYR  HE1  165   2.546   3.131   2.143
    9  TYR   CZ  166   2.735   3.075   2.041
    9  TYR   OH  167   2.672   3.004   1.934
    9  TYR   HH  168   2.578   3.024   1.931
    9  TYR  CD2  169   2.942   3.134   2.152
    9  TYR  HD2  170   3.049   3.131   2.141
    9  TYR  CE2  171   2.877   3.082   2.038
    9  TYR  HE2  172   2.923   3.032   1.954
    9  TYR    C  173   3.049   3.202   2.606
    9  TYR  OT1  174   3.024   3.318   2.650
    9  TYR  OT2  175   3.129   3.129   2.662
   10  SOL   OW  176   1.845   3.008   2.732
   10  SOL  HW1  177   1.879   3.078   2.789
   10  SOL  HW2  178   1.768   2.976   2.779
   11  SOL   OW  179   0.957   1.012   3.077
   11  SOL  HW1  180   0.885   1.075   3.071
   11  SOL  HW2  181   0.954   0.964   2.995
   12  SOL   OW  182   2.784   1.987   1.039
   12  SOL  HW1  183   2.745   1.909   1.078
   12  SOL  HW2  184   2.878   1.968   1.035
   13  SOL   OW  185   1.355   0.755   2.626
   13  SOL  HW1  186   1.334   0.672   2.669
   13  SOL  HW2  187   1.379   0.731   2.537
   14  SOL   OW  188   0.178   0.699   1.837
   14  SOL  HW1  189   0.218   0.630   1.784
   14  SOL  HW2  190   0.086   0.671   1.847
   15  SOL   OW  191   1.864   3.675   1.398
   15  SOL  HW1  192   1.789   3.674   1.457
   15  SOL  HW2  193   1.846   3.747   1.338
   16  SOL   OW  194   1.060   1.199   1.073
   16  SOL  HW1  195   1.017   1.124   1.031
   16  SOL  HW2  196   1.143   1.165   1.105
   17  SOL   OW  197   2.204   0.854   2.764
   17  SOL  HW1  198   2.110   0.844   2.748
   17  SOL  HW2  199   2.245   0.841   2.679
   18  SOL   OW  200   2.593   3.329   0.135
   18  SOL  HW1  201   2.514   3.323   0.189
   18  SOL  HW2  202   2.612   3.423   0.133
   19  SOL   OW  203   3.613   0.309   1.679
   19  SOL  HW1  204   3.699   0.319   1.722
   19  SOL  HW2  205   3.564   0.386   1.707
   20  SOL   OW  206   3.313   1.971   2.743
   20  SOL  HW1  207   3.378   1.911   2.779
   20  SOL  HW2  208   3.233   1.952   2.792
   21  SOL   OW  209   3.012   2.348   3.442
   21  SOL  HW1  210   3.068   2.321   3.515
   21  SOL  HW2  211   3.062   2.416   3.397
   22  SOL   OW  212   2.953   3.355   3.605
   22  SOL  HW1  213   2.885   3.395   3.660
   22  SOL  HW2  214   2.904   3.316   3.532
   23  SOL   OW  215   0.559   1.273   4.022
   23  SOL  HW1  216   0.539   1.180   4.009
   23  SOL  HW2  217   0.636   1.274   4.079
   24  SOL   OW  218   1.012   0.398   2.324
   24  SOL  HW1  219   1.013   0.372   2.231
   24  SOL  HW2  220   1.007   0.315   2.371
   25  SOL   OW  221   2.752   2.467   1.474
   25  SOL  HW1  222   2.690   2.415   1.526
   25  SOL  HW2  223   2.837   2.429   1.494
   26  SOL   OW  224   2.014   2.804   2.649
   26  SOL  HW1  225   2.045   2.852   2.572
   26  SOL  HW2  226   1.947   2.861   2.687
   27  SOL   OW  227   1.291   1.781   2.759
   27  SOL  HW1  228   1.316   1.707   2.703
   27  SOL  HW2  229   1.234   1.834   2.704
   28  SOL   OW  230   0.923   2.901   0.198
   28  SOL  HW1  231   0.983   2.872   0.266
   28  SOL  HW2  232   0.875   2.821   0.174
   29  SOL   OW  233   1.376   0.465   1.972
   29  SOL  HW1  234   1.311   0.418   2.024
   29  SOL  HW2  235   1.427   0.397   1.929
   30  SOL   OW  236   1.234   2.211   1.339
   30  SOL  HW1  237   1.286   2.255   1.406
   30  SOL  HW2  238   1.144   2.219   1.369
   31  SOL   OW  239   3.467   2.443   2.898
   31  SOL  HW1  240   3.430   2.369   2.850
   31  SOL  HW2  241   3.553   2.457   2.858
   32  SOL   OW  242   1.241   3.605   4.045
   32  SOL  HW1  243   1.261   3.582   3.955
   32  SOL  HW2  244   1.178   3.677   4.038
   33  SOL   OW  245   1.779   3.428   2.211
   33  SOL  HW1  246   1.806   3.345   2.171
   33  SOL  HW2  247   1.811   3.422   2.301
   34  SOL   OW  248   0.719   0.689   2.052
   34  SOL  HW1  249   0.640   0.635   2.044
   34  SOL  HW2  250   0.774   0.641   2.114
   35  SOL   OW  251   3.981   1.641   2.796
   35  SOL  HW1  252   3.948   1.719   2.751
   35  SOL  HW2  253   4.058   1.615   2.745
   36  SOL   OW  254   2.774   1.893   2.430
   36  SOL  HW1  255   2.844   1.862   2.487
   36  SOL  HW2  256   2.795   1.855   2.344
   37  SOL   OW  257   3.902   0.343   1.523
   37  SOL  HW1  258   3.858   0.420   1.488
   37  SOL  HW2  259   3.884   0.344   1.617
   38  SOL   OW  260   3.320   0.284   2.489
   38  SOL  HW1  261   3.238   0.236   2.503
   38  SOL  HW2  262   3.332   0.333   2.571
   39  SOL   OW  263   0.950   1.127   0.326
   39  SOL  HW1  264   0.915   1.058   0.383
   39  SOL  HW2  265   1.034   1.092   0.295
   40  SOL   OW  266   2.670   3.985   3.449
   40  SOL  HW1  267   2.718   3.946   3.523
   40  SOL  HW2  268   2.724   3.963   3.373
   41  SOL   OW  269   3.185   3.132   3.559
   41  SOL  HW1  270   3.111   3.146   3.500
   41  SOL  HW2  271   3.256   3.183   3.520
   42  SOL   OW  272   2.641   2.413   0.512
   42  SOL  HW1  273   2.707   2.444   0.450
   42  SOL  HW2  274   2.559   2.452   0.481
   43  SOL   OW  275   0.074   3.706   1.008
   43  SOL  HW1  276   0.009   3.772   0.986
   43  SOL  HW2  277   0.023   3.630   1.037
   44  SOL   OW  278   3.910   2.681   1.918
   44  SOL  HW1  279   3.969   2.695   1.844
   44  SOL  HW2  280   3.846   2.618   1.886
   45  SOL   OW  281   0.380   3.030   1.260
   45  SOL  HW1  282   0.378   2.950   1.208
   45  SOL  HW2  283   0.318   3.089   1.217
   46  SOL   OW  284   2.495   0.398   0.812
   46  SOL  HW1  285   2.523   0.472   0.865
   46  SOL  HW2  286   2.476   0.437   0.726
   47  SOL   OW  287   2.077   1.913   1.159
   47  SOL  HW1  288   2.010   1.977   1.182
   47  SOL  HW2  289   2.051   1.833   1.205
   48  SOL   OW  290   1.664   0.804   0.050
   48  SOL  HW1  291   1.704   0.755   0.122
   48  SOL  HW2  292   1.736   0.822  -0.010
   49  SOL   OW  293   0.599   2.311   0.701
   49  SOL  HW1  294   0.576   2.293   0.610
   49  SOL  HW2  295   0.515   2.326   0.744
   50  SOL   OW  296   1.836   3.993   3.637
   50  SOL  HW1  297   1.876   3.966   3.554
   50  SOL  HW2  298   1.901   3.972   3.704
   51  SOL   OW  299   2.070   2.525   1.179
   51  SOL  HW1  300   2.054   2.615   1.151
   51  SOL  HW2  301   2.008   2.473   1.129
   52  SOL   OW  302   2.865   0.613   3.263
   52  SOL  HW1  303   2.804   0.635   3.192
   52  SOL  HW2  304   2.895   0.525   3.242
   53  SOL   OW  305   0.645   1.288   0.962
   53  SOL  HW1  306   0.575   1.232   0.928
   53  SOL  HW2  307   0.671   1.341   0.887
   54  SOL   OW  308   1.817   2.175   0.609
   54  SOL  HW1  309   1.852   2.138   0.528
   54  SOL  HW2  310   1.737   2.220   0.582
   55  SOL   OW  311   3.209   1.572   2.864
   55  SOL  HW1  312   3.204   1.554   2.770
   55  SOL  HW2  313   3.298   1.548   2.888
   56  SOL   OW  314   2.015   2.293   1.557
   56  SOL  HW1  315   2.082   2.294   1.625
   56  SOL  HW2  316   2.019   2.380   1.518
   57  SOL   OW  317   1.291   2.018   2.414
   57  SOL  HW1  318   1.374   1.978   2.440
   57  SOL  HW2  319   1.269   1.976   2.331
   58  SOL   OW  320   0.467   0.181   1.853
   58  SOL  HW1  321   0.491   0.125   1.780
   58  SOL  HW2  322   0.449   0.120   1.925
   59  SOL   OW  323   0.103   1.523   2.620
   59  SOL  HW1  324   0.050   1.443   2.628
   59  SOL  HW2  325   0.072   1.565   2.540
   60  SOL   OW  326   0.382   3.363   3.519
   60  SOL  HW1  327   0.444   3.430   3.549
   60  SOL  HW2  328   0.326   3.409   3.457
   61  SOL   OW  329   0.751   3.723   1.043
   61  SOL  HW1  330   0.761   3.660   0.972
   61  SOL  HW2  331   0.683   3.685   1.099
   62  SOL   OW  332   3.893   4.012   1.171
   62  SOL  HW1  333   3.909   4.050   1.257
   62  SOL  HW2  334   3.828   3.943   1.187
   63  SOL   OW  335   2.732   1.275   2.928
   63  SOL  HW1  336   2.699   1.186   2.936
   63  SOL  HW2  337   2.788   1.273   2.850
   64  SOL   OW  338   2.938   3.742   0.662
   64  SOL  HW1  339   2.970   3.665   0.614
   64  SOL  HW2  340   2.843   3.732   0.663
   65  SOL   OW  341   1.180   3.849   2.123
   65  SOL  HW1  342   1.158   3.881   2.036
   65  SOL  HW2  343   1.241   3.777   2.107
   66  SOL   OW  344   1.342   3.732   2.424
   66  SOL  HW1  345   1.360   3.715   2.332
   66  SOL  HW2  346   1.282   3.807   2.423
   67  SOL   OW  347   0.722   3.362   3.310
   67  SOL  HW1  348   0.717   3.407   3.226
   67  SOL  HW2  349   0.815   3.354   3.327
   68  SOL   OW  350   1.134   2.533   1.135
   68  SOL  HW1  351   1.099   2.598   1.075
   68  SOL  HW2  352   1.151   2.582   1.216
   69  SOL   OW  353   1.070   0.523   1.927
   69  SOL  HW1  354   1.108   0.604   1.961
   69  SOL  HW2  355   0.987   0.550   1.888
   70  SOL   OW  356   2.613   0.895   2.283
   70  SOL  HW1  357   2.615   0.822   2.221
   70  SOL  HW2  358   2.534   0.944   2.261
   71  SOL   OW  359   3.851   1.557   1.249
   71  SOL  HW1  360   3.772   1.598   1.214
   71  SOL  HW2  361   3.867   1.602   1.332
   72  SOL   OW  362   1.484   1.064   2.000
   72  SOL  HW1  363   1.403   1.034   1.957
   72  SOL  HW2  364   1.493   1.006   2.076
   73  SOL   OW  365   2.375   2.163   1.883
   73  SOL  HW1  366   2.422   2.132   1.960
   73  SOL  HW2  367   2.335   2.085   1.846
   74  SOL   OW  368   3.045   1.940   1.038
   74  SOL  HW1  369   3.103   1.922   1.112
   74  SOL  HW2  370   3.095   1.911   0.961
   75  SOL   OW  371   3.206   3.996   3.177
   75  SOL  HW1  372   3.232   4.033   3.262
   75  SOL  HW2  373   3.158   4.067   3.134
   76  SOL   OW  374   3.629   1.320   2.200
   76  SOL  HW1  375   3.711   1.284   2.164
   76  SOL  HW2  376   3.632   1.413   2.178
   77  SOL   OW  377   3.160   0.239   3.108
   77  SOL  HW1  378   3.245   0.252   3.150
   77  SOL  HW2  379   3.178   0.243   3.015
   78  SOL   OW  380   0.111   1.926   2.844
   78  SOL  HW1  381   0.097   1.887   2.930
   78  SOL  HW2  382   0.201   1.959   2.847
   79  SOL   OW  383   3.064   1.172   1.373
   79  SOL  HW1  384   2.977   1.171   1.413
   79  SOL  HW2  385   3.084   1.265   1.362
   80  SOL   OW  386   2.298   3.961   2.474
   80  SOL  HW1  387   2.389   3.933   2.462
   80  SOL  HW2  388   2.257   3.888   2.520
   81  SOL   OW  389   1.567   1.245   1.514
   81  SOL  HW1  390   1.500   1.177   1.522
   81  SOL  HW2  391   1.614   1.242   1.598
   82  SOL   OW  392   3.124   2.103   4.007
   82  SOL  HW1  393   3.037   2.072   3.982
   82  SOL  HW2  394   3.115   2.199   4.010
   83  SOL   OW  395   0.870   2.230   3.913
   83  SOL  HW1  396   0.814   2.269   3.846
   83  SOL  HW2  397   0.826   2.147   3.934
   84  SOL   OW  398   0.673   1.621   1.620
   84  SOL  HW1  399   0.732   1.587   1.553
   84  SOL  HW2  400   0.616   1.682   1.573
   85  SOL   OW  401   1.625   1.196   1.037
   85  SOL  HW1  402   1.705   1.185   0.985
   85  SOL  HW2  403   1.595   1.284   1.017
   86  SOL   OW  404   1.647   1.539   3.740
   86  SOL  HW1  405   1.714   1.591   3.696
   86  SOL  HW2  406   1.687   1.513   3.823
   87  SOL   OW  407   3.825   3.791   2.704
   87  SOL  HW1  408   3.887   3.850   2.746
   87  SOL  HW2  409   3.877   3.741   2.641
   88  SOL   OW  410   2.749   0.573   3.805
   88  SOL  HW1  411   2.734   0.542   3.894
   88  SOL  HW2  412   2.685   0.525   3.752
   89  SOL   OW  413   1.970   2.564   3.641
   89  SOL  HW1  414   1.970   2.656   3.665
   89  SOL  HW2  415   2.062   2.538   3.641
   90  SOL   OW  416   3.630   1.819   3.524
   90  SOL  HW1  417   3.591   1.901   3.492
   90  SOL  HW2  418   3.713   1.812   3.478
   91  SOL   OW  419   0.938   2.381   0.104
   91  SOL  HW1  420   0.905   2.343   0.023
   91  SOL  HW2  421   0.974   2.307   0.153
   92  SOL   OW  422   4.025   1.477   3.898
   92  SOL  HW1  423   4.057   1.391   3.924
   92  SOL  HW2  424   3.942   1.460   3.853
   93  SOL   OW  425   3.597   0.773   1.671
   93  SOL  HW1  426   3.550   0.783   1.754
   93  SOL  HW2  427   3.618   0.680   1.666
   94  SOL   OW  428   1.881   2.138   0.877
   94  SOL  HW1  429   1.847   2.151   0.788
   94  SOL  HW2  430   1.807   2.103   0.926
   95  SOL   OW  431   2.656   0.293   2.735
   95  SOL  HW1  432   2.678   0.203   2.761
   95  SOL  HW2  433   2.568   0.286   2.697
   96  SOL   OW  434   3.883   2.384   0.099
   96  SOL  HW1  435   3.841   2.298   0.101
   96  SOL  HW2  436   3.858   2.422   0.014
   97  SOL   OW  437   2.518   2.056   2.114
   97  SOL  HW1  438   2.513   2.147   2.144
   97  SOL  HW2  439   2.494   2.004   2.190
   98  SOL   OW  440   0.492   2.825   1.089
   98  SOL  HW1  441   0.529   2.737   1.089
   98  SOL  HW2  442   0.427   2.824   1.019
   99  SOL   OW  443   3.506   3.578   0.507
   99  SOL  HW1  444   3.462   3.494   0.514
   99  SOL  HW2  445   3.503   3.614   0.596
  100  SOL   OW  446   0.542   0.258   3.293
  100  SOL  HW1  447   0.507   0.206   3.220
  100  SOL  HW2  448   0.631   0.281   3.266
  101  SOL   OW  449   3.189   2.104   0.616
  101  SOL  HW1  450   3.192   2.088   0.522
  101  SOL  HW2  451   3.110   2.157   0.629
  102  SOL   OW  452   3.202   0.658   2.146
  102  SOL  HW1  453   3.135   0.608   2.191
  102  SOL  HW2  454   3.273   0.595   2.131
  103  SOL   OW  455   0.988   2.786   1.425
  103  SOL  HW1  456   0.935   2.810   1.350
  103  SOL  HW2  457   0.975   2.691   1.435
  104  SOL   OW  458   0.239   2.583   3.772
  104  SOL  HW1  459   0.297   2.591   3.696
  104  SOL  HW2  460   0.281   2.635   3.840
  105  SOL   OW  461   3.519   3.734   0.729
  105  SOL  HW1  462   3.509   3.790   0.806
  105  SOL  HW2  463   3.506   3.793   0.655
  106  SOL   OW  464   0.243   0.855   3.361
  106  SOL  HW1  465   0.175   0.867   3.428
  106  SOL  HW2  466   0.216   0.777   3.313
  107  SOL   OW  467   0.167   2.366   3.530
  107  SOL  HW1  468   0.096   2.430   3.533
  107  SOL  HW2  469   0.179   2.348   3.437
  108  SOL   OW  470   2.253   3.768   0.813
  108  SOL  HW1  471   2.279   3.730   0.897
  108  SOL  HW2  472   2.207   3.697   0.767
  109  SOL   OW  473   2.736   1.563   3.314
  109  SOL  HW1  474   2.702   1.649   3.337
  109  SOL  HW2  475   2.691   1.540   3.233
  110  SOL   OW  476   0.857   1.374   0.414
  110  SOL  HW1  477   0.900   1.288   0.408
  110  SOL  HW2  478   0.900   1.416   0.489
  111  SOL   OW  479   1.563   2.300   1.027
  111  SOL  HW1  480   1.480   2.257   1.009
  111  SOL  HW2  481   1.612   2.293   0.945
  112  SOL   OW  482   2.185   2.983   0.137
  112  SOL  HW1  483   2.118   2.917   0.155
  112  SOL  HW2  484   2.245   2.977   0.212
  113  SOL   OW  485   2.993   2.862   0.898
  113  SOL  HW1  486   2.961   2.924   0.832
  113  SOL  HW2  487   2.921   2.857   0.962
  114  SOL   OW  488   1.415   2.577   0.903
  114  SOL  HW1  489   1.506   2.604   0.920
  114  SOL  HW2  490   1.389   2.528   0.981
  115  SOL   OW  491   0.786   1.649   0.261
  115  SOL  HW1  492   0.697   1.646   0.225
  115  SOL  HW2  493   0.774   1.673   0.353
  116  SOL   OW  494   3.151   0.248   1.570
  116  SOL  HW1  495   3.209   0.317   1.536
  116  SOL  HW2  496   3.210   0.175   1.591
  117  SOL   OW  497   3.293   3.148   0.433
  117  SOL  HW1  498   3.208   3.149   0.389
  117  SOL  HW2  499   3.342   3.079   0.390
  118  SOL   OW  500   3.123   1.026   0.345
  118  SOL  HW1  501   3.179   1.103   0.354
  118  SOL  HW2  502   3.132   0.980   0.428
  119  SOL   OW  503   2.834   0.067   2.118
  119  SOL  HW1  504   2.884  -0.012   2.095
  119  SOL  HW2  505   2.884   0.139   2.078
  120  SOL   OW  506   0.754   0.265   1.169
  120  SOL  HW1  507   0.676   0.214   1.191
  120  SOL  HW2  508   0.826   0.217   1.208
  121  SOL   OW  509   0.598   3.361   2.863
  121  SOL  HW1  510   0.544   3.302   2.810
  121  SOL  HW2  511   0.681   3.368   2.815
  122  SOL   OW  512   3.085   2.785   3.154
  122  SOL  HW1  513   3.010   2.770   3.097
  122  SOL  HW2  514   3.119   2.697   3.172
  123  SOL   OW  515   0.905   3.105   3.889
  123  SOL  HW1  516   0.892   3.082   3.980
  123  SOL  HW2  517   0.839   3.055   3.841
  124  SOL   OW  518   3.384   3.782   0.201
  124  SOL  HW1  519   3.455   3.784   0.265
  124  SOL  HW2  520   3.421   3.735   0.126
  125  SOL   OW  521   1.100   1.133   3.804
  125  SOL  HW1  522   1.113   1.072   3.877
  125  SOL  HW2  523   1.043   1.201   3.840
  126  SOL   OW  524   0.358   2.849   0.864
  126  SOL  HW1  525   0.269   2.868   0.833
  126  SOL  HW2  526   0.415   2.877   0.793
  127  SOL   OW  527   0.664   0.871   3.108
  127  SOL  HW1  528   0.610   0.898   3.182
  127  SOL  HW2  529   0.748   0.913   3.122
  128  SOL   OW  530   3.653   1.776   1.340
  128  SOL  HW1  531   3.679   1.831   1.413
  128  SOL  HW2  532   3.662   1.832   1.263
  129  SOL   OW  533   1.086   0.057   3.209
  129  SOL  HW1  534   1.102   0.150   3.230
  129  SOL  HW2  535   1.137   0.041   3.130
  130  SOL   OW  536   2.750   2.394   3.638
  130  SOL  HW1  537   2.746   2.315   3.584
  130  SOL  HW2  538   2.765   2.465   3.576
  131  SOL   OW  539   1.783   1.450   2.206
  131  SOL  HW1  540   1.843   1.471   2.277
  131  SOL  HW2  541   1.724   1.525   2.202
  132  SOL   OW  542   2.288   0.376   2.709
  132  SOL  HW1  543   2.302   0.353   2.801
  132  SOL  HW2  544   2.234   0.456   2.712
  133  SOL   OW  545   3.596   3.049   2.986
  133  SOL  HW1  546   3.552   3.045   2.901
  133  SOL  HW2  547   3.544   2.991   3.042
  134  SOL   OW  548   0.824   2.401   1.310
  134  SOL  HW1  549   0.874   2.426   1.388
  134  SOL  HW2  550   0.736   2.384   1.343
  135  SOL   OW  551   1.900   1.077   3.926
  135  SOL  HW1  552   1.921   0.985   3.941
  135  SOL  HW2  553   1.845   1.101   4.000
  136  SOL   OW  554   0.508   1.791   1.518
  136  SOL  HW1  555   0.432   1.828   1.562
  136  SOL  HW2  556   0.491   1.804   1.425
  137  SOL   OW  557   2.228   0.926   3.874
  137  SOL  HW1  558   2.271   0.840   3.883
  137  SOL  HW2  559   2.137   0.909   3.898
  138  SOL   OW  560   2.996   3.809   3.961
  138  SOL  HW1  561   3.064   3.753   3.999
  138  SOL  HW2  562   2.943   3.836   4.035
  139  SOL   OW  563   2.568   1.822   1.998
  139  SOL  HW1  564   2.485   1.774   1.994
  139  SOL  HW2  565   2.546   1.904   2.042
  140  SOL   OW  566   3.576   0.106   1.493
  140  SOL  HW1  567   3.582   0.187   1.544
  140  SOL  HW2  568   3.657   0.060   1.511
  141  SOL   OW  569   2.809   1.219   1.469
  141  SOL  HW1  570   2.735   1.204   1.528
  141  SOL  HW2  571   2.774   1.198   1.382
  142  SOL   OW  572   0.546   3.176   3.386
  142  SOL  HW1  573   0.473   3.220   3.430
  142  SOL  HW2  574   0.608   3.247   3.366
  143  SOL   OW  575   3.377   0.354   0.553
  143  SOL  HW1  576   3.369   0.263   0.524
  143  SOL  HW2  577   3.312   0.363   0.621
  144  SOL   OW  578   1.203   0.574   2.310
  144  SOL  HW1  579   1.132   0.512   2.329
  144  SOL  HW2  580   1.187   0.601   2.219
  145  SOL   OW  581   3.405   2.680   0.235
  145  SOL  HW1  582   3.426   2.708   0.146
  145  SOL  HW2  583   3.349   2.603   0.223
  146  SOL   OW  584   2.681   1.202   1.244
  146  SOL  HW1  585   2.654   1.115   1.216
  146  SOL  HW2  586   2.601   1.255   1.242
  147  SOL   OW  587   2.316   3.496   3.433
  147  SOL  HW1  588   2.391   3.445   3.405
  147  SOL  HW2  589   2.328   3.506   3.527
  148  SOL   OW  590   3.165   0.038   0.331
  148  SOL  HW1  591   3.075   0.066   0.350
  148  SOL  HW2  592   3.215   0.062   0.408
  149  SOL   OW  593   0.411   3.981   2.927
  149  SOL  HW1  594   0.342   3.921   2.952
  149  SOL  HW2  595   0.485   3.957   2.982
  150  SOL   OW  596   1.378   2.619   2.841
  150  SOL  HW1  597   1.357   2.526   2.830
  150  SOL  HW2  598   1.470   2.619   2.869
  151  SOL   OW  599   0.269   0.257   0.481
  151  SOL  HW1  600   0.360   0.280   0.460
  151  SOL  HW2  601   0.222   0.340   0.479
  152  SOL   OW  602   3.620   2.365   2.048
  152  SOL  HW1  603   3.709   2.381   2.078
  152  SOL  HW2  604   3.620   2.394   1.956
  153  SOL   OW  605   1.140   0.710   0.342
  153  SOL  HW1  606   1.166   0.714   0.435
  153  SOL  HW2  607   1.046   0.724   0.343
  154  SOL   OW  608   1.357   2.330   2.882
  154  SOL  HW1  609   1.330   2.336   2.974
  154  SOL  HW2  610   1.339   2.239   2.858
  155  SOL   OW  611   3.038   0.877   1.537
  155  SOL  HW1  612   2.945   0.883   1.512
  155  SOL  HW2  613   3.037   0.831   1.621
  156  SOL   OW  614   2.847   3.249   1.139
  156  SOL  HW1  615   2.860   3.312   1.210
  156  SOL  HW2  616   2.927   3.253   1.087
  157  SOL   OW  617   1.870   0.388   3.685
  157  SOL  HW1  618   1.926   0.322   3.727
  157  SOL  HW2  619   1.802   0.406   3.749
  158  SOL   OW  620   2.080   3.483   3.283
  158  SOL  HW1  621   2.167   3.491   3.323
  158  SOL  HW2  622   2.077   3.393   3.251
  159  SOL   OW  623   0.742   0.508   3.172
  159  SOL  HW1  624   0.705   0.572   3.233
  159  SOL  HW2  625   0.744   0.554   3.088
  160  SOL   OW  626   3.808   0.398   2.513
  160  SOL  HW1  627   3.786   0.309   2.542
  160  SOL  HW2  628   3.828   0.445   2.593
  161  SOL   OW  629   1.441   0.777   0.392
  161  SOL  HW1  630   1.512   0.824   0.435
  161  SOL  HW2  631   1.461   0.684   0.407
  162  SOL   OW  632   2.128   0.180   2.134
  162  SOL  HW1  633   2.218   0.180   2.102
  162  SOL  HW2  634   2.104   0.273   2.135
  163  SOL   OW  635   1.504   2.480   1.235
  163  SOL  HW1  636   1.427   2.482   1.292
  163  SOL  HW2  637   1.485   2.411   1.172
  164  SOL   OW  638   1.620   3.109   2.307
  164  SOL  HW1  639   1.615   3.204   2.311
  164  SOL  HW2  640   1.615   3.088   2.214
  165  SOL   OW  641   3.091   1.637   2.002
  165  SOL  HW1  642   3.178   1.676   2.010
  165  SOL  HW2  643   3.039   1.704   1.956
  166  SOL   OW  644   1.569   0.185   1.992
  166  SOL  HW1  645   1.629   0.200   2.064
  166  SOL  HW2  646   1.498   0.132   2.030
  167  SOL   OW  647   2.303   1.879   0.043
  167  SOL  HW1  648   2.233   1.855  -0.017
  167  SOL  HW2  649   2.268   1.861   0.130
  168  SOL   OW  650   3.213   0.945   2.228
  168  SOL  HW1  651   3.189   0.856   2.199
  168  SOL  HW2  652   3.153   0.963   2.300
  169  SOL   OW  653   1.387   2.324   1.555
  169  SOL  HW1  654   1.432   2.243   1.581
  169  SOL  HW2  655   1.354   2.360   1.638
  170  SOL   OW  656   1.679   2.935   1.212
  170  SOL  HW1  657   1.643   2.846   1.217
  170  SOL  HW2  658   1.774   2.922   1.206
  171  SOL   OW  659   0.544   1.786   1.846
  171  SOL  HW1  660   0.563   1.729   1.771
  171  SOL  HW2  661   0.477   1.738   1.895
  172  SOL   OW  662   3.070   2.550   1.099
  172  SOL  HW1  663   3.037   2.612   1.163
  172  SOL  HW2  664   2.997   2.537   1.039
  173  SOL   OW  665   4.048   3.076   2.490
  173  SOL  HW1  666   3.992   3.070   2.413
  173  SOL  HW2  667   4.058   2.986   2.521
  174  SOL   OW  668   3.758   0.743   0.966
  174  SOL  HW1  669   3.669   0.774   0.951
  174  SOL  HW2  670   3.781   0.696   0.886
  175  SOL   OW  671   2.585   1.499   3.535
  175  SOL  HW1  672   2.652   1.512   3.469
  175  SOL  HW2  673   2.576   1.585   3.577
  176  SOL   OW  674   1.593   2.006   3.729
  176  SOL  HW1  675   1.546   1.987   3.648
  176  SOL  HW2  676   1.663   1.941   3.731
  177  SOL   OW  677   3.509   3.074   4.025
  177  SOL  HW1  678   3.518   3.110   3.937
  177  SOL  HW2  679   3.590   3.099   4.069
  178  SOL   OW  680   1.737   3.913   0.296
  178  SOL  HW1  681   1.683   3.857   0.241
  178  SOL  HW2  682   1.714   3.888   0.386
  179  SOL   OW  683   2.830   1.849   3.383
  179  SOL  HW1  684   2.766   1.920   3.387
  179  SOL  HW2  685   2.820   1.811   3.296
  180  SOL   OW  686   3.085   3.253   3.824
  180  SOL  HW1  687   3.077   3.158   3.823
  180  SOL  HW2  688   3.039   3.282   3.745
  181  SOL   OW  689   2.231   0.790   1.426
  181  SOL  HW1  690   2.245   0.746   1.509
  181  SOL  HW2  691   2.156   0.848   1.442
  182  SOL   OW  692   0.869   0.253   3.247
  182  SOL  HW1  693   0.852   0.237   3.154
  182  SOL  HW2  694   0.948   0.307   3.247
  183  SOL   OW  695   0.943   2.430   3.178
  183  SOL  HW1  696   0.936   2.335   3.189
  183  SOL  HW2  697   0.853   2.459   3.169
  184  SOL   OW  698   2.791   0.971   2.471
  184  SOL  HW1  699   2.750   0.932   2.393
  184  SOL  HW2  700   2.718   1.006   2.521
  185  SOL   OW  701   2.461   0.599   2.373
  185  SOL  HW1  702   2.468   0.508   2.343
  185  SOL  HW2  703   2.430   0.647   2.296
  186  SOL   OW  704   1.833   4.025   2.877
  186  SOL  HW1  705   1.819   4.026   2.783
  186  SOL  HW2  706   1.892   3.951   2.893
  187  SOL   OW  707   1.610   2.365   4.014
  187  SOL  HW1  708   1.592   2.437   4.074
  187  SOL  HW2  709   1.657   2.405   3.941
  188  SOL   OW  710   0.442   0.466   0.705
  188  SOL  HW1  711   0.414   0.531   0.641
  188  SOL  HW2  712   0.384   0.480   0.780
  189  SOL   OW  713   0.448   0.011   0.672
  189  SOL  HW1  714   0.476   0.013   0.580
  189  SOL  HW2  715   0.526   0.033   0.721
  190  SOL   OW  716   1.249   0.219   2.166
  190  SOL  HW1  717   1.290   0.133   2.172
  190  SOL  HW2  718   1.301   0.275   2.225
  191  SOL   OW  719   1.797   3.804   2.336
  191  SOL  HW1  720   1.787   3.709   2.337
  191  SOL  HW2  721   1.889   3.818   2.359
  192  SOL   OW  722   2.790   1.261   0.701
  192  SOL  HW1  723   2.797   1.356   0.688
  192  SOL  HW2  724   2.700   1.240   0.676
  193  SOL   OW  725   0.558   2.532   0.320
  193  SOL  HW1  726   0.543   2.468   0.390
  193  SOL  HW2  727   0.508   2.499   0.246
  194  SOL   OW  728   3.931   1.539   0.365
  194  SOL  HW1  729   3.843   1.528   0.402
  194  SOL  HW2  730   3.930   1.487   0.285
  195  SOL   OW  731   3.563   0.492   2.912
  195  SOL  HW1  732   3.493   0.450   2.861
  195  SOL  HW2  733   3.521   0.569   2.949
  196  SOL   OW  734   2.825   2.571   0.939
  196  SOL  HW1  735   2.832   2.666   0.940
  196  SOL  HW2  736   2.757   2.550   1.003
  197  SOL   OW  737   2.179   1.499   2.481
  197  SOL  HW1  738   2.190   1.408   2.509
  197  SOL  HW2  739   2.239   1.510   2.408
  198  SOL   OW  740   0.726   2.108   3.602
  198  SOL  HW1  741   0.754   2.067   3.683
  198  SOL  HW2  742   0.704   2.198   3.627
  199  SOL   OW  743   1.561   2.578   0.124
  199  SOL  HW1  744   1.505   2.537   0.190
  199  SOL  HW2  745   1.585   2.663   0.162
  200  SOL   OW  746   2.901   0.364   2.509
  200  SOL  HW1  747   2.875   0.288   2.560
  200  SOL  HW2  748   2.845   0.435   2.541
  201  SOL   OW  749   1.506   2.020   3.112
  201  SOL  HW1  750   1.501   1.933   3.152
  201  SOL  HW2  751   1.501   2.081   3.186
  202  SOL   OW  752   0.023   2.214   3.731
  202  SOL  HW1  753   0.087   2.231   3.663
  202  SOL  HW2  754   0.050   2.130   3.769
  203  SOL   OW  755   3.674   1.268   2.706
  203  SOL  HW1  756   3.647   1.219   2.629
  203  SOL  HW2  757   3.656   1.360   2.684
  204  SOL   OW  758   2.366   3.769   2.805
  204  SOL  HW1  759   2.334   3.716   2.877
  204  SOL  HW2  760   2.303   3.756   2.734
  205  SOL   OW  761   0.567   1.098   0.309
  205  SOL  HW1  762   0.583   1.014   0.352
  205  SOL  HW2  763   0.647   1.115   0.259
  206  SOL   OW  764   2.420   2.001   1.494
  206  SOL  HW1  765   2.482   1.989   1.567
  206  SOL  HW2  766   2.465   2.062   1.435
  207  SOL   OW  767   2.684   0.303   3.090
  207  SOL  HW1  768   2.646   0.368   3.032
  207  SOL  HW2  769   2.774   0.293   3.059
  208  SOL   OW  770   0.437   3.707   1.559
  208  SOL  HW1  771   0.383   3.653   1.617
  208  SOL  HW2  772   0.526   3.698   1.594
  209  SOL   OW  773  -0.024   3.069   0.032
  209  SOL  HW1  774   0.026   3.057  -0.049
  209  SOL  HW2  775   0.029   3.026   0.099
  210  SOL   OW  776   3.681   2.757   2.957
  210  SOL  HW1  777   3.704   2.841   2.916
  210  SOL  HW2  778   3.586   2.753   2.950
  211  SOL   OW  779   2.012   2.595   2.032
  211  SOL  HW1  780   1.985   2.540   2.106
  211  SOL  HW2  781   2.090   2.551   1.998
  212  SOL   OW  782   3.689   1.793   0.040
  212  SOL  HW1  783   3.684   1.800  -0.056
  212  SOL  HW2  784   3.771   1.835   0.064
  213  SOL   OW  785   3.742   1.718   3.776
  213  SOL  HW1  786   3.654   1.713   3.815
  213  SOL  HW2  787   3.726   1.750   3.687
  214  SOL   OW  788   3.856   2.044   1.475
  214  SOL  HW1  789   3.782   1.992   1.506
  214  SOL  HW2  790   3.840   2.053   1.381
  215  SOL   OW  791   1.468   3.034   1.073
  215  SOL  HW1  792   1.443   3.124   1.092
  215  SOL  HW2  793   1.527   3.009   1.143
  216  SOL   OW  794   3.665   0.213   0.458
  216  SOL  HW1  795   3.583   0.257   0.434
  216  SOL  HW2  796   3.704   0.188   0.375
  217  SOL   OW  797   3.792   3.634   3.832
  217  SOL  HW1  798   3.799   3.644   3.737
  217  SOL  HW2  799   3.877   3.600   3.859
  218  SOL   OW  800   2.257   0.624   2.116
  218  SOL  HW1  801   2.194   0.552   2.126
  218  SOL  HW2  802   2.205   0.698   2.084
  219  SOL   OW  803   0.242   0.322   1.809
  219  SOL  HW1  804   0.200   0.289   1.730
  219  SOL  HW2  805   0.325   0.274   1.814
  220  SOL   OW  806   0.553   2.944   0.022
  220  SOL  HW1  807   0.536   2.902   0.107
  220  SOL  HW2  808   0.572   3.035   0.044
  221  SOL   OW  809   1.100   0.234   0.316
  221  SOL  HW1  810   1.148   0.259   0.237
  221  SOL  HW2  811   1.121   0.142   0.329
  222  SOL   OW  812   2.793   2.528   0.123
  222  SOL  HW1  813   2.799   2.481   0.040
  222  SOL  HW2  814   2.797   2.621   0.099
  223  SOL   OW  815   2.552   2.854   1.329
  223  SOL  HW1  816   2.468   2.808   1.336
  223  SOL  HW2  817   2.558   2.879   1.236
  224  SOL   OW  818   2.417   3.901   3.928
  224  SOL  HW1  819   2.465   3.821   3.945
  224  SOL  HW2  820   2.475   3.971   3.958
  225  SOL   OW  821   1.190   0.275   0.560
  225  SOL  HW1  822   1.259   0.208   0.569
  225  SOL  HW2  823   1.146   0.253   0.477
  226  SOL   OW  824   0.057   1.333   0.599
  226  SOL  HW1  825   0.011   1.409   0.634
  226  SOL  HW2  826   0.046   1.340   0.504
  227  SOL   OW  827   0.400   2.573   3.529
  227  SOL  HW1  828   0.353   2.551   3.448
  227  SOL  HW2  829   0.492   2.567   3.505
  228  SOL   OW  830   2.671   1.758   2.812
  228  SOL  HW1  831   2.624   1.675   2.802
  228  SOL  HW2  832   2.617   1.810   2.871
  229  SOL   OW  833   0.400   1.625   0.413
  229  SOL  HW1  834   0.414   1.538   0.377
  229  SOL  HW2  835   0.450   1.683   0.354
  230  SOL   OW  836   1.119   2.637   1.829
  230  SOL  HW1  837   1.037   2.589   1.839
  230  SOL  HW2  838   1.099   2.725   1.862
  231  SOL   OW  839   1.965   3.224   2.857
  231  SOL  HW1  840   1.890   3.281   2.839
  231  SOL  HW2  841   1.996   3.253   2.943
  232  SOL   OW  842   2.674   3.839   3.200
  232  SOL  HW1  843   2.643   3.844   3.109
  232  SOL  HW2  844   2.617   3.900   3.248
  233  SOL   OW  845   1.851   1.120   2.830
  233  SOL  HW1  846   1.899   1.088   2.754
  233  SOL  HW2  847   1.760   1.097   2.812
  234  SOL   OW  848   0.166   3.528   0.493
  234  SOL  HW1  849   0.136   3.444   0.458
  234  SOL  HW2  850   0.223   3.505   0.566
  235  SOL   OW  851   3.483   0.817   2.227
  235  SOL  HW1  852   3.449   0.727   2.225
  235  SOL  HW2  853   3.405   0.872   2.220
  236  SOL   OW  854   1.171   0.384   3.021
  236  SOL  HW1  855   1.095   0.413   2.971
  236  SOL  HW2  856   1.245   0.395   2.962
  237  SOL   OW  857   1.415   3.069   1.765
  237  SOL  HW1  858   1.477   3.141   1.777
  237  SOL  HW2  859   1.403   3.064   1.670
  238  SOL   OW  860   0.003   0.861   1.700
  238  SOL  HW1  861   0.076   0.832   1.755
  238  SOL  HW2  862  -0.067   0.882   1.763
  239  SOL   OW  863   3.198   2.736   1.430
  239  SOL  HW1  864   3.110   2.718   1.397
  239  SOL  HW2  865   3.206   2.832   1.425
  240  SOL   OW  866   3.455   2.893   2.164
  240  SOL  HW1  867   3.529   2.916   2.107
  240  SOL  HW2  868   3.443   2.971   2.219
  241  SOL   OW  869   1.141   4.042   0.447
  241  SOL  HW1  870   1.058   4.069   0.487
  241  SOL  HW2  871   1.137   3.946   0.446
  242  SOL   OW  872   1.624   1.421   0.883
  242  SOL  HW1  873   1.643   1.501   0.833
  242  SOL  HW2  874   1.711   1.387   0.907
  243  SOL   OW  875   0.220   0.500   0.922
  243  SOL  HW1  876   0.182   0.461   0.843
  243  SOL  HW2  877   0.170   0.581   0.935
  244  SOL   OW  878   3.202   0.886   3.903
  244  SOL  HW1  879   3.288   0.847   3.885
  244  SOL  HW2  880   3.150   0.867   3.826
  245  SOL   OW  881   0.736   1.367   2.597
  245  SOL  HW1  882   0.671   1.419   2.644
  245  SOL  HW2  883   0.693   1.343   2.515
  246  SOL   OW  884   0.736   3.087   2.008
  246  SOL  HW1  885   0.645   3.089   2.036
  246  SOL  HW2  886   0.739   3.020   1.940
  247  SOL   OW  887   1.144   2.884   1.622
  247  SOL  HW1  888   1.101   2.850   1.543
  247  SOL  HW2  889   1.137   2.813   1.686
  248  SOL   OW  890   2.315   1.177   1.981
  248  SOL  HW1  891   2.275   1.172   1.894
  248  SOL  HW2  892   2.331   1.270   1.995
  249  SOL   OW  893   1.245   3.350   3.346
  249  SOL  HW1  894   1.315   3.379   3.288
  249  SOL  HW2  895   1.279   3.366   3.434
  250  SOL   OW  896   2.648   0.027   2.877
  250  SOL  HW1  897   2.653  -0.050   2.820
  250  SOL  HW2  898   2.740   0.045   2.900
  251  SOL   OW  899   3.882   1.398   0.101
  251  SOL  HW1  900   3.837   1.315   0.087
  251  SOL  HW2  901   3.844   1.457   0.036
  252  SOL   OW  902   1.441   0.624   2.404
  252  SOL  HW1  903   1.476   0.681   2.336
  252  SOL  HW2  904   1.352   0.603   2.375
  253  SOL   OW  905   1.535   2.973   3.086
  253  SOL  HW1  906   1.558   2.894   3.135
  253  SOL  HW2  907   1.441   2.983   3.098
  254  SOL   OW  908   3.954   0.998   0.160
  254  SOL  HW1  909   4.014   0.971   0.090
  254  SOL  HW2  910   3.955   0.926   0.222
  255  SOL   OW  911   2.663   2.489   2.208
  255  SOL  HW1  912   2.687   2.582   2.200
  255  SOL  HW2  913   2.591   2.477   2.147
  256  SOL   OW  914   0.743   0.186   2.957
  256  SOL  HW1  915   0.793   0.113   2.920
  256  SOL  HW2  916   0.716   0.237   2.882
  257  SOL   OW  917   1.073   2.331   0.789
  257  SOL  HW1  918   1.109   2.313   0.876
  257  SOL  HW2  919   0.995   2.383   0.806
  258  SOL   OW  920   2.416   3.907   1.092
  258  SOL  HW1  921   2.413   3.931   1.185
  258  SOL  HW2  922   2.462   3.980   1.050
  259  SOL   OW  923   3.108   3.912   1.434
  259  SOL  HW1  924   3.155   3.978   1.485
  259  SOL  HW2  925   3.112   3.833   1.488
  260  SOL   OW  926   4.029   0.693   3.759
  260  SOL  HW1  927   3.989   0.613   3.724
  260  SOL  HW2  928   4.010   0.691   3.852
  261  SOL   OW  929   2.473   2.831   1.641
  261  SOL  HW1  930   2.402   2.877   1.597
  261  SOL  HW2  931   2.431   2.754   1.679
  262  SOL   OW  932   0.355   1.384   1.618
  262  SOL  HW1  933   0.399   1.404   1.536
  262  SOL  HW2  934   0.388   1.298   1.643
  263  SOL   OW  935  -0.014   3.663   3.388
  263  SOL  HW1  936   0.045   3.737   3.402
  263  SOL  HW2  937   0.043   3.591   3.362
  264  SOL   OW  938   0.095   3.090   2.170
  264  SOL  HW1  939   0.163   3.132   2.223
  264  SOL  HW2  940   0.090   3.001   2.207
  265  SOL   OW  941   1.214   0.743   0.608
  265  SOL  HW1  942   1.194   0.836   0.616
  265  SOL  HW2  943   1.309   0.738   0.618
  266  SOL   OW  944   3.665   3.270   2.030
  266  SOL  HW1  945   3.638   3.185   1.995
  266  SOL  HW2  946   3.630   3.334   1.969
  267  SOL   OW  947   3.427   1.929   0.577
  267  SOL  HW1  948   3.473   1.951   0.497
  267  SOL  HW2  949   3.373   2.006   0.596
  268  SOL   OW  950   3.569   2.368   0.396
  268  SOL  HW1  951   3.479   2.401   0.397
  268  SOL  HW2  952   3.568   2.298   0.331
  269  SOL   OW  953   3.579   2.013   1.541
  269  SOL  HW1  954   3.568   2.105   1.568
  269  SOL  HW2  955   3.490   1.982   1.525
  270  SOL   OW  956   3.656   2.315   1.205
  270  SOL  HW1  957   3.751   2.307   1.209
  270  SOL  HW2  958   3.641   2.403   1.171
  271  SOL   OW  959   1.001   0.930   0.987
  271  SOL  HW1  960   0.994   0.857   0.924
  271  SOL  HW2  961   1.077   0.908   1.040
  272  SOL   OW  962   3.678   3.665   2.346
  272  SOL  HW1  963   3.635   3.629   2.269
  272  SOL  HW2  964   3.713   3.588   2.392
  273  SOL   OW  965   2.309   3.983   1.341
  273  SOL  HW1  966   2.243   4.031   1.291
  273  SOL  HW2  967   2.264   3.904   1.371
  274  SOL   OW  968   0.178   3.865   1.884
  274  SOL  HW1  969   0.225   3.882   1.802
  274  SOL  HW2  970   0.245   3.866   1.952
  275  SOL   OW  971   0.859   0.749   0.798
  275  SOL  HW1  972   0.807   0.716   0.872
  275  SOL  HW2  973   0.814   0.829   0.772
  276  SOL   OW  974   0.693   1.672   0.810
  276  SOL  HW1  975   0.677   1.716   0.727
  276  SOL  HW2  976   0.762   1.608   0.791
  277  SOL   OW  977   3.862   1.101   3.838
  277  SOL  HW1  978   3.802   1.071   3.906
  277  SOL  HW2  979   3.856   1.035   3.769
  278  SOL   OW  980   0.769   1.274   0.168
  278  SOL  HW1  981   0.823   1.212   0.217
  278  SOL  HW2  982   0.779   1.357   0.214
  279  SOL   OW  983   2.051   3.649   1.678
  279  SOL  HW1  984   2.010   3.702   1.747
  279  SOL  HW2  985   1.994   3.662   1.602
  280  SOL   OW  986   0.345   2.447   3.261
  280  SOL  HW1  987   0.362   2.533   3.223
  280  SOL  HW2  988   0.388   2.385   3.202
  281  SOL   OW  989   1.894   1.385   0.121
  281  SOL  HW1  990   1.847   1.387   0.204
  281  SOL  HW2  991   1.917   1.293   0.109
  282  SOL   OW  992   3.873   1.051   3.094
  282  SOL  HW1  993   3.822   0.970   3.093
  282  SOL  HW2  994   3.846   1.097   3.014
  283  SOL   OW  995   1.724   0.903   1.512
  283  SOL  HW1  996   1.694   0.959   1.441
  283  SOL  HW2  997   1.808   0.940   1.539
  284  SOL   OW  998   1.349   3.131   0.499
  284  SOL  HW1  999   1.303   3.047   0.504
  284  SOL  HW2 1000   1.307   3.177   0.426
  285  SOL   OW 1001   1.631   2.285   0.470
  285  SOL  HW1 1002   1.641   2.255   0.380
  285  SOL  HW2 1003   1.613   2.379   0.463
  286  SOL   OW 1004   0.601   3.717   2.946
  286  SOL  HW1 1005   0.512   3.695   2.974
  286  SOL  HW2 1006   0.593   3.744   2.855
  287  SOL   OW 1007   0.085   2.413   3.905
  287  SOL  HW1 1008   0.065   2.348   3.838
  287  SOL  HW2 1009   0.152   2.469   3.866
  288  SOL   OW 1010   2.306   3.423   2.709
  288  SOL  HW1 1011   2.273   3.348   2.659
  288  SOL  HW2 1012   2.382   3.453   2.659
  289  SOL   OW 1013   2.717   3.539   0.471
  289  SOL  HW1 1014   2.740   3.632   0.466
  289  SOL  HW2 1015   2.666   3.532   0.552
  290  SOL   OW 1016   2.126   0.333   0.056
  290  SOL  HW1 1017   2.136   0.237   0.051
  290  SOL  HW2 1018   2.032   0.348   0.042
  291  SOL   OW 1019   0.841   0.963   0.488
  291  SOL  HW1 1020   0.870   0.871   0.486
  291  SOL  HW2 1021   0.760   0.961   0.540
  292  SOL   OW 1022   3.998   3.731   0.510
  292  SOL  HW1 1023   4.067   3.664   0.509
  292  SOL  HW2 1024   3.955   3.722   0.425
  293  SOL   OW 1025   0.331   2.811   2.236
  293  SOL  HW1 1026   0.321   2.870   2.162
  293  SOL  HW2 1027   0.368   2.731   2.199
  294  SOL   OW 1028   2.619   1.182   2.526
  294  SOL  HW1 1029   2.603   1.227   2.443
  294  SOL  HW2 1030   2.536   1.190   2.574
  295  SOL   OW 1031   3.942   0.656   1.887
  295  SOL  HW1 1032   3.991   0.649   1.969
  295  SOL  HW2 1033   3.879   0.726   1.903
  296  SOL   OW 1034   2.690   1.790   1.198
  296  SOL  HW1 1035   2.670   1.704   1.161
  296  SOL  HW2 1036   2.673   1.780   1.292
  297  SOL   OW 1037   2.064   1.283   3.448
  297  SOL  HW1 1038   2.014   1.231   3.510
  297  SOL  HW2 1039   2.078   1.367   3.493
  298  SOL   OW 1040   3.022   1.118   3.758
  298  SOL  HW1 1041   3.039   1.034   3.716
  298  SOL  HW2 1042   2.980   1.097   3.841
  299  SOL   OW 1043   3.094   3.700   3.376
  299  SOL  HW1 1044   3.094   3.741   3.463
  299  SOL  HW2 1045   3.053   3.615   3.390
  300  SOL   OW 1046   3.389   0.381   0.871
  300  SOL  HW1 1047   3.402   0.469   0.836
  300  SOL  HW2 1048   3.463   0.330   0.836
  301  SOL   OW 1049   3.815   3.414   1.854
  301  SOL  HW1 1050   3.838   3.322   1.866
  301  SOL  HW2 1051   3.748   3.413   1.786
  302  SOL   OW 1052   3.170   2.702   4.000
  302  SOL  HW1 1053   3.209   2.767   3.942
  302  SOL  HW2 1054   3.090   2.743   4.032
  303  SOL   OW 1055   0.483   3.196   3.803
  303  SOL  HW1 1056   0.529   3.120   3.767
  303  SOL  HW2 1057   0.415   3.159   3.859
  304  SOL   OW 1058   3.720   3.384   3.913
  304  SOL  HW1 1059   3.745   3.473   3.890
  304  SOL  HW2 1060   3.761   3.329   3.846
  305  SOL   OW 1061   0.661   2.561   3.119
  305  SOL  HW1 1062   0.566   2.571   3.109
  305  SOL  HW2 1063   0.697   2.645   3.091
  306  SOL   OW 1064   1.828   1.903   0.363
  306  SOL  HW1 1065   1.789   1.831   0.315
  306  SOL  HW2 1066   1.846   1.868   0.450
  307  SOL   OW 1067   1.633   2.912   2.539
  307  SOL  HW1 1068   1.576   2.835   2.534
  307  SOL  HW2 1069   1.641   2.930   2.633
  308  SOL   OW 1070   1.921   0.343   2.639
  308  SOL  HW1 1071   1.923   0.332   2.734
  308  SOL  HW2 1072   1.828   0.340   2.617
  309  SOL   OW 1073   3.221   2.998   1.445
  309  SOL  HW1 1074   3.303   3.045   1.433
  309  SOL  HW2 1075   3.177   3.046   1.516
  310  SOL   OW 1076   3.227   1.268   1.723
  310  SOL  HW1 1077   3.254   1.340   1.780
  310  SOL  HW2 1078   3.134   1.286   1.705
  311  SOL   OW 1079   2.336   3.600   1.053
  311  SOL  HW1 1080   2.284   3.565   1.126
  311  SOL  HW2 1081   2.374   3.681   1.087
  312  SOL   OW 1082   3.637   0.848   2.450
  312  SOL  HW1 1083   3.605   0.780   2.510
  312  SOL  HW2 1084   3.580   0.841   2.373
  313  SOL   OW 1085   3.885   0.916   0.460
  313  SOL  HW1 1086   3.797   0.944   0.438
  313  SOL  HW2 1087   3.916   0.980   0.524
  314  SOL   OW 1088   2.913   0.829   2.191
  314  SOL  HW1 1089   2.979   0.760   2.198
  314  SOL  HW2 1090   2.838   0.795   2.239
  315  SOL   OW 1091   3.551   2.248   1.623
  315  SOL  HW1 1092   3.460   2.267   1.601
  315  SOL  HW2 1093   3.567   2.298   1.703
  316  SOL   OW 1094   1.443   3.075   3.690
  316  SOL  HW1 1095   1.388   3.076   3.768
  316  SOL  HW2 1096   1.529   3.103   3.721
  317  SOL   OW 1097   0.671   2.588   2.556
  317  SOL  HW1 1098   0.658   2.557   2.646
  317  SOL  HW2 1099   0.709   2.675   2.565
  318  SOL   OW 1100   1.894   2.325   3.357
  318  SOL  HW1 1101   1.878   2.402   3.412
  318  SOL  HW2 1102   1.959   2.274   3.406
  319  SOL   OW 1103   0.459   0.909   2.944
  319  SOL  HW1 1104   0.526   0.923   3.012
  319  SOL  HW2 1105   0.390   0.971   2.966
  320  SOL   OW 1106   1.288   2.117   0.416
  320  SOL  HW1 1107   1.252   2.124   0.327
  320  SOL  HW2 1108   1.352   2.046   0.410
  321  SOL   OW 1109   1.604   3.287   1.644
  321  SOL  HW1 1110   1.660   3.349   1.691
  321  SOL  HW2 1111   1.519   3.330   1.639
  322  SOL   OW 1112   2.860   2.070   0.219
  322  SOL  HW1 1113   2.882   2.087   0.310
  322  SOL  HW2 1114   2.916   1.996   0.194
  323  SOL   OW 1115   2.739   2.862   0.107
  323  SOL  HW1 1116   2.699   2.943   0.140
  323  SOL  HW2 1117   2.831   2.884   0.093
  324  SOL   OW 1118   1.839   0.324   0.454
  324  SOL  HW1 1119   1.851   0.282   0.539
  324  SOL  HW2 1120   1.910   0.388   0.449
  325  SOL   OW 1121   2.547   3.894   2.372
  325  SOL  HW1 1122   2.602   3.916   2.447
  325  SOL  HW2 1123   2.599   3.832   2.322
  326  SOL   OW 1124   2.514   0.697   2.046
  326  SOL  HW1 1125   2.422   0.675   2.061
  326  SOL  HW2 1126   2.513   0.791   2.027
  327  SOL   OW 1127   2.986   0.208   1.108
  327  SOL  HW1 1128   2.977   0.180   1.199
  327  SOL  HW2 1129   3.079   0.226   1.097
  328  SOL   OW 1130   1.855   3.973   1.471
  328  SOL  HW1 1131   1.773   3.976   1.422
  328  SOL  HW2 1132   1.923   3.979   1.404
  329  SOL   OW 1133   3.275   3.033   1.875
  329  SOL  HW1 1134   3.228   2.962   1.919
  329  SOL  HW2 1135   3.322   2.990   1.804
  330  SOL   OW 1136   0.574   2.646   1.374
  330  SOL  HW1 1137   0.556   2.573   1.433
  330  SOL  HW2 1138   0.527   2.624   1.293
  331  SOL   OW 1139   0.252   3.221   2.755
  331  SOL  HW1 1140   0.157   3.232   2.765
  331  SOL  HW2 1141   0.280   3.183   2.838
  332  SOL   OW 1142   1.389   3.551   0.858
  332  SOL  HW1 1143   1.367   3.464   0.824
  332  SOL  HW2 1144   1.378   3.610   0.783
  333  SOL   OW 1145   2.732   1.793   0.422
  333  SOL  HW1 1146   2.666   1.812   0.355
  333  SOL  HW2 1147   2.743   1.876   0.468
  334  SOL   OW 1148   0.267   1.738   3.202
  334  SOL  HW1 1149   0.348   1.689   3.219
  334  SOL  HW2 1150   0.238   1.708   3.117
  335  SOL   OW 1151   3.469   3.384   0.167
  335  SOL  HW1 1152   3.410   3.310   0.147
  335  SOL  HW2 1153   3.456   3.445   0.095
  336  SOL   OW 1154   2.756   3.410   1.349
  336  SOL  HW1 1155   2.707   3.327   1.351
  336  SOL  HW2 1156   2.696   3.473   1.309
  337  SOL   OW 1157   1.441   1.617   0.084
  337  SOL  HW1 1158   1.389   1.693   0.055
  337  SOL  HW2 1159   1.506   1.605   0.015
  338  SOL   OW 1160   3.011   3.132   3.323
  338  SOL  HW1 1161   3.001   3.159   3.232
  338  SOL  HW2 1162   2.925   3.099   3.348
  339  SOL   OW 1163   2.495   0.843   0.783
  339  SOL  HW1 1164   2.421   0.795   0.744
  339  SOL  HW2 1165   2.511   0.799   0.866
  340  SOL   OW 1166   1.029   0.742   2.587
  340  SOL  HW1 1167   1.088   0.708   2.520
  340  SOL  HW2 1168   1.017   0.668   2.648
  341  SOL   OW 1169   0.905   3.058   2.608
  341  SOL  HW1 1170   0.978   3.044   2.547
  341  SOL  HW2 1171   0.840   3.107   2.558
  342  SOL   OW 1172   0.999   1.144   2.407
  342  SOL  HW1 1173   0.964   1.171   2.321
  342  SOL  HW2 1174   0.923   1.110   2.454
  343  SOL   OW 1175   2.326   0.096   3.192
  343  SOL  HW1 1176   2.249   0.045   3.167
  343  SOL  HW2 1177   2.399   0.053   3.148
  344  SOL   OW 1178   2.588   0.779   3.368
  344  SOL  HW1 1179   2.516   0.716   3.364
  344  SOL  HW2 1180   2.642   0.749   3.441
  345  SOL   OW 1181   1.126   1.840   0.217
  345  SOL  HW1 1182   1.129   1.857   0.311
  345  SOL  HW2 1183   1.098   1.749   0.210
  346  SOL   OW 1184   3.446   1.112   2.120
  346  SOL  HW1 1185   3.490   1.191   2.151
  346  SOL  HW2 1186   3.388   1.088   2.192
  347  SOL   OW 1187   3.015   0.827   3.651
  347  SOL  HW1 1188   3.026   0.732   3.658
  347  SOL  HW2 1189   2.979   0.840   3.563
  348  SOL   OW 1190   2.428   2.947   3.422
  348  SOL  HW1 1191   2.435   2.966   3.329
  348  SOL  HW2 1192   2.444   3.031   3.466
  349  SOL   OW 1193   1.480   2.704   3.904
  349  SOL  HW1 1194   1.562   2.751   3.920
  349  SOL  HW2 1195   1.486   2.626   3.958
  350  SOL   OW 1196   3.008   0.069   0.863
  350  SOL  HW1 1197   3.003   0.046   0.955
  350  SOL  HW2 1198   2.921   0.104   0.842
  351  SOL   OW 1199   2.596   0.856   1.687
  351  SOL  HW1 1200   2.504   0.858   1.712
  351  SOL  HW2 1201   2.617   0.763   1.680
  352  SOL   OW 1202   0.223  -0.005   0.460
  352  SOL  HW1 1203   0.314  -0.035   0.452
  352  SOL  HW2 1204   0.227   0.090   0.448
  353  SOL   OW 1205   1.419   4.034   2.194
  353  SOL  HW1 1206   1.502   4.031   2.242
  353  SOL  HW2 1207   1.359   3.982   2.247
  354  SOL   OW 1208   3.376   2.725   2.859
  354  SOL  HW1 1209   3.284   2.747   2.845
  354  SOL  HW2 1210   3.377   2.629   2.861
  355  SOL   OW 1211   0.219   3.476   0.133
  355  SOL  HW1 1212   0.204   3.449   0.223
  355  SOL  HW2 1213   0.146   3.437   0.084
  356  SOL   OW 1214   3.936   0.936   3.612
  356  SOL  HW1 1215   4.014   0.934   3.668
  356  SOL  HW2 1216   3.948   0.862   3.552
  357  SOL   OW 1217   0.329   3.299   1.995
  357  SOL  HW1 1218   0.246   3.287   1.948
  357  SOL  HW2 1219   0.395   3.265   1.934
  358  SOL   OW 1220   1.999   2.285   2.955
  358  SOL  HW1 1221   1.960   2.320   2.874
  358  SOL  HW2 1222   1.925   2.278   3.016
  359  SOL   OW 1223   0.729   0.619   2.553
  359  SOL  HW1 1224   0.731   0.534   2.597
  359  SOL  HW2 1225   0.678   0.675   2.612
  360  SOL   OW 1226   2.954   0.925   2.837
  360  SOL  HW1 1227   2.948   0.911   2.931
  360  SOL  HW2 1228   2.870   0.895   2.802
  361  SOL   OW 1229   3.328   3.429   3.815
  361  SOL  HW1 1230   3.247   3.381   3.831
  361  SOL  HW2 1231   3.311   3.478   3.734
  362  SOL   OW 1232   0.810   3.967   1.002
  362  SOL  HW1 1233   0.768   3.885   1.028
  362  SOL  HW2 1234   0.904   3.948   1.006
  363  SOL   OW 1235   3.064   3.457   1.927
  363  SOL  HW1 1236   3.033   3.431   1.840
  363  SOL  HW2 1237   3.117   3.383   1.956
  364  SOL   OW 1238   3.709   1.104   2.464
  364  SOL  HW1 1239   3.660   1.031   2.427
  364  SOL  HW2 1240   3.684   1.180   2.410
  365  SOL   OW 1241   2.084   0.257   3.773
  365  SOL  HW1 1242   2.101   0.165   3.791
  365  SOL  HW2 1243   2.148   0.281   3.706
  366  SOL   OW 1244   3.372   1.584   0.496
  366  SOL  HW1 1245   3.306   1.652   0.481
  366  SOL  HW2 1246   3.402   1.560   0.409
  367  SOL   OW 1247   1.486   0.164   1.516
  367  SOL  HW1 1248   1.471   0.204   1.430
  367  SOL  HW2 1249   1.499   0.071   1.498
  368  SOL   OW 1250   1.551   3.785   1.843
  368  SOL  HW1 1251   1.491   3.860   1.847
  368  SOL  HW2 1252   1.615   3.802   1.912
  369  SOL   OW 1253   2.616   1.130   1.642
  369  SOL  HW1 1254   2.590   1.038   1.638
  369  SOL  HW2 1255   2.648   1.142   1.731
  370  SOL   OW 1256   1.369   3.391   1.716
  370  SOL  HW1 1257   1.355   3.486   1.718
  370  SOL  HW2 1258   1.422   3.373   1.794
  371  SOL   OW 1259   3.823   3.883   3.535
  371  SOL  HW1 1260   3.823   3.788   3.532
  371  SOL  HW2 1261   3.871   3.905   3.615
  372  SOL   OW 1262   0.159   2.708   0.450
  372  SOL  HW1 1263   0.076   2.667   0.474
  372  SOL  HW2 1264   0.145   2.801   0.467
  373  SOL   OW 1265   3.097   1.814   1.698
  373  SOL  HW1 1266   3.188   1.797   1.673
  373  SOL  HW2 1267   3.089   1.910   1.697
  374  SOL   OW 1268   0.790   2.267   1.588
  374  SOL  HW1 1269   0.881   2.246   1.606
  374  SOL  HW2 1270   0.756   2.189   1.544
  375  SOL   OW 1271   3.154   2.529   3.108
  375  SOL  HW1 1272   3.077   2.475   3.090
  375  SOL  HW2 1273   3.217   2.469   3.150
  376  SOL   OW 1274   1.392   2.748   3.618
  376  SOL  HW1 1275   1.356   2.795   3.542
  376  SOL  HW2 1276   1.367   2.801   3.693
  377  SOL   OW 1277   1.603   3.317   0.932
  377  SOL  HW1 1278   1.587   3.275   1.016
  377  SOL  HW2 1279   1.555   3.400   0.936
  378  SOL   OW 1280   2.166   1.329   3.799
  378  SOL  HW1 1281   2.222   1.288   3.733
  378  SOL  HW2 1282   2.227   1.363   3.864
  379  SOL   OW 1283   2.222   2.800   3.152
  379  SOL  HW1 1284   2.232   2.775   3.244
  379  SOL  HW2 1285   2.146   2.750   3.121
  380  SOL   OW 1286   3.411   0.510   2.112
  380  SOL  HW1 1287   3.505   0.515   2.092
  380  SOL  HW2 1288   3.398   0.420   2.141
  381  SOL   OW 1289   1.639   1.235   3.564
  381  SOL  HW1 1290   1.602   1.234   3.652
  381  SOL  HW2 1291   1.564   1.216   3.507
  382  SOL   OW 1292   0.201   1.932   0.852
  382  SOL  HW1 1293   0.295   1.947   0.844
  382  SOL  HW2 1294   0.192   1.837   0.845
  383  SOL   OW 1295   1.353   0.841   3.810
  383  SOL  HW1 1296   1.370   0.880   3.724
  383  SOL  HW2 1297   1.271   0.793   3.798
  384  SOL   OW 1298   3.158   2.794   2.391
  384  SOL  HW1 1299   3.089   2.825   2.450
  384  SOL  HW2 1300   3.113   2.738   2.328
  385  SOL   OW 1301   1.849   2.830   2.364
  385  SOL  HW1 1302   1.932   2.813   2.409
  385  SOL  HW2 1303   1.789   2.855   2.435
  386  SOL   OW 1304   0.433   2.052   3.590
  386  SOL  HW1 1305   0.376   2.107   3.536
  386  SOL  HW2 1306   0.515   2.048   3.541
  387  SOL   OW 1307   2.203   2.642   3.836
  387  SOL  HW1 1308   2.240   2.629   3.924
  387  SOL  HW2 1309   2.234   2.567   3.785
  388  SOL   OW 1310   2.611   0.575   1.692
  388  SOL  HW1 1311   2.643   0.503   1.746
  388  SOL  HW2 1312   2.575   0.532   1.614
  389  SOL   OW 1313   2.427   2.402   1.376
  389  SOL  HW1 1314   2.369   2.421   1.302
  389  SOL  HW2 1315   2.449   2.309   1.365
  390  SOL   OW 1316   1.531   1.626   1.332
  390  SOL  HW1 1317   1.495   1.538   1.339
  390  SOL  HW2 1318   1.460   1.679   1.297
  391  SOL   OW 1319   0.441   1.446   1.366
  391  SOL  HW1 1320   0.525   1.446   1.321
  391  SOL  HW2 1321   0.396   1.523   1.331
  392  SOL   OW 1322   3.275   1.478   2.607
  392  SOL  HW1 1323   3.256   1.387   2.629
  392  SOL  HW2 1324   3.217   1.498   2.535
  393  SOL   OW 1325   2.811   1.846   2.157
  393  SOL  HW1 1326   2.745   1.788   2.119
  393  SOL  HW2 1327   2.854   1.886   2.081
  394  SOL   OW 1328   0.784   2.538   1.051
  394  SOL  HW1 1329   0.697   2.537   1.012
  394  SOL  HW2 1330   0.768   2.535   1.145
  395  SOL   OW 1331   3.240   3.297   1.190
  395  SOL  HW1 1332   3.194   3.269   1.111
  395  SOL  HW2 1333   3.188   3.260   1.262
  396  SOL   OW 1334   0.964   3.676   0.646
  396  SOL  HW1 1335   0.998   3.624   0.719
  396  SOL  HW2 1336   0.892   3.726   0.685
  397  SOL   OW 1337   2.514   1.836   0.964
  397  SOL  HW1 1338   2.497   1.743   0.981
  397  SOL  HW2 1339   2.573   1.863   1.035
  398  SOL   OW 1340   3.058   3.280   2.946
  398  SOL  HW1 1341   3.030   3.220   2.877
  398  SOL  HW2 1342   3.122   3.231   2.998
  399  SOL   OW 1343   1.212   2.012   3.136
  399  SOL  HW1 1344   1.307   1.998   3.139
  399  SOL  HW2 1345   1.202   2.100   3.099
  400  SOL   OW 1346   0.438   2.586   2.135
  400  SOL  HW1 1347   0.490   2.557   2.061
  400  SOL  HW2 1348   0.479   2.545   2.211
  401  SOL   OW 1349   2.270   0.703   0.719
  401  SOL  HW1 1350   2.315   0.637   0.666
  401  SOL  HW2 1351   2.198   0.733   0.664
  402  SOL   OW 1352   0.762   1.158   3.021
  402  SOL  HW1 1353   0.780   1.139   2.929
  402  SOL  HW2 1354   0.670   1.185   3.022
  403  SOL   OW 1355   2.909   0.438   1.684
  403  SOL  HW1 1356   2.974   0.368   1.693
  403  SOL  HW2 1357   2.886   0.437   1.591
  404  SOL   OW 1358   0.371   1.112   2.311
  404  SOL  HW1 1359   0.346   1.077   2.225
  404  SOL  HW2 1360   0.288   1.128   2.356
  405  SOL   OW 1361   2.981   0.160   1.366
  405  SOL  HW1 1362   3.050   0.180   1.429
  405  SOL  HW2 1363   2.907   0.132   1.419
  406  SOL   OW 1364   0.692   2.969   3.798
  406  SOL  HW1 1365   0.659   2.944   3.885
  406  SOL  HW2 1366   0.659   2.900   3.740
  407  SOL   OW 1367   0.361   0.059   1.454
  407  SOL  HW1 1368   0.291   0.067   1.518
  407  SOL  HW2 1369   0.328  -0.005   1.390
  408  SOL   OW 1370   0.312   2.375   2.445
  408  SOL  HW1 1371   0.309   2.289   2.486
  408  SOL  HW2 1372   0.247   2.427   2.493
  409  SOL   OW 1373   0.173   0.194   3.243
  409  SOL  HW1 1374   0.228   0.117   3.236
  409  SOL  HW2 1375   0.225   0.257   3.293
  410  SOL   OW 1376   3.456   0.754   3.859
  410  SOL  HW1 1377   3.454   0.729   3.766
  410  SOL  HW2 1378   3.529   0.815   3.866
  411  SOL   OW 1379   0.603   0.674   1.345
  411  SOL  HW1 1380   0.670   0.618   1.306
  411  SOL  HW2 1381   0.535   0.682   1.277
  412  SOL   OW 1382   0.261   1.157   1.035
  412  SOL  HW1 1383   0.229   1.159   1.125
  412  SOL  HW2 1384   0.329   1.224   1.033
  413  SOL   OW 1385   2.349   0.255   2.930
  413  SOL  HW1 1386   2.416   0.278   2.995
  413  SOL  HW2 1387   2.357   0.161   2.920
  414  SOL   OW 1388   3.138   0.527   0.818
  414  SOL  HW1 1389   3.132   0.588   0.745
  414  SOL  HW2 1390   3.175   0.578   0.890
  415  SOL   OW 1391   2.375   2.898   0.352
  415  SOL  HW1 1392   2.325   2.860   0.425
  415  SOL  HW2 1393   2.441   2.831   0.332
  416  SOL   OW 1394   1.750   1.677   0.173
  416  SOL  HW1 1395   1.677   1.617   0.154
  416  SOL  HW2 1396   1.737   1.750   0.112
  417  SOL   OW 1397  -0.026   3.610   2.511
  417  SOL  HW1 1398   0.051   3.649   2.470
  417  SOL  HW2 1399  -0.021   3.518   2.488
  418  SOL   OW 1400   3.365   2.363   3.329
  418  SOL  HW1 1401   3.444   2.408   3.298
  418  SOL  HW2 1402   3.383   2.270   3.313
  419  SOL   OW 1403   1.872   0.245   2.926
  419  SOL  HW1 1404   1.947   0.275   2.978
  419  SOL  HW2 1405   1.874   0.150   2.932
  420  SOL   OW 1406   0.964   3.705   1.584
  420  SOL  HW1 1407   1.013   3.668   1.657
  420  SOL  HW2 1408   1.031   3.727   1.518
  421  SOL   OW 1409   2.994   0.545   0.194
  421  SOL  HW1 1410   3.070   0.583   0.149
  421  SOL  HW2 1411   3.003   0.576   0.284
  422  SOL   OW 1412   1.062   2.306   0.447
  422  SOL  HW1 1413   0.977   2.286   0.409
  422  SOL  HW2 1414   1.116   2.229   0.427
  423  SOL   OW 1415   3.281   2.491   2.155
  423  SOL  HW1 1416   3.353   2.458   2.209
  423  SOL  HW2 1417   3.325   2.535   2.081
  424  SOL   OW 1418   2.377   1.193   2.664
  424  SOL  HW1 1419   2.365   1.175   2.757
  424  SOL  HW2 1420   2.288   1.202   2.630
  425  SOL   OW 1421   0.798   2.634   0.143
  425  SOL  HW1 1422   0.757   2.638   0.229
  425  SOL  HW2 1423   0.851   2.555   0.145
  426  SOL   OW 1424   2.421   2.543   3.208
  426  SOL  HW1 1425   2.353   2.477   3.200
  426  SOL  HW2 1426   2.379   2.624   3.179
  427  SOL   OW 1427   0.383   2.506   2.739
  427  SOL  HW1 1428   0.427   2.551   2.667
  427  SOL  HW2 1429   0.291   2.505   2.712
  428  SOL   OW 1430   1.884   2.243   0.284
  428  SOL  HW1 1431   1.872   2.332   0.316
  428  SOL  HW2 1432   1.964   2.212   0.327
  429  SOL   OW 1433   3.997   1.839   3.584
  429  SOL  HW1 1434   4.080   1.850   3.539
  429  SOL  HW2 1435   4.017   1.780   3.657
  430  SOL   OW 1436   3.544   2.278   2.498
  430  SOL  HW1 1437   3.499   2.217   2.440
  430  SOL  HW2 1438   3.554   2.358   2.445
  431  SOL   OW 1439   0.896   1.707   2.712
  431  SOL  HW1 1440   0.934   1.659   2.786
  431  SOL  HW2 1441   0.966   1.766   2.684
  432  SOL   OW 1442   3.415   0.781   1.472
  432  SOL  HW1 1443   3.464   0.798   1.552
  432  SOL  HW2 1444   3.469   0.818   1.403
  433  SOL   OW 1445   1.228   3.878   2.716
  433  SOL  HW1 1446   1.186   3.798   2.746
  433  SOL  HW2 1447   1.194   3.891   2.627
  434  SOL   OW 1448   2.057   1.258   1.400
  434  SOL  HW1 1449   2.064   1.352   1.421
  434  SOL  HW2 1450   2.046   1.256   1.304
  435  SOL   OW 1451   0.911   0.561   1.451
  435  SOL  HW1 1452   0.964   0.482   1.460
  435  SOL  HW2 1453   0.862   0.548   1.370
  436  SOL   OW 1454   0.511   1.117   3.667
  436  SOL  HW1 1455   0.553   1.197   3.698
  436  SOL  HW2 1456   0.550   1.048   3.720
  437  SOL   OW 1457   0.839   1.142   2.170
  437  SOL  HW1 1458   0.793   1.226   2.176
  437  SOL  HW2 1459   0.775   1.084   2.129
  438  SOL   OW 1460   3.604   2.606   1.095
  438  SOL  HW1 1461   3.543   2.640   1.161
  438  SOL  HW2 1462   3.577   2.648   1.014
  439  SOL   OW 1463   0.025   2.921   1.313
  439  SOL  HW1 1464   0.082   2.936   1.389
  439  SOL  HW2 1465   0.086   2.911   1.240
  440  SOL   OW 1466   1.226   3.498   2.522
  440  SOL  HW1 1467   1.238   3.590   2.495
  440  SOL  HW2 1468   1.309   3.456   2.500
  441  SOL   OW 1469   0.343   3.783   1.278
  441  SOL  HW1 1470   0.413   3.729   1.241
  441  SOL  HW2 1471   0.279   3.719   1.311
  442  SOL   OW 1472   3.790   1.302   2.951
  442  SOL  HW1 1473   3.774   1.394   2.973
  442  SOL  HW2 1474   3.747   1.290   2.866
  443  SOL   OW 1475   3.397   1.715   3.607
  443  SOL  HW1 1476   3.485   1.733   3.638
  443  SOL  HW2 1477   3.406   1.709   3.512
  444  SOL   OW 1478   1.788   2.011   3.423
  444  SOL  HW1 1479   1.709   1.957   3.431
  444  SOL  HW2 1480   1.860   1.949   3.433
  445  SOL   OW 1481   3.970   1.103   1.331
  445  SOL  HW1 1482   4.062   1.120   1.349
  445  SOL  HW2 1483   3.956   1.139   1.243
  446  SOL   OW 1484   1.679   0.482   2.593
  446  SOL  HW1 1485   1.659   0.504   2.684
  446  SOL  HW2 1486   1.599   0.503   2.545
  447  SOL   OW 1487   0.221   0.294   1.284
  447  SOL  HW1 1488   0.298   0.300   1.226
  447  SOL  HW2 1489   0.149   0.327   1.230
  448  SOL   OW 1490   2.441   1.486   0.158
  448  SOL  HW1 1491   2.442   1.576   0.123
  448  SOL  HW2 1492   2.476   1.433   0.086
  449  SOL   OW 1493   3.743   0.836   1.437
  449  SOL  HW1 1494   3.717   0.886   1.359
  449  SOL  HW2 1495   3.678   0.859   1.503
  450  SOL   OW 1496   0.685   3.304   1.611
  450  SOL  HW1 1497   0.745   3.230   1.597
  450  SOL  HW2 1498   0.598   3.267   1.594
  451  SOL   OW 1499   3.996   1.236   1.089
  451  SOL  HW1 1500   4.044   1.233   1.007
  451  SOL  HW2 1501   4.034   1.311   1.136
  452  SOL   OW 1502   3.861   1.123   2.157
  452  SOL  HW1 1503   3.792   1.058   2.150
  452  SOL  HW2 1504   3.942   1.073   2.149
  453  SOL   OW 1505   2.997   3.545   1.330
  453  SOL  HW1 1506   2.976   3.620   1.275
  453  SOL  HW2 1507   2.913   3.507   1.353
  454  SOL   OW 1508   1.193   1.138   3.096
  454  SOL  HW1 1509   1.118   1.078   3.102
  454  SOL  HW2 1510   1.241   1.124   3.178
  455  SOL   OW 1511   2.487   2.418   3.487
  455  SOL  HW1 1512   2.489   2.502   3.532
  455  SOL  HW2 1513   2.514   2.437   3.397
  456  SOL   OW 1514   3.662   2.917   1.549
  456  SOL  HW1 1515   3.650   2.911   1.454
  456  SOL  HW2 1516   3.757   2.922   1.560
  457  SOL   OW 1517   1.087   0.227   0.979
  457  SOL  HW1 1518   1.081   0.322   0.991
  457  SOL  HW2 1519   1.075   0.192   1.068
  458  SOL   OW 1520   3.234   3.392   3.254
  458  SOL  HW1 1521   3.238   3.309   3.207
  458  SOL  HW2 1522   3.307   3.443   3.219
  459  SOL   OW 1523   2.742   0.562   3.480
  459  SOL  HW1 1524   2.788   0.577   3.397
  459  SOL  HW2 1525   2.667   0.508   3.456
  460  SOL   OW 1526   3.034   0.245   1.985
  460  SOL  HW1 1527   3.107   0.269   1.928
  460  SOL  HW2 1528   2.970   0.315   1.973
  461  SOL   OW 1529   0.992   1.846   1.423
  461  SOL  HW1 1530   0.940   1.775   1.460
  461  SOL  HW2 1531   0.936   1.885   1.357
  462  SOL   OW 1532   1.264   3.779   3.067
  462  SOL  HW1 1533   1.313   3.702   3.038
  462  SOL  HW2 1534   1.227   3.754   3.151
  463  SOL   OW 1535   2.074   0.626   3.485
  463  SOL  HW1 1536   2.013   0.627   3.558
  463  SOL  HW2 1537   2.018   0.630   3.407
  464  SOL   OW 1538   0.369   3.147   0.326
  464  SOL  HW1 1539   0.407   3.207   0.391
  464  SOL  HW2 1540   0.389   3.060   0.360
  465  SOL   OW 1541   0.727   2.855   2.563
  465  SOL  HW1 1542   0.790   2.926   2.575
  465  SOL  HW2 1543   0.680   2.878   2.483
  466  SOL   OW 1544   2.624   2.453   1.905
  466  SOL  HW1 1545   2.606   2.426   1.815
  466  SOL  HW2 1546   2.570   2.396   1.959
  467  SOL   OW 1547   0.526   0.328   0.495
  467  SOL  HW1 1548   0.614   0.358   0.474
  467  SOL  HW2 1549   0.509   0.362   0.583
  468  SOL   OW 1550   3.725   2.879   2.319
  468  SOL  HW1 1551   3.669   2.802   2.318
  468  SOL  HW2 1552   3.665   2.952   2.338
  469  SOL   OW 1553   3.860   0.587   0.753
  469  SOL  HW1 1554   3.907   0.614   0.674
  469  SOL  HW2 1555   3.927   0.550   0.810
  470  SOL   OW 1556   1.546   1.887   2.442
  470  SOL  HW1 1557   1.556   1.895   2.537
  470  SOL  HW2 1558   1.622   1.932   2.406
  471  SOL   OW 1559   0.721   3.584   3.792
  471  SOL  HW1 1560   0.803   3.621   3.759
  471  SOL  HW2 1561   0.686   3.652   3.850
  472  SOL   OW 1562   1.560   3.361   3.538
  472  SOL  HW1 1563   1.581   3.314   3.458
  472  SOL  HW2 1564   1.614   3.319   3.605
  473  SOL   OW 1565   3.765   0.531   1.135
  473  SOL  HW1 1566   3.750   0.451   1.083
  473  SOL  HW2 1567   3.754   0.602   1.073
  474  SOL   OW 1568   3.687   1.371   1.093
  474  SOL  HW1 1569   3.776   1.381   1.127
  474  SOL  HW2 1570   3.673   1.448   1.038
  475  SOL   OW 1571   0.519   0.855   1.555
  475  SOL  HW1 1572   0.426   0.847   1.532
  475  SOL  HW2 1573   0.564   0.800   1.490
  476  SOL   OW 1574   2.714   0.684   0.702
  476  SOL  HW1 1575   2.780   0.701   0.769
  476  SOL  HW2 1576   2.643   0.745   0.723
  477  SOL   OW 1577   0.718   2.546   2.841
  477  SOL  HW1 1578   0.668   2.576   2.917
  477  SOL  HW2 1579   0.809   2.553   2.868
  478  SOL   OW 1580   2.763   2.446   2.963
  478  SOL  HW1 1581   2.700   2.412   2.899
  478  SOL  HW2 1582   2.837   2.386   2.958
  479  SOL   OW 1583   2.988   2.794   3.470
  479  SOL  HW1 1584   3.052   2.771   3.538
  479  SOL  HW2 1585   2.915   2.734   3.484
  480  SOL   OW 1586   0.112   3.364   0.826
  480  SOL  HW1 1587   0.175   3.396   0.891
  480  SOL  HW2 1588   0.027   3.377   0.868
  481  SOL   OW 1589   0.886   2.174   2.480
  481  SOL  HW1 1590   0.800   2.191   2.441
  481  SOL  HW2 1591   0.869   2.108   2.547
  482  SOL   OW 1592   2.036   0.500   0.440
  482  SOL  HW1 1593   2.091   0.465   0.510
  482  SOL  HW2 1594   2.097   0.529   0.373
  483  SOL   OW 1595   0.057   3.366   1.334
  483  SOL  HW1 1596   0.057   3.366   1.430
  483  SOL  HW2 1597  -0.005   3.298   1.310
  484  SOL   OW 1598   1.752   2.618   1.672
  484  SOL  HW1 1599   1.659   2.627   1.690
  484  SOL  HW2 1600   1.757   2.570   1.589
  485  SOL   OW 1601   3.578   0.924   2.983
  485  SOL  HW1 1602   3.511   0.964   2.927
  485  SOL  HW2 1603   3.657   0.923   2.928
  486  SOL   OW 1604   1.124   2.958   0.589
  486  SOL  HW1 1605   1.085   2.882   0.546
  486  SOL  HW2 1606   1.177   2.920   0.659
  487  SOL   OW 1607   1.069   1.974   2.105
  487  SOL  HW1 1608   1.135   1.905   2.115
  487  SOL  HW2 1609   1.075   2.000   2.013
  488  SOL   OW 1610   3.533   2.340   3.620
  488  SOL  HW1 1611   3.490   2.291   3.690
  488  SOL  HW2 1612   3.462   2.385   3.574
  489  SOL   OW 1613   1.294   1.483   3.474
  489  SOL  HW1 1614   1.240   1.421   3.523
  489  SOL  HW2 1615   1.234   1.517   3.407
  490  SOL   OW 1616   1.864   0.287   0.738
  490  SOL  HW1 1617   1.851   0.193   0.729
  490  SOL  HW2 1618   1.892   0.299   0.828
  491  SOL   OW 1619   2.163   2.987   1.594
  491  SOL  HW1 1620   2.116   2.904   1.585
  491  SOL  HW2 1621   2.095   3.052   1.607
  492  SOL   OW 1622   2.511   1.866   3.018
  492  SOL  HW1 1623   2.529   1.959   3.000
  492  SOL  HW2 1624   2.429   1.848   2.972
  493  SOL   OW 1625   3.190   0.819   0.155
  493  SOL  HW1 1626   3.192   0.845   0.063
  493  SOL  HW2 1627   3.112   0.862   0.190
  494  SOL   OW 1628   0.774   0.527   1.213
  494  SOL  HW1 1629   0.770   0.432   1.213
  494  SOL  HW2 1630   0.771   0.552   1.121
  495  SOL   OW 1631   1.613   3.461   3.940
  495  SOL  HW1 1632   1.701   3.439   3.971
  495  SOL  HW2 1633   1.561   3.382   3.956
  496  SOL   OW 1634   3.471   2.678   1.330
  496  SOL  HW1 1635   3.497   2.766   1.304
  496  SOL  HW2 1636   3.376   2.683   1.345
  497  SOL   OW 1637   1.858   0.669   0.193
  497  SOL  HW1 1638   1.949   0.654   0.219
  497  SOL  HW2 1639   1.836   0.592   0.140
  498  SOL   OW 1640   0.937   0.241   2.701
  498  SOL  HW1 1641   1.025   0.257   2.665
  498  SOL  HW2 1642   0.926   0.146   2.696
  499  SOL   OW 1643   0.994   0.133   2.424
  499  SOL  HW1 1644   0.923   0.096   2.476
  499  SOL  HW2 1645   1.049   0.178   2.489
  500  SOL   OW 1646   2.596   0.530   2.990
  500  SOL  HW1 1647   2.626   0.526   2.899
  500  SOL  HW2 1648   2.504   0.558   2.983
  501  SOL   OW 1649   2.432   1.327   1.262
  501  SOL  HW1 1650   2.394   1.413   1.242
  501  SOL  HW2 1651   2.431   1.323   1.358
  502  SOL   OW 1652   3.723   1.684   0.661
  502  SOL  HW1 1653   3.655   1.697   0.726
  502  SOL  HW2 1654   3.712   1.593   0.633
  503  SOL   OW 1655   0.073   2.240   2.246
  503  SOL  HW1 1656   0.160   2.268   2.276
  503  SOL  HW2 1657   0.072   2.146   2.263
  504  SOL   OW 1658   1.409   3.842   1.264
  504  SOL  HW1 1659   1.335   3.899   1.285
  504  SOL  HW2 1660   1.377   3.754   1.281
  505  SOL   OW 1661   2.325   1.578   1.190
  505  SOL  HW1 1662   2.243   1.579   1.140
  505  SOL  HW2 1663   2.340   1.670   1.212
  506  SOL   OW 1664   1.445   2.063   1.623
  506  SOL  HW1 1665   1.484   2.014   1.696
  506  SOL  HW2 1666   1.353   2.037   1.624
  507  SOL   OW 1667   0.428   0.768   1.918
  507  SOL  HW1 1668   0.451   0.685   1.958
  507  SOL  HW2 1669   0.352   0.748   1.864
  508  SOL   OW 1670   3.270   0.604   1.657
  508  SOL  HW1 1671   3.277   0.641   1.569
  508  SOL  HW2 1672   3.259   0.679   1.714
  509  SOL   OW 1673   1.296   3.359   2.922
  509  SOL  HW1 1674   1.247   3.377   3.002
  509  SOL  HW2 1675   1.330   3.270   2.934
  510  SOL   OW 1676   1.233   1.478   1.365
  510  SOL  HW1 1677   1.227   1.383   1.360
  510  SOL  HW2 1678   1.219   1.499   1.457
  511  SOL   OW 1679   3.180   2.785   0.395
  511  SOL  HW1 1680   3.260   2.740   0.423
  511  SOL  HW2 1681   3.149   2.830   0.474
  512  SOL   OW 1682   4.001   1.818   1.248
  512  SOL  HW1 1683   3.986   1.912   1.234
  512  SOL  HW2 1684   3.983   1.778   1.164
  513  SOL   OW 1685   3.184   2.922   2.150
  513  SOL  HW1 1686   3.154   2.904   2.239
  513  SOL  HW2 1687   3.280   2.915   2.155
  514  SOL   OW 1688   3.648   0.212   3.893
  514  SOL  HW1 1689   3.579   0.166   3.845
  514  SOL  HW2 1690   3.722   0.151   3.894
  515  SOL   OW 1691   0.949   1.305   3.424
  515  SOL  HW1 1692   0.871   1.270   3.382
  515  SOL  HW2 1693   0.945   1.400   3.408
  516  SOL   OW 1694   2.243   1.814   0.334
  516  SOL  HW1 1695   2.167   1.770   0.295
  516  SOL  HW2 1696   2.238   1.792   0.427
  517  SOL   OW 1697   3.205   1.217   2.620
  517  SOL  HW1 1698   3.220   1.146   2.682
  517  SOL  HW2 1699   3.143   1.180   2.557
  518  SOL   OW 1700   2.430   1.502   1.755
  518  SOL  HW1 1701   2.345   1.534   1.727
  518  SOL  HW2 1702   2.411   1.418   1.797
  519  SOL   OW 1703   2.206   3.803   3.768
  519  SOL  HW1 1704   2.287   3.830   3.811
  519  SOL  HW2 1705   2.186   3.874   3.708
  520  SOL   OW 1706   3.373   2.100   3.369
  520  SOL  HW1 1707   3.294   2.073   3.323
  520  SOL  HW2 1708   3.351   2.092   3.462
  521  SOL   OW 1709   4.047   0.762   0.262
  521  SOL  HW1 1710   4.090   0.755   0.347
  521  SOL  HW2 1711   3.964   0.716   0.274
  522  SOL   OW 1712   3.452   3.119   1.494
  522  SOL  HW1 1713   3.506   3.044   1.518
  522  SOL  HW2 1714   3.508   3.171   1.436
  523  SOL   OW 1715   0.172   0.294   3.771
  523  SOL  HW1 1716   0.200   0.264   3.685
  523  SOL  HW2 1717   0.095   0.240   3.791
  524  SOL   OW 1718   2.573   3.385   3.335
  524  SOL  HW1 1719   2.643   3.343   3.286
  524  SOL  HW2 1720   2.587   3.479   3.322
  525  SOL   OW 1721   2.852   3.731   2.752
  525  SOL  HW1 1722   2.800   3.689   2.683
  525  SOL  HW2 1723   2.921   3.669   2.772
  526  SOL   OW 1724   0.709   1.562   3.379
  526  SOL  HW1 1725   0.721   1.467   3.381
  526  SOL  HW2 1726   0.693   1.587   3.470
  527  SOL   OW 1727   3.763   1.575   2.991
  527  SOL  HW1 1728   3.742   1.627   3.069
  527  SOL  HW2 1729   3.855   1.594   2.973
  528  SOL   OW 1730   0.137   1.558   0.120
  528  SOL  HW1 1731   0.077   1.522   0.054
  528  SOL  HW2 1732   0.177   1.634   0.078
  529  SOL   OW 1733   1.039   3.599   1.819
  529  SOL  HW1 1734   1.043   3.512   1.858
  529  SOL  HW2 1735   1.128   3.615   1.787
  530  SOL   OW 1736   2.675   1.984   1.592
  530  SOL  HW1 1737   2.740   2.006   1.526
  530  SOL  HW2 1738   2.722   1.927   1.653
  531  SOL   OW 1739   1.869   2.850   0.417
  531  SOL  HW1 1740   1.785   2.832   0.461
  531  SOL  HW2 1741   1.909   2.919   0.470
  532  SOL   OW 1742   0.937   0.578   3.406
  532  SOL  HW1 1743   0.918   0.516   3.336
  532  SOL  HW2 1744   1.032   0.573   3.417
  533  SOL   OW 1745   1.620   0.073   1.028
  533  SOL  HW1 1746   1.593   0.042   0.941
  533  SOL  HW2 1747   1.555   0.139   1.051
  534  SOL   OW 1748   0.099   3.924   3.352
  534  SOL  HW1 1749   0.180   3.961   3.317
  534  SOL  HW2 1750   0.077   3.980   3.427
  535  SOL   OW 1751   1.306   0.149   0.153
  535  SOL  HW1 1752   1.369   0.207   0.110
  535  SOL  HW2 1753   1.312   0.067   0.104
  536  SOL   OW 1754   2.848   2.129   3.885
  536  SOL  HW1 1755   2.878   2.039   3.898
  536  SOL  HW2 1756   2.760   2.119   3.848
  537  SOL   OW 1757   1.525   3.370   1.944
  537  SOL  HW1 1758   1.477   3.329   2.017
  537  SOL  HW2 1759   1.560   3.450   1.982
  538  SOL   OW 1760   3.718   2.061   2.169
  538  SOL  HW1 1761   3.724   1.978   2.216
  538  SOL  HW2 1762   3.624   2.078   2.162
  539  SOL   OW 1763   2.899   3.692   2.075
  539  SOL  HW1 1764   2.812   3.674   2.110
  539  SOL  HW2 1765   2.902   3.641   1.994
  540  SOL   OW 1766   3.939   1.723   1.484
  540  SOL  HW1 1767   3.941   1.771   1.401
  540  SOL  HW2 1768   3.863   1.757   1.531
  541  SOL   OW 1769   0.787   3.540   1.396
  541  SOL  HW1 1770   0.877   3.548   1.364
  541  SOL  HW2 1771   0.795   3.489   1.477
  542  SOL   OW 1772   1.709   0.978   3.319
  542  SOL  HW1 1773   1.614   0.992   3.322
  542  SOL  HW2 1774   1.745   1.066   3.316
  543  SOL   OW 1775   0.209   2.587   0.715
  543  SOL  HW1 1776   0.282   2.611   0.658
  543  SOL  HW2 1777   0.243   2.515   0.768
  544  SOL   OW 1778   2.861   0.076   1.833
  544  SOL  HW1 1779   2.948   0.098   1.866
  544  SOL  HW2 1780   2.871  -0.010   1.793
  545  SOL   OW 1781   0.083   2.880   0.789
  545  SOL  HW1 1782   0.024   2.862   0.716
  545  SOL  HW2 1783   0.059   2.967   0.819
  546  SOL   OW 1784   3.198   3.623   4.006
  546  SOL  HW1 1785   3.285   3.624   4.045
  546  SOL  HW2 1786   3.210   3.666   3.921
  547  SOL   OW 1787   3.199   0.859   3.282
  547  SOL  HW1 1788   3.198   0.774   3.238
  547  SOL  HW2 1789   3.114   0.865   3.325
  548  SOL   OW 1790   2.458   3.006   3.954
  548  SOL  HW1 1791   2.436   2.925   4.001
  548  SOL  HW2 1792   2.424   3.076   4.010
  549  SOL   OW 1793   3.876   0.413   3.769
  549  SOL  HW1 1794   3.905   0.354   3.700
  549  SOL  HW2 1795   3.806   0.465   3.729
  550  SOL   OW 1796   2.682   0.496   1.139
  550  SOL  HW1 1797   2.709   0.553   1.210
  550  SOL  HW2 1798   2.761   0.483   1.086
  551  SOL   OW 1799   0.265   0.944   2.093
  551  SOL  HW1 1800   0.231   0.966   2.007
  551  SOL  HW2 1801   0.338   0.886   2.076
  552  SOL   OW 1802   1.423   1.312   3.192
  552  SOL  HW1 1803   1.410   1.374   3.120
  552  SOL  HW2 1804   1.411   1.226   3.151
  553  SOL   OW 1805   0.672   0.311   2.143
  553  SOL  HW1 1806   0.668   0.277   2.053
  553  SOL  HW2 1807   0.678   0.233   2.198
  554  SOL   OW 1808   2.749   3.930   2.607
  554  SOL  HW1 1809   2.821   3.926   2.543
  554  SOL  HW2 1810   2.776   3.871   2.677
  555  SOL   OW 1811   1.394   0.450   0.521
  555  SOL  HW1 1812   1.312   0.420   0.560
  555  SOL  HW2 1813   1.377   0.445   0.426
  556  SOL   OW 1814   0.671   2.532   3.529
  556  SOL  HW1 1815   0.751   2.580   3.548
  556  SOL  HW2 1816   0.694   2.474   3.456
  557  SOL   OW 1817   2.865   2.135   3.403
  557  SOL  HW1 1818   2.935   2.084   3.363
  557  SOL  HW2 1819   2.906   2.218   3.427
  558  SOL   OW 1820   1.378   3.718   0.638
  558  SOL  HW1 1821   1.341   3.806   0.639
  558  SOL  HW2 1822   1.323   3.669   0.576
  559  SOL   OW 1823   0.554   2.103   1.605
  559  SOL  HW1 1824   0.570   2.133   1.695
  559  SOL  HW2 1825   0.494   2.029   1.615
  560  SOL   OW 1826   1.598   2.818   0.270
  560  SOL  HW1 1827   1.516   2.864   0.288
  560  SOL  HW2 1828   1.657   2.887   0.240
  561  SOL   OW 1829   1.693   0.287   0.215
  561  SOL  HW1 1830   1.735   0.310   0.297
  561  SOL  HW2 1831   1.641   0.209   0.236
  562  SOL   OW 1832   3.477   3.502   2.231
  562  SOL  HW1 1833   3.462   3.514   2.137
  562  SOL  HW2 1834   3.390   3.508   2.270
  563  SOL   OW 1835   1.254   2.221   1.907
  563  SOL  HW1 1836   1.184   2.168   1.868
  563  SOL  HW2 1837   1.331   2.164   1.905
  564  SOL   OW 1838   3.170   0.709   1.370
  564  SOL  HW1 1839   3.115   0.760   1.430
  564  SOL  HW2 1840   3.255   0.752   1.372
  565  SOL   OW 1841  -0.019   2.646   0.006
  565  SOL  HW1 1842  -0.020   2.551  -0.001
  565  SOL  HW2 1843   0.051   2.665   0.068
  566  SOL   OW 1844   2.624   2.677   0.339
  566  SOL  HW1 1845   2.638   2.682   0.244
  566  SOL  HW2 1846   2.709   2.698   0.377
  567  SOL   OW 1847   0.817   0.634   0.070
  567  SOL  HW1 1848   0.888   0.697   0.069
  567  SOL  HW2 1849   0.848   0.562   0.015
  568  SOL   OW 1850   1.983   1.257   0.659
  568  SOL  HW1 1851   2.068   1.287   0.625
  568  SOL  HW2 1852   1.919   1.314   0.616
  569  SOL   OW 1853   0.194   2.748   3.061
  569  SOL  HW1 1854   0.173   2.753   3.155
  569  SOL  HW2 1855   0.289   2.741   3.059
  570  SOL   OW 1856   0.373   2.914   2.786
  570  SOL  HW1 1857   0.311   2.970   2.832
  570  SOL  HW2 1858   0.327   2.886   2.707
  571  SOL   OW 1859   2.197   4.008   3.527
  571  SOL  HW1 1860   2.182   4.097   3.496
  571  SOL  HW2 1861   2.124   3.957   3.492
  572  SOL   OW 1862   0.185   2.197   3.115
  572  SOL  HW1 1863   0.204   2.288   3.136
  572  SOL  HW2 1864   0.251   2.173   3.050
  573  SOL   OW 1865   2.353   2.077   0.480
  573  SOL  HW1 1866   2.409   2.055   0.405
  573  SOL  HW2 1867   2.385   2.021   0.551
  574  SOL   OW 1868   3.255   0.602   2.725
  574  SOL  HW1 1869   3.247   0.637   2.814
  574  SOL  HW2 1870   3.193   0.653   2.673
  575  SOL   OW 1871   0.228   3.187   3.638
  575  SOL  HW1 1872   0.267   3.102   3.616
  575  SOL  HW2 1873   0.287   3.251   3.598
  576  SOL   OW 1874   1.099   0.780   2.036
  576  SOL  HW1 1875   1.099   0.825   2.121
  576  SOL  HW2 1876   1.028   0.820   1.987
  577  SOL   OW 1877   3.239   1.113   1.022
  577  SOL  HW1 1878   3.176   1.052   0.981
  577  SOL  HW2 1879   3.242   1.086   1.113
  578  SOL   OW 1880   0.722   3.838   0.283
  578  SOL  HW1 1881   0.735   3.914   0.227
  578  SOL  HW2 1882   0.804   3.789   0.277
  579  SOL   OW 1883   3.540   1.036   1.431
  579  SOL  HW1 1884   3.464   1.063   1.484
  579  SOL  HW2 1885   3.538   1.095   1.355
  580  SOL   OW 1886   3.903   2.270   2.093
  580  SOL  HW1 1887   3.953   2.263   2.174
  580  SOL  HW2 1888   3.842   2.197   2.095
  581  SOL   OW 1889   2.099   3.869   3.166
  581  SOL  HW1 1890   2.073   3.891   3.077
  581  SOL  HW2 1891   2.171   3.808   3.156
  582  SOL   OW 1892   2.446   1.414   3.849
  582  SOL  HW1 1893   2.536   1.429   3.879
  582  SOL  HW2 1894   2.456   1.386   3.758
  583  SOL   OW 1895   0.867   1.661   1.129
  583  SOL  HW1 1896   0.929   1.718   1.085
  583  SOL  HW2 1897   0.781   1.695   1.103
  584  SOL   OW 1898   2.260   1.288   0.274
  584  SOL  HW1 1899   2.249   1.221   0.206
  584  SOL  HW2 1900   2.315   1.355   0.234
  585  SOL   OW 1901   1.049   2.074   0.714
  585  SOL  HW1 1902   1.135   2.048   0.683
  585  SOL  HW2 1903   1.054   2.169   0.723
  586  SOL   OW 1904   0.115   3.127   1.882
  586  SOL  HW1 1905   0.027   3.118   1.844
  586  SOL  HW2 1906   0.101   3.112   1.976
  587  SOL   OW 1907   1.808   1.118   2.146
  587  SOL  HW1 1908   1.767   1.131   2.060
  587  SOL  HW2 1909   1.902   1.128   2.130
  588  SOL   OW 1910   3.620   3.790   0.364
  588  SOL  HW1 1911   3.703   3.775   0.319
  588  SOL  HW2 1912   3.596   3.704   0.399
  589  SOL   OW 1913   3.708   0.299   1.023
  589  SOL  HW1 1914   3.659   0.260   1.094
  589  SOL  HW2 1915   3.669   0.263   0.943
  590  SOL   OW 1916   0.720   0.294   1.456
  590  SOL  HW1 1917   0.654   0.349   1.498
  590  SOL  HW2 1918   0.676   0.258   1.379
  591  SOL   OW 1919   2.480   0.956   1.988
  591  SOL  HW1 1920   2.439   1.042   1.975
  591  SOL  HW2 1921   2.574   0.974   1.983
  592  SOL   OW 1922   0.840   0.891   3.814
  592  SOL  HW1 1923   0.836   0.955   3.743
  592  SOL  HW2 1924   0.876   0.812   3.773
  593  SOL   OW 1925   3.235   1.304   3.337
  593  SOL  HW1 1926   3.164   1.366   3.328
  593  SOL  HW2 1927   3.200   1.235   3.394
  594  SOL   OW 1928   1.371   0.408   3.494
  594  SOL  HW1 1929   1.373   0.391   3.588
  594  SOL  HW2 1930   1.463   0.422   3.471
  595  SOL   OW 1931   1.280   0.909   1.879
  595  SOL  HW1 1932   1.206   0.868   1.923
  595  SOL  HW2 1933   1.328   0.836   1.840
  596  SOL   OW 1934   3.757   0.119   3.430
  596  SOL  HW1 1935   3.781   0.028   3.450
  596  SOL  HW2 1936   3.821   0.147   3.365
  597  SOL   OW 1937   4.004   3.098   0.952
  597  SOL  HW1 1938   3.942   3.040   0.996
  597  SOL  HW2 1939   3.960   3.123   0.870
  598  SOL   OW 1940   0.576   1.646   2.935
  598  SOL  HW1 1941   0.661   1.658   2.893
  598  SOL  HW2 1942   0.514   1.688   2.876
  599  SOL   OW 1943   1.531   1.092   3.802
  599  SOL  HW1 1944   1.498   1.182   3.800
  599  SOL  HW2 1945   1.542   1.071   3.894
  600  SOL   OW 1946   0.499   2.281   0.458
  600  SOL  HW1 1947   0.485   2.196   0.418
  600  SOL  HW2 1948   0.417   2.328   0.444
  601  SOL   OW 1949   3.014   0.480   3.690
  601  SOL  HW1 1950   3.086   0.476   3.754
  601  SOL  HW2 1951   2.936   0.499   3.742
  602  SOL   OW 1952   0.670   3.373   1.911
  602  SOL  HW1 1953   0.672   3.358   1.817
  602  SOL  HW2 1954   0.661   3.285   1.949
  603  SOL   OW 1955   3.793   3.611   3.554
  603  SOL  HW1 1956   3.878   3.618   3.511
  603  SOL  HW2 1957   3.738   3.564   3.492
  604  SOL   OW 1958   3.475   1.763   1.816
  604  SOL  HW1 1959   3.440   1.724   1.896
  604  SOL  HW2 1960   3.463   1.857   1.829
  605  SOL   OW 1961   3.252   0.959   3.537
  605  SOL  HW1 1962   3.233   0.944   3.444
  605  SOL  HW2 1963   3.210   0.886   3.582
  606  SOL   OW 1964   1.113   0.803   1.275
  606  SOL  HW1 1965   1.187   0.857   1.246
  606  SOL  HW2 1966   1.154   0.727   1.315
  607  SOL   OW 1967   0.569   1.763   3.925
  607  SOL  HW1 1968   0.553   1.825   3.854
  607  SOL  HW2 1969   0.491   1.768   3.980
  608  SOL   OW 1970   1.938   4.024   2.105
  608  SOL  HW1 1971   2.002   4.092   2.087
  608  SOL  HW2 1972   1.962   3.990   2.192
  609  SOL   OW 1973   1.623   2.886   0.647
  609  SOL  HW1 1974   1.567   2.816   0.617
  609  SOL  HW2 1975   1.653   2.858   0.734
  610  SOL   OW 1976   1.424   3.346   2.340
  610  SOL  HW1 1977   1.433   3.283   2.411
  610  SOL  HW2 1978   1.401   3.292   2.263
  611  SOL   OW 1979   0.145   1.378   0.338
  611  SOL  HW1 1980   0.147   1.436   0.262
  611  SOL  HW2 1981   0.234   1.345   0.346
  612  SOL   OW 1982   1.178   2.637   0.679
  612  SOL  HW1 1983   1.174   2.573   0.608
  612  SOL  HW2 1984   1.199   2.584   0.757
  613  SOL   OW 1985   0.368   3.424   1.367
  613  SOL  HW1 1986   0.375   3.484   1.442
  613  SOL  HW2 1987   0.280   3.388   1.374
  614  SOL   OW 1988   0.397   3.709   3.186
  614  SOL  HW1 1989   0.390   3.623   3.144
  614  SOL  HW2 1990   0.488   3.715   3.214
  615  SOL   OW 1991   2.318   3.825   1.638
  615  SOL  HW1 1992   2.380   3.787   1.700
  615  SOL  HW2 1993   2.232   3.810   1.678
  616  SOL   OW 1994   1.630   0.490   2.112
  616  SOL  HW1 1995   1.714   0.514   2.072
  616  SOL  HW2 1996   1.566   0.501   2.042
  617  SOL   OW 1997   1.905   1.107   3.631
  617  SOL  HW1 1998   1.817   1.071   3.620
  617  SOL  HW2 1999   1.929   1.085   3.721
  618  SOL   OW 2000   1.483   0.810   2.217
  618  SOL  HW1 2001   1.565   0.819   2.168
  618  SOL  HW2 2002   1.416   0.795   2.150
  619  SOL   OW 2003   3.559   3.906   1.211
  619  SOL  HW1 2004   3.606   3.941   1.286
  619  SOL  HW2 2005   3.481   3.961   1.204
  620  SOL   OW 2006   1.650   1.603   0.675
  620  SOL  HW1 2007   1.554   1.604   0.679
  620  SOL  HW2 2008   1.674   1.693   0.652
  621  SOL   OW 2009   0.942   2.313   1.084
  621  SOL  HW1 2010   0.868   2.373   1.078
  621  SOL  HW2 2011   1.006   2.359   1.139
  622  SOL   OW 2012   1.853   3.834   1.726
  622  SOL  HW1 2013   1.854   3.893   1.651
  622  SOL  HW2 2014   1.863   3.891   1.802
  623  SOL   OW 2015   0.126   0.985   3.976
  623  SOL  HW1 2016   0.145   0.893   3.959
  623  SOL  HW2 2017   0.162   1.031   3.900
  624  SOL   OW 2018   0.758   0.927   3.519
  624  SOL  HW1 2019   0.683   0.967   3.475
  624  SOL  HW2 2020   0.829   0.934   3.456
  625  SOL   OW 2021   1.077   3.615   2.760
  625  SOL  HW1 2022   1.052   3.575   2.843
  625  SOL  HW2 2023   1.135   3.551   2.718
  626  SOL   OW 2024   1.259   2.304   3.147
  626  SOL  HW1 2025   1.213   2.388   3.142
  626  SOL  HW2 2026   1.290   2.300   3.237
  627  SOL   OW 2027   2.306   1.016   0.479
  627  SOL  HW1 2028   2.341   1.044   0.394
  627  SOL  HW2 2029   2.228   1.071   0.492
  628  SOL   OW 2030   1.783   2.230   3.105
  628  SOL  HW1 2031   1.828   2.231   3.190
  628  SOL  HW2 2032   1.712   2.167   3.117
  629  SOL   OW 2033   3.149   1.701   3.716
  629  SOL  HW1 2034   3.230   1.706   3.665
  629  SOL  HW2 2035   3.141   1.609   3.740
  630  SOL   OW 2036   2.803   2.285   1.182
  630  SOL  HW1 2037   2.821   2.211   1.239
  630  SOL  HW2 2038   2.867   2.277   1.111
  631  SOL   OW 2039   2.535   2.372   1.648
  631  SOL  HW1 2040   2.490   2.403   1.570
  631  SOL  HW2 2041   2.498   2.285   1.663
  632  SOL   OW 2042   2.058   1.778   3.007
  632  SOL  HW1 2043   2.068   1.821   3.092
  632  SOL  HW2 2044   1.973   1.807   2.975
  633  SOL   OW 2045   3.785   0.647   0.288
  633  SOL  HW1 2046   3.694   0.654   0.259
  633  SOL  HW2 2047   3.779   0.617   0.379
  634  SOL   OW 2048   2.500   0.423   3.754
  634  SOL  HW1 2049   2.468   0.398   3.841
  634  SOL  HW2 2050   2.455   0.363   3.694
  635  SOL   OW 2051   1.851   3.175   2.449
  635  SOL  HW1 2052   1.865   3.136   2.535
  635  SOL  HW2 2053   1.766   3.140   2.420
  636  SOL   OW 2054   1.037   3.702   2.352
  636  SOL  HW1 2055   1.020   3.722   2.260
  636  SOL  HW2 2056   1.063   3.610   2.352
  637  SOL   OW 2057   3.793   3.592   0.664
  637  SOL  HW1 2058   3.716   3.646   0.679
  637  SOL  HW2 2059   3.844   3.639   0.598
  638  SOL   OW 2060   3.205   3.482   0.312
  638  SOL  HW1 2061   3.295   3.505   0.339
  638  SOL  HW2 2062   3.217   3.416   0.243
  639  SOL   OW 2063   1.451   1.390   0.234
  639  SOL  HW1 2064   1.389   1.408   0.305
  639  SOL  HW2 2065   1.435   1.461   0.171
  640  SOL   OW 2066   0.742   2.126   3.064
  640  SOL  HW1 2067   0.800   2.188   3.020
  640  SOL  HW2 2068   0.800   2.072   3.118
  641  SOL   OW 2069   0.634   3.132   3.103
  641  SOL  HW1 2070   0.559   3.170   3.059
  641  SOL  HW2 2071   0.626   3.160   3.194
  642  SOL   OW 2072   3.039   0.324   0.430
  642  SOL  HW1 2073   3.071   0.290   0.514
  642  SOL  HW2 2074   3.003   0.410   0.451
  643  SOL   OW 2075   2.532   3.615   3.168
  643  SOL  HW1 2076   2.587   3.569   3.105
  643  SOL  HW2 2077   2.577   3.698   3.183
  644  SOL   OW 2078   2.040   0.929   2.276
  644  SOL  HW1 2079   1.954   0.893   2.256
  644  SOL  HW2 2080   2.092   0.914   2.196
  645  SOL   OW 2081   0.430   0.703   0.538
  645  SOL  HW1 2082   0.516   0.671   0.564
  645  SOL  HW2 2083   0.410   0.771   0.602
  646  SOL   OW 2084   2.103   3.325   1.872
  646  SOL  HW1 2085   2.072   3.402   1.920
  646  SOL  HW2 2086   2.195   3.343   1.855
  647  SOL   OW 2087   0.034   2.202   2.766
  647  SOL  HW1 2088   0.087   2.124   2.773
  647  SOL  HW2 2089  -0.010   2.194   2.681
  648  SOL   OW 2090   3.529   1.876   3.856
  648  SOL  HW1 2091   3.472   1.899   3.929
  648  SOL  HW2 2092   3.593   1.946   3.853
  649  SOL   OW 2093   2.649   3.661   2.209
  649  SOL  HW1 2094   2.593   3.712   2.151
  649  SOL  HW2 2095   2.613   3.572   2.206
  650  SOL   OW 2096   2.350   0.048   1.717
  650  SOL  HW1 2097   2.366  -0.038   1.679
  650  SOL  HW2 2098   2.270   0.079   1.674
  651  SOL   OW 2099   1.126   0.373   3.277
  651  SOL  HW1 2100   1.153   0.400   3.190
  651  SOL  HW2 2101   1.208   0.373   3.328
  652  SOL   OW 2102   2.472   3.467   1.538
  652  SOL  HW1 2103   2.463   3.393   1.477
  652  SOL  HW2 2104   2.394   3.520   1.522
  653  SOL   OW 2105   2.710   2.515   3.254
  653  SOL  HW1 2106   2.619   2.521   3.225
  653  SOL  HW2 2107   2.754   2.465   3.185
  654  SOL   OW 2108   3.135   2.772   1.918
  654  SOL  HW1 2109   3.059   2.785   1.861
  654  SOL  HW2 2110   3.110   2.815   2.000
  655  SOL   OW 2111   3.284   1.984   3.612
  655  SOL  HW1 2112   3.333   1.923   3.667
  655  SOL  HW2 2113   3.199   1.941   3.598
  656  SOL   OW 2114   2.763   3.163   3.546
  656  SOL  HW1 2115   2.743   3.078   3.585
  656  SOL  HW2 2116   2.742   3.227   3.613
  657  SOL   OW 2117   2.413   3.401   0.874
  657  SOL  HW1 2118   2.392   3.478   0.927
  657  SOL  HW2 2119   2.485   3.359   0.921
  658  SOL   OW 2120   2.068   2.773   0.991
  658  SOL  HW1 2121   2.019   2.850   1.018
  658  SOL  HW2 2122   2.127   2.804   0.922
  659  SOL   OW 2123   3.679   0.970   1.167
  659  SOL  HW1 2124   3.760   0.928   1.137
  659  SOL  HW2 2125   3.690   1.062   1.145
  660  SOL   OW 2126   0.154   3.082   1.484
  660  SOL  HW1 2127   0.202   3.109   1.406
  660  SOL  HW2 2128   0.178   3.147   1.550
  661  SOL   OW 2129   0.239   2.060   1.264
  661  SOL  HW1 2130   0.200   2.022   1.344
  661  SOL  HW2 2131   0.333   2.063   1.282
  662  SOL   OW 2132   3.431   3.075   1.135
  662  SOL  HW1 2133   3.394   3.162   1.150
  662  SOL  HW2 2134   3.377   3.038   1.065
  663  SOL   OW 2135   1.556   3.805   0.019
  663  SOL  HW1 2136   1.499   3.764   0.084
  663  SOL  HW2 2137   1.573   3.736  -0.045
  664  SOL   OW 2138   1.343   3.963   4.016
  664  SOL  HW1 2139   1.312   3.985   3.928
  664  SOL  HW2 2140   1.427   3.920   4.003
  665  SOL   OW 2141   2.577   3.815   1.767
  665  SOL  HW1 2142   2.651   3.874   1.752
  665  SOL  HW2 2143   2.605   3.731   1.729
  666  SOL   OW 2144   0.908   3.412  -0.006
  666  SOL  HW1 2145   0.887   3.377   0.080
  666  SOL  HW2 2146   0.846   3.369  -0.065
  667  SOL   OW 2147   2.291   3.696   3.095
  667  SOL  HW1 2148   2.234   3.621   3.084
  667  SOL  HW2 2149   2.377   3.659   3.114
  668  SOL   OW 2150   1.204   2.527   0.419
  668  SOL  HW1 2151   1.147   2.450   0.427
  668  SOL  HW2 2152   1.182   2.564   0.334
  669  SOL   OW 2153   2.449   0.103   3.453
  669  SOL  HW1 2154   2.532   0.065   3.483
  669  SOL  HW2 2155   2.431   0.060   3.370
  670  SOL   OW 2156   0.967   2.572   2.931
  670  SOL  HW1 2157   0.973   2.494   2.985
  670  SOL  HW2 2158   1.031   2.632   2.968
  671  SOL   OW 2159   2.518   1.145   0.954
  671  SOL  HW1 2160   2.486   1.127   0.866
  671  SOL  HW2 2161   2.520   1.240   0.961
  672  SOL   OW 2162   3.953   1.337   2.628
  672  SOL  HW1 2163   3.912   1.395   2.564
  672  SOL  HW2 2164   3.880   1.292   2.670
  673  SOL   OW 2165   3.793   2.394   0.746
  673  SOL  HW1 2166   3.778   2.489   0.754
  673  SOL  HW2 2167   3.706   2.356   0.750
  674  SOL   OW 2168   3.058   1.056   2.441
  674  SOL  HW1 2169   3.046   1.125   2.376
  674  SOL  HW2 2170   2.971   1.017   2.450
  675  SOL   OW 2171   1.919   1.385   3.708
  675  SOL  HW1 2172   2.003   1.400   3.752
  675  SOL  HW2 2173   1.898   1.294   3.726
  676  SOL   OW 2174   3.391   0.403   1.500
  676  SOL  HW1 2175   3.472   0.452   1.491
  676  SOL  HW2 2176   3.340   0.452   1.565
  677  SOL   OW 2177   0.060   1.980   3.868
  677  SOL  HW1 2178   0.032   1.889   3.858
  677  SOL  HW2 2179   0.133   1.976   3.930
  678  SOL   OW 2180   1.023   0.335   1.531
  678  SOL  HW1 2181   1.094   0.341   1.595
  678  SOL  HW2 2182   0.952   0.291   1.577
  679  SOL   OW 2183   1.750   2.744   3.893
  679  SOL  HW1 2184   1.830   2.791   3.870
  679  SOL  HW2 2185   1.719   2.706   3.810
  680  SOL   OW 2186   1.762   0.188   2.167
  680  SOL  HW1 2187   1.856   0.204   2.166
  680  SOL  HW2 2188   1.754   0.094   2.187
  681  SOL   OW 2189   0.358   2.345   0.827
  681  SOL  HW1 2190   0.351   2.293   0.907
  681  SOL  HW2 2191   0.295   2.306   0.767
  682  SOL   OW 2192   2.184   3.510   0.722
  682  SOL  HW1 2193   2.236   3.452   0.779
  682  SOL  HW2 2194   2.094   3.482   0.736
  683  SOL   OW 2195   0.821   3.129   3.562
  683  SOL  HW1 2196   0.764   3.055   3.542
  683  SOL  HW2 2197   0.772   3.181   3.626
  684  SOL   OW 2198   3.626   1.046   3.464
  684  SOL  HW1 2199   3.676   0.970   3.433
  684  SOL  HW2 2200   3.568   1.068   3.391
  685  SOL   OW 2201   0.879   1.606   2.129
  685  SOL  HW1 2202   0.850   1.650   2.049
  685  SOL  HW2 2203   0.811   1.540   2.145
  686  SOL   OW 2204   0.605   0.790   3.738
  686  SOL  HW1 2205   0.634   0.866   3.687
  686  SOL  HW2 2206   0.686   0.754   3.774
  687  SOL   OW 2207   2.940   3.876   2.395
  687  SOL  HW1 2208   3.031   3.888   2.423
  687  SOL  HW2 2209   2.947   3.858   2.301
  688  SOL   OW 2210   2.003   1.072   1.926
  688  SOL  HW1 2211   2.057   1.107   1.855
  688  SOL  HW2 2212   2.062   1.013   1.974
  689  SOL   OW 2213   2.447   3.344   1.976
  689  SOL  HW1 2214   2.402   3.425   1.952
  689  SOL  HW2 2215   2.393   3.275   1.937
  690  SOL   OW 2216   3.342   3.372   0.536
  690  SOL  HW1 2217   3.294   3.302   0.492
  690  SOL  HW2 2218   3.415   3.328   0.580
  691  SOL   OW 2219   2.499   1.322   1.512
  691  SOL  HW1 2220   2.538   1.255   1.569
  691  SOL  HW2 2221   2.537   1.404   1.543
  692  SOL   OW 2222   3.139   0.299   0.695
  692  SOL  HW1 2223   3.172   0.234   0.756
  692  SOL  HW2 2224   3.139   0.381   0.745
  693  SOL   OW 2225   2.333   0.281   3.615
  693  SOL  HW1 2226   2.377   0.198   3.600
  693  SOL  HW2 2227   2.337   0.327   3.531
  694  SOL   OW 2228   0.591   3.110   0.518
  694  SOL  HW1 2229   0.686   3.115   0.516
  694  SOL  HW2 2230   0.561   3.201   0.524
  695  SOL   OW 2231   2.050   3.229   3.141
  695  SOL  HW1 2232   2.125   3.171   3.156
  695  SOL  HW2 2233   1.974   3.176   3.163
  696  SOL   OW 2234   0.101   3.981   0.196
  696  SOL  HW1 2235   0.116   4.051   0.132
  696  SOL  HW2 2236   0.152   4.007   0.272
  697  SOL   OW 2237   2.960   1.757   1.448
  697  SOL  HW1 2238   3.015   1.754   1.526
  697  SOL  HW2 2239   3.017   1.727   1.377
  698  SOL   OW 2240   1.208   2.974   2.201
  698  SOL  HW1 2241   1.262   2.935   2.269
  698  SOL  HW2 2242   1.250   2.946   2.119
  699  SOL   OW 2243   3.844   0.790   3.011
  699  SOL  HW1 2244   3.849   0.822   2.921
  699  SOL  HW2 2245   3.894   0.708   3.010
  700  SOL   OW 2246   0.658   3.886   1.887
  700  SOL  HW1 2247   0.704   3.850   1.963
  700  SOL  HW2 2248   0.716   3.867   1.813
  701  SOL   OW 2249   3.444   3.153   3.417
  701  SOL  HW1 2250   3.447   3.102   3.498
  701  SOL  HW2 2251   3.392   3.099   3.357
  702  SOL   OW 2252   2.768   3.816   0.424
  702  SOL  HW1 2253   2.825   3.877   0.472
  702  SOL  HW2 2254   2.731   3.869   0.354
  703  SOL   OW 2255   0.491   0.204   2.361
  703  SOL  HW1 2256   0.502   0.298   2.345
  703  SOL  HW2 2257   0.486   0.166   2.273
  704  SOL   OW 2258   0.081   0.477   0.447
  704  SOL  HW1 2259   0.048   0.557   0.487
  704  SOL  HW2 2260   0.010   0.414   0.455
  705  SOL   OW 2261   0.300   3.752   0.367
  705  SOL  HW1 2262   0.334   3.822   0.423
  705  SOL  HW2 2263   0.252   3.695   0.427
  706  SOL   OW 2264   0.439   3.889   2.387
  706  SOL  HW1 2265   0.522   3.853   2.418
  706  SOL  HW2 2266   0.461   3.939   2.309
  707  SOL   OW 2267   2.898   3.873   1.733
  707  SOL  HW1 2268   2.870   3.788   1.769
  707  SOL  HW2 2269   2.987   3.885   1.766
  708  SOL   OW 2270   1.488   0.992   1.621
  708  SOL  HW1 2271   1.462   0.943   1.699
  708  SOL  HW2 2272   1.568   0.949   1.591
  709  SOL   OW 2273   1.861   3.389   4.016
  709  SOL  HW1 2274   1.903   3.307   4.043
  709  SOL  HW2 2275   1.905   3.412   3.934
  710  SOL   OW 2276   0.404   3.868   2.039
  710  SOL  HW1 2277   0.479   3.888   1.983
  710  SOL  HW2 2278   0.404   3.773   2.048
  711  SOL   OW 2279   2.607   0.428   1.440
  711  SOL  HW1 2280   2.580   0.346   1.480
  711  SOL  HW2 2281   2.703   0.423   1.436
  712  SOL   OW 2282   1.947   2.967   1.855
  712  SOL  HW1 2283   1.887   2.989   1.783
  712  SOL  HW2 2284   1.967   2.874   1.842
  713  SOL   OW 2285   3.360   2.750   2.537
  713  SOL  HW1 2286   3.334   2.773   2.626
  713  SOL  HW2 2287   3.277   2.744   2.490
  714  SOL   OW 2288   3.724   0.906   3.972
  714  SOL  HW1 2289   3.699   0.909   4.064
  714  SOL  HW2 2290   3.761   0.818   3.960
  715  SOL   OW 2291   1.076   0.897   3.633
  715  SOL  HW1 2292   1.111   0.984   3.652
  715  SOL  HW2 2293   1.063   0.896   3.539
  716  SOL   OW 2294   0.867   2.884   0.912
  716  SOL  HW1 2295   0.906   2.968   0.935
  716  SOL  HW2 2296   0.821   2.857   0.991
  717  SOL   OW 2297   1.683   1.357   0.303
  717  SOL  HW1 2298   1.595   1.376   0.270
  717  SOL  HW2 2299   1.674   1.275   0.350
  718  SOL   OW 2300   2.962   1.573   3.033
  718  SOL  HW1 2301   3.034   1.568   3.095
  718  SOL  HW2 2302   3.002   1.561   2.947
  719  SOL   OW 2303   1.565   3.734   0.422
  719  SOL  HW1 2304   1.494   3.779   0.377
  719  SOL  HW2 2305   1.524   3.693   0.498
  720  SOL   OW 2306   3.667   2.966   3.313
  720  SOL  HW1 2307   3.579   2.942   3.282
  720  SOL  HW2 2308   3.690   2.897   3.375
  721  SOL   OW 2309   0.735   0.131   4.009
  721  SOL  HW1 2310   0.775   0.044   4.017
  721  SOL  HW2 2311   0.793   0.179   3.950
  722  SOL   OW 2312   2.047   1.462   3.237
  722  SOL  HW1 2313   2.043   1.409   3.316
  722  SOL  HW2 2314   2.020   1.404   3.167
  723  SOL   OW 2315   3.815   0.151   2.988
  723  SOL  HW1 2316   3.792   0.058   2.978
  723  SOL  HW2 2317   3.775   0.194   2.912
  724  SOL   OW 2318   2.551   2.264   0.746
  724  SOL  HW1 2319   2.632   2.226   0.780
  724  SOL  HW2 2320   2.578   2.308   0.665
  725  SOL   OW 2321   1.627   4.034   2.390
  725  SOL  HW1 2322   1.666   3.950   2.366
  725  SOL  HW2 2323   1.642   4.041   2.484
  726  SOL   OW 2324   1.745   3.604   0.253
  726  SOL  HW1 2325   1.716   3.562   0.172
  726  SOL  HW2 2326   1.666   3.647   0.286
  727  SOL   OW 2327   0.673   3.636   2.651
  727  SOL  HW1 2328   0.710   3.562   2.700
  727  SOL  HW2 2329   0.746   3.698   2.643
  728  SOL   OW 2330   1.474   3.534   0.119
  728  SOL  HW1 2331   1.525   3.508   0.042
  728  SOL  HW2 2332   1.393   3.569   0.083
  729  SOL   OW 2333   1.913   2.508   4.003
  729  SOL  HW1 2334   1.886   2.463   3.923
  729  SOL  HW2 2335   1.874   2.595   3.997
  730  SOL   OW 2336   2.150   1.415   2.864
  730  SOL  HW1 2337   2.106   1.498   2.846
  730  SOL  HW2 2338   2.094   1.372   2.928
  731  SOL   OW 2339   1.781   1.243   3.295
  731  SOL  HW1 2340   1.772   1.292   3.214
  731  SOL  HW2 2341   1.818   1.306   3.358
  732  SOL   OW 2342   0.542   0.427   2.996
  732  SOL  HW1 2343   0.483   0.353   2.984
  732  SOL  HW2 2344   0.613   0.394   3.051
  733  SOL   OW 2345   3.656   0.941   2.072
  733  SOL  HW1 2346   3.591   1.010   2.056
  733  SOL  HW2 2347   3.618   0.889   2.143
  734  SOL   OW 2348   1.065   0.187   3.600
  734  SOL  HW1 2349   1.072   0.093   3.583
  734  SOL  HW2 2350   1.137   0.226   3.551
  735  SOL   OW 2351   2.036   4.001   0.347
  735  SOL  HW1 2352   2.008   4.084   0.384
  735  SOL  HW2 2353   1.993   3.996   0.262
  736  SOL   OW 2354   0.417   2.353   3.909
  736  SOL  HW1 2355   0.322   2.357   3.904
  736  SOL  HW2 2356   0.438   2.399   3.991
  737  SOL   OW 2357   0.205   2.857   1.087
  737  SOL  HW1 2358   0.225   2.764   1.093
  737  SOL  HW2 2359   0.202   2.875   0.993
  738  SOL   OW 2360   2.854   0.761   3.981
  738  SOL  HW1 2361   2.829   0.673   3.951
  738  SOL  HW2 2362   2.851   0.815   3.902
  739  SOL   OW 2363   1.984   3.246   1.244
  739  SOL  HW1 2364   1.913   3.305   1.272
  739  SOL  HW2 2365   2.043   3.243   1.318
  740  SOL   OW 2366   0.678   0.677   0.956
  740  SOL  HW1 2367   0.633   0.593   0.943
  740  SOL  HW2 2368   0.618   0.728   1.010
  741  SOL   OW 2369   3.023   0.561   2.341
  741  SOL  HW1 2370   3.027   0.633   2.404
  741  SOL  HW2 2371   3.012   0.482   2.394
  742  SOL   OW 2372   1.168   0.277   2.559
  742  SOL  HW1 2373   1.206   0.360   2.589
  742  SOL  HW2 2374   1.241   0.215   2.558
  743  SOL   OW 2375   1.473   1.314   0.611
  743  SOL  HW1 2376   1.566   1.307   0.634
  743  SOL  HW2 2377   1.451   1.405   0.627
  744  SOL   OW 2378   0.052   1.760   2.060
  744  SOL  HW1 2379   0.102   1.718   2.130
  744  SOL  HW2 2380  -0.015   1.696   2.036
  745  SOL   OW 2381   1.925   1.620   2.704
  745  SOL  HW1 2382   1.929   1.527   2.726
  745  SOL  HW2 2383   1.862   1.657   2.765
  746  SOL   OW 2384   3.908   3.487   1.071
  746  SOL  HW1 2385   3.848   3.429   1.024
  746  SOL  HW2 2386   3.861   3.509   1.151
  747  SOL   OW 2387   2.366   0.339   1.826
  747  SOL  HW1 2388   2.384   0.263   1.770
  747  SOL  HW2 2389   2.434   0.336   1.893
  748  SOL   OW 2390   3.192   0.043   0.042
  748  SOL  HW1 2391   3.238   0.096   0.107
  748  SOL  HW2 2392   3.146  -0.023   0.093
  749  SOL   OW 2393   1.812   0.909   1.870
  749  SOL  HW1 2394   1.888   0.965   1.891
  749  SOL  HW2 2395   1.750   0.968   1.827
  750  SOL   OW 2396   3.351   0.050   1.214
  750  SOL  HW1 2397   3.293  -0.017   1.249
  750  SOL  HW2 2398   3.295   0.101   1.156
  751  SOL   OW 2399   2.611   2.237   0.126
  751  SOL  HW1 2400   2.673   2.277   0.065
  751  SOL  HW2 2401   2.667   2.188   0.187
  752  SOL   OW 2402   3.992   0.689   0.552
  752  SOL  HW1 2403   3.944   0.762   0.512
  752  SOL  HW2 2404   4.079   0.725   0.570
  753  SOL   OW 2405   1.015   2.872   1.919
  753  SOL  HW1 2406   1.079   2.932   1.957
  753  SOL  HW2 2407   0.974   2.923   1.849
  754  SOL   OW 2408   0.875   3.854   2.934
  754  SOL  HW1 2409   0.780   3.847   2.937
  754  SOL  HW2 2410   0.906   3.764   2.946
  755  SOL   OW 2411   2.891   3.815   1.200
  755  SOL  HW1 2412   2.962   3.877   1.215
  755  SOL  HW2 2413   2.860   3.834   1.112
  756  SOL   OW 2414   3.225   0.814   1.834
  756  SOL  HW1 2415   3.135   0.782   1.824
  756  SOL  HW2 2416   3.215   0.901   1.873
  757  SOL   OW 2417   0.827   2.467   0.796
  757  SOL  HW1 2418   0.762   2.405   0.766
  757  SOL  HW2 2419   0.812   2.475   0.890
  758  SOL   OW 2420   0.938   2.501   1.540
  758  SOL  HW1 2421   0.994   2.424   1.551
  758  SOL  HW2 2422   0.859   2.480   1.589
  759  SOL   OW 2423   0.213   3.489   3.321
  759  SOL  HW1 2424   0.257   3.559   3.272
  759  SOL  HW2 2425   0.156   3.447   3.257
  760  SOL   OW 2426   3.744   2.520   3.668
  760  SOL  HW1 2427   3.830   2.562   3.664
  760  SOL  HW2 2428   3.722   2.502   3.577
  761  SOL   OW 2429   0.607   2.073   3.335
  761  SOL  HW1 2430   0.684   2.093   3.388
  761  SOL  HW2 2431   0.634   2.090   3.245
  762  SOL   OW 2432   2.311   3.203   1.731
  762  SOL  HW1 2433   2.346   3.134   1.788
  762  SOL  HW2 2434   2.313   3.165   1.643
  763  SOL   OW 2435   1.919   1.953   1.961
  763  SOL  HW1 2436   1.915   1.861   1.934
  763  SOL  HW2 2437   1.974   1.995   1.894
  764  SOL   OW 2438   0.638   3.867   1.295
  764  SOL  HW1 2439   0.616   3.779   1.265
  764  SOL  HW2 2440   0.625   3.922   1.217
  765  SOL   OW 2441   2.074   0.360   1.897
  765  SOL  HW1 2442   2.170   0.360   1.893
  765  SOL  HW2 2443   2.047   0.284   1.846
  766  SOL   OW 2444   3.556   4.016   0.138
  766  SOL  HW1 2445   3.478   3.960   0.140
  766  SOL  HW2 2446   3.522   4.105   0.151
  767  SOL   OW 2447   3.222   2.339   0.857
  767  SOL  HW1 2448   3.313   2.370   0.867
  767  SOL  HW2 2449   3.173   2.418   0.834
  768  SOL   OW 2450   0.902   2.224   1.922
  768  SOL  HW1 2451   0.965   2.164   1.884
  768  SOL  HW2 2452   0.825   2.170   1.941
  769  SOL   OW 2453   0.771   1.941   2.645
  769  SOL  HW1 2454   0.743   1.938   2.736
  769  SOL  HW2 2455   0.810   1.856   2.628
  770  SOL   OW 2456   0.782   1.968   1.770
  770  SOL  HW1 2457   0.872   1.942   1.788
  770  SOL  HW2 2458   0.730   1.891   1.792
  771  SOL   OW 2459   3.526   3.211   3.798
  771  SOL  HW1 2460   3.591   3.259   3.849
  771  SOL  HW2 2461   3.446   3.261   3.807
  772  SOL   OW 2462   0.915   2.279   2.854
  772  SOL  HW1 2463   0.890   2.352   2.798
  772  SOL  HW2 2464   0.959   2.217   2.796
  773  SOL   OW 2465   0.431   4.011   3.937
  773  SOL  HW1 2466   0.337   4.002   3.945
  773  SOL  HW2 2467   0.456   4.070   4.009
  774  SOL   OW 2468   3.652   0.543   2.046
  774  SOL  HW1 2469   3.692   0.457   2.057
  774  SOL  HW2 2470   3.721   0.597   2.008
  775  SOL   OW 2471   1.959   3.423   3.775
  775  SOL  HW1 2472   1.934   3.444   3.685
  775  SOL  HW2 2473   2.053   3.403   3.769
  776  SOL   OW 2474   0.222   3.252   3.120
  776  SOL  HW1 2475   0.133   3.276   3.146
  776  SOL  HW2 2476   0.211   3.174   3.066
  777  SOL   OW 2477   1.984   2.845   3.635
  777  SOL  HW1 2478   2.014   2.889   3.715
  777  SOL  HW2 2479   2.004   2.907   3.565
  778  SOL   OW 2480   3.689   3.634   2.047
  778  SOL  HW1 2481   3.693   3.579   1.969
  778  SOL  HW2 2482   3.723   3.578   2.117
  779  SOL   OW 2483   0.190   1.002   0.228
  779  SOL  HW1 2484   0.227   0.967   0.147
  779  SOL  HW2 2485   0.101   1.027   0.206
  780  SOL   OW 2486   3.859   0.702   2.387
  780  SOL  HW1 2487   3.814   0.766   2.441
  780  SOL  HW2 2488   3.818   0.618   2.409
  781  SOL   OW 2489   1.654   0.580   1.316
  781  SOL  HW1 2490   1.619   0.504   1.270
  781  SOL  HW2 2491   1.621   0.655   1.266
  782  SOL   OW 2492   4.026   3.997   1.444
  782  SOL  HW1 2493   4.054   3.963   1.528
  782  SOL  HW2 2494   3.961   3.933   1.413
  783  SOL   OW 2495   3.259   0.992   1.301
  783  SOL  HW1 2496   3.189   1.044   1.340
  783  SOL  HW2 2497   3.306   0.955   1.375
  784  SOL   OW 2498   2.170   2.127   0.885
  784  SOL  HW1 2499   2.175   2.038   0.919
  784  SOL  HW2 2500   2.077   2.150   0.893
  785  SOL   OW 2501   0.316   2.952   3.566
  785  SOL  HW1 2502   0.410   2.935   3.558
  785  SOL  HW2 2503   0.275   2.883   3.515
  786  SOL   OW 2504   2.777   0.883   1.494
  786  SOL  HW1 2505   2.715   0.942   1.451
  786  SOL  HW2 2506   2.736   0.862   1.578
  787  SOL   OW 2507   2.855   1.223   2.685
  787  SOL  HW1 2508   2.915   1.155   2.653
  787  SOL  HW2 2509   2.768   1.191   2.663
  788  SOL   OW 2510   3.698   3.920   2.501
  788  SOL  HW1 2511   3.738   3.882   2.579
  788  SOL  HW2 2512   3.623   3.863   2.482
  789  SOL   OW 2513   0.862   0.681   0.352
  789  SOL  HW1 2514   0.852   0.642   0.265
  789  SOL  HW2 2515   0.799   0.633   0.406
  790  SOL   OW 2516   1.064   2.225   1.569
  790  SOL  HW1 2517   1.042   2.170   1.494
  790  SOL  HW2 2518   1.110   2.167   1.630
  791  SOL   OW 2519   2.433   1.396   0.894
  791  SOL  HW1 2520   2.416   1.454   0.820
  791  SOL  HW2 2521   2.346   1.367   0.922
  792  SOL   OW 2522   1.459   2.357   2.603
  792  SOL  HW1 2523   1.369   2.332   2.587
  792  SOL  HW2 2524   1.462   2.376   2.697
  793  SOL   OW 2525   3.384   2.704   0.974
  793  SOL  HW1 2526   3.366   2.658   0.893
  793  SOL  HW2 2527   3.334   2.785   0.968
  794  SOL   OW 2528   3.406   3.342   0.930
  794  SOL  HW1 2529   3.323   3.304   0.901
  794  SOL  HW2 2530   3.386   3.435   0.943
  795  SOL   OW 2531   3.556   3.990   3.290
  795  SOL  HW1 2532   3.475   3.966   3.335
  795  SOL  HW2 2533   3.596   4.055   3.347
  796  SOL   OW 2534   2.388   0.835   0.099
  796  SOL  HW1 2535   2.482   0.853   0.108
  796  SOL  HW2 2536   2.379   0.799   0.011
  797  SOL   OW 2537   2.767   3.846   0.970
  797  SOL  HW1 2538   2.740   3.812   0.884
  797  SOL  HW2 2539   2.712   3.923   0.983
  798  SOL   OW 2540   3.785   0.668   3.904
  798  SOL  HW1 2541   3.827   0.603   3.960
  798  SOL  HW2 2542   3.730   0.616   3.845
  799  SOL   OW 2543   1.943   3.505   0.414
  799  SOL  HW1 2544   1.857   3.530   0.382
  799  SOL  HW2 2545   1.970   3.578   0.470
  800  SOL   OW 2546   3.489   0.782   1.918
  800  SOL  HW1 2547   3.398   0.790   1.948
  800  SOL  HW2 2548   3.539   0.765   1.998
  801  SOL   OW 2549   1.598   0.170   2.865
  801  SOL  HW1 2550   1.663   0.213   2.920
  801  SOL  HW2 2551   1.544   0.120   2.925
  802  SOL   OW 2552   0.582   0.988   1.889
  802  SOL  HW1 2553   0.516   0.919   1.882
  802  SOL  HW2 2554   0.597   0.997   1.984
  803  SOL   OW 2555   1.865   2.067   2.631
  803  SOL  HW1 2556   1.955   2.090   2.654
  803  SOL  HW2 2557   1.835   2.012   2.703
  804  SOL   OW 2558   0.958   3.322   1.927
  804  SOL  HW1 2559   0.869   3.345   1.900
  804  SOL  HW2 2560   0.977   3.240   1.882
  805  SOL   OW 2561   3.834   2.074   0.637
  805  SOL  HW1 2562   3.875   2.039   0.558
  805  SOL  HW2 2563   3.760   2.126   0.605
  806  SOL   OW 2564   3.054   3.922   2.127
  806  SOL  HW1 2565   2.991   3.849   2.121
  806  SOL  HW2 2566   3.073   3.944   2.036
  807  SOL   OW 2567   3.914   0.207   3.255
  807  SOL  HW1 2568   4.002   0.174   3.277
  807  SOL  HW2 2569   3.896   0.169   3.169
  808  SOL   OW 2570   0.552   0.928   2.400
  808  SOL  HW1 2571   0.499   1.006   2.386
  808  SOL  HW2 2572   0.490   0.859   2.419
  809  SOL   OW 2573   1.306   2.689   3.275
  809  SOL  HW1 2574   1.369   2.761   3.270
  809  SOL  HW2 2575   1.357   2.611   3.256
  810  SOL   OW 2576   3.802   2.205   3.910
  810  SOL  HW1 2577   3.879   2.261   3.909
  810  SOL  HW2 2578   3.764   2.215   3.822
  811  SOL   OW 2579   3.433   0.167   2.990
  811  SOL  HW1 2580   3.478   0.210   3.063
  811  SOL  HW2 2581   3.393   0.089   3.029
  812  SOL   OW 2582   2.045   3.253   0.378
  812  SOL  HW1 2583   2.027   3.344   0.399
  812  SOL  HW2 2584   1.958   3.213   0.367
  813  SOL   OW 2585   2.050   2.922   3.881
  813  SOL  HW1 2586   2.067   2.988   3.948
  813  SOL  HW2 2587   2.102   2.846   3.908
  814  SOL   OW 2588   0.269   2.426   0.392
  814  SOL  HW1 2589   0.233   2.511   0.415
  814  SOL  HW2 2590   0.202   2.386   0.337
  815  SOL   OW 2591   2.747   0.214   3.577
  815  SOL  HW1 2592   2.688   0.282   3.546
  815  SOL  HW2 2593   2.712   0.188   3.662
  816  SOL   OW 2594   0.539   2.873   0.292
  816  SOL  HW1 2595   0.551   2.779   0.306
  816  SOL  HW2 2596   0.574   2.915   0.371
  817  SOL   OW 2597   0.649   0.405   1.789
  817  SOL  HW1 2598   0.709   0.344   1.831
  817  SOL  HW2 2599   0.562   0.371   1.808
  818  SOL   OW 2600   1.598   0.810   1.030
  818  SOL  HW1 2601   1.556   0.731   0.997
  818  SOL  HW2 2602   1.690   0.786   1.044
  819  SOL   OW 2603   4.026   3.888   3.091
  819  SOL  HW1 2604   4.058   3.918   3.176
  819  SOL  HW2 2605   3.966   3.816   3.113
  820  SOL   OW 2606   3.006   3.530   2.513
  820  SOL  HW1 2607   3.090   3.551   2.553
  820  SOL  HW2 2608   2.991   3.438   2.534
  821  SOL   OW 2609   0.701   2.908   1.810
  821  SOL  HW1 2610   0.709   2.886   1.717
  821  SOL  HW2 2611   0.646   2.838   1.845
  822  SOL   OW 2612   2.104   3.526   2.115
  822  SOL  HW1 2613   2.183   3.518   2.168
  822  SOL  HW2 2614   2.032   3.519   2.177
  823  SOL   OW 2615   2.638   3.772   2.913
  823  SOL  HW1 2616   2.717   3.723   2.890
  823  SOL  HW2 2617   2.570   3.736   2.856
  824  SOL   OW 2618   1.212   0.336   1.731
  824  SOL  HW1 2619   1.206   0.416   1.783
  824  SOL  HW2 2620   1.307   0.322   1.721
  825  SOL   OW 2621   0.781   0.116   0.253
  825  SOL  HW1 2622   0.806   0.127   0.161
  825  SOL  HW2 2623   0.686   0.118   0.252
  826  SOL   OW 2624   3.211   0.968   2.857
  826  SOL  HW1 2625   3.208   1.004   2.946
  826  SOL  HW2 2626   3.122   0.937   2.841
  827  SOL   OW 2627   2.258   2.228   0.115
  827  SOL  HW1 2628   2.183   2.238   0.056
  827  SOL  HW2 2629   2.246   2.141   0.154
  828  SOL   OW 2630   2.079   1.525   1.060
  828  SOL  HW1 2631   2.015   1.559   0.998
  828  SOL  HW2 2632   2.074   1.430   1.050
  829  SOL   OW 2633   0.973   3.410   3.391
  829  SOL  HW1 2634   1.069   3.411   3.398
  829  SOL  HW2 2635   0.944   3.472   3.458
  830  SOL   OW 2636   2.979   1.159   3.381
  830  SOL  HW1 2637   2.893   1.188   3.412
  830  SOL  HW2 2638   2.993   1.207   3.300
  831  SOL   OW 2639   2.240   0.288   0.394
  831  SOL  HW1 2640   2.210   0.228   0.463
  831  SOL  HW2 2641   2.325   0.254   0.367
  832  SOL   OW 2642   2.241   1.209   3.173
  832  SOL  HW1 2643   2.224   1.184   3.263
  832  SOL  HW2 2644   2.280   1.297   3.178
  833  SOL   OW 2645   0.959   1.406   1.246
  833  SOL  HW1 2646   0.986   1.327   1.199
  833  SOL  HW2 2647   0.990   1.478   1.192
  834  SOL   OW 2648   1.550   2.016   1.322
  834  SOL  HW1 2649   1.580   2.045   1.408
  834  SOL  HW2 2650   1.462   2.054   1.313
  835  SOL   OW 2651   1.449   0.972   3.558
  835  SOL  HW1 2652   1.493   1.011   3.634
  835  SOL  HW2 2653   1.446   1.042   3.493
  836  SOL   OW 2654   3.033   2.609   2.140
  836  SOL  HW1 2655   3.071   2.522   2.154
  836  SOL  HW2 2656   3.057   2.631   2.050
  837  SOL   OW 2657   1.767   1.404   0.566
  837  SOL  HW1 2658   1.764   1.415   0.471
  837  SOL  HW2 2659   1.754   1.493   0.601
  838  SOL   OW 2660   3.409   1.044   3.764
  838  SOL  HW1 2661   3.360   1.039   3.682
  838  SOL  HW2 2662   3.494   1.006   3.744
  839  SOL   OW 2663   2.577   1.157   0.038
  839  SOL  HW1 2664   2.552   1.151  -0.054
  839  SOL  HW2 2665   2.596   1.067   0.064
  840  SOL   OW 2666   0.150   2.751   3.434
  840  SOL  HW1 2667   0.061   2.786   3.439
  840  SOL  HW2 2668   0.141   2.658   3.455
  841  SOL   OW 2669   0.573   2.285   1.382
  841  SOL  HW1 2670   0.572   2.194   1.413
  841  SOL  HW2 2671   0.509   2.330   1.437
  842  SOL   OW 2672   3.891   3.837   4.003
  842  SOL  HW1 2673   3.877   3.768   3.937
  842  SOL  HW2 2674   3.838   3.910   3.972
  843  SOL   OW 2675   3.311   1.496   0.155
  843  SOL  HW1 2676   3.380   1.561   0.169
  843  SOL  HW2 2677   3.356   1.423   0.111
  844  SOL   OW 2678   2.771   1.215   3.686
  844  SOL  HW1 2679   2.841   1.156   3.712
  844  SOL  HW2 2680   2.712   1.161   3.634
  845  SOL   OW 2681   0.674   2.355   3.754
  845  SOL  HW1 2682   0.692   2.414   3.680
  845  SOL  HW2 2683   0.585   2.379   3.782
  846  SOL   OW 2684   1.238   3.674   3.566
  846  SOL  HW1 2685   1.320   3.721   3.553
  846  SOL  HW2 2686   1.249   3.631   3.651
  847  SOL   OW 2687   2.261   0.057   0.084
  847  SOL  HW1 2688   2.249  -0.019   0.141
  847  SOL  HW2 2689   2.349   0.089   0.106
  848  SOL   OW 2690   3.298   2.245   3.048
  848  SOL  HW1 2691   3.275   2.316   2.989
  848  SOL  HW2 2692   3.215   2.204   3.070
  849  SOL   OW 2693   2.563   2.117   2.977
  849  SOL  HW1 2694   2.506   2.178   3.024
  849  SOL  HW2 2695   2.593   2.166   2.900
  850  SOL   OW 2696   0.779   2.837   3.348
  850  SOL  HW1 2697   0.788   2.843   3.252
  850  SOL  HW2 2698   0.864   2.807   3.378
  851  SOL   OW 2699   2.935   0.592   2.899
  851  SOL  HW1 2700   2.928   0.497   2.900
  851  SOL  HW2 2701   3.004   0.612   2.962
  852  SOL   OW 2702   3.091   3.299   0.965
  852  SOL  HW1 2703   3.034   3.374   0.981
  852  SOL  HW2 2704   3.048   3.252   0.893
  853  SOL   OW 2705   2.344   1.466   2.033
  853  SOL  HW1 2706   2.278   1.471   2.102
  853  SOL  HW2 2707   2.357   1.557   2.005
  854  SOL   OW 2708   1.032   2.288   3.555
  854  SOL  HW1 2709   0.981   2.366   3.576
  854  SOL  HW2 2710   1.020   2.230   3.631
  855  SOL   OW 2711   2.862   0.403   2.142
  855  SOL  HW1 2712   2.885   0.490   2.175
  855  SOL  HW2 2713   2.917   0.343   2.191
  856  SOL   OW 2714   1.220   1.472   3.809
  856  SOL  HW1 2715   1.265   1.537   3.755
  856  SOL  HW2 2716   1.163   1.525   3.866
  857  SOL   OW 2717   1.025   3.470   0.857
  857  SOL  HW1 2718   0.931   3.460   0.871
  857  SOL  HW2 2719   1.065   3.436   0.937
  858  SOL   OW 2720   0.956   0.986   3.348
  858  SOL  HW1 2721   0.975   1.079   3.354
  858  SOL  HW2 2722   0.948   0.969   3.254
  859  SOL   OW 2723   2.505   3.813   2.016
  859  SOL  HW1 2724   2.507   3.899   2.056
  859  SOL  HW2 2725   2.522   3.830   1.923
  860  SOL   OW 2726   1.081   1.871   3.376
  860  SOL  HW1 2727   1.086   1.780   3.347
  860  SOL  HW2 2728   0.988   1.894   3.370
  861  SOL   OW 2729   2.913   3.443   0.683
  861  SOL  HW1 2730   3.000   3.473   0.710
  861  SOL  HW2 2731   2.924   3.419   0.591
  862  SOL   OW 2732   3.904   3.139   1.256
  862  SOL  HW1 2733   3.826   3.147   1.201
  862  SOL  HW2 2734   3.931   3.048   1.244
  863  SOL   OW 2735   2.277   2.570   0.694
  863  SOL  HW1 2736   2.289   2.522   0.777
  863  SOL  HW2 2737   2.283   2.502   0.627
  864  SOL   OW 2738   3.739   0.013   0.672
  864  SOL  HW1 2739   3.807  -0.037   0.717
  864  SOL  HW2 2740   3.786   0.059   0.602
  865  SOL   OW 2741   2.477   1.274   2.305
  865  SOL  HW1 2742   2.445   1.364   2.309
  865  SOL  HW2 2743   2.546   1.276   2.239
  866  SOL   OW 2744   3.867   2.595   3.199
  866  SOL  HW1 2745   3.844   2.657   3.130
  866  SOL  HW2 2746   3.852   2.509   3.160
  867  SOL   OW 2747   1.359   2.907   1.965
  867  SOL  HW1 2748   1.365   2.960   1.885
  867  SOL  HW2 2749   1.378   2.818   1.936
  868  SOL   OW 2750   2.860   1.586   2.343
  868  SOL  HW1 2751   2.845   1.527   2.268
  868  SOL  HW2 2752   2.868   1.673   2.303
  869  SOL   OW 2753   2.463   3.267   2.940
  869  SOL  HW1 2754   2.411   3.338   2.902
  869  SOL  HW2 2755   2.398   3.208   2.978
  870  SOL   OW 2756   1.645   2.580   2.407
  870  SOL  HW1 2757   1.630   2.660   2.357
  870  SOL  HW2 2758   1.726   2.543   2.372
  871  SOL   OW 2759   0.899   0.044   1.324
  871  SOL  HW1 2760   0.826  -0.018   1.325
  871  SOL  HW2 2761   0.957   0.014   1.394
  872  SOL   OW 2762   2.252   2.177   2.949
  872  SOL  HW1 2763   2.240   2.119   2.874
  872  SOL  HW2 2764   2.164   2.205   2.971
  873  SOL   OW 2765   2.244   1.898   2.543
  873  SOL  HW1 2766   2.286   1.814   2.557
  873  SOL  HW2 2767   2.152   1.882   2.566
  874  SOL   OW 2768   0.147   0.753   0.915
  874  SOL  HW1 2769   0.113   0.816   0.853
  874  SOL  HW2 2770   0.163   0.803   0.995
  875  SOL   OW 2771   2.012   2.693   1.787
  875  SOL  HW1 2772   2.005   2.637   1.865
  875  SOL  HW2 2773   1.944   2.660   1.728
  876  SOL   OW 2774   3.633   0.246   0.754
  876  SOL  HW1 2775   3.657   0.170   0.703
  876  SOL  HW2 2776   3.651   0.321   0.696
  877  SOL   OW 2777   3.031   1.245   2.228
  877  SOL  HW1 2778   2.944   1.277   2.205
  877  SOL  HW2 2779   3.057   1.191   2.154
  878  SOL   OW 2780   1.405   0.306   3.738
  878  SOL  HW1 2781   1.346   0.251   3.790
  878  SOL  HW2 2782   1.478   0.248   3.715
  879  SOL   OW 2783   0.509   1.342   3.455
  879  SOL  HW1 2784   0.490   1.281   3.526
  879  SOL  HW2 2785   0.423   1.377   3.430
  880  SOL   OW 2786   2.945   0.351   3.192
  880  SOL  HW1 2787   2.891   0.277   3.220
  880  SOL  HW2 2788   3.028   0.311   3.165
  881  SOL   OW 2789   0.754   2.731   0.728
  881  SOL  HW1 2790   0.800   2.798   0.779
  881  SOL  HW2 2791   0.786   2.648   0.764
  882  SOL   OW 2792   2.922   3.940   3.288
  882  SOL  HW1 2793   2.871   3.893   3.221
  882  SOL  HW2 2794   3.002   3.887   3.298
  883  SOL   OW 2795   2.173   0.119   0.681
  883  SOL  HW1 2796   2.096   0.087   0.727
  883  SOL  HW2 2797   2.238   0.134   0.750
  884  SOL   OW 2798   1.412   3.035   3.416
  884  SOL  HW1 2799   1.321   3.061   3.401
  884  SOL  HW2 2800   1.422   3.036   3.511
  885  SOL   OW 2801   3.547   0.666   0.085
  885  SOL  HW1 2802   3.519   0.687  -0.005
  885  SOL  HW2 2803   3.575   0.575   0.081
  886  SOL   OW 2804   0.540   2.476   2.353
  886  SOL  HW1 2805   0.587   2.511   2.429
  886  SOL  HW2 2806   0.457   2.445   2.389
  887  SOL   OW 2807   0.950   3.625   3.555
  887  SOL  HW1 2808   0.963   3.686   3.482
  887  SOL  HW2 2809   0.948   3.681   3.633
  888  SOL   OW 2810   0.612   0.981   0.673
  888  SOL  HW1 2811   0.550   0.909   0.687
  888  SOL  HW2 2812   0.572   1.056   0.718
  889  SOL   OW 2813   0.880   2.005   0.501
  889  SOL  HW1 2814   0.930   2.025   0.581
  889  SOL  HW2 2815   0.842   2.089   0.476
  890  SOL   OW 2816   0.497   2.247   2.730
  890  SOL  HW1 2817   0.498   2.341   2.744
  890  SOL  HW2 2818   0.478   2.237   2.636
  891  SOL   OW 2819   1.199   1.442   0.362
  891  SOL  HW1 2820   1.180   1.484   0.445
  891  SOL  HW2 2821   1.163   1.502   0.296
  892  SOL   OW 2822   1.799   3.304   1.469
  892  SOL  HW1 2823   1.715   3.287   1.512
  892  SOL  HW2 2824   1.860   3.318   1.541
  893  SOL   OW 2825   2.879   2.442   0.365
  893  SOL  HW1 2826   2.833   2.464   0.284
  893  SOL  HW2 2827   2.907   2.351   0.353
  894  SOL   OW 2828   1.975   1.856   0.806
  894  SOL  HW1 2829   2.064   1.826   0.825
  894  SOL  HW2 2830   1.984   1.949   0.786
  895  SOL   OW 2831   1.560   2.869   1.550
  895  SOL  HW1 2832   1.559   2.812   1.473
  895  SOL  HW2 2833   1.547   2.809   1.624
  896  SOL   OW 2834   3.692   2.337   2.757
  896  SOL  HW1 2835   3.662   2.346   2.666
  896  SOL  HW2 2836   3.641   2.264   2.792
  897  SOL   OW 2837   3.323   1.249   0.341
  897  SOL  HW1 2838   3.413   1.239   0.371
  897  SOL  HW2 2839   3.331   1.260   0.246
  898  SOL   OW 2840   3.334   2.511   3.550
  898  SOL  HW1 2841   3.261   2.478   3.603
  898  SOL  HW2 2842   3.320   2.471   3.464
  899  SOL   OW 2843   3.338   2.086   0.920
  899  SOL  HW1 2844   3.292   2.148   0.864
  899  SOL  HW2 2845   3.413   2.134   0.954
  900  SOL   OW 2846   1.060   1.832   2.965
  900  SOL  HW1 2847   1.065   1.738   2.981
  900  SOL  HW2 2848   1.113   1.871   3.034
  901  SOL   OW 2849   2.019   0.063   2.464
  901  SOL  HW1 2850   2.106   0.043   2.431
  901  SOL  HW2 2851   2.009   0.158   2.453
  902  SOL   OW 2852   1.087   3.613   1.293
  902  SOL  HW1 2853   1.089   3.704   1.263
  902  SOL  HW2 2854   1.179   3.591   1.311
  903  SOL   OW 2855   0.068   1.650   0.812
  903  SOL  HW1 2856  -0.004   1.587   0.811
  903  SOL  HW2 2857   0.103   1.648   0.723
  904  SOL   OW 2858   0.361   3.179   0.015
  904  SOL  HW1 2859   0.446   3.194   0.056
  904  SOL  HW2 2860   0.317   3.264   0.020
  905  SOL   OW 2861   0.822   0.564   2.297
  905  SOL  HW1 2862   0.822   0.573   2.392
  905  SOL  HW2 2863   0.879   0.489   2.280
  906  SOL   OW 2864   1.091   3.935   0.946
  906  SOL  HW1 2865   1.057   3.997   0.880
  906  SOL  HW2 2866   1.167   3.896   0.904
  907  SOL   OW 2867   1.847   1.504   3.474
  907  SOL  HW1 2868   1.752   1.502   3.470
  907  SOL  HW2 2869   1.868   1.465   3.559
  908  SOL   OW 2870   1.089   0.247   1.283
  908  SOL  HW1 2871   1.040   0.165   1.279
  908  SOL  HW2 2872   1.074   0.280   1.372
  909  SOL   OW 2873   3.124   1.668   1.238
  909  SOL  HW1 2874   3.215   1.674   1.208
  909  SOL  HW2 2875   3.079   1.623   1.166
  910  SOL   OW 2876   0.394   1.385   1.050
  910  SOL  HW1 2877   0.434   1.445   0.987
  910  SOL  HW2 2878   0.465   1.363   1.110
  911  SOL   OW 2879   0.771   3.548   2.220
  911  SOL  HW1 2880   0.773   3.603   2.141
  911  SOL  HW2 2881   0.815   3.467   2.193
  912  SOL   OW 2882   2.653   4.065   3.808
  912  SOL  HW1 2883   2.656   4.067   3.904
  912  SOL  HW2 2884   2.699   3.984   3.785
  913  SOL   OW 2885   3.323   0.631   3.616
  913  SOL  HW1 2886   3.354   0.700   3.558
  913  SOL  HW2 2887   3.338   0.550   3.567
  914  SOL   OW 2888   2.418   2.634   1.066
  914  SOL  HW1 2889   2.372   2.570   1.011
  914  SOL  HW2 2890   2.500   2.591   1.089
  915  SOL   OW 2891   1.803   2.765   3.058
  915  SOL  HW1 2892   1.880   2.801   3.014
  915  SOL  HW2 2893   1.824   2.769   3.151
  916  SOL   OW 2894   2.516   3.491   2.510
  916  SOL  HW1 2895   2.446   3.483   2.446
  916  SOL  HW2 2896   2.569   3.564   2.478
  917  SOL   OW 2897   1.604   3.600   2.103
  917  SOL  HW1 2898   1.652   3.677   2.071
  917  SOL  HW2 2899   1.671   3.545   2.144
  918  SOL   OW 2900   0.227   3.144   0.644
  918  SOL  HW1 2901   0.285   3.221   0.641
  918  SOL  HW2 2902   0.172   3.159   0.721
  919  SOL   OW 2903   3.390   3.728   3.412
  919  SOL  HW1 2904   3.324   3.765   3.353
  919  SOL  HW2 2905   3.444   3.671   3.356
  920  SOL   OW 2906   3.505   3.602   3.984
  920  SOL  HW1 2907   3.590   3.633   3.955
  920  SOL  HW2 2908   3.466   3.561   3.907
  921  SOL   OW 2909   0.116   2.489   2.638
  921  SOL  HW1 2910   0.045   2.424   2.645
  921  SOL  HW2 2911   0.088   2.561   2.695
  922  SOL   OW 2912   2.959   3.624   0.236
  922  SOL  HW1 2913   3.018   3.691   0.271
  922  SOL  HW2 2914   3.011   3.544   0.237
  923  SOL   OW 2915   0.764   0.798   1.798
  923  SOL  HW1 2916   0.763   0.710   1.761
  923  SOL  HW2 2917   0.716   0.790   1.881
  924  SOL   OW 2918   1.724   2.797   0.878
  924  SOL  HW1 2919   1.808   2.841   0.893
  924  SOL  HW2 2920   1.712   2.740   0.954
  925  SOL   OW 2921   2.610   1.121   0.315
  925  SOL  HW1 2922   2.705   1.108   0.306
  925  SOL  HW2 2923   2.589   1.191   0.254
  926  SOL   OW 2924   2.504   1.966   0.703
  926  SOL  HW1 2925   2.525   1.929   0.789
  926  SOL  HW2 2926   2.534   2.057   0.708
  927  SOL   OW 2927   1.975   2.784   1.522
  927  SOL  HW1 2928   1.967   2.703   1.471
  927  SOL  HW2 2929   1.887   2.797   1.559
  928  SOL   OW 2930   3.498   1.769   2.539
  928  SOL  HW1 2931   3.484   1.823   2.617
  928  SOL  HW2 2932   3.444   1.691   2.554
  929  SOL   OW 2933   0.617   3.183   0.163
  929  SOL  HW1 2934   0.592   3.186   0.255
  929  SOL  HW2 2935   0.711   3.199   0.163
  930  SOL   OW 2936   0.217   3.405   3.791
  930  SOL  HW1 2937   0.229   3.310   3.795
  930  SOL  HW2 2938   0.300   3.441   3.822
  931  SOL   OW 2939   0.804   0.271   3.695
  931  SOL  HW1 2940   0.750   0.205   3.650
  931  SOL  HW2 2941   0.889   0.264   3.653
  932  SOL   OW 2942   1.358   3.148   0.160
  932  SOL  HW1 2943   1.328   3.058   0.171
  932  SOL  HW2 2944   1.298   3.184   0.094
  933  SOL   OW 2945   0.726   3.814   2.341
  933  SOL  HW1 2946   0.773   3.737   2.307
  933  SOL  HW2 2947   0.778   3.842   2.416
  934  SOL   OW 2948   1.893   2.702   3.370
  934  SOL  HW1 2949   1.962   2.656   3.323
  934  SOL  HW2 2950   1.882   2.653   3.451
  935  SOL   OW 2951   1.828   3.460   1.069
  935  SOL  HW1 2952   1.810   3.366   1.071
  935  SOL  HW2 2953   1.741   3.501   1.077
  936  SOL   OW 2954   1.621   1.155   0.045
  936  SOL  HW1 2955   1.702   1.110   0.069
  936  SOL  HW2 2956   1.571   1.162   0.126
  937  SOL   OW 2957   3.672   1.562   1.800
  937  SOL  HW1 2958   3.743   1.573   1.738
  937  SOL  HW2 2959   3.628   1.647   1.802
  938  SOL   OW 2960   0.173   1.073   1.821
  938  SOL  HW1 2961   0.118   1.029   1.756
  938  SOL  HW2 2962   0.127   1.154   1.840
  939  SOL   OW 2963   2.707   0.764   1.208
  939  SOL  HW1 2964   2.782   0.815   1.240
  939  SOL  HW2 2965   2.663   0.823   1.147
  940  SOL   OW 2966   3.252   3.129   3.098
  940  SOL  HW1 2967   3.222   3.077   3.172
  940  SOL  HW2 2968   3.290   3.065   3.038
  941  SOL   OW 2969   2.661   3.474   2.957
  941  SOL  HW1 2970   2.593   3.409   2.974
  941  SOL  HW2 2971   2.706   3.442   2.879
  942  SOL   OW 2972   0.087   3.617   1.894
  942  SOL  HW1 2973   0.084   3.695   1.837
  942  SOL  HW2 2974   0.007   3.569   1.873
  943  SOL   OW 2975   2.394   2.738   0.004
  943  SOL  HW1 2976   2.307   2.744   0.042
  943  SOL  HW2 2977   2.424   2.650   0.027
  944  SOL   OW 2978   2.699   3.648   1.590
  944  SOL  HW1 2979   2.642   3.575   1.566
  944  SOL  HW2 2980   2.732   3.681   1.506
  945  SOL   OW 2981   1.685   0.527   0.881
  945  SOL  HW1 2982   1.755   0.576   0.838
  945  SOL  HW2 2983   1.731   0.474   0.947
  946  SOL   OW 2984   3.788   1.211   0.916
  946  SOL  HW1 2985   3.749   1.277   0.973
  946  SOL  HW2 2986   3.864   1.179   0.965
  947  SOL   OW 2987   1.925   2.315   1.096
  947  SOL  HW1 2988   1.887   2.319   1.008
  947  SOL  HW2 2989   1.883   2.239   1.136
  948  SOL   OW 2990   0.331   1.157   0.450
  948  SOL  HW1 2991   0.281   1.125   0.375
  948  SOL  HW2 2992   0.423   1.142   0.426
  949  SOL   OW 2993   2.623   2.066   3.772
  949  SOL  HW1 2994   2.632   1.972   3.755
  949  SOL  HW2 2995   2.555   2.073   3.838
  950  SOL   OW 2996   3.179   2.081   1.646
  950  SOL  HW1 2997   3.216   2.168   1.656
  950  SOL  HW2 2998   3.188   2.062   1.553
  951  SOL   OW 2999   3.303   3.033   0.693
  951  SOL  HW1 3000   3.326   3.088   0.618
  951  SOL  HW2 3001   3.213   3.005   0.676
  952  SOL   OW 3002   1.079   2.729   0.945
  952  SOL  HW1 3003   1.004   2.788   0.932
  952  SOL  HW2 3004   1.134   2.744   0.868
  953  SOL   OW 3005   0.614   3.510   0.086
  953  SOL  HW1 3006   0.629   3.422   0.120
  953  SOL  HW2 3007   0.583   3.560   0.162
  954  SOL   OW 3008   0.441   1.156   1.749
  954  SOL  HW1 3009   0.499   1.120   1.816
  954  SOL  HW2 3010   0.363   1.101   1.752
  955  SOL   OW 3011   1.671   1.897   0.687
  955  SOL  HW1 3012   1.615   1.973   0.701
  955  SOL  HW2 3013   1.743   1.908   0.749
  956  SOL   OW 3014   1.141   1.285   2.887
  956  SOL  HW1 3015   1.158   1.229   2.962
  956  SOL  HW2 3016   1.127   1.224   2.814
  957  SOL   OW 3017   2.976   3.873   2.972
  957  SOL  HW1 3018   2.958   3.780   2.957
  957  SOL  HW2 3019   3.030   3.900   2.898
  958  SOL   OW 3020   0.828   3.350   2.725
  958  SOL  HW1 3021   0.827   3.292   2.649
  958  SOL  HW2 3022   0.917   3.343   2.759
  959  SOL   OW 3023   1.733   0.718   3.222
  959  SOL  HW1 3024   1.738   0.736   3.128
  959  SOL  HW2 3025   1.735   0.804   3.263
  960  SOL   OW 3026   2.860   3.003   3.088
  960  SOL  HW1 3027   2.851   2.925   3.143
  960  SOL  HW2 3028   2.899   2.971   3.007
  961  SOL   OW 3029   2.343   0.024   1.974
  961  SOL  HW1 3030   2.399   0.093   2.009
  961  SOL  HW2 3031   2.363   0.021   1.881
  962  SOL   OW 3032   2.266   2.373   0.514
  962  SOL  HW1 3033   2.227   2.288   0.532
  962  SOL  HW2 3034   2.326   2.357   0.441
  963  SOL   OW 3035   0.587   2.406   1.962
  963  SOL  HW1 3036   0.639   2.387   2.041
  963  SOL  HW2 3037   0.607   2.334   1.902
  964  SOL   OW 3038   1.169   0.119   1.892
  964  SOL  HW1 3039   1.172   0.196   1.835
  964  SOL  HW2 3040   1.148   0.154   1.978
  965  SOL   OW 3041   1.753   2.439   1.925
  965  SOL  HW1 3042   1.737   2.368   1.863
  965  SOL  HW2 3043   1.790   2.509   1.871
  966  SOL   OW 3044   1.615   1.024   2.705
  966  SOL  HW1 3045   1.558   1.087   2.661
  966  SOL  HW2 3046   1.588   0.939   2.671
  967  SOL   OW 3047   2.116   0.409   0.668
  967  SOL  HW1 3048   2.026   0.377   0.660
  967  SOL  HW2 3049   2.147   0.373   0.751
  968  SOL   OW 3050   0.169   0.035   3.578
  968  SOL  HW1 3051   0.233   0.090   3.533
  968  SOL  HW2 3052   0.216  -0.045   3.599
  969  SOL   OW 3053   0.972   0.283   2.075
  969  SOL  HW1 3054   1.025   0.335   2.015
  969  SOL  HW2 3055   0.885   0.283   2.036
  970  SOL   OW 3056   1.599   3.059   2.042
  970  SOL  HW1 3057   1.679   3.100   2.010
  970  SOL  HW2 3058   1.611   2.966   2.025
  971  SOL   OW 3059   1.949   3.521   3.002
  971  SOL  HW1 3060   1.967   3.473   3.083
  971  SOL  HW2 3061   1.870   3.571   3.021
  972  SOL   OW 3062   0.586   1.942   2.859
  972  SOL  HW1 3063   0.609   2.034   2.850
  972  SOL  HW2 3064   0.542   1.936   2.944
  973  SOL   OW 3065   2.296   1.759   2.905
  973  SOL  HW1 3066   2.205   1.776   2.929
  973  SOL  HW2 3067   2.295   1.755   2.809
  974  SOL   OW 3068   2.100   1.808   1.651
  974  SOL  HW1 3069   2.021   1.761   1.627
  974  SOL  HW2 3070   2.105   1.881   1.588
  975  SOL   OW 3071   3.169   2.388   1.347
  975  SOL  HW1 3072   3.240   2.438   1.387
  975  SOL  HW2 3073   3.127   2.449   1.288
  976  SOL   OW 3074   3.313   4.005   3.467
  976  SOL  HW1 3075   3.287   4.020   3.558
  976  SOL  HW2 3076   3.269   3.925   3.442
  977  SOL   OW 3077   3.270   3.774   2.205
  977  SOL  HW1 3078   3.328   3.826   2.261
  977  SOL  HW2 3079   3.205   3.837   2.173
  978  SOL   OW 3080   3.400   2.584   1.952
  978  SOL  HW1 3081   3.439   2.562   1.868
  978  SOL  HW2 3082   3.350   2.664   1.935
  979  SOL   OW 3083   2.682   2.328   2.426
  979  SOL  HW1 3084   2.743   2.365   2.490
  979  SOL  HW2 3085   2.680   2.392   2.355
  980  SOL   OW 3086   3.408   0.708   2.984
  980  SOL  HW1 3087   3.469   0.778   3.008
  980  SOL  HW2 3088   3.360   0.690   3.065
  981  SOL   OW 3089   1.224   1.008   0.619
  981  SOL  HW1 3090   1.310   0.974   0.597
  981  SOL  HW2 3091   1.236   1.103   0.623
  982  SOL   OW 3092   4.019   3.216   2.846
  982  SOL  HW1 3093   3.992   3.288   2.902
  982  SOL  HW2 3094   3.971   3.140   2.879
  983  SOL   OW 3095   1.470   0.628   3.945
  983  SOL  HW1 3096   1.502   0.623   4.035
  983  SOL  HW2 3097   1.448   0.721   3.933
  984  SOL   OW 3098   1.679   2.602   1.059
  984  SOL  HW1 3099   1.630   2.578   1.137
  984  SOL  HW2 3100   1.693   2.519   1.013
  985  SOL   OW 3101   2.582   0.950   2.749
  985  SOL  HW1 3102   2.620   0.863   2.758
  985  SOL  HW2 3103   2.543   0.968   2.835
  986  SOL   OW 3104   3.982   0.286   3.984
  986  SOL  HW1 3105   3.953   0.319   3.898
  986  SOL  HW2 3106   3.964   0.359   4.044
  987  SOL   OW 3107   4.030   2.521   3.403
  987  SOL  HW1 3108   4.009   2.430   3.381
  987  SOL  HW2 3109   3.990   2.573   3.334
  988  SOL   OW 3110   2.172   3.247   3.677
  988  SOL  HW1 3111   2.225   3.167   3.673
  988  SOL  HW2 3112   2.230   3.316   3.647
  989  SOL   OW 3113   1.614   0.532   3.492
  989  SOL  HW1 3114   1.605   0.625   3.514
  989  SOL  HW2 3115   1.704   0.524   3.461
  990  SOL   OW 3116   3.394   2.411   3.965
  990  SOL  HW1 3117   3.418   2.497   3.929
  990  SOL  HW2 3118   3.298   2.416   3.974
  991  SOL   OW 3119   1.978   2.495   0.787
  991  SOL  HW1 3120   2.037   2.430   0.750
  991  SOL  HW2 3121   2.035   2.565   0.818
  992  SOL   OW 3122   2.705   1.499   1.871
  992  SOL  HW1 3123   2.767   1.561   1.832
  992  SOL  HW2 3124   2.624   1.512   1.821
  993  SOL   OW 3125   3.489   2.423   0.885
  993  SOL  HW1 3126   3.508   2.458   0.972
  993  SOL  HW2 3127   3.494   2.499   0.827
  994  SOL   OW 3128   2.617   0.446   1.960
  994  SOL  HW1 3129   2.588   0.537   1.967
  994  SOL  HW2 3130   2.699   0.443   2.009
  995  SOL   OW 3131   2.349   3.258   2.358
  995  SOL  HW1 3132   2.383   3.168   2.360
  995  SOL  HW2 3133   2.255   3.247   2.345
  996  SOL   OW 3134   2.756   1.873   1.808
  996  SOL  HW1 3135   2.808   1.796   1.786
  996  SOL  HW2 3136   2.679   1.838   1.854
  997  SOL   OW 3137   0.265   0.194   2.527
  997  SOL  HW1 3138   0.232   0.272   2.483
  997  SOL  HW2 3139   0.311   0.145   2.458
  998  SOL   OW 3140   1.956   3.741   1.035
  998  SOL  HW1 3141   1.895   3.807   1.003
  998  SOL  HW2 3142   1.917   3.658   1.009
  999  SOL   OW 3143   3.967   0.022   2.560
  999  SOL  HW1 3144   3.888   0.034   2.612
  999  SOL  HW2 3145   4.034  -0.004   2.623
 1000  SOL   OW 3146   0.371   3.778   0.979
 1000  SOL  HW1 3147   0.280   3.799   0.999
 1000  SOL  HW2 3148   0.367   3.688   0.946
 1001  SOL   OW 3149   4.007   4.040   1.826
 1001  SOL  HW1 3150   4.082   3.993   1.861
 1001  SOL  HW2 3151   3.941   4.036   1.895
 1002  SOL   OW 3152   3.181   0.686   0.568
 1002  SOL  HW1 3153   3.270   0.655   0.551
 1002  SOL  HW2 3154   3.191   0.778   0.592
 1003  SOL   OW 3155   3.870   2.727   1.403
 1003  SOL  HW1 3156   3.849   2.660   1.337
 1003  SOL  HW2 3157   3.928   2.787   1.359
 1004  SOL   OW 3158   1.616   0.122   3.719
 1004  SOL  HW1 3159   1.680   0.061   3.681
 1004  SOL  HW2 3160   1.669   0.177   3.777
 1005  SOL   OW 3161   2.061   3.868   2.891
 1005  SOL  HW1 3162   2.106   3.923   2.827
 1005  SOL  HW2 3163   2.092   3.779   2.871
 1006  SOL   OW 3164   3.676   2.033   1.175
 1006  SOL  HW1 3165   3.667   2.127   1.188
 1006  SOL  HW2 3166   3.672   2.020   1.080
 1007  SOL   OW 3167   1.283   2.277   3.459
 1007  SOL  HW1 3168   1.201   2.325   3.469
 1007  SOL  HW2 3169   1.349   2.337   3.494
 1008  SOL   OW 3170   3.744   2.217   3.483
 1008  SOL  HW1 3171   3.670   2.256   3.531
 1008  SOL  HW2 3172   3.784   2.157   3.546
 1009  SOL   OW 3173   2.428   3.835   3.469
 1009  SOL  HW1 3174   2.487   3.894   3.516
 1009  SOL  HW2 3175   2.340   3.868   3.490
 1010  SOL   OW 3176   1.490   1.873   3.984
 1010  SOL  HW1 3177   1.397   1.849   3.986
 1010  SOL  HW2 3178   1.502   1.918   3.901
 1011  SOL   OW 3179   0.273   0.165   0.802
 1011  SOL  HW1 3180   0.335   0.129   0.738
 1011  SOL  HW2 3181   0.226   0.233   0.754
 1012  SOL   OW 3182   2.192   3.158   0.565
 1012  SOL  HW1 3183   2.239   3.079   0.538
 1012  SOL  HW2 3184   2.160   3.196   0.483
 1013  SOL   OW 3185   1.805   1.828   3.758
 1013  SOL  HW1 3186   1.838   1.860   3.674
 1013  SOL  HW2 3187   1.882   1.823   3.814
 1014  SOL   OW 3188   2.397   1.351   2.991
 1014  SOL  HW1 3189   2.324   1.378   2.937
 1014  SOL  HW2 3190   2.382   1.258   3.007
 1015  SOL   OW 3191   0.642   3.928   3.549
 1015  SOL  HW1 3192   0.599   3.866   3.490
 1015  SOL  HW2 3193   0.698   3.981   3.493
 1016  SOL   OW 3194   3.410   0.613   0.739
 1016  SOL  HW1 3195   3.389   0.701   0.709
 1016  SOL  HW2 3196   3.435   0.624   0.830
 1017  SOL   OW 3197   2.286   1.584   3.192
 1017  SOL  HW1 3198   2.277   1.626   3.106
 1017  SOL  HW2 3199   2.200   1.544   3.207
 1018  SOL   OW 3200   0.529   2.753   1.924
 1018  SOL  HW1 3201   0.466   2.736   1.854
 1018  SOL  HW2 3202   0.484   2.725   2.004
 1019  SOL   OW 3203   1.903   1.656   1.564
 1019  SOL  HW1 3204   1.853   1.574   1.562
 1019  SOL  HW2 3205   1.840   1.722   1.536
 1020  SOL   OW 3206   2.953   3.012   2.822
 1020  SOL  HW1 3207   3.020   3.058   2.772
 1020  SOL  HW2 3208   2.872   3.057   2.801
 1021  SOL   OW 3209   1.744   3.219   3.088
 1021  SOL  HW1 3210   1.689   3.143   3.070
 1021  SOL  HW2 3211   1.736   3.274   3.010
 1022  SOL   OW 3212   1.507   0.268   4.042
 1022  SOL  HW1 3213   1.577   0.296   4.102
 1022  SOL  HW2 3214   1.546   0.276   3.955
 1023  SOL   OW 3215   3.090   3.031   0.248
 1023  SOL  HW1 3216   3.036   3.011   0.172
 1023  SOL  HW2 3217   3.135   2.949   0.267
 1024  SOL   OW 3218   1.836   1.676   0.984
 1024  SOL  HW1 3219   1.896   1.736   0.940
 1024  SOL  HW2 3220   1.752   1.722   0.984
 1025  SOL   OW 3221   3.231   3.718   3.113
 1025  SOL  HW1 3222   3.183   3.674   3.183
 1025  SOL  HW2 3223   3.200   3.808   3.116
 1026  SOL   OW 3224   2.996   2.213   1.001
 1026  SOL  HW1 3225   3.046   2.262   0.935
 1026  SOL  HW2 3226   3.029   2.123   0.994
 1027  SOL   OW 3227   4.002   1.729   3.830
 1027  SOL  HW1 3228   4.040   1.643   3.851
 1027  SOL  HW2 3229   3.910   1.720   3.853
 1028  SOL   OW 3230   1.251   2.853   1.173
 1028  SOL  HW1 3231   1.285   2.917   1.110
 1028  SOL  HW2 3232   1.175   2.814   1.129
 1029  SOL   OW 3233   0.580   3.455   2.479
 1029  SOL  HW1 3234   0.515   3.495   2.421
 1029  SOL  HW2 3235   0.611   3.526   2.534
 1030  SOL   OW 3236   1.869   2.006   2.929
 1030  SOL  HW1 3237   1.779   2.032   2.907
 1030  SOL  HW2 3238   1.910   2.087   2.959
 1031  SOL   OW 3239   3.520   1.454   2.562
 1031  SOL  HW1 3240   3.556   1.510   2.631
 1031  SOL  HW2 3241   3.425   1.463   2.571
 1032  SOL   OW 3242   3.512   0.133   2.101
 1032  SOL  HW1 3243   3.556   0.050   2.121
 1032  SOL  HW2 3244   3.520   0.184   2.182
 1033  SOL   OW 3245   3.197   3.925   2.793
 1033  SOL  HW1 3246   3.287   3.944   2.821
 1033  SOL  HW2 3247   3.208   3.863   2.720
 1034  SOL   OW 3248   0.194   2.069   1.998
 1034  SOL  HW1 3249   0.109   2.113   1.993
 1034  SOL  HW2 3250   0.258   2.140   2.004
 1035  SOL   OW 3251   1.397   0.160   2.494
 1035  SOL  HW1 3252   1.472   0.103   2.477
 1035  SOL  HW2 3253   1.427   0.247   2.469
 1036  SOL   OW 3254   1.267   2.896   0.203
 1036  SOL  HW1 3255   1.212   2.862   0.274
 1036  SOL  HW2 3256   1.295   2.818   0.155
 1037  SOL   OW 3257   3.505   1.091   0.854
 1037  SOL  HW1 3258   3.441   1.036   0.900
 1037  SOL  HW2 3259   3.512   1.169   0.908
 1038  SOL   OW 3260   2.872   2.026   1.396
 1038  SOL  HW1 3261   2.890   1.933   1.386
 1038  SOL  HW2 3262   2.943   2.070   1.349
 1039  SOL   OW 3263   2.431   2.334   0.301
 1039  SOL  HW1 3264   2.357   2.333   0.240
 1039  SOL  HW2 3265   2.506   2.309   0.247
 1040  SOL   OW 3266   0.662   3.212   0.851
 1040  SOL  HW1 3267   0.575   3.189   0.884
 1040  SOL  HW2 3268   0.687   3.138   0.796
 1041  SOL   OW 3269   2.884   0.845   0.375
 1041  SOL  HW1 3270   2.790   0.854   0.391
 1041  SOL  HW2 3271   2.901   0.751   0.382
 1042  SOL   OW 3272   2.814   2.792   3.261
 1042  SOL  HW1 3273   2.795   2.699   3.270
 1042  SOL  HW2 3274   2.891   2.807   3.316
 1043  SOL   OW 3275   2.946   0.569   0.489
 1043  SOL  HW1 3276   2.880   0.604   0.549
 1043  SOL  HW2 3277   3.028   0.608   0.517
 1044  SOL   OW 3278   1.531   1.926   0.390
 1044  SOL  HW1 3279   1.592   1.904   0.460
 1044  SOL  HW2 3280   1.581   1.980   0.330
 1045  SOL   OW 3281   3.176   1.864   0.823
 1045  SOL  HW1 3282   3.124   1.815   0.759
 1045  SOL  HW2 3283   3.196   1.946   0.779
 1046  SOL   OW 3284   0.484   3.083   1.506
 1046  SOL  HW1 3285   0.469   2.994   1.540
 1046  SOL  HW2 3286   0.452   3.079   1.416
 1047  SOL   OW 3287   1.289   0.491   0.260
 1047  SOL  HW1 3288   1.232   0.447   0.196
 1047  SOL  HW2 3289   1.242   0.571   0.283
 1048  SOL   OW 3290   3.963   2.972   3.257
 1048  SOL  HW1 3291   3.903   2.918   3.309
 1048  SOL  HW2 3292   3.971   3.053   3.307
 1049  SOL   OW 3293   3.956   1.792   0.536
 1049  SOL  HW1 3294   3.951   1.714   0.479
 1049  SOL  HW2 3295   3.888   1.778   0.602
 1050  SOL   OW 3296   2.850   0.312   0.174
 1050  SOL  HW1 3297   2.909   0.373   0.217
 1050  SOL  HW2 3298   2.898   0.283   0.096
 1051  SOL   OW 3299   3.885   3.493   2.239
 1051  SOL  HW1 3300   3.954   3.472   2.303
 1051  SOL  HW2 3301   3.869   3.410   2.194
 1052  SOL   OW 3302   3.030   0.192   3.686
 1052  SOL  HW1 3303   3.053   0.275   3.644
 1052  SOL  HW2 3304   2.945   0.168   3.647
 1053  SOL   OW 3305   1.646   3.976   1.278
 1053  SOL  HW1 3306   1.562   3.930   1.271
 1053  SOL  HW2 3307   1.662   4.010   1.190
 1054  SOL   OW 3308   3.284   1.657   0.965
 1054  SOL  HW1 3309   3.281   1.744   0.926
 1054  SOL  HW2 3310   3.197   1.621   0.951
 1055  SOL   OW 3311   2.859   1.080   0.880
 1055  SOL  HW1 3312   2.848   1.128   0.798
 1055  SOL  HW2 3313   2.835   0.990   0.859
 1056  SOL   OW 3314   3.474   0.062   3.764
 1056  SOL  HW1 3315   3.443   0.004   3.694
 1056  SOL  HW2 3316   3.394   0.085   3.813
 1057  SOL   OW 3317   3.275   3.841   1.126
 1057  SOL  HW1 3318   3.231   3.765   1.167
 1057  SOL  HW2 3319   3.322   3.804   1.052
 1058  SOL   OW 3320   1.879   0.028   0.717
 1058  SOL  HW1 3321   1.937  -0.007   0.786
 1058  SOL  HW2 3322   1.794  -0.014   0.734
 1059  SOL   OW 3323   1.937   3.717   3.849
 1059  SOL  HW1 3324   1.934   3.634   3.802
 1059  SOL  HW2 3325   2.027   3.748   3.836
 1060  SOL   OW 3326   2.020   0.746   0.605
 1060  SOL  HW1 3327   1.998   0.665   0.559
 1060  SOL  HW2 3328   1.974   0.815   0.556
 1061  SOL   OW 3329   3.992   2.149   1.711
 1061  SOL  HW1 3330   3.929   2.122   1.646
 1061  SOL  HW2 3331   3.964   2.106   1.792
 1062  SOL   OW 3332   2.726   1.624   1.429
 1062  SOL  HW1 3333   2.685   1.653   1.510
 1062  SOL  HW2 3334   2.810   1.670   1.427
 1063  SOL   OW 3335   2.687   0.448   0.456
 1063  SOL  HW1 3336   2.737   0.473   0.378
 1063  SOL  HW2 3337   2.641   0.528   0.482
 1064  SOL   OW 3338   3.499   1.773   0.783
 1064  SOL  HW1 3339   3.483   1.839   0.851
 1064  SOL  HW2 3340   3.474   1.817   0.701
 1065  SOL   OW 3341   2.974   2.989   1.249
 1065  SOL  HW1 3342   2.934   3.064   1.294
 1065  SOL  HW2 3343   3.065   2.991   1.276
 1066  SOL   OW 3344   1.464   3.088   0.818
 1066  SOL  HW1 3345   1.436   3.055   0.903
 1066  SOL  HW2 3346   1.558   3.067   0.815
 1067  SOL   OW 3347   2.985   3.221   1.422
 1067  SOL  HW1 3348   2.896   3.188   1.439
 1067  SOL  HW2 3349   3.004   3.279   1.495
 1068  SOL   OW 3350   3.344   0.865   0.711
 1068  SOL  HW1 3351   3.417   0.911   0.671
 1068  SOL  HW2 3352   3.278   0.933   0.726
 1069  SOL   OW 3353   2.611   0.051   3.157
 1069  SOL  HW1 3354   2.621   0.140   3.190
 1069  SOL  HW2 3355   2.639   0.055   3.066
 1070  SOL   OW 3356   2.537   0.178   0.156
 1070  SOL  HW1 3357   2.595   0.112   0.119
 1070  SOL  HW2 3358   2.574   0.199   0.241
 1071  SOL   OW 3359   1.038   2.755   0.422
 1071  SOL  HW1 3360   0.955   2.709   0.417
 1071  SOL  HW2 3361   1.100   2.690   0.456
 1072  SOL   OW 3362   3.096   3.846   0.854
 1072  SOL  HW1 3363   3.073   3.816   0.766
 1072  SOL  HW2 3364   3.073   3.938   0.854
 1073  SOL   OW 3365   3.682   1.590   2.100
 1073  SOL  HW1 3366   3.620   1.584   2.027
 1073  SOL  HW2 3367   3.654   1.667   2.149
 1074  SOL   OW 3368   1.938   1.310   1.706
 1074  SOL  HW1 3369   1.870   1.310   1.639
 1074  SOL  HW2 3370   1.907   1.245   1.770
 1075  SOL   OW 3371   3.603   3.879   1.890
 1075  SOL  HW1 3372   3.670   3.919   1.946
 1075  SOL  HW2 3373   3.549   3.953   1.862
 1076  SOL   OW 3374   2.267   2.634   1.693
 1076  SOL  HW1 3375   2.192   2.667   1.742
 1076  SOL  HW2 3376   2.230   2.603   1.610
 1077  SOL   OW 3377   3.643   2.978   1.981
 1077  SOL  HW1 3378   3.617   2.956   1.891
 1077  SOL  HW2 3379   3.709   2.912   2.004
 1078  SOL   OW 3380   0.014   3.806   3.744
 1078  SOL  HW1 3381   0.078   3.750   3.701
 1078  SOL  HW2 3382   0.058   3.834   3.824
 1079  SOL   OW 3383   2.043   3.468   2.445
 1079  SOL  HW1 3384   1.951   3.465   2.470
 1079  SOL  HW2 3385   2.070   3.376   2.440
 1080  SOL   OW 3386   0.579   1.337   2.374
 1080  SOL  HW1 3387   0.558   1.252   2.335
 1080  SOL  HW2 3388   0.493   1.377   2.390
 1081  SOL   OW 3389   0.200   0.807   0.475
 1081  SOL  HW1 3390   0.284   0.761   0.486
 1081  SOL  HW2 3391   0.212   0.861   0.397
 1082  SOL   OW 3392   3.422   1.090   2.416
 1082  SOL  HW1 3393   3.334   1.122   2.394
 1082  SOL  HW2 3394   3.411   1.046   2.500
 1083  SOL   OW 3395   3.389   2.951   0.263
 1083  SOL  HW1 3396   3.452   2.979   0.197
 1083  SOL  HW2 3397   3.372   2.859   0.242
 1084  SOL   OW 3398   2.801   2.397   3.929
 1084  SOL  HW1 3399   2.840   2.309   3.922
 1084  SOL  HW2 3400   2.797   2.428   3.838
 1085  SOL   OW 3401  -0.026   0.542   3.451
 1085  SOL  HW1 3402   0.065   0.531   3.423
 1085  SOL  HW2 3403  -0.039   0.637   3.452
 1086  SOL   OW 3404   1.337   3.291   1.117
 1086  SOL  HW1 3405   1.326   3.371   1.067
 1086  SOL  HW2 3406   1.342   3.319   1.208
 1087  SOL   OW 3407   3.623   2.021   3.327
 1087  SOL  HW1 3408   3.674   2.093   3.365
 1087  SOL  HW2 3409   3.532   2.050   3.332
 1088  SOL   OW 3410   0.140   1.173   2.444
 1088  SOL  HW1 3411   0.084   1.240   2.405
 1088  SOL  HW2 3412   0.086   1.093   2.442
 1089  SOL   OW 3413   0.801   1.453   0.732
 1089  SOL  HW1 3414   0.870   1.386   0.735
 1089  SOL  HW2 3415   0.729   1.411   0.684
 1090  SOL   OW 3416   0.851   3.060   1.534
 1090  SOL  HW1 3417   0.774   3.005   1.515
 1090  SOL  HW2 3418   0.885   3.083   1.448
 1091  SOL   OW 3419   1.376   3.189   2.126
 1091  SOL  HW1 3420   1.446   3.156   2.071
 1091  SOL  HW2 3421   1.331   3.111   2.159
 1092  SOL   OW 3422   2.006   1.211   2.337
 1092  SOL  HW1 3423   1.936   1.276   2.322
 1092  SOL  HW2 3424   1.964   1.127   2.323
 1093  SOL   OW 3425   2.752   1.680   0.837
 1093  SOL  HW1 3426   2.718   1.637   0.915
 1093  SOL  HW2 3427   2.766   1.609   0.775
 1094  SOL   OW 3428   2.549   2.998   3.193
 1094  SOL  HW1 3429   2.612   2.929   3.215
 1094  SOL  HW2 3430   2.599   3.079   3.197
 1095  SOL   OW 3431   2.419   2.102   2.657
 1095  SOL  HW1 3432   2.486   2.083   2.591
 1095  SOL  HW2 3433   2.347   2.044   2.635
 1096  SOL   OW 3434   2.420   0.195   2.554
 1096  SOL  HW1 3435   2.369   0.126   2.512
 1096  SOL  HW2 3436   2.357   0.239   2.611
 1097  SOL   OW 3437   1.964   1.823   2.495
 1097  SOL  HW1 3438   1.988   1.765   2.567
 1097  SOL  HW2 3439   1.880   1.860   2.521
 1098  SOL   OW 3440   2.660   1.023   3.495
 1098  SOL  HW1 3441   2.604   0.958   3.452
 1098  SOL  HW2 3442   2.684   1.083   3.425
 1099  SOL   OW 3443   2.256   0.337   3.325
 1099  SOL  HW1 3444   2.268   0.247   3.295
 1099  SOL  HW2 3445   2.166   0.340   3.358
 1100  SOL   OW 3446   0.106   3.019   3.846
 1100  SOL  HW1 3447   0.184   2.964   3.853
 1100  SOL  HW2 3448   0.119   3.069   3.766
 1101  SOL   OW 3449   0.950   2.592   3.553
 1101  SOL  HW1 3450   1.010   2.558   3.620
 1101  SOL  HW2 3451   0.982   2.680   3.535
 1102  SOL   OW 3452   2.592   1.061   3.006
 1102  SOL  HW1 3453   2.544   1.131   2.962
 1102  SOL  HW2 3454   2.525   1.012   3.054
 1103  SOL   OW 3455   2.799   2.852   1.075
 1103  SOL  HW1 3456   2.840   2.929   1.114
 1103  SOL  HW2 3457   2.705   2.866   1.087
 1104  SOL   OW 3458   1.355   2.061   2.812
 1104  SOL  HW1 3459   1.372   1.981   2.862
 1104  SOL  HW2 3460   1.265   2.053   2.783
 1105  SOL   OW 3461   2.451   2.100   3.971
 1105  SOL  HW1 3462   2.418   2.017   4.006
 1105  SOL  HW2 3463   2.488   2.145   4.047
 1106  SOL   OW 3464   0.736   1.992   1.379
 1106  SOL  HW1 3465   0.659   1.989   1.321
 1106  SOL  HW2 3466   0.701   1.976   1.466
 1107  SOL   OW 3467   0.726   2.853   3.040
 1107  SOL  HW1 3468   0.678   2.932   3.065
 1107  SOL  HW2 3469   0.786   2.882   2.971
 1108  SOL   OW 3470  -0.028   2.622   3.705
 1108  SOL  HW1 3471  -0.031   2.618   3.800
 1108  SOL  HW2 3472   0.064   2.605   3.683
 1109  SOL   OW 3473   2.866   2.302   2.144
 1109  SOL  HW1 3474   2.880   2.366   2.215
 1109  SOL  HW2 3475   2.812   2.349   2.081
 1110  SOL   OW 3476   2.712   0.595   2.552
 1110  SOL  HW1 3477   2.617   0.593   2.558
 1110  SOL  HW2 3478   2.730   0.616   2.460
 1111  SOL   OW 3479   0.256   0.831   1.488
 1111  SOL  HW1 3480   0.168   0.860   1.512
 1111  SOL  HW2 3481   0.246   0.739   1.465
 1112  SOL   OW 3482   2.239   1.264   1.094
 1112  SOL  HW1 3483   2.233   1.168   1.085
 1112  SOL  HW2 3484   2.318   1.278   1.145
 1113  SOL   OW 3485   2.378   0.716   2.911
 1113  SOL  HW1 3486   2.397   0.671   2.829
 1113  SOL  HW2 3487   2.296   0.763   2.895
 1114  SOL   OW 3488   3.587   3.278   0.608
 1114  SOL  HW1 3489   3.665   3.299   0.659
 1114  SOL  HW2 3490   3.622   3.258   0.521
 1115  SOL   OW 3491   2.072   1.596   1.980
 1115  SOL  HW1 3492   2.072   1.532   2.051
 1115  SOL  HW2 3493   2.133   1.560   1.915
 1116  SOL   OW 3494   1.594   0.670   1.595
 1116  SOL  HW1 3495   1.630   0.748   1.552
 1116  SOL  HW2 3496   1.601   0.601   1.529
 1117  SOL   OW 3497   3.591   0.818   3.618
 1117  SOL  HW1 3498   3.679   0.792   3.592
 1117  SOL  HW2 3499   3.572   0.895   3.564
 1118  SOL   OW 3500   0.470   1.014   3.303
 1118  SOL  HW1 3501   0.456   1.089   3.360
 1118  SOL  HW2 3502   0.386   0.968   3.303
 1119  SOL   OW 3503   3.560   3.052   0.795
 1119  SOL  HW1 3504   3.562   3.142   0.762
 1119  SOL  HW2 3505   3.473   3.019   0.772
 1120  SOL   OW 3506   0.197   1.832   3.466
 1120  SOL  HW1 3507   0.197   1.790   3.380
 1120  SOL  HW2 3508   0.202   1.925   3.448
 1121  SOL   OW 3509   3.933   3.758   0.233
 1121  SOL  HW1 3510   3.998   3.824   0.255
 1121  SOL  HW2 3511   3.902   3.783   0.145
 1122  SOL   OW 3512   1.979   0.979   2.599
 1122  SOL  HW1 3513   2.040   0.932   2.543
 1122  SOL  HW2 3514   1.892   0.951   2.569
 1123  SOL   OW 3515   1.842   2.083   1.478
 1123  SOL  HW1 3516   1.909   2.150   1.463
 1123  SOL  HW2 3517   1.890   2.009   1.515
 1124  SOL   OW 3518   0.820   3.927   0.028
 1124  SOL  HW1 3519   0.897   3.871   0.016
 1124  SOL  HW2 3520   0.750   3.881  -0.018
 1125  SOL   OW 3521   0.633   2.148   1.884
 1125  SOL  HW1 3522   0.684   2.100   1.820
 1125  SOL  HW2 3523   0.606   2.082   1.948
 1126  SOL   OW 3524   3.881   2.982   3.763
 1126  SOL  HW1 3525   3.930   2.989   3.845
 1126  SOL  HW2 3526   3.791   2.965   3.792
 1127  SOL   OW 3527   1.239   1.892   0.621
 1127  SOL  HW1 3528   1.306   1.830   0.592
 1127  SOL  HW2 3529   1.160   1.865   0.575
 1128  SOL   OW 3530   3.658   3.188   0.327
 1128  SOL  HW1 3531   3.588   3.247   0.299
 1128  SOL  HW2 3532   3.702   3.164   0.245
 1129  SOL   OW 3533   2.734   0.636   2.256
 1129  SOL  HW1 3534   2.657   0.647   2.313
 1129  SOL  HW2 3535   2.720   0.551   2.214
 1130  SOL   OW 3536   2.517   1.737   0.573
 1130  SOL  HW1 3537   2.499   1.826   0.603
 1130  SOL  HW2 3538   2.602   1.742   0.530
 1131  SOL   OW 3539   2.388   0.697   3.893
 1131  SOL  HW1 3540   2.425   0.631   3.951
 1131  SOL  HW2 3541   2.374   0.651   3.810
 1132  SOL   OW 3542   2.561   2.141   3.507
 1132  SOL  HW1 3543   2.581   2.122   3.598
 1132  SOL  HW2 3544   2.530   2.231   3.506
 1133  SOL   OW 3545   3.425   1.264   0.106
 1133  SOL  HW1 3546   3.421   1.251   0.011
 1133  SOL  HW2 3547   3.492   1.202   0.136
 1134  SOL   OW 3548   0.169   2.483   2.120
 1134  SOL  HW1 3549   0.250   2.523   2.151
 1134  SOL  HW2 3550   0.188   2.389   2.118
 1135  SOL   OW 3551   0.163   3.478   1.121
 1135  SOL  HW1 3552   0.113   3.456   1.199
 1135  SOL  HW2 3553   0.160   3.573   1.115
 1136  SOL   OW 3554   0.483   0.489   2.347
 1136  SOL  HW1 3555   0.490   0.564   2.406
 1136  SOL  HW2 3556   0.563   0.493   2.293
 1137  SOL   OW 3557   1.932   3.424   0.688
 1137  SOL  HW1 3558   1.915   3.431   0.594
 1137  SOL  HW2 3559   1.846   3.409   0.727
 1138  SOL   OW 3560   2.304   0.653   1.217
 1138  SOL  HW1 3561   2.270   0.721   1.275
 1138  SOL  HW2 3562   2.387   0.627   1.255
 1139  SOL   OW 3563   3.858   3.260   3.704
 1139  SOL  HW1 3564   3.916   3.324   3.662
 1139  SOL  HW2 3565   3.908   3.179   3.704
 1140  SOL   OW 3566   2.334   3.576   1.962
 1140  SOL  HW1 3567   2.244   3.573   1.995
 1140  SOL  HW2 3568   2.363   3.665   1.979
 1141  SOL   OW 3569   3.655   3.287   2.303
 1141  SOL  HW1 3570   3.739   3.270   2.260
 1141  SOL  HW2 3571   3.621   3.365   2.260
 1142  SOL   OW 3572   1.616   1.677   2.244
 1142  SOL  HW1 3573   1.584   1.755   2.291
 1142  SOL  HW2 3574   1.549   1.611   2.262
 1143  SOL   OW 3575   0.388   0.289   1.053
 1143  SOL  HW1 3576   0.388   0.213   0.995
 1143  SOL  HW2 3577   0.321   0.346   1.017
 1144  SOL   OW 3578   3.864   3.679   3.180
 1144  SOL  HW1 3579   3.825   3.595   3.160
 1144  SOL  HW2 3580   3.916   3.664   3.259
 1145  SOL   OW 3581   1.988   3.596   0.098
 1145  SOL  HW1 3582   1.937   3.584   0.018
 1145  SOL  HW2 3583   1.922   3.605   0.167
 1146  SOL   OW 3584   3.749   3.909   1.445
 1146  SOL  HW1 3585   3.688   3.859   1.498
 1146  SOL  HW2 3586   3.784   3.975   1.505
 1147  SOL   OW 3587   2.961   0.579   1.235
 1147  SOL  HW1 3588   3.035   0.630   1.267
 1147  SOL  HW2 3589   2.980   0.565   1.142
 1148  SOL   OW 3590   0.303   0.572   1.650
 1148  SOL  HW1 3591   0.275   0.558   1.560
 1148  SOL  HW2 3592   0.299   0.486   1.691
 1149  SOL   OW 3593   1.095   2.581   0.181
 1149  SOL  HW1 3594   1.081   2.491   0.152
 1149  SOL  HW2 3595   1.094   2.633   0.100
 1150  SOL   OW 3596   0.532   4.053   1.658
 1150  SOL  HW1 3597   0.590   3.985   1.623
 1150  SOL  HW2 3598   0.473   4.074   1.585
 1151  SOL   OW 3599   1.229   3.979   2.408
 1151  SOL  HW1 3600   1.304   4.038   2.401
 1151  SOL  HW2 3601   1.156   4.029   2.371
 1152  SOL   OW 3602   1.417   0.909   3.253
 1152  SOL  HW1 3603   1.326   0.926   3.277
 1152  SOL  HW2 3604   1.438   0.826   3.296
 1153  SOL   OW 3605   2.152   0.757   0.989
 1153  SOL  HW1 3606   2.199   0.757   0.905
 1153  SOL  HW2 3607   2.211   0.710   1.049
 1154  SOL   OW 3608   0.709   0.369   2.647
 1154  SOL  HW1 3609   0.781   0.306   2.641
 1154  SOL  HW2 3610   0.630   0.315   2.640
 1155  SOL   OW 3611   2.122   3.858   2.261
 1155  SOL  HW1 3612   2.190   3.794   2.244
 1155  SOL  HW2 3613   2.163   3.922   2.319
 1156  SOL   OW 3614   3.287   0.540   0.212
 1156  SOL  HW1 3615   3.276   0.623   0.167
 1156  SOL  HW2 3616   3.341   0.561   0.288
 1157  SOL   OW 3617   2.689   3.080   3.827
 1157  SOL  HW1 3618   2.614   3.056   3.882
 1157  SOL  HW2 3619   2.745   3.132   3.884
 1158  SOL   OW 3620   1.766   0.077   3.348
 1158  SOL  HW1 3621   1.769   0.120   3.434
 1158  SOL  HW2 3622   1.830   0.125   3.295
 1159  SOL   OW 3623   2.064   0.358   1.415
 1159  SOL  HW1 3624   2.146   0.369   1.464
 1159  SOL  HW2 3625   2.090   0.367   1.323
 1160  SOL   OW 3626   3.874   3.121   1.820
 1160  SOL  HW1 3627   3.864   3.102   1.727
 1160  SOL  HW2 3628   3.871   3.035   1.863
 1161  SOL   OW 3629   1.210   2.713   3.984
 1161  SOL  HW1 3630   1.173   2.784   3.931
 1161  SOL  HW2 3631   1.305   2.730   3.982
 1162  SOL   OW 3632   3.802   2.810   0.064
 1162  SOL  HW1 3633   3.798   2.864   0.143
 1162  SOL  HW2 3634   3.882   2.758   0.074
 1163  SOL   OW 3635   1.963   1.745   0.517
 1163  SOL  HW1 3636   2.044   1.701   0.491
 1163  SOL  HW2 3637   1.968   1.750   0.613
 1164  SOL   OW 3638   1.622   1.386   2.900
 1164  SOL  HW1 3639   1.616   1.310   2.958
 1164  SOL  HW2 3640   1.599   1.351   2.814
 1165  SOL   OW 3641   3.484   1.069   3.228
 1165  SOL  HW1 3642   3.521   1.048   3.142
 1165  SOL  HW2 3643   3.390   1.065   3.216
 1166  SOL   OW 3644   1.450   3.845   3.533
 1166  SOL  HW1 3645   1.507   3.881   3.465
 1166  SOL  HW2 3646   1.502   3.777   3.575
 1167  SOL   OW 3647   2.299   1.148   1.463
 1167  SOL  HW1 3648   2.353   1.215   1.504
 1167  SOL  HW2 3649   2.214   1.191   1.450
 1168  SOL   OW 3650   2.828   1.583   3.862
 1168  SOL  HW1 3651   2.916   1.550   3.877
 1168  SOL  HW2 3652   2.770   1.515   3.898
 1169  SOL   OW 3653   1.512   3.930   1.540
 1169  SOL  HW1 3654   1.433   3.884   1.515
 1169  SOL  HW2 3655   1.582   3.889   1.489
 1170  SOL   OW 3656   3.882   1.967   0.093
 1170  SOL  HW1 3657   3.885   1.973  -0.002
 1170  SOL  HW2 3658   3.970   1.989   0.121
 1171  SOL   OW 3659   0.340   1.475   3.705
 1171  SOL  HW1 3660   0.346   1.456   3.798
 1171  SOL  HW2 3661   0.245   1.475   3.687
 1172  SOL   OW 3662   2.889   2.781   0.405
 1172  SOL  HW1 3663   2.856   2.871   0.407
 1172  SOL  HW2 3664   2.973   2.787   0.359
 1173  SOL   OW 3665   2.429   3.119   1.194
 1173  SOL  HW1 3666   2.460   3.040   1.149
 1173  SOL  HW2 3667   2.361   3.154   1.137
 1174  SOL   OW 3668   1.059   1.642   2.357
 1174  SOL  HW1 3669   1.035   1.561   2.402
 1174  SOL  HW2 3670   0.992   1.654   2.290
 1175  SOL   OW 3671   1.429   2.185   3.906
 1175  SOL  HW1 3672   1.473   2.269   3.919
 1175  SOL  HW2 3673   1.494   2.131   3.860
 1176  SOL   OW 3674   3.294   2.355   1.656
 1176  SOL  HW1 3675   3.356   2.428   1.662
 1176  SOL  HW2 3676   3.209   2.394   1.677
 1177  SOL   OW 3677   1.642   2.181   0.193
 1177  SOL  HW1 3678   1.635   2.228   0.110
 1177  SOL  HW2 3679   1.728   2.205   0.226
 1178  SOL   OW 3680   3.944   2.933   2.018
 1178  SOL  HW1 3681   3.935   2.848   1.975
 1178  SOL  HW2 3682   4.010   2.918   2.086
 1179  SOL   OW 3683   3.554   3.063   2.362
 1179  SOL  HW1 3684   3.579   3.143   2.316
 1179  SOL  HW2 3685   3.509   3.094   2.441
 1180  SOL   OW 3686   2.825   3.635   3.858
 1180  SOL  HW1 3687   2.845   3.554   3.905
 1180  SOL  HW2 3688   2.908   3.685   3.859
 1181  SOL   OW 3689   0.574   3.934   2.710
 1181  SOL  HW1 3690   0.567   4.012   2.655
 1181  SOL  HW2 3691   0.494   3.935   2.763
 1182  SOL   OW 3692   3.298   1.039   1.575
 1182  SOL  HW1 3693   3.219   0.987   1.586
 1182  SOL  HW2 3694   3.280   1.120   1.623
 1183  SOL   OW 3695   0.034   1.849   3.089
 1183  SOL  HW1 3696  -0.019   1.898   3.152
 1183  SOL  HW2 3697   0.076   1.781   3.141
 1184  SOL   OW 3698   0.321   1.361   0.665
 1184  SOL  HW1 3699   0.267   1.431   0.702
 1184  SOL  HW2 3700   0.270   1.327   0.592
 1185  SOL   OW 3701   1.076   4.046   3.892
 1185  SOL  HW1 3702   1.133   4.076   3.821
 1185  SOL  HW2 3703   1.076   3.950   3.883
 1186  SOL   OW 3704   3.240   3.016   3.995
 1186  SOL  HW1 3705   3.268   2.961   3.922
 1186  SOL  HW2 3706   3.322   3.047   4.034
 1187  SOL   OW 3707   0.035   1.310   2.933
 1187  SOL  HW1 3708  -0.056   1.339   2.937
 1187  SOL  HW2 3709   0.039   1.254   2.856
 1188  SOL   OW 3710   2.177   1.497   1.403
 1188  SOL  HW1 3711   2.218   1.520   1.487
 1188  SOL  HW2 3712   2.237   1.529   1.337
 1189  SOL   OW 3713   2.148   0.050   2.702
 1189  SOL  HW1 3714   2.197   0.130   2.684
 1189  SOL  HW2 3715   2.095   0.036   2.624
 1190  SOL   OW 3716   2.372   1.021   2.281
 1190  SOL  HW1 3717   2.401   1.112   2.269
 1190  SOL  HW2 3718   2.277   1.024   2.267
 1191  SOL   OW 3719   3.985   2.593   0.645
 1191  SOL  HW1 3720   3.950   2.509   0.676
 1191  SOL  HW2 3721   4.079   2.588   0.663
 1192  SOL   OW 3722   0.076   0.306   3.002
 1192  SOL  HW1 3723   0.143   0.264   3.055
 1192  SOL  HW2 3724   0.007   0.240   2.995
 1193  SOL   OW 3725   2.152   0.877   0.193
 1193  SOL  HW1 3726   2.130   0.956   0.143
 1193  SOL  HW2 3727   2.240   0.854   0.164
 1194  SOL   OW 3728   0.772   1.472   3.046
 1194  SOL  HW1 3729   0.677   1.484   3.042
 1194  SOL  HW2 3730   0.783   1.377   3.044
 1195  SOL   OW 3731   0.022   0.396   0.756
 1195  SOL  HW1 3732  -0.006   0.387   0.665
 1195  SOL  HW2 3733  -0.003   0.313   0.796
 1196  SOL   OW 3734   1.544   0.566   0.217
 1196  SOL  HW1 3735   1.457   0.527   0.224
 1196  SOL  HW2 3736   1.604   0.491   0.221
 1197  SOL   OW 3737   0.445   3.526   3.903
 1197  SOL  HW1 3738   0.538   3.509   3.918
 1197  SOL  HW2 3739   0.416   3.576   3.980
 1198  SOL   OW 3740   0.408   0.614   3.548
 1198  SOL  HW1 3741   0.381   0.582   3.635
 1198  SOL  HW2 3742   0.393   0.709   3.552
 1199  SOL   OW 3743   3.310   3.766   3.800
 1199  SOL  HW1 3744   3.268   3.850   3.786
 1199  SOL  HW2 3745   3.397   3.776   3.761
 1200  SOL   OW 3746   1.435   3.425   3.166
 1200  SOL  HW1 3747   1.469   3.511   3.190
 1200  SOL  HW2 3748   1.510   3.366   3.174
 1201  SOL   OW 3749   2.055   0.700   1.869
 1201  SOL  HW1 3750   2.124   0.662   1.814
 1201  SOL  HW2 3751   2.003   0.625   1.896
 1202  SOL   OW 3752   1.335   1.972   0.970
 1202  SOL  HW1 3753   1.260   1.984   1.029
 1202  SOL  HW2 3754   1.311   1.896   0.917
 1203  SOL   OW 3755   3.484   1.238   1.223
 1203  SOL  HW1 3756   3.537   1.317   1.213
 1203  SOL  HW2 3757   3.406   1.255   1.169
 1204  SOL   OW 3758   3.176   3.868   2.492
 1204  SOL  HW1 3759   3.160   3.785   2.536
 1204  SOL  HW2 3760   3.271   3.869   2.475
 1205  SOL   OW 3761   3.540   1.424   0.659
 1205  SOL  HW1 3762   3.492   1.421   0.742
 1205  SOL  HW2 3763   3.493   1.489   0.606
 1206  SOL   OW 3764   0.507   0.208   2.676
 1206  SOL  HW1 3765   0.466   0.187   2.592
 1206  SOL  HW2 3766   0.441   0.262   2.721
 1207  SOL   OW 3767   0.822   3.881   3.746
 1207  SOL  HW1 3768   0.732   3.903   3.724
 1207  SOL  HW2 3769   0.874   3.949   3.703
 1208  SOL   OW 3770   2.779   2.866   3.674
 1208  SOL  HW1 3771   2.772   2.941   3.734
 1208  SOL  HW2 3772   2.870   2.868   3.644
 1209  SOL   OW 3773   0.612   0.030   3.137
 1209  SOL  HW1 3774   0.697   0.020   3.181
 1209  SOL  HW2 3775   0.626   0.100   3.074
 1210  SOL   OW 3776   3.994   3.375   1.598
 1210  SOL  HW1 3777   3.939   3.321   1.654
 1210  SOL  HW2 3778   3.934   3.436   1.555
 1211  SOL   OW 3779   1.618   3.657   3.595
 1211  SOL  HW1 3780   1.693   3.623   3.645
 1211  SOL  HW2 3781   1.587   3.583   3.543
 1212  SOL   OW 3782   1.703   2.287   2.516
 1212  SOL  HW1 3783   1.610   2.312   2.512
 1212  SOL  HW2 3784   1.703   2.201   2.557
 1213  SOL   OW 3785   1.086   3.401   1.113
 1213  SOL  HW1 3786   1.139   3.338   1.162
 1213  SOL  HW2 3787   1.073   3.474   1.174
 1214  SOL   OW 3788   0.061   2.713   2.823
 1214  SOL  HW1 3789  -0.016   2.668   2.856
 1214  SOL  HW2 3790   0.103   2.750   2.901
 1215  SOL   OW 3791   1.178   3.038   2.790
 1215  SOL  HW1 3792   1.086   3.023   2.810
 1215  SOL  HW2 3793   1.176   3.098   2.715
 1216  SOL   OW 3794   3.374   0.887   0.348
 1216  SOL  HW1 3795   3.324   0.894   0.267
 1216  SOL  HW2 3796   3.365   0.795   0.374
 1217  SOL   OW 3797   1.982   3.908   3.410
 1217  SOL  HW1 3798   1.944   3.975   3.353
 1217  SOL  HW2 3799   2.041   3.859   3.354
 1218  SOL   OW 3800   3.056   3.286   0.439
 1218  SOL  HW1 3801   2.965   3.292   0.410
 1218  SOL  HW2 3802   3.094   3.371   0.414
 1219  SOL   OW 3803   2.874   0.405   1.421
 1219  SOL  HW1 3804   2.926   0.344   1.369
 1219  SOL  HW2 3805   2.884   0.489   1.378
 1220  SOL   OW 3806   0.600   1.889   0.613
 1220  SOL  HW1 3807   0.537   1.905   0.543
 1220  SOL  HW2 3808   0.681   1.928   0.581
 1221  SOL   OW 3809   0.543   3.628   0.353
 1221  SOL  HW1 3810   0.462   3.664   0.388
 1221  SOL  HW2 3811   0.604   3.701   0.353
 1222  SOL   OW 3812   3.898   1.871   0.947
 1222  SOL  HW1 3813   3.985   1.880   0.908
 1222  SOL  HW2 3814   3.860   1.958   0.939
 1223  SOL   OW 3815   0.070   3.533   2.787
 1223  SOL  HW1 3816   0.020   3.561   2.711
 1223  SOL  HW2 3817   0.140   3.478   2.752
 1224  SOL   OW 3818   1.581   1.783   0.983
 1224  SOL  HW1 3819   1.585   1.856   0.922
 1224  SOL  HW2 3820   1.499   1.796   1.032
 1225  SOL   OW 3821   0.139   3.887   2.214
 1225  SOL  HW1 3822   0.200   3.884   2.288
 1225  SOL  HW2 3823   0.053   3.873   2.253
 1226  SOL   OW 3824   3.299   3.613   0.946
 1226  SOL  HW1 3825   3.275   3.608   0.854
 1226  SOL  HW2 3826   3.216   3.613   0.994
 1227  SOL   OW 3827   0.024   3.350   2.474
 1227  SOL  HW1 3828   0.019   3.255   2.484
 1227  SOL  HW2 3829   0.100   3.376   2.526
 1228  SOL   OW 3830   2.564   0.386   3.381
 1228  SOL  HW1 3831   2.616   0.373   3.302
 1228  SOL  HW2 3832   2.475   0.362   3.356
 1229  SOL   OW 3833   2.201   1.212   1.723
 1229  SOL  HW1 3834   2.134   1.265   1.680
 1229  SOL  HW2 3835   2.221   1.144   1.659
 1230  SOL   OW 3836   2.433   1.290   3.610
 1230  SOL  HW1 3837   2.419   1.234   3.534
 1230  SOL  HW2 3838   2.493   1.359   3.578
 1231  SOL   OW 3839   0.559   2.734   3.737
 1231  SOL  HW1 3840   0.556   2.675   3.813
 1231  SOL  HW2 3841   0.537   2.678   3.663
 1232  SOL   OW 3842   1.623   1.115   2.357
 1232  SOL  HW1 3843   1.545   1.095   2.304
 1232  SOL  HW2 3844   1.694   1.120   2.293
 1233  SOL   OW 3845   0.166   0.145   2.166
 1233  SOL  HW1 3846   0.152   0.051   2.155
 1233  SOL  HW2 3847   0.096   0.172   2.226
 1234  SOL   OW 3848   0.209   0.426   2.051
 1234  SOL  HW1 3849   0.219   0.402   1.959
 1234  SOL  HW2 3850   0.206   0.342   2.097
 1235  SOL   OW 3851   3.457   2.147   2.136
 1235  SOL  HW1 3852   3.419   2.168   2.222
 1235  SOL  HW2 3853   3.515   2.220   2.117
 1236  SOL   OW 3854   0.417   0.815   0.785
 1236  SOL  HW1 3855   0.435   0.877   0.857
 1236  SOL  HW2 3856   0.360   0.749   0.824
 1237  SOL   OW 3857   1.256   3.130   3.890
 1237  SOL  HW1 3858   1.216   3.191   3.952
 1237  SOL  HW2 3859   1.224   3.044   3.917
 1238  SOL   OW 3860   3.089   2.119   2.278
 1238  SOL  HW1 3861   2.995   2.100   2.281
 1238  SOL  HW2 3862   3.105   2.147   2.188
 1239  SOL   OW 3863   3.737   3.540   0.232
 1239  SOL  HW1 3864   3.674   3.488   0.183
 1239  SOL  HW2 3865   3.770   3.603   0.168
 1240  SOL   OW 3866   2.304   1.673   2.652
 1240  SOL  HW1 3867   2.259   1.600   2.609
 1240  SOL  HW2 3868   2.385   1.634   2.686
 1241  SOL   OW 3869   1.945   3.036   0.622
 1241  SOL  HW1 3870   2.026   3.079   0.595
 1241  SOL  HW2 3871   1.898   3.102   0.673
 1242  SOL   OW 3872   2.345   3.466   3.994
 1242  SOL  HW1 3873   2.299   3.457   4.078
 1242  SOL  HW2 3874   2.415   3.528   4.012
 1243  SOL   OW 3875   2.895   1.002   1.147
 1243  SOL  HW1 3876   2.936   1.058   1.213
 1243  SOL  HW2 3877   2.888   1.057   1.069
 1244  SOL   OW 3878   3.860   2.819   1.107
 1244  SOL  HW1 3879   3.839   2.843   1.017
 1244  SOL  HW2 3880   3.919   2.744   1.099
 1245  SOL   OW 3881   1.095   3.403   0.605
 1245  SOL  HW1 3882   1.058   3.453   0.678
 1245  SOL  HW2 3883   1.185   3.435   0.598
 1246  SOL   OW 3884   2.294   2.949   2.710
 1246  SOL  HW1 3885   2.308   2.865   2.753
 1246  SOL  HW2 3886   2.364   2.955   2.645
 1247  SOL   OW 3887   3.205   3.522   2.300
 1247  SOL  HW1 3888   3.112   3.520   2.322
 1247  SOL  HW2 3889   3.222   3.614   2.279
 1248  SOL   OW 3890   0.689   1.403   2.143
 1248  SOL  HW1 3891   0.618   1.433   2.087
 1248  SOL  HW2 3892   0.655   1.414   2.232
 1249  SOL   OW 3893   2.298   0.851   3.409
 1249  SOL  HW1 3894   2.215   0.856   3.457
 1249  SOL  HW2 3895   2.337   0.769   3.437
 1250  SOL   OW 3896   3.685   1.664   3.227
 1250  SOL  HW1 3897   3.776   1.643   3.252
 1250  SOL  HW2 3898   3.633   1.602   3.278
 1251  SOL   OW 3899   2.896   2.741   3.922
 1251  SOL  HW1 3900   2.875   2.735   3.829
 1251  SOL  HW2 3901   2.830   2.801   3.957
 1252  SOL   OW 3902   0.275   2.052   4.021
 1252  SOL  HW1 3903   0.303   2.113   4.089
 1252  SOL  HW2 3904   0.348   2.050   3.959
 1253  SOL   OW 3905   0.539   1.466   1.884
 1253  SOL  HW1 3906   0.489   1.386   1.873
 1253  SOL  HW2 3907   0.536   1.510   1.799
 1254  SOL   OW 3908   3.250   3.546   1.251
 1254  SOL  HW1 3909   3.170   3.560   1.302
 1254  SOL  HW2 3910   3.244   3.455   1.222
 1255  SOL   OW 3911   1.569   1.892   3.481
 1255  SOL  HW1 3912   1.541   1.813   3.527
 1255  SOL  HW2 3913   1.488   1.935   3.455
 1256  SOL   OW 3914   3.644   0.526   3.680
 1256  SOL  HW1 3915   3.587   0.451   3.663
 1256  SOL  HW2 3916   3.619   0.590   3.613
 1257  SOL   OW 3917   2.968   2.107   2.536
 1257  SOL  HW1 3918   2.903   2.036   2.530
 1257  SOL  HW2 3919   2.927   2.181   2.492
 1258  SOL   OW 3920   2.381   0.501   0.579
 1258  SOL  HW1 3921   2.370   0.550   0.497
 1258  SOL  HW2 3922   2.298   0.456   0.592
 1259  SOL   OW 3923   2.239   1.323   0.541
 1259  SOL  HW1 3924   2.329   1.348   0.562
 1259  SOL  HW2 3925   2.232   1.336   0.447
 1260  SOL   OW 3926   3.537   1.745   1.074
 1260  SOL  HW1 3927   3.489   1.815   1.119
 1260  SOL  HW2 3928   3.471   1.703   1.018
 1261  SOL   OW 3929   0.372   3.700   0.062
 1261  SOL  HW1 3930   0.345   3.774   0.116
 1261  SOL  HW2 3931   0.345   3.622   0.111
 1262  SOL   OW 3932   2.544   0.678   0.982
 1262  SOL  HW1 3933   2.577   0.598   1.022
 1262  SOL  HW2 3934   2.531   0.739   1.055
 1263  SOL   OW 3935   3.942   3.449   2.995
 1263  SOL  HW1 3936   3.857   3.450   2.952
 1263  SOL  HW2 3937   3.996   3.508   2.943
 1264  SOL   OW 3938   0.870   3.899   3.189
 1264  SOL  HW1 3939   0.879   3.894   3.094
 1264  SOL  HW2 3940   0.938   3.961   3.217
 1265  SOL   OW 3941   4.041   2.287   1.409
 1265  SOL  HW1 3942   3.963   2.300   1.464
 1265  SOL  HW2 3943   4.080   2.207   1.442
 1266  SOL   OW 3944   3.706   2.605   0.502
 1266  SOL  HW1 3945   3.799   2.599   0.482
 1266  SOL  HW2 3946   3.665   2.544   0.440
 1267  SOL   OW 3947   0.157   0.174   0.070
 1267  SOL  HW1 3948   0.070   0.192   0.036
 1267  SOL  HW2 3949   0.211   0.245   0.037
 1268  SOL   OW 3950   2.790   3.599   1.832
 1268  SOL  HW1 3951   2.789   3.597   1.736
 1268  SOL  HW2 3952   2.701   3.573   1.857
 1269  SOL   OW 3953   2.143   3.778   1.248
 1269  SOL  HW1 3954   2.116   3.835   1.176
 1269  SOL  HW2 3955   2.100   3.695   1.230
 1270  SOL   OW 3956   1.188   3.365   2.054
 1270  SOL  HW1 3957   1.111   3.315   2.028
 1270  SOL  HW2 3958   1.247   3.300   2.093
 1271  SOL   OW 3959   1.558   3.297   0.242
 1271  SOL  HW1 3960   1.522   3.230   0.184
 1271  SOL  HW2 3961   1.532   3.380   0.201
 1272  SOL   OW 3962   0.683   3.074   1.225
 1272  SOL  HW1 3963   0.607   3.019   1.240
 1272  SOL  HW2 3964   0.647   3.161   1.209
 1273  SOL   OW 3965   0.478   3.065   2.071
 1273  SOL  HW1 3966   0.439   3.151   2.084
 1273  SOL  HW2 3967   0.419   3.019   2.011
 1274  SOL   OW 3968   3.812   2.350   1.539
 1274  SOL  HW1 3969   3.765   2.307   1.610
 1274  SOL  HW2 3970   3.755   2.423   1.514
 1275  SOL   OW 3971   2.697   1.223   3.321
 1275  SOL  HW1 3972   2.653   1.304   3.345
 1275  SOL  HW2 3973   2.712   1.231   3.227
 1276  SOL   OW 3974   3.068   2.496   0.548
 1276  SOL  HW1 3975   3.015   2.532   0.478
 1276  SOL  HW2 3976   3.006   2.448   0.603
 1277  SOL   OW 3977   1.259  -0.027   0.711
 1277  SOL  HW1 3978   1.309   0.040   0.664
 1277  SOL  HW2 3979   1.171   0.009   0.716
 1278  SOL   OW 3980   2.607   3.243   2.587
 1278  SOL  HW1 3981   2.514   3.225   2.601
 1278  SOL  HW2 3982   2.609   3.320   2.530
 1279  SOL   OW 3983   0.363   2.140   1.024
 1279  SOL  HW1 3984   0.299   2.101   1.083
 1279  SOL  HW2 3985   0.398   2.065   0.976
 1280  SOL   OW 3986   1.431   1.175   2.574
 1280  SOL  HW1 3987   1.454   1.134   2.491
 1280  SOL  HW2 3988   1.339   1.198   2.565
 1281  SOL   OW 3989   2.677   2.533   1.181
 1281  SOL  HW1 3990   2.707   2.556   1.270
 1281  SOL  HW2 3991   2.693   2.439   1.174
 1282  SOL   OW 3992  -0.006   3.960   0.710
 1282  SOL  HW1 3993   0.069   3.969   0.768
 1282  SOL  HW2 3994   0.024   3.898   0.643
 1283  SOL   OW 3995   1.360   3.844   0.264
 1283  SOL  HW1 3996   1.324   3.885   0.185
 1283  SOL  HW2 3997   1.284   3.827   0.319
 1284  SOL   OW 3998   3.663   2.032   1.893
 1284  SOL  HW1 3999   3.571   2.009   1.905
 1284  SOL  HW2 4000   3.696   2.049   1.981
 1285  SOL   OW 4001   2.970   2.991   4.054
 1285  SOL  HW1 4002   2.917   3.070   4.045
 1285  SOL  HW2 4003   3.049   3.010   4.003
 1286  SOL   OW 4004   2.912   2.305   1.816
 1286  SOL  HW1 4005   2.880   2.305   1.725
 1286  SOL  HW2 4006   2.846   2.257   1.865
 1287  SOL   OW 4007   3.600   0.559   1.347
 1287  SOL  HW1 4008   3.659   0.564   1.272
 1287  SOL  HW2 4009   3.656   0.567   1.424
 1288  SOL   OW 4010   2.834   2.618   1.888
 1288  SOL  HW1 4011   2.778   2.545   1.913
 1288  SOL  HW2 4012   2.778   2.674   1.833
 1289  SOL   OW 4013   2.048   3.529   1.259
 1289  SOL  HW1 4014   1.992   3.568   1.327
 1289  SOL  HW2 4015   1.986   3.491   1.197
 1290  SOL   OW 4016   0.234   1.871   2.571
 1290  SOL  HW1 4017   0.329   1.858   2.577
 1290  SOL  HW2 4018   0.206   1.884   2.661
 1291  SOL   OW 4019   0.922   1.309   3.968
 1291  SOL  HW1 4020   0.856   1.284   4.033
 1291  SOL  HW2 4021   0.997   1.337   4.019
 1292  SOL   OW 4022   1.808   2.084   1.191
 1292  SOL  HW1 4023   1.733   2.025   1.181
 1292  SOL  HW2 4024   1.822   2.089   1.286
 1293  SOL   OW 4025   3.140   3.748   1.878
 1293  SOL  HW1 4026   3.223   3.724   1.919
 1293  SOL  HW2 4027   3.075   3.692   1.921
 1294  SOL   OW 4028   1.980   1.004   1.478
 1294  SOL  HW1 4029   1.942   0.984   1.392
 1294  SOL  HW2 4030   1.989   1.099   1.478
 1295  SOL   OW 4031   2.870   1.788   2.634
 1295  SOL  HW1 4032   2.882   1.695   2.617
 1295  SOL  HW2 4033   2.802   1.792   2.701
 1296  SOL   OW 4034   2.171   2.580   1.448
 1296  SOL  HW1 4035   2.157   2.513   1.381
 1296  SOL  HW2 4036   2.216   2.650   1.402
 1297  SOL   OW 4037   0.770   0.180   1.904
 1297  SOL  HW1 4038   0.769   0.149   1.814
 1297  SOL  HW2 4039   0.738   0.105   1.955
 1298  SOL   OW 4040   4.008   3.708   1.612
 1298  SOL  HW1 4041   3.934   3.737   1.665
 1298  SOL  HW2 4042   3.971   3.644   1.552
 1299  SOL   OW 4043   0.198   3.640   2.145
 1299  SOL  HW1 4044   0.190   3.734   2.160
 1299  SOL  HW2 4045   0.152   3.625   2.062
 1300  SOL   OW 4046   2.519   3.223   1.422
 1300  SOL  HW1 4047   2.462   3.175   1.361
 1300  SOL  HW2 4048   2.575   3.155   1.460
 1301  SOL   OW 4049   2.699   3.643   0.218
 1301  SOL  HW1 4050   2.791   3.670   0.211
 1301  SOL  HW2 4051   2.694   3.596   0.301
 1302  SOL   OW 4052   3.095   1.362   0.419
 1302  SOL  HW1 4053   3.091   1.326   0.508
 1302  SOL  HW2 4054   3.171   1.320   0.379
 1303  SOL   OW 4055   1.923   0.633   0.847
 1303  SOL  HW1 4056   2.014   0.622   0.876
 1303  SOL  HW2 4057   1.928   0.698   0.777
 1304  SOL   OW 4058   2.316   0.692   0.382
 1304  SOL  HW1 4059   2.250   0.759   0.361
 1304  SOL  HW2 4060   2.398   0.730   0.352
 1305  SOL   OW 4061   3.326   2.499   1.151
 1305  SOL  HW1 4062   3.244   2.455   1.128
 1305  SOL  HW2 4063   3.344   2.557   1.077
 1306  SOL   OW 4064   1.452   0.169   0.630
 1306  SOL  HW1 4065   1.490   0.164   0.542
 1306  SOL  HW2 4066   1.503   0.237   0.674
 1307  SOL   OW 4067   2.962   0.690   1.819
 1307  SOL  HW1 4068   2.894   0.697   1.887
 1307  SOL  HW2 4069   2.943   0.608   1.775
 1308  SOL   OW 4070   1.632   1.386   2.481
 1308  SOL  HW1 4071   1.626   1.294   2.456
 1308  SOL  HW2 4072   1.607   1.434   2.401
 1309  SOL   OW 4073   1.791   2.192   3.634
 1309  SOL  HW1 4074   1.720   2.135   3.663
 1309  SOL  HW2 4075   1.799   2.174   3.540
 1310  SOL   OW 4076   2.835   1.324   1.073
 1310  SOL  HW1 4077   2.865   1.263   1.005
 1310  SOL  HW2 4078   2.778   1.271   1.129
 1311  SOL   OW 4079   1.433   2.433   0.294
 1311  SOL  HW1 4080   1.382   2.466   0.368
 1311  SOL  HW2 4081   1.386   2.356   0.264
 1312  SOL   OW 4082   0.224   0.755   2.993
 1312  SOL  HW1 4083   0.251   0.846   3.002
 1312  SOL  HW2 4084   0.300   0.704   3.022
 1313  SOL   OW 4085   3.244   0.272   1.054
 1313  SOL  HW1 4086   3.253   0.346   1.115
 1313  SOL  HW2 4087   3.291   0.298   0.976
 1314  SOL   OW 4088   3.240   2.989   0.954
 1314  SOL  HW1 4089   3.157   2.942   0.957
 1314  SOL  HW2 4090   3.251   3.016   0.863
 1315  SOL   OW 4091   4.031   1.325   2.276
 1315  SOL  HW1 4092   3.965   1.390   2.300
 1315  SOL  HW2 4093   3.981   1.256   2.231
 1316  SOL   OW 4094   3.362   0.365   2.752
 1316  SOL  HW1 4095   3.332   0.455   2.740
 1316  SOL  HW2 4096   3.288   0.320   2.792
 1317  SOL   OW 4097   3.725   0.750   3.280
 1317  SOL  HW1 4098   3.754   0.659   3.286
 1317  SOL  HW2 4099   3.729   0.771   3.187
 1318  SOL   OW 4100   0.242   1.070   3.746
 1318  SOL  HW1 4101   0.309   1.124   3.703
 1318  SOL  HW2 4102   0.274   0.980   3.735
 1319  SOL   OW 4103   3.857   2.066   3.655
 1319  SOL  HW1 4104   3.931   2.123   3.675
 1319  SOL  HW2 4105   3.896   1.979   3.643
 1320  SOL   OW 4106   2.293   3.487   3.711
 1320  SOL  HW1 4107   2.311   3.446   3.796
 1320  SOL  HW2 4108   2.284   3.580   3.731
 1321  SOL   OW 4109   2.383   3.337   0.333
 1321  SOL  HW1 4110   2.291   3.342   0.308
 1321  SOL  HW2 4111   2.393   3.403   0.400
 1322  SOL   OW 4112   3.437   0.853   1.152
 1322  SOL  HW1 4113   3.388   0.921   1.200
 1322  SOL  HW2 4114   3.529   0.875   1.167
 1323  SOL   OW 4115   0.770   0.043   0.538
 1323  SOL  HW1 4116   0.805   0.032   0.449
 1323  SOL  HW2 4117   0.718   0.124   0.533
 1324  SOL   OW 4118   0.405   3.474   3.065
 1324  SOL  HW1 4119   0.354   3.396   3.085
 1324  SOL  HW2 4120   0.485   3.441   3.024
 1325  SOL   OW 4121   3.415   1.356   0.940
 1325  SOL  HW1 4122   3.411   1.450   0.925
 1325  SOL  HW2 4123   3.324   1.327   0.939
 1326  SOL   OW 4124   2.555   2.735   3.558
 1326  SOL  HW1 4125   2.607   2.797   3.609
 1326  SOL  HW2 4126   2.493   2.791   3.510
 1327  SOL   OW 4127   2.775   3.038   0.441
 1327  SOL  HW1 4128   2.709   3.063   0.506
 1327  SOL  HW2 4129   2.805   3.121   0.404
 1328  SOL   OW 4130   3.008   2.620   2.626
 1328  SOL  HW1 4131   3.032   2.659   2.710
 1328  SOL  HW2 4132   2.962   2.689   2.579
 1329  SOL   OW 4133   1.845   3.693   3.302
 1329  SOL  HW1 4134   1.929   3.652   3.324
 1329  SOL  HW2 4135   1.857   3.786   3.322
 1330  SOL   OW 4136   3.522   3.522   3.258
 1330  SOL  HW1 4137   3.553   3.480   3.177
 1330  SOL  HW2 4138   3.552   3.465   3.328
 1331  SOL   OW 4139   2.502   1.077   0.656
 1331  SOL  HW1 4140   2.516   0.999   0.711
 1331  SOL  HW2 4141   2.412   1.069   0.625
 1332  SOL   OW 4142   1.405   0.258   1.270
 1332  SOL  HW1 4143   1.323   0.306   1.281
 1332  SOL  HW2 4144   1.436   0.283   1.183
 1333  SOL   OW 4145   2.072   0.445   2.201
 1333  SOL  HW1 4146   1.991   0.485   2.232
 1333  SOL  HW2 4147   2.099   0.388   2.273
 1334  SOL   OW 4148   0.458   2.738   3.248
 1334  SOL  HW1 4149   0.418   2.824   3.254
 1334  SOL  HW2 4150   0.549   2.752   3.276
 1335  SOL   OW 4151   1.744   1.077   0.593
 1335  SOL  HW1 4152   1.782   0.994   0.623
 1335  SOL  HW2 4153   1.805   1.144   0.626
 1336  SOL   OW 4154   3.928   1.528   2.028
 1336  SOL  HW1 4155   3.857   1.567   2.078
 1336  SOL  HW2 4156   3.890   1.449   1.989
 1337  SOL   OW 4157   0.103   2.968   0.465
 1337  SOL  HW1 4158   0.021   3.017   0.472
 1337  SOL  HW2 4159   0.169   3.026   0.503
 1338  SOL   OW 4160   3.894   0.074   2.118
 1338  SOL  HW1 4161   3.903   0.100   2.209
 1338  SOL  HW2 4162   3.925  -0.017   2.116
 1339  SOL   OW 4163   2.576   3.202   0.645
 1339  SOL  HW1 4164   2.551   3.292   0.665
 1339  SOL  HW2 4165   2.522   3.178   0.569
 1340  SOL   OW 4166   0.307   2.993   3.225
 1340  SOL  HW1 4167   0.231   2.955   3.269
 1340  SOL  HW2 4168   0.288   3.087   3.223
 1341  SOL   OW 4169   0.242   3.904   1.634
 1341  SOL  HW1 4170   0.174   3.843   1.607
 1341  SOL  HW2 4171   0.322   3.869   1.595
 1342  SOL   OW 4172   2.428   3.798   0.605
 1342  SOL  HW1 4173   2.349   3.814   0.657
 1342  SOL  HW2 4174   2.421   3.860   0.532
 1343  SOL   OW 4175   3.519   3.907   0.933
 1343  SOL  HW1 4176   3.535   3.871   1.020
 1343  SOL  HW2 4177   3.590   3.971   0.920
 1344  SOL   OW 4178   1.041   2.032   2.781
 1344  SOL  HW1 4179   1.034   1.976   2.859
 1344  SOL  HW2 4180   1.067   1.972   2.711
 1345  SOL   OW 4181   2.157   3.658   0.500
 1345  SOL  HW1 4182   2.234   3.716   0.496
 1345  SOL  HW2 4183   2.179   3.595   0.569
 1346  SOL   OW 4184   0.702   1.318   3.672
 1346  SOL  HW1 4185   0.745   1.400   3.650
 1346  SOL  HW2 4186   0.774   1.256   3.686
 1347  SOL   OW 4187   1.883   0.543   2.017
 1347  SOL  HW1 4188   1.956   0.486   2.038
 1347  SOL  HW2 4189   1.830   0.493   1.955
 1348  SOL   OW 4190   1.242   4.025   2.976
 1348  SOL  HW1 4191   1.247   3.938   3.016
 1348  SOL  HW2 4192   1.221   4.007   2.884
 1349  SOL   OW 4193   0.566   0.837   0.330
 1349  SOL  HW1 4194   0.507   0.796   0.393
 1349  SOL  HW2 4195   0.636   0.773   0.317
 1350  SOL   OW 4196   3.549   2.162   2.913
 1350  SOL  HW1 4197   3.590   2.087   2.957
 1350  SOL  HW2 4198   3.491   2.200   2.978
 1351  SOL   OW 4199   3.542   3.375   1.392
 1351  SOL  HW1 4200   3.484   3.396   1.465
 1351  SOL  HW2 4201   3.554   3.457   1.345
 1352  SOL   OW 4202   3.294   0.270   3.899
 1352  SOL  HW1 4203   3.221   0.244   3.955
 1352  SOL  HW2 4204   3.283   0.365   3.888
 1353  SOL   OW 4205   3.713   2.657   0.775
 1353  SOL  HW1 4206   3.750   2.744   0.791
 1353  SOL  HW2 4207   3.716   2.647   0.680
 1354  SOL   OW 4208   3.785   0.911   1.837
 1354  SOL  HW1 4209   3.738   0.934   1.917
 1354  SOL  HW2 4210   3.716   0.896   1.773
 1355  SOL   OW 4211   0.860   0.316   0.819
 1355  SOL  HW1 4212   0.902   0.400   0.801
 1355  SOL  HW2 4213   0.803   0.333   0.894
 1356  SOL   OW 4214   1.456   2.498   3.159
 1356  SOL  HW1 4215   1.491   2.490   3.070
 1356  SOL  HW2 4216   1.495   2.425   3.206
 1357  SOL   OW 4217   1.359   3.317   0.728
 1357  SOL  HW1 4218   1.380   3.234   0.772
 1357  SOL  HW2 4219   1.298   3.292   0.659
 1358  SOL   OW 4220   0.517   3.601   3.570
 1358  SOL  HW1 4221   0.568   3.600   3.651
 1358  SOL  HW2 4222   0.583   3.608   3.501
 1359  SOL   OW 4223   2.660   0.910   0.091
 1359  SOL  HW1 4224   2.714   0.850   0.039
 1359  SOL  HW2 4225   2.657   0.869   0.178
 1360  SOL   OW 4226   1.190   1.046   0.241
 1360  SOL  HW1 4227   1.242   1.075   0.316
 1360  SOL  HW2 4228   1.249   0.990   0.191
 1361  SOL   OW 4229   0.493   2.381   1.155
 1361  SOL  HW1 4230   0.526   2.358   1.242
 1361  SOL  HW2 4231   0.449   2.302   1.124
 1362  SOL   OW 4232   2.135   0.003   1.115
 1362  SOL  HW1 4233   2.043   0.003   1.088
 1362  SOL  HW2 4234   2.184  -0.004   1.033
 1363  SOL   OW 4235   1.589   2.173   3.321
 1363  SOL  HW1 4236   1.668   2.137   3.361
 1363  SOL  HW2 4237   1.526   2.178   3.393
 1364  SOL   OW 4238   1.729   3.767   2.672
 1364  SOL  HW1 4239   1.739   3.851   2.628
 1364  SOL  HW2 4240   1.655   3.778   2.731
 1365  SOL   OW 4241   1.394   4.004   1.790
 1365  SOL  HW1 4242   1.324   4.067   1.809
 1365  SOL  HW2 4243   1.416   4.020   1.698
 1366  SOL   OW 4244   3.554   2.643   2.202
 1366  SOL  HW1 4245   3.549   2.595   2.119
 1366  SOL  HW2 4246   3.507   2.724   2.186
 1367  SOL   OW 4247   2.076   2.088   1.750
 1367  SOL  HW1 4248   2.058   2.178   1.776
 1367  SOL  HW2 4249   2.066   2.088   1.655
 1368  SOL   OW 4250   3.958   1.833   2.432
 1368  SOL  HW1 4251   3.983   1.831   2.525
 1368  SOL  HW2 4252   3.928   1.923   2.418
 1369  SOL   OW 4253   2.569   2.145   1.330
 1369  SOL  HW1 4254   2.630   2.074   1.309
 1369  SOL  HW2 4255   2.582   2.209   1.260
 1370  SOL   OW 4256   3.673   0.162   2.530
 1370  SOL  HW1 4257   3.713   0.086   2.488
 1370  SOL  HW2 4258   3.589   0.129   2.563
 1371  SOL   OW 4259   0.137   1.536   3.065
 1371  SOL  HW1 4260   0.071   1.517   3.131
 1371  SOL  HW2 4261   0.128   1.466   3.000
 1372  SOL   OW 4262   1.503   3.567   2.858
 1372  SOL  HW1 4263   1.446   3.492   2.874
 1372  SOL  HW2 4264   1.573   3.559   2.923
 1373  SOL   OW 4265   0.831   2.872   1.234
 1373  SOL  HW1 4266   0.762   2.808   1.216
 1373  SOL  HW2 4267   0.786   2.956   1.236
 1374  SOL   OW 4268   0.243   2.950   0.109
 1374  SOL  HW1 4269   0.224   2.988   0.023
 1374  SOL  HW2 4270   0.316   3.002   0.143
 1375  SOL   OW 4271   1.615   1.973   2.775
 1375  SOL  HW1 4272   1.536   2.023   2.755
 1375  SOL  HW2 4273   1.612   1.960   2.869
 1376  SOL   OW 4274   3.666   2.460   1.791
 1376  SOL  HW1 4275   3.674   2.530   1.727
 1376  SOL  HW2 4276   3.747   2.409   1.781
 1377  SOL   OW 4277   2.230   2.737   3.446
 1377  SOL  HW1 4278   2.182   2.682   3.508
 1377  SOL  HW2 4279   2.308   2.764   3.493
 1378  SOL   OW 4280   0.587   2.681   4.019
 1378  SOL  HW1 4281   0.573   2.774   4.039
 1378  SOL  HW2 4282   0.682   2.670   4.026
 1379  SOL   OW 4283   0.623   2.942   3.535
 1379  SOL  HW1 4284   0.585   3.017   3.489
 1379  SOL  HW2 4285   0.677   2.898   3.470
 1380  SOL   OW 4286   3.795   1.494   2.428
 1380  SOL  HW1 4287   3.738   1.501   2.504
 1380  SOL  HW2 4288   3.740   1.516   2.353
 1381  SOL   OW 4289   2.250   2.453   3.601
 1381  SOL  HW1 4290   2.229   2.375   3.653
 1381  SOL  HW2 4291   2.313   2.422   3.536
 1382  SOL   OW 4292   1.896   0.649   2.902
 1382  SOL  HW1 4293   1.837   0.578   2.925
 1382  SOL  HW2 4294   1.847   0.729   2.924
 1383  SOL   OW 4295   3.476   0.516   1.793
 1383  SOL  HW1 4296   3.411   0.574   1.753
 1383  SOL  HW2 4297   3.461   0.524   1.887
 1384  SOL   OW 4298   1.419   1.200   3.422
 1384  SOL  HW1 4299   1.413   1.236   3.333
 1384  SOL  HW2 4300   1.345   1.238   3.469
 1385  SOL   OW 4301   3.226   2.744   3.604
 1385  SOL  HW1 4302   3.263   2.700   3.528
 1385  SOL  HW2 4303   3.302   2.770   3.656
 1386  SOL   OW 4304   1.342   2.805   2.653
 1386  SOL  HW1 4305   1.288   2.876   2.688
 1386  SOL  HW2 4306   1.348   2.742   2.725
 1387  SOL   OW 4307   0.638   2.363   3.320
 1387  SOL  HW1 4308   0.580   2.288   3.303
 1387  SOL  HW2 4309   0.624   2.421   3.245
 1388  SOL   OW 4310   2.235   0.406   1.161
 1388  SOL  HW1 4311   2.242   0.497   1.188
 1388  SOL  HW2 4312   2.324   0.372   1.169
 1389  SOL   OW 4313   0.201   0.021   1.191
 1389  SOL  HW1 4314   0.136  -0.028   1.241
 1389  SOL  HW2 4315   0.196   0.110   1.227
 1390  SOL   OW 4316   1.033   3.449   0.309
 1390  SOL  HW1 4317   1.050   3.355   0.296
 1390  SOL  HW2 4318   0.992   3.455   0.395
 1391  SOL   OW 4319   0.822   1.604   1.829
 1391  SOL  HW1 4320   0.819   1.510   1.845
 1391  SOL  HW2 4321   0.751   1.619   1.767
 1392  SOL   OW 4322   2.973   2.758   1.662
 1392  SOL  HW1 4323   2.885   2.733   1.635
 1392  SOL  HW2 4324   3.030   2.722   1.594
 1393  SOL   OW 4325   2.932   2.273   1.531
 1393  SOL  HW1 4326   2.931   2.178   1.526
 1393  SOL  HW2 4327   3.022   2.297   1.507
 1394  SOL   OW 4328   0.654   2.110   0.238
 1394  SOL  HW1 4329   0.569   2.148   0.217
 1394  SOL  HW2 4330   0.682   2.069   0.157
 1395  SOL   OW 4331   2.252   2.799   1.273
 1395  SOL  HW1 4332   2.269   2.728   1.211
 1395  SOL  HW2 4333   2.184   2.852   1.231
 1396  SOL   OW 4334   3.571   0.192   1.223
 1396  SOL  HW1 4335   3.489   0.146   1.208
 1396  SOL  HW2 4336   3.582   0.190   1.318
 1397  SOL   OW 4337   2.005   1.905   3.238
 1397  SOL  HW1 4338   2.042   1.986   3.272
 1397  SOL  HW2 4339   1.976   1.857   3.317
 1398  SOL   OW 4340   3.063   3.833   3.605
 1398  SOL  HW1 4341   2.971   3.822   3.629
 1398  SOL  HW2 4342   3.100   3.888   3.674
 1399  SOL   OW 4343   2.381   0.905   3.144
 1399  SOL  HW1 4344   2.377   0.821   3.099
 1399  SOL  HW2 4345   2.406   0.884   3.234
 1400  SOL   OW 4346   1.588   0.336   3.170
 1400  SOL  HW1 4347   1.587   0.319   3.265
 1400  SOL  HW2 4348   1.518   0.281   3.135
 1401  SOL   OW 4349   3.987   2.076   1.201
 1401  SOL  HW1 4350   3.972   2.086   1.107
 1401  SOL  HW2 4351   4.053   2.142   1.222
 1402  SOL   OW 4352   3.519   2.163   3.982
 1402  SOL  HW1 4353   3.488   2.250   3.956
 1402  SOL  HW2 4354   3.605   2.179   4.020
 1403  SOL   OW 4355   3.336   2.591   0.715
 1403  SOL  HW1 4356   3.398   2.631   0.654
 1403  SOL  HW2 4357   3.272   2.548   0.659
 1404  SOL   OW 4358   0.034   1.495   3.585
 1404  SOL  HW1 4359   0.024   1.400   3.590
 1404  SOL  HW2 4360  -0.010   1.528   3.663
 1405  SOL   OW 4361   2.063   3.234   2.300
 1405  SOL  HW1 4362   1.970   3.214   2.316
 1405  SOL  HW2 4363   2.084   3.188   2.219
 1406  SOL   OW 4364   1.827   0.245   1.403
 1406  SOL  HW1 4365   1.911   0.289   1.421
 1406  SOL  HW2 4366   1.812   0.192   1.481
 1407  SOL   OW 4367   3.826   1.310   1.920
 1407  SOL  HW1 4368   3.794   1.225   1.892
 1407  SOL  HW2 4369   3.777   1.373   1.866
 1408  SOL   OW 4370   2.451   3.208   3.503
 1408  SOL  HW1 4371   2.497   3.238   3.582
 1408  SOL  HW2 4372   2.484   3.264   3.433
 1409  SOL   OW 4373   1.452   2.469   3.584
 1409  SOL  HW1 4374   1.527   2.463   3.644
 1409  SOL  HW2 4375   1.428   2.561   3.586
 1410  SOL   OW 4376   2.796   3.255  -0.017
 1410  SOL  HW1 4377   2.856   3.328  -0.002
 1410  SOL  HW2 4378   2.718   3.277   0.034
 1411  SOL   OW 4379   3.688   2.104   0.905
 1411  SOL  HW1 4380   3.693   2.085   0.811
 1411  SOL  HW2 4381   3.651   2.192   0.910
 1412  SOL   OW 4382   0.139   2.579   1.468
 1412  SOL  HW1 4383   0.090   2.499   1.488
 1412  SOL  HW2 4384   0.152   2.576   1.373
 1413  SOL   OW 4385   0.335   3.444   0.659
 1413  SOL  HW1 4386   0.416   3.491   0.680
 1413  SOL  HW2 4387   0.293   3.430   0.744
 1414  SOL   OW 4388   3.049   2.269   2.779
 1414  SOL  HW1 4389   3.013   2.200   2.724
 1414  SOL  HW2 4390   3.144   2.259   2.772
 1415  SOL   OW 4391   1.682   1.455   4.002
 1415  SOL  HW1 4392   1.630   1.385   3.965
 1415  SOL  HW2 4393   1.747   1.410   4.056
 1416  SOL   OW 4394   0.082   1.452   1.211
 1416  SOL  HW1 4395   0.003   1.506   1.207
 1416  SOL  HW2 4396   0.138   1.486   1.141
 1417  SOL   OW 4397   0.142   1.135   2.756
 1417  SOL  HW1 4398   0.163   1.148   2.664
 1417  SOL  HW2 4399   0.152   1.041   2.771
 1418  SOL   OW 4400   1.737   3.176   0.743
 1418  SOL  HW1 4401   1.673   3.226   0.794
 1418  SOL  HW2 4402   1.692   3.154   0.662
 1419  SOL   OW 4403   0.038   1.226   3.697
 1419  SOL  HW1 4404  -0.041   1.202   3.746
 1419  SOL  HW2 4405   0.108   1.175   3.738
 1420  SOL   OW 4406   2.501   0.916   1.109
 1420  SOL  HW1 4407   2.408   0.929   1.126
 1420  SOL  HW2 4408   2.523   0.981   1.042
 1421  SOL   OW 4409   0.349   0.217   3.484
 1421  SOL  HW1 4410   0.412   0.229   3.413
 1421  SOL  HW2 4411   0.401   0.185   3.558
 1422  SOL   OW 4412   0.690   0.649   0.597
 1422  SOL  HW1 4413   0.672   0.566   0.641
 1422  SOL  HW2 4414   0.773   0.679   0.635
 1423  SOL   OW 4415   1.974   0.823   3.951
 1423  SOL  HW1 4416   1.959   0.765   3.877
 1423  SOL  HW2 4417   1.990   0.764   4.025
 1424  SOL   OW 4418   2.910   1.051   0.552
 1424  SOL  HW1 4419   2.903   0.989   0.479
 1424  SOL  HW2 4420   2.865   1.129   0.521
 1425  SOL   OW 4421   3.417   0.615   0.446
 1425  SOL  HW1 4422   3.409   0.527   0.483
 1425  SOL  HW2 4423   3.508   0.640   0.465
 1426  SOL   OW 4424   3.331   1.292   3.042
 1426  SOL  HW1 4425   3.348   1.291   3.137
 1426  SOL  HW2 4426   3.258   1.232   3.030
 1427  SOL   OW 4427   0.376   1.977   0.409
 1427  SOL  HW1 4428   0.293   1.959   0.452
 1427  SOL  HW2 4429   0.354   2.039   0.340
 1428  SOL   OW 4430   1.641   2.730   3.651
 1428  SOL  HW1 4431   1.690   2.803   3.613
 1428  SOL  HW2 4432   1.551   2.744   3.622
 1429  SOL   OW 4433   2.987   3.468   4.002
 1429  SOL  HW1 4434   3.030   3.391   3.964
 1429  SOL  HW2 4435   3.058   3.532   4.013
 1430  SOL   OW 4436   0.522   1.881   1.229
 1430  SOL  HW1 4437   0.438   1.836   1.221
 1430  SOL  HW2 4438   0.575   1.846   1.157
 1431  SOL   OW 4439   1.640   0.457   3.828
 1431  SOL  HW1 4440   1.604   0.527   3.883
 1431  SOL  HW2 4441   1.565   0.425   3.777
 1432  SOL   OW 4442   3.502   1.685   0.232
 1432  SOL  HW1 4443   3.534   1.735   0.157
 1432  SOL  HW2 4444   3.579   1.637   0.263
 1433  SOL   OW 4445   1.536   1.131   2.939
 1433  SOL  HW1 4446   1.589   1.081   2.876
 1433  SOL  HW2 4447   1.476   1.066   2.975
 1434  SOL   OW 4448   1.406   0.158   3.114
 1434  SOL  HW1 4449   1.462   0.101   3.167
 1434  SOL  HW2 4450   1.343   0.098   3.073
 1435  SOL   OW 4451   0.912   0.964   1.951
 1435  SOL  HW1 4452   0.892   1.054   1.927
 1435  SOL  HW2 4453   0.848   0.911   1.902
 1436  SOL   OW 4454   3.498   2.594   3.797
 1436  SOL  HW1 4455   3.591   2.599   3.778
 1436  SOL  HW2 4456   3.457   2.583   3.711
 1437  SOL   OW 4457   1.540   2.627   2.003
 1437  SOL  HW1 4458   1.536   2.670   2.089
 1437  SOL  HW2 4459   1.625   2.582   2.002
 1438  SOL   OW 4460   3.082   1.531   3.962
 1438  SOL  HW1 4461   3.088   1.450   4.012
 1438  SOL  HW2 4462   3.147   1.589   4.002
 1439  SOL   OW 4463   3.532   2.724   4.026
 1439  SOL  HW1 4464   3.627   2.730   4.035
 1439  SOL  HW2 4465   3.519   2.665   3.951
 1440  SOL   OW 4466   2.212   3.178   2.637
 1440  SOL  HW1 4467   2.255   3.099   2.671
 1440  SOL  HW2 4468   2.154   3.206   2.707
 1441  SOL   OW 4469   1.240   1.825  -0.015
 1441  SOL  HW1 4470   1.209   1.905  -0.058
 1441  SOL  HW2 4471   1.206   1.832   0.074
 1442  SOL   OW 4472   2.157   0.766   2.477
 1442  SOL  HW1 4473   2.108   0.773   2.395
 1442  SOL  HW2 4474   2.237   0.816   2.461
 1443  SOL   OW 4475   3.390   1.375   1.922
 1443  SOL  HW1 4476   3.427   1.452   1.966
 1443  SOL  HW2 4477   3.459   1.347   1.861
 1444  SOL   OW 4478   1.259   2.300   1.054
 1444  SOL  HW1 4479   1.221   2.380   1.089
 1444  SOL  HW2 4480   1.260   2.239   1.129
 1445  SOL   OW 4481   3.460   2.882   1.756
 1445  SOL  HW1 4482   3.426   2.793   1.741
 1445  SOL  HW2 4483   3.514   2.901   1.679
 1446  SOL   OW 4484   0.633   1.645   2.616
 1446  SOL  HW1 4485   0.649   1.668   2.524
 1446  SOL  HW2 4486   0.703   1.690   2.664
 1447  SOL   OW 4487   2.401   3.009   1.918
 1447  SOL  HW1 4488   2.406   2.923   1.877
 1447  SOL  HW2 4489   2.353   2.995   1.999
 1448  SOL   OW 4490   0.350   3.996   3.245
 1448  SOL  HW1 4491   0.438   4.012   3.212
 1448  SOL  HW2 4492   0.329   3.908   3.214
 1449  SOL   OW 4493   1.207   3.815   1.503
 1449  SOL  HW1 4494   1.154   3.886   1.540
 1449  SOL  HW2 4495   1.209   3.833   1.409
 1450  SOL   OW 4496   1.329   4.017   3.724
 1450  SOL  HW1 4497   1.344   3.944   3.664
 1450  SOL  HW2 4498   1.411   4.066   3.723
 1451  SOL   OW 4499   2.584   2.083   2.440
 1451  SOL  HW1 4500   2.657   2.031   2.407
 1451  SOL  HW2 4501   2.613   2.174   2.431
 1452  SOL   OW 4502   2.625   2.300   2.761
 1452  SOL  HW1 4503   2.534   2.311   2.736
 1452  SOL  HW2 4504   2.675   2.330   2.686
 1453  SOL   OW 4505   2.404   0.357   4.000
 1453  SOL  HW1 4506   2.311   0.361   4.025
 1453  SOL  HW2 4507   2.439   0.285   4.052
 1454  SOL   OW 4508   3.804   3.579   1.470
 1454  SOL  HW1 4509   3.713   3.595   1.493
 1454  SOL  HW2 4510   3.812   3.609   1.379
 1455  SOL   OW 4511   0.249   1.721   3.944
 1455  SOL  HW1 4512   0.242   1.758   3.856
 1455  SOL  HW2 4513   0.291   1.636   3.931
 1456  SOL   OW 4514   3.954   2.840   3.514
 1456  SOL  HW1 4515   3.981   2.757   3.554
 1456  SOL  HW2 4516   3.938   2.898   3.588
 1457  SOL   OW 4517   2.440   0.657   2.656
 1457  SOL  HW1 4518   2.455   0.752   2.654
 1457  SOL  HW2 4519   2.429   0.633   2.564
 1458  SOL   OW 4520   0.936  -0.037   1.988
 1458  SOL  HW1 4521   0.938   0.023   1.913
 1458  SOL  HW2 4522   0.948   0.019   2.064
 1459  SOL   OW 4523   2.004   2.239   4.040
 1459  SOL  HW1 4524   1.962   2.324   4.055
 1459  SOL  HW2 4525   2.026   2.240   3.947
 1460  SOL   OW 4526   3.378   1.695   3.320
 1460  SOL  HW1 4527   3.393   1.611   3.278
 1460  SOL  HW2 4528   3.455   1.748   3.297
 1461  SOL   OW 4529   2.863   0.778   0.915
 1461  SOL  HW1 4530   2.955   0.755   0.933
 1461  SOL  HW2 4531   2.839   0.836   0.988
 1462  SOL   OW 4532   0.365   1.452   3.969
 1462  SOL  HW1 4533   0.435   1.397   4.006
 1462  SOL  HW2 4534   0.285   1.408   3.996
 1463  SOL   OW 4535   2.152   3.407   0.162
 1463  SOL  HW1 4536   2.119   3.376   0.247
 1463  SOL  HW2 4537   2.101   3.486   0.145
 1464  SOL   OW 4538   3.890   2.081   0.363
 1464  SOL  HW1 4539   3.799   2.084   0.332
 1464  SOL  HW2 4540   3.918   1.991   0.350
 1465  SOL   OW 4541   1.095   3.781   0.430
 1465  SOL  HW1 4542   1.032   3.756   0.363
 1465  SOL  HW2 4543   1.057   3.750   0.512
 1466  SOL   OW 4544   0.799   2.425   2.173
 1466  SOL  HW1 4545   0.824   2.514   2.147
 1466  SOL  HW2 4546   0.749   2.436   2.254
 1467  SOL   OW 4547   1.463   0.806   0.742
 1467  SOL  HW1 4548   1.538   0.768   0.697
 1467  SOL  HW2 4549   1.480   0.900   0.743
 1468  SOL   OW 4550   2.899   3.918   0.164
 1468  SOL  HW1 4551   2.951   3.867   0.227
 1468  SOL  HW2 4552   2.873   3.996   0.212
 1469  SOL   OW 4553   1.580   2.816   2.273
 1469  SOL  HW1 4554   1.510   2.859   2.323
 1469  SOL  HW2 4555   1.653   2.877   2.277
 1470  SOL   OW 4556   3.926   3.853   2.003
 1470  SOL  HW1 4557   3.905   3.805   2.083
 1470  SOL  HW2 4558   3.976   3.790   1.950
 1471  SOL   OW 4559   0.271   1.452   3.398
 1471  SOL  HW1 4560   0.228   1.503   3.466
 1471  SOL  HW2 4561   0.285   1.514   3.326
 1472  SOL   OW 4562   0.774   0.349   0.411
 1472  SOL  HW1 4563   0.766   0.303   0.327
 1472  SOL  HW2 4564   0.867   0.340   0.434
 1473  SOL   OW 4565   0.405   0.078   0.168
 1473  SOL  HW1 4566   0.315   0.108   0.159
 1473  SOL  HW2 4567   0.457   0.158   0.176
 1474  SOL   OW 4568   1.663   0.532   0.511
 1474  SOL  HW1 4569   1.571   0.512   0.496
 1474  SOL  HW2 4570   1.706   0.446   0.514
 1475  SOL   OW 4571   1.695   2.980   3.533
 1475  SOL  HW1 4572   1.788   3.003   3.543
 1475  SOL  HW2 4573   1.648   3.060   3.556
 1476  SOL   OW 4574   3.395   0.208   3.266
 1476  SOL  HW1 4575   3.475   0.256   3.287
 1476  SOL  HW2 4576   3.381   0.150   3.342
 1477  SOL   OW 4577   0.778   1.589   3.984
 1477  SOL  HW1 4578   0.708   1.645   3.949
 1477  SOL  HW2 4579   0.788   1.520   3.918
 1478  SOL   OW 4580   1.294   2.846   0.794
 1478  SOL  HW1 4581   1.344   2.926   0.809
 1478  SOL  HW2 4582   1.343   2.778   0.840
 1479  SOL   OW 4583   3.504   3.025   2.741
 1479  SOL  HW1 4584   3.553   3.103   2.717
 1479  SOL  HW2 4585   3.565   2.952   2.724
 1480  SOL   OW 4586   2.736   0.128   2.395
 1480  SOL  HW1 4587   2.780   0.133   2.311
 1480  SOL  HW2 4588   2.700   0.039   2.398
 1481  SOL   OW 4589   3.472   1.778   2.831
 1481  SOL  HW1 4590   3.494   1.825   2.911
 1481  SOL  HW2 4591   3.495   1.687   2.850
 1482  SOL   OW 4592   1.767   1.653   2.924
 1482  SOL  HW1 4593   1.733   1.565   2.933
 1482  SOL  HW2 4594   1.784   1.682   3.014
 1483  SOL   OW 4595   2.529   2.266   1.048
 1483  SOL  HW1 4596   2.517   2.262   0.953
 1483  SOL  HW2 4597   2.620   2.295   1.059
 1484  SOL   OW 4598   0.496   3.609   2.081
 1484  SOL  HW1 4599   0.555   3.538   2.053
 1484  SOL  HW2 4600   0.494   3.602   2.176
 1485  SOL   OW 4601   3.256   0.560   3.882
 1485  SOL  HW1 4602   3.265   0.596   3.794
 1485  SOL  HW2 4603   3.316   0.613   3.935
 1486  SOL   OW 4604   3.554   0.684   2.659
 1486  SOL  HW1 4605   3.466   0.668   2.694
 1486  SOL  HW2 4606   3.607   0.613   2.693
 1487  SOL   OW 4607   0.517   0.475   1.502
 1487  SOL  HW1 4608   0.530   0.495   1.594
 1487  SOL  HW2 4609   0.527   0.560   1.458
 1488  SOL   OW 4610   1.375   1.547   0.653
 1488  SOL  HW1 4611   1.307   1.570   0.716
 1488  SOL  HW2 4612   1.350   1.593   0.573
 1489  SOL   OW 4613   3.374   1.959   0.024
 1489  SOL  HW1 4614   3.430   2.036   0.014
 1489  SOL  HW2 4615   3.285   1.993   0.010
 1490  SOL   OW 4616   3.487   3.917   2.872
 1490  SOL  HW1 4617   3.506   3.839   2.821
 1490  SOL  HW2 4618   3.566   3.931   2.925
 1491  SOL   OW 4619   2.713   3.206   3.152
 1491  SOL  HW1 4620   2.688   3.239   3.066
 1491  SOL  HW2 4621   2.793   3.156   3.136
 1492  SOL   OW 4622   2.386   1.925   2.331
 1492  SOL  HW1 4623   2.326   1.885   2.393
 1492  SOL  HW2 4624   2.451   1.970   2.386
 1493  SOL   OW 4625   2.764   3.582   3.337
 1493  SOL  HW1 4626   2.835   3.535   3.295
 1493  SOL  HW2 4627   2.772   3.672   3.305
 1494  SOL   OW 4628   0.975   2.937   2.357
 1494  SOL  HW1 4629   0.894   2.908   2.314
 1494  SOL  HW2 4630   1.040   2.939   2.286
 1495  SOL   OW 4631   1.935   2.986   3.308
 1495  SOL  HW1 4632   1.897   2.898   3.303
 1495  SOL  HW2 4633   2.021   2.972   3.348
 1496  SOL   OW 4634   1.847   0.430   0.032
 1496  SOL  HW1 4635   1.827   0.408  -0.059
 1496  SOL  HW2 4636   1.816   0.355   0.083
 1497  SOL   OW 4637   3.110   0.105   2.464
 1497  SOL  HW1 4638   3.124   0.124   2.371
 1497  SOL  HW2 4639   3.132   0.013   2.473
 1498  SOL   OW 4640   1.746   2.424   3.774
 1498  SOL  HW1 4641   1.798   2.486   3.722
 1498  SOL  HW2 4642   1.774   2.338   3.743
 1499  SOL   OW 4643   3.901   3.063   1.549
 1499  SOL  HW1 4644   3.868   3.095   1.466
 1499  SOL  HW2 4645   3.997   3.067   1.540
 1500  SOL   OW 4646   0.725   3.515   3.066
 1500  SOL  HW1 4647   0.702   3.437   3.016
 1500  SOL  HW2 4648   0.674   3.586   3.026
 1501  SOL   OW 4649   1.040   1.765   0.468
 1501  SOL  HW1 4650   0.954   1.807   0.476
 1501  SOL  HW2 4651   1.023   1.673   0.489
 1502  SOL   OW 4652   0.338   0.371   2.799
 1502  SOL  HW1 4653   0.265   0.415   2.755
 1502  SOL  HW2 4654   0.405   0.439   2.808
 1503  SOL   OW 4655   0.556   0.292   0.099
 1503  SOL  HW1 4656   0.625   0.246   0.052
 1503  SOL  HW2 4657   0.494   0.319   0.031
 1504  SOL   OW 4658   1.811   3.214   1.983
 1504  SOL  HW1 4659   1.895   3.205   1.938
 1504  SOL  HW2 4660   1.757   3.264   1.922
 1505  SOL   OW 4661   1.261   1.802   2.240
 1505  SOL  HW1 4662   1.192   1.741   2.264
 1505  SOL  HW2 4663   1.276   1.786   2.147
 1506  SOL   OW 4664   0.747   2.711   0.457
 1506  SOL  HW1 4665   0.713   2.623   0.438
 1506  SOL  HW2 4666   0.759   2.712   0.552
 1507  SOL   OW 4667   0.419   1.589   0.823
 1507  SOL  HW1 4668   0.404   1.607   0.731
 1507  SOL  HW2 4669   0.514   1.599   0.835
 1508  SOL   OW 4670   2.471   1.741   3.264
 1508  SOL  HW1 4671   2.493   1.770   3.176
 1508  SOL  HW2 4672   2.402   1.675   3.252
 1509  SOL   OW 4673   1.923   1.764   3.465
 1509  SOL  HW1 4674   2.003   1.754   3.516
 1509  SOL  HW2 4675   1.891   1.674   3.452
 1510  SOL   OW 4676   0.316   0.916   2.686
 1510  SOL  HW1 4677   0.385   0.925   2.620
 1510  SOL  HW2 4678   0.283   0.827   2.674
 1511  SOL   OW 4679   0.788   1.886   3.421
 1511  SOL  HW1 4680   0.740   1.837   3.354
 1511  SOL  HW2 4681   0.719   1.918   3.480
 1512  SOL   OW 4682   0.158   0.268   1.561
 1512  SOL  HW1 4683   0.067   0.269   1.534
 1512  SOL  HW2 4684   0.208   0.263   1.480
 1513  SOL   OW 4685   2.481   3.280   3.787
 1513  SOL  HW1 4686   2.451   3.305   3.874
 1513  SOL  HW2 4687   2.477   3.184   3.787
 1514  SOL   OW 4688   0.788   2.270   0.440
 1514  SOL  HW1 4689   0.734   2.337   0.481
 1514  SOL  HW2 4690   0.743   2.251   0.357
 1515  SOL   OW 4691   3.945   2.601   2.163
 1515  SOL  HW1 4692   4.013   2.534   2.156
 1515  SOL  HW2 4693   3.919   2.617   2.072
 1516  SOL   OW 4694   1.730   4.024   0.017
 1516  SOL  HW1 4695   1.722   4.035   0.111
 1516  SOL  HW2 4696   1.686   3.942  -0.003
 1517  SOL   OW 4697   1.681   3.211   1.214
 1517  SOL  HW1 4698   1.679   3.116   1.200
 1517  SOL  HW2 4699   1.737   3.222   1.292
 1518  SOL   OW 4700   1.669   1.066   1.304
 1518  SOL  HW1 4701   1.631   1.132   1.361
 1518  SOL  HW2 4702   1.675   1.108   1.219
 1519  SOL   OW 4703   1.724   3.837   2.067
 1519  SOL  HW1 4704   1.742   3.820   2.159
 1519  SOL  HW2 4705   1.795   3.894   2.038
 1520  SOL   OW 4706   3.110   3.820   0.320
 1520  SOL  HW1 4707   3.201   3.794   0.305
 1520  SOL  HW2 4708   3.114   3.915   0.331
 1521  SOL   OW 4709   1.316   3.626   2.061
 1521  SOL  HW1 4710   1.409   3.605   2.071
 1521  SOL  HW2 4711   1.272   3.541   2.067
 1522  SOL   OW 4712   3.506   3.609   1.297
 1522  SOL  HW1 4713   3.484   3.699   1.323
 1522  SOL  HW2 4714   3.422   3.570   1.273
 1523  SOL   OW 4715   2.533   1.855   3.495
 1523  SOL  HW1 4716   2.519   1.949   3.479
 1523  SOL  HW2 4717   2.512   1.814   3.412
 1524  SOL   OW 4718   0.495   0.540   2.047
 1524  SOL  HW1 4719   0.401   0.521   2.055
 1524  SOL  HW2 4720   0.537   0.464   2.086
 1525  SOL   OW 4721   2.592   1.685   4.010
 1525  SOL  HW1 4722   2.685   1.676   3.990
 1525  SOL  HW2 4723   2.554   1.724   3.931
 1526  SOL   OW 4724   1.353   0.344   2.839
 1526  SOL  HW1 4725   1.359   0.268   2.897
 1526  SOL  HW2 4726   1.440   0.352   2.799
 1527  SOL   OW 4727   0.871   2.500   1.843
 1527  SOL  HW1 4728   0.883   2.407   1.861
 1527  SOL  HW2 4729   0.808   2.529   1.909
 1528  SOL   OW 4730   1.021   0.785   0.034
 1528  SOL  HW1 4731   1.072   0.791   0.115
 1528  SOL  HW2 4732   1.017   0.874   0.000
 1529  SOL   OW 4733   2.911   1.412   3.584
 1529  SOL  HW1 4734   2.859   1.488   3.614
 1529  SOL  HW2 4735   2.868   1.337   3.625
 1530  SOL   OW 4736   1.336   1.152   1.127
 1530  SOL  HW1 4737   1.427   1.179   1.123
 1530  SOL  HW2 4738   1.337   1.062   1.095
 1531  SOL   OW 4739   3.422   3.946   2.405
 1531  SOL  HW1 4740   3.441   4.007   2.476
 1531  SOL  HW2 4741   3.489   3.963   2.339
 1532  SOL   OW 4742   3.257   0.592   3.227
 1532  SOL  HW1 4743   3.174   0.559   3.262
 1532  SOL  HW2 4744   3.324   0.548   3.280
 1533  SOL   OW 4745   0.521   2.894   0.665
 1533  SOL  HW1 4746   0.539   2.973   0.614
 1533  SOL  HW2 4747   0.607   2.865   0.696
 1534  SOL   OW 4748   0.816   0.957   2.535
 1534  SOL  HW1 4749   0.735   0.962   2.486
 1534  SOL  HW2 4750   0.862   0.881   2.500
 1535  SOL   OW 4751   1.401   2.748   0.472
 1535  SOL  HW1 4752   1.441   2.670   0.436
 1535  SOL  HW2 4753   1.329   2.716   0.526
 1536  SOL   OW 4754   2.135   3.105   2.068
 1536  SOL  HW1 4755   2.132   3.010   2.071
 1536  SOL  HW2 4756   2.102   3.127   1.981
 1537  SOL   OW 4757   2.895   0.095   3.024
 1537  SOL  HW1 4758   2.917   0.002   3.021
 1537  SOL  HW2 4759   2.881   0.113   3.117
 1538  SOL   OW 4760   2.838   3.085   0.802
 1538  SOL  HW1 4761   2.780   3.013   0.778
 1538  SOL  HW2 4762   2.792   3.164   0.772
 1539  SOL   OW 4763   1.714   3.659   0.679
 1539  SOL  HW1 4764   1.687   3.575   0.642
 1539  SOL  HW2 4765   1.763   3.702   0.609
 1540  SOL   OW 4766   0.054   1.244   0.857
 1540  SOL  HW1 4767   0.070   1.296   0.778
 1540  SOL  HW2 4768   0.138   1.202   0.876
 1541  SOL   OW 4769   2.008   1.848   3.939
 1541  SOL  HW1 4770   1.987   1.903   4.015
 1541  SOL  HW2 4771   2.016   1.759   3.975
 1542  SOL   OW 4772   2.967   1.409   1.613
 1542  SOL  HW1 4773   3.016   1.433   1.534
 1542  SOL  HW2 4774   2.901   1.348   1.582
 1543  SOL   OW 4775   0.279   2.897   1.954
 1543  SOL  HW1 4776   0.267   2.816   1.904
 1543  SOL  HW2 4777   0.242   2.966   1.898
 1544  SOL   OW 4778   2.095   2.173   3.436
 1544  SOL  HW1 4779   2.166   2.220   3.392
 1544  SOL  HW2 4780   2.138   2.124   3.506
 1545  SOL   OW 4781   2.233   1.825   0.953
 1545  SOL  HW1 4782   2.319   1.859   0.979
 1545  SOL  HW2 4783   2.182   1.823   1.034
 1546  SOL   OW 4784   1.549   3.451   2.581
 1546  SOL  HW1 4785   1.502   3.417   2.504
 1546  SOL  HW2 4786   1.510   3.536   2.598
 1547  SOL   OW 4787   1.356   2.165   0.164
 1547  SOL  HW1 4788   1.370   2.192   0.074
 1547  SOL  HW2 4789   1.438   2.120   0.189
 1548  SOL   OW 4790   1.965   0.925   3.418
 1548  SOL  HW1 4791   1.978   0.954   3.508
 1548  SOL  HW2 4792   1.870   0.921   3.407
 1549  SOL   OW 4793   2.848   1.692   3.580
 1549  SOL  HW1 4794   2.844   1.742   3.499
 1549  SOL  HW2 4795   2.939   1.702   3.610
 1550  SOL   OW 4796   1.023   3.547   3.821
 1550  SOL  HW1 4797   1.047   3.506   3.737
 1550  SOL  HW2 4798   0.984   3.475   3.871
 1551  SOL   OW 4799   1.534   2.099   0.814
 1551  SOL  HW1 4800   1.456   2.062   0.856
 1551  SOL  HW2 4801   1.499   2.155   0.744
 1552  SOL   OW 4802   0.225   2.645   1.875
 1552  SOL  HW1 4803   0.238   2.603   1.790
 1552  SOL  HW2 4804   0.193   2.575   1.931
 1553  SOL   OW 4805   0.688   1.839   1.025
 1553  SOL  HW1 4806   0.704   1.772   0.958
 1553  SOL  HW2 4807   0.750   1.909   1.004
 1554  SOL   OW 4808   2.591   1.682   1.657
 1554  SOL  HW1 4809   2.527   1.626   1.702
 1554  SOL  HW2 4810   2.564   1.772   1.680
 1555  SOL   OW 4811   1.131   0.685   3.810
 1555  SOL  HW1 4812   1.073   0.702   3.885
 1555  SOL  HW2 4813   1.100   0.745   3.742
 1556  SOL   OW 4814   1.010   3.771   3.943
 1556  SOL  HW1 4815   0.931   3.789   3.892
 1556  SOL  HW2 4816   1.037   3.683   3.916
 1557  SOL   OW 4817   2.516   1.373   0.554
 1557  SOL  HW1 4818   2.569   1.407   0.482
 1557  SOL  HW2 4819   2.532   1.278   0.552
 1558  SOL   OW 4820   0.269   1.778   1.291
 1558  SOL  HW1 4821   0.205   1.845   1.314
 1558  SOL  HW2 4822   0.234   1.737   1.212
 1559  SOL   OW 4823   1.370   3.047   1.480
 1559  SOL  HW1 4824   1.296   2.992   1.506
 1559  SOL  HW2 4825   1.444   2.986   1.473
 1560  SOL   OW 4826   0.966   1.893   3.744
 1560  SOL  HW1 4827   1.011   1.869   3.663
 1560  SOL  HW2 4828   1.036   1.903   3.809
 1561  SOL   OW 4829   0.861   3.243   2.190
 1561  SOL  HW1 4830   0.919   3.253   2.114
 1561  SOL  HW2 4831   0.795   3.179   2.162
 1562  SOL   OW 4832   2.519   2.883   1.041
 1562  SOL  HW1 4833   2.474   2.799   1.052
 1562  SOL  HW2 4834   2.477   2.923   0.965
 1563  SOL   OW 4835   1.193   1.234   3.556
 1563  SOL  HW1 4836   1.185   1.212   3.649
 1563  SOL  HW2 4837   1.107   1.214   3.519
 1564  SOL   OW 4838   2.735   0.637   0.208
 1564  SOL  HW1 4839   2.823   0.614   0.178
 1564  SOL  HW2 4840   2.677   0.604   0.140
 1565  SOL   OW 4841   0.903   3.009   2.868
 1565  SOL  HW1 4842   0.896   2.999   2.773
 1565  SOL  HW2 4843   0.880   3.101   2.884
 1566  SOL   OW 4844   3.924   3.095   0.675
 1566  SOL  HW1 4845   3.883   3.173   0.709
 1566  SOL  HW2 4846   3.955   3.120   0.588
 1567  SOL   OW 4847   1.774   3.558   2.494
 1567  SOL  HW1 4848   1.688   3.518   2.506
 1567  SOL  HW2 4849   1.795   3.597   2.579
 1568  SOL   OW 4850   2.274   3.816   0.192
 1568  SOL  HW1 4851   2.196   3.815   0.247
 1568  SOL  HW2 4852   2.245   3.775   0.110
 1569  SOL   OW 4853   1.419   0.815   1.407
 1569  SOL  HW1 4854   1.372   0.739   1.440
 1569  SOL  HW2 4855   1.418   0.878   1.479
 1570  SOL   OW 4856   3.904   0.325   1.797
 1570  SOL  HW1 4857   3.858   0.321   1.881
 1570  SOL  HW2 4858   3.992   0.292   1.816
 1571  SOL   OW 4859   0.845   1.140   2.753
 1571  SOL  HW1 4860   0.813   1.211   2.697
 1571  SOL  HW2 4861   0.839   1.062   2.699
 1572  SOL   OW 4862   3.768   3.157   0.043
 1572  SOL  HW1 4863   3.773   3.227  -0.021
 1572  SOL  HW2 4864   3.843   3.100   0.023
 1573  SOL   OW 4865   0.530   2.589   0.905
 1573  SOL  HW1 4866   0.538   2.632   0.820
 1573  SOL  HW2 4867   0.478   2.511   0.887
 1574  SOL   OW 4868   2.897   0.333   2.860
 1574  SOL  HW1 4869   2.950   0.262   2.895
 1574  SOL  HW2 4870   2.838   0.290   2.798
 1575  SOL   OW 4871   0.984   3.587   3.049
 1575  SOL  HW1 4872   0.895   3.553   3.042
 1575  SOL  HW2 4873   1.038   3.510   3.064
 1576  SOL   OW 4874   2.932   2.714   1.331
 1576  SOL  HW1 4875   2.850   2.695   1.377
 1576  SOL  HW2 4876   2.915   2.796   1.284
 1577  SOL   OW 4877   3.006   2.047   2.014
 1577  SOL  HW1 4878   2.961   2.131   2.025
 1577  SOL  HW2 4879   3.077   2.066   1.953
 1578  SOL   OW 4880   0.821   0.073   3.433
 1578  SOL  HW1 4881   0.832   0.153   3.381
 1578  SOL  HW2 4882   0.909   0.035   3.438
 1579  SOL   OW 4883   3.478   0.064   2.686
 1579  SOL  HW1 4884   3.451   0.152   2.713
 1579  SOL  HW2 4885   3.460   0.009   2.763
 1580  SOL   OW 4886   2.885   3.002   1.722
 1580  SOL  HW1 4887   2.824   2.986   1.794
 1580  SOL  HW2 4888   2.933   2.919   1.713
 1581  SOL   OW 4889   2.023   2.867   2.940
 1581  SOL  HW1 4890   2.049   2.878   2.849
 1581  SOL  HW2 4891   2.094   2.909   2.990
 1582  SOL   OW 4892   0.588   3.095   2.727
 1582  SOL  HW1 4893   0.581   3.098   2.631
 1582  SOL  HW2 4894   0.540   3.017   2.752
 1583  SOL   OW 4895   0.528   1.274   3.091
 1583  SOL  HW1 4896   0.473   1.312   3.160
 1583  SOL  HW2 4897   0.471   1.274   3.014
 1584  SOL   OW 4898   3.348   1.890   1.459
 1584  SOL  HW1 4899   3.285   1.926   1.397
 1584  SOL  HW2 4900   3.382   1.811   1.415
 1585  SOL   OW 4901   2.734   2.705   1.566
 1585  SOL  HW1 4902   2.646   2.732   1.592
 1585  SOL  HW2 4903   2.724   2.614   1.539
 1586  SOL   OW 4904   1.071   0.572   1.099
 1586  SOL  HW1 4905   1.124   0.593   1.022
 1586  SOL  HW2 4906   1.090   0.643   1.161
 1587  SOL   OW 4907   2.872   1.119   0.247
 1587  SOL  HW1 4908   2.876   1.123   0.151
 1587  SOL  HW2 4909   2.954   1.078   0.273
 1588  SOL   OW 4910   0.473   3.996   1.087
 1588  SOL  HW1 4911   0.423   3.961   1.161
 1588  SOL  HW2 4912   0.463   3.929   1.018
 1589  SOL   OW 4913   2.013   0.127   3.161
 1589  SOL  HW1 4914   2.025   0.074   3.082
 1589  SOL  HW2 4915   2.062   0.208   3.144
 1590  SOL   OW 4916   2.365   1.834   1.245
 1590  SOL  HW1 4917   2.335   1.911   1.198
 1590  SOL  HW2 4918   2.358   1.859   1.338
 1591  SOL   OW 4919   1.093   3.888   1.207
 1591  SOL  HW1 4920   1.164   3.947   1.228
 1591  SOL  HW2 4921   1.085   3.894   1.111
 1592  SOL   OW 4922   3.896   1.458   0.781
 1592  SOL  HW1 4923   3.830   1.524   0.801
 1592  SOL  HW2 4924   3.855   1.375   0.807
 1593  SOL   OW 4925   3.013   1.983   3.604
 1593  SOL  HW1 4926   2.978   2.047   3.666
 1593  SOL  HW2 4927   2.943   1.969   3.541
 1594  SOL   OW 4928   1.198   2.649   3.036
 1594  SOL  HW1 4929   1.252   2.672   3.112
 1594  SOL  HW2 4930   1.260   2.645   2.963
 1595  SOL   OW 4931   0.907   2.573   2.415
 1595  SOL  HW1 4932   0.812   2.587   2.414
 1595  SOL  HW2 4933   0.926   2.542   2.504
 1596  SOL   OW 4934   4.020   0.390   1.158
 1596  SOL  HW1 4935   4.022   0.340   1.077
 1596  SOL  HW2 4936   3.936   0.436   1.156
 1597  SOL   OW 4937   1.837   0.494   2.356
 1597  SOL  HW1 4938   1.808   0.485   2.447
 1597  SOL  HW2 4939   1.760   0.526   2.309
 1598  SOL   OW 4940   3.985   2.321   2.480
 1598  SOL  HW1 4941   4.033   2.296   2.401
 1598  SOL  HW2 4942   3.942   2.404   2.457
 1599  SOL   OW 4943   0.844   3.075   0.641
 1599  SOL  HW1 4944   0.899   3.082   0.563
 1599  SOL  HW2 4945   0.875   2.995   0.685
 1600  SOL   OW 4946   1.156   1.943   1.209
 1600  SOL  HW1 4947   1.190   1.936   1.299
 1600  SOL  HW2 4948   1.081   2.002   1.217
 1601  SOL   OW 4949   2.242   2.311   1.715
 1601  SOL  HW1 4950   2.300   2.254   1.766
 1601  SOL  HW2 4951   2.301   2.357   1.656
 1602  SOL   OW 4952   1.097   2.921   3.766
 1602  SOL  HW1 4953   1.040   2.998   3.769
 1602  SOL  HW2 4954   1.094   2.893   3.674
 1603  SOL   OW 4955   1.046   3.205   1.304
 1603  SOL  HW1 4956   1.086   3.119   1.322
 1603  SOL  HW2 4957   1.056   3.253   1.385
 1604  SOL   OW 4958   2.247   2.834   0.551
 1604  SOL  HW1 4959   2.252   2.740   0.565
 1604  SOL  HW2 4960   2.208   2.868   0.631
 1605  SOL   OW 4961   2.109   0.595   2.704
 1605  SOL  HW1 4962   2.037   0.604   2.766
 1605  SOL  HW2 4963   2.089   0.657   2.634
 1606  SOL   OW 4964   0.006   3.419   3.590
 1606  SOL  HW1 4965   0.012   3.490   3.526
 1606  SOL  HW2 4966   0.097   3.403   3.616
 1607  SOL   OW 4967   1.002   1.561   3.412
 1607  SOL  HW1 4968   1.026   1.606   3.331
 1607  SOL  HW2 4969   0.928   1.610   3.446
 1608  SOL   OW 4970   0.646   1.738   2.382
 1608  SOL  HW1 4971   0.575   1.709   2.325
 1608  SOL  HW2 4972   0.683   1.814   2.338
 1609  SOL   OW 4973   2.758   2.736   2.171
 1609  SOL  HW1 4974   2.844   2.720   2.133
 1609  SOL  HW2 4975   2.732   2.822   2.137
 1610  SOL   OW 4976   2.050   2.560   3.157
 1610  SOL  HW1 4977   2.022   2.545   3.066
 1610  SOL  HW2 4978   2.077   2.474   3.188
 1611  SOL   OW 4979   0.713   1.853   3.686
 1611  SOL  HW1 4980   0.677   1.765   3.682
 1611  SOL  HW2 4981   0.806   1.840   3.705
 1612  SOL   OW 4982   2.947   0.206   3.977
 1612  SOL  HW1 4983   2.974   0.191   3.886
 1612  SOL  HW2 4984   2.973   0.126   4.023
 1613  SOL   OW 4985   1.630   0.011   2.648
 1613  SOL  HW1 4986   1.568  -0.042   2.699
 1613  SOL  HW2 4987   1.639   0.091   2.699
 1614  SOL   OW 4988   2.136   3.905   1.892
 1614  SOL  HW1 4989   2.080   3.891   1.969
 1614  SOL  HW2 4990   2.211   3.955   1.926
 1615  SOL   OW 4991   2.528   2.706   0.608
 1615  SOL  HW1 4992   2.530   2.694   0.513
 1615  SOL  HW2 4993   2.457   2.649   0.637
 1616  SOL   OW 4994   3.540   1.290   1.697
 1616  SOL  HW1 4995   3.610   1.276   1.633
 1616  SOL  HW2 4996   3.531   1.206   1.741
 1617  SOL   OW 4997   1.066   3.199   0.439
 1617  SOL  HW1 4998   1.134   3.138   0.469
 1617  SOL  HW2 4999   1.062   3.266   0.507
 1618  SOL   OW 5000   3.000   1.573   0.985
 1618  SOL  HW1 5001   2.971   1.501   1.041
 1618  SOL  HW2 5002   2.920   1.617   0.958
 1619  SOL   OW 5003   1.640   2.574   2.679
 1619  SOL  HW1 5004   1.662   2.492   2.724
 1619  SOL  HW2 5005   1.637   2.550   2.587
 1620  SOL   OW 5006   1.117   0.945   2.261
 1620  SOL  HW1 5007   1.075   1.009   2.319
 1620  SOL  HW2 5008   1.121   0.865   2.313
 1621  SOL   OW 5009   1.011   0.898   2.815
 1621  SOL  HW1 5010   1.097   0.900   2.856
 1621  SOL  HW2 5011   1.027   0.877   2.723
 1622  SOL   OW 5012   0.462   1.432   2.692
 1622  SOL  HW1 5013   0.520   1.503   2.662
 1622  SOL  HW2 5014   0.393   1.429   2.626
 1623  SOL   OW 5015   1.817   0.452   3.317
 1623  SOL  HW1 5016   1.802   0.397   3.240
 1623  SOL  HW2 5017   1.802   0.542   3.286
 1624  SOL   OW 5018   3.168   1.669   0.352
 1624  SOL  HW1 5019   3.166   1.581   0.315
 1624  SOL  HW2 5020   3.166   1.727   0.277
 1625  SOL   OW 5021   0.897   3.217   3.101
 1625  SOL  HW1 5022   0.804   3.215   3.080
 1625  SOL  HW2 5023   0.924   3.125   3.101
 1626  SOL   OW 5024   2.752   0.238   0.923
 1626  SOL  HW1 5025   2.809   0.268   0.993
 1626  SOL  HW2 5026   2.764   0.301   0.853
 1627  SOL   OW 5027   1.756   3.851   0.881
 1627  SOL  HW1 5028   1.744   3.768   0.834
 1627  SOL  HW2 5029   1.668   3.873   0.912
 1628  SOL   OW 5030   0.002   0.590   2.932
 1628  SOL  HW1 5031   0.039   0.510   2.969
 1628  SOL  HW2 5032   0.059   0.660   2.964
 1629  SOL   OW 5033   0.870   1.591   1.412
 1629  SOL  HW1 5034   0.873   1.644   1.332
 1629  SOL  HW2 5035   0.911   1.508   1.387
 1630  SOL   OW 5036   1.684   3.674   1.589
 1630  SOL  HW1 5037   1.611   3.657   1.649
 1630  SOL  HW2 5038   1.748   3.722   1.641
 1631  SOL   OW 5039   3.609   2.925   0.543
 1631  SOL  HW1 5040   3.576   3.005   0.503
 1631  SOL  HW2 5041   3.630   2.949   0.633
 1632  SOL   OW 5042   0.919   3.755   2.594
 1632  SOL  HW1 5043   0.966   3.751   2.511
 1632  SOL  HW2 5044   0.967   3.696   2.652
 1633  SOL   OW 5045   1.175   1.645   3.199
 1633  SOL  HW1 5046   1.176   1.594   3.118
 1633  SOL  HW2 5047   1.256   1.696   3.196
 1634  SOL   OW 5048   0.241   3.654   3.627
 1634  SOL  HW1 5049   0.241   3.583   3.691
 1634  SOL  HW2 5050   0.329   3.651   3.588
 1635  SOL   OW 5051   1.122   3.102   3.362
 1635  SOL  HW1 5052   1.026   3.106   3.356
 1635  SOL  HW2 5053   1.148   3.192   3.382
 1636  SOL   OW 5054   3.236   2.937   3.315
 1636  SOL  HW1 5055   3.160   2.882   3.296
 1636  SOL  HW2 5056   3.223   2.966   3.406
 1637  SOL   OW 5057   3.044   3.454   1.576
 1637  SOL  HW1 5058   2.958   3.416   1.593
 1637  SOL  HW2 5059   3.034   3.499   1.492
 1638  SOL   OW 5060   3.477   3.637   2.527
 1638  SOL  HW1 5061   3.493   3.543   2.516
 1638  SOL  HW2 5062   3.531   3.678   2.459
 1639  SOL   OW 5063   3.884   2.553   2.872
 1639  SOL  HW1 5064   3.836   2.493   2.815
 1639  SOL  HW2 5065   3.821   2.623   2.891
 1640  SOL   OW 5066   0.157   1.758   0.316
 1640  SOL  HW1 5067   0.093   1.695   0.282
 1640  SOL  HW2 5068   0.235   1.706   0.334
 1641  SOL   OW 5069   3.623   3.019   3.617
 1641  SOL  HW1 5070   3.711   3.047   3.589
 1641  SOL  HW2 5071   3.594   3.089   3.675
 1642  SOL   OW 5072   0.447   3.085   1.785
 1642  SOL  HW1 5073   0.468   3.081   1.692
 1642  SOL  HW2 5074   0.470   2.998   1.818
 1643  SOL   OW 5075   1.155   3.302   0.039
 1643  SOL  HW1 5076   1.060   3.293   0.038
 1643  SOL  HW2 5077   1.171   3.394   0.059
 1644  SOL   OW 5078   0.884   0.817   1.546
 1644  SOL  HW1 5079   0.879   0.722   1.548
 1644  SOL  HW2 5080   0.910   0.839   1.456
 1645  SOL   OW 5081   1.467   0.315   1.759
 1645  SOL  HW1 5082   1.474   0.247   1.692
 1645  SOL  HW2 5083   1.475   0.267   1.842
 1646  SOL   OW 5084   1.783   2.503   0.334
 1646  SOL  HW1 5085   1.712   2.509   0.270
 1646  SOL  HW2 5086   1.791   2.592   0.370
 1647  SOL   OW 5087   2.174   1.714   3.583
 1647  SOL  HW1 5088   2.208   1.676   3.663
 1647  SOL  HW2 5089   2.251   1.742   3.534
 1648  SOL   OW 5090   0.216   2.088   3.390
 1648  SOL  HW1 5091   0.238   2.087   3.297
 1648  SOL  HW2 5092   0.141   2.147   3.396
 1649  SOL   OW 5093   3.984   0.828   3.366
 1649  SOL  HW1 5094   3.901   0.824   3.319
 1649  SOL  HW2 5095   4.017   0.917   3.351
 1650  SOL   OW 5096   0.513   0.110   3.687
 1650  SOL  HW1 5097   0.553   0.039   3.637
 1650  SOL  HW2 5098   0.507   0.077   3.776
 1651  SOL   OW 5099   2.837   1.905   0.676
 1651  SOL  HW1 5100   2.820   1.989   0.718
 1651  SOL  HW2 5101   2.804   1.840   0.738
 1652  SOL   OW 5102   3.766   2.087   2.563
 1652  SOL  HW1 5103   3.793   2.165   2.611
 1652  SOL  HW2 5104   3.683   2.112   2.522
 1653  SOL   OW 5105   1.826   0.178   3.903
 1653  SOL  HW1 5106   1.910   0.133   3.900
 1653  SOL  HW2 5107   1.766   0.116   3.945
 1654  SOL   OW 5108   1.826   1.036   0.187
 1654  SOL  HW1 5109   1.751   0.999   0.234
 1654  SOL  HW2 5110   1.892   0.966   0.189
 1655  SOL   OW 5111   3.541   1.873   3.067
 1655  SOL  HW1 5112   3.622   1.825   3.086
 1655  SOL  HW2 5113   3.514   1.909   3.152
 1656  SOL   OW 5114   1.178   1.789   3.636
 1656  SOL  HW1 5115   1.176   1.863   3.575
 1656  SOL  HW2 5116   1.267   1.755   3.629
 1657  SOL   OW 5117   1.397   3.297   1.398
 1657  SOL  HW1 5118   1.310   3.288   1.435
 1657  SOL  HW2 5119   1.427   3.208   1.383
 1658  SOL   OW 5120   1.496   2.654   1.754
 1658  SOL  HW1 5121   1.516   2.657   1.847
 1658  SOL  HW2 5122   1.430   2.586   1.745
 1659  SOL   OW 5123   1.691   2.415   1.478
 1659  SOL  HW1 5124   1.729   2.344   1.530
 1659  SOL  HW2 5125   1.603   2.383   1.456
 1660  SOL   OW 5126   3.149   0.163   2.785
 1660  SOL  HW1 5127   3.070   0.194   2.740
 1660  SOL  HW2 5128   3.145   0.067   2.778
 1661  SOL   OW 5129   3.617   2.909   1.277
 1661  SOL  HW1 5130   3.678   2.863   1.220
 1661  SOL  HW2 5131   3.576   2.975   1.221
 1662  SOL   OW 5132   0.426   0.084   2.127
 1662  SOL  HW1 5133   0.429  -0.004   2.089
 1662  SOL  HW2 5134   0.332   0.105   2.130
 1663  SOL   OW 5135   3.304  -0.006   1.586
 1663  SOL  HW1 5136   3.329   0.019   1.675
 1663  SOL  HW2 5137   3.384   0.004   1.534
 1664  SOL   OW 5138   1.028   2.692   3.273
 1664  SOL  HW1 5139   1.120   2.668   3.276
 1664  SOL  HW2 5140   0.983   2.612   3.246
 1665  SOL   OW 5141   0.172   3.883   3.955
 1665  SOL  HW1 5142   0.113   3.884   4.031
 1665  SOL  HW2 5143   0.216   3.798   3.960
 1666  SOL   OW 5144   1.476   0.395   0.796
 1666  SOL  HW1 5145   1.553   0.445   0.825
 1666  SOL  HW2 5146   1.447   0.440   0.717
 1667  SOL   OW 5147   2.236   1.106   0.069
 1667  SOL  HW1 5148   2.225   1.127  -0.024
 1667  SOL  HW2 5149   2.324   1.071   0.076
 1668  SOL   OW 5150   2.733   0.721   2.786
 1668  SOL  HW1 5151   2.732   0.670   2.705
 1668  SOL  HW2 5152   2.801   0.678   2.840
 1669  SOL   OW 5153   3.734   2.729   3.425
 1669  SOL  HW1 5154   3.821   2.765   3.443
 1669  SOL  HW2 5155   3.745   2.680   3.343
 1670  SOL   OW 5156   2.336   1.074   2.903
 1670  SOL  HW1 5157   2.298   1.054   2.989
 1670  SOL  HW2 5158   2.306   1.002   2.847
 1671  SOL   OW 5159   3.993   2.173   0.812
 1671  SOL  HW1 5160   3.978   2.139   0.724
 1671  SOL  HW2 5161   3.919   2.232   0.828
 1672  SOL   OW 5162   1.306   3.646   1.734
 1672  SOL  HW1 5163   1.364   3.674   1.805
 1672  SOL  HW2 5164   1.303   3.720   1.675
 1673  SOL   OW 5165   1.151   3.166   2.465
 1673  SOL  HW1 5166   1.106   3.248   2.444
 1673  SOL  HW2 5167   1.125   3.106   2.396
 1674  SOL   OW 5168   1.904   3.037   0.953
 1674  SOL  HW1 5169   1.977   3.099   0.945
 1674  SOL  HW2 5170   1.827   3.093   0.965
 1675  SOL   OW 5171   2.336   0.178   0.887
 1675  SOL  HW1 5172   2.279   0.234   0.940
 1675  SOL  HW2 5173   2.410   0.234   0.865
 1676  SOL   OW 5174   0.430   3.103   0.976
 1676  SOL  HW1 5175   0.355   3.118   1.033
 1676  SOL  HW2 5176   0.430   3.008   0.961
 1677  SOL   OW 5177   1.644   3.452   0.538
 1677  SOL  HW1 5178   1.641   3.377   0.479
 1677  SOL  HW2 5179   1.565   3.443   0.592
 1678  SOL   OW 5180   1.172   1.638   0.823
 1678  SOL  HW1 5181   1.131   1.716   0.859
 1678  SOL  HW2 5182   1.214   1.596   0.898
 1679  SOL   OW 5183   1.670   2.237   1.756
 1679  SOL  HW1 5184   1.631   2.173   1.815
 1679  SOL  HW2 5185   1.702   2.185   1.682
 1680  SOL   OW 5186   3.821   3.828   1.001
 1680  SOL  HW1 5187   3.855   3.915   1.026
 1680  SOL  HW2 5188   3.816   3.830   0.906
 1681  SOL   OW 5189   1.336   1.480   2.566
 1681  SOL  HW1 5190   1.419   1.433   2.573
 1681  SOL  HW2 5191   1.271   1.421   2.605
 1682  SOL   OW 5192   1.353   0.886   1.118
 1682  SOL  HW1 5193   1.423   0.879   1.053
 1682  SOL  HW2 5194   1.399   0.897   1.202
 1683  SOL   OW 5195   3.358   0.912   2.647
 1683  SOL  HW1 5196   3.331   0.928   2.738
 1683  SOL  HW2 5197   3.448   0.882   2.654
 1684  SOL   OW 5198   2.891   0.130   2.659
 1684  SOL  HW1 5199   2.822   0.064   2.650
 1684  SOL  HW2 5200   2.948   0.115   2.584
 1685  SOL   OW 5201   2.023   0.890   3.158
 1685  SOL  HW1 5202   2.113   0.915   3.140
 1685  SOL  HW2 5203   2.010   0.910   3.251
 1686  SOL   OW 5204   0.220   3.206   1.137
 1686  SOL  HW1 5205   0.130   3.176   1.140
 1686  SOL  HW2 5206   0.213   3.301   1.127
 1687  SOL   OW 5207   0.335   3.603   1.814
 1687  SOL  HW1 5208   0.247   3.624   1.847
 1687  SOL  HW2 5209   0.383   3.572   1.890
 1688  SOL   OW 5210   1.484   2.735   1.282
 1688  SOL  HW1 5211   1.403   2.761   1.240
 1688  SOL  HW2 5212   1.488   2.640   1.270
 1689  SOL   OW 5213   2.342   0.585   3.411
 1689  SOL  HW1 5214   2.341   0.513   3.348
 1689  SOL  HW2 5215   2.251   0.590   3.441
 1690  SOL   OW 5216   0.180   0.645   2.721
 1690  SOL  HW1 5217   0.093   0.641   2.760
 1690  SOL  HW2 5218   0.239   0.662   2.795
 1691  SOL   OW 5219   2.115   1.994   3.682
 1691  SOL  HW1 5220   2.100   1.912   3.636
 1691  SOL  HW2 5221   2.094   1.974   3.773
 1692  SOL   OW 5222   1.718   3.349   2.790
 1692  SOL  HW1 5223   1.661   3.277   2.764
 1692  SOL  HW2 5224   1.678   3.427   2.752
 1693  SOL   OW 5225   1.931   2.359   2.678
 1693  SOL  HW1 5226   1.997   2.303   2.637
 1693  SOL  HW2 5227   1.862   2.366   2.613
 1694  SOL   OW 5228   2.191   3.181   1.072
 1694  SOL  HW1 5229   2.142   3.210   1.149
 1694  SOL  HW2 5230   2.153   3.231   0.999
 1695  SOL   OW 5231   0.230   1.507   1.820
 1695  SOL  HW1 5232   0.174   1.434   1.846
 1695  SOL  HW2 5233   0.284   1.473   1.750
 1696  SOL   OW 5234   3.816   3.192   3.377
 1696  SOL  HW1 5235   3.752   3.127   3.348
 1696  SOL  HW2 5236   3.764   3.256   3.426
 1697  SOL   OW 5237   0.829   4.018   2.657
 1697  SOL  HW1 5238   0.893   3.948   2.642
 1697  SOL  HW2 5239   0.749   3.973   2.682
 1698  SOL   OW 5240   3.592   3.679   2.773
 1698  SOL  HW1 5241   3.535   3.667   2.697
 1698  SOL  HW2 5242   3.674   3.712   2.736
 1699  SOL   OW 5243   0.229   1.970   1.542
 1699  SOL  HW1 5244   0.194   1.882   1.547
 1699  SOL  HW2 5245   0.246   1.994   1.634
 1700  SOL   OW 5246   2.846   0.955   3.102
 1700  SOL  HW1 5247   2.821   0.969   3.194
 1700  SOL  HW2 5248   2.765   0.966   3.053
 1701  SOL   OW 5249   1.352   3.582   1.196
 1701  SOL  HW1 5250   1.387   3.578   1.107
 1701  SOL  HW2 5251   1.429   3.573   1.253
 1702  SOL   OW 5252  -0.027   3.932   2.807
 1702  SOL  HW1 5253   0.064   3.943   2.777
 1702  SOL  HW2 5254  -0.018   3.904   2.898
 1703  SOL   OW 5255   3.156   1.871   2.425
 1703  SOL  HW1 5256   3.134   1.906   2.511
 1703  SOL  HW2 5257   3.160   1.948   2.368
 1704  SOL   OW 5258   1.870   1.260   0.904
 1704  SOL  HW1 5259   1.889   1.278   0.812
 1704  SOL  HW2 5260   1.886   1.167   0.915
 1705  SOL   OW 5261   3.191   1.320   3.675
 1705  SOL  HW1 5262   3.119   1.260   3.694
 1705  SOL  HW2 5263   3.150   1.394   3.630
 1706  SOL   OW 5264   0.722   3.883   0.732
 1706  SOL  HW1 5265   0.755   3.921   0.814
 1706  SOL  HW2 5266   0.750   3.944   0.664
 1707  SOL   OW 5267   2.014   2.268   3.780
 1707  SOL  HW1 5268   2.096   2.231   3.746
 1707  SOL  HW2 5269   1.945   2.219   3.733
 1708  SOL   OW 5270   2.128   0.340   2.471
 1708  SOL  HW1 5271   2.199   0.389   2.512
 1708  SOL  HW2 5272   2.054   0.349   2.532
 1709  SOL   OW 5273   1.788   1.372   1.950
 1709  SOL  HW1 5274   1.851   1.434   1.913
 1709  SOL  HW2 5275   1.799   1.380   2.044
 1710  SOL   OW 5276   3.160   3.160   1.667
 1710  SOL  HW1 5277   3.193   3.149   1.756
 1710  SOL  HW2 5278   3.068   3.136   1.672
 1711  SOL   OW 5279   3.004   1.398   1.887
 1711  SOL  HW1 5280   2.981   1.407   1.795
 1711  SOL  HW2 5281   3.055   1.476   1.907
 1712  SOL   OW 5282   2.893   1.651   1.734
 1712  SOL  HW1 5283   2.975   1.701   1.732
 1712  SOL  HW2 5284   2.910   1.575   1.678
 1713  SOL   OW 5285   2.638   4.000   0.047
 1713  SOL  HW1 5286   2.589   3.953   0.114
 1713  SOL  HW2 5287   2.730   3.991   0.073
 1714  SOL   OW 5288   3.670   0.658   0.573
 1714  SOL  HW1 5289   3.731   0.609   0.629
 1714  SOL  HW2 5290   3.609   0.700   0.634
 1715  SOL   OW 5291   1.817   2.634   1.336
 1715  SOL  HW1 5292   1.803   2.630   1.242
 1715  SOL  HW2 5293   1.776   2.555   1.370
 1716  SOL   OW 5294   2.862   1.683   0.174
 1716  SOL  HW1 5295   2.847   1.732   0.255
 1716  SOL  HW2 5296   2.902   1.600   0.203
 1717  SOL   OW 5297   4.021   2.619   0.938
 1717  SOL  HW1 5298   4.076   2.683   0.894
 1717  SOL  HW2 5299   3.940   2.616   0.886
 1718  SOL   OW 5300   3.336   3.381   1.587
 1718  SOL  HW1 5301   3.345   3.293   1.549
 1718  SOL  HW2 5302   3.242   3.392   1.599
 1719  SOL   OW 5303   3.526   2.788   3.594
 1719  SOL  HW1 5304   3.587   2.721   3.561
 1719  SOL  HW2 5305   3.579   2.867   3.602
 1720  SOL   OW 5306   2.661   3.657   1.256
 1720  SOL  HW1 5307   2.579   3.704   1.268
 1720  SOL  HW2 5308   2.729   3.725   1.254
 1721  SOL   OW 5309   2.723   2.118   1.928
 1721  SOL  HW1 5310   2.671   2.087   2.002
 1721  SOL  HW2 5311   2.749   2.039   1.882
 1722  SOL   OW 5312   1.409   3.187   2.561
 1722  SOL  HW1 5313   1.318   3.158   2.555
 1722  SOL  HW2 5314   1.432   3.174   2.653
 1723  SOL   OW 5315   3.627   3.374   3.502
 1723  SOL  HW1 5316   3.541   3.339   3.479
 1723  SOL  HW2 5317   3.653   3.325   3.580
 1724  SOL   OW 5318   1.608   1.025   0.345
 1724  SOL  HW1 5319   1.522   1.065   0.358
 1724  SOL  HW2 5320   1.650   1.028   0.431
 1725  SOL   OW 5321   2.522   0.664   1.383
 1725  SOL  HW1 5322   2.569   0.585   1.410
 1725  SOL  HW2 5323   2.590   0.725   1.355
 1726  SOL   OW 5324   0.202   0.495   0.158
 1726  SOL  HW1 5325   0.294   0.473   0.149
 1726  SOL  HW2 5326   0.186   0.495   0.253
 1727  SOL   OW 5327   3.138   1.914   3.280
 1727  SOL  HW1 5328   3.193   1.836   3.287
 1727  SOL  HW2 5329   3.050   1.880   3.265
 1728  SOL   OW 5330   2.920   1.471   1.307
 1728  SOL  HW1 5331   2.841   1.517   1.334
 1728  SOL  HW2 5332   2.893   1.380   1.297
 1729  SOL   OW 5333   1.984   2.569   2.872
 1729  SOL  HW1 5334   1.999   2.659   2.843
 1729  SOL  HW2 5335   1.955   2.523   2.793
 1730  SOL   OW 5336   2.514   0.233   0.547
 1730  SOL  HW1 5337   2.542   0.323   0.530
 1730  SOL  HW2 5338   2.584   0.196   0.601
 1731  SOL   OW 5339   3.659   2.575   1.526
 1731  SOL  HW1 5340   3.715   2.651   1.538
 1731  SOL  HW2 5341   3.589   2.606   1.468
 1732  SOL   OW 5342   2.079   2.551   0.377
 1732  SOL  HW1 5343   1.994   2.581   0.409
 1732  SOL  HW2 5344   2.103   2.478   0.436
 1733  SOL   OW 5345   1.799   3.443   1.761
 1733  SOL  HW1 5346   1.785   3.537   1.750
 1733  SOL  HW2 5347   1.892   3.429   1.743
 1734  SOL   OW 5348   0.884   2.665   2.105
 1734  SOL  HW1 5349   0.907   2.702   2.190
 1734  SOL  HW2 5350   0.922   2.725   2.041
 1735  SOL   OW 5351   0.132   1.964   0.601
 1735  SOL  HW1 5352   0.070   1.893   0.582
 1735  SOL  HW2 5353   0.140   1.964   0.696
 1736  SOL   OW 5354   2.589   0.867   0.365
 1736  SOL  HW1 5355   2.593   0.960   0.342
 1736  SOL  HW2 5356   2.542   0.865   0.449
 1737  SOL   OW 5357   1.774   0.276   1.119
 1737  SOL  HW1 5358   1.730   0.194   1.097
 1737  SOL  HW2 5359   1.792   0.271   1.212
 1738  SOL   OW 5360   1.120   3.374   3.096
 1738  SOL  HW1 5361   1.170   3.360   3.176
 1738  SOL  HW2 5362   1.042   3.319   3.106
 1739  SOL   OW 5363   2.488   3.113   0.404
 1739  SOL  HW1 5364   2.455   3.192   0.362
 1739  SOL  HW2 5365   2.455   3.041   0.350
 1740  SOL   OW 5366   3.979   0.129   3.694
 1740  SOL  HW1 5367   3.903   0.071   3.693
 1740  SOL  HW2 5368   4.039   0.091   3.629
 1741  SOL   OW 5369   2.624   3.473   0.712
 1741  SOL  HW1 5370   2.720   3.462   0.710
 1741  SOL  HW2 5371   2.604   3.492   0.803
 1742  SOL   OW 5372   3.663   3.306   3.113
 1742  SOL  HW1 5373   3.651   3.349   3.028
 1742  SOL  HW2 5374   3.701   3.221   3.092
 1743  SOL   OW 5375   2.601   3.649   3.536
 1743  SOL  HW1 5376   2.660   3.641   3.460
 1743  SOL  HW2 5377   2.528   3.703   3.504
 1744  SOL   OW 5378   2.351   0.849   1.753
 1744  SOL  HW1 5379   2.269   0.885   1.720
 1744  SOL  HW2 5380   2.334   0.754   1.759
 1745  SOL   OW 5381   3.596   0.971   0.637
 1745  SOL  HW1 5382   3.563   1.013   0.717
 1745  SOL  HW2 5383   3.691   0.981   0.641
 1746  SOL   OW 5384   0.441   1.140   0.830
 1746  SOL  HW1 5385   0.385   1.179   0.762
 1746  SOL  HW2 5386   0.379   1.113   0.898
 1747  SOL   OW 5387   3.635   3.399   1.656
 1747  SOL  HW1 5388   3.612   3.400   1.563
 1747  SOL  HW2 5389   3.552   3.392   1.702
 1748  SOL   OW 5390   0.260   0.822   1.174
 1748  SOL  HW1 5391   0.324   0.751   1.171
 1748  SOL  HW2 5392   0.217   0.812   1.259
 1749  SOL   OW 5393   3.941   0.296   0.507
 1749  SOL  HW1 5394   3.851   0.265   0.521
 1749  SOL  HW2 5395   3.991   0.217   0.489
 1750  SOL   OW 5396   1.528   0.565   2.815
 1750  SOL  HW1 5397   1.472   0.641   2.829
 1750  SOL  HW2 5398   1.586   0.563   2.892
 1751  SOL   OW 5399   1.919   1.466   2.427
 1751  SOL  HW1 5400   1.898   1.438   2.516
 1751  SOL  HW2 5401   1.994   1.524   2.437
 1752  SOL   OW 5402   0.399   2.696   0.530
 1752  SOL  HW1 5403   0.434   2.777   0.568
 1752  SOL  HW2 5404   0.321   2.724   0.483
 1753  SOL   OW 5405   0.213   2.237   1.734
 1753  SOL  HW1 5406   0.260   2.155   1.743
 1753  SOL  HW2 5407   0.127   2.212   1.699
 1754  SOL   OW 5408   0.707   2.802   1.544
 1754  SOL  HW1 5409   0.792   2.759   1.542
 1754  SOL  HW2 5410   0.655   2.753   1.480
 1755  SOL   OW 5411   1.265   1.852   1.481
 1755  SOL  HW1 5412   1.256   1.916   1.552
 1755  SOL  HW2 5413   1.178   1.814   1.472
 1756  SOL   OW 5414   0.557   1.576   0.111
 1756  SOL  HW1 5415   0.645   1.552   0.081
 1756  SOL  HW2 5416   0.502   1.564   0.034
 1757  SOL   OW 5417   1.565   3.516   1.375
 1757  SOL  HW1 5418   1.625   3.521   1.449
 1757  SOL  HW2 5419   1.530   3.427   1.378
 1758  SOL   OW 5420   3.737   1.157   0.147
 1758  SOL  HW1 5421   3.825   1.122   0.161
 1758  SOL  HW2 5422   3.678   1.087   0.175
 1759  SOL   OW 5423   2.484   0.301   1.159
 1759  SOL  HW1 5424   2.532   0.250   1.224
 1759  SOL  HW2 5425   2.548   0.365   1.128
 1760  SOL   OW 5426   1.501   3.827   2.800
 1760  SOL  HW1 5427   1.411   3.831   2.766
 1760  SOL  HW2 5428   1.514   3.734   2.820
 1761  SOL   OW 5429   3.999   2.743   1.674
 1761  SOL  HW1 5430   3.966   2.722   1.587
 1761  SOL  HW2 5431   4.069   2.806   1.659
 1762  SOL   OW 5432   2.188   1.611   0.528
 1762  SOL  HW1 5433   2.157   1.521   0.544
 1762  SOL  HW2 5434   2.276   1.612   0.566
 1763  SOL   OW 5435   0.577   0.517   0.225
 1763  SOL  HW1 5436   0.588   0.432   0.181
 1763  SOL  HW2 5437   0.571   0.580   0.153
 1764  SOL   OW 5438   3.518   2.529   2.437
 1764  SOL  HW1 5439   3.487   2.590   2.503
 1764  SOL  HW2 5440   3.529   2.583   2.358
 1765  SOL   OW 5441   2.281   1.668   3.850
 1765  SOL  HW1 5442   2.344   1.629   3.911
 1765  SOL  HW2 5443   2.197   1.630   3.874
 1766  SOL   OW 5444   2.373   0.914   2.536
 1766  SOL  HW1 5445   2.432   0.963   2.593
 1766  SOL  HW2 5446   2.374   0.962   2.454
 1767  SOL   OW 5447   0.409   1.390   0.246
 1767  SOL  HW1 5448   0.440   1.438   0.169
 1767  SOL  HW2 5449   0.459   1.308   0.245
 1768  SOL   OW 5450   1.232   2.202   3.722
 1768  SOL  HW1 5451   1.245   2.256   3.644
 1768  SOL  HW2 5452   1.314   2.209   3.770
 1769  SOL   OW 5453   2.438   0.231   2.139
 1769  SOL  HW1 5454   2.529   0.201   2.143
 1769  SOL  HW2 5455   2.423   0.272   2.224
 1770  SOL   OW 5456   3.738   1.214   1.519
 1770  SOL  HW1 5457   3.686   1.134   1.511
 1770  SOL  HW2 5458   3.785   1.219   1.435
 1771  SOL   OW 5459   3.875   3.040   3.025
 1771  SOL  HW1 5460   3.908   3.000   3.105
 1771  SOL  HW2 5461   3.782   3.019   3.024
 1772  SOL   OW 5462   1.275   3.022   3.120
 1772  SOL  HW1 5463   1.215   3.050   3.190
 1772  SOL  HW2 5464   1.224   2.959   3.069
 1773  SOL   OW 5465   3.080   1.825   0.128
 1773  SOL  HW1 5466   3.000   1.772   0.120
 1773  SOL  HW2 5467   3.106   1.843   0.038
 1774  SOL   OW 5468   2.112   0.574   0.174
 1774  SOL  HW1 5469   2.203   0.585   0.202
 1774  SOL  HW2 5470   2.111   0.491   0.127
 1775  SOL   OW 5471   3.916   3.809   2.282
 1775  SOL  HW1 5472   3.868   3.834   2.360
 1775  SOL  HW2 5473   3.916   3.713   2.283
 1776  SOL   OW 5474   0.032   2.490   1.207
 1776  SOL  HW1 5475  -0.002   2.428   1.272
 1776  SOL  HW2 5476  -0.019   2.472   1.128
 1777  SOL   OW 5477   1.403   1.639   3.652
 1777  SOL  HW1 5478   1.480   1.599   3.691
 1777  SOL  HW2 5479   1.383   1.585   3.576
 1778  SOL   OW 5480   2.331   2.882   3.684
 1778  SOL  HW1 5481   2.406   2.849   3.733
 1778  SOL  HW2 5482   2.259   2.824   3.708
 1779  SOL   OW 5483   0.370   0.327   3.972
 1779  SOL  HW1 5484   0.295   0.330   3.912
 1779  SOL  HW2 5485   0.408   0.414   3.968
 1780  SOL   OW 5486   3.486   1.424   3.272
 1780  SOL  HW1 5487   3.560   1.403   3.329
 1780  SOL  HW2 5488   3.414   1.371   3.307
 1781  SOL   OW 5489   2.959   1.055   2.000
 1781  SOL  HW1 5490   2.953   0.985   2.065
 1781  SOL  HW2 5491   3.053   1.066   1.986
 1782  SOL   OW 5492   3.813   0.984   2.758
 1782  SOL  HW1 5493   3.788   0.978   2.666
 1782  SOL  HW2 5494   3.848   1.072   2.768
 1783  SOL   OW 5495   2.090   2.090   0.462
 1783  SOL  HW1 5496   2.068   2.028   0.392
 1783  SOL  HW2 5497   2.186   2.088   0.467
 1784  SOL   OW 5498   0.496   3.982   0.392
 1784  SOL  HW1 5499   0.464   3.995   0.303
 1784  SOL  HW2 5500   0.575   3.929   0.382
 1785  SOL   OW 5501   3.410   1.570   1.315
 1785  SOL  HW1 5502   3.431   1.564   1.408
 1785  SOL  HW2 5503   3.472   1.634   1.280
 1786  SOL   OW 5504   0.212  -0.013   2.703
 1786  SOL  HW1 5505   0.230   0.070   2.659
 1786  SOL  HW2 5506   0.268  -0.011   2.781
 1787  SOL   OW 5507   0.202   1.640   0.586
 1787  SOL  HW1 5508   0.155   1.670   0.508
 1787  SOL  HW2 5509   0.291   1.624   0.555
 1788  SOL   OW 5510   2.134   1.243   2.597
 1788  SOL  HW1 5511   2.071   1.275   2.661
 1788  SOL  HW2 5512   2.080   1.204   2.528
 1789  SOL   OW 5513   1.300   2.455   1.776
 1789  SOL  HW1 5514   1.251   2.387   1.822
 1789  SOL  HW2 5515   1.248   2.535   1.791
 1790  SOL   OW 5516   2.153   2.177   2.623
 1790  SOL  HW1 5517   2.243   2.207   2.634
 1790  SOL  HW2 5518   2.155   2.122   2.545
 1791  SOL   OW 5519   0.778   3.898   1.571
 1791  SOL  HW1 5520   0.838   3.823   1.579
 1791  SOL  HW2 5521   0.727   3.879   1.492
 1792  SOL   OW 5522   2.805   3.317   0.371
 1792  SOL  HW1 5523   2.793   3.402   0.414
 1792  SOL  HW2 5524   2.739   3.314   0.303
 1793  SOL   OW 5525   3.661   2.004   0.251
 1793  SOL  HW1 5526   3.737   2.007   0.193
 1793  SOL  HW2 5527   3.613   1.926   0.224
 1794  SOL   OW 5528   2.917   1.042   4.014
 1794  SOL  HW1 5529   2.946   0.957   4.046
 1794  SOL  HW2 5530   2.824   1.030   3.993
 1795  SOL   OW 5531   0.361   2.407   1.493
 1795  SOL  HW1 5532   0.302   2.476   1.460
 1795  SOL  HW2 5533   0.323   2.383   1.577
 1796  SOL   OW 5534   0.445   3.386   0.409
 1796  SOL  HW1 5535   0.491   3.465   0.380
 1796  SOL  HW2 5536   0.406   3.410   0.493
 1797  SOL   OW 5537   3.917   2.386   1.839
 1797  SOL  HW1 5538   3.927   2.339   1.922
 1797  SOL  HW2 5539   3.958   2.329   1.774
 1798  SOL   OW 5540   1.103  -0.018   1.627
 1798  SOL  HW1 5541   1.143  -0.002   1.713
 1798  SOL  HW2 5542   1.016   0.022   1.634
 1799  SOL   OW 5543   2.301   2.389   0.901
 1799  SOL  HW1 5544   2.228   2.328   0.911
 1799  SOL  HW2 5545   2.365   2.341   0.848
 1800  SOL   OW 5546   1.534   2.805   3.334
 1800  SOL  HW1 5547   1.589   2.766   3.401
 1800  SOL  HW2 5548   1.513   2.893   3.367
 1801  SOL   OW 5549   1.214   0.982   3.994
 1801  SOL  HW1 5550   1.266   0.934   3.929
 1801  SOL  HW2 5551   1.260   0.968   4.077
 1802  SOL   OW 5552   2.341   1.723   2.103
 1802  SOL  HW1 5553   2.368   1.741   2.194
 1802  SOL  HW2 5554   2.248   1.745   2.100
 1803  SOL   OW 5555   0.666   0.685   3.372
 1803  SOL  HW1 5556   0.742   0.662   3.425
 1803  SOL  HW2 5557   0.591   0.655   3.424
 1804  SOL   OW 5558   2.237   0.979   1.184
 1804  SOL  HW1 5559   2.159   0.924   1.179
 1804  SOL  HW2 5560   2.224   1.032   1.263
 1805  SOL   OW 5561   2.670   1.410  -0.018
 1805  SOL  HW1 5562   2.655   1.321   0.011
 1805  SOL  HW2 5563   2.724   1.450   0.051
 1806  SOL   OW 5564   0.156   0.573   1.385
 1806  SOL  HW1 5565   0.120   0.507   1.325
 1806  SOL  HW2 5566   0.080   0.625   1.412
 1807  SOL   OW 5567   0.639   2.196   2.359
 1807  SOL  HW1 5568   0.613   2.275   2.312
 1807  SOL  HW2 5569   0.557   2.159   2.391
 1808  SOL   OW 5570   3.974   2.196   3.022
 1808  SOL  HW1 5571   3.971   2.233   2.934
 1808  SOL  HW2 5572   4.067   2.183   3.040
 1809  SOL   OW 5573   2.315   0.486   1.488
 1809  SOL  HW1 5574   2.324   0.393   1.468
 1809  SOL  HW2 5575   2.339   0.531   1.407
 1810  SOL   OW 5576   3.481   0.489   3.415
 1810  SOL  HW1 5577   3.488   0.410   3.469
 1810  SOL  HW2 5578   3.563   0.492   3.366
 1811  SOL   OW 5579   1.048   1.592   0.192
 1811  SOL  HW1 5580   0.952   1.599   0.197
 1811  SOL  HW2 5581   1.064   1.515   0.137
 1812  SOL   OW 5582   1.679   2.436   2.976
 1812  SOL  HW1 5583   1.711   2.350   3.003
 1812  SOL  HW2 5584   1.754   2.495   2.988
 1813  SOL   OW 5585   1.274   0.033   1.323
 1813  SOL  HW1 5586   1.215   0.078   1.384
 1813  SOL  HW2 5587   1.340   0.098   1.300
 1814  SOL   OW 5588   1.542   3.212   4.002
 1814  SOL  HW1 5589   1.612   3.147   4.011
 1814  SOL  HW2 5590   1.462   3.164   4.021
 1815  SOL   OW 5591   2.419   2.375   2.126
 1815  SOL  HW1 5592   2.357   2.393   2.055
 1815  SOL  HW2 5593   2.365   2.371   2.204
 1816  SOL   OW 5594   3.144   2.116   1.353
 1816  SOL  HW1 5595   3.189   2.069   1.282
 1816  SOL  HW2 5596   3.184   2.202   1.354
 1817  SOL   OW 5597   1.450   3.890   0.887
 1817  SOL  HW1 5598   1.380   3.955   0.881
 1817  SOL  HW2 5599   1.445   3.842   0.804
 1818  SOL   OW 5600   1.438   3.111   2.843
 1818  SOL  HW1 5601   1.494   3.059   2.901
 1818  SOL  HW2 5602   1.351   3.105   2.881
 1819  SOL   OW 5603   3.409   3.313   2.902
 1819  SOL  HW1 5604   3.427   3.253   2.974
 1819  SOL  HW2 5605   3.395   3.398   2.945
 1820  SOL   OW 5606   3.587   2.212   0.646
 1820  SOL  HW1 5607   3.541   2.261   0.714
 1820  SOL  HW2 5608   3.577   2.266   0.567
 1821  SOL   OW 5609   3.304   0.036   0.871
 1821  SOL  HW1 5610   3.251   0.083   0.935
 1821  SOL  HW2 5611   3.314  -0.052   0.906
 1822  SOL   OW 5612   3.258   2.991   2.847
 1822  SOL  HW1 5613   3.350   2.976   2.825
 1822  SOL  HW2 5614   3.221   3.032   2.769
 1823  SOL   OW 5615   0.956   1.454   3.691
 1823  SOL  HW1 5616   1.005   1.474   3.611
 1823  SOL  HW2 5617   1.020   1.464   3.761
 1824  SOL   OW 5618   0.113   1.277   0.006
 1824  SOL  HW1 5619   0.115   1.182   0.018
 1824  SOL  HW2 5620   0.082   1.310   0.091
 1825  SOL   OW 5621   2.020   1.685   1.263
 1825  SOL  HW1 5622   2.012   1.638   1.346
 1825  SOL  HW2 5623   2.046   1.618   1.200
 1826  SOL   OW 5624   2.212   3.513   1.484
 1826  SOL  HW1 5625   2.177   3.535   1.397
 1826  SOL  HW2 5626   2.178   3.582   1.541
 1827  SOL   OW 5627   0.939   2.110   1.260
 1827  SOL  HW1 5628   0.908   2.166   1.189
 1827  SOL  HW2 5629   0.859   2.072   1.297
 1828  SOL   OW 5630   0.331   1.470   2.376
 1828  SOL  HW1 5631   0.274   1.396   2.356
 1828  SOL  HW2 5632   0.274   1.547   2.368
 1829  SOL   OW 5633   1.275   0.652   0.883
 1829  SOL  HW1 5634   1.243   0.589   0.819
 1829  SOL  HW2 5635   1.289   0.733   0.833
 1830  SOL   OW 5636   0.509   1.617   3.217
 1830  SOL  HW1 5637   0.572   1.595   3.285
 1830  SOL  HW2 5638   0.557   1.607   3.135
 1831  SOL   OW 5639   0.984   1.240   0.712
 1831  SOL  HW1 5640   0.944   1.153   0.708
 1831  SOL  HW2 5641   1.068   1.226   0.754
 1832  SOL   OW 5642   2.665   3.768   0.711
 1832  SOL  HW1 5643   2.593   3.759   0.648
 1832  SOL  HW2 5644   2.631   3.730   0.792
 1833  SOL   OW 5645   2.182   3.048   3.444
 1833  SOL  HW1 5646   2.246   2.977   3.452
 1833  SOL  HW2 5647   2.235   3.128   3.446
 1834  SOL   OW 5648   3.122   2.748   2.841
 1834  SOL  HW1 5649   3.141   2.842   2.844
 1834  SOL  HW2 5650   3.064   2.733   2.915
 1835  SOL   OW 5651   3.651   3.397   1.020
 1835  SOL  HW1 5652   3.622   3.442   1.099
 1835  SOL  HW2 5653   3.584   3.416   0.955
 1836  SOL   OW 5654   0.771   0.061   2.264
 1836  SOL  HW1 5655   0.859   0.095   2.280
 1836  SOL  HW2 5656   0.783  -0.033   2.252
 1837  SOL   OW 5657   0.504   2.100   3.868
 1837  SOL  HW1 5658   0.485   2.190   3.894
 1837  SOL  HW2 5659   0.489   2.099   3.773
 1838  SOL   OW 5660   0.375   0.741   2.488
 1838  SOL  HW1 5661   0.347   0.672   2.548
 1838  SOL  HW2 5662   0.300   0.755   2.430
 1839  SOL   OW 5663   1.169   3.643   3.294
 1839  SOL  HW1 5664   1.086   3.606   3.264
 1839  SOL  HW2 5665   1.164   3.638   3.390
 1840  SOL   OW 5666   0.176   3.996   0.932
 1840  SOL  HW1 5667   0.234   4.048   0.877
 1840  SOL  HW2 5668   0.202   4.017   1.021
 1841  SOL   OW 5669   0.015   2.296   0.418
 1841  SOL  HW1 5670   0.078   2.286   0.490
 1841  SOL  HW2 5671  -0.038   2.216   0.421
 1842  SOL   OW 5672   2.576   0.154   1.533
 1842  SOL  HW1 5673   2.564   0.136   1.627
 1842  SOL  HW2 5674   2.653   0.103   1.508
 1843  SOL   OW 5675   3.702   3.924   3.055
 1843  SOL  HW1 5676   3.653   3.946   3.134
 1843  SOL  HW2 5677   3.751   3.845   3.078
 1844  SOL   OW 5678   2.660   1.791   3.761
 1844  SOL  HW1 5679   2.615   1.781   3.677
 1844  SOL  HW2 5680   2.745   1.749   3.748
 1845  SOL   OW 5681   0.372   2.827   1.580
 1845  SOL  HW1 5682   0.450   2.771   1.582
 1845  SOL  HW2 5683   0.307   2.776   1.533
 1846  SOL   OW 5684   2.104   3.258   0.810
 1846  SOL  HW1 5685   2.136   3.217   0.730
 1846  SOL  HW2 5686   2.041   3.324   0.780
 1847  SOL   OW 5687   3.228   2.428   2.526
 1847  SOL  HW1 5688   3.306   2.481   2.513
 1847  SOL  HW2 5689   3.169   2.483   2.577
 1848  SOL   OW 5690   2.830   0.153   3.319
 1848  SOL  HW1 5691   2.868   0.066   3.326
 1848  SOL  HW2 5692   2.786   0.168   3.403
 1849  SOL   OW 5693   3.209   0.414   1.871
 1849  SOL  HW1 5694   3.260   0.432   1.793
 1849  SOL  HW2 5695   3.171   0.498   1.896
 1850  SOL   OW 5696   0.877   0.435   3.903
 1850  SOL  HW1 5697   0.833   0.373   3.844
 1850  SOL  HW2 5698   0.965   0.444   3.867
 1851  SOL   OW 5699   1.772   1.417   1.472
 1851  SOL  HW1 5700   1.710   1.348   1.449
 1851  SOL  HW2 5701   1.807   1.448   1.389
 1852  SOL   OW 5702   2.644   1.501   3.067
 1852  SOL  HW1 5703   2.554   1.467   3.068
 1852  SOL  HW2 5704   2.698   1.426   3.042
 1853  SOL   OW 5705   0.338   0.820   3.751
 1853  SOL  HW1 5706   0.306   0.738   3.789
 1853  SOL  HW2 5707   0.433   0.817   3.765
 1854  SOL   OW 5708   4.041   3.331   3.243
 1854  SOL  HW1 5709   4.009   3.301   3.328
 1854  SOL  HW2 5710   3.963   3.338   3.189
 1855  SOL   OW 5711   2.773   3.394   2.734
 1855  SOL  HW1 5712   2.720   3.340   2.676
 1855  SOL  HW2 5713   2.864   3.372   2.711
 1856  SOL   OW 5714   0.752   3.243   2.458
 1856  SOL  HW1 5715   0.700   3.323   2.462
 1856  SOL  HW2 5716   0.804   3.252   2.378
 1857  SOL   OW 5717   2.999   1.471   3.343
 1857  SOL  HW1 5718   2.916   1.512   3.318
 1857  SOL  HW2 5719   2.986   1.447   3.435
 1858  SOL   OW 5720   1.303   1.695   1.162
 1858  SOL  HW1 5721   1.264   1.777   1.194
 1858  SOL  HW2 5722   1.246   1.627   1.197
 1859  SOL   OW 5723   3.808   0.073   1.650
 1859  SOL  HW1 5724   3.873   0.042   1.713
 1859  SOL  HW2 5725   3.851   0.147   1.606
 1860  SOL   OW 5726   3.441   1.603   1.600
 1860  SOL  HW1 5727   3.446   1.676   1.662
 1860  SOL  HW2 5728   3.496   1.535   1.639
 1861  SOL   OW 5729   3.781   0.601   1.555
 1861  SOL  HW1 5730   3.789   0.677   1.498
 1861  SOL  HW2 5731   3.843   0.617   1.626
 1862  SOL   OW 5732   3.934   0.025   0.448
 1862  SOL  HW1 5733   3.939   0.043   0.354
 1862  SOL  HW2 5734   4.008  -0.033   0.465
 1863  SOL   OW 5735   3.273   0.466   1.234
 1863  SOL  HW1 5736   3.338   0.425   1.291
 1863  SOL  HW2 5737   3.249   0.547   1.279
 1864  SOL   OW 5738   2.538   0.988   1.371
 1864  SOL  HW1 5739   2.484   0.950   1.302
 1864  SOL  HW2 5740   2.475   1.032   1.429
 1865  SOL   OW 5741   0.373   3.403   0.923
 1865  SOL  HW1 5742   0.327   3.438   0.999
 1865  SOL  HW2 5743   0.438   3.343   0.958
 1866  SOL   OW 5744   1.616   3.093   0.487
 1866  SOL  HW1 5745   1.522   3.109   0.489
 1866  SOL  HW2 5746   1.628   3.011   0.535
 1867  SOL   OW 5747   0.135   3.294   0.309
 1867  SOL  HW1 5748   0.086   3.240   0.372
 1867  SOL  HW2 5749   0.211   3.242   0.287
 1868  SOL   OW 5750   2.775   1.789   3.127
 1868  SOL  HW1 5751   2.695   1.805   3.077
 1868  SOL  HW2 5752   2.819   1.719   3.079
 1869  SOL   OW 5753   3.919   1.425   1.631
 1869  SOL  HW1 5754   3.870   1.351   1.595
 1869  SOL  HW2 5755   3.891   1.500   1.578
 1870  SOL   OW 5756   0.714   3.293   3.735
 1870  SOL  HW1 5757   0.626   3.272   3.767
 1870  SOL  HW2 5758   0.717   3.389   3.734
 1871  SOL   OW 5759   1.176   0.772   3.213
 1871  SOL  HW1 5760   1.141   0.740   3.296
 1871  SOL  HW2 5761   1.143   0.712   3.147
 1872  SOL   OW 5762   0.395   2.080   2.419
 1872  SOL  HW1 5763   0.318   2.043   2.377
 1872  SOL  HW2 5764   0.411   2.025   2.495
 1873  SOL   OW 5765   3.163   0.760   2.496
 1873  SOL  HW1 5766   3.106   0.836   2.505
 1873  SOL  HW2 5767   3.250   0.794   2.519
 1874  SOL   OW 5768   0.109   1.034   0.655
 1874  SOL  HW1 5769   0.118   1.119   0.612
 1874  SOL  HW2 5770   0.142   0.972   0.590
 1875  SOL   OW 5771   3.839   1.968   2.936
 1875  SOL  HW1 5772   3.929   1.939   2.921
 1875  SOL  HW2 5773   3.848   2.037   3.002
 1876  SOL   OW 5774   0.999   2.465   2.644
 1876  SOL  HW1 5775   1.036   2.507   2.722
 1876  SOL  HW2 5776   1.053   2.387   2.632
 1877  SOL   OW 5777   0.938   2.103   0.220
 1877  SOL  HW1 5778   0.844   2.091   0.228
 1877  SOL  HW2 5779   0.972   2.015   0.206
 1878  SOL   OW 5780   3.860   1.091   0.675
 1878  SOL  HW1 5781   3.953   1.084   0.697
 1878  SOL  HW2 5782   3.821   1.134   0.750
 1879  SOL   OW 5783   3.954   3.139   0.405
 1879  SOL  HW1 5784   3.894   3.072   0.371
 1879  SOL  HW2 5785   3.906   3.221   0.397
 1880  SOL   OW 5786   1.669   3.204   3.757
 1880  SOL  HW1 5787   1.756   3.188   3.722
 1880  SOL  HW2 5788   1.679   3.281   3.812
 1881  SOL   OW 5789   0.926   3.691   0.222
 1881  SOL  HW1 5790   0.955   3.606   0.255
 1881  SOL  HW2 5791   0.880   3.671   0.141
 1882  SOL   OW 5792   2.542   3.860   0.239
 1882  SOL  HW1 5793   2.449   3.840   0.246
 1882  SOL  HW2 5794   2.586   3.778   0.261
 1883  SOL   OW 5795   3.210   3.605   0.673
 1883  SOL  HW1 5796   3.223   3.691   0.633
 1883  SOL  HW2 5797   3.246   3.543   0.609
 1884  SOL   OW 5798   0.848   0.548   1.711
 1884  SOL  HW1 5799   0.882   0.545   1.621
 1884  SOL  HW2 5800   0.785   0.476   1.715
 1885  SOL   OW 5801   1.803   3.183   0.313
 1885  SOL  HW1 5802   1.727   3.238   0.299
 1885  SOL  HW2 5803   1.770   3.107   0.361
 1886  SOL   OW 5804   0.818   0.621   3.644
 1886  SOL  HW1 5805   0.860   0.604   3.560
 1886  SOL  HW2 5806   0.815   0.536   3.688
 1887  SOL   OW 5807   3.679   3.974   3.930
 1887  SOL  HW1 5808   3.610   3.982   3.864
 1887  SOL  HW2 5809   3.638   4.002   4.012
 1888  SOL   OW 5810   0.320   1.716   2.892
 1888  SOL  HW1 5811   0.225   1.711   2.899
 1888  SOL  HW2 5812   0.350   1.630   2.921
 1889  SOL   OW 5813   2.911   2.121   0.480
 1889  SOL  HW1 5814   2.850   2.158   0.543
 1889  SOL  HW2 5815   2.952   2.047   0.525
 1890  SOL   OW 5816   0.986   3.111   1.740
 1890  SOL  HW1 5817   0.929   3.095   1.665
 1890  SOL  HW2 5818   1.064   3.058   1.722
 1891  SOL   OW 5819   0.500   1.923   2.595
 1891  SOL  HW1 5820   0.533   1.837   2.566
 1891  SOL  HW2 5821   0.531   1.930   2.686
 1892  SOL   OW 5822   0.254   3.455   2.567
 1892  SOL  HW1 5823   0.301   3.487   2.491
 1892  SOL  HW2 5824   0.306   3.380   2.598
 1893  SOL   OW 5825   0.633   0.848   2.735
 1893  SOL  HW1 5826   0.642   0.917   2.669
 1893  SOL  HW2 5827   0.583   0.890   2.805
 1894  SOL   OW 5828   3.377   1.797   2.299
 1894  SOL  HW1 5829   3.432   1.802   2.377
 1894  SOL  HW2 5830   3.288   1.792   2.333
 1895  SOL   OW 5831   3.377   2.871   3.819
 1895  SOL  HW1 5832   3.427   2.860   3.900
 1895  SOL  HW2 5833   3.439   2.847   3.749
 1896  SOL   OW 5834   3.170  -0.023   3.773
 1896  SOL  HW1 5835   3.137   0.060   3.739
 1896  SOL  HW2 5836   3.163  -0.015   3.869
 1897  SOL   OW 5837   3.746   1.804   1.693
 1897  SOL  HW1 5838   3.778   1.839   1.776
 1897  SOL  HW2 5839   3.664   1.852   1.677
 1898  SOL   OW 5840   1.339   2.585   2.461
 1898  SOL  HW1 5841   1.306   2.657   2.515
 1898  SOL  HW2 5842   1.422   2.561   2.501
 1899  SOL   OW 5843   3.535   0.292   2.337
 1899  SOL  HW1 5844   3.597   0.290   2.410
 1899  SOL  HW2 5845   3.449   0.278   2.377
 1900  SOL   OW 5846   1.091   3.334   2.748
 1900  SOL  HW1 5847   1.137   3.371   2.673
 1900  SOL  HW2 5848   1.156   3.333   2.818
 1901  SOL   OW 5849   3.997   0.761   1.472
 1901  SOL  HW1 5850   3.923   0.815   1.446
 1901  SOL  HW2 5851   4.017   0.788   1.561
 1902  SOL   OW 5852   3.943   2.546   0.318
 1902  SOL  HW1 5853   3.983   2.473   0.365
 1902  SOL  HW2 5854   3.945   2.520   0.226
 1903  SOL   OW 5855   1.379   1.078   2.277
 1903  SOL  HW1 5856   1.352   1.140   2.210
 1903  SOL  HW2 5857   1.313   1.008   2.273
 1904  SOL   OW 5858   3.373   1.664   2.051
 1904  SOL  HW1 5859   3.344   1.589   2.104
 1904  SOL  HW2 5860   3.383   1.735   2.115
 1905  SOL   OW 5861   0.545   1.993   2.080
 1905  SOL  HW1 5862   0.490   1.918   2.104
 1905  SOL  HW2 5863   0.596   2.012   2.159
 1906  SOL   OW 5864   1.995   1.255   3.031
 1906  SOL  HW1 5865   1.942   1.208   2.966
 1906  SOL  HW2 5866   2.068   1.197   3.049
 1907  SOL   OW 5867   0.238   1.227   3.247
 1907  SOL  HW1 5868   0.257   1.306   3.297
 1907  SOL  HW2 5869   0.148   1.204   3.271
 1908  SOL   OW 5870   3.174   1.467   1.435
 1908  SOL  HW1 5871   3.173   1.536   1.368
 1908  SOL  HW2 5872   3.266   1.441   1.441
 1909  SOL   OW 5873   1.164   1.164   1.432
 1909  SOL  HW1 5874   1.184   1.103   1.503
 1909  SOL  HW2 5875   1.174   1.111   1.352
 1910  SOL   OW 5876   3.964   1.460   3.286
 1910  SOL  HW1 5877   3.947   1.377   3.241
 1910  SOL  HW2 5878   4.019   1.436   3.360
 1911  SOL   OW 5879   0.275   2.833   2.525
 1911  SOL  HW1 5880   0.301   2.835   2.432
 1911  SOL  HW2 5881   0.180   2.831   2.523
 1912  SOL   OW 5882   3.253   3.400   2.701
 1912  SOL  HW1 5883   3.301   3.365   2.776
 1912  SOL  HW2 5884   3.181   3.338   2.687
 1913  SOL   OW 5885   0.422   0.857   0.091
 1913  SOL  HW1 5886   0.462   0.877   0.176
 1913  SOL  HW2 5887   0.457   0.924   0.032
 1914  SOL   OW 5888   1.122   0.385   3.809
 1914  SOL  HW1 5889   1.146   0.478   3.813
 1914  SOL  HW2 5890   1.135   0.361   3.717
 1915  SOL   OW 5891   0.713   2.011   4.023
 1915  SOL  HW1 5892   0.639   2.041   3.970
 1915  SOL  HW2 5893   0.720   1.918   4.005
 1916  SOL   OW 5894   1.966   2.947   1.241
 1916  SOL  HW1 5895   1.962   3.041   1.222
 1916  SOL  HW2 5896   1.987   2.943   1.335
 1917  SOL   OW 5897   3.068   2.520   1.750
 1917  SOL  HW1 5898   3.037   2.611   1.747
 1917  SOL  HW2 5899   2.990   2.468   1.766
 1918  SOL   OW 5900   3.689   1.589   2.724
 1918  SOL  HW1 5901   3.692   1.595   2.820
 1918  SOL  HW2 5902   3.722   1.674   2.694
 1919  SOL   OW 5903   1.925   0.814   1.145
 1919  SOL  HW1 5904   2.000   0.789   1.090
 1919  SOL  HW2 5905   1.916   0.741   1.207
 1920  SOL   OW 5906   3.415   3.556   2.983
 1920  SOL  HW1 5907   3.463   3.613   2.924
 1920  SOL  HW2 5908   3.358   3.614   3.032
 1921  SOL   OW 5909   3.774   0.477   3.319
 1921  SOL  HW1 5910   3.854   0.476   3.371
 1921  SOL  HW2 5911   3.783   0.403   3.260
 1922  SOL   OW 5912   1.096   2.834   3.505
 1922  SOL  HW1 5913   1.105   2.780   3.427
 1922  SOL  HW2 5914   1.090   2.924   3.473
 1923  SOL   OW 5915   2.204   2.182   1.236
 1923  SOL  HW1 5916   2.254   2.173   1.155
 1923  SOL  HW2 5917   2.140   2.251   1.217
 1924  SOL   OW 5918   3.809   3.225   2.614
 1924  SOL  HW1 5919   3.848   3.219   2.701
 1924  SOL  HW2 5920   3.879   3.200   2.554
 1925  SOL   OW 5921   1.803   0.985   0.954
 1925  SOL  HW1 5922   1.723   0.935   0.935
 1925  SOL  HW2 5923   1.861   0.921   0.996
 1926  SOL   OW 5924   2.086   0.092   1.729
 1926  SOL  HW1 5925   1.995   0.117   1.715
 1926  SOL  HW2 5926   2.082   0.005   1.767
 1927  SOL   OW 5927   1.741   1.611   3.193
 1927  SOL  HW1 5928   1.834   1.589   3.198
 1927  SOL  HW2 5929   1.700   1.558   3.261
 1928  SOL   OW 5930   2.305   1.910   1.823
 1928  SOL  HW1 5931   2.234   1.905   1.758
 1928  SOL  HW2 5932   2.319   1.819   1.850
 1929  SOL   OW 5933   0.951   2.158   3.225
 1929  SOL  HW1 5934   0.958   2.165   3.320
 1929  SOL  HW2 5935   1.037   2.127   3.197
 1930  SOL   OW 5936   0.628   0.415   0.980
 1930  SOL  HW1 5937   0.688   0.372   1.040
 1930  SOL  HW2 5938   0.556   0.353   0.968
 1931  SOL   OW 5939   0.483   3.046   2.481
 1931  SOL  HW1 5940   0.417   2.992   2.525
 1931  SOL  HW2 5941   0.433   3.116   2.440
 1932  SOL   OW 5942   3.780   2.908   0.847
 1932  SOL  HW1 5943   3.834   2.933   0.772
 1932  SOL  HW2 5944   3.702   2.962   0.840
 1933  SOL   OW 5945   0.246   1.041   3.049
 1933  SOL  HW1 5946   0.242   1.098   3.126
 1933  SOL  HW2 5947   0.221   1.098   2.976
 1934  SOL   OW 5948   0.524   0.154   1.288
 1934  SOL  HW1 5949   0.447   0.129   1.340
 1934  SOL  HW2 5950   0.503   0.129   1.199
 1935  SOL   OW 5951   3.639   3.715   1.663
 1935  SOL  HW1 5952   3.631   3.630   1.705
 1935  SOL  HW2 5953   3.619   3.778   1.732
 1936  SOL   OW 5954   3.847   2.848   0.337
 1936  SOL  HW1 5955   3.781   2.822   0.401
 1936  SOL  HW2 5956   3.899   2.769   0.324
 1937  SOL   OW 5957   1.283   0.944   2.802
 1937  SOL  HW1 5958   1.317   0.884   2.736
 1937  SOL  HW2 5959   1.281   1.029   2.759
 1938  SOL   OW 5960   1.760   1.526   1.214
 1938  SOL  HW1 5961   1.680   1.564   1.251
 1938  SOL  HW2 5962   1.790   1.590   1.150
 1939  SOL   OW 5963   2.669   0.455   0.003
 1939  SOL  HW1 5964   2.735   0.402   0.049
 1939  SOL  HW2 5965   2.587   0.408   0.017
 1940  SOL   OW 5966   1.729   0.784   2.086
 1940  SOL  HW1 5967   1.767   0.842   2.020
 1940  SOL  HW2 5968   1.783   0.705   2.083
 1941  SOL   OW 5969   3.498   3.448   1.882
 1941  SOL  HW1 5970   3.445   3.524   1.905
 1941  SOL  HW2 5971   3.436   3.375   1.884
 1942  SOL   OW 5972   1.117   3.337   1.556
 1942  SOL  HW1 5973   1.042   3.337   1.615
 1942  SOL  HW2 5974   1.192   3.354   1.613
 1943  SOL   OW 5975   0.622   3.784   3.970
 1943  SOL  HW1 5976   0.560   3.849   3.937
 1943  SOL  HW2 5977   0.567   3.719   4.014
 1944  SOL   OW 5978   1.716   2.994   4.030
 1944  SOL  HW1 5979   1.731   2.911   3.984
 1944  SOL  HW2 5980   1.802   3.036   4.032
 1945  SOL   OW 5981   0.135   1.731   1.637
 1945  SOL  HW1 5982   0.164   1.654   1.687
 1945  SOL  HW2 5983   0.060   1.700   1.587
 1946  SOL   OW 5984   3.514   1.048   1.857
 1946  SOL  HW1 5985   3.493   0.955   1.851
 1946  SOL  HW2 5986   3.435   1.088   1.895
 1947  SOL   OW 5987   0.380   2.233   2.062
 1947  SOL  HW1 5988   0.439   2.286   2.009
 1947  SOL  HW2 5989   0.427   2.151   2.076
 1948  SOL   OW 5990   1.169   2.258   2.544
 1948  SOL  HW1 5991   1.239   2.197   2.520
 1948  SOL  HW2 5992   1.088   2.210   2.529
 1949  SOL   OW 5993   1.739   3.048   1.674
 1949  SOL  HW1 5994   1.686   2.997   1.613
 1949  SOL  HW2 5995   1.687   3.126   1.692
 1950  SOL   OW 5996   0.122   1.661   2.368
 1950  SOL  HW1 5997   0.146   1.721   2.439
 1950  SOL  HW2 5998   0.031   1.684   2.346
 1951  SOL   OW 5999   1.014   1.549   2.889
 1951  SOL  HW1 6000   1.067   1.471   2.878
 1951  SOL  HW2 6001   0.950   1.526   2.957
 1952  SOL   OW 6002   0.651   0.130   0.800
 1952  SOL  HW1 6003   0.707   0.206   0.785
 1952  SOL  HW2 6004   0.682   0.092   0.882
 1953  SOL   OW 6005   1.902   1.294   1.180
 1953  SOL  HW1 6006   1.914   1.273   1.087
 1953  SOL  HW2 6007   1.838   1.365   1.180
 1954  SOL   OW 6008   2.465   1.085   3.834
 1954  SOL  HW1 6009   2.464   1.138   3.755
 1954  SOL  HW2 6010   2.381   1.040   3.835
 1955  SOL   OW 6011   1.929   3.139   3.643
 1955  SOL  HW1 6012   1.989   3.179   3.706
 1955  SOL  HW2 6013   1.964   3.163   3.557
 1956  SOL   OW 6014   2.834   2.425   2.630
 1956  SOL  HW1 6015   2.873   2.366   2.694
 1956  SOL  HW2 6016   2.901   2.492   2.614
 1957  SOL   OW 6017   0.458   1.946   3.104
 1957  SOL  HW1 6018   0.393   1.876   3.107
 1957  SOL  HW2 6019   0.491   1.951   3.194
 1958  SOL   OW 6020   3.147   0.311   0.186
 1958  SOL  HW1 6021   3.096   0.302   0.266
 1958  SOL  HW2 6022   3.205   0.385   0.204
 1959  SOL   OW 6023   1.692   1.173   1.813
 1959  SOL  HW1 6024   1.743   1.240   1.860
 1959  SOL  HW2 6025   1.606   1.175   1.856
 1960  SOL   OW 6026   0.613   1.598   3.627
 1960  SOL  HW1 6027   0.543   1.662   3.634
 1960  SOL  HW2 6028   0.569   1.514   3.624
 1961  SOL   OW 6029   3.779   3.676   1.228
 1961  SOL  HW1 6030   3.695   3.708   1.259
 1961  SOL  HW2 6031   3.791   3.719   1.143
 1962  SOL   OW 6032   0.189   0.766   2.277
 1962  SOL  HW1 6033   0.207   0.828   2.207
 1962  SOL  HW2 6034   0.126   0.705   2.240
 1963  SOL   OW 6035   1.459   0.347   2.301
 1963  SOL  HW1 6036   1.530   0.366   2.240
 1963  SOL  HW2 6037   1.419   0.432   2.319
 1964  SOL   OW 6038   3.197   1.061   3.123
 1964  SOL  HW1 6039   3.177   0.981   3.171
 1964  SOL  HW2 6040   3.118   1.115   3.132
 1965  SOL   OW 6041   2.947   0.846   3.381
 1965  SOL  HW1 6042   2.899   0.777   3.335
 1965  SOL  HW2 6043   2.884   0.918   3.390
 1966  SOL   OW 6044   2.752   0.886   1.906
 1966  SOL  HW1 6045   2.697   0.868   1.829
 1966  SOL  HW2 6046   2.813   0.954   1.876
 1967  SOL   OW 6047   0.025   0.601   2.114
 1967  SOL  HW1 6048   0.092   0.534   2.100
 1967  SOL  HW2 6049  -0.048   0.554   2.154
 1968  SOL   OW 6050   2.804   2.149   3.100
 1968  SOL  HW1 6051   2.789   2.107   3.185
 1968  SOL  HW2 6052   2.743   2.106   3.041
 1969  SOL   OW 6053   1.985   1.977   0.131
 1969  SOL  HW1 6054   1.916   1.971   0.197
 1969  SOL  HW2 6055   1.983   2.069   0.103
 1970  SOL   OW 6056   1.077   2.521   3.787
 1970  SOL  HW1 6057   1.117   2.594   3.835
 1970  SOL  HW2 6058   1.085   2.447   3.846
 1971  SOL   OW 6059   1.709   2.408   0.826
 1971  SOL  HW1 6060   1.800   2.433   0.817
 1971  SOL  HW2 6061   1.665   2.445   0.749
 1972  SOL   OW 6062   0.211   2.687   0.142
 1972  SOL  HW1 6063   0.249   2.771   0.118
 1972  SOL  HW2 6064   0.184   2.699   0.233
 1973  SOL   OW 6065   1.876   3.473   3.509
 1973  SOL  HW1 6066   1.792   3.451   3.469
 1973  SOL  HW2 6067   1.936   3.484   3.435
 1974  SOL   OW 6068   3.735   1.805   2.293
 1974  SOL  HW1 6069   3.659   1.782   2.347
 1974  SOL  HW2 6070   3.810   1.772   2.342
 1975  SOL   OW 6071   0.526   3.305   1.186
 1975  SOL  HW1 6072   0.478   3.245   1.129
 1975  SOL  HW2 6073   0.464   3.326   1.256
 1976  SOL   OW 6074   1.426   0.709   1.817
 1976  SOL  HW1 6075   1.441   0.620   1.848
 1976  SOL  HW2 6076   1.462   0.710   1.729
 1977  SOL   OW 6077   2.701   0.936   3.841
 1977  SOL  HW1 6078   2.688   0.863   3.780
 1977  SOL  HW2 6079   2.626   0.994   3.826
 1978  SOL   OW 6080   1.409   0.569   1.119
 1978  SOL  HW1 6081   1.370   0.503   1.061
 1978  SOL  HW2 6082   1.385   0.653   1.079
 1979  SOL   OW 6083   2.048   0.330   0.967
 1979  SOL  HW1 6084   2.123   0.339   1.026
 1979  SOL  HW2 6085   1.972   0.338   1.024
 1980  SOL   OW 6086   2.046   0.040   3.930
 1980  SOL  HW1 6087   2.037  -0.037   3.985
 1980  SOL  HW2 6088   2.134   0.074   3.948
 1981  SOL   OW 6089   2.808   0.074   0.308
 1981  SOL  HW1 6090   2.806   0.163   0.271
 1981  SOL  HW2 6091   2.841   0.086   0.397
 1982  SOL   OW 6092   2.375   1.124   3.389
 1982  SOL  HW1 6093   2.387   1.145   3.296
 1982  SOL  HW2 6094   2.335   1.037   3.389
 1983  SOL   OW 6095   3.347   1.258   3.891
 1983  SOL  HW1 6096   3.300   1.309   3.825
 1983  SOL  HW2 6097   3.367   1.175   3.847
 1984  SOL   OW 6098   1.238   0.506   2.676
 1984  SOL  HW1 6099   1.295   0.477   2.747
 1984  SOL  HW2 6100   1.151   0.515   2.716
 1985  SOL   OW 6101   2.149   1.529   1.703
 1985  SOL  HW1 6102   2.114   1.618   1.698
 1985  SOL  HW2 6103   2.074   1.475   1.727
 1986  SOL   OW 6104   0.425   1.730   2.194
 1986  SOL  HW1 6105   0.397   1.709   2.105
 1986  SOL  HW2 6106   0.413   1.648   2.242
 1987  SOL   OW 6107   2.608   3.394   1.759
 1987  SOL  HW1 6108   2.557   3.405   1.678
 1987  SOL  HW2 6109   2.542   3.371   1.825
 1988  SOL   OW 6110   3.792   3.348   0.795
 1988  SOL  HW1 6111   3.789   3.435   0.754
 1988  SOL  HW2 6112   3.740   3.356   0.874
 1989  SOL   OW 6113   0.237   0.563   3.803
 1989  SOL  HW1 6114   0.155   0.611   3.790
 1989  SOL  HW2 6115   0.216   0.473   3.778
 1990  SOL   OW 6116   0.390   0.589   1.190
 1990  SOL  HW1 6117   0.362   0.558   1.277
 1990  SOL  HW2 6118   0.388   0.510   1.135
 1991  SOL   OW 6119   3.956   1.941   1.893
 1991  SOL  HW1 6120   4.009   1.935   1.814
 1991  SOL  HW2 6121   3.997   1.880   1.954
 1992  SOL   OW 6122   0.069   0.678   0.002
 1992  SOL  HW1 6123   0.066   0.741   0.073
 1992  SOL  HW2 6124   0.142   0.620   0.024
 1993  SOL   OW 6125   1.628   2.814   2.831
 1993  SOL  HW1 6126   1.646   2.737   2.778
 1993  SOL  HW2 6127   1.690   2.808   2.904
 1994  SOL   OW 6128   1.284   3.542   0.432
 1994  SOL  HW1 6129   1.355   3.533   0.369
 1994  SOL  HW2 6130   1.204   3.530   0.381
 1995  SOL   OW 6131   1.084   3.921   3.482
 1995  SOL  HW1 6132   1.093   3.896   3.390
 1995  SOL  HW2 6133   1.158   3.879   3.526
 1996  SOL   OW 6134   3.389   3.673   1.990
 1996  SOL  HW1 6135   3.357   3.713   2.071
 1996  SOL  HW2 6136   3.475   3.712   1.977
 1997  SOL   OW 6137   1.799   0.226   1.742
 1997  SOL  HW1 6138   1.792   0.321   1.730
 1997  SOL  HW2 6139   1.743   0.207   1.817
 1998  SOL   OW 6140   3.552   1.191   0.478
 1998  SOL  HW1 6141   3.534   1.243   0.556
 1998  SOL  HW2 6142   3.577   1.105   0.512
 1999  SOL   OW 6143   2.114   0.914   1.712
 1999  SOL  HW1 6144   2.070   0.863   1.780
 1999  SOL  HW2 6145   2.071   0.889   1.631
 2000  SOL   OW 6146   1.718   0.466   3.000
 2000  SOL  HW1 6147   1.650   0.419   3.048
 2000  SOL  HW2 6148   1.784   0.399   2.979
 2001  SOL   OW 6149   0.471   0.621   2.787
 2001  SOL  HW1 6150   0.484   0.715   2.789
 2001  SOL  HW2 6151   0.500   0.591   2.873
 2002  SOL   OW 6152   1.229   1.296   0.879
 2002  SOL  HW1 6153   1.160   1.284   0.944
 2002  SOL  HW2 6154   1.284   1.366   0.915
 2003  SOL   OW 6155   2.808   4.019   1.488
 2003  SOL  HW1 6156   2.730   3.964   1.499
 2003  SOL  HW2 6157   2.882   3.961   1.507
 2004  SOL   OW 6158   1.931   0.593   1.332
 2004  SOL  HW1 6159   1.838   0.589   1.357
 2004  SOL  HW2 6160   1.969   0.513   1.369
 2005  SOL   OW 6161   3.516   3.948   0.553
 2005  SOL  HW1 6162   3.577   3.987   0.615
 2005  SOL  HW2 6163   3.571   3.913   0.483
 2006  SOL   OW 6164   2.971   1.445   0.202
 2006  SOL  HW1 6165   3.021   1.430   0.282
 2006  SOL  HW2 6166   3.026   1.408   0.133
 2007  SOL   OW 6167   3.747   0.272   1.996
 2007  SOL  HW1 6168   3.804   0.206   2.035
 2007  SOL  HW2 6169   3.659   0.236   2.005
 2008  SOL   OW 6170   3.488   0.075   1.805
 2008  SOL  HW1 6171   3.537   0.133   1.747
 2008  SOL  HW2 6172   3.480   0.124   1.887
 2009  SOL   OW 6173   2.717   1.476   0.327
 2009  SOL  HW1 6174   2.788   1.433   0.281
 2009  SOL  HW2 6175   2.667   1.521   0.258
 2010  SOL   OW 6176   1.575   1.498   3.436
 2010  SOL  HW1 6177   1.491   1.516   3.392
 2010  SOL  HW2 6178   1.566   1.409   3.470
 2011  SOL   OW 6179   0.813   3.484   0.441
 2011  SOL  HW1 6180   0.784   3.448   0.526
 2011  SOL  HW2 6181   0.734   3.523   0.404
 2012  SOL   OW 6182   3.455   2.858   3.133
 2012  SOL  HW1 6183   3.387   2.873   3.199
 2012  SOL  HW2 6184   3.408   2.826   3.056
 2013  SOL   OW 6185   0.388   2.212   0.183
 2013  SOL  HW1 6186   0.297   2.225   0.208
 2013  SOL  HW2 6187   0.418   2.297   0.151
 2014  SOL   OW 6188   2.757   3.822   3.683
 2014  SOL  HW1 6189   2.715   3.756   3.627
 2014  SOL  HW2 6190   2.784   3.774   3.761
 2015  SOL   OW 6191   2.888   2.682   2.995
 2015  SOL  HW1 6192   2.818   2.710   3.054
 2015  SOL  HW2 6193   2.865   2.591   2.972
 2016  SOL   OW 6194   3.905   3.248   2.154
 2016  SOL  HW1 6195   3.843   3.231   2.083
 2016  SOL  HW2 6196   3.958   3.169   2.160
 2017  SOL   OW 6197   2.124   1.443   2.187
 2017  SOL  HW1 6198   2.122   1.488   2.272
 2017  SOL  HW2 6199   2.129   1.350   2.210
 2018  SOL   OW 6200   1.030   3.284   3.681
 2018  SOL  HW1 6201   0.985   3.226   3.743
 2018  SOL  HW2 6202   0.976   3.282   3.603
 2019  SOL   OW 6203   0.039   1.306   1.815
 2019  SOL  HW1 6204  -0.042   1.327   1.862
 2019  SOL  HW2 6205   0.019   1.326   1.723
 2020  SOL   OW 6206   3.170   1.525   0.680
 2020  SOL  HW1 6207   3.145   1.617   0.677
 2020  SOL  HW2 6208   3.222   1.511   0.601
 2021  SOL   OW 6209   3.311   3.292   1.961
 2021  SOL  HW1 6210   3.294   3.200   1.943
 2021  SOL  HW2 6211   3.322   3.296   2.056
 2022  SOL   OW 6212   0.899   3.175   0.194
 2022  SOL  HW1 6213   0.940   3.206   0.274
 2022  SOL  HW2 6214   0.918   3.082   0.191
 2023  SOL   OW 6215   2.387   3.481   0.543
 2023  SOL  HW1 6216   2.452   3.503   0.609
 2023  SOL  HW2 6217   2.310   3.455   0.593
 2024  SOL   OW 6218   0.587   3.607   1.233
 2024  SOL  HW1 6219   0.524   3.539   1.258
 2024  SOL  HW2 6220   0.669   3.582   1.276
 2025  SOL   OW 6221   0.427   2.506   0.092
 2025  SOL  HW1 6222   0.343   2.546   0.111
 2025  SOL  HW2 6223   0.480   2.576   0.055
 2026  SOL   OW 6224   3.980   0.195   0.920
 2026  SOL  HW1 6225   3.901   0.199   0.974
 2026  SOL  HW2 6226   4.033   0.125   0.959
 2027  SOL   OW 6227   1.490   2.518   0.636
 2027  SOL  HW1 6228   1.469   2.551   0.723
 2027  SOL  HW2 6229   1.462   2.426   0.638
 2028  SOL   OW 6230   3.683   1.426   3.457
 2028  SOL  HW1 6231   3.629   1.415   3.534
 2028  SOL  HW2 6232   3.761   1.373   3.474
 2029  SOL   OW 6233   2.728   3.054   1.489
 2029  SOL  HW1 6234   2.688   2.973   1.461
 2029  SOL  HW2 6235   2.773   3.032   1.570
 2030  SOL   OW 6236   0.325   3.815   0.649
 2030  SOL  HW1 6237   0.386   3.888   0.659
 2030  SOL  HW2 6238   0.240   3.857   0.634
 2031  SOL   OW 6239   3.114   1.574   2.405
 2031  SOL  HW1 6240   3.021   1.574   2.382
 2031  SOL  HW2 6241   3.135   1.667   2.417
 2032  SOL   OW 6242   2.752   1.184   1.890
 2032  SOL  HW1 6243   2.822   1.131   1.928
 2032  SOL  HW2 6244   2.748   1.262   1.945
 2033  SOL   OW 6245   0.488   2.302   3.059
 2033  SOL  HW1 6246   0.559   2.249   3.021
 2033  SOL  HW2 6247   0.466   2.364   2.990
 2034  SOL   OW 6248   3.493   1.611   3.948
 2034  SOL  HW1 6249   3.500   1.642   4.038
 2034  SOL  HW2 6250   3.429   1.669   3.907
 2035  SOL   OW 6251   1.384   0.219   0.982
 2035  SOL  HW1 6252   1.400   0.283   0.912
 2035  SOL  HW2 6253   1.295   0.189   0.967
 2036  SOL   OW 6254   3.998   0.948   2.351
 2036  SOL  HW1 6255   4.011   0.855   2.333
 2036  SOL  HW2 6256   3.907   0.955   2.379
 2037  SOL   OW 6257   2.369   4.010   2.939
 2037  SOL  HW1 6258   2.462   4.032   2.933
 2037  SOL  HW2 6259   2.361   3.926   2.893
 2038  SOL   OW 6260   0.798   0.673   2.932
 2038  SOL  HW1 6261   0.774   0.737   2.998
 2038  SOL  HW2 6262   0.747   0.699   2.855
 2039  SOL   OW 6263   2.124   3.605   2.813
 2039  SOL  HW1 6264   2.064   3.569   2.878
 2039  SOL  HW2 6265   2.173   3.529   2.782
 2040  SOL   OW 6266   2.323   2.231   3.754
 2040  SOL  HW1 6267   2.409   2.219   3.794
 2040  SOL  HW2 6268   2.280   2.146   3.766
 2041  SOL   OW 6269   0.174   3.794   2.545
 2041  SOL  HW1 6270   0.239   3.724   2.544
 2041  SOL  HW2 6271   0.223   3.871   2.573
 2042  SOL   OW 6272   4.005   2.861   2.265
 2042  SOL  HW1 6273   3.911   2.872   2.282
 2042  SOL  HW2 6274   4.010   2.776   2.219
 2043  SOL   OW 6275   1.693   1.817   1.473
 2043  SOL  HW1 6276   1.686   1.737   1.422
 2043  SOL  HW2 6277   1.655   1.885   1.418
 2044  SOL   OW 6278   1.731   0.864   2.970
 2044  SOL  HW1 6279   1.785   0.943   2.962
 2044  SOL  HW2 6280   1.643   0.891   2.944
 2045  SOL   OW 6281   2.557   0.334   2.372
 2045  SOL  HW1 6282   2.625   0.269   2.353
 2045  SOL  HW2 6283   2.523   0.308   2.457
 2046  SOL   OW 6284   2.181   2.929   0.792
 2046  SOL  HW1 6285   2.276   2.927   0.806
 2046  SOL  HW2 6286   2.153   3.012   0.831
 2047  SOL   OW 6287   1.296   3.348   3.687
 2047  SOL  HW1 6288   1.356   3.277   3.711
 2047  SOL  HW2 6289   1.214   3.305   3.666
 2048  SOL   OW 6290   1.252   0.581   1.362
 2048  SOL  HW1 6291   1.190   0.509   1.346
 2048  SOL  HW2 6292   1.317   0.572   1.293
 2049  SOL   OW 6293   0.446   0.642   3.182
 2049  SOL  HW1 6294   0.510   0.583   3.142
 2049  SOL  HW2 6295   0.497   0.700   3.238
 2050  SOL   OW 6296   4.016   0.194   2.348
 2050  SOL  HW1 6297   4.028   0.119   2.405
 2050  SOL  HW2 6298   4.011   0.269   2.407
 2051  SOL   OW 6299   0.344   2.866   3.864
 2051  SOL  HW1 6300   0.392   2.832   3.788
 2051  SOL  HW2 6301   0.411   2.877   3.932
 2052  SOL   OW 6302   3.278   2.421   0.340
 2052  SOL  HW1 6303   3.233   2.343   0.306
 2052  SOL  HW2 6304   3.217   2.460   0.401
 2053  SOL   OW 6305   3.900   0.515   0.054
 2053  SOL  HW1 6306   3.971   0.573   0.027
 2053  SOL  HW2 6307   3.868   0.553   0.136
 2054  SOL   OW 6308   1.962   3.141   0.064
 2054  SOL  HW1 6309   2.053   3.128   0.090
 2054  SOL  HW2 6310   1.914   3.152   0.147
 2055  SOL   OW 6311   0.655   3.703   3.276
 2055  SOL  HW1 6312   0.680   3.612   3.258
 2055  SOL  HW2 6313   0.730   3.755   3.248
 2056  SOL   OW 6314   1.042   1.811   0.995
 2056  SOL  HW1 6315   0.998   1.890   0.963
 2056  SOL  HW2 6316   1.077   1.835   1.080
 2057  SOL   OW 6317   3.173   0.196   2.210
 2057  SOL  HW1 6318   3.105   0.200   2.142
 2057  SOL  HW2 6319   3.176   0.284   2.247
 2058  SOL   OW 6320   1.360   1.503   0.989
 2058  SOL  HW1 6321   1.450   1.478   0.971
 2058  SOL  HW2 6322   1.365   1.561   1.065
 2059  SOL   OW 6323   2.244   2.441   1.936
 2059  SOL  HW1 6324   2.318   2.476   1.887
 2059  SOL  HW2 6325   2.201   2.381   1.875
 2060  SOL   OW 6326   0.396   0.201   2.990
 2060  SOL  HW1 6327   0.345   0.257   2.932
 2060  SOL  HW2 6328   0.384   0.113   2.956
 2061  SOL   OW 6329   1.623   3.905   3.049
 2061  SOL  HW1 6330   1.681   3.960   2.996
 2061  SOL  HW2 6331   1.564   3.865   2.985
 2062  SOL   OW 6332   1.590   3.909   3.324
 2062  SOL  HW1 6333   1.654   3.973   3.356
 2062  SOL  HW2 6334   1.592   3.917   3.229
 2063  SOL   OW 6335   3.523   3.821   3.632
 2063  SOL  HW1 6336   3.472   3.804   3.553
 2063  SOL  HW2 6337   3.614   3.812   3.604
 2064  SOL   OW 6338   2.762   3.653   2.492
 2064  SOL  HW1 6339   2.841   3.599   2.483
 2064  SOL  HW2 6340   2.776   3.725   2.430
 2065  SOL   OW 6341   0.600   1.007   3.973
 2065  SOL  HW1 6342   0.694   1.018   3.991
 2065  SOL  HW2 6343   0.593   0.919   3.937
 2066  SOL   OW 6344   3.791   1.395   3.785
 2066  SOL  HW1 6345   3.701   1.409   3.758
 2066  SOL  HW2 6346   3.800   1.300   3.791
 2067  SOL   OW 6347   2.111   1.822   2.244
 2067  SOL  HW1 6348   2.042   1.848   2.182
 2067  SOL  HW2 6349   2.065   1.803   2.325
 2068  SOL   OW 6350   3.556   0.277   3.553
 2068  SOL  HW1 6351   3.552   0.225   3.633
 2068  SOL  HW2 6352   3.625   0.235   3.501
 2069  SOL   OW 6353   0.998   1.481   2.564
 2069  SOL  HW1 6354   0.921   1.437   2.599
 2069  SOL  HW2 6355   0.975   1.574   2.563
 2070  SOL   OW 6356   3.021   1.250   3.090
 2070  SOL  HW1 6357   3.014   1.344   3.075
 2070  SOL  HW2 6358   2.950   1.212   3.039
 2071  SOL   OW 6359   3.989   2.240   3.319
 2071  SOL  HW1 6360   3.970   2.174   3.253
 2071  SOL  HW2 6361   3.911   2.241   3.375
 2072  SOL   OW 6362   2.949   0.017   0.548
 2072  SOL  HW1 6363   3.035   0.017   0.588
 2072  SOL  HW2 6364   2.888   0.007   0.622
 2073  SOL   OW 6365   1.139   1.343   0.081
 2073  SOL  HW1 6366   1.204   1.327   0.013
 2073  SOL  HW2 6367   1.166   1.287   0.154
 2074  SOL   OW 6368   3.809   0.201   0.218
 2074  SOL  HW1 6369   3.760   0.176   0.140
 2074  SOL  HW2 6370   3.887   0.245   0.185
 2075  SOL   OW 6371   2.055   3.937   0.868
 2075  SOL  HW1 6372   2.051   3.857   0.921
 2075  SOL  HW2 6373   2.129   3.922   0.809
 2076  SOL   OW 6374   1.611   3.209   3.328
 2076  SOL  HW1 6375   1.548   3.137   3.333
 2076  SOL  HW2 6376   1.665   3.189   3.252
 2077  SOL   OW 6377   3.353   1.962   1.167
 2077  SOL  HW1 6378   3.325   2.009   1.089
 2077  SOL  HW2 6379   3.405   2.026   1.216
 2078  SOL   OW 6380   3.070   1.787   0.578
 2078  SOL  HW1 6381   3.109   1.736   0.507
 2078  SOL  HW2 6382   2.977   1.788   0.559
 2079  SOL   OW 6383   2.977   1.861   3.895
 2079  SOL  HW1 6384   2.912   1.798   3.926
 2079  SOL  HW2 6385   3.006   1.826   3.811
 2080  SOL   OW 6386   3.619   0.319   3.107
 2080  SOL  HW1 6387   3.601   0.364   3.025
 2080  SOL  HW2 6388   3.712   0.297   3.103
 2081  SOL   OW 6389   2.898   3.447   3.105
 2081  SOL  HW1 6390   2.948   3.404   3.036
 2081  SOL  HW2 6391   2.810   3.456   3.068
 2082  SOL   OW 6392   2.677   3.573   0.961
 2082  SOL  HW1 6393   2.665   3.483   0.992
 2082  SOL  HW2 6394   2.649   3.627   1.035
 2083  SOL   OW 6395   1.151   0.945   1.644
 2083  SOL  HW1 6396   1.228   0.959   1.699
 2083  SOL  HW2 6397   1.095   0.886   1.696
 2084  SOL   OW 6398   0.720   1.247   3.313
 2084  SOL  HW1 6399   0.648   1.293   3.358
 2084  SOL  HW2 6400   0.681   1.216   3.231
 2085  SOL   OW 6401   3.184   0.812   1.006
 2085  SOL  HW1 6402   3.277   0.801   0.987
 2085  SOL  HW2 6403   3.179   0.813   1.102
 2086  SOL   OW 6404   0.085   2.013   0.167
 2086  SOL  HW1 6405   0.135   2.025   0.087
 2086  SOL  HW2 6406   0.129   1.942   0.213
 2087  SOL   OW 6407   2.609   3.285   1.050
 2087  SOL  HW1 6408   2.553   3.246   1.117
 2087  SOL  HW2 6409   2.698   3.261   1.076
 2088  SOL   OW 6410   3.462   1.500   2.936
 2088  SOL  HW1 6411   3.523   1.532   3.002
 2088  SOL  HW2 6412   3.418   1.426   2.978
 2089  SOL   OW 6413   0.656   0.932   2.156
 2089  SOL  HW1 6414   0.639   0.928   2.250
 2089  SOL  HW2 6415   0.682   0.842   2.133
 2090  SOL   OW 6416   1.292   1.506   3.004
 2090  SOL  HW1 6417   1.278   1.433   2.944
 2090  SOL  HW2 6418   1.373   1.547   2.973
 2091  SOL   OW 6419   3.751   2.909   2.735
 2091  SOL  HW1 6420   3.827   2.857   2.761
 2091  SOL  HW2 6421   3.784   2.969   2.668
 2092  SOL   OW 6422   0.475   1.926   0.865
 2092  SOL  HW1 6423   0.541   1.880   0.917
 2092  SOL  HW2 6424   0.505   1.918   0.775
 2093  SOL   OW 6425   3.693   3.434   2.821
 2093  SOL  HW1 6426   3.624   3.378   2.785
 2093  SOL  HW2 6427   3.663   3.523   2.804
 2094  SOL   OW 6428   1.427   0.774   2.952
 2094  SOL  HW1 6429   1.405   0.781   3.045
 2094  SOL  HW2 6430   1.361   0.827   2.908
 2095  SOL   OW 6431   2.556   0.043   0.977
 2095  SOL  HW1 6432   2.482   0.099   0.955
 2095  SOL  HW2 6433   2.631   0.103   0.983
 2096  SOL   OW 6434   1.930   3.783   0.486
 2096  SOL  HW1 6435   2.013   3.736   0.472
 2096  SOL  HW2 6436   1.945   3.870   0.449
 2097  SOL   OW 6437   3.556   2.504   3.200
 2097  SOL  HW1 6438   3.502   2.543   3.131
 2097  SOL  HW2 6439   3.638   2.481   3.157
 2098  SOL   OW 6440   3.425   0.218   0.132
 2098  SOL  HW1 6441   3.355   0.283   0.135
 2098  SOL  HW2 6442   3.501   0.265   0.097
 2099  SOL   OW 6443   3.182   2.223   1.900
 2099  SOL  HW1 6444   3.092   2.251   1.880
 2099  SOL  HW2 6445   3.225   2.302   1.932
 2100  SOL   OW 6446   3.226   1.083   1.930
 2100  SOL  HW1 6447   3.294   1.108   1.993
 2100  SOL  HW2 6448   3.216   1.161   1.875
 2101  SOL   OW 6449   2.522   1.885   0.222
 2101  SOL  HW1 6450   2.584   1.838   0.167
 2101  SOL  HW2 6451   2.439   1.877   0.176
 2102  SOL   OW 6452   1.357   2.291   0.644
 2102  SOL  HW1 6453   1.345   2.251   0.558
 2102  SOL  HW2 6454   1.268   2.307   0.676
 2103  SOL   OW 6455   2.329   0.222   1.425
 2103  SOL  HW1 6456   2.423   0.214   1.409
 2103  SOL  HW2 6457   2.293   0.136   1.404
 2104  SOL   OW 6458   2.836   3.284   1.667
 2104  SOL  HW1 6459   2.817   3.192   1.685
 2104  SOL  HW2 6460   2.766   3.332   1.711
 2105  SOL   OW 6461   1.974   2.807   0.159
 2105  SOL  HW1 6462   2.017   2.722   0.174
 2105  SOL  HW2 6463   1.925   2.823   0.240
 2106  SOL   OW 6464   3.698   3.134   1.061
 2106  SOL  HW1 6465   3.666   3.222   1.043
 2106  SOL  HW2 6466   3.623   3.076   1.047
 2107  SOL   OW 6467   3.782   0.548   2.784
 2107  SOL  HW1 6468   3.723   0.537   2.859
 2107  SOL  HW2 6469   3.869   0.556   2.824
 2108  SOL   OW 6470   2.595   0.176   1.911
 2108  SOL  HW1 6471   2.681   0.140   1.889
 2108  SOL  HW2 6472   2.613   0.263   1.945
 2109  SOL   OW 6473   3.603   0.912   0.214
 2109  SOL  HW1 6474   3.578   0.839   0.156
 2109  SOL  HW2 6475   3.529   0.919   0.275
 2110  SOL   OW 6476   1.008   0.453   2.824
 2110  SOL  HW1 6477   0.967   0.371   2.794
 2110  SOL  HW2 6478   0.936   0.516   2.828
 2111  SOL   OW 6479   1.681   0.522   1.818
 2111  SOL  HW1 6480   1.685   0.613   1.790
 2111  SOL  HW2 6481   1.631   0.478   1.749
 2112  SOL   OW 6482   3.461   1.139   2.830
 2112  SOL  HW1 6483   3.526   1.198   2.790
 2112  SOL  HW2 6484   3.420   1.192   2.899
 2113  SOL   OW 6485   2.457   3.452   2.223
 2113  SOL  HW1 6486   2.451   3.417   2.134
 2113  SOL  HW2 6487   2.425   3.382   2.279
 2114  SOL   OW 6488   1.392   3.603   3.788
 2114  SOL  HW1 6489   1.462   3.647   3.740
 2114  SOL  HW2 6490   1.408   3.510   3.772
 2115  SOL   OW 6491   1.729   0.891   2.497
 2115  SOL  HW1 6492   1.664   0.821   2.489
 2115  SOL  HW2 6493   1.695   0.962   2.444
 2116  SOL   OW 6494   3.273   3.236   2.262
 2116  SOL  HW1 6495   3.284   3.201   2.350
 2116  SOL  HW2 6496   3.299   3.328   2.270
 2117  SOL   OW 6497   1.130   0.371   0.066
 2117  SOL  HW1 6498   1.124   0.401  -0.025
 2117  SOL  HW2 6499   1.051   0.318   0.078
 2118  SOL   OW 6500   2.268   2.332   3.182
 2118  SOL  HW1 6501   2.276   2.297   3.093
 2118  SOL  HW2 6502   2.306   2.264   3.237
 2119  SOL   OW 6503   3.274   0.045   0.586
 2119  SOL  HW1 6504   3.345  -0.016   0.565
 2119  SOL  HW2 6505   3.273   0.048   0.682
 2120  SOL   OW 6506   0.536   3.654   0.736
 2120  SOL  HW1 6507   0.605   3.716   0.759
 2120  SOL  HW2 6508   0.461   3.709   0.713
 2121  SOL   OW 6509   2.353   1.608   0.750
 2121  SOL  HW1 6510   2.314   1.686   0.789
 2121  SOL  HW2 6511   2.430   1.641   0.702
 2122  SOL   OW 6512   0.469   0.605   4.008
 2122  SOL  HW1 6513   0.541   0.640   3.956
 2122  SOL  HW2 6514   0.410   0.679   4.022
 2123  SOL   OW 6515   0.879   3.734   2.009
 2123  SOL  HW1 6516   0.937   3.681   1.955
 2123  SOL  HW2 6517   0.923   3.818   2.016
 2124  SOL   OW 6518   3.528   1.393   3.699
 2124  SOL  HW1 6519   3.494   1.463   3.755
 2124  SOL  HW2 6520   3.459   1.327   3.699
 2125  SOL   OW 6521   0.235   0.550   3.352
 2125  SOL  HW1 6522   0.294   0.562   3.427
 2125  SOL  HW2 6523   0.287   0.575   3.276
 2126  SOL   OW 6524   1.863   1.359   2.679
 2126  SOL  HW1 6525   1.854   1.298   2.752
 2126  SOL  HW2 6526   1.778   1.357   2.636
 2127  SOL   OW 6527   4.016   3.374   0.071
 2127  SOL  HW1 6528   4.006   3.283   0.044
 2127  SOL  HW2 6529   3.994   3.374   0.165
 2128  SOL   OW 6530   2.828   1.431   2.102
 2128  SOL  HW1 6531   2.759   1.454   2.039
 2128  SOL  HW2 6532   2.906   1.419   2.048
 2129  SOL   OW 6533   0.221   3.788   2.941
 2129  SOL  HW1 6534   0.143   3.833   2.974
 2129  SOL  HW2 6535   0.188   3.727   2.876
 2130  SOL   OW 6536   3.260   3.687   2.694
 2130  SOL  HW1 6537   3.242   3.653   2.782
 2130  SOL  HW2 6538   3.304   3.615   2.649
 2131  SOL   OW 6539   0.318   1.706   1.962
 2131  SOL  HW1 6540   0.236   1.755   1.957
 2131  SOL  HW2 6541   0.299   1.622   1.920
 2132  SOL   OW 6542  -0.016   3.524   3.882
 2132  SOL  HW1 6543  -0.032   3.496   3.973
 2132  SOL  HW2 6544   0.058   3.470   3.853
 2133  SOL   OW 6545   1.067   1.644   3.949
 2133  SOL  HW1 6546   0.993   1.640   4.009
 2133  SOL  HW2 6547   1.123   1.713   3.983
 2134  SOL   OW 6548   3.664   3.434   2.511
 2134  SOL  HW1 6549   3.695   3.372   2.578
 2134  SOL  HW2 6550   3.647   3.379   2.434
 2135  SOL   OW 6551   0.323   1.341   2.905
 2135  SOL  HW1 6552   0.237   1.332   2.865
 2135  SOL  HW2 6553   0.382   1.358   2.832
 2136  SOL   OW 6554   1.459   0.620   3.252
 2136  SOL  HW1 6555   1.533   0.663   3.211
 2136  SOL  HW2 6556   1.496   0.540   3.290
 2137  SOL   OW 6557   3.193   3.705   1.610
 2137  SOL  HW1 6558   3.185   3.723   1.704
 2137  SOL  HW2 6559   3.222   3.614   1.607
 2138  SOL   OW 6560   1.462   1.347   3.784
 2138  SOL  HW1 6561   1.374   1.379   3.763
 2138  SOL  HW2 6562   1.520   1.421   3.768
 2139  SOL   OW 6563   1.639   0.779   3.648
 2139  SOL  HW1 6564   1.583   0.830   3.589
 2139  SOL  HW2 6565   1.582   0.757   3.722
 2140  SOL   OW 6566   3.102   1.859   2.897
 2140  SOL  HW1 6567   3.033   1.808   2.855
 2140  SOL  HW2 6568   3.171   1.796   2.916
 2141  SOL   OW 6569   1.882   0.661   3.653
 2141  SOL  HW1 6570   1.805   0.713   3.630
 2141  SOL  HW2 6571   1.846   0.577   3.683
 2142  SOL   OW 6572   3.148   1.067   0.719
 2142  SOL  HW1 6573   3.172   1.139   0.661
 2142  SOL  HW2 6574   3.055   1.078   0.734
 2143  SOL   OW 6575   0.159   1.446   2.128
 2143  SOL  HW1 6576   0.105   1.387   2.181
 2143  SOL  HW2 6577   0.099   1.480   2.062
 2144  SOL   OW 6578   2.556   3.857   1.420
 2144  SOL  HW1 6579   2.544   3.794   1.490
 2144  SOL  HW2 6580   2.482   3.917   1.428
 2145  SOL   OW 6581   3.040   3.038   0.597
 2145  SOL  HW1 6582   3.052   3.109   0.534
 2145  SOL  HW2 6583   2.975   3.071   0.659
 2146  SOL   OW 6584   3.142   4.018   1.891
 2146  SOL  HW1 6585   3.222   4.050   1.933
 2146  SOL  HW2 6586   3.160   3.927   1.871
 2147  SOL   OW 6587   0.162   2.257   0.657
 2147  SOL  HW1 6588   0.097   2.244   0.726
 2147  SOL  HW2 6589   0.184   2.169   0.628
 2148  SOL   OW 6590   0.841   1.918   2.263
 2148  SOL  HW1 6591   0.907   1.899   2.196
 2148  SOL  HW2 6592   0.880   1.985   2.318
 2149  SOL   OW 6593   3.755   1.622   0.939
 2149  SOL  HW1 6594   3.676   1.656   0.980
 2149  SOL  HW2 6595   3.809   1.700   0.923
 2150  SOL   OW 6596   3.398   2.008   1.907
 2150  SOL  HW1 6597   3.369   2.064   1.835
 2150  SOL  HW2 6598   3.377   2.057   1.986
 2151  SOL   OW 6599   3.316   2.247   2.737
 2151  SOL  HW1 6600   3.346   2.259   2.647
 2151  SOL  HW2 6601   3.318   2.153   2.751
 2152  SOL   OW 6602   2.427   2.462   3.971
 2152  SOL  HW1 6603   2.519   2.439   3.957
 2152  SOL  HW2 6604   2.388   2.383   4.008
 2153  SOL   OW 6605   2.124   0.338   3.063
 2153  SOL  HW1 6606   2.192   0.313   3.001
 2153  SOL  HW2 6607   2.129   0.434   3.065
 2154  SOL   OW 6608   0.124   2.317   0.165
 2154  SOL  HW1 6609   0.070   2.319   0.245
 2154  SOL  HW2 6610   0.065   2.346   0.096
 2155  SOL   OW 6611   1.149   1.254   2.590
 2155  SOL  HW1 6612   1.110   1.190   2.530
 2155  SOL  HW2 6613   1.110   1.337   2.565
 2156  SOL   OW 6614   3.398   2.234   1.242
 2156  SOL  HW1 6615   3.488   2.260   1.262
 2156  SOL  HW2 6616   3.354   2.315   1.218
 2157  SOL   OW 6617   2.798   2.606   3.486
 2157  SOL  HW1 6618   2.711   2.638   3.509
 2157  SOL  HW2 6619   2.786   2.561   3.403
 2158  SOL   OW 6620   3.263   1.468   2.216
 2158  SOL  HW1 6621   3.199   1.466   2.288
 2158  SOL  HW2 6622   3.232   1.402   2.154
 2159  SOL   OW 6623   1.176   0.645   3.471
 2159  SOL  HW1 6624   1.266   0.611   3.473
 2159  SOL  HW2 6625   1.167   0.693   3.553
 2160  SOL   OW 6626   3.324   2.224   2.358
 2160  SOL  HW1 6627   3.308   2.297   2.419
 2160  SOL  HW2 6628   3.239   2.182   2.348
 2161  SOL   OW 6629   3.847   2.573   2.425
 2161  SOL  HW1 6630   3.767   2.625   2.428
 2161  SOL  HW2 6631   3.884   2.590   2.339
 2162  SOL   OW 6632   2.162   2.595   0.127
 2162  SOL  HW1 6633   2.095   2.562   0.067
 2162  SOL  HW2 6634   2.130   2.571   0.214
 2163  SOL   OW 6635   0.879   2.051   0.932
 2163  SOL  HW1 6636   0.904   2.052   0.840
 2163  SOL  HW2 6637   0.907   2.136   0.966
 2164  SOL   OW 6638   3.647   0.441   0.034
 2164  SOL  HW1 6639   3.741   0.451   0.042
 2164  SOL  HW2 6640   3.634   0.401  -0.053
 2165  SOL   OW 6641   1.492   1.063   0.780
 2165  SOL  HW1 6642   1.537   1.121   0.841
 2165  SOL  HW2 6643   1.476   1.118   0.703
 2166  SOL   OW 6644   0.712   2.915   2.282
 2166  SOL  HW1 6645   0.665   2.899   2.200
 2166  SOL  HW2 6646   0.666   2.990   2.321
 2167  SOL   OW 6647   0.201   0.406   2.376
 2167  SOL  HW1 6648   0.295   0.411   2.390
 2167  SOL  HW2 6649   0.178   0.488   2.333
 2168  SOL   OW 6650   2.545   1.533   2.763
 2168  SOL  HW1 6651   2.635   1.507   2.744
 2168  SOL  HW2 6652   2.522   1.483   2.842
 2169  SOL   OW 6653   0.960   3.144   1.046
 2169  SOL  HW1 6654   0.992   3.234   1.039
 2169  SOL  HW2 6655   0.959   3.125   1.139
 2170  SOL   OW 6656   2.707   3.384   3.705
 2170  SOL  HW1 6657   2.666   3.447   3.646
 2170  SOL  HW2 6658   2.636   3.354   3.761
 2171  SOL   OW 6659   2.042   3.315   1.599
 2171  SOL  HW1 6660   2.109   3.368   1.556
 2171  SOL  HW2 6661   2.073   3.309   1.690
 2172  SOL   OW 6662   3.234   3.237   0.127
 2172  SOL  HW1 6663   3.216   3.240   0.033
 2172  SOL  HW2 6664   3.189   3.159   0.158
 2173  SOL   OW 6665   3.441   2.658   0.488
 2173  SOL  HW1 6666   3.432   2.678   0.394
 2173  SOL  HW2 6667   3.532   2.681   0.508
 2174  SOL   OW 6668   3.184   2.265   3.662
 2174  SOL  HW1 6669   3.150   2.273   3.751
 2174  SOL  HW2 6670   3.228   2.180   3.661
 2175  SOL   OW 6671   2.419   1.556   2.344
 2175  SOL  HW1 6672   2.456   1.615   2.410
 2175  SOL  HW2 6673   2.466   1.578   2.264
 2176  SOL   OW 6674   0.336   2.093   2.868
 2176  SOL  HW1 6675   0.397   2.036   2.914
 2176  SOL  HW2 6676   0.391   2.163   2.833
 2177  SOL   OW 6677   3.247   1.998   0.376
 2177  SOL  HW1 6678   3.303   1.922   0.392
 2177  SOL  HW2 6679   3.212   1.983   0.288
 2178  SOL   OW 6680   0.233   3.262   1.676
 2178  SOL  HW1 6681   0.178   3.336   1.705
 2178  SOL  HW2 6682   0.230   3.200   1.748
 2179  SOL   OW 6683   0.370   1.787   3.661
 2179  SOL  HW1 6684   0.312   1.774   3.586
 2179  SOL  HW2 6685   0.398   1.878   3.653
 2180  SOL   OW 6686   3.623   3.927   2.172
 2180  SOL  HW1 6687   3.681   3.898   2.243
 2180  SOL  HW2 6688   3.631   3.860   2.105
 2181  SOL   OW 6689   1.986   0.285   3.457
 2181  SOL  HW1 6690   1.961   0.313   3.545
 2181  SOL  HW2 6691   1.926   0.332   3.399
 2182  SOL   OW 6692   0.210   1.658   1.042
 2182  SOL  HW1 6693   0.151   1.671   0.967
 2182  SOL  HW2 6694   0.289   1.621   1.005
 2183  SOL   OW 6695   3.855   3.390   0.449
 2183  SOL  HW1 6696   3.839   3.445   0.373
 2183  SOL  HW2 6697   3.832   3.445   0.524
 2184  SOL   OW 6698   0.372   3.578   2.345
 2184  SOL  HW1 6699   0.295   3.596   2.291
 2184  SOL  HW2 6700   0.413   3.664   2.358
 2185  SOL   OW 6701   3.850   1.185   3.510
 2185  SOL  HW1 6702   3.899   1.119   3.558
 2185  SOL  HW2 6703   3.760   1.154   3.511
 2186  SOL   OW 6704   1.451   3.632   3.321
 2186  SOL  HW1 6705   1.365   3.673   3.312
 2186  SOL  HW2 6706   1.506   3.699   3.361
 2187  SOL   OW 6707   2.020   1.720   0.188
 2187  SOL  HW1 6708   2.010   1.814   0.175
 2187  SOL  HW2 6709   1.931   1.686   0.193
 2188  SOL   OW 6710   3.118   2.424   4.016
 2188  SOL  HW1 6711   3.025   2.441   4.003
 2188  SOL  HW2 6712   3.155   2.510   4.040
 2189  SOL   OW 6713   2.914   0.475   0.993
 2189  SOL  HW1 6714   2.943   0.471   0.902
 2189  SOL  HW2 6715   2.965   0.408   1.037
 2190  SOL   OW 6716   3.373   2.647   1.637
 2190  SOL  HW1 6717   3.326   2.677   1.559
 2190  SOL  HW2 6718   3.458   2.619   1.605
 2191  SOL   OW 6719   0.994   2.954   3.114
 2191  SOL  HW1 6720   0.989   2.861   3.136
 2191  SOL  HW2 6721   0.974   2.957   3.020
 2192  SOL   OW 6722   1.462   1.709   2.951
 2192  SOL  HW1 6723   1.388   1.718   2.890
 2192  SOL  HW2 6724   1.538   1.698   2.895
 2193  SOL   OW 6725   1.371   2.946   2.405
 2193  SOL  HW1 6726   1.423   3.025   2.419
 2193  SOL  HW2 6727   1.374   2.899   2.488
 2194  SOL   OW 6728   2.294   0.611   1.759
 2194  SOL  HW1 6729   2.315   0.525   1.797
 2194  SOL  HW2 6730   2.319   0.603   1.667
 2195  SOL   OW 6731   1.291   2.555   1.410
 2195  SOL  HW1 6732   1.275   2.493   1.481
 2195  SOL  HW2 6733   1.305   2.639   1.454
 2196  SOL   OW 6734   3.953   1.709   3.319
 2196  SOL  HW1 6735   3.980   1.716   3.410
 2196  SOL  HW2 6736   3.951   1.615   3.301
 2197  SOL   OW 6737   3.889   1.983   3.256
 2197  SOL  HW1 6738   3.904   1.894   3.287
 2197  SOL  HW2 6739   3.797   1.999   3.273
 2198  SOL   OW 6740   2.728   1.533   0.612
 2198  SOL  HW1 6741   2.639   1.501   0.621
 2198  SOL  HW2 6742   2.736   1.560   0.521
 2199  SOL   OW 6743   2.079   2.817   2.170
 2199  SOL  HW1 6744   2.004   2.833   2.228
 2199  SOL  HW2 6745   2.051   2.746   2.113
 2200  SOL   OW 6746   2.198   3.730   2.572
 2200  SOL  HW1 6747   2.182   3.636   2.565
 2200  SOL  HW2 6748   2.110   3.769   2.570
 2201  SOL   OW 6749   2.790   2.164   0.833
 2201  SOL  HW1 6750   2.795   2.125   0.920
 2201  SOL  HW2 6751   2.820   2.254   0.846
 2202  SOL   OW 6752   3.092   2.930   3.739
 2202  SOL  HW1 6753   3.183   2.904   3.752
 2202  SOL  HW2 6754   3.094   2.989   3.663
 2203  SOL   OW 6755   2.656   1.538   1.060
 2203  SOL  HW1 6756   2.721   1.468   1.065
 2203  SOL  HW2 6757   2.584   1.499   1.010
 2204  SOL   OW 6758   3.042   3.587   2.868
 2204  SOL  HW1 6759   3.058   3.582   2.962
 2204  SOL  HW2 6760   3.040   3.496   2.839
 2205  SOL   OW 6761   2.120   2.946   2.429
 2205  SOL  HW1 6762   2.170   3.006   2.485
 2205  SOL  HW2 6763   2.086   3.003   2.359
 2206  SOL   OW 6764   2.431   3.013   0.767
 2206  SOL  HW1 6765   2.427   3.102   0.732
 2206  SOL  HW2 6766   2.503   2.971   0.721
 2207  SOL   OW 6767   0.847   0.140   1.640
 2207  SOL  HW1 6768   0.827   0.056   1.598
 2207  SOL  HW2 6769   0.807   0.205   1.582
 2208  SOL   OW 6770   2.091   1.580  -0.028
 2208  SOL  HW1 6771   2.035   1.503  -0.023
 2208  SOL  HW2 6772   2.082   1.621   0.058
 2209  SOL   OW 6773   2.153   2.016   1.461
 2209  SOL  HW1 6774   2.158   2.052   1.373
 2209  SOL  HW2 6775   2.243   1.997   1.485
 2210  SOL   OW 6776   3.085   0.463   3.441
 2210  SOL  HW1 6777   3.018   0.427   3.382
 2210  SOL  HW2 6778   3.041   0.467   3.526
 2211  SOL   OW 6779   1.742   1.909   0.038
 2211  SOL  HW1 6780   1.655   1.922  -0.000
 2211  SOL  HW2 6781   1.754   1.982   0.098
 2212  SOL   OW 6782   2.558   1.728   2.509
 2212  SOL  HW1 6783   2.632   1.773   2.469
 2212  SOL  HW2 6784   2.596   1.677   2.580
 2213  SOL   OW 6785   1.461   0.081   0.379
 2213  SOL  HW1 6786   1.470  -0.014   0.386
 2213  SOL  HW2 6787   1.377   0.094   0.335
 2214  SOL   OW 6788   2.106   0.608   3.089
 2214  SOL  HW1 6789   2.079   0.682   3.143
 2214  SOL  HW2 6790   2.045   0.609   3.014
 2215  SOL   OW 6791   1.415   0.912   0.170
 2215  SOL  HW1 6792   1.493   0.894   0.117
 2215  SOL  HW2 6793   1.420   0.849   0.242
 2216  SOL   OW 6794   2.714   2.870   0.708
 2216  SOL  HW1 6795   2.649   2.805   0.684
 2216  SOL  HW2 6796   2.766   2.883   0.628
 2217  SOL   OW 6797   1.460   1.760   3.204
 2217  SOL  HW1 6798   1.470   1.746   3.110
 2217  SOL  HW2 6799   1.546   1.740   3.241
 2218  SOL   OW 6800   2.416   2.107   3.282
 2218  SOL  HW1 6801   2.457   2.112   3.368
 2218  SOL  HW2 6802   2.450   2.026   3.244
 2219  SOL   OW 6803   1.709   3.638   3.094
 2219  SOL  HW1 6804   1.758   3.637   3.177
 2219  SOL  HW2 6805   1.677   3.728   3.087
 2220  SOL   OW 6806   3.824   1.850   2.692
 2220  SOL  HW1 6807   3.805   1.926   2.636
 2220  SOL  HW2 6808   3.812   1.882   2.781
 2221  SOL   OW 6809   2.359   0.007   0.495
 2221  SOL  HW1 6810   2.422   0.074   0.523
 2221  SOL  HW2 6811   2.276   0.035   0.534
 2222  SOL   OW 6812   2.993   2.324   3.028
 2222  SOL  HW1 6813   2.937   2.253   3.057
 2222  SOL  HW2 6814   3.007   2.307   2.935
 2223  SOL   OW 6815   0.726   3.461   0.944
 2223  SOL  HW1 6816   0.723   3.478   1.038
 2223  SOL  HW2 6817   0.722   3.365   0.937
 2224  SOL   OW 6818   0.580   1.333   0.625
 2224  SOL  HW1 6819   0.485   1.328   0.633
 2224  SOL  HW2 6820   0.600   1.282   0.546
 2225  SOL   OW 6821   2.785   1.508   2.582
 2225  SOL  HW1 6822   2.789   1.421   2.623
 2225  SOL  HW2 6823   2.832   1.498   2.500
 2226  SOL   OW 6824   2.290   3.091   3.118
 2226  SOL  HW1 6825   2.265   3.006   3.152
 2226  SOL  HW2 6826   2.386   3.091   3.120
 2227  SOL   OW 6827   0.362   1.970   1.801
 2227  SOL  HW1 6828   0.429   1.911   1.837
 2227  SOL  HW2 6829   0.299   1.980   1.872
 2228  SOL   OW 6830   4.024   2.835   2.597
 2228  SOL  HW1 6831   3.972   2.778   2.541
 2228  SOL  HW2 6832   4.057   2.777   2.666
 2229  SOL   OW 6833   3.098   1.250   0.027
 2229  SOL  HW1 6834   3.185   1.226  -0.007
 2229  SOL  HW2 6835   3.042   1.175   0.005
 2230  SOL   OW 6836   1.345   2.002   3.435
 2230  SOL  HW1 6837   1.265   1.962   3.402
 2230  SOL  HW2 6838   1.323   2.093   3.449
 2231  SOL   OW 6839   0.101   1.978   2.260
 2231  SOL  HW1 6840   0.095   1.937   2.174
 2231  SOL  HW2 6841   0.135   1.909   2.317
 2232  SOL   OW 6842   2.802   0.387   0.714
 2232  SOL  HW1 6843   2.805   0.370   0.620
 2232  SOL  HW2 6844   2.777   0.479   0.721
 2233  SOL   OW 6845   1.771   0.761   0.443
 2233  SOL  HW1 6846   1.814   0.763   0.357
 2233  SOL  HW2 6847   1.760   0.667   0.461
 2234  SOL   OW 6848   0.999   0.083   0.738
 2234  SOL  HW1 6849   1.014   0.160   0.793
 2234  SOL  HW2 6850   0.915   0.101   0.695
 2235  SOL   OW 6851   1.985   3.904   0.078
 2235  SOL  HW1 6852   1.961   3.814   0.098
 2235  SOL  HW2 6853   1.904   3.944   0.046
 2236  SOL   OW 6854   1.075   1.504   0.600
 2236  SOL  HW1 6855   1.057   1.417   0.635
 2236  SOL  HW2 6856   1.106   1.555   0.676
 2237  SOL   OW 6857   1.104   0.470   0.729
 2237  SOL  HW1 6858   1.073   0.531   0.662
 2237  SOL  HW2 6859   1.124   0.390   0.681
 2238  SOL   OW 6860   0.182   3.031   2.955
 2238  SOL  HW1 6861   0.122   3.023   2.881
 2238  SOL  HW2 6862   0.151   2.967   3.019
 2239  SOL   OW 6863   1.304   1.202   0.456
 2239  SOL  HW1 6864   1.264   1.280   0.418
 2239  SOL  HW2 6865   1.356   1.235   0.529
 2240  SOL   OW 6866   0.293   3.239   2.272
 2240  SOL  HW1 6867   0.278   3.263   2.181
 2240  SOL  HW2 6868   0.335   3.316   2.311
 2241  SOL   OW 6869   3.002   3.572   0.950
 2241  SOL  HW1 6870   2.913   3.583   0.982
 2241  SOL  HW2 6871   3.018   3.650   0.896
 2242  SOL   OW 6872   1.120   2.032   3.934
 2242  SOL  HW1 6873   1.177   2.057   3.861
 2242  SOL  HW2 6874   1.050   2.098   3.933
 2243  SOL   OW 6875   0.657   1.455   1.179
 2243  SOL  HW1 6876   0.679   1.393   1.110
 2243  SOL  HW2 6877   0.742   1.479   1.218
 2244  SOL   OW 6878   0.284   2.591   1.211
 2244  SOL  HW1 6879   0.348   2.545   1.156
 2244  SOL  HW2 6880   0.202   2.546   1.194
 2245  SOL   OW 6881   2.202   3.115   1.354
 2245  SOL  HW1 6882   2.294   3.106   1.330
 2245  SOL  HW2 6883   2.192   3.058   1.431
 2246  SOL   OW 6884   3.663   1.439   0.348
 2246  SOL  HW1 6885   3.690   1.374   0.282
 2246  SOL  HW2 6886   3.645   1.388   0.426
 2247  SOL   OW 6887   3.899   0.441   2.260
 2247  SOL  HW1 6888   3.916   0.347   2.269
 2247  SOL  HW2 6889   3.834   0.460   2.327
 2248  SOL   OW 6890   1.578   3.630   1.033
 2248  SOL  HW1 6891   1.547   3.716   1.062
 2248  SOL  HW2 6892   1.525   3.610   0.956
 2249  SOL   OW 6893   4.023   1.174   3.290
 2249  SOL  HW1 6894   3.949   1.171   3.351
 2249  SOL  HW2 6895   3.984   1.159   3.204
 2250  SOL   OW 6896   0.191   1.253   1.330
 2250  SOL  HW1 6897   0.276   1.289   1.356
 2250  SOL  HW2 6898   0.148   1.325   1.285
 2251  SOL   OW 6899   1.105   1.878   2.564
 2251  SOL  HW1 6900   1.105   1.959   2.512
 2251  SOL  HW2 6901   1.083   1.809   2.501
 2252  SOL   OW 6902   3.753   2.352   3.106
 2252  SOL  HW1 6903   3.833   2.302   3.121
 2252  SOL  HW2 6904   3.710   2.308   3.033
 2253  SOL   OW 6905   0.461   2.669   2.940
 2253  SOL  HW1 6906   0.452   2.757   2.904
 2253  SOL  HW2 6907   0.473   2.613   2.863
 2254  SOL   OW 6908   3.269   3.464   3.530
 2254  SOL  HW1 6909   3.271   3.550   3.487
 2254  SOL  HW2 6910   3.211   3.412   3.476
 2255  SOL   OW 6911   0.641   3.405   0.656
 2255  SOL  HW1 6912   0.660   3.343   0.726
 2255  SOL  HW2 6913   0.625   3.488   0.700
 2256  SOL   OW 6914   2.186   0.905   2.025
 2256  SOL  HW1 6915   2.278   0.916   2.049
 2256  SOL  HW2 6916   2.188   0.848   1.948
 2257  SOL   OW 6917   3.461   0.632   1.004
 2257  SOL  HW1 6918   3.460   0.702   1.069
 2257  SOL  HW2 6919   3.429   0.555   1.050
 2258  SOL   OW 6920   2.713   0.043   0.720
 2258  SOL  HW1 6921   2.695   0.104   0.791
 2258  SOL  HW2 6922   2.661  -0.034   0.741
 2259  SOL   OW 6923   2.565   3.666   4.017
 2259  SOL  HW1 6924   2.644   3.662   3.963
 2259  SOL  HW2 6925   2.597   3.667   4.107
 2260  SOL   OW 6926   1.390   1.709   0.426
 2260  SOL  HW1 6927   1.431   1.794   0.412
 2260  SOL  HW2 6928   1.365   1.680   0.338
 2261  SOL   OW 6929   3.367   3.204   2.532
 2261  SOL  HW1 6930   3.322   3.135   2.582
 2261  SOL  HW2 6931   3.343   3.285   2.577
 2262  SOL   OW 6932   2.859   2.423   0.709
 2262  SOL  HW1 6933   2.792   2.449   0.646
 2262  SOL  HW2 6934   2.853   2.488   0.779
   4.03920   4.03920   4.03920
