Converted from md.pdb
6713
    0  TYR    N    1   1.759   3.721   2.083
    0  TYR   H1    2   1.854   3.687   2.109
    0  TYR   H2    3   1.730   3.675   1.994
    0  TYR   H3    4   1.695   3.689   2.157
    0  TYR   CA    5   1.761   3.871   2.057
    0  TYR   HA    6   1.764   3.880   1.949
    0  TYR   CB    7   1.632   3.920   2.119
    0  TYR  HB1    8   1.632   4.030   2.105
    0  TYR  HB2    9   1.623   3.900   2.228
    0  TYR   CG   10   1.505   3.866   2.063
    0  TYR  CD1   11   1.475   3.887   1.925
    0  TYR  HD1   12   1.552   3.932   1.865
    0  TYR  CE1   13   1.355   3.851   1.868
    0  TYR  HE1   14   1.339   3.880   1.766
    0  TYR   CZ   15   1.260   3.784   1.950
    0  TYR   OH   16   1.133   3.753   1.892
    0  TYR   HH   17   1.078   3.733   1.969
    0  TYR  CD2   18   1.407   3.799   2.135
    0  TYR  HD2   19   1.426   3.793   2.241
    0  TYR  CE2   20   1.287   3.753   2.083
    0  TYR  HE2   21   1.225   3.691   2.146
    0  TYR    C   22   1.878   3.940   2.127
    0  TYR    O   23   1.891   3.952   2.244
    1  TYR    N   24   1.967   3.998   2.044
    1  TYR   HN   25   1.962   3.972   1.948
    1  TYR   CA   26   2.071   4.093   2.081
    1  TYR   HA   27   2.068   4.111   2.187
    1  TYR   CB   28   2.208   4.027   2.066
    1  TYR  HB1   29   2.230   4.010   1.958
    1  TYR  HB2   30   2.211   3.924   2.107
    1  TYR   CG   31   2.327   4.095   2.128
    1  TYR  CD1   32   2.357   4.098   2.268
    1  TYR  HD1   33   2.296   4.032   2.327
    1  TYR  CE1   34   2.451   4.183   2.317
    1  TYR  HE1   35   2.462   4.178   2.424
    1  TYR   CZ   36   2.524   4.275   2.236
    1  TYR   OH   37   2.620   4.356   2.288
    1  TYR   HH   38   2.671   4.397   2.218
    1  TYR  CD2   39   2.406   4.175   2.042
    1  TYR  HD2   40   2.388   4.177   1.935
    1  TYR  CE2   41   2.498   4.262   2.100
    1  TYR  HE2   42   2.543   4.333   2.032
    1  TYR    C   43   2.067   4.222   2.002
    1  TYR    O   44   2.053   4.223   1.879
    2  ASP    N   45   2.088   4.339   2.064
    2  ASP   HN   46   2.094   4.334   2.164
    2  ASP   CA   47   2.074   4.476   2.004
    2  ASP   HA   48   2.040   4.466   1.901
    2  ASP   CB   49   1.981   4.563   2.090
    2  ASP  HB1   50   1.974   4.667   2.050
    2  ASP  HB2   51   2.035   4.563   2.187
    2  ASP   CG   52   1.845   4.507   2.079
    2  ASP  OD1   53   1.801   4.456   1.969
    2  ASP  OD2   54   1.782   4.515   2.186
    2  ASP    C   55   2.206   4.535   1.994
    2  ASP    O   56   2.269   4.553   2.099
    3  PRO    N   57   2.262   4.579   1.882
    3  PRO   CD   58   2.212   4.549   1.747
    3  PRO  HD1   59   2.185   4.442   1.733
    3  PRO  HD2   60   2.125   4.614   1.724
    3  PRO   CA   61   2.368   4.679   1.873
    3  PRO   HA   62   2.449   4.648   1.936
    3  PRO   CB   63   2.414   4.681   1.724
    3  PRO  HB1   64   2.524   4.675   1.706
    3  PRO  HB2   65   2.385   4.779   1.680
    3  PRO   CG   66   2.336   4.569   1.654
    3  PRO  HG1   67   2.394   4.474   1.651
    3  PRO  HG2   68   2.315   4.593   1.548
    3  PRO    C   69   2.321   4.822   1.909
    3  PRO    O   70   2.200   4.856   1.893
    4  TYR    N   71   2.413   4.904   1.956
    4  TYR   HN   72   2.505   4.867   1.973
    4  TYR   CA   73   2.381   5.040   1.975
    4  TYR   HA   74   2.310   5.072   1.900
    4  TYR   CB   75   2.317   5.063   2.118
    4  TYR  HB1   76   2.383   5.032   2.202
    4  TYR  HB2   77   2.229   4.998   2.134
    4  TYR   CG   78   2.271   5.203   2.144
    4  TYR  CD1   79   2.157   5.248   2.075
    4  TYR  HD1   80   2.109   5.185   2.001
    4  TYR  CE1   81   2.120   5.383   2.096
    4  TYR  HE1   82   2.045   5.420   2.029
    4  TYR   CZ   83   2.183   5.461   2.196
    4  TYR   OH   84   2.140   5.593   2.218
    4  TYR   HH   85   2.063   5.592   2.160
    4  TYR  CD2   86   2.333   5.285   2.235
    4  TYR  HD2   87   2.428   5.256   2.277
    4  TYR  CE2   88   2.290   5.413   2.269
    4  TYR  HE2   89   2.342   5.471   2.344
    4  TYR    C   90   2.505   5.136   1.963
    4  TYR    O   91   2.611   5.103   2.010
    5  THR    N   92   2.499   5.254   1.893
    5  THR   HN   93   2.416   5.281   1.846
    5  THR   CA   94   2.602   5.347   1.881
    5  THR   HA   95   2.563   5.443   1.849
    5  THR   CB   96   2.679   5.390   2.007
    5  THR   HB   97   2.744   5.304   2.035
    5  THR  OG1   98   2.604   5.431   2.116
    5  THR  HG1   99   2.669   5.472   2.173
    5  THR  CG2  100   2.774   5.505   1.976
    5  THR 1HG2  101   2.833   5.529   2.067
    5  THR 2HG2  102   2.708   5.594   1.967
    5  THR 3HG2  103   2.838   5.480   1.889
    5  THR    C  104   2.683   5.302   1.760
    5  THR    O  105   2.730   5.193   1.742
    6  GLY    N  106   2.708   5.396   1.665
    6  GLY   HN  107   2.671   5.488   1.672
    6  GLY   CA  108   2.812   5.373   1.556
    6  GLY  HA1  109   2.775   5.294   1.491
    6  GLY  HA2  110   2.902   5.345   1.608
    6  GLY    C  111   2.839   5.490   1.472
    6  GLY    O  112   2.931   5.482   1.396
    7  THR    N  113   2.767   5.598   1.493
    7  THR   HN  114   2.697   5.604   1.564
    7  THR   CA  115   2.786   5.716   1.407
    7  THR   HA  116   2.805   5.669   1.312
    7  THR   CB  117   2.657   5.796   1.397
    7  THR   HB  118   2.643   5.852   1.493
    7  THR  OG1  119   2.545   5.715   1.359
    7  THR  HG1  120   2.469   5.772   1.374
    7  THR  CG2  121   2.676   5.910   1.294
    7  THR 1HG2  122   2.589   5.978   1.280
    7  THR 2HG2  123   2.687   5.859   1.195
    7  THR 3HG2  124   2.763   5.978   1.309
    7  THR    C  125   2.897   5.803   1.449
    7  THR    O  126   2.909   5.824   1.567
    8  TRP    N  127   2.979   5.861   1.358
    8  TRP   HN  128   2.982   5.842   1.260
    8  TRP   CA  129   3.090   5.948   1.393
    8  TRP   HA  130   3.069   5.989   1.491
    8  TRP   CB  131   3.222   5.862   1.395
    8  TRP  HB1  132   3.258   5.832   1.295
    8  TRP  HB2  133   3.204   5.764   1.445
    8  TRP   CG  134   3.337   5.921   1.482
    8  TRP  CD1  135   3.472   5.938   1.446
    8  TRP  HD1  136   3.516   5.911   1.351
    8  TRP  NE1  137   3.550   5.971   1.560
    8  TRP  HE1  138   3.644   5.957   1.580
    8  TRP  CE2  139   3.459   5.985   1.666
    8  TRP  CD2  140   3.324   5.960   1.620
    8  TRP  CE3  141   3.222   5.959   1.710
    8  TRP  HE3  142   3.119   5.949   1.679
    8  TRP  CZ3  143   3.245   5.991   1.844
    8  TRP  HZ3  144   3.170   5.995   1.921
    8  TRP  CZ2  145   3.479   6.018   1.797
    8  TRP  HZ2  146   3.581   6.047   1.820
    8  TRP  CH2  147   3.376   6.024   1.891
    8  TRP  HH2  148   3.397   6.057   1.991
    8  TRP    C  149   3.104   6.054   1.286
    8  TRP    O  150   3.084   6.035   1.168
    9  TYR    N  151   3.139   6.182   1.339
    9  TYR   HN  152   3.162   6.204   1.433
    9  TYR   CA  153   3.140   6.310   1.268
    9  TYR   HA  154   3.167   6.296   1.164
    9  TYR   CB  155   3.005   6.372   1.269
    9  TYR  HB1  156   3.006   6.483   1.274
    9  TYR  HB2  157   2.946   6.357   1.361
    9  TYR   CG  158   2.910   6.333   1.155
    9  TYR  CD1  159   2.944   6.374   1.027
    9  TYR  HD1  160   3.039   6.417   1.000
    9  TYR  CE1  161   2.866   6.329   0.912
    9  TYR  HE1  162   2.892   6.359   0.811
    9  TYR   CZ  163   2.752   6.252   0.931
    9  TYR   OH  164   2.686   6.199   0.821
    9  TYR   HH  165   2.696   6.269   0.756
    9  TYR  CD2  166   2.805   6.232   1.169
    9  TYR  HD2  167   2.792   6.193   1.269
    9  TYR  CE2  168   2.723   6.207   1.058
    9  TYR  HE2  169   2.636   6.143   1.063
    9  TYR    C  170   3.242   6.400   1.339
    9  TYR  OT1  171   3.275   6.503   1.283
    9  TYR  OT2  172   3.290   6.363   1.453
   10  SOL   OW  173   3.372   2.676   0.453
   10  SOL  HW1  174   3.444   2.735   0.434
   10  SOL  HW2  175   3.317   2.679   0.374
   11  SOL   OW  176   0.459   0.211   1.084
   11  SOL  HW1  177   0.377   0.219   1.037
   11  SOL  HW2  178   0.512   0.152   1.030
   12  SOL   OW  179   2.566   3.099   3.118
   12  SOL  HW1  180   2.532   3.185   3.092
   12  SOL  HW2  181   2.512   3.037   3.069
   13  SOL   OW  182   3.501   2.296   1.591
   13  SOL  HW1  183   3.518   2.203   1.573
   13  SOL  HW2  184   3.409   2.307   1.570
   14  SOL   OW  185   2.631   0.349   0.952
   14  SOL  HW1  186   2.618   0.403   0.874
   14  SOL  HW2  187   2.721   0.367   0.980
   15  SOL   OW  188   0.416   0.464   2.272
   15  SOL  HW1  189   0.484   0.412   2.229
   15  SOL  HW2  190   0.409   0.544   2.220
   16  SOL   OW  191   1.385   1.225   0.440
   16  SOL  HW1  192   1.350   1.199   0.355
   16  SOL  HW2  193   1.448   1.156   0.462
   17  SOL   OW  194   3.630   3.466   0.400
   17  SOL  HW1  195   3.612   3.378   0.368
   17  SOL  HW2  196   3.712   3.491   0.357
   18  SOL   OW  197   1.897   0.999   0.612
   18  SOL  HW1  198   1.937   0.936   0.552
   18  SOL  HW2  199   1.954   0.998   0.689
   19  SOL   OW  200   1.498   1.803   2.103
   19  SOL  HW1  201   1.539   1.842   2.180
   19  SOL  HW2  202   1.537   1.849   2.029
   20  SOL   OW  203   3.967   1.727   1.036
   20  SOL  HW1  204   3.924   1.809   1.012
   20  SOL  HW2  205   3.915   1.659   0.994
   21  SOL   OW  206   2.865   2.739   3.295
   21  SOL  HW1  207   2.917   2.771   3.368
   21  SOL  HW2  208   2.792   2.800   3.288
   22  SOL   OW  209   0.174   1.439   2.202
   22  SOL  HW1  210   0.214   1.522   2.229
   22  SOL  HW2  211   0.080   1.451   2.220
   23  SOL   OW  212   0.929   2.592   1.888
   23  SOL  HW1  213   0.903   2.504   1.915
   23  SOL  HW2  214   0.972   2.580   1.804
   24  SOL   OW  215   3.734   2.024   0.095
   24  SOL  HW1  216   3.728   1.973   0.014
   24  SOL  HW2  217   3.665   1.989   0.151
   25  SOL   OW  218   0.045   2.258   3.299
   25  SOL  HW1  219  -0.026   2.271   3.362
   25  SOL  HW2  220   0.030   2.325   3.232
   26  SOL   OW  221   1.425   1.437   3.205
   26  SOL  HW1  222   1.446   1.520   3.163
   26  SOL  HW2  223   1.496   1.378   3.179
   27  SOL   OW  224   0.485   3.140   2.526
   27  SOL  HW1  225   0.509   3.129   2.618
   27  SOL  HW2  226   0.567   3.127   2.478
   28  SOL   OW  227   3.696   2.381   2.349
   28  SOL  HW1  228   3.661   2.347   2.266
   28  SOL  HW2  229   3.743   2.460   2.324
   29  SOL   OW  230   0.687   0.670   2.418
   29  SOL  HW1  231   0.604   0.681   2.464
   29  SOL  HW2  232   0.665   0.613   2.344
   30  SOL   OW  233   3.526   1.261   0.305
   30  SOL  HW1  234   3.556   1.198   0.371
   30  SOL  HW2  235   3.528   1.212   0.223
   31  SOL   OW  236   0.015   2.317   1.827
   31  SOL  HW1  237   0.037   2.281   1.913
   31  SOL  HW2  238   0.028   2.411   1.836
   32  SOL   OW  239   1.158   0.753   1.105
   32  SOL  HW1  240   1.156   0.741   1.200
   32  SOL  HW2  241   1.116   0.837   1.090
   33  SOL   OW  242   3.157   3.709   2.618
   33  SOL  HW1  243   3.112   3.786   2.582
   33  SOL  HW2  244   3.160   3.647   2.546
   34  SOL   OW  245   0.277   1.938   0.109
   34  SOL  HW1  246   0.274   1.943   0.014
   34  SOL  HW2  247   0.216   1.868   0.132
   35  SOL   OW  248   1.708   1.010   3.547
   35  SOL  HW1  249   1.719   0.918   3.567
   35  SOL  HW2  250   1.682   1.012   3.454
   36  SOL   OW  251   0.581   3.163   1.310
   36  SOL  HW1  252   0.564   3.164   1.216
   36  SOL  HW2  253   0.662   3.114   1.320
   37  SOL   OW  254   1.537   2.038   1.304
   37  SOL  HW1  255   1.535   2.060   1.211
   37  SOL  HW2  256   1.467   1.972   1.313
   38  SOL   OW  257   1.935   2.887   3.131
   38  SOL  HW1  258   1.870   2.947   3.096
   38  SOL  HW2  259   1.926   2.893   3.226
   39  SOL   OW  260   1.877   1.769   2.757
   39  SOL  HW1  261   1.929   1.849   2.762
   39  SOL  HW2  262   1.904   1.727   2.676
   40  SOL   OW  263   3.123   0.928   2.753
   40  SOL  HW1  264   3.085   0.942   2.840
   40  SOL  HW2  265   3.049   0.902   2.699
   41  SOL   OW  266   1.621   2.674   0.255
   41  SOL  HW1  267   1.558   2.742   0.231
   41  SOL  HW2  268   1.581   2.630   0.330
   42  SOL   OW  269   1.822   0.174   0.231
   42  SOL  HW1  270   1.866   0.201   0.151
   42  SOL  HW2  271   1.892   0.163   0.295
   43  SOL   OW  272   2.059   1.546   0.686
   43  SOL  HW1  273   2.000   1.470   0.682
   43  SOL  HW2  274   2.086   1.559   0.595
   44  SOL   OW  275   2.537   3.880   0.303
   44  SOL  HW1  276   2.524   3.890   0.398
   44  SOL  HW2  277   2.630   3.858   0.294
   45  SOL   OW  278   1.421   0.305   1.311
   45  SOL  HW1  279   1.380   0.375   1.260
   45  SOL  HW2  280   1.512   0.306   1.285
   46  SOL   OW  281   2.615   2.041   1.677
   46  SOL  HW1  282   2.623   1.962   1.731
   46  SOL  HW2  283   2.601   2.112   1.740
   47  SOL   OW  284   1.449   3.854   0.742
   47  SOL  HW1  285   1.524   3.826   0.689
   47  SOL  HW2  286   1.476   3.839   0.832
   48  SOL   OW  287   1.786   2.394   0.170
   48  SOL  HW1  288   1.704   2.345   0.177
   48  SOL  HW2  289   1.770   2.476   0.216
   49  SOL   OW  290   0.319   3.565   3.895
   49  SOL  HW1  291   0.375   3.492   3.870
   49  SOL  HW2  292   0.325   3.626   3.821
   50  SOL   OW  293   0.531   0.442   3.961
   50  SOL  HW1  294   0.557   0.441   4.054
   50  SOL  HW2  295   0.501   0.532   3.947
   51  SOL   OW  296   1.246   1.551   1.959
   51  SOL  HW1  297   1.301   1.562   2.036
   51  SOL  HW2  298   1.156   1.554   1.992
   52  SOL   OW  299   0.251   1.550   3.930
   52  SOL  HW1  300   0.184   1.619   3.928
   52  SOL  HW2  301   0.245   1.514   4.018
   53  SOL   OW  302   0.795   0.457   0.412
   53  SOL  HW1  303   0.844   0.440   0.332
   53  SOL  HW2  304   0.863   0.474   0.478
   54  SOL   OW  305   3.593   3.172   3.511
   54  SOL  HW1  306   3.514   3.226   3.518
   54  SOL  HW2  307   3.661   3.233   3.481
   55  SOL   OW  308   2.883   0.201   2.976
   55  SOL  HW1  309   2.975   0.208   3.002
   55  SOL  HW2  310   2.868   0.107   2.966
   56  SOL   OW  311   3.533   3.870   3.331
   56  SOL  HW1  312   3.502   3.899   3.416
   56  SOL  HW2  313   3.456   3.831   3.289
   57  SOL   OW  314   3.954   1.272   1.860
   57  SOL  HW1  315   4.043   1.254   1.889
   57  SOL  HW2  316   3.960   1.358   1.818
   58  SOL   OW  317   2.413   2.274   1.026
   58  SOL  HW1  318   2.377   2.217   1.093
   58  SOL  HW2  319   2.476   2.218   0.979
   59  SOL   OW  320   3.921   3.809   1.091
   59  SOL  HW1  321   3.954   3.803   1.180
   59  SOL  HW2  322   3.827   3.789   1.099
   60  SOL   OW  323   3.651   2.695   1.044
   60  SOL  HW1  324   3.729   2.666   1.092
   60  SOL  HW2  325   3.645   2.635   0.970
   61  SOL   OW  326   0.868   2.348   2.025
   61  SOL  HW1  327   0.773   2.352   2.033
   61  SOL  HW2  328   0.884   2.276   1.964
   62  SOL   OW  329   2.040   0.923   3.406
   62  SOL  HW1  330   2.014   1.006   3.444
   62  SOL  HW2  331   2.002   0.924   3.318
   63  SOL   OW  332   2.274   0.670   2.860
   63  SOL  HW1  333   2.314   0.672   2.773
   63  SOL  HW2  334   2.347   0.654   2.920
   64  SOL   OW  335   0.054   3.943   1.294
   64  SOL  HW1  336   0.033   3.873   1.356
   64  SOL  HW2  337  -0.027   3.994   1.288
   65  SOL   OW  338   2.993   0.339   0.509
   65  SOL  HW1  339   3.004   0.385   0.425
   65  SOL  HW2  340   3.011   0.405   0.575
   66  SOL   OW  341   1.787   0.743   3.617
   66  SOL  HW1  342   1.722   0.690   3.663
   66  SOL  HW2  343   1.818   0.686   3.546
   67  SOL   OW  344   3.591   1.873   3.245
   67  SOL  HW1  345   3.524   1.911   3.188
   67  SOL  HW2  346   3.607   1.940   3.312
   68  SOL   OW  347   2.523   2.518   3.049
   68  SOL  HW1  348   2.433   2.539   3.073
   68  SOL  HW2  349   2.574   2.594   3.077
   69  SOL   OW  350   0.292   1.497   3.672
   69  SOL  HW1  351   0.241   1.575   3.650
   69  SOL  HW2  352   0.291   1.493   3.768
   70  SOL   OW  353   1.605   3.205   0.890
   70  SOL  HW1  354   1.694   3.237   0.871
   70  SOL  HW2  355   1.578   3.160   0.810
   71  SOL   OW  356   1.471   1.228   1.412
   71  SOL  HW1  357   1.398   1.290   1.421
   71  SOL  HW2  358   1.462   1.170   1.487
   72  SOL   OW  359   0.892   2.465   3.891
   72  SOL  HW1  360   0.854   2.447   3.805
   72  SOL  HW2  361   0.980   2.497   3.872
   73  SOL   OW  362   1.404   3.175   1.560
   73  SOL  HW1  363   1.407   3.080   1.554
   73  SOL  HW2  364   1.404   3.205   1.469
   74  SOL   OW  365   2.897   0.582   3.109
   74  SOL  HW1  366   2.860   0.646   3.170
   74  SOL  HW2  367   2.957   0.633   3.055
   75  SOL   OW  368   1.130   1.238   1.996
   75  SOL  HW1  369   1.145   1.266   1.905
   75  SOL  HW2  370   1.190   1.292   2.047
   76  SOL   OW  371   0.370   3.753   2.142
   76  SOL  HW1  372   0.432   3.822   2.118
   76  SOL  HW2  373   0.392   3.679   2.085
   77  SOL   OW  374   3.255   2.683   1.514
   77  SOL  HW1  375   3.235   2.771   1.481
   77  SOL  HW2  376   3.235   2.625   1.441
   78  SOL   OW  377   0.861   1.939   3.624
   78  SOL  HW1  378   0.842   2.027   3.657
   78  SOL  HW2  379   0.854   1.883   3.702
   79  SOL   OW  380   3.601   3.173   0.189
   79  SOL  HW1  381   3.695   3.170   0.168
   79  SOL  HW2  382   3.594   3.125   0.272
   80  SOL   OW  383   1.981   0.381   0.788
   80  SOL  HW1  384   2.053   0.436   0.757
   80  SOL  HW2  385   1.921   0.442   0.830
   81  SOL   OW  386   2.426   2.010   0.910
   81  SOL  HW1  387   2.336   2.041   0.920
   81  SOL  HW2  388   2.455   2.047   0.827
   82  SOL   OW  389   3.810   3.223   1.818
   82  SOL  HW1  390   3.787   3.244   1.908
   82  SOL  HW2  391   3.777   3.133   1.806
   83  SOL   OW  392   2.454   3.155   1.331
   83  SOL  HW1  393   2.458   3.162   1.426
   83  SOL  HW2  394   2.453   3.061   1.313
   84  SOL   OW  395   2.073   3.064   2.233
   84  SOL  HW1  396   2.023   3.137   2.268
   84  SOL  HW2  397   2.054   2.991   2.292
   85  SOL   OW  398   3.311   2.105   0.187
   85  SOL  HW1  399   3.333   2.154   0.266
   85  SOL  HW2  400   3.215   2.107   0.184
   86  SOL   OW  401   2.226   0.506   2.375
   86  SOL  HW1  402   2.140   0.504   2.417
   86  SOL  HW2  403   2.208   0.523   2.283
   87  SOL   OW  404   3.388   0.345   1.468
   87  SOL  HW1  405   3.435   0.281   1.416
   87  SOL  HW2  406   3.334   0.392   1.404
   88  SOL   OW  407   0.743   3.052   3.525
   88  SOL  HW1  408   0.663   3.006   3.502
   88  SOL  HW2  409   0.713   3.129   3.574
   89  SOL   OW  410   0.907   0.652   4.010
   89  SOL  HW1  411   0.818   0.682   3.996
   89  SOL  HW2  412   0.962   0.726   3.986
   90  SOL   OW  413   2.032   2.861   0.180
   90  SOL  HW1  414   1.955   2.916   0.190
   90  SOL  HW2  415   2.012   2.782   0.231
   91  SOL   OW  416   3.802   3.183   0.893
   91  SOL  HW1  417   3.846   3.111   0.939
   91  SOL  HW2  418   3.720   3.195   0.940
   92  SOL   OW  419   1.487   3.239   2.513
   92  SOL  HW1  420   1.400   3.272   2.493
   92  SOL  HW2  421   1.472   3.159   2.564
   93  SOL   OW  422   0.521   3.929   0.132
   93  SOL  HW1  423   0.486   3.841   0.117
   93  SOL  HW2  424   0.581   3.944   0.059
   94  SOL   OW  425   0.299   0.598   1.825
   94  SOL  HW1  426   0.386   0.556   1.821
   94  SOL  HW2  427   0.255   0.567   1.746
   95  SOL   OW  428   0.401   2.624   1.006
   95  SOL  HW1  429   0.450   2.585   0.933
   95  SOL  HW2  430   0.352   2.696   0.966
   96  SOL   OW  431   1.620   2.022   1.543
   96  SOL  HW1  432   1.626   2.111   1.576
   96  SOL  HW2  433   1.582   2.031   1.456
   97  SOL   OW  434   1.782   0.201   1.520
   97  SOL  HW1  435   1.721   0.183   1.591
   97  SOL  HW2  436   1.831   0.278   1.549
   98  SOL   OW  437   3.177   3.757   0.890
   98  SOL  HW1  438   3.172   3.851   0.873
   98  SOL  HW2  439   3.122   3.716   0.823
   99  SOL   OW  440   3.523   3.169   1.728
   99  SOL  HW1  441   3.442   3.195   1.684
   99  SOL  HW2  442   3.587   3.161   1.656
  100  SOL   OW  443   0.618   1.067   2.414
  100  SOL  HW1  444   0.702   1.033   2.381
  100  SOL  HW2  445   0.636   1.159   2.436
  101  SOL   OW  446   0.642   3.593   0.559
  101  SOL  HW1  447   0.549   3.588   0.582
  101  SOL  HW2  448   0.646   3.562   0.469
  102  SOL   OW  449   0.767   2.885   3.211
  102  SOL  HW1  450   0.853   2.877   3.168
  102  SOL  HW2  451   0.756   2.802   3.257
  103  SOL   OW  452   2.830   0.411   3.898
  103  SOL  HW1  453   2.905   0.373   3.944
  103  SOL  HW2  454   2.765   0.425   3.966
  104  SOL   OW  455   2.701   3.041   2.481
  104  SOL  HW1  456   2.755   3.034   2.403
  104  SOL  HW2  457   2.644   2.964   2.478
  105  SOL   OW  458   3.071   2.943   0.770
  105  SOL  HW1  459   3.043   2.882   0.838
  105  SOL  HW2  460   3.003   3.011   0.770
  106  SOL   OW  461   2.992   2.150   1.689
  106  SOL  HW1  462   2.909   2.160   1.643
  106  SOL  HW2  463   2.967   2.115   1.775
  107  SOL   OW  464   3.765   2.713   1.946
  107  SOL  HW1  465   3.804   2.650   1.886
  107  SOL  HW2  466   3.711   2.769   1.889
  108  SOL   OW  467   0.847   1.132   2.646
  108  SOL  HW1  468   0.808   1.187   2.714
  108  SOL  HW2  469   0.836   1.182   2.565
  109  SOL   OW  470   0.010   2.534   0.250
  109  SOL  HW1  471  -0.009   2.441   0.261
  109  SOL  HW2  472   0.049   2.560   0.334
  110  SOL   OW  473   3.403   1.966   3.084
  110  SOL  HW1  474   3.308   1.978   3.083
  110  SOL  HW2  475   3.436   2.034   3.025
  111  SOL   OW  476   1.063   0.364   2.344
  111  SOL  HW1  477   1.036   0.411   2.423
  111  SOL  HW2  478   1.133   0.418   2.307
  112  SOL   OW  479   2.887   3.789   1.859
  112  SOL  HW1  480   2.877   3.775   1.953
  112  SOL  HW2  481   2.848   3.875   1.843
  113  SOL   OW  482   2.646   3.199   3.366
  113  SOL  HW1  483   2.641   3.187   3.271
  113  SOL  HW2  484   2.682   3.116   3.398
  114  SOL   OW  485   2.445   1.908   0.269
  114  SOL  HW1  486   2.516   1.956   0.226
  114  SOL  HW2  487   2.398   1.975   0.319
  115  SOL   OW  488   0.731   3.570   0.013
  115  SOL  HW1  489   0.773   3.625   0.079
  115  SOL  HW2  490   0.638   3.569   0.038
  116  SOL   OW  491   1.346   2.583   1.629
  116  SOL  HW1  492   1.301   2.605   1.547
  116  SOL  HW2  493   1.434   2.618   1.617
  117  SOL   OW  494   1.606   3.016   3.762
  117  SOL  HW1  495   1.643   2.977   3.841
  117  SOL  HW2  496   1.519   2.978   3.754
  118  SOL   OW  497   0.511   2.488   0.810
  118  SOL  HW1  498   0.552   2.406   0.783
  118  SOL  HW2  499   0.564   2.556   0.768
  119  SOL   OW  500   2.919   3.823   2.765
  119  SOL  HW1  501   2.900   3.876   2.843
  119  SOL  HW2  502   3.013   3.834   2.751
  120  SOL   OW  503   0.909   3.399   1.359
  120  SOL  HW1  504   0.954   3.327   1.404
  120  SOL  HW2  505   0.823   3.403   1.400
  121  SOL   OW  506   2.900   0.451   3.392
  121  SOL  HW1  507   2.906   0.512   3.319
  121  SOL  HW2  508   2.909   0.365   3.352
  122  SOL   OW  509   3.179   1.990   3.838
  122  SOL  HW1  510   3.209   2.070   3.881
  122  SOL  HW2  511   3.245   1.924   3.861
  123  SOL   OW  512   2.414   0.583   0.396
  123  SOL  HW1  513   2.477   0.639   0.349
  123  SOL  HW2  514   2.461   0.555   0.474
  124  SOL   OW  515   3.204   0.903   3.919
  124  SOL  HW1  516   3.162   0.819   3.938
  124  SOL  HW2  517   3.165   0.964   3.982
  125  SOL   OW  518   0.626   0.166   0.859
  125  SOL  HW1  519   0.665   0.247   0.825
  125  SOL  HW2  520   0.653   0.099   0.796
  126  SOL   OW  521   3.893   0.395   2.765
  126  SOL  HW1  522   3.906   0.333   2.836
  126  SOL  HW2  523   3.936   0.475   2.795
  127  SOL   OW  524   3.729   3.652   3.325
  127  SOL  HW1  525   3.712   3.742   3.299
  127  SOL  HW2  526   3.644   3.608   3.315
  128  SOL   OW  527   1.241   1.796   3.116
  128  SOL  HW1  528   1.316   1.737   3.115
  128  SOL  HW2  529   1.189   1.770   3.040
  129  SOL   OW  530   3.170   3.915   0.409
  129  SOL  HW1  531   3.260   3.905   0.377
  129  SOL  HW2  532   3.178   3.975   0.483
  130  SOL   OW  533   4.018   3.545   1.083
  130  SOL  HW1  534   4.027   3.636   1.053
  130  SOL  HW2  535   3.959   3.505   1.019
  131  SOL   OW  536   2.567   1.963   2.354
  131  SOL  HW1  537   2.502   1.903   2.317
  131  SOL  HW2  538   2.646   1.910   2.361
  132  SOL   OW  539   2.944   1.284   0.330
  132  SOL  HW1  540   3.025   1.290   0.382
  132  SOL  HW2  541   2.885   1.347   0.372
  133  SOL   OW  542   0.085   1.241   4.020
  133  SOL  HW1  543   0.117   1.331   4.011
  133  SOL  HW2  544   0.152   1.188   3.978
  134  SOL   OW  545   1.594   0.637   2.828
  134  SOL  HW1  546   1.539   0.701   2.874
  134  SOL  HW2  547   1.555   0.630   2.741
  135  SOL   OW  548   3.989   2.860   2.570
  135  SOL  HW1  549   4.000   2.955   2.564
  135  SOL  HW2  550   4.020   2.837   2.658
  136  SOL   OW  551   2.287   0.851   0.640
  136  SOL  HW1  552   2.206   0.801   0.630
  136  SOL  HW2  553   2.287   0.911   0.565
  137  SOL   OW  554   0.775   1.893   2.071
  137  SOL  HW1  555   0.690   1.902   2.028
  137  SOL  HW2  556   0.834   1.864   2.002
  138  SOL   OW  557   3.826   3.105   2.168
  138  SOL  HW1  558   3.895   3.092   2.103
  138  SOL  HW2  559   3.795   3.194   2.153
  139  SOL   OW  560   1.469   2.390   3.697
  139  SOL  HW1  561   1.389   2.371   3.747
  139  SOL  HW2  562   1.481   2.313   3.641
  140  SOL   OW  563   2.871   1.064   3.719
  140  SOL  HW1  564   2.901   0.998   3.657
  140  SOL  HW2  565   2.850   1.014   3.798
  141  SOL   OW  566   0.432   2.798   3.003
  141  SOL  HW1  567   0.373   2.857   3.051
  141  SOL  HW2  568   0.517   2.813   3.043
  142  SOL   OW  569   0.864   1.254   2.415
  142  SOL  HW1  570   0.948   1.255   2.369
  142  SOL  HW2  571   0.812   1.323   2.374
  143  SOL   OW  572   0.996   0.643   2.932
  143  SOL  HW1  573   1.082   0.609   2.958
  143  SOL  HW2  574   0.971   0.702   3.002
  144  SOL   OW  575   0.342   3.098   3.555
  144  SOL  HW1  576   0.374   3.137   3.473
  144  SOL  HW2  577   0.251   3.127   3.561
  145  SOL   OW  578   1.205   2.631   1.388
  145  SOL  HW1  579   1.158   2.596   1.313
  145  SOL  HW2  580   1.257   2.703   1.352
  146  SOL   OW  581   3.575   2.370   3.579
  146  SOL  HW1  582   3.570   2.461   3.608
  146  SOL  HW2  583   3.526   2.321   3.646
  147  SOL   OW  584   3.824   2.729   0.212
  147  SOL  HW1  585   3.885   2.657   0.231
  147  SOL  HW2  586   3.862   2.805   0.256
  148  SOL   OW  587   0.307   1.900   3.046
  148  SOL  HW1  588   0.298   1.964   3.118
  148  SOL  HW2  589   0.389   1.924   3.004
  149  SOL   OW  590   3.678   1.521   2.579
  149  SOL  HW1  591   3.722   1.562   2.653
  149  SOL  HW2  592   3.746   1.512   2.513
  150  SOL   OW  593   0.890   3.807   2.442
  150  SOL  HW1  594   0.935   3.808   2.527
  150  SOL  HW2  595   0.875   3.899   2.421
  151  SOL   OW  596   3.047   1.692   2.086
  151  SOL  HW1  597   3.089   1.606   2.092
  151  SOL  HW2  598   3.010   1.694   1.997
  152  SOL   OW  599   2.536   2.010   2.039
  152  SOL  HW1  600   2.599   1.948   2.076
  152  SOL  HW2  601   2.461   2.006   2.099
  153  SOL   OW  602   0.184   2.243   3.884
  153  SOL  HW1  603   0.113   2.206   3.935
  153  SOL  HW2  604   0.200   2.329   3.923
  154  SOL   OW  605   3.966   0.532   3.790
  154  SOL  HW1  606   4.060   0.542   3.805
  154  SOL  HW2  607   3.953   0.563   3.701
  155  SOL   OW  608   3.502   1.426   0.587
  155  SOL  HW1  609   3.446   1.409   0.511
  155  SOL  HW2  610   3.548   1.507   0.566
  156  SOL   OW  611   0.593   2.556   2.890
  156  SOL  HW1  612   0.556   2.495   2.954
  156  SOL  HW2  613   0.580   2.514   2.805
  157  SOL   OW  614   2.612   0.067   2.670
  157  SOL  HW1  615   2.680   0.018   2.626
  157  SOL  HW2  616   2.622   0.157   2.638
  158  SOL   OW  617   1.308   1.653   0.724
  158  SOL  HW1  618   1.349   1.643   0.810
  158  SOL  HW2  619   1.254   1.732   0.732
  159  SOL   OW  620   3.719   1.074   0.862
  159  SOL  HW1  621   3.675   1.157   0.843
  159  SOL  HW2  622   3.761   1.088   0.947
  160  SOL   OW  623   1.915   2.918   2.387
  160  SOL  HW1  624   1.878   2.879   2.307
  160  SOL  HW2  625   1.839   2.934   2.443
  161  SOL   OW  626   2.646  -0.013   2.925
  161  SOL  HW1  627   2.636   0.016   2.835
  161  SOL  HW2  628   2.653   0.069   2.976
  162  SOL   OW  629   0.988   0.304   1.904
  162  SOL  HW1  630   1.061   0.248   1.877
  162  SOL  HW2  631   0.933   0.311   1.827
  163  SOL   OW  632   2.817   1.559   1.010
  163  SOL  HW1  633   2.829   1.633   0.950
  163  SOL  HW2  634   2.882   1.495   0.980
  164  SOL   OW  635   1.864   0.841   2.517
  164  SOL  HW1  636   1.893   0.751   2.532
  164  SOL  HW2  637   1.939   0.896   2.538
  165  SOL   OW  638   3.400   0.457   1.090
  165  SOL  HW1  639   3.369   0.398   1.022
  165  SOL  HW2  640   3.328   0.520   1.102
  166  SOL   OW  641   3.017   3.447   3.867
  166  SOL  HW1  642   3.017   3.390   3.790
  166  SOL  HW2  643   2.925   3.466   3.884
  167  SOL   OW  644   2.281   0.868   3.772
  167  SOL  HW1  645   2.186   0.864   3.766
  167  SOL  HW2  646   2.311   0.828   3.690
  168  SOL   OW  647   2.743   4.037   0.458
  168  SOL  HW1  648   2.792   3.988   0.392
  168  SOL  HW2  649   2.683   3.973   0.497
  169  SOL   OW  650   3.125   1.858   0.083
  169  SOL  HW1  651   3.090   1.913   0.152
  169  SOL  HW2  652   3.102   1.902   0.001
  170  SOL   OW  653   2.080   1.161   1.456
  170  SOL  HW1  654   2.010   1.225   1.454
  170  SOL  HW2  655   2.077   1.124   1.544
  171  SOL   OW  656   0.331   2.377   2.929
  171  SOL  HW1  657   0.305   2.384   3.021
  171  SOL  HW2  658   0.310   2.462   2.891
  172  SOL   OW  659   0.101   4.005   1.617
  172  SOL  HW1  660   0.109   4.003   1.522
  172  SOL  HW2  661   0.132   3.919   1.645
  173  SOL   OW  662   1.270   0.093   2.087
  173  SOL  HW1  663   1.189   0.043   2.085
  173  SOL  HW2  664   1.336   0.031   2.119
  174  SOL   OW  665   2.192   2.725   3.636
  174  SOL  HW1  666   2.111   2.772   3.654
  174  SOL  HW2  667   2.259   2.793   3.631
  175  SOL   OW  668   2.310   1.554   0.217
  175  SOL  HW1  669   2.338   1.470   0.181
  175  SOL  HW2  670   2.390   1.593   0.252
  176  SOL   OW  671   2.838   3.167   0.229
  176  SOL  HW1  672   2.825   3.072   0.235
  176  SOL  HW2  673   2.856   3.184   0.137
  177  SOL   OW  674   2.603   0.736   3.600
  177  SOL  HW1  675   2.575   0.748   3.691
  177  SOL  HW2  676   2.656   0.656   3.601
  178  SOL   OW  677   0.252   3.127   2.184
  178  SOL  HW1  678   0.301   3.133   2.102
  178  SOL  HW2  679   0.269   3.210   2.229
  179  SOL   OW  680   1.513   0.195   3.949
  179  SOL  HW1  681   1.492   0.168   4.038
  179  SOL  HW2  682   1.572   0.270   3.960
  180  SOL   OW  683   2.664   2.459   1.398
  180  SOL  HW1  684   2.651   2.368   1.426
  180  SOL  HW2  685   2.744   2.486   1.443
  181  SOL   OW  686   3.111   3.552   3.091
  181  SOL  HW1  687   3.183   3.496   3.061
  181  SOL  HW2  688   3.033   3.514   3.051
  182  SOL   OW  689   2.140   1.911   0.722
  182  SOL  HW1  690   2.075   1.874   0.782
  182  SOL  HW2  691   2.184   1.979   0.773
  183  SOL   OW  692   3.265   0.928   1.351
  183  SOL  HW1  693   3.227   1.009   1.385
  183  SOL  HW2  694   3.191   0.868   1.341
  184  SOL   OW  695   1.565   0.330   3.396
  184  SOL  HW1  696   1.522   0.262   3.449
  184  SOL  HW2  697   1.507   0.342   3.321
  185  SOL   OW  698   0.801   2.365   3.629
  185  SOL  HW1  699   0.879   2.391   3.579
  185  SOL  HW2  700   0.740   2.437   3.616
  186  SOL   OW  701   3.963   1.681   2.458
  186  SOL  HW1  702   3.912   1.751   2.499
  186  SOL  HW2  703   3.998   1.631   2.532
  187  SOL   OW  704   0.749   0.056   2.021
  187  SOL  HW1  705   0.763   0.048   1.927
  187  SOL  HW2  706   0.758   0.150   2.038
  188  SOL   OW  707   0.403   3.514   3.309
  188  SOL  HW1  708   0.453   3.505   3.390
  188  SOL  HW2  709   0.415   3.606   3.284
  189  SOL   OW  710   1.284   2.841   0.027
  189  SOL  HW1  711   1.364   2.870   0.071
  189  SOL  HW2  712   1.302   2.751   0.002
  190  SOL   OW  713   0.782   0.990   3.260
  190  SOL  HW1  714   0.763   0.916   3.319
  190  SOL  HW2  715   0.795   1.064   3.319
  191  SOL   OW  716   3.581   0.921   2.018
  191  SOL  HW1  717   3.633   0.841   2.017
  191  SOL  HW2  718   3.499   0.895   2.062
  192  SOL   OW  719   2.030   2.616   2.960
  192  SOL  HW1  720   2.082   2.581   2.888
  192  SOL  HW2  721   2.016   2.708   2.938
  193  SOL   OW  722   0.722   1.000   2.027
  193  SOL  HW1  723   0.656   0.957   1.974
  193  SOL  HW2  724   0.805   0.976   1.986
  194  SOL   OW  725   0.956   2.897   1.857
  194  SOL  HW1  726   1.027   2.893   1.794
  194  SOL  HW2  727   0.908   2.815   1.846
  195  SOL   OW  728   3.710   0.429   1.868
  195  SOL  HW1  729   3.650   0.473   1.928
  195  SOL  HW2  730   3.797   0.457   1.896
  196  SOL   OW  731   3.535   3.911   1.846
  196  SOL  HW1  732   3.444   3.885   1.832
  196  SOL  HW2  733   3.530   4.005   1.865
  197  SOL   OW  734   0.115   1.334   3.280
  197  SOL  HW1  735   0.132   1.262   3.219
  197  SOL  HW2  736   0.166   1.311   3.358
  198  SOL   OW  737   3.739   3.141   0.583
  198  SOL  HW1  738   3.697   3.073   0.635
  198  SOL  HW2  739   3.833   3.128   0.597
  199  SOL   OW  740   0.907   0.111   3.906
  199  SOL  HW1  741   0.997   0.086   3.885
  199  SOL  HW2  742   0.883   0.054   3.979
  200  SOL   OW  743   3.466   1.454   3.853
  200  SOL  HW1  744   3.498   1.365   3.839
  200  SOL  HW2  745   3.517   1.507   3.792
  201  SOL   OW  746   0.244   1.827   0.551
  201  SOL  HW1  747   0.340   1.825   0.547
  201  SOL  HW2  748   0.221   1.761   0.617
  202  SOL   OW  749   2.963   0.771   1.666
  202  SOL  HW1  750   2.915   0.703   1.713
  202  SOL  HW2  751   3.054   0.741   1.665
  203  SOL   OW  752   1.474   2.457   2.846
  203  SOL  HW1  753   1.456   2.521   2.915
  203  SOL  HW2  754   1.425   2.489   2.770
  204  SOL   OW  755   3.755   3.858   1.690
  204  SOL  HW1  756   3.813   3.799   1.737
  204  SOL  HW2  757   3.716   3.913   1.759
  205  SOL   OW  758   1.095   1.821   1.045
  205  SOL  HW1  759   1.004   1.793   1.037
  205  SOL  HW2  760   1.116   1.860   0.960
  206  SOL   OW  761   3.741   3.037   3.700
  206  SOL  HW1  762   3.680   3.049   3.627
  206  SOL  HW2  763   3.818   2.996   3.660
  207  SOL   OW  764   2.144   3.210   0.679
  207  SOL  HW1  765   2.103   3.292   0.651
  207  SOL  HW2  766   2.185   3.231   0.763
  208  SOL   OW  767   0.011   3.129   2.531
  208  SOL  HW1  768   0.092   3.155   2.575
  208  SOL  HW2  769   0.007   3.185   2.453
  209  SOL   OW  770   1.975   3.316   2.085
  209  SOL  HW1  771   1.885   3.327   2.055
  209  SOL  HW2  772   1.969   3.315   2.181
  210  SOL   OW  773   0.073   1.516   0.133
  210  SOL  HW1  774   0.087   1.559   0.217
  210  SOL  HW2  775  -0.019   1.532   0.113
  211  SOL   OW  776   3.852   1.758   1.693
  211  SOL  HW1  777   3.787   1.716   1.749
  211  SOL  HW2  778   3.936   1.721   1.722
  212  SOL   OW  779   3.860   0.092   0.411
  212  SOL  HW1  780   3.817   0.049   0.485
  212  SOL  HW2  781   3.802   0.074   0.337
  213  SOL   OW  782   2.016   3.832   2.914
  213  SOL  HW1  783   2.067   3.754   2.893
  213  SOL  HW2  784   1.932   3.799   2.946
  214  SOL   OW  785   3.660   2.798   3.110
  214  SOL  HW1  786   3.626   2.887   3.120
  214  SOL  HW2  787   3.655   2.761   3.198
  215  SOL   OW  788   3.707   2.111   0.723
  215  SOL  HW1  789   3.715   2.027   0.679
  215  SOL  HW2  790   3.624   2.106   0.771
  216  SOL   OW  791   0.855   2.727   2.867
  216  SOL  HW1  792   0.762   2.709   2.885
  216  SOL  HW2  793   0.900   2.705   2.948
  217  SOL   OW  794   0.711   1.194   0.998
  217  SOL  HW1  795   0.695   1.248   0.922
  217  SOL  HW2  796   0.675   1.244   1.072
  218  SOL   OW  797   0.288   1.815   1.747
  218  SOL  HW1  798   0.365   1.832   1.801
  218  SOL  HW2  799   0.218   1.866   1.787
  219  SOL   OW  800   0.300   1.128   1.981
  219  SOL  HW1  801   0.375   1.069   1.969
  219  SOL  HW2  802   0.223   1.072   1.971
  220  SOL   OW  803   3.621   3.174   2.386
  220  SOL  HW1  804   3.687   3.125   2.338
  220  SOL  HW2  805   3.668   3.249   2.422
  221  SOL   OW  806   3.550   0.956   3.550
  221  SOL  HW1  807   3.502   0.911   3.619
  221  SOL  HW2  808   3.628   0.990   3.594
  222  SOL   OW  809   3.244   3.630   3.881
  222  SOL  HW1  810   3.193   3.549   3.874
  222  SOL  HW2  811   3.178   3.699   3.877
  223  SOL   OW  812   2.551   2.513   1.104
  223  SOL  HW1  813   2.550   2.526   1.199
  223  SOL  HW2  814   2.514   2.426   1.092
  224  SOL   OW  815   1.443   0.183   3.582
  224  SOL  HW1  816   1.462   0.091   3.562
  224  SOL  HW2  817   1.397   0.181   3.666
  225  SOL   OW  818   3.031   1.160   3.176
  225  SOL  HW1  819   3.018   1.254   3.170
  225  SOL  HW2  820   2.965   1.130   3.238
  226  SOL   OW  821   1.134   2.645   2.458
  226  SOL  HW1  822   1.198   2.574   2.448
  226  SOL  HW2  823   1.156   2.685   2.542
  227  SOL   OW  824   3.413   1.860   3.759
  227  SOL  HW1  825   3.466   1.786   3.729
  227  SOL  HW2  826   3.415   1.922   3.686
  228  SOL   OW  827   1.937   1.211   3.382
  228  SOL  HW1  828   1.982   1.256   3.311
  228  SOL  HW2  829   1.882   1.278   3.423
  229  SOL   OW  830   1.685   1.330   3.021
  229  SOL  HW1  831   1.738   1.338   3.100
  229  SOL  HW2  832   1.739   1.367   2.952
  230  SOL   OW  833   0.862   3.291   2.601
  230  SOL  HW1  834   0.831   3.221   2.544
  230  SOL  HW2  835   0.872   3.249   2.687
  231  SOL   OW  836   3.576   0.692   0.239
  231  SOL  HW1  837   3.610   0.677   0.327
  231  SOL  HW2  838   3.559   0.604   0.205
  232  SOL   OW  839   3.346   3.826   1.577
  232  SOL  HW1  840   3.381   3.765   1.512
  232  SOL  HW2  841   3.308   3.897   1.525
  233  SOL   OW  842   3.301   3.424   1.682
  233  SOL  HW1  843   3.377   3.483   1.683
  233  SOL  HW2  844   3.233   3.471   1.730
  234  SOL   OW  845   3.781   2.565   1.352
  234  SOL  HW1  846   3.824   2.517   1.422
  234  SOL  HW2  847   3.688   2.544   1.361
  235  SOL   OW  848   2.076   0.589   0.355
  235  SOL  HW1  849   2.147   0.541   0.397
  235  SOL  HW2  850   2.007   0.525   0.343
  236  SOL   OW  851   1.387   2.349   1.166
  236  SOL  HW1  852   1.319   2.284   1.184
  236  SOL  HW2  853   1.434   2.358   1.249
  237  SOL   OW  854   2.728   0.045   1.456
  237  SOL  HW1  855   2.764  -0.038   1.487
  237  SOL  HW2  856   2.640   0.049   1.495
  238  SOL   OW  857   1.576   1.956   0.010
  238  SOL  HW1  858   1.651   2.001   0.048
  238  SOL  HW2  859   1.603   1.864   0.005
  239  SOL   OW  860   0.344   0.195   1.541
  239  SOL  HW1  861   0.316   0.203   1.633
  239  SOL  HW2  862   0.330   0.283   1.505
  240  SOL   OW  863   2.810   0.875   0.861
  240  SOL  HW1  864   2.740   0.937   0.882
  240  SOL  HW2  865   2.868   0.924   0.802
  241  SOL   OW  866   0.145   0.066   1.983
  241  SOL  HW1  867   0.129  -0.027   2.003
  241  SOL  HW2  868   0.110   0.113   2.058
  242  SOL   OW  869   0.640   1.565   1.546
  242  SOL  HW1  870   0.633   1.558   1.641
  242  SOL  HW2  871   0.645   1.474   1.515
  243  SOL   OW  872   0.401   2.707   3.923
  243  SOL  HW1  873   0.489   2.716   3.886
  243  SOL  HW2  874   0.417   2.684   4.015
  244  SOL   OW  875   2.430   2.124   0.662
  244  SOL  HW1  876   2.426   2.220   0.663
  244  SOL  HW2  877   2.421   2.101   0.570
  245  SOL   OW  878   1.565   2.777   1.281
  245  SOL  HW1  879   1.498   2.788   1.214
  245  SOL  HW2  880   1.619   2.705   1.250
  246  SOL   OW  881   0.584   1.940   3.552
  246  SOL  HW1  882   0.668   1.895   3.542
  246  SOL  HW2  883   0.527   1.899   3.486
  247  SOL   OW  884   0.761   1.159   0.291
  247  SOL  HW1  885   0.810   1.147   0.372
  247  SOL  HW2  886   0.815   1.118   0.224
  248  SOL   OW  887   0.613   3.386   1.442
  248  SOL  HW1  888   0.598   3.462   1.385
  248  SOL  HW2  889   0.597   3.310   1.387
  249  SOL   OW  890   2.304   1.683   0.719
  249  SOL  HW1  891   2.283   1.776   0.716
  249  SOL  HW2  892   2.220   1.639   0.708
  250  SOL   OW  893   3.438   3.937   0.905
  250  SOL  HW1  894   3.434   3.870   0.836
  250  SOL  HW2  895   3.446   3.887   0.986
  251  SOL   OW  896   1.075   2.243   1.479
  251  SOL  HW1  897   1.162   2.210   1.501
  251  SOL  HW2  898   1.090   2.324   1.432
  252  SOL   OW  899   0.621   0.065   2.943
  252  SOL  HW1  900   0.590   0.041   3.031
  252  SOL  HW2  901   0.551   0.118   2.907
  253  SOL   OW  902   3.811   1.334   0.397
  253  SOL  HW1  903   3.856   1.278   0.334
  253  SOL  HW2  904   3.753   1.388   0.343
  254  SOL   OW  905   3.828   0.058   1.292
  254  SOL  HW1  906   3.737   0.039   1.269
  254  SOL  HW2  907   3.824   0.084   1.385
  255  SOL   OW  908   0.520   1.629   2.235
  255  SOL  HW1  909   0.589   1.563   2.235
  255  SOL  HW2  910   0.479   1.620   2.321
  256  SOL   OW  911   1.178   0.139   1.831
  256  SOL  HW1  912   1.146   0.081   1.761
  256  SOL  HW2  913   1.224   0.080   1.891
  257  SOL   OW  914   0.737   0.398   1.472
  257  SOL  HW1  915   0.697   0.380   1.387
  257  SOL  HW2  916   0.803   0.330   1.483
  258  SOL   OW  917   0.628   1.313   2.739
  258  SOL  HW1  918   0.582   1.350   2.663
  258  SOL  HW2  919   0.561   1.261   2.784
  259  SOL   OW  920   2.486   0.388   3.432
  259  SOL  HW1  921   2.548   0.344   3.490
  259  SOL  HW2  922   2.400   0.369   3.468
  260  SOL   OW  923   1.153   0.495   1.528
  260  SOL  HW1  924   1.106   0.446   1.461
  260  SOL  HW2  925   1.151   0.586   1.498
  261  SOL   OW  926   0.009   3.238   0.720
  261  SOL  HW1  927   0.093   3.276   0.747
  261  SOL  HW2  928  -0.051   3.260   0.792
  262  SOL   OW  929   3.636   1.679   3.696
  262  SOL  HW1  930   3.723   1.651   3.724
  262  SOL  HW2  931   3.644   1.692   3.601
  263  SOL   OW  932   3.589   2.033   0.380
  263  SOL  HW1  933   3.568   1.954   0.332
  263  SOL  HW2  934   3.512   2.089   0.370
  264  SOL   OW  935   1.813   0.910   3.234
  264  SOL  HW1  936   1.809   1.002   3.260
  264  SOL  HW2  937   1.724   0.889   3.206
  265  SOL   OW  938   0.808   1.376   0.138
  265  SOL  HW1  939   0.775   1.304   0.192
  265  SOL  HW2  940   0.875   1.336   0.083
  266  SOL   OW  941   3.479   2.118   3.565
  266  SOL  HW1  942   3.448   2.158   3.646
  266  SOL  HW2  943   3.528   2.187   3.522
  267  SOL   OW  944   3.709   3.197   2.832
  267  SOL  HW1  945   3.668   3.191   2.747
  267  SOL  HW2  946   3.802   3.181   2.815
  268  SOL   OW  947   0.380   0.883   1.857
  268  SOL  HW1  948   0.321   0.812   1.831
  268  SOL  HW2  949   0.439   0.893   1.783
  269  SOL   OW  950   0.111   1.283   2.975
  269  SOL  HW1  951   0.182   1.322   2.924
  269  SOL  HW2  952   0.102   1.195   2.941
  270  SOL   OW  953   3.218   1.581   2.351
  270  SOL  HW1  954   3.297   1.584   2.404
  270  SOL  HW2  955   3.217   1.492   2.314
  271  SOL   OW  956   3.285   0.229   2.312
  271  SOL  HW1  957   3.296   0.194   2.401
  271  SOL  HW2  958   3.372   0.223   2.273
  272  SOL   OW  959   2.223   1.097   0.431
  272  SOL  HW1  960   2.310   1.119   0.397
  272  SOL  HW2  961   2.212   1.153   0.508
  273  SOL   OW  962   2.532   1.648   3.143
  273  SOL  HW1  963   2.518   1.742   3.138
  273  SOL  HW2  964   2.445   1.611   3.157
  274  SOL   OW  965   0.859   1.306   2.061
  274  SOL  HW1  966   0.851   1.325   1.968
  274  SOL  HW2  967   0.944   1.262   2.070
  275  SOL   OW  968   3.984   3.620   2.239
  275  SOL  HW1  969   3.906   3.575   2.206
  275  SOL  HW2  970   4.051   3.552   2.245
  276  SOL   OW  971   2.172   2.491   1.931
  276  SOL  HW1  972   2.180   2.510   2.025
  276  SOL  HW2  973   2.214   2.406   1.920
  277  SOL   OW  974   2.255   0.156   1.041
  277  SOL  HW1  975   2.317   0.218   1.080
  277  SOL  HW2  976   2.177   0.162   1.097
  278  SOL   OW  977   1.518   2.730   2.631
  278  SOL  HW1  978   1.553   2.698   2.714
  278  SOL  HW2  979   1.423   2.720   2.639
  279  SOL   OW  980   3.017   3.447   1.564
  279  SOL  HW1  981   3.048   3.357   1.571
  279  SOL  HW2  982   2.921   3.438   1.560
  280  SOL   OW  983   0.760   2.595   3.276
  280  SOL  HW1  984   0.772   2.501   3.259
  280  SOL  HW2  985   0.667   2.603   3.297
  281  SOL   OW  986   0.239   0.948   2.206
  281  SOL  HW1  987   0.209   1.035   2.231
  281  SOL  HW2  988   0.326   0.963   2.167
  282  SOL   OW  989   2.153   3.583   2.917
  282  SOL  HW1  990   2.143   3.489   2.903
  282  SOL  HW2  991   2.236   3.592   2.964
  283  SOL   OW  992   1.252   2.373   2.710
  283  SOL  HW1  993   1.167   2.403   2.742
  283  SOL  HW2  994   1.291   2.328   2.785
  284  SOL   OW  995   0.033   3.493   0.470
  284  SOL  HW1  996  -0.045   3.533   0.430
  284  SOL  HW2  997   0.101   3.560   0.462
  285  SOL   OW  998   0.212   2.509   3.976
  285  SOL  HW1  999   0.278   2.576   3.957
  285  SOL  HW2 1000   0.170   2.540   4.056
  286  SOL   OW 1001   2.688   1.190   2.517
  286  SOL  HW1 1002   2.728   1.259   2.464
  286  SOL  HW2 1003   2.759   1.160   2.574
  287  SOL   OW 1004   1.548   0.975   2.333
  287  SOL  HW1 1005   1.591   0.890   2.321
  287  SOL  HW2 1006   1.612   1.029   2.378
  288  SOL   OW 1007   0.973   3.196   3.523
  288  SOL  HW1 1008   0.899   3.135   3.525
  288  SOL  HW2 1009   0.944   3.271   3.575
  289  SOL   OW 1010   3.277   0.135   0.867
  289  SOL  HW1 1011   3.327   0.216   0.862
  289  SOL  HW2 1012   3.340   0.070   0.897
  290  SOL   OW 1013   2.352   1.113   2.529
  290  SOL  HW1 1014   2.443   1.103   2.500
  290  SOL  HW2 1015   2.349   1.071   2.614
  291  SOL   OW 1016   0.754   1.496   2.912
  291  SOL  HW1 1017   0.703   1.487   2.992
  291  SOL  HW2 1018   0.730   1.420   2.859
  292  SOL   OW 1019   1.990   2.543   2.492
  292  SOL  HW1 1020   2.010   2.451   2.475
  292  SOL  HW2 1021   1.904   2.542   2.534
  293  SOL   OW 1022   3.578   1.024   0.452
  293  SOL  HW1 1023   3.598   0.978   0.534
  293  SOL  HW2 1024   3.655   1.011   0.398
  294  SOL   OW 1025   1.044   1.743   0.489
  294  SOL  HW1 1026   1.093   1.666   0.518
  294  SOL  HW2 1027   0.995   1.713   0.413
  295  SOL   OW 1028   2.218   3.830   0.533
  295  SOL  HW1 1029   2.180   3.835   0.621
  295  SOL  HW2 1030   2.299   3.880   0.539
  296  SOL   OW 1031   0.280   0.792   0.876
  296  SOL  HW1 1032   0.301   0.710   0.919
  296  SOL  HW2 1033   0.195   0.817   0.911
  297  SOL   OW 1034   2.847   3.165   3.105
  297  SOL  HW1 1035   2.894   3.161   3.188
  297  SOL  HW2 1036   2.764   3.123   3.123
  298  SOL   OW 1037   2.956   0.414   2.321
  298  SOL  HW1 1038   2.952   0.364   2.402
  298  SOL  HW2 1039   3.049   0.438   2.312
  299  SOL   OW 1040   2.014   2.663   1.612
  299  SOL  HW1 1041   2.057   2.721   1.676
  299  SOL  HW2 1042   1.960   2.605   1.665
  300  SOL   OW 1043   2.739   0.940   0.057
  300  SOL  HW1 1044   2.676   0.880   0.096
  300  SOL  HW2 1045   2.770   0.896  -0.022
  301  SOL   OW 1046   2.353   3.584   2.681
  301  SOL  HW1 1047   2.398   3.668   2.669
  301  SOL  HW2 1048   2.289   3.601   2.749
  302  SOL   OW 1049   1.966   2.520   0.523
  302  SOL  HW1 1050   2.054   2.511   0.487
  302  SOL  HW2 1051   1.946   2.435   0.561
  303  SOL   OW 1052   3.120   1.400   0.938
  303  SOL  HW1 1053   3.150   1.460   0.869
  303  SOL  HW2 1054   3.042   1.358   0.900
  304  SOL   OW 1055   2.880   2.499   2.966
  304  SOL  HW1 1056   2.916   2.461   3.046
  304  SOL  HW2 1057   2.873   2.593   2.984
  305  SOL   OW 1058   2.853   3.400   1.018
  305  SOL  HW1 1059   2.915   3.459   0.974
  305  SOL  HW2 1060   2.878   3.404   1.110
  306  SOL   OW 1061   1.217   1.795   2.125
  306  SOL  HW1 1062   1.309   1.772   2.112
  306  SOL  HW2 1063   1.192   1.839   2.043
  307  SOL   OW 1064   3.677   1.175   2.114
  307  SOL  HW1 1065   3.600   1.151   2.164
  307  SOL  HW2 1066   3.683   1.110   2.044
  308  SOL   OW 1067   1.928   2.304   2.779
  308  SOL  HW1 1068   1.905   2.372   2.716
  308  SOL  HW2 1069   1.936   2.349   2.862
  309  SOL   OW 1070   0.447   1.756   3.861
  309  SOL  HW1 1071   0.392   1.829   3.834
  309  SOL  HW2 1072   0.386   1.684   3.876
  310  SOL   OW 1073   0.483   3.330   3.942
  310  SOL  HW1 1074   0.417   3.334   4.011
  310  SOL  HW2 1075   0.455   3.259   3.885
  311  SOL   OW 1076   1.837   1.605   0.060
  311  SOL  HW1 1077   1.847   1.592   0.154
  311  SOL  HW2 1078   1.927   1.621   0.029
  312  SOL   OW 1079   2.739   1.522   0.115
  312  SOL  HW1 1080   2.827   1.558   0.126
  312  SOL  HW2 1081   2.752   1.427   0.112
  313  SOL   OW 1082   3.950   1.502   2.995
  313  SOL  HW1 1083   4.002   1.423   3.012
  313  SOL  HW2 1084   3.859   1.474   3.003
  314  SOL   OW 1085   0.249   1.312   1.516
  314  SOL  HW1 1086   0.260   1.395   1.562
  314  SOL  HW2 1087   0.224   1.250   1.584
  315  SOL   OW 1088   1.828   2.200   0.879
  315  SOL  HW1 1089   1.865   2.221   0.965
  315  SOL  HW2 1090   1.886   2.132   0.844
  316  SOL   OW 1091   0.499   1.893   0.573
  316  SOL  HW1 1092   0.508   1.918   0.664
  316  SOL  HW2 1093   0.544   1.962   0.524
  317  SOL   OW 1094   3.958   3.100   2.826
  317  SOL  HW1 1095   4.029   3.104   2.761
  317  SOL  HW2 1096   3.976   3.021   2.877
  318  SOL   OW 1097   2.022   1.728   0.872
  318  SOL  HW1 1098   2.033   1.665   0.801
  318  SOL  HW2 1099   2.074   1.693   0.944
  319  SOL   OW 1100   0.590   2.122   0.461
  319  SOL  HW1 1101   0.522   2.170   0.415
  319  SOL  HW2 1102   0.639   2.077   0.391
  320  SOL   OW 1103   3.170   1.586   0.702
  320  SOL  HW1 1104   3.227   1.650   0.660
  320  SOL  HW2 1105   3.151   1.624   0.788
  321  SOL   OW 1106   1.521   1.118   2.937
  321  SOL  HW1 1107   1.440   1.169   2.936
  321  SOL  HW2 1108   1.587   1.178   2.971
  322  SOL   OW 1109   3.095   3.608   2.356
  322  SOL  HW1 1110   3.028   3.661   2.312
  322  SOL  HW2 1111   3.053   3.522   2.367
  323  SOL   OW 1112   2.218   3.739   2.297
  323  SOL  HW1 1113   2.182   3.822   2.329
  323  SOL  HW2 1114   2.249   3.695   2.377
  324  SOL   OW 1115   2.703   1.380   3.663
  324  SOL  HW1 1116   2.673   1.359   3.574
  324  SOL  HW2 1117   2.657   1.318   3.720
  325  SOL   OW 1118   2.209   1.365   3.144
  325  SOL  HW1 1119   2.266   1.405   3.079
  325  SOL  HW2 1120   2.254   1.381   3.228
  326  SOL   OW 1121   1.255   2.599   0.259
  326  SOL  HW1 1122   1.316   2.566   0.325
  326  SOL  HW2 1123   1.285   2.562   0.176
  327  SOL   OW 1124   1.871   3.389   2.935
  327  SOL  HW1 1125   1.960   3.357   2.921
  327  SOL  HW2 1126   1.877   3.442   3.015
  328  SOL   OW 1127   3.365   1.287   2.067
  328  SOL  HW1 1128   3.384   1.252   2.154
  328  SOL  HW2 1129   3.351   1.210   2.012
  329  SOL   OW 1130   3.995   0.200   3.882
  329  SOL  HW1 1131   3.969   0.219   3.791
  329  SOL  HW2 1132   3.979   0.281   3.929
  330  SOL   OW 1133   2.458   2.970   0.010
  330  SOL  HW1 1134   2.368   2.957   0.037
  330  SOL  HW2 1135   2.486   3.050   0.056
  331  SOL   OW 1136   3.892   2.607   0.912
  331  SOL  HW1 1137   3.931   2.693   0.897
  331  SOL  HW2 1138   3.960   2.557   0.956
  332  SOL   OW 1139   1.350   1.138   3.266
  332  SOL  HW1 1140   1.307   1.126   3.181
  332  SOL  HW2 1141   1.288   1.189   3.317
  333  SOL   OW 1142   0.978   0.560   3.597
  333  SOL  HW1 1143   0.987   0.473   3.560
  333  SOL  HW2 1144   0.948   0.545   3.687
  334  SOL   OW 1145   2.828   2.437   3.257
  334  SOL  HW1 1146   2.821   2.531   3.272
  334  SOL  HW2 1147   2.832   2.399   3.345
  335  SOL   OW 1148   1.665   0.916   1.285
  335  SOL  HW1 1149   1.746   0.964   1.268
  335  SOL  HW2 1150   1.690   0.824   1.279
  336  SOL   OW 1151   1.972   3.194   3.850
  336  SOL  HW1 1152   1.942   3.278   3.886
  336  SOL  HW2 1153   1.993   3.213   3.758
  337  SOL   OW 1154   3.107   2.105   0.733
  337  SOL  HW1 1155   3.033   2.051   0.762
  337  SOL  HW2 1156   3.182   2.071   0.782
  338  SOL   OW 1157   1.154   1.961   1.899
  338  SOL  HW1 1158   1.061   1.970   1.881
  338  SOL  HW2 1159   1.181   2.046   1.935
  339  SOL   OW 1160   2.934   2.030   1.967
  339  SOL  HW1 1161   2.939   2.126   1.974
  339  SOL  HW2 1162   2.966   1.998   2.051
  340  SOL   OW 1163   3.288   2.364   3.483
  340  SOL  HW1 1164   3.294   2.388   3.576
  340  SOL  HW2 1165   3.292   2.448   3.437
  341  SOL   OW 1166   0.999   3.706   1.586
  341  SOL  HW1 1167   0.960   3.656   1.657
  341  SOL  HW2 1168   0.930   3.709   1.519
  342  SOL   OW 1169   0.956   2.067   3.103
  342  SOL  HW1 1170   1.045   2.064   3.138
  342  SOL  HW2 1171   0.967   2.073   3.008
  343  SOL   OW 1172   2.509   1.493   2.688
  343  SOL  HW1 1173   2.431   1.458   2.646
  343  SOL  HW2 1174   2.515   1.583   2.655
  344  SOL   OW 1175   1.920   0.324   3.100
  344  SOL  HW1 1176   1.903   0.411   3.137
  344  SOL  HW2 1177   2.003   0.334   3.054
  345  SOL   OW 1178   3.018   3.127   1.097
  345  SOL  HW1 1179   3.001   3.217   1.068
  345  SOL  HW2 1180   3.101   3.132   1.145
  346  SOL   OW 1181   0.283   3.320   0.526
  346  SOL  HW1 1182   0.194   3.347   0.549
  346  SOL  HW2 1183   0.287   3.329   0.430
  347  SOL   OW 1184   2.895   1.480   3.872
  347  SOL  HW1 1185   2.866   1.466   3.782
  347  SOL  HW2 1186   2.909   1.392   3.906
  348  SOL   OW 1187   0.383   3.145   1.950
  348  SOL  HW1 1188   0.334   3.210   1.901
  348  SOL  HW2 1189   0.438   3.102   1.884
  349  SOL   OW 1190   3.541   2.786   0.250
  349  SOL  HW1 1191   3.549   2.837   0.170
  349  SOL  HW2 1192   3.623   2.736   0.254
  350  SOL   OW 1193   1.577   3.923   3.588
  350  SOL  HW1 1194   1.637   3.889   3.522
  350  SOL  HW2 1195   1.621   3.906   3.672
  351  SOL   OW 1196   1.171   1.438   0.211
  351  SOL  HW1 1197   1.130   1.421   0.126
  351  SOL  HW2 1198   1.200   1.529   0.206
  352  SOL   OW 1199   3.615   0.297   2.892
  352  SOL  HW1 1200   3.614   0.227   2.827
  352  SOL  HW2 1201   3.576   0.372   2.846
  353  SOL   OW 1202   0.562   0.225   2.468
  353  SOL  HW1 1203   0.589   0.279   2.543
  353  SOL  HW2 1204   0.470   0.205   2.484
  354  SOL   OW 1205   0.769   0.593   2.111
  354  SOL  HW1 1206   0.690   0.648   2.108
  354  SOL  HW2 1207   0.735   0.505   2.128
  355  SOL   OW 1208   0.093   0.584   0.464
  355  SOL  HW1 1209   0.083   0.527   0.388
  355  SOL  HW2 1210   0.188   0.594   0.475
  356  SOL   OW 1211   1.467   3.087   0.062
  356  SOL  HW1 1212   1.485   3.157  -0.002
  356  SOL  HW2 1213   1.372   3.077   0.059
  357  SOL   OW 1214   1.112   1.457   1.217
  357  SOL  HW1 1215   1.202   1.429   1.234
  357  SOL  HW2 1216   1.092   1.516   1.290
  358  SOL   OW 1217   3.306   1.809   2.711
  358  SOL  HW1 1218   3.373   1.877   2.713
  358  SOL  HW2 1219   3.262   1.816   2.796
  359  SOL   OW 1220   1.963   2.870   3.774
  359  SOL  HW1 1221   1.965   2.823   3.858
  359  SOL  HW2 1222   1.970   2.962   3.799
  360  SOL   OW 1223   0.199   1.666   2.992
  360  SOL  HW1 1224   0.238   1.743   3.034
  360  SOL  HW2 1225   0.128   1.641   3.051
  361  SOL   OW 1226   0.888   2.678   0.461
  361  SOL  HW1 1227   0.879   2.583   0.467
  361  SOL  HW2 1228   0.864   2.699   0.370
  362  SOL   OW 1229   3.089   0.914   0.453
  362  SOL  HW1 1230   3.076   0.861   0.374
  362  SOL  HW2 1231   3.179   0.946   0.446
  363  SOL   OW 1232   0.428   1.959   1.485
  363  SOL  HW1 1233   0.341   1.938   1.517
  363  SOL  HW2 1234   0.432   1.922   1.397
  364  SOL   OW 1235   0.387   2.540   2.461
  364  SOL  HW1 1236   0.428   2.455   2.472
  364  SOL  HW2 1237   0.351   2.539   2.372
  365  SOL   OW 1238   0.370   3.562   0.675
  365  SOL  HW1 1239   0.367   3.570   0.770
  365  SOL  HW2 1240   0.324   3.480   0.656
  366  SOL   OW 1241   0.103   0.449   3.055
  366  SOL  HW1 1242   0.035   0.388   3.029
  366  SOL  HW2 1243   0.165   0.396   3.106
  367  SOL   OW 1244   1.828   3.024   3.579
  367  SOL  HW1 1245   1.742   3.035   3.620
  367  SOL  HW2 1246   1.868   2.951   3.626
  368  SOL   OW 1247   2.184   2.076   2.998
  368  SOL  HW1 1248   2.237   2.151   2.973
  368  SOL  HW2 1249   2.117   2.112   3.055
  369  SOL   OW 1250   0.566   2.747   0.701
  369  SOL  HW1 1251   0.582   2.802   0.625
  369  SOL  HW2 1252   0.497   2.793   0.750
  370  SOL   OW 1253   1.544   2.114   0.648
  370  SOL  HW1 1254   1.471   2.176   0.645
  370  SOL  HW2 1255   1.608   2.150   0.586
  371  SOL   OW 1256   2.541   3.292   1.830
  371  SOL  HW1 1257   2.499   3.256   1.752
  371  SOL  HW2 1258   2.635   3.287   1.812
  372  SOL   OW 1259   0.185   1.800   2.000
  372  SOL  HW1 1260   0.177   1.773   2.091
  372  SOL  HW2 1261   0.123   1.873   1.992
  373  SOL   OW 1262   0.399   1.585   1.957
  373  SOL  HW1 1263   0.345   1.661   1.935
  373  SOL  HW2 1264   0.457   1.617   2.026
  374  SOL   OW 1265   1.761   3.059   2.040
  374  SOL  HW1 1266   1.709   3.037   1.963
  374  SOL  HW2 1267   1.698   3.099   2.101
  375  SOL   OW 1268   1.217   0.476   3.014
  375  SOL  HW1 1269   1.295   0.439   2.972
  375  SOL  HW2 1270   1.228   0.456   3.107
  376  SOL   OW 1271   1.849   3.554   3.833
  376  SOL  HW1 1272   1.940   3.526   3.836
  376  SOL  HW2 1273   1.798   3.473   3.835
  377  SOL   OW 1274   0.009   0.326   1.352
  377  SOL  HW1 1275   0.075   0.277   1.302
  377  SOL  HW2 1276   0.009   0.285   1.439
  378  SOL   OW 1277   2.386   0.094   3.553
  378  SOL  HW1 1278   2.292   0.078   3.539
  378  SOL  HW2 1279   2.419   0.120   3.468
  379  SOL   OW 1280   1.591   2.537   1.071
  379  SOL  HW1 1281   1.580   2.473   1.001
  379  SOL  HW2 1282   1.532   2.507   1.141
  380  SOL   OW 1283   0.136   1.613   0.692
  380  SOL  HW1 1284   0.042   1.608   0.677
  380  SOL  HW2 1285   0.149   1.572   0.778
  381  SOL   OW 1286   0.178   3.857   1.003
  381  SOL  HW1 1287   0.104   3.871   1.063
  381  SOL  HW2 1288   0.182   3.936   0.951
  382  SOL   OW 1289   3.175   3.822   3.236
  382  SOL  HW1 1290   3.106   3.757   3.226
  382  SOL  HW2 1291   3.244   3.793   3.177
  383  SOL   OW 1292   1.333   3.571   2.671
  383  SOL  HW1 1293   1.272   3.516   2.721
  383  SOL  HW2 1294   1.343   3.526   2.587
  384  SOL   OW 1295   3.867   0.540   3.161
  384  SOL  HW1 1296   3.853   0.446   3.150
  384  SOL  HW2 1297   3.901   0.569   3.076
  385  SOL   OW 1298   1.877   0.620   2.712
  385  SOL  HW1 1299   1.788   0.600   2.739
  385  SOL  HW2 1300   1.911   0.677   2.781
  386  SOL   OW 1301   2.922   1.308   0.785
  386  SOL  HW1 1302   2.965   1.272   0.707
  386  SOL  HW2 1303   2.855   1.243   0.807
  387  SOL   OW 1304   3.268   1.569   3.983
  387  SOL  HW1 1305   3.345   1.526   3.944
  387  SOL  HW2 1306   3.228   1.500   4.036
  388  SOL   OW 1307   0.397   3.021   3.837
  388  SOL  HW1 1308   0.379   3.067   3.755
  388  SOL  HW2 1309   0.318   2.971   3.854
  389  SOL   OW 1310   0.208   0.252   0.936
  389  SOL  HW1 1311   0.244   0.275   0.851
  389  SOL  HW2 1312   0.130   0.200   0.916
  390  SOL   OW 1313   3.305   1.947   0.941
  390  SOL  HW1 1314   3.379   1.924   0.884
  390  SOL  HW2 1315   3.240   1.879   0.925
  391  SOL   OW 1316   3.187   0.183   3.007
  391  SOL  HW1 1317   3.201   0.273   3.036
  391  SOL  HW2 1318   3.275   0.148   2.993
  392  SOL   OW 1319   2.750   3.172   2.063
  392  SOL  HW1 1320   2.785   3.119   2.135
  392  SOL  HW2 1321   2.751   3.113   1.987
  393  SOL   OW 1322   3.883   1.396   1.218
  393  SOL  HW1 1323   3.962   1.385   1.270
  393  SOL  HW2 1324   3.852   1.484   1.240
  394  SOL   OW 1325   2.400   2.464   0.779
  394  SOL  HW1 1326   2.407   2.559   0.777
  394  SOL  HW2 1327   2.439   2.439   0.862
  395  SOL   OW 1328   1.389   1.721   1.035
  395  SOL  HW1 1329   1.298   1.746   1.053
  395  SOL  HW2 1330   1.436   1.804   1.034
  396  SOL   OW 1331   1.623   0.233   2.689
  396  SOL  HW1 1332   1.623   0.249   2.783
  396  SOL  HW2 1333   1.686   0.162   2.676
  397  SOL   OW 1334   2.786   0.778   3.258
  397  SOL  HW1 1335   2.696   0.754   3.276
  397  SOL  HW2 1336   2.783   0.872   3.241
  398  SOL   OW 1337   1.797   1.719   1.813
  398  SOL  HW1 1338   1.706   1.726   1.787
  398  SOL  HW2 1339   1.831   1.808   1.806
  399  SOL   OW 1340   2.547   2.301   3.918
  399  SOL  HW1 1341   2.590   2.339   3.995
  399  SOL  HW2 1342   2.462   2.343   3.915
  400  SOL   OW 1343   3.925   2.497   1.560
  400  SOL  HW1 1344   3.985   2.427   1.583
  400  SOL  HW2 1345   3.861   2.498   1.631
  401  SOL   OW 1346   0.671   1.759   1.795
  401  SOL  HW1 1347   0.650   1.785   1.705
  401  SOL  HW2 1348   0.595   1.788   1.846
  402  SOL   OW 1349   3.683   1.758   1.942
  402  SOL  HW1 1350   3.738   1.771   2.020
  402  SOL  HW2 1351   3.600   1.727   1.977
  403  SOL   OW 1352   2.860   3.684   3.949
  403  SOL  HW1 1353   2.924   3.753   3.935
  403  SOL  HW2 1354   2.838   3.653   3.860
  404  SOL   OW 1355   0.983   2.829   0.679
  404  SOL  HW1 1356   0.963   2.782   0.598
  404  SOL  HW2 1357   0.943   2.915   0.667
  405  SOL   OW 1358   2.987   1.434   3.199
  405  SOL  HW1 1359   2.921   1.499   3.174
  405  SOL  HW2 1360   3.012   1.459   3.288
  406  SOL   OW 1361   1.008   3.513   0.383
  406  SOL  HW1 1362   1.041   3.423   0.381
  406  SOL  HW2 1363   0.969   3.523   0.470
  407  SOL   OW 1364   0.091   3.390   1.488
  407  SOL  HW1 1365   0.121   3.310   1.444
  407  SOL  HW2 1366   0.010   3.364   1.531
  408  SOL   OW 1367   3.098   0.254   3.705
  408  SOL  HW1 1368   3.151   0.230   3.629
  408  SOL  HW2 1369   3.008   0.256   3.672
  409  SOL   OW 1370   0.653   1.369   0.789
  409  SOL  HW1 1371   0.673   1.436   0.723
  409  SOL  HW2 1372   0.685   1.287   0.751
  410  SOL   OW 1373   2.402   2.640   3.417
  410  SOL  HW1 1374   2.406   2.544   3.409
  410  SOL  HW2 1375   2.311   2.662   3.399
  411  SOL   OW 1376   0.014   2.268   0.350
  411  SOL  HW1 1377   0.081   2.208   0.382
  411  SOL  HW2 1378  -0.065   2.244   0.400
  412  SOL   OW 1379   2.602   3.826   0.579
  412  SOL  HW1 1380   2.637   3.747   0.620
  412  SOL  HW2 1381   2.541   3.862   0.644
  413  SOL   OW 1382   3.876   0.160   2.168
  413  SOL  HW1 1383   3.912   0.117   2.245
  413  SOL  HW2 1384   3.789   0.190   2.196
  414  SOL   OW 1385   3.543   2.912   3.469
  414  SOL  HW1 1386   3.571   3.004   3.477
  414  SOL  HW2 1387   3.468   2.915   3.411
  415  SOL   OW 1388   2.834   3.425   3.253
  415  SOL  HW1 1389   2.779   3.369   3.308
  415  SOL  HW2 1390   2.887   3.364   3.202
  416  SOL   OW 1391   0.305   0.631   3.574
  416  SOL  HW1 1392   0.291   0.617   3.667
  416  SOL  HW2 1393   0.280   0.722   3.558
  417  SOL   OW 1394   3.639   0.224   0.779
  417  SOL  HW1 1395   3.692   0.208   0.857
  417  SOL  HW2 1396   3.604   0.138   0.756
  418  SOL   OW 1397   1.303   1.383   1.538
  418  SOL  HW1 1398   1.243   1.411   1.607
  418  SOL  HW2 1399   1.378   1.442   1.547
  419  SOL   OW 1400   1.386   2.673   0.853
  419  SOL  HW1 1401   1.306   2.725   0.855
  419  SOL  HW2 1402   1.356   2.582   0.856
  420  SOL   OW 1403   1.065   1.036   1.033
  420  SOL  HW1 1404   0.972   1.015   1.021
  420  SOL  HW2 1405   1.101   1.037   0.944
  421  SOL   OW 1406   0.295   1.281   3.508
  421  SOL  HW1 1407   0.213   1.231   3.512
  421  SOL  HW2 1408   0.294   1.335   3.587
  422  SOL   OW 1409   1.685   0.743   2.301
  422  SOL  HW1 1410   1.757   0.788   2.345
  422  SOL  HW2 1411   1.727   0.675   2.249
  423  SOL   OW 1412   2.271   3.231   1.145
  423  SOL  HW1 1413   2.357   3.204   1.177
  423  SOL  HW2 1414   2.222   3.149   1.136
  424  SOL   OW 1415   1.698   0.048   1.161
  424  SOL  HW1 1416   1.785   0.017   1.134
  424  SOL  HW2 1417   1.666  -0.019   1.221
  425  SOL   OW 1418   1.705   2.760   2.829
  425  SOL  HW1 1419   1.652   2.816   2.886
  425  SOL  HW2 1420   1.793   2.796   2.834
  426  SOL   OW 1421   1.438   2.911   1.961
  426  SOL  HW1 1422   1.467   2.852   2.031
  426  SOL  HW2 1423   1.357   2.873   1.930
  427  SOL   OW 1424   1.375   2.186   2.383
  427  SOL  HW1 1425   1.401   2.117   2.445
  427  SOL  HW2 1426   1.290   2.157   2.351
  428  SOL   OW 1427   3.819   2.800   3.974
  428  SOL  HW1 1428   3.803   2.747   4.052
  428  SOL  HW2 1429   3.739   2.852   3.963
  429  SOL   OW 1430   0.096   2.883   3.944
  429  SOL  HW1 1431   0.013   2.846   3.974
  429  SOL  HW2 1432   0.132   2.926   4.021
  430  SOL   OW 1433   0.991   1.193   0.796
  430  SOL  HW1 1434   1.084   1.192   0.820
  430  SOL  HW2 1435   0.957   1.272   0.839
  431  SOL   OW 1436   1.637   2.810   1.763
  431  SOL  HW1 1437   1.594   2.865   1.828
  431  SOL  HW2 1438   1.712   2.773   1.808
  432  SOL   OW 1439   3.858   1.300   3.865
  432  SOL  HW1 1440   3.896   1.223   3.823
  432  SOL  HW2 1441   3.873   1.287   3.958
  433  SOL   OW 1442   0.800   3.050   2.456
  433  SOL  HW1 1443   0.812   2.969   2.506
  433  SOL  HW2 1444   0.822   3.026   2.366
  434  SOL   OW 1445   3.493   2.568   2.524
  434  SOL  HW1 1446   3.459   2.620   2.451
  434  SOL  HW2 1447   3.421   2.510   2.548
  435  SOL   OW 1448   3.122   0.191   2.748
  435  SOL  HW1 1449   3.134   0.202   2.843
  435  SOL  HW2 1450   3.156   0.271   2.710
  436  SOL   OW 1451   3.934   3.687   2.986
  436  SOL  HW1 1452   3.933   3.762   2.927
  436  SOL  HW2 1453   4.023   3.687   3.023
  437  SOL   OW 1454   0.983   2.573   1.078
  437  SOL  HW1 1455   1.013   2.512   1.145
  437  SOL  HW2 1456   0.902   2.610   1.112
  438  SOL   OW 1457   1.370   3.190   0.412
  438  SOL  HW1 1458   1.346   3.211   0.503
  438  SOL  HW2 1459   1.455   3.232   0.399
  439  SOL   OW 1460   2.116   2.586   0.778
  439  SOL  HW1 1461   2.138   2.591   0.685
  439  SOL  HW2 1462   2.059   2.660   0.794
  440  SOL   OW 1463   2.645   2.858   0.508
  440  SOL  HW1 1464   2.728   2.843   0.555
  440  SOL  HW2 1465   2.584   2.797   0.549
  441  SOL   OW 1466   0.168   0.482   1.585
  441  SOL  HW1 1467   0.095   0.504   1.527
  441  SOL  HW2 1468   0.129   0.427   1.653
  442  SOL   OW 1469   0.131   1.480   0.945
  442  SOL  HW1 1470   0.117   1.440   1.031
  442  SOL  HW2 1471   0.069   1.436   0.887
  443  SOL   OW 1472   0.322   0.512   2.628
  443  SOL  HW1 1473   0.417   0.510   2.636
  443  SOL  HW2 1474   0.291   0.447   2.691
  444  SOL   OW 1475   1.145   2.945   2.073
  444  SOL  HW1 1476   1.141   2.952   1.978
  444  SOL  HW2 1477   1.082   2.877   2.095
  445  SOL   OW 1478   2.808   1.623   3.118
  445  SOL  HW1 1479   2.718   1.639   3.145
  445  SOL  HW2 1480   2.800   1.576   3.035
  446  SOL   OW 1481   2.133   3.223   0.235
  446  SOL  HW1 1482   2.205   3.222   0.297
  446  SOL  HW2 1483   2.168   3.183   0.156
  447  SOL   OW 1484   3.822   3.212   3.890
  447  SOL  HW1 1485   3.754   3.172   3.836
  447  SOL  HW2 1486   3.809   3.172   3.976
  448  SOL   OW 1487   2.611   2.266   1.929
  448  SOL  HW1 1488   2.605   2.332   1.999
  448  SOL  HW2 1489   2.600   2.182   1.975
  449  SOL   OW 1490   3.963   3.764   1.836
  449  SOL  HW1 1491   4.011   3.775   1.918
  449  SOL  HW2 1492   3.926   3.676   1.841
  450  SOL   OW 1493   3.170   0.919   0.878
  450  SOL  HW1 1494   3.241   0.930   0.941
  450  SOL  HW2 1495   3.091   0.932   0.929
  451  SOL   OW 1496   1.683   3.628   2.506
  451  SOL  HW1 1497   1.744   3.615   2.433
  451  SOL  HW2 1498   1.674   3.723   2.514
  452  SOL   OW 1499   2.444   3.858   2.584
  452  SOL  HW1 1500   2.357   3.886   2.558
  452  SOL  HW2 1501   2.486   3.937   2.619
  453  SOL   OW 1502   1.374   0.760   0.168
  453  SOL  HW1 1503   1.447   0.820   0.151
  453  SOL  HW2 1504   1.387   0.730   0.257
  454  SOL   OW 1505   1.508   3.696   3.180
  454  SOL  HW1 1506   1.441   3.641   3.219
  454  SOL  HW2 1507   1.460   3.757   3.124
  455  SOL   OW 1508   2.954   0.167   3.288
  455  SOL  HW1 1509   2.878   0.110   3.297
  455  SOL  HW2 1510   2.968   0.172   3.194
  456  SOL   OW 1511   0.573   0.684   2.997
  456  SOL  HW1 1512   0.538   0.675   3.086
  456  SOL  HW2 1513   0.664   0.657   3.004
  457  SOL   OW 1514   3.350   3.616   0.201
  457  SOL  HW1 1515   3.419   3.565   0.159
  457  SOL  HW2 1516   3.393   3.699   0.224
  458  SOL   OW 1517   1.893   0.769   1.225
  458  SOL  HW1 1518   1.937   0.853   1.209
  458  SOL  HW2 1519   1.904   0.755   1.319
  459  SOL   OW 1520   2.900   0.407   1.020
  459  SOL  HW1 1521   2.942   0.411   1.106
  459  SOL  HW2 1522   2.949   0.339   0.973
  460  SOL   OW 1523   2.420   3.122   0.654
  460  SOL  HW1 1524   2.378   3.084   0.732
  460  SOL  HW2 1525   2.347   3.143   0.596
  461  SOL   OW 1526   1.236   2.124   2.855
  461  SOL  HW1 1527   1.176   2.077   2.798
  461  SOL  HW2 1528   1.299   2.057   2.883
  462  SOL   OW 1529   3.556   3.845   2.548
  462  SOL  HW1 1530   3.640   3.814   2.583
  462  SOL  HW2 1531   3.531   3.778   2.484
  463  SOL   OW 1532   0.806   0.174   0.509
  463  SOL  HW1 1533   0.751   0.103   0.475
  463  SOL  HW2 1534   0.893   0.157   0.473
  464  SOL   OW 1535   1.489   0.623   1.248
  464  SOL  HW1 1536   1.406   0.610   1.203
  464  SOL  HW2 1537   1.555   0.585   1.189
  465  SOL   OW 1538   2.634   2.119   2.839
  465  SOL  HW1 1539   2.612   2.210   2.819
  465  SOL  HW2 1540   2.640   2.116   2.934
  466  SOL   OW 1541   0.111   1.914   3.345
  466  SOL  HW1 1542   0.097   1.932   3.252
  466  SOL  HW2 1543   0.023   1.906   3.381
  467  SOL   OW 1544   0.169   3.592   3.554
  467  SOL  HW1 1545   0.264   3.603   3.546
  467  SOL  HW2 1546   0.135   3.618   3.468
  468  SOL   OW 1547   0.366   0.620   0.107
  468  SOL  HW1 1548   0.404   0.629   0.195
  468  SOL  HW2 1549   0.373   0.526   0.088
  469  SOL   OW 1550   0.508   2.576   3.308
  469  SOL  HW1 1551   0.438   2.641   3.312
  469  SOL  HW2 1552   0.464   2.494   3.286
  470  SOL   OW 1553   1.824   2.876   1.268
  470  SOL  HW1 1554   1.841   2.963   1.232
  470  SOL  HW2 1555   1.729   2.870   1.274
  471  SOL   OW 1556   1.043   3.970   1.669
  471  SOL  HW1 1557   1.082   4.000   1.587
  471  SOL  HW2 1558   1.028   3.876   1.656
  472  SOL   OW 1559   1.305   1.769   1.818
  472  SOL  HW1 1560   1.272   1.699   1.874
  472  SOL  HW2 1561   1.248   1.843   1.836
  473  SOL   OW 1562   2.763   2.630   3.694
  473  SOL  HW1 1563   2.689   2.655   3.638
  473  SOL  HW2 1564   2.772   2.536   3.680
  474  SOL   OW 1565   1.340   3.731   0.329
  474  SOL  HW1 1566   1.255   3.773   0.342
  474  SOL  HW2 1567   1.318   3.640   0.307
  475  SOL   OW 1568   2.843   2.533   0.414
  475  SOL  HW1 1569   2.906   2.569   0.476
  475  SOL  HW2 1570   2.786   2.607   0.392
  476  SOL   OW 1571   3.353   0.860   2.130
  476  SOL  HW1 1572   3.366   0.782   2.183
  476  SOL  HW2 1573   3.267   0.848   2.090
  477  SOL   OW 1574   1.282   2.090   3.972
  477  SOL  HW1 1575   1.268   2.010   3.921
  477  SOL  HW2 1576   1.212   2.090   4.037
  478  SOL   OW 1577   0.428   0.633   1.533
  478  SOL  HW1 1578   0.353   0.574   1.542
  478  SOL  HW2 1579   0.490   0.603   1.600
  479  SOL   OW 1580   2.696   1.826   0.155
  479  SOL  HW1 1581   2.700   1.737   0.121
  479  SOL  HW2 1582   2.703   1.816   0.250
  480  SOL   OW 1583   1.692   0.292   1.282
  480  SOL  HW1 1584   1.693   0.204   1.244
  480  SOL  HW2 1585   1.743   0.283   1.363
  481  SOL   OW 1586   2.200   2.532   2.769
  481  SOL  HW1 1587   2.217   2.453   2.718
  481  SOL  HW2 1588   2.261   2.597   2.735
  482  SOL   OW 1589   3.250   2.626   1.991
  482  SOL  HW1 1590   3.331   2.662   2.025
  482  SOL  HW2 1591   3.275   2.585   1.908
  483  SOL   OW 1592   2.526   1.631   0.356
  483  SOL  HW1 1593   2.618   1.609   0.342
  483  SOL  HW2 1594   2.519   1.721   0.324
  484  SOL   OW 1595   2.473   0.159   3.276
  484  SOL  HW1 1596   2.445   0.246   3.251
  484  SOL  HW2 1597   2.539   0.135   3.211
  485  SOL   OW 1598   0.358   3.225   3.297
  485  SOL  HW1 1599   0.380   3.318   3.289
  485  SOL  HW2 1600   0.352   3.195   3.206
  486  SOL   OW 1601   0.516   3.805   2.492
  486  SOL  HW1 1602   0.577   3.829   2.562
  486  SOL  HW2 1603   0.526   3.873   2.426
  487  SOL   OW 1604   3.345   0.043   2.538
  487  SOL  HW1 1605   3.265  -0.001   2.508
  487  SOL  HW2 1606   3.406  -0.028   2.557
  488  SOL   OW 1607   1.497   2.694   0.581
  488  SOL  HW1 1608   1.593   2.701   0.581
  488  SOL  HW2 1609   1.476   2.667   0.670
  489  SOL   OW 1610   1.272   1.153   0.859
  489  SOL  HW1 1611   1.342   1.196   0.809
  489  SOL  HW2 1612   1.296   1.167   0.950
  490  SOL   OW 1613   3.911   1.964   3.753
  490  SOL  HW1 1614   3.822   1.957   3.788
  490  SOL  HW2 1615   3.927   2.058   3.748
  491  SOL   OW 1616   1.289   3.552   3.786
  491  SOL  HW1 1617   1.266   3.612   3.857
  491  SOL  HW2 1618   1.246   3.470   3.808
  492  SOL   OW 1619   0.542   3.620   1.319
  492  SOL  HW1 1620   0.459   3.618   1.272
  492  SOL  HW2 1621   0.529   3.688   1.386
  493  SOL   OW 1622   3.544   1.255   3.201
  493  SOL  HW1 1623   3.470   1.250   3.141
  493  SOL  HW2 1624   3.514   1.311   3.272
  494  SOL   OW 1625   2.733   0.272   0.624
  494  SOL  HW1 1626   2.822   0.288   0.655
  494  SOL  HW2 1627   2.744   0.212   0.549
  495  SOL   OW 1628   1.589   1.668   0.547
  495  SOL  HW1 1629   1.627   1.625   0.624
  495  SOL  HW2 1630   1.497   1.643   0.548
  496  SOL   OW 1631   0.181   3.355   0.895
  496  SOL  HW1 1632   0.159   3.442   0.929
  496  SOL  HW2 1633   0.195   3.302   0.974
  497  SOL   OW 1634   1.149   1.740   2.709
  497  SOL  HW1 1635   1.238   1.746   2.673
  497  SOL  HW2 1636   1.101   1.810   2.666
  498  SOL   OW 1637   3.207   0.975   3.505
  498  SOL  HW1 1638   3.256   0.893   3.500
  498  SOL  HW2 1639   3.115   0.949   3.497
  499  SOL   OW 1640   0.129   1.718   3.611
  499  SOL  HW1 1641   0.068   1.761   3.671
  499  SOL  HW2 1642   0.076   1.699   3.534
  500  SOL   OW 1643   1.384   3.875   3.837
  500  SOL  HW1 1644   1.355   3.790   3.869
  500  SOL  HW2 1645   1.446   3.905   3.904
  501  SOL   OW 1646   3.108   2.941   2.588
  501  SOL  HW1 1647   3.086   2.906   2.502
  501  SOL  HW2 1648   3.166   2.875   2.627
  502  SOL   OW 1649   2.909   3.938   3.599
  502  SOL  HW1 1650   2.904   3.936   3.504
  502  SOL  HW2 1651   2.979   3.878   3.621
  503  SOL   OW 1652   0.881   1.616   1.416
  503  SOL  HW1 1653   0.792   1.611   1.453
  503  SOL  HW2 1654   0.912   1.526   1.417
  504  SOL   OW 1655   1.820   2.670   1.888
  504  SOL  HW1 1656   1.791   2.673   1.979
  504  SOL  HW2 1657   1.861   2.584   1.878
  505  SOL   OW 1658   2.996   1.499   3.467
  505  SOL  HW1 1659   3.091   1.512   3.463
  505  SOL  HW2 1660   2.984   1.431   3.533
  506  SOL   OW 1661   3.610   2.984   0.766
  506  SOL  HW1 1662   3.515   2.972   0.768
  506  SOL  HW2 1663   3.638   2.961   0.855
  507  SOL   OW 1664   1.243   0.364   0.341
  507  SOL  HW1 1665   1.171   0.387   0.399
  507  SOL  HW2 1666   1.282   0.448   0.317
  508  SOL   OW 1667   3.431   0.970   0.787
  508  SOL  HW1 1668   3.479   0.907   0.734
  508  SOL  HW2 1669   3.495   1.037   0.810
  509  SOL   OW 1670   1.955   0.098   3.265
  509  SOL  HW1 1671   1.886   0.164   3.274
  509  SOL  HW2 1672   2.006   0.127   3.189
  510  SOL   OW 1673   3.312   3.363   0.426
  510  SOL  HW1 1674   3.372   3.314   0.482
  510  SOL  HW2 1675   3.244   3.394   0.485
  511  SOL   OW 1676   3.863   0.302   3.016
  511  SOL  HW1 1677   3.888   0.210   3.006
  511  SOL  HW2 1678   3.767   0.302   3.010
  512  SOL   OW 1679   2.502   3.338   2.656
  512  SOL  HW1 1680   2.463   3.425   2.652
  512  SOL  HW2 1681   2.588   3.349   2.615
  513  SOL   OW 1682   1.442   2.990   2.602
  513  SOL  HW1 1683   1.360   3.018   2.643
  513  SOL  HW2 1684   1.439   2.894   2.606
  514  SOL   OW 1685   0.625   2.989   3.972
  514  SOL  HW1 1686   0.651   2.902   3.944
  514  SOL  HW2 1687   0.543   3.006   3.925
  515  SOL   OW 1688   2.672   3.102   2.749
  515  SOL  HW1 1689   2.675   3.058   2.664
  515  SOL  HW2 1690   2.750   3.158   2.750
  516  SOL   OW 1691   0.970   1.118   3.782
  516  SOL  HW1 1692   0.975   1.149   3.873
  516  SOL  HW2 1693   0.900   1.170   3.743
  517  SOL   OW 1694   0.264   0.839   3.939
  517  SOL  HW1 1695   0.180   0.869   3.972
  517  SOL  HW2 1696   0.307   0.800   4.015
  518  SOL   OW 1697   0.935   3.681   2.070
  518  SOL  HW1 1698   0.942   3.767   2.111
  518  SOL  HW2 1699   0.976   3.621   2.133
  519  SOL   OW 1700   0.436   3.613   0.951
  519  SOL  HW1 1701   0.430   3.541   1.014
  519  SOL  HW2 1702   0.380   3.681   0.988
  520  SOL   OW 1703   3.143   2.203   3.334
  520  SOL  HW1 1704   3.208   2.132   3.340
  520  SOL  HW2 1705   3.169   2.264   3.404
  521  SOL   OW 1706   0.848   1.416   1.795
  521  SOL  HW1 1707   0.763   1.460   1.793
  521  SOL  HW2 1708   0.834   1.334   1.748
  522  SOL   OW 1709   1.107   0.858   0.089
  522  SOL  HW1 1710   1.110   0.855  -0.006
  522  SOL  HW2 1711   1.197   0.838   0.116
  523  SOL   OW 1712   3.894   2.497   3.914
  523  SOL  HW1 1713   3.894   2.519   4.007
  523  SOL  HW2 1714   3.951   2.562   3.873
  524  SOL   OW 1715   0.310   0.120   2.521
  524  SOL  HW1 1716   0.240   0.123   2.456
  524  SOL  HW2 1717   0.299   0.035   2.564
  525  SOL   OW 1718   1.647   3.442   1.658
  525  SOL  HW1 1719   1.669   3.460   1.749
  525  SOL  HW2 1720   1.690   3.359   1.639
  526  SOL   OW 1721   0.214   2.939   3.145
  526  SOL  HW1 1722   0.154   2.898   3.082
  526  SOL  HW2 1723   0.246   3.017   3.099
  527  SOL   OW 1724   3.298   1.219   0.712
  527  SOL  HW1 1725   3.355   1.282   0.756
  527  SOL  HW2 1726   3.312   1.137   0.760
  528  SOL   OW 1727   3.596   3.692   2.057
  528  SOL  HW1 1728   3.547   3.616   2.027
  528  SOL  HW2 1729   3.582   3.757   1.988
  529  SOL   OW 1730   3.583   2.078   2.512
  529  SOL  HW1 1731   3.658   2.112   2.464
  529  SOL  HW2 1732   3.515   2.067   2.445
  530  SOL   OW 1733   3.578   3.738   0.414
  530  SOL  HW1 1734   3.672   3.729   0.428
  530  SOL  HW2 1735   3.543   3.650   0.428
  531  SOL   OW 1736   3.458   1.084   1.842
  531  SOL  HW1 1737   3.527   1.123   1.789
  531  SOL  HW2 1738   3.504   1.021   1.898
  532  SOL   OW 1739   2.185   2.120   1.927
  532  SOL  HW1 1740   2.097   2.146   1.955
  532  SOL  HW2 1741   2.225   2.083   2.006
  533  SOL   OW 1742   3.846   0.707   0.218
  533  SOL  HW1 1743   3.843   0.651   0.296
  533  SOL  HW2 1744   3.754   0.720   0.195
  534  SOL   OW 1745   1.812   2.542   2.224
  534  SOL  HW1 1746   1.742   2.509   2.280
  534  SOL  HW2 1747   1.891   2.495   2.252
  535  SOL   OW 1748   2.855   1.604   2.624
  535  SOL  HW1 1749   2.832   1.680   2.571
  535  SOL  HW2 1750   2.811   1.618   2.708
  536  SOL   OW 1751   0.594   0.356   2.120
  536  SOL  HW1 1752   0.568   0.376   2.030
  536  SOL  HW2 1753   0.687   0.334   2.115
  537  SOL   OW 1754   0.922   3.770   3.410
  537  SOL  HW1 1755   0.884   3.791   3.326
  537  SOL  HW2 1756   0.940   3.855   3.451
  538  SOL   OW 1757   3.386   3.098   3.845
  538  SOL  HW1 1758   3.403   3.155   3.770
  538  SOL  HW2 1759   3.308   3.136   3.885
  539  SOL   OW 1760   0.322   0.042   3.956
  539  SOL  HW1 1761   0.390   0.030   4.021
  539  SOL  HW2 1762   0.359   0.105   3.894
  540  SOL   OW 1763   2.464   1.741   2.861
  540  SOL  HW1 1764   2.545   1.750   2.811
  540  SOL  HW2 1765   2.417   1.823   2.846
  541  SOL   OW 1766   3.550   3.012   0.434
  541  SOL  HW1 1767   3.618   3.065   0.475
  541  SOL  HW2 1768   3.582   2.922   0.441
  542  SOL   OW 1769   2.549   0.657   3.312
  542  SOL  HW1 1770   2.503   0.711   3.376
  542  SOL  HW2 1771   2.554   0.570   3.353
  543  SOL   OW 1772   0.452   3.915   1.102
  543  SOL  HW1 1773   0.396   3.966   1.161
  543  SOL  HW2 1774   0.393   3.882   1.034
  544  SOL   OW 1775   2.039   1.054   1.708
  544  SOL  HW1 1776   1.968   1.037   1.645
  544  SOL  HW2 1777   2.056   0.970   1.749
  545  SOL   OW 1778   3.433   2.150   1.270
  545  SOL  HW1 1779   3.385   2.201   1.334
  545  SOL  HW2 1780   3.378   2.073   1.255
  546  SOL   OW 1781   3.167   0.067   0.059
  546  SOL  HW1 1782   3.183  -0.024   0.082
  546  SOL  HW2 1783   3.125   0.105   0.136
  547  SOL   OW 1784   2.277   2.183   1.493
  547  SOL  HW1 1785   2.267   2.278   1.492
  547  SOL  HW2 1786   2.188   2.149   1.497
  548  SOL   OW 1787   3.147   3.458   0.617
  548  SOL  HW1 1788   3.098   3.526   0.663
  548  SOL  HW2 1789   3.130   3.378   0.668
  549  SOL   OW 1790   0.993   1.047   1.509
  549  SOL  HW1 1791   1.073   1.068   1.557
  549  SOL  HW2 1792   1.016   1.061   1.417
  550  SOL   OW 1793   0.085   0.977   1.930
  550  SOL  HW1 1794   0.058   0.926   2.007
  550  SOL  HW2 1795   0.062   0.921   1.856
  551  SOL   OW 1796   2.431   3.104   1.618
  551  SOL  HW1 1797   2.337   3.083   1.615
  551  SOL  HW2 1798   2.474   3.020   1.634
  552  SOL   OW 1799   1.665   0.874   0.638
  552  SOL  HW1 1800   1.693   0.783   0.632
  552  SOL  HW2 1801   1.744   0.925   0.624
  553  SOL   OW 1802   2.810   2.231   0.332
  553  SOL  HW1 1803   2.830   2.317   0.369
  553  SOL  HW2 1804   2.885   2.176   0.356
  554  SOL   OW 1805   1.118   3.391   2.746
  554  SOL  HW1 1806   1.063   3.451   2.696
  554  SOL  HW2 1807   1.086   3.397   2.836
  555  SOL   OW 1808   1.640   3.457   0.589
  555  SOL  HW1 1809   1.551   3.489   0.574
  555  SOL  HW2 1810   1.660   3.405   0.510
  556  SOL   OW 1811   3.899   1.474   2.172
  556  SOL  HW1 1812   3.862   1.440   2.091
  556  SOL  HW2 1813   3.868   1.413   2.239
  557  SOL   OW 1814   2.854   1.313   2.311
  557  SOL  HW1 1815   2.914   1.239   2.319
  557  SOL  HW2 1816   2.841   1.323   2.217
  558  SOL   OW 1817   2.731   1.870   2.800
  558  SOL  HW1 1818   2.827   1.865   2.802
  558  SOL  HW2 1819   2.712   1.964   2.804
  559  SOL   OW 1820   0.821   0.943   1.030
  559  SOL  HW1 1821   0.786   0.889   0.960
  559  SOL  HW2 1822   0.778   1.028   1.017
  560  SOL   OW 1823   2.280   0.562   1.027
  560  SOL  HW1 1824   2.346   0.498   1.054
  560  SOL  HW2 1825   2.230   0.579   1.107
  561  SOL   OW 1826   2.150   3.908   2.533
  561  SOL  HW1 1827   2.138   4.002   2.519
  561  SOL  HW2 1828   2.078   3.882   2.591
  562  SOL   OW 1829   3.423   1.623   2.535
  562  SOL  HW1 1830   3.517   1.614   2.549
  562  SOL  HW2 1831   3.396   1.691   2.597
  563  SOL   OW 1832   0.053   3.950   3.469
  563  SOL  HW1 1833  -0.032   3.964   3.510
  563  SOL  HW2 1834   0.042   3.869   3.419
  564  SOL   OW 1835   2.044   0.839   0.445
  564  SOL  HW1 1836   2.041   0.749   0.413
  564  SOL  HW2 1837   2.058   0.891   0.367
  565  SOL   OW 1838   1.798   3.888   0.406
  565  SOL  HW1 1839   1.849   3.875   0.327
  565  SOL  HW2 1840   1.787   3.983   0.413
  566  SOL   OW 1841   1.637   3.373   1.949
  566  SOL  HW1 1842   1.626   3.294   1.898
  566  SOL  HW2 1843   1.548   3.397   1.976
  567  SOL   OW 1844   3.244   2.978   2.881
  567  SOL  HW1 1845   3.156   2.984   2.843
  567  SOL  HW2 1846   3.270   2.887   2.869
  568  SOL   OW 1847   1.418   2.992   3.395
  568  SOL  HW1 1848   1.511   2.998   3.371
  568  SOL  HW2 1849   1.418   2.978   3.489
  569  SOL   OW 1850   1.196   2.467   3.108
  569  SOL  HW1 1851   1.256   2.484   3.181
  569  SOL  HW2 1852   1.110   2.459   3.149
  570  SOL   OW 1853   2.467   1.087   0.318
  570  SOL  HW1 1854   2.466   0.998   0.282
  570  SOL  HW2 1855   2.559   1.114   0.313
  571  SOL   OW 1856   3.030   2.678   3.747
  571  SOL  HW1 1857   3.071   2.656   3.830
  571  SOL  HW2 1858   2.936   2.675   3.764
  572  SOL   OW 1859   1.254   3.670   0.711
  572  SOL  HW1 1860   1.316   3.742   0.727
  572  SOL  HW2 1861   1.247   3.626   0.796
  573  SOL   OW 1862   2.503   3.828   1.935
  573  SOL  HW1 1863   2.473   3.817   2.025
  573  SOL  HW2 1864   2.489   3.742   1.894
  574  SOL   OW 1865   1.045   3.083   1.435
  574  SOL  HW1 1866   1.022   3.155   1.494
  574  SOL  HW2 1867   1.063   3.009   1.493
  575  SOL   OW 1868   0.921   0.413   0.153
  575  SOL  HW1 1869   1.005   0.370   0.134
  575  SOL  HW2 1870   0.921   0.492   0.099
  576  SOL   OW 1871   0.648   1.131   0.678
  576  SOL  HW1 1872   0.667   1.078   0.602
  576  SOL  HW2 1873   0.634   1.068   0.749
  577  SOL   OW 1874   2.760   2.010   0.616
  577  SOL  HW1 1875   2.705   1.931   0.617
  577  SOL  HW2 1876   2.729   2.062   0.690
  578  SOL   OW 1877   2.829   3.618   2.223
  578  SOL  HW1 1878   2.770   3.590   2.293
  578  SOL  HW2 1879   2.800   3.570   2.146
  579  SOL   OW 1880   0.636   3.952   0.705
  579  SOL  HW1 1881   0.582   3.939   0.627
  579  SOL  HW2 1882   0.689   3.872   0.711
  580  SOL   OW 1883   1.706   2.945   2.573
  580  SOL  HW1 1884   1.612   2.931   2.569
  580  SOL  HW2 1885   1.739   2.877   2.632
  581  SOL   OW 1886   0.264   0.562   1.143
  581  SOL  HW1 1887   0.340   0.556   1.085
  581  SOL  HW2 1888   0.261   0.478   1.188
  582  SOL   OW 1889   0.364   1.460   2.954
  582  SOL  HW1 1890   0.285   1.502   2.987
  582  SOL  HW2 1891   0.433   1.491   3.013
  583  SOL   OW 1892   1.982   1.810   3.798
  583  SOL  HW1 1893   1.941   1.868   3.735
  583  SOL  HW2 1894   1.978   1.723   3.757
  584  SOL   OW 1895   1.919   2.177   1.118
  584  SOL  HW1 1896   1.891   2.102   1.171
  584  SOL  HW2 1897   1.903   2.253   1.173
  585  SOL   OW 1898   3.249   1.569   3.579
  585  SOL  HW1 1899   3.187   1.612   3.637
  585  SOL  HW2 1900   3.299   1.510   3.636
  586  SOL   OW 1901   2.674   3.123   0.584
  586  SOL  HW1 1902   2.689   3.041   0.537
  586  SOL  HW2 1903   2.582   3.120   0.607
  587  SOL   OW 1904   2.597   3.809   1.262
  587  SOL  HW1 1905   2.563   3.746   1.325
  587  SOL  HW2 1906   2.569   3.894   1.296
  588  SOL   OW 1907   1.054   0.394   0.597
  588  SOL  HW1 1908   1.006   0.476   0.605
  588  SOL  HW2 1909   0.991   0.327   0.624
  589  SOL   OW 1910   1.869   1.852   0.597
  589  SOL  HW1 1911   1.959   1.821   0.601
  589  SOL  HW2 1912   1.823   1.784   0.547
  590  SOL   OW 1913   3.554   1.956   2.751
  590  SOL  HW1 1914   3.588   2.008   2.678
  590  SOL  HW2 1915   3.628   1.945   2.810
  591  SOL   OW 1916   3.495   0.430   2.069
  591  SOL  HW1 1917   3.436   0.501   2.044
  591  SOL  HW2 1918   3.468   0.357   2.013
  592  SOL   OW 1919   3.344   3.241   1.496
  592  SOL  HW1 1920   3.336   3.324   1.544
  592  SOL  HW2 1921   3.433   3.241   1.462
  593  SOL   OW 1922   0.544   0.314   0.520
  593  SOL  HW1 1923   0.506   0.340   0.436
  593  SOL  HW2 1924   0.637   0.303   0.502
  594  SOL   OW 1925   1.704   0.615   3.274
  594  SOL  HW1 1926   1.638   0.684   3.279
  594  SOL  HW2 1927   1.770   0.649   3.214
  595  SOL   OW 1928   3.400   2.360   1.924
  595  SOL  HW1 1929   3.446   2.356   2.008
  595  SOL  HW2 1930   3.331   2.293   1.931
  596  SOL   OW 1931   2.431   3.565   1.876
  596  SOL  HW1 1932   2.430   3.558   1.972
  596  SOL  HW2 1933   2.421   3.475   1.845
  597  SOL   OW 1934   2.426   1.886   3.917
  597  SOL  HW1 1935   2.518   1.906   3.897
  597  SOL  HW2 1936   2.425   1.873   4.012
  598  SOL   OW 1937   2.976   0.111   0.256
  598  SOL  HW1 1938   2.903   0.086   0.200
  598  SOL  HW2 1939   3.001   0.030   0.301
  599  SOL   OW 1940   2.321   3.072   2.293
  599  SOL  HW1 1941   2.243   3.062   2.240
  599  SOL  HW2 1942   2.360   3.155   2.265
  600  SOL   OW 1943   1.908   1.881   0.227
  600  SOL  HW1 1944   1.866   1.805   0.269
  600  SOL  HW2 1945   1.970   1.844   0.165
  601  SOL   OW 1946   1.531   0.490   0.009
  601  SOL  HW1 1947   1.616   0.504   0.053
  601  SOL  HW2 1948   1.466   0.516   0.073
  602  SOL   OW 1949   2.553   3.808   0.028
  602  SOL  HW1 1950   2.600   3.870  -0.029
  602  SOL  HW2 1951   2.565   3.844   0.116
  603  SOL   OW 1952   3.645   1.674   3.435
  603  SOL  HW1 1953   3.666   1.601   3.376
  603  SOL  HW2 1954   3.608   1.741   3.379
  604  SOL   OW 1955   1.367   0.857   0.818
  604  SOL  HW1 1956   1.344   0.856   0.911
  604  SOL  HW2 1957   1.355   0.948   0.791
  605  SOL   OW 1958   2.387   3.597   1.006
  605  SOL  HW1 1959   2.469   3.567   1.044
  605  SOL  HW2 1960   2.319   3.551   1.055
  606  SOL   OW 1961   0.664   2.361   2.709
  606  SOL  HW1 1962   0.715   2.319   2.639
  606  SOL  HW2 1963   0.661   2.296   2.779
  607  SOL   OW 1964   1.362   3.982   3.225
  607  SOL  HW1 1965   1.333   4.047   3.288
  607  SOL  HW2 1966   1.282   3.935   3.201
  608  SOL   OW 1967   2.417   1.314   0.136
  608  SOL  HW1 1968   2.469   1.307   0.057
  608  SOL  HW2 1969   2.451   1.246   0.195
  609  SOL   OW 1970   1.331   2.750   3.185
  609  SOL  HW1 1971   1.340   2.667   3.234
  609  SOL  HW2 1972   1.292   2.810   3.248
  610  SOL   OW 1973   3.034   1.928   2.211
  610  SOL  HW1 1974   3.046   1.916   2.305
  610  SOL  HW2 1975   3.078   1.852   2.172
  611  SOL   OW 1976   1.750   0.599   0.689
  611  SOL  HW1 1977   1.806   0.645   0.751
  611  SOL  HW2 1978   1.723   0.520   0.735
  612  SOL   OW 1979   1.556   0.139   0.953
  612  SOL  HW1 1980   1.599   0.142   1.038
  612  SOL  HW2 1981   1.604   0.072   0.905
  613  SOL   OW 1982   0.893   3.133   2.881
  613  SOL  HW1 1983   0.951   3.069   2.841
  613  SOL  HW2 1984   0.910   3.126   2.975
  614  SOL   OW 1985   0.363   1.486   0.541
  614  SOL  HW1 1986   0.308   1.496   0.619
  614  SOL  HW2 1987   0.452   1.505   0.571
  615  SOL   OW 1988   2.621   2.758   3.096
  615  SOL  HW1 1989   2.704   2.799   3.070
  615  SOL  HW2 1990   2.557   2.829   3.093
  616  SOL   OW 1991   2.674   1.756   3.770
  616  SOL  HW1 1992   2.762   1.728   3.747
  616  SOL  HW2 1993   2.628   1.676   3.795
  617  SOL   OW 1994   1.887   3.292   0.300
  617  SOL  HW1 1995   1.868   3.385   0.286
  617  SOL  HW2 1996   1.981   3.284   0.284
  618  SOL   OW 1997   3.818   1.741   0.332
  618  SOL  HW1 1998   3.864   1.817   0.297
  618  SOL  HW2 1999   3.825   1.675   0.263
  619  SOL   OW 2000   2.705   2.895   0.218
  619  SOL  HW1 2001   2.655   2.972   0.189
  619  SOL  HW2 2002   2.654   2.858   0.289
  620  SOL   OW 2003   0.658   2.235   2.450
  620  SOL  HW1 2004   0.719   2.279   2.391
  620  SOL  HW2 2005   0.644   2.149   2.409
  621  SOL   OW 2006   0.176   0.680   3.313
  621  SOL  HW1 2007   0.177   0.634   3.397
  621  SOL  HW2 2008   0.138   0.618   3.251
  622  SOL   OW 2009   2.905   0.374   0.246
  622  SOL  HW1 2010   2.927   0.285   0.271
  622  SOL  HW2 2011   2.989   0.419   0.239
  623  SOL   OW 2012   2.695   1.162   0.645
  623  SOL  HW1 2013   2.661   1.220   0.577
  623  SOL  HW2 2014   2.731   1.087   0.598
  624  SOL   OW 2015   2.974   0.099   1.808
  624  SOL  HW1 2016   2.927   0.106   1.891
  624  SOL  HW2 2017   3.020   0.015   1.814
  625  SOL   OW 2018   2.279   1.318   3.673
  625  SOL  HW1 2019   2.320   1.237   3.642
  625  SOL  HW2 2020   2.247   1.297   3.760
  626  SOL   OW 2021   0.583   1.962   2.651
  626  SOL  HW1 2022   0.634   1.893   2.694
  626  SOL  HW2 2023   0.610   2.043   2.696
  627  SOL   OW 2024   3.316   3.383   3.715
  627  SOL  HW1 2025   3.238   3.397   3.660
  627  SOL  HW2 2026   3.281   3.365   3.802
  628  SOL   OW 2027   0.846   0.630   1.856
  628  SOL  HW1 2028   0.828   0.628   1.950
  628  SOL  HW2 2029   0.926   0.578   1.846
  629  SOL   OW 2030   0.978   0.980   1.895
  629  SOL  HW1 2031   1.030   1.058   1.912
  629  SOL  HW2 2032   1.041   0.909   1.889
  630  SOL   OW 2033   3.797   0.802   0.984
  630  SOL  HW1 2034   3.743   0.873   1.020
  630  SOL  HW2 2035   3.884   0.841   0.972
  631  SOL   OW 2036   1.449   0.429   1.784
  631  SOL  HW1 2037   1.404   0.411   1.866
  631  SOL  HW2 2038   1.416   0.515   1.756
  632  SOL   OW 2039   2.261   3.372   0.864
  632  SOL  HW1 2040   2.314   3.320   0.925
  632  SOL  HW2 2041   2.182   3.394   0.915
  633  SOL   OW 2042   3.631   1.781   2.357
  633  SOL  HW1 2043   3.707   1.779   2.415
  633  SOL  HW2 2044   3.560   1.815   2.411
  634  SOL   OW 2045   1.592   1.812   0.309
  634  SOL  HW1 2046   1.578   1.777   0.396
  634  SOL  HW2 2047   1.569   1.905   0.316
  635  SOL   OW 2048   2.151   3.721   0.036
  635  SOL  HW1 2049   2.231   3.733  -0.015
  635  SOL  HW2 2050   2.128   3.629   0.024
  636  SOL   OW 2051   1.098   3.149   1.049
  636  SOL  HW1 2052   1.113   3.141   0.955
  636  SOL  HW2 2053   1.107   3.060   1.083
  637  SOL   OW 2054   2.803   1.148   1.073
  637  SOL  HW1 2055   2.753   1.155   1.154
  637  SOL  HW2 2056   2.768   1.217   1.017
  638  SOL   OW 2057   3.644   0.411   0.160
  638  SOL  HW1 2058   3.592   0.354   0.103
  638  SOL  HW2 2059   3.716   0.440   0.105
  639  SOL   OW 2060   3.154   0.124   0.592
  639  SOL  HW1 2061   3.184   0.147   0.679
  639  SOL  HW2 2062   3.144   0.208   0.547
  640  SOL   OW 2063   0.835   0.163   3.061
  640  SOL  HW1 2064   0.761   0.111   3.027
  640  SOL  HW2 2065   0.870   0.207   2.983
  641  SOL   OW 2066   2.953   0.515   1.492
  641  SOL  HW1 2067   2.891   0.517   1.565
  641  SOL  HW2 2068   3.031   0.560   1.527
  642  SOL   OW 2069   2.465   2.873   2.381
  642  SOL  HW1 2070   2.392   2.930   2.356
  642  SOL  HW2 2071   2.494   2.834   2.298
  643  SOL   OW 2072   0.059   3.948   0.537
  643  SOL  HW1 2073   0.005   3.963   0.459
  643  SOL  HW2 2074   0.104   3.866   0.519
  644  SOL   OW 2075   0.588   2.282   2.066
  644  SOL  HW1 2076   0.589   2.350   2.134
  644  SOL  HW2 2077   0.497   2.281   2.035
  645  SOL   OW 2078   1.628   0.516   3.740
  645  SOL  HW1 2079   1.693   0.447   3.754
  645  SOL  HW2 2080   1.578   0.518   3.822
  646  SOL   OW 2081   1.577   3.580   2.238
  646  SOL  HW1 2082   1.534   3.498   2.216
  646  SOL  HW2 2083   1.568   3.587   2.333
  647  SOL   OW 2084   1.121   0.581   3.872
  647  SOL  HW1 2085   1.147   0.489   3.865
  647  SOL  HW2 2086   1.056   0.581   3.943
  648  SOL   OW 2087   2.419   0.500   3.738
  648  SOL  HW1 2088   2.484   0.548   3.687
  648  SOL  HW2 2089   2.343   0.492   3.679
  649  SOL   OW 2090   1.158   2.937   3.015
  649  SOL  HW1 2091   1.142   2.972   3.102
  649  SOL  HW2 2092   1.249   2.958   2.997
  650  SOL   OW 2093   3.924   3.590   4.016
  650  SOL  HW1 2094   3.839   3.583   3.973
  650  SOL  HW2 2095   3.978   3.640   3.955
  651  SOL   OW 2096   0.265   0.354   2.086
  651  SOL  HW1 2097   0.319   0.360   2.007
  651  SOL  HW2 2098   0.306   0.413   2.149
  652  SOL   OW 2099   1.031   2.266   0.423
  652  SOL  HW1 2100   0.965   2.320   0.466
  652  SOL  HW2 2101   1.019   2.179   0.460
  653  SOL   OW 2102   2.297   3.418   3.523
  653  SOL  HW1 2103   2.288   3.453   3.435
  653  SOL  HW2 2104   2.209   3.388   3.547
  654  SOL   OW 2105   1.385   2.474   0.482
  654  SOL  HW1 2106   1.478   2.499   0.485
  654  SOL  HW2 2107   1.343   2.534   0.544
  655  SOL   OW 2108   1.961   2.848   2.811
  655  SOL  HW1 2109   2.008   2.930   2.828
  655  SOL  HW2 2110   1.988   2.823   2.723
  656  SOL   OW 2111   2.082   3.185   3.021
  656  SOL  HW1 2112   2.107   3.145   2.938
  656  SOL  HW2 2113   2.108   3.121   3.087
  657  SOL   OW 2114   1.328   0.062   1.129
  657  SOL  HW1 2115   1.322   0.142   1.076
  657  SOL  HW2 2116   1.418   0.033   1.118
  658  SOL   OW 2117   2.953   0.120   3.927
  658  SOL  HW1 2118   3.037   0.083   3.955
  658  SOL  HW2 2119   2.968   0.152   3.839
  659  SOL   OW 2120   3.983   1.932   0.658
  659  SOL  HW1 2121   4.076   1.928   0.637
  659  SOL  HW2 2122   3.956   1.840   0.660
  660  SOL   OW 2123   1.336   0.505   2.415
  660  SOL  HW1 2124   1.303   0.498   2.325
  660  SOL  HW2 2125   1.306   0.591   2.444
  661  SOL   OW 2126   3.288   2.514   3.753
  661  SOL  HW1 2127   3.320   2.556   3.833
  661  SOL  HW2 2128   3.245   2.584   3.704
  662  SOL   OW 2129   2.427   2.967   0.947
  662  SOL  HW1 2130   2.418   2.914   1.026
  662  SOL  HW2 2131   2.492   3.033   0.969
  663  SOL   OW 2132   2.638   1.393   3.341
  663  SOL  HW1 2133   2.720   1.440   3.324
  663  SOL  HW2 2134   2.599   1.380   3.255
  664  SOL   OW 2135   3.279   3.004   0.312
  664  SOL  HW1 2136   3.238   3.086   0.283
  664  SOL  HW2 2137   3.364   3.030   0.347
  665  SOL   OW 2138   0.073   0.827   0.599
  665  SOL  HW1 2139   0.070   0.752   0.539
  665  SOL  HW2 2140  -0.013   0.826   0.642
  666  SOL   OW 2141   3.870   0.960   0.344
  666  SOL  HW1 2142   3.871   0.864   0.341
  666  SOL  HW2 2143   3.888   0.981   0.436
  667  SOL   OW 2144   0.593   3.305   0.669
  667  SOL  HW1 2145   0.627   3.359   0.741
  667  SOL  HW2 2146   0.651   3.325   0.595
  668  SOL   OW 2147   0.381   1.489   0.853
  668  SOL  HW1 2148   0.301   1.440   0.874
  668  SOL  HW2 2149   0.452   1.425   0.861
  669  SOL   OW 2150   2.191   0.823   3.086
  669  SOL  HW1 2151   2.212   0.778   3.005
  669  SOL  HW2 2152   2.244   0.903   3.084
  670  SOL   OW 2153   0.440   3.664   0.174
  670  SOL  HW1 2154   0.354   3.639   0.141
  670  SOL  HW2 2155   0.477   3.583   0.208
  671  SOL   OW 2156   0.279   2.705   3.683
  671  SOL  HW1 2157   0.320   2.724   3.768
  671  SOL  HW2 2158   0.187   2.687   3.705
  672  SOL   OW 2159   3.526   0.372   3.124
  672  SOL  HW1 2160   3.532   0.294   3.179
  672  SOL  HW2 2161   3.546   0.341   3.035
  673  SOL   OW 2162   1.924   3.920   1.088
  673  SOL  HW1 2163   1.957   3.923   1.178
  673  SOL  HW2 2164   1.997   3.885   1.037
  674  SOL   OW 2165   1.798   3.097   3.042
  674  SOL  HW1 2166   1.873   3.152   3.019
  674  SOL  HW2 2167   1.762   3.138   3.121
  675  SOL   OW 2168   0.929   1.420   3.740
  675  SOL  HW1 2169   0.840   1.440   3.767
  675  SOL  HW2 2170   0.936   1.458   3.652
  676  SOL   OW 2171   2.075   3.079   2.778
  676  SOL  HW1 2172   2.156   3.085   2.727
  676  SOL  HW2 2173   2.008   3.058   2.713
  677  SOL   OW 2174   3.731   1.342   3.032
  677  SOL  HW1 2175   3.731   1.289   2.952
  677  SOL  HW2 2176   3.673   1.295   3.092
  678  SOL   OW 2177   2.043   3.537   3.553
  678  SOL  HW1 2178   1.948   3.532   3.552
  678  SOL  HW2 2179   2.064   3.621   3.514
  679  SOL   OW 2180   0.684   1.401   2.216
  679  SOL  HW1 2181   0.744   1.349   2.162
  679  SOL  HW2 2182   0.602   1.352   2.216
  680  SOL   OW 2183   1.889   3.535   2.703
  680  SOL  HW1 2184   1.849   3.478   2.768
  680  SOL  HW2 2185   1.817   3.586   2.667
  681  SOL   OW 2186   2.716   1.813   1.858
  681  SOL  HW1 2187   2.800   1.841   1.822
  681  SOL  HW2 2188   2.727   1.821   1.952
  682  SOL   OW 2189   0.955   0.653   3.339
  682  SOL  HW1 2190   0.953   0.573   3.286
  682  SOL  HW2 2191   0.946   0.622   3.429
  683  SOL   OW 2192   1.204   0.518   2.174
  683  SOL  HW1 2193   1.269   0.465   2.128
  683  SOL  HW2 2194   1.159   0.566   2.104
  684  SOL   OW 2195   3.799   0.507   2.363
  684  SOL  HW1 2196   3.753   0.545   2.438
  684  SOL  HW2 2197   3.891   0.513   2.386
  685  SOL   OW 2198   0.196   3.604   3.108
  685  SOL  HW1 2199   0.240   3.681   3.144
  685  SOL  HW2 2200   0.234   3.592   3.021
  686  SOL   OW 2201   2.921   0.680   0.155
  686  SOL  HW1 2202   2.865   0.605   0.137
  686  SOL  HW2 2203   2.913   0.694   0.249
  687  SOL   OW 2204   1.328   0.333   0.664
  687  SOL  HW1 2205   1.304   0.292   0.747
  687  SOL  HW2 2206   1.245   0.344   0.617
  688  SOL   OW 2207   2.812   1.085   2.817
  688  SOL  HW1 2208   2.859   1.159   2.855
  688  SOL  HW2 2209   2.880   1.033   2.774
  689  SOL   OW 2210   0.248   3.106   2.684
  689  SOL  HW1 2211   0.252   3.027   2.739
  689  SOL  HW2 2212   0.327   3.101   2.631
  690  SOL   OW 2213   3.966   1.339   0.821
  690  SOL  HW1 2214   3.977   1.277   0.893
  690  SOL  HW2 2215   3.996   1.292   0.743
  691  SOL   OW 2216   1.330   1.497   0.492
  691  SOL  HW1 2217   1.322   1.401   0.498
  691  SOL  HW2 2218   1.326   1.527   0.583
  692  SOL   OW 2219   1.289   3.718   3.556
  692  SOL  HW1 2220   1.348   3.791   3.577
  692  SOL  HW2 2221   1.310   3.651   3.622
  693  SOL   OW 2222   0.272   1.097   2.805
  693  SOL  HW1 2223   0.299   1.119   2.716
  693  SOL  HW2 2224   0.192   1.046   2.794
  694  SOL   OW 2225   2.703   1.006   2.253
  694  SOL  HW1 2226   2.717   1.078   2.316
  694  SOL  HW2 2227   2.662   1.048   2.177
  695  SOL   OW 2228   3.453   0.060   2.920
  695  SOL  HW1 2229   3.412  -0.020   2.888
  695  SOL  HW2 2230   3.484   0.104   2.840
  696  SOL   OW 2231   1.245   3.281   3.885
  696  SOL  HW1 2232   1.172   3.262   3.944
  696  SOL  HW2 2233   1.307   3.329   3.939
  697  SOL   OW 2234   3.330   1.615   1.715
  697  SOL  HW1 2235   3.342   1.706   1.743
  697  SOL  HW2 2236   3.393   1.603   1.643
  698  SOL   OW 2237   3.663   1.889   3.860
  698  SOL  HW1 2238   3.576   1.928   3.868
  698  SOL  HW2 2239   3.647   1.802   3.822
  699  SOL   OW 2240   3.046   3.294   3.647
  699  SOL  HW1 2241   2.954   3.268   3.646
  699  SOL  HW2 2242   3.095   3.211   3.649
  700  SOL   OW 2243   1.775   3.898   3.392
  700  SOL  HW1 2244   1.762   3.806   3.369
  700  SOL  HW2 2245   1.823   3.935   3.317
  701  SOL   OW 2246   0.736   3.176   3.765
  701  SOL  HW1 2247   0.783   3.256   3.789
  701  SOL  HW2 2248   0.712   3.137   3.849
  702  SOL   OW 2249   3.174   2.905   0.061
  702  SOL  HW1 2250   3.222   2.827   0.033
  702  SOL  HW2 2251   3.237   2.952   0.115
  703  SOL   OW 2252   2.295   3.883   3.720
  703  SOL  HW1 2253   2.220   3.931   3.754
  703  SOL  HW2 2254   2.351   3.950   3.680
  704  SOL   OW 2255   2.113   3.615   2.543
  704  SOL  HW1 2256   2.189   3.574   2.583
  704  SOL  HW2 2257   2.038   3.579   2.591
  705  SOL   OW 2258   1.450   0.658   2.162
  705  SOL  HW1 2259   1.469   0.689   2.250
  705  SOL  HW2 2260   1.355   0.664   2.154
  706  SOL   OW 2261   0.707   1.959   1.574
  706  SOL  HW1 2262   0.772   1.936   1.508
  706  SOL  HW2 2263   0.627   1.977   1.525
  707  SOL   OW 2264   0.752   1.801   3.381
  707  SOL  HW1 2265   0.801   1.838   3.454
  707  SOL  HW2 2266   0.786   1.845   3.304
  708  SOL   OW 2267   0.591   1.529   0.156
  708  SOL  HW1 2268   0.643   1.455   0.124
  708  SOL  HW2 2269   0.532   1.491   0.221
  709  SOL   OW 2270   0.309   0.541   2.897
  709  SOL  HW1 2271   0.360   0.617   2.926
  709  SOL  HW2 2272   0.252   0.521   2.970
  710  SOL   OW 2273   0.457   0.367   1.835
  710  SOL  HW1 2274   0.427   0.275   1.837
  710  SOL  HW2 2275   0.540   0.364   1.788
  711  SOL   OW 2276   2.804   1.845   2.434
  711  SOL  HW1 2277   2.891   1.810   2.415
  711  SOL  HW2 2278   2.817   1.940   2.436
  712  SOL   OW 2279   3.045   2.881   0.344
  712  SOL  HW1 2280   3.123   2.936   0.349
  712  SOL  HW2 2281   3.011   2.896   0.256
  713  SOL   OW 2282   0.894   0.400   2.809
  713  SOL  HW1 2283   0.897   0.481   2.859
  713  SOL  HW2 2284   0.981   0.362   2.821
  714  SOL   OW 2285   0.723   3.667   1.127
  714  SOL  HW1 2286   0.663   3.660   1.201
  714  SOL  HW2 2287   0.809   3.651   1.164
  715  SOL   OW 2288   0.073   0.261   0.511
  715  SOL  HW1 2289   0.020   0.185   0.536
  715  SOL  HW2 2290   0.059   0.269   0.416
  716  SOL   OW 2291   3.630   2.771   2.653
  716  SOL  HW1 2292   3.724   2.768   2.671
  716  SOL  HW2 2293   3.613   2.695   2.596
  717  SOL   OW 2294   1.422   2.325  -0.012
  717  SOL  HW1 2295   1.376   2.242  -0.027
  717  SOL  HW2 2296   1.478   2.308   0.063
  718  SOL   OW 2297   1.883   1.635   2.080
  718  SOL  HW1 2298   1.862   1.708   2.139
  718  SOL  HW2 2299   1.831   1.653   2.001
  719  SOL   OW 2300   1.471   2.349   0.884
  719  SOL  HW1 2301   1.398   2.390   0.837
  719  SOL  HW2 2302   1.439   2.340   0.974
  720  SOL   OW 2303   3.816   3.972   3.586
  720  SOL  HW1 2304   3.787   3.881   3.583
  720  SOL  HW2 2305   3.737   4.022   3.605
  721  SOL   OW 2306   1.356   2.620   3.622
  721  SOL  HW1 2307   1.397   2.678   3.557
  721  SOL  HW2 2308   1.425   2.560   3.647
  722  SOL   OW 2309   2.299   1.416   1.504
  722  SOL  HW1 2310   2.274   1.373   1.586
  722  SOL  HW2 2311   2.350   1.492   1.532
  723  SOL   OW 2312   1.026   0.007   2.123
  723  SOL  HW1 2313   1.011   0.026   2.216
  723  SOL  HW2 2314   0.945   0.034   2.080
  724  SOL   OW 2315   0.045   2.678   1.422
  724  SOL  HW1 2316   0.097   2.660   1.500
  724  SOL  HW2 2317  -0.041   2.642   1.442
  725  SOL   OW 2318   0.454   1.360   0.314
  725  SOL  HW1 2319   0.365   1.329   0.332
  725  SOL  HW2 2320   0.493   1.371   0.400
  726  SOL   OW 2321   1.168   2.515   3.781
  726  SOL  HW1 2322   1.234   2.551   3.722
  726  SOL  HW2 2323   1.173   2.420   3.769
  727  SOL   OW 2324   0.588   0.086   1.472
  727  SOL  HW1 2325   0.510   0.139   1.489
  727  SOL  HW2 2326   0.595   0.083   1.376
  728  SOL   OW 2327   2.271   2.311   2.637
  728  SOL  HW1 2328   2.286   2.229   2.683
  728  SOL  HW2 2329   2.193   2.295   2.584
  729  SOL   OW 2330   2.067   3.565   1.673
  729  SOL  HW1 2331   2.125   3.489   1.680
  729  SOL  HW2 2332   2.013   3.547   1.596
  730  SOL   OW 2333   2.433   1.092   3.264
  730  SOL  HW1 2334   2.417   1.184   3.284
  730  SOL  HW2 2335   2.390   1.044   3.335
  731  SOL   OW 2336   2.358   2.297   1.848
  731  SOL  HW1 2337   2.440   2.275   1.893
  731  SOL  HW2 2338   2.300   2.224   1.866
  732  SOL   OW 2339   3.437   2.223   3.791
  732  SOL  HW1 2340   3.472   2.180   3.869
  732  SOL  HW2 2341   3.399   2.304   3.824
  733  SOL   OW 2342   1.404   1.965   2.580
  733  SOL  HW1 2343   1.310   1.981   2.589
  733  SOL  HW2 2344   1.434   1.948   2.670
  734  SOL   OW 2345   0.401   2.280   2.528
  734  SOL  HW1 2346   0.460   2.236   2.589
  734  SOL  HW2 2347   0.420   2.239   2.443
  735  SOL   OW 2348   2.895   2.471   3.987
  735  SOL  HW1 2349   2.823   2.442   4.042
  735  SOL  HW2 2350   2.877   2.433   3.901
  736  SOL   OW 2351   2.641   0.067   3.936
  736  SOL  HW1 2352   2.648   0.020   3.853
  736  SOL  HW2 2353   2.730   0.092   3.957
  737  SOL   OW 2354   2.053   3.482   0.551
  737  SOL  HW1 2355   1.991   3.545   0.513
  737  SOL  HW2 2356   2.138   3.509   0.516
  738  SOL   OW 2357   1.861   3.599   0.422
  738  SOL  HW1 2358   1.767   3.596   0.404
  738  SOL  HW2 2359   1.895   3.666   0.363
  739  SOL   OW 2360   1.903   2.434   1.760
  739  SOL  HW1 2361   1.921   2.365   1.824
  739  SOL  HW2 2362   1.956   2.410   1.683
  740  SOL   OW 2363   2.400   1.798   2.233
  740  SOL  HW1 2364   2.327   1.794   2.295
  740  SOL  HW2 2365   2.387   1.723   2.175
  741  SOL   OW 2366   2.335   1.704   3.381
  741  SOL  HW1 2367   2.350   1.762   3.456
  741  SOL  HW2 2368   2.301   1.623   3.420
  742  SOL   OW 2369   1.508   3.051   0.664
  742  SOL  HW1 2370   1.454   2.972   0.662
  742  SOL  HW2 2371   1.586   3.029   0.613
  743  SOL   OW 2372   1.221   0.078   3.915
  743  SOL  HW1 2373   1.243   0.056   4.005
  743  SOL  HW2 2374   1.283   0.028   3.862
  744  SOL   OW 2375   1.553   3.938   1.619
  744  SOL  HW1 2376   1.488   4.007   1.609
  744  SOL  HW2 2377   1.504   3.857   1.613
  745  SOL   OW 2378   0.500   2.708   1.264
  745  SOL  HW1 2379   0.466   2.655   1.192
  745  SOL  HW2 2380   0.469   2.664   1.343
  746  SOL   OW 2381   1.402   0.934   3.764
  746  SOL  HW1 2382   1.370   0.883   3.690
  746  SOL  HW2 2383   1.344   1.009   3.769
  747  SOL   OW 2384   1.917   2.183   1.954
  747  SOL  HW1 2385   1.838   2.234   1.969
  747  SOL  HW2 2386   1.888   2.092   1.958
  748  SOL   OW 2387   0.740   0.021   2.453
  748  SOL  HW1 2388   0.672   0.078   2.418
  748  SOL  HW2 2389   0.707  -0.006   2.539
  749  SOL   OW 2390   3.078   1.797   2.447
  749  SOL  HW1 2391   3.146   1.851   2.488
  749  SOL  HW2 2392   3.124   1.718   2.420
  750  SOL   OW 2393   3.272   2.936   1.004
  750  SOL  HW1 2394   3.266   3.021   1.048
  750  SOL  HW2 2395   3.182   2.904   1.001
  751  SOL   OW 2396   0.294   3.566   1.444
  751  SOL  HW1 2397   0.206   3.557   1.480
  751  SOL  HW2 2398   0.340   3.487   1.472
  752  SOL   OW 2399   0.427   0.225   2.776
  752  SOL  HW1 2400   0.511   0.269   2.765
  752  SOL  HW2 2401   0.421   0.164   2.702
  753  SOL   OW 2402   0.016   3.351   2.364
  753  SOL  HW1 2403  -0.065   3.389   2.399
  753  SOL  HW2 2404   0.080   3.362   2.434
  754  SOL   OW 2405   2.487   3.703   2.164
  754  SOL  HW1 2406   2.508   3.623   2.212
  754  SOL  HW2 2407   2.396   3.722   2.188
  755  SOL   OW 2408   0.396   0.683   0.403
  755  SOL  HW1 2409   0.378   0.652   0.492
  755  SOL  HW2 2410   0.354   0.768   0.398
  756  SOL   OW 2411   0.743   1.029   2.885
  756  SOL  HW1 2412   0.767   1.055   2.796
  756  SOL  HW2 2413   0.665   1.081   2.905
  757  SOL   OW 2414   2.312   0.711   2.547
  757  SOL  HW1 2415   2.252   0.658   2.494
  757  SOL  HW2 2416   2.263   0.790   2.566
  758  SOL   OW 2417   0.354   3.346   2.863
  758  SOL  HW1 2418   0.295   3.281   2.825
  758  SOL  HW2 2419   0.302   3.427   2.864
  759  SOL   OW 2420   1.142   2.894   3.330
  759  SOL  HW1 2421   1.215   2.937   3.375
  759  SOL  HW2 2422   1.078   2.878   3.400
  760  SOL   OW 2423   1.629   3.853   1.311
  760  SOL  HW1 2424   1.644   3.848   1.405
  760  SOL  HW2 2425   1.566   3.783   1.293
  761  SOL   OW 2426   1.740   0.209   0.650
  761  SOL  HW1 2427   1.810   0.262   0.611
  761  SOL  HW2 2428   1.732   0.243   0.739
  762  SOL   OW 2429   0.439   2.911   1.542
  762  SOL  HW1 2430   0.477   2.954   1.619
  762  SOL  HW2 2431   0.500   2.840   1.522
  763  SOL   OW 2432   1.715   0.162   3.672
  763  SOL  HW1 2433   1.701   0.067   3.666
  763  SOL  HW2 2434   1.643   0.199   3.620
  764  SOL   OW 2435   0.557   2.475   0.131
  764  SOL  HW1 2436   0.562   2.527   0.211
  764  SOL  HW2 2437   0.520   2.392   0.158
  765  SOL   OW 2438   0.602   1.480   3.653
  765  SOL  HW1 2439   0.507   1.465   3.657
  765  SOL  HW2 2440   0.626   1.506   3.741
  766  SOL   OW 2441   0.859   1.797   3.863
  766  SOL  HW1 2442   0.805   1.719   3.872
  766  SOL  HW2 2443   0.924   1.790   3.932
  767  SOL   OW 2444   0.270   2.104   3.236
  767  SOL  HW1 2445   0.179   2.126   3.251
  767  SOL  HW2 2446   0.305   2.084   3.323
  768  SOL   OW 2447   1.292   2.696   2.910
  768  SOL  HW1 2448   1.273   2.625   2.971
  768  SOL  HW2 2449   1.285   2.775   2.962
  769  SOL   OW 2450   0.222   3.568   1.771
  769  SOL  HW1 2451   0.228   3.627   1.697
  769  SOL  HW2 2452   0.254   3.619   1.845
  770  SOL   OW 2453   3.701   0.831   1.698
  770  SOL  HW1 2454   3.741   0.917   1.713
  770  SOL  HW2 2455   3.607   0.847   1.701
  771  SOL   OW 2456   3.760   3.720   3.615
  771  SOL  HW1 2457   3.759   3.651   3.548
  771  SOL  HW2 2458   3.837   3.699   3.669
  772  SOL   OW 2459   0.812   3.559   2.881
  772  SOL  HW1 2460   0.856   3.515   2.953
  772  SOL  HW2 2461   0.722   3.525   2.884
  773  SOL   OW 2462   1.420   0.790   1.573
  773  SOL  HW1 2463   1.390   0.832   1.493
  773  SOL  HW2 2464   1.436   0.699   1.547
  774  SOL   OW 2465   0.510   2.169   2.828
  774  SOL  HW1 2466   0.471   2.244   2.873
  774  SOL  HW2 2467   0.536   2.110   2.899
  775  SOL   OW 2468   3.304   2.490   1.019
  775  SOL  HW1 2469   3.220   2.486   0.975
  775  SOL  HW2 2470   3.282   2.496   1.112
  776  SOL   OW 2471   3.051   2.209   2.812
  776  SOL  HW1 2472   3.101   2.146   2.863
  776  SOL  HW2 2473   3.099   2.292   2.821
  777  SOL   OW 2474   3.032   3.974   3.055
  777  SOL  HW1 2475   3.078   3.912   3.112
  777  SOL  HW2 2476   3.094   4.046   3.044
  778  SOL   OW 2477   2.690   0.476   2.928
  778  SOL  HW1 2478   2.732   0.479   2.842
  778  SOL  HW2 2479   2.755   0.512   2.988
  779  SOL   OW 2480   0.721   2.222   0.090
  779  SOL  HW1 2481   0.679   2.167   0.024
  779  SOL  HW2 2482   0.705   2.312   0.061
  780  SOL   OW 2483   3.459   2.801   2.016
  780  SOL  HW1 2484   3.505   2.733   1.967
  780  SOL  HW2 2485   3.410   2.850   1.949
  781  SOL   OW 2486   3.562   0.008   1.232
  781  SOL  HW1 2487   3.565  -0.013   1.325
  781  SOL  HW2 2488   3.499   0.080   1.226
  782  SOL   OW 2489   4.002   0.867   2.699
  782  SOL  HW1 2490   3.909   0.883   2.686
  782  SOL  HW2 2491   4.022   0.793   2.643
  783  SOL   OW 2492   0.655   0.586   1.662
  783  SOL  HW1 2493   0.726   0.591   1.725
  783  SOL  HW2 2494   0.693   0.543   1.585
  784  SOL   OW 2495   2.563   0.908   1.115
  784  SOL  HW1 2496   2.582   0.823   1.075
  784  SOL  HW2 2497   2.638   0.963   1.092
  785  SOL   OW 2498   2.730   2.219   3.099
  785  SOL  HW1 2499   2.657   2.212   3.160
  785  SOL  HW2 2500   2.787   2.286   3.137
  786  SOL   OW 2501   2.075   3.233   3.310
  786  SOL  HW1 2502   2.041   3.271   3.229
  786  SOL  HW2 2503   2.170   3.245   3.304
  787  SOL   OW 2504   3.958   0.285   2.513
  787  SOL  HW1 2505   3.975   0.280   2.607
  787  SOL  HW2 2506   4.029   0.338   2.478
  788  SOL   OW 2507   0.624   3.840   2.052
  788  SOL  HW1 2508   0.684   3.915   2.055
  788  SOL  HW2 2509   0.661   3.778   2.115
  789  SOL   OW 2510   1.640   0.841   3.900
  789  SOL  HW1 2511   1.587   0.843   3.820
  789  SOL  HW2 2512   1.582   0.877   3.967
  790  SOL   OW 2513   2.195   0.659   0.002
  790  SOL  HW1 2514   2.222   0.738  -0.045
  790  SOL  HW2 2515   2.178   0.688   0.091
  791  SOL   OW 2516   2.171   3.519   1.165
  791  SOL  HW1 2517   2.080   3.535   1.143
  791  SOL  HW2 2518   2.182   3.424   1.156
  792  SOL   OW 2519   0.888   1.554   0.754
  792  SOL  HW1 2520   0.936   1.520   0.680
  792  SOL  HW2 2521   0.832   1.623   0.718
  793  SOL   OW 2522   0.239   2.621   2.228
  793  SOL  HW1 2523   0.146   2.598   2.231
  793  SOL  HW2 2524   0.242   2.709   2.265
  794  SOL   OW 2525   3.096   0.633   3.976
  794  SOL  HW1 2526   3.056   0.587   3.903
  794  SOL  HW2 2527   3.037   0.616   4.050
  795  SOL   OW 2528   3.664   0.657   3.681
  795  SOL  HW1 2529   3.655   0.708   3.762
  795  SOL  HW2 2530   3.678   0.567   3.711
  796  SOL   OW 2531   0.965   2.511   3.465
  796  SOL  HW1 2532   0.944   2.603   3.453
  796  SOL  HW2 2533   0.970   2.476   3.376
  797  SOL   OW 2534   2.650   0.277   1.291
  797  SOL  HW1 2535   2.723   0.246   1.238
  797  SOL  HW2 2536   2.660   0.233   1.375
  798  SOL   OW 2537   3.411   2.306   2.995
  798  SOL  HW1 2538   3.392   2.323   3.087
  798  SOL  HW2 2539   3.498   2.345   2.981
  799  SOL   OW 2540   0.440   2.533   1.909
  799  SOL  HW1 2541   0.416   2.624   1.925
  799  SOL  HW2 2542   0.509   2.538   1.843
  800  SOL   OW 2543   3.166   0.764   0.674
  800  SOL  HW1 2544   3.115   0.819   0.614
  800  SOL  HW2 2545   3.178   0.819   0.752
  801  SOL   OW 2546   1.169   2.838   0.358
  801  SOL  HW1 2547   1.211   2.760   0.322
  801  SOL  HW2 2548   1.075   2.820   0.352
  802  SOL   OW 2549   1.507   3.619   1.522
  802  SOL  HW1 2550   1.426   3.602   1.570
  802  SOL  HW2 2551   1.571   3.559   1.560
  803  SOL   OW 2552   3.359   0.296   2.615
  803  SOL  HW1 2553   3.357   0.204   2.586
  803  SOL  HW2 2554   3.452   0.318   2.619
  804  SOL   OW 2555   2.089   1.215   3.877
  804  SOL  HW1 2556   2.037   1.181   3.804
  804  SOL  HW2 2557   2.075   1.151   3.947
  805  SOL   OW 2558   0.736   0.837   0.551
  805  SOL  HW1 2559   0.758   0.880   0.468
  805  SOL  HW2 2560   0.737   0.744   0.530
  806  SOL   OW 2561   2.825   2.814   2.838
  806  SOL  HW1 2562   2.785   2.901   2.842
  806  SOL  HW2 2563   2.889   2.814   2.909
  807  SOL   OW 2564   2.071   2.977   0.926
  807  SOL  HW1 2565   2.157   2.949   0.957
  807  SOL  HW2 2566   2.029   3.017   1.002
  808  SOL   OW 2567   0.488   2.553   2.165
  808  SOL  HW1 2568   0.488   2.549   2.069
  808  SOL  HW2 2569   0.398   2.573   2.188
  809  SOL   OW 2570   0.288   0.327   3.264
  809  SOL  HW1 2571   0.381   0.310   3.284
  809  SOL  HW2 2572   0.241   0.295   3.340
  810  SOL   OW 2573   2.180   0.420   3.015
  810  SOL  HW1 2574   2.239   0.366   2.962
  810  SOL  HW2 2575   2.183   0.506   2.973
  811  SOL   OW 2576   2.978   1.198   2.087
  811  SOL  HW1 2577   3.029   1.279   2.087
  811  SOL  HW2 2578   2.982   1.166   1.997
  812  SOL   OW 2579   1.959   1.612   3.420
  812  SOL  HW1 2580   2.039   1.573   3.455
  812  SOL  HW2 2581   1.989   1.674   3.353
  813  SOL   OW 2582   3.947   0.998   2.325
  813  SOL  HW1 2583   3.998   1.018   2.404
  813  SOL  HW2 2584   3.965   1.071   2.266
  814  SOL   OW 2585   0.378   2.790   1.912
  814  SOL  HW1 2586   0.406   2.855   1.848
  814  SOL  HW2 2587   0.283   2.796   1.913
  815  SOL   OW 2588   1.384   3.490   0.548
  815  SOL  HW1 2589   1.349   3.564   0.596
  815  SOL  HW2 2590   1.384   3.418   0.611
  816  SOL   OW 2591   2.214   2.513   1.200
  816  SOL  HW1 2592   2.148   2.582   1.194
  816  SOL  HW2 2593   2.217   2.475   1.113
  817  SOL   OW 2594   0.975   2.319   1.194
  817  SOL  HW1 2595   0.913   2.335   1.123
  817  SOL  HW2 2596   1.056   2.292   1.150
  818  SOL   OW 2597   1.288   2.211   3.405
  818  SOL  HW1 2598   1.240   2.170   3.334
  818  SOL  HW2 2599   1.223   2.226   3.473
  819  SOL   OW 2600   0.565   0.500   0.713
  819  SOL  HW1 2601   0.472   0.522   0.722
  819  SOL  HW2 2602   0.567   0.428   0.650
  820  SOL   OW 2603   2.377   2.762   1.123
  820  SOL  HW1 2604   2.377   2.755   1.219
  820  SOL  HW2 2605   2.350   2.675   1.093
  821  SOL   OW 2606   0.975   0.240   3.621
  821  SOL  HW1 2607   1.069   0.241   3.605
  821  SOL  HW2 2608   0.953   0.148   3.633
  822  SOL   OW 2609   3.374   2.990   1.318
  822  SOL  HW1 2610   3.427   2.986   1.398
  822  SOL  HW2 2611   3.434   2.962   1.249
  823  SOL   OW 2612   0.326   3.347   2.294
  823  SOL  HW1 2613   0.298   3.309   2.378
  823  SOL  HW2 2614   0.272   3.426   2.284
  824  SOL   OW 2615   0.244   0.215   3.555
  824  SOL  HW1 2616   0.301   0.252   3.623
  824  SOL  HW2 2617   0.156   0.243   3.580
  825  SOL   OW 2618   0.699   3.939   2.715
  825  SOL  HW1 2619   0.792   3.919   2.719
  825  SOL  HW2 2620   0.678   3.970   2.803
  826  SOL   OW 2621   1.930   1.287   0.707
  826  SOL  HW1 2622   1.838   1.312   0.714
  826  SOL  HW2 2623   1.929   1.201   0.666
  827  SOL   OW 2624   0.728   3.428   0.891
  827  SOL  HW1 2625   0.716   3.523   0.903
  827  SOL  HW2 2626   0.811   3.409   0.936
  828  SOL   OW 2627   1.857   0.265   2.307
  828  SOL  HW1 2628   1.778   0.254   2.361
  828  SOL  HW2 2629   1.834   0.336   2.247
  829  SOL   OW 2630   1.950   2.897   1.520
  829  SOL  HW1 2631   1.899   2.890   1.440
  829  SOL  HW2 2632   1.972   2.807   1.543
  830  SOL   OW 2633   0.018   1.571   1.770
  830  SOL  HW1 2634   0.083   1.576   1.840
  830  SOL  HW2 2635   0.069   1.546   1.692
  831  SOL   OW 2636   4.000   2.188   0.703
  831  SOL  HW1 2637   3.968   2.101   0.679
  831  SOL  HW2 2638   3.922   2.241   0.714
  832  SOL   OW 2639   3.025   2.098   0.201
  832  SOL  HW1 2640   2.932   2.076   0.191
  832  SOL  HW2 2641   3.042   2.087   0.294
  833  SOL   OW 2642   1.755   3.966   0.877
  833  SOL  HW1 2643   1.817   4.004   0.814
  833  SOL  HW2 2644   1.806   3.953   0.957
  834  SOL   OW 2645   0.551   3.529   1.712
  834  SOL  HW1 2646   0.592   3.443   1.723
  834  SOL  HW2 2647   0.556   3.546   1.618
  835  SOL   OW 2648   3.832   2.246   1.058
  835  SOL  HW1 2649   3.859   2.279   1.144
  835  SOL  HW2 2650   3.745   2.284   1.044
  836  SOL   OW 2651   3.419   0.479   1.720
  836  SOL  HW1 2652   3.436   0.570   1.699
  836  SOL  HW2 2653   3.429   0.432   1.637
  837  SOL   OW 2654   1.339   1.992   0.236
  837  SOL  HW1 2655   1.393   2.004   0.158
  837  SOL  HW2 2656   1.281   2.068   0.237
  838  SOL   OW 2657   3.213   0.217   1.175
  838  SOL  HW1 2658   3.166   0.280   1.120
  838  SOL  HW2 2659   3.271   0.171   1.114
  839  SOL   OW 2660   2.243   1.682   1.015
  839  SOL  HW1 2661   2.243   1.598   1.062
  839  SOL  HW2 2662   2.287   1.663   0.932
  840  SOL   OW 2663   3.328   0.996   1.094
  840  SOL  HW1 2664   3.329   1.091   1.096
  840  SOL  HW2 2665   3.290   0.971   1.179
  841  SOL   OW 2666   2.031   2.337   2.197
  841  SOL  HW1 2667   2.125   2.327   2.184
  841  SOL  HW2 2668   1.991   2.301   2.118
  842  SOL   OW 2669   1.506   0.703   3.526
  842  SOL  HW1 2670   1.544   0.615   3.529
  842  SOL  HW2 2671   1.425   0.696   3.577
  843  SOL   OW 2672   2.841   2.181   3.414
  843  SOL  HW1 2673   2.925   2.217   3.388
  843  SOL  HW2 2674   2.825   2.109   3.353
  844  SOL   OW 2675   0.600   3.830   1.765
  844  SOL  HW1 2676   0.629   3.850   1.854
  844  SOL  HW2 2677   0.613   3.736   1.756
  845  SOL   OW 2678   2.887   1.840   3.307
  845  SOL  HW1 2679   2.799   1.851   3.271
  845  SOL  HW2 2680   2.917   1.757   3.270
  846  SOL   OW 2681   2.417   3.769   0.809
  846  SOL  HW1 2682   2.332   3.812   0.813
  846  SOL  HW2 2683   2.408   3.692   0.865
  847  SOL   OW 2684   3.090   3.616   1.756
  847  SOL  HW1 2685   3.074   3.570   1.674
  847  SOL  HW2 2686   3.009   3.665   1.772
  848  SOL   OW 2687   3.867   3.116   0.150
  848  SOL  HW1 2688   3.891   3.188   0.208
  848  SOL  HW2 2689   3.906   3.038   0.191
  849  SOL   OW 2690   0.126   1.198   1.019
  849  SOL  HW1 2691   0.215   1.226   0.998
  849  SOL  HW2 2692   0.113   1.222   1.111
  850  SOL   OW 2693   0.695   0.888   3.583
  850  SOL  HW1 2694   0.787   0.910   3.578
  850  SOL  HW2 2695   0.689   0.800   3.546
  851  SOL   OW 2696   0.060   0.750   1.205
  851  SOL  HW1 2697   0.090   0.662   1.181
  851  SOL  HW2 2698   0.137   0.793   1.241
  852  SOL   OW 2699   0.510   0.923   3.789
  852  SOL  HW1 2700   0.543   0.932   3.699
  852  SOL  HW2 2701   0.422   0.887   3.779
  853  SOL   OW 2702   3.924   2.848   3.563
  853  SOL  HW1 2703   3.981   2.891   3.499
  853  SOL  HW2 2704   3.920   2.757   3.534
  854  SOL   OW 2705   3.726   3.523   2.212
  854  SOL  HW1 2706   3.688   3.606   2.181
  854  SOL  HW2 2707   3.661   3.457   2.188
  855  SOL   OW 2708   0.862   3.597   1.794
  855  SOL  HW1 2709   0.790   3.534   1.805
  855  SOL  HW2 2710   0.865   3.644   1.878
  856  SOL   OW 2711   1.680   3.036   3.310
  856  SOL  HW1 2712   1.728   3.070   3.385
  856  SOL  HW2 2713   1.739   2.971   3.271
  857  SOL   OW 2714   3.683   1.175   2.818
  857  SOL  HW1 2715   3.664   1.155   2.727
  857  SOL  HW2 2716   3.630   1.114   2.868
  858  SOL   OW 2717   1.550   0.970   0.164
  858  SOL  HW1 2718   1.627   0.963   0.220
  858  SOL  HW2 2719   1.537   1.065   0.154
  859  SOL   OW 2720   0.191   3.161   1.132
  859  SOL  HW1 2721   0.241   3.127   1.207
  859  SOL  HW2 2722   0.108   3.190   1.170
  860  SOL   OW 2723   0.765   0.336   3.492
  860  SOL  HW1 2724   0.694   0.378   3.542
  860  SOL  HW2 2725   0.831   0.316   3.558
  861  SOL   OW 2726   0.627   1.805   0.153
  861  SOL  HW1 2727   0.548   1.806   0.100
  861  SOL  HW2 2728   0.626   1.720   0.198
  862  SOL   OW 2729   1.139   1.351   3.445
  862  SOL  HW1 2730   1.102   1.437   3.465
  862  SOL  HW2 2731   1.069   1.306   3.397
  863  SOL   OW 2732   0.963   0.644   0.576
  863  SOL  HW1 2733   0.986   0.714   0.637
  863  SOL  HW2 2734   1.027   0.652   0.505
  864  SOL   OW 2735   1.394   3.481   3.305
  864  SOL  HW1 2736   1.300   3.498   3.313
  864  SOL  HW2 2737   1.406   3.396   3.348
  865  SOL   OW 2738   0.009   0.258   1.759
  865  SOL  HW1 2739   0.010   0.279   1.853
  865  SOL  HW2 2740   0.039   0.167   1.755
  866  SOL   OW 2741   3.175   0.690   1.039
  866  SOL  HW1 2742   3.151   0.777   1.070
  866  SOL  HW2 2743   3.163   0.694   0.944
  867  SOL   OW 2744   3.232   2.721   3.131
  867  SOL  HW1 2745   3.302   2.699   3.069
  867  SOL  HW2 2746   3.262   2.684   3.214
  868  SOL   OW 2747   3.755   1.414   3.335
  868  SOL  HW1 2748   3.764   1.325   3.370
  868  SOL  HW2 2749   3.737   1.402   3.242
  869  SOL   OW 2750   2.544   1.485   1.211
  869  SOL  HW1 2751   2.562   1.560   1.267
  869  SOL  HW2 2752   2.603   1.495   1.137
  870  SOL   OW 2753   1.415   0.843   1.816
  870  SOL  HW1 2754   1.488   0.793   1.853
  870  SOL  HW2 2755   1.425   0.834   1.722
  871  SOL   OW 2756   0.018   3.163   1.662
  871  SOL  HW1 2757  -0.061   3.190   1.709
  871  SOL  HW2 2758   0.089   3.212   1.703
  872  SOL   OW 2759   2.201   0.802   0.930
  872  SOL  HW1 2760   2.226   0.710   0.942
  872  SOL  HW2 2761   2.254   0.850   0.994
  873  SOL   OW 2762   0.255   0.547   3.845
  873  SOL  HW1 2763   0.261   0.459   3.883
  873  SOL  HW2 2764   0.281   0.606   3.915
  874  SOL   OW 2765   2.794   0.617   2.425
  874  SOL  HW1 2766   2.817   0.683   2.359
  874  SOL  HW2 2767   2.847   0.541   2.402
  875  SOL   OW 2768   0.905   2.067   1.323
  875  SOL  HW1 2769   0.910   2.149   1.274
  875  SOL  HW2 2770   0.973   2.075   1.391
  876  SOL   OW 2771   0.709   3.703   0.838
  876  SOL  HW1 2772   0.702   3.718   0.932
  876  SOL  HW2 2773   0.623   3.669   0.812
  877  SOL   OW 2774   2.437   2.852   3.278
  877  SOL  HW1 2775   2.435   2.775   3.336
  877  SOL  HW2 2776   2.380   2.829   3.205
  878  SOL   OW 2777   1.781   2.705   0.593
  878  SOL  HW1 2778   1.783   2.748   0.678
  878  SOL  HW2 2779   1.859   2.649   0.593
  879  SOL   OW 2780   2.365   3.509   1.543
  879  SOL  HW1 2781   2.442   3.491   1.489
  879  SOL  HW2 2782   2.341   3.599   1.521
  880  SOL   OW 2783   2.738   2.692   0.748
  880  SOL  HW1 2784   2.790   2.643   0.811
  880  SOL  HW2 2785   2.801   2.717   0.680
  881  SOL   OW 2786   2.806   0.820   3.817
  881  SOL  HW1 2787   2.880   0.771   3.780
  881  SOL  HW2 2788   2.750   0.753   3.856
  882  SOL   OW 2789   3.752   1.194   1.118
  882  SOL  HW1 2790   3.778   1.149   1.198
  882  SOL  HW2 2791   3.789   1.281   1.126
  883  SOL   OW 2792   1.421   0.165   1.573
  883  SOL  HW1 2793   1.462   0.205   1.495
  883  SOL  HW2 2794   1.447   0.222   1.645
  884  SOL   OW 2795   1.229   2.735   1.832
  884  SOL  HW1 2796   1.192   2.688   1.907
  884  SOL  HW2 2797   1.286   2.671   1.789
  885  SOL   OW 2798   0.503   0.356   3.029
  885  SOL  HW1 2799   0.408   0.353   3.024
  885  SOL  HW2 2800   0.530   0.400   2.949
  886  SOL   OW 2801   3.556   3.550   1.692
  886  SOL  HW1 2802   3.542   3.607   1.617
  886  SOL  HW2 2803   3.634   3.586   1.735
  887  SOL   OW 2804   1.561   3.627   2.853
  887  SOL  HW1 2805   1.484   3.633   2.797
  887  SOL  HW2 2806   1.605   3.547   2.824
  888  SOL   OW 2807   3.314   2.675   0.724
  888  SOL  HW1 2808   3.331   2.645   0.634
  888  SOL  HW2 2809   3.322   2.770   0.718
  889  SOL   OW 2810   0.046   0.801   1.714
  889  SOL  HW1 2811  -0.017   0.749   1.764
  889  SOL  HW2 2812   0.056   0.754   1.632
  890  SOL   OW 2813   0.355   2.293   0.206
  890  SOL  HW1 2814   0.279   2.315   0.151
  890  SOL  HW2 2815   0.318   2.250   0.282
  891  SOL   OW 2816   1.693   2.333   2.007
  891  SOL  HW1 2817   1.627   2.401   1.997
  891  SOL  HW2 2818   1.688   2.308   2.099
  892  SOL   OW 2819   1.406   0.771   0.449
  892  SOL  HW1 2820   1.446   0.689   0.421
  892  SOL  HW2 2821   1.463   0.802   0.520
  893  SOL   OW 2822   2.447   0.061   1.282
  893  SOL  HW1 2823   2.435   0.081   1.190
  893  SOL  HW2 2824   2.451   0.147   1.325
  894  SOL   OW 2825   0.173   2.189   2.762
  894  SOL  HW1 2826   0.144   2.260   2.705
  894  SOL  HW2 2827   0.252   2.222   2.805
  895  SOL   OW 2828   3.562   0.305   1.238
  895  SOL  HW1 2829   3.637   0.351   1.276
  895  SOL  HW2 2830   3.501   0.375   1.214
  896  SOL   OW 2831   2.041   0.475   3.893
  896  SOL  HW1 2832   2.112   0.413   3.875
  896  SOL  HW2 2833   2.083   0.546   3.940
  897  SOL   OW 2834   0.539   0.055   3.208
  897  SOL  HW1 2835   0.545   0.146   3.237
  897  SOL  HW2 2836   0.453   0.025   3.238
  898  SOL   OW 2837   1.720   1.658   1.241
  898  SOL  HW1 2838   1.765   1.577   1.218
  898  SOL  HW2 2839   1.738   1.717   1.168
  899  SOL   OW 2840   3.708   3.416   0.664
  899  SOL  HW1 2841   3.665   3.427   0.579
  899  SOL  HW2 2842   3.744   3.327   0.661
  900  SOL   OW 2843   0.235   3.701   0.485
  900  SOL  HW1 2844   0.283   3.714   0.404
  900  SOL  HW2 2845   0.301   3.671   0.548
  901  SOL   OW 2846   0.228   2.538   1.637
  901  SOL  HW1 2847   0.304   2.483   1.656
  901  SOL  HW2 2848   0.176   2.536   1.718
  902  SOL   OW 2849   3.494   1.893   0.158
  902  SOL  HW1 2850   3.429   1.963   0.159
  902  SOL  HW2 2851   3.444   1.815   0.182
  903  SOL   OW 2852   1.036   2.252   0.899
  903  SOL  HW1 2853   1.120   2.206   0.891
  903  SOL  HW2 2854   0.972   2.194   0.858
  904  SOL   OW 2855   3.574   2.446   2.810
  904  SOL  HW1 2856   3.576   2.466   2.716
  904  SOL  HW2 2857   3.646   2.383   2.823
  905  SOL   OW 2858   1.662   3.975   2.824
  905  SOL  HW1 2859   1.599   3.928   2.770
  905  SOL  HW2 2860   1.623   3.974   2.912
  906  SOL   OW 2861   3.837   1.766   2.172
  906  SOL  HW1 2862   3.767   1.754   2.237
  906  SOL  HW2 2863   3.886   1.684   2.174
  907  SOL   OW 2864   3.760   2.933   1.597
  907  SOL  HW1 2865   3.746   3.021   1.561
  907  SOL  HW2 2866   3.691   2.880   1.557
  908  SOL   OW 2867   2.105   0.095   3.488
  908  SOL  HW1 2868   2.057   0.077   3.408
  908  SOL  HW2 2869   2.046   0.151   3.539
  909  SOL   OW 2870   0.939   1.767   1.886
  909  SOL  HW1 2871   0.958   1.676   1.910
  909  SOL  HW2 2872   0.862   1.761   1.828
  910  SOL   OW 2873   0.380   1.183   0.633
  910  SOL  HW1 2874   0.472   1.165   0.654
  910  SOL  HW2 2875   0.352   1.246   0.699
  911  SOL   OW 2876   3.781   3.416   2.479
  911  SOL  HW1 2877   3.775   3.421   2.575
  911  SOL  HW2 2878   3.728   3.489   2.448
  912  SOL   OW 2879   2.943   1.998   0.911
  912  SOL  HW1 2880   2.851   1.998   0.939
  912  SOL  HW2 2881   2.987   2.053   0.976
  913  SOL   OW 2882   0.057   3.374   2.785
  913  SOL  HW1 2883   0.009   3.301   2.824
  913  SOL  HW2 2884   0.010   3.452   2.813
  914  SOL   OW 2885   3.119   2.566   0.287
  914  SOL  HW1 2886   3.053   2.527   0.230
  914  SOL  HW2 2887   3.092   2.658   0.296
  915  SOL   OW 2888   3.332   0.173   1.689
  915  SOL  HW1 2889   3.423   0.192   1.714
  915  SOL  HW2 2890   3.331   0.185   1.593
  916  SOL   OW 2891   3.347   2.388   0.289
  916  SOL  HW1 2892   3.420   2.442   0.259
  916  SOL  HW2 2893   3.269   2.442   0.272
  917  SOL   OW 2894   1.392   3.250   3.459
  917  SOL  HW1 2895   1.313   3.237   3.512
  917  SOL  HW2 2896   1.403   3.168   3.411
  918  SOL   OW 2897   0.549   1.411   1.198
  918  SOL  HW1 2898   0.541   1.328   1.245
  918  SOL  HW2 2899   0.637   1.443   1.219
  919  SOL   OW 2900   3.159   0.544   1.716
  919  SOL  HW1 2901   3.244   0.525   1.677
  919  SOL  HW2 2902   3.145   0.473   1.778
  920  SOL   OW 2903   0.904   2.477   1.400
  920  SOL  HW1 2904   0.927   2.419   1.328
  920  SOL  HW2 2905   0.874   2.418   1.470
  921  SOL   OW 2906   2.124   3.523   3.820
  921  SOL  HW1 2907   2.215   3.544   3.840
  921  SOL  HW2 2908   2.118   3.530   3.725
  922  SOL   OW 2909   1.411   1.221   2.585
  922  SOL  HW1 2910   1.460   1.141   2.606
  922  SOL  HW2 2911   1.320   1.197   2.596
  923  SOL   OW 2912   3.930   0.487   1.023
  923  SOL  HW1 2913   3.910   0.418   0.960
  923  SOL  HW2 2914   4.023   0.504   1.011
  924  SOL   OW 2915   3.939   0.639   3.512
  924  SOL  HW1 2916   3.915   0.722   3.470
  924  SOL  HW2 2917   3.883   0.574   3.472
  925  SOL   OW 2918   0.426   1.296   2.217
  925  SOL  HW1 2919   0.348   1.332   2.176
  925  SOL  HW2 2920   0.431   1.206   2.186
  926  SOL   OW 2921   1.141   1.381   1.753
  926  SOL  HW1 2922   1.193   1.449   1.798
  926  SOL  HW2 2923   1.051   1.414   1.757
  927  SOL   OW 2924   3.625   0.640   2.540
  927  SOL  HW1 2925   3.634   0.720   2.488
  927  SOL  HW2 2926   3.636   0.669   2.630
  928  SOL   OW 2927   0.323   0.013   1.321
  928  SOL  HW1 2928   0.233  -0.003   1.292
  928  SOL  HW2 2929   0.314   0.064   1.401
  929  SOL   OW 2930   0.808   1.633   0.363
  929  SOL  HW1 2931   0.872   1.562   0.370
  929  SOL  HW2 2932   0.740   1.599   0.304
  930  SOL   OW 2933   0.882   2.017   2.321
  930  SOL  HW1 2934   0.858   1.958   2.392
  930  SOL  HW2 2935   0.849   1.975   2.242
  931  SOL   OW 2936   2.631   3.536   1.105
  931  SOL  HW1 2937   2.712   3.502   1.068
  931  SOL  HW2 2938   2.658   3.610   1.159
  932  SOL   OW 2939   0.643   0.745   3.955
  932  SOL  HW1 2940   0.562   0.742   4.006
  932  SOL  HW2 2941   0.617   0.786   3.872
  933  SOL   OW 2942   1.263   0.685   3.665
  933  SOL  HW1 2943   1.280   0.684   3.759
  933  SOL  HW2 2944   1.183   0.634   3.654
  934  SOL   OW 2945   0.991   1.125   2.999
  934  SOL  HW1 2946   0.980   1.215   2.967
  934  SOL  HW2 2947   0.909   1.081   2.978
  935  SOL   OW 2948   1.724   0.674   1.420
  935  SOL  HW1 2949   1.636   0.677   1.381
  935  SOL  HW2 2950   1.710   0.642   1.509
  936  SOL   OW 2951   3.167   3.818   0.120
  936  SOL  HW1 2952   3.218   3.737   0.119
  936  SOL  HW2 2953   3.120   3.816   0.203
  937  SOL   OW 2954   0.582   1.956   2.964
  937  SOL  HW1 2955   0.640   1.963   3.040
  937  SOL  HW2 2956   0.605   1.873   2.923
  938  SOL   OW 2957   1.591   3.957   3.086
  938  SOL  HW1 2958   1.518   3.970   3.147
  938  SOL  HW2 2959   1.649   3.896   3.132
  939  SOL   OW 2960   1.311   0.342   2.667
  939  SOL  HW1 2961   1.302   0.385   2.582
  939  SOL  HW2 2962   1.379   0.392   2.712
  940  SOL   OW 2963   0.454   3.628   3.598
  940  SOL  HW1 2964   0.503   3.710   3.606
  940  SOL  HW2 2965   0.513   3.562   3.635
  941  SOL   OW 2966   3.726   0.601   1.188
  941  SOL  HW1 2967   3.794   0.572   1.127
  941  SOL  HW2 2968   3.746   0.555   1.270
  942  SOL   OW 2969   2.065   2.259   2.463
  942  SOL  HW1 2970   2.066   2.259   2.368
  942  SOL  HW2 2971   2.025   2.175   2.486
  943  SOL   OW 2972   0.739   1.212   3.458
  943  SOL  HW1 2973   0.712   1.186   3.545
  943  SOL  HW2 2974   0.659   1.243   3.416
  944  SOL   OW 2975   0.279   0.084   0.413
  944  SOL  HW1 2976   0.238   0.025   0.350
  944  SOL  HW2 2977   0.206   0.128   0.456
  945  SOL   OW 2978   3.024   0.189   0.938
  945  SOL  HW1 2979   2.969   0.111   0.933
  945  SOL  HW2 2980   3.113   0.155   0.939
  946  SOL   OW 2981   0.317   1.962   2.659
  946  SOL  HW1 2982   0.410   1.977   2.676
  946  SOL  HW2 2983   0.277   2.048   2.666
  947  SOL   OW 2984   1.060   2.504   2.864
  947  SOL  HW1 2985   1.000   2.579   2.860
  947  SOL  HW2 2986   1.116   2.523   2.940
  948  SOL   OW 2987   0.943   2.720   3.764
  948  SOL  HW1 2988   0.945   2.808   3.800
  948  SOL  HW2 2989   1.029   2.683   3.784
  949  SOL   OW 2990   0.605   3.102   2.134
  949  SOL  HW1 2991   0.583   3.034   2.196
  949  SOL  HW2 2992   0.532   3.103   2.072
  950  SOL   OW 2993   0.828   0.742   1.244
  950  SOL  HW1 2994   0.753   0.685   1.259
  950  SOL  HW2 2995   0.829   0.755   1.149
  951  SOL   OW 2996   2.975   0.814   1.342
  951  SOL  HW1 2997   2.989   0.727   1.379
  951  SOL  HW2 2998   2.886   0.838   1.369
  952  SOL   OW 2999   3.096   3.592   0.352
  952  SOL  HW1 3000   3.145   3.581   0.433
  952  SOL  HW2 3001   3.151   3.551   0.285
  953  SOL   OW 3002   3.871   3.375   1.260
  953  SOL  HW1 3003   3.912   3.295   1.292
  953  SOL  HW2 3004   3.936   3.412   1.200
  954  SOL   OW 3005   0.052   1.214   3.567
  954  SOL  HW1 3006  -0.032   1.198   3.524
  954  SOL  HW2 3007   0.050   1.158   3.645
  955  SOL   OW 3008   1.988   3.709   1.279
  955  SOL  HW1 3009   2.071   3.665   1.262
  955  SOL  HW2 3010   2.013   3.800   1.298
  956  SOL   OW 3011   1.091   3.964   1.185
  956  SOL  HW1 3012   1.185   3.984   1.175
  956  SOL  HW2 3013   1.065   3.930   1.099
  957  SOL   OW 3014   1.885   0.736   0.894
  957  SOL  HW1 3015   1.826   0.739   0.970
  957  SOL  HW2 3016   1.969   0.767   0.928
  958  SOL   OW 3017   2.816   0.933   0.514
  958  SOL  HW1 3018   2.852   0.852   0.477
  958  SOL  HW2 3019   2.881   1.000   0.494
  959  SOL   OW 3020   2.677   1.515   2.910
  959  SOL  HW1 3021   2.604   1.568   2.942
  959  SOL  HW2 3022   2.636   1.452   2.850
  960  SOL   OW 3023   2.134   0.049   3.004
  960  SOL  HW1 3024   2.071  -0.018   2.980
  960  SOL  HW2 3025   2.204   0.042   2.939
  961  SOL   OW 3026   0.258   2.081   0.346
  961  SOL  HW1 3027   0.274   2.019   0.417
  961  SOL  HW2 3028   0.245   2.027   0.268
  962  SOL   OW 3029   2.496   0.375   0.677
  962  SOL  HW1 3030   2.580   0.328   0.670
  962  SOL  HW2 3031   2.444   0.321   0.737
  963  SOL   OW 3032   1.935   3.120   1.120
  963  SOL  HW1 3033   1.840   3.109   1.111
  963  SOL  HW2 3034   1.946   3.208   1.155
  964  SOL   OW 3035   3.830   3.411   1.632
  964  SOL  HW1 3036   3.874   3.478   1.684
  964  SOL  HW2 3037   3.794   3.350   1.696
  965  SOL   OW 3038   2.016   3.615   2.078
  965  SOL  HW1 3039   2.083   3.573   2.025
  965  SOL  HW2 3040   2.061   3.637   2.160
  966  SOL   OW 3041   2.710   0.823   1.469
  966  SOL  HW1 3042   2.699   0.842   1.562
  966  SOL  HW2 3043   2.669   0.738   1.457
  967  SOL   OW 3044   2.032   1.446   0.244
  967  SOL  HW1 3045   2.035   1.466   0.151
  967  SOL  HW2 3046   2.119   1.469   0.277
  968  SOL   OW 3047   2.326   3.331   2.925
  968  SOL  HW1 3048   2.312   3.300   2.835
  968  SOL  HW2 3049   2.257   3.290   2.976
  969  SOL   OW 3050   1.297   0.515   1.103
  969  SOL  HW1 3051   1.298   0.460   1.024
  969  SOL  HW2 3052   1.235   0.585   1.081
  970  SOL   OW 3053   1.597   1.847   0.830
  970  SOL  HW1 3054   1.632   1.903   0.760
  970  SOL  HW2 3055   1.605   1.758   0.794
  971  SOL   OW 3056   1.960   2.816   3.391
  971  SOL  HW1 3057   1.929   2.748   3.450
  971  SOL  HW2 3058   2.017   2.871   3.445
  972  SOL   OW 3059   2.380   1.043   1.630
  972  SOL  HW1 3060   2.425   1.100   1.568
  972  SOL  HW2 3061   2.294   1.026   1.590
  973  SOL   OW 3062   1.794   3.621   1.131
  973  SOL  HW1 3063   1.844   3.651   1.206
  973  SOL  HW2 3064   1.801   3.692   1.067
  974  SOL   OW 3065   3.695   3.474   2.767
  974  SOL  HW1 3066   3.609   3.471   2.724
  974  SOL  HW2 3067   3.688   3.407   2.836
  975  SOL   OW 3068   3.346   3.832   2.807
  975  SOL  HW1 3069   3.405   3.807   2.736
  975  SOL  HW2 3070   3.260   3.801   2.780
  976  SOL   OW 3071   1.371  -0.022   2.675
  976  SOL  HW1 3072   1.303   0.042   2.696
  976  SOL  HW2 3073   1.420   0.017   2.603
  977  SOL   OW 3074   0.660   2.163   3.386
  977  SOL  HW1 3075   0.634   2.099   3.452
  977  SOL  HW2 3076   0.692   2.238   3.435
  978  SOL   OW 3077   1.637   1.522   2.228
  978  SOL  HW1 3078   1.600   1.530   2.141
  978  SOL  HW2 3079   1.732   1.531   2.216
  979  SOL   OW 3080   1.593   2.718   2.135
  979  SOL  HW1 3081   1.681   2.682   2.151
  979  SOL  HW2 3082   1.572   2.766   2.215
  980  SOL   OW 3083   0.656   2.726   3.823
  980  SOL  HW1 3084   0.628   2.663   3.756
  980  SOL  HW2 3085   0.749   2.710   3.835
  981  SOL   OW 3086   2.714   2.642   1.911
  981  SOL  HW1 3087   2.733   2.602   1.996
  981  SOL  HW2 3088   2.715   2.570   1.849
  982  SOL   OW 3089   2.069   2.785   2.571
  982  SOL  HW1 3090   2.023   2.830   2.500
  982  SOL  HW2 3091   2.059   2.692   2.551
  983  SOL   OW 3092   2.624   1.033   3.567
  983  SOL  HW1 3093   2.635   0.940   3.544
  983  SOL  HW2 3094   2.618   1.034   3.662
  984  SOL   OW 3095   3.445   2.641   2.993
  984  SOL  HW1 3096   3.489   2.575   2.940
  984  SOL  HW2 3097   3.515   2.688   3.036
  985  SOL   OW 3098   1.656   0.588   1.674
  985  SOL  HW1 3099   1.590   0.525   1.645
  985  SOL  HW2 3100   1.614   0.634   1.746
  986  SOL   OW 3101   3.987   0.640   1.465
  986  SOL  HW1 3102   3.961   0.674   1.379
  986  SOL  HW2 3103   3.905   0.629   1.513
  987  SOL   OW 3104   0.229   0.023   3.260
  987  SOL  HW1 3105   0.237   0.114   3.232
  987  SOL  HW2 3106   0.200   0.029   3.352
  988  SOL   OW 3107   1.650   2.576   1.617
  988  SOL  HW1 3108   1.648   2.667   1.648
  988  SOL  HW2 3109   1.739   2.546   1.638
  989  SOL   OW 3110   2.656   3.713   3.461
  989  SOL  HW1 3111   2.608   3.732   3.381
  989  SOL  HW2 3112   2.638   3.621   3.479
  990  SOL   OW 3113   2.384   1.896   1.613
  990  SOL  HW1 3114   2.473   1.931   1.611
  990  SOL  HW2 3115   2.369   1.876   1.705
  991  SOL   OW 3116   0.034   2.869   1.720
  991  SOL  HW1 3117  -0.047   2.851   1.673
  991  SOL  HW2 3118   0.087   2.919   1.658
  992  SOL   OW 3119   3.942   2.146   2.325
  992  SOL  HW1 3120   4.017   2.093   2.353
  992  SOL  HW2 3121   3.873   2.082   2.309
  993  SOL   OW 3122   2.942   2.545   1.562
  993  SOL  HW1 3123   2.885   2.516   1.633
  993  SOL  HW2 3124   3.027   2.508   1.584
  994  SOL   OW 3125   3.980   1.068   2.894
  994  SOL  HW1 3126   3.886   1.085   2.904
  994  SOL  HW2 3127   3.985   0.988   2.841
  995  SOL   OW 3128   0.754   2.830   2.627
  995  SOL  HW1 3129   0.810   2.812   2.703
  995  SOL  HW2 3130   0.727   2.744   2.596
  996  SOL   OW 3131   0.832   3.043   1.653
  996  SOL  HW1 3132   0.866   3.133   1.652
  996  SOL  HW2 3133   0.865   3.006   1.735
  997  SOL   OW 3134   1.355   0.351   2.024
  997  SOL  HW1 3135   1.293   0.279   2.014
  997  SOL  HW2 3136   1.438   0.308   2.041
  998  SOL   OW 3137   3.346   0.547   0.079
  998  SOL  HW1 3138   3.252   0.552   0.062
  998  SOL  HW2 3139   3.385   0.533  -0.007
  999  SOL   OW 3140   0.536   1.317   3.348
  999  SOL  HW1 3141   0.446   1.317   3.381
  999  SOL  HW2 3142   0.566   1.407   3.360
 1000  SOL   OW 3143   1.839   3.932   1.678
 1000  SOL  HW1 3144   1.762   3.898   1.632
 1000  SOL  HW2 3145   1.809   4.014   1.717
 1001  SOL   OW 3146   2.702   2.439   2.184
 1001  SOL  HW1 3147   2.674   2.455   2.275
 1001  SOL  HW2 3148   2.714   2.345   2.179
 1002  SOL   OW 3149   0.691   2.157   1.789
 1002  SOL  HW1 3150   0.598   2.173   1.803
 1002  SOL  HW2 3151   0.693   2.086   1.724
 1003  SOL   OW 3152   1.110   0.539   1.812
 1003  SOL  HW1 3153   1.085   0.461   1.861
 1003  SOL  HW2 3154   1.128   0.508   1.724
 1004  SOL   OW 3155   3.455   3.282   3.072
 1004  SOL  HW1 3156   3.495   3.195   3.077
 1004  SOL  HW2 3157   3.527   3.341   3.054
 1005  SOL   OW 3158   0.654  -0.006   3.904
 1005  SOL  HW1 3159   0.729  -0.060   3.927
 1005  SOL  HW2 3160   0.692   0.072   3.863
 1006  SOL   OW 3161   1.558   3.161   1.825
 1006  SOL  HW1 3162   1.519   3.183   1.740
 1006  SOL  HW2 3163   1.499   3.095   1.862
 1007  SOL   OW 3164   1.597   0.675   1.923
 1007  SOL  HW1 3165   1.667   0.614   1.943
 1007  SOL  HW2 3166   1.544   0.679   2.003
 1008  SOL   OW 3167   1.918   1.470   2.385
 1008  SOL  HW1 3168   1.834   1.425   2.396
 1008  SOL  HW2 3169   1.981   1.401   2.367
 1009  SOL   OW 3170   0.628   0.876   1.725
 1009  SOL  HW1 3171   0.691   0.815   1.763
 1009  SOL  HW2 3172   0.634   0.861   1.631
 1010  SOL   OW 3173   0.925   2.452   2.403
 1010  SOL  HW1 3174   0.991   2.506   2.446
 1010  SOL  HW2 3175   0.864   2.515   2.364
 1011  SOL   OW 3176   3.689   0.671   2.135
 1011  SOL  HW1 3177   3.596   0.664   2.158
 1011  SOL  HW2 3178   3.733   0.612   2.196
 1012  SOL   OW 3179   2.727   3.567   0.566
 1012  SOL  HW1 3180   2.641   3.539   0.599
 1012  SOL  HW2 3181   2.747   3.503   0.497
 1013  SOL   OW 3182   3.099   3.433   2.822
 1013  SOL  HW1 3183   3.019   3.486   2.823
 1013  SOL  HW2 3184   3.167   3.494   2.791
 1014  SOL   OW 3185   3.320   3.802   1.132
 1014  SOL  HW1 3186   3.263   3.807   1.055
 1014  SOL  HW2 3187   3.264   3.767   1.201
 1015  SOL   OW 3188   1.222   1.869   1.287
 1015  SOL  HW1 3189   1.199   1.798   1.348
 1015  SOL  HW2 3190   1.157   1.862   1.217
 1016  SOL   OW 3191   3.561   2.499   0.864
 1016  SOL  HW1 3192   3.524   2.445   0.934
 1016  SOL  HW2 3193   3.485   2.530   0.815
 1017  SOL   OW 3194   1.019   1.842   1.529
 1017  SOL  HW1 3195   1.013   1.752   1.497
 1017  SOL  HW2 3196   0.988   1.837   1.620
 1018  SOL   OW 3197   1.906   3.372   1.191
 1018  SOL  HW1 3198   1.845   3.445   1.186
 1018  SOL  HW2 3199   1.927   3.364   1.284
 1019  SOL   OW 3200   1.785   2.121   0.173
 1019  SOL  HW1 3201   1.834   2.171   0.107
 1019  SOL  HW2 3202   1.835   2.039   0.183
 1020  SOL   OW 3203   2.415   1.831   1.890
 1020  SOL  HW1 3204   2.463   1.909   1.917
 1020  SOL  HW2 3205   2.426   1.769   1.962
 1021  SOL   OW 3206   3.064   3.152   1.566
 1021  SOL  HW1 3207   3.159   3.149   1.564
 1021  SOL  HW2 3208   3.041   3.124   1.655
 1022  SOL   OW 3209   0.054   2.394   2.266
 1022  SOL  HW1 3210   0.005   2.469   2.301
 1022  SOL  HW2 3211   0.006   2.317   2.298
 1023  SOL   OW 3212   3.159   2.363   0.003
 1023  SOL  HW1 3213   3.135   2.293   0.064
 1023  SOL  HW2 3214   3.077   2.409  -0.014
 1024  SOL   OW 3215   2.155   3.044   1.648
 1024  SOL  HW1 3216   2.082   3.003   1.603
 1024  SOL  HW2 3217   2.165   2.993   1.729
 1025  SOL   OW 3218   3.475   0.420   0.492
 1025  SOL  HW1 3219   3.569   0.424   0.473
 1025  SOL  HW2 3220   3.463   0.480   0.566
 1026  SOL   OW 3221   0.306   1.418   2.685
 1026  SOL  HW1 3222   0.215   1.443   2.702
 1026  SOL  HW2 3223   0.354   1.448   2.763
 1027  SOL   OW 3224   3.951   3.404   3.723
 1027  SOL  HW1 3225   3.907   3.359   3.796
 1027  SOL  HW2 3226   3.949   3.497   3.748
 1028  SOL   OW 3227   3.767   0.423   1.374
 1028  SOL  HW1 3228   3.778   0.447   1.466
 1028  SOL  HW2 3229   3.853   0.392   1.346
 1029  SOL   OW 3230   0.285   2.309   1.159
 1029  SOL  HW1 3231   0.252   2.295   1.071
 1029  SOL  HW2 3232   0.339   2.233   1.178
 1030  SOL   OW 3233   0.969   0.887   3.520
 1030  SOL  HW1 3234   1.059   0.920   3.508
 1030  SOL  HW2 3235   0.960   0.819   3.455
 1031  SOL   OW 3236   1.858   0.413   0.459
 1031  SOL  HW1 3237   1.819   0.403   0.373
 1031  SOL  HW2 3238   1.813   0.489   0.497
 1032  SOL   OW 3239   1.534   1.095   0.700
 1032  SOL  HW1 3240   1.578   1.023   0.656
 1032  SOL  HW2 3241   1.559   1.086   0.792
 1033  SOL   OW 3242   0.802   3.824   1.417
 1033  SOL  HW1 3243   0.709   3.805   1.434
 1033  SOL  HW2 3244   0.800   3.907   1.369
 1034  SOL   OW 3245   0.390   3.120   0.708
 1034  SOL  HW1 3246   0.470   3.169   0.726
 1034  SOL  HW2 3247   0.355   3.160   0.628
 1035  SOL   OW 3248   2.979   1.846   2.737
 1035  SOL  HW1 3249   2.971   1.896   2.656
 1035  SOL  HW2 3250   3.026   1.766   2.711
 1036  SOL   OW 3251   2.880   3.189   3.977
 1036  SOL  HW1 3252   2.859   3.111   3.926
 1036  SOL  HW2 3253   2.809   3.251   3.956
 1037  SOL   OW 3254   2.404   0.033   0.546
 1037  SOL  HW1 3255   2.416   0.111   0.491
 1037  SOL  HW2 3256   2.386   0.068   0.633
 1038  SOL   OW 3257   3.572   1.538   0.193
 1038  SOL  HW1 3258   3.530   1.465   0.238
 1038  SOL  HW2 3259   3.504   1.572   0.135
 1039  SOL   OW 3260   1.498   0.972   2.712
 1039  SOL  HW1 3261   1.454   0.888   2.731
 1039  SOL  HW2 3262   1.516   1.009   2.798
 1040  SOL   OW 3263   2.855   3.525   2.903
 1040  SOL  HW1 3264   2.844   3.608   2.950
 1040  SOL  HW2 3265   2.776   3.475   2.925
 1041  SOL   OW 3266   1.824   1.952   1.257
 1041  SOL  HW1 3267   1.738   1.987   1.282
 1041  SOL  HW2 3268   1.810   1.917   1.169
 1042  SOL   OW 3269   3.405   3.490   2.717
 1042  SOL  HW1 3270   3.400   3.460   2.626
 1042  SOL  HW2 3271   3.397   3.410   2.769
 1043  SOL   OW 3272   3.100   1.167   1.339
 1043  SOL  HW1 3273   3.113   1.146   1.246
 1043  SOL  HW2 3274   3.020   1.219   1.340
 1044  SOL   OW 3275   2.713   3.509   0.230
 1044  SOL  HW1 3276   2.745   3.597   0.249
 1044  SOL  HW2 3277   2.727   3.460   0.311
 1045  SOL   OW 3278   2.202   0.426   3.528
 1045  SOL  HW1 3279   2.150   0.363   3.576
 1045  SOL  HW2 3280   2.143   0.499   3.511
 1046  SOL   OW 3281   3.654   0.310   2.265
 1046  SOL  HW1 3282   3.601   0.358   2.202
 1046  SOL  HW2 3283   3.718   0.374   2.296
 1047  SOL   OW 3284   1.879   2.823   2.112
 1047  SOL  HW1 3285   1.850   2.914   2.111
 1047  SOL  HW2 3286   1.927   2.813   2.030
 1048  SOL   OW 3287   3.955   0.659   2.919
 1048  SOL  HW1 3288   3.952   0.727   2.852
 1048  SOL  HW2 3289   4.047   0.651   2.943
 1049  SOL   OW 3290   2.958   3.321   2.355
 1049  SOL  HW1 3291   2.932   3.242   2.308
 1049  SOL  HW2 3292   3.039   3.297   2.400
 1050  SOL   OW 3293   2.801   0.653   0.712
 1050  SOL  HW1 3294   2.706   0.646   0.708
 1050  SOL  HW2 3295   2.817   0.737   0.754
 1051  SOL   OW 3296   3.895   1.772   3.151
 1051  SOL  HW1 3297   3.811   1.728   3.139
 1051  SOL  HW2 3298   3.960   1.701   3.146
 1052  SOL   OW 3299   1.476   0.414   2.951
 1052  SOL  HW1 3300   1.539   0.344   2.971
 1052  SOL  HW2 3301   1.530   0.485   2.915
 1053  SOL   OW 3302   1.931   2.163   0.580
 1053  SOL  HW1 3303   1.889   2.078   0.587
 1053  SOL  HW2 3304   1.887   2.206   0.507
 1054  SOL   OW 3305   3.238   1.188   0.099
 1054  SOL  HW1 3306   3.248   1.138   0.180
 1054  SOL  HW2 3307   3.168   1.143   0.052
 1055  SOL   OW 3308   3.233   0.490   2.381
 1055  SOL  HW1 3309   3.259   0.398   2.373
 1055  SOL  HW2 3310   3.259   0.515   2.470
 1056  SOL   OW 3311   3.353   1.457   1.310
 1056  SOL  HW1 3312   3.391   1.512   1.378
 1056  SOL  HW2 3313   3.410   1.381   1.306
 1057  SOL   OW 3314   0.994   1.425   0.441
 1057  SOL  HW1 3315   1.067   1.411   0.382
 1057  SOL  HW2 3316   0.955   1.339   0.454
 1058  SOL   OW 3317   2.895   3.677   3.282
 1058  SOL  HW1 3318   2.887   3.583   3.270
 1058  SOL  HW2 3319   2.846   3.696   3.361
 1059  SOL   OW 3320   2.522   0.654   3.037
 1059  SOL  HW1 3321   2.524   0.626   3.129
 1059  SOL  HW2 3322   2.593   0.605   2.996
 1060  SOL   OW 3323   1.295   2.883   0.606
 1060  SOL  HW1 3324   1.360   2.813   0.613
 1060  SOL  HW2 3325   1.248   2.864   0.525
 1061  SOL   OW 3326   3.634   0.382   2.615
 1061  SOL  HW1 3327   3.717   0.363   2.658
 1061  SOL  HW2 3328   3.642   0.474   2.588
 1062  SOL   OW 3329   1.995   1.986   2.529
 1062  SOL  HW1 3330   2.011   1.980   2.623
 1062  SOL  HW2 3331   1.989   1.895   2.499
 1063  SOL   OW 3332   1.805   1.219   1.925
 1063  SOL  HW1 3333   1.845   1.132   1.918
 1063  SOL  HW2 3334   1.778   1.226   2.016
 1064  SOL   OW 3335   3.238   2.706   2.395
 1064  SOL  HW1 3336   3.329   2.732   2.380
 1064  SOL  HW2 3337   3.212   2.665   2.313
 1065  SOL   OW 3338   2.601   2.099   0.167
 1065  SOL  HW1 3339   2.637   2.067   0.084
 1065  SOL  HW2 3340   2.677   2.117   0.221
 1066  SOL   OW 3341   1.189   3.121   3.643
 1066  SOL  HW1 3342   1.102   3.143   3.609
 1066  SOL  HW2 3343   1.202   3.182   3.715
 1067  SOL   OW 3344   2.167   3.855   0.816
 1067  SOL  HW1 3345   2.086   3.806   0.799
 1067  SOL  HW2 3346   2.141   3.947   0.817
 1068  SOL   OW 3347   2.370   1.337   3.373
 1068  SOL  HW1 3348   2.323   1.382   3.443
 1068  SOL  HW2 3349   2.455   1.382   3.369
 1069  SOL   OW 3350   1.678   2.617   3.157
 1069  SOL  HW1 3351   1.734   2.577   3.091
 1069  SOL  HW2 3352   1.629   2.685   3.110
 1070  SOL   OW 3353   3.548   1.433   2.344
 1070  SOL  HW1 3354   3.518   1.460   2.431
 1070  SOL  HW2 3355   3.630   1.388   2.359
 1071  SOL   OW 3356   2.673   3.905   3.711
 1071  SOL  HW1 3357   2.632   3.900   3.624
 1071  SOL  HW2 3358   2.767   3.903   3.693
 1072  SOL   OW 3359   2.848   2.108   2.453
 1072  SOL  HW1 3360   2.933   2.117   2.497
 1072  SOL  HW2 3361   2.786   2.149   2.513
 1073  SOL   OW 3362   2.963   2.353   2.060
 1073  SOL  HW1 3363   2.937   2.421   1.997
 1073  SOL  HW2 3364   2.947   2.392   2.146
 1074  SOL   OW 3365   1.668   3.168   1.233
 1074  SOL  HW1 3366   1.666   3.152   1.327
 1074  SOL  HW2 3367   1.691   3.261   1.225
 1075  SOL   OW 3368   2.260   1.132   3.039
 1075  SOL  HW1 3369   2.238   1.216   3.079
 1075  SOL  HW2 3370   2.325   1.094   3.099
 1076  SOL   OW 3371   3.478   1.701   0.793
 1076  SOL  HW1 3372   3.438   1.674   0.710
 1076  SOL  HW2 3373   3.454   1.632   0.855
 1077  SOL   OW 3374   1.943   0.268   3.590
 1077  SOL  HW1 3375   1.912   0.347   3.545
 1077  SOL  HW2 3376   1.864   0.227   3.625
 1078  SOL   OW 3377   2.876   3.758   0.371
 1078  SOL  HW1 3378   2.970   3.749   0.389
 1078  SOL  HW2 3379   2.833   3.709   0.441
 1079  SOL   OW 3380   2.970   1.253   3.975
 1079  SOL  HW1 3381   3.033   1.201   3.926
 1079  SOL  HW2 3382   3.011   1.264   4.061
 1080  SOL   OW 3383   1.004   0.636   0.881
 1080  SOL  HW1 3384   1.080   0.614   0.828
 1080  SOL  HW2 3385   1.040   0.657   0.967
 1081  SOL   OW 3386   2.604   1.816   0.958
 1081  SOL  HW1 3387   2.542   1.747   0.984
 1081  SOL  HW2 3388   2.554   1.897   0.967
 1082  SOL   OW 3389   3.186   2.157   2.141
 1082  SOL  HW1 3390   3.139   2.240   2.131
 1082  SOL  HW2 3391   3.125   2.100   2.187
 1083  SOL   OW 3392   1.840   1.024   3.946
 1083  SOL  HW1 3393   1.813   1.113   3.922
 1083  SOL  HW2 3394   1.771   0.967   3.914
 1084  SOL   OW 3395   3.115   1.667   3.791
 1084  SOL  HW1 3396   3.186   1.667   3.855
 1084  SOL  HW2 3397   3.050   1.606   3.827
 1085  SOL   OW 3398   0.025   1.047   3.204
 1085  SOL  HW1 3399   0.056   1.081   3.120
 1085  SOL  HW2 3400  -0.001   0.957   3.185
 1086  SOL   OW 3401   1.225   1.628   1.416
 1086  SOL  HW1 3402   1.317   1.654   1.406
 1086  SOL  HW2 3403   1.229   1.541   1.455
 1087  SOL   OW 3404   1.221   2.055   3.188
 1087  SOL  HW1 3405   1.251   1.968   3.162
 1087  SOL  HW2 3406   1.283   2.115   3.146
 1088  SOL   OW 3407   1.224   0.907   2.966
 1088  SOL  HW1 3408   1.132   0.931   2.983
 1088  SOL  HW2 3409   1.219   0.839   2.898
 1089  SOL   OW 3410   3.453   2.162   0.866
 1089  SOL  HW1 3411   3.488   2.216   0.936
 1089  SOL  HW2 3412   3.384   2.111   0.908
 1090  SOL   OW 3413   3.942   2.562   3.523
 1090  SOL  HW1 3414   4.019   2.509   3.542
 1090  SOL  HW2 3415   3.869   2.514   3.562
 1091  SOL   OW 3416   2.079   3.949   3.874
 1091  SOL  HW1 3417   2.008   3.992   3.922
 1091  SOL  HW2 3418   2.104   3.875   3.930
 1092  SOL   OW 3419   1.233   4.020   0.818
 1092  SOL  HW1 3420   1.165   3.996   0.755
 1092  SOL  HW2 3421   1.304   3.957   0.803
 1093  SOL   OW 3422   2.180   1.604   2.490
 1093  SOL  HW1 3423   2.206   1.526   2.539
 1093  SOL  HW2 3424   2.131   1.569   2.415
 1094  SOL   OW 3425   2.604   3.694   2.448
 1094  SOL  HW1 3426   2.547   3.741   2.508
 1094  SOL  HW2 3427   2.649   3.630   2.502
 1095  SOL   OW 3428   2.534   3.431   1.350
 1095  SOL  HW1 3429   2.560   3.458   1.261
 1095  SOL  HW2 3430   2.513   3.338   1.341
 1096  SOL   OW 3431   1.049   1.842   0.191
 1096  SOL  HW1 3432   1.032   1.936   0.197
 1096  SOL  HW2 3433   1.139   1.832   0.222
 1097  SOL   OW 3434   0.825   0.062   3.339
 1097  SOL  HW1 3435   0.757   0.044   3.274
 1097  SOL  HW2 3436   0.907   0.059   3.289
 1098  SOL   OW 3437   0.605   2.276   3.118
 1098  SOL  HW1 3438   0.635   2.246   3.204
 1098  SOL  HW2 3439   0.676   2.253   3.058
 1099  SOL   OW 3440   3.803   0.843   1.322
 1099  SOL  HW1 3441   3.717   0.871   1.292
 1099  SOL  HW2 3442   3.831   0.778   1.258
 1100  SOL   OW 3443   0.523   0.578   0.965
 1100  SOL  HW1 3444   0.599   0.599   1.021
 1100  SOL  HW2 3445   0.561   0.561   0.879
 1101  SOL   OW 3446   2.716   0.006   1.957
 1101  SOL  HW1 3447   2.678   0.057   2.028
 1101  SOL  HW2 3448   2.651  -0.062   1.938
 1102  SOL   OW 3449   3.550   1.021   1.522
 1102  SOL  HW1 3450   3.461   0.987   1.511
 1102  SOL  HW2 3451   3.606   0.946   1.503
 1103  SOL   OW 3452   0.851   3.073   0.665
 1103  SOL  HW1 3453   0.832   3.154   0.618
 1103  SOL  HW2 3454   0.804   3.082   0.748
 1104  SOL   OW 3455   0.440   0.982   0.190
 1104  SOL  HW1 3456   0.349   0.992   0.217
 1104  SOL  HW2 3457   0.488   1.048   0.241
 1105  SOL   OW 3458   1.468   0.781   3.272
 1105  SOL  HW1 3459   1.500   0.748   3.356
 1105  SOL  HW2 3460   1.385   0.736   3.259
 1106  SOL   OW 3461   2.628   0.938   1.716
 1106  SOL  HW1 3462   2.692   1.009   1.720
 1106  SOL  HW2 3463   2.551   0.976   1.675
 1107  SOL   OW 3464   2.568   1.390   0.484
 1107  SOL  HW1 3465   2.553   1.474   0.441
 1107  SOL  HW2 3466   2.481   1.351   0.493
 1108  SOL   OW 3467   2.035   1.669   2.951
 1108  SOL  HW1 3468   1.998   1.704   2.870
 1108  SOL  HW2 3469   2.122   1.637   2.927
 1109  SOL   OW 3470   2.347   0.749   1.306
 1109  SOL  HW1 3471   2.428   0.701   1.322
 1109  SOL  HW2 3472   2.297   0.693   1.246
 1110  SOL   OW 3473   2.487   3.125   0.296
 1110  SOL  HW1 3474   2.447   3.039   0.309
 1110  SOL  HW2 3475   2.423   3.186   0.332
 1111  SOL   OW 3476   3.484   3.709   1.388
 1111  SOL  HW1 3477   3.571   3.671   1.374
 1111  SOL  HW2 3478   3.447   3.718   1.300
 1112  SOL   OW 3479   2.253   2.467   1.470
 1112  SOL  HW1 3480   2.186   2.530   1.495
 1112  SOL  HW2 3481   2.265   2.481   1.376
 1113  SOL   OW 3482   1.848   3.070   0.760
 1113  SOL  HW1 3483   1.850   3.153   0.714
 1113  SOL  HW2 3484   1.940   3.044   0.765
 1114  SOL   OW 3485   0.559   0.295   3.315
 1114  SOL  HW1 3486   0.632   0.316   3.373
 1114  SOL  HW2 3487   0.572   0.352   3.239
 1115  SOL   OW 3488   2.497   1.234   1.138
 1115  SOL  HW1 3489   2.500   1.324   1.171
 1115  SOL  HW2 3490   2.524   1.240   1.047
 1116  SOL   OW 3491   3.971   3.143   1.368
 1116  SOL  HW1 3492   4.001   3.130   1.458
 1116  SOL  HW2 3493   3.920   3.065   1.347
 1117  SOL   OW 3494   0.524   3.947   0.435
 1117  SOL  HW1 3495   0.530   3.903   0.351
 1117  SOL  HW2 3496   0.449   4.006   0.426
 1118  SOL   OW 3497   3.631   3.011   1.941
 1118  SOL  HW1 3498   3.567   2.955   1.985
 1118  SOL  HW2 3499   3.590   3.034   1.858
 1119  SOL   OW 3500   0.463   0.669   3.256
 1119  SOL  HW1 3501   0.437   0.761   3.257
 1119  SOL  HW2 3502   0.384   0.621   3.280
 1120  SOL   OW 3503   0.981   3.141   2.250
 1120  SOL  HW1 3504   0.926   3.220   2.256
 1120  SOL  HW2 3505   0.996   3.129   2.156
 1121  SOL   OW 3506   0.287   1.652   1.366
 1121  SOL  HW1 3507   0.286   1.602   1.448
 1121  SOL  HW2 3508   0.376   1.686   1.360
 1122  SOL   OW 3509   0.707   0.273   3.801
 1122  SOL  HW1 3510   0.696   0.361   3.836
 1122  SOL  HW2 3511   0.788   0.240   3.842
 1123  SOL   OW 3512   1.380   1.929   0.505
 1123  SOL  HW1 3513   1.365   1.932   0.410
 1123  SOL  HW2 3514   1.441   2.000   0.522
 1124  SOL   OW 3515  -0.002   2.936   0.302
 1124  SOL  HW1 3516  -0.001   2.946   0.397
 1124  SOL  HW2 3517   0.090   2.940   0.277
 1125  SOL   OW 3518   0.567   1.577   3.115
 1125  SOL  HW1 3519   0.581   1.565   3.208
 1125  SOL  HW2 3520   0.592   1.667   3.097
 1126  SOL   OW 3521   0.552   3.876   3.590
 1126  SOL  HW1 3522   0.462   3.904   3.578
 1126  SOL  HW2 3523   0.599   3.957   3.612
 1127  SOL   OW 3524   3.808   1.645   1.253
 1127  SOL  HW1 3525   3.741   1.616   1.192
 1127  SOL  HW2 3526   3.803   1.740   1.251
 1128  SOL   OW 3527   0.893   2.871   0.174
 1128  SOL  HW1 3528   0.842   2.798   0.139
 1128  SOL  HW2 3529   0.952   2.894   0.102
 1129  SOL   OW 3530   3.688   4.010   0.607
 1129  SOL  HW1 3531   3.614   3.951   0.620
 1129  SOL  HW2 3532   3.740   4.002   0.687
 1130  SOL   OW 3533   3.372   2.027   2.295
 1130  SOL  HW1 3534   3.352   1.934   2.288
 1130  SOL  HW2 3535   3.315   2.069   2.231
 1131  SOL   OW 3536   0.545   3.827   1.503
 1131  SOL  HW1 3537   0.522   3.918   1.483
 1131  SOL  HW2 3538   0.578   3.830   1.593
 1132  SOL   OW 3539   2.802   3.745   3.045
 1132  SOL  HW1 3540   2.767   3.833   3.028
 1132  SOL  HW2 3541   2.848   3.754   3.129
 1133  SOL   OW 3542  -0.024   3.260   0.333
 1133  SOL  HW1 3543   0.066   3.231   0.352
 1133  SOL  HW2 3544  -0.033   3.343   0.380
 1134  SOL   OW 3545   2.735   2.428   1.710
 1134  SOL  HW1 3546   2.727   2.356   1.772
 1134  SOL  HW2 3547   2.645   2.450   1.687
 1135  SOL   OW 3548   3.188   0.495   3.739
 1135  SOL  HW1 3549   3.120   0.549   3.698
 1135  SOL  HW2 3550   3.155   0.405   3.729
 1136  SOL   OW 3551   1.968   1.616   1.629
 1136  SOL  HW1 3552   1.954   1.673   1.553
 1136  SOL  HW2 3553   1.923   1.661   1.701
 1137  SOL   OW 3554   0.764   0.529   3.085
 1137  SOL  HW1 3555   0.751   0.434   3.083
 1137  SOL  HW2 3556   0.812   0.545   3.166
 1138  SOL   OW 3557   1.535   2.836   3.044
 1138  SOL  HW1 3558   1.456   2.810   3.091
 1138  SOL  HW2 3559   1.531   2.931   3.040
 1139  SOL   OW 3560   2.267   0.608   3.295
 1139  SOL  HW1 3561   2.318   0.546   3.242
 1139  SOL  HW2 3562   2.245   0.559   3.375
 1140  SOL   OW 3563   2.976   2.029   0.479
 1140  SOL  HW1 3564   2.892   2.027   0.526
 1140  SOL  HW2 3565   3.040   2.049   0.547
 1141  SOL   OW 3566   2.427   3.354   3.902
 1141  SOL  HW1 3567   2.453   3.351   3.994
 1141  SOL  HW2 3568   2.441   3.445   3.876
 1142  SOL   OW 3569   2.707   3.611   1.734
 1142  SOL  HW1 3570   2.648   3.570   1.797
 1142  SOL  HW2 3571   2.782   3.640   1.786
 1143  SOL   OW 3572   2.510   2.809   2.082
 1143  SOL  HW1 3573   2.586   2.777   2.032
 1143  SOL  HW2 3574   2.505   2.902   2.058
 1144  SOL   OW 3575   1.651   3.909   2.503
 1144  SOL  HW1 3576   1.599   3.976   2.458
 1144  SOL  HW2 3577   1.720   3.958   2.548
 1145  SOL   OW 3578   3.060   3.819   2.067
 1145  SOL  HW1 3579   3.123   3.858   2.006
 1145  SOL  HW2 3580   3.041   3.888   2.130
 1146  SOL   OW 3581   1.815   0.435   3.410
 1146  SOL  HW1 3582   1.734   0.384   3.415
 1146  SOL  HW2 3583   1.793   0.510   3.355
 1147  SOL   OW 3584   0.931   2.137   3.826
 1147  SOL  HW1 3585   0.913   2.049   3.860
 1147  SOL  HW2 3586   0.846   2.170   3.798
 1148  SOL   OW 3587   1.226   1.168   3.695
 1148  SOL  HW1 3588   1.224   1.257   3.660
 1148  SOL  HW2 3589   1.135   1.149   3.716
 1149  SOL   OW 3590   2.436   0.462   2.558
 1149  SOL  HW1 3591   2.403   0.463   2.468
 1149  SOL  HW2 3592   2.413   0.549   2.592
 1150  SOL   OW 3593   3.464   0.629   2.302
 1150  SOL  HW1 3594   3.517   0.625   2.382
 1150  SOL  HW2 3595   3.398   0.560   2.315
 1151  SOL   OW 3596   0.531   0.442   3.607
 1151  SOL  HW1 3597   0.494   0.379   3.668
 1151  SOL  HW2 3598   0.455   0.490   3.573
 1152  SOL   OW 3599   2.479   1.030   0.778
 1152  SOL  HW1 3600   2.395   1.046   0.822
 1152  SOL  HW2 3601   2.468   0.945   0.736
 1153  SOL   OW 3602   0.449   3.555   2.611
 1153  SOL  HW1 3603   0.458   3.648   2.594
 1153  SOL  HW2 3604   0.498   3.540   2.692
 1154  SOL   OW 3605   3.553   0.115   3.180
 1154  SOL  HW1 3606   3.503   0.078   3.108
 1154  SOL  HW2 3607   3.538   0.055   3.253
 1155  SOL   OW 3608   1.930   3.508   3.206
 1155  SOL  HW1 3609   1.890   3.523   3.291
 1155  SOL  HW2 3610   1.993   3.579   3.196
 1156  SOL   OW 3611   3.585   0.731   2.857
 1156  SOL  HW1 3612   3.610   0.695   2.942
 1156  SOL  HW2 3613   3.489   0.723   2.854
 1157  SOL   OW 3614   1.963   1.525   1.154
 1157  SOL  HW1 3615   2.012   1.605   1.135
 1157  SOL  HW2 3616   2.016   1.479   1.220
 1158  SOL   OW 3617   1.060   3.387   3.024
 1158  SOL  HW1 3618   1.057   3.329   3.100
 1158  SOL  HW2 3619   1.151   3.415   3.018
 1159  SOL   OW 3620   1.214   1.901   3.788
 1159  SOL  HW1 3621   1.151   1.840   3.752
 1159  SOL  HW2 3622   1.280   1.911   3.720
 1160  SOL   OW 3623   3.926   1.983   0.925
 1160  SOL  HW1 3624   3.858   2.049   0.915
 1160  SOL  HW2 3625   3.953   1.963   0.836
 1161  SOL   OW 3626   2.031   1.446   1.410
 1161  SOL  HW1 3627   2.122   1.437   1.440
 1161  SOL  HW2 3628   1.989   1.499   1.477
 1162  SOL   OW 3629   3.290   1.262   3.093
 1162  SOL  HW1 3630   3.267   1.331   3.030
 1162  SOL  HW2 3631   3.207   1.233   3.129
 1163  SOL   OW 3632   0.003   3.699   3.748
 1163  SOL  HW1 3633   0.064   3.680   3.677
 1163  SOL  HW2 3634   0.027   3.787   3.778
 1164  SOL   OW 3635   2.904   2.574   2.723
 1164  SOL  HW1 3636   2.894   2.668   2.741
 1164  SOL  HW2 3637   2.897   2.532   2.809
 1165  SOL   OW 3638   2.789   2.764   2.248
 1165  SOL  HW1 3639   2.762   2.698   2.313
 1165  SOL  HW2 3640   2.838   2.714   2.183
 1166  SOL   OW 3641   1.529   2.040   0.988
 1166  SOL  HW1 3642   1.533   1.977   0.916
 1166  SOL  HW2 3643   1.587   2.111   0.962
 1167  SOL   OW 3644   0.361   2.043   1.118
 1167  SOL  HW1 3645   0.339   1.976   1.053
 1167  SOL  HW2 3646   0.296   2.033   1.187
 1168  SOL   OW 3647   1.156   1.726   2.404
 1168  SOL  HW1 3648   1.211   1.649   2.417
 1168  SOL  HW2 3649   1.172   1.752   2.314
 1169  SOL   OW 3650   0.813   1.163   1.684
 1169  SOL  HW1 3651   0.843   1.136   1.598
 1169  SOL  HW2 3652   0.851   1.099   1.744
 1170  SOL   OW 3653   2.255   3.586   0.400
 1170  SOL  HW1 3654   2.240   3.673   0.436
 1170  SOL  HW2 3655   2.298   3.602   0.316
 1171  SOL   OW 3656   2.891   2.011   3.005
 1171  SOL  HW1 3657   2.925   2.053   2.926
 1171  SOL  HW2 3658   2.836   2.077   3.047
 1172  SOL   OW 3659   1.230   2.764   2.668
 1172  SOL  HW1 3660   1.231   2.723   2.755
 1172  SOL  HW2 3661   1.188   2.849   2.683
 1173  SOL   OW 3662   2.362   2.288   0.184
 1173  SOL  HW1 3663   2.430   2.221   0.172
 1173  SOL  HW2 3664   2.351   2.327   0.097
 1174  SOL   OW 3665   2.628   1.294   0.911
 1174  SOL  HW1 3666   2.655   1.236   0.840
 1174  SOL  HW2 3667   2.595   1.372   0.867
 1175  SOL   OW 3668   0.893   1.529   3.461
 1175  SOL  HW1 3669   0.869   1.606   3.409
 1175  SOL  HW2 3670   0.823   1.466   3.446
 1176  SOL   OW 3671   3.610   3.676   0.817
 1176  SOL  HW1 3672   3.648   3.611   0.757
 1176  SOL  HW2 3673   3.684   3.707   0.869
 1177  SOL   OW 3674   2.277   1.499   1.817
 1177  SOL  HW1 3675   2.208   1.558   1.786
 1177  SOL  HW2 3676   2.252   1.413   1.784
 1178  SOL   OW 3677   2.979   0.647   3.670
 1178  SOL  HW1 3678   3.012   0.706   3.602
 1178  SOL  HW2 3679   2.905   0.603   3.629
 1179  SOL   OW 3680   0.037   0.933   0.999
 1179  SOL  HW1 3681   0.056   0.886   1.080
 1179  SOL  HW2 3682   0.070   1.022   1.015
 1180  SOL   OW 3683   0.024   2.591   0.527
 1180  SOL  HW1 3684  -0.055   2.543   0.501
 1180  SOL  HW2 3685   0.064   2.535   0.594
 1181  SOL   OW 3686   1.971   0.015   1.388
 1181  SOL  HW1 3687   2.025   0.027   1.466
 1181  SOL  HW2 3688   1.888   0.058   1.410
 1182  SOL   OW 3689   3.994   0.171   1.089
 1182  SOL  HW1 3690   3.905   0.197   1.067
 1182  SOL  HW2 3691   3.984   0.109   1.161
 1183  SOL   OW 3692   2.684   1.015   3.189
 1183  SOL  HW1 3693   2.641   0.988   3.107
 1183  SOL  HW2 3694   2.612   1.045   3.245
 1184  SOL   OW 3695   0.810   3.025   0.949
 1184  SOL  HW1 3696   0.861   2.963   1.002
 1184  SOL  HW2 3697   0.720   3.017   0.982
 1185  SOL   OW 3698   0.690   2.795   1.548
 1185  SOL  HW1 3699   0.777   2.759   1.568
 1185  SOL  HW2 3700   0.705   2.888   1.536
 1186  SOL   OW 3701   3.094   1.750   2.970
 1186  SOL  HW1 3702   3.056   1.827   2.927
 1186  SOL  HW2 3703   3.018   1.700   3.001
 1187  SOL   OW 3704   2.134   0.568   1.258
 1187  SOL  HW1 3705   2.127   0.504   1.329
 1187  SOL  HW2 3706   2.068   0.635   1.278
 1188  SOL   OW 3707   3.551   0.054   1.520
 1188  SOL  HW1 3708   3.643   0.048   1.546
 1188  SOL  HW2 3709   3.506  -0.008   1.577
 1189  SOL   OW 3710   3.441   1.082   2.307
 1189  SOL  HW1 3711   3.390   1.059   2.385
 1189  SOL  HW2 3712   3.433   1.005   2.250
 1190  SOL   OW 3713   3.006   0.402   1.260
 1190  SOL  HW1 3714   3.062   0.335   1.299
 1190  SOL  HW2 3715   2.979   0.457   1.333
 1191  SOL   OW 3716   1.349   1.497   2.228
 1191  SOL  HW1 3717   1.321   1.410   2.258
 1191  SOL  HW2 3718   1.443   1.500   2.247
 1192  SOL   OW 3719   0.616   3.355   2.096
 1192  SOL  HW1 3720   0.593   3.273   2.139
 1192  SOL  HW2 3721   0.568   3.422   2.144
 1193  SOL   OW 3722   3.972   1.147   2.560
 1193  SOL  HW1 3723   3.953   1.225   2.613
 1193  SOL  HW2 3724   4.059   1.162   2.523
 1194  SOL   OW 3725   1.945   1.751   1.393
 1194  SOL  HW1 3726   1.890   1.688   1.345
 1194  SOL  HW2 3727   1.898   1.834   1.383
 1195  SOL   OW 3728   0.066   1.928   2.871
 1195  SOL  HW1 3729   0.063   2.022   2.853
 1195  SOL  HW2 3730   0.154   1.913   2.906
 1196  SOL   OW 3731   1.159   3.187   2.438
 1196  SOL  HW1 3732   1.091   3.156   2.378
 1196  SOL  HW2 3733   1.137   3.279   2.452
 1197  SOL   OW 3734   2.046   1.911   2.174
 1197  SOL  HW1 3735   1.967   1.924   2.226
 1197  SOL  HW2 3736   2.014   1.886   2.087
 1198  SOL   OW 3737   0.943   2.696   1.581
 1198  SOL  HW1 3738   1.038   2.699   1.570
 1198  SOL  HW2 3739   0.913   2.631   1.517
 1199  SOL   OW 3740   2.740   2.961   3.904
 1199  SOL  HW1 3741   2.810   2.912   3.947
 1199  SOL  HW2 3742   2.664   2.903   3.909
 1200  SOL   OW 3743   0.985   3.844   0.986
 1200  SOL  HW1 3744   0.891   3.862   0.981
 1200  SOL  HW2 3745   0.991   3.749   0.992
 1201  SOL   OW 3746   1.088   0.890   0.582
 1201  SOL  HW1 3747   1.069   0.906   0.490
 1201  SOL  HW2 3748   1.182   0.909   0.591
 1202  SOL   OW 3749   3.156   0.209   3.447
 1202  SOL  HW1 3750   3.195   0.123   3.432
 1202  SOL  HW2 3751   3.070   0.204   3.406
 1203  SOL   OW 3752   1.466   2.888   1.538
 1203  SOL  HW1 3753   1.537   2.861   1.597
 1203  SOL  HW2 3754   1.488   2.848   1.454
 1204  SOL   OW 3755   0.073   3.118   3.795
 1204  SOL  HW1 3756   0.080   3.041   3.851
 1204  SOL  HW2 3757  -0.014   3.153   3.812
 1205  SOL   OW 3758   3.170   1.427   0.206
 1205  SOL  HW1 3759   3.194   1.352   0.151
 1205  SOL  HW2 3760   3.191   1.399   0.295
 1206  SOL   OW 3761   1.678   0.369   0.887
 1206  SOL  HW1 3762   1.689   0.424   0.964
 1206  SOL  HW2 3763   1.633   0.290   0.919
 1207  SOL   OW 3764   3.510   1.150   3.872
 1207  SOL  HW1 3765   3.467   1.070   3.841
 1207  SOL  HW2 3766   3.549   1.188   3.794
 1208  SOL   OW 3767   1.227   0.961   3.491
 1208  SOL  HW1 3768   1.244   1.033   3.552
 1208  SOL  HW2 3769   1.308   0.953   3.440
 1209  SOL   OW 3770   0.292   2.724   3.377
 1209  SOL  HW1 3771   0.236   2.795   3.346
 1209  SOL  HW2 3772   0.262   2.706   3.466
 1210  SOL   OW 3773   0.363   2.117   3.556
 1210  SOL  HW1 3774   0.412   2.035   3.568
 1210  SOL  HW2 3775   0.424   2.185   3.585
 1211  SOL   OW 3776   0.053   2.845   2.857
 1211  SOL  HW1 3777   0.001   2.828   2.936
 1211  SOL  HW2 3778   0.114   2.771   2.852
 1212  SOL   OW 3779   3.527   2.941   1.075
 1212  SOL  HW1 3780   3.555   2.853   1.049
 1212  SOL  HW2 3781   3.440   2.950   1.037
 1213  SOL   OW 3782   0.691   2.911   0.484
 1213  SOL  HW1 3783   0.754   2.842   0.465
 1213  SOL  HW2 3784   0.742   2.992   0.483
 1214  SOL   OW 3785   2.026   1.012   0.860
 1214  SOL  HW1 3786   2.025   1.084   0.922
 1214  SOL  HW2 3787   2.099   0.956   0.890
 1215  SOL   OW 3788   1.564   0.163   0.241
 1215  SOL  HW1 3789   1.549   0.219   0.317
 1215  SOL  HW2 3790   1.659   0.155   0.235
 1216  SOL   OW 3791   2.034   0.618   3.472
 1216  SOL  HW1 3792   1.974   0.584   3.406
 1216  SOL  HW2 3793   2.040   0.712   3.454
 1217  SOL   OW 3794   1.309   2.438   2.459
 1217  SOL  HW1 3795   1.290   2.404   2.546
 1217  SOL  HW2 3796   1.334   2.360   2.409
 1218  SOL   OW 3797   3.320   1.066   0.485
 1218  SOL  HW1 3798   3.411   1.069   0.456
 1218  SOL  HW2 3799   3.319   1.114   0.568
 1219  SOL   OW 3800   3.280   2.691   2.696
 1219  SOL  HW1 3801   3.242   2.659   2.614
 1219  SOL  HW2 3802   3.374   2.696   2.678
 1220  SOL   OW 3803   2.889   1.547   0.609
 1220  SOL  HW1 3804   2.898   1.459   0.645
 1220  SOL  HW2 3805   2.874   1.603   0.685
 1221  SOL   OW 3806   0.782   2.374   1.646
 1221  SOL  HW1 3807   0.723   2.330   1.584
 1221  SOL  HW2 3808   0.760   2.336   1.731
 1222  SOL   OW 3809   2.329   0.319   2.812
 1222  SOL  HW1 3810   2.343   0.373   2.734
 1222  SOL  HW2 3811   2.287   0.240   2.779
 1223  SOL   OW 3812   3.795   3.334   3.432
 1223  SOL  HW1 3813   3.827   3.410   3.481
 1223  SOL  HW2 3814   3.866   3.311   3.373
 1224  SOL   OW 3815   3.430   1.502   3.306
 1224  SOL  HW1 3816   3.363   1.436   3.288
 1224  SOL  HW2 3817   3.383   1.572   3.352
 1225  SOL   OW 3818   1.240   3.599   1.673
 1225  SOL  HW1 3819   1.229   3.641   1.758
 1225  SOL  HW2 3820   1.165   3.630   1.621
 1226  SOL   OW 3821   1.009   0.183   1.018
 1226  SOL  HW1 3822   1.050   0.115   1.071
 1226  SOL  HW2 3823   0.966   0.135   0.947
 1227  SOL   OW 3824   2.740   0.628   1.068
 1227  SOL  HW1 3825   2.806   0.679   1.022
 1227  SOL  HW2 3826   2.776   0.540   1.073
 1228  SOL   OW 3827   0.918   1.185   0.524
 1228  SOL  HW1 3828   0.973   1.111   0.497
 1228  SOL  HW2 3829   0.944   1.203   0.614
 1229  SOL   OW 3830   0.986   3.618   1.218
 1229  SOL  HW1 3831   1.023   3.681   1.279
 1229  SOL  HW2 3832   0.981   3.537   1.267
 1230  SOL   OW 3833   2.268   2.829   0.543
 1230  SOL  HW1 3834   2.329   2.811   0.615
 1230  SOL  HW2 3835   2.208   2.895   0.578
 1231  SOL   OW 3836   1.093   3.887   0.329
 1231  SOL  HW1 3837   1.056   3.975   0.332
 1231  SOL  HW2 3838   1.083   3.853   0.418
 1232  SOL   OW 3839   0.661   1.279   1.453
 1232  SOL  HW1 3840   0.616   1.217   1.395
 1232  SOL  HW2 3841   0.633   1.252   1.541
 1233  SOL   OW 3842   3.529   2.487   1.381
 1233  SOL  HW1 3843   3.443   2.508   1.346
 1233  SOL  HW2 3844   3.513   2.416   1.443
 1234  SOL   OW 3845   2.250   1.365   2.631
 1234  SOL  HW1 3846   2.279   1.280   2.597
 1234  SOL  HW2 3847   2.156   1.356   2.642
 1235  SOL   OW 3848   1.752   0.523   1.137
 1235  SOL  HW1 3849   1.738   0.467   1.213
 1235  SOL  HW2 3850   1.823   0.581   1.164
 1236  SOL   OW 3851   1.547   2.436   1.367
 1236  SOL  HW1 3852   1.549   2.361   1.427
 1236  SOL  HW2 3853   1.578   2.510   1.420
 1237  SOL   OW 3854   2.994   0.211   1.532
 1237  SOL  HW1 3855   2.942   0.287   1.554
 1237  SOL  HW2 3856   2.930   0.141   1.519
 1238  SOL   OW 3857   2.204   0.241   3.805
 1238  SOL  HW1 3858   2.277   0.214   3.860
 1238  SOL  HW2 3859   2.153   0.161   3.791
 1239  SOL   OW 3860   1.296   2.231   0.381
 1239  SOL  HW1 3861   1.344   2.300   0.428
 1239  SOL  HW2 3862   1.204   2.253   0.396
 1240  SOL   OW 3863   0.113   2.225   0.942
 1240  SOL  HW1 3864   0.067   2.185   0.869
 1240  SOL  HW2 3865   0.045   2.238   1.009
 1241  SOL   OW 3866   0.238   3.973   0.760
 1241  SOL  HW1 3867   0.269   4.056   0.724
 1241  SOL  HW2 3868   0.156   3.955   0.712
 1242  SOL   OW 3869   0.093   1.180   1.315
 1242  SOL  HW1 3870   0.133   1.246   1.371
 1242  SOL  HW2 3871   0.138   1.099   1.337
 1243  SOL   OW 3872   3.734   1.911   1.169
 1243  SOL  HW1 3873   3.791   1.969   1.118
 1243  SOL  HW2 3874   3.774   1.909   1.256
 1244  SOL   OW 3875   2.364   3.948   2.855
 1244  SOL  HW1 3876   2.442   3.963   2.909
 1244  SOL  HW2 3877   2.393   3.888   2.787
 1245  SOL   OW 3878   3.143   2.048   3.074
 1245  SOL  HW1 3879   3.159   2.100   3.152
 1245  SOL  HW2 3880   3.050   2.026   3.078
 1246  SOL   OW 3881   1.744   1.377   1.706
 1246  SOL  HW1 3882   1.769   1.298   1.754
 1246  SOL  HW2 3883   1.780   1.450   1.757
 1247  SOL   OW 3884   3.526   1.489   2.878
 1247  SOL  HW1 3885   3.449   1.433   2.865
 1247  SOL  HW2 3886   3.590   1.433   2.921
 1248  SOL   OW 3887   2.734   1.089   1.340
 1248  SOL  HW1 3888   2.653   1.132   1.367
 1248  SOL  HW2 3889   2.719   0.996   1.361
 1249  SOL   OW 3890   1.687   1.326   2.502
 1249  SOL  HW1 3891   1.714   1.234   2.506
 1249  SOL  HW2 3892   1.596   1.326   2.534
 1250  SOL   OW 3893   2.408   0.211   4.003
 1250  SOL  HW1 3894   2.489   0.161   3.990
 1250  SOL  HW2 3895   2.437   0.302   4.006
 1251  SOL   OW 3896   0.945   1.989   0.511
 1251  SOL  HW1 3897   0.992   1.905   0.514
 1251  SOL  HW2 3898   0.908   1.992   0.423
 1252  SOL   OW 3899   0.945   2.375   3.240
 1252  SOL  HW1 3900   0.945   2.294   3.292
 1252  SOL  HW2 3901   0.930   2.345   3.150
 1253  SOL   OW 3902   1.797   1.290   3.890
 1253  SOL  HW1 3903   1.806   1.270   3.797
 1253  SOL  HW2 3904   1.850   1.368   3.904
 1254  SOL   OW 3905   0.753   1.753   0.631
 1254  SOL  HW1 3906   0.672   1.795   0.602
 1254  SOL  HW2 3907   0.785   1.706   0.554
 1255  SOL   OW 3908   3.061  -0.013   2.546
 1255  SOL  HW1 3909   2.966  -0.017   2.552
 1255  SOL  HW2 3910   3.084   0.072   2.583
 1256  SOL   OW 3911   1.729   1.358   1.422
 1256  SOL  HW1 3912   1.757   1.383   1.510
 1256  SOL  HW2 3913   1.640   1.323   1.434
 1257  SOL   OW 3914   0.556   2.869   2.273
 1257  SOL  HW1 3915   0.536   2.885   2.365
 1257  SOL  HW2 3916   0.482   2.818   2.240
 1258  SOL   OW 3917   1.515   0.861   3.018
 1258  SOL  HW1 3918   1.464   0.844   3.097
 1258  SOL  HW2 3919   1.523   0.956   3.014
 1259  SOL   OW 3920   2.318   2.399   3.950
 1259  SOL  HW1 3921   2.308   2.493   3.939
 1259  SOL  HW2 3922   2.242   2.361   3.906
 1260  SOL   OW 3923   0.939   1.337   1.430
 1260  SOL  HW1 3924   0.851   1.303   1.418
 1260  SOL  HW2 3925   0.976   1.285   1.501
 1261  SOL   OW 3926   1.102   1.142   1.283
 1261  SOL  HW1 3927   1.083   1.236   1.276
 1261  SOL  HW2 3928   1.073   1.106   1.198
 1262  SOL   OW 3929   3.572   2.332   1.103
 1262  SOL  HW1 3930   3.592   2.389   1.177
 1262  SOL  HW2 3931   3.522   2.260   1.141
 1263  SOL   OW 3932   0.561   2.187   1.408
 1263  SOL  HW1 3933   0.557   2.176   1.312
 1263  SOL  HW2 3934   0.504   2.119   1.442
 1264  SOL   OW 3935   3.091   3.272   0.803
 1264  SOL  HW1 3936   3.124   3.328   0.873
 1264  SOL  HW2 3937   3.146   3.194   0.807
 1265  SOL   OW 3938   3.548   1.079   2.610
 1265  SOL  HW1 3939   3.496   1.036   2.542
 1265  SOL  HW2 3940   3.487   1.138   2.653
 1266  SOL   OW 3941   0.956   0.854   3.096
 1266  SOL  HW1 3942   0.989   0.845   3.186
 1266  SOL  HW2 3943   0.876   0.905   3.106
 1267  SOL   OW 3944   1.439   3.334   2.175
 1267  SOL  HW1 3945   1.495   3.270   2.220
 1267  SOL  HW2 3946   1.374   3.281   2.130
 1268  SOL   OW 3947   2.993   1.641   0.161
 1268  SOL  HW1 3948   3.045   1.573   0.203
 1268  SOL  HW2 3949   3.057   1.698   0.119
 1269  SOL   OW 3950   1.143   2.091   2.275
 1269  SOL  HW1 3951   1.148   2.013   2.219
 1269  SOL  HW2 3952   1.057   2.085   2.317
 1270  SOL   OW 3953   2.966   3.156   3.363
 1270  SOL  HW1 3954   2.888   3.153   3.419
 1270  SOL  HW2 3955   3.039   3.149   3.424
 1271  SOL   OW 3956   1.682   1.159   0.947
 1271  SOL  HW1 3957   1.760   1.106   0.934
 1271  SOL  HW2 3958   1.711   1.249   0.939
 1272  SOL   OW 3959   1.199   1.919   0.727
 1272  SOL  HW1 3960   1.115   1.935   0.683
 1272  SOL  HW2 3961   1.265   1.934   0.659
 1273  SOL   OW 3962   2.820   0.140   2.367
 1273  SOL  HW1 3963   2.753   0.201   2.397
 1273  SOL  HW2 3964   2.772   0.058   2.353
 1274  SOL   OW 3965   2.792   1.663   0.370
 1274  SOL  HW1 3966   2.839   1.631   0.448
 1274  SOL  HW2 3967   2.861   1.673   0.304
 1275  SOL   OW 3968   2.540   1.190   2.821
 1275  SOL  HW1 3969   2.580   1.262   2.772
 1275  SOL  HW2 3970   2.612   1.129   2.837
 1276  SOL   OW 3971   3.676   1.239   0.647
 1276  SOL  HW1 3972   3.595   1.286   0.667
 1276  SOL  HW2 3973   3.706   1.277   0.565
 1277  SOL   OW 3974   2.798   0.447   2.112
 1277  SOL  HW1 3975   2.856   0.451   2.036
 1277  SOL  HW2 3976   2.857   0.436   2.186
 1278  SOL   OW 3977   2.314   4.010   0.179
 1278  SOL  HW1 3978   2.385   3.952   0.207
 1278  SOL  HW2 3979   2.347   4.051   0.098
 1279  SOL   OW 3980   2.217   3.375   1.974
 1279  SOL  HW1 3981   2.126   3.365   2.001
 1279  SOL  HW2 3982   2.221   3.334   1.887
 1280  SOL   OW 3983   3.279   1.022   2.536
 1280  SOL  HW1 3984   3.244   1.007   2.623
 1280  SOL  HW2 3985   3.237   0.955   2.482
 1281  SOL   OW 3986   1.382   3.812   1.006
 1281  SOL  HW1 3987   1.374   3.796   1.099
 1281  SOL  HW2 3988   1.347   3.901   0.994
 1282  SOL   OW 3989   3.851   2.844   1.304
 1282  SOL  HW1 3990   3.773   2.789   1.318
 1282  SOL  HW2 3991   3.924   2.791   1.336
 1283  SOL   OW 3992   3.260   3.725   3.523
 1283  SOL  HW1 3993   3.186   3.720   3.584
 1283  SOL  HW2 3994   3.240   3.660   3.455
 1284  SOL   OW 3995   0.545   2.642   0.359
 1284  SOL  HW1 3996   0.473   2.585   0.386
 1284  SOL  HW2 3997   0.605   2.642   0.434
 1285  SOL   OW 3998   1.229   2.440   0.804
 1285  SOL  HW1 3999   1.153   2.382   0.810
 1285  SOL  HW2 4000   1.211   2.495   0.727
 1286  SOL   OW 4001   2.470   3.094   2.033
 1286  SOL  HW1 4002   2.548   3.136   2.069
 1286  SOL  HW2 4003   2.446   3.147   1.958
 1287  SOL   OW 4004   3.637   1.648   0.525
 1287  SOL  HW1 4005   3.645   1.711   0.598
 1287  SOL  HW2 4006   3.688   1.688   0.454
 1288  SOL   OW 4007   1.435   3.630   1.239
 1288  SOL  HW1 4008   1.431   3.619   1.334
 1288  SOL  HW2 4009   1.482   3.552   1.208
 1289  SOL   OW 4010   0.199   0.381   2.411
 1289  SOL  HW1 4011   0.268   0.388   2.345
 1289  SOL  HW2 4012   0.235   0.426   2.488
 1290  SOL   OW 4013   1.842   0.689   4.021
 1290  SOL  HW1 4014   1.909   0.675   3.954
 1290  SOL  HW2 4015   1.764   0.716   3.971
 1291  SOL   OW 4016   1.995   0.906   0.145
 1291  SOL  HW1 4017   2.028   0.995   0.159
 1291  SOL  HW2 4018   1.928   0.916   0.078
 1292  SOL   OW 4019   0.321   2.973   0.911
 1292  SOL  HW1 4020   0.282   3.050   0.953
 1292  SOL  HW2 4021   0.335   3.000   0.820
 1293  SOL   OW 4022   2.226   1.755   1.456
 1293  SOL  HW1 4023   2.265   1.822   1.512
 1293  SOL  HW2 4024   2.133   1.775   1.456
 1294  SOL   OW 4025   2.277   0.278   1.455
 1294  SOL  HW1 4026   2.261   0.373   1.458
 1294  SOL  HW2 4027   2.194   0.239   1.481
 1295  SOL   OW 4028   3.316   0.650   1.938
 1295  SOL  HW1 4029   3.370   0.727   1.919
 1295  SOL  HW2 4030   3.302   0.610   1.852
 1296  SOL   OW 4031   1.599   2.324   1.724
 1296  SOL  HW1 4032   1.620   2.324   1.817
 1296  SOL  HW2 4033   1.592   2.416   1.700
 1297  SOL   OW 4034   0.931   1.702   3.195
 1297  SOL  HW1 4035   0.974   1.714   3.110
 1297  SOL  HW2 4036   0.964   1.618   3.226
 1298  SOL   OW 4037   0.864   0.309   2.141
 1298  SOL  HW1 4038   0.920   0.339   2.213
 1298  SOL  HW2 4039   0.911   0.337   2.062
 1299  SOL   OW 4040   1.622   2.399   3.317
 1299  SOL  HW1 4041   1.708   2.369   3.348
 1299  SOL  HW2 4042   1.643   2.476   3.263
 1300  SOL   OW 4043   2.471   2.465   2.493
 1300  SOL  HW1 4044   2.393   2.422   2.527
 1300  SOL  HW2 4045   2.439   2.534   2.436
 1301  SOL   OW 4046   1.133   1.179   2.611
 1301  SOL  HW1 4047   1.054   1.170   2.664
 1301  SOL  HW2 4048   1.103   1.161   2.521
 1302  SOL   OW 4049   2.345   2.337   2.170
 1302  SOL  HW1 4050   2.369   2.424   2.203
 1302  SOL  HW2 4051   2.350   2.280   2.246
 1303  SOL   OW 4052   3.707   0.865   2.414
 1303  SOL  HW1 4053   3.750   0.875   2.330
 1303  SOL  HW2 4054   3.769   0.901   2.478
 1304  SOL   OW 4055   0.958   2.750   2.150
 1304  SOL  HW1 4056   0.905   2.739   2.230
 1304  SOL  HW2 4057   0.984   2.661   2.127
 1305  SOL   OW 4058   0.733   1.978   0.975
 1305  SOL  HW1 4059   0.791   2.046   0.940
 1305  SOL  HW2 4060   0.787   1.899   0.977
 1306  SOL   OW 4061   1.498   1.692   1.392
 1306  SOL  HW1 4062   1.582   1.680   1.348
 1306  SOL  HW2 4063   1.501   1.631   1.466
 1307  SOL   OW 4064   1.828   1.214   1.222
 1307  SOL  HW1 4065   1.737   1.195   1.201
 1307  SOL  HW2 4066   1.826   1.256   1.308
 1308  SOL   OW 4067   3.652   3.281   2.060
 1308  SOL  HW1 4068   3.645   3.215   1.992
 1308  SOL  HW2 4069   3.580   3.341   2.043
 1309  SOL   OW 4070   0.175   3.281   4.020
 1309  SOL  HW1 4071   0.087   3.252   4.041
 1309  SOL  HW2 4072   0.173   3.298   3.926
 1310  SOL   OW 4073   0.998   0.858   3.831
 1310  SOL  HW1 4074   0.976   0.915   3.757
 1310  SOL  HW2 4075   1.067   0.801   3.798
 1311  SOL   OW 4076   0.604   0.530   0.222
 1311  SOL  HW1 4077   0.679   0.498   0.273
 1311  SOL  HW2 4078   0.551   0.577   0.286
 1312  SOL   OW 4079   1.509   2.203   3.125
 1312  SOL  HW1 4080   1.518   2.269   3.193
 1312  SOL  HW2 4081   1.510   2.253   3.043
 1313  SOL   OW 4082   2.186   3.321   1.382
 1313  SOL  HW1 4083   2.241   3.282   1.314
 1313  SOL  HW2 4084   2.238   3.395   1.415
 1314  SOL   OW 4085   2.696   0.454   0.409
 1314  SOL  HW1 4086   2.695   0.394   0.484
 1314  SOL  HW2 4087   2.772   0.427   0.358
 1315  SOL   OW 4088   3.106   1.579   1.232
 1315  SOL  HW1 4089   3.191   1.543   1.258
 1315  SOL  HW2 4090   3.044   1.543   1.295
 1316  SOL   OW 4091   0.613   2.613   3.559
 1316  SOL  HW1 4092   0.561   2.693   3.565
 1316  SOL  HW2 4093   0.592   2.577   3.474
 1317  SOL   OW 4094   3.868   0.033   2.999
 1317  SOL  HW1 4095   3.892  -0.057   3.018
 1317  SOL  HW2 4096   3.772   0.031   2.991
 1318  SOL   OW 4097   3.852   3.536   1.892
 1318  SOL  HW1 4098   3.905   3.463   1.925
 1318  SOL  HW2 4099   3.783   3.547   1.957
 1319  SOL   OW 4100   0.878   3.495   3.276
 1319  SOL  HW1 4101   0.828   3.425   3.234
 1319  SOL  HW2 4102   0.851   3.574   3.230
 1320  SOL   OW 4103   0.930   0.090   0.789
 1320  SOL  HW1 4104   0.918  -0.005   0.797
 1320  SOL  HW2 4105   0.900   0.111   0.700
 1321  SOL   OW 4106   3.586   2.297   2.125
 1321  SOL  HW1 4107   3.609   2.216   2.171
 1321  SOL  HW2 4108   3.648   2.302   2.053
 1322  SOL   OW 4109   2.482   0.697   2.268
 1322  SOL  HW1 4110   2.412   0.664   2.211
 1322  SOL  HW2 4111   2.460   0.662   2.354
 1323  SOL   OW 4112   1.485   1.407   3.518
 1323  SOL  HW1 4113   1.400   1.438   3.551
 1323  SOL  HW2 4114   1.480   1.420   3.424
 1324  SOL   OW 4115   0.855   2.328   2.990
 1324  SOL  HW1 4116   0.879   2.400   2.932
 1324  SOL  HW2 4117   0.888   2.250   2.946
 1325  SOL   OW 4118   2.096   0.135   1.619
 1325  SOL  HW1 4119   2.156   0.065   1.645
 1325  SOL  HW2 4120   2.089   0.191   1.696
 1326  SOL   OW 4121   3.939   0.706   2.019
 1326  SOL  HW1 4122   3.859   0.722   2.070
 1326  SOL  HW2 4123   3.946   0.611   2.014
 1327  SOL   OW 4124   3.507   0.733   1.243
 1327  SOL  HW1 4125   3.530   0.812   1.194
 1327  SOL  HW2 4126   3.586   0.679   1.239
 1328  SOL   OW 4127   2.877   2.767   1.367
 1328  SOL  HW1 4128   2.960   2.814   1.368
 1328  SOL  HW2 4129   2.889   2.695   1.429
 1329  SOL   OW 4130   3.101   2.061   2.558
 1329  SOL  HW1 4131   3.076   2.093   2.645
 1329  SOL  HW2 4132   3.193   2.085   2.548
 1330  SOL   OW 4133   3.738   1.476   1.599
 1330  SOL  HW1 4134   3.742   1.464   1.693
 1330  SOL  HW2 4135   3.828   1.459   1.569
 1331  SOL   OW 4136   0.497   0.891   1.159
 1331  SOL  HW1 4137   0.511   0.881   1.065
 1331  SOL  HW2 4138   0.542   0.815   1.198
 1332  SOL   OW 4139   1.599   0.386   2.319
 1332  SOL  HW1 4140   1.520   0.433   2.348
 1332  SOL  HW2 4141   1.654   0.454   2.280
 1333  SOL   OW 4142   1.448   3.385   0.058
 1333  SOL  HW1 4143   1.543   3.393   0.052
 1333  SOL  HW2 4144   1.423   3.441   0.132
 1334  SOL   OW 4145   1.891   1.720   2.477
 1334  SOL  HW1 4146   1.926   1.638   2.441
 1334  SOL  HW2 4147   1.796   1.710   2.472
 1335  SOL   OW 4148   3.740   0.940   3.083
 1335  SOL  HW1 4149   3.729   1.010   3.018
 1335  SOL  HW2 4150   3.651   0.916   3.107
 1336  SOL   OW 4151   0.493   1.010   2.167
 1336  SOL  HW1 4152   0.535   1.028   2.251
 1336  SOL  HW2 4153   0.564   1.019   2.103
 1337  SOL   OW 4154   1.780   1.597   3.778
 1337  SOL  HW1 4155   1.806   1.613   3.869
 1337  SOL  HW2 4156   1.706   1.538   3.783
 1338  SOL   OW 4157   2.214   1.256   1.738
 1338  SOL  HW1 4158   2.130   1.213   1.754
 1338  SOL  HW2 4159   2.272   1.186   1.709
 1339  SOL   OW 4160   2.944   1.326   2.877
 1339  SOL  HW1 4161   2.892   1.405   2.867
 1339  SOL  HW2 4162   3.021   1.353   2.927
 1340  SOL   OW 4163   2.500   3.515   0.690
 1340  SOL  HW1 4164   2.487   3.469   0.772
 1340  SOL  HW2 4165   2.433   3.584   0.690
 1341  SOL   OW 4166  -0.011   2.348   1.304
 1341  SOL  HW1 4167   0.083   2.359   1.291
 1341  SOL  HW2 4168  -0.047   2.436   1.297
 1342  SOL   OW 4169   2.309   1.656   3.811
 1342  SOL  HW1 4170   2.325   1.744   3.843
 1342  SOL  HW2 4171   2.388   1.607   3.833
 1343  SOL   OW 4172   1.606   1.232   3.681
 1343  SOL  HW1 4173   1.628   1.154   3.630
 1343  SOL  HW2 4174   1.578   1.296   3.615
 1344  SOL   OW 4175   2.656   2.443   0.130
 1344  SOL  HW1 4176   2.627   2.531   0.153
 1344  SOL  HW2 4177   2.672   2.399   0.213
 1345  SOL   OW 4178   3.194   2.403   0.661
 1345  SOL  HW1 4179   3.206   2.367   0.748
 1345  SOL  HW2 4180   3.133   2.476   0.673
 1346  SOL   OW 4181   0.936   2.839   3.521
 1346  SOL  HW1 4182   0.928   2.783   3.598
 1346  SOL  HW2 4183   0.870   2.908   3.534
 1347  SOL   OW 4184   2.043   2.458   3.340
 1347  SOL  HW1 4185   1.984   2.504   3.398
 1347  SOL  HW2 4186   2.092   2.528   3.295
 1348  SOL   OW 4187   3.074   2.612   0.798
 1348  SOL  HW1 4188   3.042   2.670   0.867
 1348  SOL  HW2 4189   3.160   2.647   0.775
 1349  SOL   OW 4190   2.032   2.552   0.172
 1349  SOL  HW1 4191   1.970   2.486   0.141
 1349  SOL  HW2 4192   2.087   2.506   0.235
 1350  SOL   OW 4193   3.208   3.269   3.947
 1350  SOL  HW1 4194   3.116   3.276   3.921
 1350  SOL  HW2 4195   3.205   3.265   4.043
 1351  SOL   OW 4196   3.748   1.132   1.750
 1351  SOL  HW1 4197   3.795   1.117   1.668
 1351  SOL  HW2 4198   3.802   1.196   1.797
 1352  SOL   OW 4199   1.634   1.560   0.785
 1352  SOL  HW1 4200   1.562   1.546   0.846
 1352  SOL  HW2 4201   1.661   1.472   0.759
 1353  SOL   OW 4202   3.399   3.474   2.272
 1353  SOL  HW1 4203   3.312   3.501   2.303
 1353  SOL  HW2 4204   3.383   3.445   2.182
 1354  SOL   OW 4205   2.089   2.267   3.828
 1354  SOL  HW1 4206   2.073   2.215   3.750
 1354  SOL  HW2 4207   2.020   2.333   3.829
 1355  SOL   OW 4208   1.733   0.925   1.902
 1355  SOL  HW1 4209   1.651   0.976   1.900
 1355  SOL  HW2 4210   1.708   0.840   1.937
 1356  SOL   OW 4211   3.785   1.558   0.919
 1356  SOL  HW1 4212   3.697   1.560   0.956
 1356  SOL  HW2 4213   3.807   1.465   0.912
 1357  SOL   OW 4214   0.050   3.350   3.223
 1357  SOL  HW1 4215   0.098   3.317   3.300
 1357  SOL  HW2 4216   0.115   3.399   3.173
 1358  SOL   OW 4217   2.381   2.226   3.524
 1358  SOL  HW1 4218   2.365   2.148   3.577
 1358  SOL  HW2 4219   2.304   2.282   3.539
 1359  SOL   OW 4220   3.729   2.248   2.927
 1359  SOL  HW1 4221   3.734   2.209   3.014
 1359  SOL  HW2 4222   3.753   2.176   2.868
 1360  SOL   OW 4223   3.535   2.493   0.063
 1360  SOL  HW1 4224   3.569   2.489   0.153
 1360  SOL  HW2 4225   3.502   2.405   0.045
 1361  SOL   OW 4226   2.374   1.086   3.964
 1361  SOL  HW1 4227   2.318   1.022   3.920
 1361  SOL  HW2 4228   2.312   1.143   4.010
 1362  SOL   OW 4229   0.992   1.610   0.079
 1362  SOL  HW1 4230   0.927   1.561   0.129
 1362  SOL  HW2 4231   1.009   1.689   0.132
 1363  SOL   OW 4232   0.853   3.721   3.131
 1363  SOL  HW1 4233   0.948   3.717   3.139
 1363  SOL  HW2 4234   0.835   3.704   3.038
 1364  SOL   OW 4235   1.017   1.671   2.923
 1364  SOL  HW1 4236   0.955   1.600   2.910
 1364  SOL  HW2 4237   1.071   1.671   2.845
 1365  SOL   OW 4238   0.237   0.668   2.105
 1365  SOL  HW1 4239   0.202   0.758   2.104
 1365  SOL  HW2 4240   0.234   0.641   2.014
 1366  SOL   OW 4241   0.314   2.532   0.487
 1366  SOL  HW1 4242   0.307   2.618   0.530
 1366  SOL  HW2 4243   0.280   2.470   0.552
 1367  SOL   OW 4244   0.159   2.061   1.707
 1367  SOL  HW1 4245   0.089   2.114   1.745
 1367  SOL  HW2 4246   0.125   2.034   1.621
 1368  SOL   OW 4247   1.141   0.882   2.178
 1368  SOL  HW1 4248   1.111   0.882   2.087
 1368  SOL  HW2 4249   1.061   0.873   2.230
 1369  SOL   OW 4250   3.810   1.933   2.912
 1369  SOL  HW1 4251   3.824   1.910   3.004
 1369  SOL  HW2 4252   3.895   1.916   2.870
 1370  SOL   OW 4253   1.635   1.243   2.211
 1370  SOL  HW1 4254   1.659   1.330   2.240
 1370  SOL  HW2 4255   1.705   1.186   2.244
 1371  SOL   OW 4256   2.218   3.837   1.091
 1371  SOL  HW1 4257   2.210   3.868   1.001
 1371  SOL  HW2 4258   2.260   3.751   1.083
 1372  SOL   OW 4259   2.528   1.287   3.098
 1372  SOL  HW1 4260   2.532   1.261   3.006
 1372  SOL  HW2 4261   2.514   1.205   3.146
 1373  SOL   OW 4262   1.103   3.094   0.767
 1373  SOL  HW1 4263   1.129   3.006   0.741
 1373  SOL  HW2 4264   1.007   3.095   0.755
 1374  SOL   OW 4265   2.140   2.032   1.675
 1374  SOL  HW1 4266   2.156   2.078   1.757
 1374  SOL  HW2 4267   2.217   2.050   1.622
 1375  SOL   OW 4268   2.141   2.685   3.243
 1375  SOL  HW1 4269   2.141   2.672   3.148
 1375  SOL  HW2 4270   2.064   2.740   3.259
 1376  SOL   OW 4271   1.761   1.412   2.759
 1376  SOL  HW1 4272   1.747   1.381   2.670
 1376  SOL  HW2 4273   1.678   1.455   2.782
 1377  SOL   OW 4274   1.530   0.563   0.318
 1377  SOL  HW1 4275   1.605   0.620   0.298
 1377  SOL  HW2 4276   1.568   0.492   0.370
 1378  SOL   OW 4277   0.719   3.975   1.027
 1378  SOL  HW1 4278   0.633   3.935   1.040
 1378  SOL  HW2 4279   0.700   4.055   0.977
 1379  SOL   OW 4280   1.271   0.046   0.182
 1379  SOL  HW1 4281   1.362   0.065   0.206
 1379  SOL  HW2 4282   1.239  -0.010   0.253
 1380  SOL   OW 4283   3.554   2.229   0.049
 1380  SOL  HW1 4284   3.634   2.187   0.081
 1380  SOL  HW2 4285   3.496   2.231   0.125
 1381  SOL   OW 4286   2.855   0.181   3.645
 1381  SOL  HW1 4287   2.871   0.090   3.618
 1381  SOL  HW2 4288   2.760   0.191   3.638
 1382  SOL   OW 4289   1.601   2.311   2.282
 1382  SOL  HW1 4290   1.598   2.351   2.369
 1382  SOL  HW2 4291   1.530   2.248   2.282
 1383  SOL   OW 4292   3.636   3.774   1.117
 1383  SOL  HW1 4293   3.588   3.850   1.150
 1383  SOL  HW2 4294   3.572   3.703   1.115
 1384  SOL   OW 4295   2.111   0.920   2.672
 1384  SOL  HW1 4296   2.065   0.863   2.734
 1384  SOL  HW2 4297   2.178   0.964   2.724
 1385  SOL   OW 4298   0.972   2.667   3.086
 1385  SOL  HW1 4299   1.045   2.710   3.130
 1385  SOL  HW2 4300   0.909   2.650   3.155
 1386  SOL   OW 4301   2.108   2.086   0.030
 1386  SOL  HW1 4302   2.135   2.117   0.116
 1386  SOL  HW2 4303   2.131   2.157  -0.030
 1387  SOL   OW 4304   1.946   0.563   2.450
 1387  SOL  HW1 4305   1.917   0.551   2.541
 1387  SOL  HW2 4306   1.880   0.518   2.398
 1388  SOL   OW 4307   1.816   3.025   0.251
 1388  SOL  HW1 4308   1.809   2.991   0.340
 1388  SOL  HW2 4309   1.851   3.113   0.261
 1389  SOL   OW 4310   0.701   3.302   1.817
 1389  SOL  HW1 4311   0.665   3.323   1.903
 1389  SOL  HW2 4312   0.768   3.236   1.835
 1390  SOL   OW 4313   1.141   2.735   0.896
 1390  SOL  HW1 4314   1.083   2.688   0.955
 1390  SOL  HW2 4315   1.083   2.788   0.841
 1391  SOL   OW 4316   1.334   1.153   3.960
 1391  SOL  HW1 4317   1.429   1.142   3.962
 1391  SOL  HW2 4318   1.312   1.169   3.868
 1392  SOL   OW 4319   0.778   0.790   0.813
 1392  SOL  HW1 4320   0.778   0.807   0.719
 1392  SOL  HW2 4321   0.851   0.730   0.827
 1393  SOL   OW 4322   2.181   2.118   0.910
 1393  SOL  HW1 4323   2.214   2.201   0.945
 1393  SOL  HW2 4324   2.106   2.097   0.965
 1394  SOL   OW 4325   3.590   2.626   3.283
 1394  SOL  HW1 4326   3.623   2.637   3.372
 1394  SOL  HW2 4327   3.595   2.532   3.266
 1395  SOL   OW 4328   0.387   0.271   0.740
 1395  SOL  HW1 4329   0.426   0.299   0.658
 1395  SOL  HW2 4330   0.458   0.231   0.789
 1396  SOL   OW 4331   2.743   3.321   0.441
 1396  SOL  HW1 4332   2.776   3.268   0.368
 1396  SOL  HW2 4333   2.700   3.258   0.499
 1397  SOL   OW 4334   0.598   2.235   0.702
 1397  SOL  HW1 4335   0.607   2.199   0.614
 1397  SOL  HW2 4336   0.523   2.189   0.739
 1398  SOL   OW 4337   2.601   3.455   3.546
 1398  SOL  HW1 4338   2.508   3.475   3.538
 1398  SOL  HW2 4339   2.607   3.361   3.527
 1399  SOL   OW 4340   2.840   2.011   3.647
 1399  SOL  HW1 4341   2.759   2.046   3.683
 1399  SOL  HW2 4342   2.839   2.038   3.555
 1400  SOL   OW 4343   2.283   3.464   3.257
 1400  SOL  HW1 4344   2.338   3.491   3.184
 1400  SOL  HW2 4345   2.231   3.542   3.277
 1401  SOL   OW 4346   1.290   0.052   0.532
 1401  SOL  HW1 4347   1.378   0.022   0.512
 1401  SOL  HW2 4348   1.291   0.070   0.626
 1402  SOL   OW 4349   2.421   3.583   3.011
 1402  SOL  HW1 4350   2.500   3.623   2.975
 1402  SOL  HW2 4351   2.438   3.488   3.006
 1403  SOL   OW 4352   3.627   3.081   3.049
 1403  SOL  HW1 4353   3.699   3.126   3.093
 1403  SOL  HW2 4354   3.636   3.104   2.957
 1404  SOL   OW 4355   1.020   2.101   3.468
 1404  SOL  HW1 4356   1.010   2.044   3.544
 1404  SOL  HW2 4357   1.068   2.048   3.404
 1405  SOL   OW 4358   2.641   3.941   2.308
 1405  SOL  HW1 4359   2.608   3.855   2.334
 1405  SOL  HW2 4360   2.587   3.967   2.234
 1406  SOL   OW 4361   2.787   3.543   3.717
 1406  SOL  HW1 4362   2.743   3.491   3.650
 1406  SOL  HW2 4363   2.735   3.529   3.796
 1407  SOL   OW 4364   2.299   0.756   0.241
 1407  SOL  HW1 4365   2.355   0.687   0.277
 1407  SOL  HW2 4366   2.216   0.747   0.288
 1408  SOL   OW 4367   1.156   2.608   0.615
 1408  SOL  HW1 4368   1.159   2.703   0.622
 1408  SOL  HW2 4369   1.073   2.583   0.655
 1409  SOL   OW 4370   1.232   0.285   0.937
 1409  SOL  HW1 4371   1.237   0.200   0.893
 1409  SOL  HW2 4372   1.142   0.291   0.967
 1410  SOL   OW 4373   0.917   3.592   0.664
 1410  SOL  HW1 4374   0.944   3.565   0.752
 1410  SOL  HW2 4375   0.825   3.617   0.673
 1411  SOL   OW 4376   0.641   0.396   1.190
 1411  SOL  HW1 4377   0.722   0.380   1.142
 1411  SOL  HW2 4378   0.577   0.339   1.147
 1412  SOL   OW 4379   1.109   2.398   2.157
 1412  SOL  HW1 4380   1.085   2.367   2.245
 1412  SOL  HW2 4381   1.028   2.394   2.107
 1413  SOL   OW 4382   2.651   0.672   2.072
 1413  SOL  HW1 4383   2.614   0.694   2.157
 1413  SOL  HW2 4384   2.674   0.579   2.079
 1414  SOL   OW 4385   3.024   3.641   3.676
 1414  SOL  HW1 4386   2.930   3.625   3.671
 1414  SOL  HW2 4387   3.050   3.607   3.762
 1415  SOL   OW 4388   1.493   0.140   2.415
 1415  SOL  HW1 4389   1.561   0.202   2.443
 1415  SOL  HW2 4390   1.417   0.195   2.396
 1416  SOL   OW 4391   2.933   3.197   2.842
 1416  SOL  HW1 4392   2.933   3.201   2.937
 1416  SOL  HW2 4393   3.002   3.258   2.815
 1417  SOL   OW 4394   3.284   0.868   0.188
 1417  SOL  HW1 4395   3.335   0.790   0.210
 1417  SOL  HW2 4396   3.350   0.932   0.160
 1418  SOL   OW 4397   0.864   1.012   0.058
 1418  SOL  HW1 4398   0.789   0.974   0.013
 1418  SOL  HW2 4399   0.934   0.949   0.046
 1419  SOL   OW 4400   3.264   3.990   3.428
 1419  SOL  HW1 4401   3.290   3.926   3.494
 1419  SOL  HW2 4402   3.243   3.938   3.351
 1420  SOL   OW 4403   1.266   2.106   0.941
 1420  SOL  HW1 4404   1.361   2.105   0.951
 1420  SOL  HW2 4405   1.248   2.039   0.875
 1421  SOL   OW 4406   3.995   1.759   3.924
 1421  SOL  HW1 4407   3.966   1.684   3.871
 1421  SOL  HW2 4408   3.979   1.835   3.869
 1422  SOL   OW 4409   1.459   1.939   2.870
 1422  SOL  HW1 4410   1.516   2.016   2.862
 1422  SOL  HW2 4411   1.511   1.866   2.836
 1423  SOL   OW 4412   2.603   1.761   0.638
 1423  SOL  HW1 4413   2.625   1.668   0.638
 1423  SOL  HW2 4414   2.510   1.764   0.617
 1424  SOL   OW 4415   0.503   1.649   1.041
 1424  SOL  HW1 4416   0.473   1.600   0.964
 1424  SOL  HW2 4417   0.547   1.583   1.095
 1425  SOL   OW 4418   3.890   1.560   3.763
 1425  SOL  HW1 4419   3.848   1.476   3.784
 1425  SOL  HW2 4420   3.949   1.539   3.691
 1426  SOL   OW 4421   1.430   1.206   1.076
 1426  SOL  HW1 4422   1.432   1.271   1.146
 1426  SOL  HW2 4423   1.504   1.148   1.096
 1427  SOL   OW 4424   0.146   0.141   2.275
 1427  SOL  HW1 4425   0.111   0.230   2.282
 1427  SOL  HW2 4426   0.221   0.149   2.216
 1428  SOL   OW 4427   2.868   3.981   0.943
 1428  SOL  HW1 4428   2.784   3.945   0.971
 1428  SOL  HW2 4429   2.885   3.940   0.858
 1429  SOL   OW 4430   1.484   1.673   3.066
 1429  SOL  HW1 4431   1.532   1.722   3.132
 1429  SOL  HW2 4432   1.532   1.688   2.985
 1430  SOL   OW 4433   0.951   3.696   0.208
 1430  SOL  HW1 4434   1.006   3.769   0.236
 1430  SOL  HW2 4435   0.976   3.624   0.266
 1431  SOL   OW 4436   3.831   2.595   2.230
 1431  SOL  HW1 4437   3.804   2.675   2.274
 1431  SOL  HW2 4438   3.829   2.616   2.137
 1432  SOL   OW 4439   0.259   1.130   2.518
 1432  SOL  HW1 4440   0.300   1.214   2.499
 1432  SOL  HW2 4441   0.332   1.068   2.524
 1433  SOL   OW 4442   0.605   2.631   2.549
 1433  SOL  HW1 4443   0.513   2.614   2.529
 1433  SOL  HW2 4444   0.633   2.555   2.599
 1434  SOL   OW 4445   2.042   3.795   3.490
 1434  SOL  HW1 4446   1.947   3.810   3.489
 1434  SOL  HW2 4447   2.078   3.869   3.539
 1435  SOL   OW 4448   0.832   0.031   1.252
 1435  SOL  HW1 4449   0.790   0.004   1.170
 1435  SOL  HW2 4450   0.923   0.002   1.242
 1436  SOL   OW 4451   0.638   3.359   3.175
 1436  SOL  HW1 4452   0.636   3.264   3.183
 1436  SOL  HW2 4453   0.630   3.391   3.264
 1437  SOL   OW 4454   2.726   0.511   3.630
 1437  SOL  HW1 4455   2.780   0.474   3.561
 1437  SOL  HW2 4456   2.744   0.456   3.706
 1438  SOL   OW 4457   0.166   3.718   2.634
 1438  SOL  HW1 4458   0.189   3.665   2.557
 1438  SOL  HW2 4459   0.138   3.802   2.598
 1439  SOL   OW 4460   2.069   0.120   0.117
 1439  SOL  HW1 4461   2.153   0.075   0.114
 1439  SOL  HW2 4462   2.089   0.205   0.158
 1440  SOL   OW 4463   0.642   3.431   3.461
 1440  SOL  HW1 4464   0.641   3.460   3.552
 1440  SOL  HW2 4465   0.734   3.421   3.439
 1441  SOL   OW 4466   0.516   3.766   2.880
 1441  SOL  HW1 4467   0.588   3.828   2.875
 1441  SOL  HW2 4468   0.546   3.698   2.940
 1442  SOL   OW 4469   2.193   2.404   0.350
 1442  SOL  HW1 4470   2.212   2.388   0.443
 1442  SOL  HW2 4471   2.272   2.377   0.304
 1443  SOL   OW 4472   2.317   0.991   1.069
 1443  SOL  HW1 4473   2.410   0.979   1.088
 1443  SOL  HW2 4474   2.297   1.079   1.103
 1444  SOL   OW 4475   4.022   2.161   0.076
 1444  SOL  HW1 4476   4.033   2.184   0.168
 1444  SOL  HW2 4477   3.929   2.142   0.067
 1445  SOL   OW 4478   2.361   3.962   1.717
 1445  SOL  HW1 4479   2.427   3.919   1.772
 1445  SOL  HW2 4480   2.288   3.902   1.715
 1446  SOL   OW 4481   2.910   0.373   2.591
 1446  SOL  HW1 4482   2.815   0.368   2.587
 1446  SOL  HW2 4483   2.937   0.289   2.627
 1447  SOL   OW 4484   0.417   1.203   0.960
 1447  SOL  HW1 4485   0.378   1.116   0.964
 1447  SOL  HW2 4486   0.507   1.190   0.988
 1448  SOL   OW 4487   0.812   3.064   1.273
 1448  SOL  HW1 4488   0.833   3.058   1.180
 1448  SOL  HW2 4489   0.897   3.059   1.317
 1449  SOL   OW 4490   1.313   3.460   2.397
 1449  SOL  HW1 4491   1.340   3.405   2.324
 1449  SOL  HW2 4492   1.261   3.530   2.357
 1450  SOL   OW 4493   3.385   0.592   0.689
 1450  SOL  HW1 4494   3.456   0.634   0.737
 1450  SOL  HW2 4495   3.311   0.652   0.699
 1451  SOL   OW 4496   3.422   3.787   0.667
 1451  SOL  HW1 4497   3.502   3.742   0.694
 1451  SOL  HW2 4498   3.365   3.717   0.635
 1452  SOL   OW 4499   1.150   2.410   1.742
 1452  SOL  HW1 4500   1.081   2.380   1.683
 1452  SOL  HW2 4501   1.214   2.452   1.684
 1453  SOL   OW 4502   1.999   3.089   1.899
 1453  SOL  HW1 4503   2.079   3.068   1.946
 1453  SOL  HW2 4504   1.955   3.155   1.953
 1454  SOL   OW 4505   3.490   3.390   2.501
 1454  SOL  HW1 4506   3.470   3.415   2.411
 1454  SOL  HW2 4507   3.508   3.296   2.496
 1455  SOL   OW 4508   1.340   3.507   0.956
 1455  SOL  HW1 4509   1.349   3.602   0.946
 1455  SOL  HW2 4510   1.406   3.483   1.021
 1456  SOL   OW 4511   0.077   3.960   3.849
 1456  SOL  HW1 4512   0.040   4.048   3.843
 1456  SOL  HW2 4513   0.167   3.974   3.877
 1457  SOL   OW 4514   1.101   1.857   3.349
 1457  SOL  HW1 4515   1.169   1.883   3.287
 1457  SOL  HW2 4516   1.055   1.784   3.306
 1458  SOL   OW 4517   3.651   3.515   3.064
 1458  SOL  HW1 4518   3.698   3.592   3.033
 1458  SOL  HW2 4519   3.701   3.486   3.141
 1459  SOL   OW 4520   1.313   1.674   0.295
 1459  SOL  HW1 4521   1.311   1.611   0.367
 1459  SOL  HW2 4522   1.396   1.720   0.306
 1460  SOL   OW 4523   2.619   2.212   1.442
 1460  SOL  HW1 4524   2.593   2.177   1.527
 1460  SOL  HW2 4525   2.542   2.200   1.386
 1461  SOL   OW 4526   1.317   1.952   1.561
 1461  SOL  HW1 4527   1.237   1.904   1.538
 1461  SOL  HW2 4528   1.387   1.906   1.514
 1462  SOL   OW 4529   0.579   3.448   2.934
 1462  SOL  HW1 4530   0.501   3.399   2.906
 1462  SOL  HW2 4531   0.590   3.425   3.026
 1463  SOL   OW 4532   1.355   0.937   1.366
 1463  SOL  HW1 4533   1.449   0.945   1.348
 1463  SOL  HW2 4534   1.320   1.025   1.353
 1464  SOL   OW 4535   2.042   0.985   1.191
 1464  SOL  HW1 4536   2.040   1.065   1.244
 1464  SOL  HW2 4537   2.135   0.972   1.171
 1465  SOL   OW 4538   2.638   3.792   1.542
 1465  SOL  HW1 4539   2.558   3.837   1.569
 1465  SOL  HW2 4540   2.652   3.725   1.609
 1466  SOL   OW 4541   0.873   0.413   1.041
 1466  SOL  HW1 4542   0.899   0.322   1.056
 1466  SOL  HW2 4543   0.932   0.444   0.973
 1467  SOL   OW 4544   3.737   0.606   0.468
 1467  SOL  HW1 4545   3.741   0.511   0.470
 1467  SOL  HW2 4546   3.766   0.633   0.555
 1468  SOL   OW 4547   2.194   2.964   3.116
 1468  SOL  HW1 4548   2.106   2.928   3.130
 1468  SOL  HW2 4549   2.242   2.895   3.071
 1469  SOL   OW 4550   4.026   0.293   3.348
 1469  SOL  HW1 4551   3.955   0.351   3.378
 1469  SOL  HW2 4552   3.986   0.206   3.346
 1470  SOL   OW 4553   2.147   1.702   0.442
 1470  SOL  HW1 4554   2.177   1.701   0.352
 1470  SOL  HW2 4555   2.145   1.795   0.466
 1471  SOL   OW 4556   3.553   2.747   1.742
 1471  SOL  HW1 4557   3.476   2.693   1.759
 1471  SOL  HW2 4558   3.517   2.833   1.720
 1472  SOL   OW 4559   2.092   3.827   1.720
 1472  SOL  HW1 4560   2.093   3.732   1.707
 1472  SOL  HW2 4561   2.001   3.853   1.708
 1473  SOL   OW 4562   3.870   1.653   0.681
 1473  SOL  HW1 4563   3.815   1.615   0.612
 1473  SOL  HW2 4564   3.827   1.628   0.762
 1474  SOL   OW 4565   1.860   1.979   1.712
 1474  SOL  HW1 4566   1.953   1.972   1.691
 1474  SOL  HW2 4567   1.825   2.039   1.647
 1475  SOL   OW 4568   2.214   2.944   2.031
 1475  SOL  HW1 4569   2.306   2.952   2.056
 1475  SOL  HW2 4570   2.170   2.918   2.112
 1476  SOL   OW 4571   3.284   0.952   1.677
 1476  SOL  HW1 4572   3.194   0.983   1.663
 1476  SOL  HW2 4573   3.322   1.014   1.739
 1477  SOL   OW 4574   2.933   3.925   0.661
 1477  SOL  HW1 4575   2.857   3.942   0.606
 1477  SOL  HW2 4576   2.993   3.998   0.643
 1478  SOL   OW 4577   3.437   3.419   1.959
 1478  SOL  HW1 4578   3.412   3.336   1.917
 1478  SOL  HW2 4579   3.354   3.467   1.967
 1479  SOL   OW 4580   0.158   2.787   0.649
 1479  SOL  HW1 4581   0.100   2.732   0.596
 1479  SOL  HW2 4582   0.120   2.785   0.736
 1480  SOL   OW 4583   2.315   1.521   2.937
 1480  SOL  HW1 4584   2.303   1.472   2.856
 1480  SOL  HW2 4585   2.370   1.595   2.913
 1481  SOL   OW 4586   1.661   1.809   3.658
 1481  SOL  HW1 4587   1.705   1.727   3.682
 1481  SOL  HW2 4588   1.571   1.783   3.638
 1482  SOL   OW 4589   0.713   0.241   0.191
 1482  SOL  HW1 4590   0.785   0.291   0.152
 1482  SOL  HW2 4591   0.723   0.153   0.156
 1483  SOL   OW 4592   1.554   1.518   1.959
 1483  SOL  HW1 4593   1.503   1.590   1.921
 1483  SOL  HW2 4594   1.509   1.439   1.931
 1484  SOL   OW 4595   0.454   0.273   0.219
 1484  SOL  HW1 4596   0.431   0.207   0.285
 1484  SOL  HW2 4597   0.550   0.268   0.214
 1485  SOL   OW 4598   2.368   1.874   3.146
 1485  SOL  HW1 4599   2.337   1.805   3.204
 1485  SOL  HW2 4600   2.288   1.911   3.108
 1486  SOL   OW 4601   3.590   0.706   3.413
 1486  SOL  HW1 4602   3.602   0.693   3.508
 1486  SOL  HW2 4603   3.623   0.794   3.397
 1487  SOL   OW 4604   3.504   2.803   2.288
 1487  SOL  HW1 4605   3.593   2.832   2.308
 1487  SOL  HW2 4606   3.497   2.809   2.193
 1488  SOL   OW 4607   2.391   2.956   3.745
 1488  SOL  HW1 4608   2.431   2.976   3.829
 1488  SOL  HW2 4609   2.384   3.041   3.701
 1489  SOL   OW 4610   1.814   0.356   3.954
 1489  SOL  HW1 4611   1.895   0.407   3.954
 1489  SOL  HW2 4612   1.837   0.273   3.913
 1490  SOL   OW 4613   2.065   1.777   0.048
 1490  SOL  HW1 4614   2.031   1.777  -0.042
 1490  SOL  HW2 4615   2.154   1.812   0.040
 1491  SOL   OW 4616   0.398   3.218   1.538
 1491  SOL  HW1 4617   0.382   3.168   1.458
 1491  SOL  HW2 4618   0.493   3.232   1.539
 1492  SOL   OW 4619   3.836   0.022   1.914
 1492  SOL  HW1 4620   3.819   0.045   2.006
 1492  SOL  HW2 4621   3.921  -0.020   1.916
 1493  SOL   OW 4622   2.461   2.452   1.632
 1493  SOL  HW1 4623   2.429   2.379   1.684
 1493  SOL  HW2 4624   2.391   2.470   1.569
 1494  SOL   OW 4625   2.591   3.730   2.843
 1494  SOL  HW1 4626   2.669   3.676   2.858
 1494  SOL  HW2 4627   2.622   3.803   2.790
 1495  SOL   OW 4628   3.157   0.423   3.104
 1495  SOL  HW1 4629   3.069   0.452   3.128
 1495  SOL  HW2 4630   3.187   0.372   3.179
 1496  SOL   OW 4631   3.416   2.725   1.218
 1496  SOL  HW1 4632   3.365   2.644   1.217
 1496  SOL  HW2 4633   3.474   2.718   1.143
 1497  SOL   OW 4634   2.568   0.737   3.913
 1497  SOL  HW1 4635   2.516   0.656   3.913
 1497  SOL  HW2 4636   2.510   0.803   3.951
 1498  SOL   OW 4637   0.913   3.545   2.636
 1498  SOL  HW1 4638   0.867   3.573   2.715
 1498  SOL  HW2 4639   0.881   3.456   2.620
 1499  SOL   OW 4640   1.664   0.246   3.008
 1499  SOL  HW1 4641   1.646   0.160   3.046
 1499  SOL  HW2 4642   1.754   0.265   3.033
 1500  SOL   OW 4643   2.633   3.376   2.933
 1500  SOL  HW1 4644   2.583   3.339   2.860
 1500  SOL  HW2 4645   2.682   3.302   2.969
 1501  SOL   OW 4646   1.917   3.725   0.794
 1501  SOL  HW1 4647   1.937   3.645   0.746
 1501  SOL  HW2 4648   1.846   3.766   0.745
 1502  SOL   OW 4649   3.822   1.180   3.405
 1502  SOL  HW1 4650   3.891   1.188   3.339
 1502  SOL  HW2 4651   3.803   1.087   3.408
 1503  SOL   OW 4652   2.710   2.176   2.203
 1503  SOL  HW1 4653   2.780   2.127   2.158
 1503  SOL  HW2 4654   2.657   2.108   2.246
 1504  SOL   OW 4655   0.845   1.722   0.959
 1504  SOL  HW1 4656   0.846   1.666   0.881
 1504  SOL  HW2 4657   0.783   1.679   1.018
 1505  SOL   OW 4658   0.114   2.372   2.597
 1505  SOL  HW1 4659   0.090   2.460   2.570
 1505  SOL  HW2 4660   0.191   2.351   2.544
 1506  SOL   OW 4661   3.318   0.235   0.393
 1506  SOL  HW1 4662   3.388   0.297   0.413
 1506  SOL  HW2 4663   3.363   0.153   0.375
 1507  SOL   OW 4664   3.515   3.952   2.250
 1507  SOL  HW1 4665   3.522   3.859   2.230
 1507  SOL  HW2 4666   3.420   3.969   2.250
 1508  SOL   OW 4667   2.262   3.812   1.380
 1508  SOL  HW1 4668   2.250   3.818   1.286
 1508  SOL  HW2 4669   2.240   3.900   1.413
 1509  SOL   OW 4670   1.172   0.082   1.442
 1509  SOL  HW1 4671   1.248   0.141   1.448
 1509  SOL  HW2 4672   1.171   0.054   1.350
 1510  SOL   OW 4673   1.816   1.998   3.549
 1510  SOL  HW1 4674   1.776   1.926   3.597
 1510  SOL  HW2 4675   1.742   2.053   3.522
 1511  SOL   OW 4676   3.309   2.928   1.835
 1511  SOL  HW1 4677   3.232   2.887   1.795
 1511  SOL  HW2 4678   3.278   3.015   1.862
 1512  SOL   OW 4679   3.452   2.231   3.277
 1512  SOL  HW1 4680   3.546   2.239   3.293
 1512  SOL  HW2 4681   3.411   2.261   3.357
 1513  SOL   OW 4682   1.067   2.121   0.134
 1513  SOL  HW1 4683   1.043   2.183   0.203
 1513  SOL  HW2 4684   1.013   2.147   0.059
 1514  SOL   OW 4685   2.857   3.035   2.264
 1514  SOL  HW1 4686   2.850   2.941   2.248
 1514  SOL  HW2 4687   2.952   3.052   2.262
 1515  SOL   OW 4688   2.104   1.841   1.899
 1515  SOL  HW1 4689   2.108   1.904   1.828
 1515  SOL  HW2 4690   2.195   1.821   1.919
 1516  SOL   OW 4691   3.023   1.075   2.351
 1516  SOL  HW1 4692   3.055   1.121   2.274
 1516  SOL  HW2 4693   2.987   0.993   2.317
 1517  SOL   OW 4694   2.687   2.371   0.603
 1517  SOL  HW1 4695   2.749   2.409   0.541
 1517  SOL  HW2 4696   2.603   2.373   0.557
 1518  SOL   OW 4697   0.003   1.188   2.165
 1518  SOL  HW1 4698  -0.035   1.186   2.077
 1518  SOL  HW2 4699   0.097   1.199   2.151
 1519  SOL   OW 4700   2.619   2.143   3.692
 1519  SOL  HW1 4701   2.593   2.199   3.766
 1519  SOL  HW2 4702   2.543   2.142   3.635
 1520  SOL   OW 4703   2.984   2.284   3.748
 1520  SOL  HW1 4704   2.937   2.287   3.664
 1520  SOL  HW2 4705   3.050   2.353   3.740
 1521  SOL   OW 4706   1.105   3.330   0.584
 1521  SOL  HW1 4707   1.101   3.423   0.605
 1521  SOL  HW2 4708   1.156   3.292   0.655
 1522  SOL   OW 4709   3.603   0.948   1.110
 1522  SOL  HW1 4710   3.515   0.947   1.074
 1522  SOL  HW2 4711   3.627   1.040   1.114
 1523  SOL   OW 4712   3.690   3.576   3.894
 1523  SOL  HW1 4713   3.676   3.600   3.802
 1523  SOL  HW2 4714   3.620   3.514   3.913
 1524  SOL   OW 4715   3.518   1.607   1.499
 1524  SOL  HW1 4716   3.599   1.563   1.523
 1524  SOL  HW2 4717   3.547   1.682   1.446
 1525  SOL   OW 4718   0.235   0.300   1.212
 1525  SOL  HW1 4719   0.206   0.306   1.121
 1525  SOL  HW2 4720   0.297   0.227   1.212
 1526  SOL   OW 4721   2.355   1.295   0.642
 1526  SOL  HW1 4722   2.282   1.296   0.704
 1526  SOL  HW2 4723   2.411   1.224   0.672
 1527  SOL   OW 4724   3.910   0.917   3.430
 1527  SOL  HW1 4725   3.999   0.921   3.464
 1527  SOL  HW2 4726   3.920   0.890   3.338
 1528  SOL   OW 4727   3.007   2.631   2.123
 1528  SOL  HW1 4728   3.050   2.577   2.188
 1528  SOL  HW2 4729   3.077   2.657   2.063
 1529  SOL   OW 4730   0.469   2.872   2.741
 1529  SOL  HW1 4731   0.559   2.866   2.710
 1529  SOL  HW2 4732   0.472   2.846   2.833
 1530  SOL   OW 4733   1.169   0.796   1.906
 1530  SOL  HW1 4734   1.143   0.713   1.866
 1530  SOL  HW2 4735   1.262   0.805   1.883
 1531  SOL   OW 4736   1.892   2.678  -0.028
 1531  SOL  HW1 4737   1.929   2.634   0.048
 1531  SOL  HW2 4738   1.799   2.691  -0.006
 1532  SOL   OW 4739   0.041   1.264   0.577
 1532  SOL  HW1 4740  -0.032   1.316   0.542
 1532  SOL  HW2 4741   0.008   1.174   0.577
 1533  SOL   OW 4742   2.814   3.144   0.818
 1533  SOL  HW1 4743   2.872   3.219   0.826
 1533  SOL  HW2 4744   2.783   3.147   0.727
 1534  SOL   OW 4745   0.239   3.285   1.764
 1534  SOL  HW1 4746   0.274   3.269   1.676
 1534  SOL  HW2 4747   0.236   3.380   1.773
 1535  SOL   OW 4748   1.790   1.417   3.477
 1535  SOL  HW1 4749   1.841   1.495   3.457
 1535  SOL  HW2 4750   1.743   1.439   3.558
 1536  SOL   OW 4751   3.701   0.375   3.760
 1536  SOL  HW1 4752   3.786   0.356   3.723
 1536  SOL  HW2 4753   3.655   0.291   3.762
 1537  SOL   OW 4754   3.072   3.835   3.870
 1537  SOL  HW1 4755   3.090   3.920   3.832
 1537  SOL  HW2 4756   3.109   3.839   3.958
 1538  SOL   OW 4757   2.332   3.325   0.406
 1538  SOL  HW1 4758   2.348   3.345   0.498
 1538  SOL  HW2 4759   2.308   3.409   0.367
 1539  SOL   OW 4760   2.299   1.839   2.574
 1539  SOL  HW1 4761   2.263   1.758   2.538
 1539  SOL  HW2 4762   2.236   1.907   2.548
 1540  SOL   OW 4763   3.977   0.384   2.022
 1540  SOL  HW1 4764   3.946   0.310   2.075
 1540  SOL  HW2 4765   4.055   0.415   2.068
 1541  SOL   OW 4766   0.562   2.880   1.037
 1541  SOL  HW1 4767   0.513   2.846   1.112
 1541  SOL  HW2 4768   0.498   2.928   0.986
 1542  SOL   OW 4769   0.427   0.758   2.323
 1542  SOL  HW1 4770   0.344   0.784   2.284
 1542  SOL  HW2 4771   0.436   0.813   2.401
 1543  SOL   OW 4772   2.362   2.652   1.794
 1543  SOL  HW1 4773   2.318   2.579   1.837
 1543  SOL  HW2 4774   2.413   2.611   1.724
 1544  SOL   OW 4775   2.951   0.846   3.490
 1544  SOL  HW1 4776   2.910   0.923   3.451
 1544  SOL  HW2 4777   2.916   0.772   3.440
 1545  SOL   OW 4778   1.501   3.399   3.652
 1545  SOL  HW1 4779   1.444   3.367   3.583
 1545  SOL  HW2 4780   1.441   3.434   3.719
 1546  SOL   OW 4781   1.441   0.541   1.510
 1546  SOL  HW1 4782   1.446   0.536   1.414
 1546  SOL  HW2 4783   1.368   0.484   1.533
 1547  SOL   OW 4784   0.289   3.012   1.349
 1547  SOL  HW1 4785   0.357   2.996   1.414
 1547  SOL  HW2 4786   0.224   2.944   1.365
 1548  SOL   OW 4787   1.593   1.615   2.530
 1548  SOL  HW1 4788   1.548   1.548   2.582
 1548  SOL  HW2 4789   1.605   1.575   2.444
 1549  SOL   OW 4790   1.079   1.426   0.953
 1549  SOL  HW1 4791   1.054   1.503   0.903
 1549  SOL  HW2 4792   1.099   1.459   1.040
 1550  SOL   OW 4793   3.275   3.176   1.136
 1550  SOL  HW1 4794   3.317   3.261   1.149
 1550  SOL  HW2 4795   3.299   3.125   1.214
 1551  SOL   OW 4796   1.700   3.093   1.500
 1551  SOL  HW1 4797   1.784   3.061   1.534
 1551  SOL  HW2 4798   1.665   3.148   1.570
 1552  SOL   OW 4799   0.495   1.141   1.290
 1552  SOL  HW1 4800   0.400   1.142   1.301
 1552  SOL  HW2 4801   0.514   1.054   1.256
 1553  SOL   OW 4802   0.157   2.312   3.621
 1553  SOL  HW1 4803   0.134   2.294   3.712
 1553  SOL  HW2 4804   0.213   2.239   3.595
 1554  SOL   OW 4805   2.029   0.193   0.418
 1554  SOL  HW1 4806   2.113   0.228   0.446
 1554  SOL  HW2 4807   1.965   0.258   0.446
 1555  SOL   OW 4808   3.289   2.973   3.329
 1555  SOL  HW1 4809   3.255   2.944   3.245
 1555  SOL  HW2 4810   3.256   3.062   3.339
 1556  SOL   OW 4811   0.347   2.501   1.379
 1556  SOL  HW1 4812   0.358   2.409   1.353
 1556  SOL  HW2 4813   0.275   2.499   1.442
 1557  SOL   OW 4814   1.352   2.523   3.316
 1557  SOL  HW1 4815   1.384   2.440   3.353
 1557  SOL  HW2 4816   1.336   2.579   3.392
 1558  SOL   OW 4817   3.476   3.871   3.636
 1558  SOL  HW1 4818   3.528   3.818   3.697
 1558  SOL  HW2 4819   3.407   3.812   3.605
 1559  SOL   OW 4820   2.052   0.079   0.717
 1559  SOL  HW1 4821   2.065   0.084   0.622
 1559  SOL  HW2 4822   2.022   0.167   0.741
 1560  SOL   OW 4823   2.684   0.477   0.108
 1560  SOL  HW1 4824   2.591   0.500   0.105
 1560  SOL  HW2 4825   2.692   0.419   0.183
 1561  SOL   OW 4826   0.794   0.780   2.793
 1561  SOL  HW1 4827   0.802   0.863   2.839
 1561  SOL  HW2 4828   0.880   0.739   2.801
 1562  SOL   OW 4829   0.313   0.590   0.690
 1562  SOL  HW1 4830   0.229   0.543   0.695
 1562  SOL  HW2 4831   0.292   0.678   0.722
 1563  SOL   OW 4832   3.909   3.788   1.459
 1563  SOL  HW1 4833   3.844   3.724   1.431
 1563  SOL  HW2 4834   3.872   3.827   1.538
 1564  SOL   OW 4835   3.101   2.923   1.393
 1564  SOL  HW1 4836   3.057   2.993   1.441
 1564  SOL  HW2 4837   3.183   2.962   1.364
 1565  SOL   OW 4838   0.594   1.564   3.391
 1565  SOL  HW1 4839   0.589   1.547   3.486
 1565  SOL  HW2 4840   0.635   1.650   3.385
 1566  SOL   OW 4841   1.689   3.308   3.826
 1566  SOL  HW1 4842   1.705   3.214   3.820
 1566  SOL  HW2 4843   1.622   3.325   3.759
 1567  SOL   OW 4844   3.425   0.849   3.769
 1567  SOL  HW1 4845   3.362   0.892   3.826
 1567  SOL  HW2 4846   3.404   0.755   3.775
 1568  SOL   OW 4847   2.467   1.218   1.407
 1568  SOL  HW1 4848   2.485   1.219   1.313
 1568  SOL  HW2 4849   2.410   1.294   1.421
 1569  SOL   OW 4850   3.960   1.394   2.713
 1569  SOL  HW1 4851   3.993   1.479   2.743
 1569  SOL  HW2 4852   3.920   1.355   2.791
 1570  SOL   OW 4853   1.032   0.074   2.385
 1570  SOL  HW1 4854   0.940   0.069   2.410
 1570  SOL  HW2 4855   1.053   0.167   2.391
 1571  SOL   OW 4856   0.790   0.050   1.726
 1571  SOL  HW1 4857   0.741   0.012   1.654
 1571  SOL  HW2 4858   0.877   0.012   1.719
 1572  SOL   OW 4859   2.364   1.085   3.564
 1572  SOL  HW1 4860   2.456   1.068   3.582
 1572  SOL  HW2 4861   2.327   1.000   3.542
 1573  SOL   OW 4862   3.311   0.571   2.617
 1573  SOL  HW1 4863   3.287   0.615   2.698
 1573  SOL  HW2 4864   3.336   0.482   2.645
 1574  SOL   OW 4865   0.849   1.896   2.726
 1574  SOL  HW1 4866   0.860   1.822   2.786
 1574  SOL  HW2 4867   0.858   1.858   2.639
 1575  SOL   OW 4868   3.143   1.724   0.969
 1575  SOL  HW1 4869   3.145   1.662   1.042
 1575  SOL  HW2 4870   3.052   1.725   0.942
 1576  SOL   OW 4871   0.877   3.112   1.980
 1576  SOL  HW1 4872   0.918   3.037   1.937
 1576  SOL  HW2 4873   0.797   3.077   2.020
 1577  SOL   OW 4874   3.749   1.055   3.715
 1577  SOL  HW1 4875   3.800   0.981   3.746
 1577  SOL  HW2 4876   3.732   1.107   3.793
 1578  SOL   OW 4877   0.588   3.477   2.373
 1578  SOL  HW1 4878   0.509   3.512   2.416
 1578  SOL  HW2 4879   0.601   3.392   2.415
 1579  SOL   OW 4880   0.822   1.440   1.153
 1579  SOL  HW1 4881   0.867   1.456   1.236
 1579  SOL  HW2 4882   0.892   1.422   1.091
 1580  SOL   OW 4883   3.668   2.491   1.705
 1580  SOL  HW1 4884   3.617   2.572   1.706
 1580  SOL  HW2 4885   3.614   2.428   1.658
 1581  SOL   OW 4886   0.269   2.677   2.810
 1581  SOL  HW1 4887   0.257   2.646   2.900
 1581  SOL  HW2 4888   0.356   2.717   2.811
 1582  SOL   OW 4889   2.003   0.811   3.788
 1582  SOL  HW1 4890   1.943   0.776   3.722
 1582  SOL  HW2 4891   1.949   0.870   3.841
 1583  SOL   OW 4892   3.072   2.313   0.400
 1583  SOL  HW1 4893   3.119   2.292   0.480
 1583  SOL  HW2 4894   3.071   2.409   0.397
 1584  SOL   OW 4895   2.580   3.419   2.237
 1584  SOL  HW1 4896   2.490   3.393   2.216
 1584  SOL  HW2 4897   2.605   3.360   2.309
 1585  SOL   OW 4898   1.244   0.617   3.356
 1585  SOL  HW1 4899   1.168   0.676   3.353
 1585  SOL  HW2 4900   1.261   0.604   3.449
 1586  SOL   OW 4901   2.210   1.289   0.886
 1586  SOL  HW1 4902   2.130   1.261   0.842
 1586  SOL  HW2 4903   2.186   1.369   0.932
 1587  SOL   OW 4904   2.476   2.652   2.778
 1587  SOL  HW1 4905   2.498   2.573   2.730
 1587  SOL  HW2 4906   2.492   2.724   2.716
 1588  SOL   OW 4907   3.172   3.200   2.535
 1588  SOL  HW1 4908   3.191   3.239   2.620
 1588  SOL  HW2 4909   3.156   3.107   2.554
 1589  SOL   OW 4910   0.342   2.122   2.120
 1589  SOL  HW1 4911   0.319   2.186   2.053
 1589  SOL  HW2 4912   0.260   2.077   2.139
 1590  SOL   OW 4913   1.576   0.040   0.512
 1590  SOL  HW1 4914   1.546   0.130   0.495
 1590  SOL  HW2 4915   1.642   0.050   0.581
 1591  SOL   OW 4916   0.778   2.000   0.280
 1591  SOL  HW1 4917   0.767   1.929   0.218
 1591  SOL  HW2 4918   0.775   2.080   0.226
 1592  SOL   OW 4919   3.013   1.277   3.638
 1592  SOL  HW1 4920   2.942   1.222   3.670
 1592  SOL  HW2 4921   3.091   1.244   3.683
 1593  SOL   OW 4922   3.725   3.183   1.478
 1593  SOL  HW1 4923   3.753   3.274   1.488
 1593  SOL  HW2 4924   3.732   3.166   1.384
 1594  SOL   OW 4925   0.221   1.370   1.889
 1594  SOL  HW1 4926   0.254   1.284   1.914
 1594  SOL  HW2 4927   0.278   1.432   1.934
 1595  SOL   OW 4928   2.679   2.303   2.597
 1595  SOL  HW1 4929   2.647   2.341   2.679
 1595  SOL  HW2 4930   2.609   2.318   2.534
 1596  SOL   OW 4931   1.834   1.664   0.380
 1596  SOL  HW1 4932   1.742   1.648   0.397
 1596  SOL  HW2 4933   1.880   1.597   0.431
 1597  SOL   OW 4934   0.589   3.080   3.188
 1597  SOL  HW1 4935   0.516   3.059   3.246
 1597  SOL  HW2 4936   0.656   3.015   3.209
 1598  SOL   OW 4937   0.121   1.974   2.413
 1598  SOL  HW1 4938   0.162   1.894   2.379
 1598  SOL  HW2 4939   0.155   1.982   2.503
 1599  SOL   OW 4940   0.232   0.325   0.037
 1599  SOL  HW1 4941   0.194   0.238   0.023
 1599  SOL  HW2 4942   0.298   0.311   0.106
 1600  SOL   OW 4943   0.306   3.513   1.156
 1600  SOL  HW1 4944   0.357   3.503   1.237
 1600  SOL  HW2 4945   0.220   3.542   1.186
 1601  SOL   OW 4946   3.434   0.478   3.355
 1601  SOL  HW1 4947   3.482   0.559   3.374
 1601  SOL  HW2 4948   3.452   0.461   3.263
 1602  SOL   OW 4949   1.627   0.297   2.059
 1602  SOL  HW1 4950   1.641   0.317   2.152
 1602  SOL  HW2 4951   1.677   0.364   2.013
 1603  SOL   OW 4952   1.776   0.469   0.209
 1603  SOL  HW1 4953   1.792   0.562   0.195
 1603  SOL  HW2 4954   1.823   0.425   0.138
 1604  SOL   OW 4955   0.484   1.162   2.961
 1604  SOL  HW1 4956   0.406   1.136   2.913
 1604  SOL  HW2 4957   0.457   1.236   3.014
 1605  SOL   OW 4958   0.651   1.723   2.842
 1605  SOL  HW1 4959   0.564   1.697   2.810
 1605  SOL  HW2 4960   0.692   1.641   2.868
 1606  SOL   OW 4961   3.865   2.110   2.589
 1606  SOL  HW1 4962   3.921   2.146   2.520
 1606  SOL  HW2 4963   3.808   2.183   2.615
 1607  SOL   OW 4964   1.822   3.630   1.495
 1607  SOL  HW1 4965   1.888   3.663   1.433
 1607  SOL  HW2 4966   1.765   3.574   1.441
 1608  SOL   OW 4967   0.741   2.620   2.311
 1608  SOL  HW1 4968   0.686   2.594   2.237
 1608  SOL  HW2 4969   0.680   2.637   2.382
 1609  SOL   OW 4970   2.628   3.863   0.976
 1609  SOL  HW1 4971   2.551   3.852   0.921
 1609  SOL  HW2 4972   2.609   3.811   1.054
 1610  SOL   OW 4973   0.133   2.405   0.677
 1610  SOL  HW1 4974   0.189   2.373   0.748
 1610  SOL  HW2 4975   0.074   2.332   0.657
 1611  SOL   OW 4976   2.311   1.890   1.188
 1611  SOL  HW1 4977   2.282   1.827   1.253
 1611  SOL  HW2 4978   2.301   1.845   1.104
 1612  SOL   OW 4979   3.227   1.236   1.585
 1612  SOL  HW1 4980   3.196   1.196   1.504
 1612  SOL  HW2 4981   3.322   1.236   1.577
 1613  SOL   OW 4982   1.128   0.267   0.092
 1613  SOL  HW1 4983   1.096   0.221   0.014
 1613  SOL  HW2 4984   1.200   0.213   0.124
 1614  SOL   OW 4985   0.886   1.787   2.477
 1614  SOL  HW1 4986   0.980   1.773   2.473
 1614  SOL  HW2 4987   0.852   1.740   2.401
 1615  SOL   OW 4988   0.019   0.885   0.066
 1615  SOL  HW1 4989  -0.045   0.837   0.119
 1615  SOL  HW2 4990   0.059   0.947   0.126
 1616  SOL   OW 4991   2.109   2.004   0.355
 1616  SOL  HW1 4992   2.052   2.027   0.428
 1616  SOL  HW2 4993   2.050   1.972   0.287
 1617  SOL   OW 4994   2.638   0.896   2.745
 1617  SOL  HW1 4995   2.626   0.893   2.650
 1617  SOL  HW2 4996   2.701   0.966   2.760
 1618  SOL   OW 4997   1.089   1.153   2.308
 1618  SOL  HW1 4998   1.181   1.174   2.289
 1618  SOL  HW2 4999   1.069   1.080   2.248
 1619  SOL   OW 5000   1.081   3.203   3.206
 1619  SOL  HW1 5001   1.034   3.142   3.262
 1619  SOL  HW2 5002   1.129   3.260   3.266
 1620  SOL   OW 5003   1.269   1.162   2.985
 1620  SOL  HW1 5004   1.259   1.068   2.997
 1620  SOL  HW2 5005   1.189   1.189   2.939
 1621  SOL   OW 5006   1.378   0.425   3.211
 1621  SOL  HW1 5007   1.455   0.464   3.169
 1621  SOL  HW2 5008   1.338   0.497   3.259
 1622  SOL   OW 5009   1.342   2.771   2.304
 1622  SOL  HW1 5010   1.340   2.867   2.302
 1622  SOL  HW2 5011   1.253   2.746   2.327
 1623  SOL   OW 5012   1.937   0.849   2.862
 1623  SOL  HW1 5013   1.849   0.886   2.866
 1623  SOL  HW2 5014   1.982   0.887   2.937
 1624  SOL   OW 5015   1.277   3.459   0.291
 1624  SOL  HW1 5016   1.246   3.369   0.283
 1624  SOL  HW2 5017   1.291   3.471   0.386
 1625  SOL   OW 5018   1.780   3.884   3.758
 1625  SOL  HW1 5019   1.786   3.944   3.831
 1625  SOL  HW2 5020   1.778   3.797   3.798
 1626  SOL   OW 5021   3.435   0.561   3.834
 1626  SOL  HW1 5022   3.489   0.553   3.755
 1626  SOL  HW2 5023   3.345   0.547   3.803
 1627  SOL   OW 5024   3.157   3.220   0.227
 1627  SOL  HW1 5025   3.062   3.231   0.234
 1627  SOL  HW2 5026   3.193   3.288   0.285
 1628  SOL   OW 5027   3.786   3.738   2.715
 1628  SOL  HW1 5028   3.805   3.705   2.627
 1628  SOL  HW2 5029   3.786   3.660   2.771
 1629  SOL   OW 5030   0.045   1.803   1.302
 1629  SOL  HW1 5031   0.022   1.776   1.213
 1629  SOL  HW2 5032   0.128   1.760   1.320
 1630  SOL   OW 5033   2.436   2.746   0.747
 1630  SOL  HW1 5034   2.424   2.824   0.801
 1630  SOL  HW2 5035   2.526   2.719   0.762
 1631  SOL   OW 5036   4.012   2.364   2.984
 1631  SOL  HW1 5037   3.926   2.338   2.950
 1631  SOL  HW2 5038   4.074   2.309   2.936
 1632  SOL   OW 5039   3.023   3.376   1.246
 1632  SOL  HW1 5040   3.010   3.355   1.339
 1632  SOL  HW2 5041   3.105   3.426   1.245
 1633  SOL   OW 5042   1.643   2.244   2.853
 1633  SOL  HW1 5043   1.594   2.326   2.845
 1633  SOL  HW2 5044   1.722   2.258   2.800
 1634  SOL   OW 5045   3.211   3.567   2.002
 1634  SOL  HW1 5046   3.187   3.644   2.054
 1634  SOL  HW2 5047   3.165   3.579   1.918
 1635  SOL   OW 5048   1.992   3.335   2.349
 1635  SOL  HW1 5049   1.980   3.424   2.384
 1635  SOL  HW2 5050   1.988   3.279   2.427
 1636  SOL   OW 5051   0.266   1.548   1.638
 1636  SOL  HW1 5052   0.298   1.503   1.716
 1636  SOL  HW2 5053   0.270   1.641   1.661
 1637  SOL   OW 5054   3.844   3.958   0.819
 1637  SOL  HW1 5055   3.919   3.925   0.770
 1637  SOL  HW2 5056   3.873   3.957   0.911
 1638  SOL   OW 5057   3.046   3.142   1.840
 1638  SOL  HW1 5058   2.955   3.169   1.829
 1638  SOL  HW2 5059   3.041   3.064   1.895
 1639  SOL   OW 5060   3.584   0.108   3.670
 1639  SOL  HW1 5061   3.525   0.033   3.663
 1639  SOL  HW2 5062   3.539   0.178   3.622
 1640  SOL   OW 5063   0.418   0.815   2.816
 1640  SOL  HW1 5064   0.493   0.779   2.862
 1640  SOL  HW2 5065   0.346   0.811   2.879
 1641  SOL   OW 5066   0.354   3.148   3.046
 1641  SOL  HW1 5067   0.439   3.104   3.046
 1641  SOL  HW2 5068   0.350   3.193   2.961
 1642  SOL   OW 5069   1.878   1.225   0.227
 1642  SOL  HW1 5070   1.804   1.241   0.169
 1642  SOL  HW2 5071   1.909   1.312   0.252
 1643  SOL   OW 5072   0.172   1.046   0.254
 1643  SOL  HW1 5073   0.164   1.015   0.344
 1643  SOL  HW2 5074   0.181   1.141   0.262
 1644  SOL   OW 5075   0.944   3.360   1.094
 1644  SOL  HW1 5076   0.930   3.371   1.188
 1644  SOL  HW2 5077   0.999   3.282   1.086
 1645  SOL   OW 5078   1.591   3.414   1.091
 1645  SOL  HW1 5079   1.608   3.364   1.011
 1645  SOL  HW2 5080   1.632   3.499   1.077
 1646  SOL   OW 5081   2.494   0.160   1.554
 1646  SOL  HW1 5082   2.434   0.105   1.605
 1646  SOL  HW2 5083   2.439   0.234   1.525
 1647  SOL   OW 5084   3.099   0.882   1.993
 1647  SOL  HW1 5085   3.129   0.912   1.908
 1647  SOL  HW2 5086   3.006   0.866   1.981
 1648  SOL   OW 5087   3.158   0.287   1.850
 1648  SOL  HW1 5088   3.087   0.225   1.835
 1648  SOL  HW2 5089   3.227   0.260   1.789
 1649  SOL   OW 5090   0.493   1.910   0.853
 1649  SOL  HW1 5091   0.453   1.840   0.905
 1649  SOL  HW2 5092   0.579   1.922   0.894
 1650  SOL   OW 5093   3.809   2.399   0.741
 1650  SOL  HW1 5094   3.730   2.356   0.773
 1650  SOL  HW2 5095   3.842   2.448   0.816
 1651  SOL   OW 5096   3.030   0.558   2.766
 1651  SOL  HW1 5097   2.943   0.593   2.782
 1651  SOL  HW2 5098   3.016   0.487   2.704
 1652  SOL   OW 5099   3.763   1.483   1.873
 1652  SOL  HW1 5100   3.789   1.572   1.896
 1652  SOL  HW2 5101   3.704   1.457   1.944
 1653  SOL   OW 5102   3.181   0.639   0.359
 1653  SOL  HW1 5103   3.245   0.636   0.430
 1653  SOL  HW2 5104   3.197   0.559   0.309
 1654  SOL   OW 5105   2.411   2.852   1.432
 1654  SOL  HW1 5106   2.501   2.856   1.398
 1654  SOL  HW2 5107   2.421   2.821   1.522
 1655  SOL   OW 5108   3.796   1.841   2.579
 1655  SOL  HW1 5109   3.813   1.935   2.585
 1655  SOL  HW2 5110   3.766   1.816   2.666
 1656  SOL   OW 5111   1.707   2.287   3.584
 1656  SOL  HW1 5112   1.792   2.268   3.624
 1656  SOL  HW2 5113   1.668   2.353   3.641
 1657  SOL   OW 5114   3.309   1.778   2.217
 1657  SOL  HW1 5115   3.269   1.718   2.279
 1657  SOL  HW2 5116   3.330   1.725   2.140
 1658  SOL   OW 5117   1.747   3.484   0.834
 1658  SOL  HW1 5118   1.723   3.574   0.857
 1658  SOL  HW2 5119   1.705   3.469   0.749
 1659  SOL   OW 5120   3.841   0.115   1.587
 1659  SOL  HW1 5121   3.880   0.169   1.656
 1659  SOL  HW2 5122   3.840   0.027   1.624
 1660  SOL   OW 5123   3.408   3.481   0.795
 1660  SOL  HW1 5124   3.333   3.505   0.848
 1660  SOL  HW2 5125   3.477   3.542   0.822
 1661  SOL   OW 5126   3.185   0.377   0.213
 1661  SOL  HW1 5127   3.221   0.317   0.279
 1661  SOL  HW2 5128   3.262   0.411   0.167
 1662  SOL   OW 5129   0.225   1.413   1.218
 1662  SOL  HW1 5130   0.232   1.465   1.298
 1662  SOL  HW2 5131   0.313   1.415   1.180
 1663  SOL   OW 5132   2.757   2.963   1.634
 1663  SOL  HW1 5133   2.796   3.000   1.555
 1663  SOL  HW2 5134   2.701   2.893   1.602
 1664  SOL   OW 5135   0.184   0.928   3.453
 1664  SOL  HW1 5136   0.208   0.857   3.394
 1664  SOL  HW2 5137   0.249   0.996   3.436
 1665  SOL   OW 5138   1.197   3.080   0.178
 1665  SOL  HW1 5139   1.196   2.994   0.222
 1665  SOL  HW2 5140   1.224   3.141   0.246
 1666  SOL   OW 5141   3.756   2.284   1.905
 1666  SOL  HW1 5142   3.840   2.262   1.865
 1666  SOL  HW2 5143   3.708   2.331   1.836
 1667  SOL   OW 5144   2.111   2.254   3.540
 1667  SOL  HW1 5145   2.079   2.175   3.498
 1667  SOL  HW2 5146   2.079   2.326   3.486
 1668  SOL   OW 5147   0.490   0.964   3.172
 1668  SOL  HW1 5148   0.582   0.955   3.199
 1668  SOL  HW2 5149   0.489   1.044   3.119
 1669  SOL   OW 5150   3.462   1.809   1.116
 1669  SOL  HW1 5151   3.397   1.872   1.084
 1669  SOL  HW2 5152   3.547   1.852   1.099
 1670  SOL   OW 5153   0.134   1.735   2.255
 1670  SOL  HW1 5154   0.055   1.743   2.309
 1670  SOL  HW2 5155   0.200   1.699   2.314
 1671  SOL   OW 5156   3.063   0.835   3.048
 1671  SOL  HW1 5157   3.006   0.912   3.060
 1671  SOL  HW2 5158   3.128   0.843   3.117
 1672  SOL   OW 5159   2.707   3.419   3.955
 1672  SOL  HW1 5160   2.745   3.462   4.032
 1672  SOL  HW2 5161   2.632   3.369   3.991
 1673  SOL   OW 5162   0.014   3.345   2.074
 1673  SOL  HW1 5163   0.011   3.333   2.169
 1673  SOL  HW2 5164   0.028   3.256   2.040
 1674  SOL   OW 5165   0.793   2.627   0.077
 1674  SOL  HW1 5166   0.845   2.566   0.025
 1674  SOL  HW2 5167   0.714   2.578   0.099
 1675  SOL   OW 5168   2.977   1.682   1.824
 1675  SOL  HW1 5169   2.955   1.721   1.740
 1675  SOL  HW2 5170   3.028   1.604   1.802
 1676  SOL   OW 5171   0.279   3.593   2.857
 1676  SOL  HW1 5172   0.232   3.637   2.787
 1676  SOL  HW2 5173   0.369   3.626   2.850
 1677  SOL   OW 5174   2.171   1.556   3.583
 1677  SOL  HW1 5175   2.207   1.614   3.650
 1677  SOL  HW2 5176   2.209   1.470   3.602
 1678  SOL   OW 5177   1.246   3.351   1.742
 1678  SOL  HW1 5178   1.262   3.445   1.730
 1678  SOL  HW2 5179   1.316   3.308   1.693
 1679  SOL   OW 5180   3.135   2.430   2.287
 1679  SOL  HW1 5181   3.053   2.426   2.337
 1679  SOL  HW2 5182   3.200   2.390   2.344
 1680  SOL   OW 5183   0.990   3.806   3.796
 1680  SOL  HW1 5184   0.930   3.751   3.746
 1680  SOL  HW2 5185   1.049   3.843   3.731
 1681  SOL   OW 5186   3.473   0.996   3.297
 1681  SOL  HW1 5187   3.487   0.974   3.389
 1681  SOL  HW2 5188   3.516   1.081   3.286
 1682  SOL   OW 5189   0.030   2.788   2.071
 1682  SOL  HW1 5190  -0.063   2.805   2.056
 1682  SOL  HW2 5191   0.050   2.838   2.151
 1683  SOL   OW 5192   3.917   1.945   1.976
 1683  SOL  HW1 5193   3.845   1.970   1.917
 1683  SOL  HW2 5194   3.874   1.896   2.046
 1684  SOL   OW 5195   0.969   0.019   2.777
 1684  SOL  HW1 5196   1.022  -0.007   2.701
 1684  SOL  HW2 5197   1.026   0.077   2.827
 1685  SOL   OW 5198   1.197   0.142   3.361
 1685  SOL  HW1 5199   1.206   0.237   3.365
 1685  SOL  HW2 5200   1.138   0.126   3.288
 1686  SOL   OW 5201   0.270   1.969   3.851
 1686  SOL  HW1 5202   0.295   2.061   3.851
 1686  SOL  HW2 5203   0.204   1.962   3.783
 1687  SOL   OW 5204   1.397   2.246   1.537
 1687  SOL  HW1 5205   1.365   2.157   1.553
 1687  SOL  HW2 5206   1.456   2.264   1.610
 1688  SOL   OW 5207   0.091   2.791   0.931
 1688  SOL  HW1 5208   0.108   2.720   0.992
 1688  SOL  HW2 5209   0.174   2.841   0.929
 1689  SOL   OW 5210   3.042   1.120   0.613
 1689  SOL  HW1 5211   3.133   1.137   0.640
 1689  SOL  HW2 5212   3.048   1.041   0.559
 1690  SOL   OW 5213   0.439   0.929   2.559
 1690  SOL  HW1 5214   0.474   0.925   2.648
 1690  SOL  HW2 5215   0.502   0.983   2.511
 1691  SOL   OW 5216   3.251   0.722   3.472
 1691  SOL  HW1 5217   3.210   0.756   3.392
 1691  SOL  HW2 5218   3.268   0.630   3.454
 1692  SOL   OW 5219   3.229   3.257   3.356
 1692  SOL  HW1 5220   3.192   3.343   3.373
 1692  SOL  HW2 5221   3.224   3.247   3.261
 1693  SOL   OW 5222   1.283   0.359   3.848
 1693  SOL  HW1 5223   1.264   0.271   3.881
 1693  SOL  HW2 5224   1.374   0.374   3.873
 1694  SOL   OW 5225   2.028   0.451   1.485
 1694  SOL  HW1 5226   2.020   0.416   1.574
 1694  SOL  HW2 5227   1.997   0.541   1.491
 1695  SOL   OW 5228   3.901   1.071   1.526
 1695  SOL  HW1 5229   3.923   0.980   1.502
 1695  SOL  HW2 5230   3.972   1.123   1.490
 1696  SOL   OW 5231   3.937   2.878   3.103
 1696  SOL  HW1 5232   3.957   2.804   3.160
 1696  SOL  HW2 5233   3.842   2.876   3.092
 1697  SOL   OW 5234   0.121   3.903   2.414
 1697  SOL  HW1 5235   0.136   3.974   2.352
 1697  SOL  HW2 5236   0.042   3.929   2.462
 1698  SOL   OW 5237   2.410   3.212   3.663
 1698  SOL  HW1 5238   2.418   3.277   3.733
 1698  SOL  HW2 5239   2.386   3.264   3.586
 1699  SOL   OW 5240   2.996   0.495   1.949
 1699  SOL  HW1 5241   3.030   0.406   1.937
 1699  SOL  HW2 5242   3.075   0.550   1.954
 1700  SOL   OW 5243   1.893   2.475   3.786
 1700  SOL  HW1 5244   1.833   2.493   3.859
 1700  SOL  HW2 5245   1.951   2.551   3.784
 1701  SOL   OW 5246   0.668   1.989   3.960
 1701  SOL  HW1 5247   0.690   1.932   4.034
 1701  SOL  HW2 5248   0.680   1.934   3.883
 1702  SOL   OW 5249   1.551   1.489   3.826
 1702  SOL  HW1 5250   1.578   1.408   3.782
 1702  SOL  HW2 5251   1.457   1.478   3.840
 1703  SOL   OW 5252   1.075   1.018   0.329
 1703  SOL  HW1 5253   1.156   1.064   0.307
 1703  SOL  HW2 5254   1.046   0.979   0.246
 1704  SOL   OW 5255   1.548   1.534   1.599
 1704  SOL  HW1 5256   1.544   1.612   1.654
 1704  SOL  HW2 5257   1.624   1.485   1.632
 1705  SOL   OW 5258   0.287   0.931   0.506
 1705  SOL  HW1 5259   0.310   1.018   0.542
 1705  SOL  HW2 5260   0.213   0.903   0.559
 1706  SOL   OW 5261   2.203   3.330   1.698
 1706  SOL  HW1 5262   2.261   3.333   1.623
 1706  SOL  HW2 5263   2.176   3.238   1.705
 1707  SOL   OW 5264   3.570   3.849   0.025
 1707  SOL  HW1 5265   3.578   3.754   0.027
 1707  SOL  HW2 5266   3.514   3.867  -0.050
 1708  SOL   OW 5267   2.500   3.746   3.242
 1708  SOL  HW1 5268   2.487   3.692   3.164
 1708  SOL  HW2 5269   2.422   3.800   3.249
 1709  SOL   OW 5270   1.562   1.552   0.159
 1709  SOL  HW1 5271   1.615   1.573   0.082
 1709  SOL  HW2 5272   1.533   1.637   0.192
 1710  SOL   OW 5273   1.414   1.411   0.892
 1710  SOL  HW1 5274   1.460   1.341   0.938
 1710  SOL  HW2 5275   1.329   1.417   0.936
 1711  SOL   OW 5276   1.613   1.731   2.778
 1711  SOL  HW1 5277   1.602   1.703   2.688
 1711  SOL  HW2 5278   1.708   1.740   2.789
 1712  SOL   OW 5279   3.908   1.785   3.463
 1712  SOL  HW1 5280   3.864   1.706   3.495
 1712  SOL  HW2 5281   3.876   1.796   3.373
 1713  SOL   OW 5282   3.612   2.004   2.165
 1713  SOL  HW1 5283   3.638   1.912   2.157
 1713  SOL  HW2 5284   3.518   2.000   2.182
 1714  SOL   OW 5285   3.851   1.048   0.615
 1714  SOL  HW1 5286   3.858   1.002   0.699
 1714  SOL  HW2 5287   3.781   1.112   0.629
 1715  SOL   OW 5288   2.083   2.651   2.260
 1715  SOL  HW1 5289   2.082   2.618   2.349
 1715  SOL  HW2 5290   1.991   2.668   2.239
 1716  SOL   OW 5291   3.315   0.240   3.925
 1716  SOL  HW1 5292   3.266   0.168   3.965
 1716  SOL  HW2 5293   3.248   0.303   3.899
 1717  SOL   OW 5294   3.365   1.216   3.436
 1717  SOL  HW1 5295   3.325   1.132   3.416
 1717  SOL  HW2 5296   3.381   1.212   3.530
 1718  SOL   OW 5297   1.485   2.934   0.352
 1718  SOL  HW1 5298   1.557   2.944   0.414
 1718  SOL  HW2 5299   1.443   3.020   0.349
 1719  SOL   OW 5300   3.572   1.071   0.112
 1719  SOL  HW1 5301   3.650   1.127   0.119
 1719  SOL  HW2 5302   3.524   1.108   0.037
 1720  SOL   OW 5303   2.383   2.068   2.714
 1720  SOL  HW1 5304   2.394   1.984   2.671
 1720  SOL  HW2 5305   2.455   2.073   2.777
 1721  SOL   OW 5306   0.267   3.026   0.153
 1721  SOL  HW1 5307   0.325   2.955   0.179
 1721  SOL  HW2 5308   0.319   3.076   0.089
 1722  SOL   OW 5309   2.059   0.382   2.678
 1722  SOL  HW1 5310   2.020   0.467   2.661
 1722  SOL  HW2 5311   2.067   0.377   2.773
 1723  SOL   OW 5312   3.652   1.670   3.055
 1723  SOL  HW1 5313   3.630   1.748   3.106
 1723  SOL  HW2 5314   3.570   1.647   3.011
 1724  SOL   OW 5315   0.883   3.121   0.269
 1724  SOL  HW1 5316   0.855   3.031   0.251
 1724  SOL  HW2 5317   0.813   3.175   0.231
 1725  SOL   OW 5318   1.906   2.134   1.468
 1725  SOL  HW1 5319   1.895   2.226   1.446
 1725  SOL  HW2 5320   1.893   2.088   1.385
 1726  SOL   OW 5321   3.194   2.429   2.869
 1726  SOL  HW1 5322   3.273   2.416   2.921
 1726  SOL  HW2 5323   3.206   2.513   2.827
 1727  SOL   OW 5324   1.428   3.094   3.018
 1727  SOL  HW1 5325   1.469   3.168   2.975
 1727  SOL  HW2 5326   1.404   3.127   3.105
 1728  SOL   OW 5327   2.439   0.342   1.121
 1728  SOL  HW1 5328   2.490   0.352   1.201
 1728  SOL  HW2 5329   2.504   0.333   1.051
 1729  SOL   OW 5330   0.207   3.414   2.548
 1729  SOL  HW1 5331   0.283   3.470   2.564
 1729  SOL  HW2 5332   0.174   3.393   2.635
 1730  SOL   OW 5333   3.779   2.211   0.471
 1730  SOL  HW1 5334   3.745   2.133   0.428
 1730  SOL  HW2 5335   3.739   2.211   0.557
 1731  SOL   OW 5336   0.023   3.699   3.318
 1731  SOL  HW1 5337  -0.067   3.668   3.307
 1731  SOL  HW2 5338   0.073   3.652   3.252
 1732  SOL   OW 5339   2.961   2.784   3.060
 1732  SOL  HW1 5340   2.921   2.759   3.143
 1732  SOL  HW2 5341   3.055   2.783   3.078
 1733  SOL   OW 5342   3.007   1.040   1.712
 1733  SOL  HW1 5343   2.988   0.952   1.682
 1733  SOL  HW2 5344   2.923   1.075   1.742
 1734  SOL   OW 5345   0.970   1.265   3.262
 1734  SOL  HW1 5346   0.903   1.232   3.321
 1734  SOL  HW2 5347   0.985   1.194   3.200
 1735  SOL   OW 5348  -0.012   0.703   2.356
 1735  SOL  HW1 5349   0.069   0.721   2.404
 1735  SOL  HW2 5350  -0.026   0.781   2.302
 1736  SOL   OW 5351   0.838   2.115   0.750
 1736  SOL  HW1 5352   0.761   2.173   0.748
 1736  SOL  HW2 5353   0.844   2.080   0.661
 1737  SOL   OW 5354   1.730   3.623   3.366
 1737  SOL  HW1 5355   1.639   3.643   3.344
 1737  SOL  HW2 5356   1.725   3.546   3.423
 1738  SOL   OW 5357   2.890   1.731   3.570
 1738  SOL  HW1 5358   2.894   1.783   3.490
 1738  SOL  HW2 5359   2.926   1.646   3.545
 1739  SOL   OW 5360   1.350   3.415   3.022
 1739  SOL  HW1 5361   1.389   3.452   3.102
 1739  SOL  HW2 5362   1.425   3.388   2.970
 1740  SOL   OW 5363   0.046   2.163   2.051
 1740  SOL  HW1 5364   0.010   2.083   2.012
 1740  SOL  HW2 5365   0.006   2.169   2.137
 1741  SOL   OW 5366   3.855   3.442   0.909
 1741  SOL  HW1 5367   3.834   3.348   0.912
 1741  SOL  HW2 5368   3.794   3.477   0.844
 1742  SOL   OW 5369   3.524   2.948   4.002
 1742  SOL  HW1 5370   3.531   3.016   4.068
 1742  SOL  HW2 5371   3.474   2.988   3.931
 1743  SOL   OW 5372   0.427   0.137   2.221
 1743  SOL  HW1 5373   0.435   0.188   2.141
 1743  SOL  HW2 5374   0.462   0.195   2.289
 1744  SOL   OW 5375   3.342   3.217   2.769
 1744  SOL  HW1 5376   3.329   3.168   2.851
 1744  SOL  HW2 5377   3.394   3.159   2.714
 1745  SOL   OW 5378   1.957   1.381   3.040
 1745  SOL  HW1 5379   2.032   1.400   3.096
 1745  SOL  HW2 5380   1.935   1.464   2.999
 1746  SOL   OW 5381   3.735   0.901   2.715
 1746  SOL  HW1 5382   3.673   0.946   2.659
 1746  SOL  HW2 5383   3.681   0.844   2.770
 1747  SOL   OW 5384   0.100   3.805   2.067
 1747  SOL  HW1 5385   0.044   3.767   2.134
 1747  SOL  HW2 5386   0.187   3.809   2.109
 1748  SOL   OW 5387   1.659   2.484   0.467
 1748  SOL  HW1 5388   1.681   2.462   0.558
 1748  SOL  HW2 5389   1.715   2.559   0.446
 1749  SOL   OW 5390   2.269   3.953   3.222
 1749  SOL  HW1 5391   2.295   4.037   3.260
 1749  SOL  HW2 5392   2.197   3.975   3.163
 1750  SOL   OW 5393   3.716   2.048   3.458
 1750  SOL  HW1 5394   3.802   2.021   3.490
 1750  SOL  HW2 5395   3.655   2.022   3.526
 1751  SOL   OW 5396   2.297   3.189   2.657
 1751  SOL  HW1 5397   2.386   3.217   2.680
 1751  SOL  HW2 5398   2.309   3.129   2.583
 1752  SOL   OW 5399   3.006   0.961   1.121
 1752  SOL  HW1 5400   2.941   1.028   1.101
 1752  SOL  HW2 5401   2.968   0.911   1.194
 1753  SOL   OW 5402   1.361   2.589   4.000
 1753  SOL  HW1 5403   1.401   2.502   4.007
 1753  SOL  HW2 5404   1.300   2.581   3.926
 1754  SOL   OW 5405   1.759   0.051   3.950
 1754  SOL  HW1 5406   1.755   0.075   4.043
 1754  SOL  HW2 5407   1.700   0.113   3.907
 1755  SOL   OW 5408   3.656   0.841   0.704
 1755  SOL  HW1 5409   3.690   0.753   0.722
 1755  SOL  HW2 5410   3.691   0.894   0.776
 1756  SOL   OW 5411   1.548   0.324   0.486
 1756  SOL  HW1 5412   1.477   0.355   0.543
 1756  SOL  HW2 5413   1.624   0.319   0.543
 1757  SOL   OW 5414   3.730   0.237   1.030
 1757  SOL  HW1 5415   3.719   0.143   1.039
 1757  SOL  HW2 5416   3.682   0.275   1.103
 1758  SOL   OW 5417   0.937   2.136   2.812
 1758  SOL  HW1 5418   0.981   2.189   2.745
 1758  SOL  HW2 5419   0.919   2.053   2.769
 1759  SOL   OW 5420   0.100   1.014   3.764
 1759  SOL  HW1 5421   0.182   0.974   3.791
 1759  SOL  HW2 5422   0.034   0.946   3.778
 1760  SOL   OW 5423   2.382   2.586   2.265
 1760  SOL  HW1 5424   2.402   2.663   2.211
 1760  SOL  HW2 5425   2.287   2.578   2.261
 1761  SOL   OW 5426   3.598   0.128   2.437
 1761  SOL  HW1 5427   3.627   0.203   2.385
 1761  SOL  HW2 5428   3.568   0.064   2.372
 1762  SOL   OW 5429   1.021   3.838   0.613
 1762  SOL  HW1 5430   1.101   3.795   0.643
 1762  SOL  HW2 5431   0.952   3.774   0.630
 1763  SOL   OW 5432   1.049   0.146   0.392
 1763  SOL  HW1 5433   1.131   0.134   0.441
 1763  SOL  HW2 5434   1.069   0.213   0.327
 1764  SOL   OW 5435   3.782   2.869   2.306
 1764  SOL  HW1 5436   3.807   2.942   2.250
 1764  SOL  HW2 5437   3.836   2.879   2.385
 1765  SOL   OW 5438   3.247   1.285   2.369
 1765  SOL  HW1 5439   3.209   1.223   2.431
 1765  SOL  HW2 5440   3.340   1.263   2.367
 1766  SOL   OW 5441   3.041   2.937   3.821
 1766  SOL  HW1 5442   3.075   2.953   3.909
 1766  SOL  HW2 5443   3.011   2.846   3.823
 1767  SOL   OW 5444   1.904   3.330   1.474
 1767  SOL  HW1 5445   1.970   3.261   1.469
 1767  SOL  HW2 5446   1.852   3.309   1.552
 1768  SOL   OW 5447   3.616   2.662   3.551
 1768  SOL  HW1 5448   3.639   2.667   3.644
 1768  SOL  HW2 5449   3.620   2.752   3.520
 1769  SOL   OW 5450   3.557   1.563   1.120
 1769  SOL  HW1 5451   3.487   1.511   1.158
 1769  SOL  HW2 5452   3.515   1.646   1.096
 1770  SOL   OW 5453   2.468   2.961   2.893
 1770  SOL  HW1 5454   2.423   2.939   2.812
 1770  SOL  HW2 5455   2.543   3.014   2.866
 1771  SOL   OW 5456   3.064   2.797   1.713
 1771  SOL  HW1 5457   2.993   2.774   1.653
 1771  SOL  HW2 5458   3.132   2.731   1.697
 1772  SOL   OW 5459   3.855   2.276   3.480
 1772  SOL  HW1 5460   3.766   2.271   3.515
 1772  SOL  HW2 5461   3.910   2.280   3.557
 1773  SOL   OW 5462   1.624   3.725   0.954
 1773  SOL  HW1 5463   1.687   3.796   0.946
 1773  SOL  HW2 5464   1.549   3.765   0.999
 1774  SOL   OW 5465   0.273   0.934   1.362
 1774  SOL  HW1 5466   0.333   0.903   1.294
 1774  SOL  HW2 5467   0.292   0.878   1.438
 1775  SOL   OW 5468   1.544   2.245   0.202
 1775  SOL  HW1 5469   1.455   2.257   0.233
 1775  SOL  HW2 5470   1.584   2.186   0.267
 1776  SOL   OW 5471   0.856   3.384   2.315
 1776  SOL  HW1 5472   0.778   3.426   2.278
 1776  SOL  HW2 5473   0.844   3.389   2.409
 1777  SOL   OW 5474   2.643   2.392   2.847
 1777  SOL  HW1 5475   2.729   2.385   2.889
 1777  SOL  HW2 5476   2.600   2.465   2.892
 1778  SOL   OW 5477   1.621   3.325   0.359
 1778  SOL  HW1 5478   1.681   3.260   0.320
 1778  SOL  HW2 5479   1.595   3.380   0.286
 1779  SOL   OW 5480   3.874   0.498   0.054
 1779  SOL  HW1 5481   3.860   0.504  -0.040
 1779  SOL  HW2 5482   3.890   0.588   0.081
 1780  SOL   OW 5483   0.802   3.689   3.648
 1780  SOL  HW1 5484   0.744   3.763   3.666
 1780  SOL  HW2 5485   0.845   3.712   3.565
 1781  SOL   OW 5486   0.171   3.633   0.093
 1781  SOL  HW1 5487   0.206   3.611   0.007
 1781  SOL  HW2 5488   0.083   3.597   0.095
 1782  SOL   OW 5489   0.086   3.224   3.514
 1782  SOL  HW1 5490   0.059   3.179   3.594
 1782  SOL  HW2 5491   0.087   3.317   3.536
 1783  SOL   OW 5492   0.580   0.620   2.666
 1783  SOL  HW1 5493   0.651   0.677   2.694
 1783  SOL  HW2 5494   0.502   0.677   2.668
 1784  SOL   OW 5495   3.198   0.031   1.461
 1784  SOL  HW1 5496   3.173   0.070   1.377
 1784  SOL  HW2 5497   3.168   0.095   1.526
 1785  SOL   OW 5498   2.569   0.236   3.663
 1785  SOL  HW1 5499   2.530   0.312   3.708
 1785  SOL  HW2 5500   2.495   0.176   3.649
 1786  SOL   OW 5501   1.535   2.520   1.940
 1786  SOL  HW1 5502   1.569   2.605   1.969
 1786  SOL  HW2 5503   1.445   2.518   1.973
 1787  SOL   OW 5504   0.680   2.825   1.991
 1787  SOL  HW1 5505   0.641   2.825   2.079
 1787  SOL  HW2 5506   0.774   2.821   2.006
 1788  SOL   OW 5507   0.757   0.322   1.750
 1788  SOL  HW1 5508   0.750   0.367   1.666
 1788  SOL  HW2 5509   0.738   0.231   1.730
 1789  SOL   OW 5510   0.948   2.218   2.554
 1789  SOL  HW1 5511   0.878   2.162   2.520
 1789  SOL  HW2 5512   0.940   2.299   2.503
 1790  SOL   OW 5513   0.190   3.892   0.164
 1790  SOL  HW1 5514   0.222   3.926   0.080
 1790  SOL  HW2 5515   0.190   3.797   0.152
 1791  SOL   OW 5516   2.875   3.659   1.267
 1791  SOL  HW1 5517   2.882   3.749   1.236
 1791  SOL  HW2 5518   2.878   3.666   1.363
 1792  SOL   OW 5519   0.387   2.354   3.247
 1792  SOL  HW1 5520   0.333   2.275   3.241
 1792  SOL  HW2 5521   0.468   2.331   3.203
 1793  SOL   OW 5522   2.525   3.351   0.150
 1793  SOL  HW1 5523   2.598   3.410   0.169
 1793  SOL  HW2 5524   2.526   3.287   0.222
 1794  SOL   OW 5525   0.451   2.387   3.641
 1794  SOL  HW1 5526   0.499   2.467   3.658
 1794  SOL  HW2 5527   0.363   2.416   3.619
 1795  SOL   OW 5528   2.332   1.033   2.786
 1795  SOL  HW1 5529   2.395   1.104   2.775
 1795  SOL  HW2 5530   2.309   1.035   2.879
 1796  SOL   OW 5531   2.518   2.674   0.142
 1796  SOL  HW1 5532   2.539   2.746   0.082
 1796  SOL  HW2 5533   2.423   2.673   0.147
 1797  SOL   OW 5534   1.633   3.389   2.671
 1797  SOL  HW1 5535   1.604   3.467   2.624
 1797  SOL  HW2 5536   1.591   3.316   2.624
 1798  SOL   OW 5537   1.619   1.160   3.304
 1798  SOL  HW1 5538   1.631   1.218   3.379
 1798  SOL  HW2 5539   1.526   1.168   3.282
 1799  SOL   OW 5540   3.426   1.627   1.993
 1799  SOL  HW1 5541   3.444   1.540   2.030
 1799  SOL  HW2 5542   3.366   1.610   1.920
 1800  SOL   OW 5543   1.324   2.828   1.128
 1800  SOL  HW1 5544   1.368   2.911   1.114
 1800  SOL  HW2 5545   1.336   2.780   1.046
 1801  SOL   OW 5546   1.653   2.808   0.837
 1801  SOL  HW1 5547   1.649   2.904   0.829
 1801  SOL  HW2 5548   1.566   2.784   0.869
 1802  SOL   OW 5549   2.905   0.798   2.249
 1802  SOL  HW1 5550   2.932   0.749   2.172
 1802  SOL  HW2 5551   2.876   0.883   2.214
 1803  SOL   OW 5552   2.871   2.754   0.004
 1803  SOL  HW1 5553   2.833   2.770   0.090
 1803  SOL  HW2 5554   2.866   2.659  -0.008
 1804  SOL   OW 5555   1.351   3.268   0.707
 1804  SOL  HW1 5556   1.294   3.222   0.768
 1804  SOL  HW2 5557   1.427   3.210   0.697
 1805  SOL   OW 5558   3.664   0.775   3.959
 1805  SOL  HW1 5559   3.647   0.845   4.023
 1805  SOL  HW2 5560   3.578   0.737   3.941
 1806  SOL   OW 5561   0.101   2.589   1.134
 1806  SOL  HW1 5562   0.174   2.528   1.127
 1806  SOL  HW2 5563   0.108   2.624   1.223
 1807  SOL   OW 5564   1.809   1.023   1.561
 1807  SOL  HW1 5565   1.735   0.990   1.613
 1807  SOL  HW2 5566   1.780   1.015   1.471
 1808  SOL   OW 5567   0.886   2.495   0.796
 1808  SOL  HW1 5568   0.917   2.417   0.841
 1808  SOL  HW2 5569   0.851   2.551   0.867
 1809  SOL   OW 5570   1.345   0.785   2.398
 1809  SOL  HW1 5571   1.405   0.854   2.369
 1809  SOL  HW2 5572   1.268   0.796   2.343
 1810  SOL   OW 5573   0.300   2.811   2.519
 1810  SOL  HW1 5574   0.348   2.870   2.576
 1810  SOL  HW2 5575   0.298   2.728   2.566
 1811  SOL   OW 5576   2.723   2.578   2.432
 1811  SOL  HW1 5577   2.802   2.551   2.479
 1811  SOL  HW2 5578   2.652   2.531   2.475
 1812  SOL   OW 5579   1.137   2.031   2.554
 1812  SOL  HW1 5580   1.166   2.027   2.463
 1812  SOL  HW2 5581   1.063   2.091   2.553
 1813  SOL   OW 5582   2.377   2.140   1.267
 1813  SOL  HW1 5583   2.337   2.149   1.353
 1813  SOL  HW2 5584   2.357   2.050   1.240
 1814  SOL   OW 5585   3.716   0.306   3.424
 1814  SOL  HW1 5586   3.717   0.347   3.337
 1814  SOL  HW2 5587   3.624   0.278   3.435
 1815  SOL   OW 5588   1.029   3.217   0.023
 1815  SOL  HW1 5589   1.083   3.167   0.084
 1815  SOL  HW2 5590   0.941   3.212   0.059
 1816  SOL   OW 5591   3.351   3.445   1.187
 1816  SOL  HW1 5592   3.303   3.488   1.257
 1816  SOL  HW2 5593   3.438   3.427   1.223
 1817  SOL   OW 5594   0.556   3.429   0.327
 1817  SOL  HW1 5595   0.618   3.361   0.351
 1817  SOL  HW2 5596   0.476   3.408   0.376
 1818  SOL   OW 5597   1.878   3.309   0.620
 1818  SOL  HW1 5598   1.935   3.379   0.589
 1818  SOL  HW2 5599   1.790   3.347   0.616
 1819  SOL   OW 5600   3.075   0.028   2.227
 1819  SOL  HW1 5601   3.130   0.106   2.228
 1819  SOL  HW2 5602   2.987   0.060   2.247
 1820  SOL   OW 5603   0.306   3.955   3.582
 1820  SOL  HW1 5604   0.216   3.930   3.604
 1820  SOL  HW2 5605   0.306   4.050   3.586
 1821  SOL   OW 5606   2.910   0.976   2.562
 1821  SOL  HW1 5607   2.955   1.013   2.486
 1821  SOL  HW2 5608   2.832   0.934   2.525
 1822  SOL   OW 5609   1.992   0.644   3.181
 1822  SOL  HW1 5610   2.088   0.644   3.179
 1822  SOL  HW2 5611   1.968   0.733   3.158
 1823  SOL   OW 5612   2.908   2.398   2.544
 1823  SOL  HW1 5613   2.915   2.449   2.624
 1823  SOL  HW2 5614   2.821   2.358   2.549
 1824  SOL   OW 5615   0.540   2.992   1.801
 1824  SOL  HW1 5616   0.612   3.054   1.790
 1824  SOL  HW2 5617   0.584   2.909   1.818
 1825  SOL   OW 5618  -0.013   3.067   1.959
 1825  SOL  HW1 5619  -0.007   3.049   1.865
 1825  SOL  HW2 5620   0.037   2.997   2.000
 1826  SOL   OW 5621   2.551   2.416   3.407
 1826  SOL  HW1 5622   2.497   2.345   3.441
 1826  SOL  HW2 5623   2.577   2.387   3.320
 1827  SOL   OW 5624   1.989   0.735   1.519
 1827  SOL  HW1 5625   2.071   0.777   1.492
 1827  SOL  HW2 5626   1.926   0.807   1.526
 1828  SOL   OW 5627   1.676   2.911   0.012
 1828  SOL  HW1 5628   1.611   2.981   0.022
 1828  SOL  HW2 5629   1.727   2.913   0.093
 1829  SOL   OW 5630   2.293   0.829   3.452
 1829  SOL  HW1 5631   2.306   0.754   3.394
 1829  SOL  HW2 5632   2.215   0.873   3.419
 1830  SOL   OW 5633   1.049   0.745   2.476
 1830  SOL  HW1 5634   1.014   0.664   2.513
 1830  SOL  HW2 5635   0.988   0.768   2.406
 1831  SOL   OW 5636   3.123   1.443   1.772
 1831  SOL  HW1 5637   3.191   1.510   1.765
 1831  SOL  HW2 5638   3.150   1.374   1.712
 1832  SOL   OW 5639   3.597   0.173   1.829
 1832  SOL  HW1 5640   3.682   0.135   1.851
 1832  SOL  HW2 5641   3.616   0.263   1.806
 1833  SOL   OW 5642   0.708   1.179   3.727
 1833  SOL  HW1 5643   0.700   1.083   3.731
 1833  SOL  HW2 5644   0.636   1.212   3.780
 1834  SOL   OW 5645   2.985   3.648   0.690
 1834  SOL  HW1 5646   2.905   3.604   0.662
 1834  SOL  HW2 5647   2.966   3.741   0.680
 1835  SOL   OW 5648   1.691   1.977   1.939
 1835  SOL  HW1 5649   1.599   1.996   1.920
 1835  SOL  HW2 5650   1.734   1.983   1.854
 1836  SOL   OW 5651   3.264   0.629   1.321
 1836  SOL  HW1 5652   3.342   0.664   1.279
 1836  SOL  HW2 5653   3.196   0.636   1.254
 1837  SOL   OW 5654   1.175   2.954   1.703
 1837  SOL  HW1 5655   1.249   2.985   1.651
 1837  SOL  HW2 5656   1.205   2.872   1.740
 1838  SOL   OW 5657   3.347   1.720   0.542
 1838  SOL  HW1 5658   3.401   1.673   0.478
 1838  SOL  HW2 5659   3.273   1.754   0.492
 1839  SOL   OW 5660   1.628   1.870   3.175
 1839  SOL  HW1 5661   1.679   1.883   3.255
 1839  SOL  HW2 5662   1.635   1.953   3.128
 1840  SOL   OW 5663   1.766   2.522   2.669
 1840  SOL  HW1 5664   1.757   2.605   2.716
 1840  SOL  HW2 5665   1.681   2.510   2.625
 1841  SOL   OW 5666   1.234   2.234   1.939
 1841  SOL  HW1 5667   1.182   2.292   1.882
 1841  SOL  HW2 5668   1.216   2.267   2.028
 1842  SOL   OW 5669   0.835   2.407   0.544
 1842  SOL  HW1 5670   0.744   2.383   0.560
 1842  SOL  HW2 5671   0.871   2.425   0.631
 1843  SOL   OW 5672   0.635   3.472   3.733
 1843  SOL  HW1 5673   0.597   3.414   3.798
 1843  SOL  HW2 5674   0.715   3.506   3.774
 1844  SOL   OW 5675   1.310   3.043   2.285
 1844  SOL  HW1 5676   1.265   3.046   2.201
 1844  SOL  HW2 5677   1.269   3.112   2.337
 1845  SOL   OW 5678   1.265   1.479   3.703
 1845  SOL  HW1 5679   1.238   1.488   3.794
 1845  SOL  HW2 5680   1.226   1.553   3.658
 1846  SOL   OW 5681   1.818   2.678   3.612
 1846  SOL  HW1 5682   1.846   2.745   3.674
 1846  SOL  HW2 5683   1.795   2.603   3.666
 1847  SOL   OW 5684   2.916   1.847   3.901
 1847  SOL  HW1 5685   2.842   1.908   3.900
 1847  SOL  HW2 5686   2.889   1.779   3.963
 1848  SOL   OW 5687   2.616   0.871   2.489
 1848  SOL  HW1 5688   2.651   0.796   2.440
 1848  SOL  HW2 5689   2.616   0.943   2.425
 1849  SOL   OW 5690   3.192   3.878   1.842
 1849  SOL  HW1 5691   3.236   3.910   1.763
 1849  SOL  HW2 5692   3.164   3.790   1.820
 1850  SOL   OW 5693   0.224   1.796   0.992
 1850  SOL  HW1 5694   0.251   1.704   0.987
 1850  SOL  HW2 5695   0.130   1.792   1.008
 1851  SOL   OW 5696   0.505   1.769   1.274
 1851  SOL  HW1 5697   0.597   1.790   1.262
 1851  SOL  HW2 5698   0.470   1.762   1.185
 1852  SOL   OW 5699   0.503   1.356   2.487
 1852  SOL  HW1 5700   0.462   1.358   2.400
 1852  SOL  HW2 5701   0.441   1.401   2.544
 1853  SOL   OW 5702   1.229   0.603   0.743
 1853  SOL  HW1 5703   1.300   0.667   0.749
 1853  SOL  HW2 5704   1.265   0.532   0.689
 1854  SOL   OW 5705   2.240   2.657   0.038
 1854  SOL  HW1 5706   2.216   2.748   0.019
 1854  SOL  HW2 5707   2.161   2.620   0.079
 1855  SOL   OW 5708   0.076   2.056   1.408
 1855  SOL  HW1 5709   0.018   2.124   1.376
 1855  SOL  HW2 5710   0.037   1.974   1.377
 1856  SOL   OW 5711   3.334   2.949   0.686
 1856  SOL  HW1 5712   3.250   2.941   0.731
 1856  SOL  HW2 5713   3.338   3.042   0.661
 1857  SOL   OW 5714   1.369   2.911   3.692
 1857  SOL  HW1 5715   1.322   2.829   3.676
 1857  SOL  HW2 5716   1.301   2.978   3.699
 1858  SOL   OW 5717   0.752   2.389   1.064
 1858  SOL  HW1 5718   0.714   2.461   1.114
 1858  SOL  HW2 5719   0.700   2.313   1.087
 1859  SOL   OW 5720   2.388   2.298   2.933
 1859  SOL  HW1 5721   2.470   2.320   2.977
 1859  SOL  HW2 5722   2.359   2.381   2.895
 1860  SOL   OW 5723   1.763   0.755   0.280
 1860  SOL  HW1 5724   1.797   0.764   0.191
 1860  SOL  HW2 5725   1.777   0.841   0.320
 1861  SOL   OW 5726   2.061   3.489   0.129
 1861  SOL  HW1 5727   2.074   3.396   0.148
 1861  SOL  HW2 5728   2.109   3.534   0.198
 1862  SOL   OW 5729   2.996   2.918   1.977
 1862  SOL  HW1 5730   2.988   2.851   1.910
 1862  SOL  HW2 5731   2.997   2.870   2.060
 1863  SOL   OW 5732   3.564   3.219   1.023
 1863  SOL  HW1 5733   3.491   3.234   0.963
 1863  SOL  HW2 5734   3.553   3.127   1.050
 1864  SOL   OW 5735   0.514   0.934   0.857
 1864  SOL  HW1 5736   0.440   0.880   0.830
 1864  SOL  HW2 5737   0.591   0.884   0.832
 1865  SOL   OW 5738   2.033   2.748   1.135
 1865  SOL  HW1 5739   1.956   2.773   1.186
 1865  SOL  HW2 5740   2.032   2.806   1.059
 1866  SOL   OW 5741   3.596   1.451   2.097
 1866  SOL  HW1 5742   3.576   1.466   2.189
 1866  SOL  HW2 5743   3.571   1.360   2.082
 1867  SOL   OW 5744   2.759   3.563   2.640
 1867  SOL  HW1 5745   2.799   3.568   2.726
 1867  SOL  HW2 5746   2.795   3.484   2.601
 1868  SOL   OW 5747   2.740   3.326   2.513
 1868  SOL  HW1 5748   2.803   3.348   2.445
 1868  SOL  HW2 5749   2.732   3.230   2.507
 1869  SOL   OW 5750   0.253   3.630   2.354
 1869  SOL  HW1 5751   0.189   3.701   2.361
 1869  SOL  HW2 5752   0.301   3.648   2.274
 1870  SOL   OW 5753   1.123   0.197   2.870
 1870  SOL  HW1 5754   1.161   0.244   2.796
 1870  SOL  HW2 5755   1.152   0.246   2.947
 1871  SOL   OW 5756   1.067   1.320   3.951
 1871  SOL  HW1 5757   1.144   1.266   3.931
 1871  SOL  HW2 5758   1.038   1.354   3.867
 1872  SOL   OW 5759   0.172   2.579   3.063
 1872  SOL  HW1 5760   0.116   2.618   3.130
 1872  SOL  HW2 5761   0.117   2.511   3.024
 1873  SOL   OW 5762   3.503   3.011   2.638
 1873  SOL  HW1 5763   3.563   2.941   2.666
 1873  SOL  HW2 5764   3.516   3.017   2.544
 1874  SOL   OW 5765   2.651   1.912   3.182
 1874  SOL  HW1 5766   2.714   1.912   3.110
 1874  SOL  HW2 5767   2.575   1.960   3.148
 1875  SOL   OW 5768   2.352   2.122   0.405
 1875  SOL  HW1 5769   2.263   2.091   0.389
 1875  SOL  HW2 5770   2.371   2.179   0.331
 1876  SOL   OW 5771   2.570   1.645   1.709
 1876  SOL  HW1 5772   2.617   1.718   1.750
 1876  SOL  HW2 5773   2.484   1.645   1.751
 1877  SOL   OW 5774   3.778   2.507   0.507
 1877  SOL  HW1 5775   3.768   2.451   0.584
 1877  SOL  HW2 5776   3.723   2.584   0.525
 1878  SOL   OW 5777   0.969   3.298   1.635
 1878  SOL  HW1 5778   0.899   3.362   1.646
 1878  SOL  HW2 5779   1.047   3.341   1.672
 1879  SOL   OW 5780   0.959   0.244   1.453
 1879  SOL  HW1 5781   1.041   0.195   1.461
 1879  SOL  HW2 5782   0.907   0.195   1.390
 1880  SOL   OW 5783   0.190   1.308   0.325
 1880  SOL  HW1 5784   0.143   1.334   0.404
 1880  SOL  HW2 5785   0.157   1.367   0.257
 1881  SOL   OW 5786   0.436   0.224   3.797
 1881  SOL  HW1 5787   0.446   0.292   3.864
 1881  SOL  HW2 5788   0.524   0.189   3.786
 1882  SOL   OW 5789   2.225   3.125   4.005
 1882  SOL  HW1 5790   2.150   3.113   3.947
 1882  SOL  HW2 5791   2.278   3.192   3.962
 1883  SOL   OW 5792   3.709   3.067   1.242
 1883  SOL  HW1 5793   3.751   2.988   1.275
 1883  SOL  HW2 5794   3.666   3.039   1.161
 1884  SOL   OW 5795   3.413   3.901   0.299
 1884  SOL  HW1 5796   3.471   3.901   0.223
 1884  SOL  HW2 5797   3.453   3.840   0.360
 1885  SOL   OW 5798   0.246   2.362   2.033
 1885  SOL  HW1 5799   0.278   2.452   2.024
 1885  SOL  HW2 5800   0.178   2.368   2.101
 1886  SOL   OW 5801   1.786   1.398   0.969
 1886  SOL  HW1 5802   1.861   1.396   1.028
 1886  SOL  HW2 5803   1.769   1.491   0.955
 1887  SOL   OW 5804   3.912   0.223   3.616
 1887  SOL  HW1 5805   3.876   0.259   3.535
 1887  SOL  HW2 5806   3.902   0.128   3.607
 1888  SOL   OW 5807   3.673   2.384   0.284
 1888  SOL  HW1 5808   3.707   2.450   0.344
 1888  SOL  HW2 5809   3.678   2.302   0.333
 1889  SOL   OW 5810   3.741   0.334   0.494
 1889  SOL  HW1 5811   3.772   0.267   0.432
 1889  SOL  HW2 5812   3.735   0.287   0.578
 1890  SOL   OW 5813   2.406   3.636   3.853
 1890  SOL  HW1 5814   2.412   3.678   3.767
 1890  SOL  HW2 5815   2.447   3.698   3.913
 1891  SOL   OW 5816   1.079   3.756   2.665
 1891  SOL  HW1 5817   1.164   3.729   2.631
 1891  SOL  HW2 5818   1.026   3.676   2.663
 1892  SOL   OW 5819   1.600   3.700   0.364
 1892  SOL  HW1 5820   1.638   3.786   0.385
 1892  SOL  HW2 5821   1.510   3.719   0.340
 1893  SOL   OW 5822   0.808   3.267   0.495
 1893  SOL  HW1 5823   0.889   3.294   0.538
 1893  SOL  HW2 5824   0.837   3.216   0.419
 1894  SOL   OW 5825   3.840   3.752   2.464
 1894  SOL  HW1 5826   3.862   3.842   2.443
 1894  SOL  HW2 5827   3.898   3.699   2.408
 1895  SOL   OW 5828   2.809   3.151   1.295
 1895  SOL  HW1 5829   2.887   3.177   1.246
 1895  SOL  HW2 5830   2.743   3.132   1.228
 1896  SOL   OW 5831   2.761   0.289   1.710
 1896  SOL  HW1 5832   2.680   0.243   1.686
 1896  SOL  HW2 5833   2.827   0.220   1.712
 1897  SOL   OW 5834   1.980   2.366   3.063
 1897  SOL  HW1 5835   1.984   2.462   3.059
 1897  SOL  HW2 5836   1.990   2.346   3.156
 1898  SOL   OW 5837   1.185   2.245   3.761
 1898  SOL  HW1 5838   1.234   2.191   3.824
 1898  SOL  HW2 5839   1.094   2.230   3.783
 1899  SOL   OW 5840   1.984   2.051   3.332
 1899  SOL  HW1 5841   1.959   1.996   3.258
 1899  SOL  HW2 5842   1.921   2.029   3.401
 1900  SOL   OW 5843   2.191   0.888   1.460
 1900  SOL  HW1 5844   2.243   0.837   1.399
 1900  SOL  HW2 5845   2.194   0.977   1.426
 1901  SOL   OW 5846   0.200   0.804   3.046
 1901  SOL  HW1 5847   0.124   0.800   3.105
 1901  SOL  HW2 5848   0.273   0.830   3.102
 1902  SOL   OW 5849   3.646   0.078   2.705
 1902  SOL  HW1 5850   3.614   0.090   2.616
 1902  SOL  HW2 5851   3.666  -0.015   2.711
 1903  SOL   OW 5852   3.168   3.025   3.609
 1903  SOL  HW1 5853   3.138   2.976   3.686
 1903  SOL  HW2 5854   3.250   2.982   3.585
 1904  SOL   OW 5855   0.648   1.599   3.913
 1904  SOL  HW1 5856   0.658   1.578   4.006
 1904  SOL  HW2 5857   0.600   1.682   3.913
 1905  SOL   OW 5858   1.028   2.880   1.094
 1905  SOL  HW1 5859   0.993   2.824   1.164
 1905  SOL  HW2 5860   1.110   2.838   1.069
 1906  SOL   OW 5861   0.509   2.911   3.467
 1906  SOL  HW1 5862   0.459   2.970   3.524
 1906  SOL  HW2 5863   0.443   2.855   3.427
 1907  SOL   OW 5864   0.923   0.365   3.274
 1907  SOL  HW1 5865   0.866   0.344   3.349
 1907  SOL  HW2 5866   0.917   0.289   3.217
 1908  SOL   OW 5867   1.798   1.807   1.019
 1908  SOL  HW1 5868   1.876   1.786   0.968
 1908  SOL  HW2 5869   1.728   1.812   0.955
 1909  SOL   OW 5870   3.237   3.842   2.331
 1909  SOL  HW1 5871   3.185   3.769   2.365
 1909  SOL  HW2 5872   3.172   3.903   2.296
 1910  SOL   OW 5873   0.571   1.437   1.800
 1910  SOL  HW1 5874   0.541   1.347   1.816
 1910  SOL  HW2 5875   0.525   1.489   1.866
 1911  SOL   OW 5876   3.743   0.034   0.149
 1911  SOL  HW1 5877   3.666  -0.022   0.141
 1911  SOL  HW2 5878   3.724   0.110   0.095
 1912  SOL   OW 5879   3.117   1.416   2.050
 1912  SOL  HW1 5880   3.203   1.411   2.090
 1912  SOL  HW2 5881   3.133   1.406   1.956
 1913  SOL   OW 5882   0.103   2.954   3.368
 1913  SOL  HW1 5883   0.097   3.045   3.399
 1913  SOL  HW2 5884   0.142   2.961   3.281
 1914  SOL   OW 5885   1.562   1.767   1.730
 1914  SOL  HW1 5886   1.473   1.781   1.762
 1914  SOL  HW2 5887   1.589   1.852   1.696
 1915  SOL   OW 5888   2.394   3.125   3.374
 1915  SOL  HW1 5889   2.407   3.095   3.284
 1915  SOL  HW2 5890   2.483   3.130   3.410
 1916  SOL   OW 5891   1.998   3.026   0.492
 1916  SOL  HW1 5892   1.977   3.117   0.514
 1916  SOL  HW2 5893   2.046   3.031   0.409
 1917  SOL   OW 5894   1.873   0.402   1.717
 1917  SOL  HW1 5895   1.859   0.397   1.812
 1917  SOL  HW2 5896   1.809   0.467   1.687
 1918  SOL   OW 5897   3.103   3.800   1.326
 1918  SOL  HW1 5898   3.130   3.863   1.393
 1918  SOL  HW2 5899   3.038   3.848   1.274
 1919  SOL   OW 5900   3.313   2.685  -0.010
 1919  SOL  HW1 5901   3.312   2.611   0.050
 1919  SOL  HW2 5902   3.389   2.736   0.018
 1920  SOL   OW 5903   2.616   0.228   3.051
 1920  SOL  HW1 5904   2.543   0.279   3.018
 1920  SOL  HW2 5905   2.694   0.276   3.023
 1921  SOL   OW 5906   1.971   1.865   3.116
 1921  SOL  HW1 5907   1.953   1.945   3.068
 1921  SOL  HW2 5908   1.970   1.796   3.050
 1922  SOL   OW 5909   2.162   2.810   1.791
 1922  SOL  HW1 5910   2.232   2.746   1.803
 1922  SOL  HW2 5911   2.159   2.859   1.873
 1923  SOL   OW 5912   2.544   2.793   3.616
 1923  SOL  HW1 5913   2.493   2.732   3.562
 1923  SOL  HW2 5914   2.478   2.848   3.659
 1924  SOL   OW 5915   1.579   3.105   2.255
 1924  SOL  HW1 5916   1.599   3.157   2.333
 1924  SOL  HW2 5917   1.495   3.064   2.275
 1925  SOL   OW 5918   0.530   3.212   1.027
 1925  SOL  HW1 5919   0.440   3.205   0.997
 1925  SOL  HW2 5920   0.573   3.267   0.961
 1926  SOL   OW 5921   3.331   0.820   2.896
 1926  SOL  HW1 5922   3.276   0.858   2.827
 1926  SOL  HW2 5923   3.274   0.812   2.972
 1927  SOL   OW 5924   3.173   1.485   2.955
 1927  SOL  HW1 5925   3.201   1.489   2.864
 1927  SOL  HW2 5926   3.156   1.576   2.980
 1928  SOL   OW 5927   2.213   2.247   3.254
 1928  SOL  HW1 5928   2.205   2.162   3.298
 1928  SOL  HW2 5929   2.183   2.310   3.320
 1929  SOL   OW 5930   3.551   0.153   3.986
 1929  SOL  HW1 5931   3.553   0.148   3.891
 1929  SOL  HW2 5932   3.460   0.174   4.008
 1930  SOL   OW 5933   1.095   3.801   2.986
 1930  SOL  HW1 5934   1.164   3.864   2.966
 1930  SOL  HW2 5935   1.087   3.748   2.907
 1931  SOL   OW 5936   1.002   1.553   2.064
 1931  SOL  HW1 5937   0.958   1.597   2.137
 1931  SOL  HW2 5938   0.953   1.472   2.051
 1932  SOL   OW 5939   1.570   2.738   3.449
 1932  SOL  HW1 5940   1.647   2.729   3.505
 1932  SOL  HW2 5941   1.594   2.695   3.367
 1933  SOL   OW 5942   2.742   2.379   3.621
 1933  SOL  HW1 5943   2.672   2.389   3.557
 1933  SOL  HW2 5944   2.718   2.302   3.671
 1934  SOL   OW 5945   0.372   1.698   2.764
 1934  SOL  HW1 5946   0.352   1.792   2.760
 1934  SOL  HW2 5947   0.330   1.667   2.844
 1935  SOL   OW 5948   1.197   0.887   2.658
 1935  SOL  HW1 5949   1.157   0.832   2.591
 1935  SOL  HW2 5950   1.179   0.977   2.630
 1936  SOL   OW 5951   0.020   3.018   0.576
 1936  SOL  HW1 5952   0.037   3.103   0.617
 1936  SOL  HW2 5953   0.093   2.963   0.606
 1937  SOL   OW 5954   2.005   3.443   0.929
 1937  SOL  HW1 5955   2.001   3.390   0.850
 1937  SOL  HW2 5956   1.917   3.440   0.965
 1938  SOL   OW 5957   2.826   3.890   0.148
 1938  SOL  HW1 5958   2.792   3.829   0.082
 1938  SOL  HW2 5959   2.857   3.833   0.219
 1939  SOL   OW 5960   2.352   2.910   2.636
 1939  SOL  HW1 5961   2.264   2.873   2.628
 1939  SOL  HW2 5962   2.389   2.904   2.548
 1940  SOL   OW 5963   1.041   4.007   3.183
 1940  SOL  HW1 5964   0.982   4.062   3.131
 1940  SOL  HW2 5965   1.041   3.923   3.137
 1941  SOL   OW 5966   2.910   0.670   0.469
 1941  SOL  HW1 5967   3.003   0.680   0.489
 1941  SOL  HW2 5968   2.875   0.622   0.544
 1942  SOL   OW 5969   3.283   1.252   1.112
 1942  SOL  HW1 5970   3.206   1.285   1.064
 1942  SOL  HW2 5971   3.286   1.305   1.191
 1943  SOL   OW 5972   1.486   1.227   1.967
 1943  SOL  HW1 5973   1.504   1.228   2.061
 1943  SOL  HW2 5974   1.572   1.226   1.925
 1944  SOL   OW 5975   1.465   3.039   1.065
 1944  SOL  HW1 5976   1.456   3.106   0.997
 1944  SOL  HW2 5977   1.533   3.073   1.123
 1945  SOL   OW 5978   2.596   3.266   0.948
 1945  SOL  HW1 5979   2.685   3.286   0.978
 1945  SOL  HW2 5980   2.609   3.209   0.872
 1946  SOL   OW 5981   3.199   1.852   3.498
 1946  SOL  HW1 5982   3.154   1.926   3.456
 1946  SOL  HW2 5983   3.226   1.796   3.426
 1947  SOL   OW 5984   3.425   0.724   1.574
 1947  SOL  HW1 5985   3.376   0.806   1.583
 1947  SOL  HW2 5986   3.443   0.718   1.480
 1948  SOL   OW 5987   3.421   0.363   0.826
 1948  SOL  HW1 5988   3.417   0.451   0.789
 1948  SOL  HW2 5989   3.510   0.333   0.809
 1949  SOL   OW 5990   1.725   2.194   0.412
 1949  SOL  HW1 5991   1.685   2.282   0.411
 1949  SOL  HW2 5992   1.758   2.182   0.324
 1950  SOL   OW 5993   1.058   3.432   3.613
 1950  SOL  HW1 5994   1.101   3.517   3.610
 1950  SOL  HW2 5995   1.011   3.433   3.696
 1951  SOL   OW 5996   3.204   3.560   1.375
 1951  SOL  HW1 5997   3.144   3.532   1.444
 1951  SOL  HW2 5998   3.189   3.655   1.368
 1952  SOL   OW 5999   1.813   3.226   1.714
 1952  SOL  HW1 6000   1.757   3.196   1.785
 1952  SOL  HW2 6001   1.902   3.206   1.743
 1953  SOL   OW 6002   3.363   2.583   1.747
 1953  SOL  HW1 6003   3.357   2.487   1.751
 1953  SOL  HW2 6004   3.353   2.603   1.654
 1954  SOL   OW 6005   0.102   1.623   0.365
 1954  SOL  HW1 6006   0.171   1.570   0.404
 1954  SOL  HW2 6007   0.096   1.700   0.421
 1955  SOL   OW 6008   3.420   0.273   3.531
 1955  SOL  HW1 6009   3.345   0.221   3.501
 1955  SOL  HW2 6010   3.402   0.361   3.497
 1956  SOL   OW 6011   3.486   3.422   3.369
 1956  SOL  HW1 6012   3.529   3.427   3.283
 1956  SOL  HW2 6013   3.413   3.362   3.356
 1957  SOL   OW 6014   2.254   1.467   1.191
 1957  SOL  HW1 6015   2.346   1.476   1.217
 1957  SOL  HW2 6016   2.211   1.428   1.267
 1958  SOL   OW 6017   1.144   0.653   0.318
 1958  SOL  HW1 6018   1.205   0.726   0.305
 1958  SOL  HW2 6019   1.124   0.623   0.229
 1959  SOL   OW 6020   3.761   2.362   2.621
 1959  SOL  HW1 6021   3.735   2.361   2.529
 1959  SOL  HW2 6022   3.836   2.421   2.624
 1960  SOL   OW 6023   1.121   1.700   3.587
 1960  SOL  HW1 6024   1.124   1.770   3.522
 1960  SOL  HW2 6025   1.032   1.666   3.583
 1961  SOL   OW 6026   2.643   0.584   1.377
 1961  SOL  HW1 6027   2.660   0.505   1.428
 1961  SOL  HW2 6028   2.660   0.558   1.286
 1962  SOL   OW 6029   0.776   0.866   1.490
 1962  SOL  HW1 6030   0.853   0.923   1.499
 1962  SOL  HW2 6031   0.792   0.816   1.410
 1963  SOL   OW 6032   3.750   3.577   1.391
 1963  SOL  HW1 6033   3.754   3.525   1.471
 1963  SOL  HW2 6034   3.807   3.532   1.329
 1964  SOL   OW 6035   3.594   3.371   1.257
 1964  SOL  HW1 6036   3.681   3.403   1.280
 1964  SOL  HW2 6037   3.602   3.343   1.166
 1965  SOL   OW 6038   1.702   1.061   2.572
 1965  SOL  HW1 6039   1.621   1.032   2.614
 1965  SOL  HW2 6040   1.751   0.980   2.556
 1966  SOL   OW 6041   2.546   1.519   3.872
 1966  SOL  HW1 6042   2.602   1.464   3.817
 1966  SOL  HW2 6043   2.604   1.547   3.943
 1967  SOL   OW 6044   0.956   2.123   1.785
 1967  SOL  HW1 6045   0.978   2.129   1.692
 1967  SOL  HW2 6046   0.860   2.126   1.788
 1968  SOL   OW 6047   2.499   2.189   3.221
 1968  SOL  HW1 6048   2.471   2.120   3.280
 1968  SOL  HW2 6049   2.420   2.215   3.174
 1969  SOL   OW 6050   4.013   1.875   0.156
 1969  SOL  HW1 6051   4.004   1.969   0.141
 1969  SOL  HW2 6052   3.982   1.834   0.075
 1970  SOL   OW 6053   1.460   2.068   1.842
 1970  SOL  HW1 6054   1.433   2.028   1.759
 1970  SOL  HW2 6055   1.378   2.103   1.879
 1971  SOL   OW 6056   1.430   1.135   1.670
 1971  SOL  HW1 6057   1.393   1.050   1.694
 1971  SOL  HW2 6058   1.466   1.169   1.752
 1972  SOL   OW 6059   1.982   3.239   3.577
 1972  SOL  HW1 6060   2.012   3.245   3.487
 1972  SOL  HW2 6061   1.932   3.157   3.580
 1973  SOL   OW 6062   2.443   0.229   0.371
 1973  SOL  HW1 6063   2.429   0.197   0.283
 1973  SOL  HW2 6064   2.506   0.301   0.361
 1974  SOL   OW 6065   3.782   1.288   2.347
 1974  SOL  HW1 6066   3.794   1.247   2.261
 1974  SOL  HW2 6067   3.838   1.237   2.406
 1975  SOL   OW 6068   2.026   3.841   0.296
 1975  SOL  HW1 6069   2.073   3.849   0.213
 1975  SOL  HW2 6070   2.090   3.867   0.362
 1976  SOL   OW 6071   4.007   0.033   2.733
 1976  SOL  HW1 6072   3.962  -0.003   2.810
 1976  SOL  HW2 6073   3.942   0.027   2.663
 1977  SOL   OW 6074   3.921   2.968   1.032
 1977  SOL  HW1 6075   3.893   2.913   1.105
 1977  SOL  HW2 6076   3.985   2.914   0.985
 1978  SOL   OW 6077   1.343   3.893   2.931
 1978  SOL  HW1 6078   1.355   3.911   2.837
 1978  SOL  HW2 6079   1.431   3.897   2.968
 1979  SOL   OW 6080   0.737   0.054   3.594
 1979  SOL  HW1 6081   0.712   0.145   3.611
 1979  SOL  HW2 6082   0.755   0.051   3.500
 1980  SOL   OW 6083   1.044   1.350   2.841
 1980  SOL  HW1 6084   1.073   1.358   2.750
 1980  SOL  HW2 6085   1.101   1.410   2.890
 1981  SOL   OW 6086   1.225   3.245   2.020
 1981  SOL  HW1 6087   1.238   3.266   1.927
 1981  SOL  HW2 6088   1.149   3.187   2.020
 1982  SOL   OW 6089   3.385   3.760   3.068
 1982  SOL  HW1 6090   3.458   3.698   3.077
 1982  SOL  HW2 6091   3.385   3.782   2.974
 1983  SOL   OW 6092   3.131   3.526   3.365
 1983  SOL  HW1 6093   3.150   3.552   3.275
 1983  SOL  HW2 6094   3.038   3.549   3.377
 1984  SOL   OW 6095   2.022   1.139   2.930
 1984  SOL  HW1 6096   2.006   1.217   2.984
 1984  SOL  HW2 6097   2.114   1.118   2.946
 1985  SOL   OW 6098   1.256   1.587   3.955
 1985  SOL  HW1 6099   1.168   1.604   3.989
 1985  SOL  HW2 6100   1.307   1.664   3.979
 1986  SOL   OW 6101   3.856   1.170   0.184
 1986  SOL  HW1 6102   3.927   1.180   0.121
 1986  SOL  HW2 6103   3.879   1.091   0.233
 1987  SOL   OW 6104   2.396   0.146   0.802
 1987  SOL  HW1 6105   2.332   0.151   0.872
 1987  SOL  HW2 6106   2.481   0.148   0.846
 1988  SOL   OW 6107   1.917   2.767   0.847
 1988  SOL  HW1 6108   1.977   2.841   0.860
 1988  SOL  HW2 6109   1.834   2.796   0.885
 1989  SOL   OW 6110   2.647   0.742   0.392
 1989  SOL  HW1 6111   2.704   0.666   0.404
 1989  SOL  HW2 6112   2.687   0.811   0.445
 1990  SOL   OW 6113   0.043   2.599   2.482
 1990  SOL  HW1 6114  -0.002   2.679   2.508
 1990  SOL  HW2 6115   0.129   2.629   2.451
 1991  SOL   OW 6116   2.692   2.924   3.392
 1991  SOL  HW1 6117   2.608   2.906   3.350
 1991  SOL  HW2 6118   2.683   2.886   3.480
 1992  SOL   OW 6119   2.510   0.652   0.708
 1992  SOL  HW1 6120   2.445   0.692   0.651
 1992  SOL  HW2 6121   2.503   0.558   0.691
 1993  SOL   OW 6122   3.530   0.607   0.909
 1993  SOL  HW1 6123   3.610   0.632   0.955
 1993  SOL  HW2 6124   3.478   0.560   0.974
 1994  SOL   OW 6125   2.778   0.618   2.702
 1994  SOL  HW1 6126   2.779   0.603   2.607
 1994  SOL  HW2 6127   2.736   0.703   2.712
 1995  SOL   OW 6128   2.685   0.202   0.231
 1995  SOL  HW1 6129   2.685   0.125   0.174
 1995  SOL  HW2 6130   2.688   0.166   0.320
 1996  SOL   OW 6131   3.167   1.415   0.487
 1996  SOL  HW1 6132   3.144   1.485   0.549
 1996  SOL  HW2 6133   3.211   1.350   0.541
 1997  SOL   OW 6134   0.350   1.835   3.453
 1997  SOL  HW1 6135   0.270   1.858   3.407
 1997  SOL  HW2 6136   0.324   1.829   3.545
 1998  SOL   OW 6137   1.048   3.616   2.330
 1998  SOL  HW1 6138   0.995   3.537   2.334
 1998  SOL  HW2 6139   0.991   3.686   2.362
 1999  SOL   OW 6140   3.302   1.441   2.728
 1999  SOL  HW1 6141   3.247   1.437   2.650
 1999  SOL  HW2 6142   3.383   1.481   2.698
 2000  SOL   OW 6143   0.771   2.710   1.186
 2000  SOL  HW1 6144   0.706   2.694   1.254
 2000  SOL  HW2 6145   0.727   2.770   1.125
 2001  SOL   OW 6146   3.313   3.174   1.994
 2001  SOL  HW1 6147   3.238   3.230   2.014
 2001  SOL  HW2 6148   3.345   3.145   2.080
 2002  SOL   OW 6149   1.133   1.486   3.171
 2002  SOL  HW1 6150   1.185   1.453   3.244
 2002  SOL  HW2 6151   1.062   1.422   3.162
 2003  SOL   OW 6152   0.042   2.605   1.873
 2003  SOL  HW1 6153   0.066   2.688   1.833
 2003  SOL  HW2 6154   0.007   2.628   1.959
 2004  SOL   OW 6155   0.447   1.819   2.438
 2004  SOL  HW1 6156   0.456   1.883   2.508
 2004  SOL  HW2 6157   0.536   1.809   2.403
 2005  SOL   OW 6158   2.794   2.634   1.050
 2005  SOL  HW1 6159   2.811   2.579   1.127
 2005  SOL  HW2 6160   2.702   2.618   1.028
 2006  SOL   OW 6161   3.337   2.131   2.805
 2006  SOL  HW1 6162   3.416   2.087   2.776
 2006  SOL  HW2 6163   3.367   2.196   2.868
 2007  SOL   OW 6164   3.293   2.350   2.571
 2007  SOL  HW1 6165   3.333   2.280   2.621
 2007  SOL  HW2 6166   3.230   2.390   2.632
 2008  SOL   OW 6167   1.672   1.323   0.631
 2008  SOL  HW1 6168   1.662   1.337   0.537
 2008  SOL  HW2 6169   1.623   1.242   0.648
 2009  SOL   OW 6170   0.342   3.910   2.739
 2009  SOL  HW1 6171   0.404   3.860   2.792
 2009  SOL  HW2 6172   0.281   3.844   2.705
 2010  SOL   OW 6173   2.730   1.153   0.239
 2010  SOL  HW1 6174   2.813   1.200   0.250
 2010  SOL  HW2 6175   2.748   1.086   0.174
 2011  SOL   OW 6176   2.081   0.187   2.464
 2011  SOL  HW1 6177   2.080   0.266   2.517
 2011  SOL  HW2 6178   2.003   0.195   2.408
 2012  SOL   OW 6179   0.893   3.394   3.862
 2012  SOL  HW1 6180   0.953   3.339   3.912
 2012  SOL  HW2 6181   0.852   3.451   3.927
 2013  SOL   OW 6182   0.834   0.438   0.761
 2013  SOL  HW1 6183   0.888   0.512   0.789
 2013  SOL  HW2 6184   0.744   0.471   0.767
 2014  SOL   OW 6185   0.376   2.169   1.846
 2014  SOL  HW1 6186   0.311   2.116   1.801
 2014  SOL  HW2 6187   0.328   2.247   1.875
 2015  SOL   OW 6188   3.397   2.225   0.477
 2015  SOL  HW1 6189   3.376   2.292   0.411
 2015  SOL  HW2 6190   3.401   2.273   0.559
 2016  SOL   OW 6191   0.404   3.817   3.295
 2016  SOL  HW1 6192   0.437   3.808   3.384
 2016  SOL  HW2 6193   0.355   3.899   3.296
 2017  SOL   OW 6194   1.836   3.173   2.544
 2017  SOL  HW1 6195   1.788   3.090   2.544
 2017  SOL  HW2 6196   1.796   3.225   2.614
 2018  SOL   OW 6197   1.800   3.655   1.791
 2018  SOL  HW1 6198   1.760   3.655   1.704
 2018  SOL  HW2 6199   1.888   3.622   1.778
 2019  SOL   OW 6200   1.060   3.522   0.926
 2019  SOL  HW1 6201   1.017   3.485   1.003
 2019  SOL  HW2 6202   1.152   3.498   0.936
 2020  SOL   OW 6203   1.260   0.398   3.588
 2020  SOL  HW1 6204   1.346   0.360   3.573
 2020  SOL  HW2 6205   1.253   0.407   3.683
 2021  SOL   OW 6206   1.589   2.541   2.429
 2021  SOL  HW1 6207   1.510   2.513   2.383
 2021  SOL  HW2 6208   1.564   2.622   2.473
 2022  SOL   OW 6209   0.582   2.072   2.253
 2022  SOL  HW1 6210   0.507   2.096   2.197
 2022  SOL  HW2 6211   0.658   2.079   2.195
 2023  SOL   OW 6212   3.930   0.793   3.192
 2023  SOL  HW1 6213   3.869   0.833   3.131
 2023  SOL  HW2 6214   3.904   0.702   3.196
 2024  SOL   OW 6215   1.597   2.090   3.367
 2024  SOL  HW1 6216   1.590   2.084   3.271
 2024  SOL  HW2 6217   1.586   2.183   3.386
 2025  SOL   OW 6218   0.604   3.136   2.790
 2025  SOL  HW1 6219   0.670   3.076   2.823
 2025  SOL  HW2 6220   0.608   3.211   2.849
 2026  SOL   OW 6221   1.208   2.148   1.199
 2026  SOL  HW1 6222   1.216   2.113   1.110
 2026  SOL  HW2 6223   1.200   2.071   1.255
 2027  SOL   OW 6224   0.430   3.556   1.975
 2027  SOL  HW1 6225   0.439   3.464   2.001
 2027  SOL  HW2 6226   0.454   3.558   1.883
 2028  SOL   OW 6227   2.847   1.752   0.832
 2028  SOL  HW1 6228   2.755   1.777   0.829
 2028  SOL  HW2 6229   2.893   1.834   0.852
 2029  SOL   OW 6230   1.382   1.984   3.538
 2029  SOL  HW1 6231   1.324   2.047   3.494
 2029  SOL  HW2 6232   1.466   1.995   3.495
 2030  SOL   OW 6233   0.214   0.804   2.507
 2030  SOL  HW1 6234   0.235   0.714   2.532
 2030  SOL  HW2 6235   0.299   0.849   2.510
 2031  SOL   OW 6236   2.764   3.316   1.521
 2031  SOL  HW1 6237   2.812   3.241   1.487
 2031  SOL  HW2 6238   2.683   3.317   1.469
 2032  SOL   OW 6239   2.005   2.035   2.799
 2032  SOL  HW1 6240   1.999   2.128   2.778
 2032  SOL  HW2 6241   2.087   2.026   2.848
 2033  SOL   OW 6242   3.489   3.395   0.040
 2033  SOL  HW1 6243   3.543   3.349   0.104
 2033  SOL  HW2 6244   3.404   3.351   0.044
 2034  SOL   OW 6245   1.558   1.882   2.374
 2034  SOL  HW1 6246   1.530   1.941   2.444
 2034  SOL  HW2 6247   1.576   1.799   2.418
 2035  SOL   OW 6248   1.748   3.435   3.535
 2035  SOL  HW1 6249   1.679   3.438   3.601
 2035  SOL  HW2 6250   1.789   3.349   3.547
 2036  SOL   OW 6251   1.356   1.227   2.300
 2036  SOL  HW1 6252   1.408   1.262   2.373
 2036  SOL  HW2 6253   1.418   1.179   2.247
 2037  SOL   OW 6254   0.497   1.892   1.969
 2037  SOL  HW1 6255   0.446   1.880   2.049
 2037  SOL  HW2 6256   0.499   1.987   1.956
 2038  SOL   OW 6257   3.743   2.815   0.577
 2038  SOL  HW1 6258   3.694   2.831   0.657
 2038  SOL  HW2 6259   3.833   2.836   0.599
 2039  SOL   OW 6260   2.601   1.187   3.885
 2039  SOL  HW1 6261   2.646   1.137   3.953
 2039  SOL  HW2 6262   2.512   1.153   3.886
 2040  SOL   OW 6263   0.031   0.379   0.256
 2040  SOL  HW1 6264   0.088   0.353   0.183
 2040  SOL  HW2 6265  -0.042   0.424   0.214
 2041  SOL   OW 6266   1.688   3.356   3.164
 2041  SOL  HW1 6267   1.733   3.431   3.202
 2041  SOL  HW2 6268   1.596   3.369   3.186
 2042  SOL   OW 6269   1.421   1.438   1.215
 2042  SOL  HW1 6270   1.427   1.511   1.153
 2042  SOL  HW2 6271   1.504   1.441   1.263
 2043  SOL   OW 6272   1.318   2.586   2.079
 2043  SOL  HW1 6273   1.252   2.529   2.121
 2043  SOL  HW2 6274   1.339   2.650   2.147
 2044  SOL   OW 6275   2.778   3.212   1.752
 2044  SOL  HW1 6276   2.749   3.245   1.667
 2044  SOL  HW2 6277   2.771   3.117   1.745
 2045  SOL   OW 6278   2.843   0.794   1.936
 2045  SOL  HW1 6279   2.805   0.809   1.849
 2045  SOL  HW2 6280   2.775   0.749   1.984
 2046  SOL   OW 6281   0.067   1.622   2.760
 2046  SOL  HW1 6282   0.132   1.638   2.828
 2046  SOL  HW2 6283   0.042   1.709   2.730
 2047  SOL   OW 6284   1.707   3.760   0.626
 2047  SOL  HW1 6285   1.739   3.805   0.547
 2047  SOL  HW2 6286   1.686   3.672   0.596
 2048  SOL   OW 6287   3.380   2.825   3.689
 2048  SOL  HW1 6288   3.438   2.823   3.613
 2048  SOL  HW2 6289   3.407   2.902   3.739
 2049  SOL   OW 6290   3.842   3.592   0.285
 2049  SOL  HW1 6291   3.868   3.684   0.276
 2049  SOL  HW2 6292   3.853   3.555   0.197
 2050  SOL   OW 6293   0.327   0.143   1.815
 2050  SOL  HW1 6294   0.258   0.124   1.879
 2050  SOL  HW2 6295   0.310   0.082   1.743
 2051  SOL   OW 6296   0.716   1.997   3.194
 2051  SOL  HW1 6297   0.703   2.066   3.259
 2051  SOL  HW2 6298   0.801   2.018   3.154
 2052  SOL   OW 6299   3.410   3.084   2.252
 2052  SOL  HW1 6300   3.461   3.162   2.272
 2052  SOL  HW2 6301   3.463   3.012   2.286
 2053  SOL   OW 6302   2.286   2.027   2.161
 2053  SOL  HW1 6303   2.311   2.025   2.253
 2053  SOL  HW2 6304   2.207   1.974   2.156
 2054  SOL   OW 6305   1.826   2.347   1.341
 2054  SOL  HW1 6306   1.877   2.400   1.280
 2054  SOL  HW2 6307   1.762   2.408   1.377
 2055  SOL   OW 6308   2.077   1.491   3.911
 2055  SOL  HW1 6309   2.142   1.539   3.858
 2055  SOL  HW2 6310   2.090   1.400   3.888
 2056  SOL   OW 6311   1.782   0.152   1.848
 2056  SOL  HW1 6312   1.730   0.224   1.885
 2056  SOL  HW2 6313   1.869   0.189   1.835
 2057  SOL   OW 6314   1.853   3.730   0.043
 2057  SOL  HW1 6315   1.864   3.685  -0.041
 2057  SOL  HW2 6316   1.941   3.733   0.081
 2058  SOL   OW 6317   0.638   0.653   3.458
 2058  SOL  HW1 6318   0.615   0.567   3.495
 2058  SOL  HW2 6319   0.592   0.655   3.374
 2059  SOL   OW 6320   0.094   1.601   3.247
 2059  SOL  HW1 6321   0.082   1.506   3.249
 2059  SOL  HW2 6322   0.161   1.618   3.313
 2060  SOL   OW 6323   2.429   0.499   3.999
 2060  SOL  HW1 6324   2.347   0.544   4.021
 2060  SOL  HW2 6325   2.425   0.489   3.903
 2061  SOL   OW 6326   0.156   2.883   2.284
 2061  SOL  HW1 6327   0.173   2.877   2.378
 2061  SOL  HW2 6328   0.199   2.964   2.257
 2062  SOL   OW 6329   2.209   0.382   0.522
 2062  SOL  HW1 6330   2.220   0.445   0.593
 2062  SOL  HW2 6331   2.298   0.366   0.491
 2063  SOL   OW 6332   3.198   0.776   2.430
 2063  SOL  HW1 6333   3.241   0.706   2.479
 2063  SOL  HW2 6334   3.154   0.731   2.357
 2064  SOL   OW 6335   3.153   3.481   0.983
 2064  SOL  HW1 6336   3.158   3.576   0.990
 2064  SOL  HW2 6337   3.216   3.448   1.047
 2065  SOL   OW 6338   0.587   0.642   1.304
 2065  SOL  HW1 6339   0.542   0.644   1.389
 2065  SOL  HW2 6340   0.602   0.549   1.286
 2066  SOL   OW 6341   0.483   2.822   0.154
 2066  SOL  HW1 6342   0.512   2.757   0.218
 2066  SOL  HW2 6343   0.557   2.833   0.095
 2067  SOL   OW 6344   2.641   2.870   1.277
 2067  SOL  HW1 6345   2.724   2.836   1.312
 2067  SOL  HW2 6346   2.634   2.831   1.190
 2068  SOL   OW 6347   1.551   3.825   0.046
 2068  SOL  HW1 6348   1.560   3.746   0.099
 2068  SOL  HW2 6349   1.640   3.860   0.042
 2069  SOL   OW 6350   3.848   3.217   3.122
 2069  SOL  HW1 6351   3.908   3.292   3.124
 2069  SOL  HW2 6352   3.905   3.140   3.126
 2070  SOL   OW 6353   2.734   1.806   2.132
 2070  SOL  HW1 6354   2.826   1.821   2.112
 2070  SOL  HW2 6355   2.735   1.745   2.206
 2071  SOL   OW 6356   1.862   1.136   2.247
 2071  SOL  HW1 6357   1.919   1.145   2.324
 2071  SOL  HW2 6358   1.913   1.082   2.186
 2072  SOL   OW 6359   2.522   2.866   1.717
 2072  SOL  HW1 6360   2.481   2.792   1.761
 2072  SOL  HW2 6361   2.595   2.890   1.773
 2073  SOL   OW 6362   1.616   2.584   3.818
 2073  SOL  HW1 6363   1.550   2.633   3.868
 2073  SOL  HW2 6364   1.571   2.505   3.789
 2074  SOL   OW 6365   1.476   1.462   2.700
 2074  SOL  HW1 6366   1.441   1.479   2.787
 2074  SOL  HW2 6367   1.435   1.379   2.673
 2075  SOL   OW 6368   0.774   1.837   1.277
 2075  SOL  HW1 6369   0.827   1.769   1.318
 2075  SOL  HW2 6370   0.828   1.916   1.282
 2076  SOL   OW 6371   1.911   0.045   2.731
 2076  SOL  HW1 6372   1.836  -0.011   2.752
 2076  SOL  HW2 6373   1.968   0.038   2.807
 2077  SOL   OW 6374   3.819   1.863   1.441
 2077  SOL  HW1 6375   3.826   1.832   1.532
 2077  SOL  HW2 6376   3.895   1.826   1.397
 2078  SOL   OW 6377   0.018   2.657   3.270
 2078  SOL  HW1 6378   0.108   2.641   3.300
 2078  SOL  HW2 6379  -0.037   2.611   3.334
 2079  SOL   OW 6380   3.072   1.390   2.567
 2079  SOL  HW1 6381   3.092   1.352   2.481
 2079  SOL  HW2 6382   3.003   1.454   2.549
 2080  SOL   OW 6383   3.458   3.222   0.714
 2080  SOL  HW1 6384   3.545   3.192   0.687
 2080  SOL  HW2 6385   3.467   3.317   0.723
 2081  SOL   OW 6386   2.304   2.921   0.269
 2081  SOL  HW1 6387   2.218   2.925   0.226
 2081  SOL  HW2 6388   2.288   2.872   0.350
 2082  SOL   OW 6389   2.226   0.553   0.760
 2082  SOL  HW1 6390   2.208   0.539   0.853
 2082  SOL  HW2 6391   2.293   0.622   0.758
 2083  SOL   OW 6392   3.547   1.286   3.621
 2083  SOL  HW1 6393   3.514   1.327   3.541
 2083  SOL  HW2 6394   3.631   1.246   3.595
 2084  SOL   OW 6395   2.911   3.959   1.238
 2084  SOL  HW1 6396   2.886   3.988   1.150
 2084  SOL  HW2 6397   2.855   4.010   1.297
 2085  SOL   OW 6398   3.636   2.555   3.805
 2085  SOL  HW1 6399   3.593   2.533   3.887
 2085  SOL  HW2 6400   3.729   2.561   3.828
 2086  SOL   OW 6401   3.823   1.590   0.083
 2086  SOL  HW1 6402   3.731   1.582   0.109
 2086  SOL  HW2 6403   3.822   1.652   0.010
 2087  SOL   OW 6404   1.373   0.678   2.642
 2087  SOL  HW1 6405   1.378   0.716   2.554
 2087  SOL  HW2 6406   1.334   0.746   2.696
 2088  SOL   OW 6407   3.010   0.485   0.726
 2088  SOL  HW1 6408   2.939   0.547   0.742
 2088  SOL  HW2 6409   3.088   0.527   0.761
 2089  SOL   OW 6410   1.669   3.515   0.162
 2089  SOL  HW1 6411   1.677   3.597   0.209
 2089  SOL  HW2 6412   1.739   3.517   0.097
 2090  SOL   OW 6413   3.219   1.783   3.231
 2090  SOL  HW1 6414   3.309   1.795   3.200
 2090  SOL  HW2 6415   3.169   1.764   3.151
 2091  SOL   OW 6416   2.807   0.546   1.745
 2091  SOL  HW1 6417   2.863   0.551   1.823
 2091  SOL  HW2 6418   2.775   0.455   1.745
 2092  SOL   OW 6419   2.339   2.004   3.675
 2092  SOL  HW1 6420   2.343   2.045   3.762
 2092  SOL  HW2 6421   2.393   1.925   3.684
 2093  SOL   OW 6422   3.511   1.272   1.623
 2093  SOL  HW1 6423   3.593   1.224   1.630
 2093  SOL  HW2 6424   3.523   1.349   1.680
 2094  SOL   OW 6425   0.712   3.220   0.084
 2094  SOL  HW1 6426   0.634   3.271   0.062
 2094  SOL  HW2 6427   0.691   3.131   0.055
 2095  SOL   OW 6428   1.766   1.018   0.346
 2095  SOL  HW1 6429   1.798   1.092   0.294
 2095  SOL  HW2 6430   1.775   1.048   0.437
 2096  SOL   OW 6431   0.297   1.599   2.446
 2096  SOL  HW1 6432   0.281   1.573   2.537
 2096  SOL  HW2 6433   0.355   1.675   2.453
 2097  SOL   OW 6434   2.335   3.339   2.217
 2097  SOL  HW1 6435   2.321   3.347   2.123
 2097  SOL  HW2 6436   2.252   3.366   2.256
 2098  SOL   OW 6437   1.860   2.497   1.059
 2098  SOL  HW1 6438   1.767   2.520   1.063
 2098  SOL  HW2 6439   1.891   2.542   0.980
 2099  SOL   OW 6440   0.233   1.112   1.696
 2099  SOL  HW1 6441   0.148   1.069   1.697
 2099  SOL  HW2 6442   0.286   1.062   1.759
 2100  SOL   OW 6443   1.568   1.239   0.044
 2100  SOL  HW1 6444   1.638   1.240  -0.021
 2100  SOL  HW2 6445   1.533   1.328   0.043
 2101  SOL   OW 6446   3.201   1.179   3.824
 2101  SOL  HW1 6447   3.281   1.182   3.876
 2101  SOL  HW2 6448   3.208   1.098   3.774
 2102  SOL   OW 6449   3.941   3.846   0.257
 2102  SOL  HW1 6450   4.014   3.882   0.207
 2102  SOL  HW2 6451   3.866   3.900   0.230
 2103  SOL   OW 6452   0.705   3.688   2.266
 2103  SOL  HW1 6453   0.654   3.617   2.306
 2103  SOL  HW2 6454   0.749   3.730   2.340
 2104  SOL   OW 6455   2.372   2.153   2.411
 2104  SOL  HW1 6456   2.454   2.105   2.417
 2104  SOL  HW2 6457   2.347   2.170   2.503
 2105  SOL   OW 6458   0.209   3.902   3.021
 2105  SOL  HW1 6459   0.224   3.955   3.099
 2105  SOL  HW2 6460   0.247   3.952   2.950
 2106  SOL   OW 6461   0.895   0.794   2.239
 2106  SOL  HW1 6462   0.822   0.822   2.185
 2106  SOL  HW2 6463   0.882   0.700   2.250
 2107  SOL   OW 6464   2.144   2.969   3.506
 2107  SOL  HW1 6465   2.155   3.023   3.584
 2107  SOL  HW2 6466   2.207   3.005   3.443
 2108  SOL   OW 6467   3.907   0.843   3.828
 2108  SOL  HW1 6468   3.933   0.858   3.919
 2108  SOL  HW2 6469   3.849   0.767   3.832
 2109  SOL   OW 6470   1.582   3.297   2.925
 2109  SOL  HW1 6471   1.650   3.303   2.992
 2109  SOL  HW2 6472   1.630   3.302   2.842
 2110  SOL   OW 6473   1.698   2.380   0.723
 2110  SOL  HW1 6474   1.636   2.410   0.789
 2110  SOL  HW2 6475   1.745   2.308   0.765
 2111  SOL   OW 6476   1.927   3.663   2.350
 2111  SOL  HW1 6477   1.906   3.747   2.308
 2111  SOL  HW2 6478   1.994   3.686   2.415
 2112  SOL   OW 6479   2.776   3.900   2.549
 2112  SOL  HW1 6480   2.725   3.859   2.479
 2112  SOL  HW2 6481   2.814   3.827   2.597
 2113  SOL   OW 6482   3.836   0.622   0.766
 2113  SOL  HW1 6483   3.806   0.670   0.843
 2113  SOL  HW2 6484   3.858   0.535   0.800
 2114  SOL   OW 6485   2.484   0.909   2.990
 2114  SOL  HW1 6486   2.503   0.820   3.020
 2114  SOL  HW2 6487   2.488   0.905   2.895
 2115  SOL   OW 6488   0.341   2.092   0.741
 2115  SOL  HW1 6489   0.276   2.116   0.807
 2115  SOL  HW2 6490   0.375   2.007   0.771
 2116  SOL   OW 6491   0.531   0.735   2.083
 2116  SOL  HW1 6492   0.509   0.754   2.175
 2116  SOL  HW2 6493   0.449   0.746   2.036
 2117  SOL   OW 6494   0.636   2.155   1.140
 2117  SOL  HW1 6495   0.554   2.107   1.125
 2117  SOL  HW2 6496   0.705   2.093   1.118
 2118  SOL   OW 6497   3.588   2.796   1.448
 2118  SOL  HW1 6498   3.526   2.772   1.379
 2118  SOL  HW2 6499   3.602   2.715   1.496
 2119  SOL   OW 6500   3.015   2.806   1.011
 2119  SOL  HW1 6501   3.030   2.866   1.085
 2119  SOL  HW2 6502   2.938   2.756   1.036
 2120  SOL   OW 6503   1.953   0.979   2.041
 2120  SOL  HW1 6504   2.046   0.960   2.031
 2120  SOL  HW2 6505   1.910   0.924   1.975
 2121  SOL   OW 6506   3.537   3.523   3.630
 2121  SOL  HW1 6507   3.540   3.483   3.543
 2121  SOL  HW2 6508   3.451   3.501   3.664
 2122  SOL   OW 6509   2.128   2.388   0.980
 2122  SOL  HW1 6510   2.156   2.448   0.911
 2122  SOL  HW2 6511   2.038   2.414   0.999
 2123  SOL   OW 6512   1.589   1.399   0.369
 2123  SOL  HW1 6513   1.494   1.401   0.386
 2123  SOL  HW2 6514   1.597   1.418   0.276
 2124  SOL   OW 6515   0.297   3.790   1.651
 2124  SOL  HW1 6516   0.314   3.770   1.559
 2124  SOL  HW2 6517   0.379   3.828   1.683
 2125  SOL   OW 6518   1.401   3.295   1.302
 2125  SOL  HW1 6519   1.312   3.302   1.266
 2125  SOL  HW2 6520   1.458   3.303   1.225
 2126  SOL   OW 6521   1.927   1.130   3.675
 2126  SOL  HW1 6522   1.965   1.176   3.600
 2126  SOL  HW2 6523   1.857   1.077   3.637
 2127  SOL   OW 6524   2.416   3.609   0.179
 2127  SOL  HW1 6525   2.450   3.680   0.125
 2127  SOL  HW2 6526   2.494   3.566   0.214
 2128  SOL   OW 6527   3.840   2.245   3.782
 2128  SOL  HW1 6528   3.749   2.261   3.757
 2128  SOL  HW2 6529   3.857   2.308   3.852
 2129  SOL   OW 6530   3.125   3.069   2.291
 2129  SOL  HW1 6531   3.158   3.102   2.375
 2129  SOL  HW2 6532   3.202   3.040   2.244
 2130  SOL   OW 6533   3.310   2.632   3.453
 2130  SOL  HW1 6534   3.380   2.656   3.515
 2130  SOL  HW2 6535   3.270   2.716   3.430
 2131  SOL   OW 6536   1.830   2.130   3.049
 2131  SOL  HW1 6537   1.750   2.142   2.998
 2131  SOL  HW2 6538   1.861   2.219   3.066
 2132  SOL   OW 6539   2.737   2.972   1.027
 2132  SOL  HW1 6540   2.821   2.985   1.073
 2132  SOL  HW2 6541   2.756   2.995   0.936
 2133  SOL   OW 6542   3.191   3.279   3.097
 2133  SOL  HW1 6543   3.274   3.316   3.069
 2133  SOL  HW2 6544   3.179   3.202   3.042
 2134  SOL   OW 6545   3.309   1.713   0.235
 2134  SOL  HW1 6546   3.274   1.657   0.166
 2134  SOL  HW2 6547   3.237   1.773   0.256
 2135  SOL   OW 6548   2.229   2.968   1.182
 2135  SOL  HW1 6549   2.186   2.947   1.265
 2135  SOL  HW2 6550   2.276   2.889   1.158
 2136  SOL   OW 6551   2.542   1.511   0.793
 2136  SOL  HW1 6552   2.503   1.597   0.779
 2136  SOL  HW2 6553   2.498   1.454   0.730
 2137  SOL   OW 6554   1.110   3.933   3.553
 2137  SOL  HW1 6555   1.190   3.884   3.569
 2137  SOL  HW2 6556   1.138   4.010   3.504
 2138  SOL   OW 6557   3.900   0.027   2.465
 2138  SOL  HW1 6558   3.943   0.112   2.455
 2138  SOL  HW2 6559   3.810   0.048   2.488
 2139  SOL   OW 6560   0.522   1.148   3.955
 2139  SOL  HW1 6561   0.493   1.068   3.911
 2139  SOL  HW2 6562   0.557   1.118   4.039
 2140  SOL   OW 6563   1.801   3.742   3.058
 2140  SOL  HW1 6564   1.718   3.750   3.010
 2140  SOL  HW2 6565   1.796   3.655   3.099
 2141  SOL   OW 6566   1.132   3.438   3.360
 2141  SOL  HW1 6567   1.127   3.421   3.454
 2141  SOL  HW2 6568   1.044   3.469   3.337
 2142  SOL   OW 6569   3.970   1.470   3.536
 2142  SOL  HW1 6570   4.028   1.396   3.555
 2142  SOL  HW2 6571   3.945   1.458   3.444
 2143  SOL   OW 6572   1.096   0.741   1.366
 2143  SOL  HW1 6573   1.162   0.809   1.352
 2143  SOL  HW2 6574   1.014   0.788   1.374
 2144  SOL   OW 6575   3.779   1.682   2.792
 2144  SOL  HW1 6576   3.696   1.685   2.839
 2144  SOL  HW2 6577   3.845   1.675   2.861
 2145  SOL   OW 6578   2.828   3.125   3.665
 2145  SOL  HW1 6579   2.877   3.048   3.694
 2145  SOL  HW2 6580   2.744   3.118   3.711
 2146  SOL   OW 6581   2.657   0.329   2.564
 2146  SOL  HW1 6582   2.591   0.389   2.601
 2146  SOL  HW2 6583   2.643   0.333   2.470
 2147  SOL   OW 6584   3.765   0.551   1.609
 2147  SOL  HW1 6585   3.728   0.502   1.682
 2147  SOL  HW2 6586   3.720   0.636   1.612
 2148  SOL   OW 6587   2.556   1.905   3.527
 2148  SOL  HW1 6588   2.612   1.893   3.603
 2148  SOL  HW2 6589   2.608   1.873   3.453
 2149  SOL   OW 6590   0.643   0.354   2.707
 2149  SOL  HW1 6591   0.627   0.446   2.685
 2149  SOL  HW2 6592   0.737   0.349   2.722
 2150  SOL   OW 6593   3.041   0.976   0.120
 2150  SOL  HW1 6594   2.946   0.977   0.119
 2150  SOL  HW2 6595   3.064   0.884   0.136
 2151  SOL   OW 6596   1.776   1.893   2.177
 2151  SOL  HW1 6597   1.713   1.913   2.246
 2151  SOL  HW2 6598   1.734   1.922   2.096
 2152  SOL   OW 6599   1.083   3.609   3.987
 2152  SOL  HW1 6600   1.036   3.644   4.062
 2152  SOL  HW2 6601   1.055   3.664   3.913
 2153  SOL   OW 6602   2.428   1.617   2.040
 2153  SOL  HW1 6603   2.367   1.562   1.991
 2153  SOL  HW2 6604   2.495   1.556   2.071
 2154  SOL   OW 6605   1.716   2.957   0.500
 2154  SOL  HW1 6606   1.740   2.864   0.496
 2154  SOL  HW2 6607   1.793   3.000   0.538
 2155  SOL   OW 6608   2.339   2.736   2.989
 2155  SOL  HW1 6609   2.388   2.812   2.957
 2155  SOL  HW2 6610   2.364   2.665   2.930
 2156  SOL   OW 6611   2.933   2.775   0.575
 2156  SOL  HW1 6612   2.988   2.754   0.651
 2156  SOL  HW2 6613   2.994   2.814   0.512
 2157  SOL   OW 6614   1.323   1.486   2.920
 2157  SOL  HW1 6615   1.334   1.421   2.990
 2157  SOL  HW2 6616   1.303   1.567   2.966
 2158  SOL   OW 6617   2.167   3.706   3.273
 2158  SOL  HW1 6618   2.224   3.779   3.249
 2158  SOL  HW2 6619   2.122   3.736   3.353
 2159  SOL   OW 6620   0.207   0.143   2.909
 2159  SOL  HW1 6621   0.264   0.198   2.855
 2159  SOL  HW2 6622   0.149   0.100   2.846
 2160  SOL   OW 6623   1.250   1.174   0.194
 2160  SOL  HW1 6624   1.291   1.144   0.113
 2160  SOL  HW2 6625   1.229   1.265   0.177
 2161  SOL   OW 6626   2.713   1.593   2.326
 2161  SOL  HW1 6627   2.771   1.560   2.394
 2161  SOL  HW2 6628   2.634   1.619   2.372
 2162  SOL   OW 6629   1.046   2.922   3.938
 2162  SOL  HW1 6630   1.054   3.017   3.943
 2162  SOL  HW2 6631   1.125   2.888   3.980
 2163  SOL   OW 6632   0.621   2.586   1.700
 2163  SOL  HW1 6633   0.652   2.667   1.660
 2163  SOL  HW2 6634   0.668   2.517   1.653
 2164  SOL   OW 6635   2.725   3.476   2.026
 2164  SOL  HW1 6636   2.664   3.450   2.095
 2164  SOL  HW2 6637   2.769   3.394   2.001
 2165  SOL   OW 6638   2.164   1.133   0.161
 2165  SOL  HW1 6639   2.093   1.197   0.174
 2165  SOL  HW2 6640   2.190   1.109   0.249
 2166  SOL   OW 6641   2.772   3.933   3.331
 2166  SOL  HW1 6642   2.698   3.911   3.388
 2166  SOL  HW2 6643   2.768   3.869   3.260
 2167  SOL   OW 6644   3.467   1.335   0.930
 2167  SOL  HW1 6645   3.538   1.328   0.995
 2167  SOL  HW2 6646   3.387   1.321   0.980
 2168  SOL   OW 6647   0.860   3.897   0.021
 2168  SOL  HW1 6648   0.888   3.857   0.103
 2168  SOL  HW2 6649   0.913   3.853  -0.046
 2169  SOL   OW 6650   2.211   2.331   0.624
 2169  SOL  HW1 6651   2.165   2.264   0.675
 2169  SOL  HW2 6652   2.239   2.395   0.690
 2170  SOL   OW 6653   3.607   0.638   3.118
 2170  SOL  HW1 6654   3.590   0.544   3.112
 2170  SOL  HW2 6655   3.674   0.646   3.186
 2171  SOL   OW 6656   0.032   2.686   3.788
 2171  SOL  HW1 6657  -0.052   2.714   3.750
 2171  SOL  HW2 6658   0.049   2.751   3.857
 2172  SOL   OW 6659   3.099   1.785   0.409
 2172  SOL  HW1 6660   3.067   1.857   0.463
 2172  SOL  HW2 6661   3.041   1.712   0.428
 2173  SOL   OW 6662   2.904   1.114   3.414
 2173  SOL  HW1 6663   2.812   1.121   3.439
 2173  SOL  HW2 6664   2.950   1.172   3.474
 2174  SOL   OW 6665   2.797   2.140   3.935
 2174  SOL  HW1 6666   2.716   2.189   3.922
 2174  SOL  HW2 6667   2.864   2.191   3.889
 2175  SOL   OW 6668   3.002   2.809   3.509
 2175  SOL  HW1 6669   3.038   2.893   3.539
 2175  SOL  HW2 6670   3.026   2.747   3.578
 2176  SOL   OW 6671   0.907   0.535   2.579
 2176  SOL  HW1 6672   0.899   0.486   2.660
 2176  SOL  HW2 6673   0.817   0.556   2.554
 2177  SOL   OW 6674   3.722   2.130   3.183
 2177  SOL  HW1 6675   3.690   2.043   3.158
 2177  SOL  HW2 6676   3.739   2.122   3.277
 2178  SOL   OW 6677   3.301   0.813   3.214
 2178  SOL  HW1 6678   3.368   0.866   3.255
 2178  SOL  HW2 6679   3.349   0.744   3.168
 2179  SOL   OW 6680   2.042   1.142   2.459
 2179  SOL  HW1 6681   2.037   1.205   2.531
 2179  SOL  HW2 6682   2.121   1.092   2.477
 2180  SOL   OW 6683   2.561   1.708   2.552
 2180  SOL  HW1 6684   2.640   1.759   2.532
 2180  SOL  HW2 6685   2.490   1.772   2.551
 2181  SOL   OW 6686   2.008   1.287   2.679
 2181  SOL  HW1 6687   2.019   1.230   2.755
 2181  SOL  HW2 6688   1.934   1.343   2.702
 2182  SOL   OW 6689   3.137   2.382   1.643
 2182  SOL  HW1 6690   3.186   2.372   1.561
 2182  SOL  HW2 6691   3.115   2.293   1.670
 2183  SOL   OW 6692   1.199   3.044   2.694
 2183  SOL  HW1 6693   1.128   3.063   2.632
 2183  SOL  HW2 6694   1.196   3.118   2.756
 2184  SOL   OW 6695   3.470   1.054   2.968
 2184  SOL  HW1 6696   3.444   0.963   2.956
 2184  SOL  HW2 6697   3.410   1.087   3.035
 2185  SOL   OW 6698   0.093   0.435   0.731
 2185  SOL  HW1 6699   0.082   0.483   0.649
 2185  SOL  HW2 6700   0.145   0.358   0.707
 2186  SOL   OW 6701   0.291   3.285   0.255
 2186  SOL  HW1 6702   0.239   3.308   0.178
 2186  SOL  HW2 6703   0.302   3.190   0.250
 2187  SOL   OW 6704   3.489   1.244   1.355
 2187  SOL  HW1 6705   3.513   1.167   1.302
 2187  SOL  HW2 6706   3.502   1.215   1.446
 2188  SOL   OW 6707   0.669   1.372   0.515
 2188  SOL  HW1 6708   0.760   1.349   0.500
 2188  SOL  HW2 6709   0.626   1.288   0.535
 2189  SOL   OW 6710   0.835   1.642   2.251
 2189  SOL  HW1 6711   0.805   1.692   2.176
 2189  SOL  HW2 6712   0.801   1.554   2.237
 2190   NA   NA 6713   3.030   1.876   3.700
   4.00590   4.00590   4.00590
