Protein in water
 5436
    0TYR      N    1   1.436   2.035   3.632  0.2637 -0.3004 -0.2792
    0TYR     H1    2   1.458   1.977   3.549 -0.7184  0.4578 -1.1024
    0TYR     H2    3   1.418   1.974   3.715 -1.6698  0.2329 -0.2387
    0TYR     H3    4   1.517   2.099   3.644 -1.4283  1.8649  0.4086
    0TYR     CA    5   1.314   2.106   3.595 -0.3188 -0.4641  0.5593
    0TYR     HA    6   1.250   2.022   3.579  0.8056 -1.1800 -0.3749
    0TYR     CB    7   1.264   2.190   3.722  0.1601 -0.0305  0.0315
    0TYR    HB1    8   1.237   2.121   3.805 -0.9826 -0.8516 -0.9700
    0TYR    HB2    9   1.169   2.235   3.685  0.9408  0.1582 -1.8617
    0TYR     CG   10   1.362   2.300   3.771 -0.0791  0.7422 -0.5700
    0TYR    CD1   11   1.353   2.425   3.710 -0.0198 -0.1608 -0.0438
    0TYR    HD1   12   1.290   2.446   3.625 -0.4933 -1.2492  0.0270
    0TYR    CE1   13   1.439   2.523   3.754 -0.1173 -0.3216 -0.0037
    0TYR    HE1   14   1.429   2.623   3.714 -0.2324  0.1819  1.2393
    0TYR     CZ   15   1.560   2.489   3.829  0.3382  0.3175 -0.0995
    0TYR     OH   16   1.650   2.593   3.852 -0.1807 -0.3352 -0.7189
    0TYR     HH   17   1.717   2.575   3.919 -0.0346  2.1651 -0.0677
    0TYR    CD2   18   1.475   2.259   3.845  0.5760  0.0089 -0.7097
    0TYR    HD2   19   1.472   2.165   3.898 -0.8144 -0.3108 -1.3158
    0TYR    CE2   20   1.572   2.357   3.876  0.1562 -0.3233  0.1025
    0TYR    HE2   21   1.662   2.324   3.926  0.3416 -0.4857 -0.3331
    0TYR      C   22   1.330   2.194   3.471 -0.7454  0.3223 -0.1460
    0TYR      O   23   1.433   2.243   3.447 -0.4631 -0.7997  0.4104
    1TYR      N   24   1.220   2.215   3.398  0.8895 -0.4820 -0.2118
    1TYR     HN   25   1.144   2.157   3.426 -1.8270  2.2299 -1.4809
    1TYR     CA   26   1.215   2.303   3.284 -0.2267 -1.1538  0.5801
    1TYR     HA   27   1.311   2.300   3.234 -0.0400  1.5541  0.6231
    1TYR     CB   28   1.100   2.256   3.189 -0.1116  0.3430 -0.7126
    1TYR    HB1   29   0.995   2.265   3.225 -1.0359 -2.1137 -2.4497
    1TYR    HB2   30   1.120   2.148   3.172 -0.5516 -0.0647  1.0914
    1TYR     CG   31   1.098   2.319   3.051 -0.9274  0.0748  0.0936
    1TYR    CD1   32   1.020   2.432   3.024  0.2056  0.1975 -0.2909
    1TYR    HD1   33   0.953   2.456   3.105 -0.5059  2.0763 -1.3805
    1TYR    CE1   34   1.023   2.495   2.907  0.4939 -0.4272  0.7611
    1TYR    HE1   35   0.950   2.570   2.881  0.7575 -1.0142 -1.9280
    1TYR     CZ   36   1.115   2.453   2.809  0.8655 -0.1818 -0.7109
    1TYR     OH   37   1.119   2.521   2.686  0.6875 -0.1810 -0.1759
    1TYR     HH   38   1.071   2.604   2.694 -0.9699 -1.0388 -0.7664
    1TYR    CD2   39   1.197   2.280   2.958 -0.1479  0.3107  0.7437
    1TYR    HD2   40   1.271   2.205   2.980  1.1492  1.4986  0.5816
    1TYR    CE2   41   1.200   2.345   2.840 -0.1725  0.1838  0.5052
    1TYR    HE2   42   1.283   2.330   2.772  1.5225  3.3418  1.6223
    1TYR      C   43   1.178   2.446   3.324 -0.2360  0.4318 -0.4563
    1TYR      O   44   1.090   2.462   3.411 -0.2548  0.0921 -0.0013
    2ASP      N   45   1.254   2.545   3.280 -0.3585  0.0533 -0.2805
    2ASP     HN   46   1.338   2.530   3.228 -0.4920  1.8070 -1.0567
    2ASP     CA   47   1.228   2.686   3.316 -0.2216 -0.6338 -0.4387
    2ASP     HA   48   1.169   2.692   3.405  0.6293  1.0664  0.0489
    2ASP     CB   49   1.370   2.748   3.358 -0.0555 -0.0937  0.5645
    2ASP    HB1   50   1.439   2.765   3.273 -0.2648  0.3680  0.4783
    2ASP    HB2   51   1.415   2.710   3.452 -0.7590 -1.2679  0.4358
    2ASP     CG   52   1.352   2.893   3.405 -0.9232 -0.1071 -0.5886
    2ASP    OD1   53   1.416   2.925   3.510  0.2454  0.3695 -0.4957
    2ASP    OD2   54   1.288   2.975   3.335 -0.5446  0.0285  0.6858
    2ASP      C   55   1.162   2.750   3.188  0.1843  0.1694 -0.1038
    2ASP      O   56   1.223   2.744   3.081 -0.2266 -0.2664 -0.1213
    3PRO      N   57   1.036   2.808   3.189 -0.7148 -0.5168  1.0480
    3PRO     CD   58   0.942   2.793   3.301 -0.4007 -0.4161  0.0228
    3PRO    HD1   59   0.954   2.689   3.339  2.2495 -0.4373 -0.6878
    3PRO    HD2   60   0.982   2.864   3.377 -1.5446  1.5112 -1.1113
    3PRO     CA   61   0.976   2.862   3.070 -0.2367 -0.2203 -0.2064
    3PRO     HA   62   1.018   2.814   2.983  0.7910 -1.8349  1.1219
    3PRO     CB   63   0.832   2.814   3.097  0.0984 -0.6218  0.1246
    3PRO    HB1   64   0.836   2.706   3.070  2.6814 -1.4186  3.2050
    3PRO    HB2   65   0.754   2.866   3.036  0.9326 -0.0219 -0.4544
    3PRO     CG   66   0.810   2.830   3.250  0.4756 -0.0320  0.8057
    3PRO    HG1   67   0.731   2.767   3.297 -1.9698  2.0170 -0.2930
    3PRO    HG2   68   0.799   2.939   3.271  1.2762  0.2156  0.0080
    3PRO      C   69   0.992   3.006   3.062 -0.5849  0.3057  0.3577
    3PRO      O   70   0.941   3.070   2.970 -0.0759  0.1165  0.4294
    4GLU      N   71   1.079   3.064   3.150 -0.0375  0.3447  0.3643
    4GLU     HN   72   1.124   3.015   3.224 -1.6997 -1.4669  0.2616
    4GLU     CA   73   1.112   3.206   3.148  0.4370  0.6169  0.2147
    4GLU     HA   74   1.045   3.267   3.089 -0.1805  0.0500  0.3130
    4GLU     CB   75   1.127   3.262   3.292 -0.0795  0.5188  0.1339
    4GLU    HB1   76   1.170   3.364   3.290  0.7593  0.2027  0.9194
    4GLU    HB2   77   1.206   3.202   3.344 -1.2086 -1.5685 -0.4445
    4GLU     CG   78   1.007   3.244   3.387  0.4131  0.7616  0.7035
    4GLU    HG1   79   0.984   3.137   3.402 -2.2021  0.8667 -1.7401
    4GLU    HG2   80   0.924   3.298   3.336  1.2576  1.1458 -0.2968
    4GLU     CD   81   1.029   3.306   3.516 -0.5094  0.6408 -0.8194
    4GLU    OE1   82   1.127   3.271   3.594 -0.0256  0.2067  0.0937
    4GLU    OE2   83   0.949   3.398   3.548 -0.4751  0.8574 -0.6751
    4GLU      C   84   1.240   3.218   3.076 -0.2289 -0.4698  0.6789
    4GLU      O   85   1.257   3.297   2.986  0.9296 -0.0190 -0.3450
    5ARG      N   86   1.341   3.129   3.108 -0.1715  0.3320 -0.1281
    5ARG     HN   87   1.322   3.067   3.183 -2.6141  0.7478 -0.3289
    5ARG     CA   88   1.472   3.114   3.039  0.8101 -0.9680 -0.1541
    5ARG     HA   89   1.490   3.211   2.997 -1.6822 -0.6989 -0.7460
    5ARG     CB   90   1.572   3.062   3.152 -0.2890 -0.2248  1.1534
    5ARG    HB1   91   1.539   2.967   3.198  0.8746 -1.0818  0.2838
    5ARG    HB2   92   1.670   3.037   3.105  0.6048  0.2414  2.7081
    5ARG     CG   93   1.620   3.169   3.259  0.4065  0.6776 -0.1077
    5ARG    HG1   94   1.526   3.205   3.307  0.6130  0.6015  0.3516
    5ARG    HG2   95   1.651   3.262   3.208 -0.6009 -0.2407 -2.5537
    5ARG     CD   96   1.730   3.123   3.355 -0.2067 -0.4728  0.3457
    5ARG    HD1   97   1.818   3.073   3.309 -0.6867 -2.1273  1.1487
    5ARG    HD2   98   1.765   3.215   3.406  1.8759 -1.6445  1.1239
    5ARG     NE   99   1.659   3.033   3.455  0.4302 -0.0790 -0.9801
    5ARG     HE  100   1.561   3.015   3.459  0.3246  0.7142  1.4205
    5ARG     CZ  101   1.734   2.972   3.550 -0.2929  0.6902  0.1423
    5ARG    NH1  102   1.871   2.981   3.557  0.3470 -0.3090  0.3516
    5ARG   HH11  103   1.928   3.040   3.499 -0.0664 -0.9674 -0.7766
    5ARG   HH12  104   1.920   2.924   3.623  0.4212 -1.1147 -0.3755
    5ARG    NH2  105   1.676   2.882   3.633  0.0036  0.6833  0.2250
    5ARG   HH21  106   1.730   2.823   3.693  0.3309 -1.6208 -2.1448
    5ARG   HH22  107   1.588   2.847   3.601  0.4993  0.2045 -0.6463
    5ARG      C  108   1.464   3.025   2.921  0.8232  1.0192  0.4161
    5ARG      O  109   1.534   3.032   2.819 -0.0310 -0.0761  0.2530
    6GLY      N  110   1.366   2.935   2.937 -0.3731 -0.3188 -0.2317
    6GLY     HN  111   1.322   2.927   3.026 -2.1743  0.8857 -0.9465
    6GLY     CA  112   1.312   2.854   2.826 -0.5915  0.8567 -0.2623
    6GLY    HA1  113   1.310   2.908   2.733  2.6751  2.1363  0.2673
    6GLY    HA2  114   1.217   2.820   2.865 -1.0966  0.6940 -1.5789
    6GLY      C  115   1.395   2.730   2.807  0.0920  0.0672  1.3632
    6GLY      O  116   1.406   2.688   2.693 -0.1420 -0.1346 -0.1088
    7THR      N  117   1.446   2.662   2.915  0.4959 -0.1231 -0.0788
    7THR     HN  118   1.396   2.675   3.000 -2.8745  0.4492 -1.9640
    7THR     CA  119   1.528   2.548   2.892 -0.3101  0.7003  0.3030
    7THR     HA  120   1.465   2.480   2.835 -0.9274  1.2072  0.3659
    7THR     CB  121   1.659   2.578   2.825  0.0293  0.7913 -0.2484
    7THR     HB  122   1.649   2.621   2.723  0.3963 -0.4861 -0.8393
    7THR    OG1  123   1.729   2.456   2.790  0.5809  0.5699  0.1772
    7THR    HG1  124   1.782   2.475   2.713 -0.6694  1.9829 -0.3811
    7THR    CG2  125   1.745   2.675   2.910  0.5385 -0.1113  0.1426
    7THR   HG21  126   1.851   2.674   2.877  1.1579 -2.4823  1.9764
    7THR   HG22  127   1.749   2.636   3.013 -3.2939 -0.1416  0.4460
    7THR   HG23  128   1.701   2.777   2.914  1.8126  0.4097  1.3074
    7THR      C  129   1.553   2.482   3.031  0.3024  0.1973 -0.1974
    7THR      O  130   1.519   2.537   3.137  0.0975 -0.2249  0.3382
    8TRP      N  131   1.623   2.371   3.036  0.2476  0.2039 -0.5350
    8TRP     HN  132   1.676   2.341   2.957  1.7685 -0.0293  0.5294
    8TRP     CA  133   1.630   2.266   3.143  0.5990 -0.9203  0.3699
    8TRP     HA  134   1.538   2.260   3.200  0.8546 -4.7033  0.6114
    8TRP     CB  135   1.655   2.114   3.097 -0.3589 -0.0908  0.5705
    8TRP    HB1  136   1.640   2.040   3.178  1.6979 -1.4966 -0.2405
    8TRP    HB2  137   1.759   2.113   3.058 -0.6088  0.9189 -0.1786
    8TRP     CG  138   1.559   2.063   3.002  0.5567 -0.2025 -0.5165
    8TRP    CD1  139   1.555   2.084   2.867 -0.0222 -0.2036 -0.9040
    8TRP    HD1  140   1.630   2.145   2.818  0.9579 -1.9961 -1.7120
    8TRP    NE1  141   1.446   2.033   2.808  0.8660  0.2172  0.1732
    8TRP    HE1  142   1.413   2.041   2.716  1.7790 -0.2922 -0.2146
    8TRP    CE2  143   1.369   1.981   2.914  0.7245  0.3064  0.2159
    8TRP    CD2  144   1.434   2.000   3.039 -0.2520  0.1523 -0.7042
    8TRP    CE3  145   1.377   1.965   3.162 -0.2449  0.0621 -0.3564
    8TRP    HE3  146   1.440   1.971   3.249 -1.7877  1.1908  0.7367
    8TRP    CZ3  147   1.248   1.906   3.160 -0.1858 -1.2361 -0.2455
    8TRP    HZ3  148   1.191   1.873   3.245 -0.5973 -0.1815 -0.1021
    8TRP    CZ2  149   1.237   1.928   2.914 -0.4525  0.3194 -0.0627
    8TRP    HZ2  150   1.184   1.915   2.821 -1.6054 -1.1006  0.7415
    8TRP    CH2  151   1.181   1.900   3.035 -0.1960  0.0598 -0.5040
    8TRP    HH2  152   1.082   1.858   3.025  0.1704 -2.1857  3.2741
    8TRP      C  153   1.738   2.302   3.237  0.0719  0.7138 -0.7713
    8TRP      O  154   1.853   2.326   3.202  0.3693  0.4175 -0.1089
    9TYR      N  155   1.700   2.313   3.367 -0.2314 -0.1683 -0.3535
    9TYR     HN  156   1.604   2.323   3.394 -0.6772 -1.6387 -1.2876
    9TYR     CA  157   1.791   2.331   3.488 -0.6059 -0.0801  0.7167
    9TYR     HA  158   1.892   2.320   3.453 -1.1810  1.0048 -1.4754
    9TYR     CB  159   1.777   2.465   3.562  0.2839  0.0005 -0.2489
    9TYR    HB1  160   1.830   2.471   3.660  1.0503 -1.5471 -0.5375
    9TYR    HB2  161   1.670   2.477   3.588  0.5165  0.0897  0.7026
    9TYR     CG  162   1.813   2.580   3.474 -0.4421 -0.1116  0.4382
    9TYR    CD1  163   1.946   2.605   3.448 -0.1774  0.3181 -0.6237
    9TYR    HD1  164   2.027   2.541   3.482 -1.4682 -1.2747 -0.4183
    9TYR    CE1  165   1.983   2.702   3.350  0.4789  0.4025 -0.5586
    9TYR    HE1  166   2.086   2.724   3.327  0.6010  1.3804  0.7749
    9TYR     CZ  167   1.884   2.751   3.270 -0.4919  0.3461  0.4805
    9TYR     OH  168   1.912   2.846   3.162 -0.1676  0.5032 -0.2547
    9TYR     HH  169   2.006   2.863   3.160 -0.0159 -0.0970  0.8629
    9TYR    CD2  170   1.715   2.643   3.400 -0.3372 -0.2953 -0.2944
    9TYR    HD2  171   1.612   2.617   3.419 -0.4772  0.0924 -0.5060
    9TYR    CE2  172   1.752   2.726   3.297 -0.2412  0.9144  0.4846
    9TYR    HE2  173   1.676   2.756   3.226  2.1747  0.4513 -2.4977
    9TYR      C  174   1.779   2.229   3.600 -0.2182  1.0841  0.4652
    9TYR    OT1  175   1.678   2.152   3.594 -0.0746 -0.1218  0.5694
    9TYR    OT2  176   1.873   2.212   3.688  0.0772  0.1789 -0.6683
   10SOL     OW  177   3.273   0.564   2.443  0.6421 -0.4020 -0.4402
   10SOL    HW1  178   3.205   0.551   2.377 -1.3107 -1.8003  1.7309
   10SOL    HW2  179   3.300   0.476   2.467  1.5409  0.0960  0.4354
   11SOL     OW  180   2.269   3.714   3.600 -0.0306  0.2245 -0.2150
   11SOL    HW1  181   2.358   3.739   3.576  0.8178 -0.3454  2.1187
   11SOL    HW2  182   2.264   3.620   3.578 -0.0740  0.2629 -0.3712
   12SOL     OW  183   2.797   0.023   1.575 -0.7105 -0.0537 -0.1986
   12SOL    HW1  184   2.708  -0.002   1.598 -0.4537 -0.9670 -0.1740
   12SOL    HW2  185   2.801   0.016   1.479 -0.2392 -1.4955 -0.0879
   13SOL     OW  186   0.289   1.100   0.181 -0.0880  0.1780 -0.5245
   13SOL    HW1  187   0.216   1.159   0.163  0.3269  0.8427 -0.0613
   13SOL    HW2  188   0.251   1.013   0.174 -1.0924  0.5252  0.4010
   14SOL     OW  189   0.944   0.881   2.024  0.7936  0.4584 -0.1572
   14SOL    HW1  190   0.893   0.812   2.067  1.8411 -0.3682 -0.2125
   14SOL    HW2  191   0.990   0.924   2.095  1.3686  0.0617 -0.2857
   15SOL     OW  192   2.254   2.821   2.505  0.5123  0.3367  0.0798
   15SOL    HW1  193   2.256   2.915   2.489 -0.3446  0.4883  0.8097
   15SOL    HW2  194   2.175   2.791   2.460 -1.3298  0.5942  2.8689
   16SOL     OW  195   1.401   3.119   2.288 -0.1273 -0.5059  0.2161
   16SOL    HW1  196   1.369   3.079   2.208  1.2028  0.4717 -0.8726
   16SOL    HW2  197   1.439   3.202   2.259  2.5961 -1.2097  1.4540
   17SOL     OW  198   1.146   0.266   2.319  0.1163  0.1842  0.8000
   17SOL    HW1  199   1.073   0.237   2.374 -0.2601  2.2935  1.4989
   17SOL    HW2  200   1.191   0.331   2.373  3.8742 -2.5241  1.2747
   18SOL     OW  201   2.843   3.263   3.155 -0.0269 -0.4221 -0.0985
   18SOL    HW1  202   2.862   3.175   3.122 -0.0937 -0.4372 -0.0969
   18SOL    HW2  203   2.812   3.311   3.079  1.2749 -0.0119 -0.3987
   19SOL     OW  204   1.749   2.645   1.422 -0.4273 -0.1782 -0.0452
   19SOL    HW1  205   1.820   2.688   1.375 -0.5283 -0.7649 -0.7624
   19SOL    HW2  206   1.669   2.683   1.385 -0.5423 -1.4339 -1.2114
   20SOL     OW  207   1.060   0.345   1.261 -0.2704  0.0699 -0.0684
   20SOL    HW1  208   1.122   0.356   1.333 -1.3573  1.3388  0.7208
   20SOL    HW2  209   0.983   0.306   1.302 -0.2415 -0.9657 -0.9312
   21SOL     OW  210   2.670   1.465   2.899 -0.0632  0.2969  0.1466
   21SOL    HW1  211   2.743   1.527   2.903 -1.3857  1.9213  0.2623
   21SOL    HW2  212   2.611   1.492   2.970 -0.6532 -1.1351  0.2263
   22SOL     OW  213   2.676   2.966   2.606 -0.6490 -0.3736  0.3933
   22SOL    HW1  214   2.726   2.958   2.525  0.9141  3.1549  0.8177
   22SOL    HW2  215   2.711   2.896   2.662  2.3742  0.5876 -0.0973
   23SOL     OW  216   2.422   1.871   0.650  0.2241  0.0074 -0.1972
   23SOL    HW1  217   2.328   1.868   0.670  0.0294  2.0737 -0.5129
   23SOL    HW2  218   2.427   1.913   0.564  1.4402  0.0981 -0.1007
   24SOL     OW  219   0.458   0.311   1.698 -0.2648 -0.2938 -0.5061
   24SOL    HW1  220   0.372   0.352   1.694 -0.3617 -0.5546 -1.1053
   24SOL    HW2  221   0.466   0.281   1.788 -0.8724 -0.4231 -0.4932
   25SOL     OW  222   3.414   3.326   1.431  0.0788 -0.0146 -0.2667
   25SOL    HW1  223   3.392   3.234   1.413 -1.8656  0.4082 -0.2691
   25SOL    HW2  224   3.351   3.376   1.379 -0.1372  1.3003  1.2028
   26SOL     OW  225   2.813   2.392   1.552 -0.1231 -0.0020  0.0032
   26SOL    HW1  226   2.876   2.326   1.523 -0.4491 -0.4777  0.3599
   26SOL    HW2  227   2.756   2.346   1.614 -0.7931  0.4325 -0.2780
   27SOL     OW  228   3.269   0.054   0.247 -0.0698 -0.7080  0.2171
   27SOL    HW1  229   3.290   0.060   0.154  1.5477 -0.2512  0.5928
   27SOL    HW2  230   3.286  -0.037   0.270 -1.0245 -0.9646 -0.0404
   28SOL     OW  231   0.574   2.646   0.158  0.1086 -0.4345  0.1267
   28SOL    HW1  232   0.565   2.705   0.233  0.8590 -1.3363  0.9422
   28SOL    HW2  233   0.642   2.584   0.184  1.9334  0.4818 -2.0888
   29SOL     OW  234   3.386   2.382   1.156 -0.2197 -0.1431 -0.1733
   29SOL    HW1  235   3.376   2.452   1.092  0.9371 -0.8982 -1.2287
   29SOL    HW2  236   3.352   2.304   1.112  2.4893 -1.1085 -0.7818
   30SOL     OW  237   2.332   0.606   0.260  0.1241  0.7956  0.4353
   30SOL    HW1  238   2.384   0.575   0.334 -0.3580  0.3417  0.5903
   30SOL    HW2  239   2.241   0.598   0.290 -0.1127 -0.1231 -0.4742
   31SOL     OW  240   3.283   0.804   2.017 -0.4626 -0.6480  0.3618
   31SOL    HW1  241   3.271   0.840   1.929 -0.0778 -1.7742 -0.1783
   31SOL    HW2  242   3.195   0.775   2.042 -0.1415 -3.0123 -0.9181
   32SOL     OW  243   3.404   0.736   0.648  0.2980  0.0690 -0.3230
   32SOL    HW1  244   3.438   0.667   0.704 -0.2027  2.0100  2.5726
   32SOL    HW2  245   3.321   0.701   0.615  0.2456 -0.8588  0.7480
   33SOL     OW  246   0.554   1.459   3.487  0.0483  0.2615  0.0262
   33SOL    HW1  247   0.464   1.468   3.517 -0.8752  0.6122 -2.6279
   33SOL    HW2  248   0.566   1.364   3.476 -0.2499  0.2538 -0.2623
   34SOL     OW  249   3.709   1.049   0.318  0.1570 -0.2147  0.7963
   34SOL    HW1  250   3.731   1.023   0.228  1.4860  1.0420  0.7288
   34SOL    HW2  251   3.620   1.081   0.312 -0.5744 -2.1662  0.3740
   35SOL     OW  252   2.518   0.631   0.924 -0.1960 -0.3911 -0.0608
   35SOL    HW1  253   2.541   0.574   0.998 -0.8387  1.2691  1.4785
   35SOL    HW2  254   2.423   0.640   0.930  0.0039  1.7878  0.4878
   36SOL     OW  255   1.574   0.970   2.021 -0.1169 -0.4979  0.7462
   36SOL    HW1  256   1.624   0.998   2.098 -1.9199  2.0413  1.1053
   36SOL    HW2  257   1.625   1.001   1.946 -0.9955  1.9751  1.1023
   37SOL     OW  258   3.592   2.207   1.265 -0.1190  0.1096  0.2209
   37SOL    HW1  259   3.519   2.253   1.224  0.3428  0.0818 -0.6459
   37SOL    HW2  260   3.654   2.191   1.194  1.8986  2.3600  1.3594
   38SOL     OW  261   0.935   3.066   1.247  0.9852 -0.1273  0.0712
   38SOL    HW1  262   0.949   3.101   1.158  3.7313  0.9706  0.8201
   38SOL    HW2  263   0.983   2.984   1.248 -0.6625 -1.1373  0.0380
   39SOL     OW  264   1.951   1.615   1.823 -0.2473  0.2883 -0.3762
   39SOL    HW1  265   1.940   1.526   1.857 -0.4533  0.4875  0.0846
   39SOL    HW2  266   2.039   1.615   1.785 -0.9614 -0.7001 -2.1929
   40SOL     OW  267   2.146   0.000   3.294  0.0534 -0.1576  0.6207
   40SOL    HW1  268   2.203   0.004   3.371 -0.6338  0.2454  1.1274
   40SOL    HW2  269   2.060   0.024   3.328 -0.0556  1.1242 -0.4895
   41SOL     OW  270   0.382   2.180   1.755 -0.4048  0.0782  0.3973
   41SOL    HW1  271   0.458   2.147   1.706 -0.4778  2.3133 -1.4088
   41SOL    HW2  272   0.312   2.118   1.736  0.0066  0.0250 -1.1111
   42SOL     OW  273   3.087   2.052   2.504 -0.2562  0.5703  0.1695
   42SOL    HW1  274   3.092   2.138   2.463 -0.0093  0.4680 -0.0200
   42SOL    HW2  275   3.013   2.058   2.564 -0.9779  0.5486 -0.6956
   43SOL     OW  276   2.975   2.472   3.267 -0.6085  0.2032 -0.1399
   43SOL    HW1  277   3.059   2.439   3.235 -0.0718  0.2606  1.1264
   43SOL    HW2  278   2.909   2.420   3.222  0.0508  0.9141 -2.0022
   44SOL     OW  279   2.954   0.976   1.026  0.1931  0.2803 -0.1306
   44SOL    HW1  280   2.952   1.046   1.092 -1.6233 -0.2239  0.4083
   44SOL    HW2  281   2.935   1.021   0.944  1.4005  0.7477 -0.1825
   45SOL     OW  282   2.376   3.070   3.224 -0.0468  0.4021 -0.6382
   45SOL    HW1  283   2.432   3.086   3.148  0.1140  0.2773 -0.5458
   45SOL    HW2  284   2.437   3.063   3.298 -0.2291  0.9605 -0.4284
   46SOL     OW  285   0.184   1.666   1.782 -0.1215 -0.0235 -0.8349
   46SOL    HW1  286   0.134   1.599   1.829  0.8189 -0.5231 -0.5039
   46SOL    HW2  287   0.128   1.743   1.783 -0.4589 -0.2531  0.4267
   47SOL     OW  288   2.094   0.904   1.968  0.0510  0.0708  0.2514
   47SOL    HW1  289   2.116   0.983   2.017 -0.0734  1.1021 -1.2582
   47SOL    HW2  290   2.112   0.928   1.877  0.0637 -1.6794 -0.2353
   48SOL     OW  291   1.150   1.781   2.033  0.4991 -0.2327 -0.0017
   48SOL    HW1  292   1.136   1.869   2.068 -1.5449  0.5243 -2.4317
   48SOL    HW2  293   1.084   1.771   1.965  1.0243 -3.4771 -0.2015
   49SOL     OW  294   2.029   0.060   2.570 -0.3514 -0.4276  0.3550
   49SOL    HW1  295   1.997   0.150   2.581 -1.1311 -0.7240  0.6240
   49SOL    HW2  296   2.082   0.044   2.648 -0.0715 -0.1407  0.2238
   50SOL     OW  297   0.247   1.258   0.795 -0.3826  0.3327 -0.5022
   50SOL    HW1  298   0.268   1.218   0.880 -0.6189 -1.2631 -1.1725
   50SOL    HW2  299   0.243   1.352   0.814  1.7535  0.2357  0.8127
   51SOL     OW  300   1.741   0.695   1.941  0.3041  0.0332 -0.0605
   51SOL    HW1  301   1.809   0.705   2.008  1.1502  0.1730 -0.9180
   51SOL    HW2  302   1.682   0.769   1.956 -0.3705 -0.7828  1.4736
   52SOL     OW  303   3.667   1.296   2.684  0.0744  0.0045  0.0479
   52SOL    HW1  304   3.644   1.246   2.606  2.2715 -1.4297  0.2316
   52SOL    HW2  305   3.738   1.354   2.655 -0.3190  0.7717  0.5811
   53SOL     OW  306   3.009   2.632   0.338  0.1791  0.4306 -0.1873
   53SOL    HW1  307   3.011   2.565   0.270  0.7569 -0.3926  0.6214
   53SOL    HW2  308   3.100   2.660   0.347  0.3459 -0.4296  1.1485
   54SOL     OW  309   0.610   0.870   2.505  0.2086 -0.4574  0.0094
   54SOL    HW1  310   0.527   0.833   2.535 -0.3420  0.7513  0.0319
   54SOL    HW2  311   0.669   0.856   2.579 -0.2557 -0.3899  0.3990
   55SOL     OW  312   2.619   0.841   2.783  0.4418 -0.0978  0.0919
   55SOL    HW1  313   2.680   0.914   2.779 -0.1494  0.4046 -0.0554
   55SOL    HW2  314   2.630   0.805   2.871  1.3873 -0.4190 -0.1464
   56SOL     OW  315   2.261   3.000   2.144 -0.9113 -0.2101  0.0010
   56SOL    HW1  316   2.189   2.953   2.102 -0.8704  1.3884 -1.9604
   56SOL    HW2  317   2.276   3.076   2.089 -0.7103  1.9572  2.7919
   57SOL     OW  318   2.575   3.195   2.691 -0.2428  0.3380 -0.0353
   57SOL    HW1  319   2.562   3.107   2.655 -1.9894  0.5257  0.0668
   57SOL    HW2  320   2.613   3.245   2.618 -0.2595 -0.2168 -0.4329
   58SOL     OW  321   3.286   2.144   3.358 -0.1169  0.1777 -0.4090
   58SOL    HW1  322   3.220   2.141   3.289 -2.2503  2.1979  1.3683
   58SOL    HW2  323   3.358   2.090   3.325 -1.8589 -0.6145 -3.2639
   59SOL     OW  324   1.311   0.441   1.764 -0.3363  0.3478  0.0492
   59SOL    HW1  325   1.269   0.461   1.847  0.0336  0.9077  0.1096
   59SOL    HW2  326   1.347   0.525   1.735  0.6656 -0.1000 -0.0333
   60SOL     OW  327   1.595   1.734   1.122  0.5324  0.0506 -0.0106
   60SOL    HW1  328   1.559   1.706   1.038 -1.4858 -1.8090  1.3469
   60SOL    HW2  329   1.616   1.826   1.110 -1.5659  0.3722 -1.9803
   61SOL     OW  330   3.497   3.569   3.254  0.4581  0.0327  0.5473
   61SOL    HW1  331   3.468   3.512   3.325  2.1064 -1.2523  0.2419
   61SOL    HW2  332   3.567   3.621   3.292 -0.8082  1.6721  0.7243
   62SOL     OW  333   3.362   3.579   0.393 -0.6076  0.7807 -0.1659
   62SOL    HW1  334   3.281   3.539   0.362 -0.3601 -0.1517  0.3468
   62SOL    HW2  335   3.399   3.515   0.454 -0.6452  2.1552  1.4010
   63SOL     OW  336   3.638   3.340   2.916  0.3162  0.0959  0.2937
   63SOL    HW1  337   3.692   3.331   2.837  0.5332  1.9190  0.2032
   63SOL    HW2  338   3.701   3.347   2.988  0.1188 -1.6220  0.6943
   64SOL     OW  339   1.006   0.620   2.788  0.0898 -0.7458 -0.2729
   64SOL    HW1  340   0.988   0.543   2.841  1.4102 -0.6737  0.3110
   64SOL    HW2  341   1.019   0.585   2.699  2.4398 -1.4837  0.2782
   65SOL     OW  342   2.136   0.846   1.004 -0.6147 -0.7027  0.2233
   65SOL    HW1  343   2.220   0.877   0.971 -0.1978  0.1982  2.0192
   65SOL    HW2  344   2.081   0.839   0.926  1.1657 -1.5636 -1.0366
   66SOL     OW  345   0.050   1.782   0.857 -0.5776  0.1097 -0.3302
   66SOL    HW1  346   0.064   1.742   0.943 -2.4956 -1.3227 -0.6200
   66SOL    HW2  347   0.135   1.776   0.814  0.1340 -0.1692  1.0641
   67SOL     OW  348   3.312   0.372   0.978  0.5753 -0.5455 -0.0281
   67SOL    HW1  349   3.336   0.438   1.042 -3.8256  1.7124 -0.3262
   67SOL    HW2  350   3.305   0.291   1.028  5.1002 -0.8502  0.5291
   68SOL     OW  351   2.809   1.395   0.307 -0.2037  0.1624 -0.3897
   68SOL    HW1  352   2.732   1.350   0.342 -0.2588  0.8829  0.4566
   68SOL    HW2  353   2.828   1.349   0.225 -2.1122  0.5396 -1.1206
   69SOL     OW  354   1.785   1.299   0.221 -0.1340  0.0700  0.1379
   69SOL    HW1  355   1.833   1.246   0.284  0.6233 -0.3497 -0.7738
   69SOL    HW2  356   1.693   1.286   0.245  0.1464  0.0534  1.2485
   70SOL     OW  357   2.355   2.873   0.872 -0.5449  0.1161 -0.4465
   70SOL    HW1  358   2.431   2.928   0.852  0.4929 -1.9466 -2.7073
   70SOL    HW2  359   2.373   2.790   0.828 -3.1296 -1.2418  0.8045
   71SOL     OW  360   0.722   2.842   1.120 -0.2839 -0.0705 -0.9422
   71SOL    HW1  361   0.781   2.885   1.058  0.0529 -0.7086 -1.0700
   71SOL    HW2  362   0.639   2.834   1.073 -1.6382  3.9062  0.3382
   72SOL     OW  363   0.183   2.215   1.999  0.5095  0.2252  0.1405
   72SOL    HW1  364   0.226   2.282   1.946  1.8339 -0.0829  0.8035
   72SOL    HW2  365   0.089   2.233   1.988  0.8210  2.3403  0.4681
   73SOL     OW  366   2.021   2.313   1.342  0.0009  0.1836  0.0700
   73SOL    HW1  367   2.034   2.336   1.434  1.4378 -1.3437  0.2974
   73SOL    HW2  368   1.926   2.310   1.331 -0.2091 -0.4833  1.7471
   74SOL     OW  369   0.578   2.991   1.946 -0.8976  0.3315 -0.7613
   74SOL    HW1  370   0.659   2.942   1.930 -1.1874 -0.4792  0.2005
   74SOL    HW2  371   0.552   2.967   2.034 -1.8995  1.0212 -0.8506
   75SOL     OW  372   1.492   2.045   0.748 -0.0357 -0.2893  0.3319
   75SOL    HW1  373   1.489   2.096   0.829  0.7970 -2.6799  1.9749
   75SOL    HW2  374   1.553   2.093   0.691  0.5638  0.6490  1.7236
   76SOL     OW  375   3.341   1.333   2.753 -0.2589 -0.1836 -0.3427
   76SOL    HW1  376   3.421   1.379   2.775 -0.8508  1.8147 -1.9716
   76SOL    HW2  377   3.278   1.360   2.820 -0.0942 -0.1799 -0.1896
   77SOL     OW  378   2.316   0.640   0.670  0.1526 -0.0965 -0.5302
   77SOL    HW1  379   2.322   0.712   0.607  1.0661  0.3681  0.0577
   77SOL    HW2  380   2.407   0.619   0.691 -0.0749 -1.8663 -1.1647
   78SOL     OW  381   0.515   2.343   0.055 -0.2161  0.4955  0.1479
   78SOL    HW1  382   0.452   2.389   0.111 -0.2666  1.3403 -0.5735
   78SOL    HW2  383   0.474   2.343  -0.031  0.9012  1.3355 -0.3992
   79SOL     OW  384   3.426   0.749   0.981  0.6023  0.3212 -0.2824
   79SOL    HW1  385   3.425   0.661   1.018 -0.8501  0.4640  0.0754
   79SOL    HW2  386   3.339   0.784   0.998  0.6889  1.3215 -1.6435
   80SOL     OW  387   0.076   1.285   1.434  0.0334 -0.6889 -0.5558
   80SOL    HW1  388   0.045   1.353   1.375  0.2878 -0.3845 -0.3430
   80SOL    HW2  389   0.004   1.222   1.439 -0.0095 -0.6935 -1.1462
   81SOL     OW  390   2.964   2.185   2.722  0.0807  0.3738  0.4415
   81SOL    HW1  391   2.996   2.164   2.810  0.8625 -0.8020 -0.0953
   81SOL    HW2  392   2.873   2.155   2.722  0.1366  0.1968  0.7925
   82SOL     OW  393   1.529   0.449   3.045  0.2872 -0.0370 -0.5248
   82SOL    HW1  394   1.444   0.431   3.006  0.6257 -1.1196 -0.7759
   82SOL    HW2  395   1.553   0.535   3.009 -1.0781  0.6988  0.2457
   83SOL     OW  396   1.122   1.341   0.380 -0.3481 -0.0201 -0.1288
   83SOL    HW1  397   1.185   1.393   0.330  0.6671  0.2474  1.3608
   83SOL    HW2  398   1.067   1.300   0.314  0.3273  1.0769 -1.4220
   84SOL     OW  399   2.116   0.596   3.168  0.1427  0.0685  0.0862
   84SOL    HW1  400   2.205   0.568   3.189 -0.3318 -0.5178  1.4091
   84SOL    HW2  401   2.115   0.601   3.072  1.2221 -1.1924 -0.0261
   85SOL     OW  402   3.575   2.921   0.324 -0.3806  0.0086  0.1735
   85SOL    HW1  403   3.538   2.945   0.409 -0.5976  1.4480 -0.2973
   85SOL    HW2  404   3.652   2.977   0.315 -1.4746  1.3656 -1.4031
   86SOL     OW  405   3.349   1.715   2.007  0.2227 -0.1907  0.2829
   86SOL    HW1  406   3.276   1.775   2.021 -0.1937 -0.9440  1.5324
   86SOL    HW2  407   3.377   1.690   2.095  3.0999  1.3406 -0.0637
   87SOL     OW  408   0.982   3.255   1.026 -0.2308 -0.3906  0.1293
   87SOL    HW1  409   0.900   3.226   0.986 -0.9249  0.8460  0.5934
   87SOL    HW2  410   1.019   3.318   0.964  0.7465 -1.4563 -0.4024
   88SOL     OW  411   0.063   2.475   1.294 -0.4969  0.2261 -0.0316
   88SOL    HW1  412   0.130   2.543   1.299  0.1973 -0.1924 -2.4641
   88SOL    HW2  413  -0.010   2.515   1.247 -0.3051 -0.5133 -0.9880
   89SOL     OW  414   1.946   3.403   3.369 -0.1007  0.3805  0.2979
   89SOL    HW1  415   2.029   3.437   3.335 -0.1519  2.0478  1.7065
   89SOL    HW2  416   1.933   3.449   3.452 -1.9726 -0.5574  0.5877
   90SOL     OW  417   1.398   1.934   1.527 -0.4363 -0.5812  0.0839
   90SOL    HW1  418   1.316   1.959   1.571  0.2048  0.3005  0.8413
   90SOL    HW2  419   1.409   1.842   1.548 -1.8696 -1.0617 -1.0989
   91SOL     OW  420   0.690   3.128   3.001 -0.5080  0.0848 -0.1905
   91SOL    HW1  421   0.708   3.221   2.985 -1.9006 -0.0029 -2.6882
   91SOL    HW2  422   0.775   3.085   2.991  0.0509  1.0162  0.4700
   92SOL     OW  423   1.606   2.148   1.666 -0.6815  0.0924  0.4690
   92SOL    HW1  424   1.550   2.184   1.597 -0.1938 -1.6781 -0.9349
   92SOL    HW2  425   1.547   2.096   1.720 -0.7210 -0.1765  0.1672
   93SOL     OW  426   0.738   1.101   1.764  0.3492 -0.4951  0.3607
   93SOL    HW1  427   0.805   1.135   1.824  0.0995  0.2855  0.2006
   93SOL    HW2  428   0.729   1.009   1.789  1.6588 -0.6782  0.2317
   94SOL     OW  429   1.902   1.496   0.078 -0.0572 -0.0104  0.0670
   94SOL    HW1  430   1.878   1.415   0.125 -0.0153 -0.4547 -0.6603
   94SOL    HW2  431   1.827   1.512   0.020  0.8411 -0.7424 -1.3550
   95SOL     OW  432   2.621   1.623   1.138  0.3177 -0.5814  0.8246
   95SOL    HW1  433   2.628   1.698   1.197  1.3526 -0.9092  1.1394
   95SOL    HW2  434   2.531   1.625   1.107 -0.2518 -0.3917  2.4074
   96SOL     OW  435   1.710   1.271   3.669 -0.1310  0.2571  0.3359
   96SOL    HW1  436   1.653   1.195   3.666 -0.0106  0.0754  1.9843
   96SOL    HW2  437   1.738   1.277   3.760  1.6943  0.9322 -0.2283
   97SOL     OW  438   0.581   0.126   0.744 -0.6035  0.7737 -0.4123
   97SOL    HW1  439   0.561   0.119   0.837 -1.5528  1.0772 -0.5852
   97SOL    HW2  440   0.519   0.067   0.701  1.2913 -1.1184 -0.7125
   98SOL     OW  441   1.031   1.338   3.624  0.6358 -0.0384  0.4016
   98SOL    HW1  442   0.958   1.286   3.659 -2.0009  2.0559 -1.6229
   98SOL    HW2  443   1.065   1.285   3.552  1.4306 -1.1915  1.5821
   99SOL     OW  444   1.635   3.437   1.900 -0.1434  0.3223 -0.5378
   99SOL    HW1  445   1.642   3.478   1.814 -0.1563 -1.9628 -1.6887
   99SOL    HW2  446   1.687   3.493   1.957  1.1429  1.0644 -2.3509
  100SOL     OW  447   1.244   1.015   1.362  0.1818  0.4979 -0.3588
  100SOL    HW1  448   1.207   0.932   1.333 -0.3299 -0.3911  2.5204
  100SOL    HW2  449   1.329   1.020   1.318 -0.2699 -0.9650 -1.4800
  101SOL     OW  450   0.369   2.437   1.700 -0.2926 -0.2633 -0.4866
  101SOL    HW1  451   0.371   2.343   1.681 -2.2726 -0.5090  0.2412
  101SOL    HW2  452   0.303   2.471   1.640 -0.9319  0.3198  0.5200
  102SOL     OW  453   2.919   2.269   3.072 -0.7273 -0.2903  0.3456
  102SOL    HW1  454   3.005   2.283   3.032 -0.8571 -2.1447 -0.7080
  102SOL    HW2  455   2.866   2.343   3.041  0.0418 -0.0050 -0.3442
  103SOL     OW  456   1.550   0.307   0.199 -0.0274 -0.1000  0.3435
  103SOL    HW1  457   1.637   0.324   0.237  0.4247 -0.5029 -0.4805
  103SOL    HW2  458   1.490   0.358   0.253  0.5253 -1.0552  1.9470
  104SOL     OW  459   0.669   2.738   1.993  0.0433  0.1514  0.2279
  104SOL    HW1  460   0.659   2.699   2.080  1.9964 -1.9938 -0.4130
  104SOL    HW2  461   0.761   2.762   1.987 -0.6671  3.1704 -0.1916
  105SOL     OW  462   1.396   2.355   0.843  0.4029 -0.3030  0.8625
  105SOL    HW1  463   1.389   2.450   0.850 -0.7299 -0.1655 -1.2933
  105SOL    HW2  464   1.310   2.327   0.809  0.8570 -2.0422  1.0463
  106SOL     OW  465   1.694   3.003   1.396  0.2830  0.7800 -0.2527
  106SOL    HW1  466   1.684   2.942   1.469  0.4983  1.2907  0.2162
  106SOL    HW2  467   1.622   2.981   1.336 -0.5188  1.0055  0.5973
  107SOL     OW  468   2.419   1.132   1.827  0.6060  0.4582 -0.6499
  107SOL    HW1  469   2.420   1.037   1.817 -3.1027  0.3097 -1.0718
  107SOL    HW2  470   2.461   1.147   1.912 -0.5541 -1.7932  0.4186
  108SOL     OW  471   2.210   1.670   1.722  0.9861 -0.2127  0.0736
  108SOL    HW1  472   2.277   1.611   1.688  0.1457 -0.8247 -0.5520
  108SOL    HW2  473   2.229   1.677   1.816  0.6694 -2.0844  0.3162
  109SOL     OW  474   3.378   2.555   0.690  1.1976 -0.2722  0.1139
  109SOL    HW1  475   3.289   2.579   0.662  1.4554  1.6593  0.7561
  109SOL    HW2  476   3.387   2.463   0.667 -0.4590 -0.1346 -1.2791
  110SOL     OW  477   1.884   3.082   1.837 -0.3564  0.0468  0.2724
  110SOL    HW1  478   1.845   3.137   1.904  0.4491 -0.0441  0.8300
  110SOL    HW2  479   1.824   3.008   1.828 -0.9482  0.5293  0.2040
  111SOL     OW  480   2.104   1.575   2.462 -0.3341 -0.1365  0.0023
  111SOL    HW1  481   2.113   1.670   2.467 -1.1152 -0.1037  1.1095
  111SOL    HW2  482   2.186   1.545   2.424  0.4080  0.8853  0.7575
  112SOL     OW  483   0.663   0.693   2.738 -0.4534 -0.2354  0.0543
  112SOL    HW1  484   0.659   0.644   2.820 -1.4374 -0.9476 -0.3935
  112SOL    HW2  485   0.652   0.785   2.764 -2.0699 -0.5563  0.6482
  113SOL     OW  486   3.181   0.188   1.902 -0.2043  0.5742  0.0529
  113SOL    HW1  487   3.112   0.129   1.873  0.1735 -0.3257  0.9265
  113SOL    HW2  488   3.194   0.247   1.828 -2.9443  1.7825  0.4004
  114SOL     OW  489   1.286   0.438   3.405  0.0347  0.7762  0.0379
  114SOL    HW1  490   1.338   0.517   3.421  2.8155 -1.4605  3.7260
  114SOL    HW2  491   1.333   0.392   3.335 -0.0939  1.1706 -0.3130
  115SOL     OW  492   3.299   0.541   0.433 -0.1265 -0.7308 -0.0908
  115SOL    HW1  493   3.305   0.585   0.348 -0.4111 -0.2607  0.1283
  115SOL    HW2  494   3.386   0.504   0.447  0.3648  0.4637  0.0924
  116SOL     OW  495   1.227   1.252   2.832 -0.8379  0.1117  0.0185
  116SOL    HW1  496   1.304   1.205   2.801 -1.8467 -0.7374 -1.2982
  116SOL    HW2  497   1.259   1.340   2.852  0.3343 -0.0371 -1.0974
  117SOL     OW  498   3.334   0.325   2.555 -0.0460 -0.3135  0.5892
  117SOL    HW1  499   3.271   0.258   2.532 -0.8145  0.5330  0.1498
  117SOL    HW2  500   3.419   0.283   2.542 -0.4742 -1.8354  2.3181
  118SOL     OW  501   3.567   1.634   1.666  0.0630 -0.6268 -0.3175
  118SOL    HW1  502   3.562   1.548   1.708 -1.2586 -0.4038  0.0261
  118SOL    HW2  503   3.480   1.647   1.628 -1.0445  2.0423  2.6786
  119SOL     OW  504   1.793   1.602   2.072 -0.2701 -0.0827 -0.3792
  119SOL    HW1  505   1.831   1.514   2.068  2.2929  0.8535  1.1027
  119SOL    HW2  506   1.778   1.626   1.981 -0.4783 -1.8223 -0.8344
  120SOL     OW  507   2.236   1.216   1.459 -0.1096  0.3740 -0.2911
  120SOL    HW1  508   2.235   1.309   1.438  0.1657  0.4849  0.1973
  120SOL    HW2  509   2.322   1.186   1.432  0.4890  0.6477  1.2297
  121SOL     OW  510   0.374   2.114   2.211  0.3993  0.1637  0.3225
  121SOL    HW1  511   0.394   2.139   2.301  2.7726 -0.8125  0.1421
  121SOL    HW2  512   0.318   2.037   2.219  1.1828 -0.3590  1.0035
  122SOL     OW  513   1.059   0.778   1.363 -0.0775 -0.2860 -0.0347
  122SOL    HW1  514   1.013   0.861   1.375  0.8050 -0.0701  2.2822
  122SOL    HW2  515   1.038   0.727   1.441 -2.0347 -3.0555 -2.1848
  123SOL     OW  516   2.978   3.249   3.550  0.0459  0.2812  0.6540
  123SOL    HW1  517   3.023   3.232   3.633  1.1921  2.1479  0.4778
  123SOL    HW2  518   2.888   3.221   3.566  0.2544  0.4986  2.5112
  124SOL     OW  519   2.171   2.536   1.268  0.1423  0.1142 -0.3742
  124SOL    HW1  520   2.150   2.445   1.287  0.9223  0.3489  1.9058
  124SOL    HW2  521   2.199   2.536   1.177 -0.7493 -1.7436 -0.6958
  125SOL     OW  522   2.752   0.416   0.220  0.0518 -0.2710  0.3039
  125SOL    HW1  523   2.753   0.496   0.272  2.8033  0.5362 -0.7707
  125SOL    HW2  524   2.772   0.446   0.131 -0.8777 -1.9636 -0.5028
  126SOL     OW  525   2.845   0.549   0.578 -0.6260  0.3823 -0.0184
  126SOL    HW1  526   2.872   0.571   0.489  0.1089 -0.9316 -0.1348
  126SOL    HW2  527   2.927   0.546   0.628 -1.1245  2.5875  1.0942
  127SOL     OW  528   0.381   0.433   2.314  0.5971 -0.4416 -0.1026
  127SOL    HW1  529   0.313   0.476   2.367 -0.2438 -0.1852 -1.3380
  127SOL    HW2  530   0.463   0.455   2.358  0.4238  3.9622 -1.5334
  128SOL     OW  531   3.547   1.440   0.769 -0.5802 -0.5666  0.6300
  128SOL    HW1  532   3.526   1.511   0.708 -3.0857 -0.4348  1.5386
  128SOL    HW2  533   3.618   1.476   0.823  0.2859  0.0565 -0.8593
  129SOL     OW  534   2.254   3.045   3.571  0.2565  0.1975  0.6792
  129SOL    HW1  535   2.279   2.956   3.546  0.0926  0.5548 -0.8609
  129SOL    HW2  536   2.330   3.098   3.546  0.1753  0.5548  1.1794
  130SOL     OW  537   2.679   0.307   1.357  0.4377 -0.4872  0.3133
  130SOL    HW1  538   2.645   0.218   1.364 -1.7185  0.3652  1.7987
  130SOL    HW2  539   2.611   0.354   1.308  0.9276  0.6390  0.6883
  131SOL     OW  540   0.758   1.752   1.231  0.4015 -0.3411  0.6334
  131SOL    HW1  541   0.703   1.830   1.240 -0.2012 -0.7393  0.4287
  131SOL    HW2  542   0.844   1.787   1.207  0.2466  0.2850  0.9511
  132SOL     OW  543   2.203   0.435   0.498  0.6580  0.2540 -0.2750
  132SOL    HW1  544   2.295   0.449   0.474  0.8681 -0.7026 -0.0686
  132SOL    HW2  545   2.190   0.489   0.575  1.4433 -0.6489  0.5150
  133SOL     OW  546   3.529   3.038   1.300  0.1449 -0.4547 -0.8290
  133SOL    HW1  547   3.476   3.002   1.230 -0.3586  2.4615 -2.0821
  133SOL    HW2  548   3.561   3.121   1.266  0.7191  0.6256  2.0511
  134SOL     OW  549   2.099   2.972   0.383 -0.1814  0.4831  0.0180
  134SOL    HW1  550   2.058   3.044   0.431  0.3483 -0.8580  2.6505
  134SOL    HW2  551   2.025   2.926   0.342 -0.8605  0.6384  1.0420
  135SOL     OW  552   1.572   2.963   1.074 -0.0363  0.1969  0.7542
  135SOL    HW1  553   1.538   3.013   1.001 -0.4632  1.4963  1.8097
  135SOL    HW2  554   1.656   2.929   1.043 -0.9463 -0.6861 -0.8902
  136SOL     OW  555   2.559   2.365   2.940  0.0328  0.4350  0.1865
  136SOL    HW1  556   2.640   2.407   2.969  0.6622 -1.3486  1.1839
  136SOL    HW2  557   2.515   2.339   3.021 -1.1171  0.5753 -0.3670
  137SOL     OW  558   0.559   3.439   1.599  0.2377 -0.0794  0.6876
  137SOL    HW1  559   0.572   3.534   1.587  1.0016 -0.2143  0.3656
  137SOL    HW2  560   0.472   3.432   1.637 -0.2856  0.6938 -0.2982
  138SOL     OW  561   3.114   1.963   3.219  0.0537 -0.1980 -0.4548
  138SOL    HW1  562   3.042   1.946   3.280  0.6627  0.9870  0.6416
  138SOL    HW2  563   3.165   1.882   3.219 -0.5124 -0.5630 -0.1729
  139SOL     OW  564   2.491   2.807   3.005  0.1541  0.6046  0.2872
  139SOL    HW1  565   2.542   2.793   2.925 -0.1441  2.1154 -0.1857
  139SOL    HW2  566   2.410   2.759   2.990  0.6338 -0.2112  0.2428
  140SOL     OW  567   3.726   1.961   3.414 -0.0349 -0.0264 -0.1322
  140SOL    HW1  568   3.638   1.983   3.383  0.2398  0.9928 -0.2224
  140SOL    HW2  569   3.768   1.917   3.340  0.3548  1.6968 -0.9846
  141SOL     OW  570   2.574   2.934   0.336  0.6147 -0.4718  0.0175
  141SOL    HW1  571   2.500   2.884   0.369  1.4705 -2.1532 -0.5187
  141SOL    HW2  572   2.645   2.870   0.330  1.3945  0.5174 -1.9254
  142SOL     OW  573   3.226   2.710   1.977  0.0419 -0.2189 -0.3339
  142SOL    HW1  574   3.271   2.784   1.936 -0.0992 -1.2153 -2.4658
  142SOL    HW2  575   3.268   2.633   1.939  1.1786 -1.3573  2.9196
  143SOL     OW  576   0.272   0.361   0.770  0.5049 -0.1031  0.1397
  143SOL    HW1  577   0.308   0.385   0.855  0.2064  1.6688 -0.2143
  143SOL    HW2  578   0.326   0.407   0.706  0.6265 -1.2829 -0.6564
  144SOL     OW  579   0.791   2.380   3.441 -0.3418  0.4617 -0.8757
  144SOL    HW1  580   0.885   2.390   3.423 -0.1703 -0.1660 -0.3450
  144SOL    HW2  581   0.780   2.414   3.530 -0.2873 -1.1849 -0.2215
  145SOL     OW  582   3.550   0.996   3.536  0.4078 -0.3453  0.2789
  145SOL    HW1  583   3.544   1.050   3.457 -0.3825 -0.7748  0.0334
  145SOL    HW2  584   3.540   1.058   3.608 -2.7057 -0.3632 -0.0188
  146SOL     OW  585   0.444   3.160   0.513 -0.4995 -0.3854  0.1157
  146SOL    HW1  586   0.512   3.185   0.451 -0.0318 -0.2987  0.6549
  146SOL    HW2  587   0.363   3.195   0.476  0.0853  1.6788  0.6849
  147SOL     OW  588   1.881   1.129   0.423 -0.0687  0.4448 -0.4866
  147SOL    HW1  589   1.911   1.071   0.353  0.6915 -0.1412  0.3098
  147SOL    HW2  590   1.852   1.071   0.493  0.2160  1.0186  0.1181
  148SOL     OW  591   0.650   2.019   2.482 -0.0856  0.2459 -0.0402
  148SOL    HW1  592   0.721   1.986   2.538 -0.2553  1.3449  0.8554
  148SOL    HW2  593   0.665   1.976   2.398  0.3905 -1.1696  0.7306
  149SOL     OW  594   3.561   1.547   0.007 -0.3934  0.2220  0.4068
  149SOL    HW1  595   3.630   1.557  -0.059 -0.9217 -1.6701 -0.5087
  149SOL    HW2  596   3.583   1.610   0.075  0.8394  1.4114 -1.0317
  150SOL     OW  597   2.859   1.594   1.004  0.2345 -0.5046 -0.1876
  150SOL    HW1  598   2.881   1.504   1.026 -1.0373 -1.0696 -1.0714
  150SOL    HW2  599   2.795   1.620   1.070  0.1961 -0.4456 -0.2473
  151SOL     OW  600   1.653   1.698   3.074 -0.5031 -0.1067 -0.3240
  151SOL    HW1  601   1.687   1.609   3.080 -1.9623 -0.6330  1.0447
  151SOL    HW2  602   1.627   1.709   2.983  0.4482 -0.7695 -0.6830
  152SOL     OW  603   2.426   3.341   0.519  0.9113 -0.3115 -0.1697
  152SOL    HW1  604   2.512   3.303   0.539  1.1814  0.1724 -0.3926
  152SOL    HW2  605   2.367   3.303   0.584  1.1362 -1.2527 -0.5024
  153SOL     OW  606   2.850   3.155   2.759  0.1005  0.1833 -0.1004
  153SOL    HW1  607   2.926   3.114   2.719  0.8818  2.5472 -1.2070
  153SOL    HW2  608   2.775   3.118   2.712  0.6535 -0.9285 -0.1387
  154SOL     OW  609   1.390   3.226   3.573  0.9336  0.0591  0.6522
  154SOL    HW1  610   1.387   3.134   3.545  0.4742  0.6237 -1.3026
  154SOL    HW2  611   1.298   3.255   3.570  1.3168  1.2782 -1.4210
  155SOL     OW  612   1.310   0.484   0.072 -0.0425 -0.7741  0.4572
  155SOL    HW1  613   1.261   0.563   0.051  0.2951 -0.7096 -0.1207
  155SOL    HW2  614   1.351   0.503   0.157  0.2614 -0.2221  0.1892
  156SOL     OW  615   1.218   0.005   1.592  0.2508 -0.0581 -0.3216
  156SOL    HW1  616   1.191   0.083   1.641  0.3454 -0.0796 -0.2348
  156SOL    HW2  617   1.265  -0.049   1.657 -0.9354 -0.7890 -0.0397
  157SOL     OW  618   2.545   0.382   2.299 -0.1958  0.3853  0.6891
  157SOL    HW1  619   2.484   0.317   2.335  1.1221 -1.2031  0.1720
  157SOL    HW2  620   2.488   0.452   2.265 -1.6943 -0.7222  0.8094
  158SOL     OW  621   2.973   0.213   2.436  0.4202  0.4971 -0.2682
  158SOL    HW1  622   2.904   0.279   2.441  0.5410  0.5653  0.6142
  158SOL    HW2  623   3.001   0.200   2.527 -0.0208 -1.2031 -0.3430
  159SOL     OW  624   3.099   1.436   0.316  0.5592  0.1773  0.3693
  159SOL    HW1  625   3.012   1.475   0.317 -0.2388 -1.5025 -0.3688
  159SOL    HW2  626   3.138   1.465   0.234 -0.7517 -1.9358 -1.1135
  160SOL     OW  627   2.595   2.279   2.517  0.7897 -0.2635 -0.0780
  160SOL    HW1  628   2.501   2.294   2.502  0.5019  0.0665  1.8324
  160SOL    HW2  629   2.636   2.364   2.503  0.8224 -0.3933 -0.8472
  161SOL     OW  630   1.393   1.486   1.865 -0.1827 -0.1031 -0.5541
  161SOL    HW1  631   1.317   1.472   1.809 -1.5784  0.0760  1.1869
  161SOL    HW2  632   1.459   1.524   1.807 -1.9287  1.1504 -1.8391
  162SOL     OW  633   1.824   1.969   2.165  0.4647 -0.3575  0.2517
  162SOL    HW1  634   1.839   1.887   2.212  0.8255 -0.5159 -0.1318
  162SOL    HW2  635   1.901   1.979   2.108  0.4070  0.2277  0.2677
  163SOL     OW  636   2.202   0.047   1.098 -0.1449  0.1024 -0.5994
  163SOL    HW1  637   2.213  -0.042   1.064  1.5116  0.2156 -0.4323
  163SOL    HW2  638   2.118   0.044   1.144  0.5699 -1.8374  0.7415
  164SOL     OW  639   2.880   2.635   2.294  0.1895  0.1776 -0.6014
  164SOL    HW1  640   2.967   2.671   2.311 -0.2240  2.7903 -3.2631
  164SOL    HW2  641   2.896   2.556   2.242  0.9677 -0.2924  0.3261
  165SOL     OW  642   0.821   2.892   0.327 -0.4231 -0.0763  0.2426
  165SOL    HW1  643   0.872   2.889   0.246  1.1367  2.0603  1.0442
  165SOL    HW2  644   0.862   2.826   0.383 -0.6469 -0.6138 -0.2075
  166SOL     OW  645   3.614   3.130   2.148 -0.0393 -0.2450 -0.3931
  166SOL    HW1  646   3.579   3.053   2.103  1.6240 -0.1645 -1.9404
  166SOL    HW2  647   3.699   3.101   2.182 -0.9225 -0.0839  2.1940
  167SOL     OW  648   0.923   3.398   0.089  0.0886  0.0112 -0.3128
  167SOL    HW1  649   0.954   3.312   0.118  0.8192  0.1746 -0.5818
  167SOL    HW2  650   0.940   3.398  -0.005 -0.0903  0.3809 -0.3456
  168SOL     OW  651   2.350   2.377   2.736 -0.0443 -0.5488  0.1833
  168SOL    HW1  652   2.409   2.378   2.811 -0.7297  0.5253  0.7360
  168SOL    HW2  653   2.265   2.352   2.772 -0.1615 -1.0602 -0.4223
  169SOL     OW  654   0.872   0.209   2.156 -0.3457 -0.3449  0.3200
  169SOL    HW1  655   0.849   0.146   2.088 -0.8577  0.1339  0.0372
  169SOL    HW2  656   0.966   0.223   2.145 -0.4085 -0.3420 -0.2258
  170SOL     OW  657   1.826   3.659   2.436  0.1738  0.4140 -0.2658
  170SOL    HW1  658   1.914   3.686   2.412 -0.1445  0.5911 -1.2921
  170SOL    HW2  659   1.804   3.712   2.513  0.1120  2.0557 -1.3620
  171SOL     OW  660   2.714   1.060   1.233 -0.4791 -0.6329 -0.2994
  171SOL    HW1  661   2.634   1.038   1.184 -1.1435 -3.1146  1.6658
  171SOL    HW2  662   2.749   0.975   1.259  0.1936  0.4883  2.8787
  172SOL     OW  663   2.980   2.393   2.161  0.1135  0.3570 -0.6348
  172SOL    HW1  664   2.944   2.367   2.076  2.1275 -0.2538 -1.3593
  172SOL    HW2  665   3.037   2.320   2.185  1.4273  1.5805  0.0721
  173SOL     OW  666   1.168   2.084   1.054  0.3733 -0.2771  0.0212
  173SOL    HW1  667   1.238   2.022   1.034  2.5359  1.6116  1.2181
  173SOL    HW2  668   1.174   2.150   0.985 -1.0750 -0.7025 -0.5410
  174SOL     OW  669   0.705   1.197   2.857  0.1575  0.6656  0.0049
  174SOL    HW1  670   0.731   1.145   2.781  0.5068  0.3710  0.3192
  174SOL    HW2  671   0.781   1.252   2.875  0.0899  0.7055  0.1664
  175SOL     OW  672   2.771   2.871   2.987 -0.0499  0.0276  0.1215
  175SOL    HW1  673   2.725   2.844   2.908  2.7560 -0.3167 -1.5225
  175SOL    HW2  674   2.826   2.796   3.010  1.4087  1.1810  0.6038
  176SOL     OW  675   2.094   0.544   0.806  0.2124  0.0679  0.0171
  176SOL    HW1  676   2.153   0.592   0.748  0.1823 -0.1122 -0.1601
  176SOL    HW2  677   2.125   0.454   0.805 -0.7533 -0.2767 -0.9851
  177SOL     OW  678   3.123   1.935   0.854 -0.5165  0.4608  0.0528
  177SOL    HW1  679   3.204   1.925   0.805 -1.6545  0.2336 -1.8620
  177SOL    HW2  680   3.098   1.846   0.879  0.2104  0.5966  1.3958
  178SOL     OW  681   0.809   2.180   1.127 -0.1476 -0.2000 -0.0482
  178SOL    HW1  682   0.860   2.255   1.096 -1.1338  0.9795  1.0412
  178SOL    HW2  683   0.781   2.135   1.048 -0.5749  1.3123 -0.7888
  179SOL     OW  684   2.902   2.608   2.779  0.0321 -0.4044  0.0616
  179SOL    HW1  685   2.991   2.642   2.787  0.3069 -1.0162 -0.2556
  179SOL    HW2  686   2.904   2.554   2.700 -0.5467 -0.6447  0.2007
  180SOL     OW  687   1.366   2.915   0.055  0.3436 -0.0083  0.1202
  180SOL    HW1  688   1.372   2.921  -0.040 -0.6117  0.2064  0.0629
  180SOL    HW2  689   1.283   2.870   0.071  0.0542  0.7494  0.8560
  181SOL     OW  690   2.090   0.352   1.255  0.6272 -0.2362 -0.1491
  181SOL    HW1  691   2.030   0.423   1.280  0.9875  0.1357 -0.3313
  181SOL    HW2  692   2.045   0.272   1.283  0.9021  0.1409  1.4747
  182SOL     OW  693   0.537   2.267   1.017 -0.1495 -0.0066 -0.2172
  182SOL    HW1  694   0.542   2.275   1.112  1.1484  0.2167 -0.2782
  182SOL    HW2  695   0.444   2.267   0.997 -0.6789 -3.7916  1.3464
  183SOL     OW  696   1.635   0.888   3.058  0.4482 -0.0741 -0.3270
  183SOL    HW1  697   1.593   0.937   2.988 -0.0160  0.1159  0.0787
  183SOL    HW2  698   1.637   0.949   3.132 -2.2217 -1.3534  0.9253
  184SOL     OW  699   0.107   2.296   2.913  0.3703 -0.0431 -0.3913
  184SOL    HW1  700   0.188   2.256   2.945 -0.1685 -0.5906  0.3440
  184SOL    HW2  701   0.050   2.298   2.990 -0.8544 -1.0752 -1.2239
  185SOL     OW  702   1.900   2.837   1.288  0.1171  0.1801  0.0846
  185SOL    HW1  703   1.846   2.917   1.282 -0.3390 -0.0990  0.4082
  185SOL    HW2  704   1.952   2.838   1.208  1.1158  1.5100  0.6952
  186SOL     OW  705   3.228   3.315   2.042 -1.0152 -0.0945  0.5648
  186SOL    HW1  706   3.165   3.366   1.990  0.8679 -0.3958 -2.2363
  186SOL    HW2  707   3.200   3.224   2.032 -0.5158 -0.1756 -0.2070
  187SOL     OW  708   2.230   2.566   3.613  0.5332  0.4485 -0.0386
  187SOL    HW1  709   2.184   2.512   3.677  1.5027 -0.1180  0.1999
  187SOL    HW2  710   2.231   2.654   3.652 -2.2663  1.0436 -1.0373
  188SOL     OW  711   2.129   1.637   0.162 -0.2769  0.3663 -0.3545
  188SOL    HW1  712   2.052   1.580   0.160  1.2481 -1.8154  0.2066
  188SOL    HW2  713   2.160   1.638   0.071  0.3699 -0.7164 -0.1610
  189SOL     OW  714   1.542   2.796   1.525 -0.4875  0.5256  0.2836
  189SOL    HW1  715   1.511   2.731   1.589 -2.4385  1.0701 -0.0618
  189SOL    HW2  716   1.468   2.854   1.511 -0.2527  0.2602 -2.7406
  190SOL     OW  717   1.210   0.824   0.407  0.4176  0.4796 -0.2100
  190SOL    HW1  718   1.231   0.915   0.425  1.1543  0.3108 -0.2024
  190SOL    HW2  719   1.286   0.775   0.436  1.2927  0.1028 -2.8477
  191SOL     OW  720   0.698   2.565   1.208  0.6653 -0.1656 -0.8681
  191SOL    HW1  721   0.742   2.648   1.188 -0.2785 -0.2869 -4.0048
  191SOL    HW2  722   0.613   2.571   1.163  0.5806 -2.8381 -1.2398
  192SOL     OW  723   3.692   3.487   1.962  0.5000 -0.1234 -0.1799
  192SOL    HW1  724   3.604   3.463   1.990  0.7363  0.8292  1.4765
  192SOL    HW2  725   3.740   3.405   1.961 -0.0150 -0.4410  0.4341
  193SOL     OW  726   1.962   1.107   2.456 -0.3578 -0.6067  0.2129
  193SOL    HW1  727   1.900   1.160   2.507 -0.7233  0.1161 -0.9599
  193SOL    HW2  728   2.024   1.074   2.521  0.9306  2.6492  0.8164
  194SOL     OW  729   1.154   0.271   3.105 -0.6312 -0.0277 -0.2973
  194SOL    HW1  730   1.217   0.299   3.040  0.5298 -0.5056  0.5892
  194SOL    HW2  731   1.205   0.223   3.170 -2.0839 -1.5605 -0.2079
  195SOL     OW  732   1.293   0.633   2.773  0.3910 -0.1939 -0.0730
  195SOL    HW1  733   1.309   0.662   2.863  1.7660  0.1951 -0.4324
  195SOL    HW2  734   1.202   0.659   2.756  0.1869 -0.0725  1.1215
  196SOL     OW  735   2.162   2.297   3.335 -0.5899 -0.0072  0.1081
  196SOL    HW1  736   2.221   2.372   3.339 -0.4228 -0.1545  0.5371
  196SOL    HW2  737   2.075   2.333   3.353 -0.5410  0.1191  0.0869
  197SOL     OW  738   2.511   0.853   2.283 -0.4557 -0.0006  0.6050
  197SOL    HW1  739   2.526   0.835   2.190  1.2612 -0.7339  0.9787
  197SOL    HW2  740   2.419   0.830   2.297 -1.0764  1.2175 -1.1256
  198SOL     OW  741   3.481   2.847   0.624 -0.7435  0.0605 -0.0901
  198SOL    HW1  742   3.455   2.932   0.660 -2.6565 -1.2936  2.0020
  198SOL    HW2  743   3.500   2.794   0.702 -0.2245 -1.6364 -1.3300
  199SOL     OW  744   1.794   0.359   0.331 -0.5418 -0.6343  0.2567
  199SOL    HW1  745   1.799   0.407   0.414 -0.0902 -0.5184  0.1695
  199SOL    HW2  746   1.872   0.303   0.332 -0.8741 -1.1071  0.1957
  200SOL     OW  747   3.304   1.652   2.398 -0.1675 -0.1482  0.3546
  200SOL    HW1  748   3.373   1.642   2.333  0.9852  2.0337  1.1360
  200SOL    HW2  749   3.321   1.582   2.461  0.1176 -0.8374 -0.4648
  201SOL     OW  750   1.047   3.164   2.453 -0.3345 -0.0087 -0.3053
  201SOL    HW1  751   1.025   3.108   2.378  2.1697 -0.8996 -0.4572
  201SOL    HW2  752   1.033   3.108   2.530  2.8309 -1.2446 -0.4876
  202SOL     OW  753   0.197   1.053   3.324  0.3700 -0.0126 -0.3379
  202SOL    HW1  754   0.226   0.979   3.271 -0.1864 -4.3800  4.6308
  202SOL    HW2  755   0.107   1.031   3.349  0.0747  2.4968  1.1488
  203SOL     OW  756   3.147   3.138   1.086 -0.1943  0.3329  0.0065
  203SOL    HW1  757   3.060   3.178   1.091  0.0639  1.0056 -0.7732
  203SOL    HW2  758   3.197   3.196   1.030  1.5163  1.2960  2.3469
  204SOL     OW  759   3.320   2.385   2.225  0.0375 -0.2813  0.1630
  204SOL    HW1  760   3.413   2.402   2.211  0.4654 -1.7049  1.0232
  204SOL    HW2  761   3.287   2.362   2.138  1.1432 -2.4653  0.2559
  205SOL     OW  762   2.208   3.174   1.953 -0.6810 -0.0355  0.5997
  205SOL    HW1  763   2.244   3.208   1.871 -0.5654 -0.5758  0.4270
  205SOL    HW2  764   2.135   3.119   1.926  1.2223 -2.7586  0.5994
  206SOL     OW  765   2.846   0.432   2.418 -0.3364  0.4405  0.7449
  206SOL    HW1  766   2.755   0.435   2.386 -0.1392  0.9770  0.2195
  206SOL    HW2  767   2.897   0.474   2.349  0.1222  1.5272  1.7148
  207SOL     OW  768   2.612   2.997   3.360 -0.4429  0.0103 -0.4385
  207SOL    HW1  769   2.690   3.014   3.307 -0.6997  1.6620 -0.3449
  207SOL    HW2  770   2.645   2.963   3.443  0.2655  1.5192 -0.0731
  208SOL     OW  771   1.188   3.519   0.049 -0.0099  0.8518  0.1234
  208SOL    HW1  772   1.141   3.502   0.131 -0.6876  2.2242  0.0548
  208SOL    HW2  773   1.182   3.437   0.000  0.2981  0.0451  1.3890
  209SOL     OW  774   2.076   3.324   2.824  0.0823  0.4220  0.1269
  209SOL    HW1  775   2.114   3.271   2.895  0.5744 -1.1781 -1.2764
  209SOL    HW2  776   2.133   3.400   2.818  1.9887 -0.9915 -0.6497
  210SOL     OW  777   2.164   0.260   2.959  0.5160 -0.3573 -0.2652
  210SOL    HW1  778   2.217   0.225   3.031  0.8950  3.0006  1.2741
  210SOL    HW2  779   2.080   0.282   2.999 -0.2088 -0.7811 -1.4987
  211SOL     OW  780   2.560   0.308   0.928 -0.2607 -0.1526 -0.1920
  211SOL    HW1  781   2.486   0.352   0.885 -1.1346  0.1381  1.4964
  211SOL    HW2  782   2.559   0.219   0.892 -2.1774 -0.5016  0.5866
  212SOL     OW  783   0.356   2.970   2.476 -0.0542  0.0015 -0.2318
  212SOL    HW1  784   0.314   2.889   2.446  0.2879 -0.2394 -0.0759
  212SOL    HW2  785   0.450   2.948   2.478  0.2088  0.8916 -1.7175
  213SOL     OW  786   2.513   1.473   3.451 -0.2268 -0.5259  0.5664
  213SOL    HW1  787   2.466   1.553   3.474  1.5053  0.4419  0.8842
  213SOL    HW2  788   2.502   1.416   3.527 -1.2361 -0.5203  0.4474
  214SOL     OW  789   0.627   0.582   2.996  0.4939 -0.1548  0.1988
  214SOL    HW1  790   0.610   0.608   3.087 -1.5066 -1.3879  0.2289
  214SOL    HW2  791   0.696   0.515   3.003 -0.1654 -0.7803  0.9023
  215SOL     OW  792   2.605   0.689   1.309  0.6542 -0.0512 -0.1471
  215SOL    HW1  793   2.643   0.655   1.228  0.8522  2.7464 -1.3322
  215SOL    HW2  794   2.510   0.681   1.296  0.5376  3.0319 -2.0523
  216SOL     OW  795   0.999   2.768   2.677  0.8223 -0.5308 -0.0180
  216SOL    HW1  796   0.963   2.793   2.592 -1.6191 -1.1563  0.7389
  216SOL    HW2  797   1.028   2.850   2.716 -2.8642  0.6494  0.5865
  217SOL     OW  798   0.748   2.370   2.389 -0.2947 -0.3086  0.2650
  217SOL    HW1  799   0.673   2.428   2.380 -0.5693 -0.8718 -1.5573
  217SOL    HW2  800   0.711   2.282   2.388  0.2907 -0.5674  0.6478
  218SOL     OW  801   1.171   0.050   2.181  0.2672 -0.2900  0.3315
  218SOL    HW1  802   1.186   0.124   2.240  1.2273 -0.2220  0.0138
  218SOL    HW2  803   1.162   0.090   2.095 -2.5793 -0.2384  0.5369
  219SOL     OW  804   0.730   2.361   2.076 -0.3507  0.5953  0.3980
  219SOL    HW1  805   0.665   2.387   2.141 -0.5115 -0.0672  0.5129
  219SOL    HW2  806   0.682   2.304   2.015  0.4301 -1.1502  1.3333
  220SOL     OW  807   1.465   3.444   1.248  0.7102  0.0795 -0.3102
  220SOL    HW1  808   1.502   3.519   1.294  1.7459  0.5271 -1.8081
  220SOL    HW2  809   1.383   3.477   1.210  0.1902 -0.1076  0.6283
  221SOL     OW  810   2.917  -0.028   0.879  0.2852  0.0400 -0.2826
  221SOL    HW1  811   2.920   0.047   0.938  3.2975  1.8860 -2.4427
  221SOL    HW2  812   2.899   0.011   0.793 -0.6729 -2.1133 -1.1305
  222SOL     OW  813   0.086   3.199   1.857  0.5710 -0.0746 -0.2861
  222SOL    HW1  814   0.172   3.189   1.816  0.8995 -0.0642  0.3978
  222SOL    HW2  815   0.028   3.222   1.784  1.4665  1.6969 -0.5051
  223SOL     OW  816   2.532   3.708   3.440 -0.0740  0.1307  0.5281
  223SOL    HW1  817   2.545   3.641   3.372 -3.0018 -0.1563  0.1081
  223SOL    HW2  818   2.561   3.789   3.399  1.3782 -0.5051  0.2168
  224SOL     OW  819   3.103   1.670   0.917 -0.1053  0.3160 -0.0665
  224SOL    HW1  820   3.168   1.635   0.978 -0.1993  1.0612  0.4689
  224SOL    HW2  821   3.020   1.634   0.947 -0.1241  0.5169  0.1254
  225SOL     OW  822   0.949   2.111   3.692  0.2899  0.3355  0.0120
  225SOL    HW1  823   0.978   2.086   3.604  0.2803  0.1935  0.0489
  225SOL    HW2  824   0.860   2.075   3.699  0.9080 -1.1704  0.7074
  226SOL     OW  825   3.680   1.119   1.625 -0.0384 -0.3678 -0.3282
  226SOL    HW1  826   3.689   1.028   1.594 -1.5222 -1.1246  1.2884
  226SOL    HW2  827   3.740   1.124   1.700 -2.5724 -1.2530  1.9250
  227SOL     OW  828   1.398   2.264   1.239 -0.2676 -0.0244  0.8688
  227SOL    HW1  829   1.410   2.319   1.316 -0.4666  1.1710  0.0766
  227SOL    HW2  830   1.365   2.324   1.172  0.9911 -0.7925 -0.4802
  228SOL     OW  831   1.337   0.678   1.607  0.4634 -0.1275 -0.1212
  228SOL    HW1  832   1.395   0.749   1.635 -0.4638 -0.1497  2.0626
  228SOL    HW2  833   1.334   0.686   1.512 -0.1905  3.2839  0.0577
  229SOL     OW  834   1.277   1.892   0.486  0.2679 -0.0185 -0.0699
  229SOL    HW1  835   1.367   1.889   0.517  0.1247  1.0105  0.4882
  229SOL    HW2  836   1.248   1.801   0.488  0.9655 -0.2396  0.7583
  230SOL     OW  837   0.500   1.106   3.208  0.7790  0.4922 -0.5304
  230SOL    HW1  838   0.423   1.111   3.152  1.3991  2.3968 -1.3112
  230SOL    HW2  839   0.547   1.028   3.178 -1.0635 -1.0177  0.3365
  231SOL     OW  840   0.743   0.260   2.816  0.2907 -0.5254 -0.0162
  231SOL    HW1  841   0.657   0.259   2.857 -0.3340 -1.9450 -1.2666
  231SOL    HW2  842   0.727   0.239   2.724  1.9137 -0.2472 -0.4063
  232SOL     OW  843   2.107   0.559   2.458 -0.3026 -0.0979 -0.6187
  232SOL    HW1  844   2.145   0.566   2.546  1.6954  0.4874 -1.4568
  232SOL    HW2  845   2.055   0.638   2.448 -0.7533 -0.2907  0.1199
  233SOL     OW  846   2.329   2.435   2.323 -0.4791 -0.3759 -0.0328
  233SOL    HW1  847   2.398   2.404   2.264  1.3737 -0.4875  2.0637
  233SOL    HW2  848   2.328   2.530   2.311 -0.8916 -0.4877 -0.9979
  234SOL     OW  849   2.525   2.756   3.275 -0.9559 -0.8337 -0.3459
  234SOL    HW1  850   2.560   2.842   3.298  0.5618 -1.6269  0.4798
  234SOL    HW2  851   2.535   2.750   3.180  0.3635 -0.6654 -0.2382
  235SOL     OW  852   0.004   1.920   2.834  0.0030 -0.2322 -0.0583
  235SOL    HW1  853   0.095   1.935   2.858  0.5887 -1.9540 -0.9921
  235SOL    HW2  854  -0.001   1.941   2.741 -0.7958  0.6900  0.1679
  236SOL     OW  855   2.361   0.109   1.419  0.1126 -0.2183 -0.4063
  236SOL    HW1  856   2.275   0.097   1.459 -0.4604  0.2074 -1.4977
  236SOL    HW2  857   2.415   0.041   1.460 -0.9181 -0.9795 -0.2512
  237SOL     OW  858   0.741   1.214   3.161  0.5078 -0.1815 -0.7799
  237SOL    HW1  859   0.731   1.188   3.069  3.8338  0.6029 -1.4970
  237SOL    HW2  860   0.653   1.207   3.197 -0.5405 -2.7588 -3.4057
  238SOL     OW  861   1.035   1.914   1.783  0.4169  0.0933 -0.1369
  238SOL    HW1  862   0.950   1.950   1.809 -0.0588 -0.2272 -1.2103
  238SOL    HW2  863   1.071   1.979   1.723  0.3479 -0.3901 -0.7002
  239SOL     OW  864   2.924   1.592   2.160  0.7508  0.0440 -0.4689
  239SOL    HW1  865   2.907   1.571   2.252 -0.5893  1.6964 -0.2996
  239SOL    HW2  866   2.956   1.510   2.123  2.1116 -0.4731  1.6287
  240SOL     OW  867   2.449   1.065   0.517 -0.0210 -0.1457  0.9737
  240SOL    HW1  868   2.505   1.094   0.445  1.5059  0.0119  2.1708
  240SOL    HW2  869   2.360   1.088   0.489  0.6328  0.8868 -0.3763
  241SOL     OW  870   3.348   2.676   3.365 -0.0363  0.4193 -0.0224
  241SOL    HW1  871   3.432   2.660   3.407 -0.3444  0.5516  0.6594
  241SOL    HW2  872   3.325   2.592   3.327  0.3495  0.3504 -0.1089
  242SOL     OW  873   2.008   1.653   1.478  0.3068  0.3616 -0.1574
  242SOL    HW1  874   2.088   1.703   1.496  0.7995 -0.3367 -0.3777
  242SOL    HW2  875   2.038   1.563   1.466 -0.4912  0.1277 -0.4520
  243SOL     OW  876   2.264   3.528   1.471 -0.3726 -0.2653 -0.0705
  243SOL    HW1  877   2.334   3.471   1.438 -0.3301 -0.9437  1.1392
  243SOL    HW2  878   2.184   3.493   1.432 -0.7768 -3.1740  2.9930
  244SOL     OW  879   2.987   2.710   3.075  0.0753  0.0731 -0.0252
  244SOL    HW1  880   3.052   2.779   3.085 -0.6028  0.7573 -0.2116
  244SOL    HW2  881   3.037   2.628   3.077  0.8856  0.5700  0.2076
  245SOL     OW  882   1.918   0.081   0.880 -0.2518  0.2706 -0.7390
  245SOL    HW1  883   1.874   0.100   0.962  1.1732 -2.1118  0.7156
  245SOL    HW2  884   1.865   0.011   0.840  0.3800 -0.3078 -0.5893
  246SOL     OW  885   3.164   3.319   2.594 -0.4896  0.6569 -0.0855
  246SOL    HW1  886   3.169   3.415   2.587 -4.5082  1.0240 -0.0522
  246SOL    HW2  887   3.187   3.288   2.506  0.9708  1.5803 -0.0750
  247SOL     OW  888   0.948   2.426   0.560 -0.1981  0.5157  0.4745
  247SOL    HW1  889   0.909   2.385   0.638 -1.7297  0.1325 -0.4397
  247SOL    HW2  890   0.981   2.353   0.509  0.8882  0.7745  0.7841
  248SOL     OW  891   2.376   0.866   2.687 -0.4529 -0.4449  0.1542
  248SOL    HW1  892   2.376   0.779   2.646 -1.3833 -0.7026  0.6778
  248SOL    HW2  893   2.456   0.867   2.741 -0.4609 -0.9890  0.1805
  249SOL     OW  894   1.621   1.875   0.342 -0.6098 -0.1099 -0.1204
  249SOL    HW1  895   1.671   1.800   0.374  1.2349  0.9756 -0.2613
  249SOL    HW2  896   1.604   1.928   0.420 -1.4397 -0.4048 -0.0951
  250SOL     OW  897   1.263   1.086   0.445  0.7158  0.2302 -0.2633
  250SOL    HW1  898   1.333   1.140   0.481  1.2511  0.6920 -1.9068
  250SOL    HW2  899   1.243   1.125   0.360 -0.3437 -0.9235 -0.5862
  251SOL     OW  900   3.598   3.384   0.422  0.2543 -0.0885  0.1529
  251SOL    HW1  901   3.541   3.352   0.493  1.3556  0.3534  1.2729
  251SOL    HW2  902   3.582   3.323   0.350 -2.4067  0.6233  0.0406
  252SOL     OW  903   0.845   1.832   2.848 -0.0958  0.3560  0.0605
  252SOL    HW1  904   0.795   1.821   2.929  1.6364  0.9230  1.2662
  252SOL    HW2  905   0.880   1.921   2.854  0.1169  0.3826 -1.3023
  253SOL     OW  906   1.361   0.208   2.711  0.5586 -0.2804  0.4084
  253SOL    HW1  907   1.378   0.187   2.619 -0.5870 -1.3275  0.4108
  253SOL    HW2  908   1.403   0.138   2.761 -0.4524 -0.8012  0.5683
  254SOL     OW  909   2.942   2.891   1.655  0.4150  0.0086 -0.0562
  254SOL    HW1  910   2.979   2.890   1.567 -0.6242  2.0091 -0.5937
  254SOL    HW2  911   2.896   2.808   1.663 -1.1917  0.5751 -2.2483
  255SOL     OW  912   1.112   2.875   1.195  0.3788 -0.0778 -0.2240
  255SOL    HW1  913   1.145   2.953   1.151 -0.8461  0.0350 -0.9985
  255SOL    HW2  914   1.190   2.828   1.225  1.1292  1.3452  0.0997
  256SOL     OW  915   2.106   1.173   0.699  0.6628 -0.2554 -0.0367
  256SOL    HW1  916   2.145   1.125   0.773  0.5015 -0.5351 -0.1326
  256SOL    HW2  917   2.060   1.106   0.649 -0.6148  0.1875  0.5031
  257SOL     OW  918   2.106   2.633   2.808  0.0468  0.4787 -0.2118
  257SOL    HW1  919   2.196   2.641   2.776  0.6783  0.2564  1.4013
  257SOL    HW2  920   2.064   2.574   2.746 -0.0197  3.1938 -2.9644
  258SOL     OW  921   0.987   3.389   1.287 -0.3613 -0.6733 -0.1154
  258SOL    HW1  922   1.001   3.309   1.236 -0.0931 -1.0005  0.4579
  258SOL    HW2  923   0.944   3.449   1.226  2.0764 -0.1830 -1.4951
  259SOL     OW  924   1.072   2.516   3.672 -0.2835 -0.2681  0.2051
  259SOL    HW1  925   1.013   2.591   3.663 -0.9021 -0.7489  0.1357
  259SOL    HW2  926   1.118   2.512   3.588 -1.2079 -0.7471 -0.2980
  260SOL     OW  927   2.286   3.365   2.480 -0.6532  0.1928  0.2581
  260SOL    HW1  928   2.226   3.426   2.438 -0.7441  0.9728  1.4635
  260SOL    HW2  929   2.329   3.416   2.548 -2.0099 -1.4542  2.5231
  261SOL     OW  930   1.339   1.637   0.001 -0.2886  0.4023  0.3400
  261SOL    HW1  931   1.363   1.711   0.057 -0.5398  1.4719 -0.9147
  261SOL    HW2  932   1.362   1.560   0.053  3.0623  1.3242  0.4728
  262SOL     OW  933   1.961   0.346   2.540  0.7573 -0.0957 -0.2627
  262SOL    HW1  934   1.975   0.409   2.469  1.2235 -1.3706 -1.3309
  262SOL    HW2  935   1.892   0.386   2.593  1.2716  1.4709 -0.7043
  263SOL     OW  936   3.157   3.012   0.785 -0.0952  0.8106 -0.2924
  263SOL    HW1  937   3.099   2.968   0.723  1.9348 -2.6392 -0.0046
  263SOL    HW2  938   3.126   2.985   0.871  1.8750 -1.2170 -0.1367
  264SOL     OW  939   3.290   2.478   1.843 -0.0267  0.2763 -0.6527
  264SOL    HW1  940   3.382   2.482   1.868 -0.2763  1.8468  0.1695
  264SOL    HW2  941   3.262   2.390   1.867  1.3799 -0.4286 -1.4540
  265SOL     OW  942   2.131   3.129   0.641  0.4732  0.2908  0.1675
  265SOL    HW1  943   2.212   3.119   0.692  0.4453 -3.7004 -0.2477
  265SOL    HW2  944   2.147   3.206   0.586  4.2280 -0.5549 -0.2184
  266SOL     OW  945   0.591   2.211   3.530  0.5501  0.2614  0.0058
  266SOL    HW1  946   0.615   2.135   3.583  0.2851  0.6533  0.6946
  266SOL    HW2  947   0.671   2.263   3.525 -0.0039  1.4334  2.0759
  267SOL     OW  948   1.024   1.611   2.929 -0.2395 -0.3706  0.0880
  267SOL    HW1  949   0.955   1.677   2.928 -0.8217 -0.9656 -1.1250
  267SOL    HW2  950   1.022   1.576   3.019 -2.7523 -1.6037 -0.3439
  268SOL     OW  951   1.833   0.773   2.732 -0.5186 -0.5186  0.0559
  268SOL    HW1  952   1.808   0.864   2.715 -2.2309 -0.4115  2.6090
  268SOL    HW2  953   1.916   0.780   2.779 -0.6619 -0.2476  0.2772
  269SOL     OW  954   1.559   1.024   3.694  0.1528  0.1717 -0.2431
  269SOL    HW1  955   1.591   0.935   3.677  0.2001 -0.2427  1.7536
  269SOL    HW2  956   1.465   1.019   3.675  0.2287 -0.1832 -0.5404
  270SOL     OW  957   1.221   1.904   0.228 -0.2252 -0.6346  0.0917
  270SOL    HW1  958   1.239   1.931   0.319 -0.2849  0.7881 -0.3026
  270SOL    HW2  959   1.135   1.863   0.232 -0.3041 -0.4273  0.6617
  271SOL     OW  960   1.736   1.646   1.561  0.1731 -0.4321 -0.3628
  271SOL    HW1  961   1.729   1.715   1.496  1.8597 -0.6466 -0.8254
  271SOL    HW2  962   1.825   1.612   1.550  0.2629 -0.9376  1.5792
  272SOL     OW  963   3.251   2.419   3.138  0.0520 -0.1913  0.1203
  272SOL    HW1  964   3.228   2.468   3.059  1.6292 -0.1796 -0.3580
  272SOL    HW2  965   3.261   2.329   3.109 -3.3552 -1.0460  1.0883
  273SOL     OW  966   2.969   3.326   0.654  0.4546 -0.1875  0.0530
  273SOL    HW1  967   3.024   3.348   0.729  0.5858  0.5818 -0.2611
  273SOL    HW2  968   2.942   3.411   0.619 -1.3021 -0.5429  0.4618
  274SOL     OW  969   0.927   0.888   2.969 -0.1117  0.5772  0.9158
  274SOL    HW1  970   1.005   0.862   3.018 -1.6671 -1.7243  2.3736
  274SOL    HW2  971   0.909   0.814   2.912 -0.7765  1.4447 -0.0240
  275SOL     OW  972   2.671   2.167   2.742  0.1755 -0.1848 -0.3260
  275SOL    HW1  973   2.629   2.201   2.663  0.0217 -0.7138 -0.4795
  275SOL    HW2  974   2.648   2.230   2.811 -1.4044 -0.7641 -0.2710
  276SOL     OW  975   2.185   0.523   3.611  0.1139  0.2806 -0.5219
  276SOL    HW1  976   2.125   0.511   3.685  0.1766  0.1704 -0.4890
  276SOL    HW2  977   2.127   0.519   3.534  0.1158 -0.1229 -0.5053
  277SOL     OW  978   2.577   0.751   2.033 -0.2039  0.2882 -0.1843
  277SOL    HW1  979   2.668   0.722   2.024  0.3816  1.8068  0.4152
  277SOL    HW2  980   2.540   0.744   1.945  0.2552 -1.0163 -0.2975
  278SOL     OW  981   1.123   1.562   3.504  0.2383  0.1804 -0.0365
  278SOL    HW1  982   1.189   1.497   3.479 -0.7592 -0.3931 -1.2606
  278SOL    HW2  983   1.052   1.511   3.542  0.2186  0.7485  0.7315
  279SOL     OW  984   0.642   3.246   1.929  0.3345  0.4663 -0.4235
  279SOL    HW1  985   0.685   3.245   1.843 -2.0116  0.7189 -1.6989
  279SOL    HW2  986   0.626   3.154   1.949  1.1824  0.3857 -0.0546
  280SOL     OW  987   3.722   3.676   1.361 -0.2077  0.0044  0.1637
  280SOL    HW1  988   3.631   3.665   1.391  0.4888 -0.0266  2.4215
  280SOL    HW2  989   3.732   3.771   1.351 -0.2642  0.0784  0.7430
  281SOL     OW  990   2.246   0.875   0.237 -0.4429 -0.2782 -0.1234
  281SOL    HW1  991   2.289   0.902   0.156  0.2292 -2.3649 -0.5321
  281SOL    HW2  992   2.255   0.780   0.238 -1.3803 -0.3963  1.8909
  282SOL     OW  993   2.382   1.693   3.558  0.1194  0.1075 -0.1947
  282SOL    HW1  994   2.306   1.746   3.582  0.8470  1.1592 -0.1523
  282SOL    HW2  995   2.450   1.718   3.621 -0.4099 -3.2459  1.9759
  283SOL     OW  996   2.735   0.125   1.049  0.5291  0.1730 -0.3643
  283SOL    HW1  997   2.646   0.153   1.069  1.3461  1.1763  2.2425
  283SOL    HW2  998   2.735   0.108   0.955 -2.3460  0.3067 -0.4476
  284SOL     OW  999   3.511   2.625   3.707 -0.9737 -0.7033 -0.3135
  284SOL    HW1 1000   3.526   2.621   3.613 -0.2720  1.0544 -0.3005
  284SOL    HW2 1001   3.511   2.718   3.728  0.6847 -1.0734  1.7045
  285SOL     OW 1002   1.090   3.680   1.219 -0.4937  0.3042 -0.5615
  285SOL    HW1 1003   1.163   3.736   1.247  0.6966 -2.0697  1.4924
  285SOL    HW2 1004   1.028   3.684   1.292  0.3302 -2.1253  0.3619
  286SOL     OW 1005   1.548   3.463   0.209  0.1434  0.2718  0.2381
  286SOL    HW1 1006   1.564   3.422   0.124 -1.7457  0.6543 -0.3614
  286SOL    HW2 1007   1.628   3.447   0.259  0.4867 -1.8805 -0.8462
  287SOL     OW 1008   3.376   2.035   2.107  0.4187  0.2252  0.3884
  287SOL    HW1 1009   3.309   1.989   2.057  0.5907  1.0563 -0.6392
  287SOL    HW2 1010   3.446   1.970   2.119  1.7076  0.7640 -3.0831
  288SOL     OW 1011   3.400   3.458   1.651 -0.2612  0.2883  0.5317
  288SOL    HW1 1012   3.408   3.400   1.574 -1.6362 -0.2493  0.7620
  288SOL    HW2 1013   3.317   3.504   1.637 -0.1718  0.6996  1.3525
  289SOL     OW 1014   3.428   0.605   1.868 -0.7842  0.2910 -0.0983
  289SOL    HW1 1015   3.357   0.647   1.917 -1.7023 -0.7577 -0.4804
  289SOL    HW2 1016   3.403   0.616   1.776 -0.7928 -0.6547 -0.2136
  290SOL     OW 1017   2.216   2.063   2.706  0.4299  0.1092 -0.0352
  290SOL    HW1 1018   2.197   2.051   2.799  1.4881 -0.6184  0.1143
  290SOL    HW2 1019   2.310   2.043   2.698  0.6330  1.3308 -1.0633
  291SOL     OW 1020   1.038   1.576   3.191 -0.0192  0.2306  0.3576
  291SOL    HW1 1021   0.998   1.607   3.272 -0.4726 -1.0456  0.6476
  291SOL    HW2 1022   1.110   1.520   3.219 -1.9622 -2.6337  0.0335
  292SOL     OW 1023   0.199   3.489   1.411 -0.4621  0.1635 -0.0193
  292SOL    HW1 1024   0.251   3.536   1.477 -1.3042 -0.1524  0.8987
  292SOL    HW2 1025   0.123   3.545   1.397 -1.2093 -0.6382  0.6876
  293SOL     OW 1026   0.362   0.621   0.681 -0.1840  0.2715 -0.0367
  293SOL    HW1 1027   0.455   0.639   0.695  0.0390 -1.0776  0.3222
  293SOL    HW2 1028   0.339   0.672   0.603  1.3920 -1.0351 -1.4226
  294SOL     OW 1029   1.818   0.988   1.858 -0.6522  0.2134  0.3559
  294SOL    HW1 1030   1.899   0.938   1.866 -0.7036  0.1014  0.1735
  294SOL    HW2 1031   1.829   1.040   1.779  0.8097  3.0628  2.2827
  295SOL     OW 1032   0.280   2.615   3.390  0.0628 -0.2110  0.3939
  295SOL    HW1 1033   0.323   2.540   3.431  2.0810  1.2499  1.0583
  295SOL    HW2 1034   0.281   2.683   3.457 -3.4446 -0.0587  0.4963
  296SOL     OW 1035   2.198   1.460   1.189  0.4509  0.6117 -0.1365
  296SOL    HW1 1036   2.227   1.419   1.107 -1.5742  1.3128 -1.2652
  296SOL    HW2 1037   2.105   1.440   1.194  0.4322  1.0056  1.7855
  297SOL     OW 1038   2.217   1.348   1.861 -0.2959 -0.2130 -0.6473
  297SOL    HW1 1039   2.282   1.394   1.808 -0.9885  1.1764 -0.3283
  297SOL    HW2 1040   2.237   1.255   1.848  1.1913  0.1674 -1.2373
  298SOL     OW 1041   3.502   1.406   0.389  0.3189 -0.1389  0.1211
  298SOL    HW1 1042   3.510   1.329   0.445  2.0966 -1.6776 -2.0937
  298SOL    HW2 1043   3.457   1.375   0.311  0.8239  1.1208 -0.7036
  299SOL     OW 1044   2.176   2.062   2.965  0.3953 -0.5100 -0.1019
  299SOL    HW1 1045   2.104   2.061   3.028  1.2940 -1.0948  0.9537
  299SOL    HW2 1046   2.253   2.039   3.016  1.5839  1.4184 -0.9170
  300SOL     OW 1047   1.276   1.390   0.919 -0.1183 -0.1457 -0.1494
  300SOL    HW1 1048   1.254   1.456   0.984  0.6971  0.4709 -0.4820
  300SOL    HW2 1049   1.209   1.322   0.930 -1.2991  0.9610 -0.1394
  301SOL     OW 1050   3.544   0.327   1.823  0.1436 -0.2568  0.1866
  301SOL    HW1 1051   3.537   0.331   1.919  0.0548 -2.4168  0.3165
  301SOL    HW2 1052   3.636   0.344   1.806  0.0053  0.9562  0.5833
  302SOL     OW 1053   0.057   0.239   2.679 -0.6286  0.7067 -0.9041
  302SOL    HW1 1054   0.094   0.326   2.695  0.3076  0.0565  0.7950
  302SOL    HW2 1055   0.055   0.198   2.765 -2.9720 -0.2577 -1.3526
  303SOL     OW 1056   2.330   2.241   1.860 -0.2725  0.1948  0.0307
  303SOL    HW1 1057   2.310   2.296   1.936 -0.1899 -0.0615  0.2430
  303SOL    HW2 1058   2.266   2.170   1.866  1.4365 -1.3347  1.4446
  304SOL     OW 1059   2.609   1.660   0.222 -0.6767  0.0186  0.6321
  304SOL    HW1 1060   2.686   1.634   0.272  0.1818  0.7922 -0.2559
  304SOL    HW2 1061   2.540   1.601   0.252  0.5727 -1.5671  0.5202
  305SOL     OW 1062   1.225   3.215   1.127  0.2131  0.1580  0.1673
  305SOL    HW1 1063   1.292   3.270   1.087  0.3179 -1.6700 -2.4023
  305SOL    HW2 1064   1.143   3.259   1.107  0.4532  1.4632  1.7786
  306SOL     OW 1065   3.451   0.445   0.111  0.7580 -0.2250 -0.5810
  306SOL    HW1 1066   3.358   0.421   0.112  1.0157 -1.3216 -0.9339
  306SOL    HW2 1067   3.466   0.486   0.196 -0.2640  0.8681 -0.9042
  307SOL     OW 1068   2.106   3.359   0.409  0.1243 -0.3847  0.0842
  307SOL    HW1 1069   2.146   3.426   0.465 -0.9112 -0.1625  0.5882
  307SOL    HW2 1070   2.112   3.394   0.320  2.0271 -0.8593 -0.0120
  308SOL     OW 1071   1.514   1.615   2.356 -0.5026  0.0566 -0.0911
  308SOL    HW1 1072   1.466   1.617   2.273  0.4344 -0.0550 -0.6457
  308SOL    HW2 1073   1.446   1.604   2.423 -1.2177 -0.4589 -0.8839
  309SOL     OW 1074   1.528   0.056   2.091  0.1934 -0.0507 -1.1022
  309SOL    HW1 1075   1.523   0.073   2.186 -1.1198 -1.5313 -0.8705
  309SOL    HW2 1076   1.542  -0.039   2.085 -0.4786 -0.0806 -2.4064
  310SOL     OW 1077   0.567   2.635   1.758  0.6672  0.4990 -0.4542
  310SOL    HW1 1078   0.577   2.671   1.847  2.0311  0.4586 -0.5694
  310SOL    HW2 1079   0.526   2.550   1.772 -0.6235  1.1625 -0.0065
  311SOL     OW 1080   2.631   1.343   1.605  0.2026 -0.5318  0.1251
  311SOL    HW1 1081   2.631   1.372   1.514  1.3896  1.5297  0.7093
  311SOL    HW2 1082   2.676   1.259   1.605 -1.2311 -1.3645 -1.3523
  312SOL     OW 1083   3.295   2.072   1.034 -0.6161 -0.8929  0.2546
  312SOL    HW1 1084   3.257   2.044   0.951 -0.3463 -0.6386  0.0414
  312SOL    HW2 1085   3.389   2.058   1.023 -0.6781 -1.9543  0.9483
  313SOL     OW 1086   3.293   2.231   1.950  0.6963 -0.4173 -0.1419
  313SOL    HW1 1087   3.346   2.168   1.998 -1.0557 -2.1423 -0.3045
  313SOL    HW2 1088   3.230   2.177   1.902  1.0164  1.3214 -2.7221
  314SOL     OW 1089   2.786   1.620   0.727  0.5622  0.2222 -0.5110
  314SOL    HW1 1090   2.754   1.709   0.713 -1.5325 -0.1481  1.3902
  314SOL    HW2 1091   2.836   1.626   0.809  1.0319 -0.2118 -0.7655
  315SOL     OW 1092   2.752   3.670   3.204  0.0113 -1.1364  0.4812
  315SOL    HW1 1093   2.828   3.615   3.186 -0.2958 -1.0445 -1.2730
  315SOL    HW2 1094   2.714   3.687   3.117 -1.5807 -0.5770  1.2574
  316SOL     OW 1095   1.230   3.663   0.835  0.1975 -0.1576 -0.1444
  316SOL    HW1 1096   1.152   3.711   0.865  1.5040  1.3223  1.0272
  316SOL    HW2 1097   1.256   3.707   0.754 -0.5035 -1.0623 -0.8931
  317SOL     OW 1098   0.029   2.068   2.209  0.1286 -0.3364  0.5346
  317SOL    HW1 1099   0.048   2.144   2.154 -1.0962 -2.2316 -2.8278
  317SOL    HW2 1100   0.110   2.018   2.211  0.4413  0.1837  1.3029
  318SOL     OW 1101   1.385   1.201   3.132 -0.0687 -0.0141  0.0009
  318SOL    HW1 1102   1.320   1.139   3.100  1.1425 -0.8280 -0.9729
  318SOL    HW2 1103   1.355   1.286   3.099 -1.7302 -0.0240  1.3312
  319SOL     OW 1104   2.575   1.287   3.117 -0.2932 -0.2777  0.3074
  319SOL    HW1 1105   2.553   1.235   3.039 -1.4903 -1.4310  1.3628
  319SOL    HW2 1106   2.497   1.279   3.173  0.2105  1.2189  1.2685
  320SOL     OW 1107   3.159   0.598   3.189 -0.3566 -0.1727 -0.9044
  320SOL    HW1 1108   3.140   0.508   3.164  0.3435 -0.4804 -0.3657
  320SOL    HW2 1109   3.198   0.592   3.276  0.9932  0.5098 -1.4163
  321SOL     OW 1110   2.435   3.258   3.481  0.0205 -0.1319  0.1290
  321SOL    HW1 1111   2.523   3.272   3.445  0.2311 -0.4727  0.4880
  321SOL    HW2 1112   2.406   3.345   3.508 -0.1697  0.1340 -0.9078
  322SOL     OW 1113   1.981   2.954   1.552  0.5181  0.1564  0.5254
  322SOL    HW1 1114   2.009   2.907   1.631  0.6279 -0.7710 -0.0596
  322SOL    HW2 1115   1.923   2.893   1.507 -1.7329  1.6727  1.2053
  323SOL     OW 1116   2.673   1.054   1.660  0.5129  0.4078 -0.5436
  323SOL    HW1 1117   2.589   1.068   1.702  1.7489  2.9267  1.3252
  323SOL    HW2 1118   2.704   0.971   1.696 -0.6717 -0.0366 -0.4931
  324SOL     OW 1119   1.143   1.095   3.026 -0.1927 -0.0945 -0.2774
  324SOL    HW1 1120   1.057   1.132   3.045  0.7206  1.6575  0.6804
  324SOL    HW2 1121   1.176   1.145   2.952  1.0318  1.0850  0.9931
  325SOL     OW 1122   1.881   1.878   1.843 -0.2038  0.1778  0.1903
  325SOL    HW1 1123   1.914   1.791   1.821  0.2692  0.7077 -1.3401
  325SOL    HW2 1124   1.924   1.900   1.925  0.0521 -0.8284  0.3388
  326SOL     OW 1125   1.632   2.510   1.953 -0.4342  0.3337 -0.4247
  326SOL    HW1 1126   1.651   2.554   1.870  2.4122 -0.5242 -0.3335
  326SOL    HW2 1127   1.642   2.578   2.019 -0.7979  0.5936 -0.6343
  327SOL     OW 1128   2.547   0.069   0.819 -0.0898 -0.5747  0.1773
  327SOL    HW1 1129   2.587   0.041   0.736 -0.3924  0.4000 -0.3108
  327SOL    HW2 1130   2.486  -0.000   0.841  2.7453 -2.8476  1.6588
  328SOL     OW 1131   3.607   3.190   3.297  0.3646  0.3142  0.1579
  328SOL    HW1 1132   3.702   3.204   3.301  0.2355  1.0159  2.8446
  328SOL    HW2 1133   3.572   3.274   3.270  0.4586  0.4250  0.3745
  329SOL     OW 1134   1.599   1.168   2.966  0.2758  0.7337  0.3238
  329SOL    HW1 1135   1.557   1.224   2.901 -0.9815  0.2094  0.6475
  329SOL    HW2 1136   1.532   1.157   3.034 -0.4827 -3.0165 -0.7813
  330SOL     OW 1137   2.997   3.063   2.555 -0.1099  0.4195 -0.1251
  330SOL    HW1 1138   3.046   3.143   2.535 -0.6655  1.0528  0.9266
  330SOL    HW2 1139   2.987   3.019   2.471 -0.5392  1.8922 -0.8698
  331SOL     OW 1140   0.065   1.206   0.042  0.1157 -0.2906 -0.1500
  331SOL    HW1 1141  -0.028   1.216   0.023 -0.1581 -0.6348  0.9316
  331SOL    HW2 1142   0.105   1.186  -0.043 -0.8879 -0.8209 -0.5182
  332SOL     OW 1143   0.763   0.637   1.298 -0.7313 -0.2736  0.3955
  332SOL    HW1 1144   0.741   0.712   1.244  0.1551 -0.3468 -0.0711
  332SOL    HW2 1145   0.803   0.674   1.376 -0.2537 -0.2630  0.1456
  333SOL     OW 1146   1.116   3.568   1.836 -0.7906 -0.4506 -0.1117
  333SOL    HW1 1147   1.202   3.531   1.821 -1.1829 -2.4291  1.9858
  333SOL    HW2 1148   1.056   3.493   1.835 -2.1993  0.6136  0.3429
  334SOL     OW 1149   0.325   1.964   1.909  0.5482  0.1033 -0.3874
  334SOL    HW1 1150   0.265   1.986   1.838  1.2785  0.7119 -0.8311
  334SOL    HW2 1151   0.292   2.012   1.984 -0.7543 -1.2380 -0.0460
  335SOL     OW 1152   0.009   2.930   3.514  0.7221 -0.1284  0.4980
  335SOL    HW1 1153   0.038   2.902   3.427  1.0772  1.7260 -0.0356
  335SOL    HW2 1154   0.082   2.983   3.547  0.0322  0.3087  1.3516
  336SOL     OW 1155   0.217   2.103   3.536 -0.4767  0.4471 -0.7490
  336SOL    HW1 1156   0.175   2.140   3.614  1.6210 -1.0867  1.2383
  336SOL    HW2 1157   0.149   2.049   3.495 -0.8907 -1.0828  1.7280
  337SOL     OW 1158   1.332   3.283   0.309 -0.6422  0.0446  0.0162
  337SOL    HW1 1159   1.255   3.338   0.322 -1.1210 -0.6009 -0.0058
  337SOL    HW2 1160   1.387   3.332   0.248 -0.3946  1.1240  1.0817
  338SOL     OW 1161   2.255   3.441   3.535  0.1604  0.4293 -0.4107
  338SOL    HW1 1162   2.184   3.402   3.585 -0.4186  0.9005 -0.8465
  338SOL    HW2 1163   2.246   3.404   3.447  1.1356 -0.3518 -0.1960
  339SOL     OW 1164   3.593   2.732   2.206 -0.0018 -0.6452  0.2189
  339SOL    HW1 1165   3.572   2.702   2.294  0.1024 -0.2723  0.3721
  339SOL    HW2 1166   3.683   2.705   2.192 -0.1220 -0.9895  0.1026
  340SOL     OW 1167   2.315   2.224   1.208  0.5331 -0.3819 -0.4315
  340SOL    HW1 1168   2.250   2.154   1.205 -1.3928  1.2219  0.8556
  340SOL    HW2 1169   2.335   2.234   1.301 -0.3799  1.6812 -0.3885
  341SOL     OW 1170   1.394   3.658   3.650  0.3091  0.5559  0.1689
  341SOL    HW1 1171   1.313   3.609   3.660 -0.1818  1.1505 -0.8017
  341SOL    HW2 1172   1.385   3.732   3.711 -0.2773  1.1184 -0.5868
  342SOL     OW 1173   0.060   0.022   0.628 -0.1601 -0.4689  0.1990
  342SOL    HW1 1174  -0.031  -0.008   0.625 -1.0161  2.0362 -1.1208
  342SOL    HW2 1175   0.068   0.066   0.713  0.0056 -1.1265  0.5343
  343SOL     OW 1176   0.320   0.757   2.527 -0.6580 -0.6248 -0.1342
  343SOL    HW1 1177   0.280   0.676   2.495  1.1243 -1.9175  0.7366
  343SOL    HW2 1178   0.282   0.770   2.614 -1.0557 -0.4556 -0.3356
  344SOL     OW 1179   0.994   3.662   3.312 -0.1450 -0.7498 -0.6227
  344SOL    HW1 1180   1.063   3.606   3.347 -0.6771 -1.1700 -0.2330
  344SOL    HW2 1181   1.011   3.748   3.351  0.6131 -0.6503 -1.1404
  345SOL     OW 1182   1.903   3.365   2.537  0.1540  0.1433 -0.4735
  345SOL    HW1 1183   1.817   3.402   2.557 -0.3134 -2.2080  2.4590
  345SOL    HW2 1184   1.965   3.433   2.565 -0.7037  0.8398 -0.2233
  346SOL     OW 1185   2.456   0.641   0.031  1.2912  0.0060  1.0313
  346SOL    HW1 1186   2.474   0.551   0.002 -0.8311  0.1799 -1.2184
  346SOL    HW2 1187   2.412   0.631   0.115  0.2366 -1.1736  0.3729
  347SOL     OW 1188   3.427   0.789   2.884 -0.0621  0.2152  0.3339
  347SOL    HW1 1189   3.388   0.875   2.869  0.5337  0.4346  0.0100
  347SOL    HW2 1190   3.380   0.754   2.960 -1.3735  0.1622 -0.4754
  348SOL     OW 1191   1.008   0.098   0.899 -0.0019 -0.2919 -0.4817
  348SOL    HW1 1192   0.972   0.095   0.810  1.4641  1.5625 -1.2177
  348SOL    HW2 1193   0.933   0.115   0.955 -0.7018  0.3711 -1.5954
  349SOL     OW 1194   3.558   0.928   2.374  0.1305  0.0015 -0.1524
  349SOL    HW1 1195   3.511   0.859   2.327 -0.7488 -0.4847  1.3909
  349SOL    HW2 1196   3.558   0.900   2.465  2.2993  0.6396  0.1069
  350SOL     OW 1197   0.690   0.572   3.608  0.3367  0.4108 -0.4436
  350SOL    HW1 1198   0.738   0.493   3.586 -1.9015 -1.8557  1.9699
  350SOL    HW2 1199   0.598   0.546   3.603 -0.4698  2.6365  1.0858
  351SOL     OW 1200   0.220   0.151   2.455 -0.1900  0.4992 -0.6308
  351SOL    HW1 1201   0.133   0.118   2.433  0.3987 -1.7660  0.1856
  351SOL    HW2 1202   0.203   0.228   2.510 -1.6977 -0.0841 -0.2267
  352SOL     OW 1203   3.514   2.910   3.188  0.0272  0.5662 -0.6365
  352SOL    HW1 1204   3.523   2.815   3.193 -1.1210  0.4680  3.2862
  352SOL    HW2 1205   3.599   2.944   3.214  0.5656  0.7189 -2.4363
  353SOL     OW 1206   1.278   0.108   0.607  0.6911  0.1679  0.1701
  353SOL    HW1 1207   1.252   0.106   0.515  2.9300  1.3557 -0.5691
  353SOL    HW2 1208   1.280   0.201   0.629 -0.3876 -0.1257  1.6471
  354SOL     OW 1209   2.372   2.471   0.506  0.9814 -0.4444 -0.4414
  354SOL    HW1 1210   2.445   2.420   0.540  0.6885 -0.9153 -0.5222
  354SOL    HW2 1211   2.367   2.447   0.413  0.3354 -0.8704 -0.2954
  355SOL     OW 1212   1.191   2.498   0.433 -0.4422  0.1349  0.7140
  355SOL    HW1 1213   1.268   2.513   0.488 -0.6542 -1.1085  1.3811
  355SOL    HW2 1214   1.119   2.538   0.482 -0.2049  1.5581 -0.0487
  356SOL     OW 1215   0.650   2.173   0.240 -0.3470  0.6994  1.0073
  356SOL    HW1 1216   0.584   2.180   0.172 -0.1357 -0.2906  0.6797
  356SOL    HW2 1217   0.677   2.263   0.258  0.2133  0.9313 -0.8365
  357SOL     OW 1218   1.179   1.552   2.227 -0.4531 -0.3881  0.2455
  357SOL    HW1 1219   1.255   1.494   2.222 -0.6124 -0.6069  0.3906
  357SOL    HW2 1220   1.200   1.623   2.165  1.1411  1.0624  2.3080
  358SOL     OW 1221   1.707   0.101   1.081  0.3601  0.1912  0.5855
  358SOL    HW1 1222   1.630   0.158   1.083  0.7805  0.8404  4.1890
  358SOL    HW2 1223   1.674   0.018   1.045 -1.6071  0.9563  0.4718
  359SOL     OW 1224   2.365   0.378   1.365 -0.2997 -0.8244  0.1111
  359SOL    HW1 1225   2.374   0.308   1.429  1.4540  0.6974  1.6530
  359SOL    HW2 1226   2.282   0.359   1.320  0.2079 -3.9451  0.2725
  360SOL     OW 1227   3.268   3.465   0.167 -0.0324 -0.0217  1.0414
  360SOL    HW1 1228   3.205   3.394   0.156  0.4289 -0.5003  1.4345
  360SOL    HW2 1229   3.319   3.466   0.086 -1.4564  1.3053  0.1119
  361SOL     OW 1230   2.724   3.515   3.694 -0.0259 -0.0651  0.5706
  361SOL    HW1 1231   2.759   3.508   3.605 -1.3737 -1.2475  0.0967
  361SOL    HW2 1232   2.646   3.459   3.694  0.0825 -0.2944  2.5676
  362SOL     OW 1233   1.034   1.528   1.300 -0.5196 -0.1180  0.2658
  362SOL    HW1 1234   1.084   1.608   1.312  0.7806 -0.6098 -1.3870
  362SOL    HW2 1235   1.100   1.460   1.285 -1.5818 -1.5256  1.6105
  363SOL     OW 1236   1.941   0.129   3.689  0.1127  0.3150  0.6604
  363SOL    HW1 1237   1.961   0.134   3.595  0.6015  1.2401  0.8057
  363SOL    HW2 1238   2.023   0.150   3.732 -0.2756  0.5471  1.3007
  364SOL     OW 1239   3.724   2.367   0.922 -0.2057  0.5445  0.1817
  364SOL    HW1 1240   3.703   2.460   0.928 -1.2842  0.3864 -0.9046
  364SOL    HW2 1241   3.684   2.338   0.841  0.1020 -0.8849  0.5098
  365SOL     OW 1242   2.169   0.110   1.890 -0.5756  0.4209 -0.3125
  365SOL    HW1 1243   2.075   0.127   1.888 -1.0010 -1.6634 -0.1394
  365SOL    HW2 1244   2.198   0.147   1.973 -1.2889  0.8660 -0.2501
  366SOL     OW 1245   1.103   1.415   0.679 -0.1355  0.5068 -0.3971
  366SOL    HW1 1246   1.149   1.416   0.595  0.1131 -1.0914 -0.2982
  366SOL    HW2 1247   1.102   1.323   0.705  0.1922  1.0230  1.5766
  367SOL     OW 1248   3.054   3.573   0.461  0.1158  0.0830  0.2483
  367SOL    HW1 1249   3.025   3.645   0.517  2.3301  1.5618 -0.3911
  367SOL    HW2 1250   3.113   3.522   0.517  0.5350  0.2451 -0.0430
  368SOL     OW 1251   2.079   3.341   1.329  0.0715 -0.7419  0.2623
  368SOL    HW1 1252   2.030   3.311   1.406  0.3069 -1.4920  0.1279
  368SOL    HW2 1253   2.025   3.315   1.254 -0.1220 -0.0777  0.1596
  369SOL     OW 1254   2.198   3.548   0.569 -0.0415  0.2116  0.4561
  369SOL    HW1 1255   2.209   3.540   0.664  2.4891  2.7394  0.4964
  369SOL    HW2 1256   2.272   3.602   0.541 -1.8413  1.2608 -2.6801
  370SOL     OW 1257   2.030   2.334   1.614  0.6104 -1.1740 -0.1546
  370SOL    HW1 1258   1.991   2.248   1.632  0.7384 -1.3271 -0.5889
  370SOL    HW2 1259   1.977   2.395   1.665  2.3597 -1.8140  2.6210
  371SOL     OW 1260   2.434   3.560   0.900  0.3511  0.2354  0.0589
  371SOL    HW1 1261   2.341   3.538   0.888 -0.1581  2.4904 -0.6859
  371SOL    HW2 1262   2.452   3.541   0.992 -1.1595  0.7017  0.4817
  372SOL     OW 1263   1.840   3.519   0.322  0.4596  0.5913  0.2036
  372SOL    HW1 1264   1.818   3.610   0.301  3.1239  1.0984 -0.7917
  372SOL    HW2 1265   1.836   3.473   0.238  1.3565  0.3294  0.2951
  373SOL     OW 1266   3.709   1.515   1.008  0.6912  0.1088 -0.1448
  373SOL    HW1 1267   3.681   1.441   1.062  2.3863  1.0856  2.2496
  373SOL    HW2 1268   3.676   1.592   1.055 -1.1406  0.9856 -2.6330
  374SOL     OW 1269   1.760   0.712   1.139  0.3770  0.0668 -0.1675
  374SOL    HW1 1270   1.709   0.633   1.158  0.4448  0.4518  1.8118
  374SOL    HW2 1271   1.850   0.680   1.131  0.5563  0.0148  1.6285
  375SOL     OW 1272   3.412   1.106   1.029  0.2872 -0.3560 -0.0544
  375SOL    HW1 1273   3.441   1.062   1.109  0.0015 -1.8419 -0.7307
  375SOL    HW2 1274   3.493   1.122   0.980  0.2553 -2.1210 -0.7602
  376SOL     OW 1275   2.868   1.287   2.894  0.2257  0.1438  0.5389
  376SOL    HW1 1276   2.829   1.373   2.910  1.9751  1.2440 -0.7351
  376SOL    HW2 1277   2.811   1.248   2.827  1.6807  2.1456 -2.0553
  377SOL     OW 1278   0.475   1.039   3.638  0.0276 -0.1014 -0.5050
  377SOL    HW1 1279   0.388   1.002   3.621 -0.5541  0.5436  0.9345
  377SOL    HW2 1280   0.526   0.966   3.672 -0.2435 -0.2525 -0.4183
  378SOL     OW 1281   1.649   0.117   3.103 -0.3624  0.0065  0.6166
  378SOL    HW1 1282   1.630   0.172   3.027  0.0048 -0.7809 -0.0656
  378SOL    HW2 1283   1.716   0.055   3.072 -0.8488 -0.9047  1.3176
  379SOL     OW 1284   2.809   2.635   0.814 -0.0273 -0.2388  0.0963
  379SOL    HW1 1285   2.805   2.727   0.841  2.2320  0.1515 -0.6893
  379SOL    HW2 1286   2.796   2.637   0.719 -0.1519 -0.7359  0.1032
  380SOL     OW 1287   1.049   1.551   0.123 -0.2617 -0.2664 -1.1415
  380SOL    HW1 1288   0.998   1.522   0.047  2.1229 -0.0407 -2.9530
  380SOL    HW2 1289   1.130   1.500   0.118  0.4410  0.6004  0.6095
  381SOL     OW 1290   3.470   0.489   0.775 -0.0234  0.0961  0.2610
  381SOL    HW1 1291   3.561   0.460   0.777  0.4505  0.9854 -3.1833
  381SOL    HW2 1292   3.432   0.450   0.854  2.9554 -1.4844  1.0953
  382SOL     OW 1293   1.928   1.611   0.823 -0.3618  0.1331  0.3055
  382SOL    HW1 1294   2.021   1.591   0.814  0.2143  3.1235 -1.8485
  382SOL    HW2 1295   1.922   1.659   0.905  0.4396  1.8068 -0.5773
  383SOL     OW 1296   1.416   1.127   0.850 -0.0935 -0.3905  0.3511
  383SOL    HW1 1297   1.385   1.057   0.906  0.5066 -0.5320  0.5107
  383SOL    HW2 1298   1.364   1.204   0.875 -1.4149 -0.9801 -0.4686
  384SOL     OW 1299   2.658   3.410   0.253 -0.1282  0.5048 -0.4249
  384SOL    HW1 1300   2.633   3.336   0.309 -0.9062 -0.1618 -1.6144
  384SOL    HW2 1301   2.640   3.380   0.164  1.2157  1.4992 -1.0565
  385SOL     OW 1302   0.758   1.598   3.614  0.5952 -0.1830  0.7325
  385SOL    HW1 1303   0.823   1.592   3.544 -0.2421 -0.7951 -0.0143
  385SOL    HW2 1304   0.683   1.548   3.582 -0.9930  2.0556  0.7714
  386SOL     OW 1305   3.281   1.974   1.812 -0.2770  0.3635 -0.0139
  386SOL    HW1 1306   3.338   1.897   1.815  2.0624  2.0324  1.8301
  386SOL    HW2 1307   3.195   1.941   1.837  0.4822 -1.7793 -0.0492
  387SOL     OW 1308   3.273   1.890   2.651  0.6286  0.1269  0.1767
  387SOL    HW1 1309   3.193   1.910   2.603  0.9519 -0.8538 -0.8146
  387SOL    HW2 1310   3.289   1.968   2.704  0.3066  1.3146 -1.3904
  388SOL     OW 1311   0.842   1.962   3.217  0.3759  0.5566 -0.4920
  388SOL    HW1 1312   0.856   1.951   3.123  0.6053  1.7551 -0.6130
  388SOL    HW2 1313   0.793   2.044   3.225 -0.3965  0.0335  0.3869
  389SOL     OW 1314   3.387   1.833   0.102  0.2805 -0.3399 -0.2346
  389SOL    HW1 1315   3.389   1.851   0.196 -0.3545 -0.8238 -0.1173
  389SOL    HW2 1316   3.334   1.904   0.065  2.5120  1.2538 -0.5980
  390SOL     OW 1317   2.880   2.962   3.270 -0.9687 -1.3800  0.6845
  390SOL    HW1 1318   2.851   2.873   3.251 -2.1522 -0.8930  0.0960
  390SOL    HW2 1319   2.935   2.986   3.195 -2.1543 -0.9750 -0.0732
  391SOL     OW 1320   2.951   2.485   0.102  0.0371  0.4827 -0.0340
  391SOL    HW1 1321   2.900   2.518   0.028  0.3978  2.6726  0.6367
  391SOL    HW2 1322   3.040   2.479   0.069 -0.0219  0.1594 -0.1437
  392SOL     OW 1323   1.327   1.078   2.392 -0.3775 -0.6231  0.5042
  392SOL    HW1 1324   1.277   1.127   2.327 -1.2533 -0.7558  1.0667
  392SOL    HW2 1325   1.263   1.052   2.458  0.3184 -1.3501  0.9161
  393SOL     OW 1326   3.144   0.817   2.288  0.4036  0.7607 -0.3127
  393SOL    HW1 1327   3.222   0.778   2.326  1.4686  1.5528 -1.5926
  393SOL    HW2 1328   3.136   0.903   2.329  0.2256  0.7078 -0.2315
  394SOL     OW 1329   0.277   0.711   2.068  0.1020 -0.4946  0.5158
  394SOL    HW1 1330   0.342   0.641   2.073  0.4953 -0.1647  0.1368
  394SOL    HW2 1331   0.207   0.684   2.128 -1.4606 -2.9901 -2.1230
  395SOL     OW 1332   0.396   1.742   3.174  0.1515  0.0156 -0.5554
  395SOL    HW1 1333   0.471   1.737   3.114 -0.2732  1.1370 -1.2096
  395SOL    HW2 1334   0.434   1.773   3.256  0.7333 -1.4902 -0.2211
  396SOL     OW 1335   0.700   3.316   1.095 -0.3257  0.4542 -0.5978
  396SOL    HW1 1336   0.728   3.278   1.179  0.5406 -0.4904 -1.2924
  396SOL    HW2 1337   0.748   3.399   1.089  0.7508 -0.1707 -0.8200
  397SOL     OW 1338   3.148   1.859   3.676 -0.4271 -0.2341  0.7057
  397SOL    HW1 1339   3.154   1.804   3.598  3.3713 -1.3671  1.6074
  397SOL    HW2 1340   3.154   1.949   3.643  2.6568 -0.7214 -0.3689
  398SOL     OW 1341   3.023   0.128   2.947  0.8800 -0.0070  0.1018
  398SOL    HW1 1342   3.029   0.132   2.851  0.0720  1.7953  0.0801
  398SOL    HW2 1343   2.965   0.053   2.964  1.0613 -0.3727 -0.8179
  399SOL     OW 1344   2.943   0.702   0.372 -0.1342 -0.6665 -0.2457
  399SOL    HW1 1345   3.030   0.742   0.365 -0.1703 -0.8792 -3.2370
  399SOL    HW2 1346   2.945   0.631   0.308 -2.3288 -1.1050  0.1169
  400SOL     OW 1347   3.371   0.790   2.574 -0.1475  0.3265 -0.5252
  400SOL    HW1 1348   3.420   0.773   2.655 -1.6076  1.8213  0.7337
  400SOL    HW2 1349   3.341   0.703   2.546  0.9218 -0.2884  0.1589
  401SOL     OW 1350   3.100   2.136   0.674 -0.1925  1.0157  0.2967
  401SOL    HW1 1351   3.123   2.063   0.731  1.7813  1.5714  0.2699
  401SOL    HW2 1352   3.036   2.099   0.612  2.1480 -1.2617 -0.9520
  402SOL     OW 1353   2.592   1.550   3.160  0.3412  0.0039  0.2382
  402SOL    HW1 1354   2.573   1.456   3.161  0.1944  0.0260  1.6370
  402SOL    HW2 1355   2.515   1.590   3.200  1.2148  0.5209  1.4828
  403SOL     OW 1356   2.003   0.676   2.120 -0.3148 -0.3664  0.5749
  403SOL    HW1 1357   2.024   0.748   2.060  3.4752 -3.0308 -1.7676
  403SOL    HW2 1358   2.026   0.710   2.207  1.9920  1.1609 -0.5217
  404SOL     OW 1359   0.251   0.823   3.550  0.0404  0.1379  0.2554
  404SOL    HW1 1360   0.295   0.757   3.497 -2.1365 -2.3533  1.3484
  404SOL    HW2 1361   0.164   0.831   3.512 -1.1815 -0.8671  2.6337
  405SOL     OW 1362   3.282   3.464   3.092 -0.1393 -0.3745 -0.5188
  405SOL    HW1 1363   3.258   3.386   3.142 -0.3479 -0.7003 -1.1185
  405SOL    HW2 1364   3.344   3.510   3.148 -0.8269 -0.4193  0.3123
  406SOL     OW 1365   1.328   1.640   2.594 -0.6247 -0.3027 -0.2651
  406SOL    HW1 1366   1.282   1.608   2.672 -0.8801  0.3391 -0.1461
  406SOL    HW2 1367   1.259   1.671   2.536 -0.3005  2.3043  0.6409
  407SOL     OW 1368   2.587   1.787  -0.002  0.5150  0.6135 -0.3054
  407SOL    HW1 1369   2.621   1.763   0.084  0.3983  0.5917 -0.2651
  407SOL    HW2 1370   2.607   1.880  -0.011 -1.1972  1.1198  0.5748
  408SOL     OW 1371   3.510   0.131   0.374 -0.0825  0.2627 -0.5130
  408SOL    HW1 1372   3.579   0.068   0.351 -1.9189 -1.3725 -1.9032
  408SOL    HW2 1373   3.429   0.080   0.371 -1.3987  2.1339  0.9246
  409SOL     OW 1374   3.524   0.785   0.405  0.0364  0.3164  0.1075
  409SOL    HW1 1375   3.475   0.775   0.486 -0.5638  1.7528 -0.0422
  409SOL    HW2 1376   3.474   0.851   0.355  0.5351 -0.3379 -1.3056
  410SOL     OW 1377   1.258   0.517   2.046  0.0585 -0.4193  0.0629
  410SOL    HW1 1378   1.206   0.539   2.124 -2.2018 -2.0921 -0.8629
  410SOL    HW2 1379   1.319   0.590   2.037 -1.0095  0.8511  2.2034
  411SOL     OW 1380   2.371   0.177   2.367 -0.3195 -0.8201  0.7277
  411SOL    HW1 1381   2.363   0.153   2.274 -0.3355 -0.2883  0.5907
  411SOL    HW2 1382   2.399   0.096   2.410  0.0552 -0.9750  0.2038
  412SOL     OW 1383   3.110   3.273   1.611  0.1598  0.1758  0.6049
  412SOL    HW1 1384   3.131   3.234   1.696  1.2955  1.3690  0.9126
  412SOL    HW2 1385   3.157   3.219   1.548 -1.3949 -1.2440  0.6265
  413SOL     OW 1386   0.117   1.383   0.261 -0.0691  0.1382  0.4759
  413SOL    HW1 1387   0.085   1.346   0.179  0.5758  0.7797 -0.0808
  413SOL    HW2 1388   0.123   1.308   0.321  1.5442 -0.7578 -0.7189
  414SOL     OW 1389   1.211   2.139   0.775 -0.5271 -0.0257 -0.1022
  414SOL    HW1 1390   1.289   2.120   0.723  0.5110 -2.1277  2.0483
  414SOL    HW2 1391   1.138   2.114   0.718  0.4305  0.0662 -1.4111
  415SOL     OW 1392   3.165   0.563   1.148  0.1216 -0.0053 -0.3446
  415SOL    HW1 1393   3.095   0.503   1.121  0.9187 -0.7104 -0.8739
  415SOL    HW2 1394   3.160   0.635   1.086 -0.1175 -0.0676 -0.3988
  416SOL     OW 1395   3.319   1.462   3.533 -0.1570 -0.9098 -0.0353
  416SOL    HW1 1396   3.260   1.422   3.597 -0.5364 -0.5141 -0.1313
  416SOL    HW2 1397   3.294   1.555   3.533 -0.1972 -0.9125 -0.7913
  417SOL     OW 1398   0.081   0.521   3.708  0.5106 -0.3675 -0.1330
  417SOL    HW1 1399   0.135   0.497   3.633  0.6378  1.7874 -0.8045
  417SOL    HW2 1400  -0.008   0.528   3.673  0.5869  0.7554 -0.1425
  418SOL     OW 1401   3.484   0.083   1.714  0.3112 -0.1370  0.2939
  418SOL    HW1 1402   3.388   0.084   1.704  0.2093  0.8827  1.2672
  418SOL    HW2 1403   3.504   0.164   1.759  1.8990  0.8521 -2.0124
  419SOL     OW 1404   0.984   0.984   2.260 -0.6640 -0.5315 -0.5064
  419SOL    HW1 1405   1.038   1.030   2.325  0.7946 -0.8220 -1.4472
  419SOL    HW2 1406   0.945   0.911   2.308 -1.3383  0.4936  0.5230
  420SOL     OW 1407   1.340   0.357   0.689 -0.2458 -0.2792  0.3532
  420SOL    HW1 1408   1.401   0.431   0.686 -0.8833  0.2514  0.1528
  420SOL    HW2 1409   1.275   0.382   0.754 -1.1862 -0.0757 -0.6323
  421SOL     OW 1410   0.870   3.481   2.154  0.3754 -0.2945 -0.2966
  421SOL    HW1 1411   0.926   3.527   2.217  0.4407 -0.2899 -0.3573
  421SOL    HW2 1412   0.798   3.542   2.137 -1.6362 -1.6897  2.5311
  422SOL     OW 1413   1.157   0.532   0.471 -0.3999 -0.8831  0.4829
  422SOL    HW1 1414   1.116   0.519   0.386 -1.4656  0.4042  0.7699
  422SOL    HW2 1415   1.104   0.599   0.514  3.0749  2.4381  0.1456
  423SOL     OW 1416   0.447   0.056   0.347  0.2994 -0.2094  0.4385
  423SOL    HW1 1417   0.417   0.082   0.434 -2.6335 -0.8281 -0.2455
  423SOL    HW2 1418   0.522   0.112   0.329 -0.3433  1.4439  2.4865
  424SOL     OW 1419   0.913   3.573   2.798 -0.1169  0.2701  0.0143
  424SOL    HW1 1420   0.986   3.635   2.796 -0.2096  0.3711 -0.2028
  424SOL    HW2 1421   0.913   3.533   2.711  1.1425 -1.4335  0.7270
  425SOL     OW 1422   2.200   2.247   0.053 -0.8909  0.2988 -0.3214
  425SOL    HW1 1423   2.167   2.159   0.071 -0.6717 -0.0807 -1.6614
  425SOL    HW2 1424   2.122   2.303   0.057 -1.1337 -0.0500 -0.0858
  426SOL     OW 1425   3.073   1.654   3.467  0.4158 -0.2151 -0.1690
  426SOL    HW1 1426   3.013   1.613   3.529  1.0042  0.2472  0.7190
  426SOL    HW2 1427   3.016   1.700   3.405 -0.1777 -0.7657 -0.0427
  427SOL     OW 1428   2.617   3.674   0.349 -0.2219 -0.0588  0.1397
  427SOL    HW1 1429   2.627   3.760   0.308 -1.1815 -0.2307 -0.5004
  427SOL    HW2 1430   2.634   3.612   0.278  0.2476 -0.3998  0.5469
  428SOL     OW 1431   3.666   2.348   0.642 -0.8184 -0.2146 -0.3415
  428SOL    HW1 1432   3.731   2.299   0.593  0.1912  0.7329  0.0044
  428SOL    HW2 1433   3.697   2.439   0.639 -1.6827  0.1317  0.5246
  429SOL     OW 1434   2.443   1.623   0.556  0.3250  0.3785 -0.4128
  429SOL    HW1 1435   2.451   1.714   0.587  0.5030  0.3533 -0.3873
  429SOL    HW2 1436   2.348   1.608   0.553  0.2791  0.7228 -0.8755
  430SOL     OW 1437   3.370   1.851   0.765  0.0895 -0.3788  0.4657
  430SOL    HW1 1438   3.431   1.919   0.738 -0.0412  0.1839  1.5229
  430SOL    HW2 1439   3.412   1.769   0.740  0.3335  0.0718 -0.6479
  431SOL     OW 1440   1.330   2.064   2.525  1.2574 -0.2585  0.2503
  431SOL    HW1 1441   1.340   2.020   2.441  0.9076  2.7854 -1.4861
  431SOL    HW2 1442   1.406   2.123   2.530 -0.4029  1.9747  0.4682
  432SOL     OW 1443   3.690   0.814   0.948 -0.8786  0.2730  0.4487
  432SOL    HW1 1444   3.742   0.763   0.885 -0.3023  1.7813 -0.3770
  432SOL    HW2 1445   3.607   0.768   0.954 -0.5393 -0.5188 -0.5965
  433SOL     OW 1446   1.411   3.369   2.044 -0.2543 -0.1497 -0.1342
  433SOL    HW1 1447   1.494   3.369   1.997 -0.1544 -1.4953  0.0016
  433SOL    HW2 1448   1.349   3.332   1.982 -0.4994 -0.2478  0.1655
  434SOL     OW 1449   0.994   0.622   1.892  0.3638  0.1049 -0.6167
  434SOL    HW1 1450   1.073   0.598   1.940  0.3082 -0.1489 -0.6484
  434SOL    HW2 1451   0.988   0.717   1.901 -0.6019 -0.0864  1.3986
  435SOL     OW 1452   1.257   2.756   1.786 -0.3369  0.3620 -0.1870
  435SOL    HW1 1453   1.167   2.737   1.760 -0.7263  0.4201  1.0153
  435SOL    HW2 1454   1.283   2.681   1.840  0.7315 -0.1675 -1.3843
  436SOL     OW 1455   1.605   1.956   2.407 -0.7742 -0.7495 -0.1659
  436SOL    HW1 1456   1.661   1.893   2.361 -0.3139 -0.5284  0.0972
  436SOL    HW2 1457   1.641   1.961   2.495 -0.2793  0.5324 -0.4201
  437SOL     OW 1458   2.374   3.174   0.734  0.4826 -0.4095  0.6615
  437SOL    HW1 1459   2.366   3.193   0.827  1.4940  0.9137  0.5155
  437SOL    HW2 1460   2.453   3.121   0.726  0.2296 -0.7750  0.5934
  438SOL     OW 1461   0.336   1.992   0.905 -0.5910  0.4626  0.4129
  438SOL    HW1 1462   0.407   1.957   0.959  1.0367  1.3232 -1.0653
  438SOL    HW2 1463   0.315   1.921   0.844 -0.9616  0.2469  0.7814
  439SOL     OW 1464   1.888   2.584   2.598 -0.0664  0.3394  0.1200
  439SOL    HW1 1465   1.867   2.675   2.577 -1.1798  0.2119  0.6150
  439SOL    HW2 1466   1.981   2.575   2.575 -0.5096  0.9521 -2.1262
  440SOL     OW 1467   0.886   0.739   0.155  0.4348  0.1144  0.6625
  440SOL    HW1 1468   0.868   0.784   0.072  0.5218  0.2608  0.7234
  440SOL    HW2 1469   0.801   0.703   0.181  0.2829  0.5774  0.8129
  441SOL     OW 1470   1.806   3.555   1.457 -0.7475 -0.6824  0.2751
  441SOL    HW1 1471   1.828   3.475   1.409 -2.5117 -1.3866  0.5653
  441SOL    HW2 1472   1.881   3.570   1.515  0.4207 -1.0641 -1.0634
  442SOL     OW 1473   2.475   1.101   3.353 -0.1318 -0.4295  0.3006
  442SOL    HW1 1474   2.425   1.134   3.427  0.9471  0.2529  0.7650
  442SOL    HW2 1475   2.556   1.067   3.392  0.2451 -0.4980 -0.5149
  443SOL     OW 1476   3.109   2.402   2.897  0.2566  0.1745  0.0853
  443SOL    HW1 1477   3.065   2.445   2.824  0.7735  0.4853 -0.0536
  443SOL    HW2 1478   3.190   2.368   2.859  0.0359 -0.5821  0.2834
  444SOL     OW 1479   3.178   2.718   1.223 -0.1756  0.1068 -0.5761
  444SOL    HW1 1480   3.241   2.646   1.236  0.2354  0.4576 -0.5967
  444SOL    HW2 1481   3.097   2.674   1.196  0.4296 -0.2743 -1.8749
  445SOL     OW 1482   3.211   2.764   0.586  0.2119 -0.3176  0.5538
  445SOL    HW1 1483   3.257   2.793   0.507  0.9854  0.8333  1.3987
  445SOL    HW2 1484   3.254   2.811   0.657 -2.1414  0.6772  1.4251
  446SOL     OW 1485   0.543   1.823   1.868 -0.4339  0.2212 -0.3387
  446SOL    HW1 1486   0.468   1.881   1.862 -0.7369  0.2813  2.5255
  446SOL    HW2 1487   0.595   1.858   1.940 -0.3255 -2.6614  1.1252
  447SOL     OW 1488   0.655   0.359   1.516  0.5899  0.4507  0.1945
  447SOL    HW1 1489   0.582   0.342   1.575 -1.0243  4.7294 -0.1885
  447SOL    HW2 1490   0.722   0.398   1.571  2.0159 -1.8708  0.2316
  448SOL     OW 1491   2.005   1.792   2.082 -0.6896  0.0386  0.1262
  448SOL    HW1 1492   1.954   1.712   2.097 -3.8445  2.2251  2.3538
  448SOL    HW2 1493   2.062   1.799   2.159 -0.0682 -0.2478 -0.2971
  449SOL     OW 1494   2.854   3.668   3.437  0.2429  0.2369 -0.9963
  449SOL    HW1 1495   2.897   3.583   3.447 -3.1068 -1.5299  0.1232
  449SOL    HW2 1496   2.801   3.658   3.357 -0.3217  1.1750 -0.7469
  450SOL     OW 1497   2.320   3.114   1.581  0.4491 -0.1784 -0.8765
  450SOL    HW1 1498   2.261   3.049   1.618  0.8118 -0.7642 -1.3185
  450SOL    HW2 1499   2.286   3.198   1.612  0.8727 -0.6449  1.0176
  451SOL     OW 1500   0.504   3.410   2.114  0.1889  0.0088  0.6093
  451SOL    HW1 1501   0.557   3.360   2.052  2.1448  2.4284  0.1455
  451SOL    HW2 1502   0.526   3.373   2.199 -0.2463 -1.4145  0.1348
  452SOL     OW 1503   1.476   0.213   1.104  0.0656  0.4017  0.8923
  452SOL    HW1 1504   1.446   0.166   1.181  0.2017 -0.0495  0.6749
  452SOL    HW2 1505   1.398   0.221   1.049  0.4061 -1.2008  0.1082
  453SOL     OW 1506   3.585   3.454   2.357 -0.2220 -0.0594  0.3181
  453SOL    HW1 1507   3.539   3.404   2.425 -1.2912  0.3864 -0.0453
  453SOL    HW2 1508   3.550   3.420   2.274 -0.2321  0.5989  0.0430
  454SOL     OW 1509   0.952   2.337   0.112 -0.5210  0.0891  0.0470
  454SOL    HW1 1510   1.003   2.402   0.064  0.2940 -0.4960  0.1115
  454SOL    HW2 1511   0.977   2.253   0.074  0.6562 -0.4669  1.9120
  455SOL     OW 1512   2.309   1.887   2.106 -0.1915 -0.4421 -0.3121
  455SOL    HW1 1513   2.367   1.922   2.039 -0.1170  0.2438  0.0996
  455SOL    HW2 1514   2.332   1.936   2.186 -1.8541  0.4252 -0.3171
  456SOL     OW 1515   0.848   1.159   3.415 -0.0085  0.1232  0.0783
  456SOL    HW1 1516   0.764   1.177   3.457 -0.4650 -2.5393  0.5282
  456SOL    HW2 1517   0.828   1.154   3.321  0.2079  2.0553 -0.1011
  457SOL     OW 1518   3.673   2.909   1.622 -0.3169 -0.5928 -0.0693
  457SOL    HW1 1519   3.717   2.918   1.538 -1.4244 -2.3495 -0.9027
  457SOL    HW2 1520   3.622   2.828   1.614  0.5200 -1.5120  2.7504
  458SOL     OW 1521   1.364   0.405   2.383  0.5799  0.5153 -0.3605
  458SOL    HW1 1522   1.396   0.324   2.423 -2.1925 -0.3534  0.2989
  458SOL    HW2 1523   1.444   0.451   2.355  2.4759 -0.7453  2.4598
  459SOL     OW 1524   2.832   1.702   3.207  0.2137 -0.6330 -0.1141
  459SOL    HW1 1525   2.892   1.690   3.133 -0.0344 -0.8531 -0.2810
  459SOL    HW2 1526   2.759   1.642   3.189 -0.0954 -0.3080  0.0458
  460SOL     OW 1527   2.873   2.614   1.672  0.4408  0.2283  0.0093
  460SOL    HW1 1528   2.851   2.592   1.763 -0.9916  1.9016  0.1125
  460SOL    HW2 1529   2.852   2.534   1.623 -2.2652  0.4302  0.6745
  461SOL     OW 1530   3.027   1.130   0.457  0.6758 -0.4590  0.2560
  461SOL    HW1 1531   2.971   1.205   0.435  1.0122 -0.1602  0.3969
  461SOL    HW2 1532   3.101   1.169   0.503  0.9437 -0.8624  0.1699
  462SOL     OW 1533   1.603   3.306   0.437  0.3279 -0.6550  0.1183
  462SOL    HW1 1534   1.601   3.380   0.499 -1.1273  1.4695 -2.2803
  462SOL    HW2 1535   1.512   3.291   0.414  0.8945 -0.4423 -2.4989
  463SOL     OW 1536   2.972   0.356   1.167 -0.1338  0.0659  0.2314
  463SOL    HW1 1537   2.974   0.263   1.190  3.5489  0.4059  1.9717
  463SOL    HW2 1538   2.915   0.395   1.233 -1.0093 -0.8267  0.0211
  464SOL     OW 1539   1.878   3.364   3.098  0.3149 -0.5144 -0.3089
  464SOL    HW1 1540   1.961   3.316   3.090  2.1924  2.1646  1.3800
  464SOL    HW2 1541   1.860   3.365   3.192 -0.8987  0.1122 -0.5346
  465SOL     OW 1542   3.665   2.253   1.936  0.0616 -0.0351 -0.5782
  465SOL    HW1 1543   3.696   2.304   1.861 -1.2879  0.4723 -0.8269
  465SOL    HW2 1544   3.614   2.182   1.898  1.2319 -1.1243 -0.1944
  466SOL     OW 1545   2.457   0.863   1.784  0.2696  0.1526  0.2923
  466SOL    HW1 1546   2.536   0.822   1.749 -0.3132 -0.4301 -0.3609
  466SOL    HW2 1547   2.392   0.853   1.715 -0.3718  0.6473  0.8149
  467SOL     OW 1548   1.154   3.037   1.822 -0.6459 -0.2403 -0.2426
  467SOL    HW1 1549   1.165   2.973   1.751 -1.3188 -0.8418  0.1828
  467SOL    HW2 1550   1.066   3.072   1.810  0.3939  2.1245 -1.6651
  468SOL     OW 1551   2.221   3.703   2.177 -0.0331  0.2730 -0.7046
  468SOL    HW1 1552   2.180   3.773   2.126  0.1346 -0.1158 -1.3861
  468SOL    HW2 1553   2.205   3.623   2.126  0.0425 -0.1432 -0.0915
  469SOL     OW 1554   1.180   2.040   2.185  0.0941  0.1619 -0.0644
  469SOL    HW1 1555   1.264   2.006   2.216 -0.9753 -1.7011  0.9432
  469SOL    HW2 1556   1.139   2.077   2.262 -1.0281 -1.1548 -0.0049
  470SOL     OW 1557   1.445   1.965   1.032  0.4341 -0.1656 -0.8094
  470SOL    HW1 1558   1.535   1.982   1.006  0.2093 -0.5993 -1.9297
  470SOL    HW2 1559   1.444   1.979   1.127  1.4739  0.6703 -0.9068
  471SOL     OW 1560   0.144   1.208   0.497  0.2243 -0.0212  0.4103
  471SOL    HW1 1561   0.153   1.187   0.590 -1.3216  0.6339  0.7343
  471SOL    HW2 1562   0.116   1.126   0.455  0.4395 -0.1910  0.5989
  472SOL     OW 1563   2.994   1.510   1.464 -0.0925 -0.3821  0.3667
  472SOL    HW1 1564   2.954   1.426   1.442 -2.1719 -0.0756  2.6194
  472SOL    HW2 1565   3.057   1.489   1.533  1.6101 -0.4189 -1.1020
  473SOL     OW 1566   1.663   2.265   1.110  0.5019  0.3728 -0.0356
  473SOL    HW1 1567   1.569   2.273   1.122  0.7556  1.1825  1.8633
  473SOL    HW2 1568   1.701   2.314   1.183  2.3782 -2.3199  0.9932
  474SOL     OW 1569   2.132   2.677   1.509  0.3584 -0.1626  0.1828
  474SOL    HW1 1570   2.218   2.720   1.507 -1.2423  3.3667 -1.9044
  474SOL    HW2 1571   2.108   2.666   1.417 -0.3833 -3.6869  0.6502
  475SOL     OW 1572   2.952   2.939   0.207 -0.4241  0.1407  0.3321
  475SOL    HW1 1573   3.001   3.021   0.212 -0.3387  0.1714 -0.8739
  475SOL    HW2 1574   2.955   2.914   0.115 -2.8538  0.2531  0.1660
  476SOL     OW 1575   2.945   2.304   1.864 -0.4431  0.2476  0.3423
  476SOL    HW1 1576   3.007   2.286   1.793 -1.3836 -1.5796 -0.0757
  476SOL    HW2 1577   2.901   2.221   1.879  0.7778  0.1078  4.1784
  477SOL     OW 1578   3.059   0.579   3.626 -0.2018  0.0056  0.4096
  477SOL    HW1 1579   2.994   0.520   3.664 -0.7436 -0.0488 -0.5731
  477SOL    HW2 1580   3.015   0.664   3.622  1.0800  0.9325  3.2566
  478SOL     OW 1581   0.687   2.374   2.730 -0.1600 -0.2034 -0.3295
  478SOL    HW1 1582   0.640   2.429   2.668  0.2865  1.1263  0.4635
  478SOL    HW2 1583   0.634   2.294   2.737 -1.4496  0.6037 -0.6401
  479SOL     OW 1584   2.520   3.133   2.374  0.4516  0.1243  0.8826
  479SOL    HW1 1585   2.445   3.125   2.432  1.5169  0.8000  2.4156
  479SOL    HW2 1586   2.484   3.170   2.293 -1.1371 -1.2654  0.8984
  480SOL     OW 1587   0.623   1.479   2.275  0.7742  0.3663 -0.3559
  480SOL    HW1 1588   0.628   1.390   2.310 -0.5191  0.0800 -0.8574
  480SOL    HW2 1589   0.641   1.470   2.182 -1.0885  0.3624 -0.7428
  481SOL     OW 1590   0.695   2.375   2.988 -0.3583 -0.3518 -0.0956
  481SOL    HW1 1591   0.693   2.395   2.895 -0.1423  0.7412  0.1220
  481SOL    HW2 1592   0.618   2.419   3.024  0.7193  1.0720  0.5674
  482SOL     OW 1593  -0.019   0.349   0.770 -0.1430 -0.2069 -0.1296
  482SOL    HW1 1594   0.025   0.392   0.697  1.5933 -1.4011  0.1542
  482SOL    HW2 1595   0.049   0.339   0.837 -1.0758 -1.2743  0.6992
  483SOL     OW 1596   2.063   2.471   0.583  0.0230  0.0199 -0.3666
  483SOL    HW1 1597   2.138   2.462   0.524  0.4019  3.2753 -0.5281
  483SOL    HW2 1598   2.026   2.557   0.564 -1.9491 -0.2348  1.7945
  484SOL     OW 1599   0.931   3.564   0.563 -0.0967 -0.0760  0.8031
  484SOL    HW1 1600   0.965   3.597   0.480  0.5627 -0.6517  0.8338
  484SOL    HW2 1601   0.923   3.641   0.619 -0.5634  0.3189  0.2091
  485SOL     OW 1602   2.208   1.840   1.285  0.3556 -0.6241  0.8320
  485SOL    HW1 1603   2.116   1.834   1.257  0.8562 -1.1091 -0.8407
  485SOL    HW2 1604   2.209   1.912   1.348 -1.0015  0.1037  0.0797
  486SOL     OW 1605   1.965   2.749   1.734  0.1000 -0.5049 -0.4085
  486SOL    HW1 1606   2.010   2.713   1.658  0.3881  1.2808 -1.1157
  486SOL    HW2 1607   1.981   2.684   1.803  1.2154 -1.3618 -1.4204
  487SOL     OW 1608   3.123   1.909   2.018  0.1406 -0.1916  0.1583
  487SOL    HW1 1609   3.045   1.878   1.972 -0.2244  0.0302  0.6189
  487SOL    HW2 1610   3.111   1.879   2.108 -0.1932  1.2117  0.6003
  488SOL     OW 1611   2.142   1.242   2.303 -0.2010 -0.1200  0.4255
  488SOL    HW1 1612   2.059   1.210   2.338  0.2889 -2.0039 -0.0324
  488SOL    HW2 1613   2.182   1.291   2.375 -1.9077  1.2660  0.4862
  489SOL     OW 1614   2.998   0.514   0.196 -0.1817  0.5407  0.2334
  489SOL    HW1 1615   2.932   0.471   0.141 -0.2513 -1.2580  1.6231
  489SOL    HW2 1616   3.062   0.445   0.214  0.1826  1.2509  1.8270
  490SOL     OW 1617   3.153   1.859   2.280 -0.2536 -0.0983  0.5804
  490SOL    HW1 1618   3.197   1.784   2.319  0.1582  0.4662  1.2286
  490SOL    HW2 1619   3.137   1.918   2.353 -3.1158 -0.7294  0.5602
  491SOL     OW 1620   3.460   3.140   3.028 -0.1519 -0.3519 -0.7623
  491SOL    HW1 1621   3.477   3.048   3.044 -1.6083 -0.8517 -1.8423
  491SOL    HW2 1622   3.536   3.171   2.979  2.0613 -0.0016  2.5996
  492SOL     OW 1623   0.468   2.961   1.247 -0.0334  0.0250 -1.1218
  492SOL    HW1 1624   0.441   2.888   1.191 -1.2453  0.0774 -0.6308
  492SOL    HW2 1625   0.517   2.919   1.318  0.3382 -0.1772 -1.4903
  493SOL     OW 1626   1.070   0.179   0.004  0.1428  0.5208 -0.1470
  493SOL    HW1 1627   1.139   0.147   0.062  0.2825  1.8397  0.4308
  493SOL    HW2 1628   1.097   0.267  -0.019 -0.3572  0.3273 -1.5335
  494SOL     OW 1629   2.377   0.010   0.463 -0.2222 -0.0022  0.8422
  494SOL    HW1 1630   2.463  -0.023   0.438  0.6148  1.2577  1.8519
  494SOL    HW2 1631   2.393   0.102   0.486 -2.0992  0.6496 -0.2210
  495SOL     OW 1632   1.047   0.653   1.596 -0.0401 -0.2834 -0.2533
  495SOL    HW1 1633   1.066   0.708   1.672  1.9465 -0.7438 -0.3697
  495SOL    HW2 1634   1.099   0.574   1.610  0.8854 -0.1021 -2.3884
  496SOL     OW 1635   2.487   1.202   0.242 -0.5220 -0.0848 -0.0813
  496SOL    HW1 1636   2.455   1.292   0.243 -0.0602  0.0749  0.4533
  496SOL    HW2 1637   2.501   1.183   0.149  0.9374  0.9637 -0.1081
  497SOL     OW 1638   2.622   1.970   3.353  0.0180 -0.1461  0.4047
  497SOL    HW1 1639   2.536   1.997   3.386  0.7814  1.7076  1.0041
  497SOL    HW2 1640   2.651   1.902   3.413 -1.1478 -1.0699 -0.0183
  498SOL     OW 1641   2.525   3.440   2.799  0.0148  0.1938 -0.1813
  498SOL    HW1 1642   2.603   3.448   2.853  0.7970  1.3292 -1.4108
  498SOL    HW2 1643   2.536   3.356   2.754  0.1059 -0.0397  0.2670
  499SOL     OW 1644   2.850   2.149   2.242  0.2924  0.4557 -0.4768
  499SOL    HW1 1645   2.932   2.184   2.278 -1.4929  2.5507  1.9656
  499SOL    HW2 1646   2.876   2.071   2.194  3.6975  0.9835  0.2470
  500SOL     OW 1647   0.918   0.806   3.517  0.2499  0.2559  0.2929
  500SOL    HW1 1648   0.827   0.807   3.487 -0.5929 -0.8054  2.5828
  500SOL    HW2 1649   0.952   0.892   3.492 -1.3142  0.6080 -0.7804
  501SOL     OW 1650   0.530   1.278   1.577 -0.1407  0.6233  0.6458
  501SOL    HW1 1651   0.498   1.210   1.517 -0.1783  0.6998  0.5789
  501SOL    HW2 1652   0.600   1.235   1.627  0.1322  0.6644  0.2994
  502SOL     OW 1653   3.618   2.026   0.106  0.1154  0.2059  0.2638
  502SOL    HW1 1654   3.559   1.953   0.086 -0.0310  0.8060 -1.7620
  502SOL    HW2 1655   3.568   2.105   0.083  1.2720  0.7796 -0.3978
  503SOL     OW 1656   3.269   3.567   2.215 -0.5930 -0.4372  0.0962
  503SOL    HW1 1657   3.186   3.575   2.167 -0.0888 -0.4547 -0.7848
  503SOL    HW2 1658   3.313   3.492   2.176 -0.5718 -1.0385  1.2189
  504SOL     OW 1659   1.872   3.259   0.936 -0.0237  0.1626  0.0432
  504SOL    HW1 1660   1.920   3.208   0.871 -0.5840 -0.4245  0.0900
  504SOL    HW2 1661   1.781   3.231   0.927 -0.5261  1.8671 -0.6146
  505SOL     OW 1662   1.645   1.337   1.991 -0.0457  0.3907 -0.4408
  505SOL    HW1 1663   1.643   1.361   1.898 -1.4724 -0.0401 -0.5548
  505SOL    HW2 1664   1.738   1.338   2.015  0.2255  2.0120 -1.4651
  506SOL     OW 1665   2.219   0.286   3.460  0.3193  0.1428 -0.1147
  506SOL    HW1 1666   2.247   0.331   3.539  0.0230  0.4819 -0.2008
  506SOL    HW2 1667   2.124   0.278   3.469  0.3533 -0.3621 -0.1553
  507SOL     OW 1668   2.226   2.799   0.069  0.1001  0.0622 -0.0699
  507SOL    HW1 1669   2.143   2.770   0.031  0.3774  0.3164 -0.8996
  507SOL    HW2 1670   2.237   2.889   0.038  1.8078 -0.7128 -2.0153
  508SOL     OW 1671   0.874   3.573   1.106 -0.4725 -0.3345  0.4304
  508SOL    HW1 1672   0.838   3.609   1.026  0.3282  1.2108  0.7351
  508SOL    HW2 1673   0.936   3.639   1.137 -2.3256  0.2114  3.4844
  509SOL     OW 1674   0.277   0.537   3.124 -0.3204  0.7623  0.0899
  509SOL    HW1 1675   0.188   0.515   3.095 -0.3122  1.9024 -0.8970
  509SOL    HW2 1676   0.323   0.454   3.125 -1.0661  0.3236 -0.6154
  510SOL     OW 1677   3.329   2.943   1.155  0.1360 -1.0053  0.2842
  510SOL    HW1 1678   3.275   3.013   1.120  1.0484 -1.6206 -2.7080
  510SOL    HW2 1679   3.267   2.876   1.182 -0.6797 -0.5770 -0.4594
  511SOL     OW 1680   3.692   3.706   2.384 -0.2379  0.3607  0.0587
  511SOL    HW1 1681   3.656   3.625   2.419  1.9124  0.0193  1.7550
  511SOL    HW2 1682   3.738   3.680   2.304 -1.4132  0.3474 -0.6373
  512SOL     OW 1683   1.164   0.538   0.755 -0.7556 -0.4020  0.8174
  512SOL    HW1 1684   1.167   0.515   0.662 -0.1209  0.5584  0.5783
  512SOL    HW2 1685   1.079   0.508   0.784 -0.8496 -0.9870 -0.0035
  513SOL     OW 1686   0.083   2.830   3.261  0.3644  0.6016  0.4412
  513SOL    HW1 1687   0.178   2.842   3.254  0.2860  0.6926 -0.5960
  513SOL    HW2 1688   0.066   2.748   3.215 -0.0020  0.3081  1.0904
  514SOL     OW 1689   1.246   3.337   2.487 -0.0898  0.4255  0.2512
  514SOL    HW1 1690   1.174   3.274   2.477 -0.9486  1.3579  0.3607
  514SOL    HW2 1691   1.258   3.372   2.399  2.1769 -1.7146 -0.4099
  515SOL     OW 1692   0.487   0.064   1.555  0.3824 -0.0472  0.3774
  515SOL    HW1 1693   0.401   0.022   1.557  0.3781 -0.0644 -0.0466
  515SOL    HW2 1694   0.475   0.144   1.606  0.2676 -0.3305  0.8017
  516SOL     OW 1695   3.256   3.526   1.285  0.6363 -0.0209 -0.3438
  516SOL    HW1 1696   3.255   3.589   1.213 -1.4456  2.8146  1.8834
  516SOL    HW2 1697   3.173   3.478   1.276 -0.1913  1.1361  0.6533
  517SOL     OW 1698   1.023   0.583   2.239 -0.3212 -0.5716  0.1169
  517SOL    HW1 1699   0.959   0.641   2.198  1.0580  1.3021  0.4582
  517SOL    HW2 1700   0.971   0.522   2.291 -1.8342  1.1769  0.7661
  518SOL     OW 1701   1.106   0.069   2.799 -0.2071 -0.1507 -0.1202
  518SOL    HW1 1702   1.167   0.044   2.869  0.0616 -1.7574 -0.8946
  518SOL    HW2 1703   1.162   0.088   2.724 -0.5375  0.8981 -0.1184
  519SOL     OW 1704   3.520   0.496   1.132 -0.0329 -0.2407  0.4869
  519SOL    HW1 1705   3.546   0.502   1.224 -0.1309 -0.6160  0.5414
  519SOL    HW2 1706   3.554   0.411   1.104  1.0092  0.3607 -0.1428
  520SOL     OW 1707   3.445   3.709   1.379  0.1291 -0.2163  0.2470
  520SOL    HW1 1708   3.409   3.732   1.465  2.9290 -2.6108  2.3052
  520SOL    HW2 1709   3.378   3.653   1.340 -2.3107  2.9065 -0.4280
  521SOL     OW 1710   0.386   1.366   2.046  0.4813 -0.3720  0.2954
  521SOL    HW1 1711   0.296   1.342   2.065  0.9583 -2.4064  0.2437
  521SOL    HW2 1712   0.386   1.461   2.044 -1.4890 -0.3141  1.0870
  522SOL     OW 1713   1.713   1.880   1.428  0.0729 -0.0885 -0.7523
  522SOL    HW1 1714   1.752   1.934   1.497  1.5639  1.4489 -2.7061
  522SOL    HW2 1715   1.620   1.902   1.431 -0.0964 -0.8014  1.3574
  523SOL     OW 1716   0.914   0.659   0.526 -0.0353  0.2006 -0.2584
  523SOL    HW1 1717   0.846   0.716   0.494  0.3722  1.1211  0.4628
  523SOL    HW2 1718   0.867   0.584   0.563 -0.7335  1.2638  1.1042
  524SOL     OW 1719   3.515   2.544   1.980 -0.3481  0.0202 -0.0713
  524SOL    HW1 1720   3.480   2.595   2.053  1.7530  1.0377  0.2977
  524SOL    HW2 1721   3.571   2.478   2.021  1.3604  0.9992 -0.7252
  525SOL     OW 1722   3.146   1.240   1.431  0.4449  0.2999  0.9321
  525SOL    HW1 1723   3.135   1.167   1.370  1.2091  0.5529  0.4733
  525SOL    HW2 1724   3.163   1.199   1.515  0.3224 -0.0567  0.7845
  526SOL     OW 1725   0.114   0.125   1.922  0.6028 -0.2187  0.4497
  526SOL    HW1 1726   0.199   0.160   1.895 -0.5196  1.3118 -1.3921
  526SOL    HW2 1727   0.093   0.060   1.856 -0.3116  0.5208 -0.0109
  527SOL     OW 1728   2.638   2.395   3.256  0.4171  0.2423 -0.5117
  527SOL    HW1 1729   2.554   2.349   3.257  1.4516 -1.7397 -1.1359
  527SOL    HW2 1730   2.643   2.436   3.342 -1.1684  0.3989 -0.4566
  528SOL     OW 1731   3.417   0.943   1.752 -0.3686 -0.4148  0.0286
  528SOL    HW1 1732   3.483   0.972   1.815 -0.3902 -2.4290  1.0760
  528SOL    HW2 1733   3.343   1.002   1.764  1.3396  2.2418 -1.5383
  529SOL     OW 1734   2.615   3.460   2.432 -0.3771 -0.5069 -0.3169
  529SOL    HW1 1735   2.644   3.533   2.378  1.1544 -1.4401 -0.8282
  529SOL    HW2 1736   2.529   3.437   2.398  0.2418 -0.5991 -1.9221
  530SOL     OW 1737   3.479   3.358   2.121 -0.3282  0.4720  0.6709
  530SOL    HW1 1738   3.408   3.331   2.062  1.1417  0.6710 -1.2839
  530SOL    HW2 1739   3.532   3.279   2.133  0.9431  1.0737 -0.6400
  531SOL     OW 1740   0.742   2.642   2.550 -0.2492 -0.5651  0.0226
  531SOL    HW1 1741   0.809   2.663   2.485 -0.4465  0.2798  0.0851
  531SOL    HW2 1742   0.782   2.573   2.604 -0.1911 -1.4741 -1.1444
  532SOL     OW 1743   0.074   2.075   0.740 -0.1666 -0.1983  0.1134
  532SOL    HW1 1744   0.111   1.988   0.758 -1.5606 -0.6530  0.9918
  532SOL    HW2 1745   0.109   2.098   0.655  1.1328 -1.1245  0.3578
  533SOL     OW 1746   0.918   2.273   0.764  0.4800 -0.0180  0.5398
  533SOL    HW1 1747   1.001   2.226   0.770  0.9717  0.7256 -0.2342
  533SOL    HW2 1748   0.899   2.300   0.854  0.5982 -0.9854  0.8652
  534SOL     OW 1749   0.167   2.415   2.238 -0.0528  0.8378 -0.1428
  534SOL    HW1 1750   0.171   2.453   2.151  0.9783  1.9632  0.3588
  534SOL    HW2 1751   0.208   2.329   2.230  0.2818  1.0501 -0.7154
  535SOL     OW 1752   0.100   1.514   0.596  0.3444  0.8039  0.5342
  535SOL    HW1 1753   0.145   1.494   0.678  0.0234  1.2654  0.8248
  535SOL    HW2 1754   0.033   1.445   0.589  0.6370  0.5257  0.4518
  536SOL     OW 1755   2.024   0.873   0.763  0.5320  0.6345 -0.1201
  536SOL    HW1 1756   2.058   0.854   0.675 -1.9027 -1.7507 -0.6932
  536SOL    HW2 1757   1.931   0.892   0.748  0.1845  0.6814  1.9041
  537SOL     OW 1758   2.129   3.562   3.022  0.9568  0.6749  0.6132
  537SOL    HW1 1759   2.161   3.513   3.099  1.0623 -0.9007 -0.3774
  537SOL    HW2 1760   2.058   3.616   3.056 -0.5132 -1.6424  1.4934
  538SOL     OW 1761   3.022   0.044   2.196  0.2206 -0.5832 -1.1564
  538SOL    HW1 1762   3.070   0.018   2.275  1.7726 -0.1658 -1.9296
  538SOL    HW2 1763   2.948   0.095   2.229  0.1686 -1.4136  0.0875
  539SOL     OW 1764   3.611   2.645   1.704 -0.8954 -0.0755 -0.5497
  539SOL    HW1 1765   3.525   2.655   1.663 -0.4176  1.6356 -1.2220
  539SOL    HW2 1766   3.593   2.651   1.798 -1.5470 -0.0406 -0.6701
  540SOL     OW 1767   0.091   2.957   1.394 -0.4404  0.0826  0.3582
  540SOL    HW1 1768   0.009   2.965   1.345 -0.9444  0.0280  1.1789
  540SOL    HW2 1769   0.109   3.046   1.424 -0.7185 -0.0704  0.9934
  541SOL     OW 1770   3.154   3.631   1.628 -0.0109  0.4399 -0.0006
  541SOL    HW1 1771   3.085   3.656   1.690  1.1491  1.9089  0.7472
  541SOL    HW2 1772   3.206   3.710   1.616  1.7357 -0.7094 -0.3263
  542SOL     OW 1773   0.689   3.188   0.402  0.2786  0.4239  0.3347
  542SOL    HW1 1774   0.722   3.107   0.362 -0.4467  0.4123 -0.2659
  542SOL    HW2 1775   0.761   3.250   0.391  0.0552  0.4704 -1.1934
  543SOL     OW 1776   2.651   2.785   1.124 -0.0417  0.2971  0.6033
  543SOL    HW1 1777   2.559   2.782   1.100  0.7672  0.0402 -3.1929
  543SOL    HW2 1778   2.689   2.851   1.065  2.6371 -1.6258 -0.0323
  544SOL     OW 1779   1.524   2.631   2.391  0.0467  0.4177  0.0931
  544SOL    HW1 1780   1.533   2.705   2.451 -2.5687  0.2970  0.7884
  544SOL    HW2 1781   1.463   2.572   2.436 -1.8039  0.1776 -2.4897
  545SOL     OW 1782   0.405   1.495   0.703  0.3810 -0.0032 -0.3325
  545SOL    HW1 1783   0.464   1.457   0.768  1.4912 -0.0987 -1.3591
  545SOL    HW2 1784   0.461   1.511   0.627 -1.1549 -1.3741 -1.8516
  546SOL     OW 1785   2.787   2.759   0.319 -0.2163  0.1505  0.0502
  546SOL    HW1 1786   2.835   2.834   0.284 -0.8254  0.1570 -0.8018
  546SOL    HW2 1787   2.854   2.692   0.333  0.4241  0.9955  1.3277
  547SOL     OW 1788   3.522   3.661   2.743  0.2124  0.5445  0.0387
  547SOL    HW1 1789   3.487   3.709   2.818 -1.3022  0.6067 -0.6719
  547SOL    HW2 1790   3.478   3.576   2.746 -0.8805  1.0200 -1.5037
  548SOL     OW 1791   0.057   2.312   1.505  0.3312  0.1877 -0.1916
  548SOL    HW1 1792   0.048   2.231   1.454  3.4662  0.3229 -1.1663
  548SOL    HW2 1793   0.036   2.382   1.443 -0.7279  0.2226  0.1814
  549SOL     OW 1794   2.684   1.339   2.642  0.5411 -0.3159 -0.6491
  549SOL    HW1 1795   2.683   1.388   2.725 -0.2395 -0.8828 -0.3144
  549SOL    HW2 1796   2.610   1.279   2.649  1.2908 -1.3239 -1.1896
  550SOL     OW 1797   2.436   2.637   2.615 -0.4384  0.0455  0.3545
  550SOL    HW1 1798   2.398   2.549   2.624 -0.3069 -0.0803 -0.2732
  550SOL    HW2 1799   2.363   2.691   2.584 -0.6394  0.2667  1.1816
  551SOL     OW 1800   0.919   2.807   2.075  0.3496  0.5851  0.2796
  551SOL    HW1 1801   0.965   2.726   2.051  0.6598  1.1623 -1.1581
  551SOL    HW2 1802   0.985   2.861   2.118  0.1816  0.1670  1.0970
  552SOL     OW 1803   2.250   0.562   1.032  0.3399  0.0438  0.0664
  552SOL    HW1 1804   2.189   0.583   0.962  0.6267  0.2590 -0.1201
  552SOL    HW2 1805   2.242   0.468   1.044  0.4695 -0.0318 -0.4275
  553SOL     OW 1806   2.355   2.301   3.114 -0.1839 -0.1980 -0.4898
  553SOL    HW1 1807   2.356   2.205   3.113  2.4912 -0.2889  0.6554
  553SOL    HW2 1808   2.284   2.324   3.174  1.4288 -1.6729  2.1803
  554SOL     OW 1809   0.156   2.784   0.872 -0.2028  0.3945 -0.2084
  554SOL    HW1 1810   0.172   2.862   0.819  0.4938  0.3017 -0.1422
  554SOL    HW2 1811   0.187   2.808   0.960  0.6917 -0.1852 -0.3469
  555SOL     OW 1812   2.925   2.668   1.127 -0.0211  0.2794 -0.5384
  555SOL    HW1 1813   2.953   2.593   1.075  2.0261 -0.1129  0.9835
  555SOL    HW2 1814   2.871   2.629   1.197  1.2250  0.1289  0.3823
  556SOL     OW 1815   2.694   0.754   1.754 -0.4145 -0.2537 -0.1020
  556SOL    HW1 1816   2.727   0.723   1.670  0.1391  1.0478 -0.3868
  556SOL    HW2 1817   2.772   0.764   1.809 -0.4807  1.0964 -0.2001
  557SOL     OW 1818   2.669   0.536   2.654 -0.2232 -0.0266  0.3604
  557SOL    HW1 1819   2.653   0.588   2.575  0.9387 -0.1172  0.0474
  557SOL    HW2 1820   2.710   0.456   2.622  2.4542  0.9152  1.2015
  558SOL     OW 1821   2.134   3.209   2.304  0.3048  0.3844  0.6007
  558SOL    HW1 1822   2.179   3.152   2.241  0.1957 -1.2284  1.9031
  558SOL    HW2 1823   2.203   3.264   2.341  0.7112 -0.0589  0.5069
  559SOL     OW 1824   2.112   2.314   2.820  0.3061  0.3427  0.2415
  559SOL    HW1 1825   2.063   2.369   2.881  0.5791  0.2842  0.5111
  559SOL    HW2 1826   2.141   2.239   2.872  1.7652  0.9864  0.4137
  560SOL     OW 1827   0.790   1.148   2.156 -0.1349  0.0274 -0.2224
  560SOL    HW1 1828   0.814   1.133   2.065 -0.9176 -3.1738 -0.0326
  560SOL    HW2 1829   0.852   1.097   2.207 -1.7290 -1.0298  0.7755
  561SOL     OW 1830   2.465   1.360   3.674 -0.0440 -0.1657 -0.2032
  561SOL    HW1 1831   2.381   1.401   3.653  1.0550  1.3459 -1.9880
  561SOL    HW2 1832   2.445   1.267   3.686 -1.9563  0.1726 -0.5452
  562SOL     OW 1833   0.090   0.391   1.666 -0.0912 -1.1068 -0.1142
  562SOL    HW1 1834   0.134   0.363   1.586  0.6640  0.5389 -0.3200
  562SOL    HW2 1835   0.159   0.434   1.717 -0.7047 -1.5742  1.1476
  563SOL     OW 1836   2.819   0.428   0.919  0.5576  0.1148  0.4571
  563SOL    HW1 1837   2.895   0.372   0.936 -0.1545 -0.8694  0.4821
  563SOL    HW2 1838   2.747   0.367   0.903 -0.2535  1.0277  0.5049
  564SOL     OW 1839   3.054   2.275   1.424  0.0409  0.1399  0.8068
  564SOL    HW1 1840   3.131   2.283   1.368 -1.2857 -2.5117 -1.6351
  564SOL    HW2 1841   2.982   2.258   1.364 -1.3264 -3.9794  3.1979
  565SOL     OW 1842   1.998   1.123   1.064 -0.2230  0.3113  0.1977
  565SOL    HW1 1843   1.930   1.056   1.062 -1.7377  1.7864 -0.8746
  565SOL    HW2 1844   1.951   1.205   1.050  1.6430  1.5473  0.7569
  566SOL     OW 1845   0.077   2.908   0.545 -0.1894 -0.2244  0.6494
  566SOL    HW1 1846   0.060   2.949   0.461 -1.8599 -1.8051  0.1631
  566SOL    HW2 1847   0.166   2.874   0.538  0.0975  0.6367 -0.0305
  567SOL     OW 1848   0.697   2.163   0.625 -0.2658  0.2845 -0.5141
  567SOL    HW1 1849   0.746   2.100   0.571  0.6357  2.7478 -2.8068
  567SOL    HW2 1850   0.765   2.211   0.672 -0.8122  0.7324 -0.1758
  568SOL     OW 1851   2.949   0.818   3.509 -0.5931 -0.0354  0.3233
  568SOL    HW1 1852   2.934   0.879   3.582 -1.6361 -0.4481  0.4813
  568SOL    HW2 1853   2.946   0.873   3.431 -1.9289  0.0818  0.4347
  569SOL     OW 1854   3.664   1.598   1.984 -0.0771 -0.3427 -0.2387
  569SOL    HW1 1855   3.674   1.542   1.907 -0.4934 -3.4329  1.7337
  569SOL    HW2 1856   3.628   1.680   1.951  0.5915 -1.2002 -3.3799
  570SOL     OW 1857   1.697   1.424   1.724  0.6737  0.2447  0.1550
  570SOL    HW1 1858   1.734   1.364   1.659 -2.4683  0.5690 -2.1628
  570SOL    HW2 1859   1.708   1.511   1.686 -0.3451  0.5332  0.4780
  571SOL     OW 1860   1.057   3.420   0.837  0.1829 -0.2416 -0.1164
  571SOL    HW1 1861   1.000   3.391   0.766  1.0663 -0.3122 -0.8188
  571SOL    HW2 1862   1.135   3.455   0.792  1.2408 -1.3082  0.8340
  572SOL     OW 1863   1.482   1.359   2.752  0.4543  0.1457  0.0320
  572SOL    HW1 1864   1.553   1.394   2.806  0.4870  0.0245  0.0686
  572SOL    HW2 1865   1.425   1.434   2.734 -0.9052 -0.2810  2.2737
  573SOL     OW 1866   0.468   0.439   1.280  0.1678  0.4459 -0.1686
  573SOL    HW1 1867   0.557   0.469   1.262  0.8417 -1.1272  0.3568
  573SOL    HW2 1868   0.434   0.503   1.343  0.2927  2.0056 -1.6100
  574SOL     OW 1869   0.482   3.307   0.968  0.0567  0.3373 -0.6617
  574SOL    HW1 1870   0.436   3.348   1.041  0.4303  1.5761 -1.0956
  574SOL    HW2 1871   0.572   3.296   0.998  0.1089  0.4445 -0.7762
  575SOL     OW 1872   0.498   2.240   1.990 -0.1131 -0.6413  0.3417
  575SOL    HW1 1873   0.456   2.231   1.904  0.3062  0.0296  0.0606
  575SOL    HW2 1874   0.449   2.179   2.046 -2.9326  1.6084  0.5789
  576SOL     OW 1875   2.720   3.131   2.162  0.1792 -0.2521 -0.0361
  576SOL    HW1 1876   2.717   3.039   2.135  1.4205 -0.0061 -1.1283
  576SOL    HW2 1877   2.653   3.139   2.230 -1.4163 -1.4830 -1.3926
  577SOL     OW 1878   3.327   0.667   1.621 -0.2770  0.3937 -0.0348
  577SOL    HW1 1879   3.290   0.750   1.651  1.1660  0.8485  0.6025
  577SOL    HW2 1880   3.346   0.680   1.529 -0.9295  0.4331 -0.1661
  578SOL     OW 1881   2.467   1.947   2.792  0.4384 -0.6510 -0.1975
  578SOL    HW1 1882   2.492   1.896   2.869  2.1458 -0.5356 -0.6310
  578SOL    HW2 1883   2.539   2.009   2.781 -2.2312  2.9963  1.2015
  579SOL     OW 1884   0.487   1.779   2.160 -0.1505 -0.4478  0.4079
  579SOL    HW1 1885   0.533   1.863   2.160 -2.9449  1.1880  1.5243
  579SOL    HW2 1886   0.551   1.717   2.197  1.2948  1.6002  1.5237
  580SOL     OW 1887   2.634   2.738   2.785  0.4295 -0.1378  0.7085
  580SOL    HW1 1888   2.706   2.674   2.781  0.8060  0.2728  0.8251
  580SOL    HW2 1889   2.578   2.715   2.710  0.2851 -0.9197  1.0407
  581SOL     OW 1890   3.595   0.347   2.212  0.0192  0.5466 -0.0855
  581SOL    HW1 1891   3.619   0.327   2.302  0.0751  2.6681  0.4111
  581SOL    HW2 1892   3.522   0.288   2.192 -0.0490  0.1194  1.3631
  582SOL     OW 1893   2.326   2.960   2.784  0.4479  0.2079 -0.2041
  582SOL    HW1 1894   2.236   2.930   2.776 -0.0524  1.6395 -0.1498
  582SOL    HW2 1895   2.374   2.909   2.718 -0.4945 -0.1795 -0.5994
  583SOL     OW 1896   1.448   2.999   0.415  0.2165  0.5809 -0.2437
  583SOL    HW1 1897   1.445   3.074   0.475  0.4866  0.6972 -0.3725
  583SOL    HW2 1898   1.482   3.036   0.333 -0.9602  0.5945 -0.7361
  584SOL     OW 1899   2.844   1.285   1.033  0.3998 -0.5746  0.0562
  584SOL    HW1 1900   2.900   1.256   0.961  0.2527 -1.0952  0.1454
  584SOL    HW2 1901   2.768   1.226   1.029  1.0475 -1.5787  1.5149
  585SOL     OW 1902   2.536   2.988   1.487 -0.7645 -0.6821  0.8296
  585SOL    HW1 1903   2.519   2.894   1.496 -0.5411 -0.7447  0.6180
  585SOL    HW2 1904   2.464   3.030   1.533 -1.4741 -0.9440 -0.0210
  586SOL     OW 1905   0.637   3.666   2.995 -0.0733 -0.0346  0.3234
  586SOL    HW1 1906   0.728   3.687   2.974 -0.1004 -1.2269 -1.1880
  586SOL    HW2 1907   0.643   3.611   3.073  0.6328 -1.0890 -0.4390
  587SOL     OW 1908   3.639   0.770   0.165  0.4061 -0.3678 -0.6229
  587SOL    HW1 1909   3.621   0.782   0.259 -0.2229  0.0516 -0.7923
  587SOL    HW2 1910   3.634   0.675   0.152 -0.6294 -0.3483 -0.4451
  588SOL     OW 1911   0.289   1.088   1.001 -0.1409  0.2239 -0.1473
  588SOL    HW1 1912   0.279   1.063   1.092 -0.6225 -0.3306 -0.3500
  588SOL    HW2 1913   0.297   1.006   0.953  2.6219  0.5211 -0.3418
  589SOL     OW 1914   3.314   0.959   0.756  0.5214 -0.2370 -0.2607
  589SOL    HW1 1915   3.367   0.981   0.832 -2.0139  0.5222  1.4362
  589SOL    HW2 1916   3.345   0.873   0.728  2.0872 -0.1442  1.0972
  590SOL     OW 1917   0.297   2.854   1.883  0.4581 -0.0687 -0.3240
  590SOL    HW1 1918   0.206   2.859   1.854  0.3903  1.1175  0.0548
  590SOL    HW2 1919   0.317   2.941   1.915  0.4561 -1.2790  3.4178
  591SOL     OW 1920   0.808   3.607   0.307  0.0994 -0.1953 -0.2487
  591SOL    HW1 1921   0.721   3.580   0.336 -0.6167  0.4408 -1.6724
  591SOL    HW2 1922   0.828   3.548   0.234 -0.5474  1.5770 -1.9723
  592SOL     OW 1923   1.313   2.548   1.969 -0.1652 -0.2263  0.1719
  592SOL    HW1 1924   1.379   2.493   2.011  0.5271  0.4518  0.0078
  592SOL    HW2 1925   1.265   2.587   2.042  1.7403  1.7980  0.4488
  593SOL     OW 1926   2.702   0.122   3.645  0.0643  0.0327 -0.2456
  593SOL    HW1 1927   2.741   0.034   3.644  2.2357  0.9213  0.1756
  593SOL    HW2 1928   2.658   0.129   3.560  1.7204 -0.7295 -1.2390
  594SOL     OW 1929   2.186   2.922   3.082  0.7163  0.5722  0.2506
  594SOL    HW1 1930   2.256   2.939   3.144  0.7470  1.6262 -0.0505
  594SOL    HW2 1931   2.211   2.841   3.038  1.6165  0.8011  0.3326
  595SOL     OW 1932   0.662   3.195   1.368 -0.2575  0.5440 -0.0779
  595SOL    HW1 1933   0.732   3.130   1.363 -1.4275 -0.6524 -2.6537
  595SOL    HW2 1934   0.583   3.145   1.389 -0.7205  1.5753  0.7418
  596SOL     OW 1935   2.759   1.773   2.449  0.3762 -0.0824 -1.0973
  596SOL    HW1 1936   2.853   1.765   2.460  0.0581 -1.2929  1.3316
  596SOL    HW2 1937   2.740   1.864   2.471  0.7061 -0.5305  1.2242
  597SOL     OW 1938   3.122   2.644   1.500  0.3470 -0.1848 -0.3077
  597SOL    HW1 1939   3.071   2.636   1.580  0.2707  0.0421 -0.3316
  597SOL    HW2 1940   3.074   2.591   1.436  1.3566 -1.8199  0.2349
  598SOL     OW 1941   3.253   3.590   2.535  0.2777  0.3403  0.3724
  598SOL    HW1 1942   3.269   3.540   2.454 -1.2622  1.8937 -0.9723
  598SOL    HW2 1943   3.336   3.635   2.552  1.6116 -2.3108  1.4570
  599SOL     OW 1944   1.426   1.995   1.287 -0.5110 -0.0026 -0.2102
  599SOL    HW1 1945   1.417   2.089   1.275  1.6956  0.2569 -0.2435
  599SOL    HW2 1946   1.413   1.982   1.381  0.5891  0.5574  0.0353
  600SOL     OW 1947   2.619   0.971   0.229 -0.0981  0.2939 -0.7319
  600SOL    HW1 1948   2.690   0.970   0.293  0.9674  1.5520 -1.8371
  600SOL    HW2 1949   2.563   1.044   0.257  0.1880  0.6323 -1.0329
  601SOL     OW 1950   1.932   3.119   1.160 -0.5645  0.2325  0.1227
  601SOL    HW1 1951   1.989   3.053   1.121  0.1630  0.5447  0.6306
  601SOL    HW2 1952   1.910   3.177   1.086 -0.8302 -0.3099 -0.2267
  602SOL     OW 1953   3.519   1.219   2.047  0.0505  0.2359 -0.3817
  602SOL    HW1 1954   3.460   1.235   2.121  1.8872 -0.3419  1.3027
  602SOL    HW2 1955   3.513   1.124   2.033  0.8273  0.1154  0.0509
  603SOL     OW 1956   2.759   1.455   1.833  0.0196  0.2785  0.4315
  603SOL    HW1 1957   2.724   1.432   1.747  0.1170  0.6099  0.3029
  603SOL    HW2 1958   2.687   1.500   1.877 -0.2765 -0.5339  0.8005
  604SOL     OW 1959   3.640   3.279   1.622 -0.1700  0.0878  0.4158
  604SOL    HW1 1960   3.616   3.356   1.570 -1.0199 -0.3350  0.1505
  604SOL    HW2 1961   3.556   3.244   1.651  0.2951  0.5343  2.4227
  605SOL     OW 1962   2.567   0.070   3.024 -0.4302 -1.1471  0.1955
  605SOL    HW1 1963   2.599   0.072   2.934 -2.6065  0.3706 -0.6276
  605SOL    HW2 1964   2.584   0.159   3.057 -1.6951 -0.9850  0.4604
  606SOL     OW 1965   1.675   0.231   2.861  0.6784  0.6962  0.7430
  606SOL    HW1 1966   1.728   0.304   2.896 -0.6494  1.0074  2.2270
  606SOL    HW2 1967   1.605   0.273   2.813  0.7613  0.3406  0.3101
  607SOL     OW 1968   3.115   0.352   3.109 -0.3298 -0.1297 -0.0983
  607SOL    HW1 1969   3.101   0.272   3.160  0.8794 -1.1402 -1.2671
  607SOL    HW2 1970   3.053   0.345   3.036 -1.6886  1.0556  0.8864
  608SOL     OW 1971   1.908   1.416   1.190 -0.0015 -0.5031 -0.6880
  608SOL    HW1 1972   1.897   1.485   1.124 -0.1002 -0.9079 -1.0986
  608SOL    HW2 1973   1.820   1.400   1.224  0.1326  0.1376 -0.0049
  609SOL     OW 1974   3.297   2.122   1.419  0.2446  0.0481 -0.3564
  609SOL    HW1 1975   3.381   2.112   1.463  0.8690  0.2989 -1.4561
  609SOL    HW2 1976   3.306   2.074   1.337 -0.1185  1.3582 -1.2083
  610SOL     OW 1977   0.583   1.394   0.900 -0.2918 -0.0471 -0.3034
  610SOL    HW1 1978   0.563   1.301   0.905  0.2931 -0.2796 -1.7703
  610SOL    HW2 1979   0.679   1.398   0.906 -0.3051  0.4494 -0.3436
  611SOL     OW 1980   1.701   2.835   0.714  0.4855 -0.2364 -0.8268
  611SOL    HW1 1981   1.618   2.788   0.706  0.0998  0.3690 -0.4461
  611SOL    HW2 1982   1.683   2.921   0.677  1.3176 -0.5253 -1.9669
  612SOL     OW 1983   0.650   3.526   1.355 -0.3313 -0.2234 -0.3193
  612SOL    HW1 1984   0.721   3.481   1.308  1.6268  0.8658  1.4476
  612SOL    HW2 1985   0.616   3.460   1.416 -2.0531 -1.2593 -2.2711
  613SOL     OW 1986   2.042   0.402   2.134 -0.0538  0.7318  0.3536
  613SOL    HW1 1987   2.015   0.365   2.050 -1.1807  0.8529  0.6429
  613SOL    HW2 1988   2.026   0.496   2.125  1.2543  0.9566  0.1907
  614SOL     OW 1989   1.903   0.506   1.356 -0.4898 -0.4359 -0.0087
  614SOL    HW1 1990   1.867   0.518   1.444  1.4284 -0.7398  0.8673
  614SOL    HW2 1991   1.939   0.591   1.332 -0.3414 -0.5504 -0.1992
  615SOL     OW 1992   0.416   2.138   2.497 -0.3497 -0.3695 -0.3428
  615SOL    HW1 1993   0.428   2.223   2.538  0.7389 -0.6265 -0.0954
  615SOL    HW2 1994   0.505   2.101   2.492 -0.7971 -1.4692 -0.4679
  616SOL     OW 1995   3.006   1.629   2.459 -0.0504  0.1362 -0.1946
  616SOL    HW1 1996   3.026   1.566   2.528  0.2829  0.2421 -0.1946
  616SOL    HW2 1997   3.089   1.641   2.412  0.1220  1.2482  0.3562
  617SOL     OW 1998   1.344   2.952   1.511  0.3755 -0.4170 -0.4903
  617SOL    HW1 1999   1.278   2.943   1.580  2.7266 -1.0764  1.8495
  617SOL    HW2 2000   1.368   3.045   1.512  2.1800 -0.8226  1.4977
  618SOL     OW 2001   2.986   0.686   1.717  0.4536 -0.0665 -0.2573
  618SOL    HW1 2002   2.987   0.642   1.632 -0.2630 -0.9303  0.1644
  618SOL    HW2 2003   3.023   0.622   1.778 -0.6165 -0.1157  0.3659
  619SOL     OW 2004   1.135   2.603   1.574  0.4819 -0.0266 -0.2249
  619SOL    HW1 2005   1.145   2.576   1.483 -0.3048 -1.5040  0.0914
  619SOL    HW2 2006   1.153   2.524   1.624  0.1628  0.5822  0.8823
  620SOL     OW 2007   0.370   0.464   0.235 -0.4208  0.0328  0.3650
  620SOL    HW1 2008   0.445   0.474   0.295  0.2034  0.7713 -0.5063
  620SOL    HW2 2009   0.343   0.373   0.246  0.7705 -0.3258  0.5189
  621SOL     OW 2010   1.569   0.531   0.690  0.3648  0.4061  0.1015
  621SOL    HW1 2011   1.613   0.515   0.773  0.3077  0.2624  0.1039
  621SOL    HW2 2012   1.638   0.520   0.624 -0.1904 -2.5628 -0.1444
  622SOL     OW 2013   3.501   1.929   2.442 -0.8314  0.2132  0.1425
  622SOL    HW1 2014   3.430   1.869   2.420 -2.1656  1.7821 -0.0778
  622SOL    HW2 2015   3.524   1.971   2.360 -2.1805  2.2709  0.7159
  623SOL     OW 2016   1.722   2.412   2.435 -0.4578 -0.5337 -0.4614
  623SOL    HW1 2017   1.783   2.463   2.489 -1.4240 -1.4026  1.5380
  623SOL    HW2 2018   1.669   2.477   2.390  0.5612  0.2183 -0.6025
  624SOL     OW 2019   1.300   3.247   1.805  0.2383  0.6881  0.4565
  624SOL    HW1 2020   1.225   3.298   1.773  0.2518  0.2596 -0.2860
  624SOL    HW2 2021   1.265   3.158   1.816  0.4744  0.6291  0.7433
  625SOL     OW 2022   0.172   2.200   0.512  0.2562 -0.3336  0.2004
  625SOL    HW1 2023   0.266   2.215   0.503  0.3133 -0.4982  0.5145
  625SOL    HW2 2024   0.147   2.155   0.431  0.7757 -1.8522  0.8503
  626SOL     OW 2025   1.522   1.070   1.564  0.7070  0.7311  0.1761
  626SOL    HW1 2026   1.601   1.121   1.547  0.2607  1.5433  0.4688
  626SOL    HW2 2027   1.454   1.114   1.513  0.3634  0.2730  0.2343
  627SOL     OW 2028   0.119   2.571   0.071  0.0099  0.5189  0.2851
  627SOL    HW1 2029   0.064   2.609   0.140  0.3616  0.4937  0.5804
  627SOL    HW2 2030   0.145   2.485   0.105 -1.3350 -0.3009 -0.6659
  628SOL     OW 2031   0.869   2.107   2.889 -0.1771  0.6568 -0.0605
  628SOL    HW1 2032   0.793   2.164   2.900 -0.3510  0.4315 -0.0583
  628SOL    HW2 2033   0.907   2.133   2.805 -1.4479 -0.5657 -1.0791
  629SOL     OW 2034   2.151   2.108   2.433 -0.3930  0.4309  0.6133
  629SOL    HW1 2035   2.136   2.136   2.523 -2.3416  0.8270  0.2069
  629SOL    HW2 2036   2.070   2.130   2.387  0.2691 -0.4616 -1.0676
  630SOL     OW 2037   0.242   3.513   0.610 -0.0736 -0.2869  0.2188
  630SOL    HW1 2038   0.179   3.560   0.664 -2.0450 -1.7265 -0.7008
  630SOL    HW2 2039   0.326   3.555   0.629 -1.2539  1.6090  1.6115
  631SOL     OW 2040   0.134   0.880   1.524  0.1993 -0.6838  0.1433
  631SOL    HW1 2041   0.149   0.858   1.616  0.8085  0.1287  0.2476
  631SOL    HW2 2042   0.045   0.849   1.506 -0.5753  0.6477  1.4835
  632SOL     OW 2043   0.312   3.095   1.450 -0.1056  0.2326  0.7787
  632SOL    HW1 2044   0.383   3.037   1.479  2.4133  1.4034 -2.4783
  632SOL    HW2 2045   0.264   3.043   1.385 -0.9118  0.2169  1.3657
  633SOL     OW 2046   3.104   3.153   0.328  0.2786 -0.1842 -1.1466
  633SOL    HW1 2047   3.059   3.234   0.354  1.4068 -0.5927  2.5922
  633SOL    HW2 2048   3.197   3.175   0.329  0.5723 -1.3631 -0.6635
  634SOL     OW 2049   2.154   1.422   0.463 -0.8070 -0.9549  0.1809
  634SOL    HW1 2050   2.071   1.434   0.416 -0.4844 -0.4606 -0.2712
  634SOL    HW2 2051   2.181   1.333   0.440  1.2700  0.4605 -3.7926
  635SOL     OW 2052   2.937   2.912   0.939 -0.0119 -0.5688 -0.8814
  635SOL    HW1 2053   2.933   2.834   0.994 -0.2330  0.1813  0.1988
  635SOL    HW2 2054   2.898   2.981   0.993  1.4770  0.6135 -1.2563
  636SOL     OW 2055   3.711   1.724   3.550  0.0059 -0.0331  0.2567
  636SOL    HW1 2056   3.661   1.700   3.471  1.1018 -0.0160 -0.4571
  636SOL    HW2 2057   3.758   1.804   3.526  2.4189 -1.4314 -0.0171
  637SOL     OW 2058   2.569   1.701   2.615 -0.4880  0.0362 -0.2324
  637SOL    HW1 2059   2.629   1.713   2.541  0.7242  1.0499  0.8846
  637SOL    HW2 2060   2.517   1.782   2.617 -0.5372 -0.0001  0.0091
  638SOL     OW 2061   2.893   0.046   0.592  0.2185 -0.6178  0.1668
  638SOL    HW1 2062   2.902   0.126   0.541 -0.0301 -1.1365 -0.7143
  638SOL    HW2 2063   2.817   0.001   0.554 -0.7848 -0.4135  1.8330
  639SOL     OW 2064   3.253   3.668   0.757  0.2139 -0.3940  0.1699
  639SOL    HW1 2065   3.342   3.703   0.752 -0.2978  1.0192  0.6328
  639SOL    HW2 2066   3.196   3.745   0.753 -0.9135 -0.9085  3.3818
  640SOL     OW 2067   0.176   0.531   2.449  0.2398 -0.0052  0.4456
  640SOL    HW1 2068   0.154   0.499   2.537 -0.3946  0.2787  0.3999
  640SOL    HW2 2069   0.099   0.582   2.423  0.2353 -0.4649 -0.4607
  641SOL     OW 2070   3.212   0.192   1.179  0.4927  0.7734 -0.2672
  641SOL    HW1 2071   3.228   0.282   1.208  1.2063  0.9690 -1.2434
  641SOL    HW2 2072   3.207   0.142   1.261  0.8944  1.5640  0.2578
  642SOL     OW 2073   0.832   0.359   3.489  0.5253  0.5530  0.0237
  642SOL    HW1 2074   0.815   0.271   3.524 -3.1086  1.2481  0.4101
  642SOL    HW2 2075   0.867   0.344   3.402 -1.6686 -1.3876 -0.6286
  643SOL     OW 2076   3.066   0.797   2.572  0.5752  0.3126 -0.1899
  643SOL    HW1 2077   3.160   0.779   2.572  0.3328 -1.4115 -2.3340
  643SOL    HW2 2078   3.026   0.718   2.609 -0.0537  1.1195  0.9194
  644SOL     OW 2079   2.878   0.701   2.756  0.8386  0.2583 -0.2744
  644SOL    HW1 2080   2.790   0.688   2.720  0.8260 -1.0557  0.1854
  644SOL    HW2 2081   2.872   0.783   2.805  0.5370  1.4520 -2.2174
  645SOL     OW 2082   2.240   3.329   1.714 -0.0745  0.1007  0.6607
  645SOL    HW1 2083   2.163   3.328   1.658  0.7754 -1.9723 -0.5876
  645SOL    HW2 2084   2.281   3.414   1.697 -0.9006  0.3154 -0.3557
  646SOL     OW 2085   3.067   0.073   2.659 -0.2000 -0.1283 -0.0108
  646SOL    HW1 2086   3.003   0.001   2.662 -0.3790  0.0531  0.8716
  646SOL    HW2 2087   3.150   0.030   2.638 -0.6479 -0.3310 -1.4341
  647SOL     OW 2088   0.343   2.222   2.996  0.3025  0.0325  0.4295
  647SOL    HW1 2089   0.359   2.129   3.012  0.2125 -0.0988 -0.2337
  647SOL    HW2 2090   0.384   2.266   3.071  0.9520 -0.4946  0.3964
  648SOL     OW 2091   0.341   2.430   1.168  0.0341 -0.2991  0.4338
  648SOL    HW1 2092   0.330   2.523   1.149  0.0548 -0.2471  0.6743
  648SOL    HW2 2093   0.278   2.386   1.110  0.7368 -0.2122 -0.4182
  649SOL     OW 2094   3.687   0.669   3.152 -0.2416  0.2932  0.3474
  649SOL    HW1 2095   3.611   0.634   3.106 -0.7725  1.1182  0.5780
  649SOL    HW2 2096   3.712   0.600   3.213 -2.3412  0.9322  2.0527
  650SOL     OW 2097   1.949   0.451   1.837  0.4461  0.2972 -0.2951
  650SOL    HW1 2098   1.868   0.498   1.857  0.8199  0.7165  0.2665
  650SOL    HW2 2099   1.928   0.398   1.760  0.2879  2.1413 -1.6087
  651SOL     OW 2100   1.864   1.064   1.583 -0.4924 -0.3077  0.0295
  651SOL    HW1 2101   1.893   1.022   1.502  0.6446  0.5807 -0.0568
  651SOL    HW2 2102   1.886   1.156   1.572  2.7264 -0.5618  2.5276
  652SOL     OW 2103   1.268   0.652   2.425 -0.4349  0.7322  0.5958
  652SOL    HW1 2104   1.215   0.638   2.347 -2.2928 -0.5320  2.0028
  652SOL    HW2 2105   1.292   0.563   2.453  1.3624  1.2248  0.7471
  653SOL     OW 2106   2.409   1.106   3.693  0.5325  0.2643 -0.4844
  653SOL    HW1 2107   2.479   1.041   3.691  2.0358  1.7827 -0.2020
  653SOL    HW2 2108   2.329   1.057   3.676  1.7359 -1.4481 -1.4663
  654SOL     OW 2109   0.083   3.055   0.311  0.0890  0.4495 -0.2260
  654SOL    HW1 2110   0.144   3.108   0.363 -1.6917  2.5157 -0.1219
  654SOL    HW2 2111   0.077   3.099   0.227  0.7890 -1.3041 -1.2621
  655SOL     OW 2112   2.637   2.705   0.591  0.6162  0.4515  0.1288
  655SOL    HW1 2113   2.690   2.766   0.540 -0.6760  1.3482 -0.1689
  655SOL    HW2 2114   2.633   2.626   0.538  0.1492  1.0160 -0.6935
  656SOL     OW 2115   0.780   0.437   2.022 -0.7248 -0.2896 -0.3929
  656SOL    HW1 2116   0.846   0.413   1.957  0.2278 -1.3438  0.9284
  656SOL    HW2 2117   0.787   0.371   2.090 -0.3778  1.8045  1.7330
  657SOL     OW 2118   0.544   0.700   1.847  0.1076 -0.4866 -0.0667
  657SOL    HW1 2119   0.505   0.785   1.868 -0.7476 -0.4157 -1.7648
  657SOL    HW2 2120   0.513   0.642   1.917 -0.3023  0.3224  0.4383
  658SOL     OW 2121   0.912   2.554   1.784 -0.3676  0.6516 -0.1127
  658SOL    HW1 2122   0.904   2.480   1.724 -0.2580  0.9267 -0.4682
  658SOL    HW2 2123   0.913   2.631   1.728  0.0203  0.8966  0.2242
  659SOL     OW 2124   2.252   1.493   1.435  0.0173  0.0012  1.0972
  659SOL    HW1 2125   2.291   1.579   1.448  0.0100 -0.0423  1.4357
  659SOL    HW2 2126   2.250   1.481   1.340  2.4685 -0.7219  1.0666
  660SOL     OW 2127   0.318   1.360   2.392  0.0746  0.1064  0.7219
  660SOL    HW1 2128   0.346   1.418   2.322 -1.8448 -0.7976 -0.8740
  660SOL    HW2 2129   0.370   1.280   2.381 -1.3621 -0.6697 -0.7667
  661SOL     OW 2130   1.140   2.330   1.703 -0.9287  0.4122 -0.2453
  661SOL    HW1 2131   1.118   2.294   1.789 -0.1012  0.9380  0.2034
  661SOL    HW2 2132   1.227   2.369   1.715 -1.1960  1.3085 -1.0812
  662SOL     OW 2133   3.731   0.742   2.247  0.5420 -0.3711 -0.0925
  662SOL    HW1 2134   3.641   0.724   2.219  1.4926 -3.7469 -1.5135
  662SOL    HW2 2135   3.722   0.784   2.332 -2.3803 -0.2529 -0.3621
  663SOL     OW 2136   0.827   2.484   1.524 -0.4163  0.0867  0.0181
  663SOL    HW1 2137   0.905   2.487   1.468  1.3300 -0.0204  2.3067
  663SOL    HW2 2138   0.823   2.392   1.552  0.1692  0.6076  1.9046
  664SOL     OW 2139   3.653   0.591   1.625 -0.3507 -0.5009  0.1753
  664SOL    HW1 2140   3.720   0.522   1.629 -1.2879 -1.4179  0.5778
  664SOL    HW2 2141   3.642   0.618   1.717 -1.3186 -1.1470  0.2581
  665SOL     OW 2142   0.594   0.720   1.564  0.5188  0.0332  0.4501
  665SOL    HW1 2143   0.589   0.685   1.653  1.0879 -1.9935 -0.2533
  665SOL    HW2 2144   0.582   0.643   1.508 -1.7004  1.5212 -1.2679
  666SOL     OW 2145   1.318   1.471   3.134  0.0520  0.1812 -0.3733
  666SOL    HW1 2146   1.314   1.499   3.042 -0.5192  2.3438  0.2439
  666SOL    HW2 2147   1.344   1.550   3.181  0.7628 -1.0080  1.2922
  667SOL     OW 2148   0.961   0.390   2.938 -0.0602 -0.4247 -0.2019
  667SOL    HW1 2149   0.894   0.354   2.881 -2.0983  0.0913  1.7196
  667SOL    HW2 2150   0.994   0.314   2.988 -0.9561 -0.3511  0.5215
  668SOL     OW 2151   1.296   0.386   2.887 -0.0498  0.0362  0.1527
  668SOL    HW1 2152   1.318   0.331   2.812 -1.1752 -0.0967 -0.0955
  668SOL    HW2 2153   1.293   0.475   2.851 -1.9177 -0.1702 -0.2883
  669SOL     OW 2154   0.242   3.361   2.079  0.1409  0.2100 -0.6100
  669SOL    HW1 2155   0.187   3.396   2.149 -0.0217 -0.6851 -0.2786
  669SOL    HW2 2156   0.331   3.367   2.113  0.0270 -0.6099 -0.1444
  670SOL     OW 2157   0.597   2.870   2.532  0.6634 -0.1066  0.2321
  670SOL    HW1 2158   0.661   2.800   2.537  0.5852 -0.2026 -0.0746
  670SOL    HW2 2159   0.612   2.922   2.611  0.3889 -0.7478  0.7160
  671SOL     OW 2160   1.626   1.959   3.417  0.3961  0.1924 -0.8568
  671SOL    HW1 2161   1.682   1.925   3.347  0.1069  1.4660 -1.7403
  671SOL    HW2 2162   1.676   2.032   3.453  0.7489 -0.7365  0.6127
  672SOL     OW 2163   1.802   1.864   3.253  1.0703  0.4734  0.4363
  672SOL    HW1 2164   1.847   1.924   3.194 -0.3160  1.6769  0.5615
  672SOL    HW2 2165   1.748   1.810   3.194  1.2188  0.3228  0.4388
  673SOL     OW 2166   0.291   0.844   0.858  0.3013 -0.1590  0.5260
  673SOL    HW1 2167   0.197   0.826   0.861  0.5736 -1.6119  1.6461
  673SOL    HW2 2168   0.321   0.798   0.780  0.3239 -1.1662  1.1055
  674SOL     OW 2169   2.854   3.317   2.340  0.2007 -0.2328 -0.1135
  674SOL    HW1 2170   2.798   3.362   2.404  0.8669 -0.2727  0.5117
  674SOL    HW2 2171   2.830   3.355   2.256  0.2856  0.8198  0.3292
  675SOL     OW 2172   1.372   0.753   3.013  0.5501  0.1679 -0.6212
  675SOL    HW1 2173   1.443   0.730   3.073  0.3021 -1.4323 -0.8998
  675SOL    HW2 2174   1.298   0.773   3.071  0.4818 -0.7834 -0.3543
  676SOL     OW 2175   0.373   0.969   1.233 -0.3420  0.3060 -0.5568
  676SOL    HW1 2176   0.335   1.012   1.310 -1.5562 -1.6758  0.0052
  676SOL    HW2 2177   0.468   0.975   1.248 -0.5179  1.2348  0.3473
  677SOL     OW 2178   1.455   1.607   0.882 -0.2032 -0.4740  0.0034
  677SOL    HW1 2179   1.382   1.668   0.872  0.3208  0.3794  1.1752
  677SOL    HW2 2180   1.416   1.520   0.873 -1.1262 -0.0088 -0.6897
  678SOL     OW 2181   0.194   2.658   1.628 -0.7767 -0.5179  0.1151
  678SOL    HW1 2182   0.104   2.679   1.652 -0.8322 -0.8946  0.2290
  678SOL    HW2 2183   0.245   2.675   1.708 -0.9460 -1.6648  0.4807
  679SOL     OW 2184   0.312   2.646   2.374 -0.4771  0.1282 -0.5595
  679SOL    HW1 2185   0.272   2.575   2.324 -0.0495 -0.6972  0.2485
  679SOL    HW2 2186   0.264   2.647   2.457  0.9427 -0.7102  0.3244
  680SOL     OW 2187   0.882   2.908   0.860 -0.2530  0.4334  0.0963
  680SOL    HW1 2188   0.831   2.919   0.779  0.7552 -0.1269 -0.6470
  680SOL    HW2 2189   0.965   2.950   0.841  0.5645 -1.0452  0.2643
  681SOL     OW 2190   3.072   2.027   2.929  0.0952  0.1282  0.5299
  681SOL    HW1 2191   3.162   2.060   2.937 -0.5289  2.1036 -0.0648
  681SOL    HW2 2192   3.038   2.029   3.018  0.6016 -0.5546  0.7478
  682SOL     OW 2193   3.566   0.178   0.094  0.0144 -0.1971  0.4179
  682SOL    HW1 2194   3.530   0.159   0.181  0.7607  0.8646  0.9836
  682SOL    HW2 2195   3.490   0.201   0.041 -0.3657 -0.0087  1.0288
  683SOL     OW 2196   2.245   0.627   2.890 -0.1196 -0.1287 -0.6545
  683SOL    HW1 2197   2.336   0.599   2.881  0.2140  0.2024  1.2341
  683SOL    HW2 2198   2.193   0.551   2.863  0.7556 -1.4914  1.3191
  684SOL     OW 2199   1.689   1.676   0.046 -0.0837 -0.0257 -0.3413
  684SOL    HW1 2200   1.710   1.651  -0.044 -1.8080  0.0693 -0.7958
  684SOL    HW2 2201   1.727   1.764   0.055  1.9678 -0.8610 -0.2290
  685SOL     OW 2202   0.415   2.498   0.510  0.5473  0.1829  0.9541
  685SOL    HW1 2203   0.454   2.412   0.525 -1.3193 -0.6829  1.1851
  685SOL    HW2 2204   0.359   2.513   0.586 -3.0345 -0.7352 -1.2728
  686SOL     OW 2205   3.253   0.704   0.171  0.1335 -0.2298 -0.2262
  686SOL    HW1 2206   3.303   0.725   0.092  1.7153  0.7996  0.9857
  686SOL    HW2 2207   3.178   0.653   0.139  1.0157 -0.3291 -2.3085
  687SOL     OW 2208   0.764   3.073   2.208 -0.4161  0.2300 -0.3101
  687SOL    HW1 2209   0.835   3.011   2.223 -1.3645 -0.8284 -0.0391
  687SOL    HW2 2210   0.684   3.019   2.212 -1.2085  1.3185 -0.9591
  688SOL     OW 2211   0.470   1.826   0.552 -0.7495 -0.5941  0.0965
  688SOL    HW1 2212   0.399   1.800   0.494 -0.5337 -2.4735  0.5943
  688SOL    HW2 2213   0.532   1.873   0.496  0.7303 -4.4982 -1.9671
  689SOL     OW 2214   0.759   1.168   1.048  0.2339  0.4520  0.3532
  689SOL    HW1 2215   0.692   1.134   0.989 -1.1991  0.6702  1.8138
  689SOL    HW2 2216   0.799   1.241   0.999 -0.9143  0.6348 -0.3449
  690SOL     OW 2217   3.452   2.892   2.027  0.6542 -0.0038 -0.1208
  690SOL    HW1 2218   3.524   2.902   1.965 -0.4264 -1.9962 -1.8701
  690SOL    HW2 2219   3.489   2.841   2.099  1.3722  0.3200 -0.2542
  691SOL     OW 2220   3.628   1.846   0.394 -0.0403 -0.0632  0.9003
  691SOL    HW1 2221   3.625   1.920   0.334  1.4167 -0.4340  0.3440
  691SOL    HW2 2222   3.645   1.770   0.339 -0.9892 -0.7669  1.5265
  692SOL     OW 2223   0.069   0.391   3.049  0.2648  0.1559  0.0173
  692SOL    HW1 2224   0.125   0.314   3.049  1.2507  0.8465  0.5435
  692SOL    HW2 2225  -0.014   0.361   3.013  1.0683 -0.8270 -1.0965
  693SOL     OW 2226   1.946   0.082   1.234  0.1482 -0.3814  0.5920
  693SOL    HW1 2227   1.929  -0.008   1.260 -0.2752 -0.1273  1.2152
  693SOL    HW2 2228   1.862   0.115   1.203  0.7477 -0.8638 -1.7713
  694SOL     OW 2229   0.601   1.787   0.825  0.3990  0.4409 -0.2581
  694SOL    HW1 2230   0.521   1.801   0.774 -0.5258  0.2928  1.1081
  694SOL    HW2 2231   0.577   1.723   0.891  1.7346  0.2054  0.0278
  695SOL     OW 2232  -0.018   1.849   1.911 -0.6281  0.0365  0.5097
  695SOL    HW1 2233   0.075   1.872   1.916 -0.4160 -0.5793 -0.3672
  695SOL    HW2 2234  -0.054   1.909   1.845 -0.5075 -0.7377 -0.2833
  696SOL     OW 2235   2.360   2.809   1.976  0.0738  1.5381 -0.0312
  696SOL    HW1 2236   2.363   2.718   2.007  1.5176  1.0721 -1.3989
  696SOL    HW2 2237   2.349   2.861   2.056 -0.2997  0.1943  0.8266
  697SOL     OW 2238   1.706   2.007   1.014 -0.0431  0.2812 -0.2659
  697SOL    HW1 2239   1.768   2.006   0.941  0.1922 -1.4274 -0.0687
  697SOL    HW2 2240   1.715   2.095   1.052 -1.3314  1.8329 -3.2285
  698SOL     OW 2241   1.687   0.177   1.444  0.3209 -0.2665 -0.3516
  698SOL    HW1 2242   1.615   0.191   1.506 -0.6602  0.7280 -1.6744
  698SOL    HW2 2243   1.662   0.098   1.396 -0.5908  0.7728 -1.6825
  699SOL     OW 2244   2.866   2.226   1.250  0.6788  0.9016 -0.6677
  699SOL    HW1 2245   2.822   2.141   1.241  2.3864 -0.2500  1.2123
  699SOL    HW2 2246   2.880   2.254   1.160  2.0619 -1.9155 -1.4509
  700SOL     OW 2247   0.490   2.449   0.810  0.4973 -0.1846 -0.4131
  700SOL    HW1 2248   0.499   2.371   0.864  0.1004 -0.3654 -0.6075
  700SOL    HW2 2249   0.396   2.463   0.802  0.5304 -0.5146 -1.5611
  701SOL     OW 2250   3.166   0.856   0.382 -0.4245  0.0813 -1.1246
  701SOL    HW1 2251   3.162   0.950   0.368 -1.5992  0.1529 -0.3698
  701SOL    HW2 2252   3.228   0.825   0.316  0.1359  1.3995 -1.2389
  702SOL     OW 2253   3.115   0.962   1.310  0.2556 -0.6307  0.0937
  702SOL    HW1 2254   3.160   0.882   1.281  0.3707 -0.6481  0.3251
  702SOL    HW2 2255   3.022   0.942   1.299  0.3135 -0.3586 -1.0220
  703SOL     OW 2256   3.258   0.131   1.558 -0.8198 -0.1990 -0.0809
  703SOL    HW1 2257   3.283   0.219   1.583 -0.5493 -0.7828  1.8461
  703SOL    HW2 2258   3.199   0.143   1.483 -0.4091  1.5634 -0.1573
  704SOL     OW 2259   1.395   1.374   1.338  0.0513  0.1839 -0.0321
  704SOL    HW1 2260   1.343   1.437   1.289 -0.9389 -1.5744 -1.3628
  704SOL    HW2 2261   1.332   1.329   1.394  0.6796  0.1230  0.6452
  705SOL     OW 2262   2.779   2.193   3.736  0.1251  0.4778  0.1459
  705SOL    HW1 2263   2.861   2.228   3.701  1.2636  0.4468  2.6350
  705SOL    HW2 2264   2.711   2.245   3.692  1.5337  1.6541 -0.7277
  706SOL     OW 2265   0.833   1.715   3.363 -0.6451  0.0206  0.0677
  706SOL    HW1 2266   0.839   1.802   3.324  0.4250 -0.0666  0.0212
  706SOL    HW2 2267   0.739   1.700   3.373 -0.8455  1.1034 -0.0858
  707SOL     OW 2268   2.023   2.898   2.780 -0.1111  0.2390  0.5720
  707SOL    HW1 2269   2.045   2.805   2.776  2.6783  0.8558 -0.2316
  707SOL    HW2 2270   1.967   2.913   2.704 -0.4559 -0.7212  0.6217
  708SOL     OW 2271   1.857   1.660   1.076 -0.1520 -0.3014  0.7864
  708SOL    HW1 2272   1.767   1.692   1.069  0.6772  1.9395 -1.5759
  708SOL    HW2 2273   1.901   1.725   1.132  0.3412 -0.3871  0.5096
  709SOL     OW 2274   0.561   2.846   0.378  0.0971  0.1040  0.4751
  709SOL    HW1 2275   0.649   2.867   0.345  0.5649 -1.2449  0.7732
  709SOL    HW2 2276   0.575   2.826   0.471  0.2295 -3.8549 -0.2285
  710SOL     OW 2277   2.759   2.528   1.331 -0.0194 -0.5373  0.0086
  710SOL    HW1 2278   2.664   2.521   1.322 -0.0543 -0.2170  0.0868
  710SOL    HW2 2279   2.780   2.470   1.404 -0.2133 -0.2800  0.2745
  711SOL     OW 2280   1.093   0.619   3.352  0.2156  0.1351 -0.2193
  711SOL    HW1 2281   1.145   0.548   3.390  2.1113  1.4900 -0.1237
  711SOL    HW2 2282   1.059   0.668   3.427 -0.4899 -0.2391 -0.2870
  712SOL     OW 2283   3.362   2.115   0.056  0.1963  0.4727  0.0621
  712SOL    HW1 2284   3.363   2.208   0.076  0.4112  0.0717  2.1755
  712SOL    HW2 2285   3.287   2.103  -0.002 -2.1117  1.4792  2.5967
  713SOL     OW 2286   2.398   2.105   2.320 -0.7290 -0.1725 -0.3517
  713SOL    HW1 2287   2.422   2.040   2.386 -0.5173  0.1418 -0.1168
  713SOL    HW2 2288   2.321   2.150   2.357  1.5958  2.6521  1.5367
  714SOL     OW 2289   2.232   2.168   0.796 -0.0734 -0.3531  0.0349
  714SOL    HW1 2290   2.236   2.168   0.892 -0.2327 -0.6662  0.0425
  714SOL    HW2 2291   2.185   2.248   0.774  0.3202 -0.0747  0.2028
  715SOL     OW 2292   2.348   0.743   1.217 -0.2814 -0.5392  0.6243
  715SOL    HW1 2293   2.263   0.782   1.241 -1.2467 -0.7806 -1.9819
  715SOL    HW2 2294   2.326   0.679   1.149  2.0476 -0.1525 -0.5947
  716SOL     OW 2295   0.870   2.179   1.867 -0.2620 -0.1538  0.0450
  716SOL    HW1 2296   0.955   2.202   1.903  0.5263 -0.9253 -1.2319
  716SOL    HW2 2297   0.820   2.149   1.943 -0.1149  2.1451  1.1413
  717SOL     OW 2298   0.831   3.339   0.704  0.0828 -0.3713  0.2069
  717SOL    HW1 2299   0.750   3.324   0.752 -0.4224  0.2059 -0.4593
  717SOL    HW2 2300   0.839   3.434   0.698 -1.7134 -0.2886 -3.8614
  718SOL     OW 2301   2.045   0.653   0.343 -0.3632 -0.4388 -0.1169
  718SOL    HW1 2302   1.963   0.697   0.320 -1.7163 -3.3341 -1.3408
  718SOL    HW2 2303   2.017   0.574   0.389  1.9319 -0.2972  1.6880
  719SOL     OW 2304   1.575   0.810   1.698  0.3370 -0.2769 -0.5964
  719SOL    HW1 2305   1.660   0.778   1.668  0.4026  1.0518 -1.9679
  719SOL    HW2 2306   1.573   0.901   1.670 -0.2477  0.6828  2.2287
  720SOL     OW 2307   3.503   0.964   2.039  0.2311 -0.2095  0.7250
  720SOL    HW1 2308   3.495   0.985   2.132 -0.3850  1.1098  0.3976
  720SOL    HW2 2309   3.426   0.910   2.020 -0.4835  0.7963  0.6676
  721SOL     OW 2310   0.740   1.287   1.310 -0.6251 -0.2982  0.0114
  721SOL    HW1 2311   0.743   1.243   1.224  2.8463 -1.3949  0.5314
  721SOL    HW2 2312   0.736   1.215   1.373  1.2623  0.2103  0.7881
  722SOL     OW 2313   0.996   1.632   0.873 -0.0761  0.2273  0.5697
  722SOL    HW1 2314   0.949   1.676   0.802  0.3708  1.6264  1.0996
  722SOL    HW2 2315   1.057   1.574   0.829 -1.5012 -0.7819 -0.1381
  723SOL     OW 2316   0.074   0.896   3.038 -0.1130  0.3300 -0.8154
  723SOL    HW1 2317   0.004   0.952   3.006 -0.4595 -0.2144 -1.0249
  723SOL    HW2 2318   0.029   0.821   3.078  0.3338  0.3855 -0.1886
  724SOL     OW 2319   1.367   2.438   2.538 -0.1529 -0.2198 -0.8876
  724SOL    HW1 2320   1.316   2.369   2.495 -2.7344  1.8513 -1.4901
  724SOL    HW2 2321   1.304   2.481   2.596  1.5472  1.1220  0.0578
  725SOL     OW 2322   0.532   2.017   3.081 -0.2593 -0.6105  0.0694
  725SOL    HW1 2323   0.614   2.066   3.073 -0.2316 -0.6198  0.3041
  725SOL    HW2 2324   0.534   1.980   3.169  0.2802 -2.0232 -0.5074
  726SOL     OW 2325   1.445   1.854   0.111  0.5177  0.8681 -0.3299
  726SOL    HW1 2326   1.510   1.841   0.180 -0.5985 -0.4444  0.5237
  726SOL    HW2 2327   1.363   1.869   0.158 -0.3039 -0.2492 -1.3517
  727SOL     OW 2328   3.036   2.352   0.477 -0.0576 -0.1274 -0.7163
  727SOL    HW1 2329   3.070   2.431   0.517 -1.0174  0.8727 -1.7960
  727SOL    HW2 2330   3.063   2.281   0.536  0.2523  1.0608  0.6173
  728SOL     OW 2331   0.993   3.135   0.051 -0.1373  0.0601  0.4216
  728SOL    HW1 2332   1.053   3.169  -0.015  0.0327  0.9112  1.0049
  728SOL    HW2 2333   0.990   3.040   0.033  1.6944 -0.0768  0.6257
  729SOL     OW 2334   3.262   3.671   1.075  0.2635 -0.2462  0.2358
  729SOL    HW1 2335   3.214   3.637   1.000  0.2869 -2.1125  1.0212
  729SOL    HW2 2336   3.227   3.759   1.088 -1.1108 -0.6213 -0.7612
  730SOL     OW 2337   0.232   2.556   0.728  0.2307  0.6413  0.4260
  730SOL    HW1 2338   0.223   2.642   0.769 -1.1169  0.9026 -0.3677
  730SOL    HW2 2339   0.163   2.503   0.767  0.5776  0.1388  0.3661
  731SOL     OW 2340   1.029   0.652   1.046 -0.1281 -0.3069  0.6184
  731SOL    HW1 2341   1.113   0.620   1.076  1.3096  1.8179 -0.8068
  731SOL    HW2 2342   0.989   0.692   1.124 -0.5345 -2.5734  1.6367
  732SOL     OW 2343   0.285   1.876   1.189 -0.2431  0.2488  0.2747
  732SOL    HW1 2344   0.192   1.863   1.167 -0.3714  3.0348 -1.4265
  732SOL    HW2 2345   0.322   1.788   1.193 -1.9737 -0.9332 -3.9738
  733SOL     OW 2346   2.363   0.225   0.675 -0.2091  0.5267  0.6554
  733SOL    HW1 2347   2.273   0.243   0.704  0.5328  2.3315  2.0253
  733SOL    HW2 2348   2.405   0.186   0.751  0.4430  0.7138  0.3957
  734SOL     OW 2349   0.743   0.098   1.008  0.1686 -0.1097  0.0261
  734SOL    HW1 2350   0.754   0.124   1.099  0.1225  1.7065 -0.4598
  734SOL    HW2 2351   0.652   0.119   0.988  0.2160 -0.3772 -0.4934
  735SOL     OW 2352   2.732   2.047   2.454 -0.6062  0.2834 -0.1426
  735SOL    HW1 2353   2.776   2.069   2.371 -1.6502  1.5768 -0.3870
  735SOL    HW2 2354   2.684   2.127   2.477 -1.6848 -0.6187  0.8401
  736SOL     OW 2355   3.310   3.234   3.228  0.1579  0.5530 -0.1122
  736SOL    HW1 2356   3.301   3.180   3.306 -0.6016 -0.0627 -0.6106
  736SOL    HW2 2357   3.374   3.186   3.174 -0.3649  0.2476 -0.4668
  737SOL     OW 2358   2.922   3.625   0.166  0.2014 -0.0420  0.0042
  737SOL    HW1 2359   2.853   3.571   0.129 -0.6059  1.3300 -0.5865
  737SOL    HW2 2360   2.959   3.573   0.237 -2.5892 -0.1438  1.4958
  738SOL     OW 2361   3.016   2.683   3.444 -0.4800 -0.8625  0.5751
  738SOL    HW1 2362   3.098   2.641   3.472  0.5717  0.0113 -1.0097
  738SOL    HW2 2363   2.991   2.635   3.365 -1.2148 -0.7568  0.7330
  739SOL     OW 2364   1.410   2.566   1.323 -0.2133 -0.2374  0.2305
  739SOL    HW1 2365   1.378   2.647   1.365 -0.4572 -0.5264  0.6088
  739SOL    HW2 2366   1.481   2.596   1.266 -0.4685  0.2784  0.1713
  740SOL     OW 2367   0.513   2.936   2.206  0.6604 -0.1405 -0.1067
  740SOL    HW1 2368   0.419   2.954   2.203  0.3882 -1.4586 -0.0295
  740SOL    HW2 2369   0.522   2.859   2.263  1.7178 -0.3844 -0.5690
  741SOL     OW 2370   1.171   2.588   0.733 -0.1268  0.1862  0.1568
  741SOL    HW1 2371   1.085   2.583   0.691 -0.1122 -0.3304  0.1857
  741SOL    HW2 2372   1.171   2.672   0.779  0.5432  1.6852 -2.3726
  742SOL     OW 2373   3.518   1.672   0.633 -0.1411 -0.5592 -0.9415
  742SOL    HW1 2374   3.563   1.743   0.588 -0.6294  0.1785 -0.2775
  742SOL    HW2 2375   3.456   1.638   0.568 -1.2463  0.8705 -0.6674
  743SOL     OW 2376   0.052   3.381   0.794  0.0035  0.3377 -0.1644
  743SOL    HW1 2377   0.049   3.294   0.753  2.6465 -0.3599  0.9062
  743SOL    HW2 2378   0.031   3.365   0.886  2.5676  0.3763  0.5068
  744SOL     OW 2379   1.356   0.124   1.331 -0.1868  0.1902  0.1633
  744SOL    HW1 2380   1.417   0.067   1.379  0.7852  0.3122 -0.8564
  744SOL    HW2 2381   1.336   0.194   1.392  0.9442  0.3038  0.4415
  745SOL     OW 2382   2.532   2.491   1.730 -0.2337  0.3571 -0.3648
  745SOL    HW1 2383   2.447   2.462   1.696  0.5968  0.4563 -2.7032
  745SOL    HW2 2384   2.582   2.411   1.742  0.3374  0.4655 -1.9034
  746SOL     OW 2385   1.969   1.756   0.398 -0.2275  0.1132 -0.2289
  746SOL    HW1 2386   2.040   1.774   0.337  0.5011  1.6348  0.9914
  746SOL    HW2 2387   1.903   1.711   0.346  1.2533 -0.5503 -1.5997
  747SOL     OW 2388   1.856   3.679   2.999  0.3166  0.3787 -0.0995
  747SOL    HW1 2389   1.878   3.677   2.906 -0.4149 -0.1076 -0.2748
  747SOL    HW2 2390   1.868   3.589   3.029 -1.3810  0.0770 -0.2145
  748SOL     OW 2391   2.425   2.008   0.388 -0.3632  0.3299  0.0368
  748SOL    HW1 2392   2.471   2.072   0.333 -0.7645  0.6677  0.0904
  748SOL    HW2 2393   2.379   1.951   0.327 -0.9905  0.8427  0.0229
  749SOL     OW 2394   0.810   0.390   0.600  0.5590  0.0733 -0.6049
  749SOL    HW1 2395   0.730   0.437   0.623  0.7828  0.9179 -1.4788
  749SOL    HW2 2396   0.866   0.397   0.677 -0.8503 -2.0861  0.7377
  750SOL     OW 2397   1.060   2.052   0.564 -0.2606  0.3264  0.3096
  750SOL    HW1 2398   1.002   2.070   0.491 -2.8680 -2.0483  1.6197
  750SOL    HW2 2399   1.135   2.007   0.524 -1.0712  0.1169 -1.0302
  751SOL     OW 2400   0.320   1.628   2.035  0.0527  0.2366  0.1156
  751SOL    HW1 2401   0.395   1.684   2.053  1.0847 -0.6590 -1.2394
  751SOL    HW2 2402   0.295   1.649   1.945  0.3518 -1.3457 -0.3533
  752SOL     OW 2403   2.267   1.083   0.973 -0.1969  0.2776  0.3950
  752SOL    HW1 2404   2.272   1.176   0.954 -0.9346 -0.0712 -1.7850
  752SOL    HW2 2405   2.183   1.072   1.018 -0.0940  0.6466  0.6841
  753SOL     OW 2406   0.736   1.354   0.058 -0.0340 -0.0487 -0.4175
  753SOL    HW1 2407   0.739   1.444   0.025  0.4362 -0.0470 -0.3799
  753SOL    HW2 2408   0.652   1.320   0.028  0.5379 -0.1708 -1.9499
  754SOL     OW 2409   0.441   1.620   2.453 -0.4026 -0.5865 -0.0581
  754SOL    HW1 2410   0.389   1.547   2.487 -1.6259  0.0418 -0.5293
  754SOL    HW2 2411   0.508   1.578   2.400  1.1656 -1.5583  2.4938
  755SOL     OW 2412   2.530   0.270   3.363 -0.3539  0.6190 -0.2277
  755SOL    HW1 2413   2.436   0.287   3.365 -0.4920 -0.0610 -0.4141
  755SOL    HW2 2414   2.556   0.293   3.274 -1.0342 -2.4286 -1.3410
  756SOL     OW 2415   1.960   1.234   2.738  0.4339  0.3817 -0.5508
  756SOL    HW1 2416   2.030   1.297   2.721  1.5566 -0.3763  0.9622
  756SOL    HW2 2417   1.958   1.226   2.834 -4.0190  2.8489 -0.1716
  757SOL     OW 2418   0.762   0.050   1.622 -0.7829 -0.5229 -0.5255
  757SOL    HW1 2419   0.735  -0.019   1.682 -0.3663  1.2642  1.8984
  757SOL    HW2 2420   0.681   0.098   1.603 -0.6502 -0.0359  0.0950
  758SOL     OW 2421   1.580   3.046   1.839 -0.2192  0.4955  0.9045
  758SOL    HW1 2422   1.643   3.079   1.902  1.3081 -0.6806  0.0730
  758SOL    HW2 2423   1.574   3.115   1.772 -0.6069  1.0432  1.4944
  759SOL     OW 2424   3.215   0.192   0.515  0.9800  0.0501  0.2452
  759SOL    HW1 2425   3.235   0.143   0.435 -0.1146  0.5076 -0.3225
  759SOL    HW2 2426   3.127   0.226   0.501  1.1058  0.8506  1.3038
  760SOL     OW 2427   1.733   0.975   1.079 -0.1787 -0.2338 -0.6372
  760SOL    HW1 2428   1.759   0.884   1.097  1.2085  0.4381  1.0907
  760SOL    HW2 2429   1.683   0.970   0.997 -0.5468 -2.6004 -0.3456
  761SOL     OW 2430   1.701   1.518   3.518 -0.4068  0.6914 -0.5046
  761SOL    HW1 2431   1.693   1.433   3.562  5.0026 -0.2426 -0.5343
  761SOL    HW2 2432   1.720   1.495   3.427  1.8594  1.7253 -0.3656
  762SOL     OW 2433   1.686   2.148   0.600 -0.9115 -0.3085  0.2735
  762SOL    HW1 2434   1.745   2.121   0.670  1.3841  2.8015 -0.2919
  762SOL    HW2 2435   1.714   2.236   0.576 -2.2896 -0.7713 -3.8511
  763SOL     OW 2436   3.075   0.050   1.381 -0.7496  1.0783 -0.5268
  763SOL    HW1 2437   3.089  -0.028   1.434 -1.1433  1.0907 -0.3982
  763SOL    HW2 2438   2.980   0.055   1.371 -0.6674  0.8988 -1.4985
  764SOL     OW 2439   0.851   0.470   1.688 -0.5102  0.7717 -0.2119
  764SOL    HW1 2440   0.887   0.531   1.624 -1.4779  0.5240 -1.0027
  764SOL    HW2 2441   0.896   0.493   1.770 -0.0715  1.8209 -0.7257
  765SOL     OW 2442   0.552   1.935   1.189 -0.4340 -0.0646  0.6251
  765SOL    HW1 2443   0.456   1.939   1.184 -0.4203  1.5404  1.0699
  765SOL    HW2 2444   0.582   2.004   1.131  0.4956 -0.9889 -0.0160
  766SOL     OW 2445   2.591   1.118   2.019 -0.4037 -0.5913 -0.3873
  766SOL    HW1 2446   2.683   1.143   2.009 -0.9512  1.6641 -0.3193
  766SOL    HW2 2447   2.580   1.108   2.114 -0.5648  0.6173 -0.2706
  767SOL     OW 2448   3.321   1.238   2.236 -0.6116 -0.2884 -0.8505
  767SOL    HW1 2449   3.364   1.201   2.314 -0.1380 -2.2459 -1.9718
  767SOL    HW2 2450   3.228   1.231   2.256 -0.4989 -0.7787 -0.4463
  768SOL     OW 2451   2.628   1.794   1.682 -0.0926  0.1006 -0.2453
  768SOL    HW1 2452   2.682   1.793   1.761  0.2143 -0.4789 -0.4524
  768SOL    HW2 2453   2.672   1.733   1.622 -0.6493  0.0721 -0.6365
  769SOL     OW 2454   2.769   1.622   1.524  0.1232 -0.4011 -0.0188
  769SOL    HW1 2455   2.698   1.575   1.481 -1.4205 -0.6250  2.6079
  769SOL    HW2 2456   2.848   1.591   1.480 -1.2156 -1.7489 -1.6052
  770SOL     OW 2457   0.940   1.334   2.866 -0.3651  0.2741 -0.0255
  770SOL    HW1 2458   0.941   1.428   2.848  1.8269 -0.0164 -1.8714
  770SOL    HW2 2459   1.025   1.302   2.835 -0.8532 -2.2682  0.9571
  771SOL     OW 2460   0.739   2.843   1.705  0.3945  1.1399  0.1623
  771SOL    HW1 2461   0.686   2.767   1.727  0.9971  0.1560 -1.6050
  771SOL    HW2 2462   0.721   2.859   1.612  2.0173  1.6967 -0.0975
  772SOL     OW 2463   0.712   0.927   1.182 -0.2757 -0.0302  0.2548
  772SOL    HW1 2464   0.692   0.970   1.266 -0.0416  0.3031  0.1435
  772SOL    HW2 2465   0.754   0.996   1.130  0.6105 -0.5465  0.2662
  773SOL     OW 2466   3.504   2.832   0.932 -0.8337 -0.6695  0.2377
  773SOL    HW1 2467   3.450   2.841   1.011  0.9520  1.0693  1.3493
  773SOL    HW2 2468   3.594   2.833   0.965  0.0479  1.8976 -1.8838
  774SOL     OW 2469   1.444   1.694   3.261 -0.1234  0.3871  0.9160
  774SOL    HW1 2470   1.442   1.732   3.349 -1.6996  1.9413  0.2820
  774SOL    HW2 2471   1.519   1.737   3.218 -0.1280  0.5868  1.1063
  775SOL     OW 2472   0.817   0.226   1.318 -0.2259 -0.3040 -0.7402
  775SOL    HW1 2473   0.855   0.143   1.345 -0.3022  0.3668  1.6589
  775SOL    HW2 2474   0.784   0.265   1.399 -1.1270  1.5992 -1.9489
  776SOL     OW 2475   3.082   0.531   0.660  0.0250 -1.1852  0.0291
  776SOL    HW1 2476   3.154   0.519   0.598 -0.1471 -1.4268 -0.1244
  776SOL    HW2 2477   3.070   0.445   0.700 -0.6594 -1.3343 -0.4708
  777SOL     OW 2478   2.799   1.627   0.440 -0.4007 -0.0825  0.0297
  777SOL    HW1 2479   2.775   1.536   0.423  1.6488 -0.5752 -0.5519
  777SOL    HW2 2480   2.803   1.634   0.535 -0.3865 -0.6591  0.0739
  778SOL     OW 2481   2.796   2.486   2.981 -0.9058 -0.0372 -0.8410
  778SOL    HW1 2482   2.844   2.527   2.909  0.9070 -0.0107  0.3043
  778SOL    HW2 2483   2.817   2.539   3.058 -2.5156 -0.2593 -0.2048
  779SOL     OW 2484   1.652   1.740   1.861 -0.5254  0.6518 -0.4779
  779SOL    HW1 2485   1.606   1.771   1.783 -1.0284  1.3429  0.0788
  779SOL    HW2 2486   1.727   1.799   1.869  0.8500 -0.8412 -1.7242
  780SOL     OW 2487   0.024   3.567   3.541 -0.5699 -0.4772 -0.1434
  780SOL    HW1 2488   0.042   3.636   3.605 -2.4146  0.0376 -0.1147
  780SOL    HW2 2489   0.009   3.614   3.459  2.4240 -1.1685 -1.1872
  781SOL     OW 2490   2.001   2.882   2.084  0.1341  0.1430  0.1516
  781SOL    HW1 2491   1.965   2.852   2.001 -0.1036  0.0983  0.2702
  781SOL    HW2 2492   1.927   2.922   2.129 -0.0677 -1.0109  0.9064
  782SOL     OW 2493   2.403   2.407   0.990 -0.6266  0.1243 -0.0763
  782SOL    HW1 2494   2.392   2.324   1.036 -0.9935  0.4999  0.5296
  782SOL    HW2 2495   2.497   2.420   0.984 -0.5671 -0.3742 -0.2485
  783SOL     OW 2496   2.696   3.129   0.165  0.0118  0.0127  0.1603
  783SOL    HW1 2497   2.640   3.060   0.203  0.4011 -1.5497 -1.9113
  783SOL    HW2 2498   2.770   3.135   0.226 -0.9010 -0.0847  1.3261
  784SOL     OW 2499   3.236   2.862   3.057 -0.6180 -0.2336  0.2264
  784SOL    HW1 2500   3.309   2.899   3.107 -1.3809  0.1036  1.1371
  784SOL    HW2 2501   3.180   2.938   3.039  0.7095  0.0961 -3.1595
  785SOL     OW 2502   1.651   2.100   2.026 -0.7956  0.8170 -0.1541
  785SOL    HW1 2503   1.698   2.042   2.086 -1.8716  1.0490  0.9466
  785SOL    HW2 2504   1.720   2.149   1.981  0.2190 -2.0845 -1.9937
  786SOL     OW 2505   2.856   0.975   2.838 -0.1749  0.3307 -0.3384
  786SOL    HW1 2506   2.841   1.068   2.854 -0.1150  0.6097 -1.7403
  786SOL    HW2 2507   2.935   0.972   2.784  1.2773 -0.7145  1.6898
  787SOL     OW 2508   1.396   2.842   1.247 -0.2153  0.0193 -0.1995
  787SOL    HW1 2509   1.385   2.891   1.328  0.6144 -0.1568  0.0292
  787SOL    HW2 2510   1.461   2.891   1.197 -1.5897  0.7947 -1.3138
  788SOL     OW 2511   0.131   1.801   3.242  0.2162  0.5223  0.2540
  788SOL    HW1 2512   0.093   1.744   3.175  0.8385  1.2068 -0.7090
  788SOL    HW2 2513   0.224   1.805   3.220  0.4487  0.7308  1.2016
  789SOL     OW 2514   1.893   0.452   0.994 -0.2833 -0.2601  0.3929
  789SOL    HW1 2515   1.914   0.466   0.902  0.7771  1.2097  0.8147
  789SOL    HW2 2516   1.972   0.413   1.031 -0.5675 -0.5100  0.7475
  790SOL     OW 2517   2.618   0.850  -0.023 -0.2438  0.0698  0.3276
  790SOL    HW1 2518   2.569   0.775   0.009  0.3599 -0.3023  0.4052
  790SOL    HW2 2519   2.640   0.900   0.055 -0.9827  0.5420  0.2385
  791SOL     OW 2520   2.370   1.833   2.486 -0.1974 -0.8919 -0.1632
  791SOL    HW1 2521   2.397   1.747   2.454 -0.2678 -0.9927  0.0480
  791SOL    HW2 2522   2.275   1.828   2.489 -0.2330 -0.6063 -0.7111
  792SOL     OW 2523   2.744   0.219   2.201 -0.0333 -0.1001 -0.5187
  792SOL    HW1 2524   2.781   0.272   2.131 -0.1268  0.3440 -0.2343
  792SOL    HW2 2525   2.678   0.275   2.242  0.3639 -0.1655  0.2413
  793SOL     OW 2526   0.323   3.097   2.034 -0.0640  0.2462  0.7063
  793SOL    HW1 2527   0.417   3.111   2.022 -0.0157 -0.1871  0.5827
  793SOL    HW2 2528   0.284   3.183   2.016  0.0689 -0.1570 -1.8833
  794SOL     OW 2529   3.339   2.192   0.344  0.0240 -0.2939  0.0585
  794SOL    HW1 2530   3.270   2.237   0.295 -0.4799  0.7928  1.6590
  794SOL    HW2 2531   3.323   2.099   0.328 -1.0048 -0.0132 -0.6624
  795SOL     OW 2532   0.505   0.155   2.889  0.2557  0.3941 -0.3975
  795SOL    HW1 2533   0.534   0.073   2.930 -1.8702  0.7914  2.1325
  795SOL    HW2 2534   0.463   0.127   2.808 -0.7089 -1.1074  0.5665
  796SOL     OW 2535   0.825   3.378   2.970 -0.1061  0.7460 -0.6326
  796SOL    HW1 2536   0.907   3.329   2.966 -0.1920  0.6510 -1.5213
  796SOL    HW2 2537   0.839   3.452   2.910 -1.1428 -0.0254 -1.8745
  797SOL     OW 2538   0.406   0.678   3.383 -0.0112 -0.6033  0.5517
  797SOL    HW1 2539   0.371   0.728   3.309  1.0057  1.1252  1.1613
  797SOL    HW2 2540   0.475   0.624   3.345  1.0627  0.8749  0.3010
  798SOL     OW 2541   1.721   0.029   2.671 -0.3389 -0.4296  0.0668
  798SOL    HW1 2542   1.722   0.097   2.739 -0.3972  0.0953 -0.4481
  798SOL    HW2 2543   1.657  -0.034   2.702 -0.3456 -0.2103  0.5156
  799SOL     OW 2544   1.949   0.167   2.271  0.0113 -0.8610  0.1586
  799SOL    HW1 2545   1.872   0.203   2.315 -0.4170  1.1856 -2.0396
  799SOL    HW2 2546   2.018   0.231   2.289  0.5233 -1.3963  0.0869
  800SOL     OW 2547   1.132   0.201   3.430  0.1536  0.7049  0.3794
  800SOL    HW1 2548   1.129   0.178   3.523  0.1605 -0.5425  0.0978
  800SOL    HW2 2549   1.185   0.281   3.427  1.3513 -0.0008  1.3270
  801SOL     OW 2550   2.644   2.638   0.094  0.2438  0.2324  0.2437
  801SOL    HW1 2551   2.558   2.616   0.129  0.1406 -0.0611 -0.1881
  801SOL    HW2 2552   2.693   2.671   0.170  0.4025 -1.4619  0.9125
  802SOL     OW 2553   1.499   1.831   0.606 -0.1058 -0.3605  1.2116
  802SOL    HW1 2554   1.587   1.806   0.632 -0.4705 -0.0562  2.8024
  802SOL    HW2 2555   1.476   1.905   0.663 -1.9972 -1.4644  1.9719
  803SOL     OW 2556   1.365   2.843   0.627 -0.0608  0.1363 -0.2332
  803SOL    HW1 2557   1.324   2.909   0.683 -1.6589 -0.1256 -1.0437
  803SOL    HW2 2558   1.374   2.886   0.542  1.7571  0.3189  0.0191
  804SOL     OW 2559   2.416   0.542   3.464  0.4290  0.0757 -0.2546
  804SOL    HW1 2560   2.502   0.519   3.499 -0.5070 -3.0371  0.3169
  804SOL    HW2 2561   2.355   0.527   3.537 -1.1043 -2.8046 -1.9379
  805SOL     OW 2562   1.777   0.731   0.457  0.0719  0.0266 -0.4443
  805SOL    HW1 2563   1.685   0.728   0.434  0.1907  0.1247 -0.9321
  805SOL    HW2 2564   1.786   0.810   0.510 -0.2216 -0.2628  0.0442
  806SOL     OW 2565   0.003   0.792   1.217 -0.6953  0.5876  0.0848
  806SOL    HW1 2566   0.094   0.810   1.239 -0.2478 -1.5760  0.2141
  806SOL    HW2 2567   0.001   0.792   1.121 -1.1285  2.9608  0.0223
  807SOL     OW 2568   1.722   1.306   1.452 -0.2480 -0.4183 -0.3526
  807SOL    HW1 2569   1.675   1.364   1.392 -0.0619 -1.7483 -1.8589
  807SOL    HW2 2570   1.793   1.270   1.399  1.4081  0.1658  1.3727
  808SOL     OW 2571   1.165   2.363   2.293  0.0952 -0.8296 -0.2415
  808SOL    HW1 2572   1.093   2.384   2.233 -0.2197  0.6121  0.5810
  808SOL    HW2 2573   1.244   2.391   2.246 -0.0759 -0.4377 -0.2979
  809SOL     OW 2574   2.981   3.023   3.027  0.2651  0.4749  0.1349
  809SOL    HW1 2575   2.899   2.988   2.993  1.0981 -1.9354  0.4425
  809SOL    HW2 2576   3.018   3.073   2.955 -1.9001  2.5306  0.3180
  810SOL     OW 2577   0.650   2.299   1.296  0.5578 -0.6780  0.2688
  810SOL    HW1 2578   0.716   2.264   1.236 -0.2233 -0.4840 -0.7148
  810SOL    HW2 2579   0.660   2.394   1.289  0.9415 -0.6558  0.9988
  811SOL     OW 2580   2.027   3.225   1.567 -0.1729  0.0956 -0.3255
  811SOL    HW1 2581   1.943   3.253   1.603 -0.3907 -1.1868  0.2069
  811SOL    HW2 2582   2.018   3.131   1.554  1.6518 -0.3283  1.0761
  812SOL     OW 2583   2.165   1.834   3.642  0.0802  0.1979  0.3475
  812SOL    HW1 2584   2.086   1.823   3.589  0.2147 -0.1857  0.2181
  812SOL    HW2 2585   2.147   1.910   3.696 -0.5823 -0.1863  0.6859
  813SOL     OW 2586   1.638   3.633   1.691  0.3620  0.7096 -0.6271
  813SOL    HW1 2587   1.697   3.605   1.621 -2.5549  2.1628 -3.9538
  813SOL    HW2 2588   1.666   3.723   1.712  0.7917  0.5224 -0.3672
  814SOL     OW 2589   1.603   1.177   2.511 -0.1058 -0.0237  0.1767
  814SOL    HW1 2590   1.528   1.161   2.454  1.0230 -0.0220 -1.3586
  814SOL    HW2 2591   1.612   1.272   2.513 -0.8347  0.0474  1.3383
  815SOL     OW 2592   3.434   1.844   1.496  0.1530  0.3109 -0.1847
  815SOL    HW1 2593   3.412   1.812   1.408  0.2957  0.6335 -0.3382
  815SOL    HW2 2594   3.357   1.825   1.548  0.2137 -0.2449 -0.2837
  816SOL     OW 2595   0.888   2.718   3.639  0.1534 -0.1616  0.0513
  816SOL    HW1 2596   0.832   2.794   3.654  0.4014  0.0339  0.0050
  816SOL    HW2 2597   0.827   2.646   3.621 -0.0570  0.3881 -1.5857
  817SOL     OW 2598   1.637   0.443   1.721 -0.1573 -0.0624  0.2303
  817SOL    HW1 2599   1.670   0.508   1.660 -1.0149  1.0580  0.9254
  817SOL    HW2 2600   1.616   0.492   1.800  0.1376 -1.3467  1.1553
  818SOL     OW 2601   0.957   0.005   1.446  0.1244  0.0953 -0.5034
  818SOL    HW1 2602   0.877   0.017   1.498 -0.0470 -0.1284 -0.7172
  818SOL    HW2 2603   1.028   0.017   1.509 -0.0816 -2.2227  0.2437
  819SOL     OW 2604   2.342   1.325   2.472  0.2761  0.4601 -0.1453
  819SOL    HW1 2605   2.397   1.247   2.473  0.5031  0.5630 -1.8314
  819SOL    HW2 2606   2.372   1.375   2.396 -0.6581  1.6091  0.2089
  820SOL     OW 2607   3.536   0.407   0.406 -0.0109 -0.0040  0.3371
  820SOL    HW1 2608   3.518   0.320   0.370  2.3836 -0.4643  0.0802
  820SOL    HW2 2609   3.611   0.438   0.356 -1.0732  2.4510  0.1078
  821SOL     OW 2610   0.291   1.003   2.035  0.9081  0.3790 -0.0545
  821SOL    HW1 2611   0.375   1.047   2.033  2.0331 -1.6323  0.0445
  821SOL    HW2 2612   0.313   0.910   2.046 -1.3744 -0.0325  1.9881
  822SOL     OW 2613   1.510   3.661   0.940  0.3813  0.2953  0.3270
  822SOL    HW1 2614   1.559   3.714   0.878  1.0085  1.2240  1.5680
  822SOL    HW2 2615   1.419   3.669   0.912  0.8770 -1.9976 -2.4209
  823SOL     OW 2616   3.556   1.861   2.168  0.3675  0.6894  0.6242
  823SOL    HW1 2617   3.645   1.885   2.141  0.1528  0.2483 -0.5082
  823SOL    HW2 2618   3.566   1.773   2.205  0.4445  0.7581  0.7689
  824SOL     OW 2619   0.384   0.182   2.187  0.3045 -0.3804  0.3679
  824SOL    HW1 2620   0.369   0.268   2.226  0.4076  0.1609 -0.7512
  824SOL    HW2 2621   0.346   0.121   2.250 -0.0534  0.4939  1.0320
  825SOL     OW 2622   1.139   2.078   1.577 -0.4014  0.3088  0.2738
  825SOL    HW1 2623   1.127   2.091   1.483 -1.7700 -1.1402  0.1876
  825SOL    HW2 2624   1.163   2.164   1.612  1.2155  0.6361 -1.5411
  826SOL     OW 2625   2.877   1.197   0.095  0.5459  0.1082 -0.4190
  826SOL    HW1 2626   2.804   1.220   0.038  0.2887 -0.4011 -0.3019
  826SOL    HW2 2627   2.940   1.153   0.037  0.8173  0.6546 -0.5441
  827SOL     OW 2628   0.807   0.684   2.114 -0.2928 -0.6556  0.2874
  827SOL    HW1 2629   0.810   0.605   2.060  1.2758  0.4948 -1.3870
  827SOL    HW2 2630   0.715   0.691   2.140 -0.7280 -2.2599 -0.6769
  828SOL     OW 2631   0.074   0.063  -0.002  0.2503  0.0546 -0.2084
  828SOL    HW1 2632  -0.006   0.101   0.034  0.1648  0.6563 -1.0219
  828SOL    HW2 2633   0.133   0.056   0.073 -0.2583  0.4051  0.2293
  829SOL     OW 2634   1.151   0.821   0.110 -0.3268 -0.0953  0.6229
  829SOL    HW1 2635   1.057   0.800   0.116 -0.8899  1.8485 -0.5362
  829SOL    HW2 2636   1.184   0.803   0.198 -2.2038  0.8522  1.6075
  830SOL     OW 2637   3.485   2.085   2.679  0.0353  0.6996  0.8895
  830SOL    HW1 2638   3.463   2.035   2.600 -0.3790  0.6749  1.0168
  830SOL    HW2 2639   3.577   2.108   2.668  0.5158 -0.9192  1.2763
  831SOL     OW 2640   1.985   2.746   2.346 -0.5480  0.6573 -0.2668
  831SOL    HW1 2641   1.950   2.712   2.264 -0.1392  2.9012 -1.4321
  831SOL    HW2 2642   1.957   2.837   2.349 -0.5579  0.6543  2.1257
  832SOL     OW 2643   3.304   0.147   3.712 -0.2687 -0.0903 -0.2134
  832SOL    HW1 2644   3.295   0.221   3.653  0.4710 -1.0834 -1.6532
  832SOL    HW2 2645   3.293   0.070   3.655 -0.8035 -1.0876  1.1841
  833SOL     OW 2646   2.851   3.243   1.869 -0.2776  0.3582 -0.2046
  833SOL    HW1 2647   2.797   3.181   1.820  1.1340 -0.8002 -0.3602
  833SOL    HW2 2648   2.854   3.208   1.958  1.0623 -0.1804 -0.4471
  834SOL     OW 2649   0.936   0.605   3.116 -0.6362 -0.2412  0.1583
  834SOL    HW1 2650   1.003   0.602   3.185 -0.8146  1.2004  0.4473
  834SOL    HW2 2651   0.954   0.530   3.060  0.2810 -0.7356  1.0906
  835SOL     OW 2652   0.763   1.507   3.107 -0.1956 -0.2969 -0.5747
  835SOL    HW1 2653   0.725   1.434   3.157 -0.9185  0.7088  0.4015
  835SOL    HW2 2654   0.842   1.530   3.157  0.9468 -1.4209 -1.7798
  836SOL     OW 2655   0.538   2.765   3.624 -0.4478  0.5999  0.1556
  836SOL    HW1 2656   0.442   2.767   3.623 -0.4632  0.3255  0.8988
  836SOL    HW2 2657   0.561   2.726   3.708  0.2942 -0.9051 -0.6941
  837SOL     OW 2658   1.551   2.584   0.534 -0.1415 -0.4729  1.2710
  837SOL    HW1 2659   1.493   2.637   0.479 -0.4084 -0.6073  1.4202
  837SOL    HW2 2660   1.638   2.618   0.517 -0.2491 -0.3653  0.9315
  838SOL     OW 2661   1.784   1.386   0.763 -0.0760  0.3776 -0.0911
  838SOL    HW1 2662   1.829   1.465   0.793  0.7464 -1.0987  3.0224
  838SOL    HW2 2663   1.851   1.318   0.765 -1.2150 -0.8098 -0.7080
  839SOL     OW 2664   0.232   3.719   0.192 -0.0410  0.3491 -0.0485
  839SOL    HW1 2665   0.305   3.711   0.253 -1.6937 -0.5174  1.9712
  839SOL    HW2 2666   0.240   3.643   0.134  0.2330 -0.1871  0.6759
  840SOL     OW 2667   0.194   2.362   3.287  0.2219 -0.3106 -0.1545
  840SOL    HW1 2668   0.159   2.409   3.363 -0.4797  2.0705 -1.8189
  840SOL    HW2 2669   0.285   2.392   3.282 -0.2209  0.9269 -1.2093
  841SOL     OW 2670   0.625   3.578   2.715  0.4210  0.3060  0.1256
  841SOL    HW1 2671   0.550   3.520   2.721 -3.4167  4.7648  1.0736
  841SOL    HW2 2672   0.658   3.586   2.804 -0.3135  0.9628  0.3490
  842SOL     OW 2673   2.292   0.675   1.935  0.8655  0.1389 -0.2553
  842SOL    HW1 2674   2.198   0.694   1.928  0.5752 -1.3141 -0.7031
  842SOL    HW2 2675   2.334   0.759   1.915 -0.3185  1.1686  1.2783
  843SOL     OW 2676   1.504   0.945   0.242 -0.8411 -0.2398  0.6638
  843SOL    HW1 2677   1.594   0.912   0.236 -0.3961  0.8297  1.0879
  843SOL    HW2 2678   1.490   0.991   0.160 -0.3484  1.0811  1.2823
  844SOL     OW 2679   0.786   1.524   2.562 -0.3084  0.3013 -0.4296
  844SOL    HW1 2680   0.732   1.596   2.529  2.1863  2.4886 -0.0939
  844SOL    HW2 2681   0.834   1.493   2.484  0.0612  0.3529 -0.2250
  845SOL     OW 2682   2.500   2.704   1.527 -0.3381 -0.2545 -0.1833
  845SOL    HW1 2683   2.534   2.648   1.596 -0.2773  0.9655  0.8214
  845SOL    HW2 2684   2.523   2.659   1.446  1.2175 -0.8341  0.5291
  846SOL     OW 2685   2.027   2.903   1.013 -0.4163  0.3973  0.0318
  846SOL    HW1 2686   2.065   2.816   1.011  0.4561  0.7280  1.2100
  846SOL    HW2 2687   1.992   2.916   0.925 -0.4350 -1.0775 -0.1899
  847SOL     OW 2688   0.270   1.100   1.452  0.2242 -0.1904 -0.1312
  847SOL    HW1 2689   0.203   1.168   1.460 -1.3167 -1.6147 -0.4767
  847SOL    HW2 2690   0.226   1.019   1.478  1.1678 -1.5256 -2.3897
  848SOL     OW 2691   2.801   3.381   1.629  0.7925  0.2314 -0.0376
  848SOL    HW1 2692   2.832   3.387   1.719  0.1923  2.0639  0.0764
  848SOL    HW2 2693   2.859   3.315   1.589  0.4017 -1.4042  1.9070
  849SOL     OW 2694   1.970   2.349   0.828 -0.7598 -0.4785  0.1906
  849SOL    HW1 2695   1.982   2.402   0.749 -2.3373 -1.8508 -1.0620
  849SOL    HW2 2696   1.880   2.365   0.854 -0.4948 -0.6587  1.2699
  850SOL     OW 2697   1.263   2.800   2.425  0.8799 -0.2738  0.0668
  850SOL    HW1 2698   1.355   2.813   2.444  1.1080 -1.6471 -0.0059
  850SOL    HW2 2699   1.229   2.754   2.502  0.0562  0.9283  0.4535
  851SOL     OW 2700   1.005   3.112   1.507 -0.0729 -0.4995  0.4152
  851SOL    HW1 2701   1.006   3.088   1.414 -0.1649  1.1732 -0.0454
  851SOL    HW2 2702   1.090   3.155   1.521 -0.4203  0.0546  0.8666
  852SOL     OW 2703   2.180   3.465   0.812  0.0780  0.2427  0.1425
  852SOL    HW1 2704   2.156   3.388   0.864  0.3279 -0.4013 -0.6768
  852SOL    HW2 2705   2.162   3.539   0.870  1.2805 -0.4884  1.5318
  853SOL     OW 2706   1.823   2.888   2.606 -0.3624  0.5128  0.2084
  853SOL    HW1 2707   1.740   2.926   2.635  0.0945  2.4215 -0.8290
  853SOL    HW2 2708   1.849   2.941   2.530  1.2366 -0.7756 -0.2070
  854SOL     OW 2709   0.670   0.090   2.599  0.6072 -0.0438  0.6945
  854SOL    HW1 2710   0.652   0.011   2.650 -0.2117 -0.7951 -0.7170
  854SOL    HW2 2711   0.616   0.081   2.520  2.1478  0.8881 -0.5126
  855SOL     OW 2712   3.467   3.732   2.993  0.1050 -0.5347  0.5813
  855SOL    HW1 2713   3.420   3.655   3.023 -2.2804  0.4776 -0.2984
  855SOL    HW2 2714   3.550   3.731   3.041 -0.4934 -2.8189  1.6531
  856SOL     OW 2715   2.594   2.192   0.905  0.2376 -0.1613  0.1986
  856SOL    HW1 2716   2.576   2.183   0.811 -4.0940 -1.4837  0.9041
  856SOL    HW2 2717   2.606   2.286   0.918 -0.3711  0.1991 -1.5310
  857SOL     OW 2718   0.695   2.905   1.423  0.1561 -0.3633  0.2964
  857SOL    HW1 2719   0.646   2.823   1.432 -0.2958 -0.1681 -0.3311
  857SOL    HW2 2720   0.729   2.903   1.334 -0.3631  0.4032  0.0687
  858SOL     OW 2721   3.288   0.431   1.360 -0.2456 -0.0759  0.4339
  858SOL    HW1 2722   3.254   0.496   1.299 -0.7572  0.0828  0.8723
  858SOL    HW2 2723   3.383   0.437   1.352 -0.2798  0.8492  0.5878
  859SOL     OW 2724   2.119   1.142   0.005 -0.4217  0.0557 -0.5743
  859SOL    HW1 2725   2.051   1.137   0.072 -0.5596 -1.1806 -0.7852
  859SOL    HW2 2726   2.101   1.068  -0.053  0.5191  0.2931 -1.1887
  860SOL     OW 2727   2.716   3.364   3.371 -0.1808 -0.3351 -0.0507
  860SOL    HW1 2728   2.756   3.312   3.441 -2.0088 -0.4410  0.9771
  860SOL    HW2 2729   2.764   3.339   3.292  1.1032 -1.1548  0.9471
  861SOL     OW 2730   1.316   3.568   3.319  0.4191 -0.6056  0.0271
  861SOL    HW1 2731   1.318   3.611   3.405 -0.6970 -0.1816 -0.1442
  861SOL    HW2 2732   1.407   3.572   3.289  0.3421  1.8672 -0.0716
  862SOL     OW 2733   2.844   0.937   1.939  0.7425  0.8076 -0.2545
  862SOL    HW1 2734   2.839   1.032   1.927  0.0924  0.9169  0.7648
  862SOL    HW2 2735   2.753   0.908   1.948  0.8502 -0.0899 -1.6685
  863SOL     OW 2736   3.185   2.524   3.628 -0.5979 -0.1832 -0.5271
  863SOL    HW1 2737   3.247   2.476   3.574 -0.4580 -0.5943 -0.0100
  863SOL    HW2 2738   3.239   2.566   3.695 -0.8830 -0.6223 -0.0169
  864SOL     OW 2739   0.570   1.195   3.451 -0.0384  0.4538  0.2556
  864SOL    HW1 2740   0.535   1.162   3.368  1.5370 -0.0778 -0.2330
  864SOL    HW2 2741   0.524   1.145   3.518  0.7033 -1.1953 -0.4028
  865SOL     OW 2742   2.363   2.714   1.116  0.3206  0.0740  0.4189
  865SOL    HW1 2743   2.357   2.782   1.183 -1.2931 -1.5277  2.0365
  865SOL    HW2 2744   2.310   2.748   1.044  1.4655  1.5027  0.1997
  866SOL     OW 2745   1.941   1.834   1.271 -0.6030 -0.3876 -0.1152
  866SOL    HW1 2746   1.929   1.764   1.336 -0.5753  0.8429  1.2759
  866SOL    HW2 2747   1.923   1.915   1.320 -2.4733  0.5121 -2.0994
  867SOL     OW 2748   3.220   0.348   0.262 -0.3365 -0.6416  0.6418
  867SOL    HW1 2749   3.254   0.372   0.348  0.8942 -0.2107  0.0537
  867SOL    HW2 2750   3.248   0.257   0.250  1.5409 -0.0019 -0.2395
  868SOL     OW 2751   3.515   2.486   3.132 -0.5082 -0.0819  0.7362
  868SOL    HW1 2752   3.556   2.407   3.097 -1.7134 -1.0892  1.5326
  868SOL    HW2 2753   3.434   2.456   3.172 -2.0113  1.8308 -0.6906
  869SOL     OW 2754   1.777   2.838   1.893 -0.1512 -0.2122 -0.0244
  869SOL    HW1 2755   1.810   2.818   1.806 -1.0860 -2.0714  0.0033
  869SOL    HW2 2756   1.695   2.886   1.878  0.0179  0.0385 -0.1490
  870SOL     OW 2757   0.501   3.255   2.333  0.3026  0.2089  0.6024
  870SOL    HW1 2758   0.594   3.268   2.349  0.2431  0.3880  0.8112
  870SOL    HW2 2759   0.488   3.161   2.341  0.4739  0.1769  0.5190
  871SOL     OW 2760   0.077   2.402   1.745  0.9190 -0.1266  0.2630
  871SOL    HW1 2761   0.029   2.482   1.725  0.6567 -0.7188 -1.6143
  871SOL    HW2 2762   0.084   2.356   1.662  0.5032 -2.3874  1.4035
  872SOL     OW 2763   3.190   2.954   1.798 -0.2303 -0.0782 -0.6549
  872SOL    HW1 2764   3.116   2.961   1.738 -2.7521  2.8264  2.3997
  872SOL    HW2 2765   3.265   2.985   1.747 -1.5249 -0.7736 -3.1612
  873SOL     OW 2766   1.995   1.502   3.478 -0.1524 -0.3183  0.1204
  873SOL    HW1 2767   1.976   1.596   3.476  1.2790 -0.0273 -0.7188
  873SOL    HW2 2768   1.919   1.461   3.436 -0.7148  0.4606  0.3601
  874SOL     OW 2769   3.057   1.088   2.651 -0.6485 -0.1147 -0.3255
  874SOL    HW1 2770   3.053   0.998   2.619 -0.9593  0.1379 -1.0166
  874SOL    HW2 2771   3.150   1.111   2.648 -0.2599 -1.1501  1.9850
  875SOL     OW 2772   2.287   0.389   1.762 -0.2998  0.5931  0.3379
  875SOL    HW1 2773   2.356   0.443   1.723  1.0886 -1.2930  0.0415
  875SOL    HW2 2774   2.275   0.424   1.850  0.4749  1.4652  0.1086
  876SOL     OW 2775   3.030   2.021   0.151 -0.5882 -0.1821  0.5408
  876SOL    HW1 2776   3.006   1.979   0.233  1.1124  0.6274  1.5189
  876SOL    HW2 2777   3.097   1.964   0.113  1.2124  1.1685  1.5227
  877SOL     OW 2778   0.464   2.014   3.394  0.2164  0.1417 -0.9457
  877SOL    HW1 2779   0.376   2.027   3.428  0.0226  1.3191 -1.8284
  877SOL    HW2 2780   0.514   2.089   3.426  0.5777  0.1241 -1.4490
  878SOL     OW 2781   1.772   0.942   0.634 -0.0948  0.4760 -0.0487
  878SOL    HW1 2782   1.754   1.021   0.685  0.2479  0.7772 -0.3867
  878SOL    HW2 2783   1.728   0.872   0.682 -2.5852  1.2194 -1.0585
  879SOL     OW 2784   1.808   0.736   3.230  0.3904 -0.2520  0.4556
  879SOL    HW1 2785   1.765   0.768   3.151 -0.9497  0.1145  1.2980
  879SOL    HW2 2786   1.744   0.677   3.270  0.9179 -0.1875  1.4253
  880SOL     OW 2787   1.927   3.115   2.452  0.5233  0.0703 -0.0292
  880SOL    HW1 2788   1.998   3.151   2.399  1.4049  0.5575  1.4098
  880SOL    HW2 2789   1.903   3.186   2.512 -1.6152  0.1217 -0.8720
  881SOL     OW 2790   0.463   0.150   0.992  0.4627  0.2381  0.1488
  881SOL    HW1 2791   0.437   0.241   1.007 -0.7706 -0.1580  0.5247
  881SOL    HW2 2792   0.445   0.105   1.074 -0.9873 -0.7829 -0.6812
  882SOL     OW 2793   2.203   0.194   0.069  0.0997 -0.2161 -0.5325
  882SOL    HW1 2794   2.239   0.124   0.014  0.3468 -0.3501 -0.2031
  882SOL    HW2 2795   2.198   0.156   0.157  1.0165  0.4446 -0.1833
  883SOL     OW 2796   0.530   0.993   0.641  0.3182 -0.6321  0.5836
  883SOL    HW1 2797   0.616   0.965   0.610  0.1955  0.5088 -0.8792
  883SOL    HW2 2798   0.508   1.068   0.586 -0.7526  0.3327  2.2496
  884SOL     OW 2799   3.005   1.603   0.087  0.2029 -0.0878  0.6437
  884SOL    HW1 2800   3.094   1.638   0.087  0.3552 -0.4148 -0.6874
  884SOL    HW2 2801   2.955   1.664   0.141  1.3084 -0.1378  1.7657
  885SOL     OW 2802   3.028   2.975   0.552 -0.0526  0.0394 -0.1168
  885SOL    HW1 2803   3.075   3.027   0.486  0.5400 -0.9683 -0.5143
  885SOL    HW2 2804   3.051   2.884   0.531  0.1654 -0.2965  1.4929
  886SOL     OW 2805   0.346   1.459   0.411 -0.7674 -0.1229 -0.0478
  886SOL    HW1 2806   0.302   1.375   0.424 -1.5025  0.5035  1.8464
  886SOL    HW2 2807   0.275   1.521   0.397 -0.2263  0.2187 -1.4837
  887SOL     OW 2808   3.675   1.584   0.301  0.2701  0.6442 -0.1569
  887SOL    HW1 2809   3.606   1.542   0.353 -0.0428  3.8517  2.3056
  887SOL    HW2 2810   3.745   1.520   0.298 -1.2040 -1.1154  0.9131
  888SOL     OW 2811   1.258   3.483   1.052  0.2431  0.1202 -0.0221
  888SOL    HW1 2812   1.197   3.545   1.093  0.4612 -0.5769  1.4089
  888SOL    HW2 2813   1.268   3.515   0.962 -1.2851  0.9387  0.0720
  889SOL     OW 2814   1.610   3.331   3.671 -0.3376  0.1707 -0.5589
  889SOL    HW1 2815   1.525   3.318   3.630 -0.3705  0.7098 -0.6676
  889SOL    HW2 2816   1.643   3.412   3.633 -0.5208  0.8808  0.7199
  890SOL     OW 2817   3.113   0.965   1.839 -0.3520  0.6601 -0.0503
  890SOL    HW1 2818   3.125   0.924   1.753  0.4314  1.6782 -0.4474
  890SOL    HW2 2819   3.019   0.959   1.855 -0.4675  0.1810 -0.8391
  891SOL     OW 2820   1.619   3.549   0.577 -0.2040  0.3466  0.5182
  891SOL    HW1 2821   1.632   3.640   0.550  0.5246  0.4643  1.2249
  891SOL    HW2 2822   1.706   3.519   0.603 -0.1344 -1.0516 -1.1479
  892SOL     OW 2823   3.028   3.456   3.367 -0.3015  0.1655  0.5150
  892SOL    HW1 2824   3.121   3.478   3.380 -0.5929  0.4456  2.2875
  892SOL    HW2 2825   3.014   3.377   3.420 -0.9199 -0.3134 -0.3356
  893SOL     OW 2826  -0.024   1.364   2.978  0.1416  0.0617  0.4308
  893SOL    HW1 2827  -0.039   1.369   2.884  1.1976  0.4355  0.2675
  893SOL    HW2 2828   0.068   1.388   2.989  0.3334 -1.0499  1.4575
  894SOL     OW 2829   0.566   0.108   1.243  0.0462  0.5523  0.3480
  894SOL    HW1 2830   0.619   0.175   1.286 -0.3913 -0.1546  2.0854
  894SOL    HW2 2831   0.568   0.033   1.303  0.2374 -0.8856 -1.3686
  895SOL     OW 2832   3.500   1.974   3.232 -0.2126  0.3314  0.1806
  895SOL    HW1 2833   3.490   1.882   3.258 -2.3633  0.8373  1.4327
  895SOL    HW2 2834   3.493   1.973   3.137 -1.1608 -0.7299  0.2374
  896SOL     OW 2835   1.698   1.065   3.233 -0.3984 -0.4193 -0.1878
  896SOL    HW1 2836   1.730   1.073   3.323  0.7767 -0.3925 -0.5938
  896SOL    HW2 2837   1.627   1.128   3.227  0.6280  0.8293  0.2398
  897SOL     OW 2838   3.544   2.670   2.456  0.3190  0.5672  0.0530
  897SOL    HW1 2839   3.575   2.580   2.459  1.8298  1.0769  0.6333
  897SOL    HW2 2840   3.525   2.692   2.547  3.7417  2.0263  0.5542
  898SOL     OW 2841   0.620   3.440   0.071  0.7304 -0.0056  0.1648
  898SOL    HW1 2842   0.710   3.406   0.071  0.5227 -0.5780 -0.7390
  898SOL    HW2 2843   0.632   3.535   0.070  1.3475 -0.0756 -0.6222
  899SOL     OW 2844   3.440   0.505   3.033  0.0767  0.3516  0.2470
  899SOL    HW1 2845   3.423   0.478   3.123 -1.2820 -1.0421 -0.3791
  899SOL    HW2 2846   3.356   0.494   2.989  0.8595  0.4315 -1.3213
  900SOL     OW 2847   2.789   2.443   0.539 -0.3379  0.6368  0.3165
  900SOL    HW1 2848   2.766   2.454   0.446  0.0516 -1.6542 -0.1166
  900SOL    HW2 2849   2.872   2.396   0.538 -1.4303 -1.5156  1.7466
  901SOL     OW 2850   0.309   3.209   1.728 -0.4547 -0.6448 -0.4866
  901SOL    HW1 2851   0.402   3.207   1.749 -0.0546 -0.5773 -2.1562
  901SOL    HW2 2852   0.304   3.183   1.636 -1.9732  0.5118 -0.7732
  902SOL     OW 2853   3.628   3.214   3.562 -0.0136 -0.3352 -0.0976
  902SOL    HW1 2854   3.715   3.254   3.567  0.7880 -2.1708  2.6309
  902SOL    HW2 2855   3.626   3.174   3.475  1.9201 -0.3447 -0.1866
  903SOL     OW 2856   3.639   0.565   2.802 -0.5518  0.7068 -0.2060
  903SOL    HW1 2857   3.566   0.598   2.855 -1.4724  0.2276 -1.1357
  903SOL    HW2 2858   3.641   0.471   2.821  0.4431  0.8624  0.5244
  904SOL     OW 2859   3.611   2.358   2.193  0.1216 -0.0994 -0.6930
  904SOL    HW1 2860   3.622   2.282   2.137  0.6472 -0.7845  0.3109
  904SOL    HW2 2861   3.699   2.378   2.225  0.3266  2.0674 -2.3354
  905SOL     OW 2862   2.711   1.802   1.941 -0.1173  0.3002 -0.1120
  905SOL    HW1 2863   2.742   1.826   2.028 -0.7622 -1.3261  0.6070
  905SOL    HW2 2864   2.660   1.722   1.954 -2.1325  1.2221 -1.6552
  906SOL     OW 2865   3.603   3.245   1.071  1.0816 -0.1203 -0.0791
  906SOL    HW1 2866   3.679   3.186   1.071  2.3234  1.2366 -3.3286
  906SOL    HW2 2867   3.641   3.333   1.064 -0.7151  0.6091 -1.7375
  907SOL     OW 2868   0.703   2.602   0.723 -0.6017  0.3763  0.1409
  907SOL    HW1 2869   0.654   2.680   0.699  0.5759  0.9255 -0.5452
  907SOL    HW2 2870   0.639   2.531   0.718 -1.1932  0.9811 -1.2985
  908SOL     OW 2871   2.104   1.836   2.438 -0.4483 -0.0440  1.0363
  908SOL    HW1 2872   2.018   1.837   2.395 -1.0959 -0.6596  2.2614
  908SOL    HW2 2873   2.139   1.924   2.422 -0.5569 -0.3054 -0.8907
  909SOL     OW 2874   2.398   2.787   3.527  0.4196 -0.1025 -0.7015
  909SOL    HW1 2875   2.459   2.837   3.580 -0.5568 -2.3144  2.8236
  909SOL    HW2 2876   2.449   2.712   3.495 -0.0799 -1.4576  1.4791
  910SOL     OW 2877   0.592   2.040   1.521  0.0987  0.2263  0.2164
  910SOL    HW1 2878   0.629   2.121   1.556 -2.1851  1.7483 -0.6621
  910SOL    HW2 2879   0.521   2.069   1.464 -2.3555 -2.4206  1.6554
  911SOL     OW 2880   3.277   1.207   1.762  0.5048  0.2016  1.5431
  911SOL    HW1 2881   3.238   1.293   1.775  1.2578  0.8425 -0.1484
  911SOL    HW2 2882   3.208   1.145   1.787 -1.4231  1.2770 -0.6714
  912SOL     OW 2883   1.549   0.702   2.199  0.2773  0.3419 -0.5206
  912SOL    HW1 2884   1.560   0.631   2.137  0.1088  0.4268 -0.6498
  912SOL    HW2 2885   1.493   0.765   2.153 -1.6243 -0.5342  0.4760
  913SOL     OW 2886   1.384   1.192   1.848 -0.1326 -0.3200 -0.0708
  913SOL    HW1 2887   1.405   1.281   1.877 -0.0387  0.0056 -1.1046
  913SOL    HW2 2888   1.454   1.170   1.787  0.9047 -1.8393  1.5701
  914SOL     OW 2889   1.860   2.615   0.289 -0.5670 -0.5318 -0.2291
  914SOL    HW1 2890   1.899   2.533   0.318  0.1272 -0.6558 -1.4083
  914SOL    HW2 2891   1.854   2.668   0.368 -0.5630 -1.5365  0.4612
  915SOL     OW 2892   0.122   3.615   2.701 -0.9244  0.4166  0.1695
  915SOL    HW1 2893   0.067   3.655   2.634  0.1032 -1.1397 -1.7012
  915SOL    HW2 2894   0.066   3.613   2.780 -2.8603  0.5882 -1.1320
  916SOL     OW 2895   1.693   2.368   0.846  0.5734  0.2404 -0.6899
  916SOL    HW1 2896   1.710   2.359   0.940  2.6516 -0.4977 -1.0969
  916SOL    HW2 2897   1.602   2.339   0.836 -0.3592  2.1153  1.3009
  917SOL     OW 2898   2.239   2.903   1.320  0.1817 -0.0823  0.1969
  917SOL    HW1 2899   2.259   2.990   1.355  0.0652  0.3081 -0.6840
  917SOL    HW2 2900   2.153   2.881   1.357  0.1638  0.2205  0.3354
  918SOL     OW 2901   0.552   3.351   0.719 -0.3744  0.0385 -0.1720
  918SOL    HW1 2902   0.526   3.338   0.810  0.7848  0.2677  0.2137
  918SOL    HW2 2903   0.508   3.281   0.670  0.1629 -0.9994  0.7916
  919SOL     OW 2904   1.899   2.209   2.628 -0.4883  0.3664 -0.3673
  919SOL    HW1 2905   1.844   2.233   2.553  1.0846  0.0770 -1.6705
  919SOL    HW2 2906   1.978   2.261   2.617  1.0776 -1.9491 -0.6926
  920SOL     OW 2907   0.145   3.134   1.141 -0.1091  0.1869  0.1990
  920SOL    HW1 2908   0.133   3.196   1.212 -0.5934  1.7863 -1.2118
  920SOL    HW2 2909   0.240   3.128   1.129 -0.0628  0.9961  0.0950
  921SOL     OW 2910   3.624   2.611   3.444  0.3071 -0.0666 -0.6492
  921SOL    HW1 2911   3.703   2.664   3.438  0.2405  0.4349  1.8307
  921SOL    HW2 2912   3.655   2.521   3.445  0.8689  0.1227  0.1166
  922SOL     OW 2913   3.197   1.683   3.212  0.0127 -0.4867 -0.8340
  922SOL    HW1 2914   3.231   1.595   3.194  1.8043 -0.2896  1.1906
  922SOL    HW2 2915   3.168   1.679   3.303  1.3204  1.3266 -0.2764
  923SOL     OW 2916   3.628   1.094   2.898 -0.4279  0.0351  0.0752
  923SOL    HW1 2917   3.532   1.097   2.905 -0.5442 -1.5369 -0.3158
  923SOL    HW2 2918   3.650   1.159   2.832 -1.2628  0.2000 -0.0466
  924SOL     OW 2919   1.293   1.559   2.877 -0.0178  0.0638  0.1142
  924SOL    HW1 2920   1.345   1.634   2.907 -1.1315  0.5069  0.9947
  924SOL    HW2 2921   1.203   1.588   2.885 -0.5241 -1.6928  1.3419
  925SOL     OW 2922   3.685   0.040   3.337 -0.0373  0.7722 -1.3201
  925SOL    HW1 2923   3.780   0.041   3.330  0.2318  2.6809  1.1709
  925SOL    HW2 2924   3.656   0.109   3.276  0.3070  1.1745 -1.0366
  926SOL     OW 2925   2.885   2.612   1.948 -0.4983 -0.2967 -0.2190
  926SOL    HW1 2926   2.914   2.700   1.971 -1.4906  0.3061 -1.1416
  926SOL    HW2 2927   2.958   2.555   1.971 -0.7911  0.3934  2.8279
  927SOL     OW 2928   2.923   2.318   3.546 -0.0465 -0.3522 -0.2808
  927SOL    HW1 2929   2.964   2.292   3.463  0.9092  1.3938 -0.4106
  927SOL    HW2 2930   2.850   2.374   3.520  1.1573  1.4523  0.0061
  928SOL     OW 2931   0.282   3.480   1.818  0.2817 -0.1861 -0.2050
  928SOL    HW1 2932   0.268   3.480   1.913  3.6018 -0.8365  0.4092
  928SOL    HW2 2933   0.287   3.387   1.795  0.6232 -0.0192 -0.8092
  929SOL     OW 2934   2.749   3.519   1.017  0.0440 -0.4955  0.0406
  929SOL    HW1 2935   2.816   3.573   0.974 -1.1213  2.0883  1.2093
  929SOL    HW2 2936   2.667   3.566   1.001 -0.7764 -0.7962  2.8248
  930SOL     OW 2937   2.590   2.038   1.529 -0.2930 -0.1675  0.4712
  930SOL    HW1 2938   2.680   2.070   1.532  0.5338 -2.3122  0.4142
  930SOL    HW2 2939   2.581   1.986   1.609 -1.1853 -0.7087  0.0341
  931SOL     OW 2940   1.293   3.231   1.477  0.0938 -0.3720 -0.2932
  931SOL    HW1 2941   1.283   3.316   1.519  3.0273  1.2202 -2.4331
  931SOL    HW2 2942   1.279   3.248   1.384  0.7736 -2.2151 -0.7897
  932SOL     OW 2943   2.929   0.279   3.644 -0.4972  0.6315  0.2009
  932SOL    HW1 2944   2.955   0.261   3.735 -2.4109  2.2723  1.1722
  932SOL    HW2 2945   2.876   0.203   3.619  0.7174 -0.2125  0.1348
  933SOL     OW 2946   0.916   0.781   2.451  0.3125  0.6198 -0.0989
  933SOL    HW1 2947   0.924   0.688   2.468  0.4455  0.5016 -0.7639
  933SOL    HW2 2948   0.836   0.807   2.496  0.6262  0.3264  0.6344
  934SOL     OW 2949   1.894   0.271   1.618 -0.0463 -0.3876  0.3048
  934SOL    HW1 2950   1.838   0.217   1.674 -2.5845 -0.0075 -1.6603
  934SOL    HW2 2951   1.845   0.279   1.536  0.9568  3.4840 -0.1135
  935SOL     OW 2952   3.451   3.055   1.708 -0.4655  0.4492  1.4364
  935SOL    HW1 2953   3.520   3.018   1.653 -2.1794 -0.9876  0.1124
  935SOL    HW2 2954   3.495   3.077   1.790  1.7937  0.7871  0.2187
  936SOL     OW 2955   2.807   0.509   3.708 -0.1313  0.0744  0.8134
  936SOL    HW1 2956   2.805   0.428   3.656 -0.4360 -0.7085  1.9973
  936SOL    HW2 2957   2.775   0.576   3.649 -0.1732 -0.7322 -0.1094
  937SOL     OW 2958   2.128   3.581   2.404 -0.3860 -0.1513  0.4100
  937SOL    HW1 2959   2.089   3.645   2.464  2.2413  1.2382  0.7830
  937SOL    HW2 2960   2.142   3.629   2.323 -0.6892 -1.0149 -0.1640
  938SOL     OW 2961   2.188   1.133   2.073  0.3257 -0.2354 -0.0228
  938SOL    HW1 2962   2.278   1.164   2.089  0.5632 -0.9937  0.1336
  938SOL    HW2 2963   2.141   1.154   2.154 -0.7279  3.8361 -1.4387
  939SOL     OW 2964   3.182   1.460   2.139  0.5806 -0.2008 -0.2445
  939SOL    HW1 2965   3.238   1.382   2.144 -0.4890 -0.9706 -0.0053
  939SOL    HW2 2966   3.171   1.487   2.230  0.4573 -0.1213 -0.2835
  940SOL     OW 2967   2.040   2.028   0.105  0.3493  0.3398 -0.0047
  940SOL    HW1 2968   1.990   2.079   0.042 -1.5108 -1.8467 -0.4445
  940SOL    HW2 2969   2.014   2.063   0.191  0.2497  1.0964 -0.3424
  941SOL     OW 2970   3.209   1.418   2.514  0.1990 -0.5810  0.6265
  941SOL    HW1 2971   3.163   1.342   2.478 -0.1386  0.4544 -1.2489
  941SOL    HW2 2972   3.271   1.381   2.577 -2.0785 -2.1508  2.1073
  942SOL     OW 2973   0.597   3.477   0.389  0.9250 -0.2562 -0.0381
  942SOL    HW1 2974   0.630   3.400   0.436  1.8248  0.6385  0.8536
  942SOL    HW2 2975   0.511   3.451   0.357  1.4125 -1.7884 -0.1695
  943SOL     OW 2976   0.670   2.253   1.700  0.0548  0.2120 -0.4408
  943SOL    HW1 2977   0.683   2.344   1.726  0.8661  0.1944 -0.7518
  943SOL    HW2 2978   0.737   2.204   1.749 -1.2332 -0.4094  0.7505
  944SOL     OW 2979   3.685   2.956   1.893 -0.0605  0.1512 -0.2476
  944SOL    HW1 2980   3.697   2.947   1.799 -1.2773  1.8504 -0.6025
  944SOL    HW2 2981   3.711   3.046   1.912  0.9033 -0.3984  1.1846
  945SOL     OW 2982   1.653   0.768   0.884  0.2682  0.2692  0.4253
  945SOL    HW1 2983   1.568   0.799   0.914  1.0854  1.9702  1.1439
  945SOL    HW2 2984   1.678   0.701   0.948  0.0881  0.7898  1.0511
  946SOL     OW 2985   1.814   3.506   1.142  0.0834 -0.3730 -0.1559
  946SOL    HW1 2986   1.787   3.423   1.181  0.6988 -1.9297 -2.7775
  946SOL    HW2 2987   1.761   3.513   1.062 -1.4017  2.8157  0.9638
  947SOL     OW 2988   2.096   1.884   0.836  0.0075  0.0077 -0.5642
  947SOL    HW1 2989   2.146   1.834   0.900  1.1644  0.6256 -0.9523
  947SOL    HW2 2990   2.125   1.975   0.849 -0.3148  0.2449 -1.4209
  948SOL     OW 2991   3.126   2.121   3.590 -0.5168 -0.3662 -0.4674
  948SOL    HW1 2992   3.142   2.123   3.496  1.8666  2.4084 -0.1439
  948SOL    HW2 2993   3.069   2.196   3.607 -0.4803 -0.5085  0.3497
  949SOL     OW 2994   0.748   0.899   0.874  0.4804  0.0278 -0.1626
  949SOL    HW1 2995   0.757   0.841   0.950  0.1089 -1.1322 -0.9797
  949SOL    HW2 2996   0.680   0.961   0.900 -0.7609 -1.3083 -0.0894
  950SOL     OW 2997   2.260   1.659   1.976 -0.2199  0.1610 -0.1300
  950SOL    HW1 2998   2.274   1.733   2.035 -3.0259  0.3672  0.4370
  950SOL    HW2 2999   2.204   1.599   2.026 -0.9984 -0.6118 -1.8368
  951SOL     OW 3000   1.088   2.840   0.419 -0.8569 -0.0558 -0.3630
  951SOL    HW1 3001   1.131   2.789   0.351 -0.8850 -0.1264 -0.3280
  951SOL    HW2 3002   1.040   2.775   0.471 -2.5860  0.2240 -1.5444
  952SOL     OW 3003   2.483   1.298   1.193  0.1719  0.2824 -0.4873
  952SOL    HW1 3004   2.447   1.215   1.226 -0.1287  0.5292 -0.1904
  952SOL    HW2 3005   2.483   1.287   1.098 -0.0885  0.0292 -0.4596
  953SOL     OW 3006   2.631   2.625   1.972 -0.0708  0.4093 -0.2131
  953SOL    HW1 3007   2.605   2.612   1.881 -1.0189  1.1066 -0.0542
  953SOL    HW2 3008   2.724   2.604   1.973  0.4323  2.2707 -1.7771
  954SOL     OW 3009   0.232   2.810   1.157  0.1141 -0.2179 -0.1555
  954SOL    HW1 3010   0.202   2.894   1.193 -0.2166 -0.2219 -0.4121
  954SOL    HW2 3011   0.246   2.755   1.233 -1.6832 -0.5937 -0.0519
  955SOL     OW 3012   1.703   3.313   2.267 -0.8787 -0.1910 -0.5089
  955SOL    HW1 3013   1.775   3.362   2.305 -0.7702 -1.7472  1.4471
  955SOL    HW2 3014   1.630   3.327   2.327 -1.4536 -0.7240 -1.0634
  956SOL     OW 3015   1.389   1.868   2.283 -0.2072 -0.1429  0.1738
  956SOL    HW1 3016   1.478   1.890   2.311 -0.1038 -0.2049 -0.0994
  956SOL    HW2 3017   1.401   1.817   2.203 -0.5032  0.2532 -0.1292
  957SOL     OW 3018   2.571   1.404   2.201  0.4898 -0.3117  0.0666
  957SOL    HW1 3019   2.663   1.417   2.224  0.5847 -1.1232  0.1699
  957SOL    HW2 3020   2.547   1.321   2.241 -0.2699 -0.1484 -0.0289
  958SOL     OW 3021   3.248   0.430   2.771 -0.8274  0.4475  0.4341
  958SOL    HW1 3022   3.282   0.411   2.684 -2.1661  1.6756 -0.4072
  958SOL    HW2 3023   3.250   0.346   2.817 -0.3736 -0.2802 -0.8799
  959SOL     OW 3024   2.808   3.083   0.662 -0.0900 -0.5352 -0.3952
  959SOL    HW1 3025   2.886   3.038   0.629  0.5256 -0.8388  1.3463
  959SOL    HW2 3026   2.840   3.166   0.696 -0.2176 -1.2440  1.6215
  960SOL     OW 3027   0.316   2.794   0.507  0.4666  0.7027  0.0267
  960SOL    HW1 3028   0.314   2.698   0.507 -1.3608  0.6307  2.6747
  960SOL    HW2 3029   0.375   2.817   0.435 -0.7804 -2.3339 -2.1865
  961SOL     OW 3030   2.860   0.752   0.791  0.4201 -0.5947 -0.5021
  961SOL    HW1 3031   2.916   0.810   0.740 -1.4765  1.2952 -0.5677
  961SOL    HW2 3032   2.838   0.681   0.731 -0.6804  0.8907 -1.9558
  962SOL     OW 3033   1.834   1.739   2.311  0.2955 -0.7272 -0.1082
  962SOL    HW1 3034   1.797   1.693   2.236 -0.0872 -1.2996  0.4150
  962SOL    HW2 3035   1.821   1.679   2.384 -1.0802  0.5816  0.7853
  963SOL     OW 3036   2.458   2.051   0.012 -0.0947 -0.8145  0.2057
  963SOL    HW1 3037   2.395   2.007   0.068 -1.3664  0.6544  0.0187
  963SOL    HW2 3038   2.412   2.061  -0.072  1.5450 -2.4396 -0.9731
  964SOL     OW 3039   2.590   0.531   0.688 -0.4975  0.0204  0.3586
  964SOL    HW1 3040   2.681   0.523   0.661 -0.8124  1.3571 -1.3102
  964SOL    HW2 3041   2.593   0.560   0.779  0.7618  1.1804 -0.0346
  965SOL     OW 3042   2.698   2.520   2.465 -0.8683  0.4087 -0.0921
  965SOL    HW1 3043   2.675   2.593   2.522 -2.3790 -0.1998  0.1222
  965SOL    HW2 3044   2.750   2.560   2.395  0.3924  1.2731  1.2822
  966SOL     OW 3045   1.226   0.793   0.807  0.6753  0.1070  0.0196
  966SOL    HW1 3046   1.203   0.700   0.811  1.0366  0.0302  0.3554
  966SOL    HW2 3047   1.149   0.835   0.769 -0.5858  0.0212  2.3041
  967SOL     OW 3048   3.149   2.949   2.734 -0.0678  0.2407 -0.0415
  967SOL    HW1 3049   3.111   2.991   2.657  0.8386  0.1239 -0.5774
  967SOL    HW2 3050   3.181   3.022   2.787 -0.1218  0.2993 -0.0897
  968SOL     OW 3051   2.459   3.337   1.421  0.1635 -0.1120 -0.0344
  968SOL    HW1 3052   2.551   3.310   1.425  1.0334  2.5581 -0.2120
  968SOL    HW2 3053   2.410   3.255   1.417  2.5309 -1.6120 -0.0050
  969SOL     OW 3054   3.187   2.889   3.412  0.2267 -0.6270 -0.2137
  969SOL    HW1 3055   3.104   2.849   3.438  0.6457 -2.0949 -1.0072
  969SOL    HW2 3056   3.237   2.817   3.373  0.6594  0.8518 -2.6058
  970SOL     OW 3057   3.380   3.528   1.907  0.5385  0.0287 -0.0927
  970SOL    HW1 3058   3.286   3.526   1.926  0.6618  0.3091  0.5945
  970SOL    HW2 3059   3.387   3.506   1.814 -0.3751  2.6707 -0.8492
  971SOL     OW 3060   0.625   0.675   0.721 -0.3374 -0.1984  0.3004
  971SOL    HW1 3061   0.683   0.615   0.767  0.0920 -0.7968 -0.9667
  971SOL    HW2 3062   0.646   0.762   0.756  0.3665 -0.5713  0.8123
  972SOL     OW 3063   0.650   1.997   3.678 -0.7200  0.1770 -0.5869
  972SOL    HW1 3064   0.572   2.013   3.731 -1.2433 -1.6365 -0.7177
  972SOL    HW2 3065   0.631   1.914   3.634  0.0662  1.1467 -2.9106
  973SOL     OW 3066   1.853   2.396   1.818  1.0256 -0.4041  0.4558
  973SOL    HW1 3067   1.873   2.319   1.872 -2.3346 -1.4835  0.3603
  973SOL    HW2 3068   1.777   2.436   1.860 -1.1793 -0.7394 -2.8839
  974SOL     OW 3069   0.527   0.891   2.893  0.3938 -0.5418  0.1218
  974SOL    HW1 3070   0.581   0.900   2.971  1.4211 -1.3397 -0.4657
  974SOL    HW2 3071   0.439   0.870   2.926  0.2083  1.6383  1.1237
  975SOL     OW 3072   1.591   3.580   3.247 -0.2418 -0.1305  0.7158
  975SOL    HW1 3073   1.685   3.598   3.244 -0.4617  1.4771  1.9019
  975SOL    HW2 3074   1.568   3.554   3.158  0.9737  1.4166 -0.0990
  976SOL     OW 3075   1.013   0.920   0.655 -0.0497 -0.7954  0.1796
  976SOL    HW1 3076   1.049   0.887   0.573  1.3478  1.1460 -0.0361
  976SOL    HW2 3077   0.937   0.864   0.672 -0.5461 -1.0776 -2.5803
  977SOL     OW 3078   1.116   3.062   0.871  0.3530  0.2988 -0.2814
  977SOL    HW1 3079   1.165   3.138   0.901 -2.0912  2.2148 -0.8908
  977SOL    HW2 3080   1.092   3.081   0.781 -0.6187 -1.0411 -0.3461
  978SOL     OW 3081   0.713   0.161   0.332 -0.5921  0.3661  0.2743
  978SOL    HW1 3082   0.715   0.065   0.336 -2.7909  0.2348 -0.3160
  978SOL    HW2 3083   0.755   0.182   0.249  0.1892 -0.0533  0.5510
  979SOL     OW 3084   1.099   3.460   1.519  0.6905 -0.6094  0.1844
  979SOL    HW1 3085   1.118   3.553   1.524 -0.6104 -0.3734  1.5692
  979SOL    HW2 3086   1.057   3.448   1.434 -1.7009  0.6354  1.1044
  980SOL     OW 3087   1.095   2.864   1.614 -0.2713 -0.2483 -0.4948
  980SOL    HW1 3088   1.097   2.769   1.603 -1.5088 -0.2599 -0.7562
  980SOL    HW2 3089   1.022   2.893   1.560 -0.1539  0.8163 -0.1106
  981SOL     OW 3090   0.667   0.655   0.265 -0.1532 -0.2621 -0.3828
  981SOL    HW1 3091   0.644   0.575   0.312 -1.4887 -0.0442 -0.6207
  981SOL    HW2 3092   0.583   0.692   0.239  0.5040  0.4660 -1.5350
  982SOL     OW 3093   1.028   1.528   1.755 -0.3156 -0.2365  0.5831
  982SOL    HW1 3094   1.029   1.623   1.769 -1.0610  0.1738 -1.6283
  982SOL    HW2 3095   0.937   1.502   1.770 -1.1799  0.2452 -2.8973
  983SOL     OW 3096   1.676   0.879   2.476  0.2062 -0.3255  0.2172
  983SOL    HW1 3097   1.597   0.845   2.519 -0.7891  0.7752 -0.6769
  983SOL    HW2 3098   1.712   0.941   2.539 -2.1426  2.5137 -1.0237
  984SOL     OW 3099   0.163   0.793   1.790  0.8495  0.0321 -0.5090
  984SOL    HW1 3100   0.188   0.859   1.855 -0.0850  0.4393 -0.5569
  984SOL    HW2 3101   0.084   0.753   1.826  0.9357 -0.4834 -0.8900
  985SOL     OW 3102   2.101   0.855   0.500  0.1506 -0.1345 -0.0073
  985SOL    HW1 3103   2.099   0.778   0.443  0.7514 -0.2607  0.1311
  985SOL    HW2 3104   2.180   0.902   0.473  0.7426 -0.4722  1.0723
  986SOL     OW 3105   0.792   0.848   1.810  0.4817 -0.7031 -0.4808
  986SOL    HW1 3106   0.845   0.854   1.890 -0.6170 -0.1962  0.2330
  986SOL    HW2 3107   0.728   0.780   1.829  0.9524 -1.4318 -1.4044
  987SOL     OW 3108   2.661   3.183   0.457 -0.4977  0.5178 -0.5915
  987SOL    HW1 3109   2.720   3.153   0.527 -2.7089  1.8189  2.0640
  987SOL    HW2 3110   2.607   3.106   0.437  0.1774  0.1224 -0.9207
  988SOL     OW 3111   0.807   1.580   1.489 -0.8675  0.4554  0.7942
  988SOL    HW1 3112   0.748   1.652   1.512  0.3230  2.0001 -0.7621
  988SOL    HW2 3113   0.894   1.621   1.483 -0.1543 -1.0991 -0.1826
  989SOL     OW 3114   0.709   3.573   3.244  0.8475 -0.3161  0.0085
  989SOL    HW1 3115   0.684   3.558   3.335 -0.8841 -0.1384 -0.4035
  989SOL    HW2 3116   0.797   3.611   3.249  0.1262  1.2727  1.6891
  990SOL     OW 3117   1.458   3.471   2.997 -0.5501 -0.5111 -0.2277
  990SOL    HW1 3118   1.385   3.410   3.005 -0.8306 -0.2405 -0.7093
  990SOL    HW2 3119   1.528   3.419   2.958 -0.7872 -0.5311 -0.6337
  991SOL     OW 3120   2.649   2.854   3.620  0.0229  1.2103 -0.3403
  991SOL    HW1 3121   2.643   2.782   3.683  0.4619  1.0722 -0.4515
  991SOL    HW2 3122   2.743   2.871   3.613 -0.0801  1.9225 -0.1668
  992SOL     OW 3123   2.655   2.254   1.707 -0.1354 -0.7493 -1.3215
  992SOL    HW1 3124   2.571   2.213   1.727 -0.9684  1.1891 -0.5130
  992SOL    HW2 3125   2.719   2.203   1.756 -1.3573 -0.0518  1.2128
  993SOL     OW 3126   2.607   3.723   2.771  0.6307 -0.4079  0.4725
  993SOL    HW1 3127   2.527   3.687   2.734  1.0342 -2.8622  1.7726
  993SOL    HW2 3128   2.677   3.669   2.735  1.3253 -0.7001  2.1640
  994SOL     OW 3129   2.615   2.222   0.615  0.1236 -0.0809 -0.0550
  994SOL    HW1 3130   2.654   2.150   0.565 -1.2229  0.5271 -2.1374
  994SOL    HW2 3131   2.684   2.289   0.618  0.5540 -0.5051 -0.2922
  995SOL     OW 3132   3.061   1.829   0.479 -0.3661 -0.1767 -0.3148
  995SOL    HW1 3133   3.150   1.862   0.492 -0.7337  0.2726  1.2844
  995SOL    HW2 3134   3.048   1.765   0.548 -1.6356  0.5210  0.1309
  996SOL     OW 3135   1.625   0.429   0.990  0.2865 -0.5288  0.5015
  996SOL    HW1 3136   1.720   0.421   0.995  0.6586 -0.0823 -3.0138
  996SOL    HW2 3137   1.593   0.379   1.065  3.2634 -1.9130  1.0162
  997SOL     OW 3138   0.347   2.368   3.533  0.4199  0.1217 -0.2299
  997SOL    HW1 3139   0.269   2.383   3.586 -1.2711 -0.9177 -2.2430
  997SOL    HW2 3140   0.350   2.273   3.522  2.2554  0.1060  0.1586
  998SOL     OW 3141   1.400   0.502   1.313 -0.5084  0.2122 -0.2925
  998SOL    HW1 3142   1.490   0.469   1.309 -0.7274 -0.5751  0.8433
  998SOL    HW2 3143   1.366   0.489   1.225  0.0439 -0.8215 -0.3707
  999SOL     OW 3144   2.291   2.548   3.332 -0.7391  0.0925 -0.5174
  999SOL    HW1 3145   2.356   2.611   3.302  0.0494 -1.0749 -1.3396
  999SOL    HW2 3146   2.268   2.578   3.420  0.3023  1.0014 -0.5298
 1000SOL     OW 3147   0.030   0.628   0.531  0.2505 -0.1776  0.3253
 1000SOL    HW1 3148  -0.048   0.662   0.488  1.7626  2.3727 -0.6416
 1000SOL    HW2 3149   0.061   0.558   0.474 -1.4643 -1.4917  0.9241
 1001SOL     OW 3150   3.662   0.236   1.503  0.4593 -0.0442 -0.2031
 1001SOL    HW1 3151   3.609   0.162   1.532  1.3451 -0.9542 -0.8449
 1001SOL    HW2 3152   3.715   0.259   1.580 -0.7315  0.7976  0.4052
 1002SOL     OW 3153   0.940   0.981   0.285 -0.2178 -0.3732 -0.0354
 1002SOL    HW1 3154   0.938   0.900   0.234  0.8711  0.4249 -1.4094
 1002SOL    HW2 3155   1.025   0.981   0.329 -0.2621 -0.0370  0.0597
 1003SOL     OW 3156   2.596   1.924   3.064  0.6638  0.2147 -0.1739
 1003SOL    HW1 3157   2.673   1.913   3.008  0.9348 -1.1258  0.4182
 1003SOL    HW2 3158   2.631   1.920   3.153  0.1294  1.4457  0.1061
 1004SOL     OW 3159   2.659   3.564   0.618 -0.5622  0.8498 -0.5037
 1004SOL    HW1 3160   2.587   3.519   0.663 -0.2058  0.8207  0.0535
 1004SOL    HW2 3161   2.644   3.546   0.525  0.3481 -1.6897 -0.2543
 1005SOL     OW 3162   2.951   2.229   0.945  0.0497  0.2097  0.3585
 1005SOL    HW1 3163   2.886   2.162   0.962  0.6352  0.0147  2.0186
 1005SOL    HW2 3164   3.010   2.190   0.880 -0.8177 -0.0489 -0.2816
 1006SOL     OW 3165   2.552   2.054   1.147 -0.1614 -0.1129 -0.5045
 1006SOL    HW1 3166   2.547   2.064   1.052 -3.2602 -1.1921 -0.5749
 1006SOL    HW2 3167   2.480   2.108   1.180 -0.3161 -1.2140  1.0405
 1007SOL     OW 3168   0.858   2.643   0.947 -0.0488  0.7747  0.1430
 1007SOL    HW1 3169   0.807   2.621   0.869  0.4332 -0.1149  0.0656
 1007SOL    HW2 3170   0.891   2.731   0.930  0.7009  0.3004 -1.0201
 1008SOL     OW 3171   3.140   3.142   0.040  0.2197  0.9856  0.4565
 1008SOL    HW1 3172   3.172   3.054   0.022 -0.2273  0.7985  0.5688
 1008SOL    HW2 3173   3.184   3.168   0.121  0.5843  0.9876  0.2607
 1009SOL     OW 3174   0.471   0.515   2.054  0.1033 -0.9242 -0.3839
 1009SOL    HW1 3175   0.451   0.466   2.134  0.3408 -2.8478 -1.4390
 1009SOL    HW2 3176   0.550   0.474   2.020  2.0704  2.1510  0.1575
 1010SOL     OW 3177   3.551   2.089   1.515 -0.6636  0.3865 -0.1120
 1010SOL    HW1 3178   3.568   1.999   1.488  1.6228  1.1021 -1.3315
 1010SOL    HW2 3179   3.558   2.140   1.435 -1.7272  1.6974  0.5822
 1011SOL     OW 3180   2.184   1.097   3.289  0.6470  0.7282  0.3025
 1011SOL    HW1 3181   2.278   1.109   3.271  0.4281  0.1258 -1.3430
 1011SOL    HW2 3182   2.156   1.029   3.229 -0.4122 -0.6750  2.2792
 1012SOL     OW 3183   2.788   0.641   1.514  0.6390  0.2932  0.5331
 1012SOL    HW1 3184   2.713   0.652   1.455 -0.0921 -3.4907  0.5568
 1012SOL    HW2 3185   2.854   0.596   1.461  0.7749 -1.2875  1.9733
 1013SOL     OW 3186   3.689   3.238   0.136  0.5238 -0.0943  0.2880
 1013SOL    HW1 3187   3.598   3.242   0.107  0.5502 -2.0901 -0.1891
 1013SOL    HW2 3188   3.739   3.281   0.066  0.1166 -0.5759 -0.3059
 1014SOL     OW 3189   0.333   2.972   3.245  0.3409 -0.2022 -0.2178
 1014SOL    HW1 3190   0.341   3.039   3.177 -2.0691 -1.2618 -1.6803
 1014SOL    HW2 3191   0.360   3.016   3.326  0.4712  1.9952 -1.3788
 1015SOL     OW 3192   3.070   3.563   2.028  0.0897 -0.4054 -0.4478
 1015SOL    HW1 3193   3.052   3.651   2.060  0.6706 -1.0131  1.6895
 1015SOL    HW2 3194   2.983   3.524   2.014 -0.1667  0.1514 -0.4318
 1016SOL     OW 3195   1.768   1.401   3.061 -0.4813 -0.1598 -0.5613
 1016SOL    HW1 3196   1.743   1.311   3.041 -1.3208 -0.2214  0.6359
 1016SOL    HW2 3197   1.843   1.392   3.120 -1.3959 -0.1395  0.6466
 1017SOL     OW 3198   0.231   2.522   1.979  0.2634 -0.3669 -0.3606
 1017SOL    HW1 3199   0.184   2.501   1.899  0.5005 -0.5481 -0.4541
 1017SOL    HW2 3200   0.324   2.510   1.957  0.8078  4.0094 -1.4796
 1018SOL     OW 3201   1.813   1.970   0.754 -0.3550  0.0145 -0.1207
 1018SOL    HW1 3202   1.781   1.888   0.715 -0.7612 -0.1353  0.5069
 1018SOL    HW2 3203   1.907   1.955   0.767 -0.2554 -0.0075 -0.8476
 1019SOL     OW 3204   0.178   0.508   1.252 -0.0871  0.1965 -0.0355
 1019SOL    HW1 3205   0.133   0.526   1.170  2.2746  0.0212 -1.4583
 1019SOL    HW2 3206   0.263   0.552   1.243  0.1760  0.3028  2.3841
 1020SOL     OW 3207   0.157   2.276   0.056 -0.2721  0.7230 -0.2234
 1020SOL    HW1 3208   0.068   2.298   0.082 -1.5611 -2.4475 -1.4799
 1020SOL    HW2 3209   0.195   2.235   0.135 -0.3990  0.8436 -0.0994
 1021SOL     OW 3210   3.648   2.969   2.899  0.1580  0.1480 -0.6413
 1021SOL    HW1 3211   3.706   3.038   2.933 -0.2072 -0.2829  0.9181
 1021SOL    HW2 3212   3.627   2.998   2.810 -0.3568  2.3175  0.1104
 1022SOL     OW 3213   0.504   2.989   1.630 -0.2243  0.0738 -0.6899
 1022SOL    HW1 3214   0.584   3.041   1.618 -0.2188 -0.0257 -1.0758
 1022SOL    HW2 3215   0.516   2.947   1.715  0.1933 -0.0441 -0.8065
 1023SOL     OW 3216   2.826   1.203   1.861 -0.3453  0.2346 -0.2164
 1023SOL    HW1 3217   2.817   1.176   1.770  0.7600 -0.8459 -0.0380
 1023SOL    HW2 3218   2.813   1.298   1.860  0.8420  0.4145 -1.6767
 1024SOL     OW 3219   2.998   0.174   3.316  0.1723  0.4111 -0.0025
 1024SOL    HW1 3220   2.963   0.113   3.382 -0.2235  1.4522  0.7726
 1024SOL    HW2 3221   2.921   0.212   3.275  0.3919 -1.2812 -2.1254
 1025SOL     OW 3222   1.948   2.782   0.031 -0.3580 -0.0641 -0.0318
 1025SOL    HW1 3223   1.916   2.842   0.098  2.1688  0.5064  0.7738
 1025SOL    HW2 3224   1.940   2.695   0.070  1.9561  0.3269  1.5087
 1026SOL     OW 3225   2.745   1.018   2.545 -0.4435  0.0695 -0.0157
 1026SOL    HW1 3226   2.827   1.037   2.591 -0.5076  2.1801 -0.6450
 1026SOL    HW2 3227   2.677   1.033   2.610 -0.3814 -0.8461  0.2704
 1027SOL     OW 3228   3.651   2.346   3.533 -0.1361 -0.1220 -0.2149
 1027SOL    HW1 3229   3.667   2.252   3.541  0.3584 -0.0263 -0.0441
 1027SOL    HW2 3230   3.618   2.372   3.619  0.6706  0.0375  0.0553
 1028SOL     OW 3231   1.869   1.145   2.101 -0.0791  0.0949 -0.0380
 1028SOL    HW1 3232   1.822   1.099   2.171  0.6230 -0.0868  0.3207
 1028SOL    HW2 3233   1.838   1.104   2.021 -1.4506  0.8069  0.1013
 1029SOL     OW 3234   1.301   0.540   1.071  0.3439  0.0333  0.1130
 1029SOL    HW1 3235   1.328   0.574   0.985  0.0212  1.2661  0.4706
 1029SOL    HW2 3236   1.260   0.456   1.052  1.4380 -0.3221 -0.7938
 1030SOL     OW 3237   1.524   3.225   1.626  0.4009  0.5420 -0.4051
 1030SOL    HW1 3238   1.447   3.247   1.679  0.0468 -0.3904 -0.5154
 1030SOL    HW2 3239   1.489   3.207   1.539  0.6912 -0.2815 -0.3584
 1031SOL     OW 3240   1.328   2.967   2.023  0.1159 -0.2349 -0.4013
 1031SOL    HW1 3241   1.259   2.987   1.960 -0.6006 -0.3603  0.3243
 1031SOL    HW2 3242   1.386   2.907   1.977  0.3421  0.7260 -1.3942
 1032SOL     OW 3243   2.400   2.671   0.694  0.4265  0.3182  0.6594
 1032SOL    HW1 3244   2.374   2.580   0.681  0.3954  0.5857 -1.4719
 1032SOL    HW2 3245   2.484   2.679   0.649 -0.8864  1.9606 -1.7461
 1033SOL     OW 3246   2.363   2.027   3.143  0.0114  0.4978 -0.6230
 1033SOL    HW1 3247   2.399   2.042   3.230  0.1978 -0.3930 -0.5337
 1033SOL    HW2 3248   2.433   1.983   3.095 -0.2639  0.5362 -1.0685
 1034SOL     OW 3249   0.380   3.102   2.697  0.0246  0.8893 -0.2555
 1034SOL    HW1 3250   0.348   3.051   2.623  2.1547 -0.6820 -0.2163
 1034SOL    HW2 3251   0.329   3.070   2.772  1.2002 -1.2171 -0.2572
 1035SOL     OW 3252   3.742   0.851   3.398 -0.2165 -0.3368  0.3290
 1035SOL    HW1 3253   3.664   0.898   3.425 -1.0295 -0.1659 -2.1457
 1035SOL    HW2 3254   3.709   0.772   3.355  1.0315 -1.0617  0.6440
 1036SOL     OW 3255   1.972   2.414   0.118  0.1784  0.6365 -0.6801
 1036SOL    HW1 3256   1.915   2.363   0.061  4.0052 -2.1968 -2.4437
 1036SOL    HW2 3257   1.946   2.388   0.207 -2.7817  1.4635 -1.1946
 1037SOL     OW 3258   3.192   0.326   3.539  0.1215  0.1275 -0.2392
 1037SOL    HW1 3259   3.100   0.329   3.513  0.2263 -1.0611 -0.8051
 1037SOL    HW2 3260   3.203   0.402   3.596 -1.2405  0.2162 -0.0603
 1038SOL     OW 3261   1.984   2.082   3.163  0.5488  0.1468 -0.0300
 1038SOL    HW1 3262   1.980   2.176   3.141  0.8322 -0.2065 -1.7969
 1038SOL    HW2 3263   2.050   2.077   3.232  0.5173  1.2642  0.1102
 1039SOL     OW 3264   1.544   0.347   2.079  0.2404  0.6378  0.0045
 1039SOL    HW1 3265   1.467   0.375   2.029  1.1726 -0.1212 -1.9445
 1039SOL    HW2 3266   1.546   0.252   2.068  1.1497  0.5891  0.5278
 1040SOL     OW 3267   2.251   2.641   3.046  0.2095  0.1258  0.6887
 1040SOL    HW1 3268   2.282   2.560   3.087  1.1468  0.1618  0.0685
 1040SOL    HW2 3269   2.162   2.620   3.017  0.7844 -1.0154 -0.3522
 1041SOL     OW 3270   1.158   1.158   0.681 -0.2896  0.3738  0.4066
 1041SOL    HW1 3271   1.192   1.155   0.592  2.8183 -2.2761  1.4937
 1041SOL    HW2 3272   1.105   1.079   0.689 -0.0604  0.2754  1.0460
 1042SOL     OW 3273   0.636   2.969   2.792 -0.8274  0.3824  0.0174
 1042SOL    HW1 3274   0.615   3.053   2.752  0.5559  1.1743  0.8880
 1042SOL    HW2 3275   0.618   2.981   2.885 -3.1012 -1.1393 -0.1646
 1043SOL     OW 3276   0.754   3.189   2.608 -0.0441  0.0152 -0.4270
 1043SOL    HW1 3277   0.765   3.284   2.612 -2.5398  0.3607 -0.3933
 1043SOL    HW2 3278   0.784   3.165   2.520  0.1760  0.8903 -0.5975
 1044SOL     OW 3279   0.174   1.734   0.473  0.0877 -0.4615  0.0251
 1044SOL    HW1 3280   0.149   1.657   0.524 -2.5929 -0.2146 -0.7540
 1044SOL    HW2 3281   0.101   1.794   0.484 -0.0532  0.0884 -3.1161
 1045SOL     OW 3282   1.161   0.228   1.974 -0.0262 -0.2353  0.0563
 1045SOL    HW1 3283   1.089   0.248   1.914 -0.1876 -0.7154  0.0818
 1045SOL    HW2 3284   1.167   0.305   2.031 -1.1196 -0.5610  0.6351
 1046SOL     OW 3285   1.308   0.784   1.224 -0.2553  0.1633 -0.0950
 1046SOL    HW1 3286   1.224   0.753   1.258 -0.7370 -0.2588 -1.6241
 1046SOL    HW2 3287   1.357   0.704   1.205  0.6788  0.4027  1.1544
 1047SOL     OW 3288   1.241   2.659   0.190  0.1460 -0.2469 -0.4003
 1047SOL    HW1 3289   1.300   2.661   0.265  0.6643 -0.0798 -0.8052
 1047SOL    HW2 3290   1.205   2.570   0.189 -0.2613 -0.0950  0.3432
 1048SOL     OW 3291   1.313   1.777   3.509  0.5197  0.5563  0.1588
 1048SOL    HW1 3292   1.322   1.712   3.578 -0.5647 -0.1604 -0.3530
 1048SOL    HW2 3293   1.232   1.754   3.463 -0.1629  2.5416  0.2447
 1049SOL     OW 3294   0.799   0.419   1.137 -0.1518 -0.0763 -0.7364
 1049SOL    HW1 3295   0.818   0.484   1.204 -0.3460  0.7334 -1.4455
 1049SOL    HW2 3296   0.798   0.336   1.183 -0.5894  0.4977  0.3114
 1050SOL     OW 3297   0.899   2.617   0.211 -0.2436 -0.0776 -0.8492
 1050SOL    HW1 3298   0.856   2.609   0.126 -0.2057  0.5324 -0.9287
 1050SOL    HW2 3299   0.923   2.527   0.234 -0.1511 -0.2316 -1.5326
 1051SOL     OW 3300   0.298   1.842   0.239  0.2970 -0.0311 -0.1479
 1051SOL    HW1 3301   0.314   1.776   0.172 -2.3482  1.4306 -2.4101
 1051SOL    HW2 3302   0.241   1.799   0.302 -1.4955 -0.0174 -1.6584
 1052SOL     OW 3303   0.599   2.613   3.395 -0.3080 -0.0729  0.4562
 1052SOL    HW1 3304   0.649   2.532   3.406 -0.8622 -0.6410 -0.9146
 1052SOL    HW2 3305   0.598   2.653   3.482 -1.0803 -2.1432  1.4594
 1053SOL     OW 3306   3.361   2.719   1.605  0.0484 -0.3237 -0.6394
 1053SOL    HW1 3307   3.321   2.801   1.580 -1.8572 -0.0298  2.7322
 1053SOL    HW2 3308   3.292   2.654   1.597  0.1991 -0.7142  0.8458
 1054SOL     OW 3309   0.050   0.383   2.012 -0.4807 -0.5611 -0.4433
 1054SOL    HW1 3310   0.059   0.294   1.980  0.5160 -0.3237 -0.8803
 1054SOL    HW2 3311  -0.006   0.376   2.090 -1.2702 -1.4132 -1.0709
 1055SOL     OW 3312   0.951   2.500   2.110 -0.7860 -0.1032  0.6409
 1055SOL    HW1 3313   0.889   2.437   2.145  1.2270 -1.5982  1.7416
 1055SOL    HW2 3314   0.932   2.504   2.016 -1.0657 -2.3085  0.5444
 1056SOL     OW 3315   2.001   3.444   2.210  0.3460  0.7137 -0.4276
 1056SOL    HW1 3316   2.037   3.465   2.296  0.5977  2.3859 -0.9011
 1056SOL    HW2 3317   2.018   3.351   2.199 -0.8849  0.1383  1.8763
 1057SOL     OW 3318   0.264   1.335   1.153  0.0454 -0.0388 -0.5275
 1057SOL    HW1 3319   0.235   1.273   1.087 -1.5587  0.7019 -0.5530
 1057SOL    HW2 3320   0.245   1.292   1.236 -2.1914  0.8142 -0.5183
 1058SOL     OW 3321   3.258   3.150   3.497  0.1015  0.1349 -0.1631
 1058SOL    HW1 3322   3.264   3.064   3.455  1.8664 -0.1362  0.5483
 1058SOL    HW2 3323   3.170   3.153   3.534  0.6378 -2.2198  1.5171
 1059SOL     OW 3324   1.555   0.174   0.725 -0.3546  0.0320 -0.0979
 1059SOL    HW1 3325   1.578   0.264   0.748  0.4547 -0.0227 -0.6527
 1059SOL    HW2 3326   1.466   0.180   0.690 -0.5443  0.5178  0.4482
 1060SOL     OW 3327   2.406   1.712   1.512 -0.0830 -0.0809 -0.0594
 1060SOL    HW1 3328   2.448   1.727   1.597 -1.3289 -1.9126  0.9373
 1060SOL    HW2 3329   2.454   1.770   1.452  2.0670 -0.0905  1.5081
 1061SOL     OW 3330   3.730   1.763   1.182 -0.8845  0.1550  0.2237
 1061SOL    HW1 3331   3.713   1.759   1.276  0.2759  1.2536  0.5069
 1061SOL    HW2 3332   3.643   1.768   1.143 -1.3679  0.6633  1.3075
 1062SOL     OW 3333   3.489   1.591   2.204 -0.5004 -0.1330  0.2992
 1062SOL    HW1 3334   3.537   1.548   2.274 -2.7899 -1.8442  0.9562
 1062SOL    HW2 3335   3.514   1.544   2.125  0.1339  0.0807  0.3698
 1063SOL     OW 3336   3.195   0.821   3.048 -0.7702 -0.0983  0.1897
 1063SOL    HW1 3337   3.192   0.747   3.109 -2.0996  0.2364  0.5691
 1063SOL    HW2 3338   3.168   0.785   2.964 -0.2300 -0.2890  0.0967
 1064SOL     OW 3339   1.437   1.676   1.605 -0.1883 -0.3929 -0.2741
 1064SOL    HW1 3340   1.510   1.621   1.576 -0.1514 -0.9005  0.7285
 1064SOL    HW2 3341   1.359   1.622   1.592 -0.5097  0.4031 -2.0126
 1065SOL     OW 3342   2.536   0.475   1.145  0.1343 -0.0224  0.8177
 1065SOL    HW1 3343   2.476   0.429   1.205 -2.0121  0.4772 -0.8010
 1065SOL    HW2 3344   2.577   0.405   1.095 -1.0947 -0.3442  0.2031
 1066SOL     OW 3345   1.499   1.071   1.213  0.2901  0.1195  0.0287
 1066SOL    HW1 3346   1.583   1.048   1.174 -0.6386 -0.1739 -1.9221
 1066SOL    HW2 3347   1.497   1.166   1.211 -0.0765  0.1095 -1.5110
 1067SOL     OW 3348   0.977   1.154   1.907  0.5872  0.3125  0.5711
 1067SOL    HW1 3349   1.033   1.175   1.833  1.4055  0.0707  1.1052
 1067SOL    HW2 3350   1.014   1.073   1.943 -0.4751 -0.1910  0.5752
 1068SOL     OW 3351   3.287   0.181   2.872  0.4145  0.3346 -0.5130
 1068SOL    HW1 3352   3.337   0.104   2.897 -0.2099 -0.1151 -0.6135
 1068SOL    HW2 3353   3.203   0.171   2.918  1.4662  2.5906  2.1312
 1069SOL     OW 3354   2.247   0.638   1.472 -0.1014 -0.4633 -0.1875
 1069SOL    HW1 3355   2.195   0.606   1.545  0.7574  1.0298  1.1497
 1069SOL    HW2 3356   2.322   0.578   1.468 -1.1479 -1.7571 -1.1959
 1070SOL     OW 3357   3.462   2.735   2.942  0.1831  0.1624 -0.0834
 1070SOL    HW1 3358   3.373   2.753   2.973 -0.1109  1.4300 -1.5142
 1070SOL    HW2 3359   3.515   2.806   2.979  0.1487  0.7099 -1.0505
 1071SOL     OW 3360   3.300   1.445   1.307 -0.1444  0.4588  0.2509
 1071SOL    HW1 3361   3.283   1.431   1.214 -3.3016 -0.2226  0.8101
 1071SOL    HW2 3362   3.264   1.367   1.350  0.2823  1.2348  2.1188
 1072SOL     OW 3363   2.667   3.436   2.121 -0.1758 -0.6106  0.6908
 1072SOL    HW1 3364   2.611   3.483   2.059  1.7438  1.1204  0.1644
 1072SOL    HW2 3365   2.698   3.359   2.072 -1.2981 -1.0633  0.6728
 1073SOL     OW 3366   2.632   3.144   1.253 -0.9412  0.1727 -0.3252
 1073SOL    HW1 3367   2.697   3.198   1.298 -0.0983  1.4226 -2.8636
 1073SOL    HW2 3368   2.610   3.075   1.317 -0.7317  2.4311  2.3811
 1074SOL     OW 3369   3.683   0.453   3.334  0.8344  0.1583  0.2813
 1074SOL    HW1 3370   3.652   0.366   3.309  1.5536  0.1238 -0.5381
 1074SOL    HW2 3371   3.634   0.474   3.414  0.4381 -0.8700  0.3236
 1075SOL     OW 3372   3.635   1.088   0.859 -0.2046  0.1055 -0.0365
 1075SOL    HW1 3373   3.690   1.108   0.783 -1.6167 -0.5762 -1.2885
 1075SOL    HW2 3374   3.639   0.993   0.867 -0.2592  0.1559  0.6029
 1076SOL     OW 3375   2.384   1.458   0.244  0.1112  0.5249  0.1977
 1076SOL    HW1 3376   2.400   1.478   0.151  1.5697  0.9194  0.5072
 1076SOL    HW2 3377   2.307   1.510   0.267  0.9824  2.1055 -0.2711
 1077SOL     OW 3378   0.898   1.659   2.111  0.2420 -0.2567 -0.1939
 1077SOL    HW1 3379   0.829   1.602   2.077  0.4300  1.0581 -3.0810
 1077SOL    HW2 3380   0.975   1.603   2.116 -0.4922 -1.2042  0.9834
 1078SOL     OW 3381   2.498   0.447   0.432  0.4052 -0.4814  0.2657
 1078SOL    HW1 3382   2.514   0.470   0.524  1.2304 -4.6224  1.3642
 1078SOL    HW2 3383   2.572   0.485   0.384  1.4026 -0.4829  1.7439
 1079SOL     OW 3384   0.395   0.593   2.809 -0.6192  0.0623  0.0113
 1079SOL    HW1 3385   0.430   0.681   2.794 -3.1976  1.1406 -0.1779
 1079SOL    HW2 3386   0.417   0.574   2.901  0.2120  0.7459 -0.0263
 1080SOL     OW 3387   1.215   1.227   1.520 -0.5476  0.0891  0.1112
 1080SOL    HW1 3388   1.204   1.153   1.460  0.2165 -0.4416  0.5980
 1080SOL    HW2 3389   1.178   1.197   1.603  0.7344 -0.1846  0.6149
 1081SOL     OW 3390   0.832   2.015   1.373 -0.2155 -0.1998 -0.0755
 1081SOL    HW1 3391   0.806   2.081   1.309 -0.4759 -1.2545 -1.0787
 1081SOL    HW2 3392   0.758   2.007   1.432  0.3700  1.4343  0.9447
 1082SOL     OW 3393   1.857   1.764   3.549  0.1647  0.5734 -0.6094
 1082SOL    HW1 3394   1.774   1.748   3.505 -0.1710 -0.5903  0.4085
 1082SOL    HW2 3395   1.844   1.846   3.598  0.0517  1.0623 -1.4385
 1083SOL     OW 3396   1.338   3.158   0.634 -0.3142 -0.2018  0.3017
 1083SOL    HW1 3397   1.341   3.254   0.639 -0.2671 -0.1476 -0.5735
 1083SOL    HW2 3398   1.253   3.138   0.596  0.0152 -0.4610 -0.3171
 1084SOL     OW 3399   3.342   3.409   2.839  0.3301 -0.0066  0.1196
 1084SOL    HW1 3400   3.312   3.438   2.925 -1.2709 -1.0936 -0.0089
 1084SOL    HW2 3401   3.427   3.368   2.856 -0.6469 -1.6335  1.5151
 1085SOL     OW 3402   3.365   3.363   0.613  0.7488  0.8770  0.1198
 1085SOL    HW1 3403   3.400   3.425   0.677  0.1575  2.7497 -1.2900
 1085SOL    HW2 3404   3.294   3.319   0.659 -0.8228  3.4261  0.3056
 1086SOL     OW 3405   1.495   2.644   0.817  0.0104 -0.6971  0.1138
 1086SOL    HW1 3406   1.417   2.697   0.837  0.5405  1.0740 -2.1233
 1086SOL    HW2 3407   1.500   2.644   0.722  2.0373 -1.9049  0.1718
 1087SOL     OW 3408   0.133   3.120   3.034  0.5306 -0.6672 -0.6444
 1087SOL    HW1 3409   0.126   3.034   3.075  1.2580 -0.5541 -0.2691
 1087SOL    HW2 3410   0.152   3.180   3.106  0.0469 -0.1974 -0.9080
 1088SOL     OW 3411   3.243   1.455   3.003  0.2598 -0.1672  0.7724
 1088SOL    HW1 3412   3.187   1.439   3.079 -1.1777 -1.6648 -0.5071
 1088SOL    HW2 3413   3.213   1.538   2.968  0.3828  0.1351  1.3652
 1089SOL     OW 3414   0.225   0.180   2.950  0.1246 -0.2330  0.1621
 1089SOL    HW1 3415   0.293   0.139   3.004 -0.6497 -1.1639  0.4522
 1089SOL    HW2 3416   0.244   0.151   2.861 -0.1134 -0.8265  0.2968
 1090SOL     OW 3417   3.058   1.811   1.746  0.4256  0.2131 -0.5024
 1090SOL    HW1 3418   3.024   1.725   1.771 -3.2274  1.5993 -0.1730
 1090SOL    HW2 3419   3.078   1.802   1.652 -0.3141 -0.8549 -0.5778
 1091SOL     OW 3420   1.432   0.170   3.271  1.0525 -0.1910  0.0844
 1091SOL    HW1 3421   1.510   0.126   3.237 -1.9960 -4.3144 -2.4810
 1091SOL    HW2 3422   1.411   0.123   3.351  1.3139  1.2241  1.0353
 1092SOL     OW 3423   3.357   3.371   1.042 -0.4977 -0.4869 -0.0664
 1092SOL    HW1 3424   3.436   3.318   1.058  1.5205  2.3220  0.0874
 1092SOL    HW2 3425   3.357   3.435   1.113 -1.7309  0.8684 -1.2293
 1093SOL     OW 3426   0.857   1.817   2.556  0.2375 -0.5815  0.3853
 1093SOL    HW1 3427   0.858   1.835   2.650 -0.6288  2.7302 -0.1251
 1093SOL    HW2 3428   0.950   1.818   2.531  0.3937  0.1567  0.9509
 1094SOL     OW 3429   3.367   2.396   3.467 -0.1149 -0.2745 -0.1241
 1094SOL    HW1 3430   3.461   2.393   3.452 -0.1435  1.5828 -0.9159
 1094SOL    HW2 3431   3.333   2.315   3.427  0.8722  0.2597 -2.1812
 1095SOL     OW 3432   2.789   3.383   2.900 -0.1221 -0.1154  0.8323
 1095SOL    HW1 3433   2.861   3.445   2.915 -0.4674  0.2357  1.0489
 1095SOL    HW2 3434   2.827   3.317   2.843  0.0082  0.7519 -0.1215
 1096SOL     OW 3435   2.383   1.450   1.680 -0.6978  0.4225 -0.5380
 1096SOL    HW1 3436   2.470   1.410   1.670 -1.8500 -1.9543 -2.1220
 1096SOL    HW2 3437   2.343   1.442   1.593 -3.1960 -0.3507  0.5903
 1097SOL     OW 3438   1.212   3.492   0.419  0.3245  0.8953 -0.2837
 1097SOL    HW1 3439   1.302   3.519   0.436 -0.3301  1.1715  3.9221
 1097SOL    HW2 3440   1.167   3.572   0.394  0.8312  1.1753 -0.3009
 1098SOL     OW 3441   0.983   3.052   2.695 -0.3249  0.3454  0.3754
 1098SOL    HW1 3442   0.907   3.082   2.647 -0.1366  3.7048  1.8806
 1098SOL    HW2 3443   0.957   3.057   2.787  1.0646 -0.4632  0.8506
 1099SOL     OW 3444   3.219   1.450   1.891 -0.2895  0.2475 -0.1315
 1099SOL    HW1 3445   3.280   1.521   1.872 -1.2846  1.5347  1.2723
 1099SOL    HW2 3446   3.216   1.446   1.986  0.2176 -2.1498 -0.1478
 1100SOL     OW 3447   1.481   2.160   2.240  0.2323 -0.3710  0.2698
 1100SOL    HW1 3448   1.510   2.108   2.315 -0.5345 -1.4108 -0.1271
 1100SOL    HW2 3449   1.546   2.143   2.172  1.0356  0.7239  0.7245
 1101SOL     OW 3450   2.746   3.083   1.646  0.2544 -0.2498  0.3367
 1101SOL    HW1 3451   2.680   3.066   1.579  0.5940  0.7267 -0.2577
 1101SOL    HW2 3452   2.778   2.996   1.671 -0.2172 -0.6466 -0.4114
 1102SOL     OW 3453   2.264   0.940   2.311 -0.1791  0.3108 -0.2642
 1102SOL    HW1 3454   2.259   0.952   2.406 -1.8276 -0.9840 -0.1558
 1102SOL    HW2 3455   2.184   0.980   2.277  1.0977  2.1457 -1.3227
 1103SOL     OW 3456   0.637   0.521   2.517  0.4711  0.1678 -0.0455
 1103SOL    HW1 3457   0.652   0.586   2.585 -0.6548  2.1668 -1.5847
 1103SOL    HW2 3458   0.561   0.471   2.548  1.7432 -0.9239  1.4515
 1104SOL     OW 3459   0.168   2.888   2.797  0.2409  0.3903 -0.0265
 1104SOL    HW1 3460   0.237   2.901   2.863 -0.1136 -1.2459  0.7178
 1104SOL    HW2 3461   0.093   2.857   2.847 -0.1926 -0.4363 -1.1524
 1105SOL     OW 3462   1.890   0.450   2.980 -0.2569  0.1684  0.0839
 1105SOL    HW1 3463   1.843   0.519   3.027  1.9364  1.4106  0.5800
 1105SOL    HW2 3464   1.879   0.473   2.888  2.7706  3.0064  0.2503
 1106SOL     OW 3465   3.531   1.018   1.273 -0.5356  0.0922 -0.7723
 1106SOL    HW1 3466   3.479   1.053   1.345  1.8694  0.6609  0.8025
 1106SOL    HW2 3467   3.582   0.947   1.311  1.8426  1.3057 -1.4486
 1107SOL     OW 3468   2.187   2.012   0.542  0.1160  0.3399 -0.0458
 1107SOL    HW1 3469   2.253   2.019   0.474 -0.4850  2.7132 -0.4638
 1107SOL    HW2 3470   2.217   2.071   0.611 -0.9367  0.4993  0.2970
 1108SOL     OW 3471   0.223   3.579   3.326  0.3699 -0.0288  0.1166
 1108SOL    HW1 3472   0.305   3.629   3.334 -0.3265  1.0011  1.2297
 1108SOL    HW2 3473   0.205   3.548   3.415 -0.5899  0.0112 -0.0539
 1109SOL     OW 3474   2.859   0.658   2.013 -0.3155 -0.6780 -0.4360
 1109SOL    HW1 3475   2.879   0.651   2.106 -1.1925 -1.1925 -0.2674
 1109SOL    HW2 3476   2.926   0.716   1.977  0.0543 -0.5142  0.5058
 1110SOL     OW 3477   0.340   3.463   2.435  0.1232  0.1652  0.0831
 1110SOL    HW1 3478   0.248   3.445   2.417 -0.2501 -0.0428  1.9172
 1110SOL    HW2 3479   0.388   3.393   2.392 -0.7667 -0.9466  0.8408
 1111SOL     OW 3480   3.584   0.289   2.912  0.1527  0.1750 -0.1789
 1111SOL    HW1 3481   3.585   0.194   2.907 -0.6665 -0.0257  2.1806
 1111SOL    HW2 3482   3.493   0.313   2.894  0.7844  0.7737 -3.0713
 1112SOL     OW 3483   2.437   1.064   2.975  0.0913 -0.2844  0.0796
 1112SOL    HW1 3484   2.363   1.118   3.000 -0.5051 -0.7737 -0.5854
 1112SOL    HW2 3485   2.414   0.976   3.005  0.9035 -0.2464  0.8615
 1113SOL     OW 3486   2.305   0.174   3.153  0.0271  0.3372 -0.7820
 1113SOL    HW1 3487   2.382   0.119   3.136 -0.8935 -0.4647 -2.6420
 1113SOL    HW2 3488   2.247   0.117   3.204 -0.9508 -0.5330 -2.7571
 1114SOL     OW 3489   1.402   2.368   1.765  0.5221  0.0945  0.2707
 1114SOL    HW1 3490   1.448   2.445   1.797  0.6722  0.3569 -0.5479
 1114SOL    HW2 3491   1.426   2.298   1.826 -0.9821  1.0524  2.0585
 1115SOL     OW 3492   2.917   1.800   0.259  0.1810  0.2418 -0.0157
 1115SOL    HW1 3493   2.991   1.815   0.318 -0.4331  0.1688  0.7929
 1115SOL    HW2 3494   2.853   1.752   0.312  0.9173 -2.8358 -1.6679
 1116SOL     OW 3495   1.263   3.492   2.271 -0.7036  0.2252  0.1270
 1116SOL    HW1 3496   1.224   3.573   2.238 -1.6248 -0.7760 -1.3893
 1116SOL    HW2 3497   1.320   3.462   2.201  1.4241  0.6816  1.5798
 1117SOL     OW 3498   3.302   0.370   1.700  0.0874  0.6023  0.0555
 1117SOL    HW1 3499   3.305   0.453   1.651 -0.0189  0.5072 -0.1151
 1117SOL    HW2 3500   3.384   0.368   1.748 -0.2228  1.1548  0.6312
 1118SOL     OW 3501   2.996   0.162   0.198 -0.2589  0.4067 -0.5961
 1118SOL    HW1 3502   2.952   0.089   0.154  0.7794 -0.6680  0.0911
 1118SOL    HW2 3503   3.086   0.131   0.211  0.0319  1.5697  0.2720
 1119SOL     OW 3504   3.363   0.278   2.072  0.2673 -0.0852  0.3340
 1119SOL    HW1 3505   3.415   0.198   2.080 -0.2422 -0.4889 -0.3186
 1119SOL    HW2 3506   3.286   0.251   2.022  0.6005  1.0575 -0.8331
 1120SOL     OW 3507   1.462   3.660   2.798  0.1047  0.4880 -0.0496
 1120SOL    HW1 3508   1.440   3.610   2.877 -2.4460  0.9579 -0.3956
 1120SOL    HW2 3509   1.423   3.611   2.726  0.9679  0.9373 -0.8428
 1121SOL     OW 3510   1.747   0.867   0.173  0.7631 -0.7813 -0.1613
 1121SOL    HW1 3511   1.817   0.930   0.190  0.7123 -0.5816 -0.6752
 1121SOL    HW2 3512   1.790   0.782   0.184  1.1999 -0.6654 -0.8406
 1122SOL     OW 3513   1.193   2.761   2.159 -0.3503 -0.3838  0.1305
 1122SOL    HW1 3514   1.230   2.744   2.246 -0.3594 -1.9291 -0.1506
 1122SOL    HW2 3515   1.256   2.821   2.118  0.1012 -0.3329  0.8763
 1123SOL     OW 3516   3.493   0.219   3.199  0.1091 -0.6716 -0.2215
 1123SOL    HW1 3517   3.475   0.231   3.106  1.7044 -0.7162 -0.5583
 1123SOL    HW2 3518   3.417   0.171   3.232  0.4323 -2.5021 -1.9466
 1124SOL     OW 3519   0.411   2.278   1.407 -0.0494  0.2003  0.1673
 1124SOL    HW1 3520   0.498   2.287   1.369 -0.3478 -0.3153 -0.6744
 1124SOL    HW2 3521   0.355   2.332   1.351 -0.5955 -1.0266 -0.5244
 1125SOL     OW 3522   1.013   1.808   3.607 -0.7243 -0.2594 -0.1374
 1125SOL    HW1 3523   1.033   1.817   3.700  0.3219  0.1414 -0.3982
 1125SOL    HW2 3524   1.042   1.720   3.585 -2.3037 -0.9154  0.2242
 1126SOL     OW 3525   1.454   2.357   1.496 -0.4693 -0.0893  0.5266
 1126SOL    HW1 3526   1.421   2.445   1.476  0.1634  0.0407  0.0246
 1126SOL    HW2 3527   1.442   2.349   1.591 -1.9905 -0.0863  0.3579
 1127SOL     OW 3528   2.516   0.811   0.532 -0.5950  0.2800  0.1136
 1127SOL    HW1 3529   2.512   0.905   0.513 -0.5587  0.3248  0.3232
 1127SOL    HW2 3530   2.529   0.806   0.627 -1.9512  0.0486  0.3177
 1128SOL     OW 3531   0.635   1.071   0.205 -0.3821 -0.1832  0.4063
 1128SOL    HW1 3532   0.670   1.145   0.155  0.6446 -1.1829 -0.3945
 1128SOL    HW2 3533   0.606   1.009   0.139 -1.8857 -0.2222  1.0738
 1129SOL     OW 3534   3.447   2.806   2.678  0.1602 -0.1264  0.0816
 1129SOL    HW1 3535   3.471   2.897   2.689  0.4548 -0.3407  1.3166
 1129SOL    HW2 3536   3.442   2.771   2.767 -3.8442 -0.3255 -0.0382
 1130SOL     OW 3537   1.732   0.656   2.949  0.7488  0.1509  0.4861
 1130SOL    HW1 3538   1.740   0.668   2.855  3.6051  2.1161  0.8453
 1130SOL    HW2 3539   1.698   0.740   2.981  0.0381 -0.4142  1.2468
 1131SOL     OW 3540   2.207   1.394   3.642  0.5945 -0.0860  0.0640
 1131SOL    HW1 3541   2.136   1.438   3.595  0.9008  0.5873  0.2110
 1131SOL    HW2 3542   2.171   1.309   3.665  0.2445 -0.2164 -0.8950
 1132SOL     OW 3543   3.685   0.637   1.896  0.1446 -0.0576  0.4990
 1132SOL    HW1 3544   3.708   0.554   1.938  0.3498 -0.5713 -0.6002
 1132SOL    HW2 3545   3.595   0.654   1.924 -0.4433 -1.4390 -0.4746
 1133SOL     OW 3546   2.026   0.245   0.420 -0.1894  0.0812  0.2155
 1133SOL    HW1 3547   2.079   0.169   0.397  0.8657 -0.4974  3.8672
 1133SOL    HW2 3548   2.090   0.312   0.447 -1.1925  0.8858  0.6639
 1134SOL     OW 3549   2.355   1.837   0.178 -0.4451 -0.1806  0.3283
 1134SOL    HW1 3550   2.426   1.785   0.141 -1.1416 -0.3837 -0.7774
 1134SOL    HW2 3551   2.278   1.780   0.172 -0.6943 -0.0077  1.6086
 1135SOL     OW 3552   1.701   3.352   2.881 -0.0860  0.4960 -0.6036
 1135SOL    HW1 3553   1.755   3.380   2.954  0.8756  1.7338 -1.7389
 1135SOL    HW2 3554   1.715   3.258   2.876 -0.0572  0.4106  0.6846
 1136SOL     OW 3555   1.668   0.080   0.485 -0.4811 -0.3827  0.3973
 1136SOL    HW1 3556   1.641   0.154   0.540 -0.8722 -0.5575  0.4423
 1136SOL    HW2 3557   1.730   0.118   0.423 -2.3401  0.4862 -1.0306
 1137SOL     OW 3558   1.475   1.661   2.084  0.3326  0.0465 -0.2756
 1137SOL    HW1 3559   1.569   1.660   2.066  0.9446 -0.0291  2.4461
 1137SOL    HW2 3560   1.438   1.600   2.020  2.1975 -0.2382 -1.1527
 1138SOL     OW 3561   0.236   0.301   1.443  0.3240 -0.0827 -0.0735
 1138SOL    HW1 3562   0.207   0.359   1.373 -1.6448 -1.2507 -0.3165
 1138SOL    HW2 3563   0.287   0.234   1.398  0.7193  0.2418 -0.1092
 1139SOL     OW 3564   3.261   3.658   3.526  0.3487 -0.7411 -0.9966
 1139SOL    HW1 3565   3.308   3.582   3.492  1.7458 -0.5797  0.4661
 1139SOL    HW2 3566   3.186   3.620   3.572 -1.7168 -0.9539 -4.2313
 1140SOL     OW 3567   2.479   2.422   2.019  0.4072  0.6280 -0.7055
 1140SOL    HW1 3568   2.554   2.481   2.008  0.1748  0.9879 -0.3788
 1140SOL    HW2 3569   2.518   2.337   2.040  0.6919  1.2215  1.3691
 1141SOL     OW 3570   2.706   3.184   3.603  0.8523 -0.0116 -0.2728
 1141SOL    HW1 3571   2.669   3.096   3.597 -0.5513  0.5544 -0.4207
 1141SOL    HW2 3572   2.682   3.214   3.691 -0.5385  0.9655 -0.9293
 1142SOL     OW 3573   1.192   0.287   1.030 -0.1262  0.0693 -0.4607
 1142SOL    HW1 3574   1.141   0.209   1.011 -0.9201  0.1219  1.2079
 1142SOL    HW2 3575   1.162   0.314   1.117  2.0849  0.6667  0.1737
 1143SOL     OW 3576   0.998   1.777   1.514 -0.3492 -0.3227  0.0762
 1143SOL    HW1 3577   1.046   1.823   1.583 -2.0000 -1.3048  1.9505
 1143SOL    HW2 3578   0.940   1.843   1.477  0.1534  0.0662 -0.0389
 1144SOL     OW 3579   1.675   2.692   2.171 -0.5639 -0.4852 -0.2082
 1144SOL    HW1 3580   1.629   2.680   2.254 -0.3637  2.0383  0.3376
 1144SOL    HW2 3581   1.718   2.777   2.179  1.1392 -1.0804 -2.1414
 1145SOL     OW 3582   2.350   1.716   3.260 -0.4141  0.1843 -0.3830
 1145SOL    HW1 3583   2.256   1.706   3.270 -0.4038 -0.2487 -0.7235
 1145SOL    HW2 3584   2.385   1.704   3.348 -0.5472 -1.0927 -0.4965
 1146SOL     OW 3585   0.591   3.321   3.207  0.0579  0.0589 -0.2001
 1146SOL    HW1 3586   0.618   3.413   3.208  1.8093 -0.4061  1.6260
 1146SOL    HW2 3587   0.657   3.278   3.152  0.0534 -0.2995  0.0706
 1147SOL     OW 3588   0.404   3.112   3.022  0.2065  0.1352 -0.1666
 1147SOL    HW1 3589   0.347   3.186   3.001  0.0473  0.0445 -0.0577
 1147SOL    HW2 3590   0.485   3.152   3.055 -0.0869  0.2564  0.4264
 1148SOL     OW 3591   3.214   3.177   2.910 -0.1425  0.2409  0.6184
 1148SOL    HW1 3592   3.239   3.243   2.845 -0.0866 -0.5332 -0.1652
 1148SOL    HW2 3593   3.274   3.192   2.984  2.9205 -1.6265 -1.2379
 1149SOL     OW 3594   1.933   2.060   0.395 -0.1408 -0.5739 -0.7867
 1149SOL    HW1 3595   1.883   1.983   0.420 -0.4025 -0.3243 -0.5481
 1149SOL    HW2 3596   2.014   2.053   0.446 -0.3645 -0.4427 -0.4152
 1150SOL     OW 3597   1.633   0.170   3.509  1.0976 -0.8396  0.4149
 1150SOL    HW1 3598   1.568   0.217   3.561 -0.7127 -1.7522 -0.9160
 1150SOL    HW2 3599   1.644   0.087   3.554  4.4275  0.6997  2.8660
 1151SOL     OW 3600   1.261   0.126   0.188 -0.1383 -0.5420  0.4341
 1151SOL    HW1 3601   1.235   0.064   0.256 -1.3071  0.6841  1.1571
 1151SOL    HW2 3602   1.341   0.166   0.221 -1.3409  0.9329  1.7632
 1152SOL     OW 3603   1.892   1.119   2.971  0.6997  0.1933  0.6015
 1152SOL    HW1 3604   1.914   1.083   3.057  0.9210  2.1303  1.4099
 1152SOL    HW2 3605   1.807   1.082   2.950  0.9367 -0.8132  1.3322
 1153SOL     OW 3606   0.694   0.588   3.303  0.2540 -0.1618 -0.1129
 1153SOL    HW1 3607   0.748   0.541   3.368  1.9172 -1.7168 -2.4384
 1153SOL    HW2 3608   0.748   0.589   3.224 -2.2366  0.3204 -1.9308
 1154SOL     OW 3609   3.060   1.098   3.587  0.2728  0.2935 -0.2020
 1154SOL    HW1 3610   3.091   1.101   3.496  2.1071 -1.3140  0.2984
 1154SOL    HW2 3611   3.095   1.178   3.626 -1.1778  1.3894 -1.0499
 1155SOL     OW 3612   1.958   1.387   1.973 -0.2212  0.1074  0.0710
 1155SOL    HW1 3613   1.933   1.301   2.008 -1.3508  1.6643  3.4448
 1155SOL    HW2 3614   2.053   1.391   1.984 -0.1637 -0.6636 -0.0755
 1156SOL     OW 3615   1.524   1.737   2.831  0.5094 -0.3836  0.2293
 1156SOL    HW1 3616   1.567   1.725   2.746 -2.4041  0.6897 -1.5457
 1156SOL    HW2 3617   1.473   1.817   2.820 -0.8109 -0.8272  2.6430
 1157SOL     OW 3618   0.262   1.162   3.042  0.2809  0.2050 -0.4027
 1157SOL    HW1 3619   0.233   1.147   2.952  0.2544  0.3561 -0.4191
 1157SOL    HW2 3620   0.320   1.238   3.036  0.6105 -0.0374 -0.3572
 1158SOL     OW 3621   2.276   1.935   1.693  0.1955 -0.4544  1.0657
 1158SOL    HW1 3622   2.245   1.990   1.621  2.8118 -0.5964 -0.2826
 1158SOL    HW2 3623   2.254   1.846   1.666 -0.3960 -0.3918  1.3164
 1159SOL     OW 3624   1.685   1.120   0.832  0.6270 -0.1714  0.0364
 1159SOL    HW1 3625   1.709   1.209   0.857  1.5558 -0.3942 -0.0256
 1159SOL    HW2 3626   1.590   1.117   0.843  0.4372  1.1323 -0.9135
 1160SOL     OW 3627   2.276   2.454   1.635  0.0690  0.2101  0.2759
 1160SOL    HW1 3628   2.249   2.539   1.599  2.4346 -0.3135 -3.2437
 1160SOL    HW2 3629   2.199   2.399   1.626 -0.1195  0.7498 -2.1599
 1161SOL     OW 3630   3.492   1.729   1.024 -0.1839 -0.2808 -0.5833
 1161SOL    HW1 3631   3.399   1.714   1.010  0.0249 -2.6686  0.1370
 1161SOL    HW2 3632   3.515   1.797   0.960 -2.3338  0.2236 -0.9231
 1162SOL     OW 3633   0.121   1.311   2.102  0.4714 -0.1839 -0.5027
 1162SOL    HW1 3634   0.099   1.260   2.180 -1.1599  0.6812 -0.3444
 1162SOL    HW2 3635   0.037   1.324   2.057  0.9704  1.5292 -1.0272
 1163SOL     OW 3636   1.272   1.817   0.863 -0.2304  0.6666  0.5877
 1163SOL    HW1 3637   1.199   1.879   0.852  0.8672  1.5674 -2.3236
 1163SOL    HW2 3638   1.346   1.872   0.887  0.5261  0.4104 -1.0567
 1164SOL     OW 3639   2.097   2.396   2.158 -0.4707 -0.0451 -0.0380
 1164SOL    HW1 3640   2.163   2.404   2.227  0.6544 -2.5067 -0.7183
 1164SOL    HW2 3641   2.132   2.450   2.086  0.1890 -0.3636  0.0396
 1165SOL     OW 3642   2.804   2.050   1.827  0.2422 -0.3592 -0.0317
 1165SOL    HW1 3643   2.776   1.978   1.884  2.1190 -0.1803  1.2182
 1165SOL    HW2 3644   2.880   2.016   1.781  1.8799  1.1157  1.4362
 1166SOL     OW 3645   0.137   1.052   2.239 -0.2810  0.4324 -0.6866
 1166SOL    HW1 3646   0.079   0.979   2.215 -1.6814  1.9367 -2.1257
 1166SOL    HW2 3647   0.199   1.059   2.167  0.6160 -0.0687  0.0225
 1167SOL     OW 3648   0.844   0.413   2.390 -0.2346 -0.4401 -0.4099
 1167SOL    HW1 3649   0.823   0.331   2.346 -0.8054  0.8971 -2.8010
 1167SOL    HW2 3650   0.759   0.447   2.419 -0.1817  0.0057 -0.7674
 1168SOL     OW 3651   2.588   2.223   0.200  0.3111 -0.4918  0.1961
 1168SOL    HW1 3652   2.529   2.189   0.133  1.3988 -0.1776 -0.9521
 1168SOL    HW2 3653   2.675   2.218   0.161  0.7918  1.2449  0.9319
 1169SOL     OW 3654   1.019   2.012   3.435  0.4607 -0.1510 -0.0805
 1169SOL    HW1 3655   1.012   1.937   3.494 -2.5964 -0.5381 -0.7253
 1169SOL    HW2 3656   0.969   1.985   3.357  1.8099  1.4705 -1.5937
 1170SOL     OW 3657   0.627   1.714   3.000  0.0263  0.6371  0.1688
 1170SOL    HW1 3658   0.624   1.690   2.908  0.4431 -0.8427  0.5031
 1170SOL    HW2 3659   0.654   1.633   3.045  0.8322  1.5883  1.4843
 1171SOL     OW 3660   0.031   1.686   1.466 -0.3274  0.5784  0.3219
 1171SOL    HW1 3661   0.113   1.653   1.504 -1.3777 -1.9221  0.6539
 1171SOL    HW2 3662  -0.031   1.680   1.539 -1.0869  1.2538 -0.2678
 1172SOL     OW 3663   3.324   2.883   2.301  0.1403 -0.4663  1.1336
 1172SOL    HW1 3664   3.415   2.869   2.328  0.3264 -0.6701  0.4126
 1172SOL    HW2 3665   3.293   2.796   2.275  0.2679 -0.1391 -0.2018
 1173SOL     OW 3666   0.185   0.245   0.336  0.3565 -0.2765  1.2006
 1173SOL    HW1 3667   0.217   0.214   0.421  2.2498 -0.2482  0.5550
 1173SOL    HW2 3668   0.200   0.171   0.277  0.1711  0.1161  0.6555
 1174SOL     OW 3669   1.621   1.478   1.271  0.0580  0.7053  0.1627
 1174SOL    HW1 3670   1.532   1.449   1.288  0.6010 -1.8252 -0.9156
 1174SOL    HW2 3671   1.610   1.561   1.224 -1.8067 -0.2537 -1.2229
 1175SOL     OW 3672   3.245   0.077   3.292 -0.2696  0.4209 -0.6399
 1175SOL    HW1 3673   3.271   0.031   3.372 -1.0860 -1.9266 -1.6165
 1175SOL    HW2 3674   3.157   0.110   3.311 -1.1890 -1.6381 -1.0624
 1176SOL     OW 3675   2.615   0.166   0.189  0.0808  0.2808  0.3726
 1176SOL    HW1 3676   2.656   0.156   0.103 -0.7791 -0.4129  0.0351
 1176SOL    HW2 3677   2.640   0.255   0.217  0.7148  0.3578 -0.3972
 1177SOL     OW 3678   0.763   3.177   1.627  0.2284 -0.0420 -0.4271
 1177SOL    HW1 3679   0.844   3.144   1.589 -0.4892 -1.1786 -1.0052
 1177SOL    HW2 3680   0.708   3.199   1.551 -1.2410 -2.3750 -0.1349
 1178SOL     OW 3681   2.352   0.816   3.414 -0.2387  0.0375  0.0853
 1178SOL    HW1 3682   2.392   0.840   3.330  2.1981  0.6833  1.3283
 1178SOL    HW2 3683   2.391   0.731   3.435 -0.1116  0.3092  0.9781
 1179SOL     OW 3684   1.658   0.673   3.639  0.5511  0.4439 -0.0571
 1179SOL    HW1 3685   1.674   0.601   3.700  1.0336  0.3240 -0.3233
 1179SOL    HW2 3686   1.740   0.723   3.639  0.1586  1.1029  0.2718
 1180SOL     OW 3687   0.686   2.428   0.346  0.0167  1.0420 -0.3225
 1180SOL    HW1 3688   0.644   2.465   0.424 -1.1367 -1.6673  0.4463
 1180SOL    HW2 3689   0.777   2.413   0.374 -0.7923 -1.5878  1.2648
 1181SOL     OW 3690   2.484   0.558   1.589  0.8447  0.2890  0.5264
 1181SOL    HW1 3691   2.535   0.489   1.547  0.1366  1.2524 -2.0546
 1181SOL    HW2 3692   2.544   0.596   1.653  2.1826 -0.8734  0.0066
 1182SOL     OW 3693   1.093   1.025   2.541 -0.2579  0.1638 -0.2632
 1182SOL    HW1 3694   1.042   1.080   2.601  1.0629  1.6705 -0.4605
 1182SOL    HW2 3695   1.039   0.947   2.529 -1.7857  1.0033  0.7610
 1183SOL     OW 3696   1.002   2.856   0.126 -0.0870  0.3045  0.4645
 1183SOL    HW1 3697   1.019   2.770   0.165  0.4584 -0.9207 -2.2337
 1183SOL    HW2 3698   1.044   2.852   0.040 -3.1590  1.8885 -1.2872
 1184SOL     OW 3699   2.395   3.498   1.167 -0.3117 -0.4147 -0.5875
 1184SOL    HW1 3700   2.404   3.405   1.186  1.4694  0.0009  0.8983
 1184SOL    HW2 3701   2.371   3.537   1.251  1.0554  0.7006 -0.6877
 1185SOL     OW 3702   0.322   0.805   3.149  0.1675 -0.5786  0.6154
 1185SOL    HW1 3703   0.251   0.861   3.116  0.6025 -0.1810  0.3427
 1185SOL    HW2 3704   0.289   0.716   3.137 -0.6712 -0.3900  1.3646
 1186SOL     OW 3705   0.356   3.385   2.951 -0.5054  0.8292 -0.5145
 1186SOL    HW1 3706   0.429   3.437   2.985 -0.3001 -0.0194  0.3862
 1186SOL    HW2 3707   0.366   3.390   2.856  1.9965 -0.9390 -0.4492
 1187SOL     OW 3708   0.089   3.259   1.390  0.0860 -0.7105  0.7360
 1187SOL    HW1 3709   0.047   3.272   1.475 -1.0630 -0.3881  0.1418
 1187SOL    HW2 3710   0.136   3.340   1.374 -0.8076 -0.2260  0.4761
 1188SOL     OW 3711   1.912   2.738   0.534  0.4877 -0.2769  0.5639
 1188SOL    HW1 3712   1.992   2.787   0.551  0.1399  0.8467 -0.8501
 1188SOL    HW2 3713   1.847   2.776   0.593 -0.5608  3.1824 -2.4934
 1189SOL     OW 3714   0.247   3.673   1.638 -0.6929 -0.0379  0.0953
 1189SOL    HW1 3715   0.153   3.687   1.653 -0.7057 -1.0805  1.1422
 1189SOL    HW2 3716   0.273   3.612   1.707  0.7647  0.2386 -0.1839
 1190SOL     OW 3717   3.037   2.913   1.406  0.0944  0.0324  1.0037
 1190SOL    HW1 3718   3.089   2.836   1.383 -0.1734  0.7065 -2.4039
 1190SOL    HW2 3719   2.946   2.886   1.388  0.0002  1.0924 -0.2603
 1191SOL     OW 3720   2.427   0.355   0.023 -0.3668  0.4599  0.4717
 1191SOL    HW1 3721   2.458   0.327   0.109 -1.5487 -1.0887  0.4375
 1191SOL    HW2 3722   2.338   0.320   0.017 -0.5385  1.0916 -1.1319
 1192SOL     OW 3723   1.233   0.974   1.940 -0.1403  0.1325  0.0179
 1192SOL    HW1 3724   1.270   0.940   2.021  1.0362  0.5448 -0.3158
 1192SOL    HW2 3725   1.288   1.050   1.919 -1.5062  1.0896 -0.2475
 1193SOL     OW 3726   1.907   2.345   0.374  0.7610 -0.1111  0.1019
 1193SOL    HW1 3727   1.874   2.369   0.460 -2.0556  0.5657 -1.0706
 1193SOL    HW2 3728   1.910   2.249   0.375  1.9642 -0.0940  1.3054
 1194SOL     OW 3729   0.431   2.043   0.125 -0.2375  0.0339  0.0263
 1194SOL    HW1 3730   0.378   1.977   0.170  0.7591 -0.8736 -0.0851
 1194SOL    HW2 3731   0.368   2.109   0.098 -1.0920 -0.2099  1.2957
 1195SOL     OW 3732   1.799   0.633   1.585  0.2688 -0.0601  0.5816
 1195SOL    HW1 3733   1.771   0.697   1.520 -1.3871 -0.6214  0.6842
 1195SOL    HW2 3734   1.847   0.684   1.650  0.7067  0.7391 -0.3479
 1196SOL     OW 3735   1.915   2.007   2.794  0.2606 -0.2086 -0.2213
 1196SOL    HW1 3736   1.995   2.058   2.782  0.2118  0.1197  0.7105
 1196SOL    HW2 3737   1.848   2.054   2.743  0.9501 -1.3313 -2.2643
 1197SOL     OW 3738   0.261   1.249   3.530 -0.0206 -0.3962  0.1394
 1197SOL    HW1 3739   0.209   1.321   3.495  1.4063  0.2662 -0.7068
 1197SOL    HW2 3740   0.258   1.182   3.461 -2.9843 -2.1166  1.6883
 1198SOL     OW 3741   2.813   1.614   3.591  0.0504 -0.0388  0.5598
 1198SOL    HW1 3742   2.759   1.689   3.613 -0.8948 -0.7901  0.8988
 1198SOL    HW2 3743   2.893   1.625   3.643 -0.5136  0.2164  1.3867
 1199SOL     OW 3744   2.125   0.276   0.836 -0.0226  0.2535  0.1247
 1199SOL    HW1 3745   2.155   0.276   0.927 -0.5436  1.4423  0.3131
 1199SOL    HW2 3746   2.050   0.217   0.835 -0.2559  0.5428  0.5491
 1200SOL     OW 3747   0.423   3.380   2.686  0.1160 -0.2363 -0.0223
 1200SOL    HW1 3748   0.390   3.411   2.602  1.4799  1.0369 -0.1223
 1200SOL    HW2 3749   0.428   3.285   2.677 -0.4235 -0.1652 -1.1241
 1201SOL     OW 3750   0.946   2.264   2.673  0.4104  0.1135 -1.0403
 1201SOL    HW1 3751   0.860   2.289   2.706  0.3247 -2.0242  0.6268
 1201SOL    HW2 3752   1.004   2.333   2.702 -0.0326 -0.6505  1.9885
 1202SOL     OW 3753   0.542   1.102   2.055 -0.3129 -0.5916 -0.0884
 1202SOL    HW1 3754   0.553   1.195   2.074  0.8791 -1.1325  2.2389
 1202SOL    HW2 3755   0.627   1.063   2.075 -1.1435 -2.3752  0.1912
 1203SOL     OW 3756   1.427   2.439   2.236 -0.9530  0.1512 -0.2135
 1203SOL    HW1 3757   1.460   2.350   2.247 -1.1189  0.2521  1.2477
 1203SOL    HW2 3758   1.505   2.495   2.242 -0.6958  0.0729 -2.2015
 1204SOL     OW 3759   1.650   3.126   2.613  0.1404  0.0766 -0.3301
 1204SOL    HW1 3760   1.719   3.170   2.663 -1.3154  1.5163  0.5207
 1204SOL    HW2 3761   1.585   3.101   2.678 -1.3237  1.0495 -1.3531
 1205SOL     OW 3762   2.856   0.837   1.304  0.2437 -0.7630  0.2791
 1205SOL    HW1 3763   2.856   0.799   1.216 -1.5784 -2.1448  0.8111
 1205SOL    HW2 3764   2.805   0.776   1.356  1.5758 -0.1531  2.4129
 1206SOL     OW 3765   3.098   1.357   0.016 -0.5398  0.0876  0.3458
 1206SOL    HW1 3766   3.080   1.450   0.025 -0.0961  0.1953  0.1616
 1206SOL    HW2 3767   3.011   1.315   0.014 -0.7815  0.5996 -0.6699
 1207SOL     OW 3768   0.010   3.690   3.022  0.0646 -0.1699 -0.1458
 1207SOL    HW1 3769   0.022   3.611   3.075  0.0113 -0.2100 -0.1933
 1207SOL    HW2 3770   0.076   3.751   3.054 -0.2963 -0.0107  0.3172
 1208SOL     OW 3771   2.262   0.299   1.061 -0.2300 -0.8366 -0.1065
 1208SOL    HW1 3772   2.270   0.204   1.067 -3.2352 -1.2057 -0.4186
 1208SOL    HW2 3773   2.212   0.323   1.139  1.4852  0.7116  0.5969
 1209SOL     OW 3774   0.819   0.227   0.083 -0.1689 -0.1274  0.8040
 1209SOL    HW1 3775   0.906   0.194   0.064 -0.2818 -0.5774  1.0590
 1209SOL    HW2 3776   0.822   0.320   0.059  0.4705 -0.0670  1.1102
 1210SOL     OW 3777   0.643   0.493   0.953 -0.0191  0.1004 -0.6809
 1210SOL    HW1 3778   0.706   0.451   1.012  0.0027  0.9072 -0.1230
 1210SOL    HW2 3779   0.563   0.500   1.004  0.1982  1.4312 -0.4915
 1211SOL     OW 3780   3.085   3.521   3.669 -0.5118  0.0902  0.2477
 1211SOL    HW1 3781   3.014   3.546   3.728 -1.8905  0.7143 -1.5991
 1211SOL    HW2 3782   3.054   3.443   3.625 -0.7661  1.2294 -1.6918
 1212SOL     OW 3783   1.540   3.057   0.171 -0.5695 -0.0953 -0.7737
 1212SOL    HW1 3784   1.550   3.136   0.118 -1.4518 -0.3697 -1.3614
 1212SOL    HW2 3785   1.477   3.003   0.123 -0.0195 -1.1372 -0.3517
 1213SOL     OW 3786   2.935   3.345   1.125  0.2339 -0.4236  0.2790
 1213SOL    HW1 3787   2.894   3.409   1.068  2.0284  1.0350  0.5190
 1213SOL    HW2 3788   2.902   3.365   1.212  0.6178  0.0596  0.3199
 1214SOL     OW 3789   0.312   3.404   0.337  0.3463  0.1553 -0.2151
 1214SOL    HW1 3790   0.235   3.348   0.347 -0.0223  0.7113  0.1383
 1214SOL    HW2 3791   0.317   3.453   0.419  0.1143  1.3085 -0.8595
 1215SOL     OW 3792   1.070   0.420   2.617  0.1835 -0.4957  0.2193
 1215SOL    HW1 3793   1.096   0.342   2.666 -1.3254 -1.0698  0.1736
 1215SOL    HW2 3794   0.994   0.391   2.566  0.3856  0.6790 -0.7868
 1216SOL     OW 3795   1.119   2.109   1.322  0.2141  0.0673 -0.5990
 1216SOL    HW1 3796   1.148   2.095   1.231 -0.3267 -0.5219 -0.6875
 1216SOL    HW2 3797   1.041   2.055   1.330  1.3819 -1.4867  0.8415
 1217SOL     OW 3798   1.201   2.812   0.915  0.1471  0.9615  0.0941
 1217SOL    HW1 3799   1.210   2.893   0.865  1.8502  0.6183 -0.2389
 1217SOL    HW2 3800   1.242   2.831   0.999  1.7952  0.0984 -0.4633
 1218SOL     OW 3801   3.561   0.201   1.200  0.2095  0.2900  0.6492
 1218SOL    HW1 3802   3.499   0.164   1.263  1.8893 -3.0284  0.6094
 1218SOL    HW2 3803   3.635   0.231   1.253 -0.2777  1.8451  0.5081
 1219SOL     OW 3804   2.569   1.827   1.316  0.2186 -0.2585 -0.7539
 1219SOL    HW1 3805   2.565   1.878   1.397 -1.4326 -1.9001  0.3002
 1219SOL    HW2 3806   2.563   1.891   1.246  1.8736  1.2388  0.3977
 1220SOL     OW 3807   1.402   1.889   1.897 -0.2175 -0.3047 -0.0775
 1220SOL    HW1 3808   1.448   1.824   1.950  0.6556 -0.2017 -0.6959
 1220SOL    HW2 3809   1.309   1.871   1.911  0.0023 -0.5563  1.1462
 1221SOL     OW 3810   0.090   1.650   2.198 -0.0048  0.7294 -0.3779
 1221SOL    HW1 3811   0.026   1.620   2.133 -0.5009  1.9567 -0.4793
 1221SOL    HW2 3812   0.174   1.624   2.162 -0.3181  0.8869 -1.2444
 1222SOL     OW 3813   3.478   1.474   3.182  0.4209 -0.2049  0.1582
 1222SOL    HW1 3814   3.563   1.473   3.138  0.5173  0.4806  0.3230
 1222SOL    HW2 3815   3.430   1.402   3.141  0.0554  1.1505 -1.9950
 1223SOL     OW 3816   0.107   1.664   2.485 -0.0421  0.2212 -0.4144
 1223SOL    HW1 3817   0.094   1.755   2.514  2.1318  0.3837  0.1967
 1223SOL    HW2 3818   0.143   1.673   2.397 -0.0065 -0.0601 -0.4268
 1224SOL     OW 3819   3.635   2.218   3.144  0.5624  0.0081 -0.2323
 1224SOL    HW1 3820   3.606   2.128   3.129 -3.1026  0.9297  0.3517
 1224SOL    HW2 3821   3.678   2.215   3.229 -3.0246 -0.7420  1.7927
 1225SOL     OW 3822   0.692   2.014   0.951  0.7017  0.0406 -0.2270
 1225SOL    HW1 3823   0.651   1.933   0.918  2.8893 -0.7030 -1.3030
 1225SOL    HW2 3824   0.693   2.073   0.876 -0.2337  0.8276  0.3628
 1226SOL     OW 3825   2.269   0.258   2.095 -0.1010  0.1771  0.1232
 1226SOL    HW1 3826   2.207   0.322   2.127  0.9444  1.2685  0.0376
 1226SOL    HW2 3827   2.346   0.309   2.068  0.6387 -1.0676 -0.2596
 1227SOL     OW 3828   0.458   2.450   3.184  0.2508  0.2937 -0.3248
 1227SOL    HW1 3829   0.470   2.528   3.238 -1.0945  0.7691 -0.6550
 1227SOL    HW2 3830   0.402   2.480   3.112 -1.2340 -1.2075  0.1442
 1228SOL     OW 3831   1.599   2.555   1.122  0.3547  0.1370 -0.0948
 1228SOL    HW1 3832   1.695   2.549   1.122  0.2631 -2.0336 -0.3966
 1228SOL    HW2 3833   1.577   2.592   1.037  0.9251  1.6197  0.3639
 1229SOL     OW 3834   2.566   3.430   1.722  0.2884 -0.2249  0.0182
 1229SOL    HW1 3835   2.509   3.357   1.697 -0.8948  1.3290 -2.1303
 1229SOL    HW2 3836   2.650   3.409   1.682  1.1932 -2.2363  2.6998
 1230SOL     OW 3837   2.965   2.445   2.566 -0.2955  0.3041  0.0689
 1230SOL    HW1 3838   2.892   2.458   2.504 -0.5118 -0.7972  0.0837
 1230SOL    HW2 3839   2.964   2.352   2.586  0.5057  0.4480  0.8505
 1231SOL     OW 3840   2.024   0.806   1.600  0.7135 -0.1510 -0.1912
 1231SOL    HW1 3841   2.085   0.779   1.532 -1.4856 -1.1729 -1.8612
 1231SOL    HW2 3842   2.066   0.883   1.640  2.5810 -0.1699 -1.9463
 1232SOL     OW 3843   2.136   2.020   1.934  0.9861 -0.0449 -0.3822
 1232SOL    HW1 3844   2.184   1.977   1.864 -0.0027 -2.3276  0.2555
 1232SOL    HW2 3845   2.154   1.968   2.012 -0.6551  0.3814  0.3339
 1233SOL     OW 3846   0.953   1.253   0.196 -0.1032  0.7257 -0.2197
 1233SOL    HW1 3847   0.915   1.175   0.236  2.9429 -0.2807  0.9648
 1233SOL    HW2 3848   0.881   1.290   0.144 -2.9066 -0.4783  2.4788
 1234SOL     OW 3849   1.768   2.366   1.390 -0.0330 -0.8240 -0.9931
 1234SOL    HW1 3850   1.776   2.458   1.414  0.9919 -1.1039 -0.1512
 1234SOL    HW2 3851   1.674   2.349   1.389 -0.1917 -0.1025  0.1750
 1235SOL     OW 3852   1.090   1.753   2.419 -0.0108 -0.1825  0.9644
 1235SOL    HW1 3853   1.134   1.809   2.355  1.0936 -1.6941  0.3407
 1235SOL    HW2 3854   1.090   1.666   2.379 -2.5560 -0.4804  1.4678
 1236SOL     OW 3855   2.540   1.128   2.315  0.3353  0.3988  0.7663
 1236SOL    HW1 3856   2.503   1.040   2.305 -0.2148  0.7898 -1.1038
 1236SOL    HW2 3857   2.614   1.117   2.374  1.1787 -1.5955 -0.5653
 1237SOL     OW 3858   1.453   0.919   3.348 -0.2826 -0.5072 -0.1930
 1237SOL    HW1 3859   1.520   0.968   3.397 -1.2956  0.6340  0.1220
 1237SOL    HW2 3860   1.502   0.866   3.285  0.9317 -0.1167  0.3957
 1238SOL     OW 3861   2.087   3.522   1.078  0.2016  0.0237  0.1867
 1238SOL    HW1 3862   1.996   3.491   1.075 -0.3656  1.6219 -0.2330
 1238SOL    HW2 3863   2.127   3.470   1.148 -0.8722 -1.0907  0.0252
 1239SOL     OW 3864   2.718   1.285   3.613 -0.4052  0.2929 -0.0730
 1239SOL    HW1 3865   2.633   1.324   3.632 -1.3688 -0.7747 -1.8911
 1239SOL    HW2 3866   2.748   1.331   3.534  0.7732  0.7368  0.6136
 1240SOL     OW 3867   1.399   2.136   1.913  0.7871 -0.1332 -1.1447
 1240SOL    HW1 3868   1.473   2.138   1.974 -0.7599  0.8579  0.8019
 1240SOL    HW2 3869   1.379   2.043   1.904  0.1763 -0.2693  1.0519
 1241SOL     OW 3870   2.667   0.638   0.375 -0.3648 -0.2315 -0.0792
 1241SOL    HW1 3871   2.611   0.699   0.422 -0.0403  0.0225 -0.0190
 1241SOL    HW2 3872   2.754   0.679   0.375  0.2921 -1.5094  1.5596
 1242SOL     OW 3873   2.284   3.609   1.739 -0.1996  0.1751 -0.6335
 1242SOL    HW1 3874   2.256   3.689   1.783 -2.3755 -0.4130 -0.8351
 1242SOL    HW2 3875   2.300   3.636   1.649 -0.5357  0.4626 -0.6105
 1243SOL     OW 3876   2.428   0.441   2.027 -0.0367  0.2199  0.7699
 1243SOL    HW1 3877   2.520   0.447   2.000  0.3488  0.2624  2.0407
 1243SOL    HW2 3878   2.408   0.528   2.063 -1.4679  1.2102 -2.0941
 1244SOL     OW 3879   0.143   3.261   0.514  0.4317 -0.0685 -0.5152
 1244SOL    HW1 3880   0.069   3.222   0.559 -0.6224  1.1262 -1.1693
 1244SOL    HW2 3881   0.159   3.343   0.561  0.9806 -0.0483 -0.7307
 1245SOL     OW 3882   1.663   0.415   1.279 -0.4654  0.7748 -0.4168
 1245SOL    HW1 3883   1.756   0.441   1.279 -0.2881  0.1927  0.7537
 1245SOL    HW2 3884   1.661   0.334   1.330 -1.3083 -0.4386 -2.3020
 1246SOL     OW 3885   0.457   1.112   0.400  0.2054 -0.3285 -0.9364
 1246SOL    HW1 3886   0.383   1.129   0.342 -0.5039 -0.5389 -0.1285
 1246SOL    HW2 3887   0.531   1.098   0.342 -0.1457  0.9777 -1.7487
 1247SOL     OW 3888   3.135   0.767   0.968  0.3598  0.1969  0.1129
 1247SOL    HW1 3889   3.077   0.839   0.991 -0.0540 -1.3101  5.0752
 1247SOL    HW2 3890   3.086   0.716   0.903 -1.8368  1.4217  0.7230
 1248SOL     OW 3891   2.182   0.011   2.815  0.4874 -0.3483 -0.1326
 1248SOL    HW1 3892   2.168  -0.064   2.874  0.2930  0.0671  0.3583
 1248SOL    HW2 3893   2.185   0.087   2.873 -0.2069  0.1303 -0.6944
 1249SOL     OW 3894   1.578   3.607   2.361  0.2686 -0.9838  0.0637
 1249SOL    HW1 3895   1.554   3.551   2.434  0.5661 -1.9429 -0.5552
 1249SOL    HW2 3896   1.666   3.639   2.383 -0.5819  0.6921  1.2445
 1250SOL     OW 3897   2.151   1.024   1.730  0.3881 -0.1102  0.1399
 1250SOL    HW1 3898   2.083   1.086   1.704 -0.0401 -0.3567  0.6413
 1250SOL    HW2 3899   2.228   1.078   1.746 -0.0389  0.3321  0.7674
 1251SOL     OW 3900   3.065   2.480   0.997 -0.0486 -0.0729 -0.8760
 1251SOL    HW1 3901   3.012   2.400   1.000  1.1118 -0.8483 -0.1820
 1251SOL    HW2 3902   3.142   2.455   0.946 -0.1721  0.9321 -1.5686
 1252SOL     OW 3903   2.154   0.173   1.586 -0.4884 -0.2549 -0.1026
 1252SOL    HW1 3904   2.071   0.221   1.591 -0.9058 -1.0137  0.5062
 1252SOL    HW2 3905   2.211   0.217   1.648 -0.6463 -0.1209 -0.0518
 1253SOL     OW 3906   0.261   2.767   3.652 -0.3760  0.4023 -0.0495
 1253SOL    HW1 3907   0.202   2.703   3.692 -1.9291 -0.3060 -3.1691
 1253SOL    HW2 3908   0.222   2.852   3.673 -0.8821  0.0861  0.3036
 1254SOL     OW 3909   1.435   0.718   1.934  0.4249 -0.7122 -0.3477
 1254SOL    HW1 3910   1.420   0.810   1.955  1.8405 -0.7308  0.9733
 1254SOL    HW2 3911   1.486   0.720   1.852  2.3667 -0.1561  0.7999
 1255SOL     OW 3912   1.465   1.572   0.383 -0.4538 -0.3868 -0.2535
 1255SOL    HW1 3913   1.498   1.548   0.470 -0.4669 -0.3148 -0.2286
 1255SOL    HW2 3914   1.447   1.666   0.389  1.1116 -0.0324 -0.8439
 1256SOL     OW 3915   0.161   2.032   1.682 -0.6622  0.1670  0.4949
 1256SOL    HW1 3916   0.196   2.010   1.596 -2.4146 -1.4927  0.1128
 1256SOL    HW2 3917   0.101   2.105   1.665 -0.3179  0.4480  0.4772
 1257SOL     OW 3918   1.368   3.501   1.723 -0.1378 -0.1400  0.2802
 1257SOL    HW1 3919   1.439   3.564   1.707 -1.1309  2.0056  3.4371
 1257SOL    HW2 3920   1.411   3.428   1.768  0.5992 -0.6060 -1.1144
 1258SOL     OW 3921   3.116   3.228   2.337 -0.3365 -0.5098 -0.5169
 1258SOL    HW1 3922   3.031   3.270   2.325 -0.5172 -0.7839 -0.2035
 1258SOL    HW2 3923   3.157   3.231   2.250 -1.3651 -1.8889 -1.0821
 1259SOL     OW 3924   0.917   1.207   1.592  0.1026  0.3690  0.1564
 1259SOL    HW1 3925   0.880   1.292   1.616 -0.1591  0.2531  0.1656
 1259SOL    HW2 3926   0.858   1.143   1.631  0.5382  0.1812  0.5174
 1260SOL     OW 3927   0.388   3.423   1.207  0.0420 -0.2469  0.0582
 1260SOL    HW1 3928   0.323   3.457   1.269 -1.0465 -1.8582 -0.1411
 1260SOL    HW2 3929   0.472   3.456   1.240 -0.9381  3.0662 -0.4645
 1261SOL     OW 3930   1.147   1.658   0.492 -0.1111  0.0007 -0.2390
 1261SOL    HW1 3931   1.110   1.600   0.559 -1.5922  2.2882  1.0918
 1261SOL    HW2 3932   1.081   1.663   0.424  0.4203 -0.5861 -0.8058
 1262SOL     OW 3933   0.034   2.633   3.105  0.4465  0.1085  0.1728
 1262SOL    HW1 3934   0.103   2.577   3.069  0.2965  0.1626 -0.2025
 1262SOL    HW2 3935  -0.038   2.573   3.125 -0.1430  0.3016 -1.2824
 1263SOL     OW 3936   2.388   1.545   2.767 -0.0387 -0.0038  0.5588
 1263SOL    HW1 3937   2.471   1.570   2.725  1.0700 -3.0640  0.6263
 1263SOL    HW2 3938   2.375   1.609   2.836  0.0275  3.0041 -2.0090
 1264SOL     OW 3939   1.911   2.658   0.841  0.0201  0.2513 -0.1352
 1264SOL    HW1 3940   1.837   2.714   0.818 -1.0693 -1.6576 -1.5313
 1264SOL    HW2 3941   1.956   2.642   0.758  1.5581  0.7117  0.5654
 1265SOL     OW 3942   0.652   1.704   0.128 -0.4039  0.1405 -0.4050
 1265SOL    HW1 3943   0.559   1.680   0.132 -0.0873 -1.3371 -1.1602
 1265SOL    HW2 3944   0.682   1.666   0.046  0.9218  0.4429 -0.0730
 1266SOL     OW 3945   0.899   0.475   0.849 -0.2158 -0.1412 -0.1215
 1266SOL    HW1 3946   0.955   0.510   0.918  0.4673 -0.8547 -0.2935
 1266SOL    HW2 3947   0.810   0.478   0.885 -0.2160  1.8802 -0.1911
 1267SOL     OW 3948   2.734   0.031   1.967 -0.2915  0.2878 -0.0883
 1267SOL    HW1 3949   2.640   0.043   1.950  0.0715  1.3062 -1.5144
 1267SOL    HW2 3950   2.743   0.049   2.060 -1.1034  3.1604 -0.4688
 1268SOL     OW 3951   3.285   1.000   2.461 -0.3298 -0.3890  0.7985
 1268SOL    HW1 3952   3.348   1.067   2.489  1.5456 -1.7697  0.1535
 1268SOL    HW2 3953   3.322   0.918   2.494 -0.9471 -1.4200 -0.9288
 1269SOL     OW 3954   3.533   0.005   0.945 -0.4563 -0.4629 -0.3587
 1269SOL    HW1 3955   3.480   0.062   1.002 -0.2342 -0.8083  0.1983
 1269SOL    HW2 3956   3.545   0.056   0.866 -0.1619  0.3211  0.1819
 1270SOL     OW 3957   0.943   0.271   3.265 -0.4040 -0.1988 -0.3945
 1270SOL    HW1 3958   0.991   0.305   3.189 -0.3392  0.3568 -0.1102
 1270SOL    HW2 3959   1.005   0.212   3.308  0.3297  1.0966  0.4021
 1271SOL     OW 3960   0.580   0.008   0.029  0.1400  0.2674 -0.0992
 1271SOL    HW1 3961   0.502   0.062   0.019 -0.7643 -1.3818 -3.2538
 1271SOL    HW2 3962   0.653   0.069   0.015 -0.6561  1.3606  0.3699
 1272SOL     OW 3963   0.592   1.210   2.423  0.1959  0.7107  0.0163
 1272SOL    HW1 3964   0.632   1.154   2.357  1.8240 -0.4046  1.8672
 1272SOL    HW2 3965   0.536   1.151   2.474  1.3909  0.8425  1.5545
 1273SOL     OW 3966   1.002   1.287   3.184 -0.3165  0.4509 -0.2453
 1273SOL    HW1 3967   0.908   1.267   3.187 -0.3905  0.8721  1.1192
 1273SOL    HW2 3968   1.008   1.365   3.129 -0.5225 -0.6692 -1.9307
 1274SOL     OW 3969   1.248   1.483   1.616 -0.0012  0.1529  0.0523
 1274SOL    HW1 3970   1.255   1.390   1.593  2.2649  0.3839 -0.4125
 1274SOL    HW2 3971   1.155   1.496   1.633 -0.6383 -1.8149 -1.5113
 1275SOL     OW 3972   2.190   1.710   0.598 -0.4112 -0.4279  0.5016
 1275SOL    HW1 3973   2.129   1.739   0.666 -0.7023  0.2254 -0.0247
 1275SOL    HW2 3974   2.141   1.722   0.516  0.2654 -0.3359  0.1092
 1276SOL     OW 3975   2.946   2.182   3.329  0.4111 -0.1762  0.1766
 1276SOL    HW1 3976   2.901   2.098   3.332 -0.4066  0.2452 -0.1717
 1276SOL    HW2 3977   2.944   2.208   3.237 -0.6991  0.9318  0.4796
 1277SOL     OW 3978   0.909   0.049   3.051  0.2993 -1.4136 -0.0579
 1277SOL    HW1 3979   0.941  -0.006   3.123  0.1066 -2.4795 -0.7553
 1277SOL    HW2 3980   0.984   0.056   2.992  0.7836  0.3251  0.7133
 1278SOL     OW 3981   3.348   3.399   3.442 -0.2486  0.2303  0.1795
 1278SOL    HW1 3982   3.358   3.336   3.514 -0.9153  0.4545  0.4726
 1278SOL    HW2 3983   3.354   3.346   3.363  0.9710  0.0420  0.3726
 1279SOL     OW 3984   2.891   0.643   3.141 -0.1564 -0.5768  0.1748
 1279SOL    HW1 3985   2.864   0.585   3.069  0.4396 -1.9998  1.0582
 1279SOL    HW2 3986   2.984   0.625   3.152 -0.1620 -0.0999  1.0614
 1280SOL     OW 3987   3.151   2.150   2.224  0.3679  0.2553 -0.1825
 1280SOL    HW1 3988   3.218   2.215   2.245  0.8760 -0.5257  0.6902
 1280SOL    HW2 3989   3.200   2.076   2.189 -0.3304  0.8922 -2.7148
 1281SOL     OW 3990   0.074   3.328   2.708  0.5388  0.0307  0.2474
 1281SOL    HW1 3991   0.116   3.268   2.646  2.0034  0.7485  0.5029
 1281SOL    HW2 3992   0.139   3.396   2.724 -0.7081  1.1643  0.7404
 1282SOL     OW 3993   3.339   1.041   2.903  0.0955  1.0676 -0.0404
 1282SOL    HW1 3994   3.349   1.084   2.988  0.0365  0.6645  0.1727
 1282SOL    HW2 3995   3.257   1.076   2.868 -1.1797 -0.5786  1.1549
 1283SOL     OW 3996   1.996   2.461   3.001 -0.4158 -0.2007  0.2869
 1283SOL    HW1 3997   1.930   2.437   3.066 -0.2328 -0.9465  0.2113
 1283SOL    HW2 3998   1.965   2.544   2.965 -0.9005 -0.1481  0.8040
 1284SOL     OW 3999   1.414   0.884   0.988 -0.1160 -0.0044 -0.1199
 1284SOL    HW1 4000   1.380   0.867   1.076 -1.8647  0.0817 -0.7425
 1284SOL    HW2 4001   1.338   0.873   0.930  0.8280  0.6641 -1.5430
 1285SOL     OW 4002   0.340   1.061   2.497  0.6978 -0.7012 -0.3971
 1285SOL    HW1 4003   0.262   1.065   2.442 -0.1543 -0.4030  0.8033
 1285SOL    HW2 4004   0.346   0.970   2.523  0.0508 -0.5029  0.4756
 1286SOL     OW 4005   3.293   1.622   0.452 -0.0259 -0.1100 -0.2994
 1286SOL    HW1 4006   3.225   1.635   0.518  0.6812  2.6813 -0.0189
 1286SOL    HW2 4007   3.280   1.532   0.422 -2.4568 -0.3637  1.2618
 1287SOL     OW 4008   2.289   1.291   3.006  0.0372 -0.7210 -0.4861
 1287SOL    HW1 4009   2.271   1.368   3.060  2.8603 -1.3606  1.6236
 1287SOL    HW2 4010   2.265   1.317   2.917 -1.8156  1.5201  0.5815
 1288SOL     OW 4011   2.407   0.827   3.139  0.7547  0.4162 -0.1186
 1288SOL    HW1 4012   2.355   0.748   3.122  1.8817 -0.4203  0.2103
 1288SOL    HW2 4013   2.497   0.803   3.116  0.9792  1.9334 -0.9921
 1289SOL     OW 4014   0.109   3.077   2.524 -0.1061 -0.4574 -0.0874
 1289SOL    HW1 4015   0.083   3.060   2.434  0.4558  1.2979 -0.6318
 1289SOL    HW2 4016   0.195   3.035   2.533 -0.2123 -0.7255 -0.3405
 1290SOL     OW 4017   1.005   0.503   3.657 -0.1445  0.0814 -0.4244
 1290SOL    HW1 4018   0.974   0.428   3.605 -0.5660 -0.9767  1.2913
 1290SOL    HW2 4019   0.948   0.575   3.631 -0.8291 -0.6102 -0.8910
 1291SOL     OW 4020   0.446   1.355   2.949  0.1431 -0.0112  0.4354
 1291SOL    HW1 4021   0.488   1.433   2.983 -2.2798  1.3792  0.5166
 1291SOL    HW2 4022   0.517   1.301   2.915  1.8819  2.3351  0.1400
 1292SOL     OW 4023   1.792   3.342   1.656 -0.4729 -0.1079 -0.7329
 1292SOL    HW1 4024   1.810   3.318   1.747  2.2731  0.8649 -0.9141
 1292SOL    HW2 4025   1.700   3.318   1.642 -0.5353 -1.6998  1.8033
 1293SOL     OW 4026   1.207   1.271   3.358  0.6828 -0.3014 -0.3289
 1293SOL    HW1 4027   1.151   1.287   3.282  1.8899  2.2534 -0.7920
 1293SOL    HW2 4028   1.296   1.270   3.323  1.1481 -0.8939  0.8218
 1294SOL     OW 4029   3.507   2.038   0.655  0.0763 -0.5424 -0.3596
 1294SOL    HW1 4030   3.589   2.067   0.696 -1.4902  0.2144  2.5481
 1294SOL    HW2 4031   3.466   2.119   0.625 -0.4555 -0.6865 -0.0305
 1295SOL     OW 4032   0.179   1.513   3.120  0.0721  0.4219  0.2718
 1295SOL    HW1 4033   0.211   1.432   3.161 -0.2459  0.4459  0.5697
 1295SOL    HW2 4034   0.242   1.580   3.147 -1.2190  0.8515  2.4225
 1296SOL     OW 4035   0.922   2.059   0.332 -0.7542  0.4143  0.4180
 1296SOL    HW1 4036   0.856   2.096   0.273 -0.6914 -1.8386 -1.2364
 1296SOL    HW2 4037   0.937   1.971   0.298  0.5711 -0.3997  2.8556
 1297SOL     OW 4038   1.929   3.016   0.782  0.2249  0.1286  0.2871
 1297SOL    HW1 4039   1.853   2.994   0.729 -0.9922  1.2475  1.4907
 1297SOL    HW2 4040   1.999   3.033   0.718 -0.9388  0.5691 -0.9150
 1298SOL     OW 4041   2.301   3.092   2.551  0.3777 -1.0514 -0.2089
 1298SOL    HW1 4042   2.301   3.187   2.536  1.0927 -1.1451 -0.9082
 1298SOL    HW2 4043   2.298   3.082   2.646 -1.0410 -0.3525 -0.1640
 1299SOL     OW 4044   0.850   1.200   2.581  0.1149 -0.5214 -0.4368
 1299SOL    HW1 4045   0.769   1.241   2.550  0.3155 -0.2997 -0.6797
 1299SOL    HW2 4046   0.919   1.262   2.555  0.3135 -0.4449  0.2476
 1300SOL     OW 4047   0.976   3.646   3.620 -0.0779  0.1240  0.1219
 1300SOL    HW1 4048   0.963   3.560   3.580  2.8635 -0.3217 -0.1246
 1300SOL    HW2 4049   1.051   3.634   3.679  0.3553  2.4704  0.1460
 1301SOL     OW 4050   3.061   0.893   0.660 -0.1646  0.8815 -0.1463
 1301SOL    HW1 4051   3.079   0.894   0.566  1.1020 -1.4474  0.0019
 1301SOL    HW2 4052   3.136   0.938   0.700 -0.2712  1.0967 -0.1857
 1302SOL     OW 4053   2.300   2.085   3.490 -0.0346  0.6127 -0.0195
 1302SOL    HW1 4054   2.204   2.085   3.496 -0.0326  0.7548  0.0144
 1302SOL    HW2 4055   2.321   2.169   3.451  0.1256  0.9669  0.8060
 1303SOL     OW 4056   1.863   2.086   1.673  0.0210  0.4611  0.2094
 1303SOL    HW1 4057   1.771   2.112   1.671 -0.0796  0.1663 -1.9235
 1303SOL    HW2 4058   1.864   2.006   1.725 -1.3317 -0.6871 -1.4161
 1304SOL     OW 4059   1.954   1.217   1.355  0.3217 -0.5626  0.6913
 1304SOL    HW1 4060   2.042   1.216   1.392  0.6761  0.0471 -0.1106
 1304SOL    HW2 4061   1.958   1.282   1.285 -0.7955 -0.4533  0.7147
 1305SOL     OW 4062   0.855   1.362   0.845  0.3670  0.7377 -0.5197
 1305SOL    HW1 4063   0.864   1.321   0.758 -2.5476 -0.8879 -0.1766
 1305SOL    HW2 4064   0.905   1.444   0.838  2.1228 -0.4166 -2.9549
 1306SOL     OW 4065   0.966   3.296   0.462  0.2485  0.2199 -0.1194
 1306SOL    HW1 4066   1.025   3.366   0.432  0.5921  0.2293  0.5613
 1306SOL    HW2 4067   0.909   3.339   0.526  1.2718 -0.3679  1.2510
 1307SOL     OW 4068   2.527   1.843   0.896 -0.6532  0.1202  0.3910
 1307SOL    HW1 4069   2.486   1.855   0.810 -0.6386  1.8784  0.5810
 1307SOL    HW2 4070   2.463   1.793   0.946 -1.9648  1.5122  0.2091
 1308SOL     OW 4071   2.327   1.711   1.059  0.0184  0.4670 -0.4760
 1308SOL    HW1 4072   2.270   1.637   1.081  1.4795 -0.9289 -1.1342
 1308SOL    HW2 4073   2.318   1.772   1.132  1.0079 -1.7439  1.6053
 1309SOL     OW 4074   2.106   2.046   1.481  0.5777 -0.2999 -0.0964
 1309SOL    HW1 4075   2.034   2.064   1.542  0.3649  0.8281 -0.6625
 1309SOL    HW2 4076   2.135   2.132   1.451 -0.8280 -0.7665 -3.2956
 1310SOL     OW 4077   1.766   2.981   2.268  0.3505  0.1194  0.2392
 1310SOL    HW1 4078   1.693   2.986   2.330  1.3191  1.7628  1.3329
 1310SOL    HW2 4079   1.821   3.055   2.291  3.9815 -2.6716  1.4862
 1311SOL     OW 4080   0.121   2.722   2.584 -0.0465  0.0375  0.4929
 1311SOL    HW1 4081   0.126   2.788   2.653 -1.4878  1.5428 -0.7789
 1311SOL    HW2 4082   0.028   2.714   2.565  0.2571 -0.9802 -0.6959
 1312SOL     OW 4083   1.698   1.496   2.490  0.4180  0.6201 -0.8409
 1312SOL    HW1 4084   1.687   1.524   2.581 -0.3501  0.8464 -0.9936
 1312SOL    HW2 4085   1.637   1.551   2.440  0.2750 -0.0206 -1.3917
 1313SOL     OW 4086   1.499   3.119   0.874  0.2869 -0.1361  1.3755
 1313SOL    HW1 4087   1.455   3.120   0.789  1.1733 -1.9758  0.8422
 1313SOL    HW2 4088   1.504   3.211   0.900  0.4703  0.5252 -0.8239
 1314SOL     OW 4089   1.393   0.510   0.330 -0.0515  0.0623 -0.1231
 1314SOL    HW1 4090   1.323   0.493   0.394 -0.7757  1.3743 -0.5304
 1314SOL    HW2 4091   1.455   0.565   0.377  0.5237 -0.7554  0.1027
 1315SOL     OW 4092   0.297   1.747   0.757 -0.8005 -0.3288  0.8895
 1315SOL    HW1 4093   0.329   1.659   0.776 -1.1592 -0.5914  0.2973
 1315SOL    HW2 4094   0.298   1.753   0.661  0.6929  0.8616  0.9412
 1316SOL     OW 4095   1.531   2.240   2.562  0.3150 -0.4716  0.0552
 1316SOL    HW1 4096   1.482   2.316   2.595  1.9085 -0.1645  1.9040
 1316SOL    HW2 4097   1.614   2.277   2.531  0.4512 -1.2763 -0.5615
 1317SOL     OW 4098   3.439   1.788   3.544  0.4091  0.2058  0.2984
 1317SOL    HW1 4099   3.526   1.775   3.581  0.6898  1.5730  0.1498
 1317SOL    HW2 4100   3.392   1.840   3.609 -0.0467  0.1302  0.0343
 1318SOL     OW 4101   3.248   2.829   0.308  0.3384  0.7338 -0.4450
 1318SOL    HW1 4102   3.212   2.851   0.222  2.0233 -0.3880 -1.5026
 1318SOL    HW2 4103   3.342   2.846   0.299  0.9654 -1.9070  0.2804
 1319SOL     OW 4104   0.192   3.023   0.040  0.4647 -0.3916 -0.5944
 1319SOL    HW1 4105   0.253   3.024   0.114  0.5656  1.2344 -0.6720
 1319SOL    HW2 4106   0.187   3.114   0.012 -0.7922 -0.7491 -1.6025
 1320SOL     OW 4107   2.476   3.134   2.975  0.3403  0.5184  0.2390
 1320SOL    HW1 4108   2.547   3.139   2.911  0.4560 -1.2088  0.2065
 1320SOL    HW2 4109   2.414   3.071   2.938  1.3183 -2.0393  2.6176
 1321SOL     OW 4110   2.584   0.864   0.803 -0.3795 -0.3258 -0.2101
 1321SOL    HW1 4111   2.551   0.791   0.855 -0.0427  1.3380  2.5012
 1321SOL    HW2 4112   2.679   0.863   0.818 -0.2707  0.1701 -0.8232
 1322SOL     OW 4113   0.932   1.450   2.343 -0.4969  0.6460  0.3103
 1322SOL    HW1 4114   0.876   1.418   2.271 -1.1277  2.5706 -0.1155
 1322SOL    HW2 4115   1.021   1.444   2.309 -0.7993  1.7077 -0.7595
 1323SOL     OW 4116   1.002   0.278   0.453  0.1666 -0.0317  0.4464
 1323SOL    HW1 4117   0.930   0.328   0.492  1.9121  1.5767  1.7966
 1323SOL    HW2 4118   1.038   0.337   0.387  0.9766 -0.3395  0.6111
 1324SOL     OW 4119   2.076   0.944   3.491  0.1368 -0.6438  0.3555
 1324SOL    HW1 4120   2.141   0.881   3.461 -0.4116 -1.8004  1.4982
 1324SOL    HW2 4121   2.094   1.023   3.440  1.5239 -1.3774 -0.3531
 1325SOL     OW 4122   3.662   3.508   1.090  0.0680  0.0427 -0.2920
 1325SOL    HW1 4123   3.681   3.547   1.175 -2.4972 -0.8848  0.8251
 1325SOL    HW2 4124   3.596   3.565   1.051  1.0724  0.3496 -1.6428
 1326SOL     OW 4125   0.556   1.087   0.889 -0.9721  0.7458  0.0976
 1326SOL    HW1 4126   0.471   1.100   0.932 -0.6199 -1.0458  1.4695
 1326SOL    HW2 4127   0.533   1.053   0.802 -1.6669  0.4547  0.3842
 1327SOL     OW 4128   2.239   0.329   2.595 -0.0199 -0.4062 -0.0672
 1327SOL    HW1 4129   2.265   0.292   2.511  0.3511 -0.5587  0.1156
 1327SOL    HW2 4130   2.145   0.347   2.585 -0.3325 -1.8873  0.0093
 1328SOL     OW 4131   1.317   1.444   0.198 -0.2345  0.3416  0.7064
 1328SOL    HW1 4132   1.359   1.492   0.270  0.1517 -0.1363  0.8073
 1328SOL    HW2 4133   1.370   1.364   0.189 -0.2942  0.3857 -0.0902
 1329SOL     OW 4134   2.710   2.848   2.099  0.4201 -0.6192  0.2752
 1329SOL    HW1 4135   2.790   2.854   2.048  0.6747 -1.6751  0.5146
 1329SOL    HW2 4136   2.656   2.785   2.051 -0.7597  0.9115 -0.4989
 1330SOL     OW 4137   0.764   3.312   2.316 -0.0189 -0.4105  0.8339
 1330SOL    HW1 4138   0.798   3.367   2.247 -1.3980  0.3057  0.6897
 1330SOL    HW2 4139   0.777   3.222   2.285  0.8826 -0.1367  0.4098
 1331SOL     OW 4140   0.312   1.155   2.775 -0.0645  0.1068  0.7744
 1331SOL    HW1 4141   0.336   1.244   2.800 -2.4647  1.1184 -0.1645
 1331SOL    HW2 4142   0.317   1.155   2.679 -1.1809 -0.3953  0.7010
 1332SOL     OW 4143   1.578   0.564   2.428  0.2597  0.5307 -0.9027
 1332SOL    HW1 4144   1.576   0.643   2.375 -0.7908 -0.3252 -2.2182
 1332SOL    HW2 4145   1.636   0.504   2.382  0.7421  0.3805 -0.1282
 1333SOL     OW 4146   1.654   0.791   1.406 -0.4767  0.3129 -0.0750
 1333SOL    HW1 4147   1.643   0.761   1.315  2.4105  0.4430 -0.5582
 1333SOL    HW2 4148   1.626   0.882   1.405  2.9908  1.5409 -1.8924
 1334SOL     OW 4149   2.413   2.661   0.227  0.4423  0.5386 -0.3566
 1334SOL    HW1 4150   2.381   2.657   0.317  1.2996  0.4056 -0.0496
 1334SOL    HW2 4151   2.346   2.711   0.180 -1.1726 -1.3597 -0.1775
 1335SOL     OW 4152   0.294   1.601   3.533  0.3112  0.2575  0.3471
 1335SOL    HW1 4153   0.210   1.647   3.541 -0.0492 -0.2830 -0.2738
 1335SOL    HW2 4154   0.272   1.518   3.492  1.0489 -0.2239  0.9037
 1336SOL     OW 4155   0.035   0.965   0.605 -0.1488 -0.0635 -0.5109
 1336SOL    HW1 4156   0.089   0.895   0.641 -2.1855 -0.2049  2.7751
 1336SOL    HW2 4157   0.006   0.932   0.520  1.1810 -1.9513 -0.3013
 1337SOL     OW 4158   0.458   2.201   0.478 -0.2514  0.6363 -0.1405
 1337SOL    HW1 4159   0.504   2.184   0.560 -2.2400 -1.2956  0.6707
 1337SOL    HW2 4160   0.513   2.160   0.411 -0.2555 -0.7776  0.6756
 1338SOL     OW 4161   3.108   2.273   0.224  0.4423  0.0931  0.2166
 1338SOL    HW1 4162   3.070   2.192   0.190  2.2308 -0.3441 -0.8444
 1338SOL    HW2 4163   3.044   2.304   0.288 -0.7965 -1.5674 -0.1494
 1339SOL     OW 4164   0.334   1.559   0.129  0.0482  0.3911  0.0377
 1339SOL    HW1 4165   0.270   1.558   0.058 -0.5904 -0.5092  0.5964
 1339SOL    HW2 4166   0.332   1.470   0.164  0.8812  0.6250  0.7121
 1340SOL     OW 4167   1.911   1.461   2.318 -0.1568  0.1939 -0.2307
 1340SOL    HW1 4168   1.836   1.433   2.370 -0.4835  1.4370  0.0133
 1340SOL    HW2 4169   1.980   1.479   2.383 -0.7371  2.2802 -0.1027
 1341SOL     OW 4170   2.903   1.937   1.175  0.2779  0.0811  0.2109
 1341SOL    HW1 4171   2.997   1.920   1.176  0.1675 -0.7294 -0.7427
 1341SOL    HW2 4172   2.876   1.918   1.085 -0.9417 -0.5630  0.6755
 1342SOL     OW 4173   1.117   0.955   1.703  0.1616 -0.3826 -0.7143
 1342SOL    HW1 4174   1.152   0.944   1.791 -0.5607  0.8548 -0.2538
 1342SOL    HW2 4175   1.193   0.978   1.650  0.2023  1.5799  0.1376
 1343SOL     OW 4176   1.225   2.512   1.108 -0.4609 -0.0600 -0.4107
 1343SOL    HW1 4177   1.256   2.523   1.198  0.1645 -0.6739 -0.5418
 1343SOL    HW2 4178   1.250   2.593   1.064  1.5163 -0.7655 -0.6565
 1344SOL     OW 4179   0.130   3.634   2.138  0.1918  0.1523 -0.4079
 1344SOL    HW1 4180   0.100   3.578   2.066  0.0294 -1.5481  0.9099
 1344SOL    HW2 4181   0.187   3.698   2.096  1.2255 -1.6220 -1.8883
 1345SOL     OW 4182   3.178   0.268   0.769 -0.5541 -0.0702  0.3196
 1345SOL    HW1 4183   3.232   0.252   0.692 -1.7750  2.4006 -1.2100
 1345SOL    HW2 4184   3.234   0.318   0.828  0.1433 -1.2903  0.7129
 1346SOL     OW 4185   0.326   2.370   0.252 -0.3527  0.3067 -0.3940
 1346SOL    HW1 4186   0.305   2.443   0.310 -1.8636  0.6055 -1.2638
 1346SOL    HW2 4187   0.380   2.312   0.305 -0.8148  1.0805  0.9648
 1347SOL     OW 4188   1.339   3.391   2.739  0.4891  0.4885 -0.2692
 1347SOL    HW1 4189   1.297   3.362   2.658 -0.4939  1.1449 -0.0053
 1347SOL    HW2 4190   1.313   3.326   2.804 -0.7135  1.2658  0.0490
 1348SOL     OW 4191   3.740   1.122   1.115 -0.4147  0.2037  0.2848
 1348SOL    HW1 4192   3.736   1.077   1.031 -0.3051 -0.2950  0.5420
 1348SOL    HW2 4193   3.667   1.087   1.165 -1.1218  1.2764  0.0306
 1349SOL     OW 4194   2.055   0.824   2.881  0.0713  0.2575 -0.3311
 1349SOL    HW1 4195   2.145   0.790   2.885  0.3447  1.0178  0.2677
 1349SOL    HW2 4196   2.038   0.857   2.969 -1.5638 -1.7309  0.1629
 1350SOL     OW 4197   0.596   2.648   1.490 -0.3923  0.5217 -0.2482
 1350SOL    HW1 4198   0.679   2.605   1.472 -0.6243 -0.0398 -0.0146
 1350SOL    HW2 4199   0.578   2.628   1.582  0.8188  3.3812  0.7241
 1351SOL     OW 4200   1.561   1.487   0.620  0.0753 -0.4331  0.5333
 1351SOL    HW1 4201   1.641   1.446   0.653  1.1845  2.2763  1.5204
 1351SOL    HW2 4202   1.529   1.539   0.693 -0.9330  0.8457 -0.7520
 1352SOL     OW 4203   2.002   0.605   3.411  0.0608  0.1576 -0.6683
 1352SOL    HW1 4204   1.923   0.639   3.369 -0.3138 -0.4020 -0.4353
 1352SOL    HW2 4205   2.060   0.581   3.338 -0.0451  0.4309 -0.8420
 1353SOL     OW 4206   0.173   3.330   3.630  0.7294  0.1272  0.0158
 1353SOL    HW1 4207   0.155   3.423   3.644  1.3555  0.6701 -2.3618
 1353SOL    HW2 4208   0.243   3.309   3.693  2.1481  1.8789 -0.8845
 1354SOL     OW 4209   3.502   1.151   0.541  0.4248  0.5027 -0.4883
 1354SOL    HW1 4210   3.562   1.078   0.557  0.7723  0.8182 -0.3342
 1354SOL    HW2 4211   3.472   1.177   0.628  1.6826  1.6871 -0.3692
 1355SOL     OW 4212   0.518   1.423   1.820  0.2639 -0.5466  0.1469
 1355SOL    HW1 4213   0.483   1.385   1.900  1.9992 -1.6369  0.4418
 1355SOL    HW2 4214   0.499   1.359   1.752 -0.9724  0.2568 -0.2933
 1356SOL     OW 4215   1.023   1.834   1.108  0.1687  0.5634 -0.1015
 1356SOL    HW1 4216   1.027   1.773   1.035  0.9262 -0.6455  0.9048
 1356SOL    HW2 4217   0.993   1.916   1.070  0.8385  0.0468 -1.8085
 1357SOL     OW 4218   2.406   3.277   2.171 -0.3305  0.4601  0.2283
 1357SOL    HW1 4219   2.360   3.299   2.090 -0.4959  1.1824  0.5126
 1357SOL    HW2 4220   2.481   3.337   2.172  0.2972 -0.3011  0.0645
 1358SOL     OW 4221   1.658   2.606   1.675 -0.4928 -0.0315 -0.4947
 1358SOL    HW1 4222   1.708   2.525   1.668 -1.8847 -1.1435  1.5277
 1358SOL    HW2 4223   1.699   2.665   1.612  1.2180 -1.9516 -1.2799
 1359SOL     OW 4224   2.854   1.288   1.332  0.1079  0.4816 -0.1684
 1359SOL    HW1 4225   2.890   1.319   1.249 -0.0538  0.4682 -0.2434
 1359SOL    HW2 4226   2.801   1.212   1.308  0.1031  0.4470 -0.0471
 1360SOL     OW 4227   2.095   3.292  -0.023 -0.3404  0.7088  0.1606
 1360SOL    HW1 4228   2.019   3.284   0.035 -0.2812 -0.7256  0.0856
 1360SOL    HW2 4229   2.151   3.217   0.000  0.8520  1.5027 -0.0735
 1361SOL     OW 4230   1.729   0.962   2.236  0.0387  0.4037  0.1628
 1361SOL    HW1 4231   1.685   0.882   2.207 -1.0961  1.4518 -1.1824
 1361SOL    HW2 4232   1.706   0.970   2.329 -2.2735  0.6063 -0.3484
 1362SOL     OW 4233   3.330   2.289   0.597  0.0309  0.3334 -0.2040
 1362SOL    HW1 4234   3.250   2.256   0.638  0.3819 -2.6926 -1.6320
 1362SOL    HW2 4235   3.316   2.273   0.503  2.3225 -0.4804 -0.4662
 1363SOL     OW 4236   3.573   0.859   1.546  1.1503 -0.5437  0.0212
 1363SOL    HW1 4237   3.603   0.771   1.567  2.4917  0.2106  1.5304
 1363SOL    HW2 4238   3.517   0.883   1.620  0.2925 -0.3560 -0.6841
 1364SOL     OW 4239   1.879   3.128   2.871  0.1639 -0.4370  0.3858
 1364SOL    HW1 4240   1.936   3.194   2.831 -0.5728 -0.1801 -0.2746
 1364SOL    HW2 4241   1.921   3.044   2.851  0.5498 -0.2246  0.3009
 1365SOL     OW 4242   2.752   1.047   3.445  0.4637 -0.3247  0.2163
 1365SOL    HW1 4243   2.753   1.027   3.538  4.2009 -0.5858  0.2592
 1365SOL    HW2 4244   2.772   1.141   3.440 -0.0096 -0.2436 -0.3562
 1366SOL     OW 4245   3.069   1.241   2.323  0.2816 -0.2978  0.0204
 1366SOL    HW1 4246   3.029   1.154   2.328  1.6247 -0.8973  0.9091
 1366SOL    HW2 4247   2.998   1.301   2.344 -0.4028 -1.2606  0.5471
 1367SOL     OW 4248   3.559   0.528   3.573  0.0035 -0.6040  0.0490
 1367SOL    HW1 4249   3.509   0.598   3.616 -0.2247 -1.1159  0.6333
 1367SOL    HW2 4250   3.535   0.448   3.620  0.6250 -1.0119 -0.3016
 1368SOL     OW 4251   2.687   0.669   3.495  0.1707  0.2126  0.8191
 1368SOL    HW1 4252   2.663   0.743   3.550 -2.4491  0.8293 -0.9805
 1368SOL    HW2 4253   2.771   0.694   3.456  0.0310  1.5769  1.3438
 1369SOL     OW 4254   2.395   0.278   2.804 -0.0816 -0.2288  1.2622
 1369SOL    HW1 4255   2.350   0.280   2.719 -2.5145  0.7703  2.4588
 1369SOL    HW2 4256   2.324   0.275   2.868  1.4440  3.0979  3.3847
 1370SOL     OW 4257   1.168   0.850   3.173  0.4411  0.1352  0.0620
 1370SOL    HW1 4258   1.108   0.808   3.235  0.0980 -0.4411 -0.6461
 1370SOL    HW2 4259   1.180   0.938   3.207 -0.9310  0.3085  0.1518
 1371SOL     OW 4260   1.041   0.020   0.353 -0.6719 -0.2230 -0.3829
 1371SOL    HW1 4261   1.021   0.100   0.402 -0.1515 -1.3651  1.8035
 1371SOL    HW2 4262   0.955  -0.018   0.334 -0.8867 -0.4632  0.9408
 1372SOL     OW 4263   2.678   0.319   1.649  0.0017  0.5738 -0.7404
 1372SOL    HW1 4264   2.696   0.226   1.667 -3.3749  0.1078  1.3175
 1372SOL    HW2 4265   2.715   0.335   1.563  0.2542 -2.8575 -1.4167
 1373SOL     OW 4266   3.147   1.142   3.334 -0.1999  0.2134 -0.2511
 1373SOL    HW1 4267   3.093   1.074   3.293 -0.3007 -1.0864  1.8726
 1373SOL    HW2 4268   3.229   1.098   3.355 -1.1231 -0.1180  3.3651
 1374SOL     OW 4269   3.570   0.209   2.508  0.2232  0.2833  0.3637
 1374SOL    HW1 4270   3.616   0.149   2.451  2.5866  0.0588  2.3636
 1374SOL    HW2 4271   3.630   0.225   2.581 -1.7908  2.1785  1.7562
 1375SOL     OW 4272   1.277   1.112   0.163  0.1252 -0.0016 -0.4044
 1375SOL    HW1 4273   1.225   1.037   0.135 -0.1185  0.7590 -2.1674
 1375SOL    HW2 4274   1.289   1.164   0.083  0.1053  1.9348  0.7714
 1376SOL     OW 4275   0.709   3.104   0.087  0.5658  0.6588  0.0699
 1376SOL    HW1 4276   0.802   3.117   0.068  0.2102 -0.4206 -3.0760
 1376SOL    HW2 4277   0.665   3.125   0.005 -1.6047 -2.3152  0.2899
 1377SOL     OW 4278   0.742   1.793   2.310  0.4170  0.3730 -0.0002
 1377SOL    HW1 4279   0.795   1.718   2.283  1.2417  0.6739  0.7390
 1377SOL    HW2 4280   0.760   1.803   2.403  0.0094  1.2425 -0.0049
 1378SOL     OW 4281   0.283   0.139   0.551  0.0059 -0.6353 -0.1727
 1378SOL    HW1 4282   0.219   0.073   0.579  1.4247 -1.8875  0.2343
 1378SOL    HW2 4283   0.281   0.205   0.620  0.2744 -1.4593  0.6375
 1379SOL     OW 4284   1.544   3.647   1.413  0.0755  0.6078 -0.0578
 1379SOL    HW1 4285   1.632   3.608   1.414 -0.8992 -1.7393  0.4733
 1379SOL    HW2 4286   1.510   3.631   1.501 -1.3374  0.3717 -0.6229
 1380SOL     OW 4287   0.340   0.124   3.638  0.2637 -0.0213  0.3914
 1380SOL    HW1 4288   0.250   0.153   3.624  0.2173 -1.3236 -2.8473
 1380SOL    HW2 4289   0.332   0.035   3.672  0.3033 -0.3083 -0.3388
 1381SOL     OW 4290   1.397   0.105   1.825  0.0929 -0.5861 -0.3966
 1381SOL    HW1 4291   1.460   0.081   1.893 -0.5511 -0.9717  0.0753
 1381SOL    HW2 4292   1.321   0.139   1.873  0.1200  0.3233 -0.9759
 1382SOL     OW 4293   3.140   0.665   2.830  0.0079  0.3048 -0.6137
 1382SOL    HW1 4294   3.051   0.664   2.796 -0.0076  2.9437 -0.8181
 1382SOL    HW2 4295   3.169   0.574   2.823 -2.2660 -0.4167 -1.5469
 1383SOL     OW 4296   2.154   2.496   2.569 -0.2191  0.1924 -0.4816
 1383SOL    HW1 4297   2.183   2.478   2.479 -0.8815 -2.5112 -0.2495
 1383SOL    HW2 4298   2.197   2.430   2.622 -0.5507  1.1800  1.0783
 1384SOL     OW 4299   2.305   3.099   0.213 -0.4130 -0.3008 -0.0408
 1384SOL    HW1 4300   2.248   3.103   0.290 -0.2200 -1.6711  0.1995
 1384SOL    HW2 4301   2.362   3.024   0.229 -0.2749 -0.5233 -1.4641
 1385SOL     OW 4302   0.471   0.401   3.538 -0.3863  0.7454 -0.3737
 1385SOL    HW1 4303   0.382   0.433   3.552 -1.6340 -1.3154 -2.7472
 1385SOL    HW2 4304   0.463   0.305   3.542  1.0687  0.3626 -3.4553
 1386SOL     OW 4305   0.090   2.397   2.677 -0.3894 -0.5312 -0.1453
 1386SOL    HW1 4306   0.123   2.347   2.752  0.3880 -1.2808 -0.9647
 1386SOL    HW2 4307   0.029   2.460   2.715  1.9920  0.9702  1.4729
 1387SOL     OW 4308   1.773   0.407   2.273  0.3574 -0.3648  0.4274
 1387SOL    HW1 4309   1.855   0.424   2.227  0.1479 -1.3349 -0.3498
 1387SOL    HW2 4310   1.710   0.390   2.204 -0.0756 -1.3979  1.0506
 1388SOL     OW 4311   2.849   1.933   3.671 -0.0646 -1.1338  0.0676
 1388SOL    HW1 4312   2.930   1.922   3.720 -0.1003 -0.3774  0.3075
 1388SOL    HW2 4313   2.821   2.022   3.690 -0.0476 -0.7853 -1.3833
 1389SOL     OW 4314   2.697   0.728   2.460 -0.0663  0.0909 -0.8640
 1389SOL    HW1 4315   2.703   0.815   2.499 -1.9595 -0.3062  0.4984
 1389SOL    HW2 4316   2.632   0.738   2.391  1.0160  0.1135 -1.9011
 1390SOL     OW 4317   1.727   1.502   2.805 -0.4148 -0.6139 -0.0551
 1390SOL    HW1 4318   1.788   1.575   2.794 -1.2520 -0.0136 -0.7821
 1390SOL    HW2 4319   1.747   1.468   2.892 -1.3254  1.7365  1.1657
 1391SOL     OW 4320   0.734   2.475   3.681  0.3645 -0.2439  0.5523
 1391SOL    HW1 4321   0.645   2.443   3.693 -0.1160  0.4619 -0.9191
 1391SOL    HW2 4322   0.789   2.410   3.725 -0.9387  0.1089  2.8304
 1392SOL     OW 4323   2.480   0.155   1.828  0.0351 -0.0155 -0.0925
 1392SOL    HW1 4324   2.385   0.168   1.826  0.0203 -0.1778 -1.1214
 1392SOL    HW2 4325   2.516   0.243   1.823 -0.0857 -0.0043 -3.1730
 1393SOL     OW 4326   1.541   2.930   2.439 -0.0414 -1.1289 -0.7633
 1393SOL    HW1 4327   1.488   2.971   2.371  1.1820 -1.2229 -1.8190
 1393SOL    HW2 4328   1.568   3.002   2.495  1.5739 -0.5152 -2.2466
 1394SOL     OW 4329   0.739   2.205   3.191 -0.1485 -0.1710  0.7585
 1394SOL    HW1 4330   0.690   2.258   3.255 -0.3350 -0.8066  1.1492
 1394SOL    HW2 4331   0.758   2.266   3.120 -2.9615 -0.2864 -0.1909
 1395SOL     OW 4332   0.464   1.285   3.722  0.3888 -0.2112  0.7681
 1395SOL    HW1 4333   0.383   1.295   3.671  1.0994  0.0562 -0.3416
 1395SOL    HW2 4334   0.490   1.194   3.708  0.8315 -0.0119  0.2570
 1396SOL     OW 4335   1.020   0.510   0.242  0.1667 -0.0660  0.2109
 1396SOL    HW1 4336   1.024   0.496   0.147  1.7923  0.0562  0.2306
 1396SOL    HW2 4337   0.974   0.593   0.252 -0.2250 -0.1940 -0.4518
 1397SOL     OW 4338   0.952   2.604   2.367  0.1045 -0.7388  0.3279
 1397SOL    HW1 4339   0.927   2.589   2.276  0.0591  1.3667 -0.0525
 1397SOL    HW2 4340   0.983   2.519   2.397 -0.8197 -1.7264 -1.3408
 1398SOL     OW 4341   0.886   1.498   1.099 -0.2742 -0.1397 -0.3372
 1398SOL    HW1 4342   0.921   1.555   1.031 -0.3385  0.3327  0.0176
 1398SOL    HW2 4343   0.937   1.519   1.177 -0.5492 -0.3012 -0.1101
 1399SOL     OW 4344   2.409   2.242   1.468  0.2815 -0.1679  0.6570
 1399SOL    HW1 4345   2.462   2.166   1.495 -0.3010 -0.2865  1.4856
 1399SOL    HW2 4346   2.378   2.280   1.550 -1.5278 -0.5248  0.1675
 1400SOL     OW 4347   2.793   2.801   1.361 -0.6314  0.1137  0.1228
 1400SOL    HW1 4348   2.774   2.725   1.417 -1.0001 -0.1527 -0.3584
 1400SOL    HW2 4349   2.731   2.794   1.289 -1.3429  1.4298  0.5890
 1401SOL     OW 4350   1.875   3.588   3.618  0.3554 -0.2193  0.2136
 1401SOL    HW1 4351   1.785   3.589   3.586  0.0618 -0.9208  0.9694
 1401SOL    HW2 4352   1.905   3.678   3.608 -0.1831 -0.1249 -0.7042
 1402SOL     OW 4353   3.122   1.614   0.660  0.4242 -0.1681  0.1954
 1402SOL    HW1 4354   3.130   1.648   0.749  2.6284  0.0602 -0.0313
 1402SOL    HW2 4355   3.145   1.521   0.668  0.9203 -0.0816 -0.1495
 1403SOL     OW 4356   1.385   1.479   3.515  0.0513 -0.0654 -0.0191
 1403SOL    HW1 4357   1.476   1.505   3.502  0.1447 -0.9485 -1.2193
 1403SOL    HW2 4358   1.370   1.494   3.609  0.9705  1.4755 -0.0696
 1404SOL     OW 4359   0.682   1.528   2.805 -0.5474  0.2464  0.3900
 1404SOL    HW1 4360   0.736   1.563   2.734 -2.1396  0.9304 -0.5344
 1404SOL    HW2 4361   0.710   1.437   2.814 -1.2123 -0.2700 -2.0511
 1405SOL     OW 4362   3.278   1.370   0.685  0.5910 -0.2592 -0.2809
 1405SOL    HW1 4363   3.255   1.298   0.743 -0.6828 -0.9068 -1.5201
 1405SOL    HW2 4364   3.367   1.393   0.709  0.6590 -1.5751  0.8332
 1406SOL     OW 4365   3.397   0.729   1.362 -0.3478  0.0880  0.0248
 1406SOL    HW1 4366   3.435   0.725   1.274 -1.7198  0.0960 -0.6060
 1406SOL    HW2 4367   3.468   0.761   1.418  0.4482  0.4413 -1.1495
 1407SOL     OW 4368   0.956   1.946   0.808  0.2172  0.0834 -0.2624
 1407SOL    HW1 4369   0.987   1.952   0.718  2.3706 -0.9746  0.3289
 1407SOL    HW2 4370   0.880   1.889   0.804 -1.8052  2.7063 -1.7868
 1408SOL     OW 4371   3.275   1.460   1.010 -0.0748  0.1809 -0.2217
 1408SOL    HW1 4372   3.240   1.374   0.986  1.1035 -0.4695  0.3124
 1408SOL    HW2 4373   3.332   1.484   0.936 -0.9374  0.8462 -0.6961
 1409SOL     OW 4374   0.293   1.645   1.543 -0.2112 -0.9124 -0.2721
 1409SOL    HW1 4375   0.360   1.712   1.533 -0.4293 -0.5164  0.8354
 1409SOL    HW2 4376   0.263   1.654   1.633 -1.2224 -1.5852 -0.5265
 1410SOL     OW 4377   0.444   1.873   2.688  0.1759  0.5326  0.9046
 1410SOL    HW1 4378   0.390   1.834   2.619  0.9419  1.9723 -0.5739
 1410SOL    HW2 4379   0.532   1.876   2.651  1.0490 -0.4713  2.7401
 1411SOL     OW 4380   1.424   0.821   2.594 -0.2358 -0.5545 -0.4500
 1411SOL    HW1 4381   1.405   0.772   2.674 -2.4731  0.2864 -0.3974
 1411SOL    HW2 4382   1.358   0.793   2.531  1.4368 -1.1449 -2.0398
 1412SOL     OW 4383   0.310   0.848   0.533 -0.4185 -0.3717 -0.3175
 1412SOL    HW1 4384   0.261   0.912   0.483  0.8962  0.4122 -0.6537
 1412SOL    HW2 4385   0.391   0.893   0.558 -1.4621 -0.3089  3.5345
 1413SOL     OW 4386   1.538   0.523   2.692 -0.0791 -0.4302  0.7126
 1413SOL    HW1 4387   1.552   0.537   2.599 -1.9452  0.8253  0.5769
 1413SOL    HW2 4388   1.464   0.580   2.715  1.2652  0.4596  3.2779
 1414SOL     OW 4389   1.758   2.414   0.599 -0.3447  0.2583 -0.4792
 1414SOL    HW1 4390   1.751   2.390   0.691  0.5039  1.5936 -0.0371
 1414SOL    HW2 4391   1.688   2.478   0.585  0.8089  1.6634 -0.1608
 1415SOL     OW 4392   2.113   1.509   2.161  0.1277  0.1789 -0.0518
 1415SOL    HW1 4393   2.145   1.421   2.182  0.9670  0.6127  0.5680
 1415SOL    HW2 4394   2.032   1.518   2.211  0.6675  0.1823  0.8518
 1416SOL     OW 4395   2.766   1.049   3.164  0.5723 -0.1417 -0.9424
 1416SOL    HW1 4396   2.777   1.076   3.255  2.2305  1.5557 -1.5905
 1416SOL    HW2 4397   2.679   1.080   3.140 -1.0684 -2.9667  0.7563
 1417SOL     OW 4398   2.504   1.158   2.727  0.1046  0.1790  0.4408
 1417SOL    HW1 4399   2.443   1.090   2.703 -0.5320  1.1747 -0.8429
 1417SOL    HW2 4400   2.470   1.193   2.810 -0.2948 -0.1790  0.4281
 1418SOL     OW 4401   2.128   2.818   0.663 -0.1154 -0.5534  0.7197
 1418SOL    HW1 4402   2.143   2.907   0.632 -1.4645  0.2443  2.2093
 1418SOL    HW2 4403   2.198   2.803   0.727 -0.2739 -0.3215  0.9469
 1419SOL     OW 4404   3.330   1.699   1.290  0.2128 -0.1907  0.0659
 1419SOL    HW1 4405   3.341   1.605   1.301  1.3473 -0.0999 -0.2616
 1419SOL    HW2 4406   3.362   1.718   1.202  0.1890  0.5308  0.2011
 1420SOL     OW 4407   2.450   1.005   1.135 -0.5309  0.0352  0.3192
 1420SOL    HW1 4408   2.410   0.927   1.173 -0.8139  0.0923  0.1397
 1420SOL    HW2 4409   2.386   1.037   1.072 -0.8841  1.0433  1.1677
 1421SOL     OW 4410   0.369   0.426   1.015 -0.4897 -0.1695 -0.1597
 1421SOL    HW1 4411   0.389   0.427   1.108  0.8233  0.4953 -0.4320
 1421SOL    HW2 4412   0.344   0.516   0.994 -0.6000 -0.2769 -0.4990
 1422SOL     OW 4413   2.876   1.031   2.273 -0.7662 -0.1109 -0.0014
 1422SOL    HW1 4414   2.823   1.013   2.351 -1.7189 -1.8109 -0.9711
 1422SOL    HW2 4415   2.869   0.950   2.221 -0.5315  1.1337 -2.0609
 1423SOL     OW 4416   1.424   3.674   0.343 -0.1419  0.1886 -0.5188
 1423SOL    HW1 4417   1.476   3.616   0.288  0.1644 -0.0608  0.0294
 1423SOL    HW2 4418   1.487   3.716   0.401 -0.4065  0.8024 -0.6735
 1424SOL     OW 4419   3.396   2.555   0.958 -0.9355 -1.0230 -0.2303
 1424SOL    HW1 4420   3.449   2.629   0.989 -1.7928 -0.3885 -0.2139
 1424SOL    HW2 4421   3.388   2.569   0.864 -1.4641 -0.8396 -0.1631
 1425SOL     OW 4422   2.015   0.746   0.039  0.2118 -0.1239 -0.4373
 1425SOL    HW1 4423   2.081   0.757  -0.029 -1.8725 -0.2449 -2.6400
 1425SOL    HW2 4424   1.989   0.654   0.032  0.2980 -0.2647  0.8919
 1426SOL     OW 4425   0.199   0.897   2.784  0.0356 -0.6694  1.0795
 1426SOL    HW1 4426   0.219   0.986   2.755 -0.5759 -0.9561 -0.3621
 1426SOL    HW2 4427   0.145   0.909   2.862 -0.8860  0.2890  0.3428
 1427SOL     OW 4428   3.511   0.069   2.087  0.4608 -0.2261  0.0764
 1427SOL    HW1 4429   3.532   0.008   2.158  0.7169 -0.6572 -0.3647
 1427SOL    HW2 4430   3.495   0.013   2.011 -0.5263  0.1887 -0.0390
 1428SOL     OW 4431   3.161   2.659   2.720  0.7033 -0.5212  0.4073
 1428SOL    HW1 4432   3.216   2.731   2.748  1.4902 -0.3268 -1.4847
 1428SOL    HW2 4433   3.163   2.663   2.625 -2.9306 -0.2657  0.1980
 1429SOL     OW 4434   1.437   1.248   0.565 -0.6961  0.3000  0.0857
 1429SOL    HW1 4435   1.458   1.341   0.573  2.4586 -0.3608  0.7515
 1429SOL    HW2 4436   1.408   1.222   0.653 -1.5648  0.6100 -0.0978
 1430SOL     OW 4437   2.028   0.741   1.275 -0.3182  0.3142 -0.7493
 1430SOL    HW1 4438   2.079   0.797   1.334  0.7450 -0.0504 -1.3094
 1430SOL    HW2 4439   2.066   0.757   1.188  0.3924 -1.6891 -0.8427
 1431SOL     OW 4440   0.366   2.853   2.986 -1.1431 -0.0973  0.1239
 1431SOL    HW1 4441   0.365   2.840   3.081  2.2221 -0.0278  0.2837
 1431SOL    HW2 4442   0.396   2.943   2.974 -1.6731 -0.0592 -1.0124
 1432SOL     OW 4443   0.259   1.910   2.878  0.7329 -0.1561  1.1233
 1432SOL    HW1 4444   0.292   1.881   2.963  2.6565  1.2216  0.9113
 1432SOL    HW2 4445   0.326   1.882   2.815  1.2234  2.0363  0.5671
 1433SOL     OW 4446   2.550   1.569   1.965 -0.6443  0.2590 -0.3377
 1433SOL    HW1 4447   2.569   1.509   2.037 -1.7828 -0.4544 -0.6099
 1433SOL    HW2 4448   2.458   1.592   1.975 -0.7025  0.5139 -1.2837
 1434SOL     OW 4449   0.670   0.843   3.401 -0.1406 -0.0962  0.7859
 1434SOL    HW1 4450   0.673   0.748   3.389 -1.0886 -0.0872  0.3422
 1434SOL    HW2 4451   0.584   0.858   3.442 -0.4556  0.6586 -0.1300
 1435SOL     OW 4452   3.099   2.156   1.686  0.0554 -0.8582  0.6906
 1435SOL    HW1 4453   3.110   2.207   1.606 -0.8735 -0.2501  0.9386
 1435SOL    HW2 4454   3.165   2.087   1.680 -0.3821 -1.1727 -0.8816
 1436SOL     OW 4455   1.165   1.209   2.186  0.7556 -0.4864  0.1625
 1436SOL    HW1 4456   1.096   1.252   2.137  1.2021  0.9044  0.7196
 1436SOL    HW2 4457   1.245   1.254   2.161  1.6348 -2.5875 -1.0800
 1437SOL     OW 4458   3.301   1.565   0.098 -0.0976 -0.7795  0.0095
 1437SOL    HW1 4459   3.390   1.532   0.096  0.1290 -0.4787  2.5115
 1437SOL    HW2 4460   3.310   1.659   0.083  0.1290 -0.6091  1.1284
 1438SOL     OW 4461   0.465   0.954   1.662  0.3339  0.0801 -0.2506
 1438SOL    HW1 4462   0.373   0.976   1.675 -0.7271 -3.4901 -0.6190
 1438SOL    HW2 4463   0.464   0.877   1.604  3.6059  0.3374 -0.8743
 1439SOL     OW 4464   0.047   1.929   2.560  0.2868 -0.1614 -0.5026
 1439SOL    HW1 4465  -0.033   1.949   2.512 -0.4871  1.2538  1.2659
 1439SOL    HW2 4466   0.102   2.007   2.549  1.4203 -1.0806 -1.6227
 1440SOL     OW 4467   3.365   0.439   3.351  0.0264  0.1707  0.0517
 1440SOL    HW1 4468   3.295   0.383   3.383 -0.0688  0.0856 -0.2964
 1440SOL    HW2 4469   3.423   0.380   3.302  1.4230 -0.1447  1.9556
 1441SOL     OW 4470   2.165   3.567   0.118 -0.5255 -0.3191 -0.2641
 1441SOL    HW1 4471   2.145   3.527   0.034 -0.1992  0.4443 -0.7181
 1441SOL    HW2 4472   2.237   3.514   0.153  1.2008  0.9431 -1.7234
 1442SOL     OW 4473   2.773   0.221   2.797  0.2712 -0.0488  0.1349
 1442SOL    HW1 4474   2.774   0.219   2.702  1.0569 -0.1982  0.1434
 1442SOL    HW2 4475   2.707   0.156   2.822 -1.5290  1.5037 -0.3307
 1443SOL     OW 4476   1.811   0.499   2.702 -0.2266  0.1368  0.7046
 1443SOL    HW1 4477   1.718   0.479   2.698 -0.0243 -0.7182 -0.0250
 1443SOL    HW2 4478   1.816   0.594   2.695 -1.1510  0.4176  2.9246
 1444SOL     OW 4479   0.645   3.650   2.124 -0.3687 -0.1342 -0.2192
 1444SOL    HW1 4480   0.596   3.729   2.146 -1.2675 -0.2852 -1.5477
 1444SOL    HW2 4481   0.582   3.579   2.134 -0.0969 -0.4712 -0.8140
 1445SOL     OW 4482   2.199   3.388   3.246 -0.3675 -0.2849 -0.3221
 1445SOL    HW1 4483   2.202   3.342   3.162  0.3346  0.9015 -0.9818
 1445SOL    HW2 4484   2.290   3.416   3.261 -0.7346  0.7105  0.1374
 1446SOL     OW 4485   2.285   1.713   2.990 -0.0408  0.3459  0.6626
 1446SOL    HW1 4486   2.323   1.698   3.076 -1.6363  0.1621  1.3765
 1446SOL    HW2 4487   2.251   1.802   2.994  0.2346  0.4840  0.0709
 1447SOL     OW 4488   2.529   1.497   0.893 -0.4370  0.1237 -0.4294
 1447SOL    HW1 4489   2.592   1.509   0.964 -1.6288  1.7932  0.4167
 1447SOL    HW2 4490   2.577   1.521   0.814  0.9448 -1.8722 -0.2920
 1448SOL     OW 4491   2.671   2.469   0.999  0.0445  0.2950  0.1625
 1448SOL    HW1 4492   2.690   2.508   1.084  1.0957 -1.1644  0.6496
 1448SOL    HW2 4493   2.746   2.495   0.944 -0.7719  1.4750 -0.4348
 1449SOL     OW 4494   2.226   3.145   0.973 -0.6555  0.2621 -0.5755
 1449SOL    HW1 4495   2.168   3.069   0.987 -0.5246  0.2489 -0.0661
 1449SOL    HW2 4496   2.277   3.151   1.054 -2.1437  2.1660  0.3081
 1450SOL     OW 4497   1.856   1.772   2.701 -0.7347 -0.2110  0.5507
 1450SOL    HW1 4498   1.863   1.850   2.756  0.2291  0.1571 -0.0688
 1450SOL    HW2 4499   1.946   1.744   2.686 -0.9393 -0.1110 -1.0771
 1451SOL     OW 4500   0.277   2.250   0.933 -0.4844  0.2802  0.1310
 1451SOL    HW1 4501   0.308   2.161   0.917 -0.0658 -0.5204  4.2649
 1451SOL    HW2 4502   0.184   2.248   0.910  0.0359 -0.4200 -2.1547
 1452SOL     OW 4503   0.021   1.225   2.423 -0.0173  0.0324  0.0647
 1452SOL    HW1 4504   0.096   1.284   2.414 -0.3905  0.3477 -1.2288
 1452SOL    HW2 4505   0.046   1.147   2.374 -1.1471  0.7909 -1.8363
 1453SOL     OW 4506   0.699   0.197   3.173  0.6523 -0.5471 -0.4376
 1453SOL    HW1 4507   0.739   0.174   3.089  1.5327  0.5532 -0.3502
 1453SOL    HW2 4508   0.773   0.209   3.232  0.1488  0.4195  0.0282
 1454SOL     OW 4509   0.681   3.584   1.808  0.3579 -0.2391 -0.2012
 1454SOL    HW1 4510   0.606   3.525   1.817  1.6893 -2.0011 -0.1296
 1454SOL    HW2 4511   0.752   3.528   1.777  2.1785  0.9332  1.5971
 1455SOL     OW 4512   1.435   0.889   0.669 -0.3987 -0.2966  0.2274
 1455SOL    HW1 4513   1.375   0.839   0.725  0.2681 -1.2969  0.0777
 1455SOL    HW2 4514   1.453   0.969   0.719 -1.0874 -0.4281  0.7037
 1456SOL     OW 4515   2.802   1.927   2.825  0.0248  0.5396  0.1975
 1456SOL    HW1 4516   2.752   1.987   2.768 -0.6649 -1.6349 -1.6667
 1456SOL    HW2 4517   2.864   1.983   2.871 -2.2064  2.9994  0.4502
 1457SOL     OW 4518   2.458   1.945   1.882  0.3789  0.0321  0.2296
 1457SOL    HW1 4519   2.544   1.925   1.844  0.3464  1.2574 -0.5525
 1457SOL    HW2 4520   2.400   1.955   1.806  0.1060  1.6204  0.6049
 1458SOL     OW 4521   0.966   1.803   0.203 -0.5226 -0.1291 -0.3149
 1458SOL    HW1 4522   1.006   1.721   0.173  0.6790  0.3856 -0.1890
 1458SOL    HW2 4523   0.872   1.785   0.205 -0.5067 -0.7430 -2.6603
 1459SOL     OW 4524   3.228   2.358   2.512 -0.1638  1.0260 -0.2721
 1459SOL    HW1 4525   3.267   2.354   2.425 -0.6393  3.2755 -0.6574
 1459SOL    HW2 4526   3.162   2.428   2.506  0.2561  1.7287  2.0659
 1460SOL     OW 4527   2.920   2.110   0.403 -0.0257 -0.0579  0.0946
 1460SOL    HW1 4528   2.896   2.184   0.348 -1.2346 -0.3199  0.2489
 1460SOL    HW2 4529   2.837   2.076   0.436  0.5424 -1.1554  0.4548
 1461SOL     OW 4530   3.603   2.370   0.100  0.2693  0.2564  0.1401
 1461SOL    HW1 4531   3.561   2.375   0.186  1.7204 -0.8751  0.9559
 1461SOL    HW2 4532   3.585   2.455   0.059 -1.5629  0.3375  1.0031
 1462SOL     OW 4533   2.007   0.983   0.190  0.1428  0.2727 -0.1427
 1462SOL    HW1 4534   1.973   0.919   0.126 -2.0077  0.0736  1.1268
 1462SOL    HW2 4535   2.097   0.954   0.206  0.1457 -0.7347 -1.7188
 1463SOL     OW 4536   0.584   0.459   0.414  0.3740 -0.3993 -0.0432
 1463SOL    HW1 4537   0.561   0.487   0.503 -0.2930  1.3400 -0.7150
 1463SOL    HW2 4538   0.619   0.371   0.425 -1.9668 -1.2014  1.6499
 1464SOL     OW 4539   1.925   2.245   2.319 -0.2048 -0.2206 -0.0512
 1464SOL    HW1 4540   1.974   2.313   2.273 -1.9613  1.4457  0.4146
 1464SOL    HW2 4541   1.836   2.250   2.283 -0.8133 -1.0610  1.2455
 1465SOL     OW 4542   3.183   3.402   0.834 -0.2039  0.3618 -0.2284
 1465SOL    HW1 4543   3.197   3.494   0.811  0.7455 -0.0032 -1.1990
 1465SOL    HW2 4544   3.255   3.381   0.893 -0.7141  0.3756  0.4022
 1466SOL     OW 4545   2.490   3.387   0.009  0.0185 -0.3454  0.6350
 1466SOL    HW1 4546   2.445   3.310  -0.023  0.1668  0.2063 -0.9748
 1466SOL    HW2 4547   2.423   3.437   0.057  0.4664 -2.5924  3.9264
 1467SOL     OW 4548   1.446   0.302   3.658  0.6162  0.1478  0.1461
 1467SOL    HW1 4549   1.446   0.316   3.753  0.5318 -0.2266  0.2035
 1467SOL    HW2 4550   1.390   0.372   3.624  1.1057  0.6339  0.3158
 1468SOL     OW 4551   0.123   3.462   3.088  0.2174  0.0708  0.5047
 1468SOL    HW1 4552   0.189   3.416   3.035  0.2539  0.6577  0.0247
 1468SOL    HW2 4553   0.175   3.516   3.148  0.1724 -0.3271  0.9115
 1469SOL     OW 4554   2.088   1.678   2.794 -0.5361 -0.4334 -0.1291
 1469SOL    HW1 4555   2.145   1.662   2.719 -2.0117 -1.6075 -1.0576
 1469SOL    HW2 4556   2.147   1.685   2.868  0.8057 -1.9289 -1.0053
 1470SOL     OW 4557   1.078   3.056   0.590 -0.7568  0.8796  0.0978
 1470SOL    HW1 4558   1.080   2.973   0.542 -3.7241 -1.8470  4.0292
 1470SOL    HW2 4559   1.041   3.119   0.529  0.6008 -0.8516 -2.7224
 1471SOL     OW 4560   1.810   0.392   0.598 -0.2967 -1.0659 -0.6719
 1471SOL    HW1 4561   1.891   0.420   0.641 -0.1310 -2.5124  0.0380
 1471SOL    HW2 4562   1.793   0.305   0.635 -1.8595 -1.0267 -1.2544
 1472SOL     OW 4563   1.217   1.769   1.276 -0.0654 -0.0472  0.1902
 1472SOL    HW1 4564   1.150   1.798   1.214 -0.8269 -1.2994  0.3947
 1472SOL    HW2 4565   1.265   1.849   1.298 -1.1819  0.7983 -0.3325
 1473SOL     OW 4566   3.195   3.029   2.083  0.6310 -0.1024 -0.0038
 1473SOL    HW1 4567   3.248   3.016   2.004  0.0994 -1.2486 -0.1931
 1473SOL    HW2 4568   3.233   2.970   2.147 -0.1474 -0.6281 -0.0148
 1474SOL     OW 4569   1.449   0.130   2.436  0.1087  0.1476  0.4709
 1474SOL    HW1 4570   1.527   0.075   2.430  0.7091  0.9211  1.0044
 1474SOL    HW2 4571   1.376   0.067   2.435  0.8055 -0.7987  2.3435
 1475SOL     OW 4572   2.480   2.533   1.310  0.2817 -0.1361 -0.5116
 1475SOL    HW1 4573   2.443   2.553   1.225 -0.5510 -0.4056 -0.2226
 1475SOL    HW2 4574   2.413   2.482   1.354  1.2066 -1.1071 -0.1703
 1476SOL     OW 4575   0.779   1.455   1.738 -0.1268 -0.5083  0.1837
 1476SOL    HW1 4576   0.775   1.497   1.652 -0.7636  0.9270  0.8715
 1476SOL    HW2 4577   0.688   1.446   1.765  0.0610 -1.0422  0.6731
 1477SOL     OW 4578   1.573   3.385   0.992 -0.8685  0.4553 -0.1933
 1477SOL    HW1 4579   1.578   3.474   0.958 -2.2972 -0.0421 -1.8166
 1477SOL    HW2 4580   1.546   3.395   1.084  1.6979  1.7617  0.4974
 1478SOL     OW 4581   2.493   1.138   1.412  0.2126  0.0420  0.4627
 1478SOL    HW1 4582   2.533   1.081   1.478 -0.3790  1.3526  2.0381
 1478SOL    HW2 4583   2.552   1.133   1.337  0.9183 -1.5012  1.0716
 1479SOL     OW 4584   3.694   1.231   3.213  0.1787 -0.5859  0.1266
 1479SOL    HW1 4585   3.775   1.179   3.214  0.9144  0.5261 -0.0296
 1479SOL    HW2 4586   3.666   1.229   3.122 -0.8040 -2.1991  0.4365
 1480SOL     OW 4587   2.895   1.868   1.426 -0.2962 -0.0311 -0.2862
 1480SOL    HW1 4588   2.882   1.901   1.337 -0.5909 -1.3575 -0.7690
 1480SOL    HW2 4589   2.837   1.792   1.431 -1.8570  1.1984  1.7580
 1481SOL     OW 4590   2.677   0.465   1.931 -0.3312  0.4453  0.2691
 1481SOL    HW1 4591   2.703   0.447   1.841 -0.1157  1.0359  0.2046
 1481SOL    HW2 4592   2.756   0.502   1.971 -0.7508  1.2529  0.3764
 1482SOL     OW 4593   3.334   1.882   0.368 -0.4916 -0.1209 -0.5307
 1482SOL    HW1 4594   3.414   1.909   0.414 -3.0465  1.7256  3.3628
 1482SOL    HW2 4595   3.324   1.789   0.389 -1.5693  0.6597  3.0276
 1483SOL     OW 4596   2.222   2.503   1.931  0.6729  0.1827  0.4623
 1483SOL    HW1 4597   2.222   2.487   1.837  0.7371  0.0342  0.4865
 1483SOL    HW2 4598   2.313   2.490   1.958  0.8689  1.2580  0.3765
 1484SOL     OW 4599   2.589   2.218   2.158 -0.0529 -0.5216 -0.6274
 1484SOL    HW1 4600   2.517   2.192   2.215 -0.9449  1.3374 -0.8435
 1484SOL    HW2 4601   2.668   2.198   2.208 -0.7474  3.2316  2.4834
 1485SOL     OW 4602   0.874   2.982   1.889  0.7314 -0.2149  0.5800
 1485SOL    HW1 4603   0.899   2.916   1.952  0.6153 -1.0653 -0.2432
 1485SOL    HW2 4604   0.845   2.933   1.812 -0.5983  0.7543  0.4108
 1486SOL     OW 4605   1.009   1.384   2.011  0.0271 -0.1127 -0.8076
 1486SOL    HW1 4606   1.057   1.419   1.936 -2.7158 -0.8065 -3.0855
 1486SOL    HW2 4607   0.977   1.299   1.982 -0.7194 -0.6433  1.3644
 1487SOL     OW 4608   1.007   3.627   2.352  0.5919  0.2024  0.3136
 1487SOL    HW1 4609   0.975   3.695   2.411 -1.0514  1.2126 -1.6270
 1487SOL    HW2 4610   1.079   3.669   2.304  0.9489 -0.1256  0.5584
 1488SOL     OW 4611   2.927   0.271   0.444  0.0489 -0.2360  0.0370
 1488SOL    HW1 4612   2.835   0.298   0.445  0.3755  0.8833  0.8656
 1488SOL    HW2 4613   2.946   0.256   0.351 -0.7756  0.1863 -0.2083
 1489SOL     OW 4614   1.932   0.154   3.412 -0.2455 -0.7586  0.7271
 1489SOL    HW1 4615   1.953   0.222   3.349  1.5449 -1.1831  0.8116
 1489SOL    HW2 4616   1.836   0.151   3.413 -0.3614  1.2089  0.1688
 1490SOL     OW 4617   1.213   0.384   1.510 -0.1640 -0.3358  0.1232
 1490SOL    HW1 4618   1.278   0.442   1.471 -2.1912  1.4863 -0.6898
 1490SOL    HW2 4619   1.245   0.369   1.599  2.5525 -1.4536 -0.9346
 1491SOL     OW 4620   0.851   2.122   2.231  0.3871 -0.1318 -0.0760
 1491SOL    HW1 4621   0.849   2.213   2.201 -0.7349 -1.1672 -3.5345
 1491SOL    HW2 4622   0.932   2.116   2.282  0.0797  2.9374  1.0194
 1492SOL     OW 4623   0.608   3.032   3.510  0.3650 -0.0469 -0.0000
 1492SOL    HW1 4624   0.568   2.959   3.558  1.8869 -0.0591  1.3137
 1492SOL    HW2 4625   0.673   2.990   3.454  1.2346  0.2713  0.7479
 1493SOL     OW 4626   2.306   1.352   0.958  0.4384  0.0877 -0.0394
 1493SOL    HW1 4627   2.260   1.382   0.880 -1.8265 -0.5270  0.9570
 1493SOL    HW2 4628   2.384   1.407   0.963  0.8169 -0.0680 -2.8502
 1494SOL     OW 4629   2.159   1.015   2.616  0.2592  0.0995 -0.5152
 1494SOL    HW1 4630   2.232   0.957   2.636 -0.1159 -0.3809 -0.5093
 1494SOL    HW2 4631   2.110   1.022   2.698 -0.2761 -0.4216 -0.7790
 1495SOL     OW 4632   0.706   1.537   2.007 -0.1310  0.2403  0.4370
 1495SOL    HW1 4633   0.699   1.476   1.933 -1.9762  0.2489  0.5760
 1495SOL    HW2 4634   0.675   1.621   1.972 -1.4928  0.1307  1.3298
 1496SOL     OW 4635   3.072   0.393   2.237  0.3225 -0.1881  0.2552
 1496SOL    HW1 4636   3.121   0.348   2.306 -0.3546  1.9854  2.3096
 1496SOL    HW2 4637   2.994   0.340   2.224 -0.0738 -0.1098  2.0358
 1497SOL     OW 4638   0.634   0.821   0.012 -0.0456 -0.2495 -0.6297
 1497SOL    HW1 4639   0.554   0.776   0.037  0.0831 -0.6401 -0.9174
 1497SOL    HW2 4640   0.684   0.756  -0.037  0.6704 -0.1680 -0.0268
 1498SOL     OW 4641   2.874   3.185   1.403  0.5540  0.3761 -0.0394
 1498SOL    HW1 4642   2.943   3.126   1.373  0.2761  0.2723 -0.4819
 1498SOL    HW2 4643   2.854   3.156   1.492 -0.6717 -1.2081 -0.7936
 1499SOL     OW 4644   2.065   0.879   3.156 -0.1205 -0.7338  0.2839
 1499SOL    HW1 4645   2.102   0.793   3.177 -1.1933 -1.4850 -0.7729
 1499SOL    HW2 4646   1.979   0.880   3.197 -0.5205 -0.5854 -0.5203
 1500SOL     OW 4647   3.286   0.125   2.312 -0.3724 -0.4010  0.5130
 1500SOL    HW1 4648   3.282   0.030   2.298 -1.7829 -0.1027 -1.6391
 1500SOL    HW2 4649   3.257   0.162   2.228  0.5952  1.9454  1.1604
 1501SOL     OW 4650   2.410   0.837   1.532  0.4613  0.7250  0.2496
 1501SOL    HW1 4651   2.490   0.822   1.483  0.5937 -0.3832  0.7795
 1501SOL    HW2 4652   2.351   0.765   1.507  0.1061  0.8061  0.8229
 1502SOL     OW 4653   1.859   0.282   3.184  0.0813  0.6070  0.0331
 1502SOL    HW1 4654   1.769   0.255   3.162  0.0497 -0.3775  1.2057
 1502SOL    HW2 4655   1.884   0.341   3.114 -1.0746  0.0081 -0.9379
 1503SOL     OW 4656   1.526   0.669   3.221 -0.2398 -0.0177 -0.2322
 1503SOL    HW1 4657   1.554   0.580   3.243 -0.9146 -0.2472 -0.2849
 1503SOL    HW2 4658   1.454   0.687   3.280 -0.0834  0.5113 -0.1996
 1504SOL     OW 4659   1.804   0.052   0.218  0.0317 -0.3860 -0.2521
 1504SOL    HW1 4660   1.735   0.118   0.218  0.7663  0.3950 -0.0443
 1504SOL    HW2 4661   1.849   0.064   0.135  1.5062  0.8276  0.6711
 1505SOL     OW 4662   2.157   0.057   0.310  0.0814  0.1481 -0.1920
 1505SOL    HW1 4663   2.143  -0.008   0.241  0.0596 -0.7005  0.5860
 1505SOL    HW2 4664   2.223   0.017   0.367  1.4915  1.6471 -0.7227
 1506SOL     OW 4665   3.668   2.612   0.689 -0.4099 -0.7853  0.0497
 1506SOL    HW1 4666   3.693   2.704   0.687  0.0300 -0.9060 -0.4780
 1506SOL    HW2 4667   3.573   2.612   0.677 -0.4813 -0.3807  0.6005
 1507SOL     OW 4668   1.729   3.208   1.998  0.3543  0.0655  0.0444
 1507SOL    HW1 4669   1.671   3.284   1.991 -0.1473 -0.2757  0.4557
 1507SOL    HW2 4670   1.734   3.190   2.092  1.0810  0.0555  0.0069
 1508SOL     OW 4671   3.417   3.117   2.431 -0.1403 -0.0506 -0.2057
 1508SOL    HW1 4672   3.429   3.089   2.340 -1.9186  1.3182 -0.9124
 1508SOL    HW2 4673   3.324   3.103   2.448 -0.3069  1.8211  0.6393
 1509SOL     OW 4674   1.740   1.055   2.701  0.1322 -0.3711 -0.5209
 1509SOL    HW1 4675   1.805   1.112   2.741 -0.4947 -0.4945  0.7383
 1509SOL    HW2 4676   1.697   1.110   2.636  0.3469  0.2281 -0.1630
 1510SOL     OW 4677   3.532   1.333   3.435  0.0210  0.3101 -0.0211
 1510SOL    HW1 4678   3.540   1.332   3.340  2.4887  0.8660  0.1044
 1510SOL    HW2 4679   3.452   1.384   3.452 -0.4136  0.2725 -1.7708
 1511SOL     OW 4680   0.143   0.093   0.893 -0.1661  0.6532  0.0682
 1511SOL    HW1 4681   0.167   0.003   0.913  0.3156  0.9084  0.6640
 1511SOL    HW2 4682   0.220   0.144   0.916 -0.3997  1.2049 -0.3702
 1512SOL     OW 4683   0.351   0.668   1.411  0.0959 -0.0274  0.8562
 1512SOL    HW1 4684   0.406   0.745   1.425 -1.8187  1.3082  1.4029
 1512SOL    HW2 4685   0.266   0.692   1.449 -1.1949 -1.5880 -0.8702
 1513SOL     OW 4686   2.171   0.935   1.379 -0.2032  0.3851  0.1917
 1513SOL    HW1 4687   2.155   1.029   1.373 -1.6488  0.1795  0.4077
 1513SOL    HW2 4688   2.256   0.928   1.421 -1.1547  1.6045  2.5135
 1514SOL     OW 4689   3.185   1.207   0.891  0.0696 -0.3063 -0.2900
 1514SOL    HW1 4690   3.143   1.143   0.834 -1.8749 -1.6291  2.3808
 1514SOL    HW2 4691   3.265   1.162   0.922 -0.1494 -0.5888 -0.1241
 1515SOL     OW 4692   0.163   0.496   2.722 -1.2544  0.1756 -0.1127
 1515SOL    HW1 4693   0.246   0.494   2.769 -0.5255  0.1375 -1.3545
 1515SOL    HW2 4694   0.112   0.564   2.766 -0.8111 -0.2244  1.0440
 1516SOL     OW 4695   0.035   0.476   0.263 -0.1913 -0.1647 -0.0037
 1516SOL    HW1 4696   0.074   0.500   0.178  2.4993  0.3562  1.2601
 1516SOL    HW2 4697   0.089   0.403   0.294  0.9366  1.6018  2.5498
 1517SOL     OW 4698   0.741   1.924   2.037 -0.6545 -0.1988  0.0418
 1517SOL    HW1 4699   0.787   1.842   2.055 -1.3433 -0.6040 -0.0055
 1517SOL    HW2 4700   0.758   1.979   2.114 -0.7180 -0.6250  0.3597
 1518SOL     OW 4701   0.451   2.390   2.627  0.1390  0.7346 -0.2148
 1518SOL    HW1 4702   0.433   2.482   2.646 -1.6553  0.3718 -0.0348
 1518SOL    HW2 4703   0.440   2.345   2.711  1.2986  0.3755 -0.2384
 1519SOL     OW 4704   2.575   2.973   0.773  0.1359  0.2313 -0.3256
 1519SOL    HW1 4705   2.585   2.899   0.713  0.4049  0.7496 -0.9375
 1519SOL    HW2 4706   2.655   3.025   0.761 -0.0495  0.6225  0.0897
 1520SOL     OW 4707   0.797   1.664   0.421 -0.0297 -0.1807 -0.0665
 1520SOL    HW1 4708   0.742   1.721   0.366 -0.5021 -1.9005 -1.4863
 1520SOL    HW2 4709   0.745   1.584   0.431  0.4691 -0.2732  2.1588
 1521SOL     OW 4710   0.099   1.445   3.418 -0.6697  0.2436 -0.0973
 1521SOL    HW1 4711   0.042   1.515   3.386  0.9733  1.1927 -1.0938
 1521SOL    HW2 4712   0.066   1.366   3.374 -1.7974  0.5915  0.1027
 1522SOL     OW 4713   0.348   3.568   3.721  0.0334  1.3023  0.3765
 1522SOL    HW1 4714   0.439   3.587   3.697  0.2994 -0.9794 -0.7854
 1522SOL    HW2 4715   0.342   3.472   3.716 -2.6229  1.4190 -0.3912
 1523SOL     OW 4716   3.128   1.398   3.277 -0.5776  0.3459  0.6441
 1523SOL    HW1 4717   3.112   1.305   3.295  0.5484  0.0517  0.1914
 1523SOL    HW2 4718   3.173   1.430   3.355  1.3468 -0.1321 -0.2266
 1524SOL     OW 4719   0.667   1.048   1.448  0.1808  0.0634 -0.2461
 1524SOL    HW1 4720   0.596   1.028   1.509 -0.6981 -2.3985 -1.9078
 1524SOL    HW2 4721   0.746   1.015   1.491 -0.1464 -0.0724  0.2576
 1525SOL     OW 4722   0.661   0.904   3.116 -0.2353  0.0401  0.3714
 1525SOL    HW1 4723   0.728   0.858   3.067 -1.7428 -0.1860 -1.6140
 1525SOL    HW2 4724   0.688   0.896   3.207  1.9360 -0.7717 -0.2787
 1526SOL     OW 4725   3.239   3.108   1.407  0.2332 -0.0224 -0.1316
 1526SOL    HW1 4726   3.163   3.051   1.420 -1.1321  1.5969 -0.6587
 1526SOL    HW2 4727   3.269   3.089   1.318  0.2237 -0.4045 -0.0537
 1527SOL     OW 4728   1.415   1.066   2.772  0.3253 -0.4763 -0.6069
 1527SOL    HW1 4729   1.406   0.978   2.735  0.7167 -0.6829 -0.2143
 1527SOL    HW2 4730   1.484   1.107   2.721  0.9280 -0.7928 -0.0587
 1528SOL     OW 4731   0.030   2.132   1.068  0.3512  0.1213 -0.1256
 1528SOL    HW1 4732   0.098   2.083   1.021  1.5091  0.7176  0.8813
 1528SOL    HW2 4733   0.015   2.209   1.015 -0.0262 -0.3341 -0.6912
 1529SOL     OW 4734   3.426   0.767   3.696 -0.3020 -0.5621 -0.3203
 1529SOL    HW1 4735   3.449   0.837   3.635 -1.2324 -0.4480 -0.5606
 1529SOL    HW2 4736   3.488   0.776   3.768  0.0866  0.0146 -0.7222
 1530SOL     OW 4737   0.122   0.648   0.788  0.4477  0.5445  0.1119
 1530SOL    HW1 4738   0.077   0.642   0.703 -0.5926 -0.1957  0.6885
 1530SOL    HW2 4739   0.211   0.621   0.770 -0.7188 -3.9552 -0.0246
 1531SOL     OW 4740   2.896   0.670   2.274 -0.2546 -0.5304  0.1756
 1531SOL    HW1 4741   2.841   0.679   2.352 -0.1903 -4.5892  0.8646
 1531SOL    HW2 4742   2.980   0.708   2.300 -0.9637  0.4810  1.1319
 1532SOL     OW 4743   0.329   0.070   2.710 -0.2529  0.4132 -0.3760
 1532SOL    HW1 4744   0.268  -0.002   2.696  0.6682 -0.9784  2.0452
 1532SOL    HW2 4745   0.360   0.093   2.623  0.1432 -2.8289 -1.2243
 1533SOL     OW 4746   0.435   0.368   2.638 -0.0136  0.0656  0.2835
 1533SOL    HW1 4747   0.356   0.314   2.641  1.7205 -2.6634  0.9383
 1533SOL    HW2 4748   0.438   0.410   2.724  0.0707 -1.1512  0.8983
 1534SOL     OW 4749   0.148   2.211   2.501 -0.0731 -0.2845  0.2196
 1534SOL    HW1 4750   0.242   2.192   2.506 -0.2025 -0.6966  1.2919
 1534SOL    HW2 4751   0.133   2.280   2.565 -0.5241 -0.3254  0.1644
 1535SOL     OW 4752   2.851   1.317   3.371  0.1135 -0.2945 -0.4222
 1535SOL    HW1 4753   2.814   1.397   3.336 -0.9732 -0.8187 -0.5018
 1535SOL    HW2 4754   2.906   1.284   3.300  0.0236  0.0240 -0.6416
 1536SOL     OW 4755   2.918   0.324   1.992 -0.5292  0.4750 -0.1985
 1536SOL    HW1 4756   2.959   0.404   1.961  0.0054  0.8138  1.2992
 1536SOL    HW2 4757   2.992   0.270   2.021 -0.8649 -0.6561 -1.3312
 1537SOL     OW 4758   1.764   1.949   0.009 -0.6331  0.7060  0.6285
 1537SOL    HW1 4759   1.811   1.990   0.081 -1.9500  1.3561  1.1595
 1537SOL    HW2 4760   1.730   2.022  -0.043 -2.9813  0.3821  1.5749
 1538SOL     OW 4761   0.945   0.083   2.567  0.0391 -0.3178  0.3996
 1538SOL    HW1 4762   0.851   0.103   2.564  0.3646  1.7197  1.6429
 1538SOL    HW2 4763   0.965   0.075   2.660  1.1904 -0.2909  0.1700
 1539SOL     OW 4764   0.203   1.476   2.665  0.3441  0.8969  0.3909
 1539SOL    HW1 4765   0.168   1.561   2.638  0.4636  0.7652 -0.2057
 1539SOL    HW2 4766   0.233   1.436   2.583 -1.5059 -0.5422  0.3232
 1540SOL     OW 4767   3.053   0.504   1.506 -0.2242 -0.2818  1.0086
 1540SOL    HW1 4768   3.136   0.486   1.462 -1.4659  0.0357 -1.5828
 1540SOL    HW2 4769   3.054   0.446   1.582  1.9240 -0.9896  0.5183
 1541SOL     OW 4770   2.333   2.818   0.432  0.3336  0.3374 -0.3800
 1541SOL    HW1 4771   2.255   2.873   0.421  0.5254  0.5617 -0.6183
 1541SOL    HW2 4772   2.326   2.785   0.522 -0.0313  0.3669 -0.3954
 1542SOL     OW 4773   2.883   1.636   2.917  0.3496 -0.3013 -0.6255
 1542SOL    HW1 4774   2.845   1.714   2.877 -1.7221 -1.2876 -0.7043
 1542SOL    HW2 4775   2.977   1.649   2.908  0.0461  1.4443 -2.0712
 1543SOL     OW 4776   2.816   0.456   2.910 -1.0674 -0.0027  0.0636
 1543SOL    HW1 4777   2.807   0.371   2.867  1.2187 -0.6545  0.7571
 1543SOL    HW2 4778   2.820   0.519   2.838  1.6126 -0.9665 -0.7622
 1544SOL     OW 4779   0.971   2.878   2.397 -0.4309 -0.3523 -0.5296
 1544SOL    HW1 4780   0.973   2.791   2.359 -0.7065 -1.4153  1.7144
 1544SOL    HW2 4781   1.055   2.917   2.373  0.5909 -2.0432  0.1560
 1545SOL     OW 4782   3.534   2.684   1.205  0.1458  0.3314  0.0323
 1545SOL    HW1 4783   3.481   2.761   1.229 -2.3576 -1.9798  2.8121
 1545SOL    HW2 4784   3.524   2.625   1.279  2.1702 -2.6222 -1.8461
 1546SOL     OW 4785   0.436   3.040   0.191 -0.0801 -0.3898 -0.0723
 1546SOL    HW1 4786   0.461   2.982   0.263 -0.0424  0.1364  0.3460
 1546SOL    HW2 4787   0.517   3.053   0.141  0.1555  0.1640  0.4536
 1547SOL     OW 4788   1.396   0.677   3.494 -0.0980 -0.0534  0.0225
 1547SOL    HW1 4789   1.384   0.772   3.493 -2.0590 -0.2676 -0.0042
 1547SOL    HW2 4790   1.475   0.664   3.546  1.5757  1.6811 -1.8922
 1548SOL     OW 4791   3.515   0.159   0.687  0.5420 -0.5333 -0.8973
 1548SOL    HW1 4792   3.498   0.148   0.594  2.3129  0.8362 -1.4497
 1548SOL    HW2 4793   3.558   0.244   0.694 -0.3200 -0.1990  1.2976
 1549SOL     OW 4794   2.060   1.677   3.242  0.3852 -0.5219 -0.2611
 1549SOL    HW1 4795   2.014   1.701   3.162 -3.2102 -0.2487  1.6791
 1549SOL    HW2 4796   2.015   1.598   3.273  2.0102 -0.9280  1.2722
 1550SOL     OW 4797   0.538   2.141   2.783  0.1980  0.3385 -0.6560
 1550SOL    HW1 4798   0.513   2.125   2.874  2.7567  0.0539  0.0596
 1550SOL    HW2 4799   0.513   2.061   2.737  0.8392 -0.4103  0.2550
 1551SOL     OW 4800   2.294   0.854   3.682 -0.0241  0.3708  0.5843
 1551SOL    HW1 4801   2.355   0.785   3.709 -0.0792  0.2945  0.5152
 1551SOL    HW2 4802   2.305   0.859   3.587 -1.1132 -0.5958  0.3835
 1552SOL     OW 4803   0.584   0.762   2.241 -0.1515 -0.0128  0.4136
 1552SOL    HW1 4804   0.501   0.715   2.236  0.5595 -1.5277  1.6932
 1552SOL    HW2 4805   0.579   0.811   2.323 -0.2950  0.9965 -0.1819
 1553SOL     OW 4806   3.501   1.960   2.983  0.6254 -0.3300  0.4719
 1553SOL    HW1 4807   3.557   1.975   2.907 -1.5214  0.7558 -1.0149
 1553SOL    HW2 4808   3.487   1.865   2.984  0.2563 -0.3172 -0.8674
 1554SOL     OW 4809   3.538   2.895  -0.003  0.4338  0.4207 -0.0250
 1554SOL    HW1 4810   3.613   2.891  -0.063  0.5121  1.5800 -0.0199
 1554SOL    HW2 4811   3.574   2.933   0.077 -0.0428  0.4804  0.1643
 1555SOL     OW 4812   0.269   2.657   1.373  0.2980  0.5923  0.1704
 1555SOL    HW1 4813   0.222   2.697   1.446  0.0443  0.6664 -0.0354
 1555SOL    HW2 4814   0.325   2.591   1.415  2.2476  2.4854  0.7480
 1556SOL     OW 4815   2.517   3.578   1.941 -0.2510  0.0220 -0.0495
 1556SOL    HW1 4816   2.423   3.589   1.952 -0.0084  3.2019 -0.1797
 1556SOL    HW2 4817   2.526   3.523   1.863 -1.9941  0.3671 -0.5366
 1557SOL     OW 4818   0.286   2.008   1.431  0.2889 -0.4555  0.1394
 1557SOL    HW1 4819   0.310   2.096   1.400  2.7566 -1.3563 -0.7923
 1557SOL    HW2 4820   0.275   1.957   1.351 -1.5453 -0.9389  0.6638
 1558SOL     OW 4821   2.088   3.162   3.057  0.3296  0.7965  1.3635
 1558SOL    HW1 4822   2.151   3.089   3.061  0.6849  0.6873 -2.4549
 1558SOL    HW2 4823   2.004   3.120   3.041  0.6672  1.0779 -1.7673
 1559SOL     OW 4824   1.190   3.622   3.034 -1.0883  0.5790  0.2405
 1559SOL    HW1 4825   1.206   3.535   2.996  0.7402  0.8048  0.3856
 1559SOL    HW2 4826   1.234   3.619   3.119 -1.6888  1.3942  0.5865
 1560SOL     OW 4827   3.384   1.227   3.110 -1.1767 -0.0818  0.9437
 1560SOL    HW1 4828   3.319   1.281   3.065 -1.6587 -1.1932  0.2377
 1560SOL    HW2 4829   3.333   1.176   3.174 -1.1619 -1.4422 -0.0647
 1561SOL     OW 4830   2.255   1.395   3.311  0.6184 -0.5745 -0.5407
 1561SOL    HW1 4831   2.173   1.389   3.360 -0.0255  0.5750 -1.4361
 1561SOL    HW2 4832   2.319   1.424   3.376 -0.3342  1.4550 -0.4082
 1562SOL     OW 4833   0.976   2.396   1.031  0.2036 -0.4032 -0.5917
 1562SOL    HW1 4834   0.937   2.480   1.006  0.9996 -0.3860 -1.9078
 1562SOL    HW2 4835   1.064   2.419   1.063 -0.2179 -0.5900  0.7445
 1563SOL     OW 4836   3.451   0.719   2.209  0.6819  0.5717 -0.1843
 1563SOL    HW1 4837   3.423   0.717   2.118 -2.3975 -0.1120  0.6478
 1563SOL    HW2 4838   3.429   0.632   2.243  2.4390  0.5619  1.0628
 1564SOL     OW 4839   1.765   3.301   1.320 -0.1133 -0.3293  0.0164
 1564SOL    HW1 4840   1.795   3.213   1.300  0.9640  0.2939 -1.1940
 1564SOL    HW2 4841   1.698   3.288   1.388 -0.6376 -2.1405 -0.7804
 1565SOL     OW 4842   0.544   1.511   1.370  0.7173  0.2860  0.4560
 1565SOL    HW1 4843   0.497   1.561   1.437  0.9887  0.5564  0.4450
 1565SOL    HW2 4844   0.549   1.422   1.406 -0.2258  0.1374  0.2436
 1566SOL     OW 4845   0.549   0.387   0.684  0.2534 -0.0945  0.3711
 1566SOL    HW1 4846   0.543   0.291   0.689 -5.7382 -0.1065  0.2392
 1566SOL    HW2 4847   0.544   0.415   0.776 -1.1980 -0.0116  0.2903
 1567SOL     OW 4848   2.700   1.989   0.479  0.0366 -0.0136 -0.3949
 1567SOL    HW1 4849   2.637   1.970   0.548 -0.7796 -0.6325 -1.2850
 1567SOL    HW2 4850   2.685   1.922   0.413  1.1072  0.2921 -0.9772
 1568SOL     OW 4851   3.410   1.004   0.237 -0.2406 -0.1269  0.3359
 1568SOL    HW1 4852   3.361   1.082   0.211  1.1727  0.9074  0.6814
 1568SOL    HW2 4853   3.448   0.971   0.156  1.5462  1.2664  0.5374
 1569SOL     OW 4854   3.606   1.369   1.793 -0.4660  0.3882  0.0306
 1569SOL    HW1 4855   3.654   1.304   1.741  1.0526 -0.8721  2.8261
 1569SOL    HW2 4856   3.545   1.317   1.845 -0.2833  1.3483  1.2315
 1570SOL     OW 4857   2.942   0.025   1.792  0.1059 -0.4164 -0.0477
 1570SOL    HW1 4858   2.906   0.022   1.703 -0.2206  0.4946  0.0379
 1570SOL    HW2 4859   2.866   0.042   1.848  0.3840 -0.4741  0.3491
 1571SOL     OW 4860   2.810   0.031   1.304 -0.0963  0.0133 -0.4166
 1571SOL    HW1 4861   2.781  -0.047   1.257 -3.7196  0.2925  1.0291
 1571SOL    HW2 4862   2.815   0.100   1.238 -0.4128 -0.6318 -1.1167
 1572SOL     OW 4863   0.822   1.258   0.503 -0.4996 -0.3618 -0.2973
 1572SOL    HW1 4864   0.906   1.280   0.463 -0.5486  0.0327 -0.1944
 1572SOL    HW2 4865   0.759   1.316   0.460 -0.0725  2.5526  2.5962
 1573SOL     OW 4866   2.823   3.098   1.096 -0.4687 -0.2767  0.0020
 1573SOL    HW1 4867   2.743   3.118   1.145  0.5460  0.7632  1.3295
 1573SOL    HW2 4868   2.863   3.184   1.081  0.2174 -0.7496 -0.9944
 1574SOL     OW 4869   3.566   0.465   1.403 -0.0035 -0.2468 -0.2487
 1574SOL    HW1 4870   3.601   0.380   1.431 -1.0629 -0.0874  1.7330
 1574SOL    HW2 4871   3.585   0.524   1.476 -0.0214  1.0436 -1.2453
 1575SOL     OW 4872   1.610   1.432   3.271 -0.2508  0.5340 -0.6436
 1575SOL    HW1 4873   1.652   1.414   3.187  1.6493  0.8928  0.1714
 1575SOL    HW2 4874   1.550   1.505   3.253 -0.2176  0.2982 -1.7750
 1576SOL     OW 4875   0.154   3.028   2.226  0.1014  0.0619 -0.1063
 1576SOL    HW1 4876   0.141   2.934   2.215  0.9712  0.2039 -3.3213
 1576SOL    HW2 4877   0.216   3.052   2.157 -1.4716  3.2876 -0.5706
 1577SOL     OW 4878   0.189   0.195   3.278 -0.3795  0.4760 -0.3386
 1577SOL    HW1 4879   0.277   0.207   3.242 -0.0760 -0.0018  0.2152
 1577SOL    HW2 4880   0.166   0.281   3.315  0.3773  0.2877  0.6142
 1578SOL     OW 4881   0.542   1.750   3.433  0.6303  0.0891 -0.6841
 1578SOL    HW1 4882   0.520   1.841   3.414  1.7786  0.4861 -0.1627
 1578SOL    HW2 4883   0.476   1.723   3.498  0.7060  0.7751 -0.3096
 1579SOL     OW 4884   3.419   3.191   3.717  0.3301 -0.1744 -0.5693
 1579SOL    HW1 4885   3.501   3.190   3.666  0.9388 -1.4616  0.3941
 1579SOL    HW2 4886   3.353   3.160   3.655  0.8975 -0.8424 -0.8600
 1580SOL     OW 4887   1.866   3.377   0.099  0.2600  0.3415  0.0938
 1580SOL    HW1 4888   1.805   3.318   0.054  1.3309 -0.2216 -0.6473
 1580SOL    HW2 4889   1.892   3.440   0.031 -0.7323  1.5827  0.8289
 1581SOL     OW 4890   3.330   2.193   2.998 -0.0193  0.7278  1.0018
 1581SOL    HW1 4891   3.358   2.245   2.923  1.0623  0.8721  1.4820
 1581SOL    HW2 4892   3.404   2.134   3.015 -2.1239 -2.8596 -1.1172
 1582SOL     OW 4893   3.417   3.067   0.795  0.1462  0.1439 -0.5446
 1582SOL    HW1 4894   3.433   3.022   0.878  0.6102  0.1918 -0.6084
 1582SOL    HW2 4895   3.324   3.052   0.777 -0.2785  1.2016  0.6313
 1583SOL     OW 4896   2.598   1.149   0.883 -0.0212  0.5116 -0.1751
 1583SOL    HW1 4897   2.555   1.065   0.872  0.3276  0.2551  0.3926
 1583SOL    HW2 4898   2.635   1.169   0.797  1.2514 -0.6648  0.0764
 1584SOL     OW 4899   1.152   1.163   1.100  0.4315  0.2343  0.3846
 1584SOL    HW1 4900   1.147   1.128   1.189  0.7699  1.9031  1.0945
 1584SOL    HW2 4901   1.133   1.088   1.044  2.8271 -1.5208  1.7372
 1585SOL     OW 4902   2.333   3.584   2.648  0.7562  0.1944 -0.2913
 1585SOL    HW1 4903   2.264   3.635   2.689 -1.4160 -0.7475 -2.5439
 1585SOL    HW2 4904   2.380   3.543   2.721 -1.8959 -0.1678  1.3305
 1586SOL     OW 4905   1.797   0.914   3.461 -0.4562  0.0343 -0.1658
 1586SOL    HW1 4906   1.799   0.864   3.380 -2.1284  0.5402 -0.5500
 1586SOL    HW2 4907   1.889   0.932   3.481  0.0007 -0.6408 -1.5933
 1587SOL     OW 4908   3.566   1.982   0.952  0.1910  0.0881 -0.2591
 1587SOL    HW1 4909   3.626   2.045   0.991  3.0105 -3.6043  2.0976
 1587SOL    HW2 4910   3.616   1.940   0.882 -0.9883 -0.6400 -0.6958
 1588SOL     OW 4911   0.280   2.518   2.987 -0.1212  0.3299 -0.4095
 1588SOL    HW1 4912   0.241   2.463   2.918 -0.0825  0.5423 -0.6009
 1588SOL    HW2 4913   0.279   2.606   2.950  1.0451  0.2636 -0.6429
 1589SOL     OW 4914   0.606   1.464   0.386  0.1230  0.0426  0.0806
 1589SOL    HW1 4915   0.512   1.448   0.375  0.0106  0.5775  0.2149
 1589SOL    HW2 4916   0.641   1.462   0.297 -0.4841  2.5808 -0.2958
 1590SOL     OW 4917   1.995   3.665   1.654  0.5410  0.2576  0.3963
 1590SOL    HW1 4918   2.068   3.604   1.659 -0.6641 -1.4117 -1.1521
 1590SOL    HW2 4919   2.036   3.751   1.642  2.2729 -0.1814  2.4500
 1591SOL     OW 4920   3.722   0.745   2.610 -0.2597  0.1400  0.5384
 1591SOL    HW1 4921   3.670   0.688   2.667 -1.4809  1.0746  0.3957
 1591SOL    HW2 4922   3.749   0.817   2.666 -3.3746  2.2784 -0.4340
 1592SOL     OW 4923  -0.009   3.695   0.322 -0.0711  0.2141 -0.7926
 1592SOL    HW1 4924  -0.003   3.623   0.385  0.3381 -0.5847 -1.7200
 1592SOL    HW2 4925   0.082   3.709   0.294 -0.2050  0.8152 -0.9201
 1593SOL     OW 4926   2.884   1.867   2.206  0.4882  0.1552 -0.0962
 1593SOL    HW1 4927   2.970   1.829   2.225 -0.7529 -1.9767  1.8166
 1593SOL    HW2 4928   2.822   1.799   2.234 -1.8284  1.7922 -1.0180
 1594SOL     OW 4929   2.809   0.952   0.446  0.4210 -0.7584  0.6103
 1594SOL    HW1 4930   2.825   0.859   0.464  0.2318 -0.4479  2.6056
 1594SOL    HW2 4931   2.895   0.994   0.459 -0.0759 -0.2774  2.8470
 1595SOL     OW 4932   3.159   1.713   2.892 -0.2076 -0.3550 -0.5157
 1595SOL    HW1 4933   3.156   1.787   2.832 -1.4707 -2.2250 -2.9873
 1595SOL    HW2 4934   3.242   1.722   2.938  1.1308  0.9591 -2.9842
 1596SOL     OW 4935   0.381   3.306   0.081  0.3587  0.1227  0.1414
 1596SOL    HW1 4936   0.361   3.341   0.168 -1.2837 -0.3967 -0.0026
 1596SOL    HW2 4937   0.473   3.329   0.067  0.9354 -0.5607  2.3855
 1597SOL     OW 4938   0.348   0.694   1.066  0.0473 -0.7685  0.2620
 1597SOL    HW1 4939   0.418   0.730   1.121  1.0252 -0.9986 -0.7966
 1597SOL    HW2 4940   0.334   0.760   0.998 -1.2985 -0.3914  0.8775
 1598SOL     OW 4941   2.817   1.437   2.395 -0.8754  0.0287  0.0655
 1598SOL    HW1 4942   2.777   1.389   2.467  2.8103 -0.8949  1.7238
 1598SOL    HW2 4943   2.834   1.524   2.430  0.2159 -0.1668  0.0305
 1599SOL     OW 4944   2.851   2.978   2.347 -0.1422 -0.4238 -0.4753
 1599SOL    HW1 4945   2.836   3.061   2.302  2.5230  0.6604  0.4152
 1599SOL    HW2 4946   2.774   2.924   2.326 -1.2925  1.7489 -2.2114
 1600SOL     OW 4947   1.620   3.568   3.542  0.5633 -0.3230  0.4510
 1600SOL    HW1 4948   1.588   3.589   3.454  1.8214  2.2016  0.5040
 1600SOL    HW2 4949   1.544   3.580   3.599  0.2285  0.0070 -0.0537
 1601SOL     OW 4950   3.006   1.541   1.773  0.1956 -0.6044  0.8252
 1601SOL    HW1 4951   3.080   1.496   1.813  1.4370  0.2177 -0.4814
 1601SOL    HW2 4952   2.929   1.503   1.817  1.1557 -3.9177 -0.0770
 1602SOL     OW 4953   1.300   0.944   3.628  0.2730  0.3921 -0.2852
 1602SOL    HW1 4954   1.260   0.928   3.542 -0.9713  2.4617 -0.1610
 1602SOL    HW2 4955   1.252   0.887   3.688 -0.6274  0.7999 -0.5975
 1603SOL     OW 4956   2.482   3.479   3.304  0.3133  0.2347 -0.4765
 1603SOL    HW1 4957   2.474   3.456   3.211 -1.7517  1.1683 -0.5893
 1603SOL    HW2 4958   2.567   3.443   3.330  0.0506 -1.8570 -2.1897
 1604SOL     OW 4959   0.869   0.086   0.673  0.0880  0.3575  0.0351
 1604SOL    HW1 4960   0.774   0.082   0.682  0.0480 -0.1834 -0.4759
 1604SOL    HW2 4961   0.885   0.157   0.611  0.1046  1.2696  1.0586
 1605SOL     OW 4962   3.160   2.652   2.232 -0.2859 -0.3991 -0.6399
 1605SOL    HW1 4963   3.150   2.683   2.142 -1.3236 -2.1390 -1.1732
 1605SOL    HW2 4964   3.211   2.572   2.225  0.0790 -0.2804  0.3918
 1606SOL     OW 4965   1.066   3.065   2.195  0.4023 -0.0746  0.5807
 1606SOL    HW1 4966   1.155   3.057   2.160  0.3263 -0.7981  0.5303
 1606SOL    HW2 4967   1.022   3.126   2.136  0.7370 -0.0678  0.3335
 1607SOL     OW 4968   1.973   0.487   0.045  0.1161  0.1243  0.1011
 1607SOL    HW1 4969   1.925   0.443  -0.025  2.3186 -2.8799  0.2798
 1607SOL    HW2 4970   1.999   0.416   0.104  1.8144  2.0332  1.7927
 1608SOL     OW 4971   2.021   1.324   1.655  0.6720  0.1959 -0.0264
 1608SOL    HW1 4972   1.982   1.410   1.642  0.6273  0.1218 -0.3699
 1608SOL    HW2 4973   2.082   1.337   1.729  1.7236  0.8661 -0.9788
 1609SOL     OW 4974   3.068   2.560   0.691 -0.1467 -0.7133  0.7854
 1609SOL    HW1 4975   3.038   2.583   0.778 -0.9765  1.8570 -0.0981
 1609SOL    HW2 4976   3.079   2.643   0.646  0.6434 -1.9329 -1.4592
 1610SOL     OW 4977   3.466   1.702   2.654 -0.6438  0.1558 -0.5254
 1610SOL    HW1 4978   3.551   1.740   2.679 -1.9288  1.2843  2.7570
 1610SOL    HW2 4979   3.405   1.775   2.661 -2.0136 -0.7868 -2.1369
 1611SOL     OW 4980   1.972   0.803   2.405  0.8196 -0.0501  0.1457
 1611SOL    HW1 4981   1.881   0.798   2.435  1.9559 -2.3138  3.7204
 1611SOL    HW2 4982   1.984   0.896   2.382 -1.7213  0.8040  1.8551
 1612SOL     OW 4983   3.130   0.519   1.985  0.2172 -0.5975 -0.1325
 1612SOL    HW1 4984   3.096   0.507   2.073 -0.9315 -0.1456 -0.5079
 1612SOL    HW2 4985   3.207   0.461   1.982 -1.4760 -3.0463  0.1846
 1613SOL     OW 4986   2.605  -0.013   2.319  0.8124 -0.1338  0.2133
 1613SOL    HW1 4987   2.540  -0.040   2.254 -0.1877 -0.4879  1.3292
 1613SOL    HW2 4988   2.639   0.071   2.286 -0.0809 -0.0313 -0.4708
 1614SOL     OW 4989   1.929   2.201   2.007  0.1498  0.1499 -0.5581
 1614SOL    HW1 4990   1.964   2.267   2.067  0.1541  0.5632 -1.0123
 1614SOL    HW2 4991   2.000   2.139   1.995 -0.4032 -0.8859  1.2177
 1615SOL     OW 4992   2.466   0.107   1.164  0.2439 -0.2156 -0.4481
 1615SOL    HW1 4993   2.396   0.065   1.114  0.0795 -0.8023  0.2579
 1615SOL    HW2 4994   2.424   0.136   1.245  0.8042 -0.5920 -0.0093
 1616SOL     OW 4995   0.874   3.716   1.937  0.2680 -0.3810 -0.3411
 1616SOL    HW1 4996   0.950   3.658   1.928  0.4165 -0.2829  0.2490
 1616SOL    HW2 4997   0.800   3.661   1.911  0.2263 -1.3331  1.6372
 1617SOL     OW 4998   0.154   2.744   2.124 -0.7538 -0.0930  0.1549
 1617SOL    HW1 4999   0.165   2.650   2.109  1.4142  0.0947  0.1466
 1617SOL    HW2 5000   0.204   2.785   2.052 -1.4546  1.0620  0.3005
 1618SOL     OW 5001   0.821   1.732   0.673  0.6897  0.0036 -0.4009
 1618SOL    HW1 5002   0.801   1.734   0.579  0.7217 -1.2155 -0.4430
 1618SOL    HW2 5003   0.736   1.743   0.716  0.6998  0.7715 -0.5582
 1619SOL     OW 5004   0.946   0.241   1.813  0.2247 -0.1436  0.1564
 1619SOL    HW1 5005   0.921   0.148   1.807 -0.0113 -0.1035  0.4525
 1619SOL    HW2 5006   0.880   0.287   1.762 -0.2603 -0.0466  0.8563
 1620SOL     OW 5007   1.494   0.260   1.599 -0.4996 -0.2934 -0.0241
 1620SOL    HW1 5008   1.539   0.344   1.613 -1.0442 -0.0028  0.0270
 1620SOL    HW2 5009   1.430   0.255   1.669 -2.3526  0.5616 -1.5523
 1621SOL     OW 5010   0.915   2.713   0.573  0.3467 -0.0648  0.6110
 1621SOL    HW1 5011   0.893   2.620   0.576  0.4569 -0.0974  0.3954
 1621SOL    HW2 5012   0.850   2.754   0.629 -0.3252 -0.1466 -0.0955
 1622SOL     OW 5013   1.553   3.362   2.479  0.0202  0.1073 -0.0458
 1622SOL    HW1 5014   1.466   3.363   2.518  1.4266  1.9859  3.5624
 1622SOL    HW2 5015   1.586   3.274   2.498 -0.7200 -0.3009 -0.5985
 1623SOL     OW 5016   1.081   1.021   3.417 -0.0703  0.2580  0.6060
 1623SOL    HW1 5017   1.162   1.070   3.401 -0.4947  1.3889  1.7511
 1623SOL    HW2 5018   1.012   1.088   3.416 -1.1984 -0.8439 -1.6222
 1624SOL     OW 5019   2.702   0.199   2.518  0.4498 -0.0220 -0.7041
 1624SOL    HW1 5020   2.699   0.109   2.488 -0.4712 -1.1352  2.3080
 1624SOL    HW2 5021   2.619   0.237   2.489  0.3608 -0.4781 -1.0616
 1625SOL     OW 5022   3.395   3.222   0.269  0.1000  0.0616 -0.6771
 1625SOL    HW1 5023   3.361   3.312   0.271 -1.3750 -0.4791  0.3592
 1625SOL    HW2 5024   3.423   3.209   0.179 -0.9300  1.1260 -1.1775
 1626SOL     OW 5025   3.339   0.951   3.248 -0.2051  0.0318  0.0470
 1626SOL    HW1 5026   3.298   0.924   3.166  2.1291  0.3215 -1.3097
 1626SOL    HW2 5027   3.353   0.869   3.296  0.2590 -0.3814 -0.7753
 1627SOL     OW 5028   0.879   0.913   1.554  0.0419  1.0146 -0.1513
 1627SOL    HW1 5029   0.968   0.910   1.590 -0.1493  0.5172  0.2845
 1627SOL    HW2 5030   0.823   0.877   1.623 -0.7222  2.8358  0.2423
 1628SOL     OW 5031   2.202   1.110   0.398 -0.0072  0.3423  0.2063
 1628SOL    HW1 5032   2.225   1.057   0.321  0.0638  0.4931  0.1254
 1628SOL    HW2 5033   2.110   1.134   0.382  0.4965  1.7924 -0.6517
 1629SOL     OW 5034   1.778   1.720   0.625  0.0730 -0.8996 -0.5119
 1629SOL    HW1 5035   1.845   1.684   0.683  0.1134  0.3750  0.2702
 1629SOL    HW2 5036   1.811   1.702   0.536  1.3651 -0.4681 -0.1412
 1630SOL     OW 5037   0.213   0.479   3.446  0.0639  0.2764 -0.2220
 1630SOL    HW1 5038   0.262   0.557   3.419 -2.2228  2.9950  2.7380
 1630SOL    HW2 5039   0.130   0.485   3.397  0.0108 -0.5464 -0.2460
 1631SOL     OW 5040   3.590   0.241   3.554  0.4069  0.2361  0.2801
 1631SOL    HW1 5041   3.628   0.176   3.494 -1.5360 -1.4844  0.7949
 1631SOL    HW2 5042   3.652   0.245   3.627  0.2515 -1.6579  0.5824
 1632SOL     OW 5043   0.428   0.307   3.163  0.5878 -0.1866  0.5247
 1632SOL    HW1 5044   0.503   0.320   3.221  0.6454 -1.5366  0.7668
 1632SOL    HW2 5045   0.465   0.263   3.086  0.0956 -0.5631  0.5027
 1633SOL     OW 5046   2.157   2.532   0.978  0.0617 -0.1733  0.0941
 1633SOL    HW1 5047   2.251   2.530   0.959 -0.0940  1.4514 -0.9843
 1633SOL    HW2 5048   2.118   2.471   0.916  0.3817 -0.7626  0.4663
 1634SOL     OW 5049   2.623   0.351   3.121 -0.7416  0.2076 -0.4694
 1634SOL    HW1 5050   2.713   0.356   3.088 -1.0578  0.4540 -1.3114
 1634SOL    HW2 5051   2.581   0.430   3.086 -1.0889  0.4818  0.5337
 1635SOL     OW 5052   2.934   3.376   0.296 -0.2199  0.2008 -0.3092
 1635SOL    HW1 5053   2.850   3.391   0.252 -0.0515  0.2189 -0.6214
 1635SOL    HW2 5054   2.931   3.436   0.372 -1.0397 -0.7346  0.4261
 1636SOL     OW 5055   0.497   2.697   1.042  0.7461  0.5403 -0.4196
 1636SOL    HW1 5056   0.402   2.705   1.034  0.7452 -0.2606 -1.3302
 1636SOL    HW2 5057   0.526   2.669   0.956  1.5418 -1.6474  0.4949
 1637SOL     OW 5058   3.531   3.508   0.768  0.2582 -0.0360  0.0233
 1637SOL    HW1 5059   3.615   3.464   0.784 -0.2751 -0.9096  0.4917
 1637SOL    HW2 5060   3.528   3.578   0.833  0.0431 -0.8399  0.8978
 1638SOL     OW 5061   3.481   3.500   0.011  0.5048 -0.1939  0.4449
 1638SOL    HW1 5062   3.537   3.484  -0.065 -1.1434  1.2381 -1.1916
 1638SOL    HW2 5063   3.531   3.560   0.066  1.1130  0.0484 -0.3520
 1639SOL     OW 5064   3.100   1.185   2.943 -0.7905 -0.6885 -0.1607
 1639SOL    HW1 5065   3.050   1.142   3.012 -0.3823 -0.3866  0.3357
 1639SOL    HW2 5066   3.035   1.225   2.886 -1.1784 -1.8759 -0.5894
 1640SOL     OW 5067   0.801   3.008   0.627  0.9124  0.3761  0.3676
 1640SOL    HW1 5068   0.774   3.100   0.617 -1.6794 -0.4745 -1.1971
 1640SOL    HW2 5069   0.843   2.986   0.544 -1.0830 -0.5968 -0.4478
 1641SOL     OW 5070   2.370   3.479   0.262 -0.5877  0.3634 -0.2689
 1641SOL    HW1 5071   2.439   3.528   0.307  0.4768  0.7177 -2.2122
 1641SOL    HW2 5072   2.378   3.390   0.297 -0.4859  0.8317  0.9722
 1642SOL     OW 5073   3.155   0.880   1.596  0.0524  0.8640  0.7896
 1642SOL    HW1 5074   3.127   0.945   1.532 -0.4202  2.0380  2.1506
 1642SOL    HW2 5075   3.082   0.819   1.603 -0.1253  1.0638  0.6613
 1643SOL     OW 5076   0.095   3.345   2.363 -0.2795  0.0816  0.0762
 1643SOL    HW1 5077   0.017   3.401   2.365 -1.0672 -0.9996  1.9350
 1643SOL    HW2 5078   0.061   3.256   2.366  0.9902 -0.5187 -1.7486
 1644SOL     OW 5079   0.193   1.336   1.687 -0.0256 -0.3104 -1.0380
 1644SOL    HW1 5080   0.247   1.415   1.674 -0.0296 -0.1252 -0.0451
 1644SOL    HW2 5081   0.168   1.309   1.599  1.0253  0.0720 -1.4764
 1645SOL     OW 5082   3.010   0.963   3.214  0.1001 -0.1759 -0.7845
 1645SOL    HW1 5083   3.032   0.895   3.150  0.4716 -1.1137  0.3049
 1645SOL    HW2 5084   2.921   0.990   3.192 -1.4164 -3.4250  0.7311
 1646SOL     OW 5085   1.424   1.325   2.189  0.1503 -0.0830  0.7306
 1646SOL    HW1 5086   1.489   1.280   2.244  0.6036 -0.6563 -0.2555
 1646SOL    HW2 5087   1.471   1.347   2.109 -0.6975  0.0843  0.2692
 1647SOL     OW 5088   3.311   1.613   1.574 -0.1335 -0.7143  0.3772
 1647SOL    HW1 5089   3.311   1.537   1.516 -0.8404 -1.1908  0.9792
 1647SOL    HW2 5090   3.248   1.673   1.535 -0.1178 -0.7517  0.2949
 1648SOL     OW 5091   2.569   1.478   1.380  0.0269 -0.6664  0.3960
 1648SOL    HW1 5092   2.566   1.422   1.302  1.1901 -0.0918 -0.0756
 1648SOL    HW2 5093   2.502   1.545   1.364  2.2495  1.2451 -1.5536
 1649SOL     OW 5094   2.266   2.844   1.712 -0.6468 -0.2072 -0.2564
 1649SOL    HW1 5095   2.301   2.867   1.798  2.0425 -0.1961 -1.2427
 1649SOL    HW2 5096   2.336   2.794   1.670 -2.0587 -0.6443 -2.2733
 1650SOL     OW 5097   1.656   3.103   0.602 -0.0648 -0.3526  0.3036
 1650SOL    HW1 5098   1.638   3.159   0.678 -0.1732 -2.0888  1.6381
 1650SOL    HW2 5099   1.670   3.164   0.530  0.7598  1.4231  1.8647
 1651SOL     OW 5100  -0.010   1.660   2.932 -0.5643  0.1109  0.3331
 1651SOL    HW1 5101   0.006   1.744   2.889 -1.6819 -0.3275 -1.0236
 1651SOL    HW2 5102   0.051   1.599   2.889 -0.1151  0.1146  0.9546
 1652SOL     OW 5103   2.429   3.370   3.055  0.0631 -0.1709  0.0430
 1652SOL    HW1 5104   2.472   3.288   3.033  1.4526  0.5482 -0.0872
 1652SOL    HW2 5105   2.448   3.427   2.980  0.4564  0.7287  0.8076
 1653SOL     OW 5106   0.164   1.108   1.810  0.5006 -0.0347 -0.5329
 1653SOL    HW1 5107   0.195   1.191   1.776  0.8849  0.6864  1.4719
 1653SOL    HW2 5108   0.199   1.103   1.899 -1.2029 -1.3764  0.1274
 1654SOL     OW 5109   0.295   0.485   1.808  0.0681  0.2636 -0.3125
 1654SOL    HW1 5110   0.272   0.479   1.901 -2.3541 -1.6526 -0.9171
 1654SOL    HW2 5111   0.291   0.578   1.788 -3.3752  0.4860  0.7169
 1655SOL     OW 5112   1.087   2.970   3.563 -0.1892  0.4085  0.6349
 1655SOL    HW1 5113   1.166   2.946   3.514 -1.1535 -0.5826 -0.5036
 1655SOL    HW2 5114   1.060   3.054   3.525  0.5502  0.9875  1.3496
 1656SOL     OW 5115   1.727   0.156   1.781  0.1619  0.5145 -0.0925
 1656SOL    HW1 5116   1.764   0.166   1.869  0.1015 -0.1289  0.0072
 1656SOL    HW2 5117   1.669   0.232   1.771  2.3149  2.1726 -0.6847
 1657SOL     OW 5118   0.274   1.612   1.157 -0.1946  0.0555 -0.1268
 1657SOL    HW1 5119   0.265   1.525   1.195 -1.6278  0.3675  0.3109
 1657SOL    HW2 5120   0.189   1.653   1.171  0.1052  1.1463 -1.2913
 1658SOL     OW 5121   0.414   3.223   3.405 -0.6922 -0.3936  0.4512
 1658SOL    HW1 5122   0.454   3.158   3.463  1.0611 -0.7521 -1.0709
 1658SOL    HW2 5123   0.488   3.277   3.376 -1.4607 -0.3914 -1.6435
 1659SOL     OW 5124   1.292   1.567   1.134  0.5966 -0.4717  0.3467
 1659SOL    HW1 5125   1.347   1.592   1.059 -1.5673  0.5570 -1.0277
 1659SOL    HW2 5126   1.290   1.645   1.189  1.6254 -0.9936  1.1447
 1660SOL     OW 5127   0.652   1.888   0.326 -0.1699 -0.6436  0.3369
 1660SOL    HW1 5128   0.635   1.974   0.288 -2.3667 -0.8990  0.6378
 1660SOL    HW2 5129   0.648   1.827   0.252 -1.5634 -0.7973  0.5084
 1661SOL     OW 5130   3.573   3.078   2.660  0.6782  0.1147 -0.1019
 1661SOL    HW1 5131   3.666   3.097   2.648  0.3688  0.1866 -3.4335
 1661SOL    HW2 5132   3.531   3.112   2.581 -2.4368  1.3333  1.8969
 1662SOL     OW 5133   2.692   2.451   0.299 -0.5448  0.4316  0.3831
 1662SOL    HW1 5134   2.748   2.472   0.225  1.0166  1.3849  1.7808
 1662SOL    HW2 5135   2.661   2.362   0.282  1.7137 -0.2804 -0.2594
 1663SOL     OW 5136   1.470   2.740   0.347 -0.7391  0.3697 -0.0477
 1663SOL    HW1 5137   1.513   2.716   0.265  0.5582 -0.7549  0.9100
 1663SOL    HW2 5138   1.489   2.833   0.359  0.8471  0.0709 -0.0295
 1664SOL     OW 5139   1.004   1.006   0.928 -0.0725  0.2343 -0.1871
 1664SOL    HW1 5140   0.964   1.077   0.978  1.4264 -0.0553  1.5230
 1664SOL    HW2 5141   0.941   0.988   0.857 -2.7876  0.0419  2.0762
 1665SOL     OW 5142   3.141   1.888   1.500 -0.6190 -0.4403 -0.2124
 1665SOL    HW1 5143   3.151   1.979   1.472 -0.4004 -1.0700 -2.3248
 1665SOL    HW2 5144   3.058   1.860   1.463 -0.9532 -0.9645  0.8915
 1666SOL     OW 5145   1.777   3.549   2.108 -0.2448 -0.1894 -0.2018
 1666SOL    HW1 5146   1.720   3.527   2.182  0.5855 -0.5009  0.3608
 1666SOL    HW2 5147   1.860   3.507   2.129  0.3830  0.7638 -0.7156
 1667SOL     OW 5148   3.446   1.693   3.011 -0.0749 -0.7137 -0.4065
 1667SOL    HW1 5149   3.532   1.689   2.969  0.5921  0.7463  0.7157
 1667SOL    HW2 5150   3.440   1.611   3.061 -0.9809 -2.5784 -3.3429
 1668SOL     OW 5151   1.529   1.225   3.432  0.1878 -0.2571 -0.0463
 1668SOL    HW1 5152   1.450   1.256   3.476  0.1955  0.0083 -0.2117
 1668SOL    HW2 5153   1.542   1.288   3.361  1.2312  0.4040  0.7023
 1669SOL     OW 5154   3.343   0.719   3.407  0.1061 -0.8097  0.1060
 1669SOL    HW1 5155   3.358   0.625   3.407 -0.0298 -0.8636  1.5935
 1669SOL    HW2 5156   3.321   0.739   3.498 -2.3878  0.2540 -0.6549
 1670SOL     OW 5157   2.616   0.204   0.587 -0.5252 -0.3203 -0.0922
 1670SOL    HW1 5158   2.669   0.266   0.638  0.6333 -0.8984 -0.5585
 1670SOL    HW2 5159   2.526   0.236   0.596 -0.2155  0.1889  1.4468
 1671SOL     OW 5160   3.529   1.241   3.682  0.4186 -0.1332 -0.1145
 1671SOL    HW1 5161   3.502   1.322   3.724  0.9172 -0.4940  0.9166
 1671SOL    HW2 5162   3.559   1.268   3.595  0.1470  0.7165  0.0460
 1672SOL     OW 5163   0.622   1.780   1.574 -0.5288  0.1305  0.4357
 1672SOL    HW1 5164   0.616   1.868   1.537  0.2560 -0.3860 -1.0232
 1672SOL    HW2 5165   0.606   1.792   1.668 -0.0485  1.8732  0.3309
 1673SOL     OW 5166   3.593   2.528   2.775  0.4202  0.1659 -0.1184
 1673SOL    HW1 5167   3.513   2.477   2.776 -0.0458  0.8468  1.9259
 1673SOL    HW2 5168   3.575   2.603   2.832  1.8367  1.4044 -1.2213
 1674SOL     OW 5169   1.566   0.403   3.296  0.2160  0.3823  0.2083
 1674SOL    HW1 5170   1.572   0.318   3.339  1.3129  0.3805  0.0823
 1674SOL    HW2 5171   1.576   0.384   3.202 -0.3948  0.5679  0.0996
 1675SOL     OW 5172   2.431   1.590   2.381  0.8717  0.6688 -0.2920
 1675SOL    HW1 5173   2.454   1.536   2.305 -1.2934 -1.2335  0.3038
 1675SOL    HW2 5174   2.513   1.597   2.430  1.5582 -0.8808 -1.1346
 1676SOL     OW 5175   3.637   1.479   1.309 -0.7830 -0.3986 -0.0283
 1676SOL    HW1 5176   3.551   1.466   1.347 -1.8163  0.3835 -1.9319
 1676SOL    HW2 5177   3.686   1.530   1.374 -1.3018 -1.9151  1.5997
 1677SOL     OW 5178   1.106   2.430   1.351  0.2138 -0.2501 -0.0018
 1677SOL    HW1 5179   1.123   2.398   1.263 -1.6290 -3.2427  0.5749
 1677SOL    HW2 5180   1.130   2.357   1.408 -0.9818  0.6408  1.7568
 1678SOL     OW 5181   2.210   1.378   2.715 -0.4357  0.1481  0.7325
 1678SOL    HW1 5182   2.242   1.363   2.626 -3.3404  1.7722 -0.7134
 1678SOL    HW2 5183   2.256   1.457   2.744  0.1110 -0.0650  0.4584
 1679SOL     OW 5184   2.802   3.563   2.671  0.2443 -0.1954  0.0215
 1679SOL    HW1 5185   2.841   3.482   2.705  1.1184 -0.8655 -2.3682
 1679SOL    HW2 5186   2.747   3.535   2.598 -2.7673  1.0260  1.6732
 1680SOL     OW 5187   2.928   1.147   1.557 -0.0407 -0.1032  0.6662
 1680SOL    HW1 5188   2.937   1.201   1.478  0.9892 -0.0064  0.8308
 1680SOL    HW2 5189   2.845   1.103   1.547 -1.2608  2.0122  0.8095
 1681SOL     OW 5190   0.793   0.062   3.485  0.2942 -0.6184 -0.5036
 1681SOL    HW1 5191   0.856   0.026   3.548 -1.6298 -1.9733  0.7785
 1681SOL    HW2 5192   0.734  -0.011   3.468 -1.5140  0.8713 -0.8468
 1682SOL     OW 5193   3.688   3.133   0.681  0.0218 -0.2971 -0.4701
 1682SOL    HW1 5194   3.599   3.138   0.715  1.3671  0.6480  3.4748
 1682SOL    HW2 5195   3.698   3.041   0.655 -1.9813 -0.4893 -0.7142
 1683SOL     OW 5196   0.156   0.884   0.093  0.3108 -0.4621 -0.7807
 1683SOL    HW1 5197   0.184   0.868   0.003  0.9811 -1.0790 -0.4707
 1683SOL    HW2 5198   0.078   0.829   0.104 -0.4723  0.4966 -1.3317
 1684SOL     OW 5199   0.566   2.563   2.293  0.8631  0.2325 -0.1517
 1684SOL    HW1 5200   0.627   2.598   2.358  0.0899  0.8948  0.2332
 1684SOL    HW2 5201   0.481   2.597   2.320  0.3146 -0.6879 -0.6708
 1685SOL     OW 5202   2.415   2.367   3.608  0.0722  0.4317  0.1024
 1685SOL    HW1 5203   2.360   2.311   3.663 -0.5403  0.3172 -0.6111
 1685SOL    HW2 5204   2.364   2.448   3.597  0.7584  0.9703  0.7615
 1686SOL     OW 5205   1.816   2.943   0.243 -0.4336 -0.3682  0.1976
 1686SOL    HW1 5206   1.847   3.023   0.286 -0.7067 -1.1183  1.8569
 1686SOL    HW2 5207   1.721   2.950   0.244 -0.4680  0.4520 -2.0389
 1687SOL     OW 5208   1.754   1.622   0.318  0.6802 -0.1512 -0.4229
 1687SOL    HW1 5209   1.714   1.535   0.326  3.5570 -1.4822  0.9373
 1687SOL    HW2 5210   1.739   1.647   0.227 -2.8817 -0.5808 -0.1089
 1688SOL     OW 5211   2.051   3.108   3.408 -0.6404 -0.0260  0.2339
 1688SOL    HW1 5212   2.120   3.104   3.474 -0.1275  0.1649 -0.2825
 1688SOL    HW2 5213   2.083   3.172   3.344 -0.6863 -0.9151 -0.6987
 1689SOL     OW 5214   0.116   2.091   0.274  0.1604 -0.2256  0.1498
 1689SOL    HW1 5215   0.173   2.015   0.285  0.0809 -0.4642 -0.9575
 1689SOL    HW2 5216   0.048   2.062   0.213 -2.0879 -0.4420  2.6061
 1690SOL     OW 5217   3.544   2.352   0.355 -1.4939  0.5846  0.7722
 1690SOL    HW1 5218   3.463   2.301   0.363 -2.0642  1.5058  1.2057
 1690SOL    HW2 5219   3.555   2.391   0.442  0.1488 -0.5581  1.1072
 1691SOL     OW 5220   2.237   3.491   1.989  0.3272 -0.1461  0.0644
 1691SOL    HW1 5221   2.204   3.403   1.976  2.3257 -0.9830  0.3170
 1691SOL    HW2 5222   2.221   3.535   1.905 -0.4597 -0.8180 -0.1454
 1692SOL     OW 5223   0.851   0.939   2.703  0.1857 -0.1944  0.0054
 1692SOL    HW1 5224   0.897   0.946   2.787 -0.2864 -0.4506  0.2874
 1692SOL    HW2 5225   0.848   1.029   2.671  0.1809 -0.0617  0.3638
 1693SOL     OW 5226   2.529   3.695   1.631  0.1702  0.3284 -0.2064
 1693SOL    HW1 5227   2.540   3.604   1.659  0.9398  0.5820  0.3560
 1693SOL    HW2 5228   2.534   3.746   1.712  1.7305  1.0215 -0.7040
 1694SOL     OW 5229   1.331   0.883   2.189  0.5301  0.2061  0.3463
 1694SOL    HW1 5230   1.351   0.831   2.268 -0.4054 -0.9196 -0.1288
 1694SOL    HW2 5231   1.307   0.969   2.223  1.4089  0.1350  1.2054
 1695SOL     OW 5232   0.987   1.213   1.335  0.0078 -0.2357 -0.0940
 1695SOL    HW1 5233   0.911   1.264   1.305  2.2918  2.0954 -2.4543
 1695SOL    HW2 5234   0.992   1.230   1.429 -2.0844 -0.1162  0.0443
 1696SOL     OW 5235   2.384   2.690   2.283 -0.6805 -0.0412 -0.4441
 1696SOL    HW1 5236   2.458   2.717   2.338 -1.4877  0.4248  0.4387
 1696SOL    HW2 5237   2.314   2.751   2.306 -0.6250  1.1583 -3.0841
 1697SOL     OW 5238   0.569   2.818   0.690 -0.0309 -0.2760  0.7926
 1697SOL    HW1 5239   0.486   2.849   0.726 -0.5937 -0.5731 -0.2100
 1697SOL    HW2 5240   0.628   2.893   0.698 -0.0164 -0.4310  2.6175
 1698SOL     OW 5241   1.852   0.387   3.546  0.5056  0.1662 -0.0885
 1698SOL    HW1 5242   1.772   0.334   3.546  0.2971  0.4230  1.7930
 1698SOL    HW2 5243   1.847   0.437   3.464 -0.8803 -0.3873 -0.3785
 1699SOL     OW 5244   3.712   3.658   1.744 -0.0669 -0.1514 -0.1679
 1699SOL    HW1 5245   3.621   3.674   1.720 -0.0761 -2.2814 -1.9887
 1699SOL    HW2 5246   3.709   3.581   1.801  0.4812  0.8543  1.2434
 1700SOL     OW 5247   2.908   1.877   3.370 -0.6698 -0.5793  0.2011
 1700SOL    HW1 5248   2.860   1.894   3.451 -0.8261  1.0762 -0.2006
 1700SOL    HW2 5249   2.854   1.814   3.323 -2.9786  1.7990 -0.5844
 1701SOL     OW 5250   1.886   0.084   2.031  0.5526 -0.3949 -1.2071
 1701SOL    HW1 5251   1.915   0.109   2.118  1.7951  1.7266 -2.1554
 1701SOL    HW2 5252   1.834   0.005   2.045  0.4507  0.0470  1.4715
 1702SOL     OW 5253   3.277   1.251   0.226 -0.3035 -0.2089 -0.1972
 1702SOL    HW1 5254   3.268   1.253   0.321 -0.9192  0.2190 -0.2599
 1702SOL    HW2 5255   3.192   1.281   0.193  0.4622  1.3736 -0.8505
 1703SOL     OW 5256   1.501   0.740   0.440  0.3241 -0.9285 -0.0994
 1703SOL    HW1 5257   1.469   0.816   0.391  1.8936 -1.2849 -1.7543
 1703SOL    HW2 5258   1.500   0.769   0.531  0.0011  0.7568 -0.5942
 1704SOL     OW 5259   3.000   0.222   0.942 -0.2882 -0.4131 -0.2793
 1704SOL    HW1 5260   3.079   0.238   0.890 -1.4558  1.4557 -1.5888
 1704SOL    HW2 5261   3.019   0.264   1.027  0.3129 -0.4598 -0.3826
 1705SOL     OW 5262   1.242   3.628   2.576 -0.4809 -0.0231  0.6882
 1705SOL    HW1 5263   1.240   3.545   2.625 -0.3181  1.0314  2.5947
 1705SOL    HW2 5264   1.207   3.606   2.490 -0.2681 -2.1070  1.0841
 1706SOL     OW 5265   2.969   3.482   1.448 -0.2036  0.5040  0.1277
 1706SOL    HW1 5266   3.047   3.463   1.501 -0.4477 -1.2633 -0.1080
 1706SOL    HW2 5267   2.896   3.452   1.501 -0.7092  1.6658  0.1126
 1707SOL     OW 5268   0.515   3.604   0.627  0.3464 -0.6503  0.0093
 1707SOL    HW1 5269   0.521   3.591   0.532 -0.1985  0.2169 -0.1546
 1707SOL    HW2 5270   0.517   3.516   0.664 -0.0927 -1.0307 -0.8533
 1708SOL     OW 5271   1.872   1.239   3.441 -0.0438  0.3201 -0.3724
 1708SOL    HW1 5272   1.779   1.233   3.419 -0.1971  0.5198  0.2056
 1708SOL    HW2 5273   1.874   1.265   3.533  0.5502  4.1469 -1.2808
 1709SOL     OW 5274   1.377   3.441   0.702  0.6019 -0.4034  0.8662
 1709SOL    HW1 5275   1.341   3.511   0.757  1.0373  0.1257  0.4904
 1709SOL    HW2 5276   1.460   3.477   0.669 -0.4551  0.0258 -1.5521
 1710SOL     OW 5277   1.106   2.216   1.957  0.0482 -0.7201  0.7200
 1710SOL    HW1 5278   1.101   2.149   2.025  2.1675 -1.3832  0.2942
 1710SOL    HW2 5279   1.192   2.203   1.917 -0.8014  0.1912 -1.5419
 1711SOL     OW 5280   3.059   3.476   2.807  0.2025  0.2886 -0.1272
 1711SOL    HW1 5281   3.059   3.390   2.765  1.1595  0.1598  0.1070
 1711SOL    HW2 5282   3.152   3.494   2.824 -0.0423  1.0592  0.4489
 1712SOL     OW 5283   2.515   0.521   2.864  0.2138 -0.6814 -0.1203
 1712SOL    HW1 5284   2.494   0.428   2.869 -1.5913 -0.3252 -0.4551
 1712SOL    HW2 5285   2.575   0.527   2.789  1.8348 -1.7718  1.0242
 1713SOL     OW 5286   0.183   0.139   1.189  0.7285 -0.1719  0.2786
 1713SOL    HW1 5287   0.153   0.167   1.103  0.0671  0.0614  0.5845
 1713SOL    HW2 5288   0.182   0.043   1.185 -0.4942 -0.1747  0.4310
 1714SOL     OW 5289   1.537   1.257   0.313  0.4215  0.1234 -0.0306
 1714SOL    HW1 5290   1.504   1.174   0.279 -0.2671  0.6600 -0.6941
 1714SOL    HW2 5291   1.513   1.256   0.406 -1.1008  0.3045 -0.3927
 1715SOL     OW 5292   0.695   3.462   3.487 -0.3502 -0.0385  0.1936
 1715SOL    HW1 5293   0.665   3.440   3.575  0.8110  1.8943  1.1242
 1715SOL    HW2 5294   0.789   3.441   3.487 -0.4360 -0.4987 -0.7628
 1716SOL     OW 5295   2.348   2.353   0.271  0.4452  0.5165  0.0735
 1716SOL    HW1 5296   2.294   2.310   0.204 -1.3806  1.7069  0.7157
 1716SOL    HW2 5297   2.437   2.323   0.253 -0.2870 -0.7778 -1.6228
 1717SOL     OW 5298   0.872   3.434   1.687  0.7293 -0.6289  0.1411
 1717SOL    HW1 5299   0.938   3.456   1.622  0.5696  1.8270  0.7257
 1717SOL    HW2 5300   0.824   3.360   1.649  0.9426  0.4145 -2.3171
 1718SOL     OW 5301   2.668   2.443   3.599 -0.0537 -0.4678 -0.0627
 1718SOL    HW1 5302   2.684   2.501   3.674  0.3392 -0.6788  0.0188
 1718SOL    HW2 5303   2.573   2.438   3.593 -0.1542 -2.2150  1.7980
 1719SOL     OW 5304   3.163   1.894   1.169 -0.2341 -0.0800  0.1326
 1719SOL    HW1 5305   3.224   1.959   1.135 -1.3419  0.1280 -1.5298
 1719SOL    HW2 5306   3.216   1.839   1.227  0.8513  1.9045  1.0900
 1720SOL     OW 5307   1.891   3.483   0.574 -0.4957  1.1405 -0.0523
 1720SOL    HW1 5308   1.986   3.491   0.583 -0.1263 -0.8593 -1.5283
 1720SOL    HW2 5309   1.874   3.498   0.481 -1.1560 -1.7967 -0.4895
 1721SOL     OW 5310   0.524   0.213   1.938 -0.4478 -0.1956  0.2693
 1721SOL    HW1 5311   0.589   0.144   1.949  0.5931  0.5147 -1.0443
 1721SOL    HW2 5312   0.487   0.226   2.025  0.0087 -1.7320  0.7252
 1722SOL     OW 5313   0.493   2.663   2.785  0.2662  0.1678 -0.1600
 1722SOL    HW1 5314   0.430   2.714   2.837 -2.2358 -0.5190 -2.2946
 1722SOL    HW2 5315   0.559   2.727   2.758 -0.9100  1.5421  0.0769
 1723SOL     OW 5316   0.423   0.671   0.065  0.3099  0.8528 -0.6191
 1723SOL    HW1 5317   0.411   0.578   0.086  0.8548  0.5400 -1.6186
 1723SOL    HW2 5318   0.337   0.710   0.081  0.0189  0.1433 -0.3788
 1724SOL     OW 5319   0.376   2.984   0.722  0.8003  0.1067 -0.0210
 1724SOL    HW1 5320   0.314   2.953   0.655  0.7846  0.1441 -0.0239
 1724SOL    HW2 5321   0.404   3.070   0.690 -1.0465  1.2452  1.2028
 1725SOL     OW 5322   2.930   1.128   0.763 -0.4537 -0.4534 -0.8164
 1725SOL    HW1 5323   2.883   1.200   0.721  2.5404  0.4964 -2.9688
 1725SOL    HW2 5324   2.953   1.070   0.690  2.2390 -0.4217 -0.1027
 1726SOL     OW 5325   2.959   2.873   1.983 -0.5290  0.8608  0.0450
 1726SOL    HW1 5326   3.005   2.884   1.900  0.9224 -2.6785  0.1802
 1726SOL    HW2 5327   3.024   2.892   2.050 -0.1163 -1.0381  0.2534
 1727SOL     OW 5328   3.559   1.697   3.319  0.1535 -0.0997 -0.5642
 1727SOL    HW1 5329   3.490   1.728   3.378  1.6878 -1.1609  1.9581
 1727SOL    HW2 5330   3.511   1.651   3.250 -1.7473 -1.5462  1.5228
 1728SOL     OW 5331   0.446   3.723   2.424 -0.2518 -0.1734 -0.2670
 1728SOL    HW1 5332   0.421   3.630   2.428 -1.2041  0.0968  0.3556
 1728SOL    HW2 5333   0.364   3.770   2.435  0.3349  0.7531  0.2420
 1729SOL     OW 5334   0.758   0.927   0.522 -0.1653 -0.6365  0.0794
 1729SOL    HW1 5335   0.826   0.986   0.553 -0.8331  0.6516 -0.8077
 1729SOL    HW2 5336   0.743   0.953   0.431 -2.2725 -0.4413  0.4243
 1730SOL     OW 5337   3.260   2.874   3.711 -0.5856 -0.3139 -0.2286
 1730SOL    HW1 5338   3.352   2.893   3.729 -0.4290 -1.9513  0.9392
 1730SOL    HW2 5339   3.255   2.871   3.615  0.2061  1.3432 -0.3580
 1731SOL     OW 5340   2.391   0.528   3.186  0.0882 -0.1473  0.8079
 1731SOL    HW1 5341   2.415   0.530   3.278  2.4474  0.3395  0.2524
 1731SOL    HW2 5342   2.379   0.436   3.165  0.9111 -0.3654  1.2899
 1732SOL     OW 5343   1.963   1.311   3.201 -0.2983  0.5583 -0.0452
 1732SOL    HW1 5344   1.967   1.278   3.290 -0.2919  1.1497  0.1802
 1732SOL    HW2 5345   2.039   1.273   3.157 -0.6388 -0.2208  0.0287
 1733SOL     OW 5346   1.869   3.185   0.379  0.7311  0.2376 -0.3351
 1733SOL    HW1 5347   1.948   3.236   0.396  1.1612 -0.3500 -0.5221
 1733SOL    HW2 5348   1.802   3.250   0.356  1.1545  0.7399 -0.1519
 1734SOL     OW 5349   1.018   3.343   1.969 -0.2937  0.0118  0.7373
 1734SOL    HW1 5350   0.952   3.275   1.958 -0.7892  0.5153  0.5440
 1734SOL    HW2 5351   0.981   3.403   2.034 -0.7754  1.1760 -0.5609
 1735SOL     OW 5352   2.166   1.445   0.736 -0.4174  0.5178 -0.4703
 1735SOL    HW1 5353   2.162   1.490   0.651 -0.4647  1.4351  0.0079
 1735SOL    HW2 5354   2.155   1.352   0.714 -3.5386  0.9486 -1.2094
 1736SOL     OW 5355   3.725   2.669   0.290  0.0627  0.1065  0.2194
 1736SOL    HW1 5356   3.665   2.742   0.274 -0.8684 -1.2667 -3.7578
 1736SOL    HW2 5357   3.692   2.628   0.370 -1.7705  1.7819  0.4012
 1737SOL     OW 5358   3.340   2.321   2.755  0.1089 -0.0984  0.6279
 1737SOL    HW1 5359   3.398   2.249   2.731  1.2451  1.0539 -0.2560
 1737SOL    HW2 5360   3.312   2.358   2.671 -0.5099  0.4403  1.0634
 1738SOL     OW 5361   1.950   1.758   3.006  0.0139 -0.3694 -0.1427
 1738SOL    HW1 5362   1.935   1.846   2.971  1.1898 -0.1239 -0.0663
 1738SOL    HW2 5363   1.970   1.704   2.929  2.7338  0.1990  0.0708
 1739SOL     OW 5364   1.882   2.542   1.118 -0.4110  0.2251  0.2020
 1739SOL    HW1 5365   1.960   2.512   1.165 -0.9826 -0.9606  0.4169
 1739SOL    HW2 5366   1.917   2.584   1.039  0.4429 -0.3922  0.2355
 1740SOL     OW 5367   2.022   2.179   1.083  0.4446 -0.0135 -0.8197
 1740SOL    HW1 5368   1.997   2.268   1.061 -0.6919 -0.4519 -1.4039
 1740SOL    HW2 5369   1.986   2.165   1.171  0.0047 -0.1262 -1.0171
 1741SOL     OW 5370   0.488   1.625   0.992  0.1023  0.1263  0.2305
 1741SOL    HW1 5371   0.443   1.624   1.076  4.1020  0.5453  2.5918
 1741SOL    HW2 5372   0.510   1.533   0.975 -2.4792 -0.2653 -1.5892
 1742SOL     OW 5373   0.162   3.284   3.278  1.1182  0.5889 -0.3836
 1742SOL    HW1 5374   0.247   3.280   3.321  0.0432  0.0795  1.8479
 1742SOL    HW2 5375   0.152   3.375   3.252  1.2595  1.3047  1.8184
 1743SOL     OW 5376   3.569   1.531   2.477 -0.3262  0.6097  0.7908
 1743SOL    HW1 5377   3.531   1.579   2.551  0.4068 -0.9545  2.2705
 1743SOL    HW2 5378   3.646   1.581   2.452 -0.4951  1.0867  1.2143
 1744SOL     OW 5379   1.801   3.503   0.820  0.0361 -0.4163 -0.1450
 1744SOL    HW1 5380   1.844   3.428   0.862  0.4029  0.1590  0.5171
 1744SOL    HW2 5381   1.835   3.502   0.730  1.2477 -0.1441  0.2815
 1745SOL     OW 5382   2.601   1.412   0.490  0.0144 -0.1259 -0.2097
 1745SOL    HW1 5383   2.542   1.338   0.503 -0.1359 -0.2895 -1.6802
 1745SOL    HW2 5384   2.545   1.489   0.498  0.2630 -0.1131  1.8384
 1746SOL     OW 5385   1.047   2.156   2.411  0.2248 -0.5053 -0.0359
 1746SOL    HW1 5386   1.005   2.171   2.496  0.7591  0.7040  0.0304
 1746SOL    HW2 5387   1.098   2.235   2.395 -2.2083  0.6849 -2.8929
 1747SOL     OW 5388   2.328   0.564   2.276  0.4842 -0.5382 -0.1936
 1747SOL    HW1 5389   2.258   0.529   2.331  0.7014 -1.4652 -0.4980
 1747SOL    HW2 5390   2.293   0.647   2.243 -1.6373 -2.2547 -2.6173
 1748SOL     OW 5391   2.828   1.344   0.634  0.0387  0.3160 -0.1826
 1748SOL    HW1 5392   2.839   1.436   0.660 -0.6188  1.0640 -2.4010
 1748SOL    HW2 5393   2.754   1.344   0.574 -0.2521 -1.7691  0.0960
 1749SOL     OW 5394   3.445   1.193   1.475  0.2815 -0.5624  0.0155
 1749SOL    HW1 5395   3.491   1.162   1.553 -0.9422  0.3986  1.1657
 1749SOL    HW2 5396   3.372   1.245   1.509 -0.0362  0.2472 -1.7874
 1750SOL     OW 5397   0.229   3.580   1.049 -0.2099 -0.0346  0.1057
 1750SOL    HW1 5398   0.276   3.499   1.066 -1.0895 -0.6611 -0.4079
 1750SOL    HW2 5399   0.137   3.558   1.058 -0.5913  0.3622 -2.1450
 1751SOL     OW 5400   2.902   2.937   3.527 -0.3596  0.1412 -0.7721
 1751SOL    HW1 5401   2.915   2.972   3.439 -0.7900 -0.3380 -1.0358
 1751SOL    HW2 5402   2.909   2.842   3.516  2.2599  0.1489  0.1609
 1752SOL     OW 5403   2.023   2.051   3.447 -0.2741 -0.2510 -0.5263
 1752SOL    HW1 5404   1.982   1.968   3.423  0.3356 -0.7640  0.1572
 1752SOL    HW2 5405   1.953   2.115   3.441 -0.9314 -0.9421 -0.3691
 1753SOL     OW 5406   0.223   1.891   2.185 -0.5374  0.1018  0.6821
 1753SOL    HW1 5407   0.312   1.868   2.157 -0.4368 -0.9693  1.8053
 1753SOL    HW2 5408   0.183   1.807   2.208 -1.5585  0.6624  1.0008
 1754SOL     OW 5409   3.617   2.428   2.474  0.6278 -0.3230 -0.3964
 1754SOL    HW1 5410   3.643   2.371   2.402  0.7436 -1.7067  0.7026
 1754SOL    HW2 5411   3.684   2.415   2.540  0.0224  0.2128  0.3380
 1755SOL     OW 5412   2.799   0.676   1.066 -0.4538  0.0853 -0.2749
 1755SOL    HW1 5413   2.809   0.583   1.042  1.8322  0.7224 -2.2500
 1755SOL    HW2 5414   2.818   0.723   0.985  2.0122  2.3381  1.4485
 1756SOL     OW 5415   0.939   3.411   2.545  0.1838  0.1673  0.1111
 1756SOL    HW1 5416   0.979   3.341   2.493 -0.5513 -1.3281  1.4929
 1756SOL    HW2 5417   0.936   3.486   2.485 -0.0697 -1.3003 -1.7990
 1757SOL     OW 5418   2.669   0.808   3.028 -0.5311  0.5031  0.5256
 1757SOL    HW1 5419   2.737   0.757   3.071  2.0470  1.0655 -2.5953
 1757SOL    HW2 5420   2.686   0.899   3.055  0.2648  0.6936 -0.5697
 1758SOL     OW 5421   3.423   1.245   2.520 -0.2627 -0.2111  0.1270
 1758SOL    HW1 5422   3.401   1.261   2.612 -3.4842 -0.0644 -0.5321
 1758SOL    HW2 5423   3.486   1.313   2.497 -0.8963  0.9860  1.7550
 1759SOL     OW 5424   3.533   2.048   1.796  0.0094 -0.1061 -0.2035
 1759SOL    HW1 5425   3.443   2.044   1.829  0.4358  1.2507  1.2830
 1759SOL    HW2 5426   3.525   2.038   1.701 -1.8063  0.8899 -0.2002
 1760SOL     OW 5427   2.777   1.952   0.908  0.2625  0.6621  0.7410
 1760SOL    HW1 5428   2.708   1.885   0.905  0.9039 -0.1311  2.4643
 1760SOL    HW2 5429   2.730   2.035   0.910 -0.5872  0.2072  0.1815
 1761SOL     OW 5430   2.636   2.771   2.353  0.4589 -0.1717  0.1688
 1761SOL    HW1 5431   2.723   2.747   2.323  0.9845  0.2523  1.2953
 1761SOL    HW2 5432   2.593   2.807   2.276  1.1903 -0.6092 -0.4543
 1762SOL     OW 5433   2.974   3.540   3.064 -0.2609  0.0543 -0.2507
 1762SOL    HW1 5434   3.024   3.533   2.983  0.8808 -0.9492  0.5067
 1762SOL    HW2 5435   3.040   3.539   3.133 -1.2984 -1.4718  0.7933
 1763NA      NA 5436   0.739   1.523   1.268 -0.0193 -0.2295  0.1161
   3.71780   3.71780   3.71780
