Protein in water
 5424
    0TYR      N    1   2.995   2.076   1.571 -1.2118  0.2153  1.3076
    0TYR     H1    2   2.938   2.158   1.542 -0.6339  0.4916  0.9253
    0TYR     H2    3   3.058   2.047   1.494 -1.1015 -1.8303  2.1058
    0TYR     H3    4   3.051   2.106   1.653 -2.7575 -0.9645  2.8538
    0TYR     CA    5   2.917   1.969   1.615 -0.2075 -0.5702 -0.1984
    0TYR     HA    6   2.842   1.945   1.541 -1.8645 -0.7725  1.4715
    0TYR     CB    7   3.000   1.835   1.624  0.6142 -0.9979 -0.2603
    0TYR    HB1    8   3.084   1.842   1.696  0.4329  0.8891 -0.1774
    0TYR    HB2    9   3.052   1.822   1.527  1.0999 -1.6921  0.0878
    0TYR     CG   10   2.915   1.706   1.636  0.3655  0.4161  0.3244
    0TYR    CD1   11   2.837   1.666   1.530 -0.1536 -0.1337 -0.3131
    0TYR    HD1   12   2.825   1.731   1.444 -0.6505  1.1782  0.7063
    0TYR    CE1   13   2.756   1.552   1.539 -0.4141  0.4735 -0.1738
    0TYR    HE1   14   2.697   1.507   1.460 -1.2311 -0.0716  0.7256
    0TYR     CZ   15   2.763   1.470   1.652  0.0728 -0.4936 -0.1072
    0TYR     OH   16   2.686   1.360   1.654  0.3507  0.3822  0.3831
    0TYR     HH   17   2.630   1.350   1.576 -3.5835  0.6087  2.8770
    0TYR    CD2   18   2.921   1.629   1.753 -0.7314  0.5091  0.7244
    0TYR    HD2   19   2.983   1.674   1.829  0.0136 -0.3002  0.5961
    0TYR    CE2   20   2.848   1.506   1.758 -0.2500  0.8532 -0.3516
    0TYR    HE2   21   2.846   1.439   1.842  0.6584  0.2206 -0.8098
    0TYR      C   22   2.841   2.001   1.749 -0.3748 -0.1891  0.0521
    0TYR      O   23   2.842   2.118   1.791 -0.6354  0.0900 -0.1608
    1TYR      N   24   2.774   1.907   1.824  0.3840  0.6684 -0.0934
    1TYR     HN   25   2.751   1.822   1.778 -0.0893  1.0339 -0.5401
    1TYR     CA   26   2.689   1.943   1.936  1.0097  0.1018  0.8837
    1TYR     HA   27   2.640   2.038   1.918  3.4897  1.7466  2.2763
    1TYR     CB   28   2.568   1.837   1.960  0.3835  0.4055  0.1910
    1TYR    HB1   29   2.611   1.734   1.959 -0.2542  0.1218 -1.4159
    1TYR    HB2   30   2.500   1.832   1.872 -1.2515  1.0689  1.3627
    1TYR     CG   31   2.482   1.849   2.095  0.5775 -0.0212  0.1171
    1TYR    CD1   32   2.420   1.734   2.132  0.6421  0.2535 -0.4655
    1TYR    HD1   33   2.435   1.640   2.082 -2.7536 -0.8790  0.4284
    1TYR    CE1   34   2.327   1.736   2.242 -0.1283  0.4247 -0.4500
    1TYR    HE1   35   2.288   1.638   2.266 -0.5181  0.4840 -0.8183
    1TYR     CZ   36   2.295   1.860   2.303  0.4779 -0.1498 -0.3507
    1TYR     OH   37   2.199   1.872   2.408 -0.2281  0.3775  0.3198
    1TYR     HH   38   2.140   1.797   2.400 -1.3624  1.3402 -0.8131
    1TYR    CD2   39   2.445   1.972   2.157 -0.2178 -0.7116  0.4602
    1TYR    HD2   40   2.490   2.061   2.118  0.7027 -1.6264 -0.6439
    1TYR    CE2   41   2.350   1.982   2.259 -0.9557  0.2511 -0.2741
    1TYR    HE2   42   2.336   2.077   2.309  2.2302  0.6697  0.0684
    1TYR      C   43   2.772   1.963   2.059 -0.4739  0.3766  0.1768
    1TYR      O   44   2.819   1.859   2.105 -0.0439 -0.2682 -0.0365
    2ASP      N   45   2.796   2.082   2.109 -0.5451  0.3018  0.7869
    2ASP     HN   46   2.748   2.159   2.067 -1.3406 -0.7827 -0.3783
    2ASP     CA   47   2.872   2.096   2.227 -0.5835 -0.1773  0.3504
    2ASP     HA   48   2.952   2.025   2.230  0.8975  1.2410 -2.0060
    2ASP     CB   49   2.929   2.243   2.214  0.1170  0.1183  0.9518
    2ASP    HB1   50   2.844   2.314   2.208  1.6339  1.9183 -2.6116
    2ASP    HB2   51   2.972   2.259   2.113 -0.1169  0.8974  0.9674
    2ASP     CG   52   3.020   2.281   2.326 -0.1543  0.5048 -0.8508
    2ASP    OD1   53   3.097   2.203   2.391 -0.6242  0.3946 -0.5159
    2ASP    OD2   54   3.010   2.399   2.365  0.2615  0.2105 -0.0885
    2ASP      C   55   2.777   2.099   2.349  0.1548  0.5988 -0.5630
    2ASP      O   56   2.686   2.174   2.355 -0.1520 -0.2484  0.3260
    3PRO      N   57   2.805   2.022   2.453  1.1264 -0.7146 -0.9733
    3PRO     CD   58   2.905   1.916   2.452  0.0846 -0.1362 -0.1566
    3PRO    HD1   59   2.882   1.842   2.373  1.4127 -0.9496  0.1765
    3PRO    HD2   60   3.004   1.964   2.436  0.7667  0.1125  3.7696
    3PRO     CA   61   2.726   2.031   2.580 -0.3022  0.1207  0.2521
    3PRO     HA   62   2.619   2.031   2.565 -0.7434 -0.4269  2.8623
    3PRO     CB   63   2.766   1.901   2.652  0.7170 -0.2625  0.2704
    3PRO    HB1   64   2.690   1.828   2.617 -0.9379  0.0754  2.8703
    3PRO    HB2   65   2.765   1.911   2.763 -0.9847  0.4997  0.2124
    3PRO     CG   66   2.898   1.859   2.593 -0.5208  0.9301 -0.0603
    3PRO    HG1   67   2.921   1.750   2.588  2.2264  1.4402 -0.4202
    3PRO    HG2   68   2.976   1.908   2.656 -0.4314  0.5164  0.1576
    3PRO      C   69   2.759   2.155   2.662 -0.2046  0.0351 -0.4574
    3PRO      O   70   2.665   2.214   2.722  0.0887  0.3376  0.1437
    4GLU      N   71   2.883   2.199   2.667 -0.5643 -0.1637  0.2221
    4GLU     HN   72   2.948   2.175   2.596 -0.4524  1.7601 -0.3653
    4GLU     CA   73   2.943   2.287   2.760  0.1742 -0.2467 -0.8265
    4GLU     HA   74   2.920   2.266   2.864 -2.9185  0.3351 -1.3242
    4GLU     CB   75   3.092   2.300   2.730  0.0283 -0.2194 -0.1017
    4GLU    HB1   76   3.118   2.286   2.623 -0.1363  1.3485 -0.3752
    4GLU    HB2   77   3.139   2.204   2.760  0.9545  0.1557 -0.3085
    4GLU     CG   78   3.180   2.416   2.788  0.1763  0.8150  0.1821
    4GLU    HG1   79   3.161   2.392   2.895  1.7058 -1.3262  0.0488
    4GLU    HG2   80   3.156   2.524   2.776 -2.9463  0.4279  2.0513
    4GLU     CD   81   3.332   2.397   2.766  0.0755 -0.4910  1.1130
    4GLU    OE1   82   3.365   2.360   2.648  0.2178  0.0134  0.0112
    4GLU    OE2   83   3.408   2.412   2.860  0.2034 -0.0525  0.0948
    4GLU      C   84   2.886   2.429   2.739 -0.1981  0.1498 -0.5004
    4GLU      O   85   2.839   2.490   2.832 -0.0634  0.0146 -0.2976
    5THR      N   86   2.883   2.485   2.617  0.4137  0.6658 -0.9219
    5THR     HN   87   2.920   2.439   2.536 -0.8035  1.1982 -1.8129
    5THR     CA   88   2.808   2.604   2.583  0.3606 -0.4192  0.7058
    5THR     HA   89   2.810   2.675   2.664 -0.6895  0.4322  0.0142
    5THR     CB   90   2.870   2.681   2.468  1.4830 -0.1464  0.4000
    5THR     HB   91   2.820   2.779   2.461 -0.1461 -0.9967 -0.4003
    5THR    OG1   92   2.881   2.615   2.343  0.5520  0.1459 -0.2193
    5THR    HG1   93   2.932   2.534   2.348  2.5221  1.2904 -0.8771
    5THR    CG2   94   3.014   2.710   2.493 -0.0232 -0.1830  0.2477
    5THR   HG21   95   3.044   2.748   2.593  2.6771  0.6573 -0.7832
    5THR   HG22   96   3.063   2.775   2.419 -1.2868  0.4638 -0.0482
    5THR   HG23   97   3.075   2.617   2.487  0.6856  0.3252 -0.5675
    5THR      C   98   2.666   2.577   2.542 -0.3188 -0.2361  0.1392
    5THR      O   99   2.582   2.667   2.559  0.1519 -0.3199  0.8859
    6GLY      N  100   2.630   2.450   2.507  0.9590 -0.4314 -0.6525
    6GLY     HN  101   2.695   2.375   2.502 -1.8625 -2.9958 -2.9945
    6GLY     CA  102   2.499   2.399   2.475  0.4568 -0.4479 -0.4532
    6GLY    HA1  103   2.434   2.441   2.550  1.5991  0.2041  0.2007
    6GLY    HA2  104   2.506   2.291   2.474  1.3202 -0.4151 -2.4264
    6GLY      C  105   2.448   2.442   2.338  0.4508  0.2545 -0.0262
    6GLY      O  106   2.330   2.463   2.313 -0.4261 -1.2129  0.0928
    7ARG      N  107   2.548   2.458   2.244  0.2709  0.4210 -0.0529
    7ARG     HN  108   2.641   2.426   2.261  0.4549 -0.8873 -3.0534
    7ARG     CA  109   2.531   2.520   2.110  0.6902 -0.0694  0.2638
    7ARG     HA  110   2.430   2.548   2.088  1.0380  2.5804  1.6120
    7ARG     CB  111   2.605   2.661   2.103 -0.1929  0.0746 -0.5378
    7ARG    HB1  112   2.706   2.647   2.147  0.7491  3.3547 -1.4307
    7ARG    HB2  113   2.618   2.704   2.002  2.2230  2.0364  0.4832
    7ARG     CG  114   2.534   2.761   2.187  0.0920 -0.4382 -0.0203
    7ARG    HG1  115   2.514   2.734   2.293  0.6227  2.5291  0.9443
    7ARG    HG2  116   2.433   2.781   2.144  0.6598 -1.0567 -1.7043
    7ARG     CD  117   2.622   2.893   2.193  0.1246 -0.7422 -0.3073
    7ARG    HD1  118   2.597   2.982   2.255  0.7130 -1.2984  0.7502
    7ARG    HD2  119   2.727   2.868   2.218  1.0806  0.3605 -2.9299
    7ARG     NE  120   2.624   2.951   2.050  0.5607  0.4609 -0.2515
    7ARG     HE  121   2.604   2.895   1.970  1.3050  0.5737 -0.5213
    7ARG     CZ  122   2.633   3.075   2.009 -1.0246 -0.9777  0.2154
    7ARG    NH1  123   2.632   3.109   1.880  0.4036  1.0390  0.2463
    7ARG   HH11  124   2.659   3.201   1.853  0.3171  0.8543 -0.4980
    7ARG   HH12  125   2.623   3.036   1.812  1.3496 -0.9073  2.0594
    7ARG    NH2  126   2.654   3.170   2.094 -0.4179 -0.0039 -0.2865
    7ARG   HH21  127   2.683   3.142   2.185 -1.2847  1.5103  0.5035
    7ARG   HH22  128   2.669   3.261   2.054 -0.2460 -0.2359 -0.7564
    7ARG      C  129   2.575   2.423   1.996  0.0884  0.7518 -0.0063
    7ARG      O  130   2.672   2.347   2.010 -0.7019  1.0027  0.0940
    8TRP      N  131   2.499   2.415   1.885 -0.5079 -0.1231 -0.0786
    8TRP     HN  132   2.418   2.470   1.867  1.0240  1.6325 -2.1348
    8TRP     CA  133   2.546   2.338   1.769  0.1441  0.3847 -0.4477
    8TRP     HA  134   2.607   2.263   1.817 -1.5348  1.7029  4.3642
    8TRP     CB  135   2.435   2.257   1.685  0.6300 -0.4580  0.7519
    8TRP    HB1  136   2.487   2.201   1.604 -0.0018 -1.2546  0.8878
    8TRP    HB2  137   2.378   2.324   1.617 -1.3440 -0.0618  2.7011
    8TRP     CG  138   2.344   2.155   1.763  0.1879  0.3524 -0.3666
    8TRP    CD1  139   2.276   2.178   1.880  0.5175  0.2043  0.5630
    8TRP    HD1  140   2.276   2.274   1.930  1.9083  0.6987 -0.3494
    8TRP    NE1  141   2.217   2.065   1.932  0.2132  1.2708 -1.0236
    8TRP    HE1  142   2.180   2.056   2.022 -1.1348 -0.1775 -1.6666
    8TRP    CE2  143   2.255   1.957   1.846 -0.9046 -0.5410  0.4859
    8TRP    CD2  144   2.339   2.010   1.740 -0.3582 -0.2601 -0.0465
    8TRP    CE3  145   2.397   1.925   1.639  0.4622  0.2232 -0.2080
    8TRP    HE3  146   2.452   1.971   1.559 -0.2349 -2.1412 -2.1438
    8TRP    CZ3  147   2.376   1.789   1.651 -0.2647  0.6900  0.5066
    8TRP    HZ3  148   2.417   1.730   1.570 -1.0537  0.9362 -0.0807
    8TRP    CZ2  149   2.233   1.821   1.844  0.0986  0.2783  0.1682
    8TRP    HZ2  150   2.171   1.772   1.917 -1.6168 -1.0908 -2.0735
    8TRP    CH2  151   2.293   1.738   1.746  0.8639 -0.0078 -0.2824
    8TRP    HH2  152   2.282   1.630   1.745  0.3109  0.0331 -2.5012
    8TRP      C  153   2.630   2.431   1.684 -0.4105 -0.4801 -0.7222
    8TRP      O  154   2.580   2.524   1.624 -0.1743 -0.0001  0.0825
    9TYR      N  155   2.753   2.398   1.676 -0.0334 -0.4890 -0.7037
    9TYR     HN  156   2.790   2.314   1.716 -2.2207 -1.7842 -1.2823
    9TYR     CA  157   2.848   2.464   1.593 -0.0211  0.2554 -0.0962
    9TYR     HA  158   2.826   2.569   1.597  0.6259  0.4097 -0.3899
    9TYR     CB  159   2.991   2.455   1.658 -0.6102 -0.1397  0.2643
    9TYR    HB1  160   3.065   2.491   1.584 -0.3555 -2.4592 -0.6927
    9TYR    HB2  161   3.014   2.352   1.694 -1.9012 -0.1072  1.2455
    9TYR     CG  162   2.990   2.553   1.773  0.3069  0.4107 -0.1885
    9TYR    CD1  163   2.990   2.502   1.905 -0.5552  0.2140 -0.5149
    9TYR    HD1  164   2.980   2.395   1.917 -3.2742  0.5721  1.1111
    9TYR    CE1  165   2.977   2.573   2.018  0.4223  0.2392 -0.0433
    9TYR    HE1  166   2.981   2.531   2.118  2.1078  1.2247  0.3397
    9TYR     CZ  167   2.948   2.709   2.003  1.1219 -0.4904  0.7122
    9TYR     OH  168   2.932   2.793   2.118  0.0701 -0.6770  0.4209
    9TYR     HH  169   2.952   2.743   2.198  1.4067  0.0614  0.5696
    9TYR    CD2  170   2.995   2.694   1.761 -0.1641  0.1592  0.3103
    9TYR    HD2  171   2.993   2.743   1.665 -1.3000 -0.0436  0.2165
    9TYR    CE2  172   2.958   2.770   1.874  0.0296 -0.5345 -0.8777
    9TYR    HE2  173   2.968   2.878   1.881  0.7567 -0.6675  0.4684
    9TYR      C  174   2.844   2.394   1.456  0.3213 -0.0526 -0.2818
    9TYR    OT1  175   2.867   2.278   1.439 -0.2004  0.3801 -0.2854
    9TYR    OT2  176   2.803   2.456   1.353 -0.2528 -0.0220 -0.1721
   10SOL     OW  177   3.381   3.141   2.008 -0.6678  0.2948  0.8854
   10SOL    HW1  178   3.454   3.193   1.974  1.1169 -1.1308  2.2979
   10SOL    HW2  179   3.330   3.119   1.931  0.9713  0.5112 -0.3302
   11SOL     OW  180   3.686   1.841   3.740  0.4483  0.5086 -0.4279
   11SOL    HW1  181   3.684   1.773   3.673  2.3513  1.6555 -1.7708
   11SOL    HW2  182   3.717   1.919   3.694 -1.6845  2.3549  1.0205
   12SOL     OW  183   3.707   3.205   0.494 -0.0340 -0.0789  0.2104
   12SOL    HW1  184   3.638   3.222   0.558 -0.6640 -3.1558  0.5128
   12SOL    HW2  185   3.661   3.199   0.410  0.3031  0.6814 -0.0339
   13SOL     OW  186   1.413   3.674   1.814  0.5933 -0.1004 -0.6725
   13SOL    HW1  187   1.463   3.604   1.771 -0.4022 -1.0021 -0.3910
   13SOL    HW2  188   1.435   3.753   1.765  1.0118 -0.7708 -1.5873
   14SOL     OW  189   3.254   2.451   1.094  0.0192  0.5127 -0.0912
   14SOL    HW1  190   3.331   2.399   1.117  0.0910  0.3800 -0.6133
   14SOL    HW2  191   3.181   2.390   1.102  0.0795  0.3823 -0.5009
   15SOL     OW  192   1.771   1.741   2.366  0.7745  0.3232 -0.1759
   15SOL    HW1  193   1.680   1.717   2.346  0.2666  1.5499  0.5487
   15SOL    HW2  194   1.812   1.752   2.280 -0.7938  3.4342 -0.6687
   16SOL     OW  195   2.559   2.122   3.020  0.3383 -0.1299 -0.6311
   16SOL    HW1  196   2.613   2.192   2.985 -0.3356  1.2721  1.0077
   16SOL    HW2  197   2.575   2.125   3.115  0.1203 -2.0502 -0.4944
   17SOL     OW  198   2.070   3.359   0.194  0.3863  0.0240  0.2686
   17SOL    HW1  199   1.992   3.336   0.245 -0.8337 -0.1652 -1.5761
   17SOL    HW2  200   2.037   3.417   0.125  1.9059  0.0444 -0.4813
   18SOL     OW  201   1.977   3.052   3.300 -1.1177 -0.4358 -0.1014
   18SOL    HW1  202   2.055   3.057   3.356  0.1255  1.2319 -1.8389
   18SOL    HW2  203   1.956   2.959   3.296  1.8440 -1.1821 -0.8693
   19SOL     OW  204   0.456   0.981   0.947  0.1586  0.0930  0.4368
   19SOL    HW1  205   0.439   0.901   0.898 -0.8452 -0.0664  1.0038
   19SOL    HW2  206   0.455   1.051   0.881  1.6622 -0.4081 -0.1489
   20SOL     OW  207   2.255   3.146   0.161  0.2656  0.3685  0.3773
   20SOL    HW1  208   2.196   3.144   0.085 -0.0402 -0.0800  0.6257
   20SOL    HW2  209   2.214   3.208   0.221  0.3399  0.4819  0.3105
   21SOL     OW  210   0.600   3.124   3.573  0.0457  0.6483 -0.4447
   21SOL    HW1  211   0.547   3.153   3.499 -0.7496 -1.5355 -0.7959
   21SOL    HW2  212   0.592   3.195   3.638 -1.7115  1.2439 -1.2603
   22SOL     OW  213   3.508   3.522   1.170  0.1708 -0.2246 -0.7132
   22SOL    HW1  214   3.467   3.600   1.133  1.4647  0.0425 -1.6604
   22SOL    HW2  215   3.591   3.554   1.207 -0.1565 -0.8409  0.5975
   23SOL     OW  216   2.091   1.089   0.229 -0.0921  0.3084 -0.3442
   23SOL    HW1  217   2.174   1.041   0.232  0.2048  0.7311 -1.3117
   23SOL    HW2  218   2.037   1.039   0.168 -0.4178  0.2453 -0.0075
   24SOL     OW  219   3.244   1.880   0.417 -0.3536  0.0458  0.4395
   24SOL    HW1  220   3.278   1.933   0.345  0.7147 -2.3775 -0.9794
   24SOL    HW2  221   3.149   1.888   0.410 -0.2373  1.4694  0.1055
   25SOL     OW  222   1.712   3.170   1.074  0.3511 -0.0461 -0.2824
   25SOL    HW1  223   1.764   3.144   1.150 -0.4692 -1.6102 -0.2144
   25SOL    HW2  224   1.763   3.239   1.032  0.7713  0.9336  1.7376
   26SOL     OW  225   1.963   0.876   2.900  0.4678  0.2281  0.2637
   26SOL    HW1  226   1.885   0.892   2.847  0.5343 -0.2556  0.0109
   26SOL    HW2  227   2.036   0.905   2.845  0.4261  1.5078  0.8400
   27SOL     OW  228   2.548   2.354   1.349  0.2305  0.3991  0.4068
   27SOL    HW1  229   2.635   2.395   1.342  1.1522 -1.6085 -4.5001
   27SOL    HW2  230   2.567   2.261   1.362 -1.1532 -0.0372 -0.5130
   28SOL     OW  231   3.498   3.439   1.477 -0.1216  0.2274  0.0714
   28SOL    HW1  232   3.504   3.534   1.470 -3.9198  0.6900  1.1476
   28SOL    HW2  233   3.454   3.411   1.397  2.8820 -1.0639 -1.3111
   29SOL     OW  234   0.709   2.020   0.255  0.4455 -0.4401 -0.0591
   29SOL    HW1  235   0.718   2.078   0.180  1.5353 -1.4610 -0.7490
   29SOL    HW2  236   0.747   2.068   0.328  2.8654 -0.8952 -0.9569
   30SOL     OW  237   2.136   0.646   1.115 -0.4631  0.1030 -0.4037
   30SOL    HW1  238   2.113   0.737   1.135  1.4334  0.6165 -0.4053
   30SOL    HW2  239   2.159   0.647   1.022  0.0869 -0.2561 -0.2752
   31SOL     OW  240   3.452   0.297   1.443  0.9088 -0.0438  0.0516
   31SOL    HW1  241   3.407   0.381   1.440  2.0042  0.6063  0.7607
   31SOL    HW2  242   3.451   0.273   1.536  0.8102 -0.6893 -0.1139
   32SOL     OW  243   0.075   0.293   3.213  0.2253 -0.0790 -0.6159
   32SOL    HW1  244   0.067   0.237   3.291  0.3233  0.9135  0.1239
   32SOL    HW2  245  -0.014   0.304   3.181  0.0649  0.3389 -0.0378
   33SOL     OW  246   1.586   1.302   2.782 -0.2761  0.5163 -0.4742
   33SOL    HW1  247   1.659   1.241   2.790 -1.0265 -0.4115 -0.4839
   33SOL    HW2  248   1.615   1.365   2.716  0.5584  0.2346 -0.3902
   34SOL     OW  249   2.643   1.937   0.313 -0.3770  0.0311 -0.2001
   34SOL    HW1  250   2.655   1.860   0.259 -1.1044  0.1619 -0.5573
   34SOL    HW2  251   2.686   2.008   0.265  0.0187 -0.0889 -0.0236
   35SOL     OW  252   3.021   0.455   3.081 -0.3537  0.0724  0.1364
   35SOL    HW1  253   2.954   0.440   3.149 -0.6497 -2.3398 -0.6129
   35SOL    HW2  254   3.099   0.480   3.130 -1.8231  3.5595  1.0170
   36SOL     OW  255   0.385   0.599   1.564  0.1968 -0.0773 -0.1938
   36SOL    HW1  256   0.306   0.580   1.616 -0.4979 -0.1125 -1.2327
   36SOL    HW2  257   0.358   0.584   1.473  1.2121  0.5833 -0.6188
   37SOL     OW  258   0.031   1.176   2.985  0.0611 -0.3419 -0.7733
   37SOL    HW1  259   0.053   1.129   2.905 -2.1710  0.4375 -1.9166
   37SOL    HW2  260   0.052   1.268   2.965 -0.3525 -0.1605 -0.3894
   38SOL     OW  261   1.846   0.984   2.233 -0.6917  0.2683 -0.0661
   38SOL    HW1  262   1.794   0.906   2.252 -1.0502  0.3277 -0.7636
   38SOL    HW2  263   1.917   0.953   2.178  0.3910  0.0830  1.3602
   39SOL     OW  264   1.312   0.198   1.986  0.3449 -0.3801 -0.2634
   39SOL    HW1  265   1.242   0.234   2.041 -1.5715  0.1500 -2.8273
   39SOL    HW2  266   1.284   0.109   1.967 -0.5734  0.3062 -2.5449
   40SOL     OW  267  -0.015   3.333   2.747  0.1075  0.5564 -0.0041
   40SOL    HW1  268   0.064   3.345   2.695  1.5188 -2.3186  1.2888
   40SOL    HW2  269  -0.004   3.248   2.789 -3.0856  0.6511  1.3129
   41SOL     OW  270   1.232   0.358   2.856  0.7144  0.1343 -0.1003
   41SOL    HW1  271   1.219   0.414   2.779  1.3245 -0.8473 -0.9331
   41SOL    HW2  272   1.319   0.321   2.845  0.8101 -0.0398  1.0704
   42SOL     OW  273   3.665   3.040   3.368  0.2864 -0.0847 -0.9479
   42SOL    HW1  274   3.670   3.131   3.339  1.9608  0.3336  0.5068
   42SOL    HW2  275   3.589   3.038   3.426  0.8590  0.6709 -0.1458
   43SOL     OW  276   1.615   1.428   3.189 -0.6538  0.3674 -0.2634
   43SOL    HW1  277   1.532   1.449   3.232  0.1741 -0.0899  1.6663
   43SOL    HW2  278   1.619   1.332   3.189 -0.3421  0.3704 -0.8233
   44SOL     OW  279   2.978   3.159   3.575  0.3025 -0.4866  0.5192
   44SOL    HW1  280   3.044   3.214   3.617 -0.7287  2.0400 -0.9506
   44SOL    HW2  281   2.894   3.200   3.598 -0.5142 -1.4450 -0.6195
   45SOL     OW  282   1.135   3.118   1.548 -0.1592  0.4486 -1.0062
   45SOL    HW1  283   1.124   3.023   1.554 -0.5201  0.5040 -0.7490
   45SOL    HW2  284   1.047   3.152   1.531  0.1113  0.6682 -2.0652
   46SOL     OW  285   1.319   2.012   2.147  0.3032 -0.6671  0.2004
   46SOL    HW1  286   1.409   2.021   2.114  0.4604 -0.1996  0.7376
   46SOL    HW2  287   1.319   1.928   2.193  0.2067 -1.1050 -0.5760
   47SOL     OW  288   1.721   0.474   2.449 -0.6037  0.7921 -0.4305
   47SOL    HW1  289   1.686   0.385   2.453 -2.0895  1.3787  0.8677
   47SOL    HW2  290   1.778   0.474   2.372 -0.7845 -1.1897 -0.6236
   48SOL     OW  291   3.575   1.091   0.776  0.0811  0.4005 -0.4116
   48SOL    HW1  292   3.488   1.130   0.766  1.0648  2.7881 -0.4216
   48SOL    HW2  293   3.611   1.132   0.854  0.9164 -1.1869  0.0770
   49SOL     OW  294   0.666   2.642   0.038 -0.1869 -0.4622  0.0349
   49SOL    HW1  295   0.673   2.697   0.116 -0.0251 -0.5266  0.0682
   49SOL    HW2  296   0.654   2.703  -0.035  0.6942 -0.3342 -0.0176
   50SOL     OW  297   1.778   0.609   1.121  0.3016 -0.0944  0.4928
   50SOL    HW1  298   1.794   0.688   1.174 -2.1807  1.0409 -0.3033
   50SOL    HW2  299   1.743   0.546   1.183  0.5522  0.0663  0.8048
   51SOL     OW  300   1.239   0.258   0.980  0.6426  0.0277  0.3091
   51SOL    HW1  301   1.218   0.181   1.033  0.7548 -0.1750  0.0625
   51SOL    HW2  302   1.208   0.332   1.032 -0.6449 -0.2596 -0.0044
   52SOL     OW  303   0.792   2.863   2.861 -1.4171  0.6336 -0.3663
   52SOL    HW1  304   0.792   2.767   2.864 -0.3029  0.6184 -0.6526
   52SOL    HW2  305   0.745   2.883   2.780  2.5382  0.1479 -3.0667
   53SOL     OW  306   1.230   3.700   2.831 -0.2574  0.6797 -0.4725
   53SOL    HW1  307   1.279   3.718   2.751 -0.0677  0.5929 -0.3772
   53SOL    HW2  308   1.140   3.721   2.810 -0.8295 -2.5631 -1.8099
   54SOL     OW  309   0.760   0.606   1.609 -0.4836  0.2160  0.1310
   54SOL    HW1  310   0.737   0.634   1.520 -1.8452 -0.5332  0.2213
   54SOL    HW2  311   0.682   0.626   1.661 -0.0133 -0.1362  0.9904
   55SOL     OW  312   2.332   2.082   3.620  0.0901  0.0566 -0.4632
   55SOL    HW1  313   2.401   2.110   3.560  1.1687 -2.5130 -0.5925
   55SOL    HW2  314   2.323   2.153   3.683  0.6704  1.7562 -2.2300
   56SOL     OW  315   3.310   1.903   1.602 -0.3604 -0.3094  0.4562
   56SOL    HW1  316   3.364   1.968   1.647  1.0090 -0.6035 -0.6831
   56SOL    HW2  317   3.351   1.819   1.624  0.1269 -0.4851 -1.0018
   57SOL     OW  318   0.037   1.429   2.888 -0.2680  0.0681 -0.0506
   57SOL    HW1  319   0.066   1.424   2.797 -1.1905 -0.7022 -0.3197
   57SOL    HW2  320   0.062   1.517   2.916  1.9212 -0.4049 -0.3683
   58SOL     OW  321   3.621   0.711   1.013  0.1463 -0.3636 -0.2833
   58SOL    HW1  322   3.558   0.754   0.954 -0.0734  0.3176  0.4374
   58SOL    HW2  323   3.630   0.771   1.087 -1.2541 -2.1484  1.4565
   59SOL     OW  324   0.584   0.230   2.090  0.4137 -0.8743  0.0395
   59SOL    HW1  325   0.626   0.172   2.154 -2.9783 -2.7810  0.7652
   59SOL    HW2  326   0.551   0.172   2.022  0.7645  0.7498 -1.6053
   60SOL     OW  327   3.280   0.292   0.988 -0.4848  0.6860 -0.9577
   60SOL    HW1  328   3.371   0.290   1.018 -0.2351 -0.0082 -1.7482
   60SOL    HW2  329   3.251   0.382   1.007 -1.0453 -0.1762  3.2896
   61SOL     OW  330   0.618   2.573   2.090  0.4462  0.3560  0.7343
   61SOL    HW1  331   0.651   2.582   2.179  0.3478 -3.0306  1.2177
   61SOL    HW2  332   0.693   2.540   2.040  0.6299  2.6243 -0.6164
   62SOL     OW  333   3.157   0.963   3.193 -0.4690 -0.3110  0.0446
   62SOL    HW1  334   3.198   1.012   3.265 -0.1977  1.5170 -1.2942
   62SOL    HW2  335   3.063   0.979   3.205 -0.7382 -2.6089  1.7572
   63SOL     OW  336   1.248   3.696   0.834  0.5167 -0.0163 -0.4060
   63SOL    HW1  337   1.156   3.709   0.856  0.2497  1.5623 -2.2204
   63SOL    HW2  338   1.293   3.695   0.919 -1.2134 -1.7299  0.5871
   64SOL     OW  339   3.727   0.420   1.762 -0.2661 -0.0291 -0.0646
   64SOL    HW1  340   3.746   0.464   1.679 -0.5619  0.3952  0.0922
   64SOL    HW2  341   3.643   0.456   1.790 -0.3116 -0.3874  0.2753
   65SOL     OW  342   3.642   1.326   0.931  0.2132  0.2741 -0.2759
   65SOL    HW1  343   3.658   1.406   0.881 -1.6627 -0.0797 -1.5209
   65SOL    HW2  344   3.549   1.329   0.953  0.0648 -1.5984 -0.4526
   66SOL     OW  345   0.689   0.722   2.568 -0.1326  0.6320  0.2177
   66SOL    HW1  346   0.731   0.745   2.651 -0.4054  2.5638 -0.1534
   66SOL    HW2  347   0.739   0.646   2.537  0.0297 -0.0812  2.0718
   67SOL     OW  348  -0.004   0.008   0.637 -0.3937 -0.2227  0.0057
   67SOL    HW1  349   0.057   0.081   0.644  0.1101 -0.7737  1.9157
   67SOL    HW2  350   0.036  -0.050   0.572  0.1902  0.2727 -0.0847
   68SOL     OW  351   3.106   0.629   0.791 -0.6294  0.1980 -0.5570
   68SOL    HW1  352   3.187   0.657   0.748  0.2971  1.3467  1.7754
   68SOL    HW2  353   3.133   0.559   0.850 -1.4051  0.3046 -0.0661
   69SOL     OW  354   0.690   1.490   3.013 -0.1163 -0.2414 -0.3744
   69SOL    HW1  355   0.737   1.453   3.087  1.5066 -0.1090 -1.2759
   69SOL    HW2  356   0.726   1.579   3.004 -0.7162 -0.0510 -0.9485
   70SOL     OW  357   0.186   2.833   2.799  1.4220 -0.1835  0.3036
   70SOL    HW1  358   0.261   2.874   2.843  1.3242  1.8546 -1.2976
   70SOL    HW2  359   0.223   2.793   2.721  1.1336 -1.0923  0.6212
   71SOL     OW  360   3.531   1.813   0.445  0.2699 -0.4414 -0.3568
   71SOL    HW1  361   3.538   1.790   0.537  0.0889  0.9132  0.0109
   71SOL    HW2  362   3.445   1.853   0.436  1.4998  2.4922 -0.3520
   72SOL     OW  363   2.500   1.034   3.308 -0.5976  0.1843 -1.1933
   72SOL    HW1  364   2.560   0.961   3.291  1.0932  1.7478 -2.2637
   72SOL    HW2  365   2.455   1.048   3.225 -0.4168  0.8136 -1.1851
   73SOL     OW  366   3.235   0.612   2.613 -0.3765  0.5036 -0.4020
   73SOL    HW1  367   3.209   0.559   2.688  1.3880 -1.3084 -1.0164
   73SOL    HW2  368   3.223   0.555   2.537  1.0792  1.1454 -1.1512
   74SOL     OW  369   0.323   1.434   0.046 -0.2337  0.0882  0.2144
   74SOL    HW1  370   0.323   1.530   0.045 -0.7200  0.0980 -1.7225
   74SOL    HW2  371   0.380   1.409  -0.026  2.2277 -1.1614  2.4089
   75SOL     OW  372   1.458   3.270   1.314  0.7413  0.0376 -0.0160
   75SOL    HW1  373   1.486   3.301   1.228  0.9030  0.6379  0.2506
   75SOL    HW2  374   1.509   3.190   1.329 -0.2665 -0.8268 -1.0586
   76SOL     OW  375   0.791   0.155   1.041  0.0627  0.5227  0.2329
   76SOL    HW1  376   0.734   0.124   1.112  0.3911 -0.6514 -0.0041
   76SOL    HW2  377   0.738   0.220   0.995  0.0336  1.7145  1.8592
   77SOL     OW  378   2.067   1.151   1.079 -0.7417 -0.3556  0.2928
   77SOL    HW1  379   2.161   1.136   1.073 -0.9844 -1.6710 -0.5967
   77SOL    HW2  380   2.038   1.161   0.989 -1.3551  0.8642  0.6019
   78SOL     OW  381   2.253   2.588   0.824 -0.2160 -0.1007  0.0438
   78SOL    HW1  382   2.223   2.557   0.739 -4.5458  0.9566  0.9426
   78SOL    HW2  383   2.348   2.587   0.818 -0.3020  0.0647 -4.8061
   79SOL     OW  384   0.070   1.259   2.616  0.4222 -0.2528  0.6180
   79SOL    HW1  385   0.135   1.328   2.605 -1.4885  1.6290  0.6364
   79SOL    HW2  386   0.029   1.250   2.530 -0.8737  0.2593  1.1634
   80SOL     OW  387   1.593   1.052   2.539 -0.0742 -0.4711  0.0381
   80SOL    HW1  388   1.562   0.970   2.499  0.9960 -0.7747 -0.1919
   80SOL    HW2  389   1.534   1.066   2.613  0.3409 -1.9861  0.6882
   81SOL     OW  390   2.871   0.209   2.968  0.2618 -0.2047 -0.1989
   81SOL    HW1  391   2.929   0.220   2.892  0.9819  0.6578  0.4599
   81SOL    HW2  392   2.797   0.267   2.949  0.5069  0.1185 -0.1786
   82SOL     OW  393   3.454   0.823   0.834  0.4205  0.1809  0.3551
   82SOL    HW1  394   3.498   0.902   0.802  3.8531 -1.4320  0.5914
   82SOL    HW2  395   3.404   0.792   0.758  0.2632  1.7090 -0.2138
   83SOL     OW  396   2.129   3.703   0.568  0.5987  0.1751 -0.2134
   83SOL    HW1  397   2.087   3.665   0.490  3.0184  2.0931 -2.6616
   83SOL    HW2  398   2.178   3.631   0.606 -1.4322 -1.0543  0.2390
   84SOL     OW  399   2.208   1.042   3.575  0.0107 -0.1846  0.3041
   84SOL    HW1  400   2.299   1.012   3.565 -0.2995 -0.5294 -2.0750
   84SOL    HW2  401   2.160   0.964   3.601  0.1024 -0.4653 -0.3481
   85SOL     OW  402   2.581   1.327   1.907 -0.1495  0.2531 -0.3302
   85SOL    HW1  403   2.612   1.343   1.818 -0.8799  0.3476 -0.5716
   85SOL    HW2  404   2.606   1.236   1.925 -0.6746 -0.0204 -0.9217
   86SOL     OW  405   3.408   3.653   0.168 -0.2362  0.1219  1.3883
   86SOL    HW1  406   3.461   3.732   0.178 -1.0591  0.7777  0.7442
   86SOL    HW2  407   3.337   3.663   0.232 -0.2416 -0.1805  1.4309
   87SOL     OW  408   0.250   3.124   0.531 -0.4950  0.1593  0.8979
   87SOL    HW1  409   0.165   3.168   0.525 -0.8212 -0.3757  1.5142
   87SOL    HW2  410   0.284   3.149   0.617  0.6457  1.5473  0.0871
   88SOL     OW  411   3.198   2.079   1.349 -0.4403 -0.2625  0.3975
   88SOL    HW1  412   3.171   2.054   1.261  0.3985 -0.7110  0.2553
   88SOL    HW2  413   3.200   2.175   1.347  0.0383 -0.2791 -0.2244
   89SOL     OW  414   1.283   2.169   1.926 -0.4086  0.8408 -0.2439
   89SOL    HW1  415   1.279   2.262   1.950  1.3434  0.6710  0.8896
   89SOL    HW2  416   1.276   2.123   2.009 -0.6829 -0.0340 -0.7457
   90SOL     OW  417   1.781   1.706   1.725  0.4083 -0.5761 -0.2124
   90SOL    HW1  418   1.770   1.738   1.635 -1.0677  0.6345  0.3486
   90SOL    HW2  419   1.703   1.653   1.740 -0.0311  0.3259  0.7759
   91SOL     OW  420   2.543   1.362   0.514  0.0842 -0.5747  0.1064
   91SOL    HW1  421   2.458   1.320   0.507 -0.1868 -0.2604  1.2370
   91SOL    HW2  422   2.547   1.394   0.605 -0.0199  2.4068 -0.8098
   92SOL     OW  423   1.060   2.767   3.011  0.2097  0.1743 -0.1305
   92SOL    HW1  424   1.080   2.708   3.084 -0.7130  0.9652  0.7988
   92SOL    HW2  425   1.100   2.726   2.935 -1.1491 -2.1198  0.3001
   93SOL     OW  426   0.579   1.532   0.750  0.2937 -0.4023 -0.1838
   93SOL    HW1  427   0.542   1.614   0.719  0.6960  0.6753  1.9960
   93SOL    HW2  428   0.542   1.465   0.693 -0.3567  1.2380 -1.7538
   94SOL     OW  429   1.511   2.758   0.746  0.4193  0.1641  0.0438
   94SOL    HW1  430   1.542   2.795   0.829 -1.0126  0.7338  0.3478
   94SOL    HW2  431   1.577   2.785   0.682  2.8400 -2.2517  1.3082
   95SOL     OW  432   0.675   0.451   0.781  0.0112  0.3484  0.3161
   95SOL    HW1  433   0.640   0.445   0.870 -1.6986 -0.8366 -0.3903
   95SOL    HW2  434   0.724   0.533   0.780  1.2709 -0.2941  2.7452
   96SOL     OW  435   2.423   1.007   1.899 -0.1048 -0.3324 -0.0480
   96SOL    HW1  436   2.397   1.054   1.978  0.8042 -1.7589  1.1328
   96SOL    HW2  437   2.515   1.028   1.887 -0.1008 -0.5485 -0.4286
   97SOL     OW  438   0.580   0.900   3.672 -0.4537 -0.0369  0.0658
   97SOL    HW1  439   0.555   0.992   3.668 -0.4379 -0.0473 -3.0719
   97SOL    HW2  440   0.562   0.867   3.584  1.0382 -2.6417  0.6359
   98SOL     OW  441   0.181   3.605   2.807 -0.7154 -0.8456 -1.0296
   98SOL    HW1  442   0.228   3.563   2.879  0.5245  0.6289 -0.9353
   98SOL    HW2  443   0.123   3.668   2.850 -1.3515 -1.2736 -1.2467
   99SOL     OW  444   2.605   0.703   1.581 -0.0539 -0.7935  0.4481
   99SOL    HW1  445   2.529   0.716   1.523 -1.5072 -1.8949  2.0238
   99SOL    HW2  446   2.584   0.754   1.660 -0.5090 -3.3102  2.0448
  100SOL     OW  447   0.653   3.549   0.336  0.0059 -0.3156  0.5471
  100SOL    HW1  448   0.736   3.502   0.329 -0.7756 -1.6027 -0.6625
  100SOL    HW2  449   0.612   3.514   0.415 -0.5656 -1.7563 -0.3376
  101SOL     OW  450   3.136   3.061   3.064 -0.2130  0.7546  0.1381
  101SOL    HW1  451   3.198   3.041   3.134  0.9026 -2.0017 -1.4823
  101SOL    HW2  452   3.054   3.022   3.092  0.5705 -1.5801 -0.5602
  102SOL     OW  453   0.942   1.653   2.627  0.5570 -0.7216 -0.1705
  102SOL    HW1  454   0.947   1.557   2.628  2.2350 -0.6723  0.9313
  102SOL    HW2  455   0.995   1.679   2.552 -0.8065 -0.6584 -1.1367
  103SOL     OW  456   0.570   2.455   3.148 -0.2199 -0.4764 -0.5416
  103SOL    HW1  457   0.550   2.368   3.182  1.0308  0.1644  2.1733
  103SOL    HW2  458   0.652   2.479   3.192 -1.5104  2.8139  0.4313
  104SOL     OW  459   1.455   2.790   3.453  0.1461  0.4313 -0.2544
  104SOL    HW1  460   1.371   2.761   3.488 -0.4264  1.3467 -0.8410
  104SOL    HW2  461   1.436   2.817   3.363  1.4402 -1.1495 -1.0509
  105SOL     OW  462   1.972   2.733   3.296 -0.1689 -0.5084  0.3104
  105SOL    HW1  463   1.975   2.656   3.240  1.6297  1.4406 -2.4755
  105SOL    HW2  464   2.063   2.749   3.321 -0.4552  0.9318  0.5123
  106SOL     OW  465   1.025   2.956   3.716  0.0383 -0.4765  0.6423
  106SOL    HW1  466   1.004   2.995   3.631 -1.8992 -0.2389  1.1828
  106SOL    HW2  467   0.955   2.986   3.774  1.0862 -0.9789  2.2361
  107SOL     OW  468   2.508   1.625   2.481 -0.4585 -0.2877 -0.3115
  107SOL    HW1  469   2.472   1.677   2.553  2.0556  1.9283 -0.4855
  107SOL    HW2  470   2.565   1.686   2.434 -1.1219 -1.9634 -3.5576
  108SOL     OW  471   1.625   1.344   1.230  0.5851 -0.4579  0.4298
  108SOL    HW1  472   1.575   1.415   1.190  0.2657 -0.1891  1.2854
  108SOL    HW2  473   1.706   1.340   1.178  1.0860  1.2371  0.9795
  109SOL     OW  474   2.266   0.692   3.487  0.1049 -0.3193  0.1047
  109SOL    HW1  475   2.328   0.759   3.514  0.9041 -0.3291 -1.6014
  109SOL    HW2  476   2.308   0.609   3.512 -0.3226 -0.2467  1.0961
  110SOL     OW  477   3.665   1.989   0.273 -0.3809  0.2076  0.0701
  110SOL    HW1  478   3.650   1.923   0.340  0.6333 -1.6603 -1.4662
  110SOL    HW2  479   3.715   1.945   0.205 -0.6051  2.2562 -1.5478
  111SOL     OW  480   2.888   0.741   1.407  0.3272  0.0686 -0.1480
  111SOL    HW1  481   2.834   0.676   1.362 -0.2339  1.3482 -1.4139
  111SOL    HW2  482   2.833   0.819   1.412  1.4558  0.8850  0.0646
  112SOL     OW  483   3.383   2.739   2.543  0.0819  0.2066 -0.3665
  112SOL    HW1  484   3.341   2.657   2.519  0.2668  0.0024  0.0119
  112SOL    HW2  485   3.369   2.748   2.637  0.8344  0.1638 -0.2461
  113SOL     OW  486   3.174   2.122   0.195  0.0701  1.3922  0.6923
  113SOL    HW1  487   3.256   2.081   0.168 -1.6035 -3.1765  1.5856
  113SOL    HW2  488   3.177   2.121   0.290 -1.0964  0.8117  0.7440
  114SOL     OW  489   1.467   2.005   3.473  0.7364  0.2429  0.6051
  114SOL    HW1  490   1.435   2.043   3.554  0.2668 -2.6862  1.9060
  114SOL    HW2  491   1.546   1.957   3.498  0.7024 -0.5465 -0.6901
  115SOL     OW  492   0.529   1.152   3.624 -0.2770 -0.5344  0.2077
  115SOL    HW1  493   0.557   1.240   3.650  1.6208 -0.4319 -1.8376
  115SOL    HW2  494   0.437   1.162   3.602 -0.2192  0.8508  0.5095
  116SOL     OW  495   2.545   0.748   1.874  0.7111 -0.8672 -0.6300
  116SOL    HW1  496   2.577   0.739   1.964  2.9359 -1.7074 -1.4365
  116SOL    HW2  497   2.474   0.811   1.881  0.8784 -0.8258  1.7038
  117SOL     OW  498   0.201   0.222   0.617 -0.0564 -0.1789  0.3278
  117SOL    HW1  499   0.268   0.182   0.673  0.1985 -0.9853 -0.5299
  117SOL    HW2  500   0.247   0.244   0.536 -0.2707  1.5851  0.6515
  118SOL     OW  501   1.326   0.617   0.758  0.3310 -0.6254 -0.8596
  118SOL    HW1  502   1.358   0.589   0.673 -1.8844 -1.6808 -1.4187
  118SOL    HW2  503   1.238   0.581   0.764 -0.2877  1.0016  1.1095
  119SOL     OW  504   0.514   3.417   1.972 -0.0810 -0.0070 -0.5935
  119SOL    HW1  505   0.598   3.396   2.013 -0.6528  0.4932  0.8947
  119SOL    HW2  506   0.467   3.334   1.972 -0.4304  0.1703  0.6645
  120SOL     OW  507   2.027   3.641   2.276  0.3283  0.3716 -0.6332
  120SOL    HW1  508   2.013   3.560   2.228  0.1998  0.2526 -0.3973
  120SOL    HW2  509   2.039   3.613   2.367  0.5705  0.5925 -0.5951
  121SOL     OW  510   2.934   0.670   2.457  0.3855 -0.5013 -0.1269
  121SOL    HW1  511   2.971   0.742   2.406 -0.6037  1.4127  1.7222
  121SOL    HW2  512   2.995   0.658   2.530 -0.7900  0.3518  1.0497
  122SOL     OW  513   2.535   3.681   1.217  0.0107  0.4369  0.9103
  122SOL    HW1  514   2.578   3.694   1.301  1.2503  1.3535  0.1737
  122SOL    HW2  515   2.488   3.598   1.226  0.6851  0.1821  2.2754
  123SOL     OW  516   1.333   0.549   0.497  0.0883  0.1299 -0.5930
  123SOL    HW1  517   1.412   0.509   0.461  0.5924  0.5856 -0.0303
  123SOL    HW2  518   1.338   0.641   0.470 -0.6631 -0.0084 -1.2234
  124SOL     OW  519   3.629   0.656   2.082  0.3536 -0.4274 -0.9365
  124SOL    HW1  520   3.582   0.596   2.024 -0.6183  0.9943 -1.7022
  124SOL    HW2  521   3.586   0.741   2.068  0.0466 -0.0065  1.9298
  125SOL     OW  522   1.246   2.359   0.594 -0.3167  0.3807 -0.4718
  125SOL    HW1  523   1.331   2.348   0.550 -0.8153  0.0327 -1.3742
  125SOL    HW2  524   1.244   2.452   0.618  0.7219  0.1963  0.4350
  126SOL     OW  525   3.437   0.678   3.392  0.2049  0.2202  0.2887
  126SOL    HW1  526   3.348   0.642   3.384  0.2334  0.2746 -0.2786
  126SOL    HW2  527   3.491   0.621   3.337  0.0153  1.9855 -1.8135
  127SOL     OW  528   2.531   3.214   1.298  0.4185 -0.1201  0.1028
  127SOL    HW1  529   2.495   3.243   1.214 -0.6331 -0.0748  0.5537
  127SOL    HW2  530   2.455   3.194   1.351  0.9558  2.0937  1.8636
  128SOL     OW  531   0.219   2.606   0.236 -0.6460  0.5157 -0.0146
  128SOL    HW1  532   0.291   2.593   0.298 -1.7548  0.8839  1.4041
  128SOL    HW2  533   0.243   2.684   0.186  1.6773 -1.4204 -2.1999
  129SOL     OW  534   3.231   3.656   0.648 -0.7236 -0.0781 -0.3913
  129SOL    HW1  535   3.147   3.619   0.620 -0.6302 -0.6214  0.0298
  129SOL    HW2  536   3.271   3.588   0.702  0.1445  0.0354 -0.8619
  130SOL     OW  537   1.314   2.435   3.430 -0.4349 -0.0082 -0.8739
  130SOL    HW1  538   1.407   2.416   3.415 -0.3497 -4.6682  3.0825
  130SOL    HW2  539   1.314   2.520   3.474  2.6088 -1.4606  2.4428
  131SOL     OW  540   2.972   2.810   1.118 -0.0326  0.1507 -0.2452
  131SOL    HW1  541   2.888   2.835   1.156 -1.4071 -0.2823 -2.7614
  131SOL    HW2  542   2.997   2.730   1.164 -1.6570 -0.4040 -0.2568
  132SOL     OW  543   3.436   0.998   2.777 -0.2079 -0.5952 -0.0362
  132SOL    HW1  544   3.457   1.014   2.869  0.3448  1.6822 -0.4860
  132SOL    HW2  545   3.453   0.905   2.764 -1.9379 -1.3729  2.5460
  133SOL     OW  546   0.233   0.988   3.495 -0.5503 -0.9513 -0.0817
  133SOL    HW1  547   0.172   0.986   3.569 -0.4521 -1.5157 -0.0141
  133SOL    HW2  548   0.177   1.004   3.419 -0.5744  0.3060  0.1874
  134SOL     OW  549   1.473   0.007   2.239  0.0623 -0.0322  0.5187
  134SOL    HW1  550   1.508   0.093   2.264 -0.3825  0.3157 -0.0239
  134SOL    HW2  551   1.547  -0.039   2.200  0.3397  0.0469  0.9470
  135SOL     OW  552   1.212   0.064   1.143  0.2886 -0.0910 -0.4935
  135SOL    HW1  553   1.134   0.093   1.192  0.0791  0.0836 -0.9299
  135SOL    HW2  554   1.273   0.035   1.211  0.0928  0.3810 -0.1086
  136SOL     OW  555   2.722   0.968   1.382  0.0868 -0.2235  0.7903
  136SOL    HW1  556   2.629   0.945   1.390  0.2989 -0.9386  1.2896
  136SOL    HW2  557   2.730   1.004   1.294 -0.1338 -2.7181 -0.3431
  137SOL     OW  558   2.106   2.665   2.157  0.6722  0.0579 -0.0509
  137SOL    HW1  559   2.189   2.619   2.145  0.0509 -1.8577  2.1063
  137SOL    HW2  560   2.056   2.607   2.215 -1.9119  1.4687 -0.7482
  138SOL     OW  561   0.176   1.515   3.377 -0.2179  0.4140 -0.0255
  138SOL    HW1  562   0.152   1.567   3.300 -0.5556 -1.2990 -1.1545
  138SOL    HW2  563   0.202   1.430   3.341  0.5003 -0.1519  1.7104
  139SOL     OW  564   3.650   2.291   0.263 -0.1864 -0.6689  0.3687
  139SOL    HW1  565   3.696   2.208   0.270  0.7224 -0.1327  1.1171
  139SOL    HW2  566   3.557   2.268   0.261  0.0908 -1.7620 -0.7591
  140SOL     OW  567   2.752   2.398   1.084  0.2305  0.0788 -0.0848
  140SOL    HW1  568   2.749   2.442   1.169  0.1480  0.2493 -0.1775
  140SOL    HW2  569   2.774   2.467   1.021 -1.5918  0.3473 -0.4773
  141SOL     OW  570   0.338   2.456   3.446  0.0099 -0.4022  0.2602
  141SOL    HW1  571   0.401   2.488   3.511  1.9739 -0.8444 -1.3327
  141SOL    HW2  572   0.267   2.418   3.498 -0.0749  2.0511  2.1627
  142SOL     OW  573   1.542   3.401   2.679  0.7923  0.4587 -0.7602
  142SOL    HW1  574   1.453   3.377   2.706  0.8310  0.4470 -0.6406
  142SOL    HW2  575   1.598   3.336   2.721  0.8236  0.2186 -1.1731
  143SOL     OW  576   1.364   1.021   1.597  0.2454  0.2584 -0.4042
  143SOL    HW1  577   1.389   1.109   1.569 -0.7292  0.6968  0.0673
  143SOL    HW2  578   1.305   0.990   1.528 -0.9768  0.7604  0.3872
  144SOL     OW  579   3.400   3.727   3.442 -0.1546  0.2480 -0.1999
  144SOL    HW1  580   3.379   3.647   3.394  0.5721  0.4281 -0.8437
  144SOL    HW2  581   3.488   3.711   3.477 -0.0382  0.7325 -0.2665
  145SOL     OW  582   2.441   3.019   1.014  0.0141  0.7323  0.5653
  145SOL    HW1  583   2.366   2.960   1.012 -0.2998  1.1198 -1.5021
  145SOL    HW2  584   2.407   3.103   0.985  1.1868  0.9603 -0.2482
  146SOL     OW  585   1.072   0.464   1.194  0.4652 -0.2971  0.0237
  146SOL    HW1  586   1.133   0.450   1.267  1.0528 -0.3559 -0.4684
  146SOL    HW2  587   1.036   0.551   1.209  0.5910 -0.3046  0.3760
  147SOL     OW  588   3.649   2.502   0.849  0.4986 -0.3282 -0.5255
  147SOL    HW1  589   3.664   2.586   0.892  1.4413 -0.4349 -0.6299
  147SOL    HW2  590   3.560   2.509   0.814 -0.4626 -0.3873  1.7448
  148SOL     OW  591   0.484   0.628   0.533 -0.2615 -0.3402  0.4602
  148SOL    HW1  592   0.403   0.638   0.482 -1.7648 -2.3117  2.3046
  148SOL    HW2  593   0.549   0.601   0.469 -0.6725  2.3473 -1.2793
  149SOL     OW  594   2.326   3.224   2.946  0.3589 -0.0845  0.1525
  149SOL    HW1  595   2.287   3.304   2.983  0.8662  0.5282 -0.5900
  149SOL    HW2  596   2.277   3.152   2.987 -2.4147  0.6354 -1.5952
  150SOL     OW  597   3.078   0.798   1.592 -0.4652 -0.0064 -0.4035
  150SOL    HW1  598   3.028   0.747   1.527 -1.3900  0.2053  0.1173
  150SOL    HW2  599   3.069   0.889   1.562 -2.0887  0.2524  0.7562
  151SOL     OW  600   1.662   2.447   2.533 -0.1117  0.1963  0.1905
  151SOL    HW1  601   1.689   2.440   2.441  0.3554  2.1596  0.1370
  151SOL    HW2  602   1.693   2.366   2.573  1.3884  0.1431 -0.9731
  152SOL     OW  603   2.690   1.049   1.938 -0.3537  0.3090 -0.2243
  152SOL    HW1  604   2.744   1.020   1.864 -1.3006  0.1561 -0.8765
  152SOL    HW2  605   2.740   1.023   2.015 -0.1702 -1.1533 -0.7989
  153SOL     OW  606   2.269   2.728   2.952 -0.2640  0.2354  0.2802
  153SOL    HW1  607   2.330   2.769   2.891 -1.0759 -1.1053 -1.5370
  153SOL    HW2  608   2.321   2.710   3.030  1.2425  0.5622 -0.6056
  154SOL     OW  609   1.833   0.941   3.537  0.1789 -0.6447 -0.0692
  154SOL    HW1  610   1.884   0.872   3.581 -0.6472 -0.7632  0.7439
  154SOL    HW2  611   1.742   0.912   3.545 -0.2519  0.8691  0.9249
  155SOL     OW  612   3.280   2.773   0.792  0.2296  0.9847  0.4432
  155SOL    HW1  613   3.357   2.799   0.843  0.8024  0.9827 -0.4125
  155SOL    HW2  614   3.208   2.826   0.829  0.3170 -0.0472  2.2185
  156SOL     OW  615   0.304   1.537   0.972  0.3089 -0.3547  0.3637
  156SOL    HW1  616   0.297   1.576   0.885  0.8150 -0.2418  0.3673
  156SOL    HW2  617   0.216   1.544   1.009  0.3307  0.5623  0.2707
  157SOL     OW  618  -0.022   1.936   3.282 -0.2675  0.1499 -0.0505
  157SOL    HW1  619   0.065   1.904   3.258 -0.4413 -0.3713 -0.0124
  157SOL    HW2  620  -0.037   2.011   3.225 -0.7551 -1.1819 -1.7663
  158SOL     OW  621   2.036   2.157   0.679  0.2175 -0.2682 -0.1928
  158SOL    HW1  622   2.046   2.073   0.634  0.0035 -1.7333  2.2703
  158SOL    HW2  623   2.033   2.134   0.772 -0.3852  2.4439  0.5620
  159SOL     OW  624   1.097   1.885   1.413 -0.4423  0.5539  0.0071
  159SOL    HW1  625   1.169   1.947   1.399 -1.0282  1.4510  0.8211
  159SOL    HW2  626   1.126   1.804   1.372  1.3946  0.6321  1.0952
  160SOL     OW  627   2.567   0.411   2.581 -0.2094  0.1841 -0.6417
  160SOL    HW1  628   2.475   0.436   2.582 -0.6415 -0.9372  3.1346
  160SOL    HW2  629   2.615   0.494   2.583 -1.3572  0.8962  2.7087
  161SOL     OW  630   0.087   1.795   0.918  0.0285 -0.7768 -0.2717
  161SOL    HW1  631   0.097   1.816   1.011  1.2376  1.1020 -0.7730
  161SOL    HW2  632  -0.005   1.809   0.899 -0.1586 -0.8410  0.5585
  162SOL     OW  633   1.816   1.074   1.012  0.0615  0.7289  0.2030
  162SOL    HW1  634   1.780   1.051   1.098 -0.1724  3.9197  1.0867
  162SOL    HW2  635   1.798   0.997   0.957 -0.8343 -0.9565  2.6603
  163SOL     OW  636   0.148   2.062   3.683  0.6186 -0.1070  0.5217
  163SOL    HW1  637   0.185   2.039   3.768  0.6093  1.6234  1.0332
  163SOL    HW2  638   0.162   2.156   3.676  0.6883 -0.2277 -1.4355
  164SOL     OW  639   3.358   1.292   1.320 -0.0907  0.1309 -0.3033
  164SOL    HW1  640   3.420   1.270   1.250  2.9192  0.5795  2.0396
  164SOL    HW2  641   3.391   1.374   1.357 -1.9197  0.2273  1.2794
  165SOL     OW  642   0.442   0.045   0.114  0.3677  0.4963 -0.1740
  165SOL    HW1  643   0.536   0.026   0.106  0.3434  1.1555 -2.7732
  165SOL    HW2  644   0.399  -0.039   0.100  0.5285  0.6859 -2.0070
  166SOL     OW  645   1.487   2.738   3.118 -0.3787 -0.0360 -0.2060
  166SOL    HW1  646   1.524   2.675   3.055  1.1508  0.0571  0.5580
  166SOL    HW2  647   1.546   2.734   3.193 -0.0762  2.5288 -0.2437
  167SOL     OW  648   0.244   0.611   0.326  0.1585 -0.0904  0.1967
  167SOL    HW1  649   0.295   0.675   0.277  1.9015  0.1239  2.1553
  167SOL    HW2  650   0.177   0.663   0.370  0.3589  0.1228  0.2538
  168SOL     OW  651   1.250   1.048   2.716 -0.1173  0.2909  0.2392
  168SOL    HW1  652   1.189   1.055   2.790  0.2743  1.5889  0.4797
  168SOL    HW2  653   1.193   1.043   2.639 -0.5374  0.5269  0.5243
  169SOL     OW  654   1.082   3.147   3.322 -0.0509 -0.3746 -0.4403
  169SOL    HW1  655   1.030   3.135   3.402  0.9271 -1.5182  0.0490
  169SOL    HW2  656   1.048   3.081   3.261 -0.9835  0.6788 -1.0911
  170SOL     OW  657   1.610   1.597   0.894  0.1628  0.4052  0.3812
  170SOL    HW1  658   1.683   1.653   0.918 -1.3514  2.4052  0.5258
  170SOL    HW2  659   1.608   1.599   0.798 -0.0173  0.7511  0.3940
  171SOL     OW  660   0.773   2.132   3.129  0.4245  0.3086 -0.0175
  171SOL    HW1  661   0.727   2.160   3.208  2.2242  0.6242  0.9807
  171SOL    HW2  662   0.764   2.037   3.129  0.2395  0.3202  0.4625
  172SOL     OW  663   1.303   0.208   1.422  0.3519 -0.1854  0.1834
  172SOL    HW1  664   1.267   0.134   1.470  2.3587 -1.0958  0.3881
  172SOL    HW2  665   1.259   0.285   1.460 -2.0163 -1.2206 -0.2671
  173SOL     OW  666   2.053   0.783   3.631 -0.3984  0.3605 -0.0665
  173SOL    HW1  667   1.999   0.706   3.618 -0.3423  0.3363 -0.1589
  173SOL    HW2  668   2.137   0.761   3.589 -0.1302  0.1818  0.5586
  174SOL     OW  669  -0.011   2.985   0.719 -0.8576  0.3379  0.8797
  174SOL    HW1  670  -0.035   2.992   0.627 -0.8860  1.3445  0.9441
  174SOL    HW2  671   0.084   2.977   0.719 -1.0059 -1.9958  0.6906
  175SOL     OW  672   0.385   1.839   2.974  0.6375  0.1695 -0.0799
  175SOL    HW1  673   0.354   1.757   2.935  1.1100 -1.0354  1.9721
  175SOL    HW2  674   0.324   1.905   2.940 -1.4648 -1.4421  0.3284
  176SOL     OW  675   0.244   0.981   1.492 -0.4448  0.2177  0.6679
  176SOL    HW1  676   0.263   0.931   1.572 -2.1297  0.9514  1.6030
  176SOL    HW2  677   0.227   1.070   1.524  1.8489  1.2914 -0.8838
  177SOL     OW  678   1.675   3.061   3.580 -0.0878 -0.0902 -0.9640
  177SOL    HW1  679   1.736   3.009   3.529 -1.1251 -0.9533 -1.3580
  177SOL    HW2  680   1.722   3.142   3.599  2.3723 -1.9008  1.4185
  178SOL     OW  681   2.179   0.144   1.952  0.4587 -0.3077  0.4555
  178SOL    HW1  682   2.152   0.222   2.001  0.9688  1.2559 -1.6114
  178SOL    HW2  683   2.108   0.129   1.890  1.0158 -0.6241 -0.1139
  179SOL     OW  684   1.875   1.349   1.111  0.1328  0.3104  0.4424
  179SOL    HW1  685   1.923   1.419   1.156 -1.2400 -0.0083  2.5231
  179SOL    HW2  686   1.943   1.287   1.084  1.0868  0.9814  1.2443
  180SOL     OW  687   3.524   1.947   2.352  0.1693 -0.0599 -0.5191
  180SOL    HW1  688   3.596   1.989   2.398 -0.4589  0.4217  0.0521
  180SOL    HW2  689   3.451   2.008   2.360 -0.0825 -0.1651 -1.7981
  181SOL     OW  690   2.421   1.111   3.025  0.1309  0.3382 -0.4195
  181SOL    HW1  691   2.373   1.067   2.955  0.4181  2.8133 -2.3192
  181SOL    HW2  692   2.480   1.171   2.979  2.9309 -0.4454  1.8968
  182SOL     OW  693   0.838   1.725   2.328 -0.3814 -1.3511 -0.2838
  182SOL    HW1  694   0.809   1.634   2.323 -1.8107 -0.8663 -3.4588
  182SOL    HW2  695   0.769   1.770   2.378 -1.8296 -1.3699 -2.1800
  183SOL     OW  696   1.410   0.506   2.546  0.3509  0.1379 -0.6873
  183SOL    HW1  697   1.412   0.571   2.616 -0.5259  0.3151 -0.8191
  183SOL    HW2  698   1.439   0.425   2.588 -0.4785  0.1690 -0.0204
  184SOL     OW  699   0.327   1.189   3.022  0.7245 -0.3583  0.8419
  184SOL    HW1  700   0.249   1.236   2.993  1.7920  3.0265  2.9510
  184SOL    HW2  701   0.391   1.203   2.953  0.4884 -0.2429  0.6443
  185SOL     OW  702   2.698   3.303   0.574 -0.0725  0.2955  0.4938
  185SOL    HW1  703   2.702   3.215   0.612  0.0732  0.5959  1.1919
  185SOL    HW2  704   2.724   3.291   0.483  0.7209 -0.2633  0.7847
  186SOL     OW  705   1.934   2.170   2.331 -0.3440  1.0064  0.1689
  186SOL    HW1  706   1.949   2.085   2.290 -1.2684  0.5197  0.8062
  186SOL    HW2  707   1.961   2.158   2.422 -2.4517  0.7400  0.8002
  187SOL     OW  708   3.424   1.890   1.356 -0.1857 -0.3591  0.1583
  187SOL    HW1  709   3.378   1.907   1.438 -0.2101  0.3697  0.0027
  187SOL    HW2  710   3.401   1.964   1.300  0.7263 -0.2667 -0.1144
  188SOL     OW  711   1.254   3.703   0.169 -0.0430 -0.8794  0.4193
  188SOL    HW1  712   1.267   3.769   0.237  0.8756 -1.7315  1.0907
  188SOL    HW2  713   1.241   3.621   0.217 -1.6965 -1.1353 -0.3840
  189SOL     OW  714   0.887   3.250   0.620 -0.0518 -0.0764 -0.2133
  189SOL    HW1  715   0.861   3.169   0.665  1.0418 -0.1624  0.3017
  189SOL    HW2  716   0.933   3.301   0.687  2.7915 -0.7763 -1.4910
  190SOL     OW  717   0.939   3.469   0.216 -0.1421  0.5182 -0.3801
  190SOL    HW1  718   0.920   3.446   0.126  0.2188 -0.3966 -0.2333
  190SOL    HW2  719   1.010   3.411   0.242 -0.0176  0.9894  0.3938
  191SOL     OW  720   0.715   3.256   1.722 -0.0206 -0.2959 -0.0628
  191SOL    HW1  721   0.743   3.326   1.781  2.6816 -3.0786  2.2707
  191SOL    HW2  722   0.634   3.222   1.762 -0.0502 -0.0039  0.1258
  192SOL     OW  723   1.563   0.279   2.089 -0.4656 -0.0475 -0.8841
  192SOL    HW1  724   1.577   0.308   2.179 -0.4979  0.3203 -0.9992
  192SOL    HW2  725   1.469   0.282   2.076 -0.4824 -0.3660 -0.8418
  193SOL     OW  726   2.145   2.827   1.371  0.1764  0.0458 -0.4386
  193SOL    HW1  727   2.168   2.734   1.374  2.2601  0.5398  1.7006
  193SOL    HW2  728   2.205   2.864   1.306  2.2050  0.4673  1.5332
  194SOL     OW  729   1.913   3.648   0.396 -0.1664  0.3323  0.1672
  194SOL    HW1  730   1.864   3.598   0.462 -0.1164  0.4502  0.2944
  194SOL    HW2  731   1.856   3.721   0.374  0.1406  0.7282  0.6551
  195SOL     OW  732   0.644   2.259   2.146  0.1229 -0.1568 -0.2448
  195SOL    HW1  733   0.709   2.328   2.129 -0.4012  0.7003  1.0600
  195SOL    HW2  734   0.663   2.230   2.235 -2.1524  1.1581  0.7392
  196SOL     OW  735   0.818   3.084   0.080 -0.0864 -0.5451 -0.0053
  196SOL    HW1  736   0.779   3.125   0.157  0.1555 -0.8429  0.2784
  196SOL    HW2  737   0.801   3.146   0.009 -1.5663 -0.9246 -0.0121
  197SOL     OW  738   0.273   0.872   1.745 -0.0060  0.3794  0.0435
  197SOL    HW1  739   0.233   0.930   1.808  2.2308  0.4239  1.5374
  197SOL    HW2  740   0.258   0.784   1.780 -2.9023 -0.0649 -1.9284
  198SOL     OW  741   0.724   2.204   2.400 -0.1704  0.1163  0.8573
  198SOL    HW1  742   0.670   2.270   2.444  0.5137  1.4161 -0.1769
  198SOL    HW2  743   0.766   2.156   2.471 -1.6620 -0.0635  1.6586
  199SOL     OW  744   0.237   3.099   2.990  0.4032 -0.3958 -0.1523
  199SOL    HW1  745   0.152   3.092   2.946 -0.5776  1.5952  1.2589
  199SOL    HW2  746   0.240   3.023   3.049 -0.7561 -0.1210  0.2934
  200SOL     OW  747   3.597   3.409   2.443  0.1979  0.2349  0.4339
  200SOL    HW1  748   3.533   3.468   2.482 -0.4343 -0.3536  0.2917
  200SOL    HW2  749   3.621   3.350   2.515  2.4625  1.9616  1.2212
  201SOL     OW  750   3.274   1.578   3.445  0.0244  0.2530  0.4030
  201SOL    HW1  751   3.256   1.622   3.362  0.4118  0.6731  0.5352
  201SOL    HW2  752   3.188   1.567   3.485 -0.3687 -1.5183 -0.8013
  202SOL     OW  753   2.745   1.878   3.557 -0.2296 -0.3920 -0.3010
  202SOL    HW1  754   2.748   1.852   3.649 -0.5501  1.4543  0.2715
  202SOL    HW2  755   2.672   1.828   3.521 -1.3145  0.2363  0.9370
  203SOL     OW  756   1.167   3.639   3.189 -0.1866 -0.0156 -0.4053
  203SOL    HW1  757   1.194   3.558   3.231  2.3841  1.0301  0.1565
  203SOL    HW2  758   1.235   3.656   3.123 -0.9837  1.3786 -0.9183
  204SOL     OW  759   2.171   2.695   0.231  0.0445  0.2760  0.2751
  204SOL    HW1  760   2.222   2.774   0.244  0.6525 -0.2679  1.4150
  204SOL    HW2  761   2.231   2.634   0.187 -0.7727  0.7922 -1.6332
  205SOL     OW  762   1.849   1.264   0.552 -0.5024 -0.0623 -0.1526
  205SOL    HW1  763   1.791   1.203   0.509 -0.0406 -0.5568 -0.0811
  205SOL    HW2  764   1.820   1.264   0.644 -1.4875  0.9953 -0.4403
  206SOL     OW  765   3.341   2.156   2.467 -0.2189 -0.6255  0.4146
  206SOL    HW1  766   3.349   2.233   2.523 -0.5520  0.8722 -1.4954
  206SOL    HW2  767   3.254   2.164   2.427  0.1078 -1.5151 -0.5178
  207SOL     OW  768   3.632   2.254   2.837 -0.0702 -0.5252 -0.1254
  207SOL    HW1  769   3.553   2.308   2.836 -0.2340 -0.7366  0.5488
  207SOL    HW2  770   3.626   2.205   2.919 -0.4815 -2.3755 -1.1909
  208SOL     OW  771   2.729   2.893   1.222  0.2400  0.1320  0.3369
  208SOL    HW1  772   2.733   2.988   1.227  0.1698  0.1155  0.7465
  208SOL    HW2  773   2.732   2.864   1.313 -1.5842 -0.1724  0.3482
  209SOL     OW  774   1.333   1.376   1.715  0.5020 -0.3338 -0.1022
  209SOL    HW1  775   1.369   1.419   1.637  0.0839 -1.7301 -1.1103
  209SOL    HW2  776   1.251   1.421   1.731  0.7394  0.1696 -0.2851
  210SOL     OW  777   2.443   0.773   0.846  0.0703 -0.1675  0.6815
  210SOL    HW1  778   2.350   0.760   0.831 -0.6292  3.9481  0.3419
  210SOL    HW2  779   2.486   0.715   0.783 -2.3220 -0.5942 -0.6576
  211SOL     OW  780   3.508   1.812   1.050 -0.3090 -0.4360 -0.0828
  211SOL    HW1  781   3.469   1.765   0.976  1.4556  0.9418 -1.9752
  211SOL    HW2  782   3.436   1.862   1.087 -1.2790 -1.3146 -0.7146
  212SOL     OW  783   1.350   2.973   3.253 -0.1197  0.3197 -0.7873
  212SOL    HW1  784   1.404   3.033   3.303  1.0202 -0.7254 -0.7244
  212SOL    HW2  785   1.304   3.029   3.190 -0.3724  1.4472  0.3524
  213SOL     OW  786   0.483   2.620   2.800  0.2882 -0.5270 -0.1924
  213SOL    HW1  787   0.507   2.655   2.714 -3.0875 -1.3105 -1.5905
  213SOL    HW2  788   0.473   2.697   2.855 -0.6116  0.2600 -1.3997
  214SOL     OW  789   3.237   0.227   2.525  0.4296 -0.0520 -0.4436
  214SOL    HW1  790   3.307   0.194   2.583  2.1570 -2.4500 -3.5617
  214SOL    HW2  791   3.164   0.167   2.539  1.0069 -0.9096 -1.0502
  215SOL     OW  792   1.224   0.042   2.335  0.6983  0.1721 -0.1022
  215SOL    HW1  793   1.177   0.111   2.287  2.3363  0.9980 -0.6148
  215SOL    HW2  794   1.313   0.045   2.299  1.6878 -0.0059  2.1520
  216SOL     OW  795   0.413   2.311   1.441 -0.9323  0.3774 -0.5341
  216SOL    HW1  796   0.433   2.387   1.386 -0.1058 -1.3015 -2.7073
  216SOL    HW2  797   0.376   2.246   1.381 -2.4841 -0.6626  1.4069
  217SOL     OW  798   2.031   2.623   2.956 -0.2933  0.5343  0.1701
  217SOL    HW1  799   1.991   2.584   2.878 -0.0680 -0.1562  0.3847
  217SOL    HW2  800   2.111   2.663   2.925 -0.4364  0.6638 -0.0304
  218SOL     OW  801   1.713   1.200   1.482 -0.2093 -0.0348 -0.3264
  218SOL    HW1  802   1.719   1.276   1.424 -1.5297  0.9194  0.7221
  218SOL    HW2  803   1.797   1.156   1.473 -0.1470  0.4057 -2.4889
  219SOL     OW  804   2.628   2.051   1.099 -0.2397  0.4946 -0.0092
  219SOL    HW1  805   2.571   2.127   1.098 -0.1143  0.5907 -1.6010
  219SOL    HW2  806   2.710   2.081   1.060  0.3190 -0.0896  0.6624
  220SOL     OW  807   2.565   2.664   1.107 -0.1679  0.1428 -0.0084
  220SOL    HW1  808   2.565   2.665   1.012  2.5437 -1.6633 -0.1423
  220SOL    HW2  809   2.594   2.752   1.132 -1.8222  0.9375 -0.7567
  221SOL     OW  810   1.653   0.757   1.882  0.0700  0.0360  0.9829
  221SOL    HW1  811   1.637   0.669   1.849  1.1209 -0.0906  0.7661
  221SOL    HW2  812   1.676   0.745   1.974  0.2111  0.0823  0.9540
  222SOL     OW  813   0.461   1.843   2.637 -0.0145  0.4446  0.3267
  222SOL    HW1  814   0.458   1.933   2.669 -0.2952  1.0482 -1.2931
  222SOL    HW2  815   0.531   1.843   2.571 -0.6758 -0.2612 -0.3991
  223SOL     OW  816   0.854   2.982   1.952 -0.2311 -0.3635 -0.0636
  223SOL    HW1  817   0.875   3.048   1.886  0.7480 -0.5511  0.0434
  223SOL    HW2  818   0.914   2.910   1.934 -2.0580 -1.7661 -0.9296
  224SOL     OW  819   0.444   1.467   1.411 -0.0756  0.2294  0.0189
  224SOL    HW1  820   0.400   1.425   1.337 -0.1442 -0.4421  0.4293
  224SOL    HW2  821   0.374   1.505   1.463 -0.0586  0.3444 -0.0409
  225SOL     OW  822   2.254   2.507   3.154 -0.5035 -0.0015 -0.1210
  225SOL    HW1  823   2.175   2.462   3.186 -0.2597 -0.6448 -0.3933
  225SOL    HW2  824   2.268   2.470   3.067 -0.4094  0.7737 -0.4424
  226SOL     OW  825   2.807   1.352   0.244  0.2294 -0.0140  0.1141
  226SOL    HW1  826   2.783   1.376   0.155 -3.0931 -2.1162  0.2353
  226SOL    HW2  827   2.838   1.261   0.237  0.9817  0.1566  0.9862
  227SOL     OW  828   3.439   0.608   2.888 -0.5235 -0.1930  0.1750
  227SOL    HW1  829   3.366   0.562   2.930  0.6923 -0.8880  1.6208
  227SOL    HW2  830   3.472   0.667   2.955  0.2328  0.1300 -0.4618
  228SOL     OW  831   0.587   0.551   0.278 -0.2022 -0.2315  0.1303
  228SOL    HW1  832   0.548   0.478   0.230  0.0009 -0.8779  0.9115
  228SOL    HW2  833   0.607   0.616   0.212 -2.4315  0.0638 -0.3327
  229SOL     OW  834   1.429   3.608   1.057 -0.3050  0.0849 -0.2957
  229SOL    HW1  835   1.505   3.589   1.112  0.8632  2.5444 -0.9193
  229SOL    HW2  836   1.359   3.555   1.095  1.4502 -1.5365  0.9053
  230SOL     OW  837   0.996   2.575   1.063  0.0933 -0.5205  0.2014
  230SOL    HW1  838   1.006   2.518   1.139 -1.6604  0.4804  1.2734
  230SOL    HW2  839   1.083   2.609   1.046  0.7992 -1.9703  0.7743
  231SOL     OW  840   0.979   0.779   0.504 -0.0556 -0.6344 -0.2915
  231SOL    HW1  841   1.001   0.741   0.419  1.4565  0.9535 -0.6674
  231SOL    HW2  842   0.885   0.767   0.512  0.1054 -2.8301 -1.1561
  232SOL     OW  843   0.879   3.180   1.460  0.3594  0.7668 -0.3049
  232SOL    HW1  844   0.893   3.274   1.458  1.0351  0.6981  0.6016
  232SOL    HW2  845   0.822   3.165   1.535 -0.0373  0.4854 -0.6563
  233SOL     OW  846   0.013   3.668   1.225  0.5032  0.3336 -0.4994
  233SOL    HW1  847   0.045   3.675   1.135 -0.9448 -0.3883 -1.1009
  233SOL    HW2  848  -0.036   3.750   1.239  2.0527  1.1690  0.2123
  234SOL     OW  849   0.952   1.909   3.424  0.1317 -0.4460  0.3248
  234SOL    HW1  850   0.951   1.918   3.329 -0.6761 -1.1156  0.2524
  234SOL    HW2  851   1.044   1.922   3.449  0.6492 -1.8799 -0.7221
  235SOL     OW  852   0.356   0.467   0.727 -0.0757 -0.1775  0.1313
  235SOL    HW1  853   0.296   0.401   0.692  1.1116 -0.0678 -2.3244
  235SOL    HW2  854   0.397   0.507   0.649  0.6022  2.1890  1.5793
  236SOL     OW  855   2.294   1.508   0.954 -0.0587 -0.8012 -0.3223
  236SOL    HW1  856   2.332   1.500   1.042 -0.1809  0.5327 -0.1250
  236SOL    HW2  857   2.329   1.433   0.906 -0.5245 -1.9546  1.0476
  237SOL     OW  858   1.543   2.935   1.999 -0.4215 -0.0810 -0.5873
  237SOL    HW1  859   1.578   2.918   2.087 -2.2787 -0.9246  0.0503
  237SOL    HW2  860   1.536   3.030   1.994  2.6772  0.2012 -1.1017
  238SOL     OW  861   0.751   2.942   2.438  0.4340  0.4699 -0.2537
  238SOL    HW1  862   0.819   2.934   2.372  0.2968 -1.2929 -0.2359
  238SOL    HW2  863   0.792   2.989   2.510  1.4890 -0.1307 -0.4459
  239SOL     OW  864   3.167   3.398   2.520 -0.1393 -0.4239  0.0711
  239SOL    HW1  865   3.157   3.304   2.539  2.0170 -0.5616  0.8604
  239SOL    HW2  866   3.248   3.403   2.469  1.0021  1.1683  1.9134
  240SOL     OW  867   1.397   1.986   0.513 -0.1814  0.0548  0.0193
  240SOL    HW1  868   1.417   2.067   0.466 -2.2874  1.4376  1.3137
  240SOL    HW2  869   1.338   1.938   0.456  1.3082 -0.7977 -0.8840
  241SOL     OW  870   1.072   2.372   3.393 -0.6302  0.1582 -0.9207
  241SOL    HW1  871   1.161   2.406   3.401 -0.0633 -1.2323 -0.9136
  241SOL    HW2  872   1.042   2.401   3.307 -0.0879  0.4747 -1.0030
  242SOL     OW  873   1.311   0.541   1.893  0.0382  0.7139  0.1969
  242SOL    HW1  874   1.295   0.598   1.818  1.1769  0.3846 -0.3151
  242SOL    HW2  875   1.273   0.457   1.868  0.1642  0.6844  0.1028
  243SOL     OW  876   1.412   0.703   0.988 -0.0046 -0.0928 -0.9650
  243SOL    HW1  877   1.357   0.667   0.918 -1.6232 -1.4943  0.9299
  243SOL    HW2  878   1.352   0.715   1.062  1.9732 -0.2996  0.7446
  244SOL     OW  879   1.676   2.514   2.080 -0.0327 -0.3154 -1.0435
  244SOL    HW1  880   1.644   2.424   2.082  3.3597 -1.6546 -0.8121
  244SOL    HW2  881   1.619   2.561   2.141 -1.0691 -2.5950 -0.1282
  245SOL     OW  882   1.154   2.264   2.355 -0.4045  0.0455  0.2355
  245SOL    HW1  883   1.144   2.169   2.368  0.3701 -0.2764 -1.3257
  245SOL    HW2  884   1.247   2.280   2.368  0.0805  0.0092 -2.6939
  246SOL     OW  885   3.409   1.831   3.119 -0.1363 -0.3422  0.0888
  246SOL    HW1  886   3.327   1.833   3.069 -1.4513 -0.4486  2.1057
  246SOL    HW2  887   3.410   1.914   3.166  0.7284 -0.5145  0.3900
  247SOL     OW  888   2.857   3.137   1.183 -0.2142  0.0652 -0.6158
  247SOL    HW1  889   2.911   3.185   1.119 -0.8694 -1.6204 -2.5394
  247SOL    HW2  890   2.783   3.196   1.200  0.7661  1.2061 -0.1513
  248SOL     OW  891   1.515   3.671   2.723 -0.4083 -0.1698  0.5346
  248SOL    HW1  892   1.530   3.579   2.701  0.2346  0.0264  0.1115
  248SOL    HW2  893   1.568   3.685   2.802 -2.4959 -0.8023  2.1325
  249SOL     OW  894   2.862   0.972   3.257  0.6232 -0.3534 -0.4365
  249SOL    HW1  895   2.809   0.914   3.311 -0.8991  0.9433 -0.4469
  249SOL    HW2  896   2.827   1.060   3.275  1.8736  0.4048 -1.5033
  250SOL     OW  897   0.226   0.372   2.430 -0.2969  0.4188  0.1354
  250SOL    HW1  898   0.156   0.307   2.429 -0.5210  0.6291  1.1111
  250SOL    HW2  899   0.205   0.431   2.358 -2.1817  1.5649  1.5459
  251SOL     OW  900   1.659   0.675   0.896 -0.1996  0.3761  0.1058
  251SOL    HW1  901   1.564   0.680   0.908 -0.0892  0.4607  1.0025
  251SOL    HW2  902   1.690   0.622   0.969  0.3661 -0.3130 -0.6222
  252SOL     OW  903   0.472   0.623   1.014  0.1337 -0.1305  0.0697
  252SOL    HW1  904   0.482   0.546   0.959  0.3951 -1.2660  1.6255
  252SOL    HW2  905   0.403   0.674   0.972  0.7395 -0.6338 -1.6079
  253SOL     OW  906   1.799   2.952   1.836 -0.3951  0.0275  0.1988
  253SOL    HW1  907   1.747   2.978   1.911  0.0810  0.4874  0.3762
  253SOL    HW2  908   1.868   2.896   1.873 -1.4255 -1.5524 -0.1801
  254SOL     OW  909   0.123   1.837   1.877 -0.0860 -0.4397  0.2620
  254SOL    HW1  910   0.148   1.848   1.968 -0.7063  0.9639  0.2955
  254SOL    HW2  911   0.055   1.770   1.878  0.5911 -1.1277  0.6987
  255SOL     OW  912   1.067   2.837   1.880  0.2114  0.2867  0.8568
  255SOL    HW1  913   1.105   2.753   1.906  0.3385  0.7562  2.3182
  255SOL    HW2  914   1.142   2.896   1.873  0.3154 -0.0613 -1.8047
  256SOL     OW  915   0.183   3.357   2.591  0.9811  0.8721  0.4394
  256SOL    HW1  916   0.254   3.420   2.600  1.6269  0.0801  1.0339
  256SOL    HW2  917   0.225   3.278   2.557  0.4552  0.2923  1.0992
  257SOL     OW  918   3.097   2.571   0.890 -0.3603 -0.2518 -0.0686
  257SOL    HW1  919   3.152   2.554   0.966  0.4852  1.1035 -0.3359
  257SOL    HW2  920   3.138   2.646   0.847 -1.5090 -0.2258 -1.1898
  258SOL     OW  921   1.739   2.667   0.607  0.4165  0.1271 -0.3712
  258SOL    HW1  922   1.730   2.758   0.633  0.4822 -0.3465  1.4664
  258SOL    HW2  923   1.750   2.670   0.512  0.8212  2.0457 -0.3073
  259SOL     OW  924   1.522   3.682   0.758 -0.0123  0.3165 -0.0897
  259SOL    HW1  925   1.513   3.768   0.800 -2.2353  0.5328 -0.8723
  259SOL    HW2  926   1.448   3.631   0.792  1.8633 -1.7441  1.2424
  260SOL     OW  927   1.728   2.374   0.412  0.1797 -0.0846 -0.1875
  260SOL    HW1  928   1.751   2.397   0.501 -0.3151  0.7905 -0.2725
  260SOL    HW2  929   1.811   2.376   0.364  0.2488  0.8876 -0.0441
  261SOL     OW  930   1.400   2.173   3.266  0.2761  0.1073  0.0320
  261SOL    HW1  931   1.439   2.094   3.303  0.3278 -1.3946 -2.9236
  261SOL    HW2  932   1.439   2.245   3.316  3.1145 -1.5607  0.4418
  262SOL     OW  933   3.589   2.898   3.024 -0.1643 -0.1028  0.6745
  262SOL    HW1  934   3.629   2.815   3.000 -0.5332 -0.1814  0.3217
  262SOL    HW2  935   3.521   2.875   3.087 -1.2323 -0.2410 -0.4940
  263SOL     OW  936   3.530   1.014   0.034 -0.2115 -0.6584  0.3114
  263SOL    HW1  937   3.458   1.038  -0.026  0.4902 -0.0153 -0.3003
  263SOL    HW2  938   3.596   1.082   0.020 -0.6345  0.4138  2.9597
  264SOL     OW  939   3.651   2.660   0.292  0.0365  0.5616  0.1364
  264SOL    HW1  940   3.729   2.652   0.237  0.5764 -0.6919  1.0422
  264SOL    HW2  941   3.661   2.743   0.338  0.5721  0.6453 -0.1290
  265SOL     OW  942   2.906   3.371   0.105 -0.4150 -0.2471 -0.4244
  265SOL    HW1  943   2.999   3.393   0.105 -0.4557  0.1893 -2.8884
  265SOL    HW2  944   2.891   3.334   0.192  2.3054 -1.3325 -0.2928
  266SOL     OW  945   1.817   1.448   2.464  0.5847  0.0509 -0.3754
  266SOL    HW1  946   1.798   1.538   2.437  1.9930 -0.3571 -3.2072
  266SOL    HW2  947   1.752   1.395   2.417 -0.1454 -0.4663  1.1622
  267SOL     OW  948   1.800   0.140   0.775  0.5248  0.1033  0.3411
  267SOL    HW1  949   1.766   0.064   0.821 -1.3707  0.9973  0.5189
  267SOL    HW2  950   1.836   0.196   0.844 -1.5384  1.0534  0.7107
  268SOL     OW  951   1.957   3.313   1.975 -0.2914 -0.2469  0.2043
  268SOL    HW1  952   2.038   3.266   1.956  0.6543  0.9857  0.9930
  268SOL    HW2  953   1.952   3.380   1.907 -0.5186 -0.1818  0.2850
  269SOL     OW  954   1.290   2.328   3.076 -0.5708 -0.6574 -0.0140
  269SOL    HW1  955   1.230   2.258   3.105  0.3172 -1.6877 -0.6028
  269SOL    HW2  956   1.376   2.299   3.105 -0.0118 -0.4454 -1.4123
  270SOL     OW  957   0.183   0.768   3.186 -0.3465  0.0374 -0.2678
  270SOL    HW1  958   0.139   0.719   3.118 -1.7578 -0.0127  0.6419
  270SOL    HW2  959   0.156   0.859   3.172 -0.6721  0.0231  0.2304
  271SOL     OW  960  -0.006   3.220   1.257  0.1442  0.1188 -0.3410
  271SOL    HW1  961   0.036   3.209   1.172  2.1776 -1.5064  0.7793
  271SOL    HW2  962   0.044   3.290   1.300  0.5376 -0.5404  0.3005
  272SOL     OW  963   0.184   0.375   0.953 -0.2064  0.0884 -0.1367
  272SOL    HW1  964   0.192   0.463   0.991  0.4862  0.0045 -0.0786
  272SOL    HW2  965   0.121   0.385   0.881 -0.9383  0.4089  0.5401
  273SOL     OW  966   0.504   0.744   2.251 -0.5972 -0.0948  0.6695
  273SOL    HW1  967   0.459   0.675   2.201  0.1728 -0.4951  0.5238
  273SOL    HW2  968   0.596   0.731   2.232 -0.2679 -0.3088  2.2585
  274SOL     OW  969   2.139   1.272   0.537 -0.5474 -0.0085  0.3773
  274SOL    HW1  970   2.052   1.310   0.523  0.2959  1.4891 -1.1475
  274SOL    HW2  971   2.200   1.342   0.512  1.0912 -2.1789 -2.2094
  275SOL     OW  972   1.675   2.306   3.291  0.5874  0.5875  0.1836
  275SOL    HW1  973   1.686   2.313   3.386  0.5006 -0.4006  0.2770
  275SOL    HW2  974   1.729   2.376   3.255 -0.5846  2.0000  1.0153
  276SOL     OW  975   1.864   0.350   0.155  0.5465 -0.4162 -0.4233
  276SOL    HW1  976   1.944   0.370   0.106  0.3458 -2.2181 -1.5698
  276SOL    HW2  977   1.863   0.254   0.161 -2.7630 -0.6558 -2.6318
  277SOL     OW  978   1.126   1.369   2.649 -0.0587 -0.0692 -0.8520
  277SOL    HW1  979   1.179   1.338   2.722  1.7139  1.3130 -1.5028
  277SOL    HW2  980   1.188   1.387   2.579 -1.2476  2.4280 -1.3790
  278SOL     OW  981   3.600   1.349   0.599 -0.0457  0.5826 -0.1068
  278SOL    HW1  982   3.600   1.274   0.659 -0.7211  0.6873  0.0352
  278SOL    HW2  983   3.647   1.417   0.646 -0.3177  0.5698  0.1889
  279SOL     OW  984   0.906   1.277   1.855  0.4208  0.4460  0.3376
  279SOL    HW1  985   0.974   1.343   1.848  0.5362  0.2540 -0.4290
  279SOL    HW2  986   0.834   1.311   1.801  0.3503  0.1035  0.2148
  280SOL     OW  987   0.942   3.436   1.481 -0.1163 -0.7292  0.3272
  280SOL    HW1  988   0.908   3.508   1.428  1.4153 -1.1017 -1.2405
  280SOL    HW2  989   1.029   3.465   1.509  0.2999 -1.7280  0.1364
  281SOL     OW  990   2.611   2.561   0.469 -0.2853  0.6586 -0.0783
  281SOL    HW1  991   2.667   2.501   0.421 -1.1965 -1.2064  1.0685
  281SOL    HW2  992   2.589   2.514   0.549  1.2969  3.6735  2.3121
  282SOL     OW  993   0.229   3.042   2.546  0.4059 -0.3452  0.1260
  282SOL    HW1  994   0.137   3.030   2.523  0.3151  1.2257 -0.4939
  282SOL    HW2  995   0.277   2.995   2.478  0.0666  1.1602 -1.2161
  283SOL     OW  996   1.665   2.040   3.194 -0.1192  0.1154  0.5131
  283SOL    HW1  997   1.716   2.010   3.270  2.6049  1.5018 -0.6117
  283SOL    HW2  998   1.658   2.135   3.207 -1.4843  0.0895  0.0503
  284SOL     OW  999   1.743   2.916   0.479 -0.1032 -0.0132 -0.3884
  284SOL    HW1 1000   1.759   2.918   0.384 -2.7753 -0.9780 -0.9265
  284SOL    HW2 1001   1.648   2.916   0.487  0.0650  0.6865  2.3549
  285SOL     OW 1002   0.255   0.351   3.614 -0.7188 -0.8475 -0.3785
  285SOL    HW1 1003   0.202   0.389   3.544 -1.6874 -1.3579  0.0466
  285SOL    HW2 1004   0.340   0.394   3.607 -1.2010  0.0207 -1.0645
  286SOL     OW 1005   3.128   1.600   3.187 -0.1633 -0.5449 -0.8546
  286SOL    HW1 1006   3.062   1.545   3.228  0.2707 -0.6439 -0.2819
  286SOL    HW2 1007   3.135   1.565   3.098 -0.7054 -0.6836 -0.8499
  287SOL     OW 1008   1.234   1.872   3.735  0.4636 -0.4126  0.1768
  287SOL    HW1 1009   1.262   1.882   3.644 -0.0162 -2.4513 -0.2412
  287SOL    HW2 1010   1.154   1.923   3.741 -0.4525 -1.6396 -1.0563
  288SOL     OW 1011   0.432   0.639  -0.009  0.2520  0.1733  0.0259
  288SOL    HW1 1012   0.344   0.622  -0.040  0.0134  2.9696 -1.0889
  288SOL    HW2 1013   0.420   0.686   0.074  0.7088  0.4982 -0.0883
  289SOL     OW 1014   3.030   2.707   3.249  0.2789 -0.5385 -0.3528
  289SOL    HW1 1015   2.962   2.762   3.209 -0.2504 -0.3355  0.8009
  289SOL    HW2 1016   3.053   2.645   3.180 -2.9748 -2.3425 -0.0237
  290SOL     OW 1017   1.371   1.505   0.763 -0.4448  0.4532  0.6221
  290SOL    HW1 1018   1.460   1.477   0.785 -0.4923  1.1542  1.7757
  290SOL    HW2 1019   1.317   1.427   0.777  0.1955 -0.5683 -1.9577
  291SOL     OW 1020   3.128   1.468   1.275 -0.2996  0.0368  0.4258
  291SOL    HW1 1021   3.141   1.560   1.255  1.4233 -0.3244 -0.2522
  291SOL    HW2 1022   3.102   1.467   1.368  0.6960  1.1341  0.7398
  292SOL     OW 1023   0.774   0.724   1.907 -0.4635  0.6078  0.2142
  292SOL    HW1 1024   0.790   0.806   1.859 -0.4712 -0.9650 -2.7493
  292SOL    HW2 1025   0.689   0.694   1.874  0.4442 -1.5479 -0.3753
  293SOL     OW 1026   0.101   2.476   2.862  0.1511  0.6013  0.0379
  293SOL    HW1 1027   0.167   2.427   2.912 -0.6678 -0.2998  0.2695
  293SOL    HW2 1028   0.022   2.423   2.868 -0.4855  1.4397 -0.6165
  294SOL     OW 1029   1.229   3.383   3.262  0.1078  0.4076  0.3269
  294SOL    HW1 1030   1.195   3.297   3.288  1.6502  0.1587  1.6659
  294SOL    HW2 1031   1.323   3.371   3.256  0.1711  1.4842 -1.6954
  295SOL     OW 1032   1.708   3.624   0.951  0.5593  0.3673  0.5005
  295SOL    HW1 1033   1.639   3.598   0.890 -1.2436  2.1224  1.6518
  295SOL    HW2 1034   1.692   3.572   1.029  0.0651  1.2633  1.0152
  296SOL     OW 1035   2.228   3.087   3.373 -0.3453 -0.1110 -0.2536
  296SOL    HW1 1036   2.264   3.083   3.461  0.7516  0.8266 -0.6217
  296SOL    HW2 1037   2.304   3.074   3.316 -1.2388 -2.1205 -1.0917
  297SOL     OW 1038   0.764   2.478   0.258  0.6978  0.4230 -0.4981
  297SOL    HW1 1039   0.744   2.526   0.178  0.5140  0.9439 -0.1457
  297SOL    HW2 1040   0.785   2.546   0.322 -1.6103  0.1984  0.6156
  298SOL     OW 1041   0.035   0.496   2.997 -0.6593 -0.5301  0.3704
  298SOL    HW1 1042   0.119   0.451   3.003 -0.2994  0.1977  1.0051
  298SOL    HW2 1043   0.010   0.490   2.905  0.0121 -0.8884  0.2070
  299SOL     OW 1044   0.887   0.456   1.804  0.2447 -0.1404 -0.2664
  299SOL    HW1 1045   0.820   0.504   1.756 -1.2241  1.2673  2.8757
  299SOL    HW2 1046   0.963   0.514   1.806  0.5419 -0.4682 -1.3014
  300SOL     OW 1047   1.852   2.572   2.731 -0.3344 -0.2081  0.0735
  300SOL    HW1 1048   1.813   2.592   2.646  0.4842 -1.3037 -0.5702
  300SOL    HW2 1049   1.835   2.479   2.745  1.1006 -0.4720  0.2598
  301SOL     OW 1050   1.795   1.937   0.381  0.0629  0.3802  0.6562
  301SOL    HW1 1051   1.873   1.990   0.392 -0.0814  0.8569 -0.4546
  301SOL    HW2 1052   1.743   1.983   0.315 -1.0182 -0.0821  1.1464
  302SOL     OW 1053   0.461   1.866   1.215 -0.5636 -0.5977 -0.0404
  302SOL    HW1 1054   0.417   1.872   1.299 -0.0136 -0.4776  0.2438
  302SOL    HW2 1055   0.399   1.904   1.153 -0.9008 -0.5262  0.3358
  303SOL     OW 1056   1.449   3.208   1.010  0.5705 -0.4464  0.1560
  303SOL    HW1 1057   1.402   3.125   1.000  0.7499 -0.4551 -0.6695
  303SOL    HW2 1058   1.540   3.182   1.028  1.0073 -0.4646 -1.8660
  304SOL     OW 1059   2.553   0.835   0.425  0.0677 -0.0952  0.3477
  304SOL    HW1 1060   2.580   0.831   0.333 -0.0641  1.9129  0.1666
  304SOL    HW2 1061   2.494   0.761   0.436 -1.0199  0.4115 -1.5982
  305SOL     OW 1062   1.399   2.368   1.338  0.2987 -0.0116  0.8862
  305SOL    HW1 1063   1.465   2.381   1.270 -0.3935  2.4216  0.5595
  305SOL    HW2 1064   1.332   2.314   1.296  1.6602 -1.8806  0.9859
  306SOL     OW 1065   0.640   3.224   0.230  0.6494  0.3724  0.2713
  306SOL    HW1 1066   0.636   3.282   0.305  1.6621 -0.0514  0.6739
  306SOL    HW2 1067   0.610   3.277   0.156 -4.4903 -0.3536  1.5227
  307SOL     OW 1068   2.568   3.587   0.223 -0.1684  0.4781  0.1604
  307SOL    HW1 1069   2.563   3.627   0.136 -0.4509  1.2011  0.5000
  307SOL    HW2 1070   2.528   3.500   0.212  0.1737  0.4039 -0.5216
  308SOL     OW 1071   0.002   1.582   3.618  0.0178 -0.2794  0.2534
  308SOL    HW1 1072   0.048   1.542   3.543 -1.1265 -1.3794  0.0982
  308SOL    HW2 1073   0.020   1.522   3.691 -0.3754 -0.2073  0.4115
  309SOL     OW 1074   0.950   1.018   0.958 -0.0648  0.0552  0.1850
  309SOL    HW1 1075   0.866   0.973   0.946  0.5890 -1.5809  1.3712
  309SOL    HW2 1076   1.003   0.989   0.884 -0.0080 -0.2547  0.3451
  310SOL     OW 1077   0.531   0.306   3.532  0.0802 -0.2901 -0.6541
  310SOL    HW1 1078   0.555   0.221   3.497  0.9187 -0.4141  0.1907
  310SOL    HW2 1079   0.602   0.329   3.593 -0.8941  0.2952  0.3062
  311SOL     OW 1080   0.994   2.907   1.643  0.4716  0.0972  0.3654
  311SOL    HW1 1081   0.900   2.926   1.639  0.0112 -1.9961 -0.2052
  311SOL    HW2 1082   1.002   2.840   1.711  1.4146 -0.4204 -0.2338
  312SOL     OW 1083   1.680   1.359   3.512  0.1922  0.1557  0.0989
  312SOL    HW1 1084   1.723   1.388   3.431  0.0607 -0.9014 -0.3639
  312SOL    HW2 1085   1.613   1.425   3.529  2.4073  2.2561  1.2393
  313SOL     OW 1086   2.293   0.858   3.203 -0.1534 -0.7964  0.1580
  313SOL    HW1 1087   2.269   0.845   3.294 -0.9256  0.3086  0.1318
  313SOL    HW2 1088   2.248   0.938   3.177  1.6806  0.0602 -0.6064
  314SOL     OW 1089   0.454   3.463   0.950  0.1545  0.4115  0.0262
  314SOL    HW1 1090   0.540   3.505   0.955 -0.2322  1.1728  0.4093
  314SOL    HW2 1091   0.394   3.526   0.990 -0.4216 -0.5560  0.7338
  315SOL     OW 1092   0.546   3.076   1.889 -0.1254  0.5346  0.1525
  315SOL    HW1 1093   0.460   3.112   1.911 -0.0081 -0.4929  2.6854
  315SOL    HW2 1094   0.542   2.985   1.919  1.9710  0.5546  0.6599
  316SOL     OW 1095   0.566   2.118   0.628 -0.4729  0.0016 -0.0480
  316SOL    HW1 1096   0.613   2.197   0.601  0.1720 -0.6786 -1.0134
  316SOL    HW2 1097   0.587   2.108   0.721  0.5833  0.2206 -0.2457
  317SOL     OW 1098   2.195   3.313   1.400  0.3315 -0.1142  0.5491
  317SOL    HW1 1099   2.156   3.302   1.487  1.7152 -0.1207  1.1907
  317SOL    HW2 1100   2.252   3.389   1.409 -0.2584  0.4839 -0.6370
  318SOL     OW 1101   3.073   2.560   0.367  0.0938 -0.0546 -0.1388
  318SOL    HW1 1102   3.167   2.576   0.358 -0.1410  0.3948 -2.3610
  318SOL    HW2 1103   3.034   2.647   0.372 -0.4078 -0.1259 -2.2128
  319SOL     OW 1104   2.503   3.323   0.177 -0.0260 -0.1703  0.0902
  319SOL    HW1 1105   2.462   3.304   0.093 -0.0167 -2.3538  0.5251
  319SOL    HW2 1106   2.549   3.243   0.200  0.4537  0.5785  1.9163
  320SOL     OW 1107   0.801   2.586   3.177  0.0614 -0.1414  0.0605
  320SOL    HW1 1108   0.772   2.673   3.149  0.4849 -0.5997 -1.9467
  320SOL    HW2 1109   0.821   2.597   3.270  0.0377  1.8944 -0.1172
  321SOL     OW 1110   2.736   1.294   2.305  0.4219 -0.0083 -0.1251
  321SOL    HW1 1111   2.728   1.388   2.289 -0.4191 -0.0738 -0.1378
  321SOL    HW2 1112   2.645   1.263   2.314  0.6538 -0.9235 -0.7672
  322SOL     OW 1113   1.959   2.729   1.039 -0.1160  0.6276  0.2948
  322SOL    HW1 1114   1.953   2.668   0.965  0.6163 -0.0085  0.7494
  322SOL    HW2 1115   2.053   2.742   1.053 -0.2070 -0.0153  1.7081
  323SOL     OW 1116   1.818   2.694   2.298 -0.0013 -0.6806 -0.2987
  323SOL    HW1 1117   1.723   2.691   2.289  0.0280  0.5858 -1.2945
  323SOL    HW2 1118   1.849   2.725   2.213  1.6529 -5.0212 -1.5316
  324SOL     OW 1119   3.460   0.318   3.414  0.1641  0.1495 -0.0877
  324SOL    HW1 1120   3.384   0.334   3.358  0.3682 -1.2846 -0.8220
  324SOL    HW2 1121   3.436   0.241   3.466 -0.1078  1.5596  2.0148
  325SOL     OW 1122   1.554   0.221   1.539  0.6937 -0.4437 -0.5533
  325SOL    HW1 1123   1.537   0.264   1.623  2.0167 -0.2646 -0.3552
  325SOL    HW2 1124   1.467   0.203   1.503  0.1129  0.9230  0.1074
  326SOL     OW 1125   1.840   2.322   1.016  0.0841 -0.1245  0.1412
  326SOL    HW1 1126   1.930   2.308   1.045 -0.1844 -0.1188  1.0155
  326SOL    HW2 1127   1.798   2.236   1.026 -0.5006  0.2844  1.6139
  327SOL     OW 1128   3.149   1.252   1.103 -0.1213 -0.1565  0.2127
  327SOL    HW1 1129   3.149   1.310   1.179 -1.9353  1.8897 -1.2132
  327SOL    HW2 1130   3.059   1.219   1.098  0.2626 -1.1523 -0.4478
  328SOL     OW 1131   0.141   2.652   3.374  0.2653  0.2488  0.1720
  328SOL    HW1 1132   0.219   2.605   3.402  0.5665  1.3558  1.3014
  328SOL    HW2 1133   0.163   2.745   3.386  0.0543  0.8203 -2.8853
  329SOL     OW 1134   3.076   1.208   0.634  0.0468 -0.1781  0.3401
  329SOL    HW1 1135   2.999   1.150   0.628 -0.7726  0.8107  1.0866
  329SOL    HW2 1136   3.128   1.171   0.705  1.7297 -2.4887 -1.8946
  330SOL     OW 1137   2.126   2.472   1.473  0.3689 -0.2163 -0.2798
  330SOL    HW1 1138   2.220   2.484   1.466  0.1961  1.1618 -0.4917
  330SOL    HW2 1139   2.098   2.535   1.539 -0.3328 -1.0390  0.2295
  331SOL     OW 1140   3.040   0.864   2.310 -0.0847  0.2579 -0.0047
  331SOL    HW1 1141   3.099   0.880   2.236  0.3958 -0.4056  0.2253
  331SOL    HW2 1142   3.026   0.950   2.350  0.2545  0.5032 -0.4139
  332SOL     OW 1143   3.297   0.377   2.983  0.6447  0.3033  0.3819
  332SOL    HW1 1144   3.270   0.306   3.042  1.1733  1.2061  1.7550
  332SOL    HW2 1145   3.224   0.386   2.922 -1.1240  1.0395  2.4711
  333SOL     OW 1146   3.236   0.312   0.603 -0.0140 -0.2867 -0.0988
  333SOL    HW1 1147   3.326   0.318   0.571  0.0316  1.5339  0.2715
  333SOL    HW2 1148   3.187   0.375   0.549 -1.2928 -1.8485 -0.8884
  334SOL     OW 1149   2.097   1.922   0.552  0.3520  0.0426  0.2958
  334SOL    HW1 1150   2.089   1.906   0.458  0.4661  1.2853  0.0613
  334SOL    HW2 1151   2.175   1.873   0.578  0.2753 -0.3720 -0.2350
  335SOL     OW 1152   0.892   1.586   3.385  0.3891  0.0995 -0.8279
  335SOL    HW1 1153   0.899   1.613   3.294 -1.6909  1.3767 -0.6794
  335SOL    HW2 1154   0.854   1.662   3.429  1.9799 -0.2185  1.2655
  336SOL     OW 1155   1.006   2.031   3.712 -0.5057 -0.1392  0.0033
  336SOL    HW1 1156   0.960   2.090   3.653 -1.4977 -0.5030  0.3952
  336SOL    HW2 1157   0.954   1.950   3.711  0.0557 -0.5163  0.5517
  337SOL     OW 1158   0.118   0.284   1.297  0.0849  0.2973  0.1681
  337SOL    HW1 1159   0.170   0.256   1.373  0.2082  0.2239  0.0585
  337SOL    HW2 1160   0.153   0.232   1.225 -0.1045  0.2899  0.0822
  338SOL     OW 1161   0.244   1.856   3.227  0.6362  0.1374 -0.1003
  338SOL    HW1 1162   0.315   1.817   3.175  1.2963  2.1188 -0.7672
  338SOL    HW2 1163   0.280   1.861   3.316  0.8092 -0.0912 -0.1552
  339SOL     OW 1164   3.135   1.327   3.429  0.2790 -0.0284  0.1664
  339SOL    HW1 1165   3.220   1.337   3.470  0.1888 -2.3474  1.0717
  339SOL    HW2 1166   3.073   1.367   3.490  0.4163 -1.2142  1.1187
  340SOL     OW 1167   3.471   0.795   0.186  0.0336  0.3732  0.1202
  340SOL    HW1 1168   3.434   0.729   0.127  0.6431 -0.3934  0.5761
  340SOL    HW2 1169   3.495   0.868   0.129  1.5126 -0.7353 -0.7268
  341SOL     OW 1170   2.399   0.286   0.392 -0.1414  0.1380 -0.1014
  341SOL    HW1 1171   2.376   0.195   0.412  0.4473 -0.2914 -1.3008
  341SOL    HW2 1172   2.388   0.332   0.476  0.7198 -1.2727  0.8368
  342SOL     OW 1173   2.982   2.560   1.198  0.1032 -0.8007  0.0176
  342SOL    HW1 1174   3.024   2.478   1.170 -0.0042 -0.3485 -1.6082
  342SOL    HW2 1175   2.911   2.532   1.255 -1.9277 -2.1815 -2.9128
  343SOL     OW 1176   1.140   1.205   1.638 -0.4415  0.4700  0.2629
  343SOL    HW1 1177   1.204   1.146   1.600 -1.6303 -1.1585  0.6864
  343SOL    HW2 1178   1.186   1.289   1.647  1.1211 -0.2386 -0.8391
  344SOL     OW 1179   1.822   0.366   0.953 -0.7793  0.0095 -0.6500
  344SOL    HW1 1180   1.885   0.424   0.910  0.7142 -0.0364  1.3325
  344SOL    HW2 1181   1.747   0.423   0.973 -0.5214  0.5684 -1.2450
  345SOL     OW 1182   3.383   1.131   0.317 -0.3503 -0.5883  0.3637
  345SOL    HW1 1183   3.433   1.211   0.334 -0.9576 -0.3793  1.2351
  345SOL    HW2 1184   3.297   1.149   0.354 -0.3564 -1.8305  0.9891
  346SOL     OW 1185   3.213   3.697   1.254  0.3289 -0.1223 -0.8896
  346SOL    HW1 1186   3.258   3.705   1.170  1.1992 -1.0315 -0.5409
  346SOL    HW2 1187   3.123   3.723   1.236  0.2545 -1.2596 -2.3353
  347SOL     OW 1188   0.526   0.997   3.066  0.2906  0.1943 -0.3615
  347SOL    HW1 1189   0.434   1.019   3.049  0.3881  1.2651  0.4042
  347SOL    HW2 1190   0.523   0.928   3.131  0.0248 -0.2529 -0.8369
  348SOL     OW 1191   2.107   1.011   0.479  0.6718 -0.2201  0.2106
  348SOL    HW1 1192   2.109   1.020   0.384  0.6437 -1.6382  0.0462
  348SOL    HW2 1193   2.109   1.100   0.512 -2.5419  0.4771 -1.1603
  349SOL     OW 1194   2.018   2.229   3.042 -0.1429  0.8268 -0.2136
  349SOL    HW1 1195   2.033   2.138   3.016  1.5189  0.2426  2.3787
  349SOL    HW2 1196   2.097   2.275   3.016  1.2201  0.3856  2.7209
  350SOL     OW 1197   1.324   1.727   2.214 -0.6367 -0.0200 -0.3544
  350SOL    HW1 1198   1.307   1.728   2.119 -1.0537  1.9953 -0.2960
  350SOL    HW2 1199   1.256   1.671   2.250 -0.5947 -0.6522 -1.2233
  351SOL     OW 1200   0.205   3.625   1.681 -0.4793 -0.8219  0.2713
  351SOL    HW1 1201   0.297   3.650   1.693 -0.5455  0.2627 -1.1880
  351SOL    HW2 1202   0.190   3.636   1.587 -2.3956  0.0401  0.6424
  352SOL     OW 1203   3.248   3.054   0.581 -0.3916 -0.5659  0.2163
  352SOL    HW1 1204   3.323   2.994   0.579  0.8978  0.9538  0.8273
  352SOL    HW2 1205   3.225   3.061   0.673 -0.5509 -0.1765  0.1499
  353SOL     OW 1206   2.635   1.346   0.976 -0.1126 -0.0964 -0.3863
  353SOL    HW1 1207   2.600   1.332   0.888 -0.7810  1.2625 -0.3612
  353SOL    HW2 1208   2.730   1.341   0.964 -0.1968 -0.0314 -1.1696
  354SOL     OW 1209   2.846   2.527   3.451 -0.2955  0.5206  0.5337
  354SOL    HW1 1210   2.902   2.458   3.488 -0.9097 -0.1029  0.3220
  354SOL    HW2 1211   2.884   2.609   3.483  0.1261  0.0620  1.2345
  355SOL     OW 1212   2.621   0.854   0.123  0.1551  0.0965 -0.7162
  355SOL    HW1 1213   2.665   0.927   0.080  1.9209 -0.7588 -0.4498
  355SOL    HW2 1214   2.678   0.779   0.106 -2.1115 -1.4794 -1.8680
  356SOL     OW 1215   1.049   1.726   2.151  0.3476  0.0169  0.1019
  356SOL    HW1 1216   1.054   1.804   2.096  1.6393  0.7095  1.1467
  356SOL    HW2 1217   0.977   1.744   2.212  0.1202  0.0421 -0.1730
  357SOL     OW 1218   2.052   0.398   3.484  0.5135  0.1297  0.2990
  357SOL    HW1 1219   2.042   0.453   3.562 -0.2607  2.4025 -1.3149
  357SOL    HW2 1220   1.963   0.373   3.461  0.4222  1.8234 -1.3980
  358SOL     OW 1221   0.174   1.210   0.940 -0.3562  0.0434 -0.6813
  358SOL    HW1 1222   0.145   1.132   0.986 -1.4985  2.4153  3.0659
  358SOL    HW2 1223   0.093   1.256   0.917  0.3011  1.3917 -0.3871
  359SOL     OW 1224   1.257   1.701   1.951 -0.5228 -0.9832  0.0363
  359SOL    HW1 1225   1.167   1.732   1.941 -0.5367 -1.1546 -0.3811
  359SOL    HW2 1226   1.306   1.746   1.883 -0.4422 -1.4785 -0.2411
  360SOL     OW 1227   2.831   3.624   0.255 -0.9172  0.1942  0.3419
  360SOL    HW1 1228   2.853   3.569   0.181 -0.5047  0.7934  0.0094
  360SOL    HW2 1229   2.737   3.614   0.266 -0.6054 -2.1166  1.5492
  361SOL     OW 1230   1.698   2.170   2.577 -0.4000  0.1992 -0.2727
  361SOL    HW1 1231   1.791   2.148   2.584 -0.4115 -0.6292 -2.2824
  361SOL    HW2 1232   1.653   2.091   2.606 -0.5169  0.6281  0.7780
  362SOL     OW 1233   2.078   2.490   0.065  0.2769 -0.0427 -0.7083
  362SOL    HW1 1234   2.084   2.584   0.079 -1.4626  0.1816 -1.1579
  362SOL    HW2 1235   2.014   2.480  -0.006  0.9248 -1.5428 -1.1308
  363SOL     OW 1236   2.333   1.382   2.019 -0.3043 -0.0606  0.4651
  363SOL    HW1 1237   2.420   1.381   1.979 -0.7843  2.1248 -0.7958
  363SOL    HW2 1238   2.342   1.327   2.097  1.4940 -1.9662 -0.9917
  364SOL     OW 1239   3.685   1.172   1.961  0.5542  0.1278 -0.2043
  364SOL    HW1 1240   3.722   1.178   2.049 -0.5446  1.5371  0.1953
  364SOL    HW2 1241   3.593   1.151   1.976  0.6897 -1.2559 -1.1045
  365SOL     OW 1242   2.984   1.991   0.041 -0.7781 -0.0750  0.2600
  365SOL    HW1 1243   2.905   2.045   0.040  0.1396  1.3282  0.5593
  365SOL    HW2 1244   3.035   2.025   0.115  0.3542 -0.5909 -0.2608
  366SOL     OW 1245   2.695   0.450   1.487  0.3628 -0.1521  0.0423
  366SOL    HW1 1246   2.734   0.507   1.554  0.7573  0.4635 -0.6895
  366SOL    HW2 1247   2.602   0.451   1.507  0.3622  0.7596  0.0539
  367SOL     OW 1248   2.943   2.360   3.638  0.2710  0.3885 -0.3462
  367SOL    HW1 1249   2.920   2.368   3.730 -0.3183 -2.9190 -0.0647
  367SOL    HW2 1250   2.878   2.298   3.603  0.2638  1.8105 -3.1009
  368SOL     OW 1251   3.269   0.071   0.414 -0.4824 -0.1469  1.0114
  368SOL    HW1 1252   3.276   0.038   0.503  0.4335  1.9396  1.7903
  368SOL    HW2 1253   3.230   0.158   0.424 -2.6506 -0.7961 -0.8893
  369SOL     OW 1254   0.424   3.417   2.231  0.0720  0.8002 -0.2857
  369SOL    HW1 1255   0.512   3.383   2.249 -0.6862 -1.2686 -0.1683
  369SOL    HW2 1256   0.423   3.431   2.137  0.6517  1.2259 -0.2333
  370SOL     OW 1257   1.100   0.209   2.164 -0.0356  0.3929 -0.0445
  370SOL    HW1 1258   1.023   0.197   2.108 -1.2783 -0.4576  1.7679
  370SOL    HW2 1259   1.100   0.301   2.186  0.1519  0.6262 -0.9548
  371SOL     OW 1260   1.167   3.349   0.362  0.1502 -0.6644 -0.1220
  371SOL    HW1 1261   1.177   3.290   0.437 -0.7704  1.7000  2.0278
  371SOL    HW2 1262   1.218   3.427   0.386 -3.5419  1.9239  0.1685
  372SOL     OW 1263   3.619   1.676   0.229 -0.5233 -0.0966  0.1935
  372SOL    HW1 1264   3.618   1.740   0.158  0.9133  0.0394  0.2593
  372SOL    HW2 1265   3.590   1.726   0.306  1.4868  0.8035  0.4440
  373SOL     OW 1266   2.038   0.099   3.567  0.2042 -0.1916 -0.2946
  373SOL    HW1 1267   1.952   0.060   3.582  0.6086 -1.7094 -1.6769
  373SOL    HW2 1268   2.035   0.182   3.616 -2.0628 -0.1399 -0.3948
  374SOL     OW 1269   1.434   0.327   1.762 -0.0812 -0.0770  1.6082
  374SOL    HW1 1270   1.428   0.291   1.851 -0.4654 -3.2605  0.4194
  374SOL    HW2 1271   1.349   0.368   1.747 -1.1632 -2.1210  1.7703
  375SOL     OW 1272   2.251   2.787   2.392 -0.3785  0.3867 -0.0873
  375SOL    HW1 1273   2.179   2.765   2.334  1.0418  0.1402 -1.8217
  375SOL    HW2 1274   2.275   2.877   2.368  2.0014 -0.6301 -1.9474
  376SOL     OW 1275   2.077   3.392   0.479 -0.4979  0.1997  0.1525
  376SOL    HW1 1276   2.170   3.381   0.458 -0.2514 -1.0630  1.7078
  376SOL    HW2 1277   2.040   3.434   0.401  1.1727 -0.1778 -0.9080
  377SOL     OW 1278   1.779   3.292   0.241  0.2773 -0.5595  0.0676
  377SOL    HW1 1279   1.736   3.227   0.186  0.3704 -1.7122  1.3030
  377SOL    HW2 1280   1.789   3.249   0.326  1.5711  0.5859  0.5416
  378SOL     OW 1281   2.342   3.339   0.403 -0.5628 -0.2346 -0.0476
  378SOL    HW1 1282   2.400   3.356   0.329  0.2773  2.5080  1.0820
  378SOL    HW2 1283   2.363   3.250   0.431  0.1088 -0.7951 -2.1764
  379SOL     OW 1284   3.172   1.065   0.148 -0.8489 -0.7142  0.0616
  379SOL    HW1 1285   3.227   1.121   0.203  0.6557 -0.0972 -1.9916
  379SOL    HW2 1286   3.182   0.978   0.186  1.0579 -0.5012  0.1025
  380SOL     OW 1287   0.395   0.143   2.775 -0.3780  0.3300  0.4573
  380SOL    HW1 1288   0.325   0.089   2.812 -0.6638  0.2738 -0.1508
  380SOL    HW2 1289   0.475   0.091   2.787 -0.8942 -1.2101 -1.9237
  381SOL     OW 1290   0.099   1.279   2.156  0.0556 -0.1630  0.0943
  381SOL    HW1 1291   0.053   1.275   2.240  1.0397  1.6155  0.7675
  381SOL    HW2 1292   0.192   1.274   2.180  0.3411  0.0449 -0.9285
  382SOL     OW 1293   1.325   1.663   0.547 -0.4083 -0.1312 -0.0298
  382SOL    HW1 1294   1.391   1.733   0.544 -1.4490  0.9231  0.5511
  382SOL    HW2 1295   1.336   1.623   0.633 -1.3970  0.9588  0.6266
  383SOL     OW 1296   1.720   0.533   2.085  0.0403 -0.2059 -0.3049
  383SOL    HW1 1297   1.645   0.533   2.144  0.5500 -0.0070  0.3580
  383SOL    HW2 1298   1.711   0.452   2.035 -0.9567  0.1255 -0.6813
  384SOL     OW 1299   1.427   0.737   2.995  0.8616  0.9820  0.0212
  384SOL    HW1 1300   1.413   0.666   2.932  0.1007 -0.1156  1.3591
  384SOL    HW2 1301   1.442   0.815   2.941  1.0179 -0.0527 -1.4949
  385SOL     OW 1302   1.094   1.047   3.433 -0.1642  0.1706  0.3786
  385SOL    HW1 1303   0.999   1.036   3.439 -0.1913  1.0726  3.6754
  385SOL    HW2 1304   1.129   0.996   3.506  1.9911 -0.5497 -1.0636
  386SOL     OW 1305   3.161   0.932   0.534 -0.4570  1.0136 -0.2263
  386SOL    HW1 1306   3.242   0.961   0.576 -0.5872  3.8516 -1.6644
  386SOL    HW2 1307   3.187   0.858   0.479  0.5019 -0.0583  1.5630
  387SOL     OW 1308   1.588   0.561   3.267  0.4225 -0.6121 -0.4259
  387SOL    HW1 1309   1.571   0.480   3.219  1.7145 -2.5051  2.0429
  387SOL    HW2 1310   1.625   0.620   3.202 -0.6321 -1.9601 -2.3367
  388SOL     OW 1311   1.771   0.599   2.835  0.0998  0.0697  0.4783
  388SOL    HW1 1312   1.762   0.667   2.902 -1.1498 -0.6138  1.0461
  388SOL    HW2 1313   1.741   0.640   2.754  0.4950  0.5496  0.5718
  389SOL     OW 1314   2.909   3.319   2.030 -0.1101  0.0899  0.1476
  389SOL    HW1 1315   2.968   3.283   2.096 -1.0950 -1.6237  0.1467
  389SOL    HW2 1316   2.844   3.369   2.079  0.2548  0.4311  0.2923
  390SOL     OW 1317   0.662   1.864   3.118  0.7004 -0.2168  0.4019
  390SOL    HW1 1318   0.570   1.868   3.093  1.2580  3.5652 -1.8059
  390SOL    HW2 1319   0.703   1.808   3.052  0.4342  0.7435 -0.5995
  391SOL     OW 1320   0.622   2.728   2.578  0.1794 -0.5681 -0.7029
  391SOL    HW1 1321   0.687   2.678   2.530  0.5182  0.2710 -1.1232
  391SOL    HW2 1322   0.640   2.819   2.557 -2.4278 -0.3630 -2.5415
  392SOL     OW 1323   0.747   2.544   2.316 -0.0232 -0.1854  0.0359
  392SOL    HW1 1324   0.771   2.555   2.408 -1.5499  0.4090  0.3918
  392SOL    HW2 1325   0.823   2.502   2.277  1.9801  2.4172  0.8672
  393SOL     OW 1326   1.644   0.472   1.316 -0.1734  0.1456  0.0772
  393SOL    HW1 1327   1.578   0.499   1.380 -0.6613  0.0471 -0.3771
  393SOL    HW2 1328   1.707   0.422   1.366 -0.4720  0.1959  0.5108
  394SOL     OW 1329   3.153   2.041   3.072  0.8800 -0.2534  0.3688
  394SOL    HW1 1330   3.106   2.113   3.114  1.4574  0.7491 -0.6562
  394SOL    HW2 1331   3.228   2.083   3.029 -0.2369 -1.0385 -2.5587
  395SOL     OW 1332   0.901   0.273   2.704 -0.3229 -0.2037 -0.0262
  395SOL    HW1 1333   0.903   0.248   2.797  1.7018  1.9108  0.5888
  395SOL    HW2 1334   0.813   0.308   2.691 -0.9199 -1.2891  0.8413
  396SOL     OW 1335   0.977   2.332   3.119  0.2446 -0.2069  0.0161
  396SOL    HW1 1336   0.913   2.403   3.114  0.0001 -0.0754  3.2030
  396SOL    HW2 1337   0.923   2.253   3.127  0.5206 -0.5180 -1.0441
  397SOL     OW 1338   2.671   1.474   0.049 -0.1771  0.3505  0.7896
  397SOL    HW1 1339   2.708   1.417  -0.020 -0.0156  0.0626  1.1118
  397SOL    HW2 1340   2.577   1.476   0.029  0.1276  1.9778 -0.6854
  398SOL     OW 1341   0.066   0.168   2.401  0.4814 -0.2070 -0.0484
  398SOL    HW1 1342   0.086   0.097   2.462  2.0553  0.0256 -0.2585
  398SOL    HW2 1343   0.064   0.126   2.315  0.3132 -0.1736 -0.0626
  399SOL     OW 1344   0.325   0.716   2.755 -0.0737 -0.6592 -0.0344
  399SOL    HW1 1345   0.400   0.757   2.711 -0.9820  0.6594 -0.3998
  399SOL    HW2 1346   0.355   0.627   2.774  1.5162 -0.2235 -0.3385
  400SOL     OW 1347   1.303   1.822   2.757  0.6975  0.7970 -0.3126
  400SOL    HW1 1348   1.330   1.734   2.782 -1.1896  0.0618 -0.6838
  400SOL    HW2 1349   1.315   1.825   2.662  0.7230  0.9153 -0.3056
  401SOL     OW 1350   0.701   2.844   3.102 -0.1856 -0.0395 -0.1893
  401SOL    HW1 1351   0.748   2.857   3.020  0.4361  0.6924  0.2624
  401SOL    HW2 1352   0.642   2.920   3.108 -0.6042 -0.3575 -0.1987
  402SOL     OW 1353   3.357   2.617   1.638 -0.2159 -0.3018  0.6203
  402SOL    HW1 1354   3.343   2.680   1.710 -0.3817  0.2395  0.1202
  402SOL    HW2 1355   3.452   2.604   1.637  0.1054  1.7300 -0.7364
  403SOL     OW 1356   0.976   0.126   1.261  1.0137  0.1030  0.5259
  403SOL    HW1 1357   0.972   0.199   1.322  3.1879 -0.6401  1.6700
  403SOL    HW2 1358   0.903   0.140   1.201  0.3607  2.2586  1.7383
  404SOL     OW 1359   1.952   0.702   2.066 -0.2639 -0.3489 -0.5720
  404SOL    HW1 1360   1.967   0.690   1.972  0.6105 -3.2205 -0.1665
  404SOL    HW2 1361   1.862   0.675   2.080 -0.6291  0.7704 -0.6376
  405SOL     OW 1362   1.125   0.719   2.956  0.5203 -0.3531  0.1413
  405SOL    HW1 1363   1.166   0.685   3.036  0.7319 -0.6830 -0.1041
  405SOL    HW2 1364   1.126   0.814   2.967  1.5290 -0.3436  0.0579
  406SOL     OW 1365   0.113   1.622   2.436  0.3902 -0.4068  0.0969
  406SOL    HW1 1366   0.020   1.636   2.458  0.7392  1.3367  0.6485
  406SOL    HW2 1367   0.136   1.541   2.482 -0.5143 -0.1271  1.1080
  407SOL     OW 1368   2.519   2.698  -0.004  0.2493 -0.1440  0.0343
  407SOL    HW1 1369   2.463   2.660  -0.072  1.0455  0.6111 -1.0694
  407SOL    HW2 1370   2.474   2.677   0.078 -0.5552 -1.3616 -0.6904
  408SOL     OW 1371   3.129   3.498   0.947 -0.9926  0.6782 -0.2767
  408SOL    HW1 1372   3.062   3.562   0.924 -0.3728  1.4388  0.0022
  408SOL    HW2 1373   3.204   3.550   0.975  0.0062 -0.1344 -1.3340
  409SOL     OW 1374   2.734   2.841   2.905 -0.4134 -0.3251  0.1618
  409SOL    HW1 1375   2.708   2.872   2.818  0.8776 -0.7733 -0.4045
  409SOL    HW2 1376   2.686   2.897   2.965 -1.6773 -0.2961 -0.8325
  410SOL     OW 1377   1.311   2.062   2.879  0.0788  0.4050 -0.0817
  410SOL    HW1 1378   1.294   1.971   2.854  0.7507  0.2963 -0.1631
  410SOL    HW2 1379   1.261   2.113   2.816 -0.9618  0.0861  0.4733
  411SOL     OW 1380   3.368   0.563   3.705  0.1930  0.4576 -0.3876
  411SOL    HW1 1381   3.451   0.545   3.660  0.0234 -0.2772 -0.4231
  411SOL    HW2 1382   3.355   0.487   3.762 -1.3006 -0.2710 -1.6310
  412SOL     OW 1383   1.857   3.494   3.333  0.0575  0.0025  0.8764
  412SOL    HW1 1384   1.822   3.542   3.409 -1.2521  0.4078  0.0418
  412SOL    HW2 1385   1.910   3.558   3.286  0.6491 -0.1760  1.2824
  413SOL     OW 1386   1.827   0.981   0.464  0.7894  0.2192 -0.0283
  413SOL    HW1 1387   1.807   0.969   0.371  0.3614  0.4857  0.0238
  413SOL    HW2 1388   1.914   1.020   0.466  0.1278  1.7641 -0.3915
  414SOL     OW 1389   0.806   1.608   0.113  0.7675  0.1242 -0.6406
  414SOL    HW1 1390   0.813   1.513   0.114 -2.3796 -0.2126  0.5847
  414SOL    HW2 1391   0.805   1.632   0.021  0.1009 -1.1976 -0.9903
  415SOL     OW 1392   3.033   3.591   2.873 -1.0365 -0.2745 -0.5238
  415SOL    HW1 1393   2.941   3.567   2.860 -0.8254 -0.9264 -0.8683
  415SOL    HW2 1394   3.079   3.507   2.871 -0.2878  0.1522 -1.6087
  416SOL     OW 1395   3.675   1.567   0.784  0.3086  0.2882  0.1242
  416SOL    HW1 1396   3.741   1.589   0.719 -0.5653  0.3579 -0.7672
  416SOL    HW2 1397   3.602   1.626   0.765 -0.4197 -0.4947  0.4193
  417SOL     OW 1398   1.998   0.638   1.805 -0.0467  0.5182  0.0001
  417SOL    HW1 1399   1.973   0.562   1.753  0.0442  0.0081  0.6984
  417SOL    HW2 1400   1.967   0.713   1.754 -0.6691 -0.0087 -0.4058
  418SOL     OW 1401   2.655   3.386   1.881  0.6592 -0.2168 -0.6646
  418SOL    HW1 1402   2.577   3.428   1.918  0.8619 -0.5493  0.1491
  418SOL    HW2 1403   2.699   3.457   1.834  0.3623  0.2001 -0.3356
  419SOL     OW 1404   3.617   3.584   1.775 -0.4486 -0.4915  0.0362
  419SOL    HW1 1405   3.631   3.672   1.741 -0.6525 -0.9104 -1.2096
  419SOL    HW2 1406   3.658   3.527   1.709  1.7727 -1.2602  1.9375
  420SOL     OW 1407   1.208   2.573   2.581  0.1994 -0.2543  0.4120
  420SOL    HW1 1408   1.132   2.631   2.581 -0.5309 -1.1772 -0.3378
  420SOL    HW2 1409   1.226   2.557   2.674 -1.0480 -0.6636  0.6075
  421SOL     OW 1410   3.083   0.142   0.827  0.4213 -0.1825  0.0445
  421SOL    HW1 1411   3.124   0.103   0.750 -0.1290 -0.3569 -0.1718
  421SOL    HW2 1412   3.148   0.203   0.861  1.4349 -1.4974  0.5685
  422SOL     OW 1413   2.888   1.668   2.948 -0.1586  0.6689 -0.2472
  422SOL    HW1 1414   2.897   1.687   3.041 -1.4055  0.7147 -0.1212
  422SOL    HW2 1415   2.960   1.715   2.907  0.3932  0.6621  0.6904
  423SOL     OW 1416   1.609   0.526   1.728 -0.2209  0.6539  0.4614
  423SOL    HW1 1417   1.537   0.465   1.743 -1.0903  2.0869  2.3942
  423SOL    HW2 1418   1.628   0.518   1.634 -1.4187 -1.3267  0.3399
  424SOL     OW 1419   0.955   0.016   0.866 -0.6677  0.5712 -0.4594
  424SOL    HW1 1420   0.908   0.084   0.819 -0.7615  1.2411  0.5662
  424SOL    HW2 1421   0.947   0.041   0.958 -0.0152 -0.3917 -0.1260
  425SOL     OW 1422   0.093   1.301   1.312 -0.1729 -0.6404  0.2470
  425SOL    HW1 1423   0.179   1.305   1.269 -0.7818  0.6467 -0.9176
  425SOL    HW2 1424   0.046   1.233   1.265  0.0650 -1.0787  0.6343
  426SOL     OW 1425   3.317   1.327   3.160 -0.9952 -0.2468  1.0311
  426SOL    HW1 1426   3.284   1.404   3.114  1.7177  1.4534  1.7274
  426SOL    HW2 1427   3.257   1.317   3.234 -0.3384  2.5054  2.0710
  427SOL     OW 1428   2.605   3.042   3.715  0.5768 -0.1136  0.2881
  427SOL    HW1 1429   2.671   3.030   3.783  1.6571 -1.4958 -0.9493
  427SOL    HW2 1430   2.655   3.066   3.637 -0.4978  0.0364 -0.3741
  428SOL     OW 1431   1.466   0.629   1.485 -1.3378 -0.6051 -0.3128
  428SOL    HW1 1432   1.532   0.692   1.455  0.7630 -2.2330  0.5627
  428SOL    HW2 1433   1.433   0.665   1.567 -0.4071 -0.4426  0.0063
  429SOL     OW 1434   1.180   3.493   2.616 -0.5102  0.7012 -0.1243
  429SOL    HW1 1435   1.159   3.584   2.639  0.1783  1.0757 -0.9550
  429SOL    HW2 1436   1.249   3.500   2.550 -3.8920 -0.2097 -4.1925
  430SOL     OW 1437   1.741   1.691   0.153  0.4233  0.3039  0.3157
  430SOL    HW1 1438   1.715   1.603   0.125  2.1893 -0.1106 -0.1781
  430SOL    HW2 1439   1.803   1.720   0.086  0.8598  1.3853  1.1510
  431SOL     OW 1440   0.665   0.692   1.371  0.5232 -0.7781  0.5174
  431SOL    HW1 1441   0.574   0.665   1.384  0.7819 -1.1862  1.5738
  431SOL    HW2 1442   0.659   0.781   1.336 -0.2804 -0.7905  0.5989
  432SOL     OW 1443   1.709   3.628   2.125  0.5406  0.0463 -0.2476
  432SOL    HW1 1444   1.709   3.539   2.159  0.2264  1.0879  2.7311
  432SOL    HW2 1445   1.793   3.664   2.153 -0.3493  1.4110  0.7693
  433SOL     OW 1446   1.017   2.509   3.624 -0.4699  0.3911  0.0856
  433SOL    HW1 1447   0.930   2.550   3.623 -0.4230  0.5298  0.8688
  433SOL    HW2 1448   1.018   2.453   3.547 -2.7214 -2.5931  1.9739
  434SOL     OW 1449   2.887   0.493   3.401  0.1016  0.1818  0.9630
  434SOL    HW1 1450   2.846   0.504   3.316 -2.4789 -0.1488  2.0935
  434SOL    HW2 1451   2.940   0.573   3.412 -2.9803  2.4070  0.8680
  435SOL     OW 1452   3.596   0.749   1.312 -0.1209  0.0069  0.4998
  435SOL    HW1 1453   3.602   0.841   1.338 -0.0428 -0.3527  1.8157
  435SOL    HW2 1454   3.504   0.726   1.323  0.1303 -0.4926  1.7602
  436SOL     OW 1455   2.522   0.131   2.463 -0.1640  0.3584  0.1512
  436SOL    HW1 1456   2.561   0.076   2.531 -0.5810 -1.1206 -0.7580
  436SOL    HW2 1457   2.571   0.213   2.467  1.8978 -0.8068  0.2025
  437SOL     OW 1458   2.884   1.193   3.037  0.2392  0.3672 -0.3464
  437SOL    HW1 1459   2.895   1.269   3.094 -0.6132 -0.1533  0.5597
  437SOL    HW2 1460   2.967   1.146   3.043  0.0489  0.1366  0.7817
  438SOL     OW 1461   1.802  -0.005   1.569 -0.3658  0.4047 -0.3901
  438SOL    HW1 1462   1.848   0.061   1.518 -0.9349  2.2791  1.3849
  438SOL    HW2 1463   1.711   0.025   1.570 -0.9148 -1.1813 -0.6824
  439SOL     OW 1464   1.719   2.318   2.292 -0.2469 -0.2658 -0.1301
  439SOL    HW1 1465   1.777   2.261   2.343 -0.1528  0.1697  0.2524
  439SOL    HW2 1466   1.689   2.263   2.220  0.5770 -0.5215 -0.2875
  440SOL     OW 1467   1.999   3.642   1.226 -0.2214 -1.0800 -0.0068
  440SOL    HW1 1468   2.023   3.617   1.136 -0.0305 -0.5096 -0.1146
  440SOL    HW2 1469   1.924   3.699   1.215  0.6304  0.0887  0.1051
  441SOL     OW 1470   1.945   0.230   2.541  0.1316  0.3625  0.1457
  441SOL    HW1 1471   1.967   0.307   2.593  2.2825 -0.5861  0.7858
  441SOL    HW2 1472   2.026   0.210   2.492 -0.6807 -0.9063 -0.7533
  442SOL     OW 1473   1.828   3.446   2.859  0.3804 -0.1470  0.4659
  442SOL    HW1 1474   1.783   3.362   2.870  0.4960 -0.1518  0.9334
  442SOL    HW2 1475   1.882   3.434   2.781 -0.0352 -0.3150  0.2009
  443SOL     OW 1476   2.014   1.719   0.971  0.3719 -0.3339 -1.0354
  443SOL    HW1 1477   2.006   1.756   1.059 -1.1455  1.2408 -1.7592
  443SOL    HW2 1478   2.105   1.736   0.946  0.4854  0.3419 -0.2312
  444SOL     OW 1479   1.160   0.289   0.706 -0.2920  0.2748  0.0977
  444SOL    HW1 1480   1.199   0.275   0.792 -0.8894 -1.9181  0.0848
  444SOL    HW2 1481   1.081   0.236   0.707  1.2177 -2.4076 -2.7817
  445SOL     OW 1482   0.560   0.340   1.009 -0.1516 -0.0353 -0.2841
  445SOL    HW1 1483   0.517   0.254   1.007  0.1507 -0.1976 -2.5661
  445SOL    HW2 1484   0.592   0.349   1.098  1.9295 -3.4157 -0.5049
  446SOL     OW 1485   0.637   1.372   1.674  0.1251 -0.0338 -0.2870
  446SOL    HW1 1486   0.594   1.289   1.695  0.0380  0.1649  0.3211
  446SOL    HW2 1487   0.574   1.417   1.617 -0.2298  0.0063  0.1299
  447SOL     OW 1488   1.495   1.156   0.770  0.5511 -0.3305  0.1041
  447SOL    HW1 1489   1.565   1.141   0.706 -0.3748 -1.2671 -0.7246
  447SOL    HW2 1490   1.508   1.089   0.836  0.6555 -0.2679  0.1476
  448SOL     OW 1491   3.326   1.876   2.578 -0.5014  0.3302 -0.1536
  448SOL    HW1 1492   3.306   1.924   2.498 -0.6789  2.3452  1.0217
  448SOL    HW2 1493   3.396   1.927   2.620  2.1585 -2.5601 -0.6304
  449SOL     OW 1494   0.313   0.743   2.449 -0.5983  0.1716 -0.0676
  449SOL    HW1 1495   0.372   0.762   2.375  0.8332  2.9642  1.6086
  449SOL    HW2 1496   0.366   0.762   2.527 -2.8251 -0.2158  1.6244
  450SOL     OW 1497   2.112   2.333   2.676  0.2931  0.4250  0.2496
  450SOL    HW1 1498   2.182   2.280   2.638  2.3560  1.7489  2.0089
  450SOL    HW2 1499   2.121   2.418   2.634 -0.2813  0.6151  0.4981
  451SOL     OW 1500   0.627   0.464   3.312 -0.1976  1.0009 -0.2925
  451SOL    HW1 1501   0.600   0.554   3.331 -0.9553  0.5160  1.1054
  451SOL    HW2 1502   0.582   0.411   3.379  1.1175 -0.2930 -0.3878
  452SOL     OW 1503   2.813   3.193   0.341  0.2484  0.7386 -0.2816
  452SOL    HW1 1504   2.766   3.112   0.320  2.1150 -0.0173 -1.8071
  452SOL    HW2 1505   2.893   3.164   0.386 -0.1148  1.9196  1.2192
  453SOL     OW 1506   2.080   0.987   1.494  0.3807  0.1180  0.3609
  453SOL    HW1 1507   2.049   1.057   1.437  1.6912 -0.2986 -0.9187
  453SOL    HW2 1508   2.175   0.999   1.497  0.7397 -2.1243 -0.6295
  454SOL     OW 1509   3.406   2.013   0.863 -0.1185  0.0778 -0.3191
  454SOL    HW1 1510   3.333   2.064   0.828  0.0800  0.7480  0.2065
  454SOL    HW2 1511   3.482   2.071   0.853  0.0261  0.0848  0.7259
  455SOL     OW 1512   2.972   0.790   1.983 -0.6039  0.2737  0.0302
  455SOL    HW1 1513   2.984   0.864   2.043  2.3910  0.1911 -0.3424
  455SOL    HW2 1514   2.932   0.830   1.905 -0.1754  1.2677  0.2997
  456SOL     OW 1515   1.610   3.113   0.131 -0.2375 -0.1467 -0.4793
  456SOL    HW1 1516   1.521   3.089   0.158  1.4442 -3.9515  2.5797
  456SOL    HW2 1517   1.618   3.075   0.043 -0.9608 -1.7640  0.1210
  457SOL     OW 1518   0.099   2.204   2.240  0.8221  0.7752  0.2068
  457SOL    HW1 1519   0.131   2.287   2.275  1.2626  0.5829  0.2635
  457SOL    HW2 1520   0.086   2.149   2.317  2.2719  0.1807  0.0502
  458SOL     OW 1521   1.444   0.924   0.149  0.2815 -0.7963 -0.0690
  458SOL    HW1 1522   1.352   0.901   0.137  0.0345  0.7247 -1.3751
  458SOL    HW2 1523   1.480   0.851   0.200 -2.3719  0.0562  3.4778
  459SOL     OW 1524   1.441   0.455   0.160 -0.0713 -0.0067 -0.5083
  459SOL    HW1 1525   1.470   0.497   0.079  1.0140  0.2057 -0.0191
  459SOL    HW2 1526   1.345   0.451   0.151 -0.0199  0.6086 -1.5082
  460SOL     OW 1527   3.244   1.321   2.234 -0.5145  0.2981 -0.3144
  460SOL    HW1 1528   3.276   1.242   2.190  0.9982 -0.3442  1.7799
  460SOL    HW2 1529   3.169   1.291   2.286 -0.8744  0.5770 -0.6624
  461SOL     OW 1530   3.595   2.518   1.726 -0.0225  0.6473  0.1121
  461SOL    HW1 1531   3.671   2.575   1.735 -0.3924  0.9208  1.9642
  461SOL    HW2 1532   3.598   2.461   1.803 -2.3808  1.5858  1.0073
  462SOL     OW 1533   2.338   0.156   1.432  0.4803  0.2901 -0.5947
  462SOL    HW1 1534   2.424   0.140   1.472 -0.4480 -0.0203  1.3612
  462SOL    HW2 1535   2.329   0.251   1.430  0.9339  0.3284 -0.9809
  463SOL     OW 1536  -0.018   3.338   3.704 -0.0594  0.6300 -0.3956
  463SOL    HW1 1537  -0.000   3.395   3.630  0.6993 -1.1032 -1.6238
  463SOL    HW2 1538   0.035   3.373   3.775  3.4759 -0.6784 -2.1794
  464SOL     OW 1539   0.437   0.157   0.748  0.1348 -1.4168  0.3822
  464SOL    HW1 1540   0.476   0.104   0.678 -1.0206 -0.8286 -0.7432
  464SOL    HW2 1541   0.472   0.245   0.734 -1.3555 -0.9303 -0.5062
  465SOL     OW 1542   0.225   1.969   2.132  0.2717  0.0234  0.3394
  465SOL    HW1 1543   0.307   2.017   2.120 -0.5683  1.2867 -0.4908
  465SOL    HW2 1544   0.157   2.035   2.124 -0.8987 -1.2341 -0.3711
  466SOL     OW 1545   2.278   1.867   3.255  0.0605 -0.0468  1.0705
  466SOL    HW1 1546   2.204   1.866   3.317 -1.3822  3.5947 -0.2761
  466SOL    HW2 1547   2.319   1.952   3.269  0.5871  0.2877 -1.8971
  467SOL     OW 1548   2.777   3.481   2.779 -0.2553 -0.1800 -0.5856
  467SOL    HW1 1549   2.817   3.439   2.703  0.3273  1.9402 -1.5196
  467SOL    HW2 1550   2.694   3.435   2.791  0.4987 -1.8124 -1.2842
  468SOL     OW 1551   0.374   3.190   1.614  0.1372 -0.0291  0.6688
  468SOL    HW1 1552   0.310   3.119   1.620 -0.3725  0.3387 -0.3211
  468SOL    HW2 1553   0.358   3.243   1.693 -0.0357 -0.5472  0.9843
  469SOL     OW 1554   2.197   3.524   3.456 -0.1713  0.2311  0.5819
  469SOL    HW1 1555   2.127   3.564   3.403  0.7434  0.6282 -0.3660
  469SOL    HW2 1556   2.232   3.597   3.507  0.0629  0.1958  0.4714
  470SOL     OW 1557   0.903   0.846   1.478 -0.3022 -0.3813  0.4069
  470SOL    HW1 1558   0.893   0.937   1.504  0.7304  0.7643 -2.7439
  470SOL    HW2 1559   0.817   0.821   1.444 -0.1977 -0.0448 -0.1214
  471SOL     OW 1560   2.905   1.128   1.136 -0.5622  0.0451  0.2169
  471SOL    HW1 1561   2.840   1.137   1.067  0.2455  1.4803 -0.4245
  471SOL    HW2 1562   2.939   1.039   1.126 -1.8020 -0.4249  0.0202
  472SOL     OW 1563   1.084   0.251   3.409  0.4352  0.2469 -0.3426
  472SOL    HW1 1564   1.152   0.239   3.343 -0.6373  0.1415 -1.4627
  472SOL    HW2 1565   1.119   0.209   3.488  1.9258  0.7662 -0.6979
  473SOL     OW 1566   2.894   0.208   1.742 -0.1486  0.5878  0.2345
  473SOL    HW1 1567   2.916   0.172   1.828  0.3645  0.6609  0.1387
  473SOL    HW2 1568   2.799   0.220   1.744 -0.5810 -2.2011 -0.2691
  474SOL     OW 1569   3.128   2.607   3.491 -0.9183  0.5686  0.8030
  474SOL    HW1 1570   3.220   2.584   3.490 -0.7329  1.0559  2.6454
  474SOL    HW2 1571   3.109   2.637   3.402  0.6181  0.2179  0.3382
  475SOL     OW 1572   3.085   0.031   0.112 -0.3505 -0.1780 -0.2200
  475SOL    HW1 1573   3.092  -0.065   0.116  2.0288 -0.0978 -0.9993
  475SOL    HW2 1574   3.155   0.063   0.169 -1.3038  1.1199  0.2637
  476SOL     OW 1575   0.470   1.504   2.030  0.4690  0.5834 -1.0986
  476SOL    HW1 1576   0.556   1.465   2.048 -1.1778 -1.1272  5.5460
  476SOL    HW2 1577   0.473   1.589   2.073 -1.7041 -0.5655  1.5946
  477SOL     OW 1578   1.999   0.231   0.582  0.1066 -0.2488  0.0038
  477SOL    HW1 1579   2.060   0.161   0.558  2.6608  1.6133  0.6059
  477SOL    HW2 1580   1.931   0.188   0.634  3.2053 -1.9631  3.0424
  478SOL     OW 1581   0.761   1.821   1.781 -0.8143 -0.2050  0.7755
  478SOL    HW1 1582   0.715   1.839   1.699  0.0492  0.5473  0.4418
  478SOL    HW2 1583   0.728   1.887   1.842  2.0106  2.4582 -0.3206
  479SOL     OW 1584   3.101   1.658   0.072 -0.6740 -0.2937 -0.1778
  479SOL    HW1 1585   3.030   1.671   0.136 -0.6369  0.1692 -0.2268
  479SOL    HW2 1586   3.121   1.746   0.040  0.9810 -0.2202  0.9563
  480SOL     OW 1587   1.499   0.963   2.824  0.0430 -0.4041  0.5413
  480SOL    HW1 1588   1.562   1.035   2.825 -0.8781  0.4351 -0.1501
  480SOL    HW2 1589   1.415   1.004   2.802 -0.1821 -1.9060 -1.7587
  481SOL     OW 1590   2.421   0.739   2.962  0.1711  0.4563  0.4866
  481SOL    HW1 1591   2.387   0.784   3.039  1.7787  0.4589  1.2480
  481SOL    HW2 1592   2.422   0.646   2.986  0.8311  0.4730  0.5635
  482SOL     OW 1593   1.898   2.559   0.824 -0.2232  0.1356 -0.4142
  482SOL    HW1 1594   1.912   2.469   0.794 -0.6378  0.4190 -1.5192
  482SOL    HW2 1595   1.805   2.575   0.808 -0.8534 -0.1486  2.3778
  483SOL     OW 1596   1.584   1.041   1.238 -0.0050  0.0069 -0.3065
  483SOL    HW1 1597   1.602   1.129   1.271  1.4236  0.1140 -1.2625
  483SOL    HW2 1598   1.551   1.055   1.149 -2.7995 -0.3164  0.6058
  484SOL     OW 1599   3.263   1.759   0.881 -0.1711  0.1248  0.4193
  484SOL    HW1 1600   3.178   1.723   0.858  0.2166 -0.1577 -0.5986
  484SOL    HW2 1601   3.257   1.852   0.857 -0.7029  0.4764  1.7890
  485SOL     OW 1602   3.367   2.356   1.794  0.3394  0.6954  0.4288
  485SOL    HW1 1603   3.399   2.427   1.737 -1.3327  0.1275 -1.3093
  485SOL    HW2 1604   3.347   2.399   1.877 -1.1554  2.4016 -0.7553
  486SOL     OW 1605   1.016   3.594   2.377 -0.1822  0.2470  0.1453
  486SOL    HW1 1606   1.049   3.509   2.407 -2.5025 -0.1179  1.9299
  486SOL    HW2 1607   1.091   3.653   2.385  0.7327 -1.0331  1.6555
  487SOL     OW 1608   3.398   1.377   1.012  0.1341  0.2680  0.1896
  487SOL    HW1 1609   3.359   1.387   0.926 -0.1495 -0.4702  0.2313
  487SOL    HW2 1610   3.327   1.342   1.067  0.6656 -0.4437  0.4255
  488SOL     OW 1611   0.205   0.138   1.054 -0.0006  0.0402  0.1896
  488SOL    HW1 1612   0.235   0.228   1.038  1.3666 -0.3914  0.2138
  488SOL    HW2 1613   0.144   0.120   0.982  0.1611  0.7818 -0.1449
  489SOL     OW 1614   0.869   0.580   2.120  0.0282  0.0857 -0.2427
  489SOL    HW1 1615   0.807   0.521   2.162 -1.3766  2.6092  1.4542
  489SOL    HW2 1616   0.829   0.602   2.036 -0.9529  0.9499  0.4325
  490SOL     OW 1617   3.306   2.276   0.772 -0.5432 -0.8949 -0.4677
  490SOL    HW1 1618   3.393   2.264   0.812 -0.8150 -0.0358  0.4148
  490SOL    HW2 1619   3.317   2.349   0.712 -0.4460 -1.3739 -1.0439
  491SOL     OW 1620   3.283   2.727   0.480  0.1958 -0.1189 -0.3159
  491SOL    HW1 1621   3.301   2.772   0.397 -0.1548  0.6268 -0.0008
  491SOL    HW2 1622   3.367   2.725   0.525  0.1506  0.5558 -0.1835
  492SOL     OW 1623   0.670   0.465   2.252 -0.4935 -0.3160 -0.3254
  492SOL    HW1 1624   0.614   0.402   2.207 -0.8734  0.0354 -0.3538
  492SOL    HW2 1625   0.648   0.454   2.345 -1.4389  0.5968 -0.4232
  493SOL     OW 1626   2.537   2.807   0.447  0.4600  0.3105 -0.2563
  493SOL    HW1 1627   2.540   2.713   0.462 -0.1484  0.3605  0.1773
  493SOL    HW2 1628   2.480   2.818   0.371  1.0425  0.2900 -0.7074
  494SOL     OW 1629   0.566   1.208   1.236  0.3958  0.7015 -0.1102
  494SOL    HW1 1630   0.645   1.156   1.244  0.7386  1.0047 -1.3097
  494SOL    HW2 1631   0.580   1.261   1.157 -0.8573  1.0075 -0.1468
  495SOL     OW 1632   3.427   0.530   0.320 -0.0553  0.2587 -0.5212
  495SOL    HW1 1633   3.405   0.450   0.272  0.1062  1.5647 -2.9437
  495SOL    HW2 1634   3.507   0.562   0.277  0.2087  1.4336  0.7743
  496SOL     OW 1635   0.618   3.134   0.804  0.3028  0.0257  0.1648
  496SOL    HW1 1636   0.609   3.166   0.894 -0.2593 -1.0595  0.5168
  496SOL    HW2 1637   0.701   3.086   0.805  0.1657 -0.2103  0.1745
  497SOL     OW 1638   2.406   0.407   0.657  0.9908 -0.1927  0.8578
  497SOL    HW1 1639   2.469   0.477   0.637 -2.0672  2.3777 -0.5162
  497SOL    HW2 1640   2.410   0.398   0.752  2.1588  1.1721  0.9723
  498SOL     OW 1641   1.577   1.840   3.028  0.3688  0.5453 -0.1247
  498SOL    HW1 1642   1.582   1.856   2.934 -0.8490  1.6620 -0.0402
  498SOL    HW2 1643   1.627   1.912   3.068 -0.8394  1.2909  0.1121
  499SOL     OW 1644   2.034   0.381   1.979 -0.3316 -0.3336  0.1883
  499SOL    HW1 1645   1.988   0.404   1.898  1.1638 -1.9661 -1.2112
  499SOL    HW2 1646   2.072   0.463   2.009  0.7247 -0.0014 -1.8793
  500SOL     OW 1647   3.677   1.019   1.460  0.3465  0.3388 -0.1285
  500SOL    HW1 1648   3.766   0.998   1.433  0.9660  0.3618  1.7483
  500SOL    HW2 1649   3.683   1.029   1.555 -2.0445 -1.6825  0.3202
  501SOL     OW 1650   0.453   2.159   3.249 -0.3851  0.3674 -0.5239
  501SOL    HW1 1651   0.414   2.141   3.164  0.1162  1.0183 -0.8970
  501SOL    HW2 1652   0.380   2.156   3.310 -0.8529  0.5486 -1.0690
  502SOL     OW 1653   2.115   2.141   0.123  0.2545 -0.7209  0.2405
  502SOL    HW1 1654   2.097   2.071   0.061  0.5079 -1.0243  0.5052
  502SOL    HW2 1655   2.174   2.101   0.188  0.0149 -0.4019  0.6593
  503SOL     OW 1656   2.486   0.513   1.277 -0.6125 -0.4079 -0.6624
  503SOL    HW1 1657   2.486   0.443   1.212 -1.7061  1.3825 -2.7089
  503SOL    HW2 1658   2.423   0.483   1.343  2.6247 -3.6067  1.3623
  504SOL     OW 1659   0.483   3.497   3.335 -0.9775  0.0131 -0.1272
  504SOL    HW1 1660   0.504   3.545   3.255  1.0255  0.6397  0.7064
  504SOL    HW2 1661   0.416   3.550   3.378 -1.2190  0.2820 -0.8250
  505SOL     OW 1662   2.057   2.420   1.939 -0.1485  0.7456  0.2079
  505SOL    HW1 1663   2.091   2.368   2.012  0.6084  0.6569 -0.1969
  505SOL    HW2 1664   1.968   2.444   1.966 -1.4449 -2.6595 -0.5091
  506SOL     OW 1665   2.326   2.905   0.279  0.2387 -0.7200  0.1198
  506SOL    HW1 1666   2.337   2.966   0.206 -0.2983 -0.5312  0.1898
  506SOL    HW2 1667   2.320   2.962   0.356 -0.6010 -0.8380  0.1474
  507SOL     OW 1668   2.429   1.651   3.224  0.9149  0.1358 -0.3832
  507SOL    HW1 1669   2.363   1.718   3.245  0.5052 -0.1365 -0.7771
  507SOL    HW2 1670   2.450   1.667   3.132 -1.9006 -2.5151 -1.6529
  508SOL     OW 1671   2.826   1.127   1.655  0.2410  0.2448 -0.1906
  508SOL    HW1 1672   2.821   1.221   1.671 -1.8150 -0.2165  2.8314
  508SOL    HW2 1673   2.743   1.106   1.611 -0.6506 -0.4437  1.7026
  509SOL     OW 1674   0.760   2.884   1.369  0.0909 -0.5701 -0.4441
  509SOL    HW1 1675   0.733   2.938   1.442  1.3500  1.1415 -1.1853
  509SOL    HW2 1676   0.678   2.854   1.329 -0.6031 -0.8681  1.1411
  510SOL     OW 1677   3.697   2.102   0.584 -0.7678  0.0058  0.3445
  510SOL    HW1 1678   3.726   2.019   0.620  0.4657 -0.2022 -1.0586
  510SOL    HW2 1679   3.631   2.078   0.519  1.4227 -0.1501 -1.9439
  511SOL     OW 1680   2.034   1.563   2.789  0.0094  0.3912  0.0667
  511SOL    HW1 1681   2.091   1.597   2.858 -1.6807 -2.3208  3.1105
  511SOL    HW2 1682   2.078   1.485   2.757 -1.0108 -0.6690  1.1220
  512SOL     OW 1683   1.131   0.485   2.162 -0.4989  0.1033  0.3163
  512SOL    HW1 1684   1.048   0.528   2.140  1.0338  2.7119 -0.8811
  512SOL    HW2 1685   1.188   0.505   2.088  0.6890 -3.4241  0.0922
  513SOL     OW 1686   0.334   1.044   1.158  0.1074 -0.1492 -0.1846
  513SOL    HW1 1687   0.374   1.036   1.072  1.0906 -0.4019  0.2714
  513SOL    HW2 1688   0.399   1.092   1.210  1.2991 -3.1772  1.4309
  514SOL     OW 1689   2.925   1.855   0.847  0.0542 -0.4385 -0.0108
  514SOL    HW1 1690   2.906   1.946   0.868 -1.2231 -0.9783  1.3869
  514SOL    HW2 1691   2.844   1.808   0.870  0.5944 -1.8909 -0.9404
  515SOL     OW 1692   1.052   2.518   2.267 -0.2911  0.2973 -0.4532
  515SOL    HW1 1693   1.080   2.437   2.309 -0.4855 -0.9021 -2.4958
  515SOL    HW2 1694   1.094   2.588   2.318 -0.0990 -1.0536  1.3440
  516SOL     OW 1695   2.481   0.408   0.919 -0.7259 -0.5945  0.2243
  516SOL    HW1 1696   2.573   0.425   0.900 -0.4893  1.0380  2.4498
  516SOL    HW2 1697   2.479   0.319   0.954  0.4471  0.1986  2.4476
  517SOL     OW 1698   1.625   1.060   2.054  0.1466  0.0135 -0.4205
  517SOL    HW1 1699   1.615   0.964   2.050 -0.0908  0.0587 -1.0837
  517SOL    HW2 1700   1.714   1.073   2.088 -0.2467 -0.4270  0.8329
  518SOL     OW 1701   1.672   0.529   0.019  0.7375  0.3737 -0.1421
  518SOL    HW1 1702   1.684   0.497   0.108  1.5854  0.8806 -0.0602
  518SOL    HW2 1703   1.670   0.451  -0.035 -0.0990  0.0458  0.3522
  519SOL     OW 1704   0.135   3.423   0.209 -0.4932  0.1041  0.3602
  519SOL    HW1 1705   0.103   3.504   0.247 -0.8246 -0.3371  1.0538
  519SOL    HW2 1706   0.217   3.406   0.254 -0.8563 -0.3894  0.8579
  520SOL     OW 1707   0.975   2.353   2.561 -0.1139 -0.2988  0.1436
  520SOL    HW1 1708   0.962   2.328   2.470 -2.3140 -0.1418  0.3424
  520SOL    HW2 1709   0.947   2.444   2.565 -0.0180 -0.2945  0.9593
  521SOL     OW 1710   0.283   2.475   3.175 -0.4068  0.4356  0.8578
  521SOL    HW1 1711   0.375   2.473   3.149 -0.2165  3.7173  0.8419
  521SOL    HW2 1712   0.285   2.462   3.270 -0.0792 -0.6043  0.7266
  522SOL     OW 1713   1.726   1.897   2.608 -0.1328 -0.0185 -0.5745
  522SOL    HW1 1714   1.721   1.833   2.680  0.5617  0.6390  0.0729
  522SOL    HW2 1715   1.772   1.850   2.538 -0.4441 -0.5314 -0.4384
  523SOL     OW 1716   0.769   1.799   1.435  0.5075  0.3448 -0.3042
  523SOL    HW1 1717   0.807   1.728   1.487 -0.1381  0.2863  0.0893
  523SOL    HW2 1718   0.697   1.833   1.488 -0.2539  0.1947 -1.2061
  524SOL     OW 1719   3.720   3.286   1.583  0.0341  0.2681 -0.0375
  524SOL    HW1 1720   3.674   3.217   1.632 -0.5715  2.2633  2.4209
  524SOL    HW2 1721   3.650   3.337   1.542  0.3651  0.3792 -0.4633
  525SOL     OW 1722   0.367   2.879   1.504  0.1934  0.4960 -0.1792
  525SOL    HW1 1723   0.415   2.838   1.576  0.3691  0.1994 -0.4625
  525SOL    HW2 1724   0.427   2.875   1.430 -0.2714  0.1123 -0.5416
  526SOL     OW 1725   0.192   0.717   3.639  0.0879 -0.0888  0.1613
  526SOL    HW1 1726   0.209   0.802   3.598  0.5254 -0.7530 -1.0883
  526SOL    HW2 1727   0.096   0.712   3.644  0.0710  0.8420  1.0687
  527SOL     OW 1728   0.092   1.863   0.646  0.7487 -0.3112  0.1329
  527SOL    HW1 1729   0.120   1.815   0.724 -0.0910  1.1781  1.3827
  527SOL    HW2 1730   0.171   1.866   0.591  1.0887 -2.2287  0.4245
  528SOL     OW 1731   3.597   1.660   3.236  0.1233 -0.5904 -0.2818
  528SOL    HW1 1732   3.638   1.747   3.237  0.8221 -0.8716  2.6567
  528SOL    HW2 1733   3.506   1.677   3.213  0.5792  0.7137 -1.2492
  529SOL     OW 1734   2.434   3.310   3.633  0.0388 -0.1955  0.4913
  529SOL    HW1 1735   2.467   3.343   3.549  0.2732 -0.9460  0.2838
  529SOL    HW2 1736   2.417   3.217   3.617 -1.8477  0.0666  0.6800
  530SOL     OW 1737   3.291   1.101   1.543 -0.0300 -0.3655 -0.3678
  530SOL    HW1 1738   3.205   1.076   1.508  0.7872 -0.5578 -2.3346
  530SOL    HW2 1739   3.337   1.139   1.468  1.2876  0.5944  0.8801
  531SOL     OW 1740   0.311   1.560   1.793 -0.1042 -0.5487 -0.0349
  531SOL    HW1 1741   0.338   1.529   1.879  0.7025  1.3347  0.4207
  531SOL    HW2 1742   0.356   1.643   1.781 -1.4562  0.0243 -1.5963
  532SOL     OW 1743   2.085   1.502   2.027  0.2253 -0.3572  0.5479
  532SOL    HW1 1744   2.035   1.428   2.062  0.3617 -0.2651  0.9350
  532SOL    HW2 1745   2.175   1.469   2.023 -0.1512 -1.3402 -2.2976
  533SOL     OW 1746   1.388   1.807   3.223 -1.0004 -0.2057  0.6214
  533SOL    HW1 1747   1.434   1.827   3.141 -1.3380  4.2126  1.2483
  533SOL    HW2 1748   1.457   1.797   3.287 -0.7875 -1.8368  0.1720
  534SOL     OW 1749   2.333   2.110   2.649 -0.0221  0.1954 -0.9378
  534SOL    HW1 1750   2.272   2.042   2.620 -0.8419  1.1488 -1.5235
  534SOL    HW2 1751   2.383   2.070   2.719 -0.0627 -1.2158 -1.6859
  535SOL     OW 1752   1.847   2.812   3.582  0.6581 -0.3913  0.0959
  535SOL    HW1 1753   1.767   2.759   3.593  0.1840  0.5602  1.4438
  535SOL    HW2 1754   1.884   2.817   3.670  0.8082  1.3418 -0.0470
  536SOL     OW 1755   3.644   2.532   3.519 -0.0264  0.6236  0.2492
  536SOL    HW1 1756   3.705   2.588   3.473  0.6169 -0.4764 -0.2798
  536SOL    HW2 1757   3.620   2.581   3.598 -1.0465  2.4881 -1.1425
  537SOL     OW 1758   2.337   0.712   0.061 -0.6429  0.8153 -0.2473
  537SOL    HW1 1759   2.407   0.751   0.112 -0.2985 -0.7375  0.5476
  537SOL    HW2 1760   2.268   0.694   0.125  0.3364 -2.4479  0.0753
  538SOL     OW 1761   1.558   1.573   2.535  0.5369 -0.1176  0.1946
  538SOL    HW1 1762   1.647   1.586   2.569 -0.1887  0.5884  1.8831
  538SOL    HW2 1763   1.501   1.615   2.599 -0.8835  2.1060 -2.3509
  539SOL     OW 1764   0.941   2.745   0.785 -0.3486 -0.2080  0.1381
  539SOL    HW1 1765   0.873   2.708   0.840  0.5769 -1.0344  0.7576
  539SOL    HW2 1766   1.023   2.711   0.821  0.3668  0.3188 -0.9206
  540SOL     OW 1767   0.215   0.722   1.356 -0.1023 -0.2605  0.1176
  540SOL    HW1 1768   0.220   0.812   1.386 -2.0345 -1.0868  3.4785
  540SOL    HW2 1769   0.305   0.700   1.331  0.3667  2.5868 -1.0599
  541SOL     OW 1770   2.893   2.072   3.434  0.3615  0.4010  0.3158
  541SOL    HW1 1771   2.976   2.027   3.451  0.1557  0.5807  1.9248
  541SOL    HW2 1772   2.829   2.027   3.490 -0.4955  0.7081 -0.3853
  542SOL     OW 1773   2.605   3.491   1.590  0.2659 -0.3900 -0.6899
  542SOL    HW1 1774   2.664   3.525   1.658 -0.4680 -2.2636  1.0013
  542SOL    HW2 1775   2.650   3.508   1.508  2.1276  0.1909  0.3917
  543SOL     OW 1776   0.668   0.300   0.532 -0.1023 -0.4586 -0.0634
  543SOL    HW1 1777   0.670   0.292   0.437 -1.0029 -3.5642  0.0829
  543SOL    HW2 1778   0.645   0.392   0.548  1.7903  0.6065 -2.7481
  544SOL     OW 1779   3.635   0.461   3.582 -0.7700 -0.5031 -0.5997
  544SOL    HW1 1780   3.592   0.388   3.537  0.8012 -0.9655 -1.4671
  544SOL    HW2 1781   3.703   0.489   3.520 -1.9449  2.3993 -0.7491
  545SOL     OW 1782   3.368   2.770   2.837  0.6027  0.2641 -0.3774
  545SOL    HW1 1783   3.449   2.724   2.818  1.0679  0.1004  1.7765
  545SOL    HW2 1784   3.327   2.719   2.906 -1.8659 -0.1927 -2.0582
  546SOL     OW 1785   1.865   1.094   2.496 -0.3922 -0.0570  0.1050
  546SOL    HW1 1786   1.775   1.071   2.519  0.3637 -2.7548  0.7729
  546SOL    HW2 1787   1.873   1.069   2.404  0.1875 -1.8657  0.5996
  547SOL     OW 1788   3.286   2.986   2.479 -0.3610 -0.4673 -1.0333
  547SOL    HW1 1789   3.317   2.898   2.499 -0.3234  0.0856  1.7119
  547SOL    HW2 1790   3.344   3.017   2.409  0.0817 -2.3281 -1.5421
  548SOL     OW 1791   1.812   1.875   1.927 -0.0720  0.4281  0.5192
  548SOL    HW1 1792   1.858   1.955   1.901  0.5769  1.1192  3.4073
  548SOL    HW2 1793   1.823   1.816   1.852  3.3016  1.4718 -0.0075
  549SOL     OW 1794   1.349   0.232   3.516 -0.5869  0.5575  0.1655
  549SOL    HW1 1795   1.341   0.225   3.421  0.9618 -0.0431  0.0516
  549SOL    HW2 1796   1.346   0.141   3.547 -0.7442  0.7267  0.6600
  550SOL     OW 1797   2.768   0.818   3.040  0.8425  0.1049  0.1035
  550SOL    HW1 1798   2.769   0.855   2.952  3.3900 -0.1958 -0.0770
  550SOL    HW2 1799   2.807   0.886   3.095  0.0655 -0.0442  0.8704
  551SOL     OW 1800   1.273   1.763   2.494 -0.1103  0.2007  0.1321
  551SOL    HW1 1801   1.232   1.678   2.477 -0.2181  0.4023 -0.6281
  551SOL    HW2 1802   1.258   1.813   2.414 -1.1538  1.3771  1.0205
  552SOL     OW 1803   0.551   1.077   1.477 -0.0388 -0.1208 -0.0048
  552SOL    HW1 1804   0.578   1.136   1.407 -2.3579  0.2821 -0.6501
  552SOL    HW2 1805   0.566   0.989   1.441  1.5502  0.0408  0.1908
  553SOL     OW 1806   1.589   2.356   1.784  0.0574 -0.0534  0.4873
  553SOL    HW1 1807   1.539   2.417   1.729 -0.5365  0.7983  1.8991
  553SOL    HW2 1808   1.569   2.270   1.748 -0.9097  0.4196 -0.1703
  554SOL     OW 1809   1.460   3.152   3.428  0.0422 -0.0600 -0.0231
  554SOL    HW1 1810   1.529   3.115   3.482 -0.6031  0.0113  0.8664
  554SOL    HW2 1811   1.493   3.238   3.402 -0.3550  0.6625  1.7384
  555SOL     OW 1812   2.502   1.014   2.744  0.1958 -0.1060  0.5145
  555SOL    HW1 1813   2.540   1.100   2.762  0.8349 -0.6418  1.9274
  555SOL    HW2 1814   2.558   0.953   2.793 -0.4322 -1.2864 -0.2100
  556SOL     OW 1815   0.706   3.391   3.480  0.5663  0.5817  0.1874
  556SOL    HW1 1816   0.653   3.444   3.421  1.2413 -0.2527 -1.2119
  556SOL    HW2 1817   0.757   3.334   3.423 -0.7236 -2.2261  1.6211
  557SOL     OW 1818   2.611   0.344   2.859  0.4667  0.1635 -0.5408
  557SOL    HW1 1819   2.622   0.338   2.764 -0.1570  1.4810 -0.7142
  557SOL    HW2 1820   2.669   0.415   2.886  0.3342  0.0686  0.0122
  558SOL     OW 1821   2.763   3.262   0.880  0.1095 -0.1777 -0.4858
  558SOL    HW1 1822   2.728   3.187   0.831  1.0995 -1.5418  0.8310
  558SOL    HW2 1823   2.689   3.292   0.933  0.2853 -1.6790  0.6642
  559SOL     OW 1824   2.496   2.301   1.075  0.3520 -0.5758 -0.5612
  559SOL    HW1 1825   2.461   2.343   1.154 -1.0109  3.3929 -2.9934
  559SOL    HW2 1826   2.589   2.327   1.073  0.2851 -0.3245 -0.4583
  560SOL     OW 1827   2.298   2.163   3.298  0.5320 -0.2641  0.5317
  560SOL    HW1 1828   2.207   2.138   3.316  0.3647 -1.7241 -1.8853
  560SOL    HW2 1829   2.329   2.200   3.380 -1.5189 -1.8839  2.1678
  561SOL     OW 1830   0.542   2.748   1.250 -0.1619  0.1205 -0.2369
  561SOL    HW1 1831   0.456   2.709   1.270  0.0055 -0.5035 -0.7092
  561SOL    HW2 1832   0.595   2.674   1.219  0.6503  0.4426  0.3696
  562SOL     OW 1833   1.077   0.677   1.657 -0.2807 -0.0713 -0.2653
  562SOL    HW1 1834   1.015   0.750   1.662  3.3215  3.2402  0.8741
  562SOL    HW2 1835   1.101   0.661   1.748  0.1032 -1.7587 -0.6370
  563SOL     OW 1836   0.594   3.298   2.490  1.0120 -0.4594  0.3926
  563SOL    HW1 1837   0.613   3.299   2.583 -1.8487 -1.2464  1.0737
  563SOL    HW2 1838   0.549   3.380   2.474 -1.1188 -1.5649  0.3988
  564SOL     OW 1839   3.624   1.164   1.170 -0.1896  0.3253 -0.3102
  564SOL    HW1 1840   3.624   1.226   1.097  1.6810  1.0482  0.2513
  564SOL    HW2 1841   3.539   1.120   1.164 -2.4026  4.0985  0.3175
  565SOL     OW 1842   1.930   0.857   1.663  0.5361  0.1401 -0.1751
  565SOL    HW1 1843   1.869   0.925   1.691  0.3156  0.1540 -0.6797
  565SOL    HW2 1844   1.979   0.897   1.592  1.0103  0.0652  0.1102
  566SOL     OW 1845   1.103   1.127   2.092  0.7708 -0.1907 -0.5685
  566SOL    HW1 1846   1.081   1.218   2.074 -0.3656 -0.6192 -1.4481
  566SOL    HW2 1847   1.172   1.106   2.030  1.5363  0.2626  0.1123
  567SOL     OW 1848   3.090   3.683   2.622  0.5538 -0.2231 -0.3054
  567SOL    HW1 1849   3.046   3.676   2.707  0.7849  0.9954 -0.0693
  567SOL    HW2 1850   3.100   3.592   2.593  0.1464 -0.6397  0.7957
  568SOL     OW 1851   3.214   3.115   0.835  0.0547  0.0277  0.1761
  568SOL    HW1 1852   3.270   3.170   0.890  0.7143 -0.0954 -0.3562
  568SOL    HW2 1853   3.131   3.111   0.881  0.0152  1.4351  0.2532
  569SOL     OW 1854   2.841   2.842   3.542  0.3611  0.2361 -0.4056
  569SOL    HW1 1855   2.899   2.916   3.559  1.3784 -0.4586 -0.8151
  569SOL    HW2 1856   2.783   2.873   3.472 -0.8745  1.4945  1.0755
  570SOL     OW 1857   3.501   1.702   3.564 -0.2369  0.4352 -0.0120
  570SOL    HW1 1858   3.435   1.634   3.551  0.2768  0.0677 -0.7329
  570SOL    HW2 1859   3.585   1.657   3.555  0.1322  0.8513  1.1681
  571SOL     OW 1860   1.749   2.286   0.713  0.3564 -0.2894  0.4398
  571SOL    HW1 1861   1.711   2.198   0.717  2.6870 -1.3039  2.0898
  571SOL    HW2 1862   1.843   2.272   0.717  0.8795  2.2396 -1.0525
  572SOL     OW 1863   0.905   0.575   2.538  0.4086 -0.2451  0.0360
  572SOL    HW1 1864   0.946   0.495   2.569  0.0407 -0.7691 -0.8043
  572SOL    HW2 1865   0.973   0.642   2.547  1.2916 -0.9896 -0.8195
  573SOL     OW 1866   2.897   3.670   0.922 -0.7348  0.1368  0.6555
  573SOL    HW1 1867   2.849   3.635   0.847 -0.6001  0.5484  0.3772
  573SOL    HW2 1868   2.934   3.753   0.891  0.6302 -0.4400  0.6787
  574SOL     OW 1869   3.527   1.544   1.299 -0.6962  0.2878 -0.0568
  574SOL    HW1 1870   3.587   1.525   1.372  1.7266  1.3745 -1.6327
  574SOL    HW2 1871   3.478   1.621   1.327  0.8674  1.2602  0.1396
  575SOL     OW 1872   2.425   1.424   3.384 -0.0437 -0.9865 -0.6565
  575SOL    HW1 1873   2.412   1.502   3.331 -1.3268 -1.4560 -1.0689
  575SOL    HW2 1874   2.361   1.361   3.350 -1.4170 -1.0746  1.8963
  576SOL     OW 1875   0.873   2.845   3.336  0.0239 -0.3635 -0.3256
  576SOL    HW1 1876   0.968   2.836   3.335 -0.0036 -0.7705 -2.1563
  576SOL    HW2 1877   0.849   2.863   3.245 -1.4091  2.6381  0.4886
  577SOL     OW 1878   2.781   1.028   0.465 -0.0806  0.7355 -0.0627
  577SOL    HW1 1879   2.810   0.965   0.531 -0.6432  1.6933  1.1238
  577SOL    HW2 1880   2.694   1.055   0.493 -0.8706  0.2520 -1.8811
  578SOL     OW 1881   0.812   2.175   0.443  0.2715  0.0355 -0.2571
  578SOL    HW1 1882   0.886   2.197   0.499 -0.3986  0.8370  0.3549
  578SOL    HW2 1883   0.756   2.253   0.445  0.6330  0.4627 -2.7632
  579SOL     OW 1884   1.403   3.485   2.423  0.3684 -0.4911  0.4808
  579SOL    HW1 1885   1.481   3.457   2.470  1.1082 -0.9298 -0.9415
  579SOL    HW2 1886   1.435   3.550   2.359 -0.2681 -1.2802 -0.6765
  580SOL     OW 1887   0.234   2.592   1.862  0.3090  0.9788  0.4803
  580SOL    HW1 1888   0.304   2.589   1.797 -0.9499 -0.6256 -0.8656
  580SOL    HW2 1889   0.251   2.517   1.919 -1.5983 -1.0035 -1.3576
  581SOL     OW 1890   3.519   0.899   1.986  0.0545 -0.4731 -0.3006
  581SOL    HW1 1891   3.466   0.899   2.065  0.2202 -1.3749 -0.1831
  581SOL    HW2 1892   3.460   0.932   1.917 -0.3069 -0.3903  0.0464
  582SOL     OW 1893   0.386   3.199   2.760  0.3873 -0.4183 -0.5852
  582SOL    HW1 1894   0.349   3.179   2.845  0.6698 -0.2936 -0.4317
  582SOL    HW2 1895   0.331   3.151   2.698  1.0801 -1.7134 -0.2337
  583SOL     OW 1896   1.470   0.204   0.872  0.0997  0.0594  0.1193
  583SOL    HW1 1897   1.382   0.220   0.904 -0.8258 -0.0435 -2.1541
  583SOL    HW2 1898   1.528   0.247   0.936 -1.5301 -0.2895  1.9102
  584SOL     OW 1899   3.209   1.084   2.889 -0.6773  0.3912 -0.1147
  584SOL    HW1 1900   3.218   1.000   2.845 -3.6016 -0.1188  0.0091
  584SOL    HW2 1901   3.298   1.115   2.902  0.4262 -1.8692 -1.7084
  585SOL     OW 1902   2.509   2.914   0.711  0.6928  0.0327 -0.2930
  585SOL    HW1 1903   2.422   2.905   0.751  0.2761 -1.1549 -1.3720
  585SOL    HW2 1904   2.496   2.885   0.620  1.9914  0.8912 -0.7784
  586SOL     OW 1905   0.580   2.796   1.971  0.2188 -0.3478  0.4086
  586SOL    HW1 1906   0.648   2.859   1.997 -0.6323  1.4738 -1.4742
  586SOL    HW2 1907   0.605   2.715   2.015  3.4795  0.2915 -0.0093
  587SOL     OW 1908   0.026   3.453   0.889 -0.1481 -0.2921  0.5047
  587SOL    HW1 1909   0.051   3.467   0.798 -1.6488 -2.1290 -0.2717
  587SOL    HW2 1910  -0.021   3.533   0.914  1.4925  0.8192  0.1815
  588SOL     OW 1911   1.695   3.625   2.514  0.5383  0.3495  0.7609
  588SOL    HW1 1912   1.649   3.704   2.542  1.8044  1.0103  1.0910
  588SOL    HW2 1913   1.710   3.576   2.595 -1.2726 -0.8523  0.4252
  589SOL     OW 1914   2.790   1.266   3.610  0.6031 -0.3299  0.3135
  589SOL    HW1 1915   2.759   1.247   3.521  0.2338  1.3961  0.0524
  589SOL    HW2 1916   2.864   1.325   3.598 -0.9693  1.9586  1.1634
  590SOL     OW 1917   1.192   3.075   2.138 -0.8537 -0.4563  0.1217
  590SOL    HW1 1918   1.244   3.072   2.057 -3.2098 -2.0902 -1.4766
  590SOL    HW2 1919   1.226   3.150   2.185  1.8323 -0.4745 -1.5358
  591SOL     OW 1920   2.843   3.225   3.010 -0.3375 -0.2181 -0.2018
  591SOL    HW1 1921   2.789   3.233   2.932  2.0309 -2.6400 -2.3254
  591SOL    HW2 1922   2.884   3.311   3.020 -3.7949  1.4523  1.0566
  592SOL     OW 1923   1.078   0.665   1.921 -1.0614  0.2042 -0.4239
  592SOL    HW1 1924   1.142   0.736   1.916 -0.2994 -0.5089 -1.2046
  592SOL    HW2 1925   1.000   0.706   1.959  0.2391  0.7955  1.8039
  593SOL     OW 1926   3.006   0.486   3.713 -0.2352 -0.4230 -0.1762
  593SOL    HW1 1927   2.998   0.391   3.721 -2.9872 -0.2646 -0.0787
  593SOL    HW2 1928   3.049   0.499   3.628 -0.9130 -1.7634 -0.7528
  594SOL     OW 1929   1.499   2.908   1.135  0.1456  0.1065 -0.1266
  594SOL    HW1 1930   1.422   2.946   1.177  0.0097  0.1011 -0.3673
  594SOL    HW2 1931   1.564   2.900   1.205  0.2336  0.9259 -0.1125
  595SOL     OW 1932   1.182   0.944   1.401  0.1953 -0.8593 -0.0275
  595SOL    HW1 1933   1.091   0.935   1.429  0.5986  0.7037  1.9944
  595SOL    HW2 1934   1.177   0.998   1.322 -0.5217  3.6746  2.7318
  596SOL     OW 1935   0.547   1.824   0.821 -0.3933  0.7646 -0.0650
  596SOL    HW1 1936   0.581   1.905   0.782  0.7448  1.4067  2.1052
  596SOL    HW2 1937   0.542   1.843   0.915 -1.8031 -1.1170  0.2862
  597SOL     OW 1938   0.238   3.611   3.186 -0.5276  0.2407  0.1550
  597SOL    HW1 1939   0.268   3.701   3.188  0.5968 -0.1430  1.6169
  597SOL    HW2 1940   0.155   3.615   3.137 -0.3644  1.9973 -0.0404
  598SOL     OW 1941   2.114   2.189   1.484 -0.0744  0.0282 -0.0187
  598SOL    HW1 1942   2.027   2.169   1.447 -0.5613 -0.3283  1.2593
  598SOL    HW2 1943   2.111   2.283   1.503 -0.6469 -0.2063  1.1395
  599SOL     OW 1944   0.148   0.070   1.935 -0.0020 -0.0480 -0.6323
  599SOL    HW1 1945   0.169   0.017   1.858  0.5319  0.9634 -1.2147
  599SOL    HW2 1946   0.205   0.038   2.004 -0.3350 -0.8269 -0.7111
  600SOL     OW 1947   2.040   1.980   3.630  0.3914  0.6816  0.8278
  600SOL    HW1 1948   2.117   1.969   3.575 -1.0602 -1.9203 -0.8958
  600SOL    HW2 1949   1.997   2.059   3.597  1.9902  1.8780  1.4887
  601SOL     OW 1950   1.863   2.268   0.044 -0.6235  0.2758  0.7467
  601SOL    HW1 1951   1.948   2.264   0.088  0.1338  0.1749 -0.6765
  601SOL    HW2 1952   1.808   2.206   0.092  0.6099 -0.9448  0.6420
  602SOL     OW 1953   2.234   2.961   1.774  0.0746 -0.1416  0.0921
  602SOL    HW1 1954   2.319   2.944   1.813  0.5670  1.6110 -0.1202
  602SOL    HW2 1955   2.176   2.975   1.849  0.1066 -0.7129  0.2284
  603SOL     OW 1956   0.373   0.842   0.234 -0.7691  0.5062 -0.4929
  603SOL    HW1 1957   0.317   0.866   0.160  1.1886 -0.2754 -2.3291
  603SOL    HW2 1958   0.423   0.922   0.253 -0.7050  0.4786 -0.5457
  604SOL     OW 1959   2.726   1.567   2.238 -0.6568 -0.0402  0.0309
  604SOL    HW1 1960   2.798   1.623   2.268 -0.6595 -0.5989  1.1544
  604SOL    HW2 1961   2.659   1.628   2.207 -0.6343  0.5996  1.1893
  605SOL     OW 1962   1.002   3.054   0.458  0.9125  0.1224 -0.5405
  605SOL    HW1 1963   0.983   3.128   0.516 -0.0081 -0.3891 -0.1789
  605SOL    HW2 1964   0.965   3.079   0.373  1.9757  0.7307 -0.8490
  606SOL     OW 1965   2.828   2.101   0.894 -0.9141  0.3497  0.2516
  606SOL    HW1 1966   2.765   2.144   0.837  0.2506  0.0155 -1.3586
  606SOL    HW2 1967   2.904   2.160   0.894  0.4476 -1.3045 -1.4575
  607SOL     OW 1968   0.329   1.328   3.247 -0.3777 -0.1277 -1.1137
  607SOL    HW1 1969   0.325   1.268   3.172 -0.0162 -2.2194  0.4393
  607SOL    HW2 1970   0.407   1.301   3.295 -0.2105  1.6225 -0.3198
  608SOL     OW 1971   1.729   0.250   2.747 -0.6948  0.2742  0.1590
  608SOL    HW1 1972   1.745   0.300   2.827 -0.8990  0.1828  0.2587
  608SOL    HW2 1973   1.800   0.276   2.688  1.1210 -1.7072  1.3298
  609SOL     OW 1974   0.478   3.089   2.309 -0.2891 -0.2449  0.3807
  609SOL    HW1 1975   0.512   3.124   2.226  0.5512  2.1215  1.6283
  609SOL    HW2 1976   0.546   3.107   2.373 -0.2749 -3.3716  1.4085
  610SOL     OW 1977   3.242   0.701   2.082 -0.0192  0.5918  0.2792
  610SOL    HW1 1978   3.199   0.616   2.077 -0.0060  0.5289  1.1026
  610SOL    HW2 1979   3.216   0.746   2.001 -0.0009 -0.1962 -0.1785
  611SOL     OW 1980   1.880   0.999   3.263  0.3887 -0.3165  0.1930
  611SOL    HW1 1981   1.842   0.924   3.218 -0.0713  0.0012  0.0443
  611SOL    HW2 1982   1.895   0.969   3.353  2.5035 -1.3709 -0.4517
  612SOL     OW 1983   3.371   3.357   2.322  0.1706 -0.2544 -0.5503
  612SOL    HW1 1984   3.392   3.444   2.287 -2.6620  0.4244 -0.7459
  612SOL    HW2 1985   3.456   3.324   2.353  0.9880  4.0955  3.0038
  613SOL     OW 1986   0.153   2.946   3.217  0.1651 -0.5428  0.1912
  613SOL    HW1 1987   0.132   2.865   3.169 -0.8656  0.3542 -0.9481
  613SOL    HW2 1988   0.070   2.969   3.260 -0.4643  1.4087 -1.8479
  614SOL     OW 1989   3.451   0.169   0.774 -0.3719 -0.1381 -0.5279
  614SOL    HW1 1990   3.506   0.178   0.696  2.0947 -0.0193  1.1194
  614SOL    HW2 1991   3.380   0.232   0.761 -0.1584 -0.2443 -2.7060
  615SOL     OW 1992   1.378   1.267   1.417  0.3629  0.5384 -0.5262
  615SOL    HW1 1993   1.346   1.352   1.385 -0.4865 -0.0521 -1.3130
  615SOL    HW2 1994   1.447   1.244   1.355  0.2088  0.3996 -0.6469
  616SOL     OW 1995   3.616   0.353   2.072  0.3011 -0.3291  0.4690
  616SOL    HW1 1996   3.709   0.368   2.088  0.1503 -0.1281  1.2186
  616SOL    HW2 1997   3.612   0.265   2.036  0.8776  0.0660 -0.6111
  617SOL     OW 1998   0.108   2.430   0.449  0.3547  0.1752 -0.0627
  617SOL    HW1 1999   0.057   2.377   0.387  1.9073 -0.0407 -1.2275
  617SOL    HW2 2000   0.154   2.494   0.394  1.8001 -0.0326  0.8465
  618SOL     OW 2001   2.430   1.956   2.857  0.4923  0.0804  0.1842
  618SOL    HW1 2002   2.470   2.023   2.912 -0.1890 -0.1641  1.0093
  618SOL    HW2 2003   2.434   1.876   2.910  1.7254 -0.6676 -0.9749
  619SOL     OW 2004   3.539   1.997   3.501  0.2172 -0.7257 -0.2062
  619SOL    HW1 2005   3.527   1.912   3.543  2.0617 -1.2572 -0.6652
  619SOL    HW2 2006   3.600   1.980   3.429 -0.6910  0.6919 -1.3566
  620SOL     OW 2007   0.767   2.927   0.468 -0.4885 -0.3089  0.0355
  620SOL    HW1 2008   0.719   2.949   0.547 -0.9875 -2.0350  0.2516
  620SOL    HW2 2009   0.859   2.939   0.491 -0.6419 -0.5942  0.8166
  621SOL     OW 2010   2.533   1.100   1.620  0.2672  0.2710  0.1198
  621SOL    HW1 2011   2.494   1.144   1.696 -0.5013  0.2215 -0.2371
  621SOL    HW2 2012   2.459   1.080   1.563  0.5449 -1.8094  0.4204
  622SOL     OW 2013   3.182   3.308   1.348 -0.4407  0.6793 -0.2943
  622SOL    HW1 2014   3.273   3.295   1.324  0.7488  0.4177  3.5734
  622SOL    HW2 2015   3.143   3.221   1.343  0.9557 -0.2448  2.5158
  623SOL     OW 2016   2.621   0.004   3.718  0.5646  0.2854  0.5705
  623SOL    HW1 2017   2.691   0.013   3.654 -0.6810  0.0656 -0.8727
  623SOL    HW2 2018   2.632   0.079   3.776  2.1534  0.0884  0.5642
  624SOL     OW 2019   1.233   0.852   2.494  0.4268 -0.2821 -0.3461
  624SOL    HW1 2020   1.231   0.757   2.483  3.7749 -0.2765 -2.3152
  624SOL    HW2 2021   1.180   0.885   2.422 -1.0618 -0.5970  0.5633
  625SOL     OW 2022   2.757   1.945   1.337  0.4064 -0.0153 -0.3679
  625SOL    HW1 2023   2.779   1.945   1.244 -1.5232 -1.8804 -0.9069
  625SOL    HW2 2024   2.677   1.998   1.342  1.8565  2.2239  0.6918
  626SOL     OW 2025   2.703   0.312   3.522 -0.2186 -0.2391  0.1587
  626SOL    HW1 2026   2.786   0.355   3.503 -0.0374 -1.0942 -1.1868
  626SOL    HW2 2027   2.724   0.246   3.588  0.1652 -0.3771 -0.0968
  627SOL     OW 2028   2.615   0.942   2.497  0.0641  1.0430  0.0978
  627SOL    HW1 2029   2.552   1.002   2.536 -0.1429 -0.4520  2.3146
  627SOL    HW2 2030   2.699   0.986   2.507  0.0098  0.7941  2.3204
  628SOL     OW 2031   1.905   1.692   2.116 -0.5331  0.3569 -0.7263
  628SOL    HW1 2032   1.939   1.617   2.067 -0.0866  0.1621 -0.1178
  628SOL    HW2 2033   1.845   1.734   2.054 -0.4376 -0.2304 -1.2371
  629SOL     OW 2034   3.328   2.894   1.503  0.6365  0.0125  0.1046
  629SOL    HW1 2035   3.363   2.858   1.584 -0.2415  0.8401  0.8742
  629SOL    HW2 2036   3.261   2.956   1.531  0.7323  0.7687 -1.2320
  630SOL     OW 2037   1.482   1.444   0.337 -0.0595 -0.3342  0.2814
  630SOL    HW1 2038   1.482   1.363   0.387 -1.5566  0.0363  0.9241
  630SOL    HW2 2039   1.520   1.420   0.252 -0.0396 -1.5810  0.6270
  631SOL     OW 2040   2.649   1.793   0.952  0.0669  0.5592 -0.2792
  631SOL    HW1 2041   2.611   1.877   0.978 -1.6774 -0.2506 -0.0535
  631SOL    HW2 2042   2.617   1.731   1.018  0.0013 -0.5672 -1.3342
  632SOL     OW 2043   0.300   1.950   1.032  0.1786 -0.2569  0.5633
  632SOL    HW1 2044   0.245   1.872   1.032 -1.1499  0.6593  0.5085
  632SOL    HW2 2045   0.275   1.997   0.953  0.2198  0.7449  1.1332
  633SOL     OW 2046   1.225   2.154   3.598  0.0395 -0.4542 -0.0113
  633SOL    HW1 2047   1.181   2.207   3.532  0.3525  0.3247  0.3940
  633SOL    HW2 2048   1.154   2.115   3.648 -0.2043  0.2278  0.1935
  634SOL     OW 2049   0.793   1.735   2.916 -0.0804 -0.4928 -0.2235
  634SOL    HW1 2050   0.859   1.791   2.875 -1.2366  1.2612  0.1895
  634SOL    HW2 2051   0.748   1.694   2.842  0.6270 -0.7089 -0.5464
  635SOL     OW 2052   0.393   3.229   3.354 -0.0702 -0.5622  0.9138
  635SOL    HW1 2053   0.412   3.323   3.356  0.4304 -0.5364 -1.5379
  635SOL    HW2 2054   0.311   3.220   3.402 -0.5290  1.2720  0.5447
  636SOL     OW 2055   3.750   2.479   2.113 -0.7931  0.2900 -0.3312
  636SOL    HW1 2056   3.702   2.412   2.066 -0.6373  0.2004 -0.3632
  636SOL    HW2 2057   3.686   2.549   2.128 -0.8630  0.2813 -0.5991
  637SOL     OW 2058   1.280   2.463   0.984  0.0269  0.1686 -0.3716
  637SOL    HW1 2059   1.334   2.510   1.048  0.4796 -0.5822 -0.1870
  637SOL    HW2 2060   1.331   2.468   0.903  0.7478 -1.1578 -0.0273
  638SOL     OW 2061   0.303   2.839   1.968 -0.2218 -1.1222  0.5117
  638SOL    HW1 2062   0.392   2.804   1.971 -0.0816 -0.8816 -0.5323
  638SOL    HW2 2063   0.249   2.765   1.941 -0.2721 -1.1398  0.6575
  639SOL     OW 2064   0.917   3.067   2.612 -0.0259 -0.0990  0.3444
  639SOL    HW1 2065   0.937   3.144   2.559  0.5949 -1.0645 -0.8872
  639SOL    HW2 2066   0.916   3.099   2.702 -1.2143  1.6087 -0.2371
  640SOL     OW 2067   0.328   2.185   1.194  0.3128  0.2670 -0.3230
  640SOL    HW1 2068   0.251   2.133   1.217  1.3451 -0.9720  0.5011
  640SOL    HW2 2069   0.385   2.124   1.147  0.3929  1.4324 -1.8252
  641SOL     OW 2070   3.509   0.291   0.507  0.4069  0.2837 -0.0386
  641SOL    HW1 2071   3.480   0.207   0.472 -1.5152  0.9169 -0.0789
  641SOL    HW2 2072   3.585   0.314   0.453  1.0443 -1.4519  0.0599
  642SOL     OW 2073   3.224   1.417   2.618  0.0878  0.2428  0.0514
  642SOL    HW1 2074   3.234   1.487   2.553  0.3143  0.1336 -0.0330
  642SOL    HW2 2075   3.306   1.368   2.613  0.6809  1.0563  1.3962
  643SOL     OW 2076   0.345   1.793   2.336 -1.0868 -0.2014  0.1412
  643SOL    HW1 2077   0.291   1.742   2.397  0.3352 -0.1651  1.4897
  643SOL    HW2 2078   0.293   1.871   2.317 -1.2802  0.1192  1.8705
  644SOL     OW 2079   3.580   2.010   1.843 -0.1909 -0.1326  0.0359
  644SOL    HW1 2080   3.557   2.048   1.928 -0.0084 -0.4868  0.2455
  644SOL    HW2 2081   3.666   1.970   1.857 -0.4432 -0.7477 -0.1400
  645SOL     OW 2082   1.613   3.678   0.432 -0.8036  0.2825  0.2333
  645SOL    HW1 2083   1.597   3.735   0.507  1.5292  1.7734 -0.3216
  645SOL    HW2 2084   1.663   3.605   0.469 -0.8720  0.3020  0.3673
  646SOL     OW 2085   3.607   2.592   0.557 -0.1483 -0.6978 -0.8181
  646SOL    HW1 2086   3.692   2.550   0.570 -0.2121 -0.6291 -0.1509
  646SOL    HW2 2087   3.604   2.613   0.463 -0.5130 -3.0299 -1.3756
  647SOL     OW 2088   3.590   3.484   0.456  0.5207  0.4063  0.2950
  647SOL    HW1 2089   3.651   3.432   0.509  0.0845 -1.2981 -0.7937
  647SOL    HW2 2090   3.646   3.531   0.395  0.8023 -1.0113 -0.5796
  648SOL     OW 2091   0.260   3.246   1.332  0.4222 -0.2655 -0.7329
  648SOL    HW1 2092   0.336   3.287   1.374  0.4837 -1.1014 -0.0126
  648SOL    HW2 2093   0.218   3.196   1.402 -0.7803  0.1478 -1.1341
  649SOL     OW 2094   0.975   3.025   3.087 -0.2700 -0.5745  0.8249
  649SOL    HW1 2095   1.038   2.956   3.065  0.5809  0.3797  0.2077
  649SOL    HW2 2096   0.896   3.002   3.038  0.1293 -0.9060  0.3381
  650SOL     OW 2097   2.301   3.524   2.503 -0.2831  1.1231  0.0901
  650SOL    HW1 2098   2.225   3.480   2.540  0.1792 -0.2251 -0.4680
  650SOL    HW2 2099   2.278   3.617   2.500 -1.8543  0.7474  0.0304
  651SOL     OW 2100   2.328   2.565   1.155  0.3485 -0.1325  0.0250
  651SOL    HW1 2101   2.417   2.588   1.129  0.3593  0.6624  0.7323
  651SOL    HW2 2102   2.328   2.571   1.251 -0.0206 -1.7863  0.1633
  652SOL     OW 2103   3.462   0.589   1.866 -0.0193  0.7177 -0.1573
  652SOL    HW1 2104   3.438   0.657   1.929 -0.8539  1.8892 -1.6694
  652SOL    HW2 2105   3.405   0.515   1.888 -1.9556  1.9084 -0.9104
  653SOL     OW 2106   1.234   3.113   3.045  0.2089  0.8886 -0.1290
  653SOL    HW1 2107   1.140   3.131   3.058  0.3919  1.1717  0.9279
  653SOL    HW2 2108   1.243   3.101   2.951 -1.0738 -0.1843 -0.1495
  654SOL     OW 2109   3.598   1.822   2.100  0.5612 -0.3955  0.3964
  654SOL    HW1 2110   3.526   1.808   2.039  0.0607  1.9980  0.3567
  654SOL    HW2 2111   3.564   1.883   2.165  1.9340 -0.7990  1.5564
  655SOL     OW 2112   3.537   1.661   2.374 -0.0012 -0.0933 -0.8207
  655SOL    HW1 2113   3.533   1.725   2.302  3.4410  0.4631 -0.6746
  655SOL    HW2 2114   3.544   1.714   2.453 -0.1521 -0.6654 -0.4210
  656SOL     OW 2115   2.199   3.066   2.353 -0.1283 -0.0663 -0.5980
  656SOL    HW1 2116   2.282   3.077   2.399  0.9031 -0.4954 -2.2669
  656SOL    HW2 2117   2.152   3.148   2.368  0.2365 -0.1105  1.0004
  657SOL     OW 2118   3.452   0.955   3.352  0.4888 -0.1088  0.2932
  657SOL    HW1 2119   3.404   0.991   3.426  0.0068  0.3822 -0.2498
  657SOL    HW2 2120   3.426   0.863   3.349 -0.6536  0.2157 -0.1661
  658SOL     OW 2121   2.592   1.557   1.149 -0.3041 -0.0662 -0.2448
  658SOL    HW1 2122   2.612   1.484   1.091 -0.4945 -0.4282  0.1420
  658SOL    HW2 2123   2.677   1.579   1.189 -0.7336 -2.1061  1.9765
  659SOL     OW 2124   2.278   1.251   3.223  0.5941 -0.2971 -0.1901
  659SOL    HW1 2125   2.348   1.215   3.169  2.0138 -0.2793  1.5634
  659SOL    HW2 2126   2.214   1.180   3.230  1.6458 -1.2275  0.2338
  660SOL     OW 2127   2.737   2.154   3.679  1.0108  0.2584 -0.3699
  660SOL    HW1 2128   2.709   2.240   3.710 -0.0900 -0.3123  0.2823
  660SOL    HW2 2129   2.662   2.122   3.629  1.2985 -0.4488 -0.3468
  661SOL     OW 2130   1.619   2.518   2.967 -0.0638 -0.1030  0.5104
  661SOL    HW1 2131   1.662   2.432   2.971  1.2898  0.4154 -1.3790
  661SOL    HW2 2132   1.690   2.580   2.953 -1.3064  0.8034 -2.8685
  662SOL     OW 2133   0.528   1.043   2.223  0.2546  0.3136  0.6612
  662SOL    HW1 2134   0.571   1.061   2.140 -0.1224 -2.3564 -0.2148
  662SOL    HW2 2135   0.488   0.957   2.211  0.6844 -0.4444  3.7977
  663SOL     OW 2136   2.263   3.299   1.971  0.4564  0.0294  0.5698
  663SOL    HW1 2137   2.288   3.315   1.880 -1.6588 -1.0350 -0.2479
  663SOL    HW2 2138   2.292   3.378   2.018 -0.0528  1.4263 -1.3580
  664SOL     OW 2139   2.787   3.551   1.371 -0.2109  0.1027  0.1425
  664SOL    HW1 2140   2.781   3.510   1.285 -0.9529  1.4033 -0.4549
  664SOL    HW2 2141   2.822   3.639   1.353  1.7418 -0.3411  1.4192
  665SOL     OW 2142   2.081   0.899   1.196  0.2423 -0.4090 -0.2624
  665SOL    HW1 2143   2.027   0.894   1.275 -0.0758 -1.8722 -0.5541
  665SOL    HW2 2144   2.058   0.983   1.157 -2.2055 -1.1893 -0.6352
  666SOL     OW 2145   1.320   0.185   3.250 -0.7530  0.6034  0.4160
  666SOL    HW1 2146   1.290   0.257   3.194  0.4793  0.3292 -0.6247
  666SOL    HW2 2147   1.278   0.107   3.213  0.2958  0.3798 -0.3349
  667SOL     OW 2148   3.268   0.407   1.904 -0.5509  0.3931  0.2878
  667SOL    HW1 2149   3.301   0.346   1.837  1.0534  0.6944  0.7698
  667SOL    HW2 2150   3.190   0.446   1.864 -0.1861 -0.1589 -1.0195
  668SOL     OW 2151   0.904   1.888   0.669 -0.3995  0.2900 -0.2865
  668SOL    HW1 2152   0.968   1.942   0.623  0.6695 -0.5909  0.1219
  668SOL    HW2 2153   0.882   1.939   0.747  2.4190 -0.7746  1.3657
  669SOL     OW 2154   1.896   0.838   2.577 -0.2507 -0.3139 -0.5562
  669SOL    HW1 2155   1.951   0.790   2.516 -0.4913  1.3449 -2.1890
  669SOL    HW2 2156   1.906   0.930   2.551 -2.1745  0.2330  0.4091
  670SOL     OW 2157   2.118   1.934   1.430  0.3514  0.3045 -0.8327
  670SOL    HW1 2158   2.161   1.897   1.506 -1.2634  0.9731  0.4583
  670SOL    HW2 2159   2.110   2.027   1.449 -2.4606  0.0902 -0.5454
  671SOL     OW 2160   2.364   0.467   3.613 -0.0650 -0.8958  0.1349
  671SOL    HW1 2161   2.345   0.379   3.644  0.7394 -1.2971 -0.4610
  671SOL    HW2 2162   2.350   0.524   3.689  0.4817 -1.6700  0.8287
  672SOL     OW 2163   1.279   0.660   3.682 -0.2786 -0.2460  0.0609
  672SOL    HW1 2164   1.227   0.599   3.734 -1.0040  0.7461  0.5270
  672SOL    HW2 2165   1.323   0.605   3.618 -0.8067 -1.2761  0.5579
  673SOL     OW 2166   2.466   1.257   2.328  0.2190 -0.3190  0.3568
  673SOL    HW1 2167   2.407   1.186   2.351  0.7975 -1.1198 -0.5480
  673SOL    HW2 2168   2.424   1.336   2.362 -1.7904 -0.7465 -0.9855
  674SOL     OW 2169   2.351   3.092   0.488 -0.0314  0.2660  0.3450
  674SOL    HW1 2170   2.436   3.053   0.508 -0.8497 -2.2005 -0.6308
  674SOL    HW2 2171   2.298   3.074   0.565 -0.0503  0.6811  0.4335
  675SOL     OW 2172   1.092   0.666   0.990 -0.5617 -0.1349  0.3821
  675SOL    HW1 2173   1.133   0.654   1.076 -1.8376 -0.8678  0.9319
  675SOL    HW2 2174   1.002   0.690   1.010 -0.3176  1.9607 -0.7840
  676SOL     OW 2175   3.126   0.255   3.443 -0.1411  0.0523 -0.1660
  676SOL    HW1 2176   3.173   0.331   3.411 -0.5632  0.0540 -0.7959
  676SOL    HW2 2177   3.090   0.213   3.365 -2.4801  0.9104  0.3470
  677SOL     OW 2178   2.254   2.109   1.225 -0.3578  0.3803  0.0988
  677SOL    HW1 2179   2.243   2.029   1.276 -2.0620  0.9719  0.7577
  677SOL    HW2 2180   2.203   2.174   1.273 -0.4063  1.4338 -1.3327
  678SOL     OW 2181   3.667   1.994   1.149 -0.5089 -0.0948  0.3577
  678SOL    HW1 2182   3.742   1.949   1.188 -0.9326 -1.2790 -0.1450
  678SOL    HW2 2183   3.623   1.926   1.098  0.7743  1.5769 -3.3674
  679SOL     OW 2184   2.770   3.427   1.123 -0.3957  0.7680  0.0903
  679SOL    HW1 2185   2.798   3.494   1.060 -0.2697 -0.0258 -0.7112
  679SOL    HW2 2186   2.677   3.412   1.102 -0.1274 -0.1245 -0.4940
  680SOL     OW 2187   3.250   3.040   2.816 -0.3049  0.0741  0.6596
  680SOL    HW1 2188   3.236   3.050   2.910  0.7547  1.3866  0.7108
  680SOL    HW2 2189   3.271   2.947   2.804 -1.6534 -0.3658  1.5265
  681SOL     OW 2190   2.482   0.178   3.075  0.8071  0.4676 -0.0542
  681SOL    HW1 2191   2.512   0.250   3.019  0.0435 -0.0374 -1.1421
  681SOL    HW2 2192   2.490   0.213   3.164  0.2947  1.9854 -0.5609
  682SOL     OW 2193   2.140   2.137   0.944 -0.1395 -0.3264 -0.4594
  682SOL    HW1 2194   2.180   2.221   0.969  0.8276 -1.2309  1.1995
  682SOL    HW2 2195   2.139   2.086   1.025 -0.0442 -2.1874 -1.5846
  683SOL     OW 2196   1.192   2.410   0.091  0.1205 -0.0132 -0.1488
  683SOL    HW1 2197   1.271   2.408   0.038  0.3261  2.7324 -0.1056
  683SOL    HW2 2198   1.124   2.443   0.031 -1.0898 -2.4245 -0.2177
  684SOL     OW 2199   0.144   3.541   3.534 -0.0603 -0.2687 -0.3697
  684SOL    HW1 2200   0.153   3.635   3.552 -1.6485 -0.1078 -0.3301
  684SOL    HW2 2201   0.099   3.537   3.450  2.3493 -1.0377 -1.7230
  685SOL     OW 2202   3.131   0.646   1.185  0.0464 -0.3381 -0.0974
  685SOL    HW1 2203   3.125   0.597   1.267 -1.3905 -0.8512 -0.4679
  685SOL    HW2 2204   3.210   0.613   1.143 -0.1202 -1.3030  0.3201
  686SOL     OW 2205   1.865   0.833   0.832 -0.4113  0.0432  0.1054
  686SOL    HW1 2206   1.808   0.885   0.775 -1.1800 -0.0157  0.8045
  686SOL    HW2 2207   1.809   0.762   0.863  0.8706 -1.8188 -1.6082
  687SOL     OW 2208   3.108   0.066   2.320  0.6096  0.3419 -0.5262
  687SOL    HW1 2209   3.137   0.016   2.244  1.0974  0.5884 -0.5076
  687SOL    HW2 2210   3.169   0.139   2.326  0.5364  0.3646  0.0613
  688SOL     OW 2211   3.322   3.691   0.975  0.1400 -0.4052  0.2512
  688SOL    HW1 2212   3.371   3.665   0.897  0.9292  1.1854  0.1680
  688SOL    HW2 2213   3.314   3.786   0.967  0.1952 -0.2123  2.0887
  689SOL     OW 2214   0.739   1.465   2.329 -0.4221 -0.2428  0.0319
  689SOL    HW1 2215   0.762   1.460   2.237 -0.2483  1.2261 -0.0307
  689SOL    HW2 2216   0.705   1.378   2.350 -1.1090 -0.4005 -1.5800
  690SOL     OW 2217   2.968   1.055   3.610  0.0110 -0.0969  0.0033
  690SOL    HW1 2218   3.034   1.098   3.665 -0.1287 -0.1664  0.2267
  690SOL    HW2 2219   2.887   1.103   3.628 -0.2471 -0.7331  0.5963
  691SOL     OW 2220   0.494   1.580   2.437  0.4148  0.0562 -0.3017
  691SOL    HW1 2221   0.557   1.535   2.381 -1.1974  0.2276 -2.3916
  691SOL    HW2 2222   0.479   1.664   2.393 -1.5494 -0.1457 -0.0904
  692SOL     OW 2223   1.395   1.853   1.768 -0.1642 -0.2282  0.2284
  692SOL    HW1 2224   1.411   1.803   1.688 -0.0773 -0.6755  0.5208
  692SOL    HW2 2225   1.323   1.911   1.746 -1.5902 -1.8480  0.4556
  693SOL     OW 2226   1.696   0.200   2.400 -0.3933  0.2115  0.3342
  693SOL    HW1 2227   1.770   0.186   2.460 -0.7032 -2.3800  0.2260
  693SOL    HW2 2228   1.729   0.171   2.315 -1.3894 -0.6062  0.2133
  694SOL     OW 2229   1.801   1.164   3.690  0.1642 -0.0177 -0.0976
  694SOL    HW1 2230   1.822   1.084   3.642 -2.8892 -1.6658  1.0123
  694SOL    HW2 2231   1.783   1.229   3.622  1.2427 -0.6828 -1.0507
  695SOL     OW 2232   1.837   1.683   0.427  0.4797  0.6083  0.6065
  695SOL    HW1 2233   1.837   1.778   0.420 -2.8840  0.7833  1.1551
  695SOL    HW2 2234   1.815   1.651   0.340 -1.5147  0.5850  1.0649
  696SOL     OW 2235   0.199   3.679   2.535  0.5207 -0.0125 -0.2350
  696SOL    HW1 2236   0.168   3.642   2.618  1.1985 -1.6831 -0.7039
  696SOL    HW2 2237   0.292   3.698   2.551  0.4069  0.6446 -0.3052
  697SOL     OW 2238   0.099   3.004   1.996  0.2163 -0.3672 -0.2212
  697SOL    HW1 2239   0.077   3.039   1.910  2.4160  0.4971 -0.5111
  697SOL    HW2 2240   0.159   2.932   1.978 -1.7742 -2.3210  0.5209
  698SOL     OW 2241   0.728   2.153   1.854  0.4809  0.1649 -0.2953
  698SOL    HW1 2242   0.686   2.216   1.912  2.0830  0.1487  0.9515
  698SOL    HW2 2243   0.704   2.182   1.766 -1.7634  0.3656  0.3037
  699SOL     OW 2244   2.721   1.748   0.086  0.0451  0.3906 -0.3939
  699SOL    HW1 2245   2.626   1.745   0.077  0.0792 -0.3287 -0.5490
  699SOL    HW2 2246   2.750   1.659   0.069  0.5029 -0.1558  2.7168
  700SOL     OW 2247   1.944   2.099   2.610  0.1689 -0.1221  0.0328
  700SOL    HW1 2248   1.989   2.173   2.649  0.5985  0.1441 -0.9423
  700SOL    HW2 2249   1.979   2.023   2.655 -1.6399  0.3231  2.3887
  701SOL     OW 2250   2.829   3.650   3.536  0.2824 -0.0368  0.0835
  701SOL    HW1 2251   2.819   3.615   3.448  0.4984  0.1777 -0.0282
  701SOL    HW2 2252   2.898   3.597   3.575 -0.4581 -0.7526  0.4545
  702SOL     OW 2253   1.432   1.249   0.106 -0.2768  0.4906 -0.3999
  702SOL    HW1 2254   1.427   1.211   0.018 -2.4510 -0.6679  0.1622
  702SOL    HW2 2255   1.500   1.198   0.150 -1.9247 -1.6676 -0.2184
  703SOL     OW 2256   1.205   2.754   0.109  0.3515  0.5704 -0.9061
  703SOL    HW1 2257   1.197   2.789   0.198  0.5222 -0.6826 -0.3723
  703SOL    HW2 2258   1.134   2.795   0.060  0.0462  1.0173 -0.1078
  704SOL     OW 2259   0.441   3.059   0.216 -0.2307 -0.4823  0.1184
  704SOL    HW1 2260   0.438   3.001   0.292  1.3326 -0.9134 -0.1084
  704SOL    HW2 2261   0.504   3.127   0.241 -1.8657  1.0185  0.2906
  705SOL     OW 2262   2.103   1.200   0.826 -0.5150 -0.2279  0.6404
  705SOL    HW1 2263   2.061   1.285   0.815 -0.1805 -0.1760 -0.2779
  705SOL    HW2 2264   2.081   1.151   0.747  0.8573 -0.3102  0.2768
  706SOL     OW 2265   2.393   2.866   1.256  0.3571 -0.5019 -0.1502
  706SOL    HW1 2266   2.447   2.845   1.332  0.8959  0.1161 -0.3493
  706SOL    HW2 2267   2.453   2.910   1.196 -0.2412 -0.3103 -0.6130
  707SOL     OW 2268   1.570   1.715   3.498 -0.1164  0.0764  0.6706
  707SOL    HW1 2269   1.616   1.687   3.578 -1.9147 -1.5857  1.2257
  707SOL    HW2 2270   1.486   1.669   3.502 -0.1734 -0.2806 -2.3386
  708SOL     OW 2271   1.308   2.827   1.459 -0.0490  0.4430  0.2231
  708SOL    HW1 2272   1.322   2.744   1.413  1.1835 -0.4014  2.0001
  708SOL    HW2 2273   1.297   2.802   1.551 -4.1983  1.8929  0.3245
  709SOL     OW 2274   3.648   2.977   1.465  0.0340 -0.4081 -0.1263
  709SOL    HW1 2275   3.689   2.993   1.379 -0.3742 -0.5361 -0.3474
  709SOL    HW2 2276   3.566   2.932   1.444 -1.1152  1.4617  0.2016
  710SOL     OW 2277   2.754   1.251   0.714 -0.1139 -0.2725 -0.0791
  710SOL    HW1 2278   2.772   1.180   0.776  0.8232 -0.6131 -0.7039
  710SOL    HW2 2279   2.688   1.215   0.656  1.6087 -1.3685 -1.4858
  711SOL     OW 2280   0.811   2.058   0.852  0.3567 -0.1878 -0.4339
  711SOL    HW1 2281   0.865   2.115   0.798  0.2159  1.2118  0.8336
  711SOL    HW2 2282   0.868   2.033   0.925 -1.1978  3.3604  2.3349
  712SOL     OW 2283  -0.015   3.128   2.202  0.4405 -0.0656  0.1692
  712SOL    HW1 2284   0.070   3.171   2.203 -0.3359  1.6232 -1.4529
  712SOL    HW2 2285  -0.013   3.070   2.127 -0.0554  0.4934 -0.2883
  713SOL     OW 2286   1.252   0.925   3.594 -0.8934 -0.0554  0.3803
  713SOL    HW1 2287   1.263   0.831   3.608  1.1410  0.6161  5.1651
  713SOL    HW2 2288   1.340   0.957   3.574 -1.1178  1.0836  1.1310
  714SOL     OW 2289   0.963   2.303   1.236 -0.4439 -0.3000 -0.3012
  714SOL    HW1 2290   0.968   2.351   1.319  1.0758  0.6395 -0.8946
  714SOL    HW2 2291   1.044   2.253   1.232 -0.9786 -1.1499 -0.7614
  715SOL     OW 2292   0.356   3.314   0.360  0.0890  0.1208 -0.0337
  715SOL    HW1 2293   0.405   3.371   0.419  1.2345  0.2232 -1.0358
  715SOL    HW2 2294   0.369   3.226   0.395 -1.2781  0.3849  1.2382
  716SOL     OW 2295   3.534   0.351   2.785 -0.0542  0.0814  0.0288
  716SOL    HW1 2296   3.589   0.386   2.716 -1.2820  1.8993 -0.0862
  716SOL    HW2 2297   3.501   0.428   2.831 -0.3572 -1.0430  1.7842
  717SOL     OW 2298   0.420   0.046   3.386  0.0718  0.4109  0.8947
  717SOL    HW1 2299   0.511   0.052   3.416 -0.2902  2.6968  1.7358
  717SOL    HW2 2300   0.390   0.137   3.382 -2.7667 -0.3334  2.5142
  718SOL     OW 2301   3.511   2.262   3.584 -0.3069  0.2894  0.1493
  718SOL    HW1 2302   3.561   2.295   3.509  0.8782  0.3836  0.9537
  718SOL    HW2 2303   3.514   2.167   3.574  3.1200  0.0424  1.9934
  719SOL     OW 2304   0.374   2.838   0.076 -0.1426  0.2765 -0.2601
  719SOL    HW1 2305   0.389   2.933   0.074  1.2420  0.1195  1.1055
  719SOL    HW2 2306   0.449   2.802   0.123 -1.3636 -1.3536  0.5611
  720SOL     OW 2307   3.326   1.339   3.620  0.8182  0.2300  0.0135
  720SOL    HW1 2308   3.398   1.398   3.640  1.8005 -0.8936 -0.1453
  720SOL    HW2 2309   3.257   1.365   3.682  1.5025  1.0273  0.4672
  721SOL     OW 2310   3.305   1.677   2.765 -0.1666  0.8903  0.4307
  721SOL    HW1 2311   3.400   1.668   2.775 -0.2096  1.1163  1.0867
  721SOL    HW2 2312   3.293   1.714   2.678  0.3033  0.0488 -0.0051
  722SOL     OW 2313   0.846   3.547   1.744 -0.5852 -0.1802 -0.2664
  722SOL    HW1 2314   0.917   3.495   1.707  0.9330  0.9915  0.8635
  722SOL    HW2 2315   0.877   3.572   1.831 -1.6768  1.7098 -0.3542
  723SOL     OW 2316   3.421   2.716   0.007 -0.1178 -0.0163 -0.8353
  723SOL    HW1 2317   3.513   2.710  -0.017 -0.1738  0.2058 -1.1163
  723SOL    HW2 2318   3.396   2.626   0.030  0.4271  0.0996  0.2199
  724SOL     OW 2319   1.053   0.492   3.524 -0.9144 -0.2377  0.0404
  724SOL    HW1 2320   1.068   0.403   3.493 -0.3568 -0.8915  2.0767
  724SOL    HW2 2321   1.126   0.543   3.486 -0.4699 -0.9239 -0.0442
  725SOL     OW 2322   2.408   0.114   2.225 -0.0465 -0.5509  0.0475
  725SOL    HW1 2323   2.423   0.200   2.187  1.1610 -1.2565 -1.1906
  725SOL    HW2 2324   2.438   0.120   2.315 -0.7879  0.5451  0.2309
  726SOL     OW 2325   2.317   0.329   1.723 -0.3221 -0.4040 -0.3694
  726SOL    HW1 2326   2.369   0.253   1.698  0.2502 -0.0466 -0.2648
  726SOL    HW2 2327   2.292   0.312   1.814  0.8093  0.0872  0.0418
  727SOL     OW 2328   0.521   1.735   2.134  0.8411  0.3950  0.2099
  727SOL    HW1 2329   0.540   1.824   2.103 -1.6304  1.0183  0.2572
  727SOL    HW2 2330   0.468   1.749   2.213  1.1282 -1.1427  0.6961
  728SOL     OW 2331   0.699   1.466   1.304  0.8003  0.0436  0.2482
  728SOL    HW1 2332   0.688   1.515   1.223 -0.4573 -0.7056 -0.0678
  728SOL    HW2 2333   0.610   1.451   1.335  1.1652 -1.4082  0.7024
  729SOL     OW 2334   0.888   2.626   2.537  0.5219  0.4661  0.3236
  729SOL    HW1 2335   0.954   2.691   2.515  3.9698 -2.3477  1.3236
  729SOL    HW2 2336   0.879   2.632   2.633  1.7474 -1.1310  0.5819
  730SOL     OW 2337   0.843   1.441   0.647 -0.2882 -0.0919  0.3115
  730SOL    HW1 2338   0.903   1.508   0.678  0.6744  0.6685 -2.7883
  730SOL    HW2 2339   0.756   1.481   0.655  0.2481  1.5059 -1.2173
  731SOL     OW 2340   3.263   0.702   3.155 -0.7141 -0.4923  0.2506
  731SOL    HW1 2341   3.253   0.797   3.157  1.0931 -0.2345 -0.9344
  731SOL    HW2 2342   3.354   0.686   3.177 -0.4835 -1.8182 -1.4139
  732SOL     OW 2343   0.286   3.562   1.144  0.1206  0.0653  0.0142
  732SOL    HW1 2344   0.269   3.493   1.209 -0.6055 -0.5471 -0.8055
  732SOL    HW2 2345   0.231   3.635   1.172  2.0428  0.9633  1.7901
  733SOL     OW 2346   2.760   0.975   2.192  0.2844 -0.5245  0.6650
  733SOL    HW1 2347   2.729   1.055   2.234 -2.9061 -1.4353  0.3025
  733SOL    HW2 2348   2.847   0.959   2.230 -0.7675  0.7959  3.9223
  734SOL     OW 2349   1.634   0.234   3.261 -0.2781  0.4281  0.1279
  734SOL    HW1 2350   1.638   0.143   3.293 -0.7945 -0.0704 -1.1630
  734SOL    HW2 2351   1.553   0.237   3.210  0.8470  0.9819 -1.7202
  735SOL     OW 2352   1.474   2.481   0.411  0.1408  0.1212  0.5801
  735SOL    HW1 2353   1.559   2.439   0.403 -0.3052 -0.4475 -1.9428
  735SOL    HW2 2354   1.486   2.568   0.373  0.0618  0.8341  2.1093
  736SOL     OW 2355   0.641   0.103   1.250 -0.0289 -0.4579  0.7902
  736SOL    HW1 2356   0.562   0.107   1.195 -0.2529 -0.6566  1.0926
  736SOL    HW2 2357   0.630   0.175   1.313  2.0191  2.3107 -1.7471
  737SOL     OW 2358   1.334   1.019   0.442  0.5651  0.4962  0.0079
  737SOL    HW1 2359   1.360   0.942   0.493 -2.0357  0.3672  1.3090
  737SOL    HW2 2360   1.286   0.983   0.367  0.8405  0.8132 -0.3244
  738SOL     OW 2361   2.452   2.363   2.879 -0.5013  0.2142 -0.5996
  738SOL    HW1 2362   2.515   2.377   2.951 -1.0024  3.2445 -0.6113
  738SOL    HW2 2363   2.499   2.308   2.817 -0.4390 -3.5626  2.4253
  739SOL     OW 2364   1.164   2.646   1.685  0.4571 -0.2083 -1.1923
  739SOL    HW1 2365   1.147   2.560   1.724 -1.6353  0.5453 -0.2797
  739SOL    HW2 2366   1.113   2.646   1.604  0.7846  0.0247 -1.4000
  740SOL     OW 2367   1.921   0.470   1.518 -0.0526  0.5147 -0.0015
  740SOL    HW1 2368   1.993   0.490   1.458  1.0297  0.5797  1.2570
  740SOL    HW2 2369   1.901   0.378   1.502  0.7058  0.3399  0.0296
  741SOL     OW 2370   3.373   2.839   0.245  0.1070 -0.1289 -0.2084
  741SOL    HW1 2371   3.417   2.777   0.187  2.0293  0.9561  0.0090
  741SOL    HW2 2372   3.293   2.863   0.198  1.5615  0.6606 -2.4208
  742SOL     OW 2373   0.480   1.167   1.749 -0.1880 -0.0509 -0.0152
  742SOL    HW1 2374   0.481   1.111   1.671 -1.3641  1.9722 -1.5718
  742SOL    HW2 2375   0.412   1.232   1.731  1.5247  2.2722  1.4417
  743SOL     OW 2376   1.766   0.011   3.502  0.7793 -0.4162  0.4372
  743SOL    HW1 2377   1.724  -0.047   3.566  1.9457  0.2951  1.9071
  743SOL    HW2 2378   1.724   0.096   3.514  0.0219 -0.5886 -0.7693
  744SOL     OW 2379   3.685   1.527   1.655 -0.7089  0.0366 -0.2765
  744SOL    HW1 2380   3.736   1.496   1.729 -1.4588  0.9588  0.6510
  744SOL    HW2 2381   3.643   1.448   1.620  0.2780 -0.5162 -0.2272
  745SOL     OW 2382   1.754   0.056   1.877  0.4964 -0.3438 -0.5503
  745SOL    HW1 2383   1.694   0.059   1.951  0.9697 -2.8607  0.0232
  745SOL    HW2 2384   1.793  -0.031   1.881  4.4419  1.2361 -0.7474
  746SOL     OW 2385   0.556   2.818   2.322 -0.0411  0.4303  0.1269
  746SOL    HW1 2386   0.642   2.846   2.353  1.5581 -0.4945 -3.0084
  746SOL    HW2 2387   0.510   2.901   2.304  0.8168  0.9665  0.3234
  747SOL     OW 2388   0.962   1.924   3.104 -0.4284 -0.0090 -0.3385
  747SOL    HW1 2389   1.012   2.005   3.115 -2.5404  1.4054 -0.4046
  747SOL    HW2 2390   0.995   1.887   3.022  0.1335  1.1429 -0.6592
  748SOL     OW 2391   0.273   1.451   2.618  0.2498 -0.3985  0.0051
  748SOL    HW1 2392   0.303   1.497   2.696  1.4940 -1.1226 -0.0158
  748SOL    HW2 2393   0.344   1.463   2.555  0.0269 -1.2547 -0.4278
  749SOL     OW 2394   2.164   0.214   1.206 -0.5808  0.2579 -0.2185
  749SOL    HW1 2395   2.243   0.195   1.257 -0.5955  1.3265  0.2133
  749SOL    HW2 2396   2.132   0.127   1.180  0.5668 -0.2096 -0.1615
  750SOL     OW 2397   1.556   1.569   2.262 -0.2317  0.1467 -0.1999
  750SOL    HW1 2398   1.540   1.566   2.356  0.5855  3.5619  0.1845
  750SOL    HW2 2399   1.485   1.622   2.227  1.0018  1.3393 -1.0071
  751SOL     OW 2400   3.727   3.076   2.848 -0.1032  0.0776 -0.0147
  751SOL    HW1 2401   3.755   3.012   2.782  0.7836 -0.6247  1.0095
  751SOL    HW2 2402   3.654   3.034   2.894 -0.7967  0.6137 -0.5953
  752SOL     OW 2403   1.843   3.174   2.473  0.2006 -0.0298 -0.3465
  752SOL    HW1 2404   1.907   3.169   2.544 -1.8442 -1.8371  1.5193
  752SOL    HW2 2405   1.776   3.110   2.497 -0.9371 -0.2163 -3.6127
  753SOL     OW 2406   1.588   2.254   2.037 -0.1087  0.2378 -0.3581
  753SOL    HW1 2407   1.577   2.161   2.015 -1.1701 -0.1162  1.4695
  753SOL    HW2 2408   1.595   2.297   1.952 -5.2589 -0.8504 -1.7058
  754SOL     OW 2409   0.823   2.657   0.526 -0.9159  0.2117 -0.0858
  754SOL    HW1 2410   0.849   2.726   0.587 -1.6900  1.5241 -1.1803
  754SOL    HW2 2411   0.733   2.678   0.502 -0.6508 -0.2673 -1.6673
  755SOL     OW 2412   2.099   2.309   3.485  0.6698  0.1916  0.4453
  755SOL    HW1 2413   2.059   2.260   3.412  3.4136  0.2777 -1.2614
  755SOL    HW2 2414   2.056   2.394   3.482 -0.4290 -0.3510  0.0241
  756SOL     OW 2415   3.658   1.234   2.390  0.5452 -0.2551  0.9240
  756SOL    HW1 2416   3.586   1.260   2.449 -0.7554 -0.7657 -0.3758
  756SOL    HW2 2417   3.670   1.141   2.407 -0.6194 -0.6774 -0.3537
  757SOL     OW 2418   0.933   0.698   1.222  0.0315 -1.0082 -0.4739
  757SOL    HW1 2419   0.872   0.734   1.158  0.6246  1.3070  0.1481
  757SOL    HW2 2420   0.910   0.742   1.304  0.2618 -2.7664  0.5715
  758SOL     OW 2421   2.459   2.825   1.840  0.2736  0.9087 -0.1216
  758SOL    HW1 2422   2.525   2.808   1.772  0.1312  0.6597 -0.1984
  758SOL    HW2 2423   2.417   2.740   1.854 -1.0743  1.3766 -1.1744
  759SOL     OW 2424   2.675   3.105   3.395 -0.4346  0.1632  0.1268
  759SOL    HW1 2425   2.661   3.199   3.389  1.0573  0.3190 -1.7789
  759SOL    HW2 2426   2.589   3.067   3.380 -0.9722  1.2026  0.4888
  760SOL     OW 2427   0.081   1.389   0.154 -0.2989 -0.5013 -0.0946
  760SOL    HW1 2428   0.050   1.470   0.195 -1.5519 -0.4654 -1.0361
  760SOL    HW2 2429   0.168   1.410   0.121  0.2046 -0.1547  1.3944
  761SOL     OW 2430   3.285   1.041   0.804 -0.2040 -0.3187  0.2511
  761SOL    HW1 2431   3.328   1.054   0.889  0.4859 -0.4234 -0.0743
  761SOL    HW2 2432   3.210   0.985   0.824 -0.8581  0.8051  1.0079
  762SOL     OW 2433   2.518   0.255   1.194 -0.2413  0.9781  0.5054
  762SOL    HW1 2434   2.569   0.189   1.148 -1.2714  0.5909 -0.1146
  762SOL    HW2 2435   2.515   0.224   1.284 -0.5818  0.2504  0.2522
  763SOL     OW 2436   0.309   2.303   2.910  0.4877  0.0669  0.1814
  763SOL    HW1 2437   0.339   2.374   2.967  0.6089 -0.1659  0.4109
  763SOL    HW2 2438   0.309   2.341   2.822 -2.0583  1.2260  0.5850
  764SOL     OW 2439   1.689   1.432   0.130 -0.7909 -0.1416  0.7426
  764SOL    HW1 2440   1.690   1.365   0.061 -0.7013  0.6357 -0.0292
  764SOL    HW2 2441   1.770   1.417   0.179  0.5818  1.0167 -1.0478
  765SOL     OW 2442   0.569   3.370   3.722  0.0517 -0.7471 -0.0779
  765SOL    HW1 2443   0.500   3.433   3.741  0.2667 -1.1710  2.5663
  765SOL    HW2 2444   0.591   3.384   3.630 -0.2794  2.6531  0.2386
  766SOL     OW 2445   1.258   1.322   2.890  0.0003 -0.2766 -0.4398
  766SOL    HW1 2446   1.210   1.333   2.972 -1.6499 -4.0879 -0.6798
  766SOL    HW2 2447   1.303   1.238   2.900  0.3113 -0.5138 -3.1921
  767SOL     OW 2448   1.110   1.692   1.025 -0.2581  0.0921 -0.3654
  767SOL    HW1 2449   1.155   1.665   1.105  1.6026 -0.7754 -1.6334
  767SOL    HW2 2450   1.023   1.718   1.055  0.5470  0.3597  2.0067
  768SOL     OW 2451   1.809   3.123   1.327  0.1454  0.1685  0.1426
  768SOL    HW1 2452   1.813   3.044   1.380  1.6637  0.1362  0.0252
  768SOL    HW2 2453   1.858   3.188   1.377  1.6357  0.1343 -1.1773
  769SOL     OW 2454   1.774   1.940   3.429  0.3577  0.6336 -0.5875
  769SOL    HW1 2455   1.799   1.939   3.521 -1.0398  2.5733 -0.1158
  769SOL    HW2 2456   1.774   1.848   3.403  0.0436 -0.0292  1.5677
  770SOL     OW 2457   3.285   0.167   3.637  0.3158  0.7108  0.8497
  770SOL    HW1 2458   3.334   0.092   3.605  1.4351  1.5051  0.6469
  770SOL    HW2 2459   3.218   0.183   3.570  1.1406  0.9195  0.0623
  771SOL     OW 2460   0.947   1.001   1.862 -0.0670 -0.1793  0.2812
  771SOL    HW1 2461   0.957   1.096   1.875 -3.7123  0.5547 -0.9535
  771SOL    HW2 2462   0.963   0.989   1.768 -0.8559 -0.5519  0.1938
  772SOL     OW 2463   1.359   1.114   1.959 -0.5285  0.4593  0.0587
  772SOL    HW1 2464   1.359   1.194   1.907  0.3715  0.5691  0.2221
  772SOL    HW2 2465   1.449   1.104   1.990 -0.5386 -0.8045 -0.2420
  773SOL     OW 2466   0.002   0.344   0.299 -0.1029 -0.2008 -0.4226
  773SOL    HW1 2467  -0.011   0.424   0.248 -0.8129 -0.4528 -0.6460
  773SOL    HW2 2468   0.093   0.349   0.328 -0.0777  0.5845 -0.6111
  774SOL     OW 2469   2.659   2.879   1.678 -0.0350 -0.7336  0.7088
  774SOL    HW1 2470   2.754   2.868   1.683 -0.0124 -4.2575 -2.4398
  774SOL    HW2 2471   2.646   2.939   1.604 -0.3267  0.3965  1.6479
  775SOL     OW 2472   1.414   2.261   2.491 -0.1279  0.2431 -0.7202
  775SOL    HW1 2473   1.482   2.224   2.435 -1.1876  0.1147 -1.9610
  775SOL    HW2 2474   1.455   2.266   2.577  0.7457 -1.8615 -0.9409
  776SOL     OW 2475   2.611   0.734   2.135  0.5955  0.1512 -0.2225
  776SOL    HW1 2476   2.643   0.677   2.204  0.5738  1.2077  0.6814
  776SOL    HW2 2477   2.675   0.805   2.130 -0.0662  0.7435 -0.4207
  777SOL     OW 2478   1.507   2.143   1.630 -0.6655 -0.4556  0.6172
  777SOL    HW1 2479   1.415   2.130   1.650 -0.6707  0.1699  1.0399
  777SOL    HW2 2480   1.508   2.198   1.552 -0.6602  0.6091  1.3571
  778SOL     OW 2481   2.708   0.595   2.357 -0.1614  0.8179  0.0433
  778SOL    HW1 2482   2.790   0.597   2.406  0.5489 -1.1028 -0.9638
  778SOL    HW2 2483   2.642   0.625   2.419  1.0758  0.8828  1.3707
  779SOL     OW 2484   0.858   3.410   1.104  0.5532 -0.5534  0.4541
  779SOL    HW1 2485   0.813   3.325   1.105  1.0716 -0.9299  3.5903
  779SOL    HW2 2486   0.949   3.389   1.123  0.9627  0.6237 -0.1102
  780SOL     OW 2487   0.430   2.614   0.465 -0.1671 -0.5520 -0.0829
  780SOL    HW1 2488   0.417   2.708   0.458 -1.0851 -0.6829 -0.3016
  780SOL    HW2 2489   0.464   2.601   0.554  0.3539  0.0124 -0.1914
  781SOL     OW 2490   0.268   1.747   3.697  0.2414  0.3458 -0.1006
  781SOL    HW1 2491   0.177   1.731   3.722  0.7222  0.3013  1.7759
  781SOL    HW2 2492   0.262   1.812   3.627 -1.2547 -0.0716 -0.4069
  782SOL     OW 2493   1.128   1.493   1.823  0.3995 -0.1926  0.6728
  782SOL    HW1 2494   1.185   1.557   1.865 -0.6993  1.3833 -0.1189
  782SOL    HW2 2495   1.039   1.523   1.843 -0.1585 -1.4544  0.2200
  783SOL     OW 2496   1.284   2.875   2.587 -0.3215  0.5389 -0.1714
  783SOL    HW1 2497   1.258   2.864   2.679  0.2452 -0.8141 -0.1387
  783SOL    HW2 2498   1.337   2.797   2.569  2.7947  2.5599 -0.5429
  784SOL     OW 2499   3.128   3.575   1.484  0.3740 -0.4422  0.4635
  784SOL    HW1 2500   3.107   3.486   1.457 -1.7007  0.2155 -0.3995
  784SOL    HW2 2501   3.181   3.610   1.412  0.5341 -0.7519  0.4316
  785SOL     OW 2502   1.685   3.415   2.348 -0.2255 -0.3203 -0.3265
  785SOL    HW1 2503   1.731   3.347   2.396  2.4874  0.2915 -1.8148
  785SOL    HW2 2504   1.705   3.496   2.396 -2.4840 -0.3687  0.7936
  786SOL     OW 2505   1.351   3.037   0.225  0.3185  0.1945  0.4156
  786SOL    HW1 2506   1.314   3.122   0.202  0.7866 -0.6231 -4.3322
  786SOL    HW2 2507   1.276   2.978   0.229  0.3281 -0.3178 -3.3141
  787SOL     OW 2508   2.518   1.247   1.196 -0.3782 -0.0871  0.5823
  787SOL    HW1 2509   2.543   1.315   1.259 -0.1501  0.6981 -0.3418
  787SOL    HW2 2510   2.556   1.275   1.113  0.4459 -1.7820  0.3436
  788SOL     OW 2511   1.656   1.576   2.970  0.6062  0.2913  0.1137
  788SOL    HW1 2512   1.628   1.519   3.042  0.4228  2.4274  1.8380
  788SOL    HW2 2513   1.624   1.663   2.995  1.7920  1.3639 -1.8790
  789SOL     OW 2514   1.266   2.706   2.823 -0.6181 -0.2703 -0.1412
  789SOL    HW1 2515   1.315   2.733   2.901 -0.8907 -1.4774  0.4683
  789SOL    HW2 2516   1.333   2.683   2.759 -0.2900 -3.0881  1.0900
  790SOL     OW 2517   2.701   2.965   0.263 -0.0798  0.3391  0.5638
  790SOL    HW1 2518   2.739   2.900   0.203 -1.5942  0.0443 -0.1083
  790SOL    HW2 2519   2.658   2.913   0.330  0.0874  0.6708  0.9327
  791SOL     OW 2520   2.005   0.477   0.763  0.0642 -0.2113 -0.2136
  791SOL    HW1 2521   2.052   0.401   0.797  2.7779  0.8334 -1.3626
  791SOL    HW2 2522   2.005   0.466   0.668 -2.9863 -0.6052 -0.2873
  792SOL     OW 2523   3.189   1.962   3.570  0.0497  0.1373 -0.1294
  792SOL    HW1 2524   3.130   1.981   3.643  0.5632  1.0527  0.0647
  792SOL    HW2 2525   3.163   1.875   3.540  0.3034 -0.5974  1.6177
  793SOL     OW 2526   1.900   1.048   1.950 -0.7359  0.4986  0.4329
  793SOL    HW1 2527   1.859   1.132   1.931 -0.2621  1.3426  2.7282
  793SOL    HW2 2528   1.849   0.984   1.901 -1.6066  2.0322 -0.7406
  794SOL     OW 2529   3.524  -0.004   1.443 -0.4009  0.5589  0.2181
  794SOL    HW1 2530   3.579   0.052   1.498 -2.2570  2.2302  0.4372
  794SOL    HW2 2531   3.494   0.053   1.372 -2.6328  0.0007  0.6413
  795SOL     OW 2532   3.122   3.243   2.222 -0.3345  0.1179  0.2223
  795SOL    HW1 2533   3.192   3.248   2.157 -0.1548 -3.0508  0.0113
  795SOL    HW2 2534   3.158   3.287   2.300  1.2224  0.0091 -0.4077
  796SOL     OW 2535   1.273   0.164   0.372 -0.0715 -0.0214  0.0077
  796SOL    HW1 2536   1.246   0.112   0.448  0.1184  0.4687  0.4199
  796SOL    HW2 2537   1.358   0.201   0.397 -0.0898  0.2875 -0.3739
  797SOL     OW 2538   0.569   2.482   1.683  0.1639  0.0624 -0.3969
  797SOL    HW1 2539   0.508   2.409   1.695  2.2560 -1.6704  0.2233
  797SOL    HW2 2540   0.577   2.491   1.588  2.7623 -3.2259 -0.6780
  798SOL     OW 2541   2.714   1.767   0.522 -0.1804 -0.0644 -0.1129
  798SOL    HW1 2542   2.679   1.699   0.465 -0.6164  1.1239 -1.3405
  798SOL    HW2 2543   2.681   1.849   0.484  2.1387  0.9865 -0.0120
  799SOL     OW 2544   1.611   2.687   1.586 -0.1857  0.0621 -0.8329
  799SOL    HW1 2545   1.560   2.724   1.657 -0.8259 -0.9568 -0.7358
  799SOL    HW2 2546   1.575   2.599   1.574  0.6388 -0.1789 -1.6839
  800SOL     OW 2547   2.658   0.487   1.856 -0.2804  0.0588  0.2185
  800SOL    HW1 2548   2.716   0.500   1.932 -0.3487  0.1344  0.2581
  800SOL    HW2 2549   2.640   0.576   1.825 -0.2824  0.0296  0.1358
  801SOL     OW 2550   2.920   1.476   0.556 -0.1338 -0.0729  0.2198
  801SOL    HW1 2551   2.926   1.383   0.581  0.7479 -0.0834 -0.0197
  801SOL    HW2 2552   2.827   1.497   0.568 -0.2359 -0.8175  0.8730
  802SOL     OW 2553   1.223   2.224   1.173 -0.1325  0.0134  0.1965
  802SOL    HW1 2554   1.245   2.143   1.126  0.4564  0.6141 -0.5986
  802SOL    HW2 2555   1.273   2.292   1.128 -0.2968  0.7640  1.1138
  803SOL     OW 2556   0.504   2.917   0.688  0.4286  0.2099  0.3489
  803SOL    HW1 2557   0.529   3.006   0.713  2.8965 -0.5291  0.8462
  803SOL    HW2 2558   0.438   2.892   0.752  0.0135  1.5266  0.4669
  804SOL     OW 2559   3.717   0.785   0.732 -0.4502 -0.3986  0.2391
  804SOL    HW1 2560   3.667   0.796   0.813  0.3846  1.6677  0.5217
  804SOL    HW2 2561   3.655   0.742   0.672 -2.2034  1.0455  0.9346
  805SOL     OW 2562   2.856   0.522   2.031  0.1703 -0.2246 -0.7110
  805SOL    HW1 2563   2.941   0.491   2.064 -0.4062 -0.4976  0.5919
  805SOL    HW2 2564   2.870   0.616   2.016  0.3198  0.0447  0.9175
  806SOL     OW 2565   1.491   1.144   3.580  0.1849 -0.4237 -0.2536
  806SOL    HW1 2566   1.410   1.159   3.530  0.6375 -3.6292 -2.2977
  806SOL    HW2 2567   1.559   1.188   3.529  0.2986 -1.6023 -1.1624
  807SOL     OW 2568   0.681   2.408   2.915 -0.0238  0.1339 -0.4297
  807SOL    HW1 2569   0.603   2.380   2.868 -0.7791 -1.6915  1.7445
  807SOL    HW2 2570   0.647   2.462   2.987  0.7952  0.1279 -0.0263
  808SOL     OW 2571   1.093   1.572   2.403 -0.1424  0.0562 -0.9948
  808SOL    HW1 2572   1.014   1.564   2.349 -0.8428 -0.5242  0.0693
  808SOL    HW2 2573   1.139   1.489   2.391 -0.8083 -0.4812  0.0443
  809SOL     OW 2574   2.881   1.478   0.935 -1.0207  0.9317  0.6473
  809SOL    HW1 2575   2.946   1.428   0.886  0.1067  0.6820  2.2951
  809SOL    HW2 2576   2.831   1.525   0.869  0.4966  0.7190 -0.7075
  810SOL     OW 2577   0.573   0.029   0.539 -0.1152 -0.4062  0.2450
  810SOL    HW1 2578   0.653  -0.007   0.578  0.1473 -0.1018 -0.0079
  810SOL    HW2 2579   0.593   0.121   0.522 -0.2889 -0.4859 -0.4262
  811SOL     OW 2580   2.298   1.445   2.529 -0.0398 -0.0208  0.5443
  811SOL    HW1 2581   2.221   1.500   2.525 -0.2857 -0.3756  0.2855
  811SOL    HW2 2582   2.371   1.506   2.540 -0.4522  0.2439  2.0023
  812SOL     OW 2583   0.791   1.799   3.633 -0.0605  0.3723  0.2798
  812SOL    HW1 2584   0.821   1.841   3.552 -0.6520  0.6058  0.1759
  812SOL    HW2 2585   0.700   1.777   3.617 -0.7461  2.0624  1.4898
  813SOL     OW 2586   2.274   0.442   2.982 -0.4280  0.4956 -0.0336
  813SOL    HW1 2587   2.200   0.496   2.956 -1.8725 -0.7151  1.3802
  813SOL    HW2 2588   2.244   0.352   2.970  0.9313 -0.0222  0.2480
  814SOL     OW 2589   2.887   3.054   2.273  0.3091 -0.8608  0.3645
  814SOL    HW1 2590   2.926   3.137   2.244  0.9521 -0.3620  2.4635
  814SOL    HW2 2591   2.945   2.987   2.236  0.2042 -0.3738 -0.7471
  815SOL     OW 2592   1.509   0.694   0.298  0.1481 -0.6154 -0.5148
  815SOL    HW1 2593   1.604   0.689   0.284  0.3179  2.1812 -0.8355
  815SOL    HW2 2594   1.474   0.622   0.245  2.0790 -1.9039 -0.1541
  816SOL     OW 2595   1.705   2.143   0.233  0.3723 -0.7545 -0.3018
  816SOL    HW1 2596   1.684   2.195   0.310 -2.0731 -0.9023 -0.7876
  816SOL    HW2 2597   1.621   2.106   0.205  1.2282 -1.0112 -2.8069
  817SOL     OW 2598   0.592   1.323   1.010  0.2151 -0.0892 -0.0611
  817SOL    HW1 2599   0.556   1.287   0.928  3.1311 -1.1259 -1.0020
  817SOL    HW2 2600   0.641   1.400   0.982  0.7314 -0.0928  0.8023
  818SOL     OW 2601   3.466   0.865   0.487 -0.1504  0.4183 -0.0184
  818SOL    HW1 2602   3.509   0.946   0.459 -1.0270  0.3531 -1.6040
  818SOL    HW2 2603   3.452   0.815   0.407  1.7630 -2.0622  1.0296
  819SOL     OW 2604   2.899   3.408   2.546 -0.5353 -0.3830  0.6260
  819SOL    HW1 2605   2.876   3.492   2.508 -1.0829 -0.6796  0.2830
  819SOL    HW2 2606   2.993   3.399   2.530 -0.9248 -0.9820 -1.6509
  820SOL     OW 2607   3.670   0.989   0.346 -0.8289  0.0474 -0.1845
  820SOL    HW1 2608   3.677   1.084   0.341  0.1395 -0.0124 -0.1732
  820SOL    HW2 2609   3.590   0.968   0.298 -0.7680  0.8236 -0.6356
  821SOL     OW 2610   3.648   0.551   0.107 -0.6818 -0.0569 -0.3616
  821SOL    HW1 2611   3.640   0.644   0.086  2.8919  0.4895  0.0349
  821SOL    HW2 2612   3.655   0.507   0.023 -1.1801  0.1494 -0.5182
  822SOL     OW 2613   1.960   3.080   2.707  0.4282 -0.2155  0.1698
  822SOL    HW1 2614   2.025   3.012   2.686 -0.2413 -0.5656 -0.8164
  822SOL    HW2 2615   1.940   3.066   2.799  0.5973 -1.1090  0.0785
  823SOL     OW 2616   1.000   1.258   2.333  0.3136  0.7629 -0.2900
  823SOL    HW1 2617   1.049   1.297   2.260  1.0483  0.4449  0.0222
  823SOL    HW2 2618   0.963   1.177   2.297  2.4605 -0.5248  0.2339
  824SOL     OW 2619   3.098   1.865   1.983  0.1107  0.2391 -0.4487
  824SOL    HW1 2620   3.028   1.828   2.036 -0.1154  0.7935 -0.3531
  824SOL    HW2 2621   3.111   1.953   2.018  2.6571 -0.6952  1.2999
  825SOL     OW 2622   3.537   0.527   3.186 -0.7167 -0.1634 -0.0680
  825SOL    HW1 2623   3.610   0.520   3.125 -1.2842  0.3681 -0.8305
  825SOL    HW2 2624   3.539   0.444   3.235  0.9140  0.2091  0.5556
  826SOL     OW 2625   2.497   3.484   2.677 -0.4659 -0.2190 -0.3276
  826SOL    HW1 2626   2.539   3.570   2.682 -0.1597 -0.4495  1.7083
  826SOL    HW2 2627   2.430   3.495   2.609 -0.0716  1.4626 -0.5022
  827SOL     OW 2628   1.434   2.475   1.590 -0.1666 -0.2912  0.5911
  827SOL    HW1 2629   1.349   2.505   1.620 -0.8401  1.0027 -2.2225
  827SOL    HW2 2630   1.418   2.443   1.501  2.4248  0.9643 -0.4237
  828SOL     OW 2631   3.445   1.316   1.850 -0.2785  0.1379 -0.1533
  828SOL    HW1 2632   3.477   1.346   1.935  0.9076 -0.1518 -0.4874
  828SOL    HW2 2633   3.514   1.339   1.788 -0.6467 -0.6302 -0.8649
  829SOL     OW 2634   1.571   3.022   3.078  0.1998  0.2060 -0.1092
  829SOL    HW1 2635   1.508   2.964   3.121 -0.7190  2.2818  1.5208
  829SOL    HW2 2636   1.636   3.041   3.145  1.3792 -0.1266 -1.1132
  830SOL     OW 2637   0.986   0.343   1.476 -0.2156  0.2081  0.4277
  830SOL    HW1 2638   0.924   0.295   1.531  0.1301 -0.7019  0.0420
  830SOL    HW2 2639   1.003   0.424   1.524 -0.4994 -0.2341  1.2967
  831SOL     OW 2640   3.075   2.859   0.175  0.4557 -0.0132  0.1432
  831SOL    HW1 2641   3.064   2.782   0.119  1.9931 -1.4673  1.7318
  831SOL    HW2 2642   3.033   2.835   0.257 -0.4093  1.4852  0.1734
  832SOL     OW 2643   0.518   2.213   0.884  0.1312  0.3561  0.2822
  832SOL    HW1 2644   0.610   2.190   0.896 -0.0104 -0.3526  0.0801
  832SOL    HW2 2645   0.513   2.306   0.906  1.0122  0.5569 -0.3306
  833SOL     OW 2646   0.247   1.249   0.436 -0.0715  0.1566  0.7488
  833SOL    HW1 2647   0.196   1.184   0.484 -2.7758  2.9921  2.0392
  833SOL    HW2 2648   0.238   1.222   0.344 -1.1410 -1.2720  1.2261
  834SOL     OW 2649   2.869   0.484   0.626  0.3154 -0.1332 -0.0146
  834SOL    HW1 2650   2.866   0.433   0.707 -1.2457  0.8079  0.5665
  834SOL    HW2 2651   2.941   0.546   0.639 -0.4189  0.5457  1.0199
  835SOL     OW 2652   3.521   0.191   0.158  0.2994 -0.0747  0.1536
  835SOL    HW1 2653   3.441   0.242   0.146  0.3173  0.2212  1.2479
  835SOL    HW2 2654   3.587   0.255   0.182  1.2307 -0.1221 -2.0131
  836SOL     OW 2655   1.638   2.021   0.686 -0.1443  0.5160 -0.5409
  836SOL    HW1 2656   1.713   1.961   0.693 -0.0810  0.3852 -2.0459
  836SOL    HW2 2657   1.587   1.986   0.613 -1.5038  0.8102  0.2486
  837SOL     OW 2658   2.327   3.437   1.723  0.2065  0.2098 -0.3474
  837SOL    HW1 2659   2.280   3.518   1.702  0.5805  0.2129 -1.2290
  837SOL    HW2 2660   2.408   3.443   1.673  0.0663 -0.8844 -0.7468
  838SOL     OW 2661   2.979   3.477   0.539 -0.1517  0.7032 -0.2142
  838SOL    HW1 2662   2.922   3.402   0.522 -0.4516  0.8985 -0.0836
  838SOL    HW2 2663   2.935   3.551   0.497  0.4979  0.6805 -0.9431
  839SOL     OW 2664   0.331   3.644   0.434 -0.2084  0.6301 -0.0932
  839SOL    HW1 2665   0.417   3.655   0.475 -0.7195  0.2929  1.1110
  839SOL    HW2 2666   0.311   3.730   0.396 -1.3506  2.2337  3.6641
  840SOL     OW 2667   2.755   2.347   3.283 -1.0085  0.7193  0.1390
  840SOL    HW1 2668   2.772   2.434   3.317  0.8362  0.6072 -0.3544
  840SOL    HW2 2669   2.723   2.297   3.358  2.5705  0.5785  1.7869
  841SOL     OW 2670   1.295   3.351   1.503 -0.1839  0.3002  0.2730
  841SOL    HW1 2671   1.356   3.321   1.435  3.2486  0.8769  2.8380
  841SOL    HW2 2672   1.256   3.271   1.536  0.7371 -0.3279 -0.0923
  842SOL     OW 2673   0.638   2.044   1.272  0.1634 -0.2400 -0.4907
  842SOL    HW1 2674   0.589   1.996   1.205 -1.5267  1.1494 -0.2974
  842SOL    HW2 2675   0.681   1.976   1.324  3.1906 -1.3934 -4.0673
  843SOL     OW 2676   3.289   0.340   0.143 -0.3128 -0.1355  0.0159
  843SOL    HW1 2677   3.209   0.365   0.189 -0.1794  1.9223 -0.7835
  843SOL    HW2 2678   3.261   0.274   0.080 -0.9054 -1.2360  1.3535
  844SOL     OW 2679   0.955   2.003   2.216 -1.0200 -0.2667 -0.2708
  844SOL    HW1 2680   0.905   1.938   2.265 -0.0025 -0.5293  0.4542
  844SOL    HW2 2681   1.021   2.034   2.278 -0.7389  0.5894 -0.9798
  845SOL     OW 2682   3.526   0.832   3.048 -0.1093  0.0236  0.5025
  845SOL    HW1 2683   3.614   0.844   3.011 -0.1015  0.4907  0.6607
  845SOL    HW2 2684   3.525   0.889   3.125 -1.4956  2.2457 -1.0579
  846SOL     OW 2685   2.329   1.261   1.696 -0.1636 -0.4596 -0.4483
  846SOL    HW1 2686   2.271   1.199   1.738  0.0124  0.1208  0.6896
  846SOL    HW2 2687   2.304   1.346   1.732  0.5815 -0.0527 -0.8546
  847SOL     OW 2688   0.138   0.548   2.240 -0.0496  0.0967  0.2688
  847SOL    HW1 2689   0.157   0.618   2.303 -0.7747 -0.7730  1.5038
  847SOL    HW2 2690   0.054   0.574   2.201  0.3605  0.5959 -0.2991
  848SOL     OW 2691   2.571   1.072   0.615 -0.0993 -0.3075  0.4142
  848SOL    HW1 2692   2.524   1.076   0.698 -0.3240  2.2403  0.2369
  848SOL    HW2 2693   2.521   1.009   0.562 -0.6741 -1.0049  1.7413
  849SOL     OW 2694   2.855   3.085   2.570 -0.7107 -0.3786  0.0478
  849SOL    HW1 2695   2.943   3.108   2.600 -0.1786 -3.4864  1.2618
  849SOL    HW2 2696   2.868   3.050   2.482 -0.7296 -0.7961  0.2095
  850SOL     OW 2697   0.003   0.388   0.746 -0.3013  0.1055 -0.2794
  850SOL    HW1 2698   0.049   0.325   0.689 -0.0117  0.0466  0.0151
  850SOL    HW2 2699  -0.027   0.457   0.686  5.2314  3.3592 -0.0495
  851SOL     OW 2700   2.726   0.210   0.139  0.2040  0.5177 -1.0318
  851SOL    HW1 2701   2.818   0.223   0.116  0.3981  1.5058  0.2051
  851SOL    HW2 2702   2.720   0.235   0.231 -1.2645  0.2375 -1.0213
  852SOL     OW 2703   0.702   2.263   1.102 -0.8479 -0.5504  0.0375
  852SOL    HW1 2704   0.677   2.205   1.175 -1.0175 -0.2983  0.1812
  852SOL    HW2 2705   0.789   2.295   1.125 -0.7795 -0.6983 -0.0122
  853SOL     OW 2706   2.509   3.654   2.962  0.1266  0.0070 -0.4802
  853SOL    HW1 2707   2.476   3.741   2.982  1.4669  1.0357 -2.3941
  853SOL    HW2 2708   2.599   3.654   2.994  0.4337 -0.3315 -1.3085
  854SOL     OW 2709   3.427   3.178   1.287  0.0502  0.2808 -0.1392
  854SOL    HW1 2710   3.516   3.203   1.266  0.1884 -0.0889 -0.0057
  854SOL    HW2 2711   3.436   3.097   1.337 -0.1782  1.8984  2.6942
  855SOL     OW 2712   1.438   0.859   0.655  0.1020 -0.7508  0.1174
  855SOL    HW1 2713   1.424   0.771   0.688 -2.5567 -0.8884 -1.0796
  855SOL    HW2 2714   1.381   0.914   0.709 -1.2765 -0.4187 -1.5653
  856SOL     OW 2715   0.319   1.832   1.472 -0.2766  0.0516  0.2261
  856SOL    HW1 2716   0.243   1.879   1.505 -0.3403 -2.4325  4.3102
  856SOL    HW2 2717   0.294   1.740   1.477  2.1470 -0.7307 -0.7109
  857SOL     OW 2718   0.169   3.142   3.531  0.0041 -0.0777  0.5451
  857SOL    HW1 2719   0.086   3.120   3.489 -0.1646 -0.9515  1.2794
  857SOL    HW2 2720   0.145   3.160   3.622  0.8430 -2.7626  1.3995
  858SOL     OW 2721   2.490   3.689   0.656 -0.1123 -0.0418  0.6651
  858SOL    HW1 2722   2.442   3.673   0.575 -0.9996  1.6295  0.8184
  858SOL    HW2 2723   2.440   3.757   0.701  1.1767  0.1364  1.9125
  859SOL     OW 2724   2.778   0.293   2.196  0.1394  0.3075  0.1046
  859SOL    HW1 2725   2.835   0.347   2.141  0.8121  1.6648  2.0348
  859SOL    HW2 2726   2.693   0.338   2.194  0.8711  1.9279  2.2383
  860SOL     OW 2727   0.327   3.488   0.017  0.1187 -0.6968  0.6312
  860SOL    HW1 2728   0.295   3.498  -0.072  0.0021  1.9341  0.9014
  860SOL    HW2 2729   0.256   3.444   0.063 -0.7620 -0.0095 -0.0550
  861SOL     OW 2730   1.535   0.885   3.212  0.5134  0.7831  0.1613
  861SOL    HW1 2731   1.480   0.850   3.142 -0.3993 -0.0298  1.2536
  861SOL    HW2 2732   1.473   0.918   3.277  1.1435 -2.2634  2.5337
  862SOL     OW 2733   2.954   3.191   1.749  0.5255  0.6522  0.5522
  862SOL    HW1 2734   2.925   3.256   1.812  0.5554  0.0095  1.2429
  862SOL    HW2 2735   2.921   3.223   1.665 -0.8695  0.7465  1.0972
  863SOL     OW 2736   1.799   1.825   1.336  0.3701  0.5309  0.1112
  863SOL    HW1 2737   1.778   1.881   1.411  2.4437 -0.5445  1.5774
  863SOL    HW2 2738   1.871   1.870   1.292  0.0614  0.4746 -0.4579
  864SOL     OW 2739   0.372   0.234   3.139  0.0099 -0.1583 -0.3117
  864SOL    HW1 2740   0.329   0.319   3.138  1.9723  0.9090 -1.0050
  864SOL    HW2 2741   0.419   0.230   3.056  1.2686 -1.1814  0.4071
  865SOL     OW 2742   0.423   1.220   0.807 -0.0846 -0.3313 -0.7113
  865SOL    HW1 2743   0.338   1.208   0.848  0.1674  1.4700  0.4645
  865SOL    HW2 2744   0.403   1.251   0.719 -0.6659  0.5552 -0.2770
  866SOL     OW 2745   1.382   2.647   1.212  0.0358  0.1128  0.2864
  866SOL    HW1 2746   1.371   2.695   1.129 -0.0985 -2.4544 -1.2900
  866SOL    HW2 2747   1.476   2.641   1.224  0.1213 -1.3277 -0.8735
  867SOL     OW 2748   1.494   2.930   0.527  0.5229 -0.0858 -0.2284
  867SOL    HW1 2749   1.460   2.868   0.591  0.1011  0.2538 -0.1194
  867SOL    HW2 2750   1.421   2.988   0.508  0.8834  0.3217 -0.3973
  868SOL     OW 2751   0.934   0.655   3.329  0.3555  0.0125 -0.2428
  868SOL    HW1 2752   1.005   0.714   3.301 -0.4313  0.5043 -1.2855
  868SOL    HW2 2753   0.955   0.634   3.420  0.7370  1.8301  0.1380
  869SOL     OW 2754   2.234   2.969   0.718  0.1502 -0.0278  0.3596
  869SOL    HW1 2755   2.224   3.035   0.787  0.3504 -0.9866  1.3428
  869SOL    HW2 2756   2.178   2.897   0.747  0.9173 -0.7907 -0.0416
  870SOL     OW 2757   0.081   1.679   2.912  0.0903 -0.0227 -0.3602
  870SOL    HW1 2758  -0.002   1.726   2.919 -0.8771 -0.6976 -4.4949
  870SOL    HW2 2759   0.137   1.737   2.860  1.9710  0.0368  1.6128
  871SOL     OW 2760   0.495   0.947   3.401 -0.3846 -0.3156  0.2607
  871SOL    HW1 2761   0.401   0.931   3.403 -0.6201  0.7203 -1.1977
  871SOL    HW2 2762   0.504   1.040   3.422  0.3983 -0.5879  1.2355
  872SOL     OW 2763   3.700   3.033   0.986  0.2115  0.0305  0.7073
  872SOL    HW1 2764   3.651   3.115   0.988 -0.9816 -0.6490  1.0458
  872SOL    HW2 2765   3.712   3.014   0.893 -0.4861  0.0465  0.6072
  873SOL     OW 2766   1.519   0.416   1.082  0.8661 -0.0248  0.6497
  873SOL    HW1 2767   1.488   0.506   1.074  1.4756  0.0687 -1.4131
  873SOL    HW2 2768   1.577   0.416   1.157  2.3520  1.7925 -0.4235
  874SOL     OW 2769   1.976   3.397   2.614 -0.8031 -0.2429 -0.5859
  874SOL    HW1 2770   1.959   3.349   2.534  2.3176 -0.5786 -1.1934
  874SOL    HW2 2771   2.037   3.342   2.663 -1.3190  0.7125  1.2334
  875SOL     OW 2772   0.215   2.766   1.033 -0.5154  0.7831 -0.3006
  875SOL    HW1 2773   0.203   2.673   1.048  0.2979  0.3640 -2.0140
  875SOL    HW2 2774   0.154   2.787   0.962  1.0239  0.9952 -1.5966
  876SOL     OW 2775   2.365   1.057   1.089  0.3548 -0.6557 -0.7149
  876SOL    HW1 2776   2.417   1.131   1.121  0.3711 -1.2693  0.7429
  876SOL    HW2 2777   2.385   0.986   1.150 -0.5160 -1.5428 -1.4395
  877SOL     OW 2778   1.935   0.202   1.438  0.0604 -0.0885  0.1563
  877SOL    HW1 2779   1.879   0.198   1.361  0.1637  3.0628 -0.2380
  877SOL    HW2 2780   2.024   0.196   1.403  0.1024  1.1810  0.0084
  878SOL     OW 2781   3.614   0.051   3.600  0.4289 -0.5797 -0.0188
  878SOL    HW1 2782   3.599   0.092   3.685  0.9995 -2.6644  1.1607
  878SOL    HW2 2783   3.709   0.050   3.589  0.3449  2.8157 -2.4048
  879SOL     OW 2784   0.658   0.799   0.192 -0.1915 -0.3197 -1.0499
  879SOL    HW1 2785   0.649   0.828   0.102 -2.1745 -1.3106 -1.2169
  879SOL    HW2 2786   0.574   0.819   0.233  0.5456 -0.2050  0.4915
  880SOL     OW 2787   2.427   2.289   0.391  0.0156 -0.6861  0.3888
  880SOL    HW1 2788   2.440   2.326   0.479 -0.4420  0.1655  0.1156
  880SOL    HW2 2789   2.513   2.294   0.350  0.3061 -1.4098  0.9100
  881SOL     OW 2790   3.426   3.183   0.205 -1.2863 -0.2935 -0.1522
  881SOL    HW1 2791   3.336   3.152   0.200 -1.4068 -0.4659  2.0584
  881SOL    HW2 2792   3.420   3.271   0.243 -0.4981 -0.5840  0.6913
  882SOL     OW 2793   0.463   1.492   2.826  0.0674 -0.0179  0.2517
  882SOL    HW1 2794   0.525   1.450   2.767 -1.1490 -0.7718 -0.5470
  882SOL    HW2 2795   0.491   1.465   2.914 -0.0672 -1.6956 -0.1819
  883SOL     OW 2796   0.801   1.009   3.453  0.1268  0.6899 -0.4442
  883SOL    HW1 2797   0.741   0.944   3.489  1.6376 -0.0336  0.9278
  883SOL    HW2 2798   0.746   1.084   3.431 -1.3849 -0.2956 -0.1256
  884SOL     OW 2799   1.199   1.720   3.035  0.3917  1.0349 -0.0218
  884SOL    HW1 2800   1.269   1.725   2.971  0.4880  2.5846  0.1778
  884SOL    HW2 2801   1.242   1.732   3.119  0.4390 -2.1039  0.5264
  885SOL     OW 2802   1.652   2.722   1.005  0.1740 -0.0439  0.1022
  885SOL    HW1 2803   1.601   2.801   1.023  1.8001  1.4381 -1.3764
  885SOL    HW2 2804   1.743   2.751   1.011  0.8126 -1.3361 -2.3269
  886SOL     OW 2805   3.450   2.172   0.468 -0.3425  0.4501  0.0620
  886SOL    HW1 2806   3.484   2.254   0.503 -0.3354 -0.0424  1.2812
  886SOL    HW2 2807   3.355   2.181   0.473 -0.3718  0.9091 -1.1130
  887SOL     OW 2808   0.598   3.001   2.687  0.6952  0.2469 -0.0466
  887SOL    HW1 2809   0.664   3.065   2.662  1.5921 -0.2754  0.9610
  887SOL    HW2 2810   0.516   3.051   2.687  1.3845  1.4284  0.8087
  888SOL     OW 2811   0.691   3.257   2.755 -0.9071 -0.0867  0.1122
  888SOL    HW1 2812   0.740   3.325   2.803 -0.1605 -0.9306  0.5768
  888SOL    HW2 2813   0.607   3.252   2.801 -1.1201  0.7804 -0.1586
  889SOL     OW 2814   1.218   1.913   3.419 -0.3608 -0.4294 -0.1800
  889SOL    HW1 2815   1.227   1.869   3.334 -1.2627 -0.3579 -0.3243
  889SOL    HW2 2816   1.297   1.966   3.427 -0.6501  0.2128 -1.3591
  890SOL     OW 2817   0.403   3.091   1.121 -0.4482 -0.5370 -0.0116
  890SOL    HW1 2818   0.355   3.167   1.088 -0.0422  1.6487  3.8246
  890SOL    HW2 2819   0.350   3.058   1.193  1.1638 -1.5477  0.7705
  891SOL     OW 2820   2.626   0.239   1.754  0.0778 -0.0936 -0.2728
  891SOL    HW1 2821   2.564   0.186   1.804  0.2942  0.9093  1.1004
  891SOL    HW2 2822   2.620   0.326   1.792  0.0121  0.8186 -2.2297
  892SOL     OW 2823   3.111   0.424   2.137  0.4604 -0.1475 -0.0049
  892SOL    HW1 2824   3.182   0.360   2.128 -0.7594 -2.2399  3.3690
  892SOL    HW2 2825   3.118   0.455   2.227 -3.2937 -1.1280  0.8063
  893SOL     OW 2826   0.924   3.279   2.227 -0.1142  0.8575 -0.7972
  893SOL    HW1 2827   0.998   3.337   2.216 -0.7296  1.5542 -1.3271
  893SOL    HW2 2828   0.928   3.253   2.319  1.1934  0.2950 -0.9899
  894SOL     OW 2829   2.354   3.538   1.408 -0.2529 -0.0443 -0.6627
  894SOL    HW1 2830   2.297   3.597   1.359 -0.1705 -1.0510 -2.0359
  894SOL    HW2 2831   2.416   3.596   1.452 -1.4995  0.9922 -0.1974
  895SOL     OW 2832   2.373   2.061   0.254  0.4953 -0.4464  0.2144
  895SOL    HW1 2833   2.448   2.028   0.204  1.0683  0.3606  0.5126
  895SOL    HW2 2834   2.408   2.136   0.303 -0.4505 -0.2130  0.5573
  896SOL     OW 2835   3.321   3.424   0.368  0.1282  0.2108  0.0461
  896SOL    HW1 2836   3.404   3.472   0.377 -0.3716  1.2551 -0.6615
  896SOL    HW2 2837   3.296   3.403   0.458  1.4175 -0.6071  0.2468
  897SOL     OW 2838   2.093   3.277   1.680  0.1823  0.0141 -0.3333
  897SOL    HW1 2839   2.185   3.295   1.699  0.3117 -2.1891  1.4926
  897SOL    HW2 2840   2.094   3.194   1.633 -0.9498 -1.7510  2.4911
  898SOL     OW 2841   0.607   0.663   3.499  0.8594 -0.6420 -0.1122
  898SOL    HW1 2842   0.669   0.622   3.560  0.3925 -0.1396  0.7224
  898SOL    HW2 2843   0.529   0.679   3.552  0.8300  0.8088 -0.5392
  899SOL     OW 2844   3.067   0.747   2.951 -0.0124 -0.4769  0.1454
  899SOL    HW1 2845   3.144   0.761   3.006  0.7622  1.1878 -1.2463
  899SOL    HW2 2846   3.011   0.689   3.001  0.4368  1.2678  2.8620
  900SOL     OW 2847   2.740   2.457   0.679  0.4843  0.7630  0.1127
  900SOL    HW1 2848   2.731   2.365   0.702 -0.8243  0.6229 -0.8295
  900SOL    HW2 2849   2.781   2.497   0.755  0.6446 -0.5153  0.7173
  901SOL     OW 2850   1.557   2.144   1.057 -0.3776 -0.4584  0.2786
  901SOL    HW1 2851   1.506   2.165   0.979 -0.2676 -0.2181  0.2695
  901SOL    HW2 2852   1.527   2.057   1.084 -0.4846 -0.4981  0.0254
  902SOL     OW 2853   2.876   0.965   2.559  0.3947 -0.1163  0.0179
  902SOL    HW1 2854   2.890   1.035   2.623  2.2990 -0.9586  0.5747
  902SOL    HW2 2855   2.953   0.909   2.567 -0.9045 -2.0786 -0.7085
  903SOL     OW 2856   1.129   2.974   1.032  0.0088 -0.0941  0.0746
  903SOL    HW1 2857   1.035   2.989   1.038 -0.2541 -0.5339 -2.0581
  903SOL    HW2 2858   1.162   2.991   1.120 -2.2254 -1.0972  1.1957
  904SOL     OW 2859   0.830   1.304   3.343  0.2296  0.0441 -0.5934
  904SOL    HW1 2860   0.839   1.296   3.438  0.9356 -2.5859 -0.8176
  904SOL    HW2 2861   0.871   1.388   3.322 -0.3564  0.9115  1.4369
  905SOL     OW 2862   3.508   0.220   2.360  0.2132  0.4207 -0.2597
  905SOL    HW1 2863   3.591   0.183   2.388 -0.1742 -1.8402 -1.8643
  905SOL    HW2 2864   3.451   0.214   2.437  1.0643  0.5421  0.3858
  906SOL     OW 2865   1.670   2.602   3.563  0.0631  0.2464 -0.1362
  906SOL    HW1 2866   1.663   2.534   3.630  1.5694 -1.1096 -1.2740
  906SOL    HW2 2867   1.579   2.620   3.537 -0.4400 -0.3480  1.1393
  907SOL     OW 2868   1.256   1.266   3.509  0.0455  0.3471 -0.4585
  907SOL    HW1 2869   1.210   1.350   3.511  0.0683  0.3614  1.8685
  907SOL    HW2 2870   1.193   1.205   3.472 -1.4825  0.6183  1.5466
  908SOL     OW 2871   3.474   1.162   2.162  0.7302  0.3461  0.6322
  908SOL    HW1 2872   3.534   1.138   2.232  0.7079 -0.6120  0.3296
  908SOL    HW2 2873   3.486   1.257   2.152  1.8997  0.2340  0.8326
  909SOL     OW 2874   0.305   2.097   2.651 -0.3918  0.0698 -0.2908
  909SOL    HW1 2875   0.350   2.142   2.723 -1.1114 -0.9843  0.8616
  909SOL    HW2 2876   0.266   2.020   2.692 -1.5515 -0.1027 -1.6579
  910SOL     OW 2877   1.573   1.189   0.452 -0.6641 -0.1822  0.2374
  910SOL    HW1 2878   1.610   1.152   0.372  0.5369 -0.9068  1.0950
  910SOL    HW2 2879   1.484   1.155   0.455  0.0048 -2.0035  0.3568
  911SOL     OW 2880   0.161   3.005   1.599  0.4686  0.2682 -1.0444
  911SOL    HW1 2881   0.080   2.999   1.549  0.5235 -0.2596 -1.0753
  911SOL    HW2 2882   0.227   2.962   1.544  1.1308  2.0696 -1.7432
  912SOL     OW 2883   0.659   2.487   1.436  0.0573 -0.1322 -0.1011
  912SOL    HW1 2884   0.751   2.510   1.446  0.4351 -0.5308 -2.2740
  912SOL    HW2 2885   0.657   2.425   1.363 -1.7474 -1.5065  1.0293
  913SOL     OW 2886   3.035   0.875   0.895  0.2739 -0.1202  0.4410
  913SOL    HW1 2887   3.049   0.783   0.875 -2.0816 -0.8188  1.7426
  913SOL    HW2 2888   3.015   0.877   0.988 -0.9554  1.5535  0.1848
  914SOL     OW 2889   0.573  -0.033   3.123  0.3741  0.6236  0.2118
  914SOL    HW1 2890   0.636   0.038   3.135 -0.4539  1.1289  1.8815
  914SOL    HW2 2891   0.492  -0.001   3.164 -0.4770 -0.6618 -0.4048
  915SOL     OW 2892   0.168   1.055   2.754 -0.5470 -0.2038 -0.3841
  915SOL    HW1 2893   0.172   0.978   2.697 -4.6190 -0.9881  0.1150
  915SOL    HW2 2894   0.134   1.124   2.698 -0.1405  0.3355  0.0221
  916SOL     OW 2895   2.963   0.362   1.173 -0.5126 -0.6964  0.1797
  916SOL    HW1 2896   2.963   0.458   1.164 -0.1198 -0.7335 -0.1887
  916SOL    HW2 2897   3.025   0.345   1.244 -1.1577 -0.6316  0.7743
  917SOL     OW 2898   1.266   1.655   1.270 -0.0092 -0.4997  0.0695
  917SOL    HW1 2899   1.332   1.607   1.220  0.7166 -0.5888  1.0928
  917SOL    HW2 2900   1.232   1.591   1.332 -1.4532 -0.6032 -0.7830
  918SOL     OW 2901   3.187   0.598   3.508  0.0786 -0.0894  0.1868
  918SOL    HW1 2902   3.260   0.596   3.571  0.8378  0.8576 -0.6359
  918SOL    HW2 2903   3.137   0.675   3.531  0.6159  0.5204 -0.6234
  919SOL     OW 2904   3.173   0.283   1.346  0.5724  0.4062  0.2701
  919SOL    HW1 2905   3.252   0.238   1.313  0.0463 -0.0117 -0.4502
  919SOL    HW2 2906   3.138   0.223   1.412 -1.6917 -1.7474 -2.6058
  920SOL     OW 2907   1.975   1.551   1.268 -0.1584 -0.0400 -0.5100
  920SOL    HW1 2908   1.994   1.586   1.355 -0.9067  0.0752 -0.3894
  920SOL    HW2 2909   2.009   1.618   1.208  0.9869 -0.4342 -0.3375
  921SOL     OW 2910   2.242   0.859   0.650 -0.5330 -0.6398 -0.0445
  921SOL    HW1 2911   2.180   0.905   0.593 -1.1262  0.6198  1.5701
  921SOL    HW2 2912   2.188   0.823   0.720  0.4903  0.2575  1.2555
  922SOL     OW 2913   3.045   3.120   0.448 -0.2389  0.0505 -0.7568
  922SOL    HW1 2914   3.134   3.138   0.481 -0.0762 -1.2483 -0.4400
  922SOL    HW2 2915   3.017   3.043   0.497 -1.0763 -0.2740 -1.7258
  923SOL     OW 2916   1.787   2.474   1.297  0.1835  0.0693  1.2348
  923SOL    HW1 2917   1.788   2.443   1.207 -0.9465 -0.6632  1.4567
  923SOL    HW2 2918   1.831   2.560   1.294 -0.4465  0.3643 -0.1163
  924SOL     OW 2919   0.454   3.717   1.958  0.3378  0.1029 -0.3999
  924SOL    HW1 2920   0.465   3.623   1.948 -2.7413 -0.2272 -1.6012
  924SOL    HW2 2921   0.424   3.728   2.048  2.2222  0.1799  0.2659
  925SOL     OW 2922   0.277   2.852   3.535 -0.6558  0.0369  0.1628
  925SOL    HW1 2923   0.238   2.938   3.550  0.6935  0.3784  2.0715
  925SOL    HW2 2924   0.309   2.825   3.621 -0.5473 -2.1354 -0.5161
  926SOL     OW 2925   2.108   0.658   0.289  0.4615  0.7293  0.0147
  926SOL    HW1 2926   2.016   0.679   0.303  0.2004 -0.5196  0.2868
  926SOL    HW2 2927   2.123   0.577   0.338  1.2356 -0.0707 -1.4631
  927SOL     OW 2928   1.848   2.080   1.255  0.4953 -0.4576  0.1723
  927SOL    HW1 2929   1.851   2.108   1.346 -0.2707  0.0778  0.0457
  927SOL    HW2 2930   1.759   2.100   1.226  0.8552 -0.1975 -0.8208
  928SOL     OW 2931   1.997   0.146   1.769 -0.7652 -0.9966 -0.0653
  928SOL    HW1 2932   1.945   0.095   1.831  0.6597 -0.5021  1.6454
  928SOL    HW2 2933   1.950   0.228   1.759 -1.6595 -1.5733 -0.6536
  929SOL     OW 2934   1.876   3.276   3.568 -0.1614 -0.0083  0.6330
  929SOL    HW1 2935   1.962   3.276   3.611  0.1451 -1.3473  0.0795
  929SOL    HW2 2936   1.896   3.289   3.475 -0.6155  0.2423  0.5673
  930SOL     OW 2937   3.024   0.150   3.202 -0.3062  0.0700 -0.3670
  930SOL    HW1 2938   2.970   0.198   3.139 -1.7116 -0.7366  0.1826
  930SOL    HW2 2939   2.975   0.070   3.219 -0.1029  0.3965  1.9806
  931SOL     OW 2940   1.256   3.029   1.837 -0.2321 -0.1500  0.4398
  931SOL    HW1 2941   1.339   3.064   1.869 -0.1209 -0.7766  0.8457
  931SOL    HW2 2942   1.216   3.103   1.790  0.8715 -0.0474 -0.3756
  932SOL     OW 2943   3.164   3.440   1.861 -0.0292 -0.6002  0.5601
  932SOL    HW1 2944   3.232   3.405   1.803 -1.3625  0.4534 -1.7972
  932SOL    HW2 2945   3.142   3.367   1.919 -0.3599 -2.6679 -1.9566
  933SOL     OW 2946   3.499   1.245   2.686  0.1202  0.1763  0.2795
  933SOL    HW1 2947   3.471   1.155   2.702 -1.2039  0.5106 -0.0240
  933SOL    HW2 2948   3.588   1.250   2.721 -0.9268 -0.3798  3.2449
  934SOL     OW 2949   0.881   1.795   1.169  0.3755 -0.4133  0.7228
  934SOL    HW1 2950   0.831   1.836   1.239  2.1768 -1.4965  2.7320
  934SOL    HW2 2951   0.814   1.752   1.114 -1.2899  2.6321  0.1614
  935SOL     OW 2952   0.735   1.920   2.019  0.2948 -0.1573  0.1160
  935SOL    HW1 2953   0.712   2.011   2.004  0.9539 -0.1761 -1.0862
  935SOL    HW2 2954   0.793   1.921   2.095  2.3136  0.7328 -1.3659
  936SOL     OW 2955   3.278   1.636   1.127 -0.4800 -0.4052 -0.7037
  936SOL    HW1 2956   3.361   1.607   1.165 -0.7964  1.3234  1.5474
  936SOL    HW2 2957   3.284   1.613   1.035  0.9083 -3.7843  0.0650
  937SOL     OW 2958   0.443   2.097   2.060  0.0276  0.4941  0.0999
  937SOL    HW1 2959   0.493   2.134   2.133 -0.2759  1.6381 -0.2521
  937SOL    HW2 2960   0.446   2.165   1.993 -0.5730 -0.1279 -0.5654
  938SOL     OW 2961   0.848   0.742   2.789  0.4111 -0.1215 -0.0393
  938SOL    HW1 2962   0.918   0.806   2.774  0.1429  0.9896  2.8311
  938SOL    HW2 2963   0.894   0.661   2.810  0.8795  0.5328  1.5558
  939SOL     OW 2964   2.835   2.727   0.349  0.0984  0.2567 -0.0250
  939SOL    HW1 2965   2.784   2.737   0.268 -0.4571 -0.1170  0.2730
  939SOL    HW2 2966   2.770   2.710   0.416  0.5160  1.0647  0.6059
  940SOL     OW 2967   1.936   1.753   3.698 -0.0465 -0.0305 -0.1090
  940SOL    HW1 2968   1.984   1.835   3.686 -0.5332  0.3091  0.2206
  940SOL    HW2 2969   1.985   1.689   3.646  0.0195  0.5871 -0.8253
  941SOL     OW 2970   2.650   2.193   0.688  0.2974  0.1951 -0.1433
  941SOL    HW1 2971   2.668   2.123   0.625  1.0792  0.0425  0.2383
  941SOL    HW2 2972   2.557   2.182   0.711  0.3781 -0.6325 -0.1904
  942SOL     OW 2973   3.667   3.720   2.154 -0.0402  0.0430 -0.4156
  942SOL    HW1 2974   3.714   3.651   2.202  2.0929  1.0741 -0.8957
  942SOL    HW2 2975   3.696   3.709   2.063 -1.1456  0.4147 -0.8182
  943SOL     OW 2976   0.221   2.112   3.379 -0.1199  0.2752  0.0729
  943SOL    HW1 2977   0.215   2.061   3.461 -1.4058  0.7960  0.3240
  943SOL    HW2 2978   0.173   2.192   3.397  0.9027  1.0875 -0.7099
  944SOL     OW 2979   3.522   1.453   0.126 -0.4094  0.4109  0.1973
  944SOL    HW1 2980   3.464   1.436   0.200  0.3270  1.4834  1.0653
  944SOL    HW2 2981   3.544   1.546   0.135  0.2876  0.3678 -0.9475
  945SOL     OW 2982   3.300   2.360   2.097 -0.0336  0.5367 -0.6107
  945SOL    HW1 2983   3.244   2.434   2.118 -1.5581 -0.9215  0.7382
  945SOL    HW2 2984   3.373   2.368   2.158  0.0058  1.1113 -0.7223
  946SOL     OW 2985   2.775   3.346   3.590  0.7056  0.4686 -0.1717
  946SOL    HW1 2986   2.705   3.410   3.586 -1.7017 -2.0042 -0.5862
  946SOL    HW2 2987   2.799   3.342   3.682 -1.6350 -0.4615  0.4783
  947SOL     OW 2988   2.975   1.602   2.338  0.5062  0.9914  0.0338
  947SOL    HW1 2989   3.020   1.568   2.260 -0.5426  0.7243 -0.4711
  947SOL    HW2 2990   3.046   1.621   2.399  1.3154  0.6267 -0.7552
  948SOL     OW 2991   3.685   0.048   0.919 -0.2104 -0.2959 -0.2032
  948SOL    HW1 2992   3.601   0.092   0.906 -0.2194 -0.6025 -1.3079
  948SOL    HW2 2993   3.703   0.006   0.835  1.3824  0.3255 -0.2033
  949SOL     OW 2994   0.313   1.079   2.459  0.4694 -0.2600 -0.0843
  949SOL    HW1 2995   0.378   1.028   2.508  0.1859 -0.1151  0.4562
  949SOL    HW2 2996   0.361   1.155   2.427  0.2778  0.5810  1.5152
  950SOL     OW 2997   1.515   3.406   3.286 -0.2357 -0.3936 -0.0488
  950SOL    HW1 2998   1.607   3.393   3.267 -0.5395 -0.0522 -1.9630
  950SOL    HW2 2999   1.495   3.493   3.252 -1.0788 -0.0690  1.1855
  951SOL     OW 3000   3.074   0.451   1.742 -0.4230  0.0625  0.4664
  951SOL    HW1 3001   3.055   0.544   1.753 -0.1889  0.4129 -1.6138
  951SOL    HW2 3002   2.988   0.408   1.740 -0.5316  0.2353  1.3750
  952SOL     OW 3003   0.414   0.574   1.273 -0.5270 -0.0152  0.7964
  952SOL    HW1 3004   0.398   0.480   1.275  0.4884 -0.2081  0.4625
  952SOL    HW2 3005   0.411   0.597   1.180 -1.0064  0.3354  0.8921
  953SOL     OW 3006   3.226   2.643   2.184 -0.0528 -0.0298 -0.0837
  953SOL    HW1 3007   3.203   2.735   2.168  1.9690  0.3280 -1.4178
  953SOL    HW2 3008   3.254   2.641   2.275 -0.8338  0.5164  0.1719
  954SOL     OW 3009   2.414   1.371   3.662  0.3020  0.1254  0.3146
  954SOL    HW1 3010   2.329   1.328   3.673  0.0005  0.3911 -0.8575
  954SOL    HW2 3011   2.415   1.400   3.571  1.7403 -0.0387  0.2557
  955SOL     OW 3012   2.134   3.323   3.631  0.0371  0.3136  1.3534
  955SOL    HW1 3013   2.168   3.384   3.566  0.4651 -0.5110  0.7944
  955SOL    HW2 3014   2.209   3.301   3.686 -0.0078 -0.0587  1.2715
  956SOL     OW 3015   3.616   1.856   2.947 -0.7300 -0.2657 -0.3907
  956SOL    HW1 3016   3.555   1.817   3.010  0.0607 -1.7434 -0.5136
  956SOL    HW2 3017   3.665   1.921   2.998 -0.9385 -0.5776  0.2151
  957SOL     OW 3018   1.815   0.343   1.818 -0.1373 -0.1758 -0.1306
  957SOL    HW1 3019   1.763   0.421   1.797  0.5297  0.3221  0.0434
  957SOL    HW2 3020   1.761   0.270   1.788 -0.5116  0.3783 -0.8437
  958SOL     OW 3021   1.278   0.484   3.138 -0.7935  1.0307 -0.5010
  958SOL    HW1 3022   1.206   0.439   3.095 -1.5064  1.8690 -0.2278
  958SOL    HW2 3023   1.357   0.445   3.102 -1.3696 -0.5831 -0.0887
  959SOL     OW 3024   0.203   0.932   2.013 -0.5648  0.0385  0.2497
  959SOL    HW1 3025   0.242   1.014   1.982 -0.6054  0.1534  0.4987
  959SOL    HW2 3026   0.180   0.950   2.104 -2.7148  0.5475 -0.3284
  960SOL     OW 3027   2.976   1.563   0.299 -0.1526 -0.6302  0.6206
  960SOL    HW1 3028   2.996   1.531   0.387 -1.0619 -0.6123  0.8464
  960SOL    HW2 3029   2.913   1.500   0.264  0.0671 -0.5365  0.0522
  961SOL     OW 3030   0.907   1.797   0.279  0.0535 -0.1741  0.1078
  961SOL    HW1 3031   0.864   1.730   0.226 -1.4658  0.2391  0.7568
  961SOL    HW2 3032   0.851   1.875   0.271  0.0442  0.0578  1.8665
  962SOL     OW 3033   2.480   2.955   3.266  0.2455 -0.2819 -0.7141
  962SOL    HW1 3034   2.519   2.989   3.185  1.0381 -1.5007 -0.8609
  962SOL    HW2 3035   2.541   2.888   3.296 -0.5488 -0.5446  0.3662
  963SOL     OW 3036   3.368   1.422   0.334  0.1213  0.5369  0.2021
  963SOL    HW1 3037   3.335   1.512   0.336  0.0143  0.4953  0.3904
  963SOL    HW2 3038   3.428   1.417   0.409  0.6166  0.6319 -0.1817
  964SOL     OW 3039   0.371   0.443   2.807 -0.4378 -0.1602 -0.0500
  964SOL    HW1 3040   0.285   0.440   2.763  0.5986 -0.4854 -2.1877
  964SOL    HW2 3041   0.405   0.354   2.798 -0.1176 -0.2107  1.3992
  965SOL     OW 3042   0.664   0.386   2.638 -0.1436 -0.5896  0.0518
  965SOL    HW1 3043   0.589   0.354   2.587 -1.3767  0.0472  1.4040
  965SOL    HW2 3044   0.627   0.452   2.697  1.4733 -0.3237  0.8197
  966SOL     OW 3045   1.986   1.457   0.810  0.0015 -0.3866 -0.4166
  966SOL    HW1 3046   1.918   1.392   0.827 -1.0383  0.7726  0.0233
  966SOL    HW2 3047   1.971   1.525   0.877 -0.5180  1.5064 -2.3460
  967SOL     OW 3048   1.068   2.790   2.440  0.1305 -0.4405 -0.8641
  967SOL    HW1 3049   1.035   2.841   2.366 -0.3538  2.0240  0.9355
  967SOL    HW2 3050   1.138   2.844   2.477  0.0365 -1.3756  0.7588
  968SOL     OW 3051   3.172   2.167   0.496 -0.0207 -0.4430 -0.2909
  968SOL    HW1 3052   3.192   2.122   0.578  0.7122 -1.0347 -0.7787
  968SOL    HW2 3053   3.101   2.227   0.519  0.0013 -0.7701  0.7173
  969SOL     OW 3054   1.661   0.686   2.599  0.7458 -0.3726  0.5104
  969SOL    HW1 3055   1.670   0.608   2.545  0.2771  0.3016 -0.5836
  969SOL    HW2 3056   1.741   0.737   2.581 -0.4883  0.9839 -1.4887
  970SOL     OW 3057   1.730   0.492   0.346 -0.1508 -0.4450 -0.6408
  970SOL    HW1 3058   1.727   0.433   0.422  1.2349  0.7762  0.4176
  970SOL    HW2 3059   1.779   0.442   0.280 -0.3568 -1.0783 -0.3300
  971SOL     OW 3060   1.941   2.544   3.551  0.3196  0.2242 -0.3954
  971SOL    HW1 3061   1.848   2.522   3.556  0.3716  0.1596  4.2248
  971SOL    HW2 3062   1.943   2.633   3.516 -1.3891  0.0217 -1.1164
  972SOL     OW 3063   0.603   1.349   0.179  0.2484 -0.1923 -0.9689
  972SOL    HW1 3064   0.656   1.370   0.256 -1.1064 -0.5876  0.1093
  972SOL    HW2 3065   0.566   1.433   0.152  1.0073  0.0052 -1.4268
  973SOL     OW 3066   0.867   1.346   0.141 -0.0508 -0.0264 -0.4269
  973SOL    HW1 3067   0.896   1.353   0.233 -0.3443  2.8754 -0.4580
  973SOL    HW2 3068   0.783   1.301   0.146  0.0011 -0.0355  0.7313
  974SOL     OW 3069   3.314   1.410   0.763  0.3103 -0.0924  0.5229
  974SOL    HW1 3070   3.339   1.377   0.676 -0.6220 -4.5100  1.6662
  974SOL    HW2 3071   3.220   1.428   0.755  0.2456 -0.4022  0.5662
  975SOL     OW 3072   0.059   1.630   2.124  0.2970 -0.4564  0.1835
  975SOL    HW1 3073   0.071   1.629   2.219  1.4178  0.5434  0.0683
  975SOL    HW2 3074   0.006   1.708   2.107  1.0895  0.0270 -0.1073
  976SOL     OW 3075   3.490   2.266   1.112  0.4773  0.6414  0.1955
  976SOL    HW1 3076   3.526   2.198   1.055 -3.1611 -2.2904  0.9999
  976SOL    HW2 3077   3.507   2.235   1.201 -0.6364  1.0996  0.5897
  977SOL     OW 3078   1.900   2.751   1.327  0.1288  0.6751 -0.0127
  977SOL    HW1 3079   1.981   2.783   1.367 -0.5457  2.5120 -0.0180
  977SOL    HW2 3080   1.916   2.756   1.232  1.3677 -2.7469 -0.1556
  978SOL     OW 3081   0.705   0.857   0.601 -0.1182 -0.1757  0.5371
  978SOL    HW1 3082   0.685   0.950   0.589 -1.6181 -0.7919 -3.0807
  978SOL    HW2 3083   0.619   0.816   0.613 -0.2539 -1.5754 -3.6207
  979SOL     OW 3084   0.789   0.269   3.689 -0.1700 -1.3311 -0.1906
  979SOL    HW1 3085   0.792   0.181   3.653  0.3867 -1.4383  0.1125
  979SOL    HW2 3086   0.824   0.260   3.778 -0.7225 -0.9238  0.0774
  980SOL     OW 3087   3.468   3.547   0.758 -0.1495  0.1860 -0.3788
  980SOL    HW1 3088   3.523   3.615   0.720 -1.7099  1.1820 -0.9507
  980SOL    HW2 3089   3.450   3.487   0.685  0.3271 -0.2541 -0.1422
  981SOL     OW 3090   2.754   0.875   2.785 -1.2349 -0.0104 -0.4496
  981SOL    HW1 3091   2.785   0.843   2.701 -1.3295  1.3592 -1.0312
  981SOL    HW2 3092   2.777   0.968   2.785 -0.0148 -0.2492  1.5980
  982SOL     OW 3093   0.039  -0.036   0.322  0.7376 -0.0642 -0.0307
  982SOL    HW1 3094  -0.042   0.002   0.290  0.6404 -1.0848 -1.0542
  982SOL    HW2 3095   0.100   0.038   0.327  0.3842  0.3410 -1.3680
  983SOL     OW 3096   2.993   2.790   1.411 -0.6153  0.5824  0.2648
  983SOL    HW1 3097   2.907   2.749   1.418 -0.9034  1.0151 -0.6590
  983SOL    HW2 3098   3.054   2.716   1.406 -1.0902  0.2540 -0.9442
  984SOL     OW 3099   2.576   2.655   3.051  0.0683 -0.0110 -0.8419
  984SOL    HW1 3100   2.615   2.713   2.986  0.2286 -0.9462 -1.6045
  984SOL    HW2 3101   2.560   2.573   3.004 -2.1433  0.0771 -0.3524
  985SOL     OW 3102   2.339   1.772   3.663  0.0261  0.4001  0.2740
  985SOL    HW1 3103   2.339   1.867   3.656  2.0346  0.4769  0.9021
  985SOL    HW2 3104   2.360   1.754   3.755  1.5754 -0.6367 -0.2469
  986SOL     OW 3105   0.453   0.724   3.210  0.1615  0.5038 -0.6362
  986SOL    HW1 3106   0.481   0.752   3.297 -0.7371 -1.2417  0.2615
  986SOL    HW2 3107   0.357   0.732   3.211 -0.0663 -1.5591 -0.6440
  987SOL     OW 3108   0.862   2.223   3.573 -0.0994 -0.3941  0.0465
  987SOL    HW1 3109   0.921   2.282   3.527  1.6171  0.0176  2.5462
  987SOL    HW2 3110   0.797   2.198   3.508  3.1228 -1.3806 -3.1131
  988SOL     OW 3111   3.530   0.549   2.345 -0.1606  0.1080  0.2368
  988SOL    HW1 3112   3.523   0.643   2.332  1.4815 -0.0693 -2.7111
  988SOL    HW2 3113   3.552   0.514   2.259 -0.8970 -3.0227  1.1906
  989SOL     OW 3114   0.114   2.703   3.065 -0.1787 -0.5781  0.1344
  989SOL    HW1 3115   0.154   2.623   3.098 -2.0640 -1.8887 -0.5770
  989SOL    HW2 3116   0.146   2.711   2.975  1.6908  0.7194  0.8424
  990SOL     OW 3117   2.531   2.618   0.809 -0.1981  0.0259  1.0722
  990SOL    HW1 3118   2.619   2.588   0.784 -1.0198 -1.6923  0.0538
  990SOL    HW2 3119   2.532   2.712   0.792  1.4618  0.0438  1.1185
  991SOL     OW 3120   3.673   2.411   1.335 -0.4940  0.2918 -0.4429
  991SOL    HW1 3121   3.639   2.324   1.355  0.7870 -0.1983 -0.3157
  991SOL    HW2 3122   3.605   2.452   1.282 -0.9343 -0.9343 -0.8488
  992SOL     OW 3123   2.401   3.708   0.373  0.2551 -0.4313  0.0924
  992SOL    HW1 3124   2.469   3.686   0.309 -0.5352 -2.2701 -0.1770
  992SOL    HW2 3125   2.321   3.716   0.321  0.2893  2.2692  0.3252
  993SOL     OW 3126   2.533   3.320   3.128  0.1349 -0.3699 -0.3370
  993SOL    HW1 3127   2.561   3.394   3.074 -0.5022 -1.0418 -1.6625
  993SOL    HW2 3128   2.437   3.320   3.121  0.0777 -0.7651  0.3991
  994SOL     OW 3129   0.971   3.717   0.340 -0.5763 -0.0380 -0.1957
  994SOL    HW1 3130   0.992   3.691   0.430  0.5823  0.6289 -0.2527
  994SOL    HW2 3131   0.974   3.635   0.290  1.8354 -0.0177 -0.1658
  995SOL     OW 3132   2.321   0.705   0.443  0.0759 -0.1102  0.4547
  995SOL    HW1 3133   2.302   0.734   0.533 -0.1410 -0.8276  0.6469
  995SOL    HW2 3134   2.235   0.701   0.402  0.1882  0.3437  0.1679
  996SOL     OW 3135   0.074   2.771   1.746  0.0551  0.2170 -0.2848
  996SOL    HW1 3136   0.124   2.848   1.720  0.2775  1.3184  2.9708
  996SOL    HW2 3137   0.139   2.710   1.780 -0.2956 -0.7592 -1.3094
  997SOL     OW 3138   3.583   2.306   2.519  0.0542  0.0125  0.1862
  997SOL    HW1 3139   3.518   2.308   2.589  0.2528 -1.3240  0.4322
  997SOL    HW2 3140   3.639   2.382   2.535  2.4442 -2.2138  3.7925
  998SOL     OW 3141   1.083   3.393   3.530 -0.2485  0.4686 -0.2555
  998SOL    HW1 3142   1.115   3.305   3.546  0.8662  1.0451  0.9301
  998SOL    HW2 3143   1.093   3.406   3.436 -2.1477 -1.2683 -0.7646
  999SOL     OW 3144   0.371   2.624   2.285 -0.1120  0.7064 -0.1511
  999SOL    HW1 3145   0.392   2.579   2.203  2.0871 -1.8684  1.6463
  999SOL    HW2 3146   0.448   2.678   2.303 -0.9819  2.0055 -0.1754
 1000SOL     OW 3147   0.447   0.407   1.898 -0.2850 -0.1990  0.3092
 1000SOL    HW1 3148   0.353   0.389   1.888 -0.5493  0.8666  0.6605
 1000SOL    HW2 3149   0.457   0.425   1.991 -0.4139  3.0307 -0.1859
 1001SOL     OW 3150   0.705   3.677   0.058  0.1382 -0.0367  0.3643
 1001SOL    HW1 3151   0.706   3.585   0.087  1.2100 -0.8700 -2.0466
 1001SOL    HW2 3152   0.777   3.683  -0.005  0.3474  2.5941  0.7523
 1002SOL     OW 3153   1.805   1.131   2.788  0.1272 -0.5332 -0.1775
 1002SOL    HW1 3154   1.847   1.169   2.865 -1.6840  0.2646  0.4672
 1002SOL    HW2 3155   1.864   1.154   2.715  0.6142  0.8977  0.6241
 1003SOL     OW 3156   3.667   3.496   3.359 -0.1298  0.1039  0.6153
 1003SOL    HW1 3157   3.593   3.436   3.369 -0.1074  0.2554  1.9076
 1003SOL    HW2 3158   3.640   3.557   3.290  0.3722 -2.1148 -1.6696
 1004SOL     OW 3159   2.606   2.733   3.323  0.5036 -0.0008 -0.2123
 1004SOL    HW1 3160   2.671   2.681   3.370 -0.2315  0.6050  1.5574
 1004SOL    HW2 3161   2.575   2.676   3.253  3.3411 -0.0927 -1.5170
 1005SOL     OW 3162   0.896   2.053   1.438 -0.0676  0.2644 -0.0650
 1005SOL    HW1 3163   0.958   1.980   1.437 -0.7973 -0.4161  1.2126
 1005SOL    HW2 3164   0.911   2.098   1.355  0.8933 -0.9189 -0.5752
 1006SOL     OW 3165   2.189   3.197   0.883  0.1875 -0.0735  0.0101
 1006SOL    HW1 3166   2.111   3.172   0.932 -0.4766  0.6785 -0.6234
 1006SOL    HW2 3167   2.168   3.284   0.848  0.9712 -0.2277 -0.8820
 1007SOL     OW 3168   0.809   0.524   3.638  0.1188 -0.1487  0.6559
 1007SOL    HW1 3169   0.900   0.513   3.608 -0.4356 -0.7114 -0.9308
 1007SOL    HW2 3170   0.781   0.436   3.662 -0.0276  0.0132  1.0775
 1008SOL     OW 3171   0.603   1.883   2.363  0.6682  0.4955 -0.6255
 1008SOL    HW1 3172   0.618   1.977   2.376 -0.0606  0.3421  1.7195
 1008SOL    HW2 3173   0.508   1.874   2.361  0.6924 -0.3382  0.7526
 1009SOL     OW 3174   3.557   3.348   1.989 -0.3798 -0.2974  0.5657
 1009SOL    HW1 3175   3.590   3.407   1.921  0.6258 -0.4659  0.8955
 1009SOL    HW2 3176   3.544   3.405   2.065 -1.6102 -0.0883  0.2184
 1010SOL     OW 3177   3.044   1.044   2.082 -0.4405 -0.2686  0.3406
 1010SOL    HW1 3178   3.019   1.116   2.139 -3.7691  0.2213 -1.4716
 1010SOL    HW2 3179   3.076   1.087   2.003 -1.6587 -0.6989 -0.4255
 1011SOL     OW 3180   0.511   0.272   2.449 -0.1985 -0.4746 -0.4866
 1011SOL    HW1 3181   0.418   0.293   2.440 -0.2181 -0.2091  0.2345
 1011SOL    HW2 3182   0.515   0.177   2.440 -0.1846 -0.2811 -3.1573
 1012SOL     OW 3183   0.747   1.069   2.915 -0.1769  0.4004 -0.2202
 1012SOL    HW1 3184   0.792   1.023   2.986 -2.6051 -2.7426 -0.4666
 1012SOL    HW2 3185   0.654   1.056   2.933 -0.9139  1.4682 -2.7585
 1013SOL     OW 3186   2.560   1.665   3.487 -0.4929  0.0651  0.4477
 1013SOL    HW1 3187   2.485   1.669   3.547 -0.2844  1.0882  0.6592
 1013SOL    HW2 3188   2.521   1.642   3.403 -0.7469 -1.7574  1.0073
 1014SOL     OW 3189   1.067   0.540   0.716  0.3066  0.5191  0.1660
 1014SOL    HW1 3190   1.099   0.460   0.674 -1.6717  0.4780 -1.4034
 1014SOL    HW2 3191   0.997   0.511   0.774 -0.8866  1.1232 -0.9180
 1015SOL     OW 3192   1.520   3.289   0.463  0.7392 -0.4361 -0.3200
 1015SOL    HW1 3193   1.517   3.196   0.437  3.5064 -0.4839 -0.7613
 1015SOL    HW2 3194   1.502   3.288   0.557  2.7753 -1.7220  0.1130
 1016SOL     OW 3195   2.082   0.467   1.298 -0.3070  0.3570  0.1587
 1016SOL    HW1 3196   2.084   0.531   1.226  0.8119 -0.3613 -0.4764
 1016SOL    HW2 3197   2.139   0.397   1.269  0.7516  0.3644  2.0718
 1017SOL     OW 3198   2.865   0.509   0.290 -0.2737 -0.2034  0.0491
 1017SOL    HW1 3199   2.834   0.468   0.371  1.4627 -2.8174 -0.4846
 1017SOL    HW2 3200   2.786   0.533   0.243 -1.3320  0.2272  1.9432
 1018SOL     OW 3201   1.341   0.677   2.144  0.4083 -0.0282  0.3102
 1018SOL    HW1 3202   1.267   0.729   2.176 -0.3554 -0.1712 -1.1145
 1018SOL    HW2 3203   1.325   0.669   2.050  1.9685 -0.5316  0.0660
 1019SOL     OW 3204   1.509   3.016   1.426  0.2470  0.5453 -0.6075
 1019SOL    HW1 3205   1.436   2.956   1.441 -0.1918  0.8795 -1.3597
 1019SOL    HW2 3206   1.587   2.966   1.452 -0.4173  1.1659  3.0225
 1020SOL     OW 3207   3.367   1.054   1.804  0.1265  0.0868 -0.4030
 1020SOL    HW1 3208   3.375   1.075   1.710 -3.0983  2.4751 -0.3125
 1020SOL    HW2 3209   3.386   1.137   1.848  1.8812 -1.0789  1.1653
 1021SOL     OW 3210   0.406   2.110   2.395  0.2922  0.0790  0.4081
 1021SOL    HW1 3211   0.372   2.084   2.481  0.1890  0.2105  0.4082
 1021SOL    HW2 3212   0.393   2.205   2.392 -0.2951 -0.0055 -0.0077
 1022SOL     OW 3213   1.487   0.828   2.392  0.7018  0.3205  0.8594
 1022SOL    HW1 3214   1.400   0.858   2.419  1.2744  1.3963  1.6110
 1022SOL    HW2 3215   1.503   0.749   2.444 -1.2990 -2.1596 -1.9562
 1023SOL     OW 3216   2.146   2.420   1.001 -0.3653  0.4531 -0.0182
 1023SOL    HW1 3217   2.144   2.492   0.938  0.7745  0.9574  0.4802
 1023SOL    HW2 3218   2.191   2.457   1.078 -0.0018 -0.7034  0.3465
 1024SOL     OW 3219   3.380   0.208   1.717  0.2947  0.0767  0.1449
 1024SOL    HW1 3220   3.306   0.189   1.659  0.9746  0.4430 -0.8663
 1024SOL    HW2 3221   3.384   0.132   1.775 -1.5554  0.5558  0.9798
 1025SOL     OW 3222   2.422   1.714   2.737 -0.1916 -0.0902  0.2664
 1025SOL    HW1 3223   2.417   1.803   2.771 -1.3846 -0.8268  2.2289
 1025SOL    HW2 3224   2.449   1.661   2.813 -1.6232 -1.6663 -0.2619
 1026SOL     OW 3225   3.144   1.974   0.708 -0.6033  0.2854 -0.4104
 1026SOL    HW1 3226   3.161   1.894   0.657  0.4271  0.3140 -0.1334
 1026SOL    HW2 3227   3.057   1.960   0.746 -0.8427 -0.2854 -1.1366
 1027SOL     OW 3228   0.744   3.563   0.903  0.1142  0.5214 -0.0246
 1027SOL    HW1 3229   0.801   3.641   0.904 -0.3814  0.8900  0.9112
 1027SOL    HW2 3230   0.788   3.501   0.962  0.7503 -0.1130 -1.1246
 1028SOL     OW 3231   1.614   1.516   0.580  0.0855  0.2710 -0.1810
 1028SOL    HW1 3232   1.542   1.498   0.520 -0.0966 -2.1836  0.6687
 1028SOL    HW2 3233   1.690   1.527   0.524  0.1126 -2.9011 -0.9497
 1029SOL     OW 3234   3.498   1.777   0.731 -0.0328 -0.3771 -0.7750
 1029SOL    HW1 3235   3.415   1.734   0.750  0.7708 -0.8333  2.1398
 1029SOL    HW2 3236   3.489   1.864   0.771  1.3767 -0.9790  0.9591
 1030SOL     OW 3237   2.274   0.164   3.423  0.7644 -0.4672 -0.2566
 1030SOL    HW1 3238   2.200   0.217   3.453  0.8760 -0.6000  0.2725
 1030SOL    HW2 3239   2.258   0.150   3.330 -0.5903 -1.6284  0.1151
 1031SOL     OW 3240   1.812   0.637   3.505  0.2865  0.1198  0.1410
 1031SOL    HW1 3241   1.814   0.542   3.491 -1.3224  0.2197 -1.0598
 1031SOL    HW2 3242   1.733   0.653   3.556  0.8147  0.7815  0.7732
 1032SOL     OW 3243   2.066   1.784   3.430  0.3787 -0.1668 -0.1020
 1032SOL    HW1 3244   1.992   1.742   3.387 -0.2230  1.4638 -0.7434
 1032SOL    HW2 3245   2.113   1.712   3.472  0.2278 -1.6738 -2.3373
 1033SOL     OW 3246   2.394   3.636   0.987 -0.4915 -0.2281  0.5698
 1033SOL    HW1 3247   2.407   3.692   0.910 -2.2388 -0.3020  0.1735
 1033SOL    HW2 3248   2.450   3.674   1.054 -0.3141  0.9415 -0.2137
 1034SOL     OW 3249   1.181   0.438   0.096  0.1357 -0.0604  0.0428
 1034SOL    HW1 3250   1.140   0.377   0.035  0.7335  0.0933 -0.5118
 1034SOL    HW2 3251   1.112   0.459   0.159  0.1153 -1.8639  0.6688
 1035SOL     OW 3252   2.396   1.815   1.110 -0.1708  0.1581 -0.5105
 1035SOL    HW1 3253   2.363   1.902   1.090 -3.5782 -0.7835  0.1558
 1035SOL    HW2 3254   2.392   1.768   1.027 -2.7840 -0.4849 -0.1338
 1036SOL     OW 3255   1.796   2.604   1.825  0.2062  0.3516 -0.5679
 1036SOL    HW1 3256   1.725   2.653   1.784 -0.9989 -0.4747  0.4570
 1036SOL    HW2 3257   1.756   2.565   1.903  1.5308 -0.9810 -0.5201
 1037SOL     OW 3258   0.948   1.370   2.871  0.5360 -0.5599 -0.2039
 1037SOL    HW1 3259   0.855   1.371   2.850  0.3331 -1.4670  0.6017
 1037SOL    HW2 3260   0.990   1.413   2.796 -0.9424  5.5707  1.9051
 1038SOL     OW 3261   1.501   3.543   1.435  0.4781 -0.1358  0.3923
 1038SOL    HW1 3262   1.480   3.455   1.467  0.7430  0.1851  1.4969
 1038SOL    HW2 3263   1.530   3.591   1.513  2.5977  0.2676 -0.5580
 1039SOL     OW 3264   3.683   3.086   2.522 -0.3392  0.7194  0.6461
 1039SOL    HW1 3265   3.701   3.152   2.456 -3.3708 -0.3411 -1.4505
 1039SOL    HW2 3266   3.617   3.125   2.578  0.5819  0.7722  1.7374
 1040SOL     OW 3267   0.464   0.081   1.015 -0.2440  0.0765  0.1862
 1040SOL    HW1 3268   0.472   0.092   0.921  1.5858  2.8749  0.5476
 1040SOL    HW2 3269   0.370   0.072   1.031 -0.8875  2.6506 -1.6704
 1041SOL     OW 3270   2.019   0.412   2.721  0.3018  0.2065 -0.0772
 1041SOL    HW1 3271   1.965   0.468   2.775  0.6875  0.8717 -0.3733
 1041SOL    HW2 3272   2.106   0.452   2.724  0.6658 -0.5510 -0.0328
 1042SOL     OW 3273   1.484   2.965   2.848 -0.5031  0.5319  0.3472
 1042SOL    HW1 3274   1.510   2.974   2.940 -0.5532 -1.1357  0.5452
 1042SOL    HW2 3275   1.556   2.918   2.807  0.7679  3.4939 -1.1360
 1043SOL     OW 3276   2.911   2.986   3.228  0.5934 -0.2311 -0.5124
 1043SOL    HW1 3277   2.903   3.051   3.298 -0.9165 -2.2339  1.3263
 1043SOL    HW2 3278   2.823   2.981   3.191  1.2510  0.3932 -2.2458
 1044SOL     OW 3279   1.911   3.300   0.700  0.5288  0.1024  0.2487
 1044SOL    HW1 3280   1.909   3.204   0.699  0.7396  0.0993 -0.1177
 1044SOL    HW2 3281   1.960   3.323   0.621  2.8573  0.4310  1.6790
 1045SOL     OW 3282   2.318   2.331   0.052 -1.1870  0.4308  0.4884
 1045SOL    HW1 3283   2.265   2.274   0.108 -0.9836  0.6487  0.9048
 1045SOL    HW2 3284   2.254   2.378  -0.001 -1.3329 -0.6966 -0.3681
 1046SOL     OW 3285   1.472   3.216   0.732 -0.2479  0.0020 -0.2147
 1046SOL    HW1 3286   1.540   3.152   0.753 -1.6197 -2.0436 -1.6073
 1046SOL    HW2 3287   1.430   3.236   0.815 -1.1556 -2.6055  0.0304
 1047SOL     OW 3288   0.621   1.094   1.987 -0.1153  0.0892  0.3312
 1047SOL    HW1 3289   0.559   1.117   1.918 -0.0481  3.8144  1.3011
 1047SOL    HW2 3290   0.705   1.084   1.941 -0.6944 -1.1144 -0.5057
 1048SOL     OW 3291   0.190   0.350   1.943  0.1507  0.5178 -0.0835
 1048SOL    HW1 3292   0.166   0.258   1.955 -0.8933  0.9863  1.6959
 1048SOL    HW2 3293   0.128   0.382   1.877 -1.8031  0.7505  1.7495
 1049SOL     OW 3294   2.163   1.505   3.252  0.5249  0.0900  0.1046
 1049SOL    HW1 3295   2.214   1.430   3.222 -0.6171 -1.5903  2.0981
 1049SOL    HW2 3296   2.075   1.469   3.266 -0.8896  2.5211 -1.7048
 1050SOL     OW 3297   2.346   1.601   0.457 -0.1355 -0.1399  0.4401
 1050SOL    HW1 3298   2.263   1.568   0.422 -0.3111  2.0974 -1.4813
 1050SOL    HW2 3299   2.321   1.642   0.540 -0.6164 -1.0613  0.7692
 1051SOL     OW 3300   2.281   1.340   0.246 -0.6770  0.2507 -0.3872
 1051SOL    HW1 3301   2.245   1.252   0.236 -1.8756  0.5978  0.5697
 1051SOL    HW2 3302   2.368   1.335   0.207  0.1875 -1.9658  1.5410
 1052SOL     OW 3303   2.273   3.354   3.245  0.6166  0.3899  0.4319
 1052SOL    HW1 3304   2.268   3.431   3.301  0.0955  0.5628  0.1505
 1052SOL    HW2 3305   2.251   3.280   3.302 -0.5411  0.6335  0.3083
 1053SOL     OW 3306   2.050   2.980   3.715 -0.4223  0.5796 -0.0583
 1053SOL    HW1 3307   2.010   2.906   3.762  1.3189 -0.2402  0.2259
 1053SOL    HW2 3308   2.007   2.980   3.630 -1.5152  0.1988  0.4706
 1054SOL     OW 3309   2.596   0.570   3.527 -0.1160 -0.1372  0.0250
 1054SOL    HW1 3310   2.520   0.538   3.574  2.2043 -1.4539  3.2450
 1054SOL    HW2 3311   2.648   0.492   3.507  0.8560  0.7740 -1.1999
 1055SOL     OW 3312   2.262   3.590   0.154  0.3042 -0.0921 -0.3476
 1055SOL    HW1 3313   2.224   3.508   0.184 -2.3917  1.3274  0.4600
 1055SOL    HW2 3314   2.309   3.567   0.074 -1.3990 -2.2352 -0.8202
 1056SOL     OW 3315   2.217   1.658   0.752  0.3925 -0.6112  0.1416
 1056SOL    HW1 3316   2.257   1.606   0.822 -1.3143  0.5266  2.0659
 1056SOL    HW2 3317   2.150   1.602   0.715 -0.3047 -0.4140  1.0707
 1057SOL     OW 3318   3.271   2.492   2.441 -0.0518  0.0606 -0.1473
 1057SOL    HW1 3319   3.181   2.460   2.429 -0.8150  0.9749  2.4616
 1057SOL    HW2 3320   3.305   2.441   2.515  1.3526  0.2319 -0.6470
 1058SOL     OW 3321   2.161   1.312   3.542 -0.4368 -0.3516  0.4218
 1058SOL    HW1 3322   2.084   1.287   3.594 -0.8546 -0.3771 -0.1919
 1058SOL    HW2 3323   2.200   1.228   3.516  0.6886 -0.3592  1.9746
 1059SOL     OW 3324   2.135   1.583   3.622  0.2800  0.1780 -0.3582
 1059SOL    HW1 3325   2.211   1.633   3.653 -0.7469  0.1951  2.5017
 1059SOL    HW2 3326   2.168   1.494   3.611  0.7038  0.1157  1.1374
 1060SOL     OW 3327   2.539   3.405   3.382 -0.7601  0.2925 -0.3552
 1060SOL    HW1 3328   2.517   3.373   3.294  0.7680  2.2476 -1.5527
 1060SOL    HW2 3329   2.555   3.499   3.369 -0.2966  0.5851  2.0022
 1061SOL     OW 3330   3.011   1.088   1.466 -0.1977 -0.6930 -0.0966
 1061SOL    HW1 3331   2.975   1.104   1.379 -1.1045 -0.6766  0.2681
 1061SOL    HW2 3332   2.935   1.093   1.525  0.7729  2.4794  1.1206
 1062SOL     OW 3333   0.552   0.636   1.794 -0.5474  0.7092  0.5637
 1062SOL    HW1 3334   0.476   0.651   1.738  0.5999 -0.0420 -1.2971
 1062SOL    HW2 3335   0.547   0.543   1.817  0.0667  0.5263 -0.0080
 1063SOL     OW 3336   2.971   0.219   3.680  0.0746 -0.8460  0.2487
 1063SOL    HW1 3337   3.018   0.148   3.725  0.3143 -1.0263 -0.2771
 1063SOL    HW2 3338   3.021   0.234   3.600  1.1859  1.3034  1.2667
 1064SOL     OW 3339   1.561   0.933   0.954 -0.3529  0.3100 -0.4330
 1064SOL    HW1 3340   1.496   0.863   0.956  1.2619 -1.3435 -2.2127
 1064SOL    HW2 3341   1.594   0.932   0.864  0.0406  3.1168 -0.3942
 1065SOL     OW 3342   1.947   2.449   3.158 -0.7799  0.4334  0.2063
 1065SOL    HW1 3343   1.981   2.496   3.081 -1.3334  0.6047  0.0586
 1065SOL    HW2 3344   1.951   2.357   3.134  0.3384  0.3930  0.5065
 1066SOL     OW 3345   2.470   0.979   3.565  0.2924  0.5901 -0.1246
 1066SOL    HW1 3346   2.523   0.901   3.552 -0.0453  0.5819 -1.6744
 1066SOL    HW2 3347   2.477   1.027   3.483 -2.1342  0.5398 -0.4484
 1067SOL     OW 3348   2.810   0.175   0.640  0.4466 -0.1293  0.0711
 1067SOL    HW1 3349   2.738   0.130   0.685 -0.6710  1.1564 -0.3505
 1067SOL    HW2 3350   2.884   0.169   0.700  1.1920 -4.6147 -0.9403
 1068SOL     OW 3351   1.320   1.164   2.273  0.4675 -0.2740 -0.4683
 1068SOL    HW1 3352   1.227   1.145   2.260  0.5817 -1.4282  0.3296
 1068SOL    HW2 3353   1.365   1.104   2.214  0.7230  0.5112 -1.1020
 1069SOL     OW 3354   0.322   1.675   0.605 -0.1129  0.9820  0.0952
 1069SOL    HW1 3355   0.317   1.665   0.510 -2.5808  0.2024  0.2402
 1069SOL    HW2 3356   0.334   1.769   0.619 -2.7606  1.5708 -1.0162
 1070SOL     OW 3357   0.715   0.745   1.043  0.0829  0.2804  0.0443
 1070SOL    HW1 3358   0.631   0.699   1.042  1.1867 -1.8553 -0.6268
 1070SOL    HW2 3359   0.735   0.761   0.951 -1.1678  4.0289  0.2782
 1071SOL     OW 3360   1.992   1.970   2.144  0.3916 -0.3625 -0.1702
 1071SOL    HW1 3361   1.927   1.926   2.089 -0.6192  0.1710  0.5580
 1071SOL    HW2 3362   2.041   1.899   2.185 -1.2963 -0.8851  1.0921
 1072SOL     OW 3363   3.098   3.030   1.372  0.3576  0.5041  0.0078
 1072SOL    HW1 3364   3.090   3.007   1.279  1.9435  0.4883 -0.1547
 1072SOL    HW2 3365   3.072   2.951   1.419 -1.0239  0.6942 -0.3817
 1073SOL     OW 3366   1.718   1.567   1.385 -0.3627  0.0004  0.2548
 1073SOL    HW1 3367   1.735   1.658   1.361  2.5416 -0.0919  1.4663
 1073SOL    HW2 3368   1.772   1.516   1.324  1.0396 -0.6264  1.9213
 1074SOL     OW 3369   1.149   0.620   2.710  0.0968 -0.4278 -0.2899
 1074SOL    HW1 3370   1.222   0.654   2.658 -1.3910  1.1587 -1.4717
 1074SOL    HW2 3371   1.160   0.661   2.796  0.8610 -0.6157 -0.2882
 1075SOL     OW 3372   3.317   1.575   1.485  0.3599  0.0299  0.0627
 1075SOL    HW1 3373   3.374   1.618   1.550  0.3986  0.3647 -0.1923
 1075SOL    HW2 3374   3.296   1.643   1.422  1.4372 -0.6186 -1.0387
 1076SOL     OW 3375   1.846   0.732   0.357  0.6310 -0.2583 -0.3179
 1076SOL    HW1 3376   1.874   0.755   0.446 -0.9154  0.5643 -0.0210
 1076SOL    HW2 3377   1.800   0.649   0.367 -0.3004  0.2567 -0.1833
 1077SOL     OW 3378   1.498   0.345   3.056 -0.4825  0.1901  0.6184
 1077SOL    HW1 3379   1.593   0.352   3.062 -0.5579  0.4130  1.9260
 1077SOL    HW2 3380   1.483   0.278   2.989  0.5373  1.5061 -0.9967
 1078SOL     OW 3381   1.840   0.230   2.169  0.1257 -0.1726 -0.8080
 1078SOL    HW1 3382   1.904   0.233   2.098 -0.1665  0.1179 -1.0578
 1078SOL    HW2 3383   1.758   0.257   2.129 -0.6647 -2.6148 -1.0215
 1079SOL     OW 3384   2.038   1.871   2.704  0.6477 -0.6716  0.0672
 1079SOL    HW1 3385   2.102   1.862   2.633  3.0097  0.3355  1.9140
 1079SOL    HW2 3386   2.077   1.825   2.778  0.5553  2.0849  2.0027
 1080SOL     OW 3387   1.240   0.707   1.221 -0.3691 -0.2155  0.2334
 1080SOL    HW1 3388   1.182   0.758   1.279  0.8877  1.2394  0.2764
 1080SOL    HW2 3389   1.325   0.709   1.265  0.5860  0.7736 -1.5252
 1081SOL     OW 3390   2.564   0.051   1.519  0.2986 -0.1935 -0.6035
 1081SOL    HW1 3391   2.626   0.122   1.536 -2.7546  2.4479  0.4533
 1081SOL    HW2 3392   2.588  -0.017   1.581  2.3331  0.5391 -0.5104
 1082SOL     OW 3393   2.219   0.168   3.149 -0.3564  0.2458 -0.1930
 1082SOL    HW1 3394   2.170   0.136   3.074 -2.0009 -0.1869  1.0107
 1082SOL    HW2 3395   2.305   0.190   3.114 -0.0748 -2.6817 -1.6566
 1083SOL     OW 3396   3.100   1.815   2.862 -0.3511  0.1029 -0.0528
 1083SOL    HW1 3397   3.150   1.895   2.881 -1.5894  0.7396  0.6552
 1083SOL    HW2 3398   3.165   1.754   2.828  0.7095  1.2617 -0.1846
 1084SOL     OW 3399   1.215   0.709   3.370 -0.2461  0.0709  0.2399
 1084SOL    HW1 3400   1.287   0.646   3.375 -0.4208 -0.5535 -3.2392
 1084SOL    HW2 3401   1.258   0.794   3.370  0.4677 -0.2748 -1.0686
 1085SOL     OW 3402   0.519   2.395   2.455  0.1365 -0.3476 -0.5315
 1085SOL    HW1 3403   0.519   2.474   2.401  2.2144  0.7916  0.9844
 1085SOL    HW2 3404   0.460   2.415   2.528  1.4305  0.2816  0.3904
 1086SOL     OW 3405   0.889   2.515   1.742 -0.1661  0.1470 -0.2792
 1086SOL    HW1 3406   0.865   2.559   1.660 -1.1646  1.6959  0.7794
 1086SOL    HW2 3407   0.815   2.532   1.801 -1.7497 -4.8602 -0.3534
 1087SOL     OW 3408   0.966   3.683   2.004  0.1971  0.1039 -0.0419
 1087SOL    HW1 3409   0.923   3.757   2.048 -1.6692 -1.2243  0.4737
 1087SOL    HW2 3410   1.033   3.654   2.066  0.2879  0.7537  0.1691
 1088SOL     OW 3411   1.026   1.045   2.518 -0.7936  0.2814 -0.1815
 1088SOL    HW1 3412   1.070   1.130   2.526 -1.5359  0.5508  1.5216
 1088SOL    HW2 3413   0.974   1.053   2.438 -1.2696  1.6550  0.2253
 1089SOL     OW 3414   0.227   2.351   0.707 -0.1996 -0.2932  0.3584
 1089SOL    HW1 3415   0.172   2.349   0.628  0.7058 -0.2560 -0.2913
 1089SOL    HW2 3416   0.232   2.260   0.735 -1.0143 -0.2317  0.7335
 1090SOL     OW 3417   0.582   2.492   1.090  0.3634 -0.1569  0.7072
 1090SOL    HW1 3418   0.623   2.407   1.100  0.0279 -0.1851  2.0339
 1090SOL    HW2 3419   0.516   2.479   1.021  1.0284 -0.6798  0.1581
 1091SOL     OW 3420   0.729   1.135   2.613  0.5581  0.1264 -0.4544
 1091SOL    HW1 3421   0.731   1.098   2.701  0.7381 -0.8088 -0.8422
 1091SOL    HW2 3422   0.820   1.137   2.585  0.5001  0.4083 -0.6322
 1092SOL     OW 3423   1.443   1.521   3.672  0.4732 -0.4415  0.1706
 1092SOL    HW1 3424   1.473   1.440   3.714 -1.1857 -0.4750  1.3624
 1092SOL    HW2 3425   1.370   1.551   3.725 -0.5998  0.4834 -1.7086
 1093SOL     OW 3426   2.086   0.451   0.037  0.2860 -0.1277  0.4404
 1093SOL    HW1 3427   2.154   0.388   0.061 -0.0816 -0.0712  1.7177
 1093SOL    HW2 3428   2.097   0.522   0.100 -0.6262  0.1184  0.3301
 1094SOL     OW 3429   2.957   2.360   0.520  0.0101  0.3775 -0.9041
 1094SOL    HW1 3430   2.880   2.413   0.541 -0.5968 -1.1744  1.1384
 1094SOL    HW2 3431   3.020   2.422   0.482 -0.5863  2.6160  1.5062
 1095SOL     OW 3432   1.565   3.068   2.265  0.0229 -0.4108  0.5406
 1095SOL    HW1 3433   1.472   3.063   2.285  0.4776 -1.0147  2.6998
 1095SOL    HW2 3434   1.609   3.049   2.347  2.0842 -1.5749 -0.7303
 1096SOL     OW 3435   2.405   1.060   0.819  0.4803 -0.2182  0.3134
 1096SOL    HW1 3436   2.385   1.048   0.912 -1.0617  0.5729  0.1257
 1096SOL    HW2 3437   2.373   0.981   0.777  3.3151 -1.6635  0.6659
 1097SOL     OW 3438   0.076   1.018   3.219  0.3251 -0.7113  0.2283
 1097SOL    HW1 3439   0.076   1.082   3.147  0.9780 -1.8174 -0.8074
 1097SOL    HW2 3440   0.018   1.055   3.285  0.2832  0.6933 -0.5659
 1098SOL     OW 3441   0.676   0.084   3.444  0.5060  0.3364 -0.0694
 1098SOL    HW1 3442   0.725   0.142   3.385 -1.3239  3.4364  1.2102
 1098SOL    HW2 3443   0.732   0.007   3.454  3.2886  1.9921 -1.6682
 1099SOL     OW 3444   2.730   3.651   1.782  0.3176  0.3229  0.1202
 1099SOL    HW1 3445   2.810   3.611   1.749  0.1094 -0.2818  0.3421
 1099SOL    HW2 3446   2.757   3.696   1.862  0.2761 -0.6192  0.6779
 1100SOL     OW 3447   3.066   1.848   3.243 -0.4450 -0.2404 -0.8814
 1100SOL    HW1 3448   3.116   1.916   3.198 -0.2547  0.0917 -0.1947
 1100SOL    HW2 3449   3.122   1.771   3.239  0.4449  0.2822  0.4096
 1101SOL     OW 3450   2.715   3.073   1.462 -0.1746 -0.6041  0.1907
 1101SOL    HW1 3451   2.661   3.141   1.420 -1.3262 -0.7206  1.4150
 1101SOL    HW2 3452   2.797   3.073   1.413 -1.1096 -0.0820 -1.4444
 1102SOL     OW 3453   2.609   0.884   1.024  0.2731  0.0043  0.3864
 1102SOL    HW1 3454   2.587   0.837   1.104  0.8481  0.8349  1.0357
 1102SOL    HW2 3455   2.530   0.876   0.970 -0.8780  1.1117  1.8174
 1103SOL     OW 3456   3.195   3.671   2.044 -0.6706  0.1061  0.1267
 1103SOL    HW1 3457   3.243   3.724   1.981 -0.3863  0.6791  0.8156
 1103SOL    HW2 3458   3.174   3.591   1.996 -1.2089  0.8732 -0.9735
 1104SOL     OW 3459   2.118   2.681   1.675 -0.3453  0.3133 -0.3000
 1104SOL    HW1 3460   2.127   2.771   1.707  1.5123  0.5504 -1.3548
 1104SOL    HW2 3461   2.024   2.669   1.662 -0.5569  2.4498 -1.0659
 1105SOL     OW 3462   0.851   1.046   2.280  0.2841  0.3911  0.3253
 1105SOL    HW1 3463   0.818   0.959   2.303 -1.0220  0.8490  0.2572
 1105SOL    HW2 3464   0.826   1.058   2.189 -0.6832  1.3265  0.6915
 1106SOL     OW 3465   1.232   2.998   1.280 -0.1050  0.3763 -0.3766
 1106SOL    HW1 3466   1.228   3.077   1.333  0.5626 -0.0295  0.2900
 1106SOL    HW2 3467   1.246   2.927   1.343  0.1668 -0.1765 -1.0447
 1107SOL     OW 3468   1.230   0.513   1.487  0.2098  0.1654  0.4179
 1107SOL    HW1 3469   1.190   0.599   1.490  2.4030  1.4477 -2.3451
 1107SOL    HW2 3470   1.324   0.529   1.500  0.5609 -1.9313  0.8432
 1108SOL     OW 3471   0.434   0.047   1.679 -0.1929  0.7447 -0.5164
 1108SOL    HW1 3472   0.466   0.024   1.767 -1.8769  0.5522  0.0788
 1108SOL    HW2 3473   0.510   0.035   1.622  0.4431 -1.0109  0.6173
 1109SOL     OW 3474   1.921   2.106   1.790  0.0547 -0.2206  0.5014
 1109SOL    HW1 3475   2.004   2.109   1.839 -0.8470  1.4101  2.0544
 1109SOL    HW2 3476   1.906   2.197   1.764 -0.4896 -0.7523 -1.1464
 1110SOL     OW 3477   2.061   1.435   1.725 -0.4561  0.5317 -0.1689
 1110SOL    HW1 3478   1.973   1.400   1.738  0.7714 -2.8352  0.1053
 1110SOL    HW2 3479   2.096   1.447   1.813  0.0855 -0.3081 -0.2574
 1111SOL     OW 3480   3.482   1.691   1.679 -0.0535 -0.0411  0.2212
 1111SOL    HW1 3481   3.469   1.740   1.760  0.8385  1.3919 -0.4535
 1111SOL    HW2 3482   3.544   1.622   1.703  1.1495  1.1074  0.5232
 1112SOL     OW 3483   0.339   1.355   1.185  0.1277  0.7490 -0.2485
 1112SOL    HW1 3484   0.358   1.412   1.111  0.4645 -0.6251 -1.2716
 1112SOL    HW2 3485   0.315   1.271   1.145  1.4549 -0.3800  1.1914
 1113SOL     OW 3486   1.648   2.744   1.320  0.2713 -0.2893 -0.4669
 1113SOL    HW1 3487   1.639   2.719   1.412  0.1563  0.0546 -0.3835
 1113SOL    HW2 3488   1.742   2.755   1.306  0.2292  0.4353 -0.1833
 1114SOL     OW 3489   2.349   0.482   0.198  0.1993 -0.5254 -0.0857
 1114SOL    HW1 3490   2.379   0.550   0.259  2.0295 -1.4029  0.0376
 1114SOL    HW2 3491   2.367   0.400   0.243  1.7297 -1.2068 -1.8576
 1115SOL     OW 3492   1.845   3.517   0.061  0.6241 -0.1281  0.2460
 1115SOL    HW1 3493   1.782   3.461   0.106  0.9523  0.2844  1.2571
 1115SOL    HW2 3494   1.843   3.488  -0.030 -0.9480 -0.1804  0.2733
 1116SOL     OW 3495   3.291   3.318   1.653 -0.4136 -0.2268 -0.6426
 1116SOL    HW1 3496   3.370   3.350   1.610  0.1809 -2.1946 -1.0888
 1116SOL    HW2 3497   3.223   3.323   1.585 -0.1428 -0.6443 -0.9464
 1117SOL     OW 3498   1.843   3.276   3.181  0.5046 -0.6216  0.2008
 1117SOL    HW1 3499   1.835   3.360   3.226 -0.6531  0.1672 -1.3777
 1117SOL    HW2 3500   1.904   3.225   3.235  0.0744  0.6697  1.9837
 1118SOL     OW 3501   3.021   0.721   0.195 -0.2426 -0.8099 -0.1276
 1118SOL    HW1 3502   2.953   0.684   0.250  0.7044 -1.3466  0.7244
 1118SOL    HW2 3503   3.052   0.648   0.142  0.8420 -1.0103  0.7374
 1119SOL     OW 3504   2.320   0.776   2.185 -0.2815  0.1310 -0.1194
 1119SOL    HW1 3505   2.313   0.732   2.100  2.2303  2.9491 -1.9552
 1119SOL    HW2 3506   2.412   0.767   2.209 -0.9341 -0.6283  2.4387
 1120SOL     OW 3507   0.477   1.346   0.522 -0.0516 -0.0532  0.0215
 1120SOL    HW1 3508   0.547   1.358   0.458  0.1770  0.7576  0.4137
 1120SOL    HW2 3509   0.403   1.314   0.471  0.7097 -1.3198 -0.3453
 1121SOL     OW 3510   3.358   1.060   1.085  0.5777 -0.6292 -0.0272
 1121SOL    HW1 3511   3.324   0.992   1.143  1.3755  0.6396  2.0139
 1121SOL    HW2 3512   3.296   1.132   1.093  0.8870 -0.3042 -0.4830
 1122SOL     OW 3513  -0.004   2.343   3.155 -0.4161 -0.3407  0.3589
 1122SOL    HW1 3514   0.085   2.363   3.185 -0.8716  0.1525  1.4313
 1122SOL    HW2 3515  -0.056   2.420   3.180 -1.6726 -1.6695  2.1560
 1123SOL     OW 3516   1.115   1.401   2.151  0.5874 -0.9932 -0.1211
 1123SOL    HW1 3517   1.210   1.400   2.152  0.6072 -0.3794  1.0949
 1123SOL    HW2 3518   1.092   1.494   2.146  0.0145 -1.1954 -2.0433
 1124SOL     OW 3519   2.993   1.190   2.320 -0.4514  0.4113  0.2101
 1124SOL    HW1 3520   2.997   1.173   2.414  1.1079  0.0900  0.1167
 1124SOL    HW2 3521   2.922   1.254   2.310 -1.9704 -0.9961  1.3516
 1125SOL     OW 3522   3.379   2.524   0.677 -0.5806  0.2966 -0.0481
 1125SOL    HW1 3523   3.456   2.546   0.624 -0.0013 -0.4751  0.4582
 1125SOL    HW2 3524   3.325   2.603   0.674  0.0706  0.7341 -0.6851
 1126SOL     OW 3525   2.744   1.380   2.581 -0.4000 -0.0727  0.2430
 1126SOL    HW1 3526   2.802   1.455   2.593 -1.7415  1.1678 -0.7137
 1126SOL    HW2 3527   2.766   1.347   2.494  1.0162 -1.6037  1.1162
 1127SOL     OW 3528   1.649   3.201   2.839  0.4174 -0.0254  1.1118
 1127SOL    HW1 3529   1.584   3.142   2.800 -0.4786  0.5908  1.6531
 1127SOL    HW2 3530   1.695   3.146   2.903 -0.8550  0.0016  2.0846
 1128SOL     OW 3531   2.028   0.595   2.938 -0.1537  0.0966 -0.2633
 1128SOL    HW1 3532   2.018   0.595   3.034 -1.4684  3.3668 -0.2555
 1128SOL    HW2 3533   2.025   0.688   2.914  1.5081 -0.5169 -3.4072
 1129SOL     OW 3534   0.576   1.228   3.292  0.5697  0.0909 -0.5951
 1129SOL    HW1 3535   0.584   1.153   3.233  0.3253  0.9918 -1.8274
 1129SOL    HW2 3536   0.664   1.266   3.294  0.5699  0.0796 -0.4065
 1130SOL     OW 3537   2.492   0.275   3.345  0.2277 -0.3602 -0.0910
 1130SOL    HW1 3538   2.570   0.296   3.397  0.5702 -0.0222 -0.7327
 1130SOL    HW2 3539   2.427   0.246   3.409  0.6886 -0.0751  0.5073
 1131SOL     OW 3540   1.901   3.025   0.676 -0.0795  0.3535 -0.1288
 1131SOL    HW1 3541   1.939   2.939   0.695  1.9021  1.0194 -0.8429
 1131SOL    HW2 3542   1.851   3.012   0.595  0.8766  0.0539 -0.6788
 1132SOL     OW 3543   1.191   2.578   3.148 -0.3077 -0.2121  0.3134
 1132SOL    HW1 3544   1.244   2.525   3.207  0.2153  0.7447  0.7229
 1132SOL    HW2 3545   1.236   2.571   3.063  0.1183  0.0780  0.5105
 1133SOL     OW 3546   0.320   2.742   2.583 -0.4117 -0.6966  0.0624
 1133SOL    HW1 3547   0.412   2.735   2.559 -0.1597  1.5130  0.1878
 1133SOL    HW2 3548   0.278   2.780   2.505 -0.5191  1.7310  1.2453
 1134SOL     OW 3549   2.979   1.510   2.706  0.7648 -0.0551 -0.4458
 1134SOL    HW1 3550   2.989   1.513   2.802  0.3066 -1.3929 -0.3261
 1134SOL    HW2 3551   3.067   1.490   2.674  1.2207  1.7581 -0.4354
 1135SOL     OW 3552   0.146   2.076   1.377 -0.4479  0.0385 -0.2474
 1135SOL    HW1 3553   0.118   2.167   1.382  1.8586  0.7728  0.8332
 1135SOL    HW2 3554   0.192   2.061   1.460 -0.4629 -2.0020 -0.5674
 1136SOL     OW 3555   3.646   0.478   1.293  0.1910 -0.1009 -0.9557
 1136SOL    HW1 3556   3.724   0.429   1.265  1.3140  1.4196 -0.6880
 1136SOL    HW2 3557   3.667   0.569   1.270 -1.4267  0.3787 -0.6348
 1137SOL     OW 3558   0.919   0.524   3.095  0.0428 -0.1590 -0.4853
 1137SOL    HW1 3559   0.938   0.550   3.185 -0.4758 -0.3273 -0.3206
 1137SOL    HW2 3560   0.958   0.592   3.041 -0.5258  0.4922 -0.0939
 1138SOL     OW 3561   2.882   2.032   3.002  0.1512  0.4345  0.3567
 1138SOL    HW1 3562   2.886   2.128   3.003 -2.1991  0.6054 -0.1946
 1138SOL    HW2 3563   2.970   2.005   2.977  0.5438  2.5274 -0.8129
 1139SOL     OW 3564   1.911   2.383   1.701  0.2169  0.7205  0.3966
 1139SOL    HW1 3565   1.978   2.410   1.763  1.0385  1.0837 -0.6335
 1139SOL    HW2 3566   1.831   2.425   1.734  0.6789  1.1081  1.0707
 1140SOL     OW 3567   3.504   2.616   2.050  0.4180 -0.0867 -0.3453
 1140SOL    HW1 3568   3.511   2.703   2.088  1.3594  0.1283 -0.9680
 1140SOL    HW2 3569   3.415   2.588   2.071  0.0488  1.0801 -0.2563
 1141SOL     OW 3570   2.196   0.325   0.894  0.1266 -0.0805  0.5701
 1141SOL    HW1 3571   2.269   0.387   0.904 -1.8941  2.3133  1.4594
 1141SOL    HW2 3572   2.164   0.311   0.983 -1.2276 -0.1191  0.0998
 1142SOL     OW 3573   1.239   2.043   1.650  0.5212 -1.3801 -0.2446
 1142SOL    HW1 3574   1.158   2.048   1.599  1.5948  2.3835 -1.9812
 1142SOL    HW2 3575   1.217   2.083   1.734  0.2862 -1.5735 -0.2126
 1143SOL     OW 3576   0.863   2.605   2.825  0.1811 -0.1169  0.3071
 1143SOL    HW1 3577   0.788   2.546   2.835  0.9139 -1.0507  0.5395
 1143SOL    HW2 3578   0.939   2.550   2.847  1.1334  0.2080 -1.8993
 1144SOL     OW 3579   0.069   0.533   1.527  0.0555 -0.1711  0.4152
 1144SOL    HW1 3580   0.004   0.499   1.466 -1.4679  0.8148  1.4464
 1144SOL    HW2 3581   0.117   0.599   1.477 -0.1004 -0.4974 -0.1729
 1145SOL     OW 3582   1.630   0.276   3.671 -0.4318 -0.2304  0.2620
 1145SOL    HW1 3583   1.585   0.198   3.639 -0.3015 -0.8564  1.5348
 1145SOL    HW2 3584   1.646   0.258   3.764  2.0870  0.1257 -0.0305
 1146SOL     OW 3585   0.668   1.823   0.543 -0.0264  0.4043 -0.3548
 1146SOL    HW1 3586   0.652   1.897   0.485  2.5698  0.3213 -1.3300
 1146SOL    HW2 3587   0.750   1.846   0.588  0.2323 -1.3732  0.1457
 1147SOL     OW 3588   2.265   2.587   1.872 -0.5322  0.6168  0.2880
 1147SOL    HW1 3589   2.197   2.535   1.916  0.2800  0.2400  1.1222
 1147SOL    HW2 3590   2.217   2.635   1.804 -1.6922  0.6008  1.0563
 1148SOL     OW 3591   0.986   0.131   1.731  0.0222 -0.3930 -0.5121
 1148SOL    HW1 3592   0.903   0.159   1.693 -0.3289  0.6361  0.9239
 1148SOL    HW2 3593   0.961   0.079   1.807  0.6924 -0.3071 -0.2234
 1149SOL     OW 3594   0.399   1.817   1.850 -0.0601  0.4071  0.1984
 1149SOL    HW1 3595   0.308   1.844   1.837 -0.6581 -0.7532  1.6428
 1149SOL    HW2 3596   0.410   1.813   1.945  1.3597  0.0503  0.0485
 1150SOL     OW 3597   1.955   1.337   0.221 -0.4539  0.3885  0.3960
 1150SOL    HW1 3598   1.992   1.387   0.294 -2.6426  0.0062  1.8542
 1150SOL    HW2 3599   2.013   1.262   0.213  0.2963  0.8525  1.2015
 1151SOL     OW 3600   2.682   3.276   2.466  0.3683  0.3396  0.0473
 1151SOL    HW1 3601   2.744   3.345   2.487 -0.8200  1.4560 -0.0131
 1151SOL    HW2 3602   2.716   3.198   2.512  1.3039  1.1396  0.7460
 1152SOL     OW 3603   1.324   2.814   2.177 -0.5401 -0.6029 -0.5668
 1152SOL    HW1 3604   1.288   2.901   2.158  0.3811  0.1776  1.0059
 1152SOL    HW2 3605   1.270   2.754   2.126 -1.0392  0.9007 -1.9129
 1153SOL     OW 3606   2.652   2.993   2.712 -0.1968 -0.4989 -0.3228
 1153SOL    HW1 3607   2.717   3.023   2.648 -1.1400 -0.2016 -1.1686
 1153SOL    HW2 3608   2.631   3.071   2.763 -1.4763 -0.0583 -1.4804
 1154SOL     OW 3609   0.776   2.573   3.464  0.1924  0.7009 -1.0761
 1154SOL    HW1 3610   0.796   2.660   3.499 -1.3414  0.9885 -0.8527
 1154SOL    HW2 3611   0.691   2.550   3.502  0.5213 -0.8647 -1.2140
 1155SOL     OW 3612   2.201  -0.011   1.704 -0.3424  0.0103  0.9796
 1155SOL    HW1 3613   2.163   0.070   1.737 -1.8334 -0.9530  1.7289
 1155SOL    HW2 3614   2.182  -0.010   1.610 -0.1680  0.6031  0.9426
 1156SOL     OW 3615   1.680   0.958   0.681  0.2626  0.7920 -0.2783
 1156SOL    HW1 3616   1.726   0.952   0.598  1.8900 -2.0181  0.6789
 1156SOL    HW2 3617   1.593   0.923   0.663 -0.6885  3.4960 -1.4733
 1157SOL     OW 3618   0.244   3.222   2.214 -0.1451  0.0897 -0.4629
 1157SOL    HW1 3619   0.293   3.176   2.282 -1.0607  0.9551  0.8375
 1157SOL    HW2 3620   0.278   3.312   2.218 -1.8238  0.7251  0.5263
 1158SOL     OW 3621   2.540   0.400   2.272 -0.2365 -0.2704 -0.7932
 1158SOL    HW1 3622   2.451   0.424   2.294 -0.4574 -2.6772  1.4810
 1158SOL    HW2 3623   2.595   0.463   2.319 -0.6941  0.6319 -1.4372
 1159SOL     OW 3624   1.518   3.378   0.062  0.3254 -0.2971  0.2781
 1159SOL    HW1 3625   1.550   3.289   0.076  1.6596  0.0123 -0.6339
 1159SOL    HW2 3626   1.508   3.414   0.150 -0.7458 -1.4954  0.6852
 1160SOL     OW 3627   2.385   1.579   1.322  0.3916 -0.1729 -0.0179
 1160SOL    HW1 3628   2.451   1.580   1.253  1.5837 -0.7739  1.0560
 1160SOL    HW2 3629   2.367   1.672   1.340  2.0296  0.0611  0.6214
 1161SOL     OW 3630   1.035   1.639   0.685 -0.6137  0.1989 -0.3982
 1161SOL    HW1 3631   1.095   1.655   0.758 -1.3230 -1.6583  0.6572
 1161SOL    HW2 3632   0.975   1.713   0.688  0.5474  1.1845 -0.3887
 1162SOL     OW 3633   3.170   2.910   2.196  0.2162 -0.1648  0.3555
 1162SOL    HW1 3634   3.191   2.931   2.287 -0.3715  0.0618  0.4474
 1162SOL    HW2 3635   3.187   2.991   2.148 -0.4446  0.0385  0.4395
 1163SOL     OW 3636   1.124   0.973   3.010  0.3112  0.2092 -0.2850
 1163SOL    HW1 3637   1.139   1.027   3.088  0.1750 -1.5361  1.0243
 1163SOL    HW2 3638   1.064   1.024   2.956  1.6699  2.1846 -0.0573
 1164SOL     OW 3639   1.232   3.371   2.231 -0.1137 -0.2450  0.5442
 1164SOL    HW1 3640   1.240   3.458   2.270  0.7604 -0.4546  0.8694
 1164SOL    HW2 3641   1.314   3.327   2.254  1.5425  0.3566 -3.3958
 1165SOL     OW 3642   2.114   0.105   0.184 -0.3721  0.2176  0.0378
 1165SOL    HW1 3643   2.162   0.022   0.184  0.0343  0.4324  1.2019
 1165SOL    HW2 3644   2.026   0.081   0.216 -0.5963  0.0591 -0.6932
 1166SOL     OW 3645   0.235   0.178   0.191 -0.2029 -0.3206 -0.1501
 1166SOL    HW1 3646   0.218   0.224   0.108  0.4297 -0.4224 -0.3440
 1166SOL    HW2 3647   0.317   0.131   0.175 -0.8453 -1.5325  0.0407
 1167SOL     OW 3648   3.476   0.741   2.654 -0.3660 -0.5259  0.2887
 1167SOL    HW1 3649   3.465   0.699   2.739 -0.7281  0.8197  0.9283
 1167SOL    HW2 3650   3.393   0.725   2.609 -1.8699  2.1997  1.7988
 1168SOL     OW 3651   1.277   3.652   0.578 -0.2020  0.0533  0.7622
 1168SOL    HW1 3652   1.236   3.692   0.655  0.9521  0.6209  1.1017
 1168SOL    HW2 3653   1.371   3.652   0.598 -0.0101 -1.0601 -0.0640
 1169SOL     OW 3654   2.425   0.871   1.304 -0.2946  0.3510 -0.5122
 1169SOL    HW1 3655   2.394   0.781   1.312  0.6697  0.1377  1.2045
 1169SOL    HW2 3656   2.379   0.919   1.373  2.0221  0.3011  1.2002
 1170SOL     OW 3657   2.024   3.099   1.111 -0.1338  0.0653  0.2502
 1170SOL    HW1 3658   1.970   3.026   1.141  0.3641  0.1342  1.3567
 1170SOL    HW2 3659   1.965   3.174   1.109 -0.1904  0.0404  0.9959
 1171SOL     OW 3660   2.972   0.219   2.679  0.3500  0.5173 -0.5840
 1171SOL    HW1 3661   3.034   0.147   2.672 -0.3981 -0.0228 -1.9869
 1171SOL    HW2 3662   2.927   0.222   2.595 -1.2481  1.1378  0.2246
 1172SOL     OW 3663   1.724   1.019   1.737  0.2791 -0.6913  0.3026
 1172SOL    HW1 3664   1.672   1.081   1.788 -0.4083 -0.9867 -0.0388
 1172SOL    HW2 3665   1.703   1.039   1.646  1.2468 -0.3923  0.1280
 1173SOL     OW 3666   2.307   1.051   2.316  0.0147  0.2761  0.2113
 1173SOL    HW1 3667   2.251   1.012   2.249  1.0193  0.5272 -0.8037
 1173SOL    HW2 3668   2.369   0.981   2.339  1.3846  0.9853 -1.1195
 1174SOL     OW 3669   0.159   1.469   0.612  0.3092  0.0183 -0.0193
 1174SOL    HW1 3670   0.202   1.412   0.548  1.3151 -0.2773  0.8749
 1174SOL    HW2 3671   0.212   1.548   0.614  1.0154 -0.4501  1.2824
 1175SOL     OW 3672   0.953   1.643   3.139  0.1313 -0.0825 -0.2198
 1175SOL    HW1 3673   0.925   1.733   3.123 -1.3089 -0.3299  0.6793
 1175SOL    HW2 3674   1.037   1.635   3.094  0.7774  1.9934  0.5169
 1176SOL     OW 3675   3.462   3.599   2.244  0.0187  0.4730 -0.0341
 1176SOL    HW1 3676   3.397   3.611   2.175 -1.2877 -0.4946  0.9593
 1176SOL    HW2 3677   3.532   3.661   2.223 -0.8251  0.9442 -1.6161
 1177SOL     OW 3678   0.123   2.883   0.177  0.0180 -0.1733  0.2945
 1177SOL    HW1 3679   0.209   2.917   0.150  0.4176 -2.0125 -0.9296
 1177SOL    HW2 3680   0.063   2.955   0.158  1.1305  0.7464  0.1086
 1178SOL     OW 3681   2.258   3.622   2.822  0.1225 -0.0989  0.2534
 1178SOL    HW1 3682   2.352   3.610   2.814  0.1284  0.4999 -0.7779
 1178SOL    HW2 3683   2.229   3.552   2.881  1.2390 -0.1011  0.8160
 1179SOL     OW 3684   1.012   1.840   2.798  0.8147  0.3529  0.6047
 1179SOL    HW1 3685   1.105   1.855   2.785  1.0891 -2.4391 -1.3661
 1179SOL    HW2 3686   0.988   1.773   2.734 -2.7114  1.3860  0.5926
 1180SOL     OW 3687   1.091   1.457   1.388 -0.5584 -0.4574 -0.3447
 1180SOL    HW1 3688   1.048   1.389   1.336 -3.2098  0.6571  0.1867
 1180SOL    HW2 3689   1.046   1.454   1.473 -0.6902  1.7979 -0.2625
 1181SOL     OW 3690   2.052   0.003   3.297  0.1161 -0.1453 -0.5822
 1181SOL    HW1 3691   2.026   0.033   3.384  0.3365 -0.2778 -0.4682
 1181SOL    HW2 3692   2.078   0.082   3.251  2.0188 -0.2940  0.1689
 1182SOL     OW 3693   1.274   3.093   0.517  0.0590  0.7886  0.0127
 1182SOL    HW1 3694   1.273   3.101   0.612 -2.4408  1.6682 -0.0265
 1182SOL    HW2 3695   1.184   3.069   0.493  0.4987  1.0430 -2.1553
 1183SOL     OW 3696   1.470   0.254   2.788  0.0242  0.5246 -0.6526
 1183SOL    HW1 3697   1.565   0.260   2.781 -0.0843  1.9817 -1.3510
 1183SOL    HW2 3698   1.449   0.164   2.763  1.1869  0.2950 -0.8573
 1184SOL     OW 3699   1.567   1.999   1.952 -0.0831 -0.2362  0.4478
 1184SOL    HW1 3700   1.513   1.960   1.883  2.0033 -0.2907 -1.2538
 1184SOL    HW2 3701   1.654   1.963   1.937  0.9408  1.5850  1.6670
 1185SOL     OW 3702   3.209   3.088   1.769 -0.3665  0.1942  0.2439
 1185SOL    HW1 3703   3.262   3.119   1.696 -1.0318  0.7464 -0.0174
 1185SOL    HW2 3704   3.123   3.127   1.755 -1.8090 -3.0559 -1.0629
 1186SOL     OW 3705   1.182   0.588   2.415 -0.3902  0.4288 -1.4073
 1186SOL    HW1 3706   1.257   0.528   2.415 -0.7221 -0.0002 -2.3520
 1186SOL    HW2 3707   1.142   0.577   2.329 -2.7573 -0.9022 -0.2253
 1187SOL     OW 3708   0.879   1.586   1.893  0.2421 -0.2939 -0.0988
 1187SOL    HW1 3709   0.845   1.628   1.972 -1.6706 -2.6943  0.4911
 1187SOL    HW2 3710   0.830   1.625   1.821  0.6536  0.5772  0.0863
 1188SOL     OW 3711   0.534   1.696  -0.004 -0.1341 -0.0450 -0.4163
 1188SOL    HW1 3712   0.448   1.735  -0.021  0.3052  0.6201 -1.1838
 1188SOL    HW2 3713   0.570   1.748   0.068 -0.3428 -0.2905 -0.1300
 1189SOL     OW 3714   2.681   2.380   3.029 -0.1688  0.3651  0.5716
 1189SOL    HW1 3715   2.750   2.411   2.970 -0.5480 -2.7243 -1.7466
 1189SOL    HW2 3716   2.726   2.359   3.110  0.3813  4.7138  1.6528
 1190SOL     OW 3717   3.196   1.460   2.908 -0.3853  0.2304 -0.2142
 1190SOL    HW1 3718   3.236   1.386   2.863 -2.1573  1.4132 -4.1803
 1190SOL    HW2 3719   3.237   1.537   2.870  1.1244  1.5306  3.5313
 1191SOL     OW 3720   0.999   2.013   1.044 -0.0572  0.0288 -0.1291
 1191SOL    HW1 3721   0.986   1.925   1.079 -1.7294  0.7155  1.1310
 1191SOL    HW2 3722   1.094   2.022   1.039  0.3257 -0.6152  3.2060
 1192SOL     OW 3723   2.216   2.574   0.511  0.9143 -0.6972  0.1265
 1192SOL    HW1 3724   2.178   2.488   0.524 -2.1681  0.5485  0.1807
 1192SOL    HW2 3725   2.196   2.595   0.420 -0.9027  1.0204  0.8602
 1193SOL     OW 3726   3.596   2.208   0.807  0.3734 -0.3407 -0.5622
 1193SOL    HW1 3727   3.607   2.302   0.821  2.4112 -0.1112 -2.9110
 1193SOL    HW2 3728   3.628   2.194   0.717  0.1755 -3.2840 -0.2598
 1194SOL     OW 3729   1.256   2.009   0.968  0.4488 -0.3842  0.0864
 1194SOL    HW1 3730   1.274   1.926   0.924 -0.9528 -1.1228  0.8581
 1194SOL    HW2 3731   1.304   2.074   0.916  0.6891 -1.5234 -1.1718
 1195SOL     OW 3732   2.968   1.840   0.348  0.1427  0.3235  0.0031
 1195SOL    HW1 3733   2.985   1.747   0.334  0.6742  0.0410  2.1640
 1195SOL    HW2 3734   2.889   1.842   0.402  1.4526  0.9455  2.0234
 1196SOL     OW 3735   1.595   1.281   2.381 -0.0899  0.6256 -0.3334
 1196SOL    HW1 3736   1.531   1.262   2.312  0.1288  1.0063 -0.6462
 1196SOL    HW2 3737   1.606   1.198   2.427 -0.3353  0.3984 -0.6759
 1197SOL     OW 3738   2.235   0.430   2.284  0.1462  0.4508 -0.2209
 1197SOL    HW1 3739   2.172   0.358   2.278  0.5196  0.1721 -0.9149
 1197SOL    HW2 3740   2.186   0.502   2.323  0.2047 -0.6615  2.0555
 1198SOL     OW 3741   0.089   0.808   2.919  0.0390  0.4821  0.4214
 1198SOL    HW1 3742   0.075   0.888   2.867 -0.1066  0.5696  0.5934
 1198SOL    HW2 3743   0.167   0.769   2.881 -0.2262  0.3980 -0.0447
 1199SOL     OW 3744   0.841   1.243   0.428 -0.2956 -0.2957 -0.2094
 1199SOL    HW1 3745   0.854   1.273   0.518 -1.4117 -0.8785  0.1607
 1199SOL    HW2 3746   0.905   1.172   0.417  0.4186  0.3312 -0.1671
 1200SOL     OW 3747   3.327   2.857   1.788 -0.0009  0.3315  0.3039
 1200SOL    HW1 3748   3.269   2.930   1.809  1.9604  1.5326  1.9570
 1200SOL    HW2 3749   3.407   2.875   1.837  1.1845 -2.0972 -0.5560
 1201SOL     OW 3750   0.877   3.067   3.501 -0.0442 -0.3748  0.1296
 1201SOL    HW1 3751   0.789   3.082   3.536  0.0946  0.0951  0.2833
 1201SOL    HW2 3752   0.867   2.991   3.444 -1.0868  1.0988 -1.7906
 1202SOL     OW 3753   1.178   2.220   2.699 -0.1596 -0.1716 -0.1388
 1202SOL    HW1 3754   1.114   2.267   2.646 -0.4484  0.2560  0.5730
 1202SOL    HW2 3755   1.259   2.269   2.689  0.4960 -1.5430 -2.2377
 1203SOL     OW 3756   0.563   2.437   3.629 -0.5704  0.2520 -0.1628
 1203SOL    HW1 3757   0.592   2.492   3.702  0.3835 -0.3166 -0.0954
 1203SOL    HW2 3758   0.486   2.391   3.662 -0.2464  0.1303  0.4314
 1204SOL     OW 3759   1.974   2.386   0.297  0.0765 -0.2898 -0.0668
 1204SOL    HW1 3760   2.040   2.349   0.355  1.5381 -0.9480 -2.0163
 1204SOL    HW2 3761   2.024   2.413   0.219 -1.6442  1.3533 -0.6749
 1205SOL     OW 3762   0.062   2.749   0.830  0.5580  0.2007  0.3834
 1205SOL    HW1 3763   0.068   2.670   0.776  1.2383  0.3608  0.2138
 1205SOL    HW2 3764  -0.003   2.804   0.786 -1.3816 -1.0446  1.5374
 1206SOL     OW 3765   3.565   2.872   1.903 -0.2270  0.5170 -0.1287
 1206SOL    HW1 3766   3.647   2.835   1.870  0.0198  0.5154  0.4741
 1206SOL    HW2 3767   3.568   2.855   1.997  0.3022  2.8214  0.3282
 1207SOL     OW 3768   1.932   2.799   0.137 -0.0584 -0.0174 -0.2887
 1207SOL    HW1 3769   1.872   2.762   0.202  1.1016  0.2579  0.9876
 1207SOL    HW2 3770   2.019   2.778   0.171  0.5949  1.5827 -0.8893
 1208SOL     OW 3771   2.653   0.083   0.918  0.2608  0.2959 -0.0367
 1208SOL    HW1 3772   2.736   0.052   0.956 -0.2077 -0.1693  0.6302
 1208SOL    HW2 3773   2.629   0.015   0.855  1.8179  1.7878 -2.3977
 1209SOL     OW 3774   0.756   0.453   1.194  0.2389 -0.8300 -0.3580
 1209SOL    HW1 3775   0.733   0.535   1.239 -0.6165 -0.7905 -0.8492
 1209SOL    HW2 3776   0.838   0.426   1.235  0.1791 -0.0852  0.2881
 1210SOL     OW 3777   3.014   3.240   0.956 -0.4635 -0.5373  0.2632
 1210SOL    HW1 3778   3.041   3.331   0.973 -0.6453 -0.4441  0.0657
 1210SOL    HW2 3779   2.927   3.249   0.916 -0.6986 -0.8242  0.7071
 1211SOL     OW 3780   0.697   0.171   0.270 -0.2110 -0.0333 -0.1847
 1211SOL    HW1 3781   0.684   0.078   0.289  1.1586  0.0230  1.1755
 1211SOL    HW2 3782   0.777   0.174   0.218 -1.1887  0.2814 -1.7689
 1212SOL     OW 3783   1.597   3.663   3.216 -0.5197 -0.1271 -0.1716
 1212SOL    HW1 3784   1.681   3.683   3.176 -1.4400  1.1108 -1.5965
 1212SOL    HW2 3785   1.533   3.676   3.146 -1.8114 -2.4299  0.4533
 1213SOL     OW 3786   3.354   0.589   1.013  0.2735 -0.2402 -0.3039
 1213SOL    HW1 3787   3.364   0.646   0.936 -0.7755  1.2614  0.6357
 1213SOL    HW2 3788   3.444   0.559   1.031  1.2215  2.6955  0.3245
 1214SOL     OW 3789   2.391   1.913   0.522  0.0549  0.6255 -0.0255
 1214SOL    HW1 3790   2.478   1.879   0.504  0.3440  1.1785  0.3112
 1214SOL    HW2 3791   2.361   1.948   0.439 -0.2312 -0.3903 -0.3716
 1215SOL     OW 3792   3.395   2.527   3.410  0.3402 -0.3245 -0.0628
 1215SOL    HW1 3793   3.415   2.448   3.359  1.0806 -1.2523  1.5975
 1215SOL    HW2 3794   3.477   2.546   3.456 -0.3288  0.4360  0.8335
 1216SOL     OW 3795   2.714   0.296   0.416  0.7635 -0.1178 -0.0086
 1216SOL    HW1 3796   2.619   0.308   0.419  0.9843  1.9087  0.6771
 1216SOL    HW2 3797   2.736   0.259   0.501  0.7119  0.7841  0.4133
 1217SOL     OW 3798   0.273   0.726   0.738  0.8085 -0.1964 -0.0598
 1217SOL    HW1 3799   0.281   0.631   0.750 -0.8492 -0.4658 -0.7778
 1217SOL    HW2 3800   0.181   0.744   0.752  0.6944  0.9808 -1.9545
 1218SOL     OW 3801   0.669   2.195   1.600  0.3100 -0.7153  0.3403
 1218SOL    HW1 3802   0.641   2.270   1.548 -0.1385 -0.0354  1.5078
 1218SOL    HW2 3803   0.711   2.136   1.538  1.9193  1.1043 -0.4250
 1219SOL     OW 3804   0.631   0.908   1.235 -0.1630 -0.2704  0.1532
 1219SOL    HW1 3805   0.667   0.854   1.165  1.0988  0.0027  0.5778
 1219SOL    HW2 3806   0.544   0.934   1.202  0.0712 -0.8084 -0.9512
 1220SOL     OW 3807   0.037   2.080   2.479  0.1220  0.0761  0.2560
 1220SOL    HW1 3808  -0.025   2.145   2.511 -1.3807 -0.5667 -1.2058
 1220SOL    HW2 3809   0.118   2.099   2.527 -0.9695  1.3996  1.6979
 1221SOL     OW 3810   0.715   2.258   0.112 -0.3477 -0.3128  0.2774
 1221SOL    HW1 3811   0.765   2.274   0.032  0.1673 -1.4584  0.3593
 1221SOL    HW2 3812   0.732   2.335   0.166 -0.5524  0.3917 -0.6269
 1222SOL     OW 3813   1.880   3.052   2.971  0.2227 -0.2693 -0.2249
 1222SOL    HW1 3814   1.828   2.981   3.009 -1.4824  0.6980 -0.6172
 1222SOL    HW2 3815   1.893   3.114   3.043  2.0754 -1.1323  0.2274
 1223SOL     OW 3816   0.322   2.436   2.669 -0.2293 -0.2369  0.0441
 1223SOL    HW1 3817   0.332   2.531   2.682  0.3430 -0.1698 -0.7846
 1223SOL    HW2 3818   0.228   2.421   2.677 -0.2897  0.3454  0.5207
 1224SOL     OW 3819   1.750   2.665   0.294 -0.3551  0.0561 -0.3118
 1224SOL    HW1 3820   1.663   2.680   0.259 -1.0902 -1.3683  0.7795
 1224SOL    HW2 3821   1.764   2.571   0.284 -0.7206 -0.5224  3.2391
 1225SOL     OW 3822   2.150   0.151   2.261 -0.2936  0.2460  0.0358
 1225SOL    HW1 3823   2.235   0.113   2.237  0.2423  2.0554 -1.1391
 1225SOL    HW2 3824   2.087   0.082   2.241  0.8809 -1.2441  1.1969
 1226SOL     OW 3825   2.013   1.282   2.167  0.4317 -0.1165 -0.2538
 1226SOL    HW1 3826   1.990   1.271   2.259 -2.4913  1.5109 -0.6552
 1226SOL    HW2 3827   1.981   1.202   2.125 -2.1093  0.8723 -0.3620
 1227SOL     OW 3828   0.090   3.302   3.155  0.5279  0.4979 -0.9314
 1227SOL    HW1 3829   0.166   3.245   3.139  1.0738  0.6542  0.8413
 1227SOL    HW2 3830   0.128   3.381   3.195 -0.5382  0.6571 -0.2059
 1228SOL     OW 3831   2.466   1.696   0.210 -0.4235  0.3789 -0.5224
 1228SOL    HW1 3832   2.406   1.693   0.285 -1.5046 -1.0510 -1.3996
 1228SOL    HW2 3833   2.544   1.649   0.239  0.6956  2.9062  0.8967
 1229SOL     OW 3834   3.416   2.453   0.037 -0.2616  0.4190  0.3391
 1229SOL    HW1 3835   3.333   2.406   0.028  0.2096 -0.4317  0.4187
 1229SOL    HW2 3836   3.475   2.410  -0.024 -0.5107  2.5377 -1.5124
 1230SOL     OW 3837   3.479   2.141   1.638 -0.3168 -0.3172  0.4483
 1230SOL    HW1 3838   3.448   2.218   1.688 -1.3944  1.1664 -2.3015
 1230SOL    HW2 3839   3.515   2.083   1.705 -0.1555  2.2237  2.7759
 1231SOL     OW 3840   2.638   3.057   3.068  0.0894 -0.0662  0.1201
 1231SOL    HW1 3841   2.731   3.079   3.071 -0.1720  0.9516  2.9505
 1231SOL    HW2 3842   2.593   3.140   3.078 -1.0823 -0.8103  1.2293
 1232SOL     OW 3843   3.250   0.455   2.390  0.1417 -0.0354  0.0583
 1232SOL    HW1 3844   3.341   0.480   2.369 -0.2928  2.3914  0.7257
 1232SOL    HW2 3845   3.255   0.362   2.413  2.2025 -0.3347 -1.3037
 1233SOL     OW 3846   0.784   0.800   2.322 -0.3383  0.0699  0.7695
 1233SOL    HW1 3847   0.747   0.776   2.407  3.9108 -0.6215  2.7277
 1233SOL    HW2 3848   0.796   0.717   2.277 -0.0861  0.1377  0.7082
 1234SOL     OW 3849   1.653   2.463   0.106  0.3864 -0.4224  0.0977
 1234SOL    HW1 3850   1.601   2.390   0.072  0.9956 -0.6477 -0.3807
 1234SOL    HW2 3851   1.739   2.425   0.123  1.1109  0.4487 -1.4267
 1235SOL     OW 3852   3.163   2.429   3.214  0.3692  0.2073 -0.2286
 1235SOL    HW1 3853   3.258   2.425   3.200  0.3647 -1.3062  0.0014
 1235SOL    HW2 3854   3.151   2.404   3.306 -0.0461  3.9697  0.9115
 1236SOL     OW 3855   3.170   2.165   1.767 -0.1693  0.3127  0.2647
 1236SOL    HW1 3856   3.213   2.131   1.846 -0.1962 -0.7051 -0.1404
 1236SOL    HW2 3857   3.232   2.229   1.731  0.7290 -0.6527  0.0483
 1237SOL     OW 3858   2.541   1.722   2.986 -0.2565 -1.0316  0.0057
 1237SOL    HW1 3859   2.575   1.645   2.941  0.9479 -2.6203  3.3082
 1237SOL    HW2 3860   2.618   1.769   3.017 -0.9614 -0.8370  1.6055
 1238SOL     OW 3861   1.395   3.591   3.019  0.2495  0.0795  0.8815
 1238SOL    HW1 3862   1.409   3.498   3.005 -4.0346 -0.6542  0.2648
 1238SOL    HW2 3863   1.377   3.627   2.932 -0.3805  1.0107  1.3746
 1239SOL     OW 3864   2.852   0.060   1.982 -0.1989 -0.0780  0.1142
 1239SOL    HW1 3865   2.856   0.135   2.042 -0.1646 -1.1857  1.5373
 1239SOL    HW2 3866   2.908  -0.006   2.023  1.1090 -0.3442 -1.9411
 1240SOL     OW 3867   1.396   0.163   2.510  0.4498  0.5935  0.1205
 1240SOL    HW1 3868   1.440   0.096   2.563  1.4589  0.3490 -0.9847
 1240SOL    HW2 3869   1.331   0.114   2.459  0.5675  0.5833 -0.0217
 1241SOL     OW 3870   1.731   1.402   2.145 -0.0558 -0.2819 -0.6657
 1241SOL    HW1 3871   1.708   1.319   2.186 -0.1978  0.5162  0.9734
 1241SOL    HW2 3872   1.672   1.466   2.186  0.8563  0.8155 -0.9991
 1242SOL     OW 3873   3.309   3.553   3.266  0.2761  0.1212 -0.0386
 1242SOL    HW1 3874   3.333   3.524   3.178 -1.3357  1.3523 -0.9603
 1242SOL    HW2 3875   3.242   3.492   3.294  2.7060 -1.9869  1.6090
 1243SOL     OW 3876   0.981   3.426   0.805 -0.2774 -0.2708 -0.3598
 1243SOL    HW1 3877   1.035   3.385   0.873 -0.1116  1.8346  0.8618
 1243SOL    HW2 3878   0.991   3.520   0.820 -2.2446  0.2152 -1.7425
 1244SOL     OW 3879   3.455   3.076   2.282 -0.3357 -0.4593  0.9613
 1244SOL    HW1 3880   3.449   3.136   2.207 -0.1452  1.1459  2.1623
 1244SOL    HW2 3881   3.548   3.057   2.289 -0.3834 -0.8159  0.6399
 1245SOL     OW 3882   3.238   1.581   1.850 -0.3185 -0.1073 -0.2229
 1245SOL    HW1 3883   3.269   1.514   1.789  1.5866 -0.4183  1.0314
 1245SOL    HW2 3884   3.158   1.615   1.809  0.7278 -0.4812 -2.7549
 1246SOL     OW 3885   1.374   1.448   2.053 -0.2969 -0.5851 -0.5155
 1246SOL    HW1 3886   1.454   1.414   2.014  0.3483 -0.3882  0.6045
 1246SOL    HW2 3887   1.348   1.520   1.996  1.7832  1.0768  0.5057
 1247SOL     OW 3888   2.237   1.274   2.787 -0.1680 -0.2185 -0.5877
 1247SOL    HW1 3889   2.183   1.253   2.711 -0.1922  2.2518 -1.3515
 1247SOL    HW2 3890   2.325   1.285   2.750  0.1327 -0.5545  0.0240
 1248SOL     OW 3891   2.962   2.258   3.107  0.0853 -0.5864  0.1340
 1248SOL    HW1 3892   2.901   2.267   3.180 -0.3001 -0.6460 -0.1763
 1248SOL    HW2 3893   3.039   2.308   3.133 -0.7663  0.9579 -0.1947
 1249SOL     OW 3894   3.157   1.247   1.895  0.1079  0.8563 -0.2599
 1249SOL    HW1 3895   3.096   1.279   1.829 -0.4479  3.4587  1.3625
 1249SOL    HW2 3896   3.243   1.276   1.864  0.1317  0.1580 -0.8751
 1250SOL     OW 3897   3.203   2.662   3.044 -0.7185 -0.0891 -0.0655
 1250SOL    HW1 3898   3.189   2.584   3.097  1.4878 -1.1372 -0.8808
 1250SOL    HW2 3899   3.121   2.673   2.995 -1.3158 -1.5043  0.5535
 1251SOL     OW 3900   2.190   3.069   2.070 -0.0587 -0.1296  0.2122
 1251SOL    HW1 3901   2.213   3.159   2.046  0.4607 -0.3381 -0.0875
 1251SOL    HW2 3902   2.185   3.070   2.165  1.0165 -0.0246  0.2813
 1252SOL     OW 3903   1.405   3.320   2.975  0.1698 -0.2265  0.0290
 1252SOL    HW1 3904   1.342   3.257   3.010 -1.5276  0.3401 -1.8288
 1252SOL    HW2 3905   1.479   3.267   2.946 -1.0245 -1.3602 -1.0853
 1253SOL     OW 3906   2.341   0.424   2.035 -0.0792  0.0097  0.2320
 1253SOL    HW1 3907   2.428   0.465   2.029  0.0390 -0.3379 -0.6244
 1253SOL    HW2 3908   2.317   0.433   2.127  1.0847 -0.3419  0.5893
 1254SOL     OW 3909   0.788   3.567   0.629 -0.8026 -0.3987 -0.3642
 1254SOL    HW1 3910   0.837   3.491   0.598  0.1724 -0.1129  0.4383
 1254SOL    HW2 3911   0.777   3.552   0.723 -1.5008 -0.0333 -0.3804
 1255SOL     OW 3912   3.454   1.132   2.999 -0.5534  0.1346  0.4408
 1255SOL    HW1 3913   3.401   1.184   3.060 -2.4621 -1.3407  0.1691
 1255SOL    HW2 3914   3.537   1.119   3.044 -1.5584 -0.0950  2.3404
 1256SOL     OW 3915   1.550   2.694   2.268  0.6156  0.6601 -0.2511
 1256SOL    HW1 3916   1.476   2.737   2.226  0.4656 -0.6978 -1.4676
 1256SOL    HW2 3917   1.511   2.633   2.330  0.7811  1.0413  0.2388
 1257SOL     OW 3918   2.648   1.517   2.812  0.1273 -0.5671 -0.0243
 1257SOL    HW1 3919   2.733   1.552   2.839  0.3942 -1.5093  0.4122
 1257SOL    HW2 3920   2.642   1.539   2.719  0.7023 -0.1982  0.0185
 1258SOL     OW 3921   2.630   1.265   2.932 -0.8914  0.2418 -0.5430
 1258SOL    HW1 3922   2.709   1.217   2.958 -0.8515  0.0411 -1.0202
 1258SOL    HW2 3923   2.661   1.352   2.909 -0.6263 -0.1733 -1.8461
 1259SOL     OW 3924   1.662   2.987   0.837 -0.6846 -0.2540  0.0369
 1259SOL    HW1 3925   1.644   3.017   0.926 -1.1379 -1.4567  0.3639
 1259SOL    HW2 3926   1.757   2.994   0.828 -0.8399  2.8304 -0.5020
 1260SOL     OW 3927   0.567   3.704   2.423 -0.0960  0.4897 -0.4789
 1260SOL    HW1 3928   0.638   3.727   2.364  0.6081 -2.6677 -1.0374
 1260SOL    HW2 3929   0.611   3.663   2.498 -1.1725  1.7714  0.9233
 1261SOL     OW 3930   1.361   1.460   3.326  0.4110  0.1006  0.0958
 1261SOL    HW1 3931   1.353   1.382   3.381 -0.5080 -0.7713 -1.2181
 1261SOL    HW2 3932   1.286   1.514   3.350  0.3127 -0.0351  0.0980
 1262SOL     OW 3933   0.533   2.091   3.639  0.5315  0.2842  0.3039
 1262SOL    HW1 3934   0.560   2.125   3.725 -1.1871  1.1194  0.5702
 1262SOL    HW2 3935   0.590   2.136   3.577  0.2624  1.4554  0.8686
 1263SOL     OW 3936   3.321   0.672   0.648  0.0539 -0.0754  0.2269
 1263SOL    HW1 3937   3.281   0.676   0.561 -0.0424  3.5065  0.2919
 1263SOL    HW2 3938   3.413   0.653   0.631 -0.0121  0.3315 -0.6397
 1264SOL     OW 3939   3.103   1.395   0.098 -0.3142  0.4352  0.6353
 1264SOL    HW1 3940   3.109   1.353   0.183  0.1807  0.8514  0.8116
 1264SOL    HW2 3941   3.109   1.489   0.117  0.6594  0.5004  0.0780
 1265SOL     OW 3942   2.447   3.512   2.011 -0.4594 -0.2478 -0.2796
 1265SOL    HW1 3943   2.460   3.537   2.103 -0.5588 -0.3413 -0.2392
 1265SOL    HW2 3944   2.428   3.594   1.966  0.4726 -0.0727 -0.3806
 1266SOL     OW 3945   1.530   2.443   0.776 -0.0199  0.2002 -0.9285
 1266SOL    HW1 3946   1.526   2.537   0.756  1.0147  0.0501 -1.9662
 1266SOL    HW2 3947   1.621   2.419   0.758 -0.1096 -0.8648 -0.0156
 1267SOL     OW 3948   2.355   1.313   0.767  0.0491 -0.0482  0.0380
 1267SOL    HW1 3949   2.261   1.299   0.763  0.2425 -1.2064 -1.1397
 1267SOL    HW2 3950   2.392   1.226   0.784  0.9128  0.3770  0.4103
 1268SOL     OW 3951   1.096   1.994   2.451  0.2806 -0.0347  0.1092
 1268SOL    HW1 3952   1.015   2.021   2.494  0.4169 -0.7977  0.8872
 1268SOL    HW2 3953   1.154   1.969   2.523  1.4917  1.2066 -0.3927
 1269SOL     OW 3954   2.988   0.783   3.548 -0.2797 -0.5276 -0.0975
 1269SOL    HW1 3955   3.010   0.874   3.531  0.7241 -0.7621 -0.1313
 1269SOL    HW2 3956   2.917   0.786   3.612  1.3031  0.2486  1.6982
 1270SOL     OW 3957   3.311   0.225   2.169  0.2870 -0.0341  0.6720
 1270SOL    HW1 3958   3.353   0.273   2.098 -0.4736 -0.4292 -0.0608
 1270SOL    HW2 3959   3.380   0.216   2.235  0.8013  0.9507  0.2928
 1271SOL     OW 3960   3.586   2.615   3.165  0.0102 -0.5049  0.2015
 1271SOL    HW1 3961   3.529   2.679   3.209 -1.1802 -1.2003 -0.2709
 1271SOL    HW2 3962   3.664   2.665   3.141 -0.4859  0.5392  0.6818
 1272SOL     OW 3963   2.180   0.175   2.874 -0.5963  0.2938  0.1328
 1272SOL    HW1 3964   2.213   0.091   2.843 -0.4467  1.0557 -1.9503
 1272SOL    HW2 3965   2.111   0.197   2.811 -0.2967  1.9459  0.3489
 1273SOL     OW 3966   0.243   3.219   0.075 -0.0155  0.1746  0.0987
 1273SOL    HW1 3967   0.305   3.202   0.146  0.5742  3.5215  0.5470
 1273SOL    HW2 3968   0.183   3.285   0.111 -2.1079 -0.8800 -1.2767
 1274SOL     OW 3969   1.171   2.615   2.023  0.5921  0.3902 -0.3721
 1274SOL    HW1 3970   1.088   2.593   2.064 -0.0042  0.9373 -1.2557
 1274SOL    HW2 3971   1.216   2.531   2.014  0.5586  0.2108  0.9824
 1275SOL     OW 3972   3.155   0.530   1.433  0.1495 -0.3596  0.4406
 1275SOL    HW1 3973   3.191   0.524   1.522 -0.3825 -1.7596  0.5936
 1275SOL    HW2 3974   3.174   0.445   1.394 -1.4046 -0.5139 -0.0611
 1276SOL     OW 3975   1.616   0.821   2.173  0.3289  0.0598  0.5925
 1276SOL    HW1 3976   1.574   0.835   2.257 -2.4663  1.8426 -0.9524
 1276SOL    HW2 3977   1.567   0.749   2.133 -1.4994  2.1566 -1.2305
 1277SOL     OW 3978   2.513   2.217   3.481  0.4199  0.6813 -0.2173
 1277SOL    HW1 3979   2.559   2.156   3.423  2.0613  1.4981  0.1544
 1277SOL    HW2 3980   2.505   2.297   3.429 -0.0444  0.7407 -0.0595
 1278SOL     OW 3981   0.230   2.023   1.632  0.5818  0.2024 -0.2026
 1278SOL    HW1 3982   0.183   1.968   1.695  0.7864 -1.3229 -1.3305
 1278SOL    HW2 3983   0.321   2.021   1.661  0.6376 -0.3054 -0.4099
 1279SOL     OW 3984   2.027   1.271   2.974  0.2216 -0.1122  0.6245
 1279SOL    HW1 3985   2.078   1.280   2.893 -2.8247 -2.4479 -1.8189
 1279SOL    HW2 3986   2.076   1.209   3.027  1.4666  0.1753 -0.1323
 1280SOL     OW 3987   0.104   0.521   3.396 -0.3711  0.2160  0.0081
 1280SOL    HW1 3988   0.114   0.473   3.314 -2.3558  0.2695 -0.3173
 1280SOL    HW2 3989   0.112   0.613   3.372  0.2429  0.1940  0.1004
 1281SOL     OW 3990   3.657   3.078   0.092 -0.0266  0.0121 -0.6494
 1281SOL    HW1 3991   3.576   3.085   0.143  0.7268  0.3688  0.5537
 1281SOL    HW2 3992   3.664   3.161   0.046  1.4937  1.6303  2.1867
 1282SOL     OW 3993   1.917   0.648   3.254  0.6189 -0.1466 -0.3566
 1282SOL    HW1 3994   1.881   0.638   3.342  2.6969  3.5089  1.1073
 1282SOL    HW2 3995   2.007   0.615   3.262  0.9896  0.7081 -0.9368
 1283SOL     OW 3996   0.138   0.151   2.963 -0.2088  0.1586  0.2634
 1283SOL    HW1 3997   0.079   0.162   3.038  0.3213  0.0698  0.6982
 1283SOL    HW2 3998   0.113   0.221   2.903 -1.7403 -0.7590 -0.2168
 1284SOL     OW 3999   2.319   0.417   1.480  0.0633 -0.1539  0.3713
 1284SOL    HW1 4000   2.327   0.414   1.575  0.0578 -0.8858  0.3555
 1284SOL    HW2 4001   2.232   0.454   1.465 -0.0821 -0.3699  0.6612
 1285SOL     OW 4002   0.669   2.120   3.393 -1.0782 -0.1250  0.1659
 1285SOL    HW1 4003   0.687   2.027   3.382 -0.1270  0.0826 -0.0849
 1285SOL    HW2 4004   0.592   2.136   3.339  0.4672 -0.1927 -2.2002
 1286SOL     OW 4005   3.702   0.130   1.659  0.4344 -0.3342  1.2312
 1286SOL    HW1 4006   3.683   0.208   1.608  3.2286  0.2904  1.0020
 1286SOL    HW2 4007   3.744   0.162   1.739  2.6617 -1.5523  0.6434
 1287SOL     OW 4008   0.389   3.572   1.398  0.0748 -0.1456  0.1384
 1287SOL    HW1 4009   0.430   3.601   1.317  0.6042 -2.7055 -0.6049
 1287SOL    HW2 4010   0.447   3.505   1.433 -1.4811 -1.0251  1.2048
 1288SOL     OW 4011   2.100   1.624   2.427  0.1575  0.4686  0.3115
 1288SOL    HW1 4012   2.036   1.568   2.471  1.3713 -1.1215  0.1542
 1288SOL    HW2 4013   2.072   1.625   2.335  0.1213  0.1030  0.3155
 1289SOL     OW 4014   0.236   2.456   1.118 -0.9244 -0.2228 -0.5096
 1289SOL    HW1 4015   0.258   2.363   1.118  0.1430  0.0187  0.1350
 1289SOL    HW2 4016   0.149   2.459   1.160 -0.2467 -0.7951  1.0268
 1290SOL     OW 4017   1.651   1.111   0.192 -0.2610 -0.0725  0.4612
 1290SOL    HW1 4018   1.613   1.046   0.132  1.6582  0.0856 -1.0200
 1290SOL    HW2 4019   1.721   1.152   0.141 -0.0294  1.6702  2.0969
 1291SOL     OW 4020   0.652   1.407   2.652  0.0269  0.1460  0.2143
 1291SOL    HW1 4021   0.645   1.424   2.558  0.4695 -3.5544 -0.6645
 1291SOL    HW2 4022   0.701   1.325   2.658 -0.1320  0.1309  3.7093
 1292SOL     OW 4023   3.242   1.630   2.446 -0.0600  0.8575  0.0377
 1292SOL    HW1 4024   3.260   1.644   2.353 -0.0246  1.6196  0.1584
 1292SOL    HW2 4025   3.279   1.706   2.490  4.0966 -1.4860  1.1834
 1293SOL     OW 4026   1.167   2.976   2.817  0.6638  0.1938 -0.1396
 1293SOL    HW1 4027   1.132   3.015   2.737  0.7777  1.3624  0.3691
 1293SOL    HW2 4028   1.090   2.937   2.859  0.5442 -0.1244 -0.6431
 1294SOL     OW 4029   3.549   3.237   3.091  0.3385  0.4895  0.1909
 1294SOL    HW1 4030   3.632   3.282   3.106  0.7472 -0.7954  2.0877
 1294SOL    HW2 4031   3.575   3.154   3.051 -0.3086  1.2699 -2.0020
 1295SOL     OW 4032   3.407   2.427   3.113  0.1030  0.1645 -0.2821
 1295SOL    HW1 4033   3.469   2.493   3.143  0.1945 -0.4585  0.9822
 1295SOL    HW2 4034   3.414   2.428   3.018  0.6256  1.4583 -0.2445
 1296SOL     OW 4035   3.616   1.267   1.527 -0.2067 -0.0684  0.3168
 1296SOL    HW1 4036   3.594   1.178   1.500  0.8701 -0.6807  1.3595
 1296SOL    HW2 4037   3.708   1.277   1.505  0.0311  0.2960  1.4057
 1297SOL     OW 4038   1.654   3.468   3.531  0.2241 -0.3330 -0.2986
 1297SOL    HW1 4039   1.584   3.450   3.468 -2.1473  4.1397  0.6594
 1297SOL    HW2 4040   1.618   3.443   3.616 -0.6130  2.5125  0.2688
 1298SOL     OW 4041   0.541   1.034   0.345 -0.3367 -0.5012 -0.3214
 1298SOL    HW1 4042   0.618   1.090   0.341 -2.7097  2.9404 -2.6765
 1298SOL    HW2 4043   0.539   1.003   0.436  2.0936  1.8197  0.6406
 1299SOL     OW 4044   1.259   2.659   3.582 -0.1740  0.2035  0.3958
 1299SOL    HW1 4045   1.275   2.671   3.676  1.6565 -0.7810  0.2535
 1299SOL    HW2 4046   1.167   2.634   3.577 -0.1131 -0.5110  2.0282
 1300SOL     OW 4047   3.351   3.670   1.785 -0.7282 -0.0805  0.0808
 1300SOL    HW1 4048   3.292   3.602   1.752 -0.6279  0.7712 -2.0621
 1300SOL    HW2 4049   3.437   3.628   1.789 -0.7341 -0.2055 -0.8731
 1301SOL     OW 4050   2.279   0.103   0.770 -0.7081 -0.5677  0.3443
 1301SOL    HW1 4051   2.207   0.068   0.717 -1.2064 -0.0058  0.6409
 1301SOL    HW2 4052   2.251   0.192   0.793  1.6072  1.0935 -2.5149
 1302SOL     OW 4053   0.495   0.920   2.605 -0.6448  0.0708 -0.1909
 1302SOL    HW1 4054   0.570   0.860   2.598 -1.6826 -1.1758 -1.1938
 1302SOL    HW2 4055   0.533   1.006   2.589  0.5350 -0.5689 -1.0947
 1303SOL     OW 4056   2.656   2.423   0.033  0.1969 -0.2483  0.2688
 1303SOL    HW1 4057   2.570   2.465   0.041 -0.2925 -1.3407  0.9763
 1303SOL    HW2 4058   2.718   2.496   0.032 -0.5638  0.5060  2.3233
 1304SOL     OW 4059   2.721   1.611   0.741 -0.5898 -0.3731 -0.1401
 1304SOL    HW1 4060   2.671   1.676   0.791  0.3164  0.4304 -0.2288
 1304SOL    HW2 4061   2.726   1.647   0.653  0.5947 -0.1404 -0.0029
 1305SOL     OW 4062   1.292   0.849   1.911 -0.0979  0.5997  0.4556
 1305SOL    HW1 4063   1.304   0.943   1.928 -0.8103  0.6117  0.9224
 1305SOL    HW2 4064   1.346   0.832   1.834 -0.8526  1.6465 -0.3423
 1306SOL     OW 4065   0.621   3.308   0.509 -0.2071  0.5372 -0.2516
 1306SOL    HW1 4066   0.707   3.271   0.528  0.4198  1.8533 -0.4469
 1306SOL    HW2 4067   0.576   3.309   0.593  0.2694  0.5936  0.0058
 1307SOL     OW 4068   1.946   3.386   1.310  0.2554  0.7433  0.4783
 1307SOL    HW1 4069   2.026   3.346   1.275 -0.2478  1.8706 -2.2814
 1307SOL    HW2 4070   1.963   3.480   1.305 -1.0184  0.9863  0.3844
 1308SOL     OW 4071   0.995   1.098   2.825 -0.5727 -0.1953 -0.2796
 1308SOL    HW1 4072   0.906   1.067   2.809 -0.9944  0.3874  0.8031
 1308SOL    HW2 4073   0.985   1.190   2.849  0.6741  0.9935 -3.6734
 1309SOL     OW 4074   0.839   0.235   3.294  0.6543 -0.3526  0.2751
 1309SOL    HW1 4075   0.922   0.245   3.340  1.4787 -1.0645 -0.9855
 1309SOL    HW2 4076   0.804   0.324   3.289  2.2587  0.2804 -0.7579
 1310SOL     OW 4077   1.568   1.814   0.290  0.1824  0.2922  0.0197
 1310SOL    HW1 4078   1.629   1.753   0.248 -0.4957 -1.5920  1.5810
 1310SOL    HW2 4079   1.622   1.859   0.356  0.8847  2.1172 -1.7010
 1311SOL     OW 4080   0.037   1.056   1.724  0.3095  0.3299 -0.0765
 1311SOL    HW1 4081   0.071   0.967   1.733 -0.0896 -0.0028 -1.5314
 1311SOL    HW2 4082   0.000   1.077   1.810 -0.0824 -1.1254  0.1385
 1312SOL     OW 4083   0.668   2.848   0.235 -0.4374  0.4672 -0.0401
 1312SOL    HW1 4084   0.684   2.927   0.184 -0.3854  0.3548 -0.2004
 1312SOL    HW2 4085   0.699   2.869   0.323 -2.4633  1.4006  0.5039
 1313SOL     OW 4086   3.506   3.257   0.693  0.4577  0.6037  0.4709
 1313SOL    HW1 4087   3.410   3.247   0.693  0.7457 -4.1371  0.6028
 1313SOL    HW2 4088   3.532   3.236   0.782  1.7252  0.8913  0.1780
 1314SOL     OW 4089   1.981   2.486   2.337 -0.1290 -0.3235  0.2576
 1314SOL    HW1 4090   1.966   2.515   2.427  1.3390  1.1932  0.0613
 1314SOL    HW2 4091   1.906   2.519   2.289 -0.0073  0.4751  0.6042
 1315SOL     OW 4092   0.110   1.777   1.201 -0.5023  0.4853 -0.1019
 1315SOL    HW1 4093   0.071   1.778   1.289 -1.0896  0.9292 -0.3559
 1315SOL    HW2 4094   0.089   1.690   1.167  0.4354  0.0128  0.4961
 1316SOL     OW 4095   0.644   1.120   0.633 -0.9029 -0.5718  0.2154
 1316SOL    HW1 4096   0.618   1.201   0.589  1.5328  0.1888  0.0119
 1316SOL    HW2 4097   0.611   1.130   0.722 -0.9970  0.4800  0.0831
 1317SOL     OW 4098   2.202   1.671   2.994  0.1612  0.1366  0.3430
 1317SOL    HW1 4099   2.215   1.699   3.085 -1.7433 -1.3306  1.1717
 1317SOL    HW2 4100   2.281   1.622   2.972  0.4574  0.1034  1.4183
 1318SOL     OW 4101   2.915   3.313   1.513  0.6028  0.0967 -0.1623
 1318SOL    HW1 4102   2.851   3.384   1.508  1.0290  0.5449  0.5986
 1318SOL    HW2 4103   2.969   3.324   1.435 -1.7407 -1.7946 -2.2160
 1319SOL     OW 4104   2.944   0.097   0.399  0.2686 -0.0169 -0.5019
 1319SOL    HW1 4105   2.895   0.038   0.342 -0.2199  0.5820 -0.7143
 1319SOL    HW2 4106   2.879   0.132   0.459  0.6286  0.0048 -0.1179
 1320SOL     OW 4107   2.474   1.298   2.672 -0.1379 -0.5976 -0.2741
 1320SOL    HW1 4108   2.419   1.350   2.613 -0.2111 -1.5296 -1.0542
 1320SOL    HW2 4109   2.561   1.337   2.663 -0.7653  1.4815  1.6607
 1321SOL     OW 4110   1.015   2.301   0.888  0.7132 -0.3079  0.4820
 1321SOL    HW1 4111   0.995   2.225   0.944  1.1316 -0.5854  0.2605
 1321SOL    HW2 4112   1.057   2.363   0.947 -0.0897 -0.0331  0.7806
 1322SOL     OW 4113   1.424   2.341   2.775 -0.6114  0.1283  0.7489
 1322SOL    HW1 4114   1.438   2.424   2.820  2.9851  2.2361 -3.5106
 1322SOL    HW2 4115   1.496   2.285   2.804  0.6592  0.8552 -0.8695
 1323SOL     OW 4116   0.757   0.837   3.162 -0.0476 -0.0583  0.1546
 1323SOL    HW1 4117   0.786   0.770   3.224 -0.7589  0.2260  0.8084
 1323SOL    HW2 4118   0.772   0.798   3.076  0.3479 -0.7146  0.5109
 1324SOL     OW 4119   1.485   1.888   1.082 -0.3787 -0.5044 -0.5894
 1324SOL    HW1 4120   1.439   1.834   1.018  0.8115 -0.2070 -1.7448
 1324SOL    HW2 4121   1.577   1.869   1.067 -0.0512  0.1159  0.5702
 1325SOL     OW 4122   2.145   2.295   0.487 -0.2103  0.2149  0.2824
 1325SOL    HW1 4123   2.095   2.263   0.562  0.0551  1.3682  0.9674
 1325SOL    HW2 4124   2.234   2.264   0.503 -0.1189  0.6041  0.5321
 1326SOL     OW 4125   2.386   2.553   1.429 -0.3047  0.3903  0.0681
 1326SOL    HW1 4126   2.428   2.593   1.504 -1.0191  0.0597  0.6517
 1326SOL    HW2 4127   2.437   2.473   1.413 -0.6941  0.0043  0.7552
 1327SOL     OW 4128   2.331   1.105   1.411 -0.6097  0.3028 -0.5630
 1327SOL    HW1 4129   2.386   1.148   1.345 -0.0596 -0.5310 -0.6694
 1327SOL    HW2 4130   2.289   1.177   1.458  0.0451  0.9472 -0.9393
 1328SOL     OW 4131   3.571   0.182   1.213 -0.2013 -0.0872 -0.0912
 1328SOL    HW1 4132   3.583   0.242   1.139  2.0856 -0.9434 -0.4952
 1328SOL    HW2 4133   3.544   0.239   1.285  2.0518  1.5383 -0.4120
 1329SOL     OW 4134   2.024   2.857   1.987  0.2886  0.1291 -0.2352
 1329SOL    HW1 4135   2.086   2.921   2.021  1.4617 -0.1038 -1.8341
 1329SOL    HW2 4136   2.049   2.775   2.029 -1.2092  0.6267  1.8064
 1330SOL     OW 4137   1.469   2.762   1.804  0.6765  0.0325  0.2190
 1330SOL    HW1 4138   1.405   2.714   1.857  1.9195 -1.9969  0.0011
 1330SOL    HW2 4139   1.497   2.834   1.861  0.2095 -0.6544  1.3684
 1331SOL     OW 4140   0.192   3.343   1.767 -0.6786 -0.6238 -0.1842
 1331SOL    HW1 4141   0.129   3.303   1.706 -1.6918  1.6051 -0.6889
 1331SOL    HW2 4142   0.195   3.435   1.742  1.2048 -0.2393  1.2304
 1332SOL     OW 4143   3.390   2.812   3.192 -0.2430  0.0634 -0.4829
 1332SOL    HW1 4144   3.324   2.772   3.134 -2.1802  0.7572  1.1194
 1332SOL    HW2 4145   3.339   2.849   3.264  2.0443 -0.8226  1.7421
 1333SOL     OW 4146   1.695   2.832   2.765 -0.2023 -0.5494  0.1791
 1333SOL    HW1 4147   1.714   2.802   2.854  2.7712  0.2181 -0.0949
 1333SOL    HW2 4148   1.771   2.805   2.714 -2.0456 -1.4217 -2.3338
 1334SOL     OW 4149   0.492   1.453   3.557  0.1142  0.1998 -0.3538
 1334SOL    HW1 4150   0.521   1.478   3.470  0.0730 -2.0767 -1.0713
 1334SOL    HW2 4151   0.495   1.535   3.608 -0.1304  1.6264 -2.5151
 1335SOL     OW 4152   0.091   3.521   2.312 -0.2243 -0.3334  0.3588
 1335SOL    HW1 4153   0.012   3.479   2.345 -0.1037 -0.0951  0.9713
 1335SOL    HW2 4154   0.143   3.539   2.391  0.2805 -0.1701 -0.0042
 1336SOL     OW 4155   2.650   2.060   3.294  0.2809  0.5967 -0.0121
 1336SOL    HW1 4156   2.740   2.090   3.297 -0.0213  1.5720 -0.5613
 1336SOL    HW2 4157   2.656   1.968   3.268  1.0872  0.7982 -0.5553
 1337SOL     OW 4158   0.476   3.537   2.919 -0.7587  0.6398  0.0655
 1337SOL    HW1 4159   0.521   3.566   2.999  2.5917  0.4733 -1.6211
 1337SOL    HW2 4160   0.445   3.449   2.940 -0.5735  0.8662  1.3853
 1338SOL     OW 4161   0.883  -0.016   2.990 -0.6821  0.0770 -0.3260
 1338SOL    HW1 4162   0.949  -0.026   3.059 -0.4106 -0.4417 -0.6573
 1338SOL    HW2 4163   0.870   0.079   2.982 -2.4355  0.1388  2.0613
 1339SOL     OW 4164   1.907   1.486   3.139 -0.1587  0.0412  0.0854
 1339SOL    HW1 4165   1.821   1.491   3.097  0.1796  0.4724 -0.5652
 1339SOL    HW2 4166   1.951   1.414   3.095  0.3578  0.7700 -0.6221
 1340SOL     OW 4167   3.130   3.340   2.917 -0.1638 -0.6256 -0.8602
 1340SOL    HW1 4168   3.225   3.343   2.926 -0.1849 -0.5087 -0.6793
 1340SOL    HW2 4169   3.107   3.250   2.940 -0.2546 -0.2501  0.6157
 1341SOL     OW 4170   3.434   1.392   2.432  0.2091 -0.3158  0.3125
 1341SOL    HW1 4171   3.352   1.362   2.391 -1.1525  0.2442  2.4798
 1341SOL    HW2 4172   3.446   1.481   2.399 -1.2891  0.4198  1.6145
 1342SOL     OW 4173   3.607   2.114   3.073  0.0793 -0.3989  0.5584
 1342SOL    HW1 4174   3.515   2.108   3.101  0.0011  0.4665  0.5040
 1342SOL    HW2 4175   3.636   2.201   3.103  0.4494 -0.0781 -0.6863
 1343SOL     OW 4176   1.305   1.382   2.463 -0.5462 -0.4336  0.1941
 1343SOL    HW1 4177   1.329   1.300   2.419 -0.2698 -0.4766  0.4192
 1343SOL    HW2 4178   1.387   1.412   2.503 -0.6030  0.0558 -0.0556
 1344SOL     OW 4179   1.879   2.780   2.551  0.3768 -0.1223 -0.1586
 1344SOL    HW1 4180   1.967   2.818   2.553  1.2770 -2.0475 -0.6319
 1344SOL    HW2 4181   1.872   2.740   2.465 -0.7681 -0.4377  0.0654
 1345SOL     OW 4182   3.183   2.321   0.005 -0.1992 -0.3902 -0.2530
 1345SOL    HW1 4183   3.178   2.256   0.075 -1.7519  0.7196  0.7170
 1345SOL    HW2 4184   3.097   2.320  -0.035  0.7435 -1.2052 -2.4077
 1346SOL     OW 4185   2.852   1.052   0.204 -0.2665 -0.3821 -0.7684
 1346SOL    HW1 4186   2.945   1.057   0.227 -0.4862 -1.5483  0.4786
 1346SOL    HW2 4187   2.807   1.054   0.288 -1.3099 -1.0375 -1.2995
 1347SOL     OW 4188   2.959   2.689   2.957  0.1697  0.4469  0.8940
 1347SOL    HW1 4189   2.920   2.606   2.929 -1.4292  0.9764  1.4321
 1347SOL    HW2 4190   2.897   2.756   2.928 -0.4416  1.1809  3.6212
 1348SOL     OW 4191   0.116   0.977   2.281 -0.4588  0.2720 -0.0662
 1348SOL    HW1 4192   0.048   0.961   2.346  0.2971  0.7445  0.8665
 1348SOL    HW2 4193   0.188   1.016   2.330  0.3323  0.1728 -1.1030
 1349SOL     OW 4194   0.899   2.634   1.456  0.4623  0.4798  0.0295
 1349SOL    HW1 4195   0.988   2.643   1.423  0.1427  1.0715 -0.7047
 1349SOL    HW2 4196   0.855   2.715   1.429 -0.0151  0.6615  1.2887
 1350SOL     OW 4197   2.427   3.107   2.504 -0.2021 -0.1006  0.1913
 1350SOL    HW1 4198   2.475   3.145   2.430 -0.5525  0.2971  0.1631
 1350SOL    HW2 4199   2.476   3.134   2.581  0.3346 -0.7657  0.0929
 1351SOL     OW 4200   0.323   0.337   0.397 -0.2150  0.8558 -0.1381
 1351SOL    HW1 4201   0.331   0.431   0.386  0.3220  0.6557 -1.7065
 1351SOL    HW2 4202   0.362   0.300   0.318  1.2441 -0.7383  1.2202
 1352SOL     OW 4203   2.449   2.802   2.756 -1.2127  0.3715 -0.2932
 1352SOL    HW1 4204   2.440   2.747   2.678 -3.2147  1.1944 -0.7164
 1352SOL    HW2 4205   2.520   2.862   2.734  0.6014 -1.5579 -0.0577
 1353SOL     OW 4206   0.898   3.675   3.547 -0.0354  0.3011  0.5916
 1353SOL    HW1 4207   0.966   3.609   3.542  0.5850  0.9048  0.8057
 1353SOL    HW2 4208   0.946   3.757   3.564 -0.7766  0.8041  0.2908
 1354SOL     OW 4209   0.793   2.149   2.854  0.0727 -0.3834  0.6257
 1354SOL    HW1 4210   0.753   2.236   2.853  1.9820  0.5632 -1.0897
 1354SOL    HW2 4211   0.831   2.142   2.942  1.2688  1.2271  0.2851
 1355SOL     OW 4212   2.075   1.944   3.066 -0.0741  0.2171  0.2426
 1355SOL    HW1 4213   2.041   1.869   3.018  1.1681  1.1987 -2.3413
 1355SOL    HW2 4214   2.170   1.933   3.065  0.3323  2.7922 -2.1847
 1356SOL     OW 4215   0.486   2.821   0.982  0.9249  0.3072  0.6364
 1356SOL    HW1 4216   0.408   2.774   1.013 -0.3256  1.3524 -0.7449
 1356SOL    HW2 4217   0.507   2.882   1.053  1.9419 -1.5241  2.0048
 1357SOL     OW 4218   1.029   1.863   1.891 -0.4377 -0.3947 -0.5437
 1357SOL    HW1 4219   1.060   1.952   1.873 -0.3555 -0.1647  0.6367
 1357SOL    HW2 4220   0.940   1.861   1.855 -0.2802  0.0228 -0.9671
 1358SOL     OW 4221   3.585   0.566   0.590 -0.1971  0.0382  0.3688
 1358SOL    HW1 4222   3.627   0.601   0.511 -1.2614  2.5081  0.7842
 1358SOL    HW2 4223   3.506   0.523   0.557 -0.0569  0.0654 -0.0150
 1359SOL     OW 4224   3.229   1.377   1.643  0.1938 -0.2694  0.5227
 1359SOL    HW1 4225   3.273   1.429   1.576  0.6550 -1.0873  0.1833
 1359SOL    HW2 4226   3.253   1.286   1.623  1.4208 -0.4536  2.5616
 1360SOL     OW 4227   2.901   2.138   0.345 -0.1618  0.3715 -0.3710
 1360SOL    HW1 4228   2.939   2.204   0.403 -0.4522  0.9476 -0.8299
 1360SOL    HW2 4229   2.886   2.062   0.401  0.5239  0.5624  0.0827
 1361SOL     OW 4230   1.041   1.345   3.106 -0.4616 -0.4889  0.0107
 1361SOL    HW1 4231   0.988   1.269   3.132  0.3595 -2.0466 -2.5164
 1361SOL    HW2 4232   1.015   1.362   3.015 -0.4398  2.1725  0.4191
 1362SOL     OW 4233   1.506   0.025   3.671  0.4133 -0.1288 -0.4595
 1362SOL    HW1 4234   1.568  -0.043   3.700  0.3897  1.0692  2.8302
 1362SOL    HW2 4235   1.464   0.054   3.752 -1.2655  2.1984 -2.0612
 1363SOL     OW 4236   1.581   0.826   3.648  0.1148 -0.2563 -0.1441
 1363SOL    HW1 4237   1.556   0.735   3.665  0.9179 -0.3202  0.8425
 1363SOL    HW2 4238   1.514   0.878   3.692  0.2707 -0.3945  0.2659
 1364SOL     OW 4239   0.264   3.278   0.988 -0.2422  0.1347 -0.4821
 1364SOL    HW1 4240   0.331   3.346   0.980  0.5335 -0.5875 -0.3845
 1364SOL    HW2 4241   0.182   3.321   0.963  0.0648  1.3557  0.5130
 1365SOL     OW 4242   2.275   0.256   0.047  0.5628  0.7083  0.2142
 1365SOL    HW1 4243   2.219   0.199   0.100  0.2406  0.2327 -0.6147
 1365SOL    HW2 4244   2.363   0.220   0.057  0.8969  1.8640  2.0766
 1366SOL     OW 4245   0.487   2.374   0.336  0.4384 -0.4075 -0.5622
 1366SOL    HW1 4246   0.503   2.420   0.418  1.3964 -1.0188 -0.3862
 1366SOL    HW2 4247   0.564   2.394   0.282 -0.8200  1.1584 -1.8909
 1367SOL     OW 4248   0.993   2.342   0.611 -0.2448 -0.0861 -1.1095
 1367SOL    HW1 4249   0.992   2.330   0.706  0.9690 -2.3724 -1.3221
 1367SOL    HW2 4250   1.086   2.348   0.588 -0.3878 -1.8133 -2.3443
 1368SOL     OW 4251   1.752   1.645   2.743 -0.2840  0.3188 -0.0800
 1368SOL    HW1 4252   1.701   1.631   2.823  0.1245 -1.4434 -0.0875
 1368SOL    HW2 4253   1.843   1.630   2.769 -0.2148 -1.0380 -0.9899
 1369SOL     OW 4254   0.413   2.899   0.434  0.6172 -0.1513  0.6217
 1369SOL    HW1 4255   0.331   2.947   0.443  1.3404  1.2941 -0.2174
 1369SOL    HW2 4256   0.449   2.896   0.523 -0.0653 -0.3249  0.9026
 1370SOL     OW 4257   0.852   2.074   2.589 -0.2722 -0.2385 -0.5629
 1370SOL    HW1 4258   0.906   2.139   2.634  5.1783 -2.6951 -2.6418
 1370SOL    HW2 4259   0.831   2.008   2.655  1.0594 -0.1469 -0.0317
 1371SOL     OW 4260   0.779   3.591   1.320  0.6773 -0.5095  0.1863
 1371SOL    HW1 4261   0.749   3.673   1.282  1.6763 -0.6717 -1.0071
 1371SOL    HW2 4262   0.775   3.528   1.248  2.2364 -0.9230  0.4213
 1372SOL     OW 4263   1.514   1.801   1.524  0.2219  0.3347 -0.1996
 1372SOL    HW1 4264   1.601   1.772   1.497 -0.1536  0.0552 -1.1369
 1372SOL    HW2 4265   1.492   1.870   1.462  0.4127  1.4962  0.9909
 1373SOL     OW 4266   2.141   2.305   2.166 -0.2961  0.0104  0.5086
 1373SOL    HW1 4267   2.187   2.360   2.229  1.2507 -1.6798  0.9492
 1373SOL    HW2 4268   2.065   2.272   2.213  0.4618 -0.6681  1.2905
 1374SOL     OW 4269   2.175   2.552   2.546  0.3473  0.1265 -0.3186
 1374SOL    HW1 4270   2.229   2.506   2.482  0.2760  2.1720 -1.9517
 1374SOL    HW2 4271   2.205   2.643   2.543 -1.5210  0.8317  0.5420
 1375SOL     OW 4272   3.674   3.647   3.110 -0.1887 -0.2565  0.0709
 1375SOL    HW1 4273   3.643   3.593   3.037 -0.4211  0.5584 -0.4432
 1375SOL    HW2 4274   3.643   3.735   3.089  0.9720  0.2522  0.4373
 1376SOL     OW 4275   1.123   0.201   3.051  1.2302 -0.0990  0.4619
 1376SOL    HW1 4276   1.029   0.186   3.043  1.3289 -0.9093  0.8224
 1376SOL    HW2 4277   1.146   0.250   2.972  0.9058 -1.8206 -0.7377
 1377SOL     OW 4278   1.779   0.825   1.249  0.5535 -0.1306  0.9909
 1377SOL    HW1 4279   1.719   0.899   1.244 -0.0051 -0.6535 -1.1725
 1377SOL    HW2 4280   1.777   0.799   1.342 -0.5274  1.4806  1.4689
 1378SOL     OW 4281   3.112   2.633   0.035  0.0857  0.1215 -0.2026
 1378SOL    HW1 4282   3.104   2.635  -0.060  1.3756 -0.4323 -0.3427
 1378SOL    HW2 4283   3.144   2.545   0.055 -1.5718 -0.2921  0.8847
 1379SOL     OW 4284   0.179   0.098   3.550 -0.4566 -0.5870 -0.0324
 1379SOL    HW1 4285   0.192   0.184   3.590 -2.0936  0.0099 -0.6839
 1379SOL    HW2 4286   0.262   0.079   3.506 -0.3584  1.0898 -0.6313
 1380SOL     OW 4287   1.823   1.300   1.921 -0.1100  0.7800  0.1648
 1380SOL    HW1 4288   1.748   1.323   1.866 -1.2689 -0.5116  1.1218
 1380SOL    HW2 4289   1.812   1.353   2.000 -0.1325  0.4189  0.4028
 1381SOL     OW 4290   0.091   0.834   2.587  0.2372  0.2462 -0.0251
 1381SOL    HW1 4291   0.119   0.776   2.657  1.2475  2.6712  1.7273
 1381SOL    HW2 4292   0.153   0.819   2.516 -0.5015 -1.8939 -0.2922
 1382SOL     OW 4293   2.490   1.363   1.457  0.3095  0.4963 -0.1422
 1382SOL    HW1 4294   2.415   1.407   1.417 -0.8487 -1.3550 -0.1253
 1382SOL    HW2 4295   2.452   1.309   1.526  1.3461 -2.0294 -1.4064
 1383SOL     OW 4296   1.918   3.338   0.980  0.4663 -0.2102  0.3284
 1383SOL    HW1 4297   1.986   3.403   0.998  1.8271 -0.7741 -2.2418
 1383SOL    HW2 4298   1.907   3.341   0.885 -1.5244 -1.7348  0.4495
 1384SOL     OW 4299   3.641   0.773   1.712  0.6810 -0.2732 -0.5034
 1384SOL    HW1 4300   3.672   0.684   1.698 -1.3470 -0.8664 -1.5978
 1384SOL    HW2 4301   3.602   0.772   1.799 -0.4713 -0.8335 -1.0076
 1385SOL     OW 4302   1.368   1.902   1.331 -0.5559 -0.1234 -0.0739
 1385SOL    HW1 4303   1.338   1.812   1.316  0.8915 -0.7074  0.4241
 1385SOL    HW2 4304   1.417   1.924   1.252  0.2807 -0.3043  0.3791
 1386SOL     OW 4305   0.916   1.314   1.200  0.1778 -0.3702 -0.1297
 1386SOL    HW1 4306   0.830   1.350   1.222  1.1512  0.8928  1.8711
 1386SOL    HW2 4307   0.945   1.364   1.124  0.2782  1.1357  0.8681
 1387SOL     OW 4308   2.250   0.706   2.597 -0.1061 -0.5965 -0.4584
 1387SOL    HW1 4309   2.243   0.780   2.656 -0.6045 -1.7144  0.9360
 1387SOL    HW2 4310   2.176   0.717   2.536  0.4995  0.6325 -1.0148
 1388SOL     OW 4311   1.305   2.378   2.103 -0.2279 -0.3116 -1.0336
 1388SOL    HW1 4312   1.396   2.352   2.086 -0.7505 -1.9797 -1.5094
 1388SOL    HW2 4313   1.304   2.400   2.196  0.1991 -2.6426 -0.4031
 1389SOL     OW 4314   0.224   2.838   2.341  0.0180 -0.4711  0.1925
 1389SOL    HW1 4315   0.268   2.757   2.314  0.8967 -0.4864  1.5995
 1389SOL    HW2 4316   0.218   2.890   2.261  1.0296 -1.1976 -0.3728
 1390SOL     OW 4317   0.759   3.606   2.606  0.9016 -0.5440  0.3992
 1390SOL    HW1 4318   0.754   3.665   2.681 -1.6563 -0.4186  0.2033
 1390SOL    HW2 4319   0.765   3.518   2.645  1.7490 -0.3696  0.6936
 1391SOL     OW 4320   1.693   2.314   3.566 -0.7263 -0.4498 -0.2214
 1391SOL    HW1 4321   1.773   2.311   3.618  1.7667 -0.3616 -3.7075
 1391SOL    HW2 4322   1.630   2.262   3.616  1.3403 -0.2203  2.8777
 1392SOL     OW 4323   3.093   1.250   0.363 -0.1148  0.1068  0.2620
 1392SOL    HW1 4324   3.129   1.243   0.451  1.0103 -0.2891 -0.2003
 1392SOL    HW2 4325   3.000   1.232   0.373 -0.6425  3.0668  1.8192
 1393SOL     OW 4326   2.718   2.727   1.464  0.3972  0.2078 -0.0447
 1393SOL    HW1 4327   2.704   2.726   1.559  1.0828  0.4432  0.0662
 1393SOL    HW2 4328   2.707   2.636   1.438 -1.2074  0.3548  0.0319
 1394SOL     OW 4329   3.359   2.141   2.939  0.5793 -0.5530 -0.1533
 1394SOL    HW1 4330   3.361   2.237   2.942  0.5118 -0.4958 -1.4436
 1394SOL    HW2 4331   3.424   2.118   2.873  1.8975 -1.5018  1.3921
 1395SOL     OW 4332   1.789   0.151   1.183 -0.0211  0.0282 -0.5558
 1395SOL    HW1 4333   1.699   0.119   1.182  0.7209 -2.2339 -1.6353
 1395SOL    HW2 4334   1.790   0.220   1.116 -0.9716  0.2140 -0.4026
 1396SOL     OW 4335   2.915   0.842   0.614 -0.6560 -0.3113 -0.1747
 1396SOL    HW1 4336   2.934   0.818   0.705 -1.9500  0.8125  0.4421
 1396SOL    HW2 4337   2.994   0.885   0.583 -0.0713 -1.0243  0.2895
 1397SOL     OW 4338   1.206   1.381   0.173  0.8944 -0.2021  0.0690
 1397SOL    HW1 4339   1.160   1.400   0.091  0.6780  0.5305  0.3624
 1397SOL    HW2 4340   1.286   1.336   0.145  0.9417  0.2646 -0.5600
 1398SOL     OW 4341   3.548   1.979   2.700 -0.2755  0.1679 -0.4356
 1398SOL    HW1 4342   3.624   2.037   2.697  0.4757 -0.7825 -0.3484
 1398SOL    HW2 4343   3.566   1.919   2.772 -0.8224 -0.4625 -0.8036
 1399SOL     OW 4344   3.717   2.552   2.559  0.2262  0.1472 -0.0117
 1399SOL    HW1 4345   3.729   2.588   2.646  0.7614 -0.1374  0.0361
 1399SOL    HW2 4346   3.689   2.627   2.506  1.3779  0.6571  0.0751
 1400SOL     OW 4347   2.666   1.553   0.360 -0.0966 -1.0846  1.0656
 1400SOL    HW1 4348   2.714   1.482   0.318  0.9541 -1.4966  2.8241
 1400SOL    HW2 4349   2.588   1.511   0.398 -1.3998 -0.5953 -0.9337
 1401SOL     OW 4350   3.617   0.762   3.591 -0.0035  0.2897 -0.2496
 1401SOL    HW1 4351   3.611   0.856   3.572  1.1816  0.3187 -0.5387
 1401SOL    HW2 4352   3.552   0.722   3.533 -2.2544  1.0845  1.5169
 1402SOL     OW 4353   2.735   0.570   1.239 -0.3931 -0.5334 -0.6192
 1402SOL    HW1 4354   2.640   0.570   1.251 -0.1082  1.9403  3.3956
 1402SOL    HW2 4355   2.768   0.509   1.305  0.8325  2.0758  1.3881
 1403SOL     OW 4356   0.856   0.263   2.999 -0.1989 -0.4768  0.0135
 1403SOL    HW1 4357   0.898   0.346   3.022 -0.5103  0.0108 -1.1013
 1403SOL    HW2 4358   0.766   0.272   3.032 -0.3655 -0.1774 -0.5154
 1404SOL     OW 4359   1.472   2.234   3.696  1.2058  0.1123 -0.2636
 1404SOL    HW1 4360   1.484   2.148   3.735  0.9184  0.2017  0.0267
 1404SOL    HW2 4361   1.384   2.230   3.657  1.1958  0.2720 -0.2577
 1405SOL     OW 4362   2.814   0.206   1.477  0.0862  0.4286 -0.1619
 1405SOL    HW1 4363   2.838   0.194   1.569 -1.7401  0.6436  0.3889
 1405SOL    HW2 4364   2.780   0.295   1.473 -3.2410 -0.7015 -0.1622
 1406SOL     OW 4365   3.381   1.828   1.941  0.6324  0.4581 -1.0389
 1406SOL    HW1 4366   3.330   1.909   1.938  0.0345  0.0650 -2.2450
 1406SOL    HW2 4367   3.315   1.758   1.939  0.9925 -0.1530  2.5348
 1407SOL     OW 4368   0.387   2.454   0.896 -0.2234 -0.8011  0.1197
 1407SOL    HW1 4369   0.340   2.420   0.820 -1.1249  0.0292  0.2818
 1407SOL    HW2 4370   0.319   2.471   0.961  0.0252  2.1558 -0.2773
 1408SOL     OW 4371   2.516   0.703   2.531  0.3659  0.0201  0.2564
 1408SOL    HW1 4372   2.544   0.794   2.516 -0.3694  0.0213 -1.3264
 1408SOL    HW2 4373   2.424   0.711   2.556 -0.0454 -0.3395 -1.0935
 1409SOL     OW 4374   3.669   2.707   2.788  0.9989 -0.2757 -0.1242
 1409SOL    HW1 4375   3.717   2.638   2.833  0.6869  0.2772  1.0954
 1409SOL    HW2 4376   3.727   2.783   2.793  0.3719  0.1626  0.5905
 1410SOL     OW 4377   0.832   3.465   2.851  0.1272 -0.2540 -0.8682
 1410SOL    HW1 4378   0.923   3.437   2.841  0.3395  0.0998 -0.0386
 1410SOL    HW2 4379   0.838   3.553   2.887 -0.5167 -1.2182  1.8150
 1411SOL     OW 4380   2.742   3.683   3.062 -0.5934  0.1612  0.2116
 1411SOL    HW1 4381   2.817   3.643   3.106 -0.2510 -0.5221 -0.9549
 1411SOL    HW2 4382   2.774   3.768   3.033 -1.1429  1.0922  2.1669
 1412SOL     OW 4383   1.344   3.057   2.401  0.4437 -0.3919  0.6134
 1412SOL    HW1 4384   1.334   2.969   2.438  0.9200 -0.5925  0.2801
 1412SOL    HW2 4385   1.262   3.102   2.423 -0.5105 -1.4370 -0.6233
 1413SOL     OW 4386   3.091   3.575   3.599  0.7647  0.4808 -0.0360
 1413SOL    HW1 4387   3.129   3.650   3.643  0.9682  0.4192 -0.1033
 1413SOL    HW2 4388   3.132   3.499   3.641  3.6403  0.4007 -2.5443
 1414SOL     OW 4389   1.420   2.143   0.786  0.1775 -0.1382 -0.8536
 1414SOL    HW1 4390   1.473   2.070   0.754  1.5331  0.3177  0.2353
 1414SOL    HW2 4391   1.462   2.221   0.748 -0.8818  0.1365 -1.5079
 1415SOL     OW 4392   3.221   3.384   0.643 -0.0288 -0.0803  0.2961
 1415SOL    HW1 4393   3.128   3.408   0.636  0.2136  1.4829  1.8464
 1415SOL    HW2 4394   3.228   3.339   0.727  0.4555 -1.1023 -0.2782
 1416SOL     OW 4395   3.043   2.305   0.865 -0.6183  0.5391 -0.2931
 1416SOL    HW1 4396   3.071   2.396   0.868 -0.5566  0.4945  0.6140
 1416SOL    HW2 4397   3.122   2.257   0.838 -1.0313  0.8864 -2.3216
 1417SOL     OW 4398   3.107   3.509   0.234 -0.6733 -1.1819 -0.5825
 1417SOL    HW1 4399   3.067   3.545   0.313 -1.5181 -1.2342 -0.9808
 1417SOL    HW2 4400   3.189   3.470   0.264  0.3582  1.1372 -0.1280
 1418SOL     OW 4401   2.270   3.474   0.753 -0.1116  0.4853 -0.5419
 1418SOL    HW1 4402   2.252   3.500   0.843 -0.2760 -2.1084  0.2596
 1418SOL    HW2 4403   2.362   3.494   0.739 -0.4171  2.1981 -0.3268
 1419SOL     OW 4404   0.359   1.311   2.229  0.1454 -0.4458  0.3891
 1419SOL    HW1 4405   0.393   1.385   2.179 -0.2107  0.5321  1.5361
 1419SOL    HW2 4406   0.437   1.263   2.256  0.7705  1.6913  2.8681
 1420SOL     OW 4407   0.372   0.497   2.149 -0.9392  0.0413  0.6024
 1420SOL    HW1 4408   0.292   0.539   2.116 -1.5851 -1.6439 -0.1136
 1420SOL    HW2 4409   0.344   0.454   2.230 -0.2369  1.1430  1.4438
 1421SOL     OW 4410   2.428   0.095   1.932 -0.1209  0.6186  0.0694
 1421SOL    HW1 4411   2.336   0.121   1.929 -0.2384  0.4072  1.2365
 1421SOL    HW2 4412   2.446   0.084   2.026  1.4122  1.7789 -0.0517
 1422SOL     OW 4413   3.393   3.567   2.626 -0.3347  0.9684  0.7171
 1422SOL    HW1 4414   3.404   3.661   2.637 -1.1643  0.9792  1.6475
 1422SOL    HW2 4415   3.304   3.549   2.657  0.2192 -0.2859  1.6811
 1423SOL     OW 4416   3.562   0.333   0.988 -0.5508 -0.1953 -0.1783
 1423SOL    HW1 4417   3.587   0.355   0.898  1.0845 -0.7213  0.1140
 1423SOL    HW2 4418   3.604   0.400   1.042 -1.5437  0.1322  0.2032
 1424SOL     OW 4419   1.173   2.842   0.372 -0.0362  0.2325 -0.6531
 1424SOL    HW1 4420   1.108   2.897   0.416  1.3968  0.5891  1.1463
 1424SOL    HW2 4421   1.165   2.757   0.416  0.2384  0.0773 -0.9047
 1425SOL     OW 4422   2.628   3.679   3.331 -0.1143 -0.5882  0.6649
 1425SOL    HW1 4423   2.566   3.747   3.355  0.2797 -0.3348  0.9740
 1425SOL    HW2 4424   2.656   3.702   3.242  1.9081  1.1003  1.6514
 1426SOL     OW 4425   1.791   0.371   3.453 -0.1320  0.4304  0.2972
 1426SOL    HW1 4426   1.731   0.331   3.517  0.2287 -0.8204 -0.1306
 1426SOL    HW2 4427   1.747   0.359   3.369  0.7727 -0.6594 -0.0437
 1427SOL     OW 4428   1.498   0.493   2.269  0.5735  0.2054  0.8632
 1427SOL    HW1 4429   1.501   0.473   2.363 -4.1791 -2.2230  0.7980
 1427SOL    HW2 4430   1.420   0.548   2.259  0.0571 -0.8562 -1.7671
 1428SOL     OW 4431   3.351   2.910   1.225  0.1766  0.0724  0.0659
 1428SOL    HW1 4432   3.320   2.999   1.209  1.0744  0.5257  0.7248
 1428SOL    HW2 4433   3.336   2.896   1.318  0.1635 -0.4073 -0.0107
 1429SOL     OW 4434   0.683   2.368   0.613 -0.4461  0.7559  0.7732
 1429SOL    HW1 4435   0.773   2.392   0.593 -0.6307  0.7511 -0.1305
 1429SOL    HW2 4436   0.642   2.450   0.641 -0.3297  0.9091  0.5086
 1430SOL     OW 4437   0.879   3.342   3.686  0.3115 -0.9856  0.0562
 1430SOL    HW1 4438   0.947   3.368   3.623 -0.7210  3.4567  0.4538
 1430SOL    HW2 4439   0.797   3.352   3.639 -0.4042  1.2062  1.5937
 1431SOL     OW 4440   1.699   2.889   3.332  0.1706 -0.4150  0.2006
 1431SOL    HW1 4441   1.615   2.879   3.377  1.1935  1.5739  2.8061
 1431SOL    HW2 4442   1.757   2.826   3.375  0.5014 -0.4080 -0.2311
 1432SOL     OW 4443   3.227   0.071   2.882 -0.1244 -0.0358 -0.5340
 1432SOL    HW1 4444   3.266   0.067   2.969  1.6342 -0.4777 -1.3036
 1432SOL    HW2 4445   3.143   0.027   2.891 -1.3958  2.5905  1.6106
 1433SOL     OW 4446   2.087   0.766   2.378 -0.0731 -0.0070  0.4098
 1433SOL    HW1 4447   2.179   0.765   2.355  0.2080 -1.3359  1.4423
 1433SOL    HW2 4448   2.041   0.767   2.294  0.8765  0.2963 -0.1196
 1434SOL     OW 4449   1.081   0.396   0.399  0.0181  0.0904 -0.2596
 1434SOL    HW1 4450   1.141   0.458   0.441 -0.0236 -0.4861  0.6808
 1434SOL    HW2 4451   1.136   0.319   0.380 -0.3986 -0.4100  0.5350
 1435SOL     OW 4452   2.511   1.143   0.122  0.5012 -0.1236 -0.1350
 1435SOL    HW1 4453   2.605   1.154   0.107  0.5409  0.4615  0.5049
 1435SOL    HW2 4454   2.477   1.115   0.037  1.1077  0.6383 -0.6530
 1436SOL     OW 4455   1.166   3.393   1.949 -0.4082  0.4958  0.0520
 1436SOL    HW1 4456   1.241   3.338   1.973 -1.3365 -1.0607 -0.5013
 1436SOL    HW2 4457   1.181   3.475   1.996  1.0943 -0.1649  0.7950
 1437SOL     OW 4458   3.275   2.343   1.380 -0.3475  0.1876 -0.8521
 1437SOL    HW1 4459   3.280   2.435   1.405 -0.7712  0.6076 -2.2649
 1437SOL    HW2 4460   3.365   2.311   1.390 -0.6270 -0.0126  2.2416
 1438SOL     OW 4461   0.409   3.306   3.066  0.0489  0.7125 -0.2810
 1438SOL    HW1 4462   0.411   3.309   3.162 -0.4819 -1.9383 -0.1277
 1438SOL    HW2 4463   0.353   3.232   3.045  1.9838 -0.2128 -2.6129
 1439SOL     OW 4464   3.317   1.065   2.459 -0.5876  0.3755  0.1286
 1439SOL    HW1 4465   3.368   1.132   2.505 -0.3199 -0.5521  1.2235
 1439SOL    HW2 4466   3.234   1.062   2.507 -0.5226 -0.2081  0.2128
 1440SOL     OW 4467   0.922   3.259   1.955  0.6040 -0.2271 -0.4382
 1440SOL    HW1 4468   0.943   3.233   2.045  1.5086  0.6949 -0.3616
 1440SOL    HW2 4469   0.987   3.326   1.934 -0.8719  1.1142 -1.0148
 1441SOL     OW 4470   3.082   0.331   0.310 -0.0698 -0.2387 -0.3378
 1441SOL    HW1 4471   3.013   0.394   0.290 -0.7294 -1.3058 -1.5958
 1441SOL    HW2 4472   3.038   0.264   0.362  1.2331  1.6075  3.4833
 1442SOL     OW 4473   3.551   1.542   2.693  0.4922 -0.2430 -0.3919
 1442SOL    HW1 4474   3.531   1.475   2.627  1.3690 -2.3029  1.3028
 1442SOL    HW2 4475   3.591   1.493   2.765 -1.6018  1.6731  2.2638
 1443SOL     OW 4476   0.687   2.821   3.529  0.2487 -0.3965 -0.2185
 1443SOL    HW1 4477   0.751   2.840   3.460  1.0223 -1.0492  0.2948
 1443SOL    HW2 4478   0.614   2.880   3.510  0.5601 -0.3602 -1.4216
 1444SOL     OW 4479   1.058   1.430   0.954  0.6043  0.4850  0.2024
 1444SOL    HW1 4480   1.071   1.520   0.984  1.0147  0.2534  0.7302
 1444SOL    HW2 4481   0.984   1.436   0.894 -0.2782  0.9463  1.3113
 1445SOL     OW 4482   1.318   1.665   0.256 -0.3571  0.3315 -0.2443
 1445SOL    HW1 4483   1.411   1.660   0.276 -0.5080 -0.2383  0.3274
 1445SOL    HW2 4484   1.293   1.754   0.283  0.2269  0.8389 -1.3357
 1446SOL     OW 4485   0.699   3.201   1.090 -0.3052 -0.5181 -0.1205
 1446SOL    HW1 4486   0.612   3.168   1.114 -0.3544  0.0146  0.4679
 1446SOL    HW2 4487   0.759   3.130   1.112 -0.2849  0.1281  2.1444
 1447SOL     OW 4488   0.066   1.521   1.116  0.4237  0.2296 -0.0544
 1447SOL    HW1 4489   0.091   1.460   1.185 -0.0916  0.8083  0.6592
 1447SOL    HW2 4490  -0.028   1.535   1.128 -0.4444 -2.0892 -2.8278
 1448SOL     OW 4491   1.401   0.720   2.700 -0.2684 -0.5779  0.5175
 1448SOL    HW1 4492   1.352   0.802   2.708  0.5206 -0.0882  0.4098
 1448SOL    HW2 4493   1.493   0.746   2.709  0.1657 -1.1317 -1.6248
 1449SOL     OW 4494   2.924   3.601   3.227 -0.0644 -0.0336 -0.0833
 1449SOL    HW1 4495   2.897   3.516   3.260  0.6108  0.5348  2.0598
 1449SOL    HW2 4496   3.019   3.595   3.219 -0.2324 -1.3186 -5.5666
 1450SOL     OW 4497   1.172   0.357   1.722 -0.6665  0.1619  0.5615
 1450SOL    HW1 4498   1.145   0.412   1.648  0.0237  1.0392  0.9401
 1450SOL    HW2 4499   1.097   0.301   1.739 -1.2850  0.7896 -0.0339
 1451SOL     OW 4500   0.675   3.002   1.622  0.1976  0.3679 -0.7679
 1451SOL    HW1 4501   0.710   3.080   1.665  0.1747 -0.9534  1.7659
 1451SOL    HW2 4502   0.613   2.965   1.684 -0.5710 -1.1478 -2.3361
 1452SOL     OW 4503   1.581   3.477   1.711 -0.4523 -0.0192  0.1371
 1452SOL    HW1 4504   1.523   3.402   1.720 -0.5345  0.1818  1.5975
 1452SOL    HW2 4505   1.650   3.462   1.776 -0.0055  0.7542 -0.1434
 1453SOL     OW 4506   2.526   3.379   1.008 -0.0038  0.1479 -0.4045
 1453SOL    HW1 4507   2.481   3.462   0.995 -0.6560  0.0558  1.0478
 1453SOL    HW2 4508   2.519   3.335   0.923  0.0101  1.3961 -1.0815
 1454SOL     OW 4509   0.843   1.253   3.598  0.3134  0.8481  0.0554
 1454SOL    HW1 4510   0.817   1.167   3.631 -2.3287  2.0703  1.4569
 1454SOL    HW2 4511   0.876   1.299   3.675  2.8693  0.7718 -0.9126
 1455SOL     OW 4512   0.353   0.513   3.080 -0.4303 -0.4065 -0.0701
 1455SOL    HW1 4513   0.393   0.589   3.123  1.3181 -1.3753  0.0906
 1455SOL    HW2 4514   0.412   0.492   3.008 -0.6021 -1.9456  0.2143
 1456SOL     OW 4515   2.710   3.558   0.733  0.2691 -0.4345  0.6118
 1456SOL    HW1 4516   2.625   3.591   0.702  1.5840  2.3975 -0.3545
 1456SOL    HW2 4517   2.713   3.467   0.703 -1.0405  0.3998 -2.4410
 1457SOL     OW 4518   2.125   1.771   1.213  0.4416 -0.4679 -0.4818
 1457SOL    HW1 4519   2.217   1.792   1.195  0.5572  0.7272  1.3250
 1457SOL    HW2 4520   2.105   1.817   1.294 -1.3925 -1.7685 -0.1392
 1458SOL     OW 4521   1.737   0.744   3.087  0.0316  0.1090  0.1169
 1458SOL    HW1 4522   1.688   0.813   3.132 -0.3743  0.4189 -0.7793
 1458SOL    HW2 4523   1.809   0.723   3.146 -0.4938  0.5017  0.9088
 1459SOL     OW 4524   2.229   2.801   0.997 -0.2312 -0.1915 -0.2870
 1459SOL    HW1 4525   2.213   2.738   0.927 -0.4204  0.7711 -1.1209
 1459SOL    HW2 4526   2.263   2.748   1.069 -0.3591 -1.2428 -0.9808
 1460SOL     OW 4527   2.800   0.670   0.953 -0.4886 -0.1192 -0.0954
 1460SOL    HW1 4528   2.791   0.677   1.048  0.0188 -0.6450 -0.0066
 1460SOL    HW2 4529   2.743   0.740   0.919 -1.0040 -0.1949  0.5757
 1461SOL     OW 4530   1.421   1.540   1.092 -0.5522  0.2092  0.7614
 1461SOL    HW1 4531   1.488   1.548   1.024 -0.5028  1.8777  0.9839
 1461SOL    HW2 4532   1.362   1.472   1.058  1.5748 -1.8618  0.8924
 1462SOL     OW 4533   3.116   0.432   2.778 -0.0492 -0.4367 -0.0224
 1462SOL    HW1 4534   3.064   0.374   2.722  0.9276 -0.1743 -1.2412
 1462SOL    HW2 4535   3.062   0.445   2.856 -0.3407 -2.9205  0.2785
 1463SOL     OW 4536   0.122   2.336   3.537 -0.0844  0.1063  0.4313
 1463SOL    HW1 4537   0.122   2.351   3.632 -0.1784 -0.3121  0.5027
 1463SOL    HW2 4538   0.048   2.388   3.505 -1.7158 -1.7544  0.9437
 1464SOL     OW 4539   1.217   3.159   3.609 -0.4426 -0.2977  0.2834
 1464SOL    HW1 4540   1.304   3.171   3.570 -0.1744 -0.7441  0.7330
 1464SOL    HW2 4541   1.225   3.078   3.660 -1.6161 -1.2911 -1.0416
 1465SOL     OW 4542   2.491   3.298   0.737  0.5949 -0.8125  0.7629
 1465SOL    HW1 4543   2.409   3.283   0.690 -0.4186  2.9057  1.0530
 1465SOL    HW2 4544   2.558   3.295   0.669  0.0196 -1.9022  0.2029
 1466SOL     OW 4545   0.174   0.985   0.066  0.3135 -0.1820  0.4045
 1466SOL    HW1 4546   0.215   1.069   0.088 -1.9500  0.8717  0.8401
 1466SOL    HW2 4547   0.081   1.005   0.058 -0.1919 -2.5275 -0.2667
 1467SOL     OW 4548   0.573   3.080   3.107  0.9063  0.0124  0.2992
 1467SOL    HW1 4549   0.551   3.167   3.073  1.6435 -0.0993 -0.4728
 1467SOL    HW2 4550   0.497   3.057   3.161  1.7879  2.2608  2.7460
 1468SOL     OW 4551   3.257   0.439   3.269 -0.9068 -0.0361 -0.3786
 1468SOL    HW1 4552   3.215   0.522   3.291 -1.5773 -0.6092  0.5812
 1468SOL    HW2 4553   3.301   0.455   3.186  0.9968  1.9874  0.9191
 1469SOL     OW 4554   2.353   3.686   3.627 -0.0606  0.1914  0.4932
 1469SOL    HW1 4555   2.340   3.748   3.555  0.3451  1.9109  1.8437
 1469SOL    HW2 4556   2.440   3.706   3.661 -0.2978 -0.4856  1.5451
 1470SOL     OW 4557   0.497   0.332   0.144 -0.2308  0.6578  0.0602
 1470SOL    HW1 4558   0.460   0.270   0.081  0.7925  0.8102 -0.7091
 1470SOL    HW2 4559   0.572   0.286   0.182 -1.5726  0.0449  2.1956
 1471SOL     OW 4560   2.737   3.054   0.652  0.3496 -0.0378 -0.0184
 1471SOL    HW1 4561   2.819   3.008   0.668  0.3271  0.5523  2.1881
 1471SOL    HW2 4562   2.669   2.990   0.674  0.1848 -0.4388 -1.5828
 1472SOL     OW 4563   0.650   3.729   2.834  0.0903 -0.3033  0.0258
 1472SOL    HW1 4564   0.701   3.722   2.915 -0.1612 -0.3003  0.1861
 1472SOL    HW2 4565   0.581   3.663   2.844 -0.4578  0.2829  0.1933
 1473SOL     OW 4566   1.113   1.502   3.506 -0.5868 -0.0693  0.2828
 1473SOL    HW1 4567   1.102   1.557   3.584 -0.9605 -1.0244  0.9082
 1473SOL    HW2 4568   1.033   1.515   3.456 -0.7787 -0.2258  0.5470
 1474SOL     OW 4569   0.867   1.435   1.533  0.0203  0.0469  0.1661
 1474SOL    HW1 4570   0.786   1.407   1.575 -0.7852  0.1459 -1.2606
 1474SOL    HW2 4571   0.838   1.486   1.457  1.3904 -1.1488 -1.2192
 1475SOL     OW 4572   2.687   2.872   0.942 -0.2427 -1.0378  0.4542
 1475SOL    HW1 4573   2.705   2.890   1.034 -0.2990 -0.1066  0.2951
 1475SOL    HW2 4574   2.599   2.907   0.928  0.8327  1.5032 -0.6234
 1476SOL     OW 4575   0.368   0.973   0.665  0.9255  0.0586  0.0439
 1476SOL    HW1 4576   0.289   1.006   0.624  1.3207 -0.8464 -1.5408
 1476SOL    HW2 4577   0.343   0.889   0.703  0.5304  0.9502  1.8451
 1477SOL     OW 4578   0.817   0.044   2.291  0.2502  0.1330 -0.1895
 1477SOL    HW1 4579   0.849   0.124   2.334  3.0606 -0.8208 -0.2645
 1477SOL    HW2 4580   0.860  -0.027   2.339 -0.6281 -1.2363 -1.3555
 1478SOL     OW 4581   0.370   2.257   1.702 -0.7693  0.4142 -0.0212
 1478SOL    HW1 4582   0.287   2.226   1.738 -0.8054  0.2823 -0.2173
 1478SOL    HW2 4583   0.356   2.259   1.607  0.1338 -1.7226 -0.2736
 1479SOL     OW 4584   2.261   3.196   1.183 -1.0572 -0.0391  0.2583
 1479SOL    HW1 4585   2.194   3.135   1.153 -0.5754 -1.0218  1.0945
 1479SOL    HW2 4586   2.240   3.211   1.275  0.1062 -0.7251  0.6599
 1480SOL     OW 4587   1.039   0.043   2.651 -0.2583 -0.4194  0.2558
 1480SOL    HW1 4588   0.982  -0.021   2.609 -0.0709  0.1601 -0.9269
 1480SOL    HW2 4589   0.994   0.127   2.638 -0.2053 -0.2166  1.2584
 1481SOL     OW 4590   2.200   2.357   2.926 -0.0870  0.2196 -0.0698
 1481SOL    HW1 4591   2.293   2.358   2.902 -0.1089  1.1564 -0.1290
 1481SOL    HW2 4592   2.155   2.373   2.843 -0.2234  1.7188  0.2671
 1482SOL     OW 4593   3.527   2.846   2.183  0.3549 -0.9049  0.0551
 1482SOL    HW1 4594   3.583   2.824   2.257 -1.3561 -2.3259  1.0234
 1482SOL    HW2 4595   3.488   2.930   2.206  1.2873 -0.4086 -0.1508
 1483SOL     OW 4596   1.117   2.553   0.382 -0.1230 -0.0560 -0.3268
 1483SOL    HW1 4597   1.161   2.504   0.312  0.2913  0.2357 -0.2754
 1483SOL    HW2 4598   1.060   2.489   0.424  0.3826 -0.4837 -0.2853
 1484SOL     OW 4599   1.408   0.558   3.468  0.0844 -0.0700  0.1446
 1484SOL    HW1 4600   1.402   0.466   3.492 -1.7600 -0.3971 -1.2979
 1484SOL    HW2 4601   1.467   0.559   3.392 -1.0249 -0.3019 -0.7449
 1485SOL     OW 4602   1.368   2.527   2.377  0.4509  0.3655  0.0527
 1485SOL    HW1 4603   1.309   2.560   2.445  0.3467  0.0456  0.1236
 1485SOL    HW2 4604   1.415   2.455   2.420 -0.9334 -1.0652 -0.7402
 1486SOL     OW 4605   1.474   1.969   0.064  0.3467 -0.8660 -0.2611
 1486SOL    HW1 4606   1.382   1.950   0.044  0.3336 -1.3286  0.2050
 1486SOL    HW2 4607   1.498   1.903   0.129  0.6114  0.1071  0.6582
 1487SOL     OW 4608   2.992   1.754   3.493 -0.0065  0.7211  0.2586
 1487SOL    HW1 4609   2.902   1.780   3.514 -0.4223  0.4805 -1.1468
 1487SOL    HW2 4610   3.001   1.770   3.400  0.7564 -1.1682 -0.0411
 1488SOL     OW 4611   1.289   1.224   3.155 -0.5098 -0.6084  0.3367
 1488SOL    HW1 4612   1.200   1.256   3.170 -0.5403 -1.4269  2.1872
 1488SOL    HW2 4613   1.345   1.299   3.173 -0.7989 -0.0879 -0.8382
 1489SOL     OW 4614   1.522   0.161   1.245 -0.1707  0.0125  0.0725
 1489SOL    HW1 4615   1.496   0.232   1.187  1.1426  0.6122  0.1709
 1489SOL    HW2 4616   1.470   0.176   1.325 -0.4214  0.4479 -0.1657
 1490SOL     OW 4617   1.660   3.485   1.192 -0.1259  0.5918  0.3326
 1490SOL    HW1 4618   1.730   3.419   1.191 -0.8230 -0.1693 -0.4499
 1490SOL    HW2 4619   1.641   3.499   1.285 -0.3686 -0.7813  0.5161
 1491SOL     OW 4620   3.238   2.209   3.451  0.0918 -0.4033  0.4177
 1491SOL    HW1 4621   3.261   2.259   3.530  2.4811 -0.8016  0.0550
 1491SOL    HW2 4622   3.241   2.118   3.479 -1.6546 -0.4868  0.4421
 1492SOL     OW 4623   1.453   3.147   2.640  0.1559  0.4295  0.4027
 1492SOL    HW1 4624   1.437   3.111   2.552 -0.5603  0.3304  0.5655
 1492SOL    HW2 4625   1.438   3.073   2.699 -2.8727  1.2839  0.8650
 1493SOL     OW 4626   1.394   3.523   0.334 -0.4307 -0.4534 -0.3513
 1493SOL    HW1 4627   1.425   3.441   0.373  1.6154 -0.4877 -1.8782
 1493SOL    HW2 4628   1.441   3.591   0.381  1.6335 -0.4679 -2.2496
 1494SOL     OW 4629   1.796   2.748   3.002 -0.0448 -0.8176 -0.0963
 1494SOL    HW1 4630   1.875   2.711   2.962 -0.0061 -0.6471 -0.1795
 1494SOL    HW2 4631   1.806   2.731   3.096  0.3309 -0.3431 -0.0500
 1495SOL     OW 4632   3.482   3.325   3.366 -0.2377  0.0424  0.0893
 1495SOL    HW1 4633   3.403   3.307   3.416 -1.0766 -2.6033 -1.9137
 1495SOL    HW2 4634   3.473   3.271   3.287  3.4223 -0.1436 -0.3835
 1496SOL     OW 4635   3.222   2.628   1.366  0.6112 -0.1080  0.4094
 1496SOL    HW1 4636   3.207   2.616   1.273  2.2571 -0.5130  0.1582
 1496SOL    HW2 4637   3.314   2.653   1.373  0.5079 -0.0049  1.9193
 1497SOL     OW 4638   0.051   1.456   1.917  0.0136  0.5488 -0.2858
 1497SOL    HW1 4639   0.052   1.524   1.984  0.7572  1.1944 -0.9302
 1497SOL    HW2 4640   0.067   1.375   1.965 -0.3710  0.8875  0.4270
 1498SOL     OW 4641   2.153   0.500   3.255  0.3242 -0.9064 -0.4040
 1498SOL    HW1 4642   2.125   0.459   3.336  0.7830  1.0187  0.8016
 1498SOL    HW2 4643   2.239   0.537   3.275  0.5335 -0.5540 -1.8214
 1499SOL     OW 4644   2.426   2.181   0.847 -0.4590  0.1193 -0.4406
 1499SOL    HW1 4645   2.394   2.097   0.879 -1.5228  0.7150  0.1399
 1499SOL    HW2 4646   2.441   2.233   0.926  1.1691  0.1635 -0.7389
 1500SOL     OW 4647   0.698   1.513   0.413  0.0780 -0.2787  0.0218
 1500SOL    HW1 4648   0.782   1.477   0.442  0.1392  0.0564  0.2701
 1500SOL    HW2 4649   0.689   1.595   0.462  0.8507  1.0296 -1.8910
 1501SOL     OW 4650   3.567   2.172   2.068  0.4094  0.3343  0.4056
 1501SOL    HW1 4651   3.650   2.176   2.116  0.2323  0.4210  0.7148
 1501SOL    HW2 4652   3.508   2.227   2.120  0.5484  1.4614 -0.5952
 1502SOL     OW 4653   1.118   2.064   0.598  0.5043  0.0307  0.4846
 1502SOL    HW1 4654   1.144   2.117   0.674 -0.0402 -0.8233  1.2963
 1502SOL    HW2 4655   1.195   2.063   0.542 -0.0320  3.2474 -0.5123
 1503SOL     OW 4656   0.263   2.980   0.860  0.2672  0.3854 -0.4050
 1503SOL    HW1 4657   0.274   2.915   0.929 -0.8166 -0.9542 -1.4454
 1503SOL    HW2 4658   0.227   3.056   0.905 -1.9644 -1.0129  0.3049
 1504SOL     OW 4659   1.979   1.196   1.350 -0.6031 -0.0867 -0.5429
 1504SOL    HW1 4660   1.979   1.170   1.258 -2.4764  0.5287 -0.7493
 1504SOL    HW2 4661   2.040   1.271   1.353  0.9342 -1.2720 -0.8718
 1505SOL     OW 4662   2.318   0.716   1.499 -1.2555  0.1412  0.2350
 1505SOL    HW1 4663   2.246   0.745   1.442 -1.3561 -1.2548 -0.3748
 1505SOL    HW2 4664   2.321   0.783   1.568  0.0027  2.9000 -2.2701
 1506SOL     OW 4665   2.815   1.835   3.156 -0.3014  0.1701  0.0100
 1506SOL    HW1 4666   2.902   1.834   3.195 -1.3149  3.1297  2.7772
 1506SOL    HW2 4667   2.820   1.901   3.087  0.2155 -1.5125 -1.6323
 1507SOL     OW 4668   0.432   0.303   1.358  0.0572  0.2258 -0.2675
 1507SOL    HW1 4669   0.357   0.246   1.375 -1.1821  0.8903 -2.9232
 1507SOL    HW2 4670   0.471   0.318   1.444 -0.9251 -2.7090  0.8158
 1508SOL     OW 4671   0.704   2.681   0.880  0.1574  0.8872 -0.1370
 1508SOL    HW1 4672   0.739   2.625   0.949  0.5264 -0.0979 -1.0941
 1508SOL    HW2 4673   0.641   2.738   0.925 -0.5611 -0.5816  0.7831
 1509SOL     OW 4674   2.660   2.303   0.262 -0.4880  0.5187 -0.1677
 1509SOL    HW1 4675   2.750   2.269   0.267 -0.2323  1.3566  1.3909
 1509SOL    HW2 4676   2.653   2.340   0.174  1.0060  1.2927  0.0212
 1510SOL     OW 4677   0.281   1.678   0.337 -0.2961  0.0326  0.5205
 1510SOL    HW1 4678   0.196   1.694   0.296  0.4059 -0.2511 -1.0799
 1510SOL    HW2 4679   0.343   1.731   0.287  0.4088  0.7637  2.0804
 1511SOL     OW 4680   1.680   3.176   2.018  0.3781 -0.6180 -0.3259
 1511SOL    HW1 4681   1.651   3.128   2.095 -0.2317  0.3844  0.0887
 1511SOL    HW2 4682   1.766   3.210   2.043  0.7847 -1.4231 -0.5992
 1512SOL     OW 4683   1.112   3.597   1.327  0.1393  0.7947 -0.3327
 1512SOL    HW1 4684   1.054   3.672   1.311 -0.8771 -0.3973 -2.8877
 1512SOL    HW2 4685   1.179   3.630   1.386 -2.0932  2.7700  1.2630
 1513SOL     OW 4686   1.091   3.456   2.901  0.2299  0.7330  0.4765
 1513SOL    HW1 4687   1.150   3.397   2.948 -1.2743  0.5788  2.2706
 1513SOL    HW2 4688   1.120   3.544   2.926  0.3973  0.6807  0.4659
 1514SOL     OW 4689   0.696   0.096   1.826  0.4322  0.0754 -0.0079
 1514SOL    HW1 4690   0.607   0.077   1.856  0.4334  1.0458  0.6596
 1514SOL    HW2 4691   0.735   0.010   1.811 -0.9904 -0.3627 -1.4861
 1515SOL     OW 4692   3.267   0.839   1.300 -0.8452 -0.5173 -0.0012
 1515SOL    HW1 4693   3.210   0.772   1.263 -1.3315 -0.8952  1.3787
 1515SOL    HW2 4694   3.286   0.808   1.388 -3.4826  2.4573  1.8435
 1516SOL     OW 4695   1.217   3.660   3.614  0.5745  0.4016 -0.6066
 1516SOL    HW1 4696   1.213   3.566   3.601  0.5187  0.1184  1.2223
 1516SOL    HW2 4697   1.234   3.671   3.707  1.7180  2.1882 -0.9699
 1517SOL     OW 4698   3.425   0.127   2.717  0.5813  0.4686  0.3150
 1517SOL    HW1 4699   3.476   0.206   2.734 -1.4076  1.4316  2.3310
 1517SOL    HW2 4700   3.345   0.138   2.768 -0.9948 -1.6604 -1.4666
 1518SOL     OW 4701   2.667   0.778   3.392  0.8798 -0.5505 -0.0714
 1518SOL    HW1 4702   2.687   0.749   3.303  1.4351 -0.7605  0.1171
 1518SOL    HW2 4703   2.649   0.697   3.440  2.5017 -0.6251  0.4739
 1519SOL     OW 4704   1.186   3.217   2.672  0.8799  0.3605 -0.2749
 1519SOL    HW1 4705   1.280   3.202   2.660  1.1976 -0.8823  2.8925
 1519SOL    HW2 4706   1.180   3.309   2.697  1.0424  0.8246 -1.8336
 1520SOL     OW 4707   0.083   0.961   1.092 -0.4952 -0.2831  0.0219
 1520SOL    HW1 4708   0.048   1.019   1.159  1.0573 -0.9279  1.4487
 1520SOL    HW2 4709   0.174   0.945   1.118 -0.3930 -2.0427 -1.2132
 1521SOL     OW 4710   1.133   3.479   1.682  0.4650 -0.8698  1.3117
 1521SOL    HW1 4711   1.166   3.462   1.771  0.8121 -0.2959  1.2956
 1521SOL    HW2 4712   1.199   3.439   1.625  2.4685  2.2456  1.1993
 1522SOL     OW 4713   3.324   1.072   3.557  1.0741  0.2984  0.4254
 1522SOL    HW1 4714   3.276   1.047   3.635 -1.0911 -1.6738 -1.3674
 1522SOL    HW2 4715   3.323   1.168   3.557  0.1306  0.3193  2.2079
 1523SOL     OW 4716   1.034   1.581   0.426  0.3208  0.3176 -0.3455
 1523SOL    HW1 4717   1.041   1.594   0.521 -0.1489 -0.3071 -0.2203
 1523SOL    HW2 4718   0.960   1.635   0.400  0.7845  0.9164 -0.4512
 1524SOL     OW 4719   2.762   1.582   3.298 -0.2361  0.2970  0.0970
 1524SOL    HW1 4720   2.760   1.664   3.248  0.4282  1.0116  1.1911
 1524SOL    HW2 4721   2.681   1.583   3.348  0.3210  0.8907  1.0103
 1525SOL     OW 4722   0.093   1.070   0.562  0.2715  0.1928 -0.1063
 1525SOL    HW1 4723   0.052   1.049   0.478  2.0091 -1.9035 -0.5165
 1525SOL    HW2 4724   0.020   1.077   0.623 -0.9926  1.2622 -1.6656
 1526SOL     OW 4725   0.970   3.306   2.507 -0.6414 -0.0187  0.2218
 1526SOL    HW1 4726   0.922   3.383   2.537  0.5924  0.5071  0.9192
 1526SOL    HW2 4727   1.055   3.312   2.550  0.2537 -0.6466 -1.3549
 1527SOL     OW 4728   1.121   2.398   1.804  0.6793 -0.8369  0.4154
 1527SOL    HW1 4729   1.030   2.427   1.797  0.6225 -0.7223  1.4965
 1527SOL    HW2 4730   1.115   2.302   1.807  0.7443 -0.9415 -1.3058
 1528SOL     OW 4731   1.465   1.527   1.528  0.0865 -0.2274  0.4186
 1528SOL    HW1 4732   1.452   1.621   1.521  0.7834 -0.2255 -1.6634
 1528SOL    HW2 4733   1.534   1.507   1.464 -0.4920 -2.2224  0.3247
 1529SOL     OW 4734   1.490   0.253   0.511 -0.1960 -0.1415  0.0836
 1529SOL    HW1 4735   1.429   0.306   0.563 -0.9530 -0.0218 -0.8820
 1529SOL    HW2 4736   1.574   0.263   0.554 -0.2781  1.9968 -0.1359
 1530SOL     OW 4737   0.561   1.860   1.602  0.2072  0.4431 -0.0272
 1530SOL    HW1 4738   0.529   1.848   1.692 -0.0585  1.9815  0.1070
 1530SOL    HW2 4739   0.481   1.866   1.549  0.3514  0.5161 -0.2346
 1531SOL     OW 4740   2.194   3.445   1.071  0.2227  0.2269 -0.7318
 1531SOL    HW1 4741   2.245   3.526   1.070  0.3375  0.1535 -1.5051
 1531SOL    HW2 4742   2.258   3.377   1.091 -0.0061  0.4035  0.6558
 1532SOL     OW 4743   1.912   0.901   0.115  0.1566  0.2166  0.4724
 1532SOL    HW1 4744   1.874   0.831   0.168 -1.1485  0.7295  0.2450
 1532SOL    HW2 4745   1.986   0.860   0.070  1.2966 -0.2606  2.6319
 1533SOL     OW 4746   1.114   0.856   2.237 -0.2039  0.1917  0.2155
 1533SOL    HW1 4747   1.113   0.922   2.167  1.6992 -0.4135 -0.4630
 1533SOL    HW2 4748   1.026   0.858   2.273 -1.3762  0.3026 -2.4229
 1534SOL     OW 4749   2.943   2.908   0.587 -0.2055  0.2404  0.2594
 1534SOL    HW1 4750   2.980   2.891   0.674 -0.3839  0.3102  0.3499
 1534SOL    HW2 4751   2.947   2.824   0.542  1.9496  0.6703 -0.4555
 1535SOL     OW 4752   3.451   2.804   0.997  0.4977  0.0063 -0.2366
 1535SOL    HW1 4753   3.517   2.872   1.012  0.9023 -0.3151 -0.5514
 1535SOL    HW2 4754   3.392   2.812   1.072  0.0551  1.2586 -0.7019
 1536SOL     OW 4755   2.551   3.241   2.797  0.1944  0.0986  0.2782
 1536SOL    HW1 4756   2.528   3.313   2.738  0.8405 -0.3410 -0.5432
 1536SOL    HW2 4757   2.490   3.248   2.870 -0.9146  0.4095 -0.6564
 1537SOL     OW 4758   0.536   2.583   0.702  0.3311 -0.4208  0.2073
 1537SOL    HW1 4759   0.573   2.665   0.734 -0.4964  0.2832 -0.6095
 1537SOL    HW2 4760   0.499   2.541   0.780  1.4080 -0.3833  0.7539
 1538SOL     OW 4761   3.537   2.623   1.249  0.5431  0.2482 -0.4665
 1538SOL    HW1 4762   3.533   2.707   1.202 -0.2708  0.2492 -0.4122
 1538SOL    HW2 4763   3.613   2.630   1.306  0.2047  1.1429 -0.1131
 1539SOL     OW 4764   2.468   0.506   3.175  0.9550 -0.0503 -0.0851
 1539SOL    HW1 4765   2.471   0.450   3.252  1.6257  1.2904  0.9047
 1539SOL    HW2 4766   2.385   0.484   3.132  0.1000 -0.1349  1.5512
 1540SOL     OW 4767   0.996   2.138   1.747 -0.3213  0.0826  0.0021
 1540SOL    HW1 4768   0.974   2.141   1.840  0.5709 -0.1180  0.2363
 1540SOL    HW2 4769   0.916   2.110   1.703 -0.1336 -2.1417  0.9600
 1541SOL     OW 4770   1.565   2.184   2.961 -0.1759 -0.1942  0.6626
 1541SOL    HW1 4771   1.591   2.138   3.040 -2.1232 -0.2485  1.3338
 1541SOL    HW2 4772   1.471   2.168   2.954  0.0819 -1.0188 -2.2079
 1542SOL     OW 4773   3.452   3.205   2.618  0.9251  0.1612 -0.3121
 1542SOL    HW1 4774   3.377   3.145   2.619  0.6398  0.4725  1.6383
 1542SOL    HW2 4775   3.433   3.267   2.689  1.9711  1.6117 -1.2494
 1543SOL     OW 4776   2.190   1.369   1.423 -0.3609  0.0226  0.8786
 1543SOL    HW1 4777   2.194   1.446   1.367 -0.6824  0.2974  1.2326
 1543SOL    HW2 4778   2.133   1.394   1.496 -1.0732 -0.7823  0.6285
 1544SOL     OW 4779   3.382   3.426   3.014  0.3063  0.1225  0.3440
 1544SOL    HW1 4780   3.434   3.480   2.955 -0.6620 -1.6069 -2.2792
 1544SOL    HW2 4781   3.435   3.348   3.028  0.5142  0.5041  1.8229
 1545SOL     OW 4782   2.851   0.872   1.741  0.0266  0.1317 -0.0099
 1545SOL    HW1 4783   2.812   0.811   1.680 -1.9089 -0.7386  1.9619
 1545SOL    HW2 4784   2.842   0.958   1.699 -4.1818  0.0222  0.2031
 1546SOL     OW 4785   0.004   1.209   3.701  0.0091  0.6565  0.2021
 1546SOL    HW1 4786   0.024   1.243   3.614 -1.4176 -0.1607 -0.4780
 1546SOL    HW2 4787   0.023   1.282   3.760 -1.8280  2.2933 -1.0851
 1547SOL     OW 4788   0.206   2.427   2.390 -0.4926 -0.6999 -0.2453
 1547SOL    HW1 4789   0.270   2.493   2.365  0.0843 -1.8419 -1.9617
 1547SOL    HW2 4790   0.137   2.476   2.435  0.1852  0.9737 -0.9557
 1548SOL     OW 4791   2.946   0.078   1.269 -0.1719 -0.7390 -1.1315
 1548SOL    HW1 4792   2.962   0.162   1.226 -1.4646  0.2473  0.2120
 1548SOL    HW2 4793   2.909   0.101   1.354 -0.3156 -2.6781 -0.6084
 1549SOL     OW 4794   2.252   2.752   3.294  0.0749  0.2496  0.1877
 1549SOL    HW1 4795   2.331   2.801   3.315  0.4664 -0.0456 -0.5645
 1549SOL    HW2 4796   2.282   2.680   3.240 -0.4501 -1.0213  1.5161
 1550SOL     OW 4797   3.644   0.512   2.605  0.0015 -0.0207  0.4907
 1550SOL    HW1 4798   3.637   0.513   2.509 -0.6819  0.1612  0.5408
 1550SOL    HW2 4799   3.586   0.582   2.634 -1.3151 -1.3089  1.1233
 1551SOL     OW 4800   1.714   0.029   2.916  0.4957  0.6315  0.0857
 1551SOL    HW1 4801   1.766  -0.051   2.912  0.7979  0.8617 -1.1222
 1551SOL    HW2 4802   1.769   0.095   2.874  0.4692  1.6168  1.5179
 1552SOL     OW 4803   1.945   0.453   2.317 -0.7336  0.2652 -0.2904
 1552SOL    HW1 4804   1.936   0.476   2.225 -1.5786 -0.8615 -0.4985
 1552SOL    HW2 4805   1.953   0.358   2.319  0.1592  0.3330  0.7466
 1553SOL     OW 4806   2.645   3.718   2.689  0.0301  0.0170  0.2200
 1553SOL    HW1 4807   2.682   3.640   2.730 -1.5399 -0.0256  1.6270
 1553SOL    HW2 4808   2.669   3.790   2.747  1.5213  0.6632 -1.1000
 1554SOL     OW 4809   0.219   1.572   1.543 -0.1326  0.0898 -0.2203
 1554SOL    HW1 4810   0.262   1.579   1.628 -1.0741  0.4654  0.2373
 1554SOL    HW2 4811   0.129   1.546   1.564  0.4043 -3.0365 -1.2600
 1555SOL     OW 4812   2.134   1.107   1.814 -0.0728 -0.4942  0.0919
 1555SOL    HW1 4813   2.039   1.097   1.817 -0.1444 -0.6433 -1.5374
 1555SOL    HW2 4814   2.163   1.102   1.905 -1.8019  1.3568  0.8115
 1556SOL     OW 4815   0.325   1.953   0.571 -0.4458 -0.5876 -0.1783
 1556SOL    HW1 4816   0.308   2.033   0.522 -0.1442 -1.6821 -2.1820
 1556SOL    HW2 4817   0.420   1.949   0.579 -0.2285 -1.9925 -2.4697
 1557SOL     OW 4818   2.052   1.669   1.524 -0.0388 -0.4128  0.2179
 1557SOL    HW1 4819   2.042   1.608   1.597 -1.0006 -2.4763 -1.5417
 1557SOL    HW2 4820   1.992   1.741   1.544 -1.2601 -1.5743  0.8449
 1558SOL     OW 4821   2.044   2.781   0.700  0.0391  0.4057  0.1105
 1558SOL    HW1 4822   2.071   2.729   0.623 -0.5854  0.8650 -0.4243
 1558SOL    HW2 4823   1.986   2.723   0.749 -0.3400  0.4495 -0.2798
 1559SOL     OW 4824   0.895   3.000   0.738  0.0019 -0.7061  0.3082
 1559SOL    HW1 4825   0.974   3.030   0.784 -0.6916 -1.3469  1.9958
 1559SOL    HW2 4826   0.897   2.905   0.750 -0.9532 -0.7343  0.2554
 1560SOL     OW 4827   2.611   0.620   0.604 -0.0165  0.6956 -0.0054
 1560SOL    HW1 4828   2.698   0.580   0.605 -0.1713 -0.3636 -4.8836
 1560SOL    HW2 4829   2.627   0.710   0.573 -0.6144  0.4881 -0.9423
 1561SOL     OW 4830   1.194   0.010   1.594  0.7730 -0.2671  0.1212
 1561SOL    HW1 4831   1.166  -0.077   1.623 -0.6562 -0.5185 -1.8430
 1561SOL    HW2 4832   1.141   0.071   1.645 -1.4539 -0.6929 -1.5337
 1562SOL     OW 4833   2.033   1.519   0.550  0.4988  0.7338  0.2538
 1562SOL    HW1 4834   1.996   1.485   0.631  0.6609  0.8591  0.3842
 1562SOL    HW2 4835   1.967   1.579   0.516 -0.0137 -0.1121 -0.2595
 1563SOL     OW 4836   0.095   2.958   1.243 -0.1076  0.0638 -0.1398
 1563SOL    HW1 4837   0.165   2.899   1.216  0.6265  0.6214  0.5202
 1563SOL    HW2 4838   0.049   2.979   1.162  0.4287 -0.3764 -0.5633
 1564SOL     OW 4839   1.194   2.057   3.126 -0.0538  0.0723 -0.2709
 1564SOL    HW1 4840   1.225   2.064   3.036  0.3806 -1.6578 -0.2951
 1564SOL    HW2 4841   1.267   2.087   3.180  0.5380 -1.0244 -0.4390
 1565SOL     OW 4842   0.105   3.514   2.013  0.5168 -0.0658 -0.5005
 1565SOL    HW1 4843   0.071   3.450   2.076  0.9746 -0.5734 -0.7527
 1565SOL    HW2 4844   0.091   3.472   1.928 -0.1608  0.6438 -0.7418
 1566SOL     OW 4845   0.846   0.230   0.715  0.3700 -0.1573 -0.3213
 1566SOL    HW1 4846   0.795   0.239   0.635 -1.0675 -1.4271  0.4194
 1566SOL    HW2 4847   0.805   0.291   0.777 -0.1409 -1.0406  0.2202
 1567SOL     OW 4848   2.196   3.229   2.616  0.3507 -0.3091 -0.1342
 1567SOL    HW1 4849   2.290   3.212   2.616  0.6773  0.8055  3.1809
 1567SOL    HW2 4850   2.161   3.172   2.684 -0.7362  1.7493  1.1575
 1568SOL     OW 4851   0.290   2.192   0.410  0.4667  0.0039  0.2248
 1568SOL    HW1 4852   0.260   2.274   0.448 -0.3057  0.0324 -0.4248
 1568SOL    HW2 4853   0.370   2.215   0.362 -0.4821  0.6548 -1.0867
 1569SOL     OW 4854   0.896   1.090   3.173 -0.1481  0.1021  0.2152
 1569SOL    HW1 4855   0.878   1.149   3.246  0.9129  0.0047  0.5663
 1569SOL    HW2 4856   0.846   1.011   3.194  2.0671 -0.9118  2.1876
 1570SOL     OW 4857   0.932   2.977   2.234 -0.3695  0.6883 -0.4436
 1570SOL    HW1 4858   1.022   3.007   2.225 -0.6596  1.9479  0.4764
 1570SOL    HW2 4859   0.890   3.001   2.151 -0.7336  3.5232  0.4665
 1571SOL     OW 4860   0.947   0.598   0.308  0.7929 -0.1741  0.2053
 1571SOL    HW1 4861   0.854   0.574   0.303  0.6840  0.3172 -0.3023
 1571SOL    HW2 4862   0.991   0.518   0.337  0.2286 -0.4625  0.2805
 1572SOL     OW 4863   1.757   3.179   1.700  0.0050  0.4878  0.2584
 1572SOL    HW1 4864   1.829   3.240   1.710  0.4523 -0.1368  0.9898
 1572SOL    HW2 4865   1.789   3.098   1.740 -0.1615 -0.5592 -1.6121
 1573SOL     OW 4866   2.387   1.474   2.962 -0.4686  0.0450  0.2361
 1573SOL    HW1 4867   2.408   1.430   3.044  2.1621  1.7800  0.6041
 1573SOL    HW2 4868   2.365   1.403   2.901 -1.7733 -1.3191  2.1643
 1574SOL     OW 4869   0.290   2.101   0.824  0.3859  0.0355  0.1748
 1574SOL    HW1 4870   0.378   2.138   0.823 -0.5448  2.3643 -1.4202
 1574SOL    HW2 4871   0.284   2.050   0.743  0.3411 -0.3658  0.4261
 1575SOL     OW 4872   1.746   0.689   1.531  0.3991 -0.0296  0.6630
 1575SOL    HW1 4873   1.808   0.621   1.506  0.9190  0.8108 -0.4536
 1575SOL    HW2 4874   1.788   0.735   1.604  0.6334 -0.0877  0.5644
 1576SOL     OW 4875   2.122   1.032   3.105 -0.3643 -0.1287  0.8624
 1576SOL    HW1 4876   2.113   0.992   3.019 -0.4678  1.1143  0.2766
 1576SOL    HW2 4877   2.038   1.018   3.148 -0.5774 -0.0772  0.4626
 1577SOL     OW 4878   2.258   0.076   2.496  0.7581  0.6980  0.1917
 1577SOL    HW1 4879   2.351   0.098   2.501  1.0271  0.0423 -1.4558
 1577SOL    HW2 4880   2.228   0.116   2.414  0.1672 -1.0787 -0.4975
 1578SOL     OW 4881   3.193   2.943   3.347  0.3322  0.3230  0.2017
 1578SOL    HW1 4882   3.129   2.898   3.293 -0.2016 -1.0124  1.8537
 1578SOL    HW2 4883   3.141   2.980   3.419  1.2777  0.0319  1.0552
 1579SOL     OW 4884   1.673   2.963   2.502 -0.3478 -0.3217  1.5397
 1579SOL    HW1 4885   1.756   2.915   2.497 -1.5902 -2.5060 -1.0707
 1579SOL    HW2 4886   1.627   2.923   2.576  1.2685  1.7912  3.8632
 1580SOL     OW 4887   3.713   1.781   1.470 -0.6402  0.6839 -0.4743
 1580SOL    HW1 4888   3.723   1.730   1.551 -0.0056 -0.8378 -1.4776
 1580SOL    HW2 4889   3.642   1.843   1.490 -0.2843  0.5728  1.3413
 1581SOL     OW 4890   1.373   1.564   2.829  0.2151  0.0132  0.3267
 1581SOL    HW1 4891   1.454   1.527   2.865  0.0157  1.0311  1.9137
 1581SOL    HW2 4892   1.313   1.490   2.824  0.3669 -0.2312  1.8008
 1582SOL     OW 4893   3.571   3.078   1.710 -0.6905 -0.1891  0.1353
 1582SOL    HW1 4894   3.577   3.020   1.635  0.9590  0.4657 -0.3007
 1582SOL    HW2 4895   3.570   3.020   1.786  0.5078 -0.8095 -0.3018
 1583SOL     OW 4896   2.998   2.893   0.867 -0.2671 -1.0682 -0.1471
 1583SOL    HW1 4897   2.995   2.851   0.953 -1.5636 -1.4868 -0.3684
 1583SOL    HW2 4898   2.914   2.939   0.860  0.4207  0.1574 -0.6164
 1584SOL     OW 4899   0.415   3.272   0.714 -0.7217 -0.2252  0.2530
 1584SOL    HW1 4900   0.477   3.216   0.760  0.3097 -0.9670 -1.9249
 1584SOL    HW2 4901   0.411   3.352   0.767  3.6299  0.6948 -0.4849
 1585SOL     OW 4902   2.294   2.604   3.539 -0.0691 -0.2403 -0.3785
 1585SOL    HW1 4903   2.294   2.519   3.497 -2.2466 -0.7725  0.5360
 1585SOL    HW2 4904   2.244   2.660   3.480 -1.4395 -0.4804  0.5167
 1586SOL     OW 4905   3.414   2.111   3.278 -0.3009  0.0548 -0.9298
 1586SOL    HW1 4906   3.440   2.064   3.357 -0.3336 -0.6047 -1.3048
 1586SOL    HW2 4907   3.339   2.164   3.304 -0.6163 -0.5296 -0.6288
 1587SOL     OW 4908   0.175   0.637   1.063  0.5189 -0.2151  0.6632
 1587SOL    HW1 4909   0.093   0.676   1.033  2.2521  1.8847 -1.7427
 1587SOL    HW2 4910   0.162   0.624   1.157 -2.1325  1.1004  0.5665
 1588SOL     OW 4911   2.491   2.442   3.294 -0.3940  0.3966  0.4843
 1588SOL    HW1 4912   2.427   2.435   3.223 -0.2093  2.5078  0.0482
 1588SOL    HW2 4913   2.575   2.429   3.251 -0.4243 -2.1663  1.0236
 1589SOL     OW 4914   3.558   2.155   1.347  0.3868  0.3610  0.3648
 1589SOL    HW1 4915   3.620   2.088   1.317 -0.6983  0.0429 -1.3013
 1589SOL    HW2 4916   3.544   2.135   1.439 -0.0351 -1.8423 -0.1168
 1590SOL     OW 4917   3.315   2.098   2.002  0.2052 -0.6600 -0.5310
 1590SOL    HW1 4918   3.409   2.103   2.020  0.1153  0.1261 -0.2354
 1590SOL    HW2 4919   3.281   2.184   2.028 -0.6829 -1.1144 -0.1418
 1591SOL     OW 4920   3.301   0.148   3.183  0.3079  0.8557 -0.4464
 1591SOL    HW1 4921   3.342   0.087   3.245  0.9107 -0.6684 -2.2623
 1591SOL    HW2 4922   3.207   0.131   3.191  0.5072 -1.4828 -1.9439
 1592SOL     OW 4923   1.501   2.687   2.632 -0.0456  0.2111 -0.7359
 1592SOL    HW1 4924   1.546   2.619   2.581  0.2142 -0.3468  0.2090
 1592SOL    HW2 4925   1.570   2.723   2.689 -0.5260  0.1593 -0.1055
 1593SOL     OW 4926   2.940   0.835   1.144  0.2059  0.0109 -0.6671
 1593SOL    HW1 4927   3.013   0.774   1.133  0.1816 -0.7210  2.4008
 1593SOL    HW2 4928   2.916   0.828   1.236 -2.6490  1.5149 -1.1754
 1594SOL     OW 4929   1.156   0.948   0.216  0.6565  0.7186  0.3053
 1594SOL    HW1 4930   1.201   0.985   0.140  1.1270  0.7304  0.5855
 1594SOL    HW2 4931   1.079   0.905   0.180  1.6520 -0.5810 -0.3762
 1595SOL     OW 4932   2.946   1.416   3.212 -0.2238 -0.5103 -0.2485
 1595SOL    HW1 4933   2.865   1.456   3.245 -1.1852 -0.2800 -2.6320
 1595SOL    HW2 4934   2.986   1.375   3.289 -1.8719  0.5818  1.2773
 1596SOL     OW 4935   0.433   2.892   2.871  0.5145  0.4869 -0.0461
 1596SOL    HW1 4936   0.512   2.930   2.833  1.8433  0.1088  2.1590
 1596SOL    HW2 4937   0.441   2.909   2.965 -1.4854 -0.5410  0.3585
 1597SOL     OW 4938   0.539   3.380   1.465 -0.0679  0.0190 -0.0158
 1597SOL    HW1 4939   0.634   3.385   1.457  0.0125  0.5224  0.9849
 1597SOL    HW2 4940   0.524   3.310   1.530 -0.4435 -0.9051 -1.0716
 1598SOL     OW 4941   0.326   2.596   1.346 -0.0830 -0.3550  0.2082
 1598SOL    HW1 4942   0.255   2.577   1.407 -0.1707  0.1388  0.2668
 1598SOL    HW2 4943   0.290   2.571   1.260  0.2909 -1.6992  0.4247
 1599SOL     OW 4944   0.774   0.226   1.592  0.1404  0.2719  0.0198
 1599SOL    HW1 4945   0.743   0.140   1.561  1.7033  0.0929 -1.1436
 1599SOL    HW2 4946   0.694   0.269   1.624 -1.1031 -0.6791 -1.5963
 1600SOL     OW 4947   2.791   0.638   0.041 -0.0209 -0.3111  0.4075
 1600SOL    HW1 4948   2.753   0.616  -0.044  0.0750  1.2299 -0.0669
 1600SOL    HW2 4949   2.880   0.602   0.037  1.4736  3.0426 -1.8232
 1601SOL     OW 4950   0.444   3.520   2.640 -0.2255  0.1829 -0.1271
 1601SOL    HW1 4951   0.466   3.613   2.628  2.0358 -0.1822  0.5804
 1601SOL    HW2 4952   0.464   3.503   2.732 -1.2670 -0.8722 -0.0730
 1602SOL     OW 4953   2.732   3.433   2.206 -0.7987 -0.1353 -0.3585
 1602SOL    HW1 4954   2.804   3.486   2.241 -0.1772 -1.1085 -0.1311
 1602SOL    HW2 4955   2.653   3.470   2.246 -0.2489 -0.2384  0.8778
 1603SOL     OW 4956   3.227   0.808   1.843  0.2742 -0.3471 -0.1398
 1603SOL    HW1 4957   3.160   0.805   1.775 -0.2813 -0.4827  0.4136
 1603SOL    HW2 4958   3.255   0.899   1.846  0.9788 -0.5049 -1.1967
 1604SOL     OW 4959   1.329   1.766   0.889 -0.0038  0.8861 -0.6217
 1604SOL    HW1 4960   1.253   1.729   0.933 -0.5554  2.1301 -0.5065
 1604SOL    HW2 4961   1.362   1.694   0.834 -1.6363  0.5154 -1.1817
 1605SOL     OW 4962   2.256   0.908   2.820 -0.0303  0.3614 -0.0478
 1605SOL    HW1 4963   2.318   0.838   2.843  0.5488 -0.2371 -3.0428
 1605SOL    HW2 4964   2.309   0.972   2.772 -1.1537  1.3594  0.0001
 1606SOL     OW 4965   0.341   3.213   1.947  0.0427 -0.4426 -0.0454
 1606SOL    HW1 4966   0.278   3.254   1.888  0.9933  1.1534  0.0010
 1606SOL    HW2 4967   0.292   3.197   2.028 -0.7483 -0.8448 -0.5917
 1607SOL     OW 4968   1.766   1.968   1.588 -0.4102  0.2790  0.4240
 1607SOL    HW1 4969   1.683   2.010   1.611  0.5117  3.2192 -1.0439
 1607SOL    HW2 4970   1.831   2.013   1.642  0.6916  1.1499 -1.5184
 1608SOL     OW 4971   0.403   1.897   3.490 -0.4854  0.3414  0.3690
 1608SOL    HW1 4972   0.477   1.849   3.453 -0.9122  0.3047 -0.4726
 1608SOL    HW2 4973   0.440   1.946   3.563  0.4592  0.6453 -0.2922
 1609SOL     OW 4974   0.855   2.404   2.063  0.1103 -0.1737 -0.0884
 1609SOL    HW1 4975   0.927   2.392   2.126  1.5095 -0.2768 -1.6183
 1609SOL    HW2 4976   0.892   2.375   1.980 -2.2406 -1.6987 -0.6866
 1610SOL     OW 4977   1.831   2.257   1.464  0.0510 -0.0537 -0.1363
 1610SOL    HW1 4978   1.808   2.337   1.417 -1.5393 -0.6662 -0.4735
 1610SOL    HW2 4979   1.842   2.286   1.555 -1.6352  0.4108 -0.0385
 1611SOL     OW 4980   0.477   2.942   3.381  0.1369 -0.4990  0.3887
 1611SOL    HW1 4981   0.394   2.958   3.425 -1.9328  1.0975 -3.6295
 1611SOL    HW2 4982   0.456   2.883   3.309  2.0624  1.0361 -1.5891
 1612SOL     OW 4983   1.812   1.685   3.308  0.5071  0.6474  0.9549
 1612SOL    HW1 4984   1.846   1.656   3.224  1.2390  1.0179  1.1164
 1612SOL    HW2 4985   1.724   1.646   3.313  1.2232 -1.0233  0.9209
 1613SOL     OW 4986   1.877   1.862   0.681 -0.0329 -0.5780 -0.8677
 1613SOL    HW1 4987   1.960   1.885   0.639  0.6377 -2.2334 -0.5375
 1613SOL    HW2 4988   1.876   1.766   0.682 -1.6497 -0.5932 -0.2516
 1614SOL     OW 4989   1.547   0.123   0.207 -0.2503  0.1610 -0.2983
 1614SOL    HW1 4990   1.532   0.063   0.279  0.5592 -0.1940 -0.4129
 1614SOL    HW2 4991   1.515   0.208   0.239 -1.7398 -0.3765 -0.2728
 1615SOL     OW 4992   2.161   3.062   3.081  0.0888 -0.6656 -0.2888
 1615SOL    HW1 4993   2.066   3.071   3.072  0.1309 -1.2342 -1.6999
 1615SOL    HW2 4994   2.173   3.015   3.163 -0.7937  0.1736  0.3402
 1616SOL     OW 4995   0.648   0.438   3.024  0.6132  0.0701  0.1272
 1616SOL    HW1 4996   0.651   0.452   3.119  0.6331 -2.5460  0.5854
 1616SOL    HW2 4997   0.736   0.459   2.994  0.7174  0.5472  0.7265
 1617SOL     OW 4998   2.802   2.607   0.907 -0.1277 -0.1627  0.3270
 1617SOL    HW1 4999   2.890   2.612   0.869 -0.5728 -0.3318 -0.7812
 1617SOL    HW2 5000   2.793   2.687   0.959  1.0367 -0.6305  1.2713
 1618SOL     OW 5001   0.670   3.681   1.571 -0.1173  0.1794 -0.1116
 1618SOL    HW1 5002   0.738   3.644   1.628 -0.5059  0.8448  0.7982
 1618SOL    HW2 5003   0.657   3.614   1.504 -2.1903 -2.3435  2.5238
 1619SOL     OW 5004   1.422   3.207   1.978 -0.2388 -0.2014 -0.3497
 1619SOL    HW1 5005   1.448   3.196   1.887 -0.5446  1.5472 -0.6811
 1619SOL    HW2 5006   1.499   3.245   2.021 -0.9610  1.5616 -0.5266
 1620SOL     OW 5007   2.876   0.399   0.904  0.5357  0.7060 -0.8870
 1620SOL    HW1 5008   2.891   0.365   0.992  0.2853 -0.7959 -1.3902
 1620SOL    HW2 5009   2.859   0.492   0.916  0.1242  0.4460  0.6837
 1621SOL     OW 5010   0.409   2.763   3.174 -0.3309 -0.2351  0.4313
 1621SOL    HW1 5011   0.369   2.714   3.246 -2.4096  0.3391 -0.2809
 1621SOL    HW2 5012   0.408   2.702   3.100 -0.9790  0.1562  0.1082
 1622SOL     OW 5013   1.984   3.142   0.379  0.0129 -0.0481 -0.2132
 1622SOL    HW1 5014   2.030   3.135   0.463  0.4091  1.1504 -0.3200
 1622SOL    HW2 5015   2.037   3.090   0.318  0.3283 -0.0030  0.0242
 1623SOL     OW 5016   1.492   3.201   1.721 -0.7092 -0.6490 -0.3828
 1623SOL    HW1 5017   1.456   3.157   1.644 -0.9075 -0.4809 -0.3860
 1623SOL    HW2 5018   1.586   3.182   1.718 -0.5804  0.0687 -1.1371
 1624SOL     OW 5019   1.780   1.286   0.808  0.1800  0.7336  0.0822
 1624SOL    HW1 5020   1.691   1.291   0.772  0.4172  0.8992 -0.4908
 1624SOL    HW2 5021   1.775   1.215   0.872 -0.5771  1.2985  0.6858
 1625SOL     OW 5022   2.190   2.933   2.664 -0.7441  0.1639 -0.1001
 1625SOL    HW1 5023   2.257   2.920   2.731  0.2092  1.8929 -0.6339
 1625SOL    HW2 5024   2.231   2.900   2.583 -1.1895 -0.2808 -0.1477
 1626SOL     OW 5025   3.245   1.600   2.135 -0.1503 -0.1317  0.5855
 1626SOL    HW1 5026   3.231   1.507   2.156 -3.6982 -0.0964 -0.7770
 1626SOL    HW2 5027   3.269   1.599   2.042 -1.7044  0.2668  0.1374
 1627SOL     OW 5028   0.521   0.327   1.628  0.7637 -0.1436  0.0618
 1627SOL    HW1 5029   0.504   0.305   1.720  0.7750  1.5222  0.4992
 1627SOL    HW2 5030   0.489   0.417   1.619  2.2575  0.3146 -1.1176
 1628SOL     OW 5031   3.109   3.147   2.597 -0.0426  0.3199  0.0402
 1628SOL    HW1 5032   3.127   3.106   2.682 -0.5532  0.5671  0.2718
 1628SOL    HW2 5033   3.149   3.088   2.533 -0.4265 -0.3437  0.3984
 1629SOL     OW 5034   3.561   3.534   2.851 -0.4411 -0.0325  1.1584
 1629SOL    HW1 5035   3.511   3.576   2.781  0.1759  0.7772  1.1935
 1629SOL    HW2 5036   3.614   3.468   2.806  0.8329  1.2671  0.6675
 1630SOL     OW 5037   0.145   3.475   0.544 -0.1408 -0.0569 -0.0008
 1630SOL    HW1 5038   0.159   3.390   0.503  0.1645  0.4846 -1.0835
 1630SOL    HW2 5039   0.210   3.532   0.502 -0.6803  0.8188  0.3251
 1631SOL     OW 5040   0.869   0.264   2.423  0.1165 -0.4959 -1.2311
 1631SOL    HW1 5041   0.861   0.343   2.370  0.4306 -0.2307 -0.8941
 1631SOL    HW2 5042   0.842   0.292   2.511  2.4614 -0.1227 -0.5464
 1632SOL     OW 5043   2.110   3.416   3.022  0.2544  0.6590  0.0657
 1632SOL    HW1 5044   2.139   3.402   3.112  1.9364  1.0861 -0.3784
 1632SOL    HW2 5045   2.015   3.400   3.025  0.5655 -1.3909  1.4655
 1633SOL     OW 5046   1.804   0.090   0.165  0.1759  0.1234 -0.0949
 1633SOL    HW1 5047   1.708   0.096   0.168  0.1612  1.0646 -1.6733
 1633SOL    HW2 5048   1.822   0.018   0.106  0.4556 -0.2057  0.3852
 1634SOL     OW 5049   3.537   1.409   3.365 -0.3098 -0.0638 -0.1667
 1634SOL    HW1 5050   3.472   1.390   3.298  1.1698 -1.0629 -1.3906
 1634SOL    HW2 5051   3.577   1.492   3.337  0.6155 -0.7039 -0.8296
 1635SOL     OW 5052   1.021   1.049   0.464 -0.9979 -0.6703 -0.5200
 1635SOL    HW1 5053   1.074   1.022   0.389  0.2194 -1.4342  0.5839
 1635SOL    HW2 5054   0.985   0.967   0.499 -0.0809 -0.5409  0.7929
 1636SOL     OW 5055   2.862   3.633   2.377 -0.1888  0.5099 -0.1641
 1636SOL    HW1 5056   2.790   3.692   2.354  0.7081  2.2172  1.2017
 1636SOL    HW2 5057   2.938   3.690   2.386  0.5036 -0.6364  2.2578
 1637SOL     OW 5058   1.098   0.171  -0.020  0.3731  0.2343  0.6176
 1637SOL    HW1 5059   1.090   0.165   0.075  1.9947  0.7689  0.8146
 1637SOL    HW2 5060   1.143   0.091  -0.046 -0.4207 -0.1002  0.2364
 1638SOL     OW 5061   3.410   0.829   1.556 -0.3328  0.1879 -0.0750
 1638SOL    HW1 5062   3.390   0.921   1.572  0.1747  0.4027 -0.6301
 1638SOL    HW2 5063   3.493   0.814   1.600 -0.3687  0.0152 -0.0633
 1639SOL     OW 5064   1.451   2.187   0.333  0.4243 -0.5931 -0.0334
 1639SOL    HW1 5065   1.360   2.190   0.306  0.2176  0.7889  0.7247
 1639SOL    HW2 5066   1.473   2.279   0.352  1.7025 -1.0229  0.6481
 1640SOL     OW 5067   3.608   2.940   0.398 -0.0312 -0.1209 -0.2867
 1640SOL    HW1 5068   3.674   2.966   0.334  0.5780 -3.3135 -1.1765
 1640SOL    HW2 5069   3.524   2.954   0.353  0.0818  1.9959  0.0666
 1641SOL     OW 5070   1.097   2.431   2.884  0.8276 -0.1482  0.1668
 1641SOL    HW1 5071   1.171   2.378   2.855  1.6205  0.8458  0.3087
 1641SOL    HW2 5072   1.083   2.405   2.975  3.5448  2.2782  1.4695
 1642SOL     OW 5073   3.551   1.428   2.124  0.1565 -0.3333 -0.7190
 1642SOL    HW1 5074   3.523   1.484   2.196 -0.0453 -1.6994  0.3141
 1642SOL    HW2 5075   3.646   1.431   2.125  0.1415  0.3367 -0.9705
 1643SOL     OW 5076   0.655   3.249   2.141 -0.3433  0.0513  0.2659
 1643SOL    HW1 5077   0.746   3.273   2.159 -0.1562 -0.1898 -0.3417
 1643SOL    HW2 5078   0.660   3.158   2.112 -0.8195 -0.0663  0.5433
 1644SOL     OW 5079   0.908   3.053   1.196  0.5828 -0.2852  0.4020
 1644SOL    HW1 5080   0.893   2.959   1.209 -1.4826 -0.2255 -0.9874
 1644SOL    HW2 5081   0.910   3.090   1.284  0.9420 -1.5571  0.9518
 1645SOL     OW 5082   2.349   1.014   0.329 -0.1989 -0.9509  0.0696
 1645SOL    HW1 5083   2.380   0.929   0.358 -1.2949 -2.1227 -1.9745
 1645SOL    HW2 5084   2.422   1.051   0.278  0.0406 -0.9498  0.4141
 1646SOL     OW 5085   2.117   3.047   1.532 -0.0961  0.0168  0.0087
 1646SOL    HW1 5086   2.173   3.013   1.601 -2.0936 -3.0210  0.3331
 1646SOL    HW2 5087   2.113   2.976   1.467 -2.1085  0.8039 -0.8152
 1647SOL     OW 5088   3.102   1.156   2.608  0.2265 -0.1013  0.0814
 1647SOL    HW1 5089   3.148   1.240   2.608 -0.1438  0.1187 -1.0379
 1647SOL    HW2 5090   3.113   1.123   2.697  1.2233  0.6664  0.2640
 1648SOL     OW 5091   0.191   2.053   2.898 -0.3031  0.1370  0.0558
 1648SOL    HW1 5092   0.105   2.011   2.899 -0.3271  0.1949  1.0342
 1648SOL    HW2 5093   0.173   2.146   2.911 -0.0123 -0.0488  2.0944
 1649SOL     OW 5094   1.089   1.611   0.039 -0.0627 -0.2055 -0.1994
 1649SOL    HW1 5095   1.009   1.625   0.090 -0.8325  2.0430 -1.8554
 1649SOL    HW2 5096   1.155   1.663   0.083  0.3912 -1.5449  0.7882
 1650SOL     OW 5097   0.306   1.201   0.155 -0.1873  0.2934  0.4230
 1650SOL    HW1 5098   0.394   1.176   0.184 -0.8838 -3.7495 -0.3953
 1650SOL    HW2 5099   0.317   1.290   0.122  3.5779  0.0364  0.4738
 1651SOL     OW 5100   0.590   1.257   2.386  0.1578 -0.1245 -0.3183
 1651SOL    HW1 5101   0.602   1.198   2.312 -3.6048 -1.7466  0.1474
 1651SOL    HW2 5102   0.647   1.221   2.454  0.0371 -1.5464 -0.9288
 1652SOL     OW 5103   1.085   3.342   1.257 -0.4050  0.1364  0.6797
 1652SOL    HW1 5104   1.099   3.432   1.286  0.9089 -0.3440  1.6371
 1652SOL    HW2 5105   1.094   3.289   1.336 -1.5722 -0.8158  0.2108
 1653SOL     OW 5106   3.664   2.806   2.411 -0.6168 -0.0178 -0.5864
 1653SOL    HW1 5107   3.643   2.869   2.480 -0.6752 -1.3556  0.6544
 1653SOL    HW2 5108   3.756   2.824   2.390 -0.8314  0.9291 -0.7375
 1654SOL     OW 5109   1.275   1.297   0.505 -0.0148  0.2179  0.0311
 1654SOL    HW1 5110   1.267   1.290   0.600 -0.5696 -0.8094 -0.0718
 1654SOL    HW2 5111   1.247   1.211   0.473  1.4409  0.1078 -0.9974
 1655SOL     OW 5112   2.862   1.161   2.762  0.0049 -0.0468 -0.2674
 1655SOL    HW1 5113   2.879   1.170   2.856 -0.7553 -0.9524 -0.0253
 1655SOL    HW2 5114   2.867   1.250   2.728 -1.6938  0.5721  0.9802
 1656SOL     OW 5115   1.263   3.645   2.051 -0.5309 -0.4800  0.0922
 1656SOL    HW1 5116   1.315   3.657   2.131 -0.2185  0.6930 -0.2557
 1656SOL    HW2 5117   1.328   3.646   1.980 -0.9828  1.0723 -0.3547
 1657SOL     OW 5118   2.961   3.526   1.689 -0.0900  0.7927 -0.8142
 1657SOL    HW1 5119   3.025   3.552   1.623 -0.2770  0.3614 -1.1686
 1657SOL    HW2 5120   3.014   3.496   1.763  0.1310  2.3542 -0.3138
 1658SOL     OW 5121   0.020   2.668   1.412 -0.8316 -0.3420  0.1663
 1658SOL    HW1 5122  -0.010   2.580   1.432 -0.9745 -0.3132  0.0828
 1658SOL    HW2 5123   0.045   2.705   1.497 -0.8701 -0.4261  0.2143
 1659SOL     OW 5124   1.269   1.276   1.100 -0.1682  0.0192 -0.0585
 1659SOL    HW1 5125   1.259   1.181   1.102  1.1028 -0.2173 -2.0068
 1659SOL    HW2 5126   1.195   1.307   1.048 -0.7233  0.1401  0.7887
 1660SOL     OW 5127   1.767   3.546   0.621 -0.1730 -0.7992 -0.1179
 1660SOL    HW1 5128   1.710   3.600   0.675  0.5291  0.1818 -0.3446
 1660SOL    HW2 5129   1.774   3.463   0.668 -0.2483 -0.2544  0.8652
 1661SOL     OW 5130   1.212   0.932   0.791 -0.0109 -0.3279 -0.1996
 1661SOL    HW1 5131   1.189   0.839   0.791 -0.6778 -0.2260  2.0798
 1661SOL    HW2 5132   1.155   0.970   0.724 -2.6191 -1.0106  1.4612
 1662SOL     OW 5133   3.103   0.862   2.702  0.2324 -0.4342  0.7568
 1662SOL    HW1 5134   3.069   0.818   2.780  0.6884 -1.3536  0.4543
 1662SOL    HW2 5135   3.169   0.801   2.667 -1.7615 -1.2884 -1.8195
 1663SOL     OW 5136   0.296   2.455   2.071 -0.0399 -0.0618  1.1695
 1663SOL    HW1 5137   0.299   2.360   2.083  0.8778 -0.0908  0.7774
 1663SOL    HW2 5138   0.208   2.480   2.102 -0.6557 -1.1530  0.3738
 1664SOL     OW 5139   0.896   1.094   1.580  0.7868 -0.0626 -0.3658
 1664SOL    HW1 5140   0.840   1.158   1.536  1.3037  0.2253 -0.6104
 1664SOL    HW2 5141   0.969   1.145   1.615 -0.0320 -0.1484  1.5711
 1665SOL     OW 5142   1.871   3.541   1.765  0.3050 -0.1347 -0.2348
 1665SOL    HW1 5143   1.927   3.483   1.714  1.9125  1.1148  0.0350
 1665SOL    HW2 5144   1.836   3.604   1.701  1.2698  0.6260 -0.0416
 1666SOL     OW 5145   3.631   1.262   0.351  1.2617 -0.0167  0.1134
 1666SOL    HW1 5146   3.654   1.328   0.286  2.1901  0.0311  0.4706
 1666SOL    HW2 5147   3.586   1.310   0.420  0.8682  0.0414 -0.1831
 1667SOL     OW 5148   1.212   3.324   1.014 -0.1389 -0.4672 -0.4955
 1667SOL    HW1 5149   1.171   3.320   1.100  0.7652 -0.3702 -0.0514
 1667SOL    HW2 5150   1.299   3.287   1.027  1.3213  2.6420 -0.5427
 1668SOL     OW 5151   3.689   2.785   3.697 -0.1919  0.3329 -0.1828
 1668SOL    HW1 5152   3.632   2.860   3.681 -0.0379  0.7589  1.0824
 1668SOL    HW2 5153   3.763   2.822   3.745 -0.4941 -0.7289  1.1784
 1669SOL     OW 5154   1.246   0.986   1.047 -0.5368 -0.0933 -0.2535
 1669SOL    HW1 5155   1.193   0.917   1.086 -2.0872  0.5680 -1.1040
 1669SOL    HW2 5156   1.229   0.980   0.953  0.8657  0.1802 -0.5423
 1670SOL     OW 5157   0.204   1.270   1.706  0.1349  0.7587 -0.1664
 1670SOL    HW1 5158   0.201   1.337   1.774  0.8018  1.1733 -0.5250
 1670SOL    HW2 5159   0.154   1.197   1.741  1.7209  0.3600  1.4161
 1671SOL     OW 5160   2.878   0.226   2.416  0.1751  0.0553  0.3717
 1671SOL    HW1 5161   2.963   0.267   2.399  0.0529 -0.3574 -1.5303
 1671SOL    HW2 5162   2.824   0.250   2.340 -1.5222  0.5247  1.6498
 1672SOL     OW 5163   0.182   1.837   2.686 -0.6591  0.4772 -0.2222
 1672SOL    HW1 5164   0.270   1.804   2.670 -0.9014 -0.0830 -0.4404
 1672SOL    HW2 5165   0.132   1.813   2.607 -2.0155 -2.8345  1.4448
 1673SOL     OW 5166   1.198   3.080   0.787  0.4964 -0.7603 -0.3416
 1673SOL    HW1 5167   1.167   3.038   0.867  4.0302  0.8372  2.1268
 1673SOL    HW2 5168   1.190   3.174   0.804  4.6598 -0.2681 -0.1447
 1674SOL     OW 5169   1.016   2.169   1.995 -0.2562 -0.2246  0.2742
 1674SOL    HW1 5170   1.000   2.125   2.079  1.4767 -2.9746 -0.6707
 1674SOL    HW2 5171   1.111   2.161   1.982 -0.2203  1.8180 -1.1119
 1675SOL     OW 5172   3.613   0.991   2.474  0.3279 -0.2976  0.1363
 1675SOL    HW1 5173   3.540   0.930   2.470 -0.4959  0.5498  1.3437
 1675SOL    HW2 5174   3.679   0.947   2.527  1.0574 -1.3957 -1.6282
 1676SOL     OW 5175   0.878   0.232   1.984 -0.1789 -0.3100 -0.2834
 1676SOL    HW1 5176   0.865   0.311   1.931  0.9545 -0.6397 -1.0645
 1676SOL    HW2 5177   0.814   0.169   1.949 -1.3522  0.3438  0.5890
 1677SOL     OW 5178   0.732   3.248   3.233 -0.0754  0.3128  0.4324
 1677SOL    HW1 5179   0.713   3.154   3.226  0.5781 -0.1753  3.5949
 1677SOL    HW2 5180   0.801   3.263   3.169  1.5446 -1.9894  1.4565
 1678SOL     OW 5181   2.010   3.367   2.227 -0.4777 -0.2586  0.7623
 1678SOL    HW1 5182   1.933   3.331   2.271 -1.0616 -0.4552 -0.3582
 1678SOL    HW2 5183   2.007   3.327   2.140  0.9669 -0.3550  0.7447
 1679SOL     OW 5184   1.000   1.061   1.216  0.0079 -0.5883  0.3867
 1679SOL    HW1 5185   0.974   1.153   1.214 -0.7030 -0.7121  2.0555
 1679SOL    HW2 5186   0.998   1.033   1.125 -2.6511  0.2689  0.1096
 1680SOL     OW 5187   3.347   0.565   1.615  0.8950 -0.3067  0.2145
 1680SOL    HW1 5188   3.396   0.563   1.698  2.8430  1.1254 -0.8147
 1680SOL    HW2 5189   3.390   0.633   1.563  0.0976 -1.5263 -2.2152
 1681SOL     OW 5190   3.562   0.230   3.091 -0.6202 -0.2557  0.6744
 1681SOL    HW1 5191   3.539   0.264   3.005 -0.6501 -1.2592  0.2757
 1681SOL    HW2 5192   3.478   0.204   3.129 -0.4103 -1.8173  0.1258
 1682SOL     OW 5193   1.758   1.814   0.966 -0.0758  0.4327  0.1690
 1682SOL    HW1 5194   1.847   1.789   0.938 -0.3012 -1.4448  0.9284
 1682SOL    HW2 5195   1.760   1.909   0.971  1.8485  0.4485 -0.0474
 1683SOL     OW 5196   0.788   1.538   0.949 -0.0758  0.0187 -0.0966
 1683SOL    HW1 5197   0.739   1.546   0.867 -2.2447 -2.9235  0.7263
 1683SOL    HW2 5198   0.742   1.596   1.010 -0.7907 -0.5687 -0.0638
 1684SOL     OW 5199   0.533   2.044   2.845  0.3599  0.6259  0.1422
 1684SOL    HW1 5200   0.619   2.082   2.829  0.0515  1.5330  0.5845
 1684SOL    HW2 5201   0.551   1.964   2.895  1.0600 -0.2207 -1.4133
 1685SOL     OW 5202   0.095   2.384   0.073  0.3144  0.7601 -0.1339
 1685SOL    HW1 5203   0.024   2.356   0.130 -0.9599  1.5504 -1.2603
 1685SOL    HW2 5204   0.149   2.442   0.128 -0.3859  0.8164  0.5026
 1686SOL     OW 5205   0.966   0.242   0.209 -0.0088  0.2175 -0.5844
 1686SOL    HW1 5206   0.976   0.298   0.286 -1.7352  0.8616 -0.7818
 1686SOL    HW2 5207   0.988   0.154   0.240 -0.4786  0.5036  0.5976
 1687SOL     OW 5208   2.066   0.397   0.392 -0.7808 -0.3587 -1.1098
 1687SOL    HW1 5209   2.036   0.343   0.465  1.1220 -1.0728 -0.7995
 1687SOL    HW2 5210   2.073   0.336   0.319 -1.0564  0.0103 -1.4500
 1688SOL     OW 5211   3.361   3.488   3.663  0.3582  0.3273 -0.9857
 1688SOL    HW1 5212   3.367   3.541   3.743  0.4128 -0.6271 -0.3325
 1688SOL    HW2 5213   3.434   3.518   3.609  1.5338 -0.3158  0.1697
 1689SOL     OW 5214   1.158   2.570   1.396 -0.3347  0.7894  0.0253
 1689SOL    HW1 5215   1.232   2.573   1.335  0.3079 -0.9404  0.6677
 1689SOL    HW2 5216   1.158   2.481   1.429 -1.8909  1.1495  1.0783
 1690SOL     OW 5217   0.448   1.570   3.324  0.0644 -0.9509  0.3483
 1690SOL    HW1 5218   0.467   1.497   3.266 -0.2849 -0.7043 -0.0810
 1690SOL    HW2 5219   0.363   1.549   3.363  1.4309 -2.3816  2.7800
 1691SOL     OW 5220   2.759   2.763   0.093  0.7456 -0.1733 -0.9466
 1691SOL    HW1 5221   2.831   2.739   0.034  0.2527 -1.7907 -0.9471
 1691SOL    HW2 5222   2.681   2.756   0.039  0.4898  0.7232 -0.7143
 1692SOL     OW 5223   1.998   1.286   2.621 -0.1030 -0.1021  0.5507
 1692SOL    HW1 5224   1.940   1.361   2.611  1.1081  0.9249  1.0287
 1692SOL    HW2 5225   1.963   1.220   2.561  0.1700  1.6787 -1.6981
 1693SOL     OW 5226   2.673   1.255   3.347  0.5082  0.1672  0.0299
 1693SOL    HW1 5227   2.607   1.323   3.334  0.2090 -0.1526 -0.1450
 1693SOL    HW2 5228   2.623   1.174   3.355  0.7917  0.0997  1.3223
 1694SOL     OW 5229   3.175   3.300  -0.015 -0.5218  0.8387  1.1045
 1694SOL    HW1 5230   3.260   3.338  -0.037  0.1018  0.2576  2.3913
 1694SOL    HW2 5231   3.182   3.278   0.078 -1.2699 -1.2890  0.7151
 1695SOL     OW 5232   1.167   2.212   0.249  0.3163  0.1018 -0.5060
 1695SOL    HW1 5233   1.072   2.214   0.245  0.2233  1.1409  1.2316
 1695SOL    HW2 5234   1.195   2.277   0.184  0.0016 -2.0617 -2.9523
 1696SOL     OW 5235   2.417   2.561   0.217 -0.1730  0.0122  0.2089
 1696SOL    HW1 5236   2.456   2.527   0.297 -1.2305 -0.3993  0.5711
 1696SOL    HW2 5237   2.389   2.483   0.169  1.9862  0.1597 -1.4065
 1697SOL     OW 5238   2.780   1.035   0.889  0.6356 -0.5454  0.1010
 1697SOL    HW1 5239   2.723   0.972   0.933 -0.6769  0.5694  0.0490
 1697SOL    HW2 5240   2.840   0.980   0.838  0.9792 -1.8013  1.7555
 1698SOL     OW 5241   2.862   3.339   3.319  0.6285  0.0214 -0.2740
 1698SOL    HW1 5242   2.819   3.256   3.297  2.4675 -0.5525 -1.9875
 1698SOL    HW2 5243   2.818   3.369   3.399 -0.6832 -2.1343 -0.1248
 1699SOL     OW 5244   2.111   0.963   2.125  0.3023 -0.0995 -0.3185
 1699SOL    HW1 5245   2.154   0.878   2.115  0.2600 -0.0818 -0.6742
 1699SOL    HW2 5246   2.053   0.970   2.049 -0.5296 -0.2388  0.2904
 1700SOL     OW 5247   2.993   2.298   1.152  0.0240 -0.1159  0.3310
 1700SOL    HW1 5248   2.953   2.264   1.232 -1.5340  1.2514  0.1871
 1700SOL    HW2 5249   2.922   2.299   1.088 -0.1446  3.4333  0.3671
 1701SOL     OW 5250   0.502   1.827   0.268 -0.5928 -0.3493  0.1271
 1701SOL    HW1 5251   0.530   1.774   0.342 -1.6628  0.6099  1.2712
 1701SOL    HW2 5252   0.573   1.891   0.256 -0.4009 -0.5295  0.2998
 1702SOL     OW 5253   0.208   0.666   1.928 -1.0650 -0.6659  0.2922
 1702SOL    HW1 5254   0.163   0.595   1.974 -0.5885 -0.2934  1.3657
 1702SOL    HW2 5255   0.168   0.746   1.961 -1.1570 -0.3989 -0.4373
 1703SOL     OW 5256   0.139   0.373   2.718  0.2964  0.1112 -0.4800
 1703SOL    HW1 5257   0.189   0.347   2.641  0.1683 -0.4989 -0.3613
 1703SOL    HW2 5258   0.066   0.425   2.684 -0.1360 -0.7113 -0.8317
 1704SOL     OW 5259   2.300   0.931   1.665 -1.0236 -0.3273  0.1979
 1704SOL    HW1 5260   2.215   0.973   1.680 -1.1076 -0.2969 -0.3362
 1704SOL    HW2 5261   2.348   0.945   1.747 -1.4714 -0.2022  0.4461
 1705SOL     OW 5262   0.625   1.792   3.369  0.4067 -0.0090 -0.0488
 1705SOL    HW1 5263   0.585   1.705   3.362  0.5692 -0.3758  2.7016
 1705SOL    HW2 5264   0.657   1.810   3.281 -1.0442 -2.0254 -1.0812
 1706SOL     OW 5265   3.158   3.125   0.206  0.5026  0.1801 -0.1166
 1706SOL    HW1 5266   3.103   3.136   0.284  1.5006  1.7820  0.3969
 1706SOL    HW2 5267   3.148   3.033   0.183  2.1707 -1.0773  3.4395
 1707SOL     OW 5268   0.575   1.653   1.091  0.3721  0.1450 -0.1737
 1707SOL    HW1 5269   0.531   1.728   1.131  0.5906  1.3429 -2.0519
 1707SOL    HW2 5270   0.511   1.619   1.029  0.8966 -0.1436 -0.5631
 1708SOL     OW 5271   1.195   1.934   0.346  0.7700 -0.3125  0.1471
 1708SOL    HW1 5272   1.114   1.882   0.348  0.1544  0.6266  2.0093
 1708SOL    HW2 5273   1.172   2.012   0.295  0.6106 -0.2479  0.3139
 1709SOL     OW 5274   2.257   0.688   1.935 -0.0158  0.5779  0.0814
 1709SOL    HW1 5275   2.185   0.689   1.871 -0.0772 -0.3518  0.1137
 1709SOL    HW2 5276   2.305   0.608   1.914 -1.3606 -1.0405  2.6213
 1710SOL     OW 5277   3.213   0.695   0.405 -0.2286 -0.8584  0.4236
 1710SOL    HW1 5278   3.146   0.720   0.341 -1.8761 -2.7470  1.3195
 1710SOL    HW2 5279   3.275   0.642   0.356 -0.9321 -1.4532  0.1693
 1711SOL     OW 5280   1.456   0.798   1.702  0.1426 -0.0576 -0.1864
 1711SOL    HW1 5281   1.436   0.886   1.671  0.0694  1.3965  3.4744
 1711SOL    HW2 5282   1.547   0.803   1.732 -0.2002 -0.8486  1.0631
 1712SOL     OW 5283   2.340   1.905   0.828 -0.3580  0.2803  0.0217
 1712SOL    HW1 5284   2.348   1.933   0.736 -0.7274 -0.8882 -0.3781
 1712SOL    HW2 5285   2.291   1.823   0.824  1.8680 -1.2161  0.9986
 1713SOL     OW 5286   1.565   2.448   1.101 -0.1100 -0.7463 -0.0597
 1713SOL    HW1 5287   1.630   2.378   1.093 -1.3149 -1.7842 -1.2190
 1713SOL    HW2 5288   1.605   2.523   1.056 -0.1784 -1.7495 -1.9098
 1714SOL     OW 5289   3.542   3.277   0.978  0.0312 -0.5282  0.1067
 1714SOL    HW1 5290   3.497   3.330   1.043 -0.7539 -1.1470  0.0855
 1714SOL    HW2 5291   3.598   3.339   0.931  0.7058 -0.0901  1.4286
 1715SOL     OW 5292   1.329   1.011   3.299  0.8569  0.7027  0.4827
 1715SOL    HW1 5293   1.238   1.023   3.326  1.1946  1.2911  1.4116
 1715SOL    HW2 5294   1.346   1.084   3.239  0.3632 -0.1108 -0.6721
 1716SOL     OW 5295   2.743   0.574   3.143  0.1973 -0.4589  0.2311
 1716SOL    HW1 5296   2.653   0.543   3.142  0.0485 -0.0698 -0.9105
 1716SOL    HW2 5297   2.738   0.661   3.102  1.0227 -0.2319  0.5961
 1717SOL     OW 5298   2.971   1.476   3.583 -0.3598 -0.6854 -0.3155
 1717SOL    HW1 5299   2.937   1.554   3.538  0.1113 -1.2768 -1.7469
 1717SOL    HW2 5300   3.008   1.510   3.664 -0.5246  0.5437 -0.7261
 1718SOL     OW 5301   3.206   1.921   1.119 -0.4665  0.0268 -0.6160
 1718SOL    HW1 5302   3.162   1.911   1.034 -0.6930  1.0974 -0.6341
 1718SOL    HW2 5303   3.220   1.831   1.149 -1.7478 -0.3582 -1.0874
 1719SOL     OW 5304   1.221   1.230   0.762 -0.7146  0.4666 -0.4341
 1719SOL    HW1 5305   1.171   1.221   0.843 -1.7820 -0.0147 -1.1056
 1719SOL    HW2 5306   1.307   1.192   0.782 -0.9022  0.5160  0.5125
 1720SOL     OW 5307   0.744   1.391   2.065 -0.2228  0.6657  0.3466
 1720SOL    HW1 5308   0.766   1.301   2.041 -1.5413  0.7529 -1.4171
 1720SOL    HW2 5309   0.800   1.445   2.009  0.3286  0.9586  1.1644
 1721SOL     OW 5310   2.015   2.064   3.328 -0.0573 -0.7900  0.7368
 1721SOL    HW1 5311   1.967   1.988   3.360 -4.0424  1.5180  0.9032
 1721SOL    HW2 5312   2.010   2.057   3.233 -1.3064 -0.3017  0.7508
 1722SOL     OW 5313   2.125   0.713   0.846 -0.0428  0.0709 -0.1662
 1722SOL    HW1 5314   2.054   0.774   0.865 -0.8341 -1.5797  2.8064
 1722SOL    HW2 5315   2.082   0.632   0.821  0.8119 -0.6095  0.5130
 1723SOL     OW 5316   2.906   2.398   0.185  0.6444  0.2209  0.0188
 1723SOL    HW1 5317   2.950   2.314   0.202  0.8226  0.1412 -0.7959
 1723SOL    HW2 5318   2.941   2.457   0.251 -1.6929 -1.0626  2.6104
 1724SOL     OW 5319   0.224   0.161   1.508 -0.2141 -0.1974  0.4293
 1724SOL    HW1 5320   0.300   0.127   1.555  0.0908 -0.7727 -0.4630
 1724SOL    HW2 5321   0.150   0.139   1.565  0.0365 -1.8461  0.1680
 1725SOL     OW 5322   1.218   2.736   0.951  0.1074 -0.3309 -0.1487
 1725SOL    HW1 5323   1.247   2.768   0.866 -1.7696 -1.2571 -1.2197
 1725SOL    HW2 5324   1.186   2.814   0.996  1.3007  0.1993 -0.1806
 1726SOL     OW 5325   1.634   1.161   3.228  0.0739 -0.0777 -0.1209
 1726SOL    HW1 5326   1.726   1.139   3.244  0.6990  0.4171 -2.5963
 1726SOL    HW2 5327   1.597   1.080   3.192 -0.5844 -0.3901  1.2218
 1727SOL     OW 5328   1.766   0.396   3.031 -0.0473 -0.9029 -0.2384
 1727SOL    HW1 5329   1.796   0.482   3.003 -0.0622 -0.7151  0.3042
 1727SOL    HW2 5330   1.847   0.346   3.045  0.0107 -0.5636  0.7076
 1728SOL     OW 5331   0.928   0.431   0.956 -0.2074 -0.1982 -0.1901
 1728SOL    HW1 5332   1.008   0.439   1.008 -0.9396 -2.5011  1.4738
 1728SOL    HW2 5333   0.857   0.448   1.019 -1.1090 -2.4152 -0.5178
 1729SOL     OW 5334   1.471   2.745   0.238  0.0692 -0.0132  0.2193
 1729SOL    HW1 5335   1.377   2.729   0.240  0.2332 -1.0058  1.0993
 1729SOL    HW2 5336   1.479   2.840   0.245 -0.8991  0.3832 -2.8014
 1730SOL     OW 5337   3.501   2.365   2.284 -0.3779 -0.6485 -0.2967
 1730SOL    HW1 5338   3.533   2.321   2.363  1.4146 -1.5512 -1.4632
 1730SOL    HW2 5339   3.425   2.415   2.314  1.0438  0.1430  2.2672
 1731SOL     OW 5340   0.266   3.683   2.168  0.2306 -0.4285  0.2347
 1731SOL    HW1 5341   0.322   3.669   2.245 -2.2964  0.7957  2.4737
 1731SOL    HW2 5342   0.222   3.598   2.155  2.8383 -1.6083 -1.9511
 1732SOL     OW 5343   2.844   1.503   1.193  0.1838 -0.1100 -0.7489
 1732SOL    HW1 5344   2.921   1.459   1.230  1.4776  2.4968 -0.1323
 1732SOL    HW2 5345   2.853   1.492   1.099  0.4838 -1.1047 -0.6125
 1733SOL     OW 5346   0.943   0.809   0.100  0.1438 -0.0465  0.0233
 1733SOL    HW1 5347   0.885   0.842   0.032 -1.3507  2.0361  2.1207
 1733SOL    HW2 5348   0.909   0.722   0.120 -0.0627 -0.2458 -1.1380
 1734SOL     OW 5349   3.266   1.645   0.540  0.4008 -0.1035  0.4357
 1734SOL    HW1 5350   3.253   1.726   0.490  2.8557  0.5292  0.6937
 1734SOL    HW2 5351   3.187   1.637   0.593 -1.3321  0.3707 -1.8971
 1735SOL     OW 5352   3.407   0.893   2.266 -0.2214  0.6024  0.3483
 1735SOL    HW1 5353   3.370   0.975   2.301 -1.0811  0.5884 -0.4943
 1735SOL    HW2 5354   3.330   0.839   2.247  0.3329 -0.2804  0.5870
 1736SOL     OW 5355   1.037   2.350   1.511  0.3032  0.2251  0.3302
 1736SOL    HW1 5356   1.061   2.385   1.597 -0.2021 -1.1867  1.0860
 1736SOL    HW2 5357   0.980   2.275   1.531  2.9175 -2.3082 -1.0754
 1737SOL     OW 5358   1.797   2.898   1.546  0.8994  0.1490  0.5731
 1737SOL    HW1 5359   1.796   2.930   1.637 -0.9919 -0.2311  0.7241
 1737SOL    HW2 5360   1.749   2.816   1.549  4.3565 -2.0887 -0.0931
 1738SOL     OW 5361   3.052   1.625   0.750  0.1914  0.1029  0.5435
 1738SOL    HW1 5362   2.980   1.582   0.704  0.8690  0.1495 -0.5962
 1738SOL    HW2 5363   3.014   1.706   0.784 -0.6985 -0.6374  1.3790
 1739SOL     OW 5364   2.418   2.390   0.679 -0.0312 -0.0938 -0.9018
 1739SOL    HW1 5365   2.461   2.451   0.739 -1.0745  0.8504 -1.0824
 1739SOL    HW2 5366   2.416   2.307   0.726  1.0180  0.1169 -0.4709
 1740SOL     OW 5367   1.620   1.305   1.715 -0.0140 -0.0252 -0.0245
 1740SOL    HW1 5368   1.651   1.273   1.630 -2.2277 -1.4029 -0.3955
 1740SOL    HW2 5369   1.528   1.327   1.700 -0.9830 -1.9867  2.3921
 1741SOL     OW 5370   3.415   2.914   3.529 -0.4277 -0.1715 -0.0891
 1741SOL    HW1 5371   3.413   2.831   3.577  1.0977 -1.2837 -1.8321
 1741SOL    HW2 5372   3.329   2.919   3.487 -1.5462  0.5166  2.1496
 1742SOL     OW 5373   0.062   0.754   0.468  0.2644  0.0907 -0.0872
 1742SOL    HW1 5374   0.020   0.825   0.419 -0.1739  0.4440  0.7866
 1742SOL    HW2 5375   0.095   0.796   0.547  3.6730  0.1799 -1.3769
 1743SOL     OW 5376   3.402   2.518   0.294 -0.3166  0.6554 -0.3331
 1743SOL    HW1 5377   3.401   2.497   0.200  2.0823 -1.3066 -0.0153
 1743SOL    HW2 5378   3.494   2.538   0.313  0.0068 -2.5111  2.2254
 1744SOL     OW 5379   3.640   1.159   3.398  0.1031  0.4463  0.0372
 1744SOL    HW1 5380   3.559   1.112   3.376 -0.3722  1.2665  0.0041
 1744SOL    HW2 5381   3.629   1.245   3.359  1.2779  0.3596 -0.5252
 1745SOL     OW 5382   1.796   2.319   2.901  0.0590 -0.3529  0.0604
 1745SOL    HW1 5383   1.883   2.315   2.941  0.1520  1.7369  0.1903
 1745SOL    HW2 5384   1.749   2.245   2.939  0.7988  0.3253  2.5010
 1746SOL     OW 5385   0.851   0.750   0.800 -0.5128 -0.0463 -0.7063
 1746SOL    HW1 5386   0.930   0.708   0.768  0.6187  1.8855 -0.6512
 1746SOL    HW2 5387   0.807   0.781   0.721 -0.1672  0.5923 -0.6586
 1747SOL     OW 5388   1.140   2.816   3.291 -0.0330  0.0425  0.0300
 1747SOL    HW1 5389   1.164   2.734   3.247 -0.9498 -2.2367  3.3643
 1747SOL    HW2 5390   1.216   2.872   3.280 -0.1808 -0.2116 -4.2774
 1748SOL     OW 5391   2.787   0.581   2.855 -0.1166 -0.6977 -0.4368
 1748SOL    HW1 5392   2.751   0.667   2.876  2.0462  0.1712 -0.0249
 1748SOL    HW2 5393   2.879   0.586   2.880  0.3335 -2.7999 -1.3865
 1749SOL     OW 5394   3.128   0.119   1.580  0.3566  0.1719  0.0781
 1749SOL    HW1 5395   3.119   0.028   1.553  0.2286  0.1776  0.1034
 1749SOL    HW2 5396   3.062   0.131   1.648  0.9092  0.0601  0.6471
 1750SOL     OW 5397   0.498   2.754   1.719 -0.1862 -0.3245 -0.3403
 1750SOL    HW1 5398   0.529   2.666   1.695  1.5461  0.6506 -1.9456
 1750SOL    HW2 5399   0.513   2.759   1.813  2.0665 -0.9294 -0.6013
 1751SOL     OW 5400   3.407   1.957   0.140 -0.3016 -0.2649  0.1584
 1751SOL    HW1 5401   3.485   1.999   0.175  0.4964 -1.8194  0.3201
 1751SOL    HW2 5402   3.434   1.921   0.056 -1.1939  0.2519 -0.3647
 1752SOL     OW 5403   2.474   3.546   2.287 -0.3398  0.2866 -0.3522
 1752SOL    HW1 5404   2.415   3.506   2.351 -0.7448  2.2996  0.5974
 1752SOL    HW2 5405   2.457   3.640   2.294  0.7594  0.6804 -2.2970
 1753SOL     OW 5406   2.343   3.046   3.615  0.0539 -0.4917 -0.4866
 1753SOL    HW1 5407   2.426   3.016   3.653  0.7190  2.0934  0.2804
 1753SOL    HW2 5408   2.276   3.000   3.665  0.9687  0.8238  2.1166
 1754SOL     OW 5409   3.119   3.392   3.385  0.1798  0.4658 -0.0676
 1754SOL    HW1 5410   3.073   3.463   3.429 -0.1406 -0.1051  0.5404
 1754SOL    HW2 5411   3.053   3.323   3.376  0.8846 -0.3524  0.7860
 1755SOL     OW 5412   2.155   1.588   0.224  0.1180 -0.0029  0.7784
 1755SOL    HW1 5413   2.129   1.586   0.132 -0.4381  1.8057  0.8549
 1755SOL    HW2 5414   2.219   1.517   0.232 -0.6982 -0.9758 -0.7033
 1756SOL     OW 5415   2.074   1.879   0.240 -0.1300  0.1529  0.1435
 1756SOL    HW1 5416   2.044   1.789   0.228 -1.4162  0.7567 -1.5267
 1756SOL    HW2 5417   2.091   1.910   0.151 -2.6431  2.4839  0.3573
 1757SOL     OW 5418   1.742   0.376   0.604  0.3878  0.2143 -0.3584
 1757SOL    HW1 5419   1.700   0.433   0.669 -1.8784 -1.0811 -0.5610
 1757SOL    HW2 5420   1.783   0.307   0.656  0.7436  0.5300 -0.2174
 1758SOL     OW 5421   0.268   2.008   0.196 -0.4258 -0.2588 -0.3453
 1758SOL    HW1 5422   0.268   2.067   0.271 -0.5712 -1.2273  0.4435
 1758SOL    HW2 5423   0.347   1.955   0.208 -0.1110  0.0015 -1.2253
 1759NA      NA 5424   1.242   1.490   0.375  0.3676 -0.4409  0.5204
   3.71640   3.71640   3.71640
