Protein in water
 5443
    0TYR      N    1   0.729   1.825   0.055 -0.1526  0.0602  0.1046
    0TYR     H1    2   0.656   1.765   0.097  1.5294 -0.0462  3.2478
    0TYR     H2    3   0.725   1.805  -0.047  3.0819 -1.1783  0.0741
    0TYR     H3    4   0.698   1.922   0.075 -2.1296  0.2853 -3.2791
    0TYR     CA    5   0.862   1.785   0.119  0.6112  0.3966 -0.3971
    0TYR     HA    6   0.894   1.694   0.070 -0.7218 -0.8988  1.0132
    0TYR     CB    7   0.967   1.894   0.090  0.8303 -0.6904 -0.4210
    0TYR    HB1    8   0.944   1.995   0.130  1.5733 -0.8186  0.3678
    0TYR    HB2    9   0.971   1.904  -0.020  0.2494 -0.5567 -0.4350
    0TYR     CG   10   1.112   1.870   0.135  0.0892  0.3729 -0.3688
    0TYR    CD1   11   1.162   1.948   0.240  1.1516 -0.0074 -0.1566
    0TYR    HD1   12   1.100   2.002   0.310  0.2263 -1.9266  0.5837
    0TYR    CE1   13   1.292   1.934   0.284  0.0130  0.1336  1.0301
    0TYR    HE1   14   1.322   1.997   0.367 -0.0137  2.1599 -0.4343
    0TYR     CZ   15   1.381   1.839   0.222 -0.3167 -0.2121 -0.8517
    0TYR     OH   16   1.522   1.820   0.261 -0.6732  0.0112  0.6861
    0TYR     HH   17   1.536   1.871   0.341  3.1862  0.4688 -0.0875
    0TYR    CD2   18   1.192   1.776   0.065  0.1416 -0.5999  0.4268
    0TYR    HD2   19   1.152   1.716  -0.015 -0.6490 -0.0740  0.4190
    0TYR    CE2   20   1.324   1.768   0.112 -0.4644  0.2818  0.1967
    0TYR    HE2   21   1.395   1.715   0.052 -0.7264  1.8000 -1.5249
    0TYR      C   22   0.847   1.774   0.272 -0.1778  0.8392  0.6300
    0TYR      O   23   0.791   1.869   0.327  1.0189  0.2168 -0.2741
    1TYR      N   24   0.891   1.668   0.342 -0.0814  0.1915 -0.3154
    1TYR     HN   25   0.951   1.609   0.289 -1.3977  0.2365 -1.9375
    1TYR     CA   26   0.855   1.616   0.471  0.4126 -0.6296  0.2993
    1TYR     HA   27   0.905   1.520   0.471  0.1723 -0.8065  2.1881
    1TYR     CB   28   0.910   1.702   0.588  0.1963  0.6970  0.2090
    1TYR    HB1   29   0.876   1.642   0.675 -0.1261 -0.7396 -0.8673
    1TYR    HB2   30   0.870   1.805   0.584  1.7549  1.3197  0.3174
    1TYR     CG   31   1.057   1.727   0.583  0.0487  0.4049 -0.2304
    1TYR    CD1   32   1.145   1.622   0.546 -0.0422 -0.0891 -0.1396
    1TYR    HD1   33   1.110   1.523   0.522  0.9934 -0.3297 -0.7424
    1TYR    CE1   34   1.288   1.639   0.556 -0.5565 -0.3618  0.0514
    1TYR    HE1   35   1.348   1.554   0.527 -2.3895 -1.9915  0.7606
    1TYR     CZ   36   1.342   1.752   0.605 -0.7480  0.3687 -0.2078
    1TYR     OH   37   1.484   1.762   0.614 -0.1945  0.3138 -0.7097
    1TYR     HH   38   1.528   1.677   0.604  2.7083  1.6310 -0.1934
    1TYR    CD2   39   1.115   1.852   0.628  0.0737  0.5750 -0.8834
    1TYR    HD2   40   1.051   1.936   0.652  1.8566  1.6164  0.4096
    1TYR    CE2   41   1.261   1.862   0.632  0.3000 -0.5527  0.5505
    1TYR    HE2   42   1.299   1.962   0.645 -0.8230  0.2036 -1.5252
    1TYR      C   43   0.707   1.594   0.498 -0.5934 -0.2140 -0.5268
    1TYR      O   44   0.656   1.607   0.606  0.4929 -0.2140 -0.4400
    2ASP      N   45   0.640   1.551   0.396 -0.3508 -0.3138 -0.0385
    2ASP     HN   46   0.686   1.544   0.308  0.1523 -2.5567  0.3646
    2ASP     CA   47   0.505   1.526   0.396  0.6017  0.0582  0.8348
    2ASP     HA   48   0.459   1.614   0.439 -2.2823 -0.8141 -0.1927
    2ASP     CB   49   0.434   1.502   0.256 -0.5018  0.6291 -0.2502
    2ASP    HB1   50   0.325   1.485   0.258 -0.4608  0.2946 -0.7136
    2ASP    HB2   51   0.481   1.410   0.215 -0.5278 -0.1599  1.3874
    2ASP     CG   52   0.455   1.612   0.166  0.0098 -0.1093  0.5032
    2ASP    OD1   53   0.566   1.637   0.114 -0.3863 -0.9316 -0.2403
    2ASP    OD2   54   0.360   1.696   0.144  0.2994  0.2545  0.0257
    2ASP      C   55   0.467   1.394   0.478 -0.3319 -0.6456 -0.0026
    2ASP      O   56   0.520   1.285   0.452 -0.2211  0.1686  0.3893
    3PRO      N   57   0.381   1.405   0.577 -0.8874  1.1562 -0.0630
    3PRO     CD   58   0.331   1.534   0.619  0.0792  0.0475  0.3321
    3PRO    HD1   59   0.413   1.600   0.656  1.8053 -1.9754  0.3157
    3PRO    HD2   60   0.264   1.573   0.539 -0.9054 -1.6108  0.3112
    3PRO     CA   61   0.354   1.291   0.665  0.7133  0.7917 -0.0147
    3PRO     HA   62   0.441   1.270   0.726  0.6021 -2.2293 -0.7690
    3PRO     CB   63   0.238   1.346   0.754 -0.4163  1.0028  0.6078
    3PRO    HB1   64   0.245   1.308   0.858 -1.9356 -0.9307  0.0737
    3PRO    HB2   65   0.140   1.308   0.716 -0.2621  0.6837  0.5240
    3PRO     CG   66   0.246   1.500   0.743 -0.0659  0.8405 -0.4214
    3PRO    HG1   67   0.301   1.538   0.832 -1.9715  0.7784  0.8389
    3PRO    HG2   68   0.141   1.536   0.738 -0.6895 -0.7688  0.5309
    3PRO      C   69   0.312   1.162   0.599 -0.0120 -0.0512 -0.4019
    3PRO      O   70   0.261   1.165   0.493  0.4267  0.4774 -0.2179
    4GLU      N   71   0.354   1.044   0.659 -0.0912  0.2784  0.1413
    4GLU     HN   72   0.393   1.044   0.751  0.1524  1.4839  0.0558
    4GLU     CA   73   0.345   0.924   0.582 -0.3794  0.3047 -0.2968
    4GLU     HA   74   0.384   0.948   0.485  0.2913  1.4900  0.2407
    4GLU     CB   75   0.421   0.801   0.639  0.1456 -0.1315 -0.6286
    4GLU    HB1   76   0.399   0.713   0.575  1.0866 -1.2736  0.5749
    4GLU    HB2   77   0.384   0.779   0.741  0.3367  0.7408 -0.3652
    4GLU     CG   78   0.569   0.816   0.656  0.1031  0.2637 -0.8740
    4GLU    HG1   79   0.605   0.729   0.716 -3.3436 -0.5027  0.3041
    4GLU    HG2   80   0.602   0.900   0.721 -1.8531  1.1279 -0.9315
    4GLU     CD   81   0.649   0.820   0.529  0.4077 -0.2622 -0.0043
    4GLU    OE1   82   0.624   0.903   0.433 -0.2424  0.0880  0.2415
    4GLU    OE2   83   0.753   0.752   0.525  0.3505  0.3497  0.1608
    4GLU      C   84   0.191   0.878   0.565  0.0154 -0.9098 -0.3032
    4GLU      O   85   0.105   0.906   0.652 -0.4735  0.1382  0.0624
    5THR      N   86   0.163   0.792   0.468 -0.1105  0.1272 -0.0168
    5THR     HN   87   0.226   0.741   0.410 -1.1994 -0.3428 -0.8256
    5THR     CA   88   0.023   0.773   0.423 -0.2303 -0.8152 -0.6968
    5THR     HA   89  -0.026   0.869   0.434 -0.1919 -0.7930 -0.7163
    5THR     CB   90   0.019   0.735   0.277 -0.0959 -1.1388 -0.4577
    5THR     HB   91   0.071   0.637   0.267  0.8840 -0.5789 -0.9072
    5THR    OG1   92   0.092   0.835   0.201  0.3103  0.2288 -0.0779
    5THR    HG1   93   0.077   0.807   0.110 -1.8392 -2.1579  0.8734
    5THR    CG2   94  -0.123   0.738   0.236  0.3514 -0.5171 -0.6308
    5THR   HG21   95  -0.171   0.835   0.262 -1.5560 -1.6989  0.5475
    5THR   HG22   96  -0.177   0.660   0.293  0.9317 -1.4492 -1.3289
    5THR   HG23   97  -0.141   0.727   0.127 -0.3180 -0.1116 -0.5733
    5THR      C   98  -0.052   0.681   0.508 -0.3841 -0.0157  0.1106
    5THR      O   99  -0.024   0.559   0.516  0.4524  0.2538 -0.2161
    6GLY      N  100  -0.159   0.728   0.579  0.9987 -0.2029 -1.1141
    6GLY     HN  101  -0.180   0.825   0.574 -0.8913 -0.4611  0.3801
    6GLY     CA  102  -0.257   0.643   0.649  0.1499  0.3973 -0.3743
    6GLY    HA1  103  -0.264   0.544   0.607  0.9521 -0.7082  1.9093
    6GLY    HA2  104  -0.352   0.694   0.656  0.5574  1.0224  1.1208
    6GLY      C  105  -0.228   0.618   0.793 -0.4397 -0.8042  0.0723
    6GLY      O  106  -0.307   0.556   0.866 -0.7283  0.6070 -0.6347
    7TYR      N  107  -0.105   0.651   0.830 -0.5759 -0.2232  0.4834
    7TYR     HN  108  -0.036   0.702   0.780 -2.4558  3.1289  0.9576
    7TYR     CA  109  -0.052   0.617   0.965  0.2779 -0.0886  0.1145
    7TYR     HA  110  -0.094   0.524   1.001 -0.4987 -0.0393 -0.6115
    7TYR     CB  111   0.096   0.613   0.955 -0.8788  0.2412 -0.3617
    7TYR    HB1  112   0.139   0.705   0.909 -0.7246  2.0390  3.0890
    7TYR    HB2  113   0.138   0.603   1.057 -1.0701  0.8823 -0.2127
    7TYR     CG  114   0.137   0.491   0.876 -0.1495 -0.5955  0.8873
    7TYR    CD1  115   0.083   0.363   0.892 -0.3509  0.1059  0.2352
    7TYR    HD1  116   0.011   0.346   0.970 -2.0192 -2.1097 -1.6620
    7TYR    CE1  117   0.113   0.261   0.806 -0.4788  0.7581 -0.2120
    7TYR    HE1  118   0.063   0.166   0.812 -3.5943  2.1316 -2.2520
    7TYR     CZ  119   0.210   0.280   0.699  0.0648 -0.0671 -0.6351
    7TYR     OH  120   0.234   0.176   0.607  0.0987 -0.0417 -0.1364
    7TYR     HH  121   0.209   0.101   0.663 -1.2756  0.1832 -0.4212
    7TYR    CD2  122   0.221   0.511   0.770 -0.7614 -0.3330  0.4919
    7TYR    HD2  123   0.261   0.611   0.766 -2.2547  0.3450  1.4346
    7TYR    CE2  124   0.264   0.411   0.681  0.0608 -0.0721  0.6055
    7TYR    HE2  125   0.334   0.437   0.604  0.8039  1.8100  1.8483
    7TYR      C  126  -0.097   0.713   1.065  0.0876  0.9348  0.1243
    7TYR      O  127  -0.015   0.784   1.126 -0.7184  0.1935  0.3566
    8TRP      N  128  -0.226   0.712   1.089 -0.1731  0.1259 -0.1294
    8TRP     HN  129  -0.287   0.641   1.056  0.0014 -0.3147  0.4723
    8TRP     CA  130  -0.307   0.806   1.166 -0.0526 -1.2010  0.0629
    8TRP     HA  131  -0.238   0.866   1.225 -0.6715 -1.4440  1.0636
    8TRP     CB  132  -0.401   0.897   1.076  0.6708 -0.0543 -0.3867
    8TRP    HB1  133  -0.445   0.970   1.147 -0.1760  0.5112 -1.4531
    8TRP    HB2  134  -0.478   0.838   1.021 -0.4938  1.1530 -0.1050
    8TRP     CG  135  -0.324   0.990   0.984  0.8700 -0.2393 -0.5902
    8TRP    CD1  136  -0.282   0.971   0.859 -0.1721 -0.2528  0.1688
    8TRP    HD1  137  -0.310   0.887   0.797 -0.1169  0.0621 -0.2916
    8TRP    NE1  138  -0.200   1.072   0.810  0.3870  0.5152  0.2601
    8TRP    HE1  139  -0.160   1.070   0.721  2.7274 -2.7604  1.2009
    8TRP    CE2  140  -0.196   1.164   0.909  0.2170  0.1548  0.7265
    8TRP    CD2  141  -0.282   1.125   1.016 -0.3307 -0.0586 -0.6360
    8TRP    CE3  142  -0.295   1.210   1.123  0.3626  0.7768  0.1646
    8TRP    HE3  143  -0.366   1.179   1.198 -0.2148 -0.3713 -0.8209
    8TRP    CZ3  144  -0.231   1.328   1.131 -0.0396 -0.8329 -0.1754
    8TRP    HZ3  145  -0.244   1.391   1.218 -4.5502 -0.6382 -0.7740
    8TRP    CZ2  146  -0.124   1.285   0.909 -0.8821  0.1044 -0.6968
    8TRP    HZ2  147  -0.058   1.315   0.829 -2.3630  0.2302 -1.8984
    8TRP    CH2  148  -0.133   1.366   1.029 -1.2100  0.2502  0.1218
    8TRP    HH2  149  -0.067   1.450   1.047 -2.3866  0.4019  5.2308
    8TRP      C  150  -0.400   0.739   1.261 -0.8677 -0.2654  0.3676
    8TRP      O  151  -0.501   0.795   1.306 -0.5838 -0.2465 -0.1734
    9TYR      N  152  -0.367   0.619   1.295  0.0246  1.0268 -0.1500
    9TYR     HN  153  -0.288   0.576   1.254  1.2365  1.4304  1.6595
    9TYR     CA  154  -0.440   0.533   1.385  0.6975  0.0009  0.9488
    9TYR     HA  155  -0.544   0.549   1.362  0.6830 -0.7978  0.3957
    9TYR     CB  156  -0.408   0.386   1.364  0.4564 -0.5515  0.3400
    9TYR    HB1  157  -0.465   0.316   1.429 -0.3518  0.7344  1.0670
    9TYR    HB2  158  -0.302   0.363   1.387  1.5067  0.2820 -3.1482
    9TYR     CG  159  -0.446   0.343   1.226 -0.6864 -0.6179  0.0235
    9TYR    CD1  160  -0.582   0.331   1.192 -0.0957 -0.0829 -0.8210
    9TYR    HD1  161  -0.656   0.354   1.268  2.8704  0.5696  2.1065
    9TYR    CE1  162  -0.621   0.298   1.063 -0.5369  0.6188 -0.3479
    9TYR    HE1  163  -0.727   0.289   1.045 -0.8116 -1.6787  1.9843
    9TYR     CZ  164  -0.528   0.244   0.980 -0.0439  0.4116  0.2149
    9TYR     OH  165  -0.572   0.194   0.863  0.2761  0.9336  0.0538
    9TYR     HH  166  -0.646   0.250   0.837  0.2501 -0.2612 -2.7862
    9TYR    CD2  167  -0.354   0.285   1.138 -0.2360 -0.2279 -0.4205
    9TYR    HD2  168  -0.249   0.285   1.166  0.6731 -2.1071 -3.4171
    9TYR    CE2  169  -0.390   0.238   1.014  0.2926  0.2193 -0.1051
    9TYR    HE2  170  -0.312   0.207   0.945 -0.6595 -0.7444 -0.7829
    9TYR      C  171  -0.423   0.568   1.531 -0.0196 -0.5678  0.0385
    9TYR    OT1  172  -0.312   0.581   1.587  0.0899  0.7000 -0.1765
    9TYR    OT2  173  -0.526   0.603   1.596 -0.1513  0.1568 -0.2456
   10SOL     OW  174   0.988   2.425   1.649  0.1354 -0.4813  0.1419
   10SOL    HW1  175   1.041   2.363   1.700  0.9193 -0.9630 -1.2086
   10SOL    HW2  176   0.941   2.476   1.715  1.0675 -1.1209  1.3453
   11SOL     OW  177   1.379   1.582   1.684  0.2168 -0.2970 -0.0106
   11SOL    HW1  178   1.393   1.666   1.727  2.6426  1.2725 -3.3865
   11SOL    HW2  179   1.452   1.528   1.715  0.7799  0.1277 -0.5746
   12SOL     OW  180   0.081   3.538   1.242  0.0369  0.0582 -0.3100
   12SOL    HW1  181   0.165   3.571   1.210  0.4261  0.4276  1.0372
   12SOL    HW2  182   0.058   3.597   1.314 -2.4128  1.2570 -1.9400
   13SOL     OW  183   0.588   0.045   0.882 -0.6475 -0.4279  0.5722
   13SOL    HW1  184   0.601  -0.049   0.872 -2.3449 -0.6079 -0.3282
   13SOL    HW2  185   0.573   0.076   0.793 -1.7870  0.3978  1.0309
   14SOL     OW  186   1.216   1.793   3.202  0.4433  0.7554 -0.6680
   14SOL    HW1  187   1.213   1.761   3.112  0.0488  0.6824 -0.6305
   14SOL    HW2  188   1.307   1.818   3.216  0.2659  1.8857 -1.4757
   15SOL     OW  189   1.968   3.140   2.577  0.1856 -0.0034  0.2154
   15SOL    HW1  190   2.024   3.116   2.651 -0.5842 -0.0551  0.7960
   15SOL    HW2  191   1.902   3.198   2.616  0.0832  0.3954 -0.5414
   16SOL     OW  192   0.091   0.853   2.208 -0.0406  0.0705  0.1323
   16SOL    HW1  193   0.170   0.898   2.236  0.3410 -1.3114  1.3837
   16SOL    HW2  194   0.020   0.916   2.226  0.5352  0.4367  1.1907
   17SOL     OW  195   3.656   3.556   0.687  0.0038 -0.1805  0.9470
   17SOL    HW1  196   3.626   3.514   0.607  0.0899  2.2704 -0.4343
   17SOL    HW2  197   3.614   3.506   0.757 -0.5761 -1.9875 -0.6074
   18SOL     OW  198   2.448   3.432   1.264  0.3413  0.1572  0.4474
   18SOL    HW1  199   2.466   3.523   1.288 -2.1093  0.0246  3.5601
   18SOL    HW2  200   2.440   3.433   1.169  2.1041  2.8014  0.2193
   19SOL     OW  201   1.466   2.785   1.844  0.4094 -0.0949  0.5114
   19SOL    HW1  202   1.437   2.694   1.839  2.9310 -0.9795  0.4332
   19SOL    HW2  203   1.443   2.823   1.759  2.1753 -1.6589 -0.7434
   20SOL     OW  204   1.153   1.400   1.774  0.2396  0.6228 -0.0933
   20SOL    HW1  205   1.237   1.393   1.728  0.4799  2.3313  0.0340
   20SOL    HW2  206   1.173   1.378   1.865  0.2671 -0.2428 -0.2959
   21SOL     OW  207   0.968   2.039   2.278 -0.1069 -0.5244  0.6283
   21SOL    HW1  208   0.948   2.098   2.205 -0.6060 -1.1232  0.2636
   21SOL    HW2  209   0.885   2.026   2.322  0.2706  0.1313  1.5421
   22SOL     OW  210   1.110   0.815   3.570  0.1043  0.3083 -0.1913
   22SOL    HW1  211   1.153   0.738   3.533  1.1853  0.0394  1.5046
   22SOL    HW2  212   1.057   0.781   3.641  1.1072  1.1540  1.0087
   23SOL     OW  213   3.247   1.857   1.347 -0.1028 -0.1571  0.1586
   23SOL    HW1  214   3.340   1.873   1.328  0.7342 -1.6729  2.6110
   23SOL    HW2  215   3.224   1.784   1.289  0.0360  0.5698 -0.8528
   24SOL     OW  216   3.389   2.882   0.711 -0.4305  0.0005  0.1026
   24SOL    HW1  217   3.471   2.881   0.663 -0.2084  1.1930  0.4137
   24SOL    HW2  218   3.405   2.828   0.788  0.3855  0.9686  0.6372
   25SOL     OW  219   0.029   2.085   1.305 -0.0772  0.6150  0.3907
   25SOL    HW1  220  -0.027   2.015   1.272 -0.1220  2.2318 -3.4291
   25SOL    HW2  221   0.118   2.049   1.299 -0.2578  0.1000  0.7189
   26SOL     OW  222   0.977   2.084   3.490  0.3619  0.0226  0.3417
   26SOL    HW1  223   0.950   2.172   3.513  0.9411  0.4322 -0.5116
   26SOL    HW2  224   1.072   2.088   3.484  0.2825 -0.0698 -1.9370
   27SOL     OW  225   3.457   2.743   0.937 -0.4232 -0.8224 -0.9051
   27SOL    HW1  226   3.497   2.818   0.982  0.9134 -0.4928 -2.5096
   27SOL    HW2  227   3.460   2.672   1.000 -0.9490  0.2455  0.3686
   28SOL     OW  228   3.216   1.118   0.495 -0.1973  0.2713 -0.2650
   28SOL    HW1  229   3.156   1.187   0.467 -0.5441  0.4418  0.8275
   28SOL    HW2  230   3.293   1.164   0.529  0.0176  0.0901 -0.5033
   29SOL     OW  231   1.568   2.017   0.491  0.4543 -0.0155  0.3247
   29SOL    HW1  232   1.519   2.099   0.499  2.4539  1.0502  3.0628
   29SOL    HW2  233   1.511   1.951   0.532 -0.4047  0.3244 -0.2838
   30SOL     OW  234   0.077   2.667   1.608  0.6063 -0.0926 -0.0597
   30SOL    HW1  235   0.032   2.723   1.545  1.3583 -0.5794 -1.0561
   30SOL    HW2  236   0.154   2.634   1.561 -0.0563 -2.3527  0.3103
   31SOL     OW  237   0.510   0.381   0.024 -0.7136  0.3007 -0.2784
   31SOL    HW1  238   0.545   0.320  -0.041 -0.1211  1.1756 -0.8039
   31SOL    HW2  239   0.549   0.353   0.107  0.1286  0.3836 -0.6311
   32SOL     OW  240   0.578   1.400   2.039  0.4097 -0.3592  0.4390
   32SOL    HW1  241   0.592   1.314   2.078 -0.1638 -0.1192  1.1933
   32SOL    HW2  242   0.517   1.383   1.966  0.5865 -0.6384  0.3532
   33SOL     OW  243   1.226   1.368   0.763  0.2735 -0.5911 -0.0447
   33SOL    HW1  244   1.207   1.277   0.787  0.5227 -0.7319 -0.3688
   33SOL    HW2  245   1.146   1.416   0.786 -0.4372 -1.1411 -1.2424
   34SOL     OW  246   2.176   2.492   3.674 -0.2858  0.0345 -0.3218
   34SOL    HW1  247   2.112   2.552   3.635  1.0065  0.8516 -1.2564
   34SOL    HW2  248   2.142   2.405   3.656 -0.6746  0.4435 -1.6149
   35SOL     OW  249   3.366   3.304   1.908  0.3491  0.7505  0.4612
   35SOL    HW1  250   3.406   3.271   1.828 -1.2710 -0.8227  0.2404
   35SOL    HW2  251   3.272   3.312   1.888 -0.0777  0.4852  2.1326
   36SOL     OW  252   1.033   1.791   3.457  0.0347 -0.0890 -0.4627
   36SOL    HW1  253   1.084   1.783   3.376  1.0959 -1.3129  0.2790
   36SOL    HW2  254   1.012   1.884   3.463 -1.1994 -0.1638 -2.7897
   37SOL     OW  255   1.690   0.782   0.607 -0.0116  0.4896  0.1841
   37SOL    HW1  256   1.680   0.800   0.514 -1.3025  0.1482  0.2271
   37SOL    HW2  257   1.610   0.734   0.631  0.3573  0.4442  1.4351
   38SOL     OW  258   1.181   3.326   1.748 -0.3603  0.2163  0.5521
   38SOL    HW1  259   1.164   3.259   1.681  0.1694 -0.4463  1.0681
   38SOL    HW2  260   1.234   3.281   1.814  1.2986  1.5301  0.1916
   39SOL     OW  261   2.679   0.459   1.177  0.1176 -0.7809  0.0278
   39SOL    HW1  262   2.714   0.508   1.103 -0.6241 -0.9332 -0.4375
   39SOL    HW2  263   2.693   0.367   1.155  0.8042 -0.8137  0.5465
   40SOL     OW  264   3.504   3.657   2.721 -0.4938 -0.2467 -0.2652
   40SOL    HW1  265   3.517   3.577   2.669 -0.4792 -1.3825  1.4165
   40SOL    HW2  266   3.593   3.684   2.745 -0.4006  1.0869 -1.9320
   41SOL     OW  267   3.043   0.591   0.457  0.3544 -0.6841 -0.5727
   41SOL    HW1  268   3.099   0.666   0.436 -0.3157  0.9723  2.8124
   41SOL    HW2  269   3.095   0.539   0.518 -1.0673  0.0496  1.3872
   42SOL     OW  270   0.801   1.821   2.499  0.0052 -0.1501 -0.1953
   42SOL    HW1  271   0.753   1.795   2.420 -0.4078  0.5785 -0.1936
   42SOL    HW2  272   0.891   1.834   2.468 -0.3511  1.1157 -0.7820
   43SOL     OW  273   3.280   1.757   1.589 -0.1206 -1.0345  0.3914
   43SOL    HW1  274   3.251   1.763   1.498  2.7971 -1.7625 -0.7002
   43SOL    HW2  275   3.273   1.846   1.622 -0.7462 -0.6507 -0.7080
   44SOL     OW  276   2.378   1.630   0.090  0.1654 -0.1101  0.2494
   44SOL    HW1  277   2.423   1.714   0.079 -1.1391  0.5571 -0.0999
   44SOL    HW2  278   2.364   1.622   0.184  1.0798 -0.3780  0.3766
   45SOL     OW  279   3.448   0.943   0.451 -1.0345 -0.1680 -0.1599
   45SOL    HW1  280   3.509   1.009   0.419  0.2603 -1.5191 -0.6163
   45SOL    HW2  281   3.405   0.984   0.526  1.0996  0.5387  0.7449
   46SOL     OW  282   1.844   1.602   3.212  0.3946  0.5907 -0.1497
   46SOL    HW1  283   1.765   1.603   3.158 -0.1889  0.1602  0.6646
   46SOL    HW2  284   1.831   1.673   3.275 -1.1787 -1.7935  2.4444
   47SOL     OW  285   1.435   1.466   3.473  0.4515 -0.2611  0.0208
   47SOL    HW1  286   1.463   1.523   3.400 -2.0301 -0.3173 -1.0733
   47SOL    HW2  287   1.432   1.378   3.434 -0.7116 -0.3187  0.2112
   48SOL     OW  288   3.744   2.073   0.129 -0.1944  0.1859 -0.3627
   48SOL    HW1  289   3.752   2.132   0.205  0.7588 -0.4764  0.0722
   48SOL    HW2  290   3.658   2.031   0.141  0.0235 -0.0558  0.4767
   49SOL     OW  291   2.952   3.558   0.838 -0.3487  0.2057 -0.3162
   49SOL    HW1  292   3.046   3.563   0.857 -0.4157  0.1985  0.0198
   49SOL    HW2  293   2.922   3.482   0.888 -0.6017  0.4158 -0.1507
   50SOL     OW  294   0.860   2.838   0.642  0.1564  0.3080  0.4342
   50SOL    HW1  295   0.880   2.859   0.733  0.3501 -0.6246  0.6140
   50SOL    HW2  296   0.945   2.839   0.598  0.2051 -0.3621  0.5047
   51SOL     OW  297   1.896   3.396   0.917 -0.1286  0.1019 -0.2182
   51SOL    HW1  298   1.846   3.379   0.997  2.4417 -0.9421  1.2788
   51SOL    HW2  299   1.850   3.345   0.849 -0.3888 -1.8797  1.3574
   52SOL     OW  300   2.419   3.487   3.259  0.0230 -0.4441 -0.1482
   52SOL    HW1  301   2.430   3.419   3.326  0.7124 -2.1604 -1.9202
   52SOL    HW2  302   2.508   3.504   3.228 -0.0233  1.9630  0.8308
   53SOL     OW  303   1.085   1.911   2.479  0.4524 -0.4869 -0.6907
   53SOL    HW1  304   1.069   1.947   2.392 -0.8051 -0.4847 -0.4804
   53SOL    HW2  305   1.152   1.844   2.466 -0.6593 -1.4137 -1.9035
   54SOL     OW  306   2.191   1.333   1.596 -0.6899 -0.1211 -0.2863
   54SOL    HW1  307   2.277   1.297   1.573  0.7082  3.4955 -1.6349
   54SOL    HW2  308   2.199   1.357   1.688 -0.3213 -0.0528 -0.3321
   55SOL     OW  309   2.210   1.816   1.962 -0.2441  0.5054  0.9761
   55SOL    HW1  310   2.276   1.847   1.900 -1.6771  3.2041  0.6463
   55SOL    HW2  311   2.150   1.764   1.908  0.5804 -0.4244  0.9218
   56SOL     OW  312   1.457   2.848   0.710 -0.2654  0.1882  0.3683
   56SOL    HW1  313   1.378   2.902   0.702  0.7644  1.9318  1.3820
   56SOL    HW2  314   1.528   2.904   0.679  0.4334 -1.9572 -2.2556
   57SOL     OW  315   2.463   1.649   2.077 -0.0289  0.0197  0.1709
   57SOL    HW1  316   2.477   1.691   2.162  1.1197 -0.2329  0.1144
   57SOL    HW2  317   2.500   1.561   2.088 -3.2539 -1.4443  0.6327
   58SOL     OW  318   1.781   1.943   1.794  0.1939  0.0009 -0.5235
   58SOL    HW1  319   1.690   1.967   1.781  0.8015  1.5494 -2.4098
   58SOL    HW2  320   1.791   1.936   1.889 -2.1888 -1.6361 -0.3151
   59SOL     OW  321   0.368   0.940   1.225 -0.4079 -0.1568  0.1598
   59SOL    HW1  322   0.374   0.847   1.204  0.0697 -0.0785 -0.0633
   59SOL    HW2  323   0.275   0.960   1.220 -0.2875  0.0602 -2.7812
   60SOL     OW  324   0.723   0.212   1.052 -0.5144 -0.1418 -0.3778
   60SOL    HW1  325   0.818   0.211   1.037 -0.3240  0.1265  0.7125
   60SOL    HW2  326   0.688   0.146   0.992  0.5302 -1.3104  0.2679
   61SOL     OW  327   1.891   1.447   2.173 -0.5523 -0.3888 -0.1224
   61SOL    HW1  328   1.979   1.477   2.195 -0.8998  0.8662 -0.3520
   61SOL    HW2  329   1.863   1.394   2.247  0.4082 -0.8343 -0.0719
   62SOL     OW  330   2.319   3.719   2.892 -0.1663 -0.3263 -0.4861
   62SOL    HW1  331   2.309   3.700   2.799  1.2977 -1.4316 -0.4552
   62SOL    HW2  332   2.402   3.678   2.916 -1.3122 -1.5263  1.6927
   63SOL     OW  333   0.672   3.006   2.204  0.1352 -0.6403 -0.2337
   63SOL    HW1  334   0.634   3.073   2.147 -1.0512  0.8157  2.0920
   63SOL    HW2  335   0.755   2.984   2.163  1.4034  3.4923 -0.3724
   64SOL     OW  336   3.070   3.210   2.412 -0.3397 -0.2718  0.2701
   64SOL    HW1  337   3.063   3.200   2.507 -0.8605  0.8948  0.3834
   64SOL    HW2  338   2.999   3.271   2.390  0.0140 -0.2363 -0.8143
   65SOL     OW  339   1.093   0.043   2.008  0.0599  0.0814 -0.3035
   65SOL    HW1  340   1.105   0.137   1.994  2.1196  0.3737  2.4410
   65SOL    HW2  341   1.182   0.009   2.019 -0.7211 -1.7787  0.7803
   66SOL     OW  342   3.618   3.177   3.471 -0.2434  0.1702  0.3951
   66SOL    HW1  343   3.576   3.196   3.555 -0.7371 -0.0159  0.1974
   66SOL    HW2  344   3.569   3.102   3.436  1.0089 -0.8122  0.6908
   67SOL     OW  345   0.324   2.833   0.548 -0.0031  0.6839 -0.6185
   67SOL    HW1  346   0.419   2.830   0.532  0.1695 -0.5528  0.4144
   67SOL    HW2  347   0.304   2.926   0.560  0.7252  1.1588 -2.6807
   68SOL     OW  348   2.596   1.006   2.937  0.0032  0.4600 -0.3061
   68SOL    HW1  349   2.591   1.087   2.885 -1.8468  0.5076 -0.1159
   68SOL    HW2  350   2.512   0.963   2.922  0.7233 -1.1327  0.1039
   69SOL     OW  351   2.677   3.494   1.530  0.2327  0.4289 -0.0636
   69SOL    HW1  352   2.616   3.462   1.596 -0.9686  2.5254 -0.0405
   69SOL    HW2  353   2.687   3.587   1.550  3.8046  0.1290  0.1466
   70SOL     OW  354   1.486   1.470   0.844  0.3004 -0.1313 -0.0466
   70SOL    HW1  355   1.537   1.499   0.768 -0.0042  0.3396 -0.0767
   70SOL    HW2  356   1.403   1.441   0.807 -0.3146  1.2269  0.2010
   71SOL     OW  357   2.176   1.491   2.192  0.4939 -0.1578 -0.8496
   71SOL    HW1  358   2.224   1.453   2.266 -1.3281  1.4878  1.3101
   71SOL    HW2  359   2.235   1.558   2.158  1.5480 -1.2478 -1.2591
   72SOL     OW  360   2.735   1.024   2.349 -0.7401  0.1492 -0.6291
   72SOL    HW1  361   2.685   1.038   2.430 -2.9159  1.4939 -2.0988
   72SOL    HW2  362   2.815   1.076   2.361 -0.8482  0.0244  0.7837
   73SOL     OW  363   3.358   3.461   3.619 -1.0754  0.1007  0.4729
   73SOL    HW1  364   3.289   3.460   3.686 -0.2414 -1.3353  1.3530
   73SOL    HW2  365   3.348   3.378   3.573 -1.1307  0.7334 -0.6965
   74SOL     OW  366   0.353   2.492   3.346 -0.0198  0.2326  0.0226
   74SOL    HW1  367   0.373   2.427   3.414  1.6864  0.8618  0.1671
   74SOL    HW2  368   0.344   2.574   3.393  0.9937  0.6409 -0.4846
   75SOL     OW  369   1.963   0.842   3.525  0.2012 -0.7577  0.4291
   75SOL    HW1  370   1.878   0.799   3.534 -0.2875  0.0910 -0.0045
   75SOL    HW2  371   1.998   0.809   3.442 -0.1185 -0.4237  0.1568
   76SOL     OW  372   1.796   3.137   0.415 -0.0197 -0.5160  0.2077
   76SOL    HW1  373   1.885   3.137   0.378 -0.1655 -0.3545 -0.1468
   76SOL    HW2  374   1.744   3.186   0.351 -0.4094 -0.7999  0.3107
   77SOL     OW  375   0.655   3.489   2.721  0.4778  0.1807  0.1933
   77SOL    HW1  376   0.593   3.417   2.710  0.3793  0.2595  0.2299
   77SOL    HW2  377   0.741   3.446   2.725  0.3268 -0.0457  1.4392
   78SOL     OW  378   2.166   3.239   1.165  1.1104  0.3388 -0.0476
   78SOL    HW1  379   2.180   3.268   1.255  0.4691  1.2067 -0.2154
   78SOL    HW2  380   2.091   3.180   1.170  0.6460  0.9202 -0.1071
   79SOL     OW  381   2.217   0.079   0.195  0.2190  0.1865 -0.1600
   79SOL    HW1  382   2.279   0.034   0.138  0.7901  0.6512  0.0880
   79SOL    HW2  383   2.268   0.105   0.271 -0.2013  0.8590 -0.0975
   80SOL     OW  384   1.820   2.019   2.738  0.1750 -0.3404  1.0047
   80SOL    HW1  385   1.846   2.031   2.830  0.2352  0.0794  0.9369
   80SOL    HW2  386   1.883   2.072   2.689  0.9873 -1.6290  0.6093
   81SOL     OW  387   1.252   1.865   1.490 -0.0263 -0.4993  0.0329
   81SOL    HW1  388   1.278   1.796   1.430  2.3820 -1.5982  2.1770
   81SOL    HW2  389   1.219   1.820   1.567 -1.0152  0.8260  0.4330
   82SOL     OW  390   0.907   3.210   0.074  0.5743 -0.0419 -0.2111
   82SOL    HW1  391   0.916   3.300   0.105  0.9731 -0.6402  1.5139
   82SOL    HW2  392   0.813   3.199   0.062 -0.0193 -0.5440  3.5195
   83SOL     OW  393   0.122   1.427   2.939  0.3384  0.4466 -0.3170
   83SOL    HW1  394   0.210   1.436   2.904  0.0846  2.1798 -0.5718
   83SOL    HW2  395   0.110   1.332   2.950  1.4619  0.0410 -2.2083
   84SOL     OW  396   3.393   0.895   2.130 -0.5392 -0.7438 -0.6044
   84SOL    HW1  397   3.302   0.876   2.108 -1.0396  1.3585 -0.6089
   84SOL    HW2  398   3.393   0.987   2.155  1.2934 -1.1589  1.2033
   85SOL     OW  399   2.077   1.928   3.568  0.1734 -0.8443  0.6947
   85SOL    HW1  400   2.012   1.871   3.526 -0.4296  0.2466  0.0826
   85SOL    HW2  401   2.049   1.933   3.659  0.8610 -2.3684  1.0144
   86SOL     OW  402   3.348   1.400   0.835 -0.4019  0.0591 -0.0068
   86SOL    HW1  403   3.428   1.359   0.801 -0.4244  0.1148 -0.1267
   86SOL    HW2  404   3.287   1.328   0.847 -0.8399  0.1914 -1.3176
   87SOL     OW  405   0.305   0.555   0.309 -0.4284  0.6183  0.4663
   87SOL    HW1  406   0.383   0.508   0.338 -1.8365 -3.3405 -1.5088
   87SOL    HW2  407   0.234   0.492   0.317 -2.4746  2.2287 -2.7919
   88SOL     OW  408   1.066   2.873   3.431 -0.0258 -0.1580 -0.0574
   88SOL    HW1  409   1.152   2.910   3.452  0.3221 -0.4811 -0.8947
   88SOL    HW2  410   1.022   2.941   3.380  0.1156 -0.3884 -0.4854
   89SOL     OW  411   3.103   2.359   0.363  0.0636  0.0502 -0.3452
   89SOL    HW1  412   3.082   2.379   0.454  0.1226  0.7210 -0.4672
   89SOL    HW2  413   3.055   2.425   0.312  0.6226  0.1627 -0.7479
   90SOL     OW  414   3.661   2.836   1.399  0.3270 -0.3000 -0.8716
   90SOL    HW1  415   3.572   2.803   1.389 -0.2187  1.2501 -1.3835
   90SOL    HW2  416   3.655   2.905   1.464  1.4540 -1.1822  0.2173
   91SOL     OW  417   1.899   0.900   0.083  0.6654  0.0057 -0.1411
   91SOL    HW1  418   1.936   0.878  -0.003  0.8576  0.0613 -0.0743
   91SOL    HW2  419   1.916   0.822   0.136 -0.8763 -0.6709 -0.5856
   92SOL     OW  420   0.439   1.634   2.746  0.4755  0.0158  0.6911
   92SOL    HW1  421   0.392   1.712   2.776  0.1035  0.0281  0.1061
   92SOL    HW2  422   0.528   1.665   2.730  0.0933  0.5829 -0.5067
   93SOL     OW  423   2.789   3.024   2.560 -0.4795 -0.4401  0.0790
   93SOL    HW1  424   2.808   3.072   2.479  0.9747 -3.3038 -1.4559
   93SOL    HW2  425   2.875   2.998   2.593 -1.1431 -0.6628  1.7095
   94SOL     OW  426   3.344   2.149   2.188  0.1838  0.1568 -0.4484
   94SOL    HW1  427   3.272   2.127   2.247  0.0947  1.6975  0.0448
   94SOL    HW2  428   3.353   2.244   2.194  1.5583  0.1163 -1.3270
   95SOL     OW  429   1.182   1.850   2.046  0.2429 -0.0828 -0.0550
   95SOL    HW1  430   1.128   1.771   2.053 -2.3093  1.5342 -0.2573
   95SOL    HW2  431   1.141   1.913   2.106  0.5096  1.9395 -1.8678
   96SOL     OW  432   3.052   2.826   1.922 -0.4783 -0.2135  0.5240
   96SOL    HW1  433   2.991   2.898   1.942  0.6617  0.7108  0.7947
   96SOL    HW2  434   3.139   2.863   1.939  0.2161 -1.2172 -0.7146
   97SOL     OW  435   3.442   3.195   2.594 -0.5337 -0.5583  0.1030
   97SOL    HW1  436   3.393   3.208   2.513 -1.2787 -0.5309  0.5503
   97SOL    HW2  437   3.380   3.154   2.654 -0.2923  0.2849  0.9673
   98SOL     OW  438   3.078   0.585   3.640  0.3272 -0.1411  0.2169
   98SOL    HW1  439   3.047   0.585   3.549  1.0699  4.0789 -0.2350
   98SOL    HW2  440   3.013   0.636   3.688  1.7054  0.7398  1.2406
   99SOL     OW  441   1.689   3.167   3.725 -0.6195  0.1922 -0.0399
   99SOL    HW1  442   1.771   3.213   3.710 -0.5346  1.0049  2.4505
   99SOL    HW2  443   1.713   3.095   3.783 -1.2705 -1.2298 -1.4595
  100SOL     OW  444   3.659   0.273   0.575 -0.2700 -0.1899  0.3378
  100SOL    HW1  445   3.707   0.249   0.654  1.4716 -0.6914 -0.8030
  100SOL    HW2  446   3.685   0.363   0.557 -0.2596 -0.2444  0.0706
  101SOL     OW  447   2.009   2.761   3.323 -0.4613  0.5186  0.2846
  101SOL    HW1  448   2.056   2.678   3.325 -1.5354 -0.2011 -1.4591
  101SOL    HW2  449   1.922   2.741   3.358 -0.2922  1.2588  1.1755
  102SOL     OW  450   1.243   1.630   1.349 -0.1687  0.9327  0.4573
  102SOL    HW1  451   1.271   1.540   1.364  0.8757  1.3565  1.1410
  102SOL    HW2  452   1.288   1.656   1.269 -1.6368  0.3976 -0.6078
  103SOL     OW  453   2.954   0.634   1.256  0.0260  0.4942  0.5925
  103SOL    HW1  454   2.935   0.577   1.330 -2.8331  1.7983  1.0316
  103SOL    HW2  455   2.940   0.723   1.290  0.5586  1.2413 -1.0139
  104SOL     OW  456   0.725   3.494   0.562  0.2677 -0.1783  0.0104
  104SOL    HW1  457   0.667   3.484   0.638 -1.1018 -0.8460 -1.0922
  104SOL    HW2  458   0.727   3.407   0.522 -1.0378  0.7099 -2.1113
  105SOL     OW  459   0.267   2.191   3.000  0.1520  0.5367 -0.1357
  105SOL    HW1  460   0.194   2.169   2.942 -1.8393  0.6656  2.1372
  105SOL    HW2  461   0.235   2.266   3.051  1.7038  0.3216  1.2411
  106SOL     OW  462   3.300   0.147   1.709 -0.1069 -0.0366  0.0414
  106SOL    HW1  463   3.211   0.181   1.707 -1.0694 -2.2441  1.3748
  106SOL    HW2  464   3.290   0.052   1.709  2.2840 -0.3643 -0.3663
  107SOL     OW  465   2.085   1.170   2.986 -0.5494  0.5636 -0.3757
  107SOL    HW1  466   2.072   1.166   3.081 -2.5241  1.7796 -0.5293
  107SOL    HW2  467   2.111   1.081   2.962 -1.4931 -0.1827  1.1307
  108SOL     OW  468   0.615   1.506   1.061 -0.2865 -0.6734  0.2879
  108SOL    HW1  469   0.641   1.446   0.991  2.0875 -0.8337  1.2115
  108SOL    HW2  470   0.618   1.593   1.022  2.4650 -0.6165  0.4659
  109SOL     OW  471   0.965   2.128   2.012  0.2190 -0.6498 -0.0274
  109SOL    HW1  472   1.057   2.150   2.027 -0.4697  2.1688  0.6480
  109SOL    HW2  473   0.956   2.128   1.917  0.8892 -0.9349 -0.0989
  110SOL     OW  474   0.162   0.139   2.521 -0.1000  0.2986 -0.2153
  110SOL    HW1  475   0.205   0.087   2.590 -1.2894  0.9954  1.1133
  110SOL    HW2  476   0.128   0.074   2.460  1.3777 -0.3267 -0.4203
  111SOL     OW  477   3.775   0.758   3.403 -0.1757  0.1256 -0.4116
  111SOL    HW1  478   3.714   0.830   3.389 -0.6185 -0.5005 -1.8080
  111SOL    HW2  479   3.732   0.681   3.366  1.0164 -0.5382 -0.4870
  112SOL     OW  480   0.700   1.569   1.815  0.3828  0.5087 -0.5685
  112SOL    HW1  481   0.686   1.542   1.906  0.3724  0.7752 -0.4912
  112SOL    HW2  482   0.733   1.490   1.772 -0.9790 -0.0463 -0.6661
  113SOL     OW  483   2.251   1.930   2.525 -0.0667  0.2617 -0.0986
  113SOL    HW1  484   2.188   1.886   2.469  0.6288  1.3375 -1.8081
  113SOL    HW2  485   2.210   2.014   2.547  0.2359  0.4351 -0.1828
  114SOL     OW  486   0.246   0.403   1.531 -0.1119 -0.3246 -0.1270
  114SOL    HW1  487   0.174   0.467   1.530  0.8690  0.8134  0.1620
  114SOL    HW2  488   0.281   0.409   1.620  0.4403 -0.7448 -0.3133
  115SOL     OW  489   2.883   2.369   3.108 -0.7491  0.3154 -0.3509
  115SOL    HW1  490   2.801   2.334   3.072 -0.9145 -0.1306  0.4323
  115SOL    HW2  491   2.874   2.356   3.202 -0.3458  1.5085 -0.1450
  116SOL     OW  492   3.147   1.768   1.837 -0.5763  0.3248  0.0892
  116SOL    HW1  493   3.208   1.757   1.764 -1.3149  0.4644 -0.5572
  116SOL    HW2  494   3.204   1.771   1.915  0.6263  3.8605 -0.7160
  117SOL     OW  495   0.820   0.090   2.289  0.5091 -0.4099 -0.2641
  117SOL    HW1  496   0.739   0.096   2.341  0.0995 -1.1340 -0.8083
  117SOL    HW2  497   0.856   0.179   2.292 -1.3736  0.4760 -1.7072
  118SOL     OW  498   1.402   3.590   1.643 -0.3301  0.1109  0.0422
  118SOL    HW1  499   1.310   3.602   1.620 -0.5805  0.5775  1.2356
  118SOL    HW2  500   1.430   3.675   1.675 -0.0780 -0.5479  1.6619
  119SOL     OW  501   1.522   3.467   2.255  0.4251 -0.1032 -0.1195
  119SOL    HW1  502   1.468   3.391   2.277  1.4873 -1.0791 -0.7476
  119SOL    HW2  503   1.606   3.429   2.230  1.0352  1.3080 -0.2784
  120SOL     OW  504   1.992   0.108   1.240  0.0117 -0.1454 -0.4334
  120SOL    HW1  505   2.038   0.041   1.189  0.0834  0.1921 -0.8259
  120SOL    HW2  506   1.921   0.062   1.284  0.1354 -0.4980 -0.6059
  121SOL     OW  507   2.101   2.225   3.578  0.1040  0.2390 -0.1598
  121SOL    HW1  508   2.165   2.172   3.625  2.0841  2.0533 -0.6811
  121SOL    HW2  509   2.085   2.176   3.497  2.0315  0.4472 -0.7168
  122SOL     OW  510   1.346   0.225   0.513  0.1898 -0.5562  0.2447
  122SOL    HW1  511   1.271   0.226   0.573 -0.1866  0.0259 -0.2292
  122SOL    HW2  512   1.408   0.287   0.552 -0.7975  1.2099 -0.8791
  123SOL     OW  513   3.550   3.500   3.388  0.3276 -0.5898  0.0473
  123SOL    HW1  514   3.522   3.532   3.474 -1.4201 -0.3873 -0.5714
  123SOL    HW2  515   3.643   3.522   3.384  0.3070 -0.0900  1.6508
  124SOL     OW  516   0.317   1.405   2.675  0.0810 -0.1599 -0.2610
  124SOL    HW1  517   0.253   1.461   2.630  0.3497  0.1952 -0.2042
  124SOL    HW2  518   0.384   1.466   2.707  0.9501 -0.6149 -1.1408
  125SOL     OW  519   0.509   2.514   0.457  0.4905  0.3504  0.2524
  125SOL    HW1  520   0.481   2.605   0.471  1.1720  0.1877  3.0903
  125SOL    HW2  521   0.449   2.462   0.509  1.5123 -0.6132  0.5056
  126SOL     OW  522   3.574   3.256   2.880  0.6159 -0.3816 -0.0585
  126SOL    HW1  523   3.557   3.163   2.864  1.3198 -0.3870 -0.8260
  126SOL    HW2  524   3.544   3.300   2.800  0.7431 -0.0032  0.0985
  127SOL     OW  525   2.253   2.736   3.437  0.0209  0.3481 -0.0465
  127SOL    HW1  526   2.228   2.802   3.502 -0.0653  1.1060 -0.8272
  127SOL    HW2  527   2.338   2.766   3.404  0.9835 -1.0546  1.0485
  128SOL     OW  528   2.128   2.966   3.185 -0.3750  0.0377 -0.3873
  128SOL    HW1  529   2.099   2.894   3.242  0.5598  1.5753  2.1878
  128SOL    HW2  530   2.047   3.007   3.156 -0.8752 -0.5329  0.1692
  129SOL     OW  531   2.985   1.837   2.662  0.3357 -0.5482  0.4254
  129SOL    HW1  532   2.894   1.810   2.651 -0.4901  2.1917 -0.2907
  129SOL    HW2  533   3.033   1.790   2.594 -1.2728  0.8545 -1.8379
  130SOL     OW  534   3.390   1.005   3.641 -0.4103  0.1066  0.1964
  130SOL    HW1  535   3.346   0.925   3.672  0.4792 -0.0588  1.0801
  130SOL    HW2  536   3.475   1.003   3.684  0.2655  0.6930 -1.0802
  131SOL     OW  537   2.182   3.408   3.147  0.1580 -0.0676 -0.1099
  131SOL    HW1  538   2.171   3.335   3.208  0.3142  0.7367  0.8938
  131SOL    HW2  539   2.256   3.458   3.181 -0.4983  1.0575 -0.2799
  132SOL     OW  540   2.153   2.354   2.910 -0.4254  0.3077  0.1442
  132SOL    HW1  541   2.178   2.446   2.896  0.8717 -0.1123 -0.4698
  132SOL    HW2  542   2.173   2.337   3.002 -0.8127  0.6716  0.3004
  133SOL     OW  543   3.468   2.692   3.026  0.5499 -0.0091 -0.4058
  133SOL    HW1  544   3.397   2.726   3.080  0.1373 -0.4271 -0.6769
  133SOL    HW2  545   3.507   2.770   2.986  2.1050  0.5232  1.9360
  134SOL     OW  546   1.513   3.073   1.665 -0.1395 -0.0884 -0.1386
  134SOL    HW1  547   1.468   3.050   1.746 -1.2525 -0.1529 -0.7483
  134SOL    HW2  548   1.523   3.168   1.669  1.7517 -0.2943  1.0206
  135SOL     OW  549   1.068   2.065   3.035  0.1285 -0.5034  0.3154
  135SOL    HW1  550   1.073   2.060   3.131 -1.0476 -0.0992  0.4061
  135SOL    HW2  551   0.977   2.044   3.014  0.6646 -1.9242 -0.8178
  136SOL     OW  552   0.790   2.232   3.014  0.1738  0.2767  0.1348
  136SOL    HW1  553   0.698   2.234   2.989  0.3585  1.0537 -0.5342
  136SOL    HW2  554   0.802   2.308   3.070  0.3805  0.0897  0.3511
  137SOL     OW  555   0.104   1.915   3.423  0.7266 -0.6553  0.0994
  137SOL    HW1  556   0.051   1.836   3.429 -0.1643 -0.2588 -1.8042
  137SOL    HW2  557   0.194   1.883   3.416  0.5330 -1.4201  0.9343
  138SOL     OW  558   3.512   1.928   0.116 -0.0600 -0.2447 -0.2331
  138SOL    HW1  559   3.429   1.930   0.163  1.1960  0.3123  2.1031
  138SOL    HW2  560   3.523   1.836   0.090 -1.7373 -0.1830 -1.3439
  139SOL     OW  561   2.394   1.168   1.482  0.6390 -0.3089 -0.2919
  139SOL    HW1  562   2.408   1.073   1.485 -0.4836 -0.4869  1.9277
  139SOL    HW2  563   2.350   1.184   1.399  1.5054 -1.6205 -1.0366
  140SOL     OW  564   2.467   1.790   2.341  0.0086  0.6636 -0.2644
  140SOL    HW1  565   2.423   1.872   2.364  0.2699  0.5808  0.5746
  140SOL    HW2  566   2.447   1.731   2.413 -1.5882 -0.5888 -1.6656
  141SOL     OW  567   1.462   2.039   1.494 -0.0683  0.0756  0.3441
  141SOL    HW1  568   1.389   1.980   1.475  0.5785 -0.9452  0.8905
  141SOL    HW2  569   1.476   2.030   1.588  0.1815  0.9680  0.4038
  142SOL     OW  570   1.904   2.491   0.896  0.2527 -0.4120  0.1646
  142SOL    HW1  571   1.860   2.572   0.871  0.4826 -1.1122 -2.8926
  142SOL    HW2  572   1.995   2.517   0.911  0.6935 -0.2068 -2.3390
  143SOL     OW  573   1.756   0.752   1.918 -0.3779  0.3569  0.3437
  143SOL    HW1  574   1.764   0.848   1.913 -1.0046  0.3678 -1.0390
  143SOL    HW2  575   1.846   0.721   1.920  0.0080  0.8895 -3.0229
  144SOL     OW  576   2.930   2.892   1.051 -0.6265  0.3885 -0.0862
  144SOL    HW1  577   3.016   2.875   1.015 -0.8037 -1.6419  0.3045
  144SOL    HW2  578   2.869   2.858   0.986 -1.0177 -0.6682  0.7827
  145SOL     OW  579   3.171   0.403   0.643 -0.0429 -0.0602  0.6967
  145SOL    HW1  580   3.207   0.319   0.672 -0.2250  0.1503  1.5554
  145SOL    HW2  581   3.102   0.423   0.706 -1.2232 -0.1168 -0.5232
  146SOL     OW  582   3.100   0.795   0.780  0.8320 -0.2870  0.1682
  146SOL    HW1  583   3.096   0.760   0.869 -1.3440  0.0906  0.2698
  146SOL    HW2  584   3.140   0.881   0.791  1.2628 -0.5429  0.6684
  147SOL     OW  585   0.822   2.005   3.212 -0.0048 -0.4396 -0.2252
  147SOL    HW1  586   0.791   2.073   3.153 -0.8895 -0.7938 -0.1797
  147SOL    HW2  587   0.837   2.050   3.295 -1.3315 -0.4262  0.0261
  148SOL     OW  588   2.121   2.178   1.406 -0.7542  0.2647  0.2378
  148SOL    HW1  589   2.077   2.103   1.366  1.2866 -0.9689  0.1614
  148SOL    HW2  590   2.142   2.149   1.494  0.1104  0.6986  0.1842
  149SOL     OW  591   0.570   0.268   2.124  0.5654  0.0437  0.6312
  149SOL    HW1  592   0.655   0.281   2.081 -0.2992  1.4445 -0.7599
  149SOL    HW2  593   0.506   0.284   2.056 -0.8554  0.3950  1.9907
  150SOL     OW  594   3.450   2.457   1.919  0.4215 -0.0008 -0.6891
  150SOL    HW1  595   3.474   2.547   1.941  0.1983  0.0874 -0.8064
  150SOL    HW2  596   3.495   2.404   1.985  0.8345  0.1705 -0.8284
  151SOL     OW  597   0.717   2.963   0.275  0.3279 -0.0069  0.0746
  151SOL    HW1  598   0.670   2.976   0.192  0.2635 -1.1269 -0.0771
  151SOL    HW2  599   0.807   2.944   0.248  0.2245 -0.7436  0.2473
  152SOL     OW  600   0.394   1.069   1.770 -0.1402  0.2368 -0.3420
  152SOL    HW1  601   0.465   1.027   1.721  1.3007  1.4350  0.6280
  152SOL    HW2  602   0.331   0.998   1.784  1.4985 -1.2568 -0.0341
  153SOL     OW  603   1.433   2.395   2.946  0.7471  0.5127 -0.2776
  153SOL    HW1  604   1.524   2.368   2.939  1.2200  2.0777 -0.7018
  153SOL    HW2  605   1.412   2.433   2.861  0.5867  2.6160  0.6181
  154SOL     OW  606   1.099   1.127   2.219  1.1780 -0.9009  0.1815
  154SOL    HW1  607   1.030   1.160   2.277  1.3049  1.8541 -1.0620
  154SOL    HW2  608   1.171   1.104   2.277  1.7575  2.8773  1.2278
  155SOL     OW  609   3.515   1.048   1.716 -0.0056 -0.5498 -0.1418
  155SOL    HW1  610   3.438   1.102   1.734 -0.0983 -1.3698  2.2120
  155SOL    HW2  611   3.479   0.960   1.700  0.3947 -0.8779  0.7015
  156SOL     OW  612   1.805   0.845   2.672  0.6433  0.4212  0.2194
  156SOL    HW1  613   1.724   0.840   2.723 -0.2520  1.9219 -0.9676
  156SOL    HW2  614   1.868   0.885   2.731 -0.0604  1.0871  0.5357
  157SOL     OW  615   0.051   0.122   3.392 -0.2389  0.2388 -0.0440
  157SOL    HW1  616   0.063   0.181   3.466  1.9099 -0.5791  0.3266
  157SOL    HW2  617   0.077   0.173   3.316 -0.6748  0.4904 -0.0316
  158SOL     OW  618   0.020   3.028   0.918  0.0862  0.5407 -0.1347
  158SOL    HW1  619   0.085   3.062   0.980  0.1791 -1.2925  0.8322
  158SOL    HW2  620  -0.048   2.990   0.974 -0.4939  0.0354 -1.1663
  159SOL     OW  621   2.824   1.306   3.746 -0.2362 -0.5619  1.0351
  159SOL    HW1  622   2.905   1.255   3.742 -0.6340 -1.1743  0.4783
  159SOL    HW2  623   2.822   1.354   3.663  0.0518  0.2520  1.4847
  160SOL     OW  624   2.549   0.427   0.105  0.1572  0.0083  0.4911
  160SOL    HW1  625   2.491   0.467   0.040 -2.6737 -0.8614  2.3321
  160SOL    HW2  626   2.567   0.339   0.070  0.2497  0.2210 -0.0096
  161SOL     OW  627   2.713   2.387   3.580 -0.2155 -0.2481 -0.3866
  161SOL    HW1  628   2.664   2.466   3.556  0.1228  0.3809  0.9058
  161SOL    HW2  629   2.684   2.367   3.669  1.9139  0.2141  0.4689
  162SOL     OW  630   3.682   0.508   1.542 -0.1336  0.0147  0.2387
  162SOL    HW1  631   3.714   0.475   1.626 -0.2683  0.9727  0.6842
  162SOL    HW2  632   3.586   0.506   1.550 -0.1602  1.5342  0.7271
  163SOL     OW  633   1.198   0.031   0.411  0.5222  0.7665  0.9263
  163SOL    HW1  634   1.261   0.093   0.446  0.9958 -0.4997  2.4547
  163SOL    HW2  635   1.179  -0.027   0.485  0.8487 -1.4797 -0.6563
  164SOL     OW  636   1.437   1.435   0.227 -0.3027  0.3993 -0.0071
  164SOL    HW1  637   1.405   1.350   0.258  2.9287 -0.4767  1.4236
  164SOL    HW2  638   1.408   1.497   0.295 -0.7209  0.0387  0.1502
  165SOL     OW  639   2.095   2.966   2.826 -1.0234 -0.8657  0.0300
  165SOL    HW1  640   2.018   2.923   2.788 -2.1114  1.4477 -0.5053
  165SOL    HW2  641   2.116   2.912   2.903  0.0829 -4.5629 -2.5674
  166SOL     OW  642   3.320   0.117   3.078 -0.8025  0.5779 -0.3399
  166SOL    HW1  643   3.349   0.032   3.112 -0.2123  0.2659 -1.5741
  166SOL    HW2  644   3.279   0.160   3.153  1.7769  0.5415  1.2103
  167SOL     OW  645   2.918   1.341   0.638 -0.7853  0.4666 -0.2122
  167SOL    HW1  646   2.932   1.247   0.625 -0.9884  0.4751 -0.5002
  167SOL    HW2  647   2.981   1.383   0.580  0.8886  0.5377  1.5471
  168SOL     OW  648   0.922   0.349   3.701  0.1437  0.4775 -0.0431
  168SOL    HW1  649   0.889   0.305   3.623  1.8624 -0.6594 -0.1898
  168SOL    HW2  650   0.963   0.279   3.752  0.9485  1.5553  0.8326
  169SOL     OW  651   1.527   2.706   2.931 -0.7417 -0.4266  0.2982
  169SOL    HW1  652   1.567   2.659   2.858  1.2294  1.1329  0.2815
  169SOL    HW2  653   1.451   2.749   2.893 -0.7333 -1.0161 -0.4174
  170SOL     OW  654   2.655   1.632   0.637  0.0127 -0.3812  0.3552
  170SOL    HW1  655   2.684   1.588   0.557 -1.6612 -1.2133  0.1468
  170SOL    HW2  656   2.694   1.581   0.708 -0.7640 -1.3760  0.0882
  171SOL     OW  657   1.819   1.570   3.550  0.2142  0.7229  0.0314
  171SOL    HW1  658   1.809   1.483   3.511  1.6776  0.5395  0.0034
  171SOL    HW2  659   1.778   1.562   3.636 -2.5133  0.9623 -1.1451
  172SOL     OW  660   1.310   2.225   3.256  0.4819 -0.4566  0.0270
  172SOL    HW1  661   1.256   2.149   3.235 -0.3573 -0.3443  1.6731
  172SOL    HW2  662   1.399   2.199   3.231 -0.0263 -1.3624 -0.9045
  173SOL     OW  663   0.550   3.055   1.229 -0.3991  0.0832 -0.2450
  173SOL    HW1  664   0.494   2.981   1.206 -0.3417 -0.0536  0.0523
  173SOL    HW2  665   0.622   3.051   1.167 -0.5546  0.0704 -0.4237
  174SOL     OW  666   0.482   3.328   0.358 -0.6707 -0.6815 -0.5314
  174SOL    HW1  667   0.429   3.371   0.291  0.9013  0.6498 -0.9800
  174SOL    HW2  668   0.425   3.327   0.435 -1.0343  1.7086 -0.6743
  175SOL     OW  669   2.121   0.404   0.264 -0.0494  0.5702  0.0896
  175SOL    HW1  670   2.089   0.317   0.243 -0.9885  0.8657  0.2443
  175SOL    HW2  671   2.194   0.418   0.204  2.0098 -1.4136  1.9685
  176SOL     OW  672   2.938  -0.008   1.913 -0.1316  0.5643 -0.4255
  176SOL    HW1  673   2.983  -0.008   1.997 -0.9050  0.7377 -0.0033
  176SOL    HW2  674   2.989   0.053   1.859 -0.2802  1.3409  0.2827
  177SOL     OW  675   1.790   0.423   1.808 -0.4008 -0.6097 -0.9820
  177SOL    HW1  676   1.716   0.483   1.816 -1.2798 -1.6042 -1.5156
  177SOL    HW2  677   1.846   0.462   1.742 -1.1764 -0.5821 -1.6316
  178SOL     OW  678   1.848   0.114   2.125 -0.5252  0.3190  0.6949
  178SOL    HW1  679   1.838   0.114   2.030 -1.3973  1.2125  0.7666
  178SOL    HW2  680   1.892   0.031   2.144 -1.2634 -0.3603 -0.4003
  179SOL     OW  681   0.314   3.659   3.140  0.0887 -0.0528 -0.4327
  179SOL    HW1  682   0.240   3.661   3.079  0.3618 -1.6028 -0.8476
  179SOL    HW2  683   0.275   3.638   3.225  0.0307 -0.8015 -0.6380
  180SOL     OW  684   2.627   0.268   3.046  0.2074 -0.1253 -0.6470
  180SOL    HW1  685   2.542   0.309   3.031  0.9464  0.9539 -2.0495
  180SOL    HW2  686   2.618   0.228   3.133 -1.0754  1.6470  0.1161
  181SOL     OW  687   1.857   2.724   2.430 -0.3229  0.2054 -0.1320
  181SOL    HW1  688   1.835   2.814   2.453  0.5296  0.3431  0.1654
  181SOL    HW2  689   1.794   2.701   2.362  0.3875  1.5468 -1.3006
  182SOL     OW  690   3.685   0.451   1.243 -0.5409  0.3145 -0.0627
  182SOL    HW1  691   3.774   0.433   1.213 -0.4917 -0.0835  0.3108
  182SOL    HW2  692   3.697   0.511   1.317 -0.7135  2.1177 -1.4309
  183SOL     OW  693   0.729   3.110   2.608  0.2139 -0.6716  0.1487
  183SOL    HW1  694   0.760   3.142   2.693  0.1157  0.4886 -0.2214
  183SOL    HW2  695   0.645   3.070   2.626 -0.1154  0.1623  0.5188
  184SOL     OW  696   2.832   3.387   0.645  0.2018  0.5031 -0.2163
  184SOL    HW1  697   2.859   3.452   0.709  0.2549 -0.9623  1.3227
  184SOL    HW2  698   2.913   3.353   0.608  0.4483 -1.4352  1.8843
  185SOL     OW  699   3.197   2.384   2.523  0.0393  0.7886 -0.2412
  185SOL    HW1  700   3.190   2.446   2.596  0.9209 -0.3021  0.8157
  185SOL    HW2  701   3.283   2.402   2.486 -0.4366  1.3868 -1.0819
  186SOL     OW  702   1.138   3.068   0.081  0.6223  0.3878  0.5230
  186SOL    HW1  703   1.148   3.042   0.173  0.2277 -0.7049  0.2690
  186SOL    HW2  704   1.056   3.118   0.080  0.4785  0.1580  0.7162
  187SOL     OW  705   0.893   0.876   0.881 -0.4159  0.3557 -0.6366
  187SOL    HW1  706   0.915   0.909   0.794 -1.5046  0.1685 -0.9995
  187SOL    HW2  707   0.900   0.781   0.873  1.9563  0.3942  0.1969
  188SOL     OW  708   2.511   2.173   0.828 -0.1406 -0.4897 -0.1644
  188SOL    HW1  709   2.574   2.148   0.896  0.2582  0.8443 -0.0150
  188SOL    HW2  710   2.476   2.090   0.796  1.3782 -1.2498  0.0553
  189SOL     OW  711   1.550   0.852   2.551  0.1300 -0.0902 -0.4875
  189SOL    HW1  712   1.463   0.836   2.514  0.0430 -1.9460  0.3894
  189SOL    HW2  713   1.610   0.828   2.480 -0.0647 -2.3606  0.0181
  190SOL     OW  714   1.771   0.175   2.862 -0.0756 -0.0089  0.0464
  190SOL    HW1  715   1.854   0.127   2.858 -0.0568  0.0887 -1.5013
  190SOL    HW2  716   1.704   0.108   2.861 -0.0227 -0.0612 -0.1761
  191SOL     OW  717   3.263   1.922   0.256 -0.0892 -0.6299  0.5463
  191SOL    HW1  718   3.182   1.898   0.300  0.6506 -3.2682  0.6561
  191SOL    HW2  719   3.236   1.948   0.167 -1.0685 -1.2301  0.6562
  192SOL     OW  720   0.097   1.673   0.169 -0.0446  0.1406  0.9866
  192SOL    HW1  721   0.170   1.723   0.134 -1.7466  1.1877 -1.2809
  192SOL    HW2  722   0.135   1.588   0.192  1.8623  0.6359 -0.1585
  193SOL     OW  723   1.141   1.128   0.796  0.5308 -0.2835  0.1161
  193SOL    HW1  724   1.222   1.078   0.808  1.5532  1.7402  2.6550
  193SOL    HW2  725   1.078   1.087   0.854  0.6324 -0.0983  0.3584
  194SOL     OW  726   1.533   3.106   2.285 -0.1827  0.7948 -0.2505
  194SOL    HW1  727   1.501   3.153   2.362 -0.3445  2.5408 -1.3187
  194SOL    HW2  728   1.501   3.016   2.297 -0.6365  1.1401  1.4481
  195SOL     OW  729   0.676   1.237   2.749 -1.0180 -0.4548  0.3795
  195SOL    HW1  730   0.632   1.313   2.709 -1.1183 -0.3366  0.7107
  195SOL    HW2  731   0.716   1.272   2.829  2.6822  0.2790 -1.5747
  196SOL     OW  732   0.664   2.441   0.938 -0.1788  0.1088 -0.7034
  196SOL    HW1  733   0.715   2.510   0.896 -0.5144  0.2220 -0.9300
  196SOL    HW2  734   0.577   2.448   0.898 -0.0065 -0.9509 -1.3059
  197SOL     OW  735   0.805   2.255   2.525 -0.2190 -0.3789 -0.7086
  197SOL    HW1  736   0.819   2.175   2.576 -0.5557  0.0553  0.0804
  197SOL    HW2  737   0.804   2.325   2.590 -0.9875  0.1514 -1.2806
  198SOL     OW  738   0.482   1.534   1.596 -0.1226 -0.0726 -0.2457
  198SOL    HW1  739   0.489   1.439   1.608 -1.2863 -0.2803 -1.0026
  198SOL    HW2  740   0.543   1.571   1.660 -0.5208 -1.2886  0.8823
  199SOL     OW  741   2.256   2.034   0.451 -0.0825  0.3023 -0.3743
  199SOL    HW1  742   2.187   1.988   0.499  1.0165  2.2591  3.5725
  199SOL    HW2  743   2.217   2.119   0.429 -0.5697 -0.5686 -3.2152
  200SOL     OW  744   2.438   1.393   0.482  0.5034  0.4782  0.2007
  200SOL    HW1  745   2.364   1.333   0.491  0.5175  0.3575 -0.4351
  200SOL    HW2  746   2.421   1.462   0.546 -0.3471  0.6479 -0.1934
  201SOL     OW  747   0.881   0.616   3.068 -0.3014  0.7666  0.7273
  201SOL    HW1  748   0.816   0.550   3.041  0.6071  0.4960 -0.9103
  201SOL    HW2  749   0.845   0.652   3.149 -0.5526 -2.1621  2.0453
  202SOL     OW  750   2.704   1.589   1.545 -0.2050 -0.6069  0.0867
  202SOL    HW1  751   2.708   1.494   1.558 -0.2717 -0.7012 -0.5444
  202SOL    HW2  752   2.611   1.609   1.539 -0.1641 -0.6913 -1.0440
  203SOL     OW  753   1.713   2.375   0.508  0.2518 -0.5859 -0.1455
  203SOL    HW1  754   1.771   2.311   0.467 -0.5131 -0.7164 -1.0578
  203SOL    HW2  755   1.637   2.379   0.451 -1.5299 -1.8190  1.9692
  204SOL     OW  756   0.658   2.388   0.258 -0.0540  0.7792  0.1452
  204SOL    HW1  757   0.594   2.396   0.329 -1.4974  2.5321 -1.2423
  204SOL    HW2  758   0.655   2.473   0.213  2.4086  0.4885 -0.7272
  205SOL     OW  759   1.120   2.437   1.227  0.4051 -0.2628 -0.3297
  205SOL    HW1  760   1.072   2.415   1.307  0.0727  1.8601  0.0948
  205SOL    HW2  761   1.053   2.455   1.162  0.6582 -0.1219 -0.5545
  206SOL     OW  762   2.488   1.109   0.832 -0.0107 -0.2018  0.1266
  206SOL    HW1  763   2.496   1.064   0.749  1.8784  0.4331 -0.0826
  206SOL    HW2  764   2.485   1.039   0.898  0.9371 -0.6632 -0.3142
  207SOL     OW  765   0.547   3.309   1.341  0.0854  0.3457 -0.0076
  207SOL    HW1  766   0.534   3.234   1.283  0.9207  1.0034 -1.0969
  207SOL    HW2  767   0.594   3.273   1.416 -1.6568 -0.6616  0.6637
  208SOL     OW  768   0.901   1.516   3.544  0.0975  0.2830 -0.2228
  208SOL    HW1  769   0.877   1.476   3.627 -0.5734  1.3692  0.1177
  208SOL    HW2  770   0.890   1.445   3.480  0.7503 -0.6004  0.6024
  209SOL     OW  771   2.902   2.405   2.275  0.3152  0.3861  0.3570
  209SOL    HW1  772   2.947   2.411   2.191 -0.7120  3.3575 -0.1231
  209SOL    HW2  773   2.973   2.408   2.340  1.2240 -3.3142 -0.2457
  210SOL     OW  774   1.618   2.283   0.968 -0.6493 -0.0119 -0.0595
  210SOL    HW1  775   1.575   2.353   0.919 -0.7848 -0.9203 -1.2958
  210SOL    HW2  776   1.583   2.202   0.930 -1.1370 -0.7818  1.8965
  211SOL     OW  777   2.769   0.866   3.497  0.4247 -0.0047  0.3849
  211SOL    HW1  778   2.753   0.960   3.486 -0.3680 -0.1950 -0.1052
  211SOL    HW2  779   2.703   0.837   3.560  1.2303 -0.0764  1.2300
  212SOL     OW  780   2.344   1.958   3.548 -0.2118  0.2908 -0.4361
  212SOL    HW1  781   2.365   2.007   3.628 -0.5775  1.4238 -1.0148
  212SOL    HW2  782   2.250   1.970   3.537 -0.5136 -1.4188 -0.0392
  213SOL     OW  783   1.611   1.531   0.600 -0.6964 -0.0802  0.8122
  213SOL    HW1  784   1.666   1.583   0.542 -0.7693  1.5707  2.1287
  213SOL    HW2  785   1.665   1.457   0.624  0.0309  0.2195  0.1420
  214SOL     OW  786   2.342   0.960   2.535  0.7211  0.2635  0.0066
  214SOL    HW1  787   2.296   0.899   2.478 -0.4961 -0.4420  1.6588
  214SOL    HW2  788   2.273   1.003   2.585  1.7625 -0.1272  1.8944
  215SOL     OW  789   0.343   1.810   3.408  0.0954 -0.2785  0.1002
  215SOL    HW1  790   0.421   1.831   3.357  0.5835 -1.8596  0.1472
  215SOL    HW2  791   0.375   1.801   3.498 -0.5862  1.4684  0.5714
  216SOL     OW  792   2.886   0.589   2.885  0.3426 -0.2343  0.0710
  216SOL    HW1  793   2.898   0.601   2.791 -0.1770  4.4217  0.3561
  216SOL    HW2  794   2.791   0.586   2.896  0.3593  0.6269  0.5152
  217SOL     OW  795   0.250   1.061   0.245  0.1981 -0.5202  0.6980
  217SOL    HW1  796   0.240   1.109   0.328  0.1354 -1.3314  1.1663
  217SOL    HW2  797   0.165   1.020   0.230  0.7228 -1.8182  1.1539
  218SOL     OW  798   2.666   1.363   3.286 -0.1411 -0.1778 -0.2465
  218SOL    HW1  799   2.685   1.380   3.193 -3.2630 -0.4217 -1.0536
  218SOL    HW2  800   2.611   1.437   3.313  1.3331  0.2808  1.6913
  219SOL     OW  801   1.605   0.092   2.473  0.2255 -1.0802 -0.4849
  219SOL    HW1  802   1.696   0.089   2.501  0.5340  0.6554 -1.2097
  219SOL    HW2  803   1.584   0.185   2.469 -1.2345 -1.4239 -1.4499
  220SOL     OW  804   2.461   2.617   2.662 -0.9925  0.9640 -0.0897
  220SOL    HW1  805   2.540   2.663   2.688 -0.0319 -0.7864  0.2163
  220SOL    HW2  806   2.475   2.597   2.569 -0.2157 -0.9099  0.3849
  221SOL     OW  807   0.081   3.264   0.759 -0.0772  0.5069  0.2729
  221SOL    HW1  808   0.017   3.325   0.796 -0.1005 -0.6128  2.2351
  221SOL    HW2  809   0.076   3.188   0.816  2.6055  0.1563  0.1365
  222SOL     OW  810   3.121   2.602   0.491 -0.6789  0.3416 -0.0992
  222SOL    HW1  811   3.204   2.576   0.453 -1.4470  0.7817 -2.2333
  222SOL    HW2  812   3.100   2.533   0.554  0.5783 -0.5483 -0.6264
  223SOL     OW  813   2.249   0.249   1.324 -0.1575  0.1416 -0.0888
  223SOL    HW1  814   2.179   0.278   1.264  0.5928  0.1533 -0.9802
  223SOL    HW2  815   2.269   0.326   1.377 -0.7288  0.1755  0.0839
  224SOL     OW  816   3.051   2.669   3.421  0.3748  0.2677 -0.1016
  224SOL    HW1  817   2.958   2.672   3.400  0.5651  0.5368 -0.9478
  224SOL    HW2  818   3.075   2.760   3.437  0.9066  0.4623 -1.8394
  225SOL     OW  819   2.285   0.526   1.100 -0.5786 -0.9075  0.3490
  225SOL    HW1  820   2.333   0.494   1.024 -0.1358 -0.7514  0.5649
  225SOL    HW2  821   2.214   0.462   1.112  0.1436 -1.6690  0.6175
  226SOL     OW  822   3.283   1.236   3.280 -0.5303  0.4130  0.0119
  226SOL    HW1  823   3.297   1.330   3.265 -0.4650  0.2965 -0.7130
  226SOL    HW2  824   3.188   1.227   3.287 -0.5528  0.5071 -0.1437
  227SOL     OW  825   3.210   0.674   2.450  0.5259 -0.0129 -0.0799
  227SOL    HW1  826   3.205   0.607   2.382 -0.2946  1.0320 -1.1026
  227SOL    HW2  827   3.222   0.625   2.531  0.9249 -1.3308 -0.9003
  228SOL     OW  828   2.532   1.218   1.868 -0.2196  0.2220  0.0425
  228SOL    HW1  829   2.532   1.182   1.957 -1.7289  1.2383  0.4751
  228SOL    HW2  830   2.571   1.148   1.815  0.0847 -0.6697  1.3779
  229SOL     OW  831   3.689   1.839   0.335 -0.5758 -0.3764 -0.2965
  229SOL    HW1  832   3.758   1.873   0.393  0.4436  1.6552 -2.5178
  229SOL    HW2  833   3.737   1.794   0.265 -1.6920 -1.3775 -0.4471
  230SOL     OW  834   0.561   2.165   1.638 -0.1182 -0.0372 -0.3516
  230SOL    HW1  835   0.479   2.209   1.660  0.2574  0.6648 -0.3462
  230SOL    HW2  836   0.537   2.102   1.570 -1.0351 -1.2343  1.0165
  231SOL     OW  837   0.021   3.387   3.541 -0.3622 -0.6080 -0.3758
  231SOL    HW1  838  -0.018   3.301   3.526 -0.9369 -0.8418  2.0953
  231SOL    HW2  839   0.104   3.368   3.585  1.4780  0.0081 -3.2906
  232SOL     OW  840   2.190   2.471   2.522 -0.2384 -0.0710 -0.1770
  232SOL    HW1  841   2.235   2.398   2.565 -1.5387 -1.1509 -0.5896
  232SOL    HW2  842   2.154   2.434   2.441 -1.7486  0.7546  0.0653
  233SOL     OW  843   1.966   2.907   1.479  0.1149 -0.1392 -0.0079
  233SOL    HW1  844   1.874   2.910   1.503  0.2362 -0.2619  0.4818
  233SOL    HW2  845   1.970   2.846   1.406 -0.0136 -1.1274  0.7938
  234SOL     OW  846   3.434   0.190   2.616 -0.4175  0.1894 -0.7609
  234SOL    HW1  847   3.456   0.109   2.661 -0.5783  0.7611  0.3785
  234SOL    HW2  848   3.519   0.228   2.592 -0.2465  0.6683  0.5171
  235SOL     OW  849   2.371   2.347   0.507  0.0810  0.4144  0.1560
  235SOL    HW1  850   2.456   2.325   0.470 -0.2518 -0.5575 -0.0521
  235SOL    HW2  851   2.309   2.334   0.434 -0.4139 -0.2432  0.6835
  236SOL     OW  852   3.680   2.539   0.334 -0.0669 -0.1574 -0.2093
  236SOL    HW1  853   3.592   2.573   0.353 -0.0052  0.7517 -1.4890
  236SOL    HW2  854   3.738   2.590   0.390 -0.2534 -0.0927 -0.0739
  237SOL     OW  855   2.852   1.069   1.997 -0.5832  0.1334  0.1582
  237SOL    HW1  856   2.934   1.023   2.016 -0.8840 -0.5162 -0.0877
  237SOL    HW2  857   2.879   1.155   1.965 -0.0332  0.7599  2.1581
  238SOL     OW  858   1.995   0.712   1.456 -0.2245 -0.2561 -0.0866
  238SOL    HW1  859   2.017   0.696   1.364  1.0293  1.0277 -0.0569
  238SOL    HW2  860   1.942   0.792   1.454 -2.9436 -1.9260  0.0889
  239SOL     OW  861   2.848   0.686   2.621 -0.1730  0.1702 -0.3224
  239SOL    HW1  862   2.882   0.757   2.567 -0.1632  0.0976 -0.4127
  239SOL    HW2  863   2.759   0.671   2.589  0.4066 -0.9917 -1.4501
  240SOL     OW  864   0.249   1.030   2.988  1.1055 -0.1446 -0.1880
  240SOL    HW1  865   0.155   1.045   2.990  1.0138 -0.6752 -0.3719
  240SOL    HW2  866   0.268   1.010   2.897  1.1782 -1.3352  0.0693
  241SOL     OW  867   1.594   0.994   1.700 -0.3117  0.1336 -0.2361
  241SOL    HW1  868   1.534   1.050   1.650  1.0727  2.0261  0.1266
  241SOL    HW2  869   1.555   0.991   1.788 -1.1567 -0.7234 -0.6175
  242SOL     OW  870   2.734   2.737   0.158  0.6160  0.0783  0.1484
  242SOL    HW1  871   2.653   2.687   0.150  1.8761 -1.8824 -1.6184
  242SOL    HW2  872   2.803   2.671   0.154  2.3477  1.8123 -0.3101
  243SOL     OW  873   3.470   2.645   2.249  0.0155 -0.1525 -0.0878
  243SOL    HW1  874   3.418   2.719   2.281  0.7542 -0.1469  1.1761
  243SOL    HW2  875   3.525   2.682   2.179  0.2819  0.4738  0.4433
  244SOL     OW  876   0.904   1.836   1.930 -0.2303 -0.3578  0.2480
  244SOL    HW1  877   0.940   1.892   1.999  2.6161 -1.9588  0.1951
  244SOL    HW2  878   0.947   1.866   1.850 -1.4419 -0.2982 -0.4053
  245SOL     OW  879   0.340   0.570   3.045  0.8459  0.0390  0.2407
  245SOL    HW1  880   0.273   0.629   3.080  0.8815 -0.3957  1.0543
  245SOL    HW2  881   0.402   0.628   3.002  0.6958  0.5764  0.7332
  246SOL     OW  882  -0.010   0.045   2.794  0.0448 -0.0701 -0.3184
  246SOL    HW1  883   0.070   0.041   2.742 -0.7148 -1.4822 -1.4398
  246SOL    HW2  884  -0.053   0.126   2.766  0.9361  0.5746  0.1194
  247SOL     OW  885   1.463   2.222   0.693  0.0097 -0.3786  0.0162
  247SOL    HW1  886   1.412   2.176   0.760 -2.3781  0.0032 -1.3987
  247SOL    HW2  887   1.461   2.314   0.721 -0.3102 -0.3321 -0.1484
  248SOL     OW  888   2.914   0.135   2.386 -0.1761  0.2326  0.3045
  248SOL    HW1  889   2.898   0.196   2.314  2.2279  2.4930  1.5442
  248SOL    HW2  890   2.884   0.182   2.464  1.0040 -0.4674  1.2092
  249SOL     OW  891   2.307   3.497   2.318  0.3146  0.0854 -0.4612
  249SOL    HW1  892   2.354   3.414   2.311 -0.6139 -0.3202 -2.6203
  249SOL    HW2  893   2.349   3.554   2.254 -0.3689  0.5849 -0.4778
  250SOL     OW  894   2.361   1.260   1.200  0.0451  0.4418 -0.5644
  250SOL    HW1  895   2.393   1.347   1.179  0.5567  0.2233 -0.7057
  250SOL    HW2  896   2.308   1.235   1.125 -1.1071  1.1108  0.0005
  251SOL     OW  897   0.890   0.803   1.385  0.0133 -0.0444 -0.2522
  251SOL    HW1  898   0.971   0.756   1.368  0.1513  0.9003 -2.5935
  251SOL    HW2  899   0.890   0.818   1.480  0.1654 -4.2255  0.5915
  252SOL     OW  900   3.392   1.263   3.548  0.2355  0.2179 -0.2553
  252SOL    HW1  901   3.376   1.261   3.453 -0.5449  0.6314 -0.1395
  252SOL    HW2  902   3.340   1.191   3.582  1.1290 -0.4212 -0.2198
  253SOL     OW  903   0.764   3.153   2.879 -0.1929 -0.1360  0.0320
  253SOL    HW1  904   0.828   3.086   2.902 -1.0892 -1.6359 -1.6309
  253SOL    HW2  905   0.695   3.144   2.945 -0.3345 -0.8913 -0.2168
  254SOL     OW  906   1.880   0.088   2.442  0.0365 -0.0396 -0.2120
  254SOL    HW1  907   1.968   0.097   2.405 -0.4235  1.6378 -1.0087
  254SOL    HW2  908   1.878   0.150   2.515 -0.8793  0.9714 -1.0599
  255SOL     OW  909   0.427   0.660   1.070  0.2512 -0.0169 -0.0564
  255SOL    HW1  910   0.512   0.675   1.112  0.7139 -1.6833 -0.3393
  255SOL    HW2  911   0.447   0.613   0.989 -0.8813  0.3739 -0.5959
  256SOL     OW  912   0.404   1.216   3.119  0.5707  0.3077  0.5285
  256SOL    HW1  913   0.385   1.133   3.075  2.0397  1.1231 -1.8438
  256SOL    HW2  914   0.409   1.280   3.048  1.8235  1.9861  2.0258
  257SOL     OW  915   1.243   0.915   1.094 -0.3770  0.3542  0.4562
  257SOL    HW1  916   1.337   0.932   1.085  0.0079 -0.1586  2.8239
  257SOL    HW2  917   1.207   0.995   1.132 -0.5117 -0.1386  1.4098
  258SOL     OW  918   1.991   1.698   1.805 -0.0574  0.4155  0.1853
  258SOL    HW1  919   1.961   1.776   1.758  0.2720  0.0900 -0.5846
  258SOL    HW2  920   2.038   1.647   1.739 -1.8790 -1.3544  0.1762
  259SOL     OW  921   2.054   3.491   1.310  0.2976  0.2337 -0.0635
  259SOL    HW1  922   1.969   3.494   1.268  0.3144 -0.2457 -0.1402
  259SOL    HW2  923   2.117   3.497   1.238  0.3336  1.0883  0.0325
  260SOL     OW  924   0.359   3.195   3.106 -0.5055  0.3169 -0.1604
  260SOL    HW1  925   0.283   3.208   3.050 -0.7672 -1.3590 -0.2468
  260SOL    HW2  926   0.425   3.256   3.073 -0.5460 -0.8164 -2.5293
  261SOL     OW  927   2.047   0.471   0.821 -0.0762 -0.0127 -0.6541
  261SOL    HW1  928   2.138   0.498   0.805 -0.1423  1.5735  1.2820
  261SOL    HW2  929   1.995   0.531   0.767 -0.0334  0.3613 -0.2837
  262SOL     OW  930   1.367   2.434   2.390  0.2969  0.2700  0.1459
  262SOL    HW1  931   1.409   2.362   2.344 -0.6641 -1.1609  1.4246
  262SOL    HW2  932   1.354   2.501   2.323  1.7053 -0.5148 -0.9479
  263SOL     OW  933   3.413   2.193   1.202  0.1275 -0.2777 -0.7568
  263SOL    HW1  934   3.441   2.260   1.264 -0.6011 -0.7201  0.0606
  263SOL    HW2  935   3.428   2.110   1.247 -0.8296 -0.5867 -0.9847
  264SOL     OW  936   3.124   2.619   2.113  0.7372 -0.7104  0.0151
  264SOL    HW1  937   3.132   2.706   2.072  1.1678 -0.8101 -0.1253
  264SOL    HW2  938   3.042   2.584   2.080  0.3176 -0.1601  0.4492
  265SOL     OW  939   3.743   2.445   1.752  0.3518  0.5671  0.5772
  265SOL    HW1  940   3.741   2.527   1.703 -2.4348 -0.2154 -0.8494
  265SOL    HW2  941   3.731   2.377   1.686  1.1811 -0.9113  1.8679
  266SOL     OW  942   2.533   2.722   1.792  0.3023  0.1623 -0.0076
  266SOL    HW1  943   2.586   2.697   1.867  0.5049 -1.2204 -0.5871
  266SOL    HW2  944   2.443   2.725   1.826  0.3326 -0.9307  0.1954
  267SOL     OW  945   3.717   2.736   0.061  0.5953  0.1502 -0.0691
  267SOL    HW1  946   3.785   2.670   0.075 -0.5906 -1.3326 -0.9678
  267SOL    HW2  947   3.672   2.743   0.145  0.7181 -0.2124  0.0280
  268SOL     OW  948   3.563   0.266   2.986 -0.2038  0.0135  0.0736
  268SOL    HW1  949   3.536   0.189   3.035  1.4325 -0.7615 -0.1607
  268SOL    HW2  950   3.635   0.304   3.037 -0.2003  0.6846 -0.4118
  269SOL     OW  951   2.489   3.255   0.355 -0.5127  0.1588 -0.5095
  269SOL    HW1  952   2.484   3.168   0.396 -1.0111  0.8792  1.0315
  269SOL    HW2  953   2.410   3.260   0.302 -1.1112  0.0973  0.3404
  270SOL     OW  954   2.877   3.025   1.939  0.1911 -0.6280 -0.2105
  270SOL    HW1  955   2.785   3.024   1.913 -0.0202  0.6971  0.4103
  270SOL    HW2  956   2.908   3.113   1.916  0.9726 -0.6604  0.6614
  271SOL     OW  957   2.532   1.021   1.206 -0.0971 -0.4532 -0.2591
  271SOL    HW1  958   2.451   1.071   1.195 -0.1291 -0.3361  0.4741
  271SOL    HW2  959   2.527   0.985   1.295 -0.1447 -1.8983 -0.8248
  272SOL     OW  960   2.500   1.420   1.441  0.2111  0.5425  0.3168
  272SOL    HW1  961   2.510   1.328   1.465  2.3299  0.5721 -0.2517
  272SOL    HW2  962   2.423   1.421   1.384 -1.7885 -0.3165  2.8079
  273SOL     OW  963   2.440   1.825   0.466  0.5370  0.2617 -0.1898
  273SOL    HW1  964   2.457   1.838   0.560 -1.0871 -0.7559  0.2921
  273SOL    HW2  965   2.391   1.903   0.440  0.7589  0.4249 -0.1165
  274SOL     OW  966   1.451   3.224   2.510  0.5770 -0.2839  0.4970
  274SOL    HW1  967   1.442   3.147   2.566  0.7764  0.2060  1.2220
  274SOL    HW2  968   1.420   3.297   2.564  3.8767  0.7344  1.2842
  275SOL     OW  969   0.639   3.207   0.045 -0.0064  0.3021  0.6634
  275SOL    HW1  970   0.613   3.216  -0.047  1.0332  0.8753  0.4040
  275SOL    HW2  971   0.568   3.158   0.086 -0.4996  0.0664 -0.4437
  276SOL     OW  972   3.322   3.259   3.426  0.4053 -0.3895 -0.8377
  276SOL    HW1  973   3.360   3.172   3.416  2.6233 -0.0478  2.8494
  276SOL    HW2  974   3.394   3.319   3.407  0.2168  0.4601  0.9576
  277SOL     OW  975   2.551   1.408   1.039  0.2719  0.2106  0.4051
  277SOL    HW1  976   2.607   1.331   1.047 -1.0954 -0.7053  1.6684
  277SOL    HW2  977   2.601   1.479   1.078  1.0756 -0.2916  0.3062
  278SOL     OW  978   2.626   1.398   0.303  0.0881 -0.8167 -0.8213
  278SOL    HW1  979   2.641   1.492   0.312 -0.8585 -0.6209 -1.1540
  278SOL    HW2  980   2.568   1.376   0.375 -0.5594 -0.9320 -1.3711
  279SOL     OW  981   2.384   1.589   0.675 -0.0199 -0.3224 -0.0921
  279SOL    HW1  982   2.469   1.634   0.679 -1.2596  2.1070  0.2280
  279SOL    HW2  983   2.368   1.560   0.765  0.2577 -0.4048 -0.0671
  280SOL     OW  984   2.740   2.906   3.036 -0.2516  0.8293 -0.1884
  280SOL    HW1  985   2.762   2.968   2.966 -1.8898 -0.0082 -1.5003
  280SOL    HW2  986   2.676   2.847   2.997 -1.3731  0.4390  2.0959
  281SOL     OW  987   0.565   1.905   2.847  0.3195 -0.2134 -0.2620
  281SOL    HW1  988   0.610   1.826   2.816 -1.1177 -0.5562 -1.5991
  281SOL    HW2  989   0.561   1.961   2.770  3.0737  2.1225  1.1072
  282SOL     OW  990   0.744   0.240   1.450  0.1130  0.1786 -0.1175
  282SOL    HW1  991   0.670   0.193   1.488  1.0979 -1.7160 -0.4243
  282SOL    HW2  992   0.817   0.178   1.455  1.9541  2.2538  0.9904
  283SOL     OW  993   0.476   3.075   3.339  0.1721 -0.1636  0.7060
  283SOL    HW1  994   0.567   3.087   3.314  0.0448  1.5107  0.9165
  283SOL    HW2  995   0.426   3.126   3.275 -0.3754  1.4324  2.3076
  284SOL     OW  996   0.462   3.673   2.361  0.2143  0.5758  0.6064
  284SOL    HW1  997   0.533   3.621   2.322 -0.2148  0.3368  0.1252
  284SOL    HW2  998   0.506   3.731   2.422  0.8743  0.6977  0.0295
  285SOL     OW  999   2.524   3.671   1.331  0.6764  0.0244 -0.7339
  285SOL    HW1 1000   2.559   3.682   1.419  0.5428 -1.0900 -0.5222
  285SOL    HW2 1001   2.601   3.656   1.276  0.6704 -0.6231 -0.5729
  286SOL     OW 1002   1.332   1.895   3.504 -0.0574  0.2270 -0.4073
  286SOL    HW1 1003   1.333   1.876   3.410 -0.3063  0.4369 -0.4522
  286SOL    HW2 1004   1.295   1.983   3.511 -2.2722 -0.6792  0.0529
  287SOL     OW 1005   0.579   0.895   1.610 -0.1124 -0.1619 -1.0907
  287SOL    HW1 1006   0.512   0.827   1.598  1.0599 -1.1970 -2.1020
  287SOL    HW2 1007   0.598   0.926   1.521  0.5124  0.3534 -0.7861
  288SOL     OW 1008   0.393   1.342   1.068 -0.1071 -1.1021  0.6982
  288SOL    HW1 1009   0.462   1.409   1.067  0.3834 -1.5822  1.3923
  288SOL    HW2 1010   0.405   1.297   1.152  1.0678 -3.6148 -0.7072
  289SOL     OW 1011   2.753   3.639   1.144  0.1404  0.1112  0.0433
  289SOL    HW1 1012   2.748   3.673   1.055  0.1492 -0.8333 -0.3385
  289SOL    HW2 1013   2.725   3.547   1.136 -1.0647  0.3443  1.2260
  290SOL     OW 1014   2.805   3.590   2.349  0.0361  0.2606 -0.8594
  290SOL    HW1 1015   2.738   3.614   2.285 -0.9067  1.6682  0.5431
  290SOL    HW2 1016   2.821   3.671   2.398  0.4096 -0.8289  0.9226
  291SOL     OW 1017   2.034   2.094   0.095 -0.5380  0.0029  0.1021
  291SOL    HW1 1018   1.967   2.050   0.147 -2.2522  0.7314 -1.3648
  291SOL    HW2 1019   1.986   2.159   0.044  0.9233 -0.8733 -2.6450
  292SOL     OW 1020   1.637   0.905   0.074  0.4069  0.1992  0.0953
  292SOL    HW1 1021   1.727   0.874   0.076 -0.0597 -1.2264  1.2556
  292SOL    HW2 1022   1.594   0.849   0.009  0.2423  0.4831 -0.0398
  293SOL     OW 1023   0.779   3.329   2.446 -0.2054 -0.5263  0.9926
  293SOL    HW1 1024   0.872   3.339   2.467 -0.4455  0.6536  1.5942
  293SOL    HW2 1025   0.754   3.246   2.488  0.3268 -0.2997  1.7908
  294SOL     OW 1026   0.290   3.352   3.619  0.3138  0.4149  0.2744
  294SOL    HW1 1027   0.274   3.315   3.532 -1.2581  2.7660 -0.5423
  294SOL    HW2 1028   0.380   3.382   3.616  1.0386 -1.6003  0.3405
  295SOL     OW 1029   2.492   2.102   3.158 -0.1746  0.0461  0.5222
  295SOL    HW1 1030   2.526   2.141   3.238  0.5492  0.3136  0.0966
  295SOL    HW2 1031   2.538   2.148   3.088  0.7319 -1.5909 -0.0007
  296SOL     OW 1032   0.690   0.011   1.264 -0.4252  0.4427 -0.1941
  296SOL    HW1 1033   0.641   0.084   1.226 -2.6297 -1.0950 -0.4868
  296SOL    HW2 1034   0.776   0.048   1.286 -0.1201  2.2231 -3.6803
  297SOL     OW 1035   1.264   2.158   2.495  0.1166  0.4628  0.0212
  297SOL    HW1 1036   1.221   2.073   2.499  0.2391  0.4239  0.6265
  297SOL    HW2 1037   1.316   2.155   2.415 -0.7776  0.4046 -0.5645
  298SOL     OW 1038   1.855   1.610   1.095 -0.3879  0.4417  0.6535
  298SOL    HW1 1039   1.866   1.705   1.095  0.2148  0.5318 -3.2990
  298SOL    HW2 1040   1.762   1.596   1.077  0.1221  0.5140 -2.6706
  299SOL     OW 1041   2.712   0.260   0.402 -0.0801  0.0606 -0.8288
  299SOL    HW1 1042   2.769   0.337   0.406 -0.3214  0.2068  2.2785
  299SOL    HW2 1043   2.624   0.295   0.419 -0.5613 -0.6593 -1.7080
  300SOL     OW 1044   1.307   1.081   1.597 -0.3103 -0.5146  0.1638
  300SOL    HW1 1045   1.370   1.124   1.539  0.9763 -0.8812  1.2278
  300SOL    HW2 1046   1.232   1.062   1.541  1.2434 -1.7284 -1.6647
  301SOL     OW 1047   1.858   0.265   2.633  0.0358 -0.5412 -0.3874
  301SOL    HW1 1048   1.946   0.300   2.648 -0.5079  1.2284 -1.0798
  301SOL    HW2 1049   1.822   0.251   2.721 -0.1363  1.8508 -0.0103
  302SOL     OW 1050   0.142   0.777   3.666 -0.1578  0.0899  0.1546
  302SOL    HW1 1051   0.116   0.768   3.574 -0.4073 -0.5977  0.2880
  302SOL    HW2 1052   0.208   0.709   3.679 -1.4627 -1.0749  0.9636
  303SOL     OW 1053   3.427   0.107   3.648 -0.1001 -0.5461 -0.4790
  303SOL    HW1 1054   3.515   0.099   3.685  0.2463  0.5405 -1.0410
  303SOL    HW2 1055   3.370   0.116   3.724  0.3853 -0.3054 -0.1362
  304SOL     OW 1056   1.322   1.189   2.639  0.2902  0.0512 -0.3837
  304SOL    HW1 1057   1.305   1.096   2.654  0.2008  0.1028 -0.1684
  304SOL    HW2 1058   1.417   1.197   2.642  0.2576  0.1132  0.4488
  305SOL     OW 1059   3.559   3.664   1.450  0.4461 -0.1905  0.2428
  305SOL    HW1 1060   3.500   3.718   1.397  0.2288  0.6410  1.2873
  305SOL    HW2 1061   3.631   3.723   1.473  0.9162 -0.7584  0.2559
  306SOL     OW 1062   2.703   2.749   2.098  0.5168  0.0202 -0.0245
  306SOL    HW1 1063   2.776   2.690   2.079  1.3084  1.1340 -0.5393
  306SOL    HW2 1064   2.733   2.802   2.172  1.1660  1.9875 -1.6059
  307SOL     OW 1065   1.111   2.970   2.515  0.8264 -0.3919  0.1748
  307SOL    HW1 1066   1.090   2.881   2.544 -2.2635 -0.3560 -1.4958
  307SOL    HW2 1067   1.111   2.965   2.420 -2.7485  1.8737 -0.1256
  308SOL     OW 1068   3.406   2.566   1.123 -0.3145  0.0161 -0.2648
  308SOL    HW1 1069   3.376   2.491   1.173 -0.5695 -0.1845 -0.7080
  308SOL    HW2 1070   3.420   2.635   1.188 -0.6729 -0.2277  0.0756
  309SOL     OW 1071   3.480   1.274   2.480 -0.0723 -0.7531  0.1973
  309SOL    HW1 1072   3.450   1.200   2.533 -1.1382  0.1007  0.8450
  309SOL    HW2 1073   3.428   1.348   2.511  0.3727  0.1016 -1.0139
  310SOL     OW 1074   2.786   1.990   1.922  0.1110 -0.4344  0.0210
  310SOL    HW1 1075   2.840   1.947   1.988  2.4022  0.4945 -1.1510
  310SOL    HW2 1076   2.800   1.938   1.842  0.7514  0.8699 -0.7392
  311SOL     OW 1077   1.557   3.433   0.690  0.1576  0.2770 -0.0209
  311SOL    HW1 1078   1.606   3.464   0.767  0.0200 -1.4385  0.8123
  311SOL    HW2 1079   1.482   3.492   0.685  0.3332  0.6204  0.9675
  312SOL     OW 1080   0.197   3.520   1.988 -0.1883 -0.4072 -0.3199
  312SOL    HW1 1081   0.179   3.426   1.987  0.4820 -0.6455  2.5355
  312SOL    HW2 1082   0.291   3.527   2.006 -0.1029  0.8457 -1.0774
  313SOL     OW 1083   1.299   0.687   2.166 -0.0096  0.5793 -0.0062
  313SOL    HW1 1084   1.213   0.659   2.198  0.1368 -0.6685 -0.6484
  313SOL    HW2 1085   1.281   0.729   2.082 -0.0036  0.4265 -0.0839
  314SOL     OW 1086   0.079   3.653   3.028  0.3825 -0.5486  0.3583
  314SOL    HW1 1087   0.011   3.588   3.042  0.4988 -0.7787 -0.1037
  314SOL    HW2 1088   0.045   3.709   2.958  0.7226 -0.7490  0.0271
  315SOL     OW 1089   3.330   1.233   2.791  0.1974 -0.3809 -0.4040
  315SOL    HW1 1090   3.268   1.174   2.747  1.2080 -0.1874 -2.1669
  315SOL    HW2 1091   3.344   1.192   2.877 -1.8053 -0.7976 -0.2115
  316SOL     OW 1092   1.935   2.245   0.427 -0.8538  0.1541  0.6061
  316SOL    HW1 1093   2.006   2.285   0.478 -0.1916  1.5477 -1.3090
  316SOL    HW2 1094   1.942   2.152   0.446  1.6033  0.2260  0.4028
  317SOL     OW 1095   2.233   2.733   1.865  0.1731 -0.5610  0.1037
  317SOL    HW1 1096   2.236   2.743   1.960 -0.3028  0.3260  0.0393
  317SOL    HW2 1097   2.150   2.773   1.839  1.2241  1.0790 -0.8976
  318SOL     OW 1098   3.261   1.934   2.769 -0.0206  0.7240 -0.1378
  318SOL    HW1 1099   3.274   1.864   2.833 -0.3368 -0.2015 -1.0598
  318SOL    HW2 1100   3.222   1.891   2.694  1.5548  1.5238 -1.4921
  319SOL     OW 1101   2.675   2.118   1.053  0.4813 -0.2374 -0.0443
  319SOL    HW1 1102   2.738   2.097   0.985  0.1456  0.2499 -0.5102
  319SOL    HW2 1103   2.729   2.152   1.126  0.8308 -0.6958 -0.0873
  320SOL     OW 1104   2.751   1.793   2.259 -0.0142  0.3661  0.3056
  320SOL    HW1 1105   2.779   1.880   2.285 -1.1342  1.1315 -0.8665
  320SOL    HW2 1106   2.655   1.795   2.268 -0.0645 -0.7025  0.1651
  321SOL     OW 1107   1.979   1.440   0.141  0.2551 -0.5488  0.0557
  321SOL    HW1 1108   2.067   1.427   0.176  0.9310  0.9806 -0.9336
  321SOL    HW2 1109   1.920   1.407   0.209  1.4868  1.7892  2.4472
  322SOL     OW 1110   1.446   1.922   3.253  0.0611  0.4673  0.3485
  322SOL    HW1 1111   1.514   1.966   3.304 -0.1895  1.9871 -0.5500
  322SOL    HW2 1112   1.464   1.947   3.162 -0.8133 -0.3375 -0.0680
  323SOL     OW 1113   0.352   1.324   3.356  0.1141  0.2033 -0.1056
  323SOL    HW1 1114   0.354   1.411   3.316 -1.6324  0.1918 -0.2830
  323SOL    HW2 1115   0.363   1.264   3.283 -2.3056  0.2055 -0.5441
  324SOL     OW 1116   1.298   0.827   0.299 -0.1573  0.2205 -0.4965
  324SOL    HW1 1117   1.353   0.897   0.334 -1.1422  0.6707  0.1928
  324SOL    HW2 1118   1.243   0.870   0.234  0.8653 -0.3914 -1.8131
  325SOL     OW 1119   0.440   3.607   0.487 -0.0374  0.6541  0.0052
  325SOL    HW1 1120   0.348   3.590   0.467 -0.4413 -0.1465  2.2997
  325SOL    HW2 1121   0.485   3.524   0.470 -0.3937 -0.0523  2.1863
  326SOL     OW 1122   1.059   0.694   2.360  0.3465  0.8690  0.3545
  326SOL    HW1 1123   1.014   0.629   2.414 -0.2381  0.6208 -0.4044
  326SOL    HW2 1124   1.133   0.722   2.413  0.3029 -0.0204  0.9180
  327SOL     OW 1125   2.043   2.703   2.255  1.1330  0.1694  0.1895
  327SOL    HW1 1126   2.048   2.795   2.228  1.1574  0.3907  0.9042
  327SOL    HW2 1127   1.989   2.705   2.334  0.4829 -0.5368 -0.2341
  328SOL     OW 1128   2.549   3.014   3.708  0.2044 -0.2620  0.0911
  328SOL    HW1 1129   2.570   3.107   3.701  0.0401 -0.3569 -2.5047
  328SOL    HW2 1130   2.508   3.006   3.795 -0.4564  2.2117  0.0935
  329SOL     OW 1131   2.975   1.948   0.200 -0.4001  0.1601 -0.1735
  329SOL    HW1 1132   2.936   1.872   0.244 -0.8823  0.5933  0.1514
  329SOL    HW2 1133   2.966   1.929   0.107  0.6979 -0.8052 -0.1224
  330SOL     OW 1134   0.923   2.050   2.665  0.1340  0.3033 -0.6943
  330SOL    HW1 1135   0.990   2.109   2.697  0.9779  0.2986 -2.3486
  330SOL    HW2 1136   0.970   1.970   2.640 -0.6197 -0.0791 -0.9383
  331SOL     OW 1137   2.436   2.175   1.671  0.2347  0.0482  0.5373
  331SOL    HW1 1138   2.519   2.137   1.698  0.7387 -0.5563 -1.6893
  331SOL    HW2 1139   2.370   2.114   1.704  0.7220 -0.0075  1.4334
  332SOL     OW 1140   1.735   2.373   3.690 -0.5338  0.0230 -0.0785
  332SOL    HW1 1141   1.667   2.428   3.728 -1.5521 -1.3944  0.2377
  332SOL    HW2 1142   1.789   2.347   3.765  1.0914  2.0258 -0.4636
  333SOL     OW 1143   3.141   2.500   3.028  0.6847  0.4393 -0.4150
  333SOL    HW1 1144   3.046   2.509   3.028  0.4695 -0.9257  2.3636
  333SOL    HW2 1145   3.171   2.563   3.093  1.3052 -1.4572  1.2296
  334SOL     OW 1146   0.762   0.181   0.656 -0.1965  0.4691  0.7185
  334SOL    HW1 1147   0.749   0.275   0.644 -0.0087  0.2464 -1.5440
  334SOL    HW2 1148   0.691   0.140   0.608 -0.2936 -0.5866  1.7105
  335SOL     OW 1149   3.474   2.766   1.903 -0.4532 -0.4156 -0.0316
  335SOL    HW1 1150   3.455   2.838   1.964  1.0205 -0.6711  0.7839
  335SOL    HW2 1151   3.566   2.778   1.881  0.3597 -3.0098  1.5013
  336SOL     OW 1152   3.172   0.398   2.996  0.5230  0.2909 -0.1340
  336SOL    HW1 1153   3.211   0.338   2.933 -0.4112 -2.4655  1.7358
  336SOL    HW2 1154   3.089   0.425   2.955  0.6796 -0.1513 -0.7619
  337SOL     OW 1155   3.398   3.473   1.569  0.1417  1.3509 -0.5388
  337SOL    HW1 1156   3.363   3.541   1.626  2.1019  3.0729 -1.2609
  337SOL    HW2 1157   3.468   3.516   1.520  1.8942 -1.3464 -0.6053
  338SOL     OW 1158   1.903   0.600   0.633  0.3463  0.4090  0.1466
  338SOL    HW1 1159   1.828   0.660   0.638  0.5304  0.8398 -1.6658
  338SOL    HW2 1160   1.968   0.647   0.582  0.8178 -1.0078 -0.6196
  339SOL     OW 1161   0.383   2.687   0.226  0.3804 -0.1663 -0.3501
  339SOL    HW1 1162   0.322   2.761   0.216  0.9358  0.2155 -1.0307
  339SOL    HW2 1163   0.331   2.610   0.202 -0.6795 -0.2426  1.9058
  340SOL     OW 1164   2.130   2.631   0.618 -0.0527 -0.3442  0.1399
  340SOL    HW1 1165   2.093   2.558   0.668 -2.3767 -0.4256 -1.5208
  340SOL    HW2 1166   2.077   2.706   0.642  0.4673  0.1617 -0.2766
  341SOL     OW 1167   3.131   1.875   0.492 -0.5573 -0.0256 -0.0337
  341SOL    HW1 1168   3.042   1.853   0.519 -1.2853 -0.3154 -2.4269
  341SOL    HW2 1169   3.157   1.946   0.551 -2.9328  1.0524 -0.1660
  342SOL     OW 1170   2.275   2.371   1.138  0.1440  0.9663  0.3436
  342SOL    HW1 1171   2.331   2.294   1.127 -2.2994 -1.3235  2.4144
  342SOL    HW2 1172   2.278   2.389   1.232  0.7931  3.6396 -0.0986
  343SOL     OW 1173   2.681   3.521   0.078 -0.1957  0.0865  0.1445
  343SOL    HW1 1174   2.753   3.582   0.091 -0.7223  0.5069  1.2834
  343SOL    HW2 1175   2.712   3.439   0.115 -0.1256  0.1404  0.2050
  344SOL     OW 1176   0.915   0.822   0.047 -0.4258 -0.1965 -0.1666
  344SOL    HW1 1177   0.841   0.796   0.102 -0.7767 -0.3448 -0.7018
  344SOL    HW2 1178   0.884   0.899  -0.001  0.4490  0.9686  1.0690
  345SOL     OW 1179   0.660   2.944   1.458 -0.1988 -0.5334 -0.8407
  345SOL    HW1 1180   0.712   2.894   1.396  0.5364 -0.3757 -0.3695
  345SOL    HW2 1181   0.604   3.000   1.404 -0.7542 -1.5770 -1.3656
  346SOL     OW 1182   2.133   1.613   2.718 -0.1510 -0.4597  0.4206
  346SOL    HW1 1183   2.132   1.700   2.678  2.3846 -0.4308  0.2682
  346SOL    HW2 1184   2.059   1.614   2.779 -0.6565  1.5071 -0.1465
  347SOL     OW 1185   2.105   0.020   3.587 -0.3832  0.2430  0.6150
  347SOL    HW1 1186   2.025   0.067   3.564 -0.4146  0.2268  0.6920
  347SOL    HW2 1187   2.093  -0.067   3.548 -0.3749  0.2614  0.5711
  348SOL     OW 1188   1.588   3.185   1.266  0.5871 -0.4871  0.2410
  348SOL    HW1 1189   1.540   3.268   1.258  1.0271 -0.3334 -1.0299
  348SOL    HW2 1190   1.650   3.201   1.337  0.3966  0.1389  0.2785
  349SOL     OW 1191   3.177   2.147   2.442  0.1617 -0.1195 -0.0359
  349SOL    HW1 1192   3.093   2.158   2.398  1.8104 -0.3301 -3.6223
  349SOL    HW2 1193   3.200   2.235   2.473 -1.5017 -0.1462  1.4254
  350SOL     OW 1194   0.545   1.084   3.556  0.0767  0.0500  0.3413
  350SOL    HW1 1195   0.627   1.124   3.585 -0.4464  2.4132 -1.1574
  350SOL    HW2 1196   0.477   1.132   3.602 -0.5386 -1.1636  0.7442
  351SOL     OW 1197   2.749   1.211   1.106 -0.1381 -0.0441 -0.1684
  351SOL    HW1 1198   2.695   1.151   1.157  1.5876  0.6461  2.6753
  351SOL    HW2 1199   2.789   1.157   1.039 -3.2504 -0.8099 -1.6122
  352SOL     OW 1200   0.839   1.334   1.688  0.4759  0.6453  0.6978
  352SOL    HW1 1201   0.849   1.270   1.618 -0.4834  2.0411 -0.8111
  352SOL    HW2 1202   0.927   1.370   1.701  0.4469  1.3882 -0.8821
  353SOL     OW 1203   2.292   2.974   2.141 -0.1676 -0.5741  0.3581
  353SOL    HW1 1204   2.360   3.033   2.109 -0.6656 -1.3953 -2.4636
  353SOL    HW2 1205   2.334   2.887   2.141 -0.2953 -0.6505  1.7026
  354SOL     OW 1206   3.172   3.161   3.684 -0.0063  0.9281  0.4325
  354SOL    HW1 1207   3.125   3.109   3.619  2.9637  1.3272 -2.3336
  354SOL    HW2 1208   3.126   3.245   3.685 -0.5352  0.6702 -0.6299
  355SOL     OW 1209   3.584   3.349   0.879 -0.8295 -0.1875  0.0049
  355SOL    HW1 1210   3.513   3.306   0.832  0.1572  0.3414 -2.1259
  355SOL    HW2 1211   3.547   3.373   0.964 -2.7166 -1.2316 -0.4788
  356SOL     OW 1212   3.668   0.961   3.681  0.5231  0.3741 -0.2016
  356SOL    HW1 1213   3.739   0.993   3.625  1.5970  0.4081  1.1287
  356SOL    HW2 1214   3.696   0.873   3.707 -1.4021 -0.9084 -2.1217
  357SOL     OW 1215   3.122   0.970   3.106  0.4977 -0.4658 -0.1195
  357SOL    HW1 1216   3.035   0.955   3.142  0.7196 -1.8120 -0.0936
  357SOL    HW2 1217   3.113   0.951   3.012  0.7900 -0.7703 -0.0891
  358SOL     OW 1218   0.315   0.086   2.157 -0.0595  0.3309  0.1407
  358SOL    HW1 1219   0.359   0.002   2.170 -0.9906 -0.2107 -0.1261
  358SOL    HW2 1220   0.387   0.148   2.145  0.6499 -0.3940  0.4701
  359SOL     OW 1221   2.864   0.187   2.972 -0.4730 -0.0629 -0.6354
  359SOL    HW1 1222   2.779   0.216   3.005 -1.3397 -3.3933  0.5025
  359SOL    HW2 1223   2.921   0.186   3.048  0.8385  2.5833 -1.4755
  360SOL     OW 1224   2.259   0.278   3.606  0.2328 -0.4085  0.1356
  360SOL    HW1 1225   2.227   0.191   3.630  0.7434 -0.3303  1.1752
  360SOL    HW2 1226   2.315   0.264   3.530  0.5761 -1.0375  0.4993
  361SOL     OW 1227   3.132   2.931   3.422 -0.4834 -0.0947 -0.0042
  361SOL    HW1 1228   3.074   2.984   3.367  0.0171 -0.3186 -0.7626
  361SOL    HW2 1229   3.220   2.957   3.395 -0.2293 -1.0920 -0.1837
  362SOL     OW 1230   0.229   2.839   2.263 -0.7097 -0.4843 -0.1436
  362SOL    HW1 1231   0.184   2.883   2.191  0.3627  0.0640 -0.5053
  362SOL    HW2 1232   0.290   2.778   2.220 -0.4670 -0.5671  0.3095
  363SOL     OW 1233   3.146   2.131   3.433 -0.2646 -0.2931 -0.3050
  363SOL    HW1 1234   3.183   2.218   3.446  0.1070 -0.5160  0.1801
  363SOL    HW2 1235   3.169   2.109   3.343  0.0834 -0.0934 -0.2691
  364SOL     OW 1236   2.850   2.621   2.900 -0.5312 -0.0303  0.2455
  364SOL    HW1 1237   2.841   2.526   2.900  0.0380 -0.0851  0.7311
  364SOL    HW2 1238   2.796   2.650   2.826  0.0065 -0.7965 -0.4555
  365SOL     OW 1239   1.062   1.100   1.809  0.6647  0.0265 -0.1312
  365SOL    HW1 1240   0.985   1.087   1.754  0.8109  3.0155 -1.2694
  365SOL    HW2 1241   1.071   1.196   1.814  3.1678 -0.2112  1.5941
  366SOL     OW 1242   0.930   2.830   0.128  0.2537 -0.0577 -0.2666
  366SOL    HW1 1243   0.949   2.903   0.068 -1.2635 -0.1596 -0.9021
  366SOL    HW2 1244   0.988   2.759   0.099 -1.6307 -0.6860 -2.7695
  367SOL     OW 1245   2.107   1.075   0.289 -0.1610 -0.0261  0.0406
  367SOL    HW1 1246   2.014   1.095   0.305 -0.4250 -2.8518  3.5374
  367SOL    HW2 1247   2.148   1.088   0.375  2.7031  0.9578 -1.3868
  368SOL     OW 1248   0.967   0.854   2.141  0.0793 -0.3478 -0.0573
  368SOL    HW1 1249   1.012   0.777   2.173 -1.6576 -0.6217  1.9023
  368SOL    HW2 1250   0.943   0.904   2.220 -2.0989  0.2695 -1.0042
  369SOL     OW 1251   0.653   3.593   3.626 -0.1486  0.1615 -0.1465
  369SOL    HW1 1252   0.737   3.625   3.659  2.2493 -2.4735 -3.0394
  369SOL    HW2 1253   0.622   3.661   3.567  0.4502  0.7547  0.2169
  370SOL     OW 1254   1.617   1.241   3.087 -0.7055 -0.5796 -0.1352
  370SOL    HW1 1255   1.617   1.148   3.061 -1.2697 -0.7849  0.5666
  370SOL    HW2 1256   1.600   1.288   3.006  1.4759 -0.9482 -0.8855
  371SOL     OW 1257   3.525   1.911   1.330 -0.0307  0.0691 -0.6551
  371SOL    HW1 1258   3.538   1.952   1.415 -1.0716 -1.0303  0.0654
  371SOL    HW2 1259   3.534   1.817   1.346 -0.4734 -0.1745 -1.7027
  372SOL     OW 1260   2.044   0.643   2.226  0.3362  0.3548 -0.0181
  372SOL    HW1 1261   1.956   0.613   2.250  0.4288  0.2798  0.2299
  372SOL    HW2 1262   2.034   0.679   2.137  0.1283  0.0270 -0.1274
  373SOL     OW 1263   1.540   3.401   1.428  0.1264  0.3224 -0.0685
  373SOL    HW1 1264   1.611   3.348   1.464  1.6296  1.9281 -0.5687
  373SOL    HW2 1265   1.503   3.447   1.503 -0.6578 -0.7706  0.2449
  374SOL     OW 1266   3.728   1.843   2.634 -0.9130  0.2633 -0.8886
  374SOL    HW1 1267   3.708   1.811   2.721  1.0535 -2.1900 -1.2133
  374SOL    HW2 1268   3.643   1.853   2.591 -1.8107 -1.0094  0.5036
  375SOL     OW 1269   2.009   3.522   0.415 -0.1294 -0.4826 -0.6030
  375SOL    HW1 1270   1.988   3.610   0.381  2.0554  0.4887  0.3789
  375SOL    HW2 1271   2.027   3.470   0.337  1.1328  0.6822 -1.1204
  376SOL     OW 1272   1.042   0.172   0.985  0.1321 -0.0957 -0.1520
  376SOL    HW1 1273   1.068   0.220   1.063 -1.7620  1.8372 -0.6061
  376SOL    HW2 1274   1.090   0.213   0.914 -0.1523 -0.0493 -0.3210
  377SOL     OW 1275   2.135   3.247   2.889 -0.0037 -0.0071  0.0368
  377SOL    HW1 1276   2.129   3.152   2.878 -2.6687 -0.0035  0.6583
  377SOL    HW2 1277   2.107   3.263   2.979  2.5303  1.2710  0.6836
  378SOL     OW 1278   0.813   2.367   2.261  0.4122 -0.4752  0.0872
  378SOL    HW1 1279   0.809   2.319   2.343 -2.7091  3.5854  2.6981
  378SOL    HW2 1280   0.883   2.431   2.273 -0.8506  0.9417  0.2134
  379SOL     OW 1281   1.336   3.700   0.962 -0.5181 -0.2988  0.1044
  379SOL    HW1 1282   1.292   3.750   1.031  0.6321  2.8420 -1.2280
  379SOL    HW2 1283   1.410   3.659   1.006  1.4069  3.2830  0.6276
  380SOL     OW 1284   3.588   3.311   0.504 -0.5209  0.9223 -0.1651
  380SOL    HW1 1285   3.547   3.256   0.570  0.3378 -0.7121 -0.9351
  380SOL    HW2 1286   3.517   3.334   0.444 -0.8810  0.6095  0.1439
  381SOL     OW 1287   1.712   2.937   1.524 -0.1937  0.6265 -0.1915
  381SOL    HW1 1288   1.688   2.953   1.433 -0.4586 -2.5419 -0.7954
  381SOL    HW2 1289   1.634   2.962   1.574 -0.8141  0.5113 -1.0714
  382SOL     OW 1290   1.711   1.936   1.481 -0.5701  0.2144  0.3576
  382SOL    HW1 1291   1.711   1.865   1.545 -2.1517 -0.0664  0.0959
  382SOL    HW2 1292   1.621   1.969   1.483 -0.2286  1.2585 -0.5753
  383SOL     OW 1293  -0.009   2.410   1.152 -0.4721 -0.2254  0.3888
  383SOL    HW1 1294  -0.050   2.432   1.236 -1.3425 -1.8994  0.4387
  383SOL    HW2 1295   0.063   2.473   1.144 -1.8819  1.5874  1.1987
  384SOL     OW 1296   0.468   3.590   2.055  0.0516  0.1333  0.1815
  384SOL    HW1 1297   0.531   3.554   2.117  0.1529 -0.6173 -0.3484
  384SOL    HW2 1298   0.521   3.642   1.994  0.1978 -0.6638 -0.3858
  385SOL     OW 1299   3.410   3.574   1.976 -0.2221  0.1817  0.0370
  385SOL    HW1 1300   3.486   3.622   2.010 -0.0331  0.0238 -0.1628
  385SOL    HW2 1301   3.444   3.488   1.953 -0.5502 -0.0309  0.3315
  386SOL     OW 1302   2.454   0.346   0.394 -0.2175 -0.6033 -0.4335
  386SOL    HW1 1303   2.426   0.372   0.481  1.7127 -1.9285  0.6570
  386SOL    HW2 1304   2.431   0.420   0.338 -1.8132  0.1346  1.1114
  387SOL     OW 1305   1.107   2.368   0.272  0.3077 -0.0697 -0.2096
  387SOL    HW1 1306   1.088   2.329   0.358 -1.1686  1.9275  0.4553
  387SOL    HW2 1307   1.025   2.361   0.223  0.1158  1.6683 -0.2226
  388SOL     OW 1308   3.146   0.324   3.649  0.5022 -1.0694  0.3629
  388SOL    HW1 1309   3.128   0.418   3.650  1.5433 -0.8565  0.3052
  388SOL    HW2 1310   3.098   0.290   3.724  0.7917 -0.3572  0.8795
  389SOL     OW 1311   1.583   1.364   2.837 -0.1344  0.2198 -0.4429
  389SOL    HW1 1312   1.577   1.274   2.804 -1.8142 -0.3793  1.2762
  389SOL    HW2 1313   1.497   1.402   2.817 -0.1058  0.8114  0.4888
  390SOL     OW 1314   3.058   0.198   0.447 -0.1334 -0.7658  0.4970
  390SOL    HW1 1315   3.084   0.253   0.520  0.0542 -0.7426  0.4113
  390SOL    HW2 1316   3.096   0.112   0.466  0.8698 -0.4748 -0.1317
  391SOL     OW 1317   1.035   3.612   2.621  1.1540  0.2956  0.1149
  391SOL    HW1 1318   0.986   3.542   2.665  0.0677  1.6350  1.1424
  391SOL    HW2 1319   1.123   3.608   2.660  0.8133  0.1194  0.8974
  392SOL     OW 1320   0.326   3.368   2.464  0.1386 -0.0638 -0.4963
  392SOL    HW1 1321   0.412   3.328   2.480  0.1342 -0.1856 -0.7640
  392SOL    HW2 1322   0.345   3.440   2.404  0.1893  0.5321  0.2221
  393SOL     OW 1323   3.062   0.790   1.504 -0.2482 -0.4988 -0.0997
  393SOL    HW1 1324   3.108   0.710   1.530  0.5477  0.0323  0.1407
  393SOL    HW2 1325   3.110   0.821   1.427  0.7604  0.8752  1.0259
  394SOL     OW 1326   3.150   2.802   2.829 -0.3526  0.0465  0.3882
  394SOL    HW1 1327   3.148   2.713   2.795  3.1153 -0.4856  1.1790
  394SOL    HW2 1328   3.129   2.793   2.922 -0.4267  0.1339  0.3809
  395SOL     OW 1329   2.221   3.580   1.512  0.1995  0.0151 -0.7893
  395SOL    HW1 1330   2.235   3.495   1.553  0.0430 -0.0329 -0.8312
  395SOL    HW2 1331   2.171   3.560   1.433  0.1997  0.1408 -0.8212
  396SOL     OW 1332   3.625   0.484   2.404  0.1356 -0.6691 -0.1191
  396SOL    HW1 1333   3.682   0.459   2.476 -0.8824 -0.1140  0.9218
  396SOL    HW2 1334   3.620   0.579   2.409 -0.1699 -0.6454 -0.7566
  397SOL     OW 1335   2.894   2.022   3.576 -0.0626 -0.1288 -0.5069
  397SOL    HW1 1336   2.856   2.057   3.656  0.5430 -1.0718  0.2199
  397SOL    HW2 1337   2.968   2.079   3.557 -0.4768  0.3624 -0.6535
  398SOL     OW 1338   2.878   2.641   1.371 -0.2208 -0.5562  0.3416
  398SOL    HW1 1339   2.787   2.629   1.397 -0.1520 -1.5410  0.1715
  398SOL    HW2 1340   2.909   2.715   1.424 -1.3965  0.4839 -0.3620
  399SOL     OW 1341   3.612   1.011   2.810  0.1608  0.7214 -0.8333
  399SOL    HW1 1342   3.643   1.072   2.743 -1.0132  1.1868 -0.9696
  399SOL    HW2 1343   3.534   1.053   2.847  0.7294  0.4317  0.7736
  400SOL     OW 1344   3.233   1.566   0.157 -0.0679 -0.1276  0.5536
  400SOL    HW1 1345   3.314   1.603   0.190  1.4146 -0.7856 -2.0650
  400SOL    HW2 1346   3.244   1.471   0.166  1.4675 -0.5700 -3.5248
  401SOL     OW 1347   2.154   0.117   2.315 -0.3497 -0.1472 -0.5198
  401SOL    HW1 1348   2.186   0.168   2.241  2.5182 -1.2292 -0.1531
  401SOL    HW2 1349   2.204   0.149   2.390  0.4573 -2.4022 -0.0159
  402SOL     OW 1350   3.604   0.780   1.494  0.1599  0.2002 -0.2034
  402SOL    HW1 1351   3.676   0.720   1.475 -0.1484  0.3033 -1.7884
  402SOL    HW2 1352   3.533   0.724   1.523 -0.2537 -0.2872 -2.0461
  403SOL     OW 1353   1.395   0.775   1.734 -0.5544  0.4140  0.3565
  403SOL    HW1 1354   1.395   0.854   1.788 -3.5637  0.4033  0.4999
  403SOL    HW2 1355   1.432   0.803   1.650 -1.8719  2.1163  0.2846
  404SOL     OW 1356   1.535   0.347   2.474 -0.0395 -0.0142 -0.0155
  404SOL    HW1 1357   1.483   0.423   2.450 -1.5136 -0.9077  0.2289
  404SOL    HW2 1358   1.553   0.357   2.567 -2.4106 -1.1380  0.6475
  405SOL     OW 1359   1.866   0.053   0.760  0.4668 -0.5707  0.4189
  405SOL    HW1 1360   1.849   0.145   0.780  1.6052 -0.4917  1.1224
  405SOL    HW2 1361   1.816   0.036   0.680 -0.2364  0.4869  0.6140
  406SOL     OW 1362   3.446   1.701   0.292 -0.5273 -0.2157  0.0150
  406SOL    HW1 1363   3.382   1.772   0.285 -0.9746 -0.5297  0.7676
  406SOL    HW2 1364   3.530   1.744   0.284 -0.7959  0.4074  0.4223
  407SOL     OW 1365   2.522   1.248   2.763  0.2374 -0.6710  0.8704
  407SOL    HW1 1366   2.461   1.277   2.830 -1.0118 -0.2882 -0.3704
  407SOL    HW2 1367   2.490   1.289   2.682  0.1870 -3.0450 -0.4119
  408SOL     OW 1368   2.709   3.009   3.391  0.1747 -0.3770 -0.9644
  408SOL    HW1 1369   2.779   3.051   3.340 -0.1947  3.4515  1.2447
  408SOL    HW2 1370   2.745   3.002   3.479 -1.0950 -1.6152 -0.5179
  409SOL     OW 1371   0.841   3.219   0.380  0.4338 -0.4927 -0.0557
  409SOL    HW1 1372   0.860   3.189   0.291  0.5875 -0.5379 -0.0089
  409SOL    HW2 1373   0.749   3.200   0.393  0.1283  0.4945 -0.5987
  410SOL     OW 1374   3.542   3.117   1.262  0.6221  0.1926 -0.7855
  410SOL    HW1 1375   3.595   3.192   1.290 -0.5668  0.8237 -0.1372
  410SOL    HW2 1376   3.461   3.125   1.313  1.1442 -2.5500  0.6359
  411SOL     OW 1377   1.768   1.664   0.429 -0.0419  0.2364 -0.2957
  411SOL    HW1 1378   1.836   1.677   0.362  1.4271 -1.1467  0.8400
  411SOL    HW2 1379   1.783   1.735   0.492 -0.0256  0.2742 -0.3416
  412SOL     OW 1380   2.364   2.417   1.786 -0.3544 -0.4510  0.5270
  412SOL    HW1 1381   2.417   2.340   1.765 -1.1811 -1.2874  1.4412
  412SOL    HW2 1382   2.368   2.471   1.707 -1.9754 -2.6888 -1.2105
  413SOL     OW 1383   2.769   0.861   1.521  0.0720 -0.0384 -0.0450
  413SOL    HW1 1384   2.863   0.845   1.524  0.2607  1.1076  0.4611
  413SOL    HW2 1385   2.741   0.828   1.436  0.9315 -0.3444 -0.2126
  414SOL     OW 1386   2.365   1.872   2.951 -0.8593 -0.4989  0.6553
  414SOL    HW1 1387   2.367   1.778   2.935  1.6269 -0.3150 -0.5265
  414SOL    HW2 1388   2.423   1.885   3.026 -0.9969  0.1276  0.6612
  415SOL     OW 1389   3.721   1.380   0.212  0.0698 -0.9025 -0.1733
  415SOL    HW1 1390   3.636   1.396   0.170 -0.5477 -0.4365  1.1945
  415SOL    HW2 1391   3.779   1.357   0.139 -0.6339  1.0585 -1.4457
  416SOL     OW 1392   1.848   0.181   3.227  0.2092 -0.7249  0.1587
  416SOL    HW1 1393   1.812   0.263   3.194  2.1603 -0.7081 -2.1251
  416SOL    HW2 1394   1.804   0.113   3.175  1.1716 -0.8728 -0.4944
  417SOL     OW 1395   2.640   0.718   3.714 -0.5411  0.3764  0.0116
  417SOL    HW1 1396   2.570   0.745   3.773  0.4520  2.2249  0.4438
  417SOL    HW2 1397   2.599   0.657   3.653 -2.0297 -0.1434  1.4598
  418SOL     OW 1398   2.315   0.934   3.320 -0.0468  0.0188 -0.1478
  418SOL    HW1 1399   2.253   0.951   3.249 -1.4986  1.6646  1.4230
  418SOL    HW2 1400   2.347   1.020   3.346  2.2286 -0.7252 -0.2551
  419SOL     OW 1401   1.745   1.367   0.301  0.4711  0.1098  0.0443
  419SOL    HW1 1402   1.685   1.423   0.252 -2.9284 -1.2358  2.3296
  419SOL    HW2 1403   1.734   1.281   0.262  0.2392 -0.3262  1.0594
  420SOL     OW 1404   1.636   0.212   1.020  0.3441 -0.4387  0.5799
  420SOL    HW1 1405   1.661   0.122   1.042  1.5659 -0.5051 -0.9019
  420SOL    HW2 1406   1.709   0.244   0.967 -1.2532  0.5376 -1.1100
  421SOL     OW 1407   3.337   0.541   0.346  0.8187 -0.1685  0.3322
  421SOL    HW1 1408   3.384   0.494   0.278  1.4910 -1.6842  1.7442
  421SOL    HW2 1409   3.312   0.472   0.409 -0.5035  1.0355  1.2011
  422SOL     OW 1410   2.094   1.331   3.513 -0.4323 -0.1813  0.0636
  422SOL    HW1 1411   2.094   1.422   3.542  0.1677  0.0163 -0.5190
  422SOL    HW2 1412   2.002   1.304   3.518 -0.4167 -0.0573  1.7740
  423SOL     OW 1413   3.080   3.291   1.428  0.1078 -0.8579  0.4768
  423SOL    HW1 1414   3.085   3.352   1.354  0.0992 -0.5413  0.7330
  423SOL    HW2 1415   3.006   3.323   1.480 -0.3231 -1.4897  0.2610
  424SOL     OW 1416   3.106   1.504   1.628  0.2515 -0.3450  0.2105
  424SOL    HW1 1417   3.165   1.550   1.569 -0.4048  3.2130  2.0311
  424SOL    HW2 1418   3.119   1.411   1.608  2.9240  0.4762 -2.6574
  425SOL     OW 1419   0.054   3.660   1.749 -0.5584  0.6157 -0.5084
  425SOL    HW1 1420   0.055   3.691   1.839 -0.7175  1.7191 -0.8674
  425SOL    HW2 1421   0.088   3.734   1.698  0.3028 -0.2781 -1.2772
  426SOL     OW 1422   0.144   2.656   0.488  0.2753 -0.1533 -0.2707
  426SOL    HW1 1423   0.214   2.720   0.497  0.8012 -0.7330 -0.1660
  426SOL    HW2 1424   0.079   2.682   0.552  1.6751 -1.2362  1.7078
  427SOL     OW 1425   2.667   1.895   0.117  0.7690 -0.3685  0.4010
  427SOL    HW1 1426   2.605   1.953   0.073  0.1770 -1.2040  0.0895
  427SOL    HW2 1427   2.686   1.938   0.201 -0.6753 -0.3566  0.7456
  428SOL     OW 1428   0.308   0.088   3.637  0.4119  0.1110  1.0200
  428SOL    HW1 1429   0.253   0.010   3.645  1.0393 -0.4895 -0.2485
  428SOL    HW2 1430   0.246   0.161   3.633 -0.3191 -0.5487 -0.3840
  429SOL     OW 1431   3.137   2.822   3.665  0.0972 -0.4383 -0.1271
  429SOL    HW1 1432   3.229   2.844   3.679 -0.0822 -0.5762  1.5885
  429SOL    HW2 1433   3.111   2.871   3.588  2.0342 -1.6919 -1.6740
  430SOL     OW 1434   0.079   2.722   2.782  0.3108 -0.2344  0.7801
  430SOL    HW1 1435   0.137   2.646   2.778 -0.0835 -0.6357  2.0769
  430SOL    HW2 1436   0.114   2.775   2.854 -2.4565 -1.8542  3.5437
  431SOL     OW 1437   2.598   0.536   3.211  0.0585 -0.1782  0.0439
  431SOL    HW1 1438   2.631   0.617   3.174 -0.4588  0.9570  1.9480
  431SOL    HW2 1439   2.677   0.489   3.240  0.3421 -0.2682 -0.8527
  432SOL     OW 1440   0.883   2.662   0.322 -0.2328  0.1798 -0.0320
  432SOL    HW1 1441   0.798   2.629   0.291  0.5052 -1.9890  0.1121
  432SOL    HW2 1442   0.903   2.735   0.264 -1.1935 -0.6543 -1.4562
  433SOL     OW 1443   2.423   2.153   1.396  0.2805 -0.1438 -0.2248
  433SOL    HW1 1444   2.327   2.150   1.405 -0.0835  1.6806 -2.5791
  433SOL    HW2 1445   2.455   2.153   1.486 -2.0146  0.9521  0.6831
  434SOL     OW 1446   2.431   0.025   1.842 -0.0580 -0.5947 -0.3782
  434SOL    HW1 1447   2.525   0.044   1.835 -0.2171 -0.1864 -1.5792
  434SOL    HW2 1448   2.400   0.022   1.752 -1.6176  1.4349  0.0066
  435SOL     OW 1449   2.192   1.641   0.463 -0.4810  0.6428 -0.1688
  435SOL    HW1 1450   2.256   1.630   0.533  0.4467 -2.6404 -1.3745
  435SOL    HW2 1451   2.108   1.627   0.505 -0.0103 -0.2064  0.5257
  436SOL     OW 1452   2.804   0.487   1.805 -0.0586  0.1556  0.7999
  436SOL    HW1 1453   2.880   0.477   1.862 -0.7281 -1.7478  1.4574
  436SOL    HW2 1454   2.736   0.433   1.846 -1.1258  0.1620 -0.8566
  437SOL     OW 1455   2.493   2.114   3.733  0.1240 -0.3808 -0.2449
  437SOL    HW1 1456   2.466   2.205   3.717 -0.8029 -0.8167 -1.2101
  437SOL    HW2 1457   2.583   2.110   3.699  0.4679  0.3671  0.5309
  438SOL     OW 1458   3.200   2.413   3.453  0.2952  0.4724 -0.2687
  438SOL    HW1 1459   3.295   2.423   3.448  0.7516  0.2329  4.2174
  438SOL    HW2 1460   3.165   2.497   3.425  1.8484  0.8844 -1.0737
  439SOL     OW 1461   1.057   3.165   0.553 -0.4150  0.2183 -0.1695
  439SOL    HW1 1462   1.053   3.255   0.587 -1.3567  0.7318 -1.5352
  439SOL    HW2 1463   0.986   3.161   0.488  0.2650 -1.2016 -0.8672
  440SOL     OW 1464   2.380   2.738   0.604 -0.2081  0.6391 -0.4719
  440SOL    HW1 1465   2.293   2.701   0.616  0.3759 -0.5215  0.2903
  440SOL    HW2 1466   2.423   2.730   0.689  1.4234 -0.8696 -1.3693
  441SOL     OW 1467   1.659   2.066   0.788 -0.4695  0.0595  0.2642
  441SOL    HW1 1468   1.740   2.116   0.796 -0.6657  0.3855  0.2312
  441SOL    HW2 1469   1.630   2.080   0.698 -1.1420  0.8536  0.5866
  442SOL     OW 1470   3.490   2.095   3.601  0.1235 -0.1231 -0.4849
  442SOL    HW1 1471   3.430   2.044   3.546  1.3734 -1.9455 -0.2528
  442SOL    HW2 1472   3.513   2.035   3.672  0.9716  1.1080  0.3126
  443SOL     OW 1473   0.933   0.031   2.877  0.0107 -0.0211 -0.2696
  443SOL    HW1 1474   0.862  -0.022   2.911  0.6374 -0.0472  1.0767
  443SOL    HW2 1475   0.910   0.048   2.786 -0.6886 -1.7519 -0.4435
  444SOL     OW 1476   0.002   2.647   2.118 -0.1747  0.2278 -0.6864
  444SOL    HW1 1477   0.068   2.622   2.182 -1.2175  0.0722  0.3654
  444SOL    HW2 1478   0.046   2.640   2.033  0.9349 -0.5679 -0.0614
  445SOL     OW 1479   3.482   0.451   1.821  0.6603 -0.6277 -0.3349
  445SOL    HW1 1480   3.448   0.503   1.894  3.7247 -0.0646  0.8112
  445SOL    HW2 1481   3.465   0.505   1.743  0.7104  0.5068  0.4230
  446SOL     OW 1482   1.262   1.382   3.153  0.1182 -0.0900 -0.1785
  446SOL    HW1 1483   1.188   1.422   3.199  0.8784  0.1811  0.8331
  446SOL    HW2 1484   1.296   1.318   3.215 -0.0122 -1.0881 -1.1157
  447SOL     OW 1485   1.255   2.871   3.637  0.0590 -0.2248  0.2440
  447SOL    HW1 1486   1.207   2.950   3.662 -0.0014  0.0974 -0.8339
  447SOL    HW2 1487   1.191   2.818   3.590  0.6721  0.1038 -1.0014
  448SOL     OW 1488   1.888   0.400   0.424  0.1122  0.5088 -0.4274
  448SOL    HW1 1489   1.897   0.456   0.501  0.2264  0.9725 -0.7795
  448SOL    HW2 1490   1.973   0.403   0.381 -0.2624  1.0769 -1.1356
  449SOL     OW 1491   0.228   3.367   1.674 -0.0790  0.0841 -0.1847
  449SOL    HW1 1492   0.134   3.375   1.657 -0.0872 -1.1438 -0.8462
  449SOL    HW2 1493   0.235   3.366   1.769 -0.7499  0.0481 -0.1307
  450SOL     OW 1494   1.320   3.595   0.182 -0.3313  0.3663  0.5171
  450SOL    HW1 1495   1.277   3.679   0.196  0.7508  0.7431  1.7617
  450SOL    HW2 1496   1.261   3.531   0.221 -1.1364  0.5191 -0.3940
  451SOL     OW 1497   1.105   2.118   1.533 -0.0645 -0.0483 -0.3903
  451SOL    HW1 1498   1.188   2.094   1.491 -0.6007 -2.4481 -0.2491
  451SOL    HW2 1499   1.038   2.095   1.468 -0.7253 -0.2123  0.3388
  452SOL     OW 1500   0.848   1.100   1.078  0.2886  0.1441 -0.1073
  452SOL    HW1 1501   0.860   1.013   1.040  0.1491 -0.2323  0.6919
  452SOL    HW2 1502   0.761   1.127   1.049  0.8505  0.5813 -1.4353
  453SOL     OW 1503   0.874   0.266   3.203  0.1528  0.2036  0.1115
  453SOL    HW1 1504   0.928   0.231   3.132  0.0034 -1.1632  0.6381
  453SOL    HW2 1505   0.846   0.189   3.252 -0.7438  1.0313  0.9499
  454SOL     OW 1506   1.036   1.490   0.135  0.1145 -0.4092 -0.0976
  454SOL    HW1 1507   1.066   1.414   0.185 -2.0611 -1.9470 -0.9549
  454SOL    HW2 1508   1.101   1.500   0.066  1.7691  0.1347  1.4680
  455SOL     OW 1509   0.281   2.879   3.210 -0.2135  0.1401  0.4788
  455SOL    HW1 1510   0.291   2.852   3.119 -1.2346 -0.7494  0.6141
  455SOL    HW2 1511   0.366   2.917   3.233  1.4323 -3.1010  0.3031
  456SOL     OW 1512   3.609   3.032   1.943  0.2945 -0.5023 -0.0452
  456SOL    HW1 1513   3.697   2.996   1.927 -0.7257 -2.3297 -2.1030
  456SOL    HW2 1514   3.586   3.076   1.861 -0.2949  0.9497  0.8695
  457SOL     OW 1515   1.477   2.845   1.094  0.3852  0.2778  0.1529
  457SOL    HW1 1516   1.426   2.769   1.124  2.1726 -1.4237 -0.8863
  457SOL    HW2 1517   1.411   2.903   1.054 -0.8959 -1.4098 -0.3526
  458SOL     OW 1518   2.855   1.189   2.958  0.3755  0.1573 -0.4706
  458SOL    HW1 1519   2.859   1.138   2.878  0.0001  0.3235 -0.5997
  458SOL    HW2 1520   2.786   1.253   2.942 -0.9666 -0.9467  0.6418
  459SOL     OW 1521   1.238   3.473   3.668 -0.0461 -0.3959  0.0588
  459SOL    HW1 1522   1.276   3.394   3.707  0.6646  0.2080  0.6235
  459SOL    HW2 1523   1.284   3.545   3.712  1.7651  0.3568 -2.8367
  460SOL     OW 1524  -0.013   0.503   3.745 -0.8166  0.0402  0.0318
  460SOL    HW1 1525   0.078   0.533   3.740 -0.4457 -0.8681  0.9448
  460SOL    HW2 1526  -0.059   0.556   3.680  1.0447 -2.0535 -3.2276
  461SOL     OW 1527   1.106   2.643   0.039 -0.1792  0.6459  0.1944
  461SOL    HW1 1528   1.131   2.559   0.001  0.8500 -0.4263  2.9763
  461SOL    HW2 1529   1.189   2.685   0.061 -0.6877  2.2712 -0.8160
  462SOL     OW 1530   1.845   3.544   0.113  0.0369  0.5220 -0.2560
  462SOL    HW1 1531   1.902   3.600   0.165 -0.1459  1.2585 -0.8330
  462SOL    HW2 1532   1.757   3.560   0.147 -0.0374  0.7256 -0.5376
  463SOL     OW 1533   0.245   1.846   2.813  0.3291  0.0035  0.1609
  463SOL    HW1 1534   0.155   1.815   2.802 -0.3767  1.8163  0.3800
  463SOL    HW2 1535   0.266   1.890   2.731 -0.4220  2.8252  1.3491
  464SOL     OW 1536   3.708   1.811   3.175  0.0884 -0.5199  0.7943
  464SOL    HW1 1537   3.796   1.841   3.155 -0.6835  1.3709  0.0776
  464SOL    HW2 1538   3.714   1.776   3.264  0.8916  2.6679  2.0954
  465SOL     OW 1539   1.863   0.149   3.546  0.1158 -0.6385 -0.5913
  465SOL    HW1 1540   1.810   0.205   3.603 -0.8474 -1.5854 -0.5321
  465SOL    HW2 1541   1.856   0.188   3.459 -0.9522 -0.9302 -0.6437
  466SOL     OW 1542   2.425   2.149   1.136 -0.1618 -0.0203  0.1211
  466SOL    HW1 1543   2.510   2.126   1.099  1.0124  2.1977  1.2312
  466SOL    HW2 1544   2.438   2.148   1.231 -1.1864  0.9203  0.2950
  467SOL     OW 1545   2.587   2.362   1.431  0.3997  0.2678  0.3701
  467SOL    HW1 1546   2.511   2.314   1.400 -0.0799  2.3752 -2.0551
  467SOL    HW2 1547   2.553   2.419   1.500 -0.4178  1.6020 -1.0814
  468SOL     OW 1548   0.884   0.093   2.613 -0.2932  0.0889 -0.1827
  468SOL    HW1 1549   0.959   0.151   2.598 -0.6575  0.3698 -0.9691
  468SOL    HW2 1550   0.918   0.005   2.599 -0.1604  0.2290 -0.7422
  469SOL     OW 1551   1.331   0.979   2.323 -0.3940  0.5054  0.5100
  469SOL    HW1 1552   1.254   0.999   2.377 -1.6187 -0.9913 -0.6100
  469SOL    HW2 1553   1.329   0.884   2.312  0.4678  0.6528 -1.2306
  470SOL     OW 1554   3.284   2.963   1.995  0.2791  0.0653 -0.0249
  470SOL    HW1 1555   3.367   3.007   2.010  0.5782 -1.2153  2.5837
  470SOL    HW2 1556   3.233   2.979   2.075 -1.0661 -1.1295 -0.5940
  471SOL     OW 1557   2.755   1.104   0.266 -0.0417  0.7706 -0.7648
  471SOL    HW1 1558   2.817   1.035   0.286  0.1737  0.8584 -1.1166
  471SOL    HW2 1559   2.752   1.157   0.345 -0.8257 -0.0979 -0.1947
  472SOL     OW 1560   2.669   0.291   0.904 -1.2872 -0.4831 -0.7406
  472SOL    HW1 1561   2.592   0.236   0.918 -1.7140  0.4684  1.0985
  472SOL    HW2 1562   2.743   0.234   0.924 -1.4595 -1.4829 -2.7804
  473SOL     OW 1563   2.946   1.339   1.892  0.3865 -0.4531  0.4971
  473SOL    HW1 1564   2.881   1.360   1.824  1.6847 -0.7876 -0.8765
  473SOL    HW2 1565   3.016   1.294   1.846  1.5928 -0.1481  1.9608
  474SOL     OW 1566   1.298   0.099   2.386  0.1383  0.1190 -0.0550
  474SOL    HW1 1567   1.257   0.018   2.356 -0.0025 -0.5280  1.7632
  474SOL    HW2 1568   1.392   0.084   2.373  0.2610 -1.0851  1.8590
  475SOL     OW 1569   2.755   2.591   2.639 -0.2110 -0.2023  0.7149
  475SOL    HW1 1570   2.716   2.530   2.577  0.0310  0.4964 -0.1326
  475SOL    HW2 1571   2.807   2.651   2.586 -0.7368  0.9882  1.4816
  476SOL     OW 1572   3.404   1.970   3.361 -0.4943  0.1805  0.8412
  476SOL    HW1 1573   3.379   1.994   3.272 -0.8236  0.3390  0.9729
  476SOL    HW2 1574   3.494   2.000   3.370 -0.7351  0.9143  0.8342
  477SOL     OW 1575   1.038   0.396   2.241  0.0768 -0.0410 -0.4678
  477SOL    HW1 1576   1.006   0.452   2.311 -0.5302  0.0199 -0.7829
  477SOL    HW2 1577   1.022   0.447   2.161  1.2971  0.1366 -0.6089
  478SOL     OW 1578   0.322   1.375   1.818 -0.3143 -0.1429  0.3012
  478SOL    HW1 1579   0.247   1.330   1.856 -0.7618  0.4988  0.1964
  478SOL    HW2 1580   0.368   1.307   1.769 -1.4901 -0.3067 -0.6174
  479SOL     OW 1581   1.591   2.755   2.544 -0.8214 -0.0680  0.1890
  479SOL    HW1 1582   1.607   2.682   2.604  0.8068 -1.1621 -1.4624
  479SOL    HW2 1583   1.672   2.806   2.546 -2.0246  1.8940  1.4980
  480SOL     OW 1584   1.977   2.873   0.780 -0.1452 -0.4181 -0.4196
  480SOL    HW1 1585   1.916   2.935   0.821  0.3248 -0.8065  0.9378
  480SOL    HW2 1586   1.993   2.807   0.848  2.4371  0.1325 -0.4032
  481SOL     OW 1587   3.385   3.594   0.263 -0.0288 -0.4367  0.4112
  481SOL    HW1 1588   3.359   3.506   0.288 -0.2887 -0.5560 -0.2555
  481SOL    HW2 1589   3.466   3.583   0.214 -0.2683 -0.3549 -0.0168
  482SOL     OW 1590   1.017   2.659   3.103 -0.4480  0.0643  0.7972
  482SOL    HW1 1591   0.956   2.590   3.130 -0.9579  1.1654  2.5591
  482SOL    HW2 1592   1.102   2.627   3.132 -0.1968 -1.1899 -1.1199
  483SOL     OW 1593   2.789   2.756   3.283  0.2106  0.4025  0.5204
  483SOL    HW1 1594   2.791   2.807   3.364  1.8109 -0.0190  0.7928
  483SOL    HW2 1595   2.764   2.818   3.215  0.4448  1.1371  1.0964
  484SOL     OW 1596   2.283   3.342   3.693  0.1473 -0.6958 -0.0432
  484SOL    HW1 1597   2.255   3.375   3.779  2.5491 -1.0281  0.9323
  484SOL    HW2 1598   2.253   3.251   3.692 -1.0376 -0.3264 -0.1434
  485SOL     OW 1599   2.972   0.374   0.275  0.3219  0.2780  0.2490
  485SOL    HW1 1600   2.972   0.456   0.323  2.1487  0.2150  0.4323
  485SOL    HW2 1601   3.011   0.310   0.335 -0.6913 -0.6413 -0.0323
  486SOL     OW 1602   2.251   0.515   1.434  0.5032 -0.5107 -0.3343
  486SOL    HW1 1603   2.344   0.537   1.443  0.3105  1.4776 -2.3336
  486SOL    HW2 1604   2.225   0.554   1.351 -1.5341 -3.2518 -1.1303
  487SOL     OW 1605   1.490   1.561   1.986  0.0451  0.2316 -0.0796
  487SOL    HW1 1606   1.585   1.546   1.985  0.0995  0.3225  1.3645
  487SOL    HW2 1607   1.457   1.499   2.051 -0.9286  0.0596 -0.7139
  488SOL     OW 1608   3.344   3.222   1.440 -0.2505 -0.0021  0.1687
  488SOL    HW1 1609   3.251   3.228   1.415 -0.6591 -0.2562  1.5464
  488SOL    HW2 1610   3.363   3.308   1.477  0.3554  0.3771 -0.9686
  489SOL     OW 1611   2.872   3.286   3.576 -0.1606 -0.9527  0.5173
  489SOL    HW1 1612   2.926   3.287   3.497  0.4629 -3.0950  0.8461
  489SOL    HW2 1613   2.884   3.373   3.615 -0.8308  0.3092 -1.9282
  490SOL     OW 1614   3.235   0.053   1.351 -0.3121  0.0985  0.2886
  490SOL    HW1 1615   3.210   0.130   1.300  1.2395  1.7855  1.9308
  490SOL    HW2 1616   3.207   0.072   1.440 -1.7316 -2.1899  0.4063
  491SOL     OW 1617   2.784   1.683   3.240  0.4887 -0.1606  0.4079
  491SOL    HW1 1618   2.872   1.672   3.205  0.0391 -0.8496 -0.5689
  491SOL    HW2 1619   2.796   1.692   3.335  1.5216 -1.6799  0.4608
  492SOL     OW 1620   2.076   1.944   0.635  0.6639 -0.3134 -0.3299
  492SOL    HW1 1621   1.991   1.910   0.608  1.4648 -1.7685 -1.1305
  492SOL    HW2 1622   2.064   1.968   0.727 -1.2608  1.8650 -1.0410
  493SOL     OW 1623   1.037   0.323   0.547 -0.1076 -0.0626 -0.2386
  493SOL    HW1 1624   0.989   0.257   0.597 -0.2785 -0.4707 -0.9413
  493SOL    HW2 1625   0.987   0.334   0.466  0.1843  0.5750 -0.3438
  494SOL     OW 1626   3.715   1.164   2.629 -0.8443 -0.6260 -0.4578
  494SOL    HW1 1627   3.809   1.148   2.619 -0.7173 -1.3975  1.5140
  494SOL    HW2 1628   3.693   1.222   2.557  1.7879  2.0764  0.7105
  495SOL     OW 1629   2.883   2.561   0.363  0.7710  0.4600  0.5846
  495SOL    HW1 1630   2.965   2.601   0.391  0.5278  0.3262  1.5250
  495SOL    HW2 1631   2.815   2.610   0.409  0.4087 -0.2884  0.8647
  496SOL     OW 1632   2.664   0.744   3.031 -0.0864 -0.7718  0.4153
  496SOL    HW1 1633   2.634   0.828   2.999 -2.9761 -2.3794 -1.5869
  496SOL    HW2 1634   2.756   0.757   3.052  0.6666  1.9271 -3.5437
  497SOL     OW 1635   0.640   3.137   1.927 -0.4485 -0.0946 -0.5916
  497SOL    HW1 1636   0.616   3.128   1.835  0.2961 -0.1955 -0.7853
  497SOL    HW2 1637   0.734   3.158   1.925 -0.4665  0.0754  0.1355
  498SOL     OW 1638   2.576   1.771   3.099 -0.0365 -0.3393 -0.3277
  498SOL    HW1 1639   2.523   1.693   3.081  0.1808 -0.2072 -1.6414
  498SOL    HW2 1640   2.636   1.743   3.168 -0.2842 -1.1986 -0.4423
  499SOL     OW 1641   3.156   2.203   1.184  0.2319  0.1421  0.3880
  499SOL    HW1 1642   3.142   2.298   1.185  2.4678  0.5708 -1.5463
  499SOL    HW2 1643   3.249   2.192   1.202 -0.0319 -1.7145  0.7806
  500SOL     OW 1644   3.487   0.198   0.291 -0.5370  0.4599 -0.4087
  500SOL    HW1 1645   3.552   0.234   0.232 -1.3676  1.0551 -0.9912
  500SOL    HW2 1646   3.520   0.217   0.378  1.2673 -1.4239 -0.6223
  501SOL     OW 1647   1.264   1.497   1.069 -0.3349 -0.2574 -0.7414
  501SOL    HW1 1648   1.194   1.555   1.040 -2.2057 -1.8781  0.2676
  501SOL    HW2 1649   1.321   1.487   0.993 -1.2141  1.0864 -1.6055
  502SOL     OW 1650   2.028   2.594   1.579 -0.4117 -0.2665 -0.0127
  502SOL    HW1 1651   1.946   2.632   1.546 -2.2630 -2.9378  1.1622
  502SOL    HW2 1652   2.001   2.538   1.651  2.2781 -2.5611 -0.6252
  503SOL     OW 1653   3.645   2.507   1.397 -0.3190 -0.0647 -0.1570
  503SOL    HW1 1654   3.565   2.506   1.448  0.6001  2.4980  1.5530
  503SOL    HW2 1655   3.705   2.449   1.445 -0.5673 -0.5079 -0.3806
  504SOL     OW 1656   0.056   1.540   3.234  0.3821 -0.3078 -0.8093
  504SOL    HW1 1657   0.034   1.490   3.156  0.4650 -0.8740 -0.4736
  504SOL    HW2 1658  -0.017   1.526   3.294 -0.9135  2.1282 -1.6766
  505SOL     OW 1659   2.984   3.041   0.411 -0.2971 -0.1705  0.2730
  505SOL    HW1 1660   3.033   3.035   0.329  0.1979  0.3782  0.5146
  505SOL    HW2 1661   3.023   2.973   0.467 -0.1527 -0.0752  0.2901
  506SOL     OW 1662   1.334   0.675   3.006  0.1612  0.3731  0.1986
  506SOL    HW1 1663   1.336   0.598   3.063  0.7681 -0.1456 -0.4900
  506SOL    HW2 1664   1.242   0.687   2.984  0.1983 -1.1301 -0.9323
  507SOL     OW 1665   0.521   2.428   2.121 -0.0031  0.0379  0.4416
  507SOL    HW1 1666   0.436   2.385   2.126  0.1016 -0.1381  0.6698
  507SOL    HW2 1667   0.584   2.357   2.110 -0.0130  0.2452 -1.2473
  508SOL     OW 1668   0.906   1.320   0.623  0.0744 -0.6948 -0.0346
  508SOL    HW1 1669   0.966   1.248   0.645  0.3213 -1.1784 -2.0823
  508SOL    HW2 1670   0.827   1.276   0.591  0.0758 -0.0855 -0.9309
  509SOL     OW 1671   2.889   3.054   3.680 -0.2483  0.1396 -0.4628
  509SOL    HW1 1672   2.854   3.133   3.640 -0.9205  0.6930  1.1150
  509SOL    HW2 1673   2.853   3.054   3.769  1.3219 -0.9015  0.2278
  510SOL     OW 1674   0.376   1.905   0.885 -0.0042  0.6712 -0.2129
  510SOL    HW1 1675   0.282   1.919   0.871  0.2518  1.5894 -1.1840
  510SOL    HW2 1676   0.388   1.918   0.979 -1.0750 -0.9784  0.1809
  511SOL     OW 1677   1.657   1.679   1.635  0.1992 -0.3524  0.7281
  511SOL    HW1 1678   1.688   1.614   1.572  0.8120 -1.2774  1.9136
  511SOL    HW2 1679   1.667   1.635   1.720  1.4920  1.6279  1.6640
  512SOL     OW 1680   0.389   1.326   1.340 -0.9126  0.0256  0.4101
  512SOL    HW1 1681   0.417   1.285   1.421  0.2689 -0.6364 -0.3031
  512SOL    HW2 1682   0.381   1.419   1.360 -0.6955 -0.1439  1.2899
  513SOL     OW 1683   0.715   0.461   0.599 -0.0131 -0.4163  0.1162
  513SOL    HW1 1684   0.641   0.495   0.548 -1.2203 -0.4045  1.7969
  513SOL    HW2 1685   0.790   0.515   0.571 -1.0586  0.9577 -0.1671
  514SOL     OW 1686   0.394   1.774   1.808 -0.1657 -0.0236 -0.0353
  514SOL    HW1 1687   0.434   1.726   1.735  2.2007  1.4252  0.2086
  514SOL    HW2 1688   0.467   1.793   1.867 -1.8392 -0.2580  2.2473
  515SOL     OW 1689   1.942   1.905   2.139 -0.0608  0.2864 -0.2819
  515SOL    HW1 1690   2.011   1.889   2.075 -1.8164 -1.2340 -1.9334
  515SOL    HW2 1691   1.959   1.841   2.209 -0.2985 -0.7629 -1.1503
  516SOL     OW 1692   3.123   2.068   1.424  0.2028 -0.6852 -0.0794
  516SOL    HW1 1693   3.132   2.130   1.352 -1.5033 -1.5768 -1.1212
  516SOL    HW2 1694   3.168   1.989   1.394 -0.7707 -1.1615 -0.3310
  517SOL     OW 1695   1.189   2.905   0.304  0.0016 -0.3130 -0.1556
  517SOL    HW1 1696   1.132   2.862   0.368  0.7943 -2.3363 -0.7027
  517SOL    HW2 1697   1.272   2.856   0.310  0.4304  0.1223 -1.9661
  518SOL     OW 1698   3.260   0.817   3.266 -0.8638  0.4708  0.4582
  518SOL    HW1 1699   3.214   0.887   3.219 -0.6398  0.6379  0.4883
  518SOL    HW2 1700   3.307   0.862   3.336  0.6026  0.4997 -0.5084
  519SOL     OW 1701   1.646   2.023   3.402  0.6625 -0.5429  0.4678
  519SOL    HW1 1702   1.665   2.111   3.370  2.4931 -1.4923 -1.3235
  519SOL    HW2 1703   1.648   2.031   3.497  2.0567  1.1101  0.3516
  520SOL     OW 1704   0.899   0.694   1.797  0.2575 -0.1353  0.7065
  520SOL    HW1 1705   0.949   0.748   1.736  3.0169 -0.8035  2.2430
  520SOL    HW2 1706   0.825   0.750   1.822 -0.0326  0.7762 -1.8584
  521SOL     OW 1707   2.607   3.000   1.831 -0.2391 -0.2371  0.0649
  521SOL    HW1 1708   2.573   3.025   1.745  2.8931  1.1114 -0.9115
  521SOL    HW2 1709   2.598   2.905   1.834 -2.0000 -0.1475 -0.9660
  522SOL     OW 1710   2.099   2.970   0.549  0.0397 -0.4003  0.0332
  522SOL    HW1 1711   2.043   2.957   0.626 -1.1158  3.1254 -0.0107
  522SOL    HW2 1712   2.178   3.012   0.584 -0.6952  1.6678 -0.6445
  523SOL     OW 1713   3.019   0.859   2.873  0.6983  0.1041  0.4367
  523SOL    HW1 1714   3.031   0.767   2.852  1.1110  0.2677 -0.0645
  523SOL    HW2 1715   2.926   0.876   2.856  1.0924  0.3372 -1.7859
  524SOL     OW 1716   1.803   1.311   2.397 -0.3148  0.8589  0.6696
  524SOL    HW1 1717   1.802   1.342   2.488  0.0151  0.3937  0.8348
  524SOL    HW2 1718   1.756   1.228   2.400  1.6879 -0.3290  0.8538
  525SOL     OW 1719   1.286   2.227   0.482  0.3513  0.5607 -0.2725
  525SOL    HW1 1720   1.351   2.211   0.550 -0.4471 -0.0592  0.3474
  525SOL    HW2 1721   1.206   2.250   0.529 -0.7367 -1.7045 -0.8866
  526SOL     OW 1722   0.352   0.381   2.447  0.0691 -0.0406  0.1856
  526SOL    HW1 1723   0.305   0.433   2.381  1.1065 -0.3892 -0.8679
  526SOL    HW2 1724   0.307   0.297   2.447 -0.8802  0.4510  1.0407
  527SOL     OW 1725   2.165   0.941   3.664 -0.1361  0.0893  0.6411
  527SOL    HW1 1726   2.086   0.908   3.621 -0.8196  2.0069  0.3541
  527SOL    HW2 1727   2.178   1.029   3.628  2.9593 -0.6362 -0.3858
  528SOL     OW 1728   2.505   0.548   3.558 -0.0177 -0.2358 -0.9337
  528SOL    HW1 1729   2.434   0.610   3.541 -0.7918 -0.5653  0.8744
  528SOL    HW2 1730   2.466   0.462   3.541 -0.3753 -0.4759  0.8589
  529SOL     OW 1731   1.631   2.573   2.315  0.3705  0.1242 -0.1425
  529SOL    HW1 1732   1.606   2.616   2.234  3.8331  0.3841 -1.2474
  529SOL    HW2 1733   1.580   2.618   2.383 -2.6178 -0.1057 -2.0595
  530SOL     OW 1734   1.278   0.276   2.164  0.4934 -0.2637  0.7155
  530SOL    HW1 1735   1.193   0.316   2.183  1.3283  1.9994  0.0316
  530SOL    HW2 1736   1.298   0.223   2.240 -1.4535 -0.6938  0.9624
  531SOL     OW 1737   3.252   1.647   0.905  0.6602 -0.1524 -0.1152
  531SOL    HW1 1738   3.253   1.671   0.813  1.4998 -1.7201 -0.5560
  531SOL    HW2 1739   3.286   1.557   0.907  1.1664  0.0332  1.7741
  532SOL     OW 1740   2.057   0.812   2.913 -0.0803 -0.0742  0.1910
  532SOL    HW1 1741   2.127   0.786   2.973 -0.4628 -1.8341 -0.0547
  532SOL    HW2 1742   2.022   0.729   2.880 -2.3436  0.7510  0.3658
  533SOL     OW 1743   1.648   1.655   3.027  0.2168  0.4337 -0.6002
  533SOL    HW1 1744   1.633   1.613   2.942 -3.6448  4.6810 -2.4284
  533SOL    HW2 1745   1.693   1.737   3.006  2.4001  0.0835  2.0525
  534SOL     OW 1746   0.637   1.596   3.259  0.5530  0.3053  0.5397
  534SOL    HW1 1747   0.661   1.506   3.237  1.8773  0.7717 -0.0522
  534SOL    HW2 1748   0.560   1.614   3.205 -0.6745 -0.9462  1.8005
  535SOL     OW 1749   2.598   3.213   2.669  0.2468  0.0175  1.0295
  535SOL    HW1 1750   2.632   3.139   2.620 -0.8620  1.6952 -2.6441
  535SOL    HW2 1751   2.506   3.219   2.643  0.1716  2.3157  1.6117
  536SOL     OW 1752   3.602   3.471   3.064 -0.1103 -0.1360  0.1251
  536SOL    HW1 1753   3.654   3.432   3.134  1.5388  1.0735 -0.3572
  536SOL    HW2 1754   3.614   3.413   2.989  1.1706  0.4681 -0.1766
  537SOL     OW 1755   1.164   2.731   1.444  0.2251 -0.0081 -0.5279
  537SOL    HW1 1756   1.194   2.641   1.442 -0.2955 -0.3157  2.0960
  537SOL    HW2 1757   1.092   2.732   1.507  0.4152  2.2675 -0.2255
  538SOL     OW 1758   0.113   0.456   2.830  0.6904 -0.0891  0.0844
  538SOL    HW1 1759   0.045   0.479   2.892  0.8893  2.6570 -0.5682
  538SOL    HW2 1760   0.189   0.435   2.884  0.4591  0.8747  0.8171
  539SOL     OW 1761   1.259   2.995   0.989 -0.0546 -0.3274  0.2335
  539SOL    HW1 1762   1.282   2.964   0.901  0.7936  0.6080  0.1116
  539SOL    HW2 1763   1.272   3.089   0.986  1.8879 -0.4721  1.8860
  540SOL     OW 1764   0.293   2.573   2.101  0.2692  0.5263  1.0494
  540SOL    HW1 1765   0.266   2.571   2.009 -0.7261  2.0362  1.2889
  540SOL    HW2 1766   0.371   2.517   2.103 -0.7522 -1.0448 -0.3389
  541SOL     OW 1767   3.030   0.981   3.446  0.0705 -0.0832  0.0555
  541SOL    HW1 1768   2.973   0.939   3.381  0.7271 -0.5149 -0.2529
  541SOL    HW2 1769   3.025   0.924   3.523 -1.4542  0.9286  0.7526
  542SOL     OW 1770   3.695   1.761   2.901 -0.2016 -0.1996  0.0828
  542SOL    HW1 1771   3.663   1.671   2.892 -0.3555 -0.0945 -0.4545
  542SOL    HW2 1772   3.683   1.782   2.994 -0.8089 -0.4911  0.0725
  543SOL     OW 1773   0.603   1.466   2.561  0.1457  0.1270  0.0310
  543SOL    HW1 1774   0.528   1.523   2.577  1.5406  1.3027  3.2069
  543SOL    HW2 1775   0.679   1.521   2.581  1.9012 -1.1989 -2.4241
  544SOL     OW 1776   2.794   2.207   1.329 -0.2790 -0.3634  0.3874
  544SOL    HW1 1777   2.739   2.274   1.371  0.5447 -0.0660  1.0458
  544SOL    HW2 1778   2.756   2.124   1.357 -0.5792 -0.1636  0.5848
  545SOL     OW 1779   0.815   2.831   1.255  0.2125  0.6471 -0.3762
  545SOL    HW1 1780   0.747   2.816   1.188  0.7582  3.4506 -1.7027
  545SOL    HW2 1781   0.897   2.834   1.206  0.4778  4.2837  0.0530
  546SOL     OW 1782   1.877   1.337   1.916  0.3500 -0.2223 -0.1167
  546SOL    HW1 1783   1.964   1.297   1.910  0.4920  0.0865 -0.1216
  546SOL    HW2 1784   1.870   1.364   2.008  0.4207  0.1190 -0.2128
  547SOL     OW 1785   3.023   2.148   1.688  0.2631  0.0935  0.0044
  547SOL    HW1 1786   3.034   2.132   1.594 -0.4225  0.7977 -0.2024
  547SOL    HW2 1787   3.073   2.228   1.704  1.3168 -0.6190  0.4819
  548SOL     OW 1788   3.022   2.299   3.666  1.0267 -0.2763 -0.2567
  548SOL    HW1 1789   3.072   2.279   3.745  1.1090  2.6758  0.5556
  548SOL    HW2 1790   3.088   2.332   3.604  1.1840 -3.7463 -2.1637
  549SOL     OW 1791   3.461   0.986   3.343 -0.3677  0.5039 -0.1467
  549SOL    HW1 1792   3.487   1.078   3.343  0.9383  0.1543  0.0354
  549SOL    HW2 1793   3.411   0.975   3.424 -0.8134  1.1133 -0.3276
  550SOL     OW 1794   3.661   2.896   0.350  0.3632 -0.1285  0.3975
  550SOL    HW1 1795   3.587   2.841   0.324  0.5248  0.7363 -2.1633
  550SOL    HW2 1796   3.662   2.891   0.446 -1.7785 -1.7145  0.4146
  551SOL     OW 1797   3.000   0.296   3.201 -0.5412  0.1888  0.4676
  551SOL    HW1 1798   3.073   0.309   3.261 -0.4035 -0.3867  0.4273
  551SOL    HW2 1799   2.974   0.204   3.213 -1.3919  0.4383  0.6341
  552SOL     OW 1800   1.823   1.802   3.411  0.0753 -0.0573 -0.2877
  552SOL    HW1 1801   1.800   1.730   3.470 -0.4108 -0.0769 -0.4901
  552SOL    HW2 1802   1.759   1.870   3.432  1.8381  1.1628  1.3965
  553SOL     OW 1803   3.122   3.440   3.730  0.1570 -0.0969 -0.3492
  553SOL    HW1 1804   3.093   3.498   3.660 -0.5603  0.9195  0.7573
  553SOL    HW2 1805   3.074   3.469   3.807  1.2316 -0.9224  0.6717
  554SOL     OW 1806   0.091   1.304   3.683 -0.4754  0.1485  0.0628
  554SOL    HW1 1807   0.084   1.240   3.613  1.2450  0.8973 -0.8764
  554SOL    HW2 1808   0.160   1.364   3.653  1.4977 -0.4136  3.0847
  555SOL     OW 1809   1.626   0.861   0.351 -0.2215 -0.2187 -0.8731
  555SOL    HW1 1810   1.660   0.860   0.261 -0.9752 -1.7777 -1.1734
  555SOL    HW2 1811   1.561   0.931   0.351  1.7518  1.7174 -0.7228
  556SOL     OW 1812   3.675   0.069   1.187 -0.2101  0.2430  0.2743
  556SOL    HW1 1813   3.766   0.041   1.192 -0.0533  0.7403  0.2946
  556SOL    HW2 1814   3.661   0.122   1.266 -0.4022  0.4752  0.0887
  557SOL     OW 1815   2.073   0.956   3.166 -0.3112  0.4459  0.4335
  557SOL    HW1 1816   2.015   0.891   3.125 -0.0740 -0.0651  0.8981
  557SOL    HW2 1817   2.019   0.997   3.233  0.4003 -1.4615  2.2955
  558SOL     OW 1818   2.227   3.566   1.096  0.3021 -0.3266  0.3343
  558SOL    HW1 1819   2.175   3.588   1.019  0.9809 -1.0621 -0.3391
  558SOL    HW2 1820   2.302   3.519   1.063  0.2286 -1.3216  1.5073
  559SOL     OW 1821   2.021   1.102   1.285 -0.0442  0.0546 -0.4785
  559SOL    HW1 1822   2.053   1.101   1.375 -2.2921 -0.3808  0.3829
  559SOL    HW2 1823   1.944   1.160   1.287 -0.2527 -0.1012 -2.0729
  560SOL     OW 1824   1.450   1.146   0.000  0.2214 -0.1282 -0.1148
  560SOL    HW1 1825   1.392   1.147   0.077  2.3591  1.7347  1.6091
  560SOL    HW2 1826   1.507   1.070   0.014  1.4396  0.9343  0.8652
  561SOL     OW 1827   2.150   0.071   1.902  0.3956 -0.2213 -0.4959
  561SOL    HW1 1828   2.118   0.156   1.874 -3.9016 -1.3628  0.1668
  561SOL    HW2 1829   2.243   0.084   1.919 -0.0006  4.2330 -0.6697
  562SOL     OW 1830   3.314   2.434   2.198 -0.3516 -0.1795  0.4577
  562SOL    HW1 1831   3.245   2.482   2.151  0.9202  1.6438  0.3419
  562SOL    HW2 1832   3.377   2.502   2.223  1.0734 -1.6977  1.1438
  563SOL     OW 1833   2.149   2.005   3.039  0.4963  0.0789  0.1440
  563SOL    HW1 1834   2.137   1.945   3.112 -2.0633 -0.5544 -0.6991
  563SOL    HW2 1835   2.241   1.996   3.015  0.9882 -0.9252  2.2027
  564SOL     OW 1836   1.510   1.832   2.249  0.2600  0.6843  0.0780
  564SOL    HW1 1837   1.545   1.752   2.289 -1.4736  0.9313  2.2782
  564SOL    HW2 1838   1.512   1.814   2.155 -0.6988 -2.2652  0.4968
  565SOL     OW 1839   0.987   1.981   0.925  0.0759  1.0158  0.0186
  565SOL    HW1 1840   1.036   2.019   0.998 -1.0126  1.3293  0.6150
  565SOL    HW2 1841   0.947   2.057   0.881  1.2028  0.8912 -1.2989
  566SOL     OW 1842   0.554   2.179   0.501 -0.2052 -0.1100  0.0464
  566SOL    HW1 1843   0.465   2.212   0.515 -0.0573  0.6141 -0.6301
  566SOL    HW2 1844   0.610   2.236   0.555  0.0043  0.4855 -0.7786
  567SOL     OW 1845   3.049   2.057   0.976 -0.5081 -0.2912 -0.4313
  567SOL    HW1 1846   3.144   2.049   0.968 -0.6422 -0.3350 -2.2820
  567SOL    HW2 1847   3.037   2.130   1.038  0.6864 -1.4676  1.2736
  568SOL     OW 1848   2.513   3.325   3.001 -0.2821 -0.0461 -0.1795
  568SOL    HW1 1849   2.558   3.404   2.970  0.7266  0.1947  1.7222
  568SOL    HW2 1850   2.420   3.342   2.985  0.0617  0.7134 -1.4994
  569SOL     OW 1851   3.578   3.734   0.896 -0.0607  0.1387  0.0387
  569SOL    HW1 1852   3.641   3.663   0.889 -2.0026 -1.5737 -0.8887
  569SOL    HW2 1853   3.587   3.765   0.987  1.8870 -0.2187 -0.0042
  570SOL     OW 1854   3.294   1.141   2.261 -0.0320  0.1351 -0.0989
  570SOL    HW1 1855   3.327   1.096   2.340  0.1842 -1.1789 -0.9025
  570SOL    HW2 1856   3.358   1.211   2.246  1.8220 -1.6148 -0.9265
  571SOL     OW 1857   1.554   1.377   1.761  0.1541  0.4518 -1.1358
  571SOL    HW1 1858   1.634   1.343   1.721  0.2256  0.9901 -1.4567
  571SOL    HW2 1859   1.504   1.299   1.785  0.1592  0.1107 -2.1764
  572SOL     OW 1860   1.146   1.460   3.613 -0.3791  0.2441 -0.4159
  572SOL    HW1 1861   1.214   1.474   3.547  0.0918  0.0544  0.0227
  572SOL    HW2 1862   1.070   1.508   3.580 -0.0362  0.4474 -0.9167
  573SOL     OW 1863   2.991   3.485   1.210  0.5490 -0.6426  0.2918
  573SOL    HW1 1864   2.936   3.560   1.188  1.6193  0.1597  0.2738
  573SOL    HW2 1865   2.930   3.413   1.224 -0.5169  0.3291  0.6997
  574SOL     OW 1866   0.978   0.451   1.675 -0.3065 -0.1823 -0.1992
  574SOL    HW1 1867   0.980   0.528   1.732  0.3402 -0.0501 -0.3890
  574SOL    HW2 1868   0.926   0.478   1.600  1.7583  0.8839 -1.3574
  575SOL     OW 1869   1.815   1.856   3.037  0.5218 -0.0455  0.1980
  575SOL    HW1 1870   1.837   1.949   3.040  0.1989  0.1050 -1.2315
  575SOL    HW2 1871   1.877   1.814   3.096  2.7427  0.7116 -1.4414
  576SOL     OW 1872   1.515   0.919   1.967 -0.3624  0.3039  0.5155
  576SOL    HW1 1873   1.557   0.999   1.998  0.1096  1.0482 -1.8434
  576SOL    HW2 1874   1.421   0.937   1.971 -0.3630  0.0731  2.1533
  577SOL     OW 1875   0.296   0.607   1.330 -0.2104 -0.2478  0.2393
  577SOL    HW1 1876   0.328   0.627   1.242 -1.0610 -0.3038 -0.0906
  577SOL    HW2 1877   0.293   0.511   1.334 -0.1876 -0.2456  0.3275
  578SOL     OW 1878   0.149   1.192   1.936  0.2712  0.5271 -0.0906
  578SOL    HW1 1879   0.092   1.205   1.861  0.0492 -0.2373 -0.0585
  578SOL    HW2 1880   0.139   1.100   1.959  1.1876  0.4848  0.1883
  579SOL     OW 1881   2.976   3.311   0.944 -0.3341  0.0469  0.0265
  579SOL    HW1 1882   3.032   3.304   1.022  0.1179 -0.3434 -0.3298
  579SOL    HW2 1883   2.989   3.229   0.897 -0.4806  0.3459 -0.5462
  580SOL     OW 1884   3.644   2.306   3.646 -0.4349 -0.1861  0.3013
  580SOL    HW1 1885   3.592   2.229   3.626  1.4480 -2.3706  3.0355
  580SOL    HW2 1886   3.602   2.345   3.722 -0.1191  0.1677  0.3006
  581SOL     OW 1887   0.937   1.946   1.337 -0.1476  0.5745  0.5863
  581SOL    HW1 1888   0.859   1.963   1.390 -1.8607 -1.4369 -1.1353
  581SOL    HW2 1889   0.957   1.854   1.354  0.1988  0.3303 -1.0554
  582SOL     OW 1890   0.301   3.342   1.393  0.5489 -0.3108  0.4133
  582SOL    HW1 1891   0.391   3.315   1.372  0.1809 -2.1890  1.0893
  582SOL    HW2 1892   0.306   3.375   1.482  0.7479  0.6892  0.0514
  583SOL     OW 1893   2.526   3.416   3.623 -0.0554  0.0181 -0.3970
  583SOL    HW1 1894   2.437   3.385   3.639 -0.1889 -0.6158 -2.1086
  583SOL    HW2 1895   2.558   3.444   3.709 -1.6861 -0.2903  0.3490
  584SOL     OW 1896   3.323   1.235   1.808  0.2969  0.0151  0.1473
  584SOL    HW1 1897   3.383   1.226   1.882  0.5227  0.9211  0.0904
  584SOL    HW2 1898   3.320   1.330   1.791  1.0227 -0.2361 -1.6331
  585SOL     OW 1899   2.233   1.484   3.174 -0.2990 -0.2276 -0.0512
  585SOL    HW1 1900   2.199   1.525   3.254 -0.1671  0.8895 -0.5587
  585SOL    HW2 1901   2.240   1.391   3.197  3.0072  0.4516  2.4206
  586SOL     OW 1902   1.146   2.638   0.773 -0.4967 -0.0431  0.3103
  586SOL    HW1 1903   1.141   2.680   0.687 -0.0896 -0.2208  0.1988
  586SOL    HW2 1904   1.058   2.601   0.786 -0.3483 -0.6634 -0.3603
  587SOL     OW 1905   0.255   3.747   0.246 -0.3399 -0.5911 -0.6796
  587SOL    HW1 1906   0.215   3.670   0.288  0.3053 -0.2548  0.6130
  587SOL    HW2 1907   0.271   3.719   0.156 -1.1337 -1.5904 -0.5335
  588SOL     OW 1908   3.403   3.089   3.084 -0.1886 -0.0417 -0.0498
  588SOL    HW1 1909   3.436   3.056   3.001 -0.2161  1.3076 -0.6198
  588SOL    HW2 1910   3.341   3.157   3.060 -0.6397 -0.0253  1.0780
  589SOL     OW 1911   1.914   2.372   1.425 -0.2729  0.5656  0.0947
  589SOL    HW1 1912   2.000   2.336   1.401  0.4470  2.2459 -0.0076
  589SOL    HW2 1913   1.877   2.403   1.343 -1.0681 -0.3074  0.1160
  590SOL     OW 1914   2.437   3.573   0.189 -0.0049 -0.0211 -0.1664
  590SOL    HW1 1915   2.522   3.550   0.151 -0.7385  0.8281 -2.4788
  590SOL    HW2 1916   2.447   3.664   0.216  0.4246 -0.5393  1.5696
  591SOL     OW 1917   2.551   0.093   0.196 -0.7464  0.5266  0.1108
  591SOL    HW1 1918   2.531   0.177   0.238  1.0030  1.5144 -0.8930
  591SOL    HW2 1919   2.635   0.067   0.234 -0.7531 -0.2408 -0.3790
  592SOL     OW 1920   2.362   1.573   2.525 -0.0752  0.1322  0.9388
  592SOL    HW1 1921   2.294   1.582   2.592  0.4528 -1.4325  1.7508
  592SOL    HW2 1922   2.384   1.479   2.526  2.3788  0.6408  1.0231
  593SOL     OW 1923   2.621   0.497   2.820 -0.1477 -0.2822  0.2053
  593SOL    HW1 1924   2.555   0.553   2.860 -0.7594 -0.6287 -0.2978
  593SOL    HW2 1925   2.604   0.410   2.857 -0.7146 -0.6035 -0.7762
  594SOL     OW 1926   3.325   2.011   3.096  0.2228  1.0650 -0.0355
  594SOL    HW1 1927   3.307   1.935   3.040 -0.0925  1.4162 -0.4211
  594SOL    HW2 1928   3.246   2.064   3.090 -1.4613 -0.6778  3.7738
  595SOL     OW 1929   2.622   1.451   1.956  0.7457 -0.3276  0.3794
  595SOL    HW1 1930   2.700   1.412   1.995  1.1219 -0.5168 -0.5428
  595SOL    HW2 1931   2.587   1.382   1.899  0.3485  0.0343  0.1764
  596SOL     OW 1932   0.459   1.731   2.367  0.1867  0.0344  0.8941
  596SOL    HW1 1933   0.372   1.769   2.382 -0.4804 -0.1465 -1.8543
  596SOL    HW2 1934   0.443   1.636   2.369  0.3801 -0.0016  0.7131
  597SOL     OW 1935   2.812   2.993   0.188  0.3454  0.8689 -0.3126
  597SOL    HW1 1936   2.775   2.905   0.177  2.0459  0.1806 -0.9304
  597SOL    HW2 1937   2.885   2.980   0.248  1.5796  1.5484 -1.6189
  598SOL     OW 1938   1.851   3.548   2.387 -0.4494 -0.2575  0.6535
  598SOL    HW1 1939   1.788   3.487   2.351  1.0120 -1.5179  0.1145
  598SOL    HW2 1940   1.807   3.633   2.385 -1.6142 -0.8603 -0.9732
  599SOL     OW 1941   2.638   3.072   1.573  0.6939 -0.2435  0.0093
  599SOL    HW1 1942   2.663   3.011   1.504  1.8177  0.3258 -0.1116
  599SOL    HW2 1943   2.581   3.135   1.529 -0.4248 -1.1413  0.1217
  600SOL     OW 1944   0.508   2.617   3.635 -0.3319 -0.4794  0.2689
  600SOL    HW1 1945   0.437   2.651   3.581  0.9185 -0.2625 -1.3213
  600SOL    HW2 1946   0.529   2.689   3.695 -1.4533 -0.5662  0.7966
  601SOL     OW 1947   0.675   1.805   2.244  0.3317  0.1664  0.3514
  601SOL    HW1 1948   0.589   1.774   2.270  0.8376 -0.7058  1.0162
  601SOL    HW2 1949   0.665   1.900   2.238 -1.0068 -0.0134 -0.8633
  602SOL     OW 1950   0.571   1.056   0.190 -0.7697 -0.5668 -0.4898
  602SOL    HW1 1951   0.595   1.001   0.264 -0.4232 -0.2600 -0.3642
  602SOL    HW2 1952   0.476   1.066   0.196 -1.2175 -3.1773 -1.9562
  603SOL     OW 1953   0.781   0.982   1.758 -0.4365 -0.1672 -0.1315
  603SOL    HW1 1954   0.700   0.958   1.713  0.3716 -0.0678 -1.6973
  603SOL    HW2 1955   0.781   0.929   1.838 -2.1304 -0.0132  0.0003
  604SOL     OW 1956   2.757   2.826   3.589  0.2847  0.0988  0.0541
  604SOL    HW1 1957   2.764   2.749   3.644  0.2515  1.3768  1.9420
  604SOL    HW2 1958   2.786   2.899   3.645 -0.4280  1.5613 -1.3805
  605SOL     OW 1959   1.259   3.109   3.434  0.4867  0.3736 -0.3632
  605SOL    HW1 1960   1.239   3.159   3.355  0.4453 -0.0758 -0.6387
  605SOL    HW2 1961   1.354   3.097   3.431  0.4109 -0.2028 -0.6888
  606SOL     OW 1962   0.489   3.491   0.789 -0.6510 -0.2479  0.1160
  606SOL    HW1 1963   0.477   3.404   0.827 -0.8063 -0.6471 -0.8011
  606SOL    HW2 1964   0.403   3.514   0.754 -0.5897  0.2430  0.2765
  607SOL     OW 1965   2.262   1.505   1.256  0.2323  0.8462  0.6250
  607SOL    HW1 1966   2.257   1.601   1.263  0.2581  0.8655  0.4129
  607SOL    HW2 1967   2.172   1.475   1.262  0.3373  0.7648  2.1627
  608SOL     OW 1968   2.062   0.095   2.970 -0.0335  0.5854 -0.0917
  608SOL    HW1 1969   2.045   0.077   3.062 -1.9051 -1.0028 -0.6762
  608SOL    HW2 1970   2.129   0.031   2.945 -1.3827 -0.7573 -0.4035
  609SOL     OW 1971   2.196   1.605   3.403  0.3559  0.2908 -0.1518
  609SOL    HW1 1972   2.179   1.606   3.497  1.3970  0.2112  0.0478
  609SOL    HW2 1973   2.289   1.584   3.395 -0.0381 -1.2587 -1.2483
  610SOL     OW 1974   0.732   0.885   2.897 -0.3133  0.1125 -0.9466
  610SOL    HW1 1975   0.811   0.847   2.860  0.9087  1.4775  0.1555
  610SOL    HW2 1976   0.762   0.933   2.974 -2.3942 -0.4146  0.2678
  611SOL     OW 1977   2.479   3.411   0.990 -0.0755  0.4472 -0.2044
  611SOL    HW1 1978   2.545   3.342   0.982 -2.4494 -2.0863  0.3275
  611SOL    HW2 1979   2.468   3.443   0.900  2.1610  1.2934 -0.2208
  612SOL     OW 1980   2.184   1.843   0.259 -0.8920 -0.2539 -0.6800
  612SOL    HW1 1981   2.250   1.912   0.259 -0.0480 -1.0101 -2.3494
  612SOL    HW2 1982   2.202   1.793   0.339 -2.9791  2.6916  1.8591
  613SOL     OW 1983   0.818   0.524   0.148  0.2433 -0.7276 -0.4309
  613SOL    HW1 1984   0.794   0.461   0.080 -0.9248 -2.8904  1.8614
  613SOL    HW2 1985   0.752   0.593   0.141  0.0588 -0.9801 -1.3568
  614SOL     OW 1986   2.000   3.503   3.515  0.3649 -0.4961 -0.3775
  614SOL    HW1 1987   1.983   3.453   3.595  1.6946 -0.9154 -0.3277
  614SOL    HW2 1988   2.088   3.475   3.488 -0.4828 -1.1753 -2.5916
  615SOL     OW 1989   1.662   2.280   3.399 -0.3961  0.5358  0.5174
  615SOL    HW1 1990   1.662   2.358   3.343 -1.0984  0.8940  1.0067
  615SOL    HW2 1991   1.660   2.314   3.488 -0.5365 -0.0420  0.7406
  616SOL     OW 1992   1.695   0.717   1.586  0.3160  0.3783 -0.0418
  616SOL    HW1 1993   1.699   0.809   1.610  0.4586  0.2766  0.3326
  616SOL    HW2 1994   1.656   0.674   1.663 -0.5509  0.2499 -0.5406
  617SOL     OW 1995   2.461   2.968   0.438 -0.0664 -0.3169 -0.1456
  617SOL    HW1 1996   2.550   2.958   0.472  0.1999 -1.6173 -1.1247
  617SOL    HW2 1997   2.405   2.962   0.516  0.6561 -0.3362  0.3822
  618SOL     OW 1998   0.638   2.209   3.330  0.8181 -0.5732 -0.0760
  618SOL    HW1 1999   0.640   2.303   3.311  2.6645 -0.5177  0.1674
  618SOL    HW2 2000   0.561   2.197   3.385  0.6587  0.8345  0.0533
  619SOL     OW 2001   0.858   2.436   3.212  0.1676  0.7384 -0.2643
  619SOL    HW1 2002   0.763   2.453   3.212 -0.1719 -0.9510  0.2831
  619SOL    HW2 2003   0.887   2.468   3.298 -0.0756  0.4359 -0.0663
  620SOL     OW 2004   1.217   0.572   3.450  0.1068 -0.6150  0.0932
  620SOL    HW1 2005   1.143   0.524   3.413  0.2351 -0.7992  0.0736
  620SOL    HW2 2006   1.270   0.596   3.374 -1.4713  2.1997 -0.2538
  621SOL     OW 2007   1.850   2.680   0.204  0.1999 -0.5243  0.7699
  621SOL    HW1 2008   1.909   2.686   0.279  2.4292 -3.6854 -0.4909
  621SOL    HW2 2009   1.901   2.713   0.130 -0.8861 -0.1791  0.1551
  622SOL     OW 2010   1.367   2.575   1.141 -0.7901 -0.5538  0.8243
  622SOL    HW1 2011   1.281   2.532   1.148 -1.6720  1.0190  0.2435
  622SOL    HW2 2012   1.421   2.532   1.207 -1.9425 -1.7706  1.0197
  623SOL     OW 2013   2.186   3.268   0.479 -0.0477 -0.7337 -0.3859
  623SOL    HW1 2014   2.101   3.312   0.492 -0.1566 -1.1232  0.2924
  623SOL    HW2 2015   2.221   3.259   0.568  1.8355  1.6105 -0.7948
  624SOL     OW 2016   3.673   2.096   3.314  0.1490  0.0922 -0.1715
  624SOL    HW1 2017   3.753   2.043   3.320  2.4418  3.4003  1.0078
  624SOL    HW2 2018   3.653   2.119   3.405 -2.0446 -0.3984 -0.4750
  625SOL     OW 2019   0.861   0.600   0.914  0.0969  0.0341  0.2981
  625SOL    HW1 2020   0.773   0.565   0.900 -0.7541  0.7633  3.1305
  625SOL    HW2 2021   0.887   0.565   0.999  0.9090  2.8981  1.3320
  626SOL     OW 2022   2.535   0.151   3.649 -0.2618 -0.4862 -0.4026
  626SOL    HW1 2023   2.460   0.127   3.595 -3.9677  2.4186  2.8709
  626SOL    HW2 2024   2.546   0.078   3.709  1.2300 -1.9271 -2.2897
  627SOL     OW 2025   1.986   2.095   2.353 -0.5156 -0.2523 -0.1858
  627SOL    HW1 2026   1.962   2.005   2.333 -0.7484  0.0632 -1.4194
  627SOL    HW2 2027   2.031   2.126   2.275  0.5984  0.3559  0.6604
  628SOL     OW 2028   3.632   3.770   2.435  0.2632 -0.1005  0.7001
  628SOL    HW1 2029   3.668   3.710   2.370 -0.1317  0.4938 -0.0917
  628SOL    HW2 2030   3.574   3.717   2.489 -2.4772  0.0622 -1.8543
  629SOL     OW 2031   0.038   3.286   1.402 -0.1795  0.4033  0.2165
  629SOL    HW1 2032   0.133   3.295   1.393 -0.2071  0.2866 -0.2264
  629SOL    HW2 2033   0.010   3.367   1.443  0.3918 -0.4876  2.5879
  630SOL     OW 2034   3.368   3.237   2.315 -0.1110 -0.1582 -0.0406
  630SOL    HW1 2035   3.285   3.255   2.270  0.0170 -0.3546 -0.3590
  630SOL    HW2 2036   3.422   3.194   2.249  1.3208  2.5482 -0.7686
  631SOL     OW 2037   0.865   3.020   1.656 -0.7189 -0.4513  0.5847
  631SOL    HW1 2038   0.914   3.010   1.574  1.0900  1.5590  1.3036
  631SOL    HW2 2039   0.790   3.074   1.632  0.5343  1.3118  0.4116
  632SOL     OW 2040   3.451   1.816   2.474 -0.1169  0.4699 -0.3484
  632SOL    HW1 2041   3.377   1.870   2.449 -0.8165 -0.0868  0.4784
  632SOL    HW2 2042   3.447   1.741   2.415 -1.8227 -0.8909  1.3878
  633SOL     OW 2043   3.536   0.261   1.634 -0.1845  0.0690  0.1659
  633SOL    HW1 2044   3.511   0.330   1.695 -1.6400 -1.3093  1.1994
  633SOL    HW2 2045   3.474   0.190   1.651  0.3894 -0.9819 -1.8151
  634SOL     OW 2046   0.339   1.173  -0.004  0.0676 -0.1159  0.6303
  634SOL    HW1 2047   0.316   1.116   0.070  0.5864 -0.8136  0.2719
  634SOL    HW2 2048   0.269   1.237  -0.008 -0.6491 -0.8615  0.9126
  635SOL     OW 2049   0.134   1.974   2.228 -0.6732  0.2307  0.3168
  635SOL    HW1 2050   0.042   1.987   2.206 -0.6570 -0.5847 -0.2700
  635SOL    HW2 2051   0.134   1.897   2.286 -0.4264  0.6474  0.8814
  636SOL     OW 2052   1.469   0.905   0.894  0.2099  0.0299  0.0534
  636SOL    HW1 2053   1.396   0.848   0.869 -1.8097  1.9967  1.1366
  636SOL    HW2 2054   1.486   0.958   0.817  1.2099 -1.0611 -0.5164
  637SOL     OW 2055   1.358   2.017   2.724 -1.1886 -0.0453 -0.3675
  637SOL    HW1 2056   1.344   2.062   2.641 -2.7391 -0.6863 -0.4845
  637SOL    HW2 2057   1.449   2.037   2.747 -0.7079  0.1150 -2.2254
  638SOL     OW 2058   2.333   0.311   2.082 -0.6451  0.1515 -0.1274
  638SOL    HW1 2059   2.298   0.389   2.126 -1.3411  0.1254 -0.6013
  638SOL    HW2 2060   2.400   0.278   2.141 -1.1064  0.4825  0.6067
  639SOL     OW 2061   0.290   3.297   0.559 -0.5518  0.1085  0.3200
  639SOL    HW1 2062   0.240   3.278   0.480 -0.5769  2.0413 -0.1765
  639SOL    HW2 2063   0.225   3.291   0.630 -0.7864 -0.4851  0.0607
  640SOL     OW 2064   2.368   0.055   0.469  0.5576  0.7250 -0.7216
  640SOL    HW1 2065   2.389   0.014   0.552  1.3670 -0.0341 -1.2909
  640SOL    HW2 2066   2.452   0.084   0.434  0.3886 -0.0246 -1.8172
  641SOL     OW 2067   1.227   0.547   0.489 -0.4298 -0.0392  0.2376
  641SOL    HW1 2068   1.167   0.601   0.438  0.9529  0.3260 -1.0799
  641SOL    HW2 2069   1.172   0.478   0.525 -1.4928 -0.4014 -1.9033
  642SOL     OW 2070   0.964   1.300   1.227  0.7532 -0.3882 -0.0341
  642SOL    HW1 2071   0.938   1.237   1.160  0.0819  1.5641 -1.7318
  642SOL    HW2 2072   0.882   1.336   1.260  1.0818 -1.2776  1.8765
  643SOL     OW 2073   0.100   0.913   1.948 -0.2356  0.0348  0.0045
  643SOL    HW1 2074   0.023   0.870   1.909 -0.9111  1.4697 -0.3091
  643SOL    HW2 2075   0.106   0.876   2.036 -0.4690 -1.0781 -0.4297
  644SOL     OW 2076   0.840   1.033   3.580  0.0642  0.1669  0.1616
  644SOL    HW1 2077   0.921   1.025   3.530  1.5602 -0.4238  2.5212
  644SOL    HW2 2078   0.843   1.122   3.616 -0.9663  0.5691 -0.6936
  645SOL     OW 2079   1.746   2.927   0.586  0.1592 -0.2338 -0.2172
  645SOL    HW1 2080   1.759   3.009   0.537 -1.8141  1.1205  1.3978
  645SOL    HW2 2081   1.819   2.925   0.648  0.4767  0.0373 -0.5707
  646SOL     OW 2082   1.291   0.507   0.947  0.2443  0.1331 -0.1954
  646SOL    HW1 2083   1.227   0.577   0.958 -1.4280 -1.0961 -1.5805
  646SOL    HW2 2084   1.289   0.459   1.029 -2.2000 -1.0754 -0.8611
  647SOL     OW 2085   2.458   0.681   1.766 -0.2599  0.1393  0.3689
  647SOL    HW1 2086   2.415   0.748   1.818 -1.4061 -1.3526  1.4030
  647SOL    HW2 2087   2.440   0.599   1.811  0.7072 -0.9464 -1.1039
  648SOL     OW 2088   2.852   1.544   2.451  0.5370  0.6193 -0.0830
  648SOL    HW1 2089   2.796   1.606   2.497 -0.9114 -0.5726 -0.1928
  648SOL    HW2 2090   2.837   1.563   2.358 -0.3946 -0.2768 -0.1322
  649SOL     OW 2091   1.507   1.573   2.567 -0.1959 -0.0628 -0.2717
  649SOL    HW1 2092   1.539   1.607   2.483  0.6782 -0.6826 -0.2092
  649SOL    HW2 2093   1.434   1.516   2.544  0.0925 -0.2957 -0.6206
  650SOL     OW 2094   3.625   1.522   3.004  0.0259 -0.0888 -0.1956
  650SOL    HW1 2095   3.583   1.437   3.015  0.0102 -0.0369  0.1576
  650SOL    HW2 2096   3.715   1.501   2.977 -0.2132 -0.1982 -0.9137
  651SOL     OW 2097   0.765   1.557   2.159  0.0417 -0.1679  0.2487
  651SOL    HW1 2098   0.737   1.649   2.168 -1.6215 -0.6238  0.0190
  651SOL    HW2 2099   0.695   1.515   2.111  0.5905 -1.6746  0.7012
  652SOL     OW 2100   2.221   2.099   0.926 -0.7594  0.2446 -0.2637
  652SOL    HW1 2101   2.272   2.114   0.846 -2.7010 -0.8198 -1.7911
  652SOL    HW2 2102   2.287   2.097   0.996  1.0272  1.0929 -1.8123
  653SOL     OW 2103   2.479   1.793   1.830 -0.5153 -0.5516  0.2297
  653SOL    HW1 2104   2.454   1.713   1.784  0.4637 -0.7248 -0.0414
  653SOL    HW2 2105   2.509   1.763   1.916  0.7333 -0.5992 -0.2031
  654SOL     OW 2106   3.637   2.574   3.205  0.3031 -0.4298 -0.5871
  654SOL    HW1 2107   3.567   2.623   3.163  1.2608  1.4850 -0.0805
  654SOL    HW2 2108   3.619   2.482   3.185 -1.9199  0.0705 -1.0487
  655SOL     OW 2109   1.162   2.199   2.783 -0.1646  0.3434  0.2637
  655SOL    HW1 2110   1.127   2.162   2.864 -0.2572 -1.8706 -0.7367
  655SOL    HW2 2111   1.222   2.133   2.750  2.2855  2.5087  0.0506
  656SOL     OW 2112   0.457   3.292   2.760  0.2262  0.2147  0.0200
  656SOL    HW1 2113   0.467   3.203   2.724 -1.7336 -0.7139  1.5887
  656SOL    HW2 2114   0.363   3.309   2.758  0.2516  1.0696  2.3620
  657SOL     OW 2115   3.108   2.576   2.706  0.1517 -0.5463  0.1461
  657SOL    HW1 2116   3.029   2.596   2.655 -0.4770 -1.9058  0.5286
  657SOL    HW2 2117   3.084   2.497   2.756  1.4782 -0.4861  0.9032
  658SOL     OW 2118   1.800   1.256   1.268  0.5470  0.2585 -1.2074
  658SOL    HW1 2119   1.776   1.171   1.305  0.7479  1.5017  2.1923
  658SOL    HW2 2120   1.727   1.280   1.211 -0.9232 -0.9427  0.0742
  659SOL     OW 2121   2.465   2.684   0.871  0.8124  0.2762 -0.6982
  659SOL    HW1 2122   2.527   2.665   0.941  2.1447 -0.0315 -1.9189
  659SOL    HW2 2123   2.434   2.598   0.843  0.9709  0.3462 -1.0866
  660SOL     OW 2124   2.707   1.759   2.629 -0.4258  0.5249 -0.0109
  660SOL    HW1 2125   2.641   1.828   2.628 -0.6096  0.3695  0.8053
  660SOL    HW2 2126   2.675   1.696   2.694  0.6091  0.5304  0.5256
  661SOL     OW 2127   3.239   3.492   0.653 -0.4107  0.7040 -0.4040
  661SOL    HW1 2128   3.243   3.538   0.737 -0.4767  1.6908 -0.9266
  661SOL    HW2 2129   3.254   3.560   0.588  1.1529 -0.2846 -1.1450
  662SOL     OW 2130   3.563   2.150   3.048 -0.2122  0.5417 -0.2797
  662SOL    HW1 2131   3.476   2.111   3.051 -0.2673  0.6603 -0.3425
  662SOL    HW2 2132   3.611   2.106   3.118 -0.3067  0.4392 -0.2784
  663SOL     OW 2133   3.709   1.193   3.061  0.0741 -0.1326  0.2705
  663SOL    HW1 2134   3.644   1.145   3.010  1.2685 -1.2295 -0.2767
  663SOL    HW2 2135   3.672   1.197   3.149 -1.0310 -0.1259 -0.1771
  664SOL     OW 2136   2.318   1.600   2.922 -0.0843  0.0496  0.0550
  664SOL    HW1 2137   2.251   1.600   2.854  1.2423 -1.6172 -1.3595
  664SOL    HW2 2138   2.274   1.568   3.000 -1.1591 -0.0494 -0.5818
  665SOL     OW 2139   0.587   2.437   1.686 -0.5226 -0.4387 -0.5615
  665SOL    HW1 2140   0.580   2.501   1.615 -3.2355  0.1385  0.0829
  665SOL    HW2 2141   0.617   2.357   1.644  2.7015  1.0734 -1.4553
  666SOL     OW 2142   1.032   3.603   1.055  0.2713 -0.4018 -0.0381
  666SOL    HW1 2143   1.024   3.696   1.032  0.4281 -0.1153  0.9931
  666SOL    HW2 2144   1.118   3.596   1.096  0.8011 -1.2704 -1.2646
  667SOL     OW 2145   3.451   0.050   0.615  0.3275 -0.6892  0.7623
  667SOL    HW1 2146   3.462   0.021   0.706  0.7214 -1.7773  0.3819
  667SOL    HW2 2147   3.524   0.112   0.602  1.3436 -1.8717  0.6657
  668SOL     OW 2148   1.591   3.574   0.229 -0.7154  0.3724  0.0741
  668SOL    HW1 2149   1.504   3.548   0.199 -2.1755 -0.4851  4.3429
  668SOL    HW2 2150   1.575   3.648   0.287  1.5049  0.5885  0.5117
  669SOL     OW 2151   0.542   0.062   2.945  0.4151  0.0843 -0.2661
  669SOL    HW1 2152   0.531   0.136   2.885 -1.0266  0.9265  0.9882
  669SOL    HW2 2153   0.460   0.057   2.994  1.7312 -0.1947  2.0561
  670SOL     OW 2154   2.211   0.855   0.161  0.4704  0.2050  0.0925
  670SOL    HW1 2155   2.158   0.921   0.205  0.5776 -0.9434  2.0360
  670SOL    HW2 2156   2.196   0.871   0.068  0.8604  3.2432  0.4357
  671SOL     OW 2157   1.375   1.181   1.841  0.0315  0.3571 -0.0675
  671SOL    HW1 2158   1.330   1.142   1.916 -0.5074  0.6418 -0.2363
  671SOL    HW2 2159   1.326   1.150   1.765  0.5096  0.1579 -0.3003
  672SOL     OW 2160   2.801   0.048   0.886  0.4198  0.2694 -0.0109
  672SOL    HW1 2161   2.836  -0.027   0.838  0.6482 -0.3480  1.0861
  672SOL    HW2 2162   2.706   0.040   0.877  0.4809  0.6782 -1.1133
  673SOL     OW 2163   0.221   3.469   2.811  0.2414 -0.3216  0.5093
  673SOL    HW1 2164   0.184   3.453   2.724  0.6736  1.4923 -0.0288
  673SOL    HW2 2165   0.158   3.428   2.871 -1.4153  0.6318 -0.5230
  674SOL     OW 2166   3.746   2.316   0.661  0.3164 -0.4536  0.6125
  674SOL    HW1 2167   3.679   2.249   0.654  0.1495 -0.3479  1.2058
  674SOL    HW2 2168   3.773   2.332   0.570 -0.4019 -0.5501  0.3745
  675SOL     OW 2169   0.768   3.479   1.971 -0.0197 -0.3412  0.0535
  675SOL    HW1 2170   0.845   3.440   1.930  0.1340  0.1692 -0.1503
  675SOL    HW2 2171   0.797   3.566   2.000 -0.2187 -0.5674  0.9442
  676SOL     OW 2172   3.310   1.597   1.248 -0.4917 -0.2431 -0.0269
  676SOL    HW1 2173   3.386   1.621   1.301  0.7562 -0.5329 -1.5998
  676SOL    HW2 2174   3.330   1.509   1.217 -0.1372  0.6706 -2.6525
  677SOL     OW 2175   1.471   2.623   0.558 -0.3735  0.0030  0.5490
  677SOL    HW1 2176   1.411   2.623   0.484  0.5598 -0.7580 -0.2315
  677SOL    HW2 2177   1.462   2.710   0.597 -0.7496  0.4664 -0.5623
  678SOL     OW 2178   1.079   3.140   1.156 -0.4338 -0.0319  0.1008
  678SOL    HW1 2179   1.141   3.070   1.133  0.0907 -0.3700  2.2995
  678SOL    HW2 2180   1.077   3.197   1.079  2.8699  0.1645  0.0415
  679SOL     OW 2181   0.361   3.619   1.622 -0.1776 -0.2713 -0.1447
  679SOL    HW1 2182   0.407   3.556   1.676  0.0604 -0.0961 -0.1399
  679SOL    HW2 2183   0.269   3.594   1.629 -0.2792  0.3686  1.1865
  680SOL     OW 2184   2.891   3.303   1.940  0.2613 -0.0402  0.0480
  680SOL    HW1 2185   2.867   3.287   2.032  0.7550 -0.0319  0.1850
  680SOL    HW2 2186   2.818   3.352   1.904  0.1337  0.0968  0.4840
  681SOL     OW 2187   0.977   1.962   1.707 -0.0164  0.0527  0.0978
  681SOL    HW1 2188   0.957   1.873   1.677  1.0801 -0.7075  1.5265
  681SOL    HW2 2189   1.031   1.999   1.637  0.3341 -0.7441 -0.0581
  682SOL     OW 2190   2.731   3.080   1.189  0.0352 -0.1945 -0.4480
  682SOL    HW1 2191   2.652   3.028   1.205  0.1785 -0.7073 -1.3159
  682SOL    HW2 2192   2.783   3.026   1.130  0.5515  0.5990 -0.7353
  683SOL     OW 2193   0.425   2.305   3.526 -0.1378 -0.1933 -0.0581
  683SOL    HW1 2194   0.347   2.273   3.571  0.8250 -3.8442 -0.7167
  683SOL    HW2 2195   0.490   2.313   3.595 -0.7750  2.1298  0.3650
  684SOL     OW 2196   1.632   0.543   3.277  0.1764 -0.0837  0.3058
  684SOL    HW1 2197   1.674   0.473   3.328  1.0106 -0.0901 -0.3707
  684SOL    HW2 2198   1.683   0.547   3.196  0.0180  1.1759  0.2529
  685SOL     OW 2199   2.711   1.675   1.280  0.8597 -0.1670  0.3279
  685SOL    HW1 2200   2.638   1.731   1.254  1.6950 -0.0356 -1.9682
  685SOL    HW2 2201   2.685   1.639   1.365 -1.2518  0.9072  0.1972
  686SOL     OW 2202   1.969  -0.003   0.269 -0.2262 -0.2429  0.0603
  686SOL    HW1 2203   1.905   0.038   0.210 -1.0287 -1.7626 -0.1776
  686SOL    HW2 2204   2.053   0.032   0.240 -0.6772 -0.3856 -1.5323
  687SOL     OW 2205   1.125   3.649   2.361  0.5334 -0.5088 -0.0926
  687SOL    HW1 2206   1.093   3.629   2.449  1.8930 -1.5481  0.1999
  687SOL    HW2 2207   1.055   3.702   2.321  1.4105  3.2307  2.8201
  688SOL     OW 2208   2.363   0.030   3.512  0.2742 -0.3451 -0.1417
  688SOL    HW1 2209   2.269   0.022   3.531  0.7923 -2.4068  1.8251
  688SOL    HW2 2210   2.377  -0.028   3.437  0.3007 -1.7360  0.8994
  689SOL     OW 2211   3.276   2.985   1.710  0.0204 -0.2118 -0.2064
  689SOL    HW1 2212   3.283   3.080   1.696  0.8475 -0.4491 -1.5833
  689SOL    HW2 2213   3.296   2.973   1.803 -1.1923  1.0553  0.2452
  690SOL     OW 2214   2.975   2.748   2.494 -0.6287  0.3557  0.2853
  690SOL    HW1 2215   3.069   2.763   2.502 -0.3840 -1.2824  0.9481
  690SOL    HW2 2216   2.948   2.800   2.418  1.1513 -0.5118 -1.0097
  691SOL     OW 2217   2.413   3.607   0.754  0.3005 -0.0763 -0.0560
  691SOL    HW1 2218   2.333   3.571   0.717  0.2124 -1.2072  1.1467
  691SOL    HW2 2219   2.482   3.579   0.695  0.0307 -0.8341 -0.0205
  692SOL     OW 2220   1.219   3.463   3.378 -0.1264 -0.4168  0.3402
  692SOL    HW1 2221   1.133   3.482   3.341 -0.0653  0.1838  0.4958
  692SOL    HW2 2222   1.229   3.369   3.367 -0.5617 -0.4091 -0.1957
  693SOL     OW 2223   1.761   0.828   3.163  0.0172  0.7331 -0.2256
  693SOL    HW1 2224   1.835   0.769   3.178 -0.1998  0.3079 -0.7839
  693SOL    HW2 2225   1.755   0.881   3.242  0.4701  0.2800  0.1124
  694SOL     OW 2226   2.336   0.074   1.534  0.2743 -0.3348  0.3896
  694SOL    HW1 2227   2.331   0.126   1.454 -2.6047 -0.0503  0.6508
  694SOL    HW2 2228   2.317  -0.015   1.506 -0.7744 -0.2291  0.7049
  695SOL     OW 2229   3.550   3.521   2.279  0.2648 -0.7825 -0.1072
  695SOL    HW1 2230   3.509   3.457   2.221 -0.3689 -0.0457 -0.5038
  695SOL    HW2 2231   3.482   3.543   2.343  1.3297 -2.4664  1.6959
  696SOL     OW 2232   2.370   2.923   3.086  0.1202  0.4424  0.0024
  696SOL    HW1 2233   2.423   2.975   3.148  0.2074 -1.2274  1.4028
  696SOL    HW2 2234   2.280   2.941   3.113  0.1918 -1.5883  1.8174
  697SOL     OW 2235   1.824   2.966   0.144 -0.4514  0.3027 -0.1780
  697SOL    HW1 2236   1.784   2.888   0.182 -0.2535 -0.1888 -0.9445
  697SOL    HW2 2237   1.894   2.989   0.206 -0.2614 -0.3646 -0.1302
  698SOL     OW 2238   0.875   2.841   2.033  0.4803 -0.1808 -0.4240
  698SOL    HW1 2239   0.956   2.808   1.994 -1.2027 -1.6459 -2.9666
  698SOL    HW2 2240   0.832   2.764   2.069 -0.3656  0.3526 -0.2418
  699SOL     OW 2241   2.377   2.408   0.772 -0.5736 -0.4911 -0.3799
  699SOL    HW1 2242   2.358   2.365   0.689 -1.0399 -1.1155  0.0470
  699SOL    HW2 2243   2.415   2.339   0.826 -1.3274 -0.3680  0.3111
  700SOL     OW 2244   1.756   0.374  -0.034 -0.0752 -0.0381  0.3546
  700SOL    HW1 2245   1.802   0.451  -0.002 -0.0893  0.2874 -0.4063
  700SOL    HW2 2246   1.764   0.310   0.038  0.9879  0.2391  0.4949
  701SOL     OW 2247   1.021   0.488   3.274 -0.0925 -0.4831 -0.1823
  701SOL    HW1 2248   1.000   0.537   3.194 -1.4040 -1.2058 -0.3008
  701SOL    HW2 2249   0.977   0.404   3.262  2.7951 -2.0689 -0.3516
  702SOL     OW 2250   0.008   2.285   0.352  0.0750  0.2174 -0.5267
  702SOL    HW1 2251  -0.025   2.374   0.339 -0.6753 -0.1509 -1.2475
  702SOL    HW2 2252   0.100   2.289   0.324 -0.0443  0.6888 -0.8550
  703SOL     OW 2253   0.304   2.260   2.173 -0.0511  0.1058 -0.7419
  703SOL    HW1 2254   0.216   2.286   2.199 -0.9924 -1.1886 -2.4244
  703SOL    HW2 2255   0.297   2.167   2.154  2.7732 -1.2444  3.3710
  704SOL     OW 2256   1.319   0.589   1.548  0.1679 -0.2051 -0.1534
  704SOL    HW1 2257   1.351   0.658   1.606  1.0771 -0.5276 -0.2583
  704SOL    HW2 2258   1.345   0.507   1.590 -2.2766 -0.5962  0.7977
  705SOL     OW 2259   0.189   3.034   1.815  0.4546  0.0293  0.1604
  705SOL    HW1 2260   0.216   3.126   1.816  1.6442 -0.3048  1.5592
  705SOL    HW2 2261   0.268   2.985   1.836  0.3228 -1.4988 -2.5120
  706SOL     OW 2262   0.493   2.059   2.638  0.1862 -0.9373  0.1235
  706SOL    HW1 2263   0.541   2.137   2.609 -0.4423 -0.3322  0.6509
  706SOL    HW2 2264   0.426   2.045   2.571  1.4546 -2.1612 -0.9441
  707SOL     OW 2265   0.601   1.868   1.936 -0.2116 -0.1672  0.2003
  707SOL    HW1 2266   0.606   1.952   1.891 -1.3810 -0.3680 -0.3456
  707SOL    HW2 2267   0.684   1.861   1.983 -0.3733  1.6311  0.8693
  708SOL     OW 2268   0.053   3.279   1.101 -0.1517 -0.3648 -0.5461
  708SOL    HW1 2269   0.053   3.317   1.189  1.4612  1.7458 -1.3823
  708SOL    HW2 2270  -0.023   3.319   1.058 -1.7679 -2.4249  0.1968
  709SOL     OW 2271   3.335   1.288   1.459  0.0326  0.1969  0.4514
  709SOL    HW1 2272   3.319   1.195   1.476  1.3798 -0.5747 -1.9288
  709SOL    HW2 2273   3.430   1.294   1.449  0.2052  2.2861  2.5920
  710SOL     OW 2274   1.351   0.256   1.604 -0.2074  0.2326  0.5950
  710SOL    HW1 2275   1.346   0.199   1.681 -0.4997 -1.0237 -0.3295
  710SOL    HW2 2276   1.441   0.244   1.572 -0.7039 -0.8669 -0.4430
  711SOL     OW 2277   1.274   0.441   3.169  0.1278  0.5281 -0.1116
  711SOL    HW1 2278   1.186   0.430   3.205  0.4105  0.9971  0.7564
  711SOL    HW2 2279   1.318   0.358   3.185  0.9533  1.3896  2.7012
  712SOL     OW 2280   0.565   0.983   2.359 -0.5061  0.1657 -0.2592
  712SOL    HW1 2281   0.615   0.905   2.336  0.0588  0.6294 -0.6229
  712SOL    HW2 2282   0.563   0.982   2.455 -0.1768 -0.0868 -0.2541
  713SOL     OW 2283   0.489   3.005   2.670 -0.1375  0.0537 -0.1243
  713SOL    HW1 2284   0.431   2.939   2.632 -1.9027  0.6882  1.3058
  713SOL    HW2 2285   0.515   2.968   2.754 -0.8915  1.0112  0.5505
  714SOL     OW 2286   2.689   0.408   0.636  0.4645 -0.2830  0.0411
  714SOL    HW1 2287   2.659   0.492   0.672 -1.0756 -1.4023  1.5455
  714SOL    HW2 2288   2.662   0.343   0.701  1.4024 -1.9838 -1.1880
  715SOL     OW 2289   0.547   0.070   3.489  0.3311 -0.3937 -0.1575
  715SOL    HW1 2290   0.466   0.087   3.537  0.4328  0.3843 -0.2527
  715SOL    HW2 2291   0.524   0.085   3.397  0.7300  0.4552 -0.1308
  716SOL     OW 2292   2.948   3.761   3.214 -0.0082 -0.1441  0.0774
  716SOL    HW1 2293   2.914   3.701   3.148 -0.7284 -1.5540  1.6321
  716SOL    HW2 2294   3.023   3.714   3.252  0.9103  0.9960 -0.2542
  717SOL     OW 2295   1.108   1.050   2.477  0.3048  0.3957  0.0826
  717SOL    HW1 2296   1.095   1.098   2.559  2.7681  2.2451 -0.4604
  717SOL    HW2 2297   1.020   1.035   2.443 -0.6897  2.1317  1.6813
  718SOL     OW 2298   0.261   2.139   1.552 -0.1611  0.2352  0.4444
  718SOL    HW1 2299   0.273   2.185   1.636  0.6517  0.1211  0.4029
  718SOL    HW2 2300   0.265   2.046   1.575  0.4865  0.2057  0.2274
  719SOL     OW 2301   1.000   0.683   0.667  0.8014  0.1280  0.2495
  719SOL    HW1 2302   0.960   0.709   0.584  2.3669  1.2118 -0.2177
  719SOL    HW2 2303   0.927   0.671   0.727 -0.3139  0.0843 -1.0863
  720SOL     OW 2304   1.623   3.478   3.306  0.3059 -1.2193  0.7227
  720SOL    HW1 2305   1.577   3.445   3.384 -0.3261  3.3867  2.6137
  720SOL    HW2 2306   1.692   3.534   3.341 -0.7247  1.9970 -1.8480
  721SOL     OW 2307   3.494   0.108   3.386 -0.0851 -0.5355 -0.1725
  721SOL    HW1 2308   3.483   0.096   3.480 -0.3150 -0.8020 -0.2323
  721SOL    HW2 2309   3.589   0.113   3.373 -0.0444 -0.7348  0.0444
  722SOL     OW 2310   2.719   2.698   0.539  0.2628  0.4872 -0.6034
  722SOL    HW1 2311   2.632   2.735   0.522 -0.0971  0.3153  0.7346
  722SOL    HW2 2312   2.702   2.610   0.573  0.8508  1.0834  1.3566
  723SOL     OW 2313   3.312   0.801   0.250  0.2334  0.4024 -0.2297
  723SOL    HW1 2314   3.287   0.714   0.282  0.1553  0.4320 -0.2091
  723SOL    HW2 2315   3.336   0.849   0.329  0.4544  0.3429 -0.2596
  724SOL     OW 2316   3.091   0.917   2.069 -0.4558  0.0808  0.4709
  724SOL    HW1 2317   3.108   0.910   1.975 -0.4654  0.6556  0.4186
  724SOL    HW2 2318   3.051   0.834   2.093  1.1843 -0.8002  0.3323
  725SOL     OW 2319   2.352   0.251   2.851 -1.0002  0.1644 -0.1159
  725SOL    HW1 2320   2.312   0.167   2.873  1.4285 -1.2457 -0.7321
  725SOL    HW2 2321   2.437   0.228   2.812  0.1436  2.9351  0.5074
  726SOL     OW 2322   2.617   3.439   2.121 -0.4600 -0.4871  0.1751
  726SOL    HW1 2323   2.571   3.521   2.106 -2.7531 -1.8500 -0.7123
  726SOL    HW2 2324   2.564   3.393   2.187  1.0485 -1.0812  1.0289
  727SOL     OW 2325   0.597   0.188   2.380  0.4781  0.4715  0.3967
  727SOL    HW1 2326   0.514   0.221   2.415 -0.5861 -0.5873 -1.0293
  727SOL    HW2 2327   0.597   0.215   2.289  0.3919 -1.8347 -0.3485
  728SOL     OW 2328   0.747   3.401   3.151  0.1304 -0.1095  0.0765
  728SOL    HW1 2329   0.702   3.456   3.086 -1.3387  0.9216  1.8813
  728SOL    HW2 2330   0.825   3.451   3.175  0.1572 -0.0370 -0.1528
  729SOL     OW 2331   0.780   2.696   2.493  0.3012  0.1653  0.0807
  729SOL    HW1 2332   0.756   2.665   2.580 -0.6063  1.1610  0.2141
  729SOL    HW2 2333   0.696   2.714   2.450  0.6213 -2.4276 -1.8319
  730SOL     OW 2334   1.478   1.386   2.224  0.1664 -0.8807 -0.0433
  730SOL    HW1 2335   1.507   1.297   2.246 -0.5710 -0.8835  0.9765
  730SOL    HW2 2336   1.406   1.403   2.284 -0.2496  0.0992 -0.8031
  731SOL     OW 2337   1.118   3.609   1.410  0.2644  0.2003  0.6291
  731SOL    HW1 2338   1.143   3.555   1.485  0.3733 -3.6222 -1.8831
  731SOL    HW2 2339   1.130   3.552   1.334 -2.1854  2.9752 -2.1331
  732SOL     OW 2340   2.137   0.863   2.345 -0.1386  0.3154 -0.3277
  732SOL    HW1 2341   2.080   0.939   2.336 -0.0735  0.2240 -1.7056
  732SOL    HW2 2342   2.097   0.795   2.290  0.5148 -0.2193 -0.1675
  733SOL     OW 2343   3.444   2.732   0.246  0.0213  0.0656  0.0023
  733SOL    HW1 2344   3.403   2.727   0.159 -0.5018 -0.0213  0.2498
  733SOL    HW2 2345   3.371   2.730   0.307  0.3773  0.3377  0.4441
  734SOL     OW 2346   1.794   3.664   3.374  0.8019  0.3507 -0.1708
  734SOL    HW1 2347   1.820   3.755   3.367  4.8036 -0.4850  1.1922
  734SOL    HW2 2348   1.860   3.624   3.432 -2.0299 -2.9501  1.1579
  735SOL     OW 2349   0.667   3.301   1.020 -0.3852  0.1850 -0.5338
  735SOL    HW1 2350   0.706   3.374   1.067 -1.9774 -0.1603  1.4737
  735SOL    HW2 2351   0.608   3.342   0.956  0.4839  0.6460 -1.0542
  736SOL     OW 2352   3.091   1.311   3.026  0.4011 -0.3781  0.0895
  736SOL    HW1 2353   3.013   1.273   2.986 -2.7186  4.1501  1.1116
  736SOL    HW2 2354   3.081   1.293   3.120 -0.6944  1.9353  0.4849
  737SOL     OW 2355   1.965   2.808   3.720  0.4261  0.4216  0.2186
  737SOL    HW1 2356   1.962   2.818   3.625 -3.6907  0.1800  0.1613
  737SOL    HW2 2357   1.907   2.876   3.754  0.4211 -0.5876  2.4397
  738SOL     OW 2358   2.802   1.359   2.141 -0.3016  0.9095  0.3109
  738SOL    HW1 2359   2.841   1.442   2.168  0.9471  1.1737 -2.0608
  738SOL    HW2 2360   2.853   1.331   2.065 -1.0363 -1.7747  0.6785
  739SOL     OW 2361   0.467   2.797   1.248 -0.0800  0.4767  0.0832
  739SOL    HW1 2362   0.473   2.810   1.343 -1.5307 -4.4306  1.1002
  739SOL    HW2 2363   0.378   2.824   1.226 -0.4602 -0.3060  0.5990
  740SOL     OW 2364   1.500   3.601   2.499  0.0104  0.2778  0.1652
  740SOL    HW1 2365   1.493   3.556   2.414  2.1928  1.5329 -0.7859
  740SOL    HW2 2366   1.540   3.685   2.478  0.8184  0.5478  2.4813
  741SOL     OW 2367   0.735   1.678   1.364  0.3869  0.0567  0.3293
  741SOL    HW1 2368   0.730   1.752   1.303  0.0959 -0.0176  0.2632
  741SOL    HW2 2369   0.828   1.655   1.366  0.4345  0.2262  0.1125
  742SOL     OW 2370   2.922   2.297   3.361  0.2320  0.5815 -0.6820
  742SOL    HW1 2371   2.980   2.232   3.402 -2.2816 -1.4104 -0.0165
  742SOL    HW2 2372   2.880   2.341   3.435 -1.4285 -0.2793 -1.0622
  743SOL     OW 2373   2.650   2.228   3.001 -0.3671 -0.4339 -0.2896
  743SOL    HW1 2374   2.600   2.304   2.974  3.2254  1.6675 -1.7603
  743SOL    HW2 2375   2.670   2.181   2.920  2.4379  0.5324 -0.2687
  744SOL     OW 2376   2.607   2.065   2.122  0.5810  0.3164 -0.0947
  744SOL    HW1 2377   2.647   2.044   2.037 -0.4937  0.9746 -0.7937
  744SOL    HW2 2378   2.550   1.991   2.140  0.2398  0.5236 -0.3196
  745SOL     OW 2379   1.807   3.099   0.842  0.0159  0.4850  0.0471
  745SOL    HW1 2380   1.734   3.101   0.904 -1.4761  0.3744 -1.6260
  745SOL    HW2 2381   1.781   3.160   0.772  3.4816  3.9192  1.3861
  746SOL     OW 2382   0.568   0.428   1.274 -0.0239 -0.3384  0.7386
  746SOL    HW1 2383   0.603   0.375   1.346  0.4633 -1.4320 -0.2654
  746SOL    HW2 2384   0.554   0.515   1.313 -1.7674 -1.3982  2.7101
  747SOL     OW 2385   0.401   0.487   2.720  0.0828 -0.5306  0.2313
  747SOL    HW1 2386   0.326   0.540   2.745 -3.1427 -4.6643  0.4967
  747SOL    HW2 2387   0.397   0.484   2.624  1.6485  1.3051  0.0543
  748SOL     OW 2388   0.950   2.836   0.892 -0.5394  0.1487 -0.2947
  748SOL    HW1 2389   1.027   2.809   0.942  0.2474  1.3466 -0.8276
  748SOL    HW2 2390   0.893   2.878   0.957 -0.5751 -0.3887  0.0245
  749SOL     OW 2391   3.410   3.224   0.721 -0.0222 -0.7240 -0.5210
  749SOL    HW1 2392   3.373   3.136   0.730  0.3238 -1.4009 -4.2727
  749SOL    HW2 2393   3.334   3.280   0.705 -0.1653 -0.3953  1.1053
  750SOL     OW 2394   0.832   2.524   1.836 -0.1006 -0.1860 -0.6309
  750SOL    HW1 2395   0.803   2.457   1.897  0.3980  0.5135  0.4007
  750SOL    HW2 2396   0.751   2.563   1.804 -0.3700 -0.6266 -0.4971
  751SOL     OW 2397   1.175   0.308   0.253 -0.1465  0.6946  0.1739
  751SOL    HW1 2398   1.189   0.395   0.215  1.4643  1.7957  2.9669
  751SOL    HW2 2399   1.204   0.317   0.344 -1.2321 -2.4369  0.9443
  752SOL     OW 2400   1.167   2.028   1.196 -0.1930 -0.0816 -0.2846
  752SOL    HW1 2401   1.106   1.992   1.260  1.7284  0.1305  1.8223
  752SOL    HW2 2402   1.231   1.958   1.181 -1.2333 -0.5799 -3.0122
  753SOL     OW 2403   0.979   2.612   3.433  0.6742 -0.1943  0.0005
  753SOL    HW1 2404   0.992   2.707   3.422 -0.2775 -0.0588 -0.1169
  753SOL    HW2 2405   0.908   2.606   3.497 -0.7134 -0.7627 -1.5238
  754SOL     OW 2406   3.343   3.337   0.376 -0.2571  0.2631 -0.0560
  754SOL    HW1 2407   3.248   3.345   0.382 -0.3011 -0.9058  1.5574
  754SOL    HW2 2408   3.359   3.243   0.368  0.7430  0.5287 -1.6261
  755SOL     OW 2409   0.523   0.374   0.406  0.2034  0.3206  0.2599
  755SOL    HW1 2410   0.601   0.327   0.376  0.6522  0.7221  0.7884
  755SOL    HW2 2411   0.480   0.313   0.467 -0.6165 -0.4271 -1.0130
  756SOL     OW 2412   2.012   1.982   0.903  0.9994 -0.3383  0.0937
  756SOL    HW1 2413   2.100   2.019   0.917  0.6196  0.3846  0.6424
  756SOL    HW2 2414   1.955   2.037   0.956  0.2584 -1.0353  0.0293
  757SOL     OW 2415   3.107   0.859   0.441 -0.2371 -0.4687  0.0996
  757SOL    HW1 2416   3.171   0.930   0.432 -0.1939 -0.6354 -1.0374
  757SOL    HW2 2417   3.092   0.853   0.536 -0.6406  1.4152  0.2127
  758SOL     OW 2418   3.166   2.880   0.572  0.4897 -0.4826 -1.0821
  758SOL    HW1 2419   3.248   2.894   0.620 -0.1508 -0.3479  0.0230
  758SOL    HW2 2420   3.167   2.787   0.550  0.8204 -0.5367 -0.8489
  759SOL     OW 2421   3.260   0.251   2.427 -0.0481 -0.3901  0.1109
  759SOL    HW1 2422   3.170   0.263   2.458  0.1290  1.8447 -0.0851
  759SOL    HW2 2423   3.311   0.241   2.507 -0.0026  2.2660  0.4888
  760SOL     OW 2424   2.201   1.414   0.289 -0.3922 -0.3625 -0.1810
  760SOL    HW1 2425   2.190   1.354   0.363  0.2183 -0.4581 -0.1573
  760SOL    HW2 2426   2.200   1.501   0.329 -1.1623 -0.3617 -0.2008
  761SOL     OW 2427   2.834   1.300   2.601 -0.2712  0.4531  0.3037
  761SOL    HW1 2428   2.771   1.370   2.617 -2.3319 -0.5913 -2.4717
  761SOL    HW2 2429   2.884   1.329   2.525  0.8925  0.1317  0.9128
  762SOL     OW 2430   2.553   2.850   2.329 -0.2946 -0.0728  0.5013
  762SOL    HW1 2431   2.466   2.839   2.368 -0.1708  2.1890  1.5793
  762SOL    HW2 2432   2.592   2.922   2.378  2.7747 -1.9077  0.9931
  763SOL     OW 2433   0.908   0.554   1.203 -0.3085 -0.1546  0.1085
  763SOL    HW1 2434   0.884   0.467   1.235 -0.0370 -0.9655 -1.7571
  763SOL    HW2 2435   0.876   0.614   1.270  1.1677 -1.7720  2.3752
  764SOL     OW 2436   2.601   0.776   2.501 -0.0380 -0.2496 -0.6929
  764SOL    HW1 2437   2.583   0.868   2.520  2.0374  0.2617 -0.9265
  764SOL    HW2 2438   2.626   0.775   2.409 -0.3229 -1.1056 -0.7710
  765SOL     OW 2439   1.517   1.040   1.129 -0.1780  0.1265  0.0715
  765SOL    HW1 2440   1.534   1.122   1.083  0.3278  0.0242  0.0714
  765SOL    HW2 2441   1.514   0.974   1.061 -1.8581  0.3069 -0.0754
  766SOL     OW 2442   1.939   2.591   2.652  0.1671  0.4033 -0.6380
  766SOL    HW1 2443   1.926   2.673   2.699  1.4815 -0.1950  0.8350
  766SOL    HW2 2444   1.933   2.616   2.559  0.0116  2.0528 -0.2177
  767SOL     OW 2445   2.841   2.171   0.707 -0.5007  0.0608 -0.0178
  767SOL    HW1 2446   2.833   2.240   0.773  0.6357 -0.1387  0.3443
  767SOL    HW2 2447   2.845   2.090   0.756 -1.9474 -0.3173 -0.4503
  768SOL     OW 2448   0.950   3.529   3.300  0.3352 -0.6438 -0.2944
  768SOL    HW1 2449   0.950   3.506   3.393  0.4592 -0.5408 -0.2684
  768SOL    HW2 2450   0.882   3.595   3.291 -0.7645 -1.7634 -0.5580
  769SOL     OW 2451   1.565   2.293   2.254 -0.3841 -0.2936  0.4458
  769SOL    HW1 2452   1.634   2.234   2.225 -0.2543 -0.1478  0.4600
  769SOL    HW2 2453   1.605   2.344   2.325  0.0529  1.0330 -0.7141
  770SOL     OW 2454   1.077   2.369   2.414  0.0027  0.5139  0.5490
  770SOL    HW1 2455   1.155   2.325   2.446  0.6957  1.5804  0.3904
  770SOL    HW2 2456   1.004   2.326   2.459  0.6748 -0.5064  0.6780
  771SOL     OW 2457   1.832   0.338   0.893 -0.7012 -0.0652  0.4443
  771SOL    HW1 2458   1.793   0.424   0.913 -0.8748  0.0474 -0.3079
  771SOL    HW2 2459   1.918   0.359   0.857 -0.1285 -0.2916  1.6633
  772SOL     OW 2460   2.021   1.775   2.413 -0.3623 -0.7371  0.2152
  772SOL    HW1 2461   2.018   1.683   2.437  2.1191 -1.2983 -1.3529
  772SOL    HW2 2462   1.938   1.811   2.445 -0.2411 -2.8703  3.2757
  773SOL     OW 2463   1.353   2.729   0.145  0.2157  0.1034 -0.5077
  773SOL    HW1 2464   1.377   2.804   0.090 -0.2971  0.7075  0.0848
  773SOL    HW2 2465   1.435   2.679   0.153  0.4407  0.3131 -1.3275
  774SOL     OW 2466   1.149   2.663   2.591  0.1450 -0.0302  0.0441
  774SOL    HW1 2467   1.150   2.571   2.563 -1.0437 -0.0849  0.1197
  774SOL    HW2 2468   1.132   2.659   2.685  0.2211  0.2560  0.0701
  775SOL     OW 2469   0.472   1.971   1.509 -0.5364  0.0231 -0.3159
  775SOL    HW1 2470   0.424   1.921   1.443 -1.2002 -2.2972  1.7365
  775SOL    HW2 2471   0.552   1.920   1.524 -0.1989  0.7273  0.3577
  776SOL     OW 2472   0.572   0.547   3.227  0.3654  0.7935  0.1021
  776SOL    HW1 2473   0.627   0.555   3.148  0.2693  0.0178 -0.0492
  776SOL    HW2 2474   0.485   0.573   3.197  0.6936  2.4335  0.4395
  777SOL     OW 2475   1.548   2.261   1.828  0.0153  0.0336 -0.9976
  777SOL    HW1 2476   1.520   2.324   1.895 -1.0077 -1.0049 -0.3968
  777SOL    HW2 2477   1.558   2.312   1.748  2.1848  1.5029  0.1066
  778SOL     OW 2478   1.845   1.034   0.449 -0.2918 -0.1048  0.1893
  778SOL    HW1 2479   1.758   0.994   0.453  0.2137 -1.1735  2.1463
  778SOL    HW2 2480   1.855   1.078   0.533  0.4764  1.3684 -0.6380
  779SOL     OW 2481   0.944   0.007   0.760  0.5284  0.4249 -0.1104
  779SOL    HW1 2482   0.970   0.065   0.831 -0.1296 -0.5667  0.9731
  779SOL    HW2 2483   0.868   0.050   0.720  2.2075  2.0965 -1.7090
  780SOL     OW 2484   0.487   2.489   2.907  0.2100 -0.2731  0.1869
  780SOL    HW1 2485   0.398   2.456   2.903  0.1457 -0.0104 -1.0088
  780SOL    HW2 2486   0.541   2.411   2.918 -0.1994 -0.3605  1.7755
  781SOL     OW 2487   3.657   0.263   2.262  0.0437  0.1925 -0.1444
  781SOL    HW1 2488   3.650   0.189   2.323 -2.1685 -0.4260 -1.0662
  781SOL    HW2 2489   3.622   0.338   2.311  0.3883  0.1995  0.0954
  782SOL     OW 2490   1.715   2.924   1.249 -0.6124 -0.2456 -0.1282
  782SOL    HW1 2491   1.731   2.834   1.220 -0.3560 -0.1123 -0.4122
  782SOL    HW2 2492   1.653   2.958   1.185  0.3373  0.2103 -0.8368
  783SOL     OW 2493   3.140   0.557   1.841  0.5091 -0.7077 -0.3940
  783SOL    HW1 2494   3.163   0.563   1.749  0.3450 -0.8797 -0.4460
  783SOL    HW2 2495   3.223   0.544   1.886  0.4835 -1.6383 -0.6098
  784SOL     OW 2496   1.064   3.245   2.561 -0.3878 -0.0300 -0.2685
  784SOL    HW1 2497   1.075   3.150   2.551  2.3296  0.1504  0.2552
  784SOL    HW2 2498   1.093   3.282   2.478 -2.8597  0.3533 -1.0372
  785SOL     OW 2499   0.674   0.732   1.151 -0.2450  0.7334 -0.3623
  785SOL    HW1 2500   0.759   0.692   1.132 -0.6486 -0.0201 -0.6504
  785SOL    HW2 2501   0.670   0.808   1.094  0.4697  1.1006  0.0678
  786SOL     OW 2502   2.272   2.618   3.145  0.6834  0.0142 -0.1478
  786SOL    HW1 2503   2.261   2.688   3.209 -0.7671 -0.4000  0.1037
  786SOL    HW2 2504   2.233   2.541   3.188 -0.3488 -0.2639 -1.5392
  787SOL     OW 2505   1.006   3.447   0.654  0.0765 -0.3883 -0.6845
  787SOL    HW1 2506   0.931   3.461   0.595 -0.8893 -1.7172  0.1525
  787SOL    HW2 2507   1.016   3.530   0.700  0.1352  0.3149 -1.9119
  788SOL     OW 2508   1.333   3.629   3.157  0.0238 -0.1444  0.3153
  788SOL    HW1 2509   1.417   3.674   3.164  1.4455 -2.6145  0.2835
  788SOL    HW2 2510   1.331   3.571   3.234 -2.3296  0.8559  1.0901
  789SOL     OW 2511   0.576   2.770   2.888  0.4269 -0.4666 -0.0471
  789SOL    HW1 2512   0.636   2.729   2.825  1.3879  0.3065  0.3368
  789SOL    HW2 2513   0.586   2.717   2.968 -3.0798 -3.3990 -1.2970
  790SOL     OW 2514   1.284   2.457   3.518  0.0227 -0.1154 -0.3494
  790SOL    HW1 2515   1.192   2.468   3.494 -0.6723 -3.3322  0.3514
  790SOL    HW2 2516   1.281   2.423   3.608  1.9397  0.2019 -0.1321
  791SOL     OW 2517   0.038   2.268   2.245 -0.1911 -0.3241  0.3864
  791SOL    HW1 2518   0.007   2.183   2.274  0.5097 -0.7247 -0.0082
  791SOL    HW2 2519   0.057   2.316   2.326 -0.9295 -0.4012  0.6128
  792SOL     OW 2520   2.798   3.125   2.283  0.2779 -0.0672  0.2398
  792SOL    HW1 2521   2.876   3.173   2.256 -0.8314  1.1312 -0.9796
  792SOL    HW2 2522   2.726   3.169   2.238 -1.0914 -1.2490  1.1869
  793SOL     OW 2523   0.461   1.523   3.037 -0.3431  0.4778 -0.3195
  793SOL    HW1 2524   0.386   1.543   3.094  0.2811  0.1143  0.6530
  793SOL    HW2 2525   0.482   1.607   2.996  0.1586  1.1282  1.1854
  794SOL     OW 2526   0.298   3.286   1.931 -0.4478  0.6847  0.0695
  794SOL    HW1 2527   0.325   3.279   2.023  0.6005  1.8862 -0.1222
  794SOL    HW2 2528   0.381   3.291   1.882 -0.9970  1.1791 -0.8325
  795SOL     OW 2529   3.693   3.425   1.602 -0.4875 -0.2597  0.3605
  795SOL    HW1 2530   3.697   3.509   1.648 -0.9958 -1.0089  1.8531
  795SOL    HW2 2531   3.609   3.387   1.628 -0.2171 -1.2811 -0.1800
  796SOL     OW 2532   3.600   2.777   3.422 -0.4964  0.1262  0.5431
  796SOL    HW1 2533   3.656   2.710   3.383  1.1438  1.4393  0.5045
  796SOL    HW2 2534   3.650   2.858   3.412 -2.0933  1.2457  1.2273
  797SOL     OW 2535   1.850   2.300   2.475 -0.1473  0.2160 -0.0218
  797SOL    HW1 2536   1.872   2.218   2.432 -0.6689  0.5615 -0.9835
  797SOL    HW2 2537   1.912   2.307   2.548  0.1277 -0.8476 -0.1380
  798SOL     OW 2538   3.329   0.568   2.062  0.8864 -0.0929  0.2136
  798SOL    HW1 2539   3.351   0.536   2.149 -0.2174  1.3474  1.0728
  798SOL    HW2 2540   3.358   0.660   2.062 -0.7579  0.4656 -0.2464
  799SOL     OW 2541   2.971   3.151   2.990 -0.0642  0.4708  0.2461
  799SOL    HW1 2542   2.887   3.188   2.960 -0.0030  0.7485  0.4102
  799SOL    HW2 2543   2.986   3.076   2.933 -1.1747 -0.5013  1.1702
  800SOL     OW 2544   0.724   2.607   2.080  0.2433 -0.2406  0.2943
  800SOL    HW1 2545   0.799   2.553   2.104 -0.1827 -1.6819 -1.3844
  800SOL    HW2 2546   0.649   2.548   2.088 -0.3565  0.3710 -0.6649
  801SOL     OW 2547   0.038   2.140   2.833 -0.3076 -0.7500 -0.4135
  801SOL    HW1 2548  -0.028   2.139   2.902 -2.7939  3.6837 -2.2938
  801SOL    HW2 2549   0.008   2.073   2.771 -1.4359 -0.7188  0.0767
  802SOL     OW 2550   1.651   2.649   2.014 -0.0356 -0.1542 -0.4023
  802SOL    HW1 2551   1.615   2.724   1.967 -1.1111 -0.3058  0.1551
  802SOL    HW2 2552   1.609   2.573   1.974  0.3991 -0.4056 -0.3883
  803SOL     OW 2553   1.427   1.033   0.647 -0.4568 -0.2558 -0.3391
  803SOL    HW1 2554   1.422   0.983   0.565 -0.3402  0.4153 -0.7632
  803SOL    HW2 2555   1.490   1.102   0.629 -0.6284  0.0593  0.2370
  804SOL     OW 2556   3.614   1.679   1.940  0.4561 -0.4055 -0.5406
  804SOL    HW1 2557   3.603   1.703   2.032 -0.5378  0.3314 -0.8391
  804SOL    HW2 2558   3.634   1.762   1.896  0.8000 -0.7357 -1.0103
  805SOL     OW 2559   3.055   2.392   0.652  0.3305 -0.0706 -0.3165
  805SOL    HW1 2560   3.089   2.393   0.742 -1.3517 -0.5630  0.3517
  805SOL    HW2 2561   2.986   2.326   0.653 -1.3251  1.5603 -1.3712
  806SOL     OW 2562   1.844   1.006   1.862 -0.2446 -0.1338  0.3305
  806SOL    HW1 2563   1.808   1.001   1.774 -0.1834  1.1208  0.2062
  806SOL    HW2 2564   1.938   1.017   1.849 -0.2967  0.6556  0.5064
  807SOL     OW 2565   3.325   2.549   0.747 -0.7321  0.1016  0.2903
  807SOL    HW1 2566   3.309   2.468   0.795  1.8405 -0.4901  0.2994
  807SOL    HW2 2567   3.379   2.603   0.806  1.4134 -0.1211 -1.3245
  808SOL     OW 2568   1.485   3.341   1.711  0.0924  0.3135 -0.5074
  808SOL    HW1 2569   1.453   3.428   1.688  2.2925  0.7511 -2.2870
  808SOL    HW2 2570   1.561   3.359   1.768  1.4693 -0.3041 -2.0713
  809SOL     OW 2571   0.989   2.369   3.625 -0.5475 -0.7011 -0.1129
  809SOL    HW1 2572   0.920   2.435   3.619 -0.4685 -0.5987  0.0608
  809SOL    HW2 2573   0.967   2.318   3.703  0.3475  0.2539  0.8010
  810SOL     OW 2574   0.100   0.849   1.654  0.7385 -0.2579 -0.4019
  810SOL    HW1 2575   0.035   0.778   1.660  1.6486 -1.0564  0.5237
  810SOL    HW2 2576   0.067   0.916   1.714 -0.1074  0.1158 -1.2484
  811SOL     OW 2577   2.440   1.488   3.414  0.9339  0.4184 -0.6371
  811SOL    HW1 2578   2.460   1.581   3.429 -1.6801  1.0512 -0.7410
  811SOL    HW2 2579   2.462   1.446   3.498  4.1528  0.6677 -1.2275
  812SOL     OW 2580   2.930   1.895   1.194 -0.3889  0.0118  0.6063
  812SOL    HW1 2581   2.950   1.819   1.139 -2.6996 -0.5879  0.5268
  812SOL    HW2 2582   3.007   1.951   1.185  1.2724 -2.1455  0.4293
  813SOL     OW 2583   0.948   1.480   0.931  0.4854  0.2556  0.0696
  813SOL    HW1 2584   0.922   1.470   1.023 -0.6203  2.1012  0.0080
  813SOL    HW2 2585   0.925   1.570   0.909  0.4197 -0.2357 -2.1331
  814SOL     OW 2586   1.490   2.344   0.303 -1.0095  0.0495 -0.2872
  814SOL    HW1 2587   1.478   2.269   0.245 -2.6128  0.6120 -0.7457
  814SOL    HW2 2588   1.411   2.345   0.357 -1.5125  1.9313 -0.9549
  815SOL     OW 2589   1.218   3.710   0.681 -0.3186  0.3017  0.1793
  815SOL    HW1 2590   1.134   3.754   0.669 -0.7400 -0.6902 -0.7018
  815SOL    HW2 2591   1.241   3.726   0.772 -0.8435  1.6412  0.0910
  816SOL     OW 2592   1.675   2.692   1.628  0.1146  0.4046  0.7345
  816SOL    HW1 2593   1.728   2.701   1.708  0.6561  1.9448  0.2238
  816SOL    HW2 2594   1.675   2.779   1.588 -1.5028  0.0587 -0.1238
  817SOL     OW 2595   3.574   2.220   0.967  0.1501 -1.0081  0.3108
  817SOL    HW1 2596   3.653   2.245   1.014  0.0150 -2.1262  1.1805
  817SOL    HW2 2597   3.506   2.219   1.034 -0.7333  0.4450 -0.5188
  818SOL     OW 2598   2.908   1.451   3.545 -0.1248 -0.1149 -0.1419
  818SOL    HW1 2599   2.932   1.531   3.500 -0.5441 -0.3710 -0.8233
  818SOL    HW2 2600   2.989   1.424   3.589 -0.7831  2.5672  3.1293
  819SOL     OW 2601   3.408   0.507   3.131 -0.7613  0.3195  0.4737
  819SOL    HW1 2602   3.347   0.527   3.202 -1.9684 -3.5319  0.7527
  819SOL    HW2 2603   3.362   0.443   3.076  2.5944 -2.1462  0.1860
  820SOL     OW 2604   0.970   3.010   1.402 -0.1342  0.3073 -0.2309
  820SOL    HW1 2605   0.985   3.047   1.315  0.2249 -1.4813 -0.9801
  820SOL    HW2 2606   0.919   2.931   1.386 -1.7681  0.9670  1.4012
  821SOL     OW 2607   2.458   0.240   2.292 -0.2586  0.5277  0.3344
  821SOL    HW1 2608   2.481   0.308   2.355  0.2975  0.0264  0.6747
  821SOL    HW2 2609   2.466   0.158   2.340  1.6876  0.0036 -0.7953
  822SOL     OW 2610   0.913   1.454   2.694  0.0089 -0.6678  0.0261
  822SOL    HW1 2611   0.978   1.495   2.751 -1.5608  1.0375  0.7038
  822SOL    HW2 2612   0.830   1.466   2.740 -1.2820  0.4861 -2.4113
  823SOL     OW 2613   0.460   3.443   2.990 -0.5575 -0.5175 -0.2448
  823SOL    HW1 2614   0.474   3.391   2.911 -0.4166 -0.3163 -0.3548
  823SOL    HW2 2615   0.390   3.503   2.967  0.0798  0.1394 -0.5157
  824SOL     OW 2616   2.804   0.413   1.457  0.6435 -0.3086  0.1226
  824SOL    HW1 2617   2.736   0.411   1.390  0.3398  0.1813  0.4095
  824SOL    HW2 2618   2.768   0.470   1.526  1.5158  0.2952  0.0883
  825SOL     OW 2619   2.728   1.139   3.454 -0.1120  0.1542  0.0043
  825SOL    HW1 2620   2.742   1.226   3.489  2.6735 -0.1620 -0.1143
  825SOL    HW2 2621   2.669   1.152   3.379 -0.4760  1.7703  0.5456
  826SOL     OW 2622   3.173   3.517   2.164  0.0664 -0.4507  0.2725
  826SOL    HW1 2623   3.224   3.546   2.088 -0.7166  1.0048  0.2596
  826SOL    HW2 2624   3.205   3.572   2.236  0.0279 -1.0558  0.7619
  827SOL     OW 2625   2.931   2.661   1.741  0.3072  0.4617 -0.8948
  827SOL    HW1 2626   2.888   2.709   1.671 -1.5097 -0.5294 -0.5220
  827SOL    HW2 2627   2.972   2.729   1.795  0.6178  1.3190 -2.1589
  828SOL     OW 2628   2.676   3.526   3.406 -0.5626  0.6922 -0.2559
  828SOL    HW1 2629   2.605   3.506   3.466 -0.6069  0.9636 -0.2132
  828SOL    HW2 2630   2.692   3.445   3.358  0.1981  0.1429  0.8760
  829SOL     OW 2631   2.859   2.554   1.990  0.4378  0.0842  0.6758
  829SOL    HW1 2632   2.774   2.511   1.982  1.1910 -2.0679  3.0012
  829SOL    HW2 2633   2.881   2.581   1.901 -2.9833  1.4324  0.1109
  830SOL     OW 2634   0.683   2.173   2.078 -0.8750 -0.1581 -0.6081
  830SOL    HW1 2635   0.756   2.160   2.018 -0.6813  0.3196 -0.4799
  830SOL    HW2 2636   0.723   2.205   2.159 -1.1081 -1.0516 -0.1233
  831SOL     OW 2637   0.041   2.297   1.511  0.3139 -0.1026  0.0813
  831SOL    HW1 2638   0.022   2.250   1.429  0.8597  1.0112 -0.7018
  831SOL    HW2 2639   0.114   2.250   1.550 -0.3377 -1.0061  0.2588
  832SOL     OW 2640   0.137   1.304   1.216  0.4228 -0.1260 -0.6001
  832SOL    HW1 2641   0.200   1.300   1.144 -0.5840 -1.9333 -1.4483
  832SOL    HW2 2642   0.172   1.243   1.281  0.3433  0.0501 -0.3930
  833SOL     OW 2643   1.120   3.570   2.950 -1.5691 -0.0715 -0.9562
  833SOL    HW1 2644   1.069   3.649   2.936 -0.0885  0.8175 -1.5485
  833SOL    HW2 2645   1.201   3.600   2.991 -1.8545 -1.5498  0.8944
  834SOL     OW 2646   2.869   0.943   3.175 -0.1717 -0.2152 -0.7386
  834SOL    HW1 2647   2.789   0.902   3.209 -0.1147 -0.1317 -0.4987
  834SOL    HW2 2648   2.839   0.999   3.104 -0.5793  1.2964  0.5596
  835SOL     OW 2649   0.716   3.253   1.554 -0.0362 -0.0281 -0.0337
  835SOL    HW1 2650   0.765   3.312   1.613  2.0933 -3.0616  1.4891
  835SOL    HW2 2651   0.766   3.252   1.473 -2.7704  3.8551 -2.1228
  836SOL     OW 2652   3.050   3.337   3.363  0.6141 -0.3011 -0.5814
  836SOL    HW1 2653   3.130   3.312   3.409 -0.4532 -0.2701  1.3889
  836SOL    HW2 2654   3.059   3.431   3.347  0.4461 -0.0326  0.8013
  837SOL     OW 2655   1.522   0.645   0.937 -0.3753  1.2998  0.3929
  837SOL    HW1 2656   1.436   0.604   0.938  0.5982 -0.9719 -1.5152
  837SOL    HW2 2657   1.504   0.738   0.923 -2.5108  0.6233 -2.1881
  838SOL     OW 2658   3.394   2.760   1.622 -0.7967  0.5635  0.1875
  838SOL    HW1 2659   3.359   2.847   1.605 -0.7149  0.3834 -0.9720
  838SOL    HW2 2660   3.391   2.751   1.717  0.3310  2.3071  0.4211
  839SOL     OW 2661   1.928   2.341   3.149 -0.0014 -0.6857  0.1359
  839SOL    HW1 2662   1.989   2.384   3.209  1.1219 -0.7405 -0.9251
  839SOL    HW2 2663   1.845   2.386   3.162  0.4674 -0.0494  1.0172
  840SOL     OW 2664   1.689   2.243   2.933 -0.0613 -0.1317  0.3704
  840SOL    HW1 2665   1.772   2.200   2.954  1.5583  1.0149 -2.9264
  840SOL    HW2 2666   1.713   2.335   2.920 -2.4861  0.8706  2.2960
  841SOL     OW 2667   2.658   2.219   0.516  0.6490  0.1903  0.2536
  841SOL    HW1 2668   2.633   2.293   0.571  3.7978  0.3138  1.7306
  841SOL    HW2 2669   2.721   2.170   0.569 -0.5536 -3.0789 -1.0234
  842SOL     OW 2670   2.221   0.696   0.655  0.1100  0.1731 -0.3850
  842SOL    HW1 2671   2.254   0.615   0.617 -1.2681  0.0348 -1.3449
  842SOL    HW2 2672   2.154   0.726   0.594  1.2522  2.5824 -0.5887
  843SOL     OW 2673   2.431   2.949   0.898 -0.5379 -0.2776 -0.6628
  843SOL    HW1 2674   2.520   2.972   0.924 -0.6249 -0.5757 -0.0884
  843SOL    HW2 2675   2.441   2.870   0.846 -0.3480  0.4098 -1.6928
  844SOL     OW 2676   2.920   0.691   2.092  0.9057 -0.2685 -0.1203
  844SOL    HW1 2677   2.872   0.707   2.011 -1.4243 -3.0017  0.5291
  844SOL    HW2 2678   2.937   0.597   2.092  2.9812  0.0169  1.5117
  845SOL     OW 2679   3.588   1.313   1.460 -0.3309 -0.1282 -0.3417
  845SOL    HW1 2680   3.592   1.221   1.433 -1.4039 -1.2748  2.9507
  845SOL    HW2 2681   3.679   1.339   1.471  0.0168 -2.0104  2.0580
  846SOL     OW 2682   3.274   1.302   0.159  0.6234 -0.1755 -0.2550
  846SOL    HW1 2683   3.198   1.273   0.110 -0.1713 -0.2810  0.9780
  846SOL    HW2 2684   3.348   1.258   0.118  0.0199 -0.1383 -1.4233
  847SOL     OW 2685   1.535   3.094   3.437  0.0636  0.1248 -0.0016
  847SOL    HW1 2686   1.582   3.163   3.485  0.7343  0.0948 -0.5926
  847SOL    HW2 2687   1.603   3.051   3.385 -0.2947 -1.1642  0.5532
  848SOL     OW 2688   3.563   1.734   1.064  0.0566 -0.8963  0.1881
  848SOL    HW1 2689   3.542   1.738   0.971  1.7149  1.9635 -0.1650
  848SOL    HW2 2690   3.481   1.758   1.108 -0.1134  0.1599 -0.6626
  849SOL     OW 2691   2.219   2.480   1.393  0.0002  0.3907  0.2845
  849SOL    HW1 2692   2.178   2.490   1.479  0.5640 -0.4506  0.6646
  849SOL    HW2 2693   2.151   2.438   1.339  0.4002 -1.2326  0.9823
  850SOL     OW 2694   2.766   0.458   3.633  0.4435 -0.6381  0.3432
  850SOL    HW1 2695   2.689   0.494   3.590 -0.5894 -1.0763  1.7522
  850SOL    HW2 2696   2.838   0.517   3.608 -0.3883 -0.0549 -0.7534
  851SOL     OW 2697   0.207   3.624   3.403  0.2424  0.4167  0.0055
  851SOL    HW1 2698   0.144   3.696   3.410 -1.6277 -1.2182  0.6806
  851SOL    HW2 2699   0.206   3.583   3.489  2.7491  0.6826  0.2412
  852SOL     OW 2700   2.404   2.141   2.397  0.3154  0.6459 -0.3730
  852SOL    HW1 2701   2.410   2.222   2.346  0.2704  0.1862 -1.1245
  852SOL    HW2 2702   2.388   2.073   2.332 -0.5795  0.1545  0.3489
  853SOL     OW 2703   2.536   1.892   1.212  0.1997 -0.0857  0.3924
  853SOL    HW1 2704   2.575   1.957   1.153 -0.9031  0.6710  0.4570
  853SOL    HW2 2705   2.462   1.938   1.251 -1.1234 -1.6416 -0.1949
  854SOL     OW 2706   1.949   2.489   1.832 -0.0052  0.2691 -0.5301
  854SOL    HW1 2707   1.941   2.564   1.890  0.2074  0.4202 -0.6953
  854SOL    HW2 2708   1.888   2.424   1.868  0.0034  0.4224 -0.2365
  855SOL     OW 2709   2.858   2.884   1.553 -0.0821  0.0099 -0.1272
  855SOL    HW1 2710   2.910   2.931   1.488  2.5461 -1.8159  0.4795
  855SOL    HW2 2711   2.807   2.951   1.597  1.2763  1.8538 -1.2458
  856SOL     OW 2712   2.254   2.759   1.552 -0.6867  0.0783 -0.2279
  856SOL    HW1 2713   2.163   2.736   1.569 -0.7466 -0.0425 -0.7066
  856SOL    HW2 2714   2.256   2.784   1.459 -0.4085  0.9479  0.0030
  857SOL     OW 2715   0.977   2.625   2.305  0.3566 -0.4906  0.1097
  857SOL    HW1 2716   1.039   2.562   2.342 -0.3206 -2.5544 -2.0339
  857SOL    HW2 2717   0.921   2.651   2.379  0.6627 -2.4078  1.0699
  858SOL     OW 2718   0.094   3.338   2.602  0.0551 -0.9425 -0.5407
  858SOL    HW1 2719   0.167   3.343   2.541 -0.2057  0.6046 -0.7608
  858SOL    HW2 2720   0.090   3.245   2.627  1.1460 -1.3175 -1.6555
  859SOL     OW 2721   3.473   2.475   3.474  0.6418  0.2272  0.2517
  859SOL    HW1 2722   3.503   2.424   3.399  0.4333 -0.0818  0.3804
  859SOL    HW2 2723   3.508   2.563   3.458 -3.6066  1.6922 -2.9671
  860SOL     OW 2724   3.325   1.440   3.011  0.0654  0.0219 -0.1108
  860SOL    HW1 2725   3.380   1.399   2.944 -1.5554 -0.5593 -1.1438
  860SOL    HW2 2726   3.242   1.392   3.006 -0.3196  0.4119  1.8759
  861SOL     OW 2727   0.196   1.966   3.669 -0.5823 -0.0610  0.1407
  861SOL    HW1 2728   0.117   1.998   3.713  0.5276  2.7481  0.3029
  861SOL    HW2 2729   0.169   1.952   3.578 -1.8088 -1.5317  0.6913
  862SOL     OW 2730   1.334   3.038   1.912 -0.4121  0.6730  1.0910
  862SOL    HW1 2731   1.246   3.020   1.878  0.2562  0.9796 -0.8926
  862SOL    HW2 2732   1.369   2.951   1.933 -0.7009  0.4341  0.6168
  863SOL     OW 2733   0.865   2.587   0.797  0.2969  0.8404 -0.0840
  863SOL    HW1 2734   0.852   2.679   0.820 -0.8571  0.9295 -0.9795
  863SOL    HW2 2735   0.892   2.589   0.705  2.3389  0.3670  0.4470
  864SOL     OW 2736   2.259   0.707   3.524 -0.3959  0.0180  0.2568
  864SOL    HW1 2737   2.299   0.757   3.453  0.2515  1.1528  1.3865
  864SOL    HW2 2738   2.212   0.772   3.577 -2.7046 -1.0803 -0.2754
  865SOL     OW 2739   1.069   2.821   1.177  0.4607  0.0206  0.2343
  865SOL    HW1 2740   1.135   2.873   1.131  0.5452 -1.6611 -1.6963
  865SOL    HW2 2741   1.112   2.790   1.256  2.0549 -1.0638 -1.0037
  866SOL     OW 2742   2.340   1.187   3.578 -0.4044 -0.1760 -0.4176
  866SOL    HW1 2743   2.247   1.206   3.589 -0.2176 -0.0877  1.3319
  866SOL    HW2 2744   2.381   1.273   3.568 -0.4869 -0.2037 -1.0061
  867SOL     OW 2745   1.052   3.069   2.942  0.5680  0.5381 -0.2419
  867SOL    HW1 2746   1.099   3.149   2.922  0.3026  0.4221 -1.3733
  867SOL    HW2 2747   1.025   3.034   2.857  0.0938 -0.3944  0.2697
  868SOL     OW 2748   3.617   1.675   0.041 -0.0144 -0.1278 -0.4146
  868SOL    HW1 2749   3.573   1.593   0.065 -0.8588  0.9681  2.1141
  868SOL    HW2 2750   3.697   1.676   0.093 -0.0936  0.6986 -0.2890
  869SOL     OW 2751   3.025   1.220   3.310 -0.0375  0.1647  0.5900
  869SOL    HW1 2752   2.975   1.279   3.366 -1.2947 -0.5467  0.2700
  869SOL    HW2 2753   3.012   1.133   3.349  3.7664  0.2621  2.5005
  870SOL     OW 2754   0.503   0.085   3.240 -0.2943 -0.0050 -0.1575
  870SOL    HW1 2755   0.437   0.021   3.211 -1.0839  0.7747 -0.1382
  870SOL    HW2 2756   0.507   0.148   3.169 -0.5072  0.6457  0.4026
  871SOL     OW 2757   0.723   3.120   3.236  0.5659  0.3008 -0.5455
  871SOL    HW1 2758   0.810   3.087   3.258  0.1407  0.2509  1.1997
  871SOL    HW2 2759   0.739   3.211   3.208  1.1266  0.5750  0.5621
  872SOL     OW 2760   3.036   0.295   1.515 -0.0122  0.2344 -0.4199
  872SOL    HW1 2761   2.950   0.314   1.479 -0.7158  0.9713  1.4910
  872SOL    HW2 2762   3.081   0.380   1.518  0.6618 -0.0883 -1.0958
  873SOL     OW 2763   0.276   2.711   3.503  0.7628 -0.6487 -0.3441
  873SOL    HW1 2764   0.205   2.648   3.493  0.2511  0.1175 -1.8531
  873SOL    HW2 2765   0.255   2.760   3.582  1.0134 -2.1340  0.6877
  874SOL     OW 2766   3.107   2.986   0.144  0.4868  0.3582 -1.1868
  874SOL    HW1 2767   3.110   3.057   0.080 -0.4481  0.2404 -1.3728
  874SOL    HW2 2768   3.072   2.911   0.096  0.6675  0.0042 -0.7769
  875SOL     OW 2769   3.704   1.140   0.541  0.4441  0.1724 -0.2743
  875SOL    HW1 2770   3.693   1.149   0.446 -1.7013  1.9485  0.0585
  875SOL    HW2 2771   3.785   1.091   0.551  0.2492 -0.9057 -3.0420
  876SOL     OW 2772   3.622   1.066   1.384  0.0485  0.5567 -0.1651
  876SOL    HW1 2773   3.695   1.041   1.326  2.0092  2.5767  1.2687
  876SOL    HW2 2774   3.624   0.999   1.453 -0.8230 -0.5521 -1.1752
  877SOL     OW 2775   3.269   3.706   2.842 -0.0521  0.0349  0.5187
  877SOL    HW1 2776   3.358   3.694   2.807 -0.2150  0.7514 -0.1500
  877SOL    HW2 2777   3.275   3.785   2.896 -0.6077  0.9259 -0.6861
  878SOL     OW 2778   3.342   3.630   2.459 -0.0707  0.1322 -0.2389
  878SOL    HW1 2779   3.300   3.547   2.483 -1.7929  0.7398 -0.9990
  878SOL    HW2 2780   3.280   3.697   2.488  0.4853  1.0870 -1.2181
  879SOL     OW 2781   2.689   0.235   3.317 -0.5056  0.5860 -0.3291
  879SOL    HW1 2782   2.613   0.268   3.365  0.4610 -0.3079  1.9650
  879SOL    HW2 2783   2.739   0.185   3.382  0.6990 -1.0919 -2.4036
  880SOL     OW 2784   3.302   2.969   1.095  0.1076  0.4128 -0.2579
  880SOL    HW1 2785   3.376   2.963   1.156 -0.5986  3.5698  1.1063
  880SOL    HW2 2786   3.225   2.957   1.150 -0.4762 -0.0185 -1.1496
  881SOL     OW 2787   0.974   1.288   3.328 -0.0559  0.7535  0.6401
  881SOL    HW1 2788   1.028   1.211   3.342 -0.9319 -0.4520 -2.0186
  881SOL    HW2 2789   1.036   1.359   3.310  0.7226 -0.3716 -1.3198
  882SOL     OW 2790   0.173   2.974   0.264  0.2047  0.1474 -0.7842
  882SOL    HW1 2791   0.149   3.051   0.315  0.2698  0.4602 -1.2256
  882SOL    HW2 2792   0.096   2.917   0.269 -0.3267  0.7870 -1.5023
  883SOL     OW 2793   0.552   1.277   1.614  0.0170  0.3071  0.3027
  883SOL    HW1 2794   0.647   1.263   1.612 -0.0684 -0.6797  1.8601
  883SOL    HW2 2795   0.519   1.210   1.673 -1.5707  1.1272  0.3928
  884SOL     OW 2796   2.690   1.460   3.021 -0.1879 -0.7736 -0.0693
  884SOL    HW1 2797   2.745   1.520   3.070 -1.6927  1.9472 -1.4113
  884SOL    HW2 2798   2.649   1.515   2.954 -0.6682 -3.6173 -2.3341
  885SOL     OW 2799   1.104   2.457   2.853 -0.4963  0.0830 -0.2457
  885SOL    HW1 2800   1.149   2.381   2.818 -2.4371 -1.3834  0.2457
  885SOL    HW2 2801   1.120   2.453   2.947  0.1179  0.8208 -0.3078
  886SOL     OW 2802   2.624   2.809   1.383 -0.5571  0.2465 -0.1476
  886SOL    HW1 2803   2.574   2.742   1.337 -2.1575  1.8948 -0.9293
  886SOL    HW2 2804   2.592   2.805   1.473  0.5160 -1.0460  0.2233
  887SOL     OW 2805   0.406   3.075   0.134 -0.3627 -0.1712 -0.3180
  887SOL    HW1 2806   0.396   3.057   0.041 -2.4582 -1.8149  0.1441
  887SOL    HW2 2807   0.328   3.039   0.174  1.0605 -0.6654  2.2526
  888SOL     OW 2808   2.909   2.889   2.259 -0.3618 -0.0771 -0.2967
  888SOL    HW1 2809   2.994   2.932   2.250 -0.3346 -0.1998 -0.6125
  888SOL    HW2 2810   2.847   2.961   2.265 -0.4618  0.0343 -2.1045
  889SOL     OW 2811   3.720   0.337   3.211 -0.7719  0.3928  0.1812
  889SOL    HW1 2812   3.664   0.347   3.288  1.4216 -0.0779  1.9593
  889SOL    HW2 2813   3.732   0.425   3.177  0.2787  0.9819  1.9818
  890SOL     OW 2814   1.854   2.226   1.896 -0.3438  0.3713 -0.2747
  890SOL    HW1 2815   1.773   2.222   1.846  0.5280 -2.2774 -1.6876
  890SOL    HW2 2816   1.923   2.211   1.832  0.9043 -2.0906  1.4674
  891SOL     OW 2817   2.592   1.022   2.041  0.5927 -0.0403  0.3662
  891SOL    HW1 2818   2.688   1.022   2.041  0.6548 -1.7570  2.3365
  891SOL    HW2 2819   2.568   1.008   2.133 -1.4638 -2.7969 -0.4525
  892SOL     OW 2820   0.677   2.184   1.364 -0.5466 -0.5062  0.7683
  892SOL    HW1 2821   0.686   2.166   1.271 -1.4778  0.6978  0.4197
  892SOL    HW2 2822   0.618   2.115   1.396  1.5526 -2.3158  0.9964
  893SOL     OW 2823   1.551   0.725   2.817  0.4649  0.8267  0.3783
  893SOL    HW1 2824   1.503   0.725   2.734  1.1962  0.9019 -0.0505
  893SOL    HW2 2825   1.490   0.685   2.879  0.1048  0.2805 -0.3050
  894SOL     OW 2826   2.059   1.492   0.912 -0.6492  0.5685  0.4981
  894SOL    HW1 2827   2.139   1.545   0.916 -1.7936  2.7507 -2.4400
  894SOL    HW2 2828   1.996   1.539   0.967 -1.3184  1.7349 -1.1867
  895SOL     OW 2829   1.340   2.748   2.408 -0.1447  0.6965  0.3843
  895SOL    HW1 2830   1.261   2.773   2.455  0.7286 -0.0630  2.3814
  895SOL    HW2 2831   1.412   2.780   2.463  0.9276 -1.4076  0.3238
  896SOL     OW 2832   2.540   1.446   3.676  0.7130  0.4082  0.1681
  896SOL    HW1 2833   2.491   1.494   3.742  0.5889  1.5845 -0.7316
  896SOL    HW2 2834   2.629   1.480   3.683  0.7823  0.2679 -0.0220
  897SOL     OW 2835   3.701   3.079   2.634 -0.3776 -0.3614  0.3651
  897SOL    HW1 2836   3.625   3.136   2.621 -1.2374 -1.4391  0.5429
  897SOL    HW2 2837   3.701   3.021   2.557  0.9232  0.3384 -0.1898
  898SOL     OW 2838   0.720   0.728   2.310 -0.0233  0.3617 -0.4238
  898SOL    HW1 2839   0.788   0.663   2.328 -1.2221 -0.8940 -0.2395
  898SOL    HW2 2840   0.638   0.683   2.332 -0.8846  2.0125 -0.1200
  899SOL     OW 2841   1.116   3.589   1.754  0.2221  0.4471  0.0678
  899SOL    HW1 2842   1.154   3.503   1.775  1.3888  1.1540  0.9420
  899SOL    HW2 2843   1.147   3.647   1.823  0.2316  1.7976 -1.0242
  900SOL     OW 2844   1.787   2.149   2.155 -0.7049  0.0548 -0.1518
  900SOL    HW1 2845   1.821   2.062   2.175 -0.7283  0.1788  0.4567
  900SOL    HW2 2846   1.828   2.173   2.072  0.6178  0.1546  0.5091
  901SOL     OW 2847   3.067   2.676   1.135  0.2444 -0.0283 -0.2910
  901SOL    HW1 2848   3.051   2.719   1.051 -1.2564  0.5596  0.2704
  901SOL    HW2 2849   2.987   2.690   1.185  1.4584  0.4514  1.5990
  902SOL     OW 2850   2.405   0.901   0.682 -0.1194  0.0942  0.6618
  902SOL    HW1 2851   2.386   0.918   0.590 -0.3744  0.0221  0.6989
  902SOL    HW2 2852   2.354   0.822   0.703  1.5505 -1.1322  0.3135
  903SOL     OW 2853   0.228   3.518   0.939 -0.7563  0.1428 -0.1248
  903SOL    HW1 2854   0.297   3.555   0.994 -1.3704  2.8555 -1.0234
  903SOL    HW2 2855   0.193   3.446   0.990  1.1631  0.1947  1.3777
  904SOL     OW 2856   0.578   0.979   2.659  0.4612 -0.0294  0.2921
  904SOL    HW1 2857   0.543   0.907   2.712  1.2934 -0.0363  0.8437
  904SOL    HW2 2858   0.602   1.046   2.723 -1.3302  1.2264 -0.2680
  905SOL     OW 2859   2.587   1.056   2.565 -0.3185 -0.1407  0.0720
  905SOL    HW1 2860   2.587   1.131   2.623  0.0911  1.4602 -1.9029
  905SOL    HW2 2861   2.494   1.036   2.551 -0.4377  0.2700  0.2704
  906SOL     OW 2862   1.713   2.957   3.320 -0.2664  0.2929  0.7708
  906SOL    HW1 2863   1.660   2.903   3.262 -0.6821  0.6244  0.8430
  906SOL    HW2 2864   1.787   2.985   3.266 -0.6180  0.5445  0.4236
  907SOL     OW 2865   0.826   2.890   3.034 -0.1553 -0.7598 -0.0913
  907SOL    HW1 2866   0.831   2.886   2.938  0.7190  0.7745 -0.1374
  907SOL    HW2 2867   0.890   2.825   3.064  0.7033 -0.1489 -0.5687
  908SOL     OW 2868   1.567   0.034   0.766  0.0899  0.0126  0.2005
  908SOL    HW1 2869   1.505   0.104   0.784  2.6896  2.3136  0.7901
  908SOL    HW2 2870   1.564   0.022   0.672 -2.0577 -0.8237  0.3112
  909SOL     OW 2871   0.665   2.172   1.077 -0.0577 -0.0817  0.0923
  909SOL    HW1 2872   0.644   2.263   1.056 -0.9042 -0.3196 -0.1378
  909SOL    HW2 2873   0.649   2.125   0.995 -0.3724 -0.5538  0.4211
  910SOL     OW 2874   2.249   2.283   3.152 -0.4687 -0.0991  0.0438
  910SOL    HW1 2875   2.204   2.211   3.195  0.3617 -0.7558 -0.1599
  910SOL    HW2 2876   2.341   2.272   3.176 -0.4309  1.3958  0.7248
  911SOL     OW 2877   0.658   0.379   1.712 -0.3362 -0.3166 -0.3050
  911SOL    HW1 2878   0.581   0.351   1.761  0.4365 -1.6567  0.1864
  911SOL    HW2 2879   0.732   0.345   1.762  0.6082  1.2728 -0.5523
  912SOL     OW 2880   2.392   3.104   2.501 -0.2565 -0.0159  0.4163
  912SOL    HW1 2881   2.323   3.158   2.539 -0.3512 -1.1116  1.9137
  912SOL    HW2 2882   2.353   3.017   2.495  1.2537 -0.8558  2.1277
  913SOL     OW 2883   2.045   0.533   3.459  0.1285 -0.3777 -0.2179
  913SOL    HW1 2884   2.128   0.577   3.479  1.4817 -2.6993 -0.4751
  913SOL    HW2 2885   1.997   0.536   3.542  0.8209  0.2042  0.1823
  914SOL     OW 2886   2.173   1.236   3.258 -0.1752 -0.2550  0.3694
  914SOL    HW1 2887   2.101   1.259   3.317 -0.5214  0.2571 -0.2511
  914SOL    HW2 2888   2.249   1.228   3.316 -0.1511  1.8463  0.7046
  915SOL     OW 2889   0.560   1.468   3.512 -0.0719  0.2703 -0.3266
  915SOL    HW1 2890   0.496   1.423   3.456  1.1213 -0.3276 -1.2504
  915SOL    HW2 2891   0.604   1.529   3.454 -1.2612  2.3031  0.7893
  916SOL     OW 2892   0.255   2.333   0.254  0.6581  0.2226 -0.8712
  916SOL    HW1 2893   0.316   2.342   0.327  0.1623  1.4979 -0.5882
  916SOL    HW2 2894   0.293   2.263   0.200  0.0669 -2.1570  1.5451
  917SOL     OW 2895   0.108   3.084   2.101  0.3537  0.1590 -0.5334
  917SOL    HW1 2896   0.086   3.165   2.147 -0.0572  0.2139 -0.8263
  917SOL    HW2 2897   0.139   3.112   2.015 -1.1571 -0.0531 -1.1705
  918SOL     OW 2898   0.730   1.353   2.353  1.5509  0.2544  0.6119
  918SOL    HW1 2899   0.684   1.398   2.423  2.6666 -0.6739  1.9878
  918SOL    HW2 2900   0.747   1.421   2.288 -0.7048  0.8464  0.5679
  919SOL     OW 2901   1.370   0.544   2.702  0.2018 -0.2182 -0.3070
  919SOL    HW1 2902   1.307   0.477   2.727 -0.3218  0.6314  0.7325
  919SOL    HW2 2903   1.450   0.521   2.748 -0.3869  0.6215  1.2120
  920SOL     OW 2904   2.892   0.877   0.261 -1.3144  0.2913  0.3328
  920SOL    HW1 2905   2.816   0.822   0.278 -2.2795  2.1811  2.6298
  920SOL    HW2 2906   2.962   0.839   0.314 -1.5912  0.4406  0.8104
  921SOL     OW 2907   0.887   1.749   0.896  0.2776  0.1208  0.0972
  921SOL    HW1 2908   0.801   1.771   0.861  0.4792  1.7319  0.5355
  921SOL    HW2 2909   0.926   1.833   0.919  1.0762 -0.6999  2.0163
  922SOL     OW 2910   2.065   1.842   3.275 -0.1821  0.7368 -0.7695
  922SOL    HW1 2911   1.991   1.846   3.336  0.0495  0.4534 -0.4718
  922SOL    HW2 2912   2.112   1.762   3.298  0.6639  1.3162 -0.4417
  923SOL     OW 2913   1.618   3.007   2.719 -0.0258  0.0437 -0.7682
  923SOL    HW1 2914   1.537   2.967   2.689 -1.2767  2.6766 -1.1672
  923SOL    HW2 2915   1.668   3.021   2.638  0.6889 -1.1534 -0.5671
  924SOL     OW 2916   2.168   1.228   0.499 -0.4034 -0.1627 -0.9347
  924SOL    HW1 2917   2.092   1.285   0.487 -0.8145 -0.5257 -0.1434
  924SOL    HW2 2918   2.168   1.208   0.593  0.2808 -0.7064 -1.0437
  925SOL     OW 2919   1.996   0.366   2.005  0.4799 -0.1815  0.0109
  925SOL    HW1 2920   1.948   0.358   1.923  1.9347 -1.6292 -0.7606
  925SOL    HW2 2921   1.976   0.285   2.052  0.8936 -0.0808  0.3707
  926SOL     OW 2922   2.991   2.356   2.804 -0.6659 -0.4715  0.4965
  926SOL    HW1 2923   2.969   2.344   2.896 -1.5891  0.2818  0.3888
  926SOL    HW2 2924   2.987   2.268   2.767  0.1187 -0.8362  1.2551
  927SOL     OW 2925   0.308   2.068   2.450  0.4208 -0.1087 -0.0741
  927SOL    HW1 2926   0.378   2.038   2.391  0.0297 -1.1504 -0.0315
  927SOL    HW2 2927   0.229   2.068   2.396  0.1862 -0.3897  0.2673
  928SOL     OW 2928   0.117   2.929   3.701 -0.3077  0.1139 -0.4348
  928SOL    HW1 2929   0.053   2.862   3.723  0.6813 -0.7858 -0.2034
  928SOL    HW2 2930   0.113   2.992   3.773 -0.6063 -0.1681 -0.2047
  929SOL     OW 2931   2.813   2.275   0.267 -0.4960  0.4840  0.3511
  929SOL    HW1 2932   2.750   2.250   0.334 -0.2765  1.3784  0.9082
  929SOL    HW2 2933   2.837   2.365   0.289  2.1756 -0.3330  1.1137
  930SOL     OW 2934   3.656   3.106   0.120  0.0249 -0.0908 -0.0507
  930SOL    HW1 2935   3.628   3.029   0.169 -0.5373 -0.3248 -0.7147
  930SOL    HW2 2936   3.578   3.133   0.071  0.4152  0.4663 -0.3851
  931SOL     OW 2937   2.018   0.653   1.957  0.8135  0.0379  0.5071
  931SOL    HW1 2938   2.009   0.565   1.992  0.7535 -0.3129 -0.3759
  931SOL    HW2 2939   2.070   0.643   1.878  0.7081  0.7769  0.3327
  932SOL     OW 2940   0.311   0.414   3.416  0.2926 -0.2502 -0.4057
  932SOL    HW1 2941   0.301   0.498   3.373  1.0412 -0.0186 -0.1462
  932SOL    HW2 2942   0.380   0.370   3.367  1.6774  0.3106  0.9457
  933SOL     OW 2943   3.355   2.228   1.476 -0.3263  0.3074  0.4848
  933SOL    HW1 2944   3.264   2.251   1.458  0.0082  1.7047  0.4341
  933SOL    HW2 2945   3.395   2.310   1.505  0.8042 -0.3936  0.9755
  934SOL     OW 2946   0.575   1.120   2.123 -0.3626  0.0392 -0.0084
  934SOL    HW1 2947   0.574   1.072   2.206  0.6725  1.9207  1.1743
  934SOL    HW2 2948   0.668   1.128   2.101 -0.3576  2.6964  0.6475
  935SOL     OW 2949   2.582   0.527   2.151 -0.6178 -0.4979 -0.1282
  935SOL    HW1 2950   2.502   0.550   2.198 -1.5568  1.3122 -2.4140
  935SOL    HW2 2951   2.648   0.590   2.182 -0.7845 -0.3778 -0.0197
  936SOL     OW 2952   2.481   0.572   0.891 -0.8182 -0.3956 -0.3925
  936SOL    HW1 2953   2.528   0.499   0.932  1.2450 -0.2921 -2.3967
  936SOL    HW2 2954   2.532   0.650   0.914 -2.0550  0.2391  0.3205
  937SOL     OW 2955   2.788   1.324   1.678  0.2553  0.5243  0.3681
  937SOL    HW1 2956   2.845   1.279   1.615 -1.5809 -0.2007 -0.8695
  937SOL    HW2 2957   2.726   1.257   1.706 -0.2280  1.3772  1.3877
  938SOL     OW 2958   0.880   2.874   2.768  0.1611 -0.4427  0.3983
  938SOL    HW1 2959   0.882   2.883   2.673  0.9356  1.0386  0.5161
  938SOL    HW2 2960   0.946   2.807   2.787  0.8238  0.0736 -0.0424
  939SOL     OW 2961   2.855   1.430   1.274 -0.6710  0.2836 -0.0576
  939SOL    HW1 2962   2.838   1.378   1.195  0.1346  2.1633 -1.5450
  939SOL    HW2 2963   2.834   1.520   1.248  2.2336  1.3563  0.9923
  940SOL     OW 2964   3.175   2.534   1.566  0.6488 -0.1337  0.4313
  940SOL    HW1 2965   3.105   2.476   1.594  2.3350 -1.4537  2.1431
  940SOL    HW2 2966   3.174   2.606   1.628  1.0900 -0.3957  0.7477
  941SOL     OW 2967   0.542   2.168   2.950  0.2519 -0.5553 -0.1381
  941SOL    HW1 2968   0.452   2.165   2.984  1.2283 -0.3494  2.7602
  941SOL    HW2 2969   0.555   2.084   2.906 -0.8713 -1.2372  0.7918
  942SOL     OW 2970   3.097   1.091   1.266 -0.1944 -0.0076 -0.2006
  942SOL    HW1 2971   3.119   1.182   1.247 -0.1600 -0.5839 -3.4850
  942SOL    HW2 2972   3.156   1.067   1.338  0.8830  2.1161 -0.2876
  943SOL     OW 2973   2.425   0.299   3.370 -0.2297 -0.1978 -0.1476
  943SOL    HW1 2974   2.398   0.353   3.295  0.7480 -0.3879 -0.6486
  943SOL    HW2 2975   2.398   0.210   3.346 -0.4723 -0.1657  0.0036
  944SOL     OW 2976   1.840   1.396   2.702  0.3921  0.4854  0.2674
  944SOL    HW1 2977   1.787   1.457   2.651  1.1732  0.7054 -0.3016
  944SOL    HW2 2978   1.786   1.375   2.778 -0.4959  0.7061 -0.2908
  945SOL     OW 2979   2.991   2.013   2.167 -0.6405 -0.1595 -0.2313
  945SOL    HW1 2980   2.949   2.045   2.247  0.2445 -0.5650  0.4180
  945SOL    HW2 2981   2.997   2.090   2.111 -0.6122  0.2993  0.3901
  946SOL     OW 2982   0.721   2.374   0.622  0.1286 -0.0768  0.4710
  946SOL    HW1 2983   0.689   2.386   0.712  2.2820  1.0606  1.1522
  946SOL    HW2 2984   0.739   2.462   0.591  1.6108 -0.5940 -0.2107
  947SOL     OW 2985   0.744   1.786   1.609 -0.3187  0.2133  0.0283
  947SOL    HW1 2986   0.749   1.765   1.703  1.0209  0.2586 -0.0197
  947SOL    HW2 2987   0.750   1.701   1.566 -0.7536  0.2098 -0.0339
  948SOL     OW 2988   3.562   2.929   2.860  0.3425  0.1909 -0.5644
  948SOL    HW1 2989   3.636   2.908   2.917  0.4937  0.9355 -0.4761
  948SOL    HW2 2990   3.594   2.911   2.771  0.6600  0.5676 -0.5313
  949SOL     OW 2991   0.305   1.579   3.256  0.0726  0.1183 -0.3776
  949SOL    HW1 2992   0.312   1.666   3.295 -1.2609  1.1320 -2.2247
  949SOL    HW2 2993   0.211   1.566   3.243  0.1445 -2.0172  0.6173
  950SOL     OW 2994   0.774   0.537   1.501  0.1482 -0.7268  0.2300
  950SOL    HW1 2995   0.706   0.595   1.468  0.4263  0.2933  1.4063
  950SOL    HW2 2996   0.726   0.468   1.547 -0.1579 -1.1139 -0.6523
  951SOL     OW 2997   3.760   3.366   0.168 -0.4034  0.2323  0.4941
  951SOL    HW1 2998   3.713   3.287   0.141 -0.4749  0.1241  0.9277
  951SOL    HW2 2999   3.715   3.438   0.124  0.4019 -0.0663 -0.8747
  952SOL     OW 3000   2.134   1.064   2.661 -0.1158 -0.3504  0.9239
  952SOL    HW1 3001   2.039   1.055   2.651 -0.1278  1.2743 -1.1050
  952SOL    HW2 3002   2.149   1.158   2.662  1.5198 -0.5765  0.7032
  953SOL     OW 3003   3.617   0.531   3.349 -0.3074  0.2853  0.5817
  953SOL    HW1 3004   3.572   0.492   3.424 -1.2892  0.2286 -0.0306
  953SOL    HW2 3005   3.549   0.544   3.284  0.2360  1.8035  0.2759
  954SOL     OW 3006   0.829   3.713   2.032 -0.2204 -0.7222  0.6404
  954SOL    HW1 3007   0.910   3.737   1.988 -0.9064  0.0958 -0.2156
  954SOL    HW2 3008   0.834   3.756   2.117 -0.4198  0.6198 -0.0001
  955SOL     OW 3009   2.513   1.122   3.206  0.3622  0.3608  0.1967
  955SOL    HW1 3010   2.550   1.210   3.206  2.7846 -0.5228 -1.7385
  955SOL    HW2 3011   2.538   1.086   3.120 -3.2386 -1.1843 -0.3644
  956SOL     OW 3012   0.993   1.705   1.413  1.0682  0.2581  0.5465
  956SOL    HW1 3013   1.067   1.695   1.352  0.5021 -2.0648  0.1148
  956SOL    HW2 3014   1.026   1.670   1.496  0.7781  0.1567  0.6202
  957SOL     OW 3015   1.894   1.731   1.367 -0.7359 -0.5029 -0.4133
  957SOL    HW1 3016   1.801   1.733   1.343 -1.2407 -0.7020  1.3924
  957SOL    HW2 3017   1.907   1.644   1.404  0.4280 -0.8232 -1.5049
  958SOL     OW 3018   0.784   0.210   3.502 -0.6631  0.5188 -0.0599
  958SOL    HW1 3019   0.705   0.156   3.494 -1.8652  2.0124  0.9876
  958SOL    HW2 3020   0.761   0.293   3.458  1.1139  0.2689 -1.6151
  959SOL     OW 3021   1.304   0.914   2.765  0.0319  0.7301  0.2581
  959SOL    HW1 3022   1.226   0.876   2.805 -0.8736  0.2992 -1.8144
  959SOL    HW2 3023   1.353   0.951   2.839 -2.4292  1.6182  1.5550
  960SOL     OW 3024   1.105   1.557   3.289 -0.5309 -0.1244  0.2303
  960SOL    HW1 3025   1.033   1.587   3.345 -1.4058 -1.2299 -0.2499
  960SOL    HW2 3026   1.154   1.636   3.268 -2.2103  0.8237 -0.2757
  961SOL     OW 3027   1.326   2.244   1.255 -0.1923  0.1926 -0.3611
  961SOL    HW1 3028   1.252   2.305   1.247  0.5092  0.9143 -1.7551
  961SOL    HW2 3029   1.285   2.158   1.263 -1.2280  0.8204  2.1358
  962SOL     OW 3030   0.873   3.286   1.324  0.1294 -0.6961  0.1371
  962SOL    HW1 3031   0.858   3.378   1.299 -3.3394 -1.3548 -0.8485
  962SOL    HW2 3032   0.916   3.247   1.248 -0.2613 -0.2845 -0.3039
  963SOL     OW 3033   1.149   1.342   2.047  0.4336 -0.3111  0.0699
  963SOL    HW1 3034   1.130   1.293   2.127 -0.3157  1.6085  1.1427
  963SOL    HW2 3035   1.124   1.432   2.068  1.5262  0.5074 -1.8783
  964SOL     OW 3036   1.875   1.081   2.867  0.0738  0.1152  0.5455
  964SOL    HW1 3037   1.916   1.137   2.933  0.9986 -2.7746  2.5741
  964SOL    HW2 3038   1.811   1.029   2.915 -1.8767  0.3942 -1.5553
  965SOL     OW 3039   1.400   2.513   0.844 -0.1171 -0.8402  0.1781
  965SOL    HW1 3040   1.384   2.533   0.937 -0.9015 -1.6457  0.2359
  965SOL    HW2 3041   1.350   2.579   0.796  2.1520  1.0695  0.2534
  966SOL     OW 3042   2.874   2.109   2.390  0.8199  0.3144 -0.1203
  966SOL    HW1 3043   2.843   2.197   2.372  3.9301  1.5344 -0.0788
  966SOL    HW2 3044   2.799   2.064   2.428 -1.4158  2.3171 -1.9160
  967SOL     OW 3045   2.309   2.771   2.454 -0.1957 -0.3910 -0.6184
  967SOL    HW1 3046   2.302   2.723   2.537 -0.2892  1.4557  0.4845
  967SOL    HW2 3047   2.294   2.704   2.387  0.6089 -2.0845  0.8037
  968SOL     OW 3048   0.040   1.322   2.306 -0.0716  0.4546 -0.2416
  968SOL    HW1 3049   0.121   1.372   2.298  0.4033  0.0715  1.6829
  968SOL    HW2 3050   0.067   1.231   2.294 -0.2509  0.3501  0.1150
  969SOL     OW 3051   0.161   3.576   3.709 -0.0088 -0.3158  0.6125
  969SOL    HW1 3052   0.221   3.512   3.672 -0.3979 -1.4339  1.8390
  969SOL    HW2 3053   0.077   3.529   3.715 -0.5110  0.5750  0.7794
  970SOL     OW 3054   2.911   0.761  -0.009  0.2133  0.0779  0.2341
  970SOL    HW1 3055   2.819   0.742  -0.027  0.7236 -0.7842 -1.6882
  970SOL    HW2 3056   2.909   0.840   0.046 -1.6478  0.3967 -0.2224
  971SOL     OW 3057   0.104   1.934   0.846  0.5547  0.1373 -0.0387
  971SOL    HW1 3058   0.027   1.883   0.822 -0.0799  1.2348 -0.4475
  971SOL    HW2 3059   0.105   1.934   0.942 -0.3595  0.6619 -0.0167
  972SOL     OW 3060   2.179   0.499   3.725 -0.0004  0.5040  0.2454
  972SOL    HW1 3061   2.266   0.538   3.720 -0.2777  1.0817 -3.6925
  972SOL    HW2 3062   2.183   0.423   3.667 -2.5046  1.6299 -1.6119
  973SOL     OW 3063   0.443   0.592   1.762 -0.0801  0.1013  0.1457
  973SOL    HW1 3064   0.523   0.543   1.747 -0.4224  0.2427 -2.4481
  973SOL    HW2 3065   0.435   0.650   1.686 -1.8525  1.1939  1.0907
  974SOL     OW 3066   1.240   0.038   1.210 -0.0801  0.0195  0.0752
  974SOL    HW1 3067   1.193   0.008   1.287 -0.9888  2.2131  0.4124
  974SOL    HW2 3068   1.273   0.124   1.233  1.2933 -0.0777 -1.3382
  975SOL     OW 3069   2.849   1.840   0.588 -0.4888 -0.1842  0.1879
  975SOL    HW1 3070   2.833   1.904   0.520  2.0501 -0.4482 -0.7375
  975SOL    HW2 3071   2.768   1.788   0.591 -1.1971  0.7363 -1.5765
  976SOL     OW 3072   1.356   2.095   2.213 -0.0387  0.5310 -0.4814
  976SOL    HW1 3073   1.400   2.011   2.200 -1.2463  0.0208 -1.4944
  976SOL    HW2 3074   1.427   2.159   2.214  0.9160 -0.4853  0.4035
  977SOL     OW 3075   1.596   3.706   2.792  0.2425 -0.2092 -1.2666
  977SOL    HW1 3076   1.521   3.749   2.832 -0.0789 -1.6620 -0.2188
  977SOL    HW2 3077   1.580   3.712   2.698  0.7974  2.8980 -1.2669
  978SOL     OW 3078   1.206   3.265   3.207  0.3182  0.9384 -0.1453
  978SOL    HW1 3079   1.295   3.271   3.171 -0.2966  1.0914 -1.7164
  978SOL    HW2 3080   1.150   3.298   3.137 -1.1653 -0.9651  0.0757
  979SOL     OW 3081   0.727   1.135   0.518 -0.0670 -0.3816  0.0401
  979SOL    HW1 3082   0.691   1.050   0.491 -1.6491 -0.1080  1.1101
  979SOL    HW2 3083   0.657   1.197   0.498  1.7958  1.0357 -2.5618
  980SOL     OW 3084   3.374   0.344   2.824 -0.1798 -0.0720 -0.0765
  980SOL    HW1 3085   3.450   0.334   2.881 -2.3161 -0.1313  3.0430
  980SOL    HW2 3086   3.401   0.305   2.741  3.5501  1.0523  0.4092
  981SOL     OW 3087   0.608   0.978   1.341  0.0491 -0.4278  0.5585
  981SOL    HW1 3088   0.674   0.998   1.275 -0.3866 -0.8114  0.0005
  981SOL    HW2 3089   0.528   0.964   1.292 -1.3559  3.4326  1.4241
  982SOL     OW 3090   1.461   0.385   0.725  0.1430  0.0862  0.1164
  982SOL    HW1 3091   1.402   0.396   0.799  1.0094  0.1688  0.8141
  982SOL    HW2 3092   1.549   0.390   0.763  0.6063 -1.0793 -0.7221
  983SOL     OW 3093   2.035   2.403   2.299  0.7005  0.2842 -0.3493
  983SOL    HW1 3094   2.019   2.497   2.296 -1.5793 -0.0907 -1.7487
  983SOL    HW2 3095   1.952   2.365   2.328  1.3995 -1.3458 -0.3794
  984SOL     OW 3096   0.773   0.003   3.258 -0.2225  0.0258  0.2386
  984SOL    HW1 3097   0.754  -0.042   3.176 -0.5924 -3.4848  2.0886
  984SOL    HW2 3098   0.690   0.044   3.283 -0.1252  1.0643 -1.0063
  985SOL     OW 3099   2.188   2.087   3.333 -0.7594 -0.4742 -0.5559
  985SOL    HW1 3100   2.277   2.056   3.314 -1.2055 -1.5076 -1.0139
  985SOL    HW2 3101   2.132   2.010   3.320 -1.9992  0.6480 -2.3885
  986SOL     OW 3102   0.969   1.066   2.733  0.2607 -0.8267 -0.5375
  986SOL    HW1 3103   1.009   1.145   2.770 -0.3458 -1.0591  0.6532
  986SOL    HW2 3104   0.875   1.077   2.748  0.1289 -1.5634 -0.7732
  987SOL     OW 3105   2.664   1.940   3.420  0.1926  0.3395  0.3308
  987SOL    HW1 3106   2.626   2.028   3.417  1.2128  0.8905  1.9951
  987SOL    HW2 3107   2.741   1.949   3.477  0.4227 -1.5966  0.3957
  988SOL     OW 3108   3.558   1.196   1.953  0.3594 -0.2580  0.2233
  988SOL    HW1 3109   3.619   1.270   1.959  0.1249  0.1206 -1.5551
  988SOL    HW2 3110   3.595   1.140   1.885 -3.3584  2.1621 -4.3387
  989SOL     OW 3111   2.276   0.267   0.919  0.5663 -0.0498  0.0182
  989SOL    HW1 3112   2.242   0.213   0.848 -0.4249  1.0305 -0.3625
  989SOL    HW2 3113   2.282   0.207   0.994  0.4434 -0.9052 -0.6405
  990SOL     OW 3114   1.645   3.316   0.270  0.7564  0.1999  0.0759
  990SOL    HW1 3115   1.585   3.286   0.202  0.2932  0.8863  0.1756
  990SOL    HW2 3116   1.644   3.411   0.263 -3.2143  0.8330  4.1365
  991SOL     OW 3117   3.272   3.005   2.698 -0.5237 -0.1530  0.0245
  991SOL    HW1 3118   3.302   2.936   2.639 -2.9695  0.5244 -2.2161
  991SOL    HW2 3119   3.226   2.959   2.769 -2.6813 -0.9313 -1.7704
  992SOL     OW 3120   3.085   0.661   1.016  0.2916  0.2145 -0.4931
  992SOL    HW1 3121   3.028   0.656   1.092 -0.1371 -0.5283 -0.8517
  992SOL    HW2 3122   3.128   0.575   1.013  0.1730  0.1743 -1.1803
  993SOL     OW 3123   3.050   0.864   1.775 -0.1382  0.0563  0.4508
  993SOL    HW1 3124   3.067   0.833   1.686  0.1911  0.1105  0.4959
  993SOL    HW2 3125   2.966   0.824   1.798  0.4513 -1.1146  0.6531
  994SOL     OW 3126   3.266   2.725   2.439  0.1119 -0.5731  0.1440
  994SOL    HW1 3127   3.332   2.723   2.509  0.7802 -0.7307 -0.4695
  994SOL    HW2 3128   3.229   2.637   2.441 -0.6633 -0.2435  1.0153
  995SOL     OW 3129   1.940   3.493   1.655  0.1344 -0.4964  0.6251
  995SOL    HW1 3130   2.029   3.467   1.632  0.1579 -0.8049  1.0490
  995SOL    HW2 3131   1.944   3.510   1.749 -0.2842 -0.6422  0.6702
  996SOL     OW 3132   3.226   3.278   2.933 -0.4226 -0.1934 -0.0133
  996SOL    HW1 3133   3.252   3.366   2.960 -0.6997 -0.6589  1.8969
  996SOL    HW2 3134   3.139   3.265   2.970  0.0631 -1.6604  0.7076
  997SOL     OW 3135   2.929   0.297   0.756  0.6215 -0.3679  0.1319
  997SOL    HW1 3136   2.931   0.209   0.720  3.0516 -0.2735 -0.1195
  997SOL    HW2 3137   2.850   0.337   0.718 -0.2018 -2.2032 -0.1960
  998SOL     OW 3138   1.236   0.963   1.988 -0.3317 -0.0986 -0.3236
  998SOL    HW1 3139   1.186   0.982   2.067  0.1543  1.5953 -0.3838
  998SOL    HW2 3140   1.181   0.996   1.916 -1.1392 -2.3395 -0.8227
  999SOL     OW 3141   1.721   2.809   0.967 -0.0814  0.1787 -0.0309
  999SOL    HW1 3142   1.694   2.799   0.876  0.2198 -1.0034 -0.0154
  999SOL    HW2 3143   1.640   2.822   1.015 -0.3438 -0.2250 -0.3573
 1000SOL     OW 3144   0.942   0.069   1.396  0.2899  0.0639  0.0613
 1000SOL    HW1 3145   1.004   0.140   1.411 -0.4998  0.8418 -0.2811
 1000SOL    HW2 3146   0.996  -0.010   1.397  1.1427  0.6376  0.7035
 1001SOL     OW 3147   0.851   1.057   2.359  0.2433 -0.0402  0.4161
 1001SOL    HW1 3148   0.780   1.118   2.376 -0.0003 -0.2183  0.0324
 1001SOL    HW2 3149   0.820   0.973   2.394 -1.2450 -0.9930 -2.8842
 1002SOL     OW 3150   2.856   2.052   3.204 -0.5055  0.3107  0.7759
 1002SOL    HW1 3151   2.857   2.127   3.263 -2.9068  1.3626 -0.4057
 1002SOL    HW2 3152   2.775   2.005   3.227  0.5205 -1.4785  0.9150
 1003SOL     OW 3153   3.762   0.479   1.782 -0.2966 -0.3871 -0.1436
 1003SOL    HW1 3154   3.789   0.531   1.858 -0.8996  2.0901 -1.5404
 1003SOL    HW2 3155   3.671   0.457   1.800 -0.0882 -0.8405  0.3799
 1004SOL     OW 3156   2.565   3.073   2.100  0.1295  0.0743  0.2666
 1004SOL    HW1 3157   2.625   3.016   2.148  1.0808  1.7376  1.1450
 1004SOL    HW2 3158   2.582   3.052   2.008  1.1000 -0.4422  0.5416
 1005SOL     OW 3159   1.767   1.323   0.675 -0.0348  0.6679 -0.0987
 1005SOL    HW1 3160   1.850   1.336   0.629  0.6802  0.5589  1.1125
 1005SOL    HW2 3161   1.792   1.280   0.757 -0.9715  2.9457  1.4728
 1006SOL     OW 3162   1.689   2.697   3.652 -0.1395  0.1416  0.2741
 1006SOL    HW1 3163   1.628   2.771   3.650  0.0093  0.2822  0.9737
 1006SOL    HW2 3164   1.678   2.658   3.738  1.8188  1.0635  0.9861
 1007SOL     OW 3165   0.429   0.186   1.784  0.6057 -0.5123 -0.0672
 1007SOL    HW1 3166   0.344   0.210   1.820  0.7541 -0.3877  0.1974
 1007SOL    HW2 3167   0.440   0.094   1.808  0.0166 -0.8763 -1.1207
 1008SOL     OW 3168   1.739   0.729   1.279  0.9783  0.0946  0.5634
 1008SOL    HW1 3169   1.811   0.666   1.275  0.0972 -0.9481  0.8182
 1008SOL    HW2 3170   1.668   0.682   1.323  0.2416  1.2087  0.5992
 1009SOL     OW 3171   0.195   0.267   0.336  0.2396  0.4269  1.1264
 1009SOL    HW1 3172   0.181   0.265   0.431  1.0580 -0.2075  1.2513
 1009SOL    HW2 3173   0.224   0.178   0.314 -0.5896  0.3727  0.1686
 1010SOL     OW 3174   1.444   2.435   2.013 -0.1391  0.4942 -0.1530
 1010SOL    HW1 3175   1.371   2.492   2.035 -0.5857  0.2910 -1.0712
 1010SOL    HW2 3176   1.473   2.399   2.097  0.1307  2.0258  0.4369
 1011SOL     OW 3177   2.114   1.163   1.904  0.0757 -0.1872  0.2595
 1011SOL    HW1 3178   2.155   1.105   1.968 -1.4666 -1.3370  0.2747
 1011SOL    HW2 3179   2.177   1.233   1.891  2.0703 -1.8969  0.1924
 1012SOL     OW 3180   3.681   2.643   0.665  0.3049 -0.1666 -0.1454
 1012SOL    HW1 3181   3.664   2.730   0.701 -0.7300 -1.0262  1.5981
 1012SOL    HW2 3182   3.730   2.597   0.734  1.4768 -0.7612 -1.3237
 1013SOL     OW 3183   0.115   0.871   2.808  1.2558  0.2198  0.4497
 1013SOL    HW1 3184   0.034   0.915   2.784  1.2402 -1.2480 -2.5947
 1013SOL    HW2 3185   0.095   0.829   2.892  0.5783  3.9018  2.3561
 1014SOL     OW 3186   3.228   2.274   1.821  0.0320 -0.0982 -0.1675
 1014SOL    HW1 3187   3.272   2.354   1.848 -2.6148  1.6157 -0.5561
 1014SOL    HW2 3188   3.282   2.203   1.857  1.4913  1.8731  1.7675
 1015SOL     OW 3189   0.867   0.612   3.607  0.3967  0.4541  0.4229
 1015SOL    HW1 3190   0.889   0.672   3.678 -2.2532  1.2814  0.6254
 1015SOL    HW2 3191   0.906   0.528   3.634  2.0563  1.4643  1.3168
 1016SOL     OW 3192   1.162   3.399   2.336  0.3786 -0.0365  0.2220
 1016SOL    HW1 3193   1.145   3.485   2.375 -0.2830  0.0467 -0.2459
 1016SOL    HW2 3194   1.205   3.419   2.252 -0.5394 -0.1219 -0.2833
 1017SOL     OW 3195   1.784   0.136   1.845 -0.5898  0.0504 -0.8621
 1017SOL    HW1 3196   1.817   0.102   1.762  0.0158  0.8919 -0.9858
 1017SOL    HW2 3197   1.762   0.227   1.826 -0.1654  0.3379 -0.0410
 1018SOL     OW 3198   2.057   0.359   1.104 -0.0538  0.0786  0.3428
 1018SOL    HW1 3199   2.089   0.338   1.016 -0.3386  1.3492 -0.0952
 1018SOL    HW2 3200   1.987   0.296   1.120  0.6653 -0.8035  0.0781
 1019SOL     OW 3201   3.002   3.205   2.690 -0.3453 -0.0390  0.3234
 1019SOL    HW1 3202   2.986   3.126   2.741 -0.3247  0.2323  0.7609
 1019SOL    HW2 3203   3.084   3.240   2.725  0.4453 -0.6319 -0.8989
 1020SOL     OW 3204  -0.012   1.474   0.501  0.1687 -0.1155 -0.0677
 1020SOL    HW1 3205  -0.007   1.455   0.408 -0.9475 -0.6993 -0.0233
 1020SOL    HW2 3206   0.053   1.415   0.540  0.7837  0.2779 -0.4890
 1021SOL     OW 3207   3.688   0.176   2.014 -0.4331  0.6636  0.2429
 1021SOL    HW1 3208   3.649   0.212   2.094  0.3745 -0.9735  1.4123
 1021SOL    HW2 3209   3.675   0.082   2.021  0.2922  0.4275 -1.2273
 1022SOL     OW 3210   3.687   1.090   0.244 -0.8469  0.2388 -0.1602
 1022SOL    HW1 3211   3.705   1.182   0.222  2.2370 -0.5178 -1.2633
 1022SOL    HW2 3212   3.647   1.055   0.164 -0.7767  0.3079 -0.2269
 1023SOL     OW 3213   0.419   1.821   3.664  0.0126  0.5540 -0.0625
 1023SOL    HW1 3214   0.333   1.863   3.658 -1.2370 -2.0362 -4.1289
 1023SOL    HW2 3215   0.419   1.780   3.750 -3.6651 -0.7867 -0.5062
 1024SOL     OW 3216   2.155   3.373   1.951 -0.3767  0.1647 -0.1774
 1024SOL    HW1 3217   2.228   3.404   2.005  0.8048  1.1740 -2.2118
 1024SOL    HW2 3218   2.099   3.450   1.939 -2.0596 -0.6818  1.6536
 1025SOL     OW 3219   0.521   0.890   3.104 -0.1831  0.8192  0.1595
 1025SOL    HW1 3220   0.550   0.873   3.014  0.4411 -1.9208  0.7635
 1025SOL    HW2 3221   0.599   0.923   3.148 -0.5720  2.4746 -0.3250
 1026SOL     OW 3222   3.177   3.233   1.143 -0.2804  0.0710  0.5478
 1026SOL    HW1 3223   3.251   3.175   1.125 -0.6190 -0.4708  0.8555
 1026SOL    HW2 3224   3.216   3.307   1.191  0.1805  0.1833  0.0108
 1027SOL     OW 3225   3.681   1.204   3.334 -0.1901  0.3093  0.2617
 1027SOL    HW1 3226   3.672   1.289   3.376  1.8182  0.0556  1.2868
 1027SOL    HW2 3227   3.761   1.166   3.371 -0.7827 -1.8459 -0.4864
 1028SOL     OW 3228   2.324   3.300   2.668  0.4539 -0.3982  0.5846
 1028SOL    HW1 3229   2.289   3.382   2.633  0.7206 -0.3977  0.3099
 1028SOL    HW2 3230   2.269   3.280   2.743  0.9472  0.5106  1.2080
 1029SOL     OW 3231   0.270   3.749   2.727 -0.0636 -0.2044 -0.2861
 1029SOL    HW1 3232   0.365   3.750   2.713 -0.0222  1.3127  0.0152
 1029SOL    HW2 3233   0.257   3.677   2.789  0.8329 -0.6715 -0.6046
 1030SOL     OW 3234   3.231   3.653   0.880 -0.7595 -0.0250  0.0556
 1030SOL    HW1 3235   3.278   3.626   0.959 -2.1712 -1.1825  0.5315
 1030SOL    HW2 3236   3.218   3.747   0.890  1.1099  0.2740  0.0673
 1031SOL     OW 3237   1.157   0.734   1.345 -0.7313  0.3756 -0.6120
 1031SOL    HW1 3238   1.210   0.676   1.399 -0.3091  0.7194 -0.6567
 1031SOL    HW2 3239   1.163   0.698   1.256 -1.8986 -0.5331 -0.3507
 1032SOL     OW 3240   0.602   2.078   0.841  0.2109  0.3449 -0.2385
 1032SOL    HW1 3241   0.525   2.021   0.847  0.6194 -0.0947  1.0470
 1032SOL    HW2 3242   0.640   2.057   0.755 -0.2810 -0.5004 -0.2605
 1033SOL     OW 3243   2.051   0.949   0.739  0.5667  0.6480  0.5964
 1033SOL    HW1 3244   1.965   0.959   0.779  0.0585 -0.0377 -0.3062
 1033SOL    HW2 3245   2.104   1.018   0.779 -0.2525  0.7531  1.5393
 1034SOL     OW 3246   1.519   2.890   3.648  0.2119  0.3919  0.0611
 1034SOL    HW1 3247   1.547   2.970   3.604 -0.6853  0.2144 -0.8720
 1034SOL    HW2 3248   1.429   2.877   3.619  0.9523 -2.0477 -1.4696
 1035SOL     OW 3249   0.025   1.552   1.271 -0.1355 -0.2340 -0.1930
 1035SOL    HW1 3250   0.020   1.457   1.263  0.3022 -0.2976  0.2290
 1035SOL    HW2 3251   0.084   1.580   1.202 -1.5841 -0.0859 -1.4101
 1036SOL     OW 3252   1.145   3.181   1.543 -0.1513 -0.1493 -0.5020
 1036SOL    HW1 3253   1.087   3.109   1.519  0.1518 -0.6128  0.1147
 1036SOL    HW2 3254   1.225   3.165   1.492  0.7316 -1.4908  1.2040
 1037SOL     OW 3255   1.875   3.378   0.639  0.0032  0.6538 -0.2717
 1037SOL    HW1 3256   1.809   3.332   0.588  0.0496  1.3671 -0.9911
 1037SOL    HW2 3257   1.904   3.449   0.582  1.1146  0.5852  0.1787
 1038SOL     OW 3258   3.543   2.412   0.124 -1.0118  0.6212 -0.0513
 1038SOL    HW1 3259   3.599   2.457   0.186  2.4511 -1.2315 -1.5291
 1038SOL    HW2 3260   3.504   2.341   0.174  0.3549  0.1946  0.4702
 1039SOL     OW 3261   1.857   0.547   2.744 -0.0888 -0.2079  0.3104
 1039SOL    HW1 3262   1.806   0.495   2.681  0.7434 -1.2120  0.4409
 1039SOL    HW2 3263   1.919   0.596   2.690  1.0526 -1.5460  0.3439
 1040SOL     OW 3264   3.191   3.539   3.038 -0.4575  0.2170 -0.1219
 1040SOL    HW1 3265   3.259   3.562   3.101 -0.0100  0.7104 -0.7824
 1040SOL    HW2 3266   3.213   3.588   2.959 -2.5407  1.8053  0.1894
 1041SOL     OW 3267   0.933   2.478   1.036 -0.4596 -0.1673  0.4525
 1041SOL    HW1 3268   0.854   2.436   1.001 -1.6822  0.3342  2.4482
 1041SOL    HW2 3269   0.974   2.518   0.959 -1.9949 -0.6494 -0.6865
 1042SOL     OW 3270   0.453   2.456   1.275 -0.6236  0.4873  0.8056
 1042SOL    HW1 3271   0.538   2.497   1.258 -1.7883  2.2107 -1.3832
 1042SOL    HW2 3272   0.468   2.363   1.258  0.2904  1.0705 -2.1548
 1043SOL     OW 3273   0.331   0.767   1.584  0.0547 -0.4067  0.2103
 1043SOL    HW1 3274   0.255   0.792   1.638  0.4214  1.2888  0.0154
 1043SOL    HW2 3275   0.296   0.703   1.522 -0.8952 -0.6837  0.9957
 1044SOL     OW 3276   2.044   1.958   1.240  0.2182  0.1663 -0.1422
 1044SOL    HW1 3277   1.964   1.908   1.254 -0.2920  0.8898 -0.4530
 1044SOL    HW2 3278   2.022   2.021   1.171  0.6857  1.2161  0.6406
 1045SOL     OW 3279   2.548   2.530   2.412 -0.6157  0.1998 -0.4516
 1045SOL    HW1 3280   2.578   2.449   2.370 -3.4680 -1.4678  0.4692
 1045SOL    HW2 3281   2.515   2.584   2.339 -0.1719 -0.1188 -0.8985
 1046SOL     OW 3282   3.312   1.018   1.475  0.1312  0.3835 -0.8224
 1046SOL    HW1 3283   3.403   0.988   1.464 -0.4476 -1.0491 -2.0254
 1046SOL    HW2 3284   3.277   0.962   1.544 -0.3447 -0.2948 -1.6051
 1047SOL     OW 3285   0.303   3.423   0.170 -0.2512 -1.1971  0.5528
 1047SOL    HW1 3286   0.213   3.396   0.152 -0.5940  0.1210  0.1696
 1047SOL    HW2 3287   0.355   3.377   0.104 -1.0116  0.2239 -1.1602
 1048SOL     OW 3288   2.491   3.686   2.120  0.7289 -0.1283 -0.1557
 1048SOL    HW1 3289   2.456   3.747   2.185  1.0151  0.2333 -0.3454
 1048SOL    HW2 3290   2.461   3.720   2.036  2.0592  0.5374 -0.3769
 1049SOL     OW 3291   0.905   3.680   0.006 -0.0454  0.2701 -0.4651
 1049SOL    HW1 3292   0.960   3.743   0.053 -1.0764  0.0096  1.1931
 1049SOL    HW2 3293   0.921   3.597   0.052 -0.3453 -0.2206 -1.2361
 1050SOL     OW 3294   2.595   3.553   2.648 -0.2209  0.4555 -0.8261
 1050SOL    HW1 3295   2.661   3.488   2.622  1.1659 -0.0056  3.2163
 1050SOL    HW2 3296   2.518   3.501   2.672  0.7327  0.1657  1.9584
 1051SOL     OW 3297   3.246   2.969   1.375  0.5494 -0.4258 -0.0055
 1051SOL    HW1 3298   3.151   2.964   1.361  0.5641 -0.1189 -0.2281
 1051SOL    HW2 3299   3.256   3.034   1.445  0.6153 -0.1992 -0.2249
 1052SOL     OW 3300   3.538   2.008   0.785  0.5707 -0.4889  0.4595
 1052SOL    HW1 3301   3.566   2.063   0.859  2.2519 -0.0753 -0.4460
 1052SOL    HW2 3302   3.553   2.062   0.708  1.0631 -1.7596 -0.3589
 1053SOL     OW 3303   2.695   2.713   1.095  0.0629 -0.9085 -0.1608
 1053SOL    HW1 3304   2.765   2.776   1.115 -0.5306 -0.3209  0.1320
 1053SOL    HW2 3305   2.621   2.743   1.149  0.3477 -3.0455  1.5482
 1054SOL     OW 3306   3.045   1.078   2.348  0.1575 -0.2564 -0.0572
 1054SOL    HW1 3307   3.046   1.041   2.260  1.6632 -1.7292  0.5294
 1054SOL    HW2 3308   3.103   1.153   2.343  0.0821 -0.2174 -0.3708
 1055SOL     OW 3309   0.519   2.173   0.072 -0.1325  0.2701 -0.6083
 1055SOL    HW1 3310   0.577   2.219   0.133  0.4289  1.4916 -1.9741
 1055SOL    HW2 3311   0.578   2.140   0.004 -0.8634  0.0210 -1.1348
 1056SOL     OW 3312   1.276   0.429   3.688 -0.6518 -0.2894  0.1374
 1056SOL    HW1 3313   1.268   0.497   3.756 -0.0695  1.8467 -1.7832
 1056SOL    HW2 3314   1.245   0.472   3.608  0.6576 -2.0018 -1.3717
 1057SOL     OW 3315   2.904   1.578   0.737 -0.8657  0.0634  0.4793
 1057SOL    HW1 3316   2.965   1.615   0.674  0.1788 -2.2095  0.0799
 1057SOL    HW2 3317   2.898   1.485   0.714 -3.1142 -0.1543  1.6147
 1058SOL     OW 3318   2.345   1.313   2.959 -0.0295 -0.3011 -0.0531
 1058SOL    HW1 3319   2.352   1.386   3.021  1.7326 -0.8626  0.4798
 1058SOL    HW2 3320   2.267   1.266   2.986 -1.0656  1.2435 -0.2657
 1059SOL     OW 3321   1.267   3.025   0.666 -0.1211  0.0067 -0.6369
 1059SOL    HW1 3322   1.261   3.112   0.707  0.0427 -0.0386 -0.5155
 1059SOL    HW2 3323   1.200   3.026   0.598  0.2762  0.4371 -1.0244
 1060SOL     OW 3324   0.346   2.554   1.516  0.0556  0.6150  0.3272
 1060SOL    HW1 3325   0.356   2.585   1.426 -1.1258  2.3547  0.7407
 1060SOL    HW2 3326   0.380   2.464   1.515 -0.8417  0.2465 -2.0597
 1061SOL     OW 3327   2.768   1.976   0.365  0.3540  0.5446  0.4214
 1061SOL    HW1 3328   2.681   2.015   0.357  0.3367  0.2006 -1.8725
 1061SOL    HW2 3329   2.828   2.045   0.336  0.5287 -0.2263 -1.1751
 1062SOL     OW 3330   2.887   1.894   1.672 -0.0547 -0.1540  0.4003
 1062SOL    HW1 3331   2.821   1.919   1.607  1.2213 -1.3284 -1.4526
 1062SOL    HW2 3332   2.951   1.965   1.670  0.5249 -0.6850 -0.4469
 1063SOL     OW 3333   1.878   3.455   2.992 -0.0232  0.2021 -0.2613
 1063SOL    HW1 3334   1.953   3.473   2.935  0.3827 -0.0135  0.2017
 1063SOL    HW2 3335   1.882   3.361   3.008 -0.0854  0.2795  0.2041
 1064SOL     OW 3336   1.964   2.718   2.003 -0.0365 -0.5639  0.7063
 1064SOL    HW1 3337   1.895   2.784   2.012  1.8814  1.6346  0.4763
 1064SOL    HW2 3338   1.991   2.699   2.093 -1.3513 -1.9823  0.8401
 1065SOL     OW 3339   2.419   2.650   1.244 -0.5174 -0.4685 -0.6068
 1065SOL    HW1 3340   2.388   2.608   1.325 -1.6087  0.6882 -0.3911
 1065SOL    HW2 3341   2.338   2.667   1.195 -0.0531  0.8271 -0.9474
 1066SOL     OW 3342   1.148   3.239   2.108 -0.0639  0.8836 -0.0390
 1066SOL    HW1 3343   1.106   3.275   2.186 -0.9339 -1.3477  0.5780
 1066SOL    HW2 3344   1.220   3.185   2.142 -1.2381 -1.1566 -0.6340
 1067SOL     OW 3345   0.333   2.576   1.825 -0.6463  0.9458 -0.3140
 1067SOL    HW1 3346   0.406   2.555   1.767 -0.3994 -0.1901  0.3630
 1067SOL    HW2 3347   0.256   2.575   1.768 -0.1706  2.0208 -1.0095
 1068SOL     OW 3348   2.128   0.641   1.681  0.6401  0.0367 -0.2943
 1068SOL    HW1 3349   2.064   0.654   1.611  2.0347  0.1309 -1.6259
 1068SOL    HW2 3350   2.191   0.579   1.644  0.8225 -0.8079  1.3284
 1069SOL     OW 3351   3.203   0.543   2.712  0.0257  0.1408 -0.0230
 1069SOL    HW1 3352   3.250   0.467   2.746 -2.5294 -1.1796  0.8286
 1069SOL    HW2 3353   3.241   0.618   2.759 -0.1733 -1.1180  2.2902
 1070SOL     OW 3354   3.237   2.758   3.196 -0.0831  0.2088  0.3316
 1070SOL    HW1 3355   3.158   2.795   3.158 -0.3194 -0.5186  0.0920
 1070SOL    HW2 3356   3.210   2.727   3.283 -0.2927 -0.8032 -0.0728
 1071SOL     OW 3357   3.200   2.006   3.684  0.0066  0.2560 -0.2500
 1071SOL    HW1 3358   3.193   2.062   3.607 -0.7445  0.9101  0.2769
 1071SOL    HW2 3359   3.194   2.066   3.758 -2.4796 -0.6453  0.3638
 1072SOL     OW 3360   3.465   0.750   2.581  0.5358  0.4833  0.8499
 1072SOL    HW1 3361   3.456   0.755   2.486  1.3250  1.9456  0.8142
 1072SOL    HW2 3362   3.537   0.688   2.596 -0.8017 -1.1878  0.6070
 1073SOL     OW 3363   2.733   0.040   2.802  0.5603 -0.3484  0.3652
 1073SOL    HW1 3364   2.804  -0.022   2.782  1.3072  1.2229 -2.5685
 1073SOL    HW2 3365   2.777   0.112   2.847  1.2518  1.1314 -2.4019
 1074SOL     OW 3366   3.564   1.489   3.423 -1.1109 -0.4091 -0.1914
 1074SOL    HW1 3367   3.514   1.478   3.504 -1.5221  0.8174 -0.2569
 1074SOL    HW2 3368   3.500   1.518   3.359 -0.1935  2.1996 -0.0296
 1075SOL     OW 3369   2.798   2.355   0.901 -0.1700  0.1556 -0.3546
 1075SOL    HW1 3370   2.738   2.383   0.970  1.1495  2.8804 -0.1766
 1075SOL    HW2 3371   2.873   2.414   0.909  0.5312 -0.1504 -3.4288
 1076SOL     OW 3372   2.842   0.063   0.248  0.1882  0.3380 -0.9713
 1076SOL    HW1 3373   2.868   0.132   0.186 -1.8571  0.4623 -1.7600
 1076SOL    HW2 3374   2.821   0.109   0.329 -1.4068  0.7168 -1.5691
 1077SOL     OW 3375   0.147   3.535   0.402 -0.6730  0.0300  0.4008
 1077SOL    HW1 3376   0.127   3.472   0.333 -1.3701  0.6653  0.0036
 1077SOL    HW2 3377   0.067   3.542   0.453 -1.3171  2.0415 -0.7512
 1078SOL     OW 3378   0.646   3.128   0.608  0.5453 -0.0745  0.2158
 1078SOL    HW1 3379   0.681   3.040   0.594 -2.2673 -0.9661 -2.4016
 1078SOL    HW2 3380   0.559   3.125   0.568  0.4931  4.0340 -0.3573
 1079SOL     OW 3381   0.064   1.849   1.086 -0.4472 -0.4060  0.4001
 1079SOL    HW1 3382  -0.027   1.820   1.089 -0.4453 -0.4157  0.3636
 1079SOL    HW2 3383   0.114   1.777   1.125 -0.5292 -0.0990  1.0963
 1080SOL     OW 3384   0.268   2.528   2.717 -0.0587 -0.2706  0.7743
 1080SOL    HW1 3385   0.274   2.434   2.704 -2.2131 -0.1719 -2.0638
 1080SOL    HW2 3386   0.327   2.566   2.652 -2.0032  0.2505 -0.8144
 1081SOL     OW 3387   0.240   0.327   1.225 -0.5002  0.0118  0.7824
 1081SOL    HW1 3388   0.268   0.286   1.307  1.7425 -1.0634 -0.4463
 1081SOL    HW2 3389   0.291   0.284   1.157 -2.7588  0.4068 -1.3133
 1082SOL     OW 3390   1.124   0.180   2.986 -0.3843 -0.0400 -0.0119
 1082SOL    HW1 3391   1.057   0.135   2.934 -1.0399  1.7117 -0.7735
 1082SOL    HW2 3392   1.118   0.140   3.073  0.1359 -2.4461 -0.9882
 1083SOL     OW 3393   3.342   1.000   2.497  0.6818  0.9908 -0.2045
 1083SOL    HW1 3394   3.263   1.016   2.548  0.4939 -0.3976 -0.0049
 1083SOL    HW2 3395   3.355   0.905   2.503  2.1031  1.1405 -0.6248
 1084SOL     OW 3396   0.419   3.070   0.471 -0.3597 -0.3307 -0.2919
 1084SOL    HW1 3397   0.443   3.095   0.382 -0.8520  1.1184 -0.0469
 1084SOL    HW2 3398   0.387   3.151   0.511  1.1465 -0.6238  1.6592
 1085SOL     OW 3399   2.144   3.110   0.033 -0.1022 -0.1442 -0.5279
 1085SOL    HW1 3400   2.101   3.114   0.118  0.0641 -0.8626 -0.4033
 1085SOL    HW2 3401   2.232   3.077   0.052 -0.5204 -1.6747 -1.1179
 1086SOL     OW 3402   3.257   0.133   0.149 -0.2326 -0.2126 -0.0058
 1086SOL    HW1 3403   3.178   0.180   0.177 -0.1821  1.4456 -2.3527
 1086SOL    HW2 3404   3.322   0.153   0.216 -1.3783 -0.3903  1.2010
 1087SOL     OW 3405   2.899   3.568   3.564 -0.2143  0.2986 -0.6809
 1087SOL    HW1 3406   2.888   3.661   3.587 -2.4739 -0.1318  0.2044
 1087SOL    HW2 3407   2.845   3.557   3.485  2.1208  0.2391 -2.3891
 1088SOL     OW 3408   1.498   0.625   0.269 -0.0969  0.3605  0.2390
 1088SOL    HW1 3409   1.566   0.621   0.336 -2.7780  1.3550  3.3137
 1088SOL    HW2 3410   1.455   0.710   0.284 -1.7430 -0.0085 -1.8429
 1089SOL     OW 3411   1.654   0.983   2.957  0.2833 -0.3972  0.3579
 1089SOL    HW1 3412   1.561   0.985   2.982  0.0298 -0.1183 -0.5727
 1089SOL    HW2 3413   1.691   0.914   3.012 -1.0606 -2.4398 -1.1413
 1090SOL     OW 3414   2.707   3.150   2.905 -0.2872 -0.0540 -0.4417
 1090SOL    HW1 3415   2.670   3.164   2.818 -1.1590  0.5778  0.0197
 1090SOL    HW2 3416   2.656   3.207   2.963  0.8108  0.1503  0.3641
 1091SOL     OW 3417   0.830   2.119   0.399 -0.1012 -0.1592 -0.3528
 1091SOL    HW1 3418   0.739   2.144   0.415  0.2702  0.3699  0.9922
 1091SOL    HW2 3419   0.828   2.023   0.394 -0.6739 -0.1669  0.0367
 1092SOL     OW 3420   2.023   3.145   1.970 -0.7862  0.0103  0.6719
 1092SOL    HW1 3421   2.069   3.115   2.048 -1.5499  1.7614  1.8695
 1092SOL    HW2 3422   2.054   3.234   1.956  1.4866 -1.1266 -2.8092
 1093SOL     OW 3423   0.137   0.300   3.584 -0.0484 -0.3235  0.4599
 1093SOL    HW1 3424   0.084   0.359   3.638  1.1344 -0.2504  1.5818
 1093SOL    HW2 3425   0.197   0.358   3.538  1.0906 -0.6173  1.5364
 1094SOL     OW 3426   0.553   0.661   1.413 -0.1711 -0.4104 -0.6851
 1094SOL    HW1 3427   0.468   0.702   1.430  0.2253 -0.1237  0.7575
 1094SOL    HW2 3428   0.592   0.714   1.344 -0.3763  0.6438 -0.0188
 1095SOL     OW 3429   3.427   1.588   3.209  0.5773  0.1106  0.3559
 1095SOL    HW1 3430   3.394   1.533   3.138 -0.8591 -0.3957  1.3741
 1095SOL    HW2 3431   3.475   1.658   3.165 -2.1329  1.0974 -1.2571
 1096SOL     OW 3432   3.443   1.254   0.570 -0.5772  0.1048  0.2334
 1096SOL    HW1 3433   3.538   1.260   0.563 -0.4008 -0.6451  1.6595
 1096SOL    HW2 3434   3.412   1.341   0.545  0.5177  0.5343  0.3148
 1097SOL     OW 3435   0.421   2.881   1.863  0.0521  0.2972  0.4061
 1097SOL    HW1 3436   0.512   2.910   1.860 -0.1291  1.2887  2.5531
 1097SOL    HW2 3437   0.424   2.795   1.905  0.0895 -0.2365 -0.6696
 1098SOL     OW 3438   2.360   0.660   3.235 -0.1860  0.9489  0.4939
 1098SOL    HW1 3439   2.370   0.750   3.202  1.4083  0.4927 -0.3758
 1098SOL    HW2 3440   2.443   0.617   3.213 -0.8035 -0.6630  1.1597
 1099SOL     OW 3441   1.363   3.405   2.726 -0.5855  0.3975  0.2858
 1099SOL    HW1 3442   1.340   3.495   2.703 -0.6855  0.7785  1.8196
 1099SOL    HW2 3443   1.440   3.413   2.782  0.2885 -0.5795 -0.7001
 1100SOL     OW 3444   1.149   1.067   3.414 -0.1530  0.1591 -0.0206
 1100SOL    HW1 3445   1.112   0.979   3.424 -1.8005  0.8700  0.5698
 1100SOL    HW2 3446   1.189   1.087   3.499 -0.7955  0.4079  0.2285
 1101SOL     OW 3447   1.995   0.601   1.189 -0.5688 -0.6246  0.3289
 1101SOL    HW1 3448   2.053   0.654   1.135 -0.9109  0.4475  0.9784
 1101SOL    HW2 3449   2.014   0.510   1.164 -0.0741 -0.1956 -0.9139
 1102SOL     OW 3450   2.561   2.202   3.426 -0.1749  0.1310 -0.4496
 1102SOL    HW1 3451   2.499   2.274   3.413 -0.6661  0.0919  1.4034
 1102SOL    HW2 3452   2.641   2.244   3.458 -0.5872 -0.1180  1.0149
 1103SOL     OW 3453   0.768   2.542   3.630  0.0244 -0.1053 -0.2674
 1103SOL    HW1 3454   0.675   2.545   3.608 -0.2315  0.7455  0.8599
 1103SOL    HW2 3455   0.776   2.592   3.711  1.4093 -0.5006 -0.1233
 1104SOL     OW 3456   0.011   2.454   2.436 -0.3088 -0.4234  0.5249
 1104SOL    HW1 3457   0.009   2.549   2.444 -1.1486 -0.5018  1.5102
 1104SOL    HW2 3458  -0.017   2.422   2.522 -0.4280 -1.5591  0.0889
 1105SOL     OW 3459   0.046   0.575   2.038  0.4130 -0.4522 -0.1327
 1105SOL    HW1 3460   0.120   0.526   2.075  1.1351  2.3962  2.6099
 1105SOL    HW2 3461  -0.006   0.600   2.114  0.1620  3.0362 -1.2712
 1106SOL     OW 3462   0.844   1.741   3.106 -0.1371  0.5119  0.2083
 1106SOL    HW1 3463   0.841   1.833   3.132 -0.5325  0.8818 -1.0967
 1106SOL    HW2 3464   0.787   1.697   3.169 -2.3821  1.6210 -0.9579
 1107SOL     OW 3465   1.546   0.731   2.288 -0.0709  0.3413  0.0311
 1107SOL    HW1 3466   1.603   0.734   2.212 -0.7374 -0.0288 -0.4908
 1107SOL    HW2 3467   1.464   0.695   2.256 -0.2885 -0.0421  0.9718
 1108SOL     OW 3468   0.991   3.307   0.966 -0.0345 -0.0277  0.5290
 1108SOL    HW1 3469   0.999   3.400   0.986 -2.0642  0.9184 -2.3634
 1108SOL    HW2 3470   0.938   3.304   0.887 -3.7861 -3.8108  2.7415
 1109SOL     OW 3471   3.687   0.051  -0.002  0.0685  0.8254  0.0944
 1109SOL    HW1 3472   3.775   0.046  -0.039 -0.8208 -1.2269 -1.9013
 1109SOL    HW2 3473   3.696   0.112   0.072  3.5593 -0.6734  1.1183
 1110SOL     OW 3474   3.376   3.626   3.217  0.5920 -0.2348 -0.0392
 1110SOL    HW1 3475   3.448   3.609   3.156  0.8928  2.9447 -0.7243
 1110SOL    HW2 3476   3.419   3.635   3.302  0.5906 -1.3356  0.0904
 1111SOL     OW 3477   2.907   0.247   0.054  0.5888 -0.3314 -0.1618
 1111SOL    HW1 3478   2.852   0.308   0.004  2.6383  0.5464 -1.4862
 1111SOL    HW2 3479   2.923   0.292   0.137 -0.2703 -0.3901  0.0472
 1112SOL     OW 3480   0.789   3.515   1.145 -0.4753 -0.0002 -0.2384
 1112SOL    HW1 3481   0.873   3.551   1.116  0.4088 -0.0819  2.0375
 1112SOL    HW2 3482   0.745   3.588   1.188 -0.9597 -0.3138 -0.1938
 1113SOL     OW 3483   3.692   1.713   0.672  0.5960  0.2877 -0.0212
 1113SOL    HW1 3484   3.674   1.635   0.619 -0.6906 -0.3556  1.2596
 1113SOL    HW2 3485   3.785   1.730   0.660  0.4505 -0.1562 -1.9981
 1114SOL     OW 3486   1.120   1.256   2.869 -0.1295 -0.9692  0.4462
 1114SOL    HW1 3487   1.167   1.249   2.952  2.6493 -0.6545 -0.9889
 1114SOL    HW2 3488   1.188   1.266   2.803 -2.0996 -2.7917 -2.1079
 1115SOL     OW 3489   1.587   1.579   1.063  0.1844 -0.0201  0.2867
 1115SOL    HW1 3490   1.579   1.664   1.020  0.8463 -0.3027 -0.4214
 1115SOL    HW2 3491   1.533   1.520   1.011  1.6539 -0.5490 -0.7229
 1116SOL     OW 3492   0.842   2.180   1.772  0.3371 -0.3557 -0.2693
 1116SOL    HW1 3493   0.766   2.193   1.716  0.0006 -0.5400  0.1393
 1116SOL    HW2 3494   0.890   2.107   1.733  0.7780  0.3257 -1.0262
 1117SOL     OW 3495   2.031   2.973   2.237 -0.2767  0.1386 -0.2422
 1117SOL    HW1 3496   2.039   3.049   2.293 -0.2979 -0.1142  0.1057
 1117SOL    HW2 3497   2.115   2.966   2.192 -0.0164 -0.0675  0.2778
 1118SOL     OW 3498   2.427   2.753   2.080 -0.4587  0.0591 -0.0526
 1118SOL    HW1 3499   2.394   2.700   2.153  0.8979 -1.9935 -0.8471
 1118SOL    HW2 3500   2.522   2.752   2.090 -0.2472 -0.1057 -1.6964
 1119SOL     OW 3501   2.593   2.458   1.975  0.3231 -0.2037  0.6255
 1119SOL    HW1 3502   2.628   2.375   1.942  0.0363  0.5575 -1.8339
 1119SOL    HW2 3503   2.502   2.460   1.946 -0.3695  0.0092  2.6663
 1120SOL     OW 3504   0.911   2.353   1.408  0.0961 -0.7669 -0.2757
 1120SOL    HW1 3505   0.832   2.302   1.426  0.5928 -1.8330 -1.0434
 1120SOL    HW2 3506   0.949   2.369   1.495  1.1184 -3.6797 -0.0618
 1121SOL     OW 3507   3.274   1.519   2.301  0.0344  0.3683 -0.0040
 1121SOL    HW1 3508   3.349   1.461   2.307 -0.0767  0.3621  1.9880
 1121SOL    HW2 3509   3.232   1.495   2.218  1.0362 -1.0867 -0.1356
 1122SOL     OW 3510   2.339   0.873   2.850  0.1944  0.2092  0.3141
 1122SOL    HW1 3511   2.362   0.871   2.758 -0.0878 -2.4255  0.2136
 1122SOL    HW2 3512   2.247   0.901   2.852 -0.8791 -2.8269 -0.6059
 1123SOL     OW 3513   1.691   3.346   1.900 -0.0440  0.6107 -0.0937
 1123SOL    HW1 3514   1.629   3.292   1.949 -2.3097 -0.3003 -3.6198
 1123SOL    HW2 3515   1.752   3.284   1.861  1.6637  1.3099  1.3145
 1124SOL     OW 3516   1.953   1.047   2.315 -0.4949 -0.0732  0.8400
 1124SOL    HW1 3517   1.891   0.980   2.344 -1.3693  0.3807  0.0531
 1124SOL    HW2 3518   1.921   1.074   2.229  0.9273  0.0181  0.3143
 1125SOL     OW 3519   0.207   2.583   1.172  0.1026 -0.2642 -0.1567
 1125SOL    HW1 3520   0.219   2.668   1.129 -0.6764  0.2515  0.6150
 1125SOL    HW2 3521   0.296   2.553   1.190  0.4107 -0.0299 -1.2397
 1126SOL     OW 3522   3.363   1.453   2.665 -0.2490 -0.2739  0.9321
 1126SOL    HW1 3523   3.379   1.372   2.713  1.2165  0.5804  1.9546
 1126SOL    HW2 3524   3.273   1.445   2.633 -0.9466 -1.2950  2.9992
 1127SOL     OW 3525  -0.026   3.084   1.579 -0.0363 -1.2755 -0.0815
 1127SOL    HW1 3526   0.053   3.076   1.633 -0.9375 -0.0959  1.5140
 1127SOL    HW2 3527  -0.004   3.150   1.514  0.7528 -2.0214 -0.6020
 1128SOL     OW 3528   1.391   0.134   2.913 -0.1825  0.3424  0.1030
 1128SOL    HW1 3529   1.304   0.152   2.948 -0.3208 -1.3349  0.7082
 1128SOL    HW2 3530   1.449   0.142   2.988 -0.1612 -0.9157  0.2439
 1129SOL     OW 3531   3.024   2.215   1.992 -0.0715 -0.2264 -0.4342
 1129SOL    HW1 3532   3.084   2.251   1.927 -1.0527  1.5788 -0.4018
 1129SOL    HW2 3533   2.951   2.180   1.941 -1.0646  1.6095 -0.3591
 1130SOL     OW 3534   0.340   0.439   1.971 -0.0861 -0.3214  0.1054
 1130SOL    HW1 3535   0.359   0.480   1.886 -2.1319  0.2068 -0.1349
 1130SOL    HW2 3536   0.277   0.370   1.951 -0.5349 -0.2319  1.1735
 1131SOL     OW 3537   0.706   1.436   3.748  0.6505  0.2425  0.7333
 1131SOL    HW1 3538   0.655   1.493   3.806 -0.4130  0.8662 -0.7585
 1131SOL    HW2 3539   0.668   1.450   3.661  3.9543  1.4149 -0.6769
 1132SOL     OW 3540   2.428   3.263   1.766 -0.4201 -0.5125  0.0416
 1132SOL    HW1 3541   2.408   3.341   1.818 -0.7646 -0.4364 -0.1983
 1132SOL    HW2 3542   2.474   3.205   1.826 -1.3494 -0.6841  0.6154
 1133SOL     OW 3543   1.448   0.649   0.588  0.5154  0.3233 -0.2405
 1133SOL    HW1 3544   1.475   0.565   0.625 -0.0880  0.6474  0.9863
 1133SOL    HW2 3545   1.374   0.627   0.531  0.9076 -0.0668 -0.6177
 1134SOL     OW 3546   0.316   2.916   2.946  0.0127 -0.0646 -0.6771
 1134SOL    HW1 3547   0.375   2.855   2.903  1.1041 -0.9570  1.8823
 1134SOL    HW2 3548   0.330   3.000   2.902  1.3817 -0.8132 -1.6998
 1135SOL     OW 3549   0.512   0.684   3.604  0.3070 -0.0103  0.2605
 1135SOL    HW1 3550   0.517   0.597   3.642 -2.7368  0.4574  1.9813
 1135SOL    HW2 3551   0.470   0.738   3.671 -0.4715  2.1094 -1.7872
 1136SOL     OW 3552   2.638   0.713   0.475  0.2598  0.9911 -0.4676
 1136SOL    HW1 3553   2.710   0.712   0.538 -0.4149 -0.5399  0.3242
 1136SOL    HW2 3554   2.673   0.668   0.399 -0.1746 -0.7641  0.3309
 1137SOL     OW 3555   0.988   2.530   0.537  0.0425  0.3773  0.0514
 1137SOL    HW1 3556   0.950   2.558   0.454 -0.0335 -0.0689 -0.0618
 1137SOL    HW2 3557   1.024   2.443   0.520 -0.3962  0.0802  0.6160
 1138SOL     OW 3558   1.648   3.745   3.675  0.5201 -0.3253  0.2673
 1138SOL    HW1 3559   1.658   3.660   3.718  1.9871 -1.0689 -1.4137
 1138SOL    HW2 3560   1.693   3.734   3.591  0.5831  2.0657 -0.0636
 1139SOL     OW 3561   0.462   2.109   1.928  0.2869  0.7936 -0.4878
 1139SOL    HW1 3562   0.457   2.014   1.937 -1.2351  1.0110  1.6036
 1139SOL    HW2 3563   0.548   2.132   1.963  1.4766  0.1063 -2.7202
 1140SOL     OW 3564   2.799   1.600   0.976  0.0852 -0.1587  0.1892
 1140SOL    HW1 3565   2.871   1.617   1.037  1.1009 -1.9535 -0.4137
 1140SOL    HW2 3566   2.841   1.584   0.892 -1.0189 -0.9928 -0.2453
 1141SOL     OW 3567   1.367   3.231   0.074  0.2610 -0.0537 -0.3339
 1141SOL    HW1 3568   1.308   3.163   0.043  0.7141 -0.3366 -0.5958
 1141SOL    HW2 3569   1.445   3.183   0.103  1.0086  0.4087 -1.4988
 1142SOL     OW 3570   1.106   0.246   2.562 -0.9386  0.2144  0.3395
 1142SOL    HW1 3571   1.175   0.225   2.499 -2.7158 -0.6220 -1.4318
 1142SOL    HW2 3572   1.152   0.289   2.635  1.4440 -0.4826 -0.6615
 1143SOL     OW 3573   2.336   0.775   1.225 -0.3171 -0.2775 -0.1249
 1143SOL    HW1 3574   2.418   0.743   1.263  1.9810  2.1424 -2.5537
 1143SOL    HW2 3575   2.339   0.746   1.134 -2.1161  0.0072 -0.3184
 1144SOL     OW 3576   1.127   1.028   3.118  0.5758 -0.1415  0.5376
 1144SOL    HW1 3577   1.156   1.061   3.203 -1.0092 -0.3189  1.1891
 1144SOL    HW2 3578   1.035   1.004   3.132 -0.4465  1.9403 -1.8074
 1145SOL     OW 3579   3.192   0.996   2.715  0.0929 -0.0565  0.2385
 1145SOL    HW1 3580   3.098   1.015   2.711  0.4775  2.2566  0.6366
 1145SOL    HW2 3581   3.197   0.911   2.759 -1.8115 -0.4193 -0.1372
 1146SOL     OW 3582   3.455   2.854   3.669  0.2240  0.2719 -0.2164
 1146SOL    HW1 3583   3.490   2.839   3.580  1.5127 -0.1548  0.3334
 1146SOL    HW2 3584   3.493   2.783   3.721 -0.9969  0.1734  0.5709
 1147SOL     OW 3585   3.014   1.676   0.055  0.6486  0.3834  0.3771
 1147SOL    HW1 3586   3.090   1.620   0.071  0.2173 -1.1315 -2.2601
 1147SOL    HW2 3587   3.024   1.704  -0.036 -1.4518  0.9472  0.2709
 1148SOL     OW 3588   3.062   1.845   3.253 -0.6202 -0.0294  0.2595
 1148SOL    HW1 3589   2.990   1.887   3.299 -1.5134 -1.0839 -0.1167
 1148SOL    HW2 3590   3.057   1.879   3.164 -0.7351 -0.1964  0.2019
 1149SOL     OW 3591   0.873   1.149   1.463  0.2933 -0.1247 -0.2405
 1149SOL    HW1 3592   0.828   1.071   1.429 -1.5347  1.0027 -0.5494
 1149SOL    HW2 3593   0.838   1.221   1.411  0.4053  1.1627  1.3882
 1150SOL     OW 3594   0.950   2.686   1.578  0.0139 -0.3426  0.6336
 1150SOL    HW1 3595   0.975   2.594   1.589  1.4443 -0.2192 -1.1698
 1150SOL    HW2 3596   0.860   2.682   1.546  0.8440 -1.2805 -1.7742
 1151SOL     OW 3597   1.600   1.940   3.675  0.6134  0.1640 -0.9329
 1151SOL    HW1 3598   1.523   1.893   3.646  0.7038 -0.9848  0.5779
 1151SOL    HW2 3599   1.647   1.879   3.732  1.5065  1.5604 -0.0759
 1152SOL     OW 3600   2.571   2.327   2.716  0.6277 -0.1898 -0.3806
 1152SOL    HW1 3601   2.556   2.380   2.794 -1.7687  1.8391 -2.0183
 1152SOL    HW2 3602   2.532   2.379   2.645  1.2535 -2.6404 -2.6695
 1153SOL     OW 3603   1.786   0.902   0.834 -0.6886  0.2945  0.1208
 1153SOL    HW1 3604   1.774   0.850   0.755 -1.5021  0.0660  0.3904
 1153SOL    HW2 3605   1.755   0.846   0.905 -1.2617  1.0172  0.4520
 1154SOL     OW 3606   3.597   2.915   1.108 -1.0837  0.7072 -0.1120
 1154SOL    HW1 3607   3.575   2.999   1.148  1.2913  1.8438 -0.9958
 1154SOL    HW2 3608   3.639   2.865   1.179  1.0472  1.8437 -0.4836
 1155SOL     OW 3609   2.501   3.201   3.314  0.2890  0.6748 -0.3700
 1155SOL    HW1 3610   2.572   3.162   3.365 -0.2726 -0.6860 -0.5702
 1155SOL    HW2 3611   2.540   3.221   3.229  0.7983  1.3437  0.0159
 1156SOL     OW 3612   0.067   2.944   3.411  0.1158 -0.2335 -0.4125
 1156SOL    HW1 3613   0.133   2.897   3.359  2.7022  2.8454 -0.2592
 1156SOL    HW2 3614   0.103   2.945   3.500 -0.9373  0.1992  0.0274
 1157SOL     OW 3615   0.656   2.648   0.196  0.6403 -0.0662 -0.2531
 1157SOL    HW1 3616   0.675   2.740   0.180 -0.3113  0.2313  0.2388
 1157SOL    HW2 3617   0.565   2.647   0.228  0.7209 -1.1453 -0.0014
 1158SOL     OW 3618   3.460   3.193   1.691  0.0041  0.4036  0.6152
 1158SOL    HW1 3619   3.519   3.135   1.642 -0.3650 -0.6558  1.3955
 1158SOL    HW2 3620   3.427   3.254   1.625  1.1362  0.3380 -0.0415
 1159SOL     OW 3621   3.355   2.156   0.336 -0.7962 -0.1144 -0.2871
 1159SOL    HW1 3622   3.332   2.063   0.326 -2.1303  0.1651  0.0813
 1159SOL    HW2 3623   3.287   2.203   0.288 -0.9483  0.7340  0.7346
 1160SOL     OW 3624   2.080   2.455   3.357  0.0627 -0.2522 -0.0959
 1160SOL    HW1 3625   2.103   2.367   3.387 -0.4323 -0.5651 -0.6119
 1160SOL    HW2 3626   2.006   2.480   3.413 -0.4088 -0.5550 -0.5686
 1161SOL     OW 3627   0.434   0.857   2.130  0.1305  0.1232 -0.0600
 1161SOL    HW1 3628   0.523   0.874   2.161 -0.5285  0.6074  1.7050
 1161SOL    HW2 3629   0.412   0.934   2.077  1.4348 -0.9176 -2.2703
 1162SOL     OW 3630   2.207   0.779   0.966  0.3239 -0.2160  0.6485
 1162SOL    HW1 3631   2.179   0.777   0.875 -1.1949 -0.3933  1.0911
 1162SOL    HW2 3632   2.272   0.708   0.973 -1.4278 -1.9463  0.2520
 1163SOL     OW 3633   1.713   1.003   1.321  0.0577 -0.0181 -0.2389
 1163SOL    HW1 3634   1.624   1.010   1.288 -1.4106  1.7578  3.4823
 1163SOL    HW2 3635   1.740   0.914   1.299 -2.6643 -0.6608 -1.3993
 1164SOL     OW 3636   1.842   0.479   1.537 -0.0136  0.4829 -0.2504
 1164SOL    HW1 3637   1.797   0.561   1.559  1.3961  1.0354  0.7195
 1164SOL    HW2 3638   1.909   0.504   1.474  0.0076 -0.0438 -0.4414
 1165SOL     OW 3639   0.741   1.397   1.369 -0.0638  0.2101  0.1518
 1165SOL    HW1 3640   0.749   1.489   1.343 -0.9321  0.4387  0.6456
 1165SOL    HW2 3641   0.673   1.397   1.436 -0.6450 -0.8999 -0.4112
 1166SOL     OW 3642   1.683   2.602   0.747  1.0153 -0.1611 -0.0330
 1166SOL    HW1 3643   1.633   2.593   0.666  0.0763  1.7023  0.2713
 1166SOL    HW2 3644   1.617   2.613   0.815  1.8108 -0.6849  0.8505
 1167SOL     OW 3645   0.172   0.098   1.589  0.6344  0.1944  0.4146
 1167SOL    HW1 3646   0.263   0.071   1.593  0.5000 -0.2631  0.4007
 1167SOL    HW2 3647   0.170   0.161   1.517  0.8505 -0.1532  0.0998
 1168SOL     OW 3648   2.941   2.948   2.782  0.6964 -0.5421  0.1530
 1168SOL    HW1 3649   3.020   2.895   2.794  1.4262  0.7217  1.3754
 1168SOL    HW2 3650   2.872   2.899   2.827  1.5521 -0.1057  2.0604
 1169SOL     OW 3651   2.028   3.652   3.177 -0.2703 -0.8130  0.3812
 1169SOL    HW1 3652   2.041   3.576   3.121  0.1161 -0.0832 -0.5448
 1169SOL    HW2 3653   1.933   3.663   3.183 -0.3362  0.1455 -1.6279
 1170SOL     OW 3654   2.714   0.109   1.855  0.1351  0.5450  0.2740
 1170SOL    HW1 3655   2.711   0.185   1.912  1.8397  0.6885  0.2104
 1170SOL    HW2 3656   2.779   0.051   1.895  0.4168  0.0782 -0.8297
 1171SOL     OW 3657   1.783   0.601   0.968  0.3022 -0.3438 -0.2762
 1171SOL    HW1 3658   1.699   0.625   1.007  0.6099 -2.3249  1.7843
 1171SOL    HW2 3659   1.846   0.607   1.039  1.9214  0.7823 -1.7086
 1172SOL     OW 3660  -0.019   0.304   2.630 -0.1206 -0.2693  0.3241
 1172SOL    HW1 3661   0.051   0.250   2.593 -0.9269 -0.0554 -1.6539
 1172SOL    HW2 3662   0.021   0.346   2.706  1.7420 -0.5406 -0.4482
 1173SOL     OW 3663   2.786   0.110   3.569 -0.0414 -0.4096  0.3960
 1173SOL    HW1 3664   2.853   0.150   3.624 -0.8379  2.0940 -0.3145
 1173SOL    HW2 3665   2.704   0.141   3.605 -0.6205  0.4012 -1.5044
 1174SOL     OW 3666   3.409   0.453   0.104 -0.6320 -0.0483  0.7670
 1174SOL    HW1 3667   3.447   0.486   0.022 -0.6156 -0.0668  0.7672
 1174SOL    HW2 3668   3.349   0.384   0.076 -3.2787  2.2054  0.4354
 1175SOL     OW 3669   2.111   0.612   2.518  0.4309  0.4772  0.0704
 1175SOL    HW1 3670   2.126   0.701   2.487  1.3070  0.5581  0.6811
 1175SOL    HW2 3671   2.026   0.587   2.481  1.7853  0.1919 -3.1775
 1176SOL     OW 3672   2.829   1.960   0.850  0.3553 -0.0374 -0.5914
 1176SOL    HW1 3673   2.915   1.972   0.891 -0.5541 -0.4444  1.5663
 1176SOL    HW2 3674   2.843   1.893   0.783  1.3011 -1.8640  1.3085
 1177SOL     OW 3675   2.659   3.722   3.221 -0.4101  0.6442  0.1676
 1177SOL    HW1 3676   2.675   3.811   3.252  1.8159 -0.0251  1.1450
 1177SOL    HW2 3677   2.671   3.667   3.298 -0.2965 -0.6326 -0.7304
 1178SOL     OW 3678   0.261   2.820   1.039 -0.0054  0.0350  0.5664
 1178SOL    HW1 3679   0.224   2.900   1.074  1.7389  0.9880  0.3677
 1178SOL    HW2 3680   0.214   2.804   0.957  0.1436  1.3098  0.2170
 1179SOL     OW 3681   0.641   3.463   2.233 -0.2813 -0.0387 -0.1863
 1179SOL    HW1 3682   0.699   3.442   2.160  0.3181  1.5913 -0.2238
 1179SOL    HW2 3683   0.688   3.435   2.311 -0.0861 -0.0732 -0.3167
 1180SOL     OW 3684   3.131   1.383   2.530  0.4523  0.3596 -0.0774
 1180SOL    HW1 3685   3.062   1.450   2.533 -1.1152 -1.2010  1.8861
 1180SOL    HW2 3686   3.143   1.365   2.437 -1.7313  0.7798 -0.4999
 1181SOL     OW 3687   0.517   3.445   3.272  0.0615  0.2987 -0.1158
 1181SOL    HW1 3688   0.479   3.498   3.202  0.9590  0.3377 -0.5828
 1181SOL    HW2 3689   0.598   3.411   3.235  0.4180  0.1066  0.8226
 1182SOL     OW 3690   2.307   1.971   2.174  0.8937  0.2877 -0.6673
 1182SOL    HW1 3691   2.280   1.893   2.125 -0.5234 -0.6599  1.4635
 1182SOL    HW2 3692   2.237   2.035   2.159  1.2367  0.5575 -1.1180
 1183SOL     OW 3693   1.505   3.035   0.195 -0.0148  0.0898 -0.1831
 1183SOL    HW1 3694   1.533   2.994   0.277 -1.9065 -0.0299  0.4689
 1183SOL    HW2 3695   1.581   3.030   0.138  1.8886  1.4950  2.0110
 1184SOL     OW 3696   1.880   3.013   3.102  0.0080 -0.5808  0.2091
 1184SOL    HW1 3697   1.812   3.048   3.045  1.1031  1.2815 -0.0321
 1184SOL    HW2 3698   1.866   2.919   3.101  0.5617 -0.7841 -3.9161
 1185SOL     OW 3699   1.801   1.320   3.273 -0.0980 -0.2629 -1.0241
 1185SOL    HW1 3700   1.735   1.331   3.205 -0.6337  1.1870 -0.3173
 1185SOL    HW2 3701   1.823   1.409   3.300 -2.3310 -0.7138  2.9975
 1186SOL     OW 3702   0.105   1.579   2.624 -0.4295 -0.3836 -0.0316
 1186SOL    HW1 3703   0.053   1.658   2.639 -0.4178 -0.7731  2.5581
 1186SOL    HW2 3704   0.041   1.513   2.597 -0.2972  0.6722 -3.3280
 1187SOL     OW 3705   2.563   0.209   2.679  0.2232 -0.0177  0.4529
 1187SOL    HW1 3706   2.630   0.255   2.628 -1.6801  2.0237 -0.3904
 1187SOL    HW2 3707   2.609   0.134   2.717  2.7463  0.7862 -0.7676
 1188SOL     OW 3708   3.452   3.148   3.689 -0.0081 -0.1820 -0.1686
 1188SOL    HW1 3709   3.472   3.054   3.692  1.3806  0.0972 -0.1936
 1188SOL    HW2 3710   3.356   3.152   3.694 -0.1806 -1.6636 -1.3700
 1189SOL     OW 3711   2.560   2.456   1.049  0.3688 -0.3768 -0.1683
 1189SOL    HW1 3712   2.471   2.447   1.085  0.9396 -1.2604  1.1061
 1189SOL    HW2 3713   2.592   2.539   1.084 -0.2562  0.3999 -1.3733
 1190SOL     OW 3714   1.531   0.104   3.149 -0.1816  0.2811 -0.4160
 1190SOL    HW1 3715   1.522   0.092   3.243 -1.5117  0.8727 -0.4514
 1190SOL    HW2 3716   1.612   0.057   3.127  0.3847  0.4888  1.0678
 1191SOL     OW 3717   1.082   2.949   1.802 -0.1359  0.4328 -0.0726
 1191SOL    HW1 3718   1.011   2.965   1.740 -0.3330  0.0687  0.0560
 1191SOL    HW2 3719   1.087   2.854   1.809 -0.6697  0.4728  1.1015
 1192SOL     OW 3720   2.171   0.070   0.761 -0.1066 -0.0269  0.2981
 1192SOL    HW1 3721   2.079   0.053   0.746 -0.3494  2.3993 -1.5874
 1192SOL    HW2 3722   2.214   0.048   0.679  0.7225  0.5385  0.5632
 1193SOL     OW 3723   1.270   2.542   1.768  0.2806  0.0790 -0.0681
 1193SOL    HW1 3724   1.358   2.550   1.732 -0.7702  0.3252 -2.8436
 1193SOL    HW2 3725   1.250   2.448   1.762  0.1926  0.0844  0.1277
 1194SOL     OW 3726   2.108   1.051   1.031 -0.0095 -0.3904 -0.2220
 1194SOL    HW1 3727   2.130   0.958   1.026  1.5171 -0.1610  1.2452
 1194SOL    HW2 3728   2.086   1.066   1.124  1.3868  1.0063 -0.0658
 1195SOL     OW 3729   0.390   2.457   0.840  0.7011  0.0079  0.7219
 1195SOL    HW1 3730   0.409   2.548   0.859 -0.9336  0.7504 -0.8750
 1195SOL    HW2 3731   0.294   2.453   0.838  0.7503 -1.5533 -0.0359
 1196SOL     OW 3732   0.168   0.267   1.891 -0.6995 -0.3089  0.3211
 1196SOL    HW1 3733   0.111   0.335   1.856 -0.9368 -0.9377 -0.5559
 1196SOL    HW2 3734   0.109   0.205   1.934 -0.3056  1.1974  3.2602
 1197SOL     OW 3735   1.161   2.734   0.535  0.2186  0.5651 -0.2003
 1197SOL    HW1 3736   1.230   2.675   0.503 -0.5455  0.0611 -0.9813
 1197SOL    HW2 3737   1.081   2.682   0.527 -0.0610  0.4559  2.4403
 1198SOL     OW 3738   1.279   2.731   3.197  0.2599  0.2081 -0.0026
 1198SOL    HW1 3739   1.267   2.640   3.222  0.9326  0.7494  2.5509
 1198SOL    HW2 3740   1.203   2.777   3.233  1.3938  1.0677  1.4055
 1199SOL     OW 3741   0.280   2.840   2.526 -0.4031 -0.2780  0.3418
 1199SOL    HW1 3742   0.228   2.917   2.547 -1.5769 -1.2427  1.0943
 1199SOL    HW2 3743   0.258   2.819   2.435 -0.5379 -0.0763  0.3284
 1200SOL     OW 3744   0.935   0.666   0.346 -0.1788 -0.4506  0.2472
 1200SOL    HW1 3745   0.907   0.608   0.276 -1.1170  0.2809 -0.0054
 1200SOL    HW2 3746   0.858   0.675   0.403 -0.9411  2.4425 -1.0264
 1201SOL     OW 3747   1.046   2.690   1.880  0.6710 -0.3372  0.2335
 1201SOL    HW1 3748   1.108   2.649   1.820 -1.1266  1.1885 -2.9293
 1201SOL    HW2 3749   0.969   2.632   1.879  0.0830  0.4303 -0.1258
 1202SOL     OW 3750   0.155   1.520   1.647 -0.2172 -0.0730  0.2663
 1202SOL    HW1 3751   0.195   1.584   1.589  0.5190 -0.3614  0.4468
 1202SOL    HW2 3752   0.206   1.526   1.728 -1.2571  0.3636  0.9157
 1203SOL     OW 3753   3.415   3.001   3.351 -0.4799 -0.0733  0.6798
 1203SOL    HW1 3754   3.420   3.008   3.256  0.2837 -0.0079  0.7183
 1203SOL    HW2 3755   3.464   2.922   3.372 -1.0333 -0.3453  0.9908
 1204SOL     OW 3756   2.314   0.422   3.138 -0.2829  0.0143  0.5663
 1204SOL    HW1 3757   2.228   0.396   3.171 -1.1386  2.6148  0.5961
 1204SOL    HW2 3758   2.327   0.510   3.172  0.4001  1.4794 -3.0173
 1205SOL     OW 3759   1.538   1.135   2.300  0.6449 -0.0042  0.2219
 1205SOL    HW1 3760   1.573   1.125   2.212  2.6135  1.7414  0.6916
 1205SOL    HW2 3761   1.457   1.084   2.301  0.4143  0.1582 -2.6481
 1206SOL     OW 3762   1.729   2.906   1.946 -0.0284  0.0129 -0.3713
 1206SOL    HW1 3763   1.676   2.973   1.988  0.5498 -0.0956  0.5632
 1206SOL    HW2 3764   1.773   2.951   1.873 -0.4597  0.3843 -0.4058
 1207SOL     OW 3765   3.018   0.194   1.753  0.3120  1.1203 -0.2141
 1207SOL    HW1 3766   2.952   0.262   1.760 -0.1065  0.9774 -2.2115
 1207SOL    HW2 3767   3.047   0.197   1.662  0.9196 -0.7784 -0.1396
 1208SOL     OW 3768   2.637   2.861   2.751  0.1024  0.0919 -0.0229
 1208SOL    HW1 3769   2.548   2.896   2.751 -1.5719 -3.6664 -1.8730
 1208SOL    HW2 3770   2.682   2.911   2.682 -1.3750  0.3089 -0.8741
 1209SOL     OW 3771   2.272   3.074   0.716  0.0926 -0.2405 -0.0814
 1209SOL    HW1 3772   2.333   3.035   0.778 -1.3463 -0.0802  1.5005
 1209SOL    HW2 3773   2.221   3.137   0.767 -0.9251  0.1556 -1.4934
 1210SOL     OW 3774   2.126   0.280   1.653 -0.3095  0.4750  0.1898
 1210SOL    HW1 3775   2.190   0.223   1.610 -0.4956 -0.2775  0.8750
 1210SOL    HW2 3776   2.059   0.295   1.587 -0.4705 -0.4622  0.1250
 1211SOL     OW 3777   1.611   2.540   2.733 -1.0484  0.3338  0.2422
 1211SOL    HW1 3778   1.585   2.461   2.685  0.3900  0.9381 -1.6587
 1211SOL    HW2 3779   1.702   2.525   2.757 -1.3981  0.5492  1.8023
 1212SOL     OW 3780   0.125   1.772   2.404  0.0660  0.1814  0.0636
 1212SOL    HW1 3781   0.078   1.816   2.475  1.5233  3.3640 -0.7441
 1212SOL    HW2 3782   0.149   1.687   2.441 -1.7271  0.5461  2.3126
 1213SOL     OW 3783   1.996   1.449   1.269  0.0856 -0.0907  0.6095
 1213SOL    HW1 3784   1.943   1.501   1.208 -0.3567 -0.2230  0.8733
 1213SOL    HW2 3785   1.935   1.383   1.302  0.8960 -1.4535 -0.5141
 1214SOL     OW 3786   1.383   3.288   0.503  0.3282  0.5789 -0.1370
 1214SOL    HW1 3787   1.433   3.285   0.422  0.5246  1.6977 -0.0709
 1214SOL    HW2 3788   1.449   3.289   0.572  0.1613 -0.5663  0.0616
 1215SOL     OW 3789   2.578   2.614   3.641 -0.2584 -0.5107 -0.4925
 1215SOL    HW1 3790   2.600   2.703   3.616 -0.3430 -0.8325 -1.7854
 1215SOL    HW2 3791   2.498   2.594   3.593 -1.7187 -0.4330  1.7301
 1216SOL     OW 3792   2.015   1.097   1.589  0.0059 -1.1640 -0.1618
 1216SOL    HW1 3793   2.049   1.011   1.615  1.0358 -0.4541  0.9908
 1216SOL    HW2 3794   2.092   1.154   1.590 -0.1537 -0.6996 -3.4176
 1217SOL     OW 3795   0.787   3.618   0.341 -0.0030  0.0966  0.4580
 1217SOL    HW1 3796   0.786   3.601   0.436  3.3666  0.8414  0.7591
 1217SOL    HW2 3797   0.715   3.681   0.328 -0.6054 -0.0758  2.4898
 1218SOL     OW 3798   1.743   2.268   1.611 -0.0735 -0.0961  0.5550
 1218SOL    HW1 3799   1.711   2.191   1.563 -0.5768 -0.4881  1.4953
 1218SOL    HW2 3800   1.806   2.309   1.552  1.7759 -2.3756  0.8520
 1219SOL     OW 3801   3.578   2.105   2.411 -0.1320  0.4160 -0.0849
 1219SOL    HW1 3802   3.557   2.065   2.495  1.7613  0.1164  0.3019
 1219SOL    HW2 3803   3.523   2.183   2.406  1.7269  2.1024  2.8284
 1220SOL     OW 3804   3.349   1.700   2.869 -0.3044  0.4401 -0.4505
 1220SOL    HW1 3805   3.426   1.651   2.841 -0.8879 -0.5997 -0.3269
 1220SOL    HW2 3806   3.301   1.638   2.924 -0.2213  1.7293  1.1506
 1221SOL     OW 3807   1.964   3.651   0.992  0.0249 -0.4838  0.0195
 1221SOL    HW1 3808   1.954   3.704   0.913  4.6752 -0.1434 -0.6485
 1221SOL    HW2 3809   1.928   3.566   0.969 -0.4604  0.1632 -1.7758
 1222SOL     OW 3810   3.576   1.666   2.226  0.1583 -0.4174 -0.2217
 1222SOL    HW1 3811   3.597   1.756   2.203  0.1843 -0.4923 -0.4981
 1222SOL    HW2 3812   3.648   1.639   2.284 -0.2640 -0.0099  0.5089
 1223SOL     OW 3813   1.707   3.150   2.916  0.1571 -0.0484  0.1417
 1223SOL    HW1 3814   1.630   3.154   2.972 -0.1901  0.4229 -0.3528
 1223SOL    HW2 3815   1.683   3.088   2.847 -1.3325  2.8961 -2.2157
 1224SOL     OW 3816   0.563   1.905   3.266 -0.1017  0.4172  0.0417
 1224SOL    HW1 3817   0.652   1.936   3.249 -0.1127 -0.5223 -1.9077
 1224SOL    HW2 3818   0.515   1.921   3.185 -1.7545  0.9235  1.0576
 1225SOL     OW 3819   1.172   0.393   2.785 -0.1370 -0.0723 -0.7780
 1225SOL    HW1 3820   1.144   0.482   2.805 -2.0327 -0.3043 -2.1359
 1225SOL    HW2 3821   1.149   0.342   2.863  1.2395  0.6163  0.1333
 1226SOL     OW 3822   1.780   0.162   0.142  0.2857 -0.0198  0.8129
 1226SOL    HW1 3823   1.751   0.125   0.059  3.4301 -0.5516 -0.1538
 1226SOL    HW2 3824   1.706   0.148   0.202 -1.7098 -0.4412 -1.6026
 1227SOL     OW 3825   3.532   2.032   1.565  0.4403 -0.6078  0.6822
 1227SOL    HW1 3826   3.461   2.000   1.621 -0.3754 -3.2138 -1.6323
 1227SOL    HW2 3827   3.495   2.110   1.522 -0.4800 -1.0709  0.6098
 1228SOL     OW 3828   3.052   2.459   0.962  0.0440 -0.4780  0.8838
 1228SOL    HW1 3829   3.064   2.530   1.025 -1.8474 -0.9297  1.8223
 1228SOL    HW2 3830   3.135   2.411   0.963  1.2832  1.5642  0.3713
 1229SOL     OW 3831   2.224   3.401   0.208 -0.6750 -0.1372 -0.0118
 1229SOL    HW1 3832   2.220   3.368   0.298 -3.1297  1.2005  0.4676
 1229SOL    HW2 3833   2.284   3.475   0.212 -0.9686  0.0794  0.6076
 1230SOL     OW 3834   1.464   0.329   0.146 -0.3691  0.5138 -0.0700
 1230SOL    HW1 3835   1.423   0.332   0.059 -0.0862 -0.6358 -0.2593
 1230SOL    HW2 3836   1.449   0.416   0.182  1.8922  2.0241 -2.3631
 1231SOL     OW 3837   2.315   2.574   2.253  0.5116  0.3786  0.7090
 1231SOL    HW1 3838   2.221   2.559   2.243  0.5774 -0.6863  1.5407
 1231SOL    HW2 3839   2.351   2.490   2.280  1.8047  0.6289 -0.1190
 1232SOL     OW 3840   1.758   3.318   2.654 -0.3644 -0.1369 -0.5822
 1232SOL    HW1 3841   1.681   3.290   2.703 -1.4937  1.4715 -1.3468
 1232SOL    HW2 3842   1.751   3.414   2.651  1.0082 -0.0378 -1.7332
 1233SOL     OW 3843   0.822   3.069   1.035 -0.3946 -0.1913  0.2843
 1233SOL    HW1 3844   0.786   3.158   1.032 -1.1077 -0.4820  0.0971
 1233SOL    HW2 3845   0.917   3.082   1.038 -0.5072  0.5836  0.6966
 1234SOL     OW 3846   0.644   2.977   0.852  0.1538 -0.4264 -0.6477
 1234SOL    HW1 3847   0.696   3.028   0.914  2.2568 -2.0631 -0.9556
 1234SOL    HW2 3848   0.625   3.038   0.781 -2.9835  1.7347  1.7589
 1235SOL     OW 3849   0.680   2.558   2.706 -0.3768 -0.2861 -0.0770
 1235SOL    HW1 3850   0.722   2.481   2.746  0.2724 -0.8174 -1.7060
 1235SOL    HW2 3851   0.588   2.550   2.730 -0.4208 -1.8901 -0.6652
 1236SOL     OW 3852   2.037   1.568   1.560 -0.5464  0.0880 -0.1111
 1236SOL    HW1 3853   2.089   1.488   1.556  0.3231  0.6198  0.2940
 1236SOL    HW2 3854   1.949   1.541   1.533  0.3717 -0.4228 -2.8884
 1237SOL     OW 3855   1.763   0.058   1.380  0.1201  0.7816 -0.5271
 1237SOL    HW1 3856   1.801   0.032   1.465 -0.4030 -1.2813 -0.8698
 1237SOL    HW2 3857   1.717   0.140   1.399  1.8041  1.5339  0.6707
 1238SOL     OW 3858   2.280   2.229   0.245  0.2580  0.3623  0.7401
 1238SOL    HW1 3859   2.340   2.275   0.187 -0.3437  2.1736  1.4891
 1238SOL    HW2 3860   2.206   2.205   0.189  0.0270  1.4163  0.5637
 1239SOL     OW 3861   2.118   1.346   2.650 -0.1214  0.0157 -0.4237
 1239SOL    HW1 3862   2.135   1.438   2.669 -1.7231  0.2037  0.2735
 1239SOL    HW2 3863   2.045   1.322   2.708  1.6219 -2.2972  1.0082
 1240SOL     OW 3864   0.513   0.066   1.535 -1.0295  0.2849 -0.3233
 1240SOL    HW1 3865   0.544   0.104   1.617 -0.5849  1.4776 -1.0177
 1240SOL    HW2 3866   0.457  -0.007   1.562  1.5300 -1.3634  1.0282
 1241SOL     OW 3867   1.544   1.405   1.304  0.1948 -0.6555  0.4808
 1241SOL    HW1 3868   1.576   1.463   1.235 -0.5434 -0.5629  0.2012
 1241SOL    HW2 3869   1.452   1.390   1.281  1.1611 -4.8535 -1.5392
 1242SOL     OW 3870   1.085   0.243   1.548  0.2077  0.1048  0.1807
 1242SOL    HW1 3871   1.045   0.319   1.589  0.4473 -1.1371  2.8789
 1242SOL    HW2 3872   1.176   0.269   1.533 -0.0544  0.8036 -0.2917
 1243SOL     OW 3873   3.592   3.543   0.049  0.2416  0.1110  0.5425
 1243SOL    HW1 3874   3.523   3.509  -0.007 -0.1925 -0.4559  1.4008
 1243SOL    HW2 3875   3.617   3.626   0.009  0.6469 -0.7379 -1.0503
 1244SOL     OW 3876   2.895   2.397   1.717  0.1687  0.1540  0.6020
 1244SOL    HW1 3877   2.918   2.392   1.624  0.1158 -0.1619  0.6028
 1244SOL    HW2 3878   2.883   2.490   1.734 -3.1756  0.0796 -0.5589
 1245SOL     OW 3879   3.006   0.372   2.583  0.6469 -0.6091 -0.3049
 1245SOL    HW1 3880   3.049   0.330   2.657  2.2757 -0.0868 -0.9151
 1245SOL    HW2 3881   3.034   0.464   2.589  0.0353 -0.3666 -1.0396
 1246SOL     OW 3882   1.085   0.070   3.243 -0.0266 -0.7017 -0.0277
 1246SOL    HW1 3883   1.071   0.094   3.335  1.2320 -1.4939  0.3943
 1246SOL    HW2 3884   1.072  -0.025   3.241  3.4336 -1.3113  0.1213
 1247SOL     OW 3885   3.588   1.955   2.173 -0.4701  0.1240 -0.3355
 1247SOL    HW1 3886   3.536   1.990   2.100 -0.7858 -1.3948 -0.8605
 1247SOL    HW2 3887   3.543   1.987   2.252  0.1988  2.2646 -0.7371
 1248SOL     OW 3888   1.276   2.592   2.193  0.4252 -0.0811 -0.1609
 1248SOL    HW1 3889   1.297   2.674   2.237  0.0251  1.0712 -1.9736
 1248SOL    HW2 3890   1.181   2.582   2.205  0.1276  0.7669 -1.4776
 1249SOL     OW 3891   1.748   3.250   1.529 -0.3820  0.0832  0.3767
 1249SOL    HW1 3892   1.767   3.167   1.573  1.3587  0.5735  0.6356
 1249SOL    HW2 3893   1.806   3.314   1.571  0.4475  0.8314 -1.7553
 1250SOL     OW 3894   1.836   2.836   2.779 -0.0709  0.2851  0.2244
 1250SOL    HW1 3895   1.749   2.877   2.777 -0.2622 -0.1381 -0.2008
 1250SOL    HW2 3896   1.836   2.785   2.860  0.0427  0.8364  0.5823
 1251SOL     OW 3897   1.923   0.547   3.015 -0.3731 -0.6119  0.0685
 1251SOL    HW1 3898   1.887   0.583   2.934 -1.0822  2.1801  1.5104
 1251SOL    HW2 3899   1.983   0.478   2.986 -0.5773  0.3028 -2.8256
 1252SOL     OW 3900   2.976   3.097   3.286 -0.4779 -0.0365 -0.0369
 1252SOL    HW1 3901   2.983   3.102   3.190 -0.1923 -0.0830 -0.0198
 1252SOL    HW2 3902   3.011   3.180   3.317  1.0324 -0.6868  0.0983
 1253SOL     OW 3903   2.734   0.395   2.576 -0.0695  0.1647  0.5714
 1253SOL    HW1 3904   2.711   0.456   2.646 -0.6740  0.2961  0.2590
 1253SOL    HW2 3905   2.830   0.402   2.569  0.3009 -1.4110  2.8307
 1254SOL     OW 3906   0.552   3.560   0.121 -0.1466  0.2824 -0.3582
 1254SOL    HW1 3907   0.594   3.569   0.036  0.1567 -0.4926 -0.3044
 1254SOL    HW2 3908   0.592   3.482   0.159 -1.9825 -0.7994 -0.5082
 1255SOL     OW 3909   1.131   0.123   0.061  1.0706 -0.1918 -0.6704
 1255SOL    HW1 3910   1.151   0.198   0.005  0.4760 -0.0429 -0.6844
 1255SOL    HW2 3911   1.123   0.159   0.149 -1.5066  0.1567 -0.9928
 1256SOL     OW 3912   1.897   1.907   0.244  0.5394 -0.5895 -0.3739
 1256SOL    HW1 3913   1.840   1.834   0.219  1.2298 -1.7620  1.3052
 1256SOL    HW2 3914   1.985   1.875   0.223  0.8546 -0.2967  0.4757
 1257SOL     OW 3915   1.801   1.784   0.805 -0.3071 -0.1452 -0.3227
 1257SOL    HW1 3916   1.714   1.818   0.824 -0.3770  1.0676 -2.4642
 1257SOL    HW2 3917   1.860   1.858   0.818  0.2315 -0.5728 -0.2488
 1258SOL     OW 3918   1.492   0.371   1.202 -0.4300  0.1443 -0.5229
 1258SOL    HW1 3919   1.559   0.312   1.168 -0.7584 -0.3906 -0.2584
 1258SOL    HW2 3920   1.538   0.453   1.221  1.0981 -1.3807  3.4867
 1259SOL     OW 3921   2.543   2.322   2.208  0.5522  0.1579 -0.1484
 1259SOL    HW1 3922   2.577   2.392   2.153  1.2595  0.6470  0.8843
 1259SOL    HW2 3923   2.581   2.242   2.171 -0.3933  0.2756 -1.4320
 1260SOL     OW 3924   1.792   2.491   1.206  0.2497 -0.2994 -0.0091
 1260SOL    HW1 3925   1.708   2.453   1.231  1.5238 -1.1672  3.4809
 1260SOL    HW2 3926   1.791   2.492   1.111 -2.7593 -2.4134 -0.1099
 1261SOL     OW 3927   3.134   1.354   1.244  0.0164 -0.7408 -0.3572
 1261SOL    HW1 3928   3.177   1.328   1.326  0.4723  0.5485 -0.1539
 1261SOL    HW2 3929   3.046   1.381   1.271  0.3425  0.2003 -0.1851
 1262SOL     OW 3930   2.964   3.523   2.777 -0.0280  0.0538  0.0197
 1262SOL    HW1 3931   3.039   3.535   2.718 -2.3136  3.6545 -2.6175
 1262SOL    HW2 3932   2.908   3.460   2.732 -0.3079  0.3538 -0.0614
 1263SOL     OW 3933   3.279   0.756   3.694 -0.1589  0.4665  0.2279
 1263SOL    HW1 3934   3.227   0.689   3.649  1.0447 -1.2593  1.3065
 1263SOL    HW2 3935   3.262   0.742   3.787 -0.6259  2.3354  0.4791
 1264SOL     OW 3936   1.776   0.596   2.171 -0.1177 -0.0660 -0.1339
 1264SOL    HW1 3937   1.743   0.506   2.179  0.9313 -0.3980  0.7162
 1264SOL    HW2 3938   1.784   0.610   2.077 -0.6051 -0.7395 -0.2875
 1265SOL     OW 3939   3.174   3.026   2.256 -0.2758 -0.0250 -0.1590
 1265SOL    HW1 3940   3.131   3.095   2.307 -0.1912 -0.1677  0.1056
 1265SOL    HW2 3941   3.258   3.012   2.300 -1.2568 -1.9678  1.2470
 1266SOL     OW 3942   2.153   2.214   2.152  0.6292 -0.3888 -0.4117
 1266SOL    HW1 3943   2.169   2.251   2.065  0.5956 -0.9348 -0.6497
 1266SOL    HW2 3944   2.140   2.291   2.208  4.2127  0.2035 -0.1373
 1267SOL     OW 3945   0.521   0.863   3.403  0.1829  0.5082 -0.8324
 1267SOL    HW1 3946   0.533   0.950   3.441  0.4918  0.1871 -0.1743
 1267SOL    HW2 3947   0.553   0.803   3.470  0.2478 -0.1025 -1.3972
 1268SOL     OW 3948   3.241   2.082   0.635  0.0535 -0.4943  0.4580
 1268SOL    HW1 3949   3.262   2.102   0.726  0.3615  1.4368 -0.0040
 1268SOL    HW2 3950   3.300   2.137   0.584 -1.3163 -0.2212 -0.9096
 1269SOL     OW 3951   1.715   0.756   3.542 -0.2255 -0.4808  0.4225
 1269SOL    HW1 3952   1.655   0.727   3.475  2.0422 -1.8621 -1.1395
 1269SOL    HW2 3953   1.683   0.715   3.623 -0.5208 -2.4727 -0.6441
 1270SOL     OW 3954   2.781   2.812   0.809  0.5635  0.3134 -0.7425
 1270SOL    HW1 3955   2.765   2.738   0.751  0.4926  0.4508 -0.8988
 1270SOL    HW2 3956   2.717   2.879   0.782 -1.6666 -0.7354  1.5450
 1271SOL     OW 3957   3.281   2.029   1.704  0.7568  0.2382  0.1492
 1271SOL    HW1 3958   3.316   2.052   1.790 -0.5253  1.6115  0.3444
 1271SOL    HW2 3959   3.187   2.047   1.710  0.5690 -0.0691 -1.3886
 1272SOL     OW 3960   1.383   3.074   1.439 -0.3129 -0.2497  0.1593
 1272SOL    HW1 3961   1.434   3.114   1.509  0.3184  0.6462 -0.7943
 1272SOL    HW2 3962   1.426   3.101   1.358 -0.0201 -2.6417 -0.5582
 1273SOL     OW 3963   1.740   3.347   2.193  0.3703  0.1422 -0.4467
 1273SOL    HW1 3964   1.770   3.351   2.102 -0.4838  0.1955 -0.7408
 1273SOL    HW2 3965   1.744   3.254   2.216  0.9647  0.1746 -0.3984
 1274SOL     OW 3966   2.275   2.629   0.385  0.7606  0.3275 -0.2643
 1274SOL    HW1 3967   2.216   2.580   0.443  1.7026 -0.8902 -0.2949
 1274SOL    HW2 3968   2.317   2.693   0.443  1.3113 -0.5357  0.3187
 1275SOL     OW 3969   2.717   0.026   0.578 -0.2200  0.5736 -0.3175
 1275SOL    HW1 3970   2.810   0.005   0.588 -0.0957  1.4317  0.4941
 1275SOL    HW2 3971   2.715   0.107   0.526 -0.3301  2.0902  1.9019
 1276SOL     OW 3972   2.002   3.235   2.311  0.0300 -0.0955  0.4868
 1276SOL    HW1 3973   1.968   3.238   2.400  2.0314 -2.0292  1.4114
 1276SOL    HW2 3974   2.052   3.316   2.301 -1.4337  0.8394  0.5466
 1277SOL     OW 3975   0.373   3.261   0.894 -0.3324 -0.1708  0.5977
 1277SOL    HW1 3976   0.293   3.284   0.847  0.4824 -0.4038 -0.9729
 1277SOL    HW2 3977   0.353   3.179   0.938 -0.5446 -0.9653 -0.9331
 1278SOL     OW 3978   3.651   0.204   1.416 -0.1298 -0.4984 -0.0211
 1278SOL    HW1 3979   3.663   0.293   1.385 -1.8654  0.0192  0.6808
 1278SOL    HW2 3980   3.618   0.214   1.505  1.2227 -1.8876  0.6909
 1279SOL     OW 3981   1.948   1.583   0.678 -0.0990 -0.1039 -0.2161
 1279SOL    HW1 3982   1.889   1.638   0.729 -0.2492 -0.6539  0.2172
 1279SOL    HW2 3983   2.005   1.542   0.743 -0.5691 -1.1427 -0.4233
 1280SOL     OW 3984   1.025   2.235   0.537  0.2759 -0.5481 -0.1699
 1280SOL    HW1 3985   0.958   2.180   0.495  0.6471 -1.4014  0.3206
 1280SOL    HW2 3986   0.994   2.242   0.628 -1.6325  2.9869 -0.9165
 1281SOL     OW 3987   2.189   1.171   0.763  0.0033 -0.3969  0.1856
 1281SOL    HW1 3988   2.151   1.193   0.848 -0.4160  1.7704 -0.5015
 1281SOL    HW2 3989   2.284   1.169   0.779  0.3082  3.7525  0.1154
 1282SOL     OW 3990   3.461   2.329   3.247  0.0976 -0.5479  0.0390
 1282SOL    HW1 3991   3.513   2.266   3.197 -0.1025 -1.1078  0.5321
 1282SOL    HW2 3992   3.376   2.330   3.204 -0.1882 -1.2918  0.5618
 1283SOL     OW 3993   3.294   1.722   2.080  0.5837  0.0873 -0.4139
 1283SOL    HW1 3994   3.280   1.807   2.123  0.7457  0.8990 -1.8742
 1283SOL    HW2 3995   3.360   1.679   2.134  0.8877  1.1240  0.0859
 1284SOL     OW 3996   1.800   1.264   3.617 -0.0474  0.8324 -0.2006
 1284SOL    HW1 3997   1.716   1.230   3.586 -0.0253 -0.2323  0.8368
 1284SOL    HW2 3998   1.791   1.269   3.712  0.4354  2.4975 -0.2170
 1285SOL     OW 3999   2.457   0.902   1.498 -0.2962  0.0022 -0.6170
 1285SOL    HW1 4000   2.488   0.828   1.445 -4.2806 -1.3682 -1.3578
 1285SOL    HW2 4001   2.493   0.886   1.585  0.7414 -1.5737 -1.2884
 1286SOL     OW 4002   1.648   2.816   0.331  0.1343 -0.6288  0.1701
 1286SOL    HW1 4003   1.709   2.746   0.307  1.4319  0.8712 -1.1067
 1286SOL    HW2 4004   1.669   2.835   0.422  1.1573 -0.5647 -0.0649
 1287SOL     OW 4005   2.848   1.106   0.896 -0.1855 -0.6166  0.0023
 1287SOL    HW1 4006   2.795   1.036   0.857  0.0095 -0.5360 -0.4070
 1287SOL    HW2 4007   2.884   1.154   0.821 -0.2886 -0.1003  0.2817
 1288SOL     OW 4008   1.713   1.874   1.165 -0.3034 -0.5616  0.0130
 1288SOL    HW1 4009   1.717   1.910   1.254 -0.2615 -1.6105  0.4416
 1288SOL    HW2 4010   1.719   1.951   1.109 -1.7821  0.2650  0.9196
 1289SOL     OW 4011   2.675   0.779   2.242  0.2836  0.0807  0.3829
 1289SOL    HW1 4012   2.754   0.753   2.194 -0.1997 -0.6177 -0.0566
 1289SOL    HW2 4013   2.702   0.855   2.293  0.6118  1.4175 -1.6720
 1290SOL     OW 4014   0.757   0.138   0.087  0.2275 -0.1082  0.7544
 1290SOL    HW1 4015   0.804   0.067   0.044 -0.0470  0.4837 -0.5892
 1290SOL    HW2 4016   0.698   0.094   0.148  1.7923 -0.9029  1.7606
 1291SOL     OW 4017   0.190   2.248   3.658 -0.1198 -0.2841 -0.3486
 1291SOL    HW1 4018   0.219   2.161   3.686  0.8257  0.3586  0.7447
 1291SOL    HW2 4019   0.097   2.251   3.678  0.3350 -0.1633  2.0283
 1292SOL     OW 4020   1.131   1.254   0.242 -0.9913  1.0545  0.2844
 1292SOL    HW1 4021   1.081   1.232   0.164  0.6328  0.5827 -0.6577
 1292SOL    HW2 4022   1.109   1.185   0.305  0.0284 -0.3636 -0.8470
 1293SOL     OW 4023   0.325   0.068   0.998 -0.3812 -0.5052  0.0911
 1293SOL    HW1 4024   0.411   0.039   0.967  0.0325 -0.1250  0.8462
 1293SOL    HW2 4025   0.323   0.162   0.981 -0.7461 -0.5538 -0.1401
 1294SOL     OW 4026   0.991   1.351   2.447 -0.2445 -0.0019  0.1665
 1294SOL    HW1 4027   0.975   1.371   2.539  0.3612 -3.5386  1.2127
 1294SOL    HW2 4028   0.905   1.351   2.406 -0.7299 -0.0834  1.1734
 1295SOL     OW 4029   0.903   3.366   2.736 -0.2373 -0.6226 -0.6245
 1295SOL    HW1 4030   0.916   3.334   2.826  0.7547  1.2794 -0.0401
 1295SOL    HW2 4031   0.971   3.321   2.685  1.5433  0.8970  0.2935
 1296SOL     OW 4032   3.620   2.749   2.620 -0.9097 -0.3402  0.0844
 1296SOL    HW1 4033   3.546   2.715   2.670 -0.5293 -0.4458  0.5803
 1296SOL    HW2 4034   3.695   2.740   2.679 -1.0611  2.9525  0.9267
 1297SOL     OW 4035   3.192   1.524   3.342 -0.4747 -0.1475  0.5803
 1297SOL    HW1 4036   3.279   1.548   3.309 -0.6400 -2.0829 -1.4306
 1297SOL    HW2 4037   3.131   1.578   3.291 -0.5931 -1.1601 -0.3713
 1298SOL     OW 4038   3.364   0.801   1.727 -0.1192  0.1597  0.2543
 1298SOL    HW1 4039   3.278   0.793   1.768 -1.0652 -0.4440 -1.7098
 1298SOL    HW2 4040   3.366   0.729   1.663  1.8256  0.2145  0.2002
 1299SOL     OW 4041   1.192   2.281   1.745 -0.7969 -0.0792  0.2716
 1299SOL    HW1 4042   1.217   2.243   1.829 -1.0832  0.0721  0.4276
 1299SOL    HW2 4043   1.196   2.208   1.683  1.3517  0.2075  0.0049
 1300SOL     OW 4044   3.404   2.638   2.753 -0.5947  0.0659 -0.3583
 1300SOL    HW1 4045   3.325   2.597   2.718 -1.2031  1.2199 -0.4096
 1300SOL    HW2 4046   3.393   2.636   2.848 -1.0468  0.8451 -0.3781
 1301SOL     OW 4047   1.518   0.180   2.089 -0.0314 -0.4899  0.1002
 1301SOL    HW1 4048   1.446   0.232   2.125 -0.1056 -0.1361 -0.5345
 1301SOL    HW2 4049   1.597   0.225   2.118 -0.0531 -0.9231  0.8644
 1302SOL     OW 4050   0.511   0.088   0.622  0.2234  0.1405  0.2690
 1302SOL    HW1 4051   0.489   0.007   0.577  3.4631 -0.7002 -0.0560
 1302SOL    HW2 4052   0.429   0.136   0.627 -1.3960 -2.2470 -1.3597
 1303SOL     OW 4053   0.203   3.114   2.742 -0.3200  0.1290  0.4447
 1303SOL    HW1 4054   0.112   3.095   2.720 -0.5715 -0.6942  2.0493
 1303SOL    HW2 4055   0.201   3.137   2.835  0.8827  1.8511  0.1162
 1304SOL     OW 4056   1.114   1.068   1.363  0.4136 -0.0913 -0.4238
 1304SOL    HW1 4057   1.027   1.097   1.392  0.1107 -2.7624  1.7654
 1304SOL    HW2 4058   1.099   0.980   1.328  2.1550 -0.3612 -0.5644
 1305SOL     OW 4059   2.056   3.534   2.197  0.0507  0.1953 -0.4561
 1305SOL    HW1 4060   1.990   3.564   2.260 -0.1103  0.6090 -0.8114
 1305SOL    HW2 4061   2.140   3.559   2.236 -0.1268  3.2432 -1.7404
 1306SOL     OW 4062   0.727   1.759   3.526 -0.3955  0.2447 -0.7728
 1306SOL    HW1 4063   0.679   1.709   3.460  0.7318 -1.8710 -0.0811
 1306SOL    HW2 4064   0.817   1.730   3.518  0.1774  1.5983  0.2429
 1307SOL     OW 4065   1.858   3.081   1.770  1.1506  0.5584  0.3249
 1307SOL    HW1 4066   1.906   3.029   1.706 -0.3068 -1.5546  0.8164
 1307SOL    HW2 4067   1.922   3.099   1.839  1.9724  0.2788 -0.3438
 1308SOL     OW 4068   0.706   2.823   1.804 -0.1854  0.3974 -0.3715
 1308SOL    HW1 4069   0.777   2.867   1.757 -1.3234  4.0749  1.0183
 1308SOL    HW2 4070   0.729   2.831   1.896 -1.6091  0.1185  0.0312
 1309SOL     OW 4071   1.978   1.934   1.588  0.3408 -0.3596  0.3663
 1309SOL    HW1 4072   1.900   1.958   1.639  0.6441  1.1861  0.1506
 1309SOL    HW2 4073   1.943   1.907   1.503  0.0245  0.3179  0.2716
 1310SOL     OW 4074   0.832   0.741   3.303  0.2464 -0.1191  0.2688
 1310SOL    HW1 4075   0.738   0.743   3.318  0.1654 -1.6994  0.1054
 1310SOL    HW2 4076   0.868   0.694   3.379  0.8547  0.0921  0.1228
 1311SOL     OW 4077   1.430   1.826   1.983 -0.0671 -0.2871  0.1401
 1311SOL    HW1 4078   1.458   1.734   1.981 -0.2625 -0.3735  0.9004
 1311SOL    HW2 4079   1.340   1.822   2.014  0.0093  0.1825  0.4210
 1312SOL     OW 4080   2.077   2.701   2.970  0.3617  0.1998 -0.2736
 1312SOL    HW1 4081   2.135   2.692   3.045 -0.8211 -0.4593  0.6042
 1312SOL    HW2 4082   2.128   2.670   2.895  1.3701  0.3377  0.3499
 1313SOL     OW 4083   0.621   3.732   2.654  0.7794 -0.4584 -0.0854
 1313SOL    HW1 4084   0.626   3.641   2.682  1.7732 -0.4683 -0.2488
 1313SOL    HW2 4085   0.711   3.755   2.633  0.8963  1.2192  1.9538
 1314SOL     OW 4086   3.008   0.846   2.475 -0.0815  0.2522  0.3704
 1314SOL    HW1 4087   3.029   0.929   2.432 -2.2837  0.6352 -0.0553
 1314SOL    HW2 4088   3.089   0.795   2.470  1.9172  2.9899  2.2477
 1315SOL     OW 4089   0.727   2.536   1.290  0.0191  0.1108  0.1209
 1315SOL    HW1 4090   0.789   2.574   1.228  0.4659 -0.8950 -0.0785
 1315SOL    HW2 4091   0.782   2.488   1.353 -0.5145 -0.2383  0.3326
 1316SOL     OW 4092   3.361   1.497   1.767 -0.7283 -0.0070 -0.0768
 1316SOL    HW1 4093   3.455   1.500   1.750 -0.4391 -0.7214  1.2507
 1316SOL    HW2 4094   3.326   1.573   1.720 -0.1166 -1.9039 -3.9203
 1317SOL     OW 4095   3.409   2.746   1.335  0.1955  0.6019  0.2067
 1317SOL    HW1 4096   3.391   2.703   1.419  1.3049  0.4394  0.3793
 1317SOL    HW2 4097   3.368   2.832   1.343  2.2868  1.5571  1.9086
 1318SOL     OW 4098   0.513   2.804   2.234 -0.6315  0.6449 -0.4321
 1318SOL    HW1 4099   0.563   2.885   2.230  0.3131  0.1295  0.5591
 1318SOL    HW2 4100   0.568   2.739   2.191 -0.6214  0.1639  0.2907
 1319SOL     OW 4101   2.397   2.395   0.050 -0.2872  0.5227  0.3101
 1319SOL    HW1 4102   2.437   2.466   0.100  0.2038  0.7085 -0.3431
 1319SOL    HW2 4103   2.317   2.433   0.014 -0.1604  0.6646  0.1789
 1320SOL     OW 4104   3.300   0.759   2.932 -0.1203  0.1201 -0.5654
 1320SOL    HW1 4105   3.385   0.719   2.955 -0.0415  0.5690 -0.0667
 1320SOL    HW2 4106   3.262   0.784   3.016  0.2107  1.8827 -0.9065
 1321SOL     OW 4107   0.980   3.461   3.588 -0.1837 -0.8059  0.0035
 1321SOL    HW1 4108   1.074   3.460   3.607 -0.4030 -2.8595  1.3509
 1321SOL    HW2 4109   0.949   3.542   3.628  1.2167  0.8592 -2.0290
 1322SOL     OW 4110   1.428   0.856   3.532  0.1789 -0.7236 -0.0623
 1322SOL    HW1 4111   1.335   0.874   3.544  0.6307  0.6930  1.5300
 1322SOL    HW2 4112   1.433   0.817   3.444 -1.7130  0.6300 -0.8418
 1323SOL     OW 4113   2.981   0.578   3.133  0.2103  0.4960  0.1306
 1323SOL    HW1 4114   2.956   0.581   3.040 -2.1711  1.1651  0.7176
 1323SOL    HW2 4115   2.997   0.486   3.151  1.9177  0.4793 -1.1903
 1324SOL     OW 4116   1.753   3.688   3.102  0.4962  0.4366  0.1721
 1324SOL    HW1 4117   1.802   3.633   3.042  3.0416  0.8560  1.6900
 1324SOL    HW2 4118   1.741   3.634   3.181 -1.6274  0.3374 -0.1515
 1325SOL     OW 4119   2.464   0.829   0.140 -0.1920 -0.9496 -0.4851
 1325SOL    HW1 4120   2.375   0.858   0.124 -0.2710 -0.4941  0.6303
 1325SOL    HW2 4121   2.461   0.789   0.227  0.5894 -1.3590 -0.6340
 1326SOL     OW 4122   3.172   1.776   3.541  0.3546  0.0107  0.2391
 1326SOL    HW1 4123   3.209   1.794   3.455 -1.0373 -0.1571 -0.4186
 1326SOL    HW2 4124   3.189   1.856   3.591 -0.1956  0.7244 -0.6789
 1327SOL     OW 4125   1.580   1.204   0.534  0.6762 -0.2955  0.3704
 1327SOL    HW1 4126   1.648   1.229   0.596  0.8103  1.0421 -0.2777
 1327SOL    HW2 4127   1.543   1.287   0.503 -0.6364 -0.9685  0.0292
 1328SOL     OW 4128   2.706   0.619   0.237 -0.9092  0.7482  0.1514
 1328SOL    HW1 4129   2.720   0.646   0.146  0.1833  0.8738  0.3402
 1328SOL    HW2 4130   2.677   0.528   0.231  1.2328  0.0294 -0.2700
 1329SOL     OW 4131   1.172   0.303   0.769  0.9370  0.0527  0.1241
 1329SOL    HW1 4132   1.202   0.380   0.816  0.4825  0.6148 -0.4855
 1329SOL    HW2 4133   1.132   0.337   0.689  4.4045 -0.9541 -2.2898
 1330SOL     OW 4134   0.275   1.517   2.326  0.3121 -0.5262 -0.1584
 1330SOL    HW1 4135   0.303   1.431   2.296  0.0697 -0.8499  0.5218
 1330SOL    HW2 4136   0.227   1.554   2.252  2.0134 -0.1898 -1.1430
 1331SOL     OW 4137   2.211   2.981   1.766  0.2703 -0.2069  0.1346
 1331SOL    HW1 4138   2.270   2.908   1.782 -0.0594 -0.9182 -1.6082
 1331SOL    HW2 4139   2.199   3.022   1.851  1.0606 -1.7322  1.0221
 1332SOL     OW 4140   0.137   2.354   3.188 -0.6328 -0.2819  0.3582
 1332SOL    HW1 4141   0.191   2.403   3.250  0.7382  2.2014 -2.5647
 1332SOL    HW2 4142   0.081   2.420   3.147 -2.4730 -2.0453 -0.1354
 1333SOL     OW 4143   2.216   3.607   2.563 -0.2316 -0.0629  0.4031
 1333SOL    HW1 4144   2.268   3.563   2.496  0.1580 -0.1599  0.7645
 1333SOL    HW2 4145   2.199   3.694   2.527  2.4862  0.9801  1.3739
 1334SOL     OW 4146   1.206   3.390   1.290  0.2094  1.1036 -0.5582
 1334SOL    HW1 4147   1.146   3.330   1.334 -1.4589  2.9332 -0.1943
 1334SOL    HW2 4148   1.244   3.338   1.219  0.2851 -0.8789  0.8655
 1335SOL     OW 4149   3.091   1.177   3.671  0.2304  0.4907 -0.0109
 1335SOL    HW1 4150   3.075   1.127   3.591  0.1182  0.9914 -0.3090
 1335SOL    HW2 4151   3.142   1.118   3.727 -3.0654 -1.4131  1.2681
 1336SOL     OW 4152  -0.020   0.260   0.147 -0.4438  0.8052  0.3061
 1336SOL    HW1 4153  -0.032   0.338   0.094  0.4362  0.3609 -0.5875
 1336SOL    HW2 4154   0.063   0.274   0.192  1.1740 -0.6900 -1.9460
 1337SOL     OW 4155   1.862   2.272   0.749 -0.3107  0.2395 -0.1004
 1337SOL    HW1 4156   1.885   2.356   0.790 -1.3369  0.8591 -0.7379
 1337SOL    HW2 4157   1.798   2.295   0.682 -2.1692 -1.2647  1.0408
 1338SOL     OW 4158   0.665   0.730   0.198 -0.0145 -0.2044 -0.2507
 1338SOL    HW1 4159   0.664   0.771   0.284 -1.1047 -1.1640  0.2056
 1338SOL    HW2 4160   0.580   0.751   0.160  1.6502  3.3292 -2.6728
 1339SOL     OW 4161   2.706   2.217   1.782  0.2819  0.0293  0.1928
 1339SOL    HW1 4162   2.776   2.277   1.753 -0.7788  1.3078  0.1870
 1339SOL    HW2 4163   2.753   2.145   1.824  1.7372 -0.4597 -2.1025
 1340SOL     OW 4164   0.056   2.523   3.542  0.3046  0.3647  0.4452
 1340SOL    HW1 4165   0.016   2.436   3.544 -2.1289  1.3254 -1.3368
 1340SOL    HW2 4166  -0.006   2.579   3.589  2.4149  1.0219  2.6598
 1341SOL     OW 4167   2.915   0.897   1.182  0.5070  0.8860  0.0563
 1341SOL    HW1 4168   2.932   0.949   1.103  0.0896  0.1849 -0.5077
 1341SOL    HW2 4169   2.980   0.928   1.245  0.8747  1.4329 -0.5716
 1342SOL     OW 4170   0.450   3.148   1.615 -0.4021 -0.3182 -0.7107
 1342SOL    HW1 4171   0.388   3.220   1.628 -0.1870 -0.5073  1.8853
 1342SOL    HW2 4172   0.534   3.192   1.596 -0.6213  0.0492 -0.8457
 1343SOL     OW 4173   0.326   0.675   3.323  0.2286 -0.6236 -0.5946
 1343SOL    HW1 4174   0.250   0.732   3.327  0.9899  0.5748 -1.9468
 1343SOL    HW2 4175   0.398   0.728   3.358  0.4313 -1.7951  0.8252
 1344SOL     OW 4176   0.602   1.733   0.829 -0.2432 -0.3255 -0.8490
 1344SOL    HW1 4177   0.536   1.800   0.813 -2.5122 -2.1782  0.0974
 1344SOL    HW2 4178   0.611   1.687   0.746  1.1220  0.9285 -1.4267
 1345SOL     OW 4179   3.551   2.142   0.544 -0.1296  0.7131  0.2717
 1345SOL    HW1 4180   3.484   2.159   0.477  1.1486 -1.5694 -1.7378
 1345SOL    HW2 4181   3.631   2.128   0.495  0.8163 -1.4291  2.2621
 1346SOL     OW 4182   0.675   2.684   1.522  0.0807 -0.3651 -0.6280
 1346SOL    HW1 4183   0.636   2.769   1.543  3.1108  1.0978 -0.4539
 1346SOL    HW2 4184   0.681   2.684   1.426 -1.6153 -1.2683 -0.7733
 1347SOL     OW 4185   2.491   2.426   2.940 -0.0094  0.4331  0.7270
 1347SOL    HW1 4186   2.481   2.521   2.951 -1.7128  0.4917 -0.7873
 1347SOL    HW2 4187   2.406   2.390   2.966  0.4324 -0.6356  0.7311
 1348SOL     OW 4188   1.012   1.642   2.886 -0.2089 -0.2296  0.6584
 1348SOL    HW1 4189   0.947   1.683   2.943  0.5209 -0.1137  1.4283
 1348SOL    HW2 4190   1.088   1.700   2.891 -0.2419 -0.0314 -0.7153
 1349SOL     OW 4191   1.852   0.511   2.469  0.1809  0.0856  0.5500
 1349SOL    HW1 4192   1.850   0.415   2.472  0.5806  0.0979  2.0051
 1349SOL    HW2 4193   1.773   0.535   2.419  0.2712 -0.9946 -0.1417
 1350SOL     OW 4194   1.416   0.712   3.301  0.7063 -0.2196 -0.4857
 1350SOL    HW1 4195   1.499   0.667   3.314  1.1436  0.6489 -0.1964
 1350SOL    HW2 4196   1.396   0.699   3.209  0.7492 -1.1146 -0.3795
 1351SOL     OW 4197   1.600   3.638   1.936  0.2048 -0.5699  0.0554
 1351SOL    HW1 4198   1.630   3.555   1.973  0.4044 -0.1246  0.9283
 1351SOL    HW2 4199   1.681   3.684   1.912  0.1447 -0.1814  0.5870
 1352SOL     OW 4200   2.837   0.360   2.224 -0.1337 -0.0908 -0.5161
 1352SOL    HW1 4201   2.862   0.374   2.133 -1.9773  0.7629 -0.9370
 1352SOL    HW2 4202   2.759   0.414   2.237  0.2221  0.0192  1.6581
 1353SOL     OW 4203   0.172   1.950   1.830 -0.2565 -0.0563  0.4991
 1353SOL    HW1 4204   0.245   1.888   1.838 -0.6871 -0.3713  2.5203
 1353SOL    HW2 4205   0.206   2.032   1.867 -0.1878  0.5206 -0.7770
 1354SOL     OW 4206   3.365   0.469   2.305  0.7545  0.8743  0.3877
 1354SOL    HW1 4207   3.440   0.492   2.359 -1.3204  1.0990  3.3708
 1354SOL    HW2 4208   3.341   0.381   2.333  0.9259  0.0582 -1.8406
 1355SOL     OW 4209   0.891   2.205   0.824 -0.2408 -0.3231  0.0903
 1355SOL    HW1 4210   0.826   2.235   0.887 -1.2061 -1.4242 -0.3222
 1355SOL    HW2 4211   0.954   2.276   0.817 -1.0747  0.5234  0.9775
 1356SOL     OW 4212   1.361   3.683   2.109 -0.3720  0.2451 -0.0241
 1356SOL    HW1 4213   1.428   3.750   2.092  0.7670  0.7598  4.8995
 1356SOL    HW2 4214   1.409   3.612   2.152 -2.4280 -1.2754 -0.1145
 1357SOL     OW 4215   3.138   2.212   3.134  0.1137  0.1140  0.4170
 1357SOL    HW1 4216   3.061   2.162   3.108  0.2595  0.6130 -1.0437
 1357SOL    HW2 4217   3.107   2.303   3.139  0.0532  0.0278  2.2067
 1358SOL     OW 4218   1.589   2.551   0.124 -0.3521 -0.4050  0.2056
 1358SOL    HW1 4219   1.542   2.493   0.183  0.4702 -1.3867 -0.0868
 1358SOL    HW2 4220   1.661   2.586   0.177 -1.0116  0.6032  0.4682
 1359SOL     OW 4221   1.839   1.969   0.492 -0.5577  0.4707  0.8200
 1359SOL    HW1 4222   1.758   2.009   0.463  0.1992  0.8370 -0.8659
 1359SOL    HW2 4223   1.878   1.932   0.413  0.4516 -0.5800  1.7598
 1360SOL     OW 4224   2.059   1.865   2.801  0.4449 -1.3715 -0.3339
 1360SOL    HW1 4225   1.965   1.880   2.793  0.7963  1.1151 -0.7376
 1360SOL    HW2 4226   2.078   1.882   2.894  0.4816 -2.0913 -0.2044
 1361SOL     OW 4227   3.048   0.027   0.667  0.1851  0.1678 -0.1779
 1361SOL    HW1 4228   3.129  -0.008   0.629  1.0329  1.8976 -0.0630
 1361SOL    HW2 4229   3.045  -0.011   0.755  0.5979 -0.3284 -0.3732
 1362SOL     OW 4230   0.567   0.058   0.275  0.2151 -0.2327 -0.1907
 1362SOL    HW1 4231   0.546  -0.006   0.206  0.3392  1.3238 -1.7572
 1362SOL    HW2 4232   0.482   0.079   0.314  0.1680 -1.2889  0.3123
 1363SOL     OW 4233   0.100   0.990   1.235  0.7083  0.1164 -0.3508
 1363SOL    HW1 4234   0.064   0.907   1.203 -0.0334  0.5897 -0.7522
 1363SOL    HW2 4235   0.092   1.049   1.161 -1.8538  1.5050  0.9164
 1364SOL     OW 4236   2.548   0.493   1.578 -0.1714  0.1906 -0.2488
 1364SOL    HW1 4237   2.513   0.577   1.607  0.3886  0.2687  0.2013
 1364SOL    HW2 4238   2.513   0.429   1.641  1.9139  0.4951  1.3162
 1365SOL     OW 4239   1.605   3.230   0.994 -0.0729  0.1222  0.2783
 1365SOL    HW1 4240   1.592   3.224   1.088 -1.6905  1.4498  0.1902
 1365SOL    HW2 4241   1.523   3.268   0.961  1.3449  1.9422 -1.3589
 1366SOL     OW 4242   3.108   2.824   0.880  0.0304  0.1776  0.2354
 1366SOL    HW1 4243   3.109   2.778   0.797 -1.0001  0.8917 -0.1997
 1366SOL    HW2 4244   3.200   2.835   0.904  0.3313 -0.0623 -0.7949
 1367SOL     OW 4245   2.124   2.971   3.527 -0.1243  0.4024 -0.0577
 1367SOL    HW1 4246   2.113   3.034   3.599 -1.6101  1.1304 -0.8568
 1367SOL    HW2 4247   2.064   3.003   3.459  1.0435 -0.4141 -1.5196
 1368SOL     OW 4248   1.912   0.577   0.041 -0.4405 -0.2358  0.3752
 1368SOL    HW1 4249   2.000   0.539   0.045 -1.1482 -1.8429  2.4098
 1368SOL    HW2 4250   1.896   0.611   0.129 -1.8838 -0.0293  0.0584
 1369SOL     OW 4251   0.105   3.678   2.271 -0.2736 -0.3575 -0.1413
 1369SOL    HW1 4252   0.134   3.599   2.227  0.6874  0.7376 -1.6002
 1369SOL    HW2 4253   0.164   3.746   2.238  0.1963  0.6517  2.4928
 1370SOL     OW 4254   0.108   0.735   3.056  0.0956 -0.1809 -0.5607
 1370SOL    HW1 4255   0.024   0.689   3.047  0.1668 -0.3749 -0.2277
 1370SOL    HW2 4256   0.086   0.816   3.102 -0.1586  0.4970 -1.8241
 1371SOL     OW 4257   1.545   0.586   1.396  0.0631  0.1321  0.1560
 1371SOL    HW1 4258   1.452   0.589   1.417 -0.0924  2.7917 -0.5097
 1371SOL    HW2 4259   1.588   0.613   1.477  0.1698  0.1089  0.1063
 1372SOL     OW 4260   0.236   3.090   1.094  0.4742 -0.0609 -0.1372
 1372SOL    HW1 4261   0.291   3.072   1.171  0.1849 -0.6697 -0.0686
 1372SOL    HW2 4262   0.167   3.147   1.128  2.2781  2.6744 -0.6815
 1373SOL     OW 4263   0.895   1.028   0.300  0.7575 -0.3239  0.2437
 1373SOL    HW1 4264   0.818   0.973   0.312  0.1244  0.4983  0.0161
 1373SOL    HW2 4265   0.869   1.092   0.234  2.1218 -0.9375 -0.9433
 1374SOL     OW 4266   2.506   1.903   1.566 -0.0552  0.1775  0.0404
 1374SOL    HW1 4267   2.508   1.873   1.656 -0.3659 -0.5266 -0.1833
 1374SOL    HW2 4268   2.428   1.862   1.528  0.4874 -0.1394 -0.7531
 1375SOL     OW 4269   3.380   0.191   1.964 -0.1382  0.2532 -0.1495
 1375SOL    HW1 4270   3.362   0.199   1.871 -1.9213  0.5489  0.1823
 1375SOL    HW2 4271   3.446   0.259   1.982 -1.0872  1.4137 -0.8901
 1376SOL     OW 4272   1.066   2.718   2.866 -0.8107  0.6300 -0.3625
 1376SOL    HW1 4273   1.062   2.623   2.851  2.0647  0.4468 -0.4816
 1376SOL    HW2 4274   1.048   2.728   2.959 -0.3177 -0.1313 -0.1764
 1377SOL     OW 4275   1.552   1.182   1.482 -0.1029 -0.1225 -0.0037
 1377SOL    HW1 4276   1.640   1.180   1.519  0.4148  1.0076 -1.1042
 1377SOL    HW2 4277   1.557   1.246   1.411 -1.2186 -1.7380 -1.6186
 1378SOL     OW 4278   1.824   1.660   0.123 -0.5208 -1.2423  0.1859
 1378SOL    HW1 4279   1.738   1.634   0.092 -0.1333 -0.7904 -1.3544
 1378SOL    HW2 4280   1.878   1.581   0.115 -0.0102 -0.7393 -1.9644
 1379SOL     OW 4281   0.450   2.719   0.857 -0.2327 -0.3781  0.1602
 1379SOL    HW1 4282   0.388   2.740   0.927  1.9730  1.1449  1.8319
 1379SOL    HW2 4283   0.482   2.804   0.827  0.4187 -1.0800 -1.2578
 1380SOL     OW 4284   1.323   0.427   1.921  0.9075 -0.0157 -0.0788
 1380SOL    HW1 4285   1.272   0.506   1.903 -0.5028 -0.5646  1.2760
 1380SOL    HW2 4286   1.329   0.423   2.016  1.9018 -0.9765 -0.1561
 1381SOL     OW 4287   1.797   1.275   1.651  0.3219 -0.1379 -0.7007
 1381SOL    HW1 4288   1.870   1.225   1.613  0.2575  0.1124 -1.1667
 1381SOL    HW2 4289   1.825   1.294   1.740  1.8460  1.8578 -1.5160
 1382SOL     OW 4290   2.521   2.698   2.974 -0.0172  0.3964 -0.2289
 1382SOL    HW1 4291   2.533   2.741   2.889  2.7788  2.0862  0.8963
 1382SOL    HW2 4292   2.473   2.761   3.027 -0.6187 -0.1263 -0.1365
 1383SOL     OW 4293   1.674   0.324   3.441 -0.2573  0.0269 -0.0621
 1383SOL    HW1 4294   1.673   0.355   3.531 -0.4759  2.3125 -0.7674
 1383SOL    HW2 4295   1.618   0.247   3.441  1.3653 -1.2593  2.1023
 1384SOL     OW 4296   1.771   2.981   2.477 -0.1864  0.0026 -0.4124
 1384SOL    HW1 4297   1.839   3.048   2.471  0.8228 -0.9969 -0.5757
 1384SOL    HW2 4298   1.710   3.002   2.406 -0.5925  1.4863  0.3524
 1385SOL     OW 4299   3.505   2.017   2.667 -0.0220 -0.7912 -0.3335
 1385SOL    HW1 4300   3.417   1.984   2.683 -0.5153  0.5397 -0.1645
 1385SOL    HW2 4301   3.511   2.096   2.721  0.6750  0.0569 -1.6008
 1386SOL     OW 4302   1.884   2.457   2.878  0.0506 -0.1316 -0.0678
 1386SOL    HW1 4303   1.964   2.456   2.931 -0.2478 -1.6604  0.3975
 1386SOL    HW2 4304   1.915   2.469   2.789  0.9145 -1.8113 -0.0241
 1387SOL     OW 4305   2.374   0.087   3.204  0.5458  0.5012 -0.2453
 1387SOL    HW1 4306   2.304   0.040   3.157 -0.4032  0.3897  1.2116
 1387SOL    HW2 4307   2.454   0.041   3.179  0.0665  0.3591 -1.6196
 1388SOL     OW 4308   1.567   2.008   3.032  0.3552  0.4879  0.5568
 1388SOL    HW1 4309   1.579   2.095   2.996 -0.7799  0.2422 -0.4780
 1388SOL    HW2 4310   1.644   1.959   3.004  1.3568  1.3174  1.7549
 1389SOL     OW 4311   3.477   2.981   2.207 -0.2583 -0.1275 -1.0021
 1389SOL    HW1 4312   3.515   2.983   2.295 -1.6258  3.0724 -0.3506
 1389SOL    HW2 4313   3.551   2.993   2.148  0.5844 -1.6086 -0.3155
 1390SOL     OW 4314   0.302   1.842   0.364 -0.1426 -0.8179  0.0470
 1390SOL    HW1 4315   0.313   1.921   0.310 -0.9772 -1.8943 -1.8160
 1390SOL    HW2 4316   0.301   1.771   0.300 -1.4102 -2.1501  1.4992
 1391SOL     OW 4317   1.566   0.133   0.298 -0.2131 -0.0372  0.4148
 1391SOL    HW1 4318   1.507   0.086   0.356 -0.5120 -0.4126 -0.1827
 1391SOL    HW2 4319   1.509   0.185   0.241  0.0990  0.8251  0.8644
 1392SOL     OW 4320   1.863   1.060   3.336 -0.0906 -0.0619  0.3242
 1392SOL    HW1 4321   1.838   1.147   3.304  0.9782  1.2128  2.7012
 1392SOL    HW2 4322   1.817   1.052   3.420  0.4637 -1.4578  0.5172
 1393SOL     OW 4323   0.882   0.075   1.769  0.2673  0.1985 -0.1865
 1393SOL    HW1 4324   0.870   0.007   1.703 -0.3365  1.4610 -1.4220
 1393SOL    HW2 4325   0.968   0.113   1.750 -0.3136  1.2099 -0.9062
 1394SOL     OW 4326   0.737   1.345   3.232 -0.8271 -0.0069  0.2626
 1394SOL    HW1 4327   0.827   1.319   3.252  0.3447  2.8314 -0.8107
 1394SOL    HW2 4328   0.687   1.264   3.235  2.2685 -2.2190 -1.8683
 1395SOL     OW 4329   1.430   2.109   0.054  0.1732 -0.3462 -1.1234
 1395SOL    HW1 4330   1.481   2.049  -0.001  0.9727 -2.7179  1.9163
 1395SOL    HW2 4331   1.360   2.055   0.090  0.2129  0.8416  0.8591
 1396SOL     OW 4332   1.262   1.756   2.317 -0.1426  0.2355  0.2948
 1396SOL    HW1 4333   1.347   1.789   2.287 -1.8191  4.2424 -0.7354
 1396SOL    HW2 4334   1.244   1.681   2.260  1.2726  1.3681 -1.7731
 1397SOL     OW 4335   2.400   0.790   2.163 -0.5140  0.1083  0.8221
 1397SOL    HW1 4336   2.491   0.767   2.182  0.0016  1.2717 -0.1038
 1397SOL    HW2 4337   2.349   0.735   2.222  0.8116 -0.0432  1.8810
 1398SOL     OW 4338   1.895   2.395   0.173 -0.1411 -0.7566 -0.0407
 1398SOL    HW1 4339   1.860   2.338   0.242 -3.2707 -0.3546 -1.1477
 1398SOL    HW2 4340   1.929   2.471   0.220 -0.4850 -1.3062  1.1374
 1399SOL     OW 4341   0.237   2.075   0.633  0.7662  0.4692  0.3857
 1399SOL    HW1 4342   0.172   2.036   0.692  0.2014 -0.3059 -0.7207
 1399SOL    HW2 4343   0.314   2.019   0.641  0.9694  0.8119  0.9423
 1400SOL     OW 4344   2.228   1.103   2.154  0.9899  0.4351 -0.4327
 1400SOL    HW1 4345   2.250   1.013   2.176 -0.0668  0.0150 -1.0161
 1400SOL    HW2 4346   2.234   1.150   2.237 -1.7436 -0.8754  0.6232
 1401SOL     OW 4347   0.465   1.919   0.562  0.1993  0.5479 -0.1052
 1401SOL    HW1 4348   0.512   1.987   0.514  1.3628 -1.1836 -1.5462
 1401SOL    HW2 4349   0.403   1.883   0.498 -0.8320  0.6477  0.8192
 1402SOL     OW 4350   2.577   3.486   0.580  0.3578 -0.6346 -0.1561
 1402SOL    HW1 4351   2.672   3.492   0.581  0.9631 -5.9520  0.4868
 1402SOL    HW2 4352   2.556   3.428   0.507 -2.1088 -1.6854  1.2412
 1403SOL     OW 4353   1.920   3.134   1.253 -0.0149  0.1492 -0.3925
 1403SOL    HW1 4354   1.950   3.091   1.333 -0.0591  0.0911 -0.4068
 1403SOL    HW2 4355   1.853   3.076   1.219 -0.9547  0.8279  0.2441
 1404SOL     OW 4356   0.239   1.861   1.399 -0.0735 -0.2272  0.4136
 1404SOL    HW1 4357   0.154   1.876   1.441 -0.3398 -0.0969 -0.1625
 1404SOL    HW2 4358   0.229   1.777   1.355 -0.0705  0.0137 -0.0554
 1405SOL     OW 4359   3.547   0.712   3.620  0.3716  0.2777  0.4079
 1405SOL    HW1 4360   3.571   0.802   3.596  0.2485  0.2641  0.2282
 1405SOL    HW2 4361   3.451   0.714   3.625  0.0785 -0.5514 -2.6143
 1406SOL     OW 4362   3.339   2.566   0.045 -0.7063  0.0758  0.1854
 1406SOL    HW1 4363   3.320   2.546  -0.047 -1.7569  0.7889  0.2246
 1406SOL    HW2 4364   3.421   2.521   0.063 -1.8597 -2.3970 -0.3041
 1407SOL     OW 4365   1.882   2.184   1.067 -0.0642 -0.3536 -0.1406
 1407SOL    HW1 4366   1.826   2.238   1.012 -2.1045  0.4714  2.5002
 1407SOL    HW2 4367   1.962   2.235   1.079 -1.7363  2.0402  1.8818
 1408SOL     OW 4368   3.443   2.458   1.578 -0.4275 -0.8840 -0.2444
 1408SOL    HW1 4369   3.477   2.482   1.664 -0.9965 -1.6555  0.2042
 1408SOL    HW2 4370   3.355   2.496   1.576  0.5121  1.4874 -1.5690
 1409SOL     OW 4371   2.335   0.087   1.126 -0.0639  0.0831 -0.1819
 1409SOL    HW1 4372   2.298  -0.001   1.123 -0.3990  0.2417 -0.7989
 1409SOL    HW2 4373   2.299   0.126   1.206  1.1655 -0.7995  0.8573
 1410SOL     OW 4374   2.186   0.900   1.707  0.2791  0.0061 -0.2543
 1410SOL    HW1 4375   2.257   0.896   1.772 -0.6152 -1.1847  0.6828
 1410SOL    HW2 4376   2.161   0.809   1.694  0.4652  0.2089 -2.3475
 1411SOL     OW 4377   1.224   2.448   3.135  0.2713  0.2392  0.6287
 1411SOL    HW1 4378   1.286   2.441   3.062  0.8157 -0.2700  1.1259
 1411SOL    HW2 4379   1.246   2.374   3.192 -1.5769 -0.6753  0.2402
 1412SOL     OW 4380   1.079   0.832   1.637 -0.3576 -0.0415  1.0504
 1412SOL    HW1 4381   1.135   0.908   1.652 -0.6449  0.8164 -1.6952
 1412SOL    HW2 4382   1.129   0.775   1.579 -1.6746  0.0544 -0.2584
 1413SOL     OW 4383   1.962   1.379   0.486 -0.1083  0.4543  0.7040
 1413SOL    HW1 4384   1.902   1.390   0.413  1.5035  1.0818 -0.5867
 1413SOL    HW2 4385   1.958   1.462   0.533  0.5681  0.9207 -0.0423
 1414SOL     OW 4386   1.232   0.814   0.724  0.2939  0.8961  0.5772
 1414SOL    HW1 4387   1.159   0.753   0.717  0.9946 -0.2840  2.5606
 1414SOL    HW2 4388   1.301   0.775   0.671  0.0994  1.0310  0.2217
 1415SOL     OW 4389   2.267   0.541   2.264  0.0041 -0.4821 -0.3308
 1415SOL    HW1 4390   2.261   0.521   2.357 -1.3599  2.0431  0.2278
 1415SOL    HW2 4391   2.189   0.594   2.245  1.6393  1.4947 -2.1913
 1416SOL     OW 4392   1.856   2.551   3.513  0.4102  0.4413  0.0241
 1416SOL    HW1 4393   1.822   2.466   3.539 -2.0523  0.9558 -1.1683
 1416SOL    HW2 4394   1.796   2.614   3.554  1.5490  1.5583  0.0222
 1417SOL     OW 4395   1.528   2.471   1.600 -0.5463 -0.5958 -1.1659
 1417SOL    HW1 4396   1.563   2.560   1.601  0.8386 -1.0984 -2.1807
 1417SOL    HW2 4397   1.604   2.415   1.583 -1.4513 -1.9515 -0.9289
 1418SOL     OW 4398   2.030   2.202   2.696 -0.3997  0.0791  0.3872
 1418SOL    HW1 4399   2.116   2.204   2.653 -1.3831  0.8764 -1.7122
 1418SOL    HW2 4400   2.036   2.267   2.766  0.9759 -0.5716  0.9079
 1419SOL     OW 4401   2.610   0.707   1.298  1.0827 -0.0596 -0.3912
 1419SOL    HW1 4402   2.646   0.754   1.223  1.4098  0.2329 -0.0499
 1419SOL    HW2 4403   2.621   0.614   1.276  2.6543  0.0115 -0.0121
 1420SOL     OW 4404   1.571   0.560   1.825  0.2415 -0.3804  0.5115
 1420SOL    HW1 4405   1.481   0.533   1.806 -0.3598  0.7651  1.5888
 1420SOL    HW2 4406   1.562   0.628   1.891  1.6675  2.1192 -1.6788
 1421SOL     OW 4407   2.216   3.339   1.614 -0.4542 -0.2100 -0.1751
 1421SOL    HW1 4408   2.284   3.311   1.676  1.1895  1.0606 -1.3152
 1421SOL    HW2 4409   2.188   3.258   1.571 -1.7559 -1.1574  2.2686
 1422SOL     OW 4410   0.938   3.462   0.167  0.1823  0.6113 -0.2891
 1422SOL    HW1 4411   1.008   3.431   0.225  0.0637  1.8976  0.5545
 1422SOL    HW2 4412   0.867   3.487   0.225  0.1333  2.1123 -0.9485
 1423SOL     OW 4413   1.528   0.082   3.403  0.5008 -0.7853  0.8836
 1423SOL    HW1 4414   1.436   0.100   3.422  0.2134 -0.5392 -0.5969
 1423SOL    HW2 4415   1.557   0.026   3.475 -0.8727 -1.0917  1.2333
 1424SOL     OW 4416   1.111   0.706   1.009 -0.3937 -0.2518 -0.1495
 1424SOL    HW1 4417   1.037   0.704   1.069  0.2499 -0.0119  0.6555
 1424SOL    HW2 4418   1.149   0.793   1.018  0.1336 -0.4472 -0.3828
 1425SOL     OW 4419   2.843   1.621   1.895  0.2396  0.2167 -0.4049
 1425SOL    HW1 4420   2.880   1.591   1.978  0.5995  0.4611 -0.4736
 1425SOL    HW2 4421   2.748   1.620   1.909  0.3160  0.9276  0.2472
 1426SOL     OW 4422   0.831   1.349   2.992 -0.1682  0.0666  0.0886
 1426SOL    HW1 4423   0.815   1.371   3.084 -0.0770 -1.5728  0.5326
 1426SOL    HW2 4424   0.909   1.293   2.994 -0.7633 -0.8354 -0.8698
 1427SOL     OW 4425   1.239   2.161   3.502 -0.4685 -0.0499 -0.3915
 1427SOL    HW1 4426   1.261   2.214   3.579  0.9857 -1.2570  0.0731
 1427SOL    HW2 4427   1.280   2.207   3.429  0.4130 -0.2650 -0.0529
 1428SOL     OW 4428   3.119   1.382   0.435  0.8499  0.0144 -0.2511
 1428SOL    HW1 4429   3.197   1.396   0.382  0.6616  1.0084 -0.2823
 1428SOL    HW2 4430   3.057   1.449   0.405  1.4419  2.0000  2.5707
 1429SOL     OW 4431   1.433   1.229   3.323  0.1017 -0.3602 -0.0859
 1429SOL    HW1 4432   1.464   1.154   3.374  2.3089  0.9563  0.6432
 1429SOL    HW2 4433   1.505   1.250   3.264  1.3165  3.4524  2.3599
 1430SOL     OW 4434   0.828   1.201   2.034  0.0574  0.0281  0.0392
 1430SOL    HW1 4435   0.824   1.150   1.952  0.1540 -2.0463  1.2632
 1430SOL    HW2 4436   0.921   1.201   2.057 -0.0489  0.0663  0.4622
 1431SOL     OW 4437   0.017   2.816   1.804 -0.1719  0.1033  0.6489
 1431SOL    HW1 4438   0.068   2.891   1.775 -2.5549  0.8558 -2.0618
 1431SOL    HW2 4439   0.047   2.744   1.749  0.0680 -0.2151  1.1925
 1432SOL     OW 4440   1.536   2.413   1.302 -0.1766 -0.6225  0.3671
 1432SOL    HW1 4441   1.532   2.450   1.390 -0.0530 -1.6502  0.8109
 1432SOL    HW2 4442   1.476   2.339   1.304 -0.8437 -0.1368 -0.6831
 1433SOL     OW 4443   1.128   0.983   0.145 -0.1471 -0.5767  0.5796
 1433SOL    HW1 4444   1.051   0.956   0.194  0.2714 -1.5962  0.6861
 1433SOL    HW2 4445   1.109   0.957   0.055 -0.7456  0.9366  0.2361
 1434SOL     OW 4446   0.603   2.496   3.230  0.6040 -0.2464  0.8419
 1434SOL    HW1 4447   0.518   2.490   3.273  0.1733 -1.3246 -0.1254
 1434SOL    HW2 4448   0.620   2.590   3.224 -1.8816  0.1626 -1.5635
 1435SOL     OW 4449   1.141   1.674   1.660 -0.2784  0.1638  0.0213
 1435SOL    HW1 4450   1.217   1.627   1.626  0.5607  1.7702 -0.4271
 1435SOL    HW2 4451   1.110   1.620   1.732  0.5250 -1.1479 -0.5732
 1436SOL     OW 4452   2.398   0.619   0.379  0.2100  0.0411 -0.2344
 1436SOL    HW1 4453   2.357   0.705   0.385 -0.1183 -0.0353 -1.1993
 1436SOL    HW2 4454   2.473   0.624   0.439 -0.1979  0.7639  0.2279
 1437SOL     OW 4455   2.519   0.058   0.934 -0.1634 -0.5259  0.5365
 1437SOL    HW1 4456   2.457   0.071   1.006 -0.5807  0.9872 -0.0457
 1437SOL    HW2 4457   2.472   0.003   0.871 -1.4224  1.4489 -0.3776
 1438SOL     OW 4458   0.279   1.656   1.133  0.2384 -0.5965  0.6862
 1438SOL    HW1 4459   0.348   1.643   1.198 -0.0772 -0.8699  0.9699
 1438SOL    HW2 4460   0.310   1.610   1.055  1.4037  1.1394  0.0667
 1439SOL     OW 4461   0.176   3.086   2.416  0.0160  0.3134  0.1755
 1439SOL    HW1 4462   0.208   3.056   2.331 -0.8202  0.9415 -0.3909
 1439SOL    HW2 4463   0.253   3.122   2.460  0.5106 -0.2654 -0.2093
 1440SOL     OW 4464   1.593   0.428   2.782 -0.6065  0.1253 -0.2238
 1440SOL    HW1 4465   1.651   0.486   2.832 -1.9765  0.7154  0.7458
 1440SOL    HW2 4466   1.576   0.355   2.841  1.9599 -1.9651 -1.8047
 1441SOL     OW 4467   2.703   3.246   0.948 -0.0719  0.2244  0.3653
 1441SOL    HW1 4468   2.725   3.200   1.028  1.2731 -1.9771 -1.1592
 1441SOL    HW2 4469   2.777   3.305   0.933  0.2972 -0.2995  0.1019
 1442SOL     OW 4470   1.944   0.666   3.257  0.0944  0.2573 -0.5515
 1442SOL    HW1 4471   1.956   0.613   3.178 -0.9547 -0.2138 -0.4186
 1442SOL    HW2 4472   1.960   0.604   3.329 -2.2944 -0.2620 -0.3750
 1443SOL     OW 4473   3.349   1.545   3.601 -0.2241 -0.0323  0.0384
 1443SOL    HW1 4474   3.335   1.639   3.609 -1.2551 -0.1801  0.1765
 1443SOL    HW2 4475   3.268   1.512   3.563  0.6583 -0.6953 -1.3382
 1444SOL     OW 4476   0.270   0.037   1.258  0.2715 -0.3888 -0.1965
 1444SOL    HW1 4477   0.337  -0.025   1.286 -1.2983 -1.7627  0.7525
 1444SOL    HW2 4478   0.275   0.035   1.162  1.7647 -0.2110 -0.1420
 1445SOL     OW 4479   2.281   0.169   2.560 -0.1036  0.6344 -0.3999
 1445SOL    HW1 4480   2.360   0.197   2.607  0.4125 -0.8596 -0.3352
 1445SOL    HW2 4481   2.218   0.239   2.576  0.5470  0.8866  1.2555
 1446SOL     OW 4482   3.350   1.768   0.671  0.1569  0.0879 -0.2115
 1446SOL    HW1 4483   3.440   1.800   0.662  0.4897 -0.7034  0.2065
 1446SOL    HW2 4484   3.296   1.842   0.643  0.9482  0.2896 -1.2766
 1447SOL     OW 4485   1.423   1.094   0.325 -0.3622  0.0974 -0.0517
 1447SOL    HW1 4486   1.484   1.153   0.369 -0.8512  0.6681 -0.1293
 1447SOL    HW2 4487   1.338   1.114   0.363 -0.5348 -0.5805 -0.0621
 1448SOL     OW 4488   0.281   2.264   1.794  0.3651  0.2656  0.1623
 1448SOL    HW1 4489   0.249   2.350   1.822  1.2464  1.1430 -1.3970
 1448SOL    HW2 4490   0.354   2.246   1.854 -0.4462  0.1349  1.1254
 1449SOL     OW 4491   1.421   0.866   1.465  0.5613  0.1546  0.0215
 1449SOL    HW1 4492   1.376   0.881   1.382 -0.7441  1.0019  0.8278
 1449SOL    HW2 4493   1.495   0.927   1.464  1.4994 -0.9559 -1.1518
 1450SOL     OW 4494   2.681   0.896   0.758  0.2463 -0.5813  0.7425
 1450SOL    HW1 4495   2.592   0.881   0.728  0.4398  0.0974 -0.1880
 1450SOL    HW2 4496   2.735   0.842   0.700  0.5234 -0.2001  0.6441
 1451SOL     OW 4497   1.465   3.348   3.129  0.3934 -0.1769  0.5970
 1451SOL    HW1 4498   1.524   3.373   3.200 -0.2165  0.1498  0.9897
 1451SOL    HW2 4499   1.469   3.422   3.068 -0.1361  0.1548  0.9582
 1452SOL     OW 4500   1.282   3.296   1.012 -0.0953  0.4785  0.1975
 1452SOL    HW1 4501   1.250   3.297   0.922 -1.2379 -0.4758  0.5737
 1452SOL    HW2 4502   1.290   3.388   1.036 -2.2040  0.7641 -0.0580
 1453SOL     OW 4503   3.419   0.408   3.549 -0.0265 -0.4846  0.3672
 1453SOL    HW1 4504   3.441   0.316   3.534  1.5834  0.0501 -0.8857
 1453SOL    HW2 4505   3.324   0.412   3.540 -0.0859 -1.9724  0.0720
 1454SOL     OW 4506   3.513   1.373   3.765 -0.1923 -0.2680  0.0030
 1454SOL    HW1 4507   3.572   1.343   3.696  0.8664 -2.3708  1.7050
 1454SOL    HW2 4508   3.435   1.404   3.718  1.4468  0.7375 -2.2090
 1455SOL     OW 4509   2.485   3.276   2.289 -0.0530 -0.0613  0.7463
 1455SOL    HW1 4510   2.492   3.259   2.383  2.0746 -0.8943  0.4885
 1455SOL    HW2 4511   2.492   3.190   2.248 -0.8841  0.2994 -0.1871
 1456SOL     OW 4512   1.650   3.573   0.963  0.1124 -0.4194  0.5375
 1456SOL    HW1 4513   1.724   3.609   1.013 -0.4832  0.7787  0.6086
 1456SOL    HW2 4514   1.636   3.636   0.893 -1.5332 -0.0232  1.1814
 1457SOL     OW 4515   2.310   0.584   2.905 -0.3775  0.3672  0.5016
 1457SOL    HW1 4516   2.358   0.655   2.948  0.6746  0.5485 -0.9007
 1457SOL    HW2 4517   2.318   0.510   2.965 -2.7997  1.7631  2.7453
 1458SOL     OW 4518   1.576   2.266   2.686  0.0204  0.1542 -0.0951
 1458SOL    HW1 4519   1.650   2.257   2.626 -0.4908  2.5369 -1.2164
 1458SOL    HW2 4520   1.612   2.246   2.772  1.8731  0.7894 -0.6738
 1459SOL     OW 4521   1.980   3.589   2.746 -0.1580  0.3177 -0.0290
 1459SOL    HW1 4522   1.973   3.587   2.650  2.2514  0.9067 -0.2645
 1459SOL    HW2 4523   2.020   3.674   2.765 -0.0867 -0.0338  1.4725
 1460SOL     OW 4524   1.603   1.547   3.733  0.4634  0.2782  0.0448
 1460SOL    HW1 4525   1.540   1.541   3.805 -0.0418 -0.8656 -0.4633
 1460SOL    HW2 4526   1.551   1.529   3.654  1.5400 -1.3765 -0.3255
 1461SOL     OW 4527   0.654   0.938   0.973 -0.5277  0.1309 -0.4873
 1461SOL    HW1 4528   0.703   0.909   0.896  1.0274  1.5846 -0.0836
 1461SOL    HW2 4529   0.585   0.995   0.937 -1.8201 -1.6595 -1.0218
 1462SOL     OW 4530   3.666   2.935   2.408  0.1240 -0.5303  0.6134
 1462SOL    HW1 4531   3.675   2.866   2.475  0.3122 -1.0199  0.0908
 1462SOL    HW2 4532   3.734   2.915   2.344  0.1835  0.1572  0.4583
 1463SOL     OW 4533   3.674   0.949   3.177 -0.0093  0.0173  0.0086
 1463SOL    HW1 4534   3.588   0.974   3.211  0.6565  3.3391 -0.4126
 1463SOL    HW2 4535   3.736   1.008   3.219  1.9163 -1.2435 -0.8563
 1464SOL     OW 4536   2.144   2.283   1.882  0.2843 -0.0155  0.4677
 1464SOL    HW1 4537   2.214   2.322   1.829 -0.7927 -0.7941 -1.6312
 1464SOL    HW2 4538   2.078   2.352   1.889  0.2919 -0.0158  0.5506
 1465SOL     OW 4539   3.616   1.603   1.678  0.1638 -0.1000 -0.4294
 1465SOL    HW1 4540   3.704   1.597   1.642 -0.2071  0.8693 -1.5369
 1465SOL    HW2 4541   3.629   1.623   1.771  1.2261  4.4201 -1.2885
 1466SOL     OW 4542   3.658   0.526   3.006 -0.0363  0.0755 -0.2589
 1466SOL    HW1 4543   3.645   0.607   2.958  0.2396  0.2801  0.0022
 1466SOL    HW2 4544   3.570   0.493   3.024 -0.1518  0.4123 -0.2124
 1467SOL     OW 4545   3.447   2.102   1.938 -0.3796  0.2732 -0.2749
 1467SOL    HW1 4546   3.523   2.159   1.950  0.3990 -0.8131  0.0267
 1467SOL    HW2 4547   3.399   2.108   2.021 -1.6344  2.3501 -1.0666
 1468SOL     OW 4548   2.113   0.359   2.615 -0.0676 -0.1417 -0.2276
 1468SOL    HW1 4549   2.102   0.449   2.582  0.1846  0.2230  0.6541
 1468SOL    HW2 4550   2.134   0.370   2.707 -1.3315 -1.1569  0.2208
 1469SOL     OW 4551   3.392   1.506   0.497  0.2853  0.2075 -0.2610
 1469SOL    HW1 4552   3.384   1.541   0.408 -1.2124 -1.4247 -0.8420
 1469SOL    HW2 4553   3.390   1.583   0.554 -0.7907  1.1874 -1.5593
 1470SOL     OW 4554   1.159   1.053   0.515  0.6478 -0.3526 -0.2265
 1470SOL    HW1 4555   1.070   1.029   0.489  0.7067  0.2371 -0.9970
 1470SOL    HW2 4556   1.156   1.056   0.610 -0.8775  2.2447 -0.2464
 1471SOL     OW 4557   3.202   0.563   3.290 -0.1128 -0.0080 -0.0788
 1471SOL    HW1 4558   3.220   0.657   3.298 -0.4404  0.0149  0.4819
 1471SOL    HW2 4559   3.118   0.559   3.244  0.4308 -0.0648 -1.0953
 1472SOL     OW 4560   0.194   1.942   3.097  0.5626  0.1046 -0.4548
 1472SOL    HW1 4561   0.183   1.963   3.004 -2.6874 -0.8768 -0.4357
 1472SOL    HW2 4562   0.191   2.027   3.141 -2.3239  0.4020 -1.0350
 1473SOL     OW 4563   2.548   1.756   0.955 -0.1586 -0.4518 -0.5443
 1473SOL    HW1 4564   2.562   1.816   1.029  2.0261  1.4976 -2.3462
 1473SOL    HW2 4565   2.620   1.693   0.962  0.4901  0.1694 -1.3123
 1474SOL     OW 4566   2.062   2.801   0.327 -0.1056  0.8251  0.3609
 1474SOL    HW1 4567   2.081   2.837   0.413  0.6118  0.6753  0.2736
 1474SOL    HW2 4568   2.130   2.735   0.313 -0.5666  0.4307 -0.0719
 1475SOL     OW 4569   2.467   1.745   3.444  0.3631 -0.2630 -0.1297
 1475SOL    HW1 4570   2.550   1.789   3.423  0.1849  0.4168  0.5288
 1475SOL    HW2 4571   2.415   1.812   3.489  1.0784 -1.8164  3.3620
 1476SOL     OW 4572   2.986   3.039   1.385 -0.0414 -0.2839  0.1907
 1476SOL    HW1 4573   2.971   3.041   1.291  1.8833  0.4691 -0.1461
 1476SOL    HW2 4574   3.010   3.129   1.407 -0.7930 -0.3734  1.4676
 1477SOL     OW 4575   0.013   1.824   1.511  0.0969 -0.3646 -0.6493
 1477SOL    HW1 4576  -0.006   1.914   1.538  1.6039 -0.3585  0.5722
 1477SOL    HW2 4577   0.003   1.773   1.592  2.9013 -0.6594 -0.3886
 1478SOL     OW 4578   2.778   3.325   1.266 -0.0387  0.1300 -0.0905
 1478SOL    HW1 4579   2.715   3.331   1.338  2.6774 -0.1686  2.5265
 1478SOL    HW2 4580   2.772   3.234   1.237 -1.0591  0.2075 -0.1635
 1479SOL     OW 4581   1.773   0.075   0.523 -0.0667 -0.0856 -0.0733
 1479SOL    HW1 4582   1.688   0.069   0.480  0.9931 -1.7535 -2.1755
 1479SOL    HW2 4583   1.829   0.119   0.458  1.3941 -1.9258 -0.1409
 1480SOL     OW 4584   1.208   1.825   2.917 -0.0589 -0.9938 -0.2992
 1480SOL    HW1 4585   1.172   1.909   2.946 -1.1644 -1.1782 -1.0658
 1480SOL    HW2 4586   1.266   1.847   2.844  1.4641 -0.6892  0.9690
 1481SOL     OW 4587   1.823   2.758   3.078  0.1915 -0.2572  0.3802
 1481SOL    HW1 4588   1.763   2.706   3.131 -1.3197  1.6098  0.6582
 1481SOL    HW2 4589   1.893   2.698   3.053 -2.2907 -2.9166 -0.8409
 1482SOL     OW 4590   0.710   0.456   3.441 -0.3058  0.2379 -0.6273
 1482SOL    HW1 4591   0.730   0.521   3.509 -0.5094 -0.0850 -0.2559
 1482SOL    HW2 4592   0.657   0.504   3.378  0.6766  0.7991 -1.0482
 1483SOL     OW 4593   2.421   1.589   1.632  0.3153 -0.2210 -0.0520
 1483SOL    HW1 4594   2.363   1.648   1.583 -0.9094 -0.9749  0.4331
 1483SOL    HW2 4595   2.445   1.521   1.569  0.9695  0.2822 -0.3524
 1484SOL     OW 4596   3.672   3.625   2.032 -0.0555 -0.3340 -1.1434
 1484SOL    HW1 4597   3.767   3.621   2.025  0.1740  0.3082  0.9308
 1484SOL    HW2 4598   3.654   3.612   2.125 -1.8175  2.0317 -1.0555
 1485SOL     OW 4599   1.509   2.511   3.370  0.1936  0.1802 -0.8969
 1485SOL    HW1 4600   1.496   2.606   3.363  2.5239  0.5249 -1.6109
 1485SOL    HW2 4601   1.441   2.482   3.431  1.3912  2.8428  2.0321
 1486SOL     OW 4602   2.384   1.925   0.779  0.4350  0.1215 -0.2118
 1486SOL    HW1 4603   2.315   1.871   0.741 -0.7858  0.2494  1.6913
 1486SOL    HW2 4604   2.438   1.864   0.828 -0.0502  0.4010  0.6870
 1487SOL     OW 4605   3.126   2.188   0.159  0.2445 -0.1319 -0.7067
 1487SOL    HW1 4606   3.070   2.115   0.185 -0.5182  0.1927 -1.3874
 1487SOL    HW2 4607   3.103   2.258   0.219  0.3221 -0.1659 -0.6363
 1488SOL     OW 4608   2.071   0.332   3.238  0.3862 -0.2976 -0.1461
 1488SOL    HW1 4609   2.048   0.375   3.321  0.4031 -1.5590  0.5329
 1488SOL    HW2 4610   2.011   0.258   3.231  0.3086 -0.1444 -1.3310
 1489SOL     OW 4611   1.522   2.820   3.187  0.5529 -0.4429 -0.4936
 1489SOL    HW1 4612   1.428   2.810   3.203  0.4093  1.2959 -0.0768
 1489SOL    HW2 4613   1.532   2.803   3.093 -0.7876  2.7989 -1.3305
 1490SOL     OW 4614   3.188   0.039   3.541 -0.0550 -0.4077  0.3502
 1490SOL    HW1 4615   3.277   0.033   3.577 -0.5260  0.4204  1.7509
 1490SOL    HW2 4616   3.162   0.130   3.559 -0.7755 -0.3169 -1.0620
 1491SOL     OW 4617   3.005   2.793   3.041 -0.1364  0.3030  0.6453
 1491SOL    HW1 4618   2.967   2.711   3.011  1.7490 -0.2756 -0.3414
 1491SOL    HW2 4619   2.931   2.853   3.049 -1.4459 -1.2481  0.5923
 1492SOL     OW 4620   0.021   0.649   2.563 -0.4222 -0.1224 -0.5589
 1492SOL    HW1 4621   0.075   0.728   2.557  0.2106 -0.3333  1.5202
 1492SOL    HW2 4622   0.064   0.595   2.629 -2.8420 -0.5731  0.7822
 1493SOL     OW 4623   0.325   2.319   0.575 -0.2822  0.0859 -0.5157
 1493SOL    HW1 4624   0.331   2.364   0.659  1.6102 -1.4469  0.2413
 1493SOL    HW2 4625   0.293   2.232   0.597  0.7252 -0.4974 -1.2882
 1494SOL     OW 4626   2.574   3.621   2.995 -0.4264  0.4113  0.1558
 1494SOL    HW1 4627   2.608   3.651   3.079 -2.6127  1.3184  0.7750
 1494SOL    HW2 4628   2.625   3.669   2.930 -0.2753  1.4550  1.0226
 1495SOL     OW 4629   3.145   1.418   2.052 -0.2313  0.1111 -0.0386
 1495SOL    HW1 4630   3.202   1.474   1.999  0.0734  0.6584  0.8392
 1495SOL    HW2 4631   3.072   1.395   1.993  0.6073 -0.1561 -1.0049
 1496SOL     OW 4632   2.922   1.738   3.495 -0.0687  0.6057 -0.0230
 1496SOL    HW1 4633   2.885   1.798   3.559 -1.2826  1.2294 -1.2699
 1496SOL    HW2 4634   3.010   1.772   3.478 -0.3225  1.3580  0.1459
 1497SOL     OW 4635   1.092   0.635   2.886  0.0859  0.2542  0.2177
 1497SOL    HW1 4636   1.035   0.661   2.813  0.2983 -0.0895 -0.0732
 1497SOL    HW2 4637   1.035   0.636   2.963 -0.8055 -1.8755 -0.3331
 1498SOL     OW 4638   2.663   1.685   0.300  0.1667  0.2782 -0.6065
 1498SOL    HW1 4639   2.660   1.750   0.230 -1.5144 -0.0735 -0.8912
 1498SOL    HW2 4640   2.610   1.723   0.370 -0.4713 -0.5784 -0.6093
 1499SOL     OW 4641   1.901   0.045   1.617  0.1139 -0.1782 -0.2604
 1499SOL    HW1 4642   1.990   0.065   1.648 -0.5676  0.0455  1.6714
 1499SOL    HW2 4643   1.898  -0.051   1.618  0.8042 -0.2526 -1.8611
 1500SOL     OW 4644   0.669   2.042   3.631 -0.1562 -0.2006 -0.7584
 1500SOL    HW1 4645   0.599   2.004   3.577  0.1924 -1.0069 -0.6628
 1500SOL    HW2 4646   0.745   2.047   3.573 -0.0925 -0.0028 -0.6606
 1501SOL     OW 4647   2.146   1.228   2.391 -0.0223  0.3307 -0.2721
 1501SOL    HW1 4648   2.069   1.184   2.356 -0.4965  0.9094  0.0365
 1501SOL    HW2 4649   2.112   1.291   2.455  0.6830  0.7870 -0.3279
 1502SOL     OW 4650   1.031   1.622   2.091 -0.9961 -0.0948 -0.4955
 1502SOL    HW1 4651   0.988   1.684   2.032 -1.8154  0.9620  1.1490
 1502SOL    HW2 4652   0.959   1.575   2.133 -0.3978 -1.7693 -1.2482
 1503SOL     OW 4653   2.386   2.957   2.814  0.4430 -0.0424 -0.9704
 1503SOL    HW1 4654   2.296   2.930   2.795 -0.2561  1.9367 -0.6470
 1503SOL    HW2 4655   2.396   2.942   2.908 -0.6325  2.5148 -0.3694
 1504SOL     OW 4656   0.813   0.998   3.152 -0.4696 -0.1031 -0.1156
 1504SOL    HW1 4657   0.751   1.056   3.196  0.4832 -0.3570  1.6255
 1504SOL    HW2 4658   0.818   0.921   3.208 -1.2626 -1.6749 -2.0849
 1505SOL     OW 4659   1.761   1.848   2.499  0.4622  0.3385  0.3302
 1505SOL    HW1 4660   1.756   1.918   2.564  1.4040  0.1060  0.6675
 1505SOL    HW2 4661   1.700   1.782   2.531  0.4914  0.4734  0.6708
 1506SOL     OW 4662   1.821   2.672   0.513  0.5298  0.5861 -0.6982
 1506SOL    HW1 4663   1.786   2.750   0.555  3.3376  2.1846 -1.1269
 1506SOL    HW2 4664   1.792   2.600   0.569  0.8315  2.2623  1.7684
 1507SOL     OW 4665   2.294   1.373   1.852  0.1473 -0.1426 -0.2898
 1507SOL    HW1 4666   2.379   1.332   1.838  0.0883 -0.2560 -0.3139
 1507SOL    HW2 4667   2.302   1.418   1.936  0.2173 -0.1871 -0.2729
 1508SOL     OW 4668   1.178   0.678   1.898 -0.1985  0.2478  0.4083
 1508SOL    HW1 4669   1.248   0.727   1.857  0.7899  0.1386  1.8720
 1508SOL    HW2 4670   1.099   0.729   1.882  0.7117  2.0606  1.4271
 1509SOL     OW 4671   2.752   1.962   1.457  0.7340 -0.2971  0.3337
 1509SOL    HW1 4672   2.765   1.908   1.379 -0.4926  0.3406 -0.3548
 1509SOL    HW2 4673   2.663   1.940   1.486  1.3428 -0.8560  1.8372
 1510SOL     OW 4674   3.685   2.926   0.657 -0.1254  0.4707  0.2406
 1510SOL    HW1 4675   3.708   2.910   0.749  1.7902  0.6692 -0.1643
 1510SOL    HW2 4676   3.706   3.019   0.644  1.4219  0.0060 -0.8510
 1511SOL     OW 4677   1.298   3.661   2.663  0.8605  0.5450 -0.0520
 1511SOL    HW1 4678   1.325   3.737   2.715  1.1845  0.4056 -0.0146
 1511SOL    HW2 4679   1.367   3.651   2.597  0.8313  0.2707 -0.0427
 1512SOL     OW 4680   0.288   0.995   2.346 -0.2868 -0.0685  0.1362
 1512SOL    HW1 4681   0.315   1.065   2.405 -0.9768 -0.1130  0.5131
 1512SOL    HW2 4682   0.370   0.964   2.307  0.4006 -1.2240  2.3628
 1513SOL     OW 4683   2.445   3.099   1.191  0.5754 -0.1429  0.0494
 1513SOL    HW1 4684   2.473   3.170   1.249  0.5830 -0.5565  0.5622
 1513SOL    HW2 4685   2.373   3.135   1.141  1.9862  0.9612 -1.2979
 1514SOL     OW 4686   0.101   3.248   2.977 -0.4667 -0.1799 -0.1880
 1514SOL    HW1 4687   0.013   3.226   2.946 -0.3128 -1.5726  0.3166
 1514SOL    HW2 4688   0.093   3.253   3.072  0.0139 -0.3819 -0.1327
 1515SOL     OW 4689   1.323   1.466   2.886  0.3612  0.8171  0.0764
 1515SOL    HW1 4690   1.332   1.452   2.981  1.4596  0.0821 -0.1101
 1515SOL    HW2 4691   1.240   1.513   2.876 -0.1172  0.2943  1.3437
 1516SOL     OW 4692   1.403   0.081   1.805 -0.3111 -0.3666  0.4430
 1516SOL    HW1 4693   1.480   0.037   1.841 -0.7857 -0.6227  1.1764
 1516SOL    HW2 4694   1.366   0.129   1.879  0.7031  2.0721 -0.5286
 1517SOL     OW 4695   1.635   1.603   2.293 -0.1288  0.6731  0.2926
 1517SOL    HW1 4696   1.708   1.623   2.234 -0.2596 -0.6136 -0.3546
 1517SOL    HW2 4697   1.608   1.515   2.268  1.2907 -0.9608  3.7399
 1518SOL     OW 4698   2.387   0.894   1.915 -0.1300 -0.4180  0.3960
 1518SOL    HW1 4699   2.455   0.954   1.945 -1.4486  0.3846  1.9315
 1518SOL    HW2 4700   2.356   0.850   1.994 -0.6271 -1.6164 -0.4292
 1519SOL     OW 4701   0.597   0.606   2.003 -0.9253  0.8042  0.0851
 1519SOL    HW1 4702   0.528   0.650   1.954 -2.2762  0.6388  1.7718
 1519SOL    HW2 4703   0.553   0.532   2.046  0.2599  0.7782  1.3220
 1520SOL     OW 4704   3.270   3.563   1.239 -0.2054  0.3935 -0.3729
 1520SOL    HW1 4705   3.268   3.650   1.279  0.2770  0.6008 -0.7878
 1520SOL    HW2 4706   3.177   3.537   1.232 -0.2891  0.2483  1.0765
 1521SOL     OW 4707   2.648   1.172   0.531 -0.5420  0.4729  0.6769
 1521SOL    HW1 4708   2.605   1.248   0.569 -2.8086 -1.4915  2.3325
 1521SOL    HW2 4709   2.730   1.164   0.581  1.1018  3.2024 -1.2956
 1522SOL     OW 4710   0.430   0.834   0.099  1.5009 -0.8577 -0.5577
 1522SOL    HW1 4711   0.348   0.846   0.147  1.3988 -2.4328 -0.2795
 1522SOL    HW2 4712   0.477   0.916   0.111  1.6450 -1.2952  2.5980
 1523SOL     OW 4713   2.197   2.015   1.723  0.1905 -0.1779 -0.3827
 1523SOL    HW1 4714   2.151   2.076   1.780  0.1766  0.2085 -0.8102
 1523SOL    HW2 4715   2.127   1.967   1.678  0.1786 -1.2379  0.7011
 1524SOL     OW 4716   2.250   1.791   1.217 -0.3296 -0.3837 -0.3642
 1524SOL    HW1 4717   2.176   1.851   1.210 -1.1537 -1.3940 -0.4881
 1524SOL    HW2 4718   2.288   1.789   1.129  0.0852  0.4239 -0.2083
 1525SOL     OW 4719   2.421   1.227   0.152  0.3019 -0.9450  0.2648
 1525SOL    HW1 4720   2.356   1.285   0.193 -1.2303 -0.4490 -2.5774
 1525SOL    HW2 4721   2.371   1.178   0.087  2.0646 -3.6400  0.7970
 1526SOL     OW 4722   2.274   2.922   1.300  0.1723 -0.2091  0.1740
 1526SOL    HW1 4723   2.221   2.989   1.345  1.1131  1.9508 -1.7054
 1526SOL    HW2 4724   2.359   2.964   1.289  0.6464 -1.5401 -1.5199
 1527SOL     OW 4725   0.169   2.553   0.103  0.3928  0.2814  0.1514
 1527SOL    HW1 4726   0.181   2.472   0.151 -1.8151 -0.4067 -0.3606
 1527SOL    HW2 4727   0.192   2.531   0.013  0.2719  0.3647  0.1002
 1528SOL     OW 4728   0.564   3.450   1.732  0.2623 -0.6032  0.3042
 1528SOL    HW1 4729   0.608   3.425   1.813  1.2474  0.7245  0.2066
 1528SOL    HW2 4730   0.635   3.469   1.670 -0.1652  4.3144  0.9546
 1529SOL     OW 4731   1.290   0.742   2.523 -0.2119 -0.7170 -0.7805
 1529SOL    HW1 4732   1.280   0.823   2.573 -0.9082  0.0380 -2.0975
 1529SOL    HW2 4733   1.293   0.673   2.590 -2.1207  0.1475  0.2811
 1530SOL     OW 4734   2.452   1.008   0.428  0.1778 -0.3589  0.6345
 1530SOL    HW1 4735   2.527   1.050   0.472  1.9126 -1.1642 -1.3510
 1530SOL    HW2 4736   2.432   1.067   0.355  0.8684 -1.5583 -0.5784
 1531SOL     OW 4737   0.906   0.484   2.485 -0.7344  0.3160 -0.2190
 1531SOL    HW1 4738   0.967   0.420   2.521  0.9692  2.6093  1.2800
 1531SOL    HW2 4739   0.831   0.483   2.544 -0.9167 -0.5499 -0.4535
 1532SOL     OW 4740   1.515   1.658   3.246 -0.1931  0.0710 -0.6211
 1532SOL    HW1 4741   1.549   1.644   3.158 -0.3114 -2.4032 -0.3494
 1532SOL    HW2 4742   1.494   1.751   3.249 -0.9903  0.0837 -3.4887
 1533SOL     OW 4743   0.415   3.561   1.235  0.1972  0.1215  0.3410
 1533SOL    HW1 4744   0.497   3.586   1.278 -0.4462  0.5813  1.3153
 1533SOL    HW2 4745   0.398   3.472   1.264 -0.1526  0.3745  0.9264
 1534SOL     OW 4746   1.363   3.006   2.621 -0.2328 -0.3948 -0.2792
 1534SOL    HW1 4747   1.327   2.963   2.699 -1.3264 -0.4578 -0.8053
 1534SOL    HW2 4748   1.295   2.997   2.555  1.0479 -1.2007 -1.5494
 1535SOL     OW 4749   3.613   1.009   2.345  0.0538 -0.5217 -0.4938
 1535SOL    HW1 4750   3.543   0.966   2.394  0.8018 -0.6126  0.5282
 1535SOL    HW2 4751   3.588   1.102   2.343  0.7699 -0.2446  1.4647
 1536SOL     OW 4752   1.947   2.729   1.263  0.1332  0.1773 -0.4743
 1536SOL    HW1 4753   1.898   2.647   1.252  0.8660 -0.4010  0.4472
 1536SOL    HW2 4754   1.972   2.754   1.174 -0.9649 -0.0515 -0.8649
 1537SOL     OW 4755   1.354   2.428   2.674 -0.2651 -0.3444 -0.2717
 1537SOL    HW1 4756   1.387   2.354   2.623 -1.2242  0.5923 -2.3530
 1537SOL    HW2 4757   1.346   2.500   2.611  0.7783  1.6343  1.6797
 1538SOL     OW 4758   0.658   2.775   1.051 -0.0602 -0.0308 -0.6694
 1538SOL    HW1 4759   0.572   2.775   1.093 -0.2636  0.4139 -1.0864
 1538SOL    HW2 4760   0.644   2.816   0.966  0.7834  1.0578 -0.3026
 1539SOL     OW 4761   0.345   1.201   2.519  0.4626 -0.2728  0.3670
 1539SOL    HW1 4762   0.335   1.286   2.560  0.8522  0.2258 -0.5365
 1539SOL    HW2 4763   0.413   1.157   2.570  3.0587  1.4371 -1.3530
 1540SOL     OW 4764   2.565   1.288   2.306  0.2573 -0.3477 -0.7222
 1540SOL    HW1 4765   2.600   1.201   2.323 -0.3565 -0.4862 -0.1261
 1540SOL    HW2 4766   2.625   1.326   2.241  2.3303 -0.0645  1.2258
 1541SOL     OW 4767   2.596   2.563   3.209  0.7106  0.0800 -0.2413
 1541SOL    HW1 4768   2.648   2.633   3.248 -0.1739  1.0285 -0.7224
 1541SOL    HW2 4769   2.578   2.594   3.120 -1.0188 -0.0365  0.0518
 1542SOL     OW 4770   1.579   3.120   2.010  0.2298 -0.1875  1.1027
 1542SOL    HW1 4771   1.491   3.108   1.976 -0.9046  1.0312  3.3754
 1542SOL    HW2 4772   1.567   3.150   2.100  2.9945 -1.0795  1.8959
 1543SOL     OW 4773   3.243   3.617   1.773 -0.0466  0.2330  0.3588
 1543SOL    HW1 4774   3.198   3.533   1.782  2.2549 -0.9340  1.5730
 1543SOL    HW2 4775   3.299   3.624   1.850  1.8010  1.6216 -1.0012
 1544SOL     OW 4776   2.973   1.728   1.456 -0.2963 -0.5144 -0.0736
 1544SOL    HW1 4777   2.906   1.679   1.408  1.6465 -0.9203 -2.6158
 1544SOL    HW2 4778   2.965   1.817   1.423 -0.2118 -0.3712  0.2972
 1545SOL     OW 4779   1.695   1.152   2.072 -1.2480 -0.6106  0.3745
 1545SOL    HW1 4780   1.714   1.231   2.021 -3.1208  0.0339  0.6180
 1545SOL    HW2 4781   1.761   1.088   2.042  0.2319  0.9714  0.0901
 1546SOL     OW 4782   3.014   0.092   2.778 -0.2172  0.7336  0.4866
 1546SOL    HW1 4783   3.042   0.006   2.809 -1.4667  0.2014  0.2109
 1546SOL    HW2 4784   2.959   0.126   2.849 -0.4432  0.9212  0.2227
 1547SOL     OW 4785   3.465   2.393   2.442  0.3019  0.6272  0.1744
 1547SOL    HW1 4786   3.535   2.413   2.504  0.7355 -1.6388  0.4793
 1547SOL    HW2 4787   3.502   2.418   2.357  0.9770  0.6956  0.4744
 1548SOL     OW 4788   2.263   2.812   1.056  0.5246 -0.3489  0.6904
 1548SOL    HW1 4789   2.285   2.887   1.000 -0.4468 -0.8270 -0.3630
 1548SOL    HW2 4790   2.283   2.843   1.145  0.9894  0.8429  0.1994
 1549SOL     OW 4791   3.580   0.734   2.870 -0.7540  0.5234  0.1276
 1549SOL    HW1 4792   3.540   0.705   2.788 -0.2062 -0.6684  0.2557
 1549SOL    HW2 4793   3.590   0.828   2.860 -0.9073  0.4305 -1.0760
 1550SOL     OW 4794   1.767   3.549   1.234 -0.4012  0.1410  0.4064
 1550SOL    HW1 4795   1.755   3.480   1.298  2.0848  0.6840  1.5722
 1550SOL    HW2 4796   1.799   3.624   1.284  1.6372  0.5897 -1.3722
 1551SOL     OW 4797   2.665   2.072   2.571  0.3364 -0.2224 -0.6162
 1551SOL    HW1 4798   2.674   2.143   2.634  1.0069 -0.8639  0.0313
 1551SOL    HW2 4799   2.594   2.017   2.606 -0.4706  0.3299 -1.3326
 1552SOL     OW 4800   3.321   3.058   0.312  0.6789  0.5489  0.6595
 1552SOL    HW1 4801   3.282   3.003   0.245  1.4607 -1.5795  1.8483
 1552SOL    HW2 4802   3.282   3.027   0.394  1.1337  1.7981  1.3839
 1553SOL     OW 4803   2.940   3.386   2.246  0.4082  1.0010  0.3728
 1553SOL    HW1 4804   2.872   3.444   2.281 -0.1232  0.5647  0.0784
 1553SOL    HW2 4805   2.997   3.444   2.195 -0.8438  1.0957 -0.9927
 1554SOL     OW 4806   2.509   2.849   3.465 -0.0642  0.0471  0.1192
 1554SOL    HW1 4807   2.494   2.878   3.555 -0.2415 -0.5039  0.2724
 1554SOL    HW2 4808   2.581   2.903   3.434 -0.1965  0.4430  0.4948
 1555SOL     OW 4809   2.543   0.847   0.990  0.4362 -0.0166  0.3779
 1555SOL    HW1 4810   2.530   0.911   1.060 -0.4688 -0.9408  1.0763
 1555SOL    HW2 4811   2.623   0.875   0.947  0.1718  1.4784  0.7917
 1556SOL     OW 4812   1.245   3.323   0.728 -0.0046 -0.1214 -0.5018
 1556SOL    HW1 4813   1.277   3.299   0.640  0.0849  0.3320 -0.5959
 1556SOL    HW2 4814   1.155   3.353   0.714 -0.9767 -2.6291 -0.0610
 1557SOL     OW 4815   0.496   2.302   2.393 -0.0822 -0.1131 -0.2236
 1557SOL    HW1 4816   0.421   2.295   2.333 -0.7932  0.5112  0.5736
 1557SOL    HW2 4817   0.546   2.376   2.361 -3.2957  3.8666  2.8795
 1558SOL     OW 4818   2.937   0.662   3.397 -0.0603  1.0542 -0.1959
 1558SOL    HW1 4819   2.953   0.665   3.303  2.8187  1.5786  0.1960
 1558SOL    HW2 4820   2.896   0.745   3.418 -1.0617  0.7785 -1.0229
 1559SOL     OW 4821   2.050   3.128   0.302 -0.2434 -0.2077  0.2623
 1559SOL    HW1 4822   2.046   3.047   0.353  0.3745  0.0347  0.6999
 1559SOL    HW2 4823   2.121   3.178   0.341 -0.0574  0.1762 -0.5504
 1560SOL     OW 4824   1.320   1.845   1.090  0.0553 -0.0583 -0.2883
 1560SOL    HW1 4825   1.391   1.853   1.027 -1.1149  0.8463 -1.5477
 1560SOL    HW2 4826   1.248   1.807   1.040 -0.5341 -0.4166  0.8091
 1561SOL     OW 4827   2.421   1.308   2.517 -0.0942  0.1540 -0.7064
 1561SOL    HW1 4828   2.339   1.289   2.472 -0.4629 -0.0481  0.0266
 1561SOL    HW2 4829   2.485   1.322   2.447 -0.5895 -0.4040 -1.2766
 1562SOL     OW 4830   1.157   2.351   0.830  0.0649 -0.3726 -0.2478
 1562SOL    HW1 4831   1.209   2.287   0.879  1.9910  0.2653 -1.3142
 1562SOL    HW2 4832   1.218   2.423   0.813 -1.5699  1.0234 -0.4892
 1563SOL     OW 4833   1.401   2.820   1.572 -0.1678  0.6482  0.2009
 1563SOL    HW1 4834   1.323   2.780   1.534 -0.1699  0.2302  0.6228
 1563SOL    HW2 4835   1.393   2.913   1.552  0.0300  0.3869 -1.1307
 1564SOL     OW 4836  -0.011   1.419   1.978  0.4913  0.3960  0.2414
 1564SOL    HW1 4837   0.073   1.451   2.013  0.2862  2.7099 -1.2221
 1564SOL    HW2 4838  -0.061   1.498   1.961 -2.3202 -0.9452  1.6750
 1565SOL     OW 4839   3.162   0.250   2.105  0.5377  0.1086  0.4499
 1565SOL    HW1 4840   3.201   0.248   2.192  0.2638  0.2788  0.5764
 1565SOL    HW2 4841   3.236   0.238   2.045  1.3388  3.6908  0.5152
 1566SOL     OW 4842   0.537   3.380   3.542  0.0178 -0.3918  1.4374
 1566SOL    HW1 4843   0.591   3.451   3.577  1.4032 -0.2597 -0.8070
 1566SOL    HW2 4844   0.541   3.391   3.447  0.3814 -3.5192  0.9998
 1567SOL     OW 4845   2.668   3.052   0.765  0.4440  0.0587 -0.0345
 1567SOL    HW1 4846   2.678   3.136   0.810 -1.1042  0.0363  0.4112
 1567SOL    HW2 4847   2.702   3.067   0.677  0.5283  1.0437  0.1571
 1568SOL     OW 4848   2.472   0.017   2.440  0.2725  0.3723  0.7735
 1568SOL    HW1 4849   2.536  -0.015   2.503 -0.4881 -1.5079  0.6855
 1568SOL    HW2 4850   2.401   0.052   2.494 -0.6281 -1.7341  1.0842
 1569SOL     OW 4851   0.295   2.174   1.248  0.1458  0.2435  0.0482
 1569SOL    HW1 4852   0.230   2.245   1.247  0.1334  0.2731  1.3188
 1569SOL    HW2 4853   0.318   2.164   1.340  2.0768  0.3286 -0.3906
 1570SOL     OW 4854   2.356   0.382   1.831  0.1254  0.2663  0.2418
 1570SOL    HW1 4855   2.330   0.355   1.919  0.5357 -1.2406 -0.0643
 1570SOL    HW2 4856   2.274   0.407   1.788  0.0916  2.5982  1.5093
 1571SOL     OW 4857   2.132   3.540   0.652 -0.3643  0.3957 -0.3466
 1571SOL    HW1 4858   2.094   3.528   0.565 -0.4172 -0.6733 -0.1819
 1571SOL    HW2 4859   2.061   3.518   0.713 -0.6205  2.0352 -0.0048
 1572SOL     OW 4860   0.580   0.524   2.442  0.4928  0.4027 -0.5053
 1572SOL    HW1 4861   0.497   0.476   2.446  1.8187 -2.1204 -0.8135
 1572SOL    HW2 4862   0.644   0.458   2.416  3.2914  1.3119  3.2564
 1573SOL     OW 4863   0.023   2.789   3.064 -0.1912  0.3261  0.1454
 1573SOL    HW1 4864   0.008   2.717   3.126 -1.3200 -0.6077 -1.1627
 1573SOL    HW2 4865   0.086   2.846   3.109 -0.2864 -0.7732  1.7703
 1574SOL     OW 4866   3.032   1.645   1.099 -0.0685 -0.2577  0.0025
 1574SOL    HW1 4867   3.108   1.653   1.041 -0.0180  0.2035  0.1316
 1574SOL    HW2 4868   3.069   1.628   1.185 -0.1386 -0.7685 -0.0648
 1575SOL     OW 4869   2.949   2.118   2.717  0.7105 -0.2508  0.2254
 1575SOL    HW1 4870   2.928   2.128   2.624 -3.2551 -1.0627  0.8384
 1575SOL    HW2 4871   2.963   2.024   2.729  3.0526  0.0368  0.2487
 1576SOL     OW 4872   0.946   3.189   1.941  0.3156  0.1339 -0.7764
 1576SOL    HW1 4873   1.018   3.226   1.991  0.1106 -1.7440  1.0284
 1576SOL    HW2 4874   0.984   3.115   1.894 -0.4183 -0.8938  0.2179
 1577SOL     OW 4875   0.559   0.266   2.768 -0.0209 -0.2754 -0.3050
 1577SOL    HW1 4876   0.566   0.217   2.687  3.2266 -0.9013  0.1906
 1577SOL    HW2 4877   0.496   0.336   2.749 -0.3442 -1.1620 -2.9007
 1578SOL     OW 4878   0.607   2.898   3.733 -0.0242 -0.3905 -0.3639
 1578SOL    HW1 4879   0.545   2.957   3.689  0.6719  1.0262  0.4968
 1578SOL    HW2 4880   0.693   2.923   3.698  0.2037 -1.5424 -0.6664
 1579SOL     OW 4881   2.133   3.236   0.892  0.2602  0.4613  0.1855
 1579SOL    HW1 4882   2.048   3.277   0.875 -0.6702 -0.9731  1.1480
 1579SOL    HW2 4883   2.151   3.256   0.984 -0.4291 -1.5521  0.8102
 1580SOL     OW 4884   1.469   3.426   1.174 -0.3882  0.0574  0.3720
 1580SOL    HW1 4885   1.470   3.439   1.269  0.6606  0.8307  0.2692
 1580SOL    HW2 4886   1.525   3.495   1.139 -0.2292 -0.6090 -0.7591
 1581SOL     OW 4887   1.394   0.929   3.047  0.1281 -0.6552  0.2472
 1581SOL    HW1 4888   1.319   0.939   3.105  0.3656  0.8263  0.3172
 1581SOL    HW2 4889   1.389   0.837   3.018 -2.1865 -0.3931 -0.4247
 1582SOL     OW 4890   3.055   3.313   0.299  0.7777 -0.0149 -0.6099
 1582SOL    HW1 4891   2.971   3.271   0.280  1.5843 -2.4176  0.6953
 1582SOL    HW2 4892   3.052   3.396   0.251 -2.1341 -0.2126 -0.9545
 1583SOL     OW 4893   1.505   1.863   0.882 -0.0004 -0.0377  0.2988
 1583SOL    HW1 4894   1.531   1.946   0.842 -3.5054  1.5473  0.8848
 1583SOL    HW2 4895   1.476   1.809   0.808 -0.1474  0.2770  0.1240
 1584SOL     OW 4896   0.411   1.799   3.047  0.1524 -1.0576  0.2199
 1584SOL    HW1 4897   0.434   1.839   2.963 -1.0084 -3.2213 -1.2352
 1584SOL    HW2 4898   0.327   1.838   3.071  1.4056  1.0361  1.4871
 1585SOL     OW 4899   0.606   3.726   1.871 -0.4150 -0.1301 -0.8402
 1585SOL    HW1 4900   0.644   3.657   1.816 -1.3366 -0.4327 -1.1073
 1585SOL    HW2 4901   0.676   3.747   1.934  0.0957 -0.8697 -1.1454
 1586SOL     OW 4902   2.643   0.043   1.571 -0.0811  0.8135  0.5547
 1586SOL    HW1 4903   2.686   0.089   1.643 -2.7971  1.4145  1.9193
 1586SOL    HW2 4904   2.563   0.093   1.555 -0.3480 -0.2656 -1.7910
 1587SOL     OW 4905   1.286   1.406   2.443  0.1207  0.1647 -1.3045
 1587SOL    HW1 4906   1.193   1.390   2.429 -0.2049  2.0811 -1.5795
 1587SOL    HW2 4907   1.308   1.354   2.520 -1.1826 -0.2621 -1.2000
 1588SOL     OW 4908   3.577   0.844   1.918 -0.3989 -0.5213  0.6678
 1588SOL    HW1 4909   3.513   0.794   1.868 -0.3942  0.4735 -0.3653
 1588SOL    HW2 4910   3.526   0.888   1.986 -0.7020 -0.3180  0.3097
 1589SOL     OW 4911   0.799   1.198   0.080 -0.6683 -0.4156  0.0961
 1589SOL    HW1 4912   0.720   1.160   0.118 -0.6799  1.2885  1.9615
 1589SOL    HW2 4913   0.777   1.290   0.066  1.2121  0.3244  1.5292
 1590SOL     OW 4914   0.397   1.972   1.144  0.0445 -0.2047  0.0356
 1590SOL    HW1 4915   0.356   1.909   1.203  2.8067 -1.7440  0.4569
 1590SOL    HW2 4916   0.355   2.056   1.165 -2.1943 -1.4638  0.9780
 1591SOL     OW 4917   0.593   2.814   0.513  0.0443 -0.5686 -0.3957
 1591SOL    HW1 4918   0.641   2.862   0.445  0.4644 -1.4208 -0.7140
 1591SOL    HW2 4919   0.661   2.769   0.563 -0.3455 -0.8416 -0.1040
 1592SOL     OW 4920   1.249   1.343   1.372  0.4237  0.5047 -0.3301
 1592SOL    HW1 4921   1.250   1.252   1.344  3.1883  0.1401  0.6444
 1592SOL    HW2 4922   1.156   1.366   1.374 -0.3866 -2.3458 -0.3672
 1593SOL     OW 4923   1.741   0.322   2.271 -0.6977  0.3189  0.4203
 1593SOL    HW1 4924   1.785   0.245   2.236  1.4085  1.9961 -0.8281
 1593SOL    HW2 4925   1.683   0.287   2.339  2.5824 -2.1175  2.3007
 1594SOL     OW 4926   1.192   3.286   2.902  0.3039  0.7031 -0.0541
 1594SOL    HW1 4927   1.250   3.294   2.826  1.8419 -0.0926  0.9988
 1594SOL    HW2 4928   1.179   3.377   2.932  2.0700  0.8206  0.4468
 1595SOL     OW 4929   2.748   1.671  -0.001 -0.1736 -0.0719  0.5390
 1595SOL    HW1 4930   2.728   1.746   0.054 -0.0986  0.6213 -0.3544
 1595SOL    HW2 4931   2.843   1.661   0.005 -0.1552  0.0587  0.4633
 1596SOL     OW 4932   1.642   1.264   0.988 -0.2723 -0.4377  0.6084
 1596SOL    HW1 4933   1.733   1.241   0.969 -0.3383 -0.3445  0.1595
 1596SOL    HW2 4934   1.624   1.338   0.931 -0.5869 -0.3649  0.8017
 1597SOL     OW 4935   0.339   2.873   1.561 -0.3476  0.4289  0.6593
 1597SOL    HW1 4936   0.386   2.944   1.604 -0.7893  0.3215  1.3316
 1597SOL    HW2 4937   0.354   2.797   1.617 -0.1164  0.0481  0.0959
 1598SOL     OW 4938   2.864   0.748   0.615  0.1307 -0.0103 -0.0604
 1598SOL    HW1 4939   2.902   0.676   0.565 -0.1411 -1.4069  1.6566
 1598SOL    HW2 4940   2.934   0.777   0.673 -0.6857 -1.1211  1.5569
 1599SOL     OW 4941   3.164   1.700   2.514 -0.0607  0.1828 -0.5543
 1599SOL    HW1 4942   3.211   1.627   2.473 -1.9371  0.1092 -2.7766
 1599SOL    HW2 4943   3.189   1.777   2.461  1.0170  1.0096  1.0657
 1600SOL     OW 4944   2.593   1.352   0.766  0.2867  0.0690  0.5430
 1600SOL    HW1 4945   2.578   1.415   0.837 -0.7305 -0.9912  1.3142
 1600SOL    HW2 4946   2.579   1.267   0.807  2.2813 -0.7118 -0.3172
 1601SOL     OW 4947   1.573   3.448   2.858 -0.5381 -0.1072 -0.1641
 1601SOL    HW1 4948   1.658   3.411   2.883 -0.9206  0.2343  1.7312
 1601SOL    HW2 4949   1.592   3.540   2.836 -0.5159  0.1714  0.9830
 1602SOL     OW 4950   3.141   1.230   0.999 -0.4512  0.0365 -0.2915
 1602SOL    HW1 4951   3.063   1.204   1.047 -1.1962  2.3897 -0.1165
 1602SOL    HW2 4952   3.175   1.306   1.047  1.4817 -0.4078 -0.8472
 1603SOL     OW 4953   2.777   1.888   2.931 -0.4745 -0.4268  0.3197
 1603SOL    HW1 4954   2.703   1.852   2.980 -2.4394  1.7543 -0.8541
 1603SOL    HW2 4955   2.801   1.967   2.979 -1.1092  0.6485 -1.0864
 1604SOL     OW 4956   3.041   1.577   3.102  0.2569 -0.2480 -0.1627
 1604SOL    HW1 4957   3.050   1.489   3.066  1.5005 -0.4265  0.5473
 1604SOL    HW2 4958   3.037   1.634   3.025  3.7428 -0.5275 -0.7071
 1605SOL     OW 4959   1.100   0.289   1.876  0.5559  0.2686 -0.3648
 1605SOL    HW1 4960   1.072   0.316   1.788 -0.0164  0.1474 -0.2215
 1605SOL    HW2 4961   1.186   0.329   1.886  0.9494 -0.3050 -1.2609
 1606SOL     OW 4962   0.036   1.178   1.686 -0.0961  0.5858 -0.3378
 1606SOL    HW1 4963   0.021   1.267   1.654 -0.0676  1.8500  2.7914
 1606SOL    HW2 4964  -0.052   1.142   1.698 -0.1682  0.9356  0.2148
 1607SOL     OW 4965   3.584   1.581   2.584  0.3379  0.0621  0.5724
 1607SOL    HW1 4966   3.550   1.666   2.556  0.9135  0.4254  0.9455
 1607SOL    HW2 4967   3.506   1.530   2.605 -0.0889 -0.0160 -1.0529
 1608SOL     OW 4968   0.273   3.308   3.362  0.6558  0.0873 -0.6281
 1608SOL    HW1 4969   0.232   3.239   3.310 -0.7230  0.7177 -0.4263
 1608SOL    HW2 4970   0.344   3.341   3.308 -0.5941  0.5682 -2.0290
 1609SOL     OW 4971   0.868   2.262   0.168  0.0806  0.1461 -0.3228
 1609SOL    HW1 4972   0.870   2.194   0.235 -0.9763 -2.0782 -2.3865
 1609SOL    HW2 4973   0.794   2.317   0.193  1.0666  0.7165  1.4936
 1610SOL     OW 4974   0.308   0.637   2.273 -0.2013 -0.4952 -0.3758
 1610SOL    HW1 4975   0.239   0.584   2.233 -0.6808  0.1322 -0.4007
 1610SOL    HW2 4976   0.329   0.702   2.206  2.1719 -2.1501 -1.3665
 1611SOL     OW 4977   3.310   2.386   2.824  0.2163  0.3453  0.5461
 1611SOL    HW1 4978   3.252   2.420   2.893 -0.4015  0.4035  0.0129
 1611SOL    HW2 4979   3.262   2.312   2.787  0.8002 -0.0449  0.5579
 1612SOL     OW 4980   2.165   2.553   0.964  0.6350 -0.2042  0.3077
 1612SOL    HW1 4981   2.239   2.613   0.961  1.6053 -1.3954 -2.0884
 1612SOL    HW2 4982   2.197   2.478   1.014  1.3341 -0.9900 -1.2545
 1613SOL     OW 4983   3.192   1.050   0.797 -0.6156 -0.0947  0.3092
 1613SOL    HW1 4984   3.222   1.127   0.747  0.4415 -0.6346  0.0866
 1613SOL    HW2 4985   3.184   1.082   0.886  2.4915 -0.2966  0.7970
 1614SOL     OW 4986   2.568   1.061   3.695  0.0308 -0.3407  0.0752
 1614SOL    HW1 4987   2.487   1.069   3.645  0.4399 -0.3565 -0.6011
 1614SOL    HW2 4988   2.558   0.980   3.744  0.2400 -1.1201 -1.1389
 1615SOL     OW 4989   1.853   1.155   0.870 -0.0028 -0.0577 -0.1297
 1615SOL    HW1 4990   1.917   1.153   0.942 -1.8551  2.8071  1.8083
 1615SOL    HW2 4991   1.807   1.071   0.877  0.4270 -0.2032  1.5627
 1616SOL     OW 4992   2.485   0.469   2.487 -0.3897  0.5727  0.2061
 1616SOL    HW1 4993   2.514   0.560   2.476 -0.9219  0.6424 -0.8314
 1616SOL    HW2 4994   2.558   0.425   2.529 -0.4781  1.6884  1.6232
 1617SOL     OW 4995   0.997   3.054   3.224 -0.2539 -0.2261  1.3235
 1617SOL    HW1 4996   0.987   3.042   3.130 -0.9920  0.5045  1.2995
 1617SOL    HW2 4997   1.057   3.128   3.233  0.9889 -1.1971  1.4579
 1618SOL     OW 4998   1.605   0.310   1.501 -0.1995  0.1343  0.1220
 1618SOL    HW1 4999   1.685   0.350   1.535 -1.1000 -0.5462  3.4966
 1618SOL    HW2 5000   1.576   0.368   1.431  1.8581  1.8486  0.5951
 1619SOL     OW 5001   0.719   1.708   2.729  0.0444 -0.1851  0.1198
 1619SOL    HW1 5002   0.793   1.668   2.775 -0.2162 -0.4489  0.3155
 1619SOL    HW2 5003   0.759   1.766   2.665  0.4025  0.5821  1.0234
 1620SOL     OW 5004   2.151   1.586   3.668  0.3276 -0.5199  0.5150
 1620SOL    HW1 5005   2.231   1.631   3.694  0.2363 -0.1323  0.1487
 1620SOL    HW2 5006   2.107   1.564   3.751  0.4976 -0.1540  0.7051
 1621SOL     OW 5007   2.864   3.273   1.596  0.0000 -0.0475  0.0040
 1621SOL    HW1 5008   2.823   3.187   1.602  0.1300 -0.0674  0.6395
 1621SOL    HW2 5009   2.793   3.331   1.566  0.4122 -0.7243 -2.4963
 1622SOL     OW 5010   1.773   1.158   0.133  0.1097  0.0718  0.7598
 1622SOL    HW1 5011   1.864   1.142   0.108  0.6444  1.5892  1.5687
 1622SOL    HW2 5012   1.729   1.074   0.122  1.3603 -0.4300 -0.6700
 1623SOL     OW 5013   2.360   0.433   0.691  0.4958 -0.3826  0.3288
 1623SOL    HW1 5014   2.334   0.352   0.734  1.0783 -0.6781  0.1340
 1623SOL    HW2 5015   2.412   0.480   0.756 -2.3796  1.3201  1.6009
 1624SOL     OW 5016   1.160   1.689   0.907 -0.3771  0.1626  0.1955
 1624SOL    HW1 5017   1.200   1.677   0.821 -0.4633 -3.3889  0.4838
 1624SOL    HW2 5018   1.067   1.699   0.889 -0.3496 -0.1710 -0.1577
 1625SOL     OW 5019   0.772   0.265   0.323 -0.2989 -0.2426  0.0713
 1625SOL    HW1 5020   0.765   0.303   0.235 -0.7522 -1.5284 -0.4615
 1625SOL    HW2 5021   0.842   0.200   0.316  0.0977  0.0833  0.8333
 1626SOL     OW 5022   3.070   1.147   1.726 -0.8986  0.3995  0.6712
 1626SOL    HW1 5023   3.160   1.150   1.759 -0.4869  1.0584 -0.4806
 1626SOL    HW2 5024   3.037   1.061   1.755  0.7552 -0.7151 -0.5395
 1627SOL     OW 5025   3.103   3.369   1.777 -0.0741  0.1693 -0.1455
 1627SOL    HW1 5026   3.034   3.421   1.736 -0.9068 -0.6980  0.1188
 1627SOL    HW2 5027   3.059   3.321   1.847  0.4417 -1.6474 -0.9907
 1628SOL     OW 5028   1.766   1.506   1.443  0.2558 -0.3874  0.5480
 1628SOL    HW1 5029   1.703   1.474   1.378  0.2561 -0.3602  0.5345
 1628SOL    HW2 5030   1.776   1.433   1.504 -0.2301 -0.1884  0.8748
 1629SOL     OW 5031   0.692   1.398   0.824 -0.4841  0.7782  0.4975
 1629SOL    HW1 5032   0.676   1.461   0.754 -0.6632 -0.8944 -1.0506
 1629SOL    HW2 5033   0.787   1.394   0.832 -0.2709 -1.3700 -2.0158
 1630SOL     OW 5034   3.518   3.501   1.103  0.1960  0.2903  0.3589
 1630SOL    HW1 5035   3.449   3.538   1.158  0.2647 -2.9233  2.9947
 1630SOL    HW2 5036   3.599   3.519   1.152  0.7583  0.7009 -0.7080
 1631SOL     OW 5037   1.165   3.320   0.267 -0.2387  0.0551 -0.4048
 1631SOL    HW1 5038   1.216   3.283   0.195 -0.6733 -0.5121 -0.4286
 1631SOL    HW2 5039   1.219   3.307   0.345  0.4619  1.1388 -0.6935
 1632SOL     OW 5040   2.963   1.539   0.309 -0.5785  0.1950  0.5661
 1632SOL    HW1 5041   2.878   1.517   0.270 -0.2796 -0.1194  0.0852
 1632SOL    HW2 5042   3.006   1.595   0.243 -0.0257 -0.4284  0.3869
 1633SOL     OW 5043   2.807   3.353   2.604 -0.2092  0.3364 -0.3142
 1633SOL    HW1 5044   2.730   3.301   2.625  2.1159 -5.4016 -3.4604
 1633SOL    HW2 5045   2.880   3.302   2.639  2.3889  3.8234 -0.1479
 1634SOL     OW 5046   1.994   1.561   2.974 -0.2738  0.1880 -0.6482
 1634SOL    HW1 5047   2.057   1.492   2.997 -0.8902 -0.4943 -0.9748
 1634SOL    HW2 5048   1.940   1.571   3.052 -0.1748  0.3130 -0.5956
 1635SOL     OW 5049   1.601   0.647   0.005  0.2899  0.0935  0.2574
 1635SOL    HW1 5050   1.593   0.644   0.100 -1.5153  0.0408  0.1460
 1635SOL    HW2 5051   1.614   0.556  -0.021  1.9167  0.2242  0.4878
 1636SOL     OW 5052   0.473   2.653   2.468  0.4200  0.3698  0.5040
 1636SOL    HW1 5053   0.495   2.679   2.378  0.8371  2.1789  1.0724
 1636SOL    HW2 5054   0.417   2.724   2.500 -1.5108 -1.3005  1.0072
 1637SOL     OW 5055   2.236   3.187   3.331 -0.0855 -0.2023 -0.1420
 1637SOL    HW1 5056   2.328   3.185   3.358 -0.7124 -0.4812  2.1133
 1637SOL    HW2 5057   2.205   3.097   3.342 -1.3765  0.4390  2.0477
 1638SOL     OW 5058   3.043   3.588   0.230  0.2284 -0.6458 -0.4802
 1638SOL    HW1 5059   3.119   3.643   0.248  0.2478  0.2604 -2.9895
 1638SOL    HW2 5060   2.969   3.649   0.228 -0.4407 -1.3615  0.8355
 1639SOL     OW 5061   1.287   2.575   0.344 -0.1549 -0.1764  0.0708
 1639SOL    HW1 5062   1.311   2.635   0.273  2.4022 -0.9234  0.1978
 1639SOL    HW2 5063   1.235   2.507   0.302 -1.4922  1.0844 -0.4126
 1640SOL     OW 5064   0.680   2.749   3.209 -0.1950  0.1581 -0.0301
 1640SOL    HW1 5065   0.704   2.793   3.128  0.0307 -0.2727 -0.1988
 1640SOL    HW2 5066   0.616   2.808   3.250  0.3781  0.8220 -0.0692
 1641SOL     OW 5067   0.297   2.240   2.713  0.5334  0.4669  0.0199
 1641SOL    HW1 5068   0.279   2.212   2.623 -1.8649 -1.8188  1.0704
 1641SOL    HW2 5069   0.349   2.169   2.750 -1.2342 -0.2748  1.2591
 1642SOL     OW 5070   2.238   2.586   2.795  0.4349  0.2638  0.3443
 1642SOL    HW1 5071   2.199   2.541   2.720 -0.2560  0.0794  0.7959
 1642SOL    HW2 5072   2.313   2.633   2.760 -0.9274  1.6629 -0.8099
 1643SOL     OW 5073   2.980   0.449   2.002 -0.3406  0.6576 -0.2955
 1643SOL    HW1 5074   3.034   0.503   1.944  1.0355  1.4511  1.6285
 1643SOL    HW2 5075   3.039   0.381   2.033 -0.8988  0.5534  0.5650
 1644SOL     OW 5076   2.246   2.742   0.035  0.2588  0.8590  0.2322
 1644SOL    HW1 5077   2.249   2.650   0.008  2.0917  0.6461  1.0228
 1644SOL    HW2 5078   2.154   2.767   0.026 -0.2866 -1.0759  0.1030
 1645SOL     OW 5079   0.273   0.948   3.268  0.1984  0.3742  0.0490
 1645SOL    HW1 5080   0.270   0.939   3.173 -0.3277 -1.2973  0.1899
 1645SOL    HW2 5081   0.366   0.941   3.290  0.1426 -1.8324 -0.1822
 1646SOL     OW 5082   1.695   2.529   3.188 -0.5166  0.5739  0.6570
 1646SOL    HW1 5083   1.641   2.532   3.267 -0.1772 -0.8540  0.9841
 1646SOL    HW2 5084   1.649   2.584   3.125 -1.1616  1.1723  1.6241
 1647SOL     OW 5085   2.681   1.084   1.682  0.6479 -0.3422 -0.0887
 1647SOL    HW1 5086   2.711   0.995   1.702  0.9527 -0.6101 -1.6158
 1647SOL    HW2 5087   2.713   1.101   1.593  2.1342  1.9553  0.7776
 1648SOL     OW 5088   1.234   0.588   0.183 -0.7616 -0.0401 -0.0086
 1648SOL    HW1 5089   1.309   0.599   0.242 -0.7579  0.3562 -0.0858
 1648SOL    HW2 5090   1.163   0.636   0.224 -0.4556  1.2200 -0.8791
 1649SOL     OW 5091   2.468   3.245   1.448  0.6706  0.2784  0.5037
 1649SOL    HW1 5092   2.409   3.248   1.523 -1.8853 -1.2585 -1.3045
 1649SOL    HW2 5093   2.454   3.328   1.403 -1.7189 -0.8249 -0.9561
 1650SOL     OW 5094   0.668   0.544   2.879 -0.2890 -0.0444  0.0331
 1650SOL    HW1 5095   0.610   0.610   2.839 -0.1975 -0.2868 -0.4998
 1650SOL    HW2 5096   0.668   0.472   2.817 -0.6277 -0.6825  0.7556
 1651SOL     OW 5097   3.548   0.757   2.309  0.1208  0.3999  0.5465
 1651SOL    HW1 5098   3.628   0.809   2.316  0.4412 -0.2316  1.9366
 1651SOL    HW2 5099   3.513   0.779   2.223  2.1599  0.1704 -0.4227
 1652SOL     OW 5100   1.466   3.689   0.463  0.2296 -0.3376 -0.4171
 1652SOL    HW1 5101   1.376   3.672   0.432  0.5754 -1.9157 -0.6211
 1652SOL    HW2 5102   1.489   3.611   0.512  1.2596  0.3608  0.2274
 1653SOL     OW 5103   3.299   1.898   0.978  0.3978  0.1697  0.3947
 1653SOL    HW1 5104   3.381   1.889   0.928  0.3859 -1.5503  0.6004
 1653SOL    HW2 5105   3.255   1.814   0.967 -1.7236  1.3077 -0.3027
 1654SOL     OW 5106   2.354   2.998   0.149  0.4074  0.5900  0.5739
 1654SOL    HW1 5107   2.365   2.965   0.238  0.4859 -0.5183  0.1731
 1654SOL    HW2 5108   2.311   2.927   0.102  2.3307  0.2436 -0.8120
 1655SOL     OW 5109   1.022   0.800   2.688  0.0252  0.2891  0.3415
 1655SOL    HW1 5110   1.014   0.805   2.593 -1.0743  0.9125  0.4407
 1655SOL    HW2 5111   1.020   0.892   2.716  0.4009  0.1103  0.9687
 1656SOL     OW 5112   0.270   0.281   3.049 -0.1702  0.2215  0.1930
 1656SOL    HW1 5113   0.315   0.365   3.046  0.6054 -0.1578  0.7363
 1656SOL    HW2 5114   0.179   0.302   3.071 -0.0541  0.9303  0.0058
 1657SOL     OW 5115   2.698   3.529   1.884 -0.3472  0.6215 -0.0337
 1657SOL    HW1 5116   2.679   3.512   1.976  0.5131  0.6798  0.1713
 1657SOL    HW2 5117   2.746   3.612   1.885 -0.7942  0.8927 -0.5917
 1658SOL     OW 5118   0.287   1.299   2.146  0.6985  0.4481  1.0209
 1658SOL    HW1 5119   0.364   1.244   2.135 -0.1938 -0.9267  1.3741
 1658SOL    HW2 5120   0.223   1.265   2.083 -0.3554  0.1556  2.2018
 1659SOL     OW 5121   2.717   3.101   0.508 -0.2679 -0.4620 -0.1257
 1659SOL    HW1 5122   2.810   3.116   0.491 -0.7431 -0.4267 -3.1617
 1659SOL    HW2 5123   2.679   3.188   0.512 -0.6677 -0.4834 -2.4657
 1660SOL     OW 5124   3.124   3.590   3.365 -0.1667  0.4346 -0.4959
 1660SOL    HW1 5125   3.128   3.628   3.452  1.2730 -0.8271  0.0325
 1660SOL    HW2 5126   3.205   3.619   3.322  0.8039 -1.6508 -0.1952
 1661SOL     OW 5127   0.741   0.853   1.988  0.5522 -0.0610 -0.0006
 1661SOL    HW1 5128   0.821   0.851   2.040  0.8380 -1.5834 -0.4658
 1661SOL    HW2 5129   0.698   0.769   2.004 -1.3308  0.9875  0.7602
 1662SOL     OW 5130   2.805   0.758   1.843 -0.3647  0.1414 -0.1220
 1662SOL    HW1 5131   2.720   0.801   1.857 -0.3843 -0.5856  2.6896
 1662SOL    HW2 5132   2.783   0.668   1.821 -0.3855 -0.2608  1.4254
 1663SOL     OW 5133   2.298   1.583   0.984 -0.8185 -0.1622  0.1621
 1663SOL    HW1 5134   2.299   1.540   1.069 -0.2974 -0.9815 -0.2428
 1663SOL    HW2 5135   2.389   1.606   0.967 -0.5492 -1.9208 -1.0865
 1664SOL     OW 5136   1.869   0.659   0.313 -0.2713 -0.0753 -0.3080
 1664SOL    HW1 5137   1.870   0.565   0.332  2.5707 -0.4012 -1.6442
 1664SOL    HW2 5138   1.916   0.699   0.386  1.2039 -0.0900 -1.2182
 1665SOL     OW 5139   2.784   3.353   3.234 -0.2974  0.0667  0.3186
 1665SOL    HW1 5140   2.876   3.336   3.255 -0.4492 -1.6373 -0.1961
 1665SOL    HW2 5141   2.786   3.426   3.171  0.5463  1.1948  1.6057
 1666SOL     OW 5142   0.730   3.628   2.984  0.6256  0.0277  0.0043
 1666SOL    HW1 5143   0.723   3.585   2.899  0.2568  0.5240 -0.2176
 1666SOL    HW2 5144   0.655   3.687   2.988  0.0275 -0.7607  1.1098
 1667SOL     OW 5145   2.255   1.745   1.487  0.5207 -0.3283  0.1049
 1667SOL    HW1 5146   2.253   1.766   1.394  3.9892  1.4693  0.2856
 1667SOL    HW2 5147   2.169   1.707   1.504 -0.4249 -0.3391 -3.6934
 1668SOL     OW 5148   0.144   0.403   2.228 -0.7273 -0.3043 -0.3706
 1668SOL    HW1 5149   0.167   0.337   2.163 -1.2102 -0.1996 -0.6595
 1668SOL    HW2 5150   0.061   0.372   2.265 -1.5598  0.6923 -1.3228
 1669SOL     OW 5151   1.226   0.310   1.238 -0.6512  0.2756 -0.3427
 1669SOL    HW1 5152   1.317   0.339   1.245  0.4000 -2.0266 -2.6564
 1669SOL    HW2 5153   1.181   0.352   1.311  2.6086  0.2723  1.8554
 1670SOL     OW 5154   0.282   1.517   3.654  0.1640 -0.2827 -0.7501
 1670SOL    HW1 5155   0.360   1.543   3.703  0.7290 -1.4700 -0.9797
 1670SOL    HW2 5156   0.275   1.582   3.584  0.6135  0.1567 -0.3961
 1671SOL     OW 5157   2.287   2.223   2.612  0.1000 -0.1754 -0.0050
 1671SOL    HW1 5158   2.346   2.216   2.687 -1.0154 -2.2580  0.7615
 1671SOL    HW2 5159   2.344   2.211   2.536  1.2898  2.2345  0.4221
 1672SOL     OW 5160   0.876   2.948   3.615 -0.0025  0.2633 -0.3851
 1672SOL    HW1 5161   0.946   2.910   3.562  1.2875  0.8501  0.8336
 1672SOL    HW2 5162   0.869   3.038   3.584  0.6775  0.5745  0.3304
 1673SOL     OW 5163   0.922   0.978   0.631 -0.0466 -0.5584 -0.2811
 1673SOL    HW1 5164   0.864   1.047   0.598 -3.3963 -1.9716  2.0477
 1673SOL    HW2 5165   0.895   0.899   0.584  2.1330 -0.8108 -1.2378
 1674SOL     OW 5166   1.633   1.120   2.655  0.2506 -0.1432  0.1938
 1674SOL    HW1 5167   1.604   1.034   2.627 -1.8195  0.3522  0.6237
 1674SOL    HW2 5168   1.714   1.104   2.703  1.2770 -1.5160 -1.8496
 1675SOL     OW 5169   2.745   3.260   0.228 -0.0499 -0.2143  0.3472
 1675SOL    HW1 5170   2.658   3.259   0.266 -0.6366  1.0806 -0.8823
 1675SOL    HW2 5171   2.757   3.172   0.192 -1.3256 -0.0756 -0.4705
 1676SOL     OW 5172   0.297   2.048   0.193 -0.1408  0.3013  0.2768
 1676SOL    HW1 5173   0.208   2.055   0.161 -0.4142  0.0716  0.9690
 1676SOL    HW2 5174   0.351   2.047   0.114 -0.8465 -1.0584 -0.2202
 1677SOL     OW 5175   1.287   2.174   1.979  0.2477 -0.0514 -0.6165
 1677SOL    HW1 5176   1.308   2.126   2.059  1.1238  1.1525 -0.0940
 1677SOL    HW2 5177   1.372   2.203   1.946 -0.1561  0.0023 -1.6487
 1678SOL     OW 5178   0.390   0.808   2.780 -0.6384  0.5123 -0.1091
 1678SOL    HW1 5179   0.311   0.826   2.831 -1.3162 -2.6777  0.1824
 1678SOL    HW2 5180   0.357   0.772   2.697  0.5046  0.5190 -0.5872
 1679SOL     OW 5181   2.114   2.268   0.672 -0.4542  0.2410  0.3570
 1679SOL    HW1 5182   2.164   2.292   0.750 -0.3730  0.6892  0.1711
 1679SOL    HW2 5183   2.028   2.245   0.705  0.2160 -1.8075  0.8385
 1680SOL     OW 5184   2.091   0.368   2.898 -0.3188  0.8736 -0.3475
 1680SOL    HW1 5185   2.184   0.381   2.878 -0.5233  1.5825 -0.8755
 1680SOL    HW2 5186   2.088   0.283   2.944  0.3747 -0.0267 -1.8773
 1681SOL     OW 5187   1.943   3.327  -0.033  0.6079 -0.0261  0.8662
 1681SOL    HW1 5188   1.912   3.400   0.020 -2.6577  0.3013 -1.1867
 1681SOL    HW2 5189   2.006   3.281   0.023  1.9610  3.6203  2.6622
 1682SOL     OW 5190   1.302   1.321   0.474 -0.6591  0.5129  0.5005
 1682SOL    HW1 5191   1.265   1.330   0.562 -1.2109 -0.1468  0.3396
 1682SOL    HW2 5192   1.232   1.283   0.422  0.2414 -0.7859  0.1937
 1683SOL     OW 5193   0.144   3.687   0.715  0.8622  0.8899 -0.1353
 1683SOL    HW1 5194   0.177   3.653   0.798  0.1058 -1.9220 -0.8821
 1683SOL    HW2 5195   0.066   3.635   0.697  0.4234  2.1212 -2.1383
 1684SOL     OW 5196   0.893   0.538   2.045 -0.2132  0.1920 -0.3192
 1684SOL    HW1 5197   0.808   0.578   2.062 -1.8442 -2.4747 -1.6098
 1684SOL    HW2 5198   0.921   0.577   1.962  1.9623  4.0910  1.9133
 1685SOL     OW 5199   2.405   3.504   1.903  0.2360 -0.2773  0.2412
 1685SOL    HW1 5200   2.372   3.572   1.845  0.5123  0.7577  1.2509
 1685SOL    HW2 5201   2.500   3.518   1.904  0.1913  0.0324  1.2870
 1686SOL     OW 5202   3.627   2.375   2.690  0.1295  0.5507 -0.2807
 1686SOL    HW1 5203   3.578   2.444   2.735 -1.3985 -0.6033 -0.0670
 1686SOL    HW2 5204   3.662   2.320   2.761  0.6474  0.6531 -0.4551
 1687SOL     OW 5205   3.651   1.896   1.796  0.2112 -0.5660 -0.5360
 1687SOL    HW1 5206   3.741   1.922   1.816 -0.1011 -0.6706  1.2185
 1687SOL    HW2 5207   3.620   1.962   1.734  0.1025  2.1994  2.1779
 1688SOL     OW 5208   2.623   0.355   1.954  0.1950 -0.2235 -0.2995
 1688SOL    HW1 5209   2.606   0.423   2.019 -0.1345  0.7314 -1.3514
 1688SOL    HW2 5210   2.536   0.328   1.923  0.3056 -1.3800  0.3469
 1689SOL     OW 5211   1.200   1.204   1.123  0.3379  0.1974 -0.3376
 1689SOL    HW1 5212   1.235   1.274   1.069  3.2570  0.8346  2.1081
 1689SOL    HW2 5213   1.130   1.245   1.173 -0.2872  0.4095 -1.3618
 1690SOL     OW 5214   2.912   1.610   2.161  0.0756 -0.1400  0.0440
 1690SOL    HW1 5215   2.855   1.682   2.187  1.1258  0.1375  1.7622
 1690SOL    HW2 5216   3.001   1.644   2.173  0.6161 -0.9292 -1.4809
 1691SOL     OW 5217   0.606   1.126   3.265 -0.1919 -0.2691 -0.9056
 1691SOL    HW1 5218   0.521   1.128   3.222 -0.1968 -0.7617 -0.9260
 1691SOL    HW2 5219   0.586   1.132   3.359 -0.2422 -0.2467 -0.9179
 1692SOL     OW 5220   3.126   1.012   0.143  0.2823 -0.7533  0.0703
 1692SOL    HW1 5221   3.181   0.944   0.181  1.6722  0.5415  0.4568
 1692SOL    HW2 5222   3.040   0.998   0.182  1.3893 -0.1302  2.9769
 1693SOL     OW 5223   1.706   2.858   2.210  0.5638 -0.1165  0.1089
 1693SOL    HW1 5224   1.793   2.897   2.207  0.5541 -0.1403 -1.6125
 1693SOL    HW2 5225   1.706   2.793   2.139 -0.5711 -0.7514  0.6469
 1694SOL     OW 5226   2.439   2.440   3.396  0.1838 -0.0716  0.3367
 1694SOL    HW1 5227   2.359   2.490   3.381 -1.6417 -2.9484 -0.3261
 1694SOL    HW2 5228   2.502   2.478   3.335 -1.0859  1.3413 -0.1906
 1695SOL     OW 5229   1.177   1.207   3.677  0.0353 -0.4479 -0.3717
 1695SOL    HW1 5230   1.270   1.206   3.699  0.2876  1.4774 -1.1162
 1695SOL    HW2 5231   1.156   1.300   3.669 -2.3220 -0.7893  1.1808
 1696SOL     OW 5232   0.289   0.550   3.710  0.1350 -0.7185  0.8044
 1696SOL    HW1 5233   0.316   0.519   3.624 -1.2024 -1.5882  0.6524
 1696SOL    HW2 5234   0.348   0.505   3.771 -1.1919 -3.0517  0.5243
 1697SOL     OW 5235   2.932   2.593   3.728  0.7727 -0.6418 -0.1548
 1697SOL    HW1 5236   3.008   2.631   3.684 -0.6810 -0.6988 -2.9047
 1697SOL    HW2 5237   2.917   2.510   3.684 -2.0201  0.2462 -1.0904
 1698SOL     OW 5238   0.454   1.625   1.350  0.2332  0.3012  0.6178
 1698SOL    HW1 5239   0.547   1.646   1.341  0.3558  0.2735  1.6909
 1698SOL    HW2 5240   0.441   1.616   1.445 -0.5483 -1.1051  0.3936
 1699SOL     OW 5241   0.458   0.302   1.046 -0.4234 -0.4052  0.1377
 1699SOL    HW1 5242   0.542   0.255   1.040  0.4300  1.1148 -0.4250
 1699SOL    HW2 5243   0.473   0.368   1.114  0.0690  2.1414 -2.2612
 1700SOL     OW 5244   3.307   2.310   0.891  0.2869  0.5793  0.6378
 1700SOL    HW1 5245   3.302   2.255   0.970  2.0283 -0.5911  0.0091
 1700SOL    HW2 5246   3.398   2.300   0.862  0.3899  3.0603 -0.0792
 1701SOL     OW 5247   0.836   2.362   2.791  0.4555 -0.5888  0.2064
 1701SOL    HW1 5248   0.926   2.394   2.784 -0.5267  2.5694  0.6177
 1701SOL    HW2 5249   0.834   2.316   2.875  0.9231  2.5684  2.1291
 1702SOL     OW 5250   0.082   1.024   0.940  0.5994  0.0573 -0.0467
 1702SOL    HW1 5251   0.012   1.089   0.931  1.3210  0.9303  0.4964
 1702SOL    HW2 5252   0.059   0.955   0.876 -0.4279  0.6030 -0.2921
 1703SOL     OW 5253   0.293   0.769   2.517 -0.7205  0.0564 -0.4043
 1703SOL    HW1 5254   0.292   0.859   2.486 -0.3109 -0.1609 -1.0718
 1703SOL    HW2 5255   0.290   0.716   2.437  2.2012 -0.5255 -0.2349
 1704SOL     OW 5256   1.295   3.697   3.518  0.5989  0.5864 -0.2694
 1704SOL    HW1 5257   1.270   3.607   3.496  1.6101  0.9833 -3.4779
 1704SOL    HW2 5258   1.212   3.745   3.521  0.2201 -0.0225 -0.7449
 1705SOL     OW 5259   1.112   2.961   2.229 -0.0641 -0.1039 -0.1622
 1705SOL    HW1 5260   1.030   3.011   2.225 -0.7686 -1.2188  0.0220
 1705SOL    HW2 5261   1.110   2.905   2.152  0.0944 -0.7710  0.3089
 1706SOL     OW 5262   3.754   1.667   3.532 -0.2836  0.2398 -0.4589
 1706SOL    HW1 5263   3.772   1.632   3.619 -0.5431  1.2158 -0.0082
 1706SOL    HW2 5264   3.685   1.609   3.498  0.6112 -0.8468 -0.4937
 1707SOL     OW 5265   2.863   1.191   1.470  0.0790  0.0437  0.1452
 1707SOL    HW1 5266   2.930   1.146   1.420 -1.0909 -0.7524 -0.7663
 1707SOL    HW2 5267   2.827   1.256   1.409 -0.7919 -0.3660  0.2051
 1708SOL     OW 5268   3.105   3.248   0.586  0.2183 -0.1841  0.0890
 1708SOL    HW1 5269   3.093   3.213   0.497 -1.3344 -1.7914  0.8786
 1708SOL    HW2 5270   3.164   3.322   0.574  1.2350 -1.2302 -2.1042
 1709SOL     OW 5271   0.152   2.742   0.814 -0.4965 -0.0517 -0.4653
 1709SOL    HW1 5272   0.172   2.652   0.786  1.3794  0.4024 -0.7379
 1709SOL    HW2 5273   0.180   2.796   0.740 -0.4017  0.8453  0.2131
 1710SOL     OW 5274   3.585   3.449   2.599 -0.0477  0.4640 -0.3028
 1710SOL    HW1 5275   3.678   3.428   2.586 -0.4200  0.5734 -4.3797
 1710SOL    HW2 5276   3.540   3.365   2.589 -0.4836  0.1421  3.0389
 1711SOL     OW 5277   2.529   2.087   0.300 -0.4760 -0.2562  0.0614
 1711SOL    HW1 5278   2.458   2.119   0.244 -1.1917  1.0229  1.6078
 1711SOL    HW2 5279   2.527   2.145   0.377  1.2917 -1.1280  0.8299
 1712SOL     OW 5280   1.996   3.593   1.939 -0.3678 -0.0299 -0.3570
 1712SOL    HW1 5281   2.048   3.668   1.910  0.4200  0.1112  1.3101
 1712SOL    HW2 5282   2.003   3.594   2.034 -3.8643  0.2976  0.0422
 1713SOL     OW 5283   1.625   1.075   3.486 -0.2913  0.0920 -0.1217
 1713SOL    HW1 5284   1.650   0.991   3.526  0.1135 -0.4288 -1.4051
 1713SOL    HW2 5285   1.541   1.097   3.526  1.3819  1.1208  3.2114
 1714SOL     OW 5286   2.472   2.576   1.574 -0.1915  0.1765 -0.5451
 1714SOL    HW1 5287   2.416   2.648   1.544  1.8392  1.0934 -2.4676
 1714SOL    HW2 5288   2.499   2.602   1.662 -0.4628  1.1653 -0.7362
 1715SOL     OW 5289   1.469   3.392   3.529 -0.8144  0.1293 -0.6831
 1715SOL    HW1 5290   1.454   3.388   3.624  2.3188  2.4461  0.0449
 1715SOL    HW2 5291   1.389   3.431   3.495 -1.8386 -0.3428  1.0258
 1716SOL     OW 5292   2.651   2.457   0.672  0.0028  0.2613  0.4251
 1716SOL    HW1 5293   2.559   2.451   0.698  0.6584  0.0988  2.9769
 1716SOL    HW2 5294   2.699   2.411   0.742  1.8776 -2.0993 -2.2015
 1717SOL     OW 5295   3.666   2.252   1.962  0.4288 -0.2492  0.0562
 1717SOL    HW1 5296   3.727   2.254   2.036  0.1410  2.5768  0.3271
 1717SOL    HW2 5297   3.700   2.319   1.902 -2.9833  2.5267  0.8565
 1718SOL     OW 5298   1.769   1.608   2.007 -0.1490 -0.7607 -0.0149
 1718SOL    HW1 5299   1.827   1.548   2.054  0.1706 -0.9511 -0.6395
 1718SOL    HW2 5300   1.823   1.643   1.936 -0.0256  1.0648  0.9398
 1719SOL     OW 5301   0.488   3.110   2.405 -0.8093 -0.6229  0.8192
 1719SOL    HW1 5302   0.534   3.080   2.327 -1.8668  0.0916 -0.1014
 1719SOL    HW2 5303   0.490   3.035   2.465  1.4709 -0.6315  0.8089
 1720SOL     OW 5304   1.834   0.829   2.406 -0.5706 -0.7894  0.0619
 1720SOL    HW1 5305   1.835   0.813   2.500 -2.0999 -2.0782 -0.0888
 1720SOL    HW2 5306   1.753   0.788   2.376 -2.2488  3.0358 -1.2575
 1721SOL     OW 5307   1.326   2.857   2.875  0.1975 -0.1633 -0.0983
 1721SOL    HW1 5308   1.241   2.816   2.860  0.7388 -1.1017 -0.7760
 1721SOL    HW2 5309   1.307   2.936   2.926 -1.2375  0.4191 -1.4551
 1722SOL     OW 5310   0.798   0.287   1.933 -0.3999  0.2164  0.4241
 1722SOL    HW1 5311   0.834   0.222   1.872 -0.7574  0.7180 -0.3407
 1722SOL    HW2 5312   0.875   0.327   1.973 -0.1144 -2.8084  3.3231
 1723SOL     OW 5313   2.929   3.545   3.045  0.3780  0.1724  0.7136
 1723SOL    HW1 5314   3.020   3.525   3.070  0.5896 -1.7522 -1.2919
 1723SOL    HW2 5315   2.929   3.543   2.950 -1.7108  0.5442  0.6535
 1724SOL     OW 5316   3.522   1.639   1.406  0.0003  0.7293 -0.4964
 1724SOL    HW1 5317   3.539   1.615   1.497  0.3758 -1.5269 -1.0840
 1724SOL    HW2 5318   3.605   1.621   1.361 -0.6176  0.3661 -1.5303
 1725SOL     OW 5319   1.017   0.060   3.511  0.1890  0.5686 -0.3899
 1725SOL    HW1 5320   1.004   0.052   3.606 -0.2896 -1.1756 -0.5706
 1725SOL    HW2 5321   0.932   0.089   3.478 -0.2696 -0.7922 -0.4720
 1726SOL     OW 5322   3.200   2.488   1.268 -0.2523 -0.1080 -0.4124
 1726SOL    HW1 5323   3.201   2.502   1.362 -0.5234 -0.5884 -0.3319
 1726SOL    HW2 5324   3.157   2.566   1.232 -0.2270  0.0358 -0.1318
 1727SOL     OW 5325   0.105   3.225   0.390  0.2304  0.3275 -0.1179
 1727SOL    HW1 5326   0.076   3.261   0.306  0.2967 -1.8656 -1.1367
 1727SOL    HW2 5327   0.032   3.243   0.450 -1.6790 -1.7121 -1.6993
 1728SOL     OW 5328   2.161   3.099   1.519 -0.1083 -0.5098 -0.5678
 1728SOL    HW1 5329   2.096   3.029   1.515 -0.9363  0.1902  0.3207
 1728SOL    HW2 5330   2.226   3.068   1.583 -0.1460 -0.7224 -0.6298
 1729SOL     OW 5331   0.901   3.400   1.687  0.2539  0.1949  0.4097
 1729SOL    HW1 5332   0.965   3.335   1.715 -0.9796  0.0830  3.3039
 1729SOL    HW2 5333   0.945   3.484   1.699  0.0035  0.1093  2.2139
 1730SOL     OW 5334   3.065   1.912   2.957  0.1692  0.2493  0.1500
 1730SOL    HW1 5335   3.109   1.940   2.877  0.9673 -1.2279  0.0483
 1730SOL    HW2 5336   2.979   1.882   2.929 -0.2822  1.4905  0.1234
 1731SOL     OW 5337   3.082   3.697   2.552 -0.4240 -0.3364  0.6174
 1731SOL    HW1 5338   3.022   3.708   2.478 -0.1159 -1.1276  0.2265
 1731SOL    HW2 5339   3.083   3.781   2.596 -2.3329 -0.4985  1.0238
 1732SOL     OW 5340   2.551   1.581   2.763  0.4638 -0.4011 -0.5704
 1732SOL    HW1 5341   2.522   1.589   2.672  2.0100  0.0897 -1.0491
 1732SOL    HW2 5342   2.471   1.587   2.814 -0.4458 -0.7475 -1.8956
 1733SOL     OW 5343   2.783   0.637   0.979  0.5232  0.1266  0.2685
 1733SOL    HW1 5344   2.867   0.646   0.934 -0.7246  0.3691 -2.1947
 1733SOL    HW2 5345   2.768   0.723   1.018  1.2167  0.2208  0.3441
 1734SOL     OW 5346   3.365   1.117   3.033  0.2559 -0.1180 -0.4307
 1734SOL    HW1 5347   3.360   1.179   3.105  0.5903 -1.3682  0.7098
 1734SOL    HW2 5348   3.302   1.049   3.055  0.4705 -0.5992 -1.2388
 1735SOL     OW 5349   0.394   3.061   3.600 -0.5001  0.0073 -0.1260
 1735SOL    HW1 5350   0.433   3.052   3.513  0.3317 -0.4700  0.2840
 1735SOL    HW2 5351   0.304   3.088   3.583 -0.4553 -0.4401 -1.1490
 1736SOL     OW 5352   3.020   3.092   0.800  0.1275  0.0977  0.1467
 1736SOL    HW1 5353   3.031   2.997   0.793  2.9418  0.3100  0.3343
 1736SOL    HW2 5354   3.047   3.125   0.714 -0.4041  0.7711  0.2276
 1737SOL     OW 5355   0.609   0.487   0.854  0.2611 -0.0695 -0.4647
 1737SOL    HW1 5356   0.556   0.422   0.900  1.9592 -1.5216 -0.4267
 1737SOL    HW2 5357   0.616   0.453   0.765 -0.1497  0.9273 -0.8872
 1738SOL     OW 5358   3.199   1.908   2.350  0.5576 -0.3613  0.2348
 1738SOL    HW1 5359   3.143   1.926   2.274  1.8950 -0.5115 -0.8250
 1738SOL    HW2 5360   3.194   1.987   2.403  3.0690  1.6775 -2.2597
 1739SOL     OW 5361   0.411   1.104   0.939  0.6932  0.0876  0.1290
 1739SOL    HW1 5362   0.408   1.169   1.009 -1.8560  1.9129 -1.5075
 1739SOL    HW2 5363   0.333   1.050   0.952 -0.3820  1.0738 -1.7477
 1740SOL     OW 5364   0.097   2.470   0.863 -0.3780  0.5075 -0.0408
 1740SOL    HW1 5365   0.063   2.422   0.788 -0.6726  0.1499  0.3108
 1740SOL    HW2 5366   0.047   2.434   0.938 -0.9805  1.7267  0.1610
 1741SOL     OW 5367   0.801   3.247   3.547  0.3254 -0.0229  0.7487
 1741SOL    HW1 5368   0.854   3.316   3.587 -2.6164  0.4340  4.4303
 1741SOL    HW2 5369   0.735   3.293   3.496  1.4066 -0.4393 -1.0958
 1742SOL     OW 5370   3.238   3.715   0.442  0.1588  0.2275  0.2180
 1742SOL    HW1 5371   3.273   3.678   0.361  0.6609 -0.6519  0.8095
 1742SOL    HW2 5372   3.315   3.753   0.485 -0.1423  0.8780  0.1966
 1743SOL     OW 5373   2.477   2.619   0.179 -0.5324 -0.0872  0.2129
 1743SOL    HW1 5374   2.420   2.662   0.116 -0.9520 -0.1434  0.5458
 1743SOL    HW2 5375   2.430   2.626   0.262  0.0913  0.1393  0.5534
 1744SOL     OW 5376   3.261   0.240   3.302  0.4352 -0.4396 -0.4516
 1744SOL    HW1 5377   3.328   0.181   3.335  0.9759 -0.0562 -0.8372
 1744SOL    HW2 5378   3.303   0.326   3.303  0.0072 -0.2219 -0.8702
 1745SOL     OW 5379   0.667   1.912   1.177 -0.0335 -0.5995  0.9385
 1745SOL    HW1 5380   0.585   1.946   1.142  1.1291  2.4405  0.8048
 1745SOL    HW2 5381   0.735   1.961   1.129  1.8427 -2.3448  1.6749
 1746SOL     OW 5382  -0.009   3.268   2.247  0.5768  0.1993 -0.0768
 1746SOL    HW1 5383   0.010   3.201   2.312  1.3342 -0.9545 -1.4440
 1746SOL    HW2 5384   0.002   3.351   2.294 -0.3876 -0.5896  1.6452
 1747SOL     OW 5385   2.752   2.168   0.010  0.0722  0.9298 -0.2632
 1747SOL    HW1 5386   2.816   2.221  -0.037 -2.0902  3.8121 -0.1643
 1747SOL    HW2 5387   2.781   2.172   0.101 -0.5595  2.7668 -0.1212
 1748SOL     OW 5388   0.195   1.626   2.038  0.2388 -0.5211 -0.2749
 1748SOL    HW1 5389   0.187   1.715   2.005 -1.0525 -0.6482 -0.3478
 1748SOL    HW2 5390   0.288   1.606   2.031  0.9271  1.5358  1.6278
 1749SOL     OW 5391   0.043   3.342   3.232 -0.4903 -0.2181  0.1031
 1749SOL    HW1 5392   0.105   3.392   3.284 -0.0162 -0.2114 -0.4554
 1749SOL    HW2 5393  -0.025   3.317   3.294  1.5203 -2.8097  1.4793
 1750SOL     OW 5394   0.623   2.030   2.375 -0.0812 -0.5461  0.0408
 1750SOL    HW1 5395   0.634   1.982   2.456 -0.3795  0.0707  0.4565
 1750SOL    HW2 5396   0.650   2.120   2.396  0.4814 -0.5245 -0.7170
 1751SOL     OW 5397   2.464   1.927   2.684  0.6380  0.5123 -0.1872
 1751SOL    HW1 5398   2.391   1.927   2.621  1.5163  0.6657 -1.2351
 1751SOL    HW2 5399   2.423   1.906   2.768 -0.5773  0.3387 -0.7981
 1752SOL     OW 5400   0.403   3.312   2.184  0.4594  0.4584 -0.5393
 1752SOL    HW1 5401   0.454   3.289   2.262 -0.4652  2.5394  0.7724
 1752SOL    HW2 5402   0.457   3.376   2.138  1.1243 -0.9675 -1.8163
 1753SOL     OW 5403   1.281   2.374   0.055 -0.4253  0.1698  1.0210
 1753SOL    HW1 5404   1.345   2.305   0.071 -0.1383  0.0534 -0.5233
 1753SOL    HW2 5405   1.213   2.358   0.120 -1.6879 -3.2174 -0.9075
 1754SOL     OW 5406   1.343   2.156   0.949 -0.2813  0.0778  0.0876
 1754SOL    HW1 5407   1.408   2.179   1.015  1.3918 -0.6534 -1.2185
 1754SOL    HW2 5408   1.267   2.125   0.999 -0.2253  2.3361  1.6856
 1755SOL     OW 5409   1.511   1.990   1.761  0.1171 -0.4497 -0.7923
 1755SOL    HW1 5410   1.482   1.936   1.834  1.2938 -0.1084 -0.0619
 1755SOL    HW2 5411   1.504   2.080   1.792 -0.8691 -0.2071 -1.6548
 1756SOL     OW 5412   3.516   1.374   2.203  0.0421  0.1283  0.0613
 1756SOL    HW1 5413   3.564   1.441   2.155  2.0396 -1.6240 -0.5203
 1756SOL    HW2 5414   3.581   1.334   2.261 -0.7284 -2.1352 -0.5368
 1757SOL     OW 5415   0.203   2.860   1.311 -0.0443  0.4100 -0.2154
 1757SOL    HW1 5416   0.242   2.854   1.398  0.0796  3.1778 -0.0034
 1757SOL    HW2 5417   0.109   2.847   1.326  0.2056 -1.4137 -0.0393
 1758SOL     OW 5418   2.023   0.811   0.484 -0.6651  0.4609  0.3837
 1758SOL    HW1 5419   1.972   0.865   0.423 -1.0692  0.3982  0.6574
 1758SOL    HW2 5420   2.029   0.864   0.564  0.3259  0.7697  0.1141
 1759SOL     OW 5421   2.839   1.058   2.731  0.1742  0.1217  0.4835
 1759SOL    HW1 5422   2.844   1.145   2.690  0.5212 -0.5710 -1.0105
 1759SOL    HW2 5423   2.756   1.022   2.699  0.3957 -0.3847  0.4808
 1760SOL     OW 5424   1.909   2.114   3.013  0.4289 -0.2755 -0.0388
 1760SOL    HW1 5425   1.922   2.189   3.071  0.4921 -2.5352  3.1535
 1760SOL    HW2 5426   1.997   2.079   2.998  0.3005 -0.4448 -0.4176
 1761SOL     OW 5427   3.000   2.369   1.458 -0.1188 -0.6218  0.0889
 1761SOL    HW1 5428   2.988   2.448   1.406 -1.3702  0.0866  1.3883
 1761SOL    HW2 5429   2.951   2.301   1.412  1.2030 -0.7479 -1.1911
 1762SOL     OW 5430   0.751   3.627   1.566  0.3730 -0.0001  0.0242
 1762SOL    HW1 5431   0.682   3.642   1.502 -0.1290 -1.5417  0.1552
 1762SOL    HW2 5432   0.829   3.611   1.513  0.3171  0.2991 -0.1535
 1763SOL     OW 5433   3.439   2.571   0.507 -0.1540 -0.6098  0.0741
 1763SOL    HW1 5434   3.376   2.525   0.562 -0.3261  1.2787  1.5304
 1763SOL    HW2 5435   3.506   2.601   0.568  0.0610  0.8749 -0.8589
 1764SOL     OW 5436   2.925   1.047   0.608  0.0633 -0.5827  0.0545
 1764SOL    HW1 5437   2.865   0.973   0.604  0.5849 -0.9617 -2.3517
 1764SOL    HW2 5438   3.013   1.008   0.606  0.3467  0.0547 -0.7130
 1765SOL     OW 5439   0.165   1.126   3.467  0.0065 -0.3117  0.8900
 1765SOL    HW1 5440   0.205   1.043   3.439 -3.8591 -1.0360 -3.7703
 1765SOL    HW2 5441   0.233   1.192   3.451  1.5872 -2.0682 -0.0264
 1766NA      NA 5442   2.969   1.682   1.698 -0.1024 -0.1655  0.3586
 1767NA      NA 5443   2.643   1.229   0.115  0.2005 -0.1094 -0.6337
   3.74170   3.74170   3.74170
