Good ROcking Metal Altar for Chronical Sinners
  166
    0TYR      N    1   0.155  -1.189  -0.493
    0TYR     H1    2   0.131  -1.284  -0.474
    0TYR     H2    3   0.129  -1.131  -0.415
    0TYR     H3    4   0.253  -1.181  -0.510
    0TYR     CA    5   0.081  -1.144  -0.612
    0TYR     HA    6   0.094  -1.212  -0.695
    0TYR     CB    7  -0.067  -1.156  -0.573
    0TYR    HB1    8  -0.069  -1.082  -0.505
    0TYR    HB2    9  -0.088  -1.258  -0.542
    0TYR     CG   10  -0.182  -1.117  -0.664
    0TYR    CD1   11  -0.292  -1.046  -0.609
    0TYR    HD1   12  -0.293  -0.997  -0.510
    0TYR    CE1   13  -0.413  -1.035  -0.678
    0TYR    HE1   14  -0.490  -0.984  -0.643
    0TYR     CZ   15  -0.423  -1.110  -0.803
    0TYR     OH   16  -0.538  -1.117  -0.873
    0TYR     HH   17  -0.594  -1.046  -0.846
    0TYR    CD2   18  -0.192  -1.174  -0.793
    0TYR    HD2   19  -0.105  -1.224  -0.828
    0TYR    CE2   20  -0.315  -1.178  -0.854
    0TYR    HE2   21  -0.315  -1.237  -0.944
    0TYR      C   22   0.124  -0.998  -0.633
    0TYR      O   23   0.204  -0.939  -0.557
    1TYR      N   24   0.068  -0.926  -0.729
    1TYR     HN   25  -0.002  -0.973  -0.783
    1TYR     CA   26   0.094  -0.784  -0.770
    1TYR     HA   27   0.146  -0.735  -0.692
    1TYR     CB   28   0.169  -0.794  -0.903
    1TYR    HB1   29   0.113  -0.848  -0.966
    1TYR    HB2   30   0.269  -0.832  -0.875
    1TYR     CG   31   0.203  -0.658  -0.964
    1TYR    CD1   32   0.321  -0.601  -0.902
    1TYR    HD1   33   0.383  -0.653  -0.823
    1TYR    CE1   34   0.352  -0.465  -0.923
    1TYR    HE1   35   0.428  -0.420  -0.867
    1TYR     CZ   36   0.283  -0.389  -1.016
    1TYR     OH   37   0.321  -0.263  -1.054
    1TYR     HH   38   0.414  -0.242  -1.051
    1TYR    CD2   39   0.128  -0.578  -1.053
    1TYR    HD2   40   0.048  -0.617  -1.107
    1TYR    CE2   41   0.169  -0.446  -1.083
    1TYR    HE2   42   0.114  -0.386  -1.146
    1TYR      C   43  -0.041  -0.707  -0.796
    1TYR      O   44  -0.114  -0.740  -0.893
    2ASP      N   45  -0.057  -0.595  -0.719
    2ASP     HN   46   0.002  -0.563  -0.645
    2ASP     CA   47  -0.176  -0.504  -0.744
    2ASP     HA   48  -0.254  -0.554  -0.794
    2ASP     CB   49  -0.236  -0.448  -0.616
    2ASP    HB1   50  -0.167  -0.396  -0.565
    2ASP    HB2   51  -0.278  -0.541  -0.561
    2ASP     CG   52  -0.359  -0.358  -0.646
    2ASP    OD1   53  -0.473  -0.412  -0.662
    2ASP    OD2   54  -0.339  -0.237  -0.644
    2ASP      C   55  -0.130  -0.385  -0.839
    2ASP      O   56  -0.027  -0.324  -0.813
    3PRO      N   57  -0.216  -0.352  -0.938
    3PRO     CD   58  -0.323  -0.430  -0.992
    3PRO    HD1   59  -0.288  -0.535  -1.000
    3PRO    HD2   60  -0.417  -0.428  -0.940
    3PRO     CA   61  -0.175  -0.249  -1.031
    3PRO     HA   62  -0.069  -0.234  -1.039
    3PRO     CB   63  -0.226  -0.303  -1.173
    3PRO    HB1   64  -0.150  -0.373  -1.215
    3PRO    HB2   65  -0.237  -0.226  -1.254
    3PRO     CG   66  -0.350  -0.374  -1.126
    3PRO    HG1   67  -0.383  -0.454  -1.195
    3PRO    HG2   68  -0.423  -0.285  -1.128
    3PRO      C   69  -0.229  -0.110  -1.005
    3PRO      O   70  -0.187  -0.015  -1.066
    4GLU      N   71  -0.325  -0.103  -0.912
    4GLU     HN   72  -0.362  -0.184  -0.867
    4GLU     CA   73  -0.387   0.028  -0.864
    4GLU     HA   74  -0.410   0.103  -0.943
    4GLU     CB   75  -0.523  -0.008  -0.813
    4GLU    HB1   76  -0.508  -0.050  -0.723
    4GLU    HB2   77  -0.571  -0.071  -0.881
    4GLU     CG   78  -0.618   0.118  -0.803
    4GLU    HG1   79  -0.598   0.181  -0.878
    4GLU    HG2   80  -0.604   0.168  -0.709
    4GLU     CD   81  -0.762   0.066  -0.808
    4GLU    OE1   82  -0.857   0.151  -0.831
    4GLU    OE2   83  -0.790  -0.052  -0.780
    4GLU      C   84  -0.298   0.099  -0.763
    4GLU      O   85  -0.284   0.225  -0.764
    5THR      N   86  -0.227   0.022  -0.681
    5THR     HN   87  -0.230  -0.075  -0.705
    5THR     CA   88  -0.146   0.052  -0.563
    5THR     HA   89  -0.159   0.158  -0.522
    5THR     CB   90  -0.166  -0.044  -0.446
    5THR     HB   91  -0.121  -0.146  -0.474
    5THR    OG1   92  -0.300  -0.080  -0.425
    5THR    HG1   93  -0.320  -0.140  -0.494
    5THR    CG2   94  -0.110   0.001  -0.309
    5THR   HG21   95  -0.120  -0.081  -0.237
    5THR   HG22   96  -0.153   0.096  -0.268
    5THR   HG23   97  -0.007   0.013  -0.316
    5THR      C   98   0.001   0.039  -0.607
    5THR      O   99   0.090   0.111  -0.562
    6GLY      N  100   0.028  -0.040  -0.709
    6GLY     HN  101  -0.041  -0.083  -0.767
    6GLY     CA  102   0.168  -0.070  -0.744
    6GLY    HA1  103   0.217   0.026  -0.744
    6GLY    HA2  104   0.169  -0.126  -0.835
    6GLY      C  105   0.247  -0.163  -0.652
    6GLY      O  106   0.357  -0.121  -0.629
    7THR      N  107   0.190  -0.261  -0.584
    7THR     HN  108   0.102  -0.302  -0.610
    7THR     CA  109   0.253  -0.322  -0.460
    7THR     HA  110   0.353  -0.296  -0.460
    7THR     CB  111   0.194  -0.261  -0.329
    7THR     HB  112   0.098  -0.297  -0.315
    7THR    OG1  113   0.184  -0.128  -0.340
    7THR    HG1  114   0.262  -0.092  -0.389
    7THR    CG2  115   0.275  -0.295  -0.201
    7THR   HG21  116   0.258  -0.221  -0.120
    7THR   HG22  117   0.382  -0.291  -0.216
    7THR   HG23  118   0.257  -0.395  -0.162
    7THR      C  119   0.250  -0.470  -0.466
    7THR      O  120   0.144  -0.529  -0.496
    8TRP      N  121   0.357  -0.540  -0.431
    8TRP     HN  122   0.442  -0.491  -0.410
    8TRP     CA  123   0.365  -0.685  -0.419
    8TRP     HA  124   0.290  -0.728  -0.490
    8TRP     CB  125   0.499  -0.744  -0.458
    8TRP    HB1  126   0.492  -0.843  -0.451
    8TRP    HB2  127   0.572  -0.706  -0.393
    8TRP     CG  128   0.539  -0.715  -0.603
    8TRP    CD1  129   0.561  -0.799  -0.709
    8TRP    HD1  130   0.541  -0.905  -0.707
    8TRP    NE1  131   0.623  -0.735  -0.821
    8TRP    HE1  132   0.650  -0.780  -0.910
    8TRP    CE2  133   0.644  -0.601  -0.790
    8TRP    CD2  134   0.588  -0.587  -0.659
    8TRP    CE3  135   0.606  -0.454  -0.611
    8TRP    HE3  136   0.579  -0.436  -0.508
    8TRP    CZ3  137   0.674  -0.346  -0.669
    8TRP    HZ3  138   0.675  -0.252  -0.613
    8TRP    CZ2  139   0.694  -0.492  -0.860
    8TRP    HZ2  140   0.747  -0.513  -0.953
    8TRP    CH2  141   0.716  -0.369  -0.797
    8TRP    HH2  142   0.774  -0.288  -0.846
    8TRP      C  143   0.317  -0.732  -0.278
    8TRP      O  144   0.366  -0.689  -0.173
    9TYR      N  145   0.229  -0.835  -0.276
    9TYR     HN  146   0.202  -0.875  -0.364
    9TYR     CA  147   0.169  -0.897  -0.163
    9TYR     HA  148   0.206  -0.835  -0.074
    9TYR     CB  149   0.020  -0.896  -0.178
    9TYR    HB1  150  -0.020  -0.955  -0.107
    9TYR    HB2  151  -0.005  -0.935  -0.278
    9TYR     CG  152  -0.039  -0.752  -0.161
    9TYR    CD1  153  -0.062  -0.675  -0.270
    9TYR    HD1  154  -0.037  -0.717  -0.368
    9TYR    CE1  155  -0.097  -0.543  -0.249
    9TYR    HE1  156  -0.104  -0.484  -0.340
    9TYR     CZ  157  -0.124  -0.489  -0.127
    9TYR     OH  158  -0.170  -0.362  -0.116
    9TYR     HH  159  -0.182  -0.326  -0.206
    9TYR    CD2  160  -0.075  -0.707  -0.032
    9TYR    HD2  161  -0.064  -0.767   0.057
    9TYR    CE2  162  -0.120  -0.574  -0.020
    9TYR    HE2  163  -0.153  -0.536   0.079
    9TYR      C  164   0.222  -1.042  -0.140
    9TYR    OT1  165   0.289  -1.064  -0.210
    9TYR    OT2  166   0.177  -1.081  -0.059
   1.63100   1.50870   1.33210
