Protein in water
 5447
    0GLN      N    1   3.488   0.111   1.879  0.2215  0.2600  0.5472
    0GLN     H1    2   3.511   0.201   1.927 -2.7085  1.2053  0.3760
    0GLN     H2    3   3.384   0.105   1.883  0.2842 -0.7373  1.2567
    0GLN     H3    4   3.495   0.130   1.777 -0.7689  0.0044  0.4225
    0GLN     CA    5   3.562  -0.014   1.925 -0.4782 -0.1159 -0.8012
    0GLN     HA    6   3.546  -0.017   2.031 -1.0138 -0.3729 -0.8904
    0GLN     CB    7   3.500  -0.144   1.852  0.2564 -0.6695  0.1288
    0GLN    HB1    8   3.567  -0.228   1.883  0.4082 -0.9183 -0.8265
    0GLN    HB2    9   3.515  -0.134   1.742  0.8550 -1.5753  0.1151
    0GLN     CG   10   3.355  -0.175   1.880  0.3612  0.4576  0.9335
    0GLN    HG1   11   3.348  -0.197   1.988 -0.4703 -0.7354  0.6552
    0GLN    HG2   12   3.282  -0.095   1.855 -0.9304 -1.6709 -2.8792
    0GLN     CD   13   3.310  -0.305   1.805  0.0722 -0.3054 -0.0707
    0GLN    OE1   14   3.291  -0.415   1.860  0.1239  0.1596  0.5956
    0GLN    NE2   15   3.268  -0.285   1.676 -0.0029 -0.9204 -0.3163
    0GLN   HE21   16   3.274  -0.202   1.621  0.1059 -1.5271 -1.2614
    0GLN   HE22   17   3.256  -0.365   1.617 -1.8910 -0.6002 -0.4338
    0GLN      C   18   3.721   0.001   1.912 -0.8485  0.2574 -0.8228
    0GLN      O   19   3.785   0.093   1.967 -0.3798 -0.4435 -0.4933
    1TYR      N   20   3.790  -0.096   1.844 -0.1491 -0.6590 -0.0149
    1TYR     HN   21   3.746  -0.155   1.777  1.5595 -0.2942 -1.5208
    1TYR     CA   22   3.935  -0.109   1.853 -0.6329  0.6685 -0.3984
    1TYR     HA   23   3.986  -0.021   1.888  0.6774 -0.2538  0.0758
    1TYR     CB   24   3.975  -0.231   1.945  0.0184  0.1486 -0.1249
    1TYR    HB1   25   3.949  -0.333   1.909 -0.1378 -0.1687  0.8583
    1TYR    HB2   26   3.913  -0.219   2.037 -0.6547 -1.3234 -0.3531
    1TYR     CG   27   4.114  -0.227   1.990  0.2083 -0.7398  0.7149
    1TYR    CD1   28   4.186  -0.346   1.992 -0.3853 -0.3731  0.2738
    1TYR    HD1   29   4.149  -0.434   1.941  1.2474  1.4049 -4.5174
    1TYR    CE1   30   4.318  -0.348   2.031  0.1118 -0.7314 -0.2086
    1TYR    HE1   31   4.363  -0.446   2.032  0.5430 -0.5307  0.8739
    1TYR     CZ   32   4.378  -0.228   2.080  0.0205 -0.0185 -0.4641
    1TYR     OH   33   4.509  -0.224   2.124 -0.3294 -0.4523  0.0835
    1TYR     HH   34   4.542  -0.314   2.120 -2.0964 -1.1288 -0.3244
    1TYR    CD2   35   4.173  -0.111   2.041 -0.3135 -0.2992 -0.8352
    1TYR    HD2   36   4.116  -0.020   2.053  2.1406  1.2542 -0.2589
    1TYR    CE2   37   4.301  -0.108   2.083  0.0829 -0.1020  0.6380
    1TYR    HE2   38   4.342  -0.022   2.133  0.8557  1.4675 -2.4369
    1TYR      C   39   4.001  -0.127   1.719 -0.4588 -0.3163 -0.2355
    1TYR      O   40   3.968  -0.226   1.653 -0.3168 -0.1393 -0.6407
    2ASP      N   41   4.096  -0.035   1.679  0.4436  1.3630 -0.3915
    2ASP     HN   42   4.117   0.048   1.730 -2.5602  1.6688  0.5142
    2ASP     CA   43   4.169  -0.053   1.559 -0.1443 -0.4282 -0.1972
    2ASP     HA   44   4.094  -0.069   1.483  0.0611  0.8566 -0.6989
    2ASP     CB   45   4.225   0.085   1.526 -0.4410 -0.2193 -0.1234
    2ASP    HB1   46   4.291   0.116   1.611 -0.5541  0.7165 -0.3606
    2ASP    HB2   47   4.141   0.158   1.517  0.7133  1.0641 -0.8712
    2ASP     CG   48   4.305   0.097   1.394  0.1782  0.1832 -1.0749
    2ASP    OD1   49   4.429   0.126   1.390  0.2008 -0.5151 -0.4484
    2ASP    OD2   50   4.234   0.091   1.292  0.0600 -0.1711 -0.1760
    2ASP      C   51   4.286  -0.155   1.557  0.8821 -0.3318 -0.1477
    2ASP      O   52   4.371  -0.152   1.646 -0.0281  0.6615  0.1708
    3PRO      N   53   4.300  -0.237   1.455 -0.0655 -0.1503 -0.0954
    3PRO     CD   54   4.198  -0.266   1.356  0.2822  0.1641  0.0431
    3PRO    HD1   55   4.111  -0.307   1.413  1.6812 -1.7270  0.9025
    3PRO    HD2   56   4.171  -0.174   1.299  1.2693  1.0224  0.9211
    3PRO     CA   57   4.392  -0.347   1.465  0.8773  0.0335  0.6140
    3PRO     HA   58   4.385  -0.377   1.569 -1.4727 -3.3273 -0.3537
    3PRO     CB   59   4.334  -0.455   1.369 -0.2066  0.4103  0.4850
    3PRO    HB1   60   4.260  -0.517   1.424 -1.5116 -1.6124 -3.1760
    3PRO    HB2   61   4.406  -0.517   1.312 -0.8199  0.4233 -0.3300
    3PRO     CG   62   4.253  -0.377   1.265  0.6270  0.1360 -0.7498
    3PRO    HG1   63   4.168  -0.431   1.217 -0.6997 -0.3688  1.9815
    3PRO    HG2   64   4.327  -0.331   1.196  1.6300 -0.4800 -0.1146
    3PRO      C   65   4.535  -0.305   1.426 -0.1182 -0.5546  0.0536
    3PRO      O   66   4.628  -0.381   1.462 -0.6018 -0.1958 -0.1937
    4GLU      N   67   4.554  -0.195   1.352 -0.4203  0.2232  0.0237
    4GLU     HN   68   4.480  -0.135   1.323 -1.2860  0.6044  2.6893
    4GLU     CA   69   4.680  -0.156   1.300 -0.3496 -0.0546 -0.2351
    4GLU     HA   70   4.741  -0.240   1.271 -1.4520 -1.0180  0.1690
    4GLU     CB   71   4.644  -0.074   1.172 -0.2267  0.6412 -0.5415
    4GLU    HB1   72   4.578   0.010   1.202 -2.5534 -1.0616 -0.6053
    4GLU    HB2   73   4.577  -0.139   1.111  0.2985  0.4429 -0.9160
    4GLU     CG   74   4.772  -0.021   1.096 -0.2673 -0.2151 -0.3368
    4GLU    HG1   75   4.817  -0.085   1.018  0.3848  2.0803 -1.9503
    4GLU    HG2   76   4.854   0.008   1.165  1.5307 -2.2962 -1.5293
    4GLU     CD   77   4.733   0.106   1.010 -0.2743  0.2137 -0.5850
    4GLU    OE1   78   4.734   0.224   1.059  0.4277 -0.3580  0.1687
    4GLU    OE2   79   4.684   0.085   0.897 -0.0698  0.1470  0.1810
    4GLU      C   80   4.764  -0.070   1.395  1.4554 -0.9761 -0.4231
    4GLU      O   81   4.882  -0.092   1.411  0.5008  0.3749  0.4587
    5THR      N   82   4.700   0.029   1.458 -0.1718 -0.6357 -0.0381
    5THR     HN   83   4.602   0.045   1.443  0.1075  1.7672  0.3065
    5THR     CA   84   4.758   0.121   1.556 -0.3967 -0.4234 -0.5799
    5THR     HA   85   4.865   0.109   1.549 -0.2932 -0.0575  0.3122
    5THR     CB   86   4.733   0.269   1.531 -0.6877 -0.8675  0.1659
    5THR     HB   87   4.774   0.332   1.613  0.0134 -0.3490 -0.5793
    5THR    OG1   88   4.594   0.289   1.520 -0.1504 -0.3846  0.7937
    5THR    HG1   89   4.559   0.219   1.464  0.5454  0.1447 -0.3311
    5THR    CG2   90   4.805   0.317   1.408 -0.2019 -0.3602  0.5020
    5THR   HG21   91   4.795   0.252   1.319  2.8548 -0.0784 -0.1623
    5THR   HG22   92   4.914   0.313   1.431  0.4649  3.5580 -1.2094
    5THR   HG23   93   4.799   0.427   1.395  2.1267 -0.1305  0.8695
    5THR      C   94   4.722   0.095   1.701  0.1304 -0.9448  0.2025
    5THR      O   95   4.775   0.157   1.789 -0.5871  0.1162  0.1891
    6GLY      N   96   4.616   0.014   1.730 -0.4285  0.5743 -0.0655
    6GLY     HN   97   4.568  -0.039   1.660 -0.5876 -0.3307  0.7166
    6GLY     CA   98   4.573  -0.004   1.869  0.2420  1.4082 -0.1197
    6GLY    HA1   99   4.657  -0.001   1.937  1.3240 -1.7589 -1.1541
    6GLY    HA2  100   4.517  -0.096   1.871 -0.8848  2.0492 -0.8496
    6GLY      C  101   4.484   0.107   1.908 -0.2542 -0.7901 -0.1796
    6GLY      O  102   4.470   0.137   2.028 -0.0116 -0.2557 -0.0284
    7THR      N  103   4.430   0.186   1.813 -0.2814 -0.7591  0.3910
    7THR     HN  104   4.431   0.160   1.717 -1.1315  0.0347  0.1517
    7THR     CA  105   4.358   0.312   1.845 -0.0174  0.4703  0.2499
    7THR     HA  106   4.409   0.360   1.927  2.1453 -0.0253 -0.7481
    7THR     CB  107   4.366   0.428   1.744 -0.5163  0.7633 -0.1857
    7THR     HB  108   4.348   0.393   1.640  1.1317  1.9626 -0.9113
    7THR    OG1  109   4.499   0.472   1.730 -0.7927  0.5663 -0.1553
    7THR    HG1  110   4.543   0.412   1.670  1.3403  0.8575  1.0237
    7THR    CG2  111   4.281   0.540   1.792 -0.4987 -0.5448  0.0221
    7THR   HG21  112   4.320   0.565   1.893  2.9271  0.4820 -1.4138
    7THR   HG22  113   4.177   0.504   1.781  0.9745 -4.7761 -2.7767
    7THR   HG23  114   4.291   0.637   1.738 -2.1957  0.0815  0.7695
    7THR      C  115   4.218   0.287   1.887 -0.6571  1.2880  0.9857
    7THR      O  116   4.152   0.236   1.801  0.1506  0.6375 -0.3683
    8TRP      N  117   4.169   0.323   2.004  0.1200 -0.5801  0.8308
    8TRP     HN  118   4.224   0.355   2.080 -2.3121 -0.4478  2.6691
    8TRP     CA  119   4.029   0.316   2.044  0.0572 -0.5661  0.0814
    8TRP     HA  120   3.994   0.216   2.023  1.0522 -1.2644  1.5411
    8TRP     CB  121   4.012   0.327   2.200 -0.3568 -0.3285 -0.5696
    8TRP    HB1  122   3.903   0.334   2.222 -0.3193  3.4891 -0.9436
    8TRP    HB2  123   4.040   0.428   2.235 -1.0293 -0.9540  1.9915
    8TRP     CG  124   4.084   0.220   2.285 -0.3098 -0.2024  0.4806
    8TRP    CD1  125   4.041   0.084   2.305  0.3521  0.4599  0.6893
    8TRP    HD1  126   3.964   0.041   2.243  0.6100  1.0379 -0.0455
    8TRP    NE1  127   4.123   0.026   2.390 -0.5814 -0.2569  0.3567
    8TRP    HE1  128   4.102  -0.063   2.425 -0.8696 -0.0940  0.6055
    8TRP    CE2  129   4.210   0.118   2.442 -0.3489 -0.1574 -0.1926
    8TRP    CD2  130   4.191   0.238   2.376 -0.0045  0.5157 -0.0079
    8TRP    CE3  131   4.261   0.358   2.414 -0.1311 -0.1789  0.4472
    8TRP    HE3  132   4.239   0.456   2.376  2.5922  1.3811  2.5995
    8TRP    CZ3  133   4.363   0.342   2.510 -0.3893 -0.0743 -0.3718
    8TRP    HZ3  134   4.426   0.426   2.535 -0.6148  0.2462 -0.8699
    8TRP    CZ2  135   4.315   0.110   2.531 -0.1798 -0.9548  0.0853
    8TRP    HZ2  136   4.339   0.019   2.584  0.1130  0.2238  2.0631
    8TRP    CH2  137   4.393   0.218   2.564 -0.5023 -0.4048  0.1866
    8TRP    HH2  138   4.456   0.209   2.651 -0.6841 -2.1910  0.1883
    8TRP      C  139   3.942   0.418   1.959 -0.1943  0.4731  0.0500
    8TRP      O  140   3.962   0.536   1.948 -0.5160 -0.2357  0.2989
    9TYR      N  141   3.844   0.374   1.894  0.7648 -0.1923 -0.0814
    9TYR     HN  142   3.828   0.277   1.878  2.1877 -1.0695  3.0841
    9TYR     CA  143   3.746   0.466   1.836  0.3845  0.5183  0.6454
    9TYR     HA  144   3.770   0.569   1.855  1.0068  0.7526 -1.2514
    9TYR     CB  145   3.734   0.427   1.688 -0.1591 -0.1199  0.0279
    9TYR    HB1  146   3.644   0.472   1.641 -0.0241 -0.4715 -0.5753
    9TYR    HB2  147   3.738   0.316   1.679 -0.4445  0.0366 -2.9179
    9TYR     CG  148   3.849   0.485   1.612  0.3347 -0.1809 -0.5100
    9TYR    CD1  149   3.960   0.399   1.589 -0.9537  0.1335  0.1170
    9TYR    HD1  150   3.960   0.293   1.608 -0.2197 -0.3998 -2.4372
    9TYR    CE1  151   4.075   0.448   1.521  0.4728  0.3682 -0.4984
    9TYR    HE1  152   4.154   0.375   1.516 -0.1524 -0.2345 -2.6503
    9TYR     CZ  153   4.079   0.580   1.479  0.6578  0.2163 -0.0295
    9TYR     OH  154   4.194   0.640   1.428 -0.4705  0.1526 -0.3654
    9TYR     HH  155   4.254   0.569   1.405 -0.6956 -1.0096  2.3576
    9TYR    CD2  156   3.852   0.617   1.576  0.2856  1.1583 -0.1828
    9TYR    HD2  157   3.771   0.684   1.602  1.3005  2.0240  0.8281
    9TYR    CE2  158   3.968   0.663   1.518 -0.2062 -0.3775  0.3029
    9TYR    HE2  159   3.964   0.770   1.500 -0.5299 -0.8166 -2.9287
    9TYR      C  160   3.610   0.426   1.890  0.4968 -0.4938 -0.4391
    9TYR    OT1  161   3.595   0.344   1.985 -0.5521 -0.2152 -0.9146
    9TYR    OT2  162   3.517   0.499   1.849  0.8567 -0.5129 -0.4393
   10SOL     OW  163   1.831   2.389   3.270 -0.3825  0.0498 -0.1394
   10SOL    HW1  164   1.807   2.480   3.252  0.2127  0.3072  0.3358
   10SOL    HW2  165   1.906   2.372   3.212 -0.6289 -0.2085 -0.3859
   11SOL     OW  166   1.577   0.962   2.180  0.4338 -0.5402 -0.1665
   11SOL    HW1  167   1.619   1.025   2.122 -1.1617  1.9934  1.2733
   11SOL    HW2  168   1.524   0.907   2.122  0.0552  0.9417 -1.2721
   12SOL     OW  169   1.722   3.636   1.564 -0.3526  0.3113  0.1059
   12SOL    HW1  170   1.656   3.683   1.513  1.2540  0.3338 -2.1129
   12SOL    HW2  171   1.695   3.545   1.559 -1.5491  0.5653  1.3937
   13SOL     OW  172   1.048   1.497   2.676  0.2199  0.6214  0.5945
   13SOL    HW1  173   1.030   1.591   2.677  1.3105  0.9401 -1.7961
   13SOL    HW2  174   1.133   1.489   2.633 -0.2492 -1.5077 -0.0814
   14SOL     OW  175   2.899   3.106   2.266 -0.6239  0.6213  0.0951
   14SOL    HW1  176   2.985   3.127   2.230  0.1443  0.2581  1.6325
   14SOL    HW2  177   2.849   3.187   2.256 -0.0288  0.9252 -0.5625
   15SOL     OW  178   2.891   0.876   0.600 -0.1342 -0.2998 -1.3023
   15SOL    HW1  179   2.943   0.881   0.681 -0.7366  1.9512 -0.9891
   15SOL    HW2  180   2.955   0.887   0.530  0.0443  0.6229 -1.0000
   16SOL     OW  181   1.629   1.309   2.444 -0.5288  0.0326  0.4623
   16SOL    HW1  182   1.681   1.354   2.510 -0.3082  0.0435  0.2796
   16SOL    HW2  183   1.676   1.227   2.428 -0.6602 -0.0364  0.4237
   17SOL     OW  184   1.813   0.321   1.640  0.1279  0.0916 -0.4625
   17SOL    HW1  185   1.847   0.233   1.622  0.4585 -0.2431  1.6027
   17SOL    HW2  186   1.889   0.372   1.667 -0.4383  0.2269  1.0011
   18SOL     OW  187   0.955   2.183   0.978 -0.0631 -0.6376  0.3618
   18SOL    HW1  188   1.018   2.120   1.011  2.5297  1.9925  0.8655
   18SOL    HW2  189   0.943   2.245   1.050 -1.1101  0.4310 -0.6750
   19SOL     OW  190   1.837   1.318   1.317  0.3884  0.1862  0.4760
   19SOL    HW1  191   1.797   1.344   1.400  1.3258  1.1452  0.6400
   19SOL    HW2  192   1.878   1.397   1.283 -0.1338 -0.1536 -1.0053
   20SOL     OW  193   2.043   2.766   1.857 -0.5972 -0.0538 -0.2484
   20SOL    HW1  194   2.109   2.698   1.871 -0.0691  0.5599  0.2705
   20SOL    HW2  195   2.047   2.783   1.763 -2.2359 -2.2383 -0.8031
   21SOL     OW  196   2.362   2.229   2.647 -0.4975  0.6002 -0.3607
   21SOL    HW1  197   2.452   2.197   2.655 -0.7153  0.3773  1.8759
   21SOL    HW2  198   2.371   2.324   2.641 -0.0823  1.0570  3.9403
   22SOL     OW  199   3.448   1.802   2.337 -0.2877 -0.2455  0.4942
   22SOL    HW1  200   3.524   1.845   2.297  1.5533 -0.8750  3.0746
   22SOL    HW2  201   3.485   1.742   2.402 -2.9998 -0.4333  2.0248
   23SOL     OW  202   1.889   0.100   1.105 -0.1536  0.6321  0.1946
   23SOL    HW1  203   1.907   0.009   1.080 -1.3699  0.2307  0.7164
   23SOL    HW2  204   1.830   0.132   1.037 -0.5540  0.6987  0.5721
   24SOL     OW  205   1.624   3.131   0.131 -0.1922 -0.2161  0.5425
   24SOL    HW1  206   1.601   3.223   0.144  0.8722  0.1120  0.2203
   24SOL    HW2  207   1.717   3.133   0.107 -0.6746 -1.1726 -1.7144
   25SOL     OW  208   1.796   3.439   3.714 -0.2606 -0.3436  0.2063
   25SOL    HW1  209   1.820   3.532   3.715  0.8014 -0.5763 -1.1412
   25SOL    HW2  210   1.732   3.431   3.644 -0.3506 -0.6256  0.3206
   26SOL     OW  211   0.056   1.305   2.781  0.0207  0.2525  0.0342
   26SOL    HW1  212   0.056   1.392   2.740 -0.4835  0.3557  0.2379
   26SOL    HW2  213   0.130   1.307   2.841 -0.8911  1.1089  1.1779
   27SOL     OW  214   3.006   0.196   1.077  0.3965 -0.8980  0.1650
   27SOL    HW1  215   3.011   0.104   1.102  3.5652 -0.8075  0.2542
   27SOL    HW2  216   3.018   0.243   1.159 -0.9427 -0.3690  0.0797
   28SOL     OW  217   3.509   3.555   3.490 -0.0875 -0.2097 -0.7122
   28SOL    HW1  218   3.429   3.515   3.457 -1.1279  0.0956  1.2898
   28SOL    HW2  219   3.482   3.601   3.569  1.8947  0.7652 -0.5413
   29SOL     OW  220   2.405   3.202   2.980 -0.0344  0.0071 -0.5481
   29SOL    HW1  221   2.480   3.238   2.932 -1.7215  2.1477 -1.7689
   29SOL    HW2  222   2.363   3.279   3.019 -0.2584 -1.4134  2.1910
   30SOL     OW  223   3.387   1.570   1.602  0.2805 -0.1077  0.2462
   30SOL    HW1  224   3.333   1.547   1.677  1.8038 -0.8847  1.1514
   30SOL    HW2  225   3.326   1.569   1.527 -0.6038 -2.9060  0.8950
   31SOL     OW  226   2.405   1.227   1.938  0.7038  0.6117 -0.4255
   31SOL    HW1  227   2.346   1.221   2.013  2.3443 -2.1884  0.7745
   31SOL    HW2  228   2.350   1.200   1.864  0.2579 -1.4063  0.5709
   32SOL     OW  229   2.618   0.458   1.605 -0.1490  0.1342  0.6481
   32SOL    HW1  230   2.639   0.490   1.517  2.5896 -0.4865  0.9578
   32SOL    HW2  231   2.639   0.365   1.602 -0.8603 -0.0786  1.7415
   33SOL     OW  232   2.595   2.128   1.573  0.0183 -0.1316 -0.0286
   33SOL    HW1  233   2.668   2.132   1.512  0.7081 -1.8335  0.6198
   33SOL    HW2  234   2.574   2.035   1.579 -0.8109  0.1189  1.4075
   34SOL     OW  235   3.352   2.602   0.969  0.7273 -0.4036 -0.1027
   34SOL    HW1  236   3.441   2.601   1.005  1.4692 -0.2356 -1.8047
   34SOL    HW2  237   3.348   2.682   0.917 -0.9163  0.2965  1.0396
   35SOL     OW  238   1.588   3.117   1.475 -0.0275 -0.2859  0.2039
   35SOL    HW1  239   1.572   3.080   1.389 -2.6487 -0.6024  0.7450
   35SOL    HW2  240   1.648   3.054   1.518  0.6260 -0.5463 -1.0496
   36SOL     OW  241   2.088   1.601   0.070 -0.1651 -0.2244  0.1052
   36SOL    HW1  242   2.078   1.675   0.129 -1.8500 -0.2321 -0.1274
   36SOL    HW2  243   2.069   1.637  -0.017 -0.4027 -0.7979 -0.0846
   37SOL     OW  244   0.008   0.713   3.274 -0.1486  0.4994  0.3348
   37SOL    HW1  245   0.011   0.741   3.366  1.1341 -1.2739  0.8913
   37SOL    HW2  246   0.096   0.681   3.256 -0.9748 -1.3431 -0.7659
   38SOL     OW  247   3.682   1.197   3.583 -0.3325 -0.3799  0.1759
   38SOL    HW1  248   3.777   1.210   3.585 -0.4665  0.6336  2.0671
   38SOL    HW2  249   3.647   1.284   3.566 -0.9499 -0.3691  1.3873
   39SOL     OW  250   3.629   1.234   1.812 -0.4469 -0.2141  0.6905
   39SOL    HW1  251   3.582   1.305   1.855  1.1478  1.0870  0.3778
   39SOL    HW2  252   3.701   1.212   1.873 -0.3401 -0.8823  0.3367
   40SOL     OW  253   2.763   1.826   0.581 -0.1169  0.2922  0.6983
   40SOL    HW1  254   2.802   1.742   0.556  0.6922  0.0558  2.5813
   40SOL    HW2  255   2.763   1.825   0.677 -0.4940  2.2631  0.7626
   41SOL     OW  256   0.424   1.702   1.891  0.7497 -1.2962 -0.2282
   41SOL    HW1  257   0.356   1.746   1.840 -0.4595 -1.8542  0.8285
   41SOL    HW2  258   0.421   1.745   1.977  1.4308 -1.6243 -0.0365
   42SOL     OW  259   2.755   2.575   2.043  0.2250 -0.0851  0.2825
   42SOL    HW1  260   2.784   2.534   2.124 -0.2086 -2.1810 -0.5654
   42SOL    HW2  261   2.662   2.594   2.057  0.2766  0.0368  0.4600
   43SOL     OW  262   0.156   1.978   0.590 -0.4680 -0.1470  0.3229
   43SOL    HW1  263   0.214   2.048   0.559 -0.8698  0.6468  1.3031
   43SOL    HW2  264   0.166   1.979   0.685  0.0898 -1.9560  0.3279
   44SOL     OW  265   2.362   2.045   3.026  0.3932 -0.2866  0.4477
   44SOL    HW1  266   2.423   1.971   3.027  0.8046  0.0360  2.0721
   44SOL    HW2  267   2.399   2.108   3.087  1.5248  2.5617 -2.8518
   45SOL     OW  268   0.245   2.536   3.003  0.2178 -0.8857  0.0532
   45SOL    HW1  269   0.262   2.630   2.999 -0.3373 -0.8170 -1.8947
   45SOL    HW2  270   0.159   2.528   3.045  0.2756 -0.5308  0.2407
   46SOL     OW  271   3.574   1.651   2.500  0.1257  0.0418 -0.0757
   46SOL    HW1  272   3.656   1.628   2.456  1.1878  0.1565  1.7361
   46SOL    HW2  273   3.581   1.610   2.586 -0.9759  1.4561  0.7215
   47SOL     OW  274   3.359   1.029   1.150  0.1863  0.3318  0.7259
   47SOL    HW1  275   3.373   1.091   1.222  0.2790 -0.9996  1.8934
   47SOL    HW2  276   3.436   0.973   1.152 -1.0011 -1.3424  1.2815
   48SOL     OW  277   2.531   1.950   3.520  0.2346  0.2431 -0.0169
   48SOL    HW1  278   2.615   1.997   3.515 -1.1777  2.8608 -0.8523
   48SOL    HW2  279   2.554   1.860   3.498  3.0872  0.4707  1.4779
   49SOL     OW  280   2.420   2.151   2.001  0.1158  0.4791 -0.1630
   49SOL    HW1  281   2.508   2.119   1.981 -0.4950 -1.4202 -0.0583
   49SOL    HW2  282   2.374   2.150   1.917 -0.3170 -0.3350  0.0721
   50SOL     OW  283   3.473   1.402   1.954 -0.2230 -0.0376  0.1022
   50SOL    HW1  284   3.402   1.358   2.001 -0.8958  1.2391  0.3254
   50SOL    HW2  285   3.533   1.432   2.023  0.0577 -0.3034 -0.0239
   51SOL     OW  286   3.051   0.791   3.253 -0.1940  0.3257 -0.3684
   51SOL    HW1  287   3.077   0.853   3.322  1.2766 -0.0099 -0.5842
   51SOL    HW2  288   3.097   0.710   3.276  0.9430  0.4217 -2.1154
   52SOL     OW  289   1.572   2.745   3.713 -0.1597  0.2305 -0.6191
   52SOL    HW1  290   1.612   2.671   3.668 -0.4244  0.3683 -1.0937
   52SOL    HW2  291   1.520   2.705   3.783  1.2717  0.0828  0.4065
   53SOL     OW  292   0.792   1.095   3.671  0.1748  0.0677  0.6462
   53SOL    HW1  293   0.768   1.037   3.599  0.6993  0.7017 -0.0631
   53SOL    HW2  294   0.864   1.148   3.635  1.2201 -0.3789  2.0028
   54SOL     OW  295   1.267   0.707   0.660  0.2681 -0.2778 -0.2794
   54SOL    HW1  296   1.213   0.734   0.734  0.0992 -1.1939 -0.0588
   54SOL    HW2  297   1.226   0.626   0.628  1.9507 -1.4775  0.4095
   55SOL     OW  298   1.992   1.720   3.530 -0.4424 -0.1664 -0.3471
   55SOL    HW1  299   2.072   1.724   3.477 -0.5754 -0.3787 -0.5724
   55SOL    HW2  300   1.939   1.652   3.487 -0.7994  0.0655 -0.2785
   56SOL     OW  301   2.899   3.534   1.655 -0.0379 -0.3602  1.0686
   56SOL    HW1  302   2.936   3.448   1.676  0.8279 -0.8530 -2.0368
   56SOL    HW2  303   2.973   3.594   1.664  0.2992 -0.5512 -0.2938
   57SOL     OW  304   3.219   1.982   0.210  0.5304 -0.5706 -0.7582
   57SOL    HW1  305   3.185   2.021   0.290  0.1509 -1.3333 -0.5374
   57SOL    HW2  306   3.144   1.981   0.150 -0.1437 -3.0275  0.0102
   58SOL     OW  307   2.137   0.062   0.917 -0.1985 -0.3730  0.0140
   58SOL    HW1  308   2.197   0.122   0.961 -0.8421 -0.5176  1.1101
   58SOL    HW2  309   2.109   0.110   0.839  0.7448 -0.0062 -0.1110
   59SOL     OW  310   1.256   2.585   2.592 -0.1755 -0.4190 -0.3868
   59SOL    HW1  311   1.217   2.539   2.666  0.3562  0.4556  0.4589
   59SOL    HW2  312   1.256   2.520   2.521 -2.2775 -0.7408 -0.1551
   60SOL     OW  313   2.991   2.634   3.320  0.1383  0.8021  0.0323
   60SOL    HW1  314   2.972   2.587   3.401 -2.0741 -1.0630 -1.4454
   60SOL    HW2  315   3.005   2.566   3.255  3.2576  2.2355 -0.9858
   61SOL     OW  316   2.571   0.374   1.967  0.6475  0.4514 -0.0949
   61SOL    HW1  317   2.532   0.395   2.052  0.9220 -0.2242  0.2051
   61SOL    HW2  318   2.529   0.292   1.940 -1.3549  1.9518 -1.8677
   62SOL     OW  319   2.492   0.431   2.529 -0.5757  0.0530 -0.5218
   62SOL    HW1  320   2.409   0.462   2.565  0.1484  0.0590  1.2591
   62SOL    HW2  321   2.479   0.337   2.516 -0.3828 -0.2909  1.3865
   63SOL     OW  322   3.216   2.118   1.776 -0.1875  0.3421  0.2689
   63SOL    HW1  323   3.186   2.163   1.855  1.5740  0.6186  0.8240
   63SOL    HW2  324   3.226   2.027   1.802  1.9784  0.7209  0.8712
   64SOL     OW  325   2.305   3.224   0.783 -0.0881  0.1457  0.2737
   64SOL    HW1  326   2.289   3.187   0.870 -1.9855  1.0744  0.3699
   64SOL    HW2  327   2.290   3.150   0.723  0.4218 -0.2904  0.6715
   65SOL     OW  328   1.604   3.036   1.171  0.0435 -0.3648 -0.2074
   65SOL    HW1  329   1.664   3.108   1.157 -0.1774 -0.3138 -0.9424
   65SOL    HW2  330   1.577   3.009   1.083 -2.1397  0.5694  0.0978
   66SOL     OW  331   1.248   0.878   2.947 -0.1625 -0.2969 -0.1790
   66SOL    HW1  332   1.322   0.937   2.960  0.1635 -0.2362 -2.0637
   66SOL    HW2  333   1.181   0.911   3.007  0.9931  0.2026  0.8940
   67SOL     OW  334   3.305   2.024   3.413  0.3158  0.0046 -0.3920
   67SOL    HW1  335   3.312   1.980   3.498  2.3515  0.7685 -0.1202
   67SOL    HW2  336   3.394   2.052   3.392 -0.6255  2.8014 -1.1784
   68SOL     OW  337   1.315   1.622   0.637 -0.0107  0.5597 -0.3722
   68SOL    HW1  338   1.319   1.533   0.672  0.5440  1.1336  1.0913
   68SOL    HW2  339   1.370   1.619   0.558 -1.1336 -0.7110 -1.1482
   69SOL     OW  340   3.699   2.934   2.293 -0.3652  0.1958 -0.2967
   69SOL    HW1  341   3.706   3.003   2.359 -0.1677  0.0947 -0.2098
   69SOL    HW2  342   3.778   2.943   2.240 -0.3708  0.0793 -0.3260
   70SOL     OW  343   2.589   0.061   3.077 -0.0579 -0.2778  0.7087
   70SOL    HW1  344   2.575   0.088   2.986 -0.6573  1.7045  1.3251
   70SOL    HW2  345   2.602  -0.034   3.073 -0.8304 -0.3420 -1.3502
   71SOL     OW  346   3.236   0.968   3.536 -0.5181  0.6090 -0.6512
   71SOL    HW1  347   3.221   0.949   3.628 -2.3498  2.2809 -0.5230
   71SOL    HW2  348   3.329   0.990   3.530 -0.4447  0.8216  0.8741
   72SOL     OW  349   2.243   0.167   0.530 -0.1441  1.2613 -0.3977
   72SOL    HW1  350   2.156   0.159   0.568 -0.0942 -0.9243 -0.6427
   72SOL    HW2  351   2.272   0.077   0.516  2.6787  1.8652  0.8122
   73SOL     OW  352   1.870   3.667   3.518  0.1248 -0.4705  0.4377
   73SOL    HW1  353   1.906   3.598   3.463  1.1749  0.3989 -0.0127
   73SOL    HW2  354   1.785   3.688   3.479  1.4385  1.1232 -1.8232
   74SOL     OW  355   0.048   2.764   2.873  0.0865 -0.3514  0.2713
   74SOL    HW1  356   0.112   2.730   2.810 -1.9650  0.6570 -2.5248
   74SOL    HW2  357   0.072   2.856   2.885 -2.1999  0.8109 -2.9054
   75SOL     OW  358   3.691   2.209   2.711  0.3987 -0.1953 -0.3505
   75SOL    HW1  359   3.756   2.186   2.645  1.1205  2.8017 -0.8381
   75SOL    HW2  360   3.634   2.273   2.667 -0.0994  0.6325  1.4032
   76SOL     OW  361   3.242   2.018   2.112  0.0634  0.4572  0.0121
   76SOL    HW1  362   3.296   1.945   2.142 -0.3092 -0.1572 -0.7759
   76SOL    HW2  363   3.298   2.095   2.122  1.8263 -0.3658 -2.4973
   77SOL     OW  364   1.517   2.838   0.393 -0.2477  0.7367  0.1849
   77SOL    HW1  365   1.606   2.865   0.417  0.1062  1.0788 -1.4075
   77SOL    HW2  366   1.466   2.849   0.473  0.7239  2.4593  0.6147
   78SOL     OW  367   2.220   3.096   2.446  0.1134  0.3241  0.0136
   78SOL    HW1  368   2.216   3.004   2.473  2.1017  0.2563  0.2972
   78SOL    HW2  369   2.175   3.144   2.516  0.7092 -0.3072  0.8627
   79SOL     OW  370   2.655   3.294   2.147  0.0910 -0.5056 -0.5090
   79SOL    HW1  371   2.654   3.253   2.060  1.4077 -0.0938 -0.7426
   79SOL    HW2  372   2.678   3.386   2.130 -0.8775 -0.1236  0.1764
   80SOL     OW  373   0.866   0.400   2.089  0.3346 -0.2962  0.5224
   80SOL    HW1  374   0.871   0.311   2.122 -1.4018 -0.7387 -0.2852
   80SOL    HW2  375   0.796   0.441   2.141  1.0080  0.5565  0.7780
   81SOL     OW  376   1.309   2.898   2.830  0.8514  0.2370 -0.3685
   81SOL    HW1  377   1.345   2.959   2.895  2.0407 -1.3036  0.4868
   81SOL    HW2  378   1.381   2.885   2.767  0.3758  0.2259 -0.9143
   82SOL     OW  379   2.668   0.790   0.829  0.7283  0.5784  0.0498
   82SOL    HW1  380   2.734   0.730   0.794 -0.2672 -0.2147 -0.5612
   82SOL    HW2  381   2.623   0.823   0.751  0.6156  1.3646  0.4369
   83SOL     OW  382   0.210   0.657   2.325 -0.2728  0.6326  0.2729
   83SOL    HW1  383   0.145   0.621   2.264  0.2179  1.0519 -0.5232
   83SOL    HW2  384   0.227   0.587   2.387 -1.6479  0.5838  0.6416
   84SOL     OW  385   1.734   2.157   0.544  0.0397 -0.1552  0.3896
   84SOL    HW1  386   1.801   2.120   0.601  0.5425 -2.2014 -1.4113
   84SOL    HW2  387   1.686   2.082   0.511 -2.1111  1.1625  0.3030
   85SOL     OW  388   2.011   3.040   3.628  0.3197  0.7999 -0.5672
   85SOL    HW1  389   1.999   3.112   3.690  1.3982  0.0513  0.5637
   85SOL    HW2  390   2.106   3.026   3.626  0.3853  1.1590 -2.8309
   86SOL     OW  391   2.294   1.550   2.545 -0.0047 -0.2524 -0.4496
   86SOL    HW1  392   2.292   1.550   2.449 -0.7764 -0.1382 -0.4331
   86SOL    HW2  393   2.351   1.476   2.567 -1.7187 -1.7970 -0.9655
   87SOL     OW  394   2.414   0.042   0.841  0.0275 -0.4608  0.2844
   87SOL    HW1  395   2.357   0.019   0.767  1.7440 -0.3249 -1.1644
   87SOL    HW2  396   2.358   0.090   0.901 -1.6132 -1.2005 -0.5956
   88SOL     OW  397   1.704   0.494   1.187 -1.1529  0.7350  0.0224
   88SOL    HW1  398   1.664   0.501   1.273 -2.6972  0.3029 -0.6386
   88SOL    HW2  399   1.795   0.468   1.205 -2.1088 -1.9547  1.4396
   89SOL     OW  400   0.333   3.551   0.177  0.2803 -0.0792 -0.2936
   89SOL    HW1  401   0.373   3.501   0.106 -0.4153 -1.7595  0.4174
   89SOL    HW2  402   0.387   3.531   0.253 -0.3900 -0.3148  0.1354
   90SOL     OW  403   0.497   2.874   3.690 -0.1015 -0.3907  0.0639
   90SOL    HW1  404   0.470   2.851   3.779  0.2121 -0.4399  0.1482
   90SOL    HW2  405   0.591   2.853   3.687 -0.0752 -0.2409 -0.2294
   91SOL     OW  406   2.928   2.682   0.108 -0.3849  0.4693  0.7286
   91SOL    HW1  407   3.018   2.688   0.076 -0.9826 -1.0388 -1.4711
   91SOL    HW2  408   2.937   2.652   0.199  1.3214 -0.3453  0.3423
   92SOL     OW  409   1.554   3.206   0.418 -0.6490  0.2545 -0.2109
   92SOL    HW1  410   1.531   3.283   0.366 -0.9928 -0.8698 -1.7602
   92SOL    HW2  411   1.475   3.152   0.418 -0.3644 -0.1866  0.7539
   93SOL     OW  412   1.029   0.185   0.226 -1.0154  0.4384  0.4129
   93SOL    HW1  413   0.990   0.162   0.142 -2.2146  1.2890  0.7108
   93SOL    HW2  414   0.975   0.257   0.259 -0.5352  0.1740  1.8764
   94SOL     OW  415   1.396   1.393   2.620  0.0981 -0.6622  0.7110
   94SOL    HW1  416   1.408   1.487   2.631 -0.2291 -0.4325 -0.7515
   94SOL    HW2  417   1.452   1.369   2.547 -0.1994 -1.5126  0.7427
   95SOL     OW  418   3.515   1.669   1.862  0.3353  0.3101 -0.2606
   95SOL    HW1  419   3.487   1.659   1.771 -0.1794 -0.5045 -0.0188
   95SOL    HW2  420   3.514   1.580   1.898 -0.5235  0.7494  0.8582
   96SOL     OW  421   2.568   1.324   3.538 -0.1797 -0.3381  0.0734
   96SOL    HW1  422   2.609   1.402   3.500  1.2039 -0.0315  2.0212
   96SOL    HW2  423   2.519   1.357   3.614 -1.3603 -1.1205 -0.3265
   97SOL     OW  424   2.774   2.887   0.936 -0.4867  0.2664  0.5472
   97SOL    HW1  425   2.832   2.906   1.009  0.1450  0.5162 -0.0107
   97SOL    HW2  426   2.822   2.825   0.882 -1.5077 -1.0094  1.0338
   98SOL     OW  427   1.319   2.251   1.669 -0.2525 -0.3376  0.3159
   98SOL    HW1  428   1.370   2.327   1.643 -1.9499  0.7770  0.1074
   98SOL    HW2  429   1.256   2.284   1.732 -0.1286 -1.8553  1.2924
   99SOL     OW  430   1.540   0.829   3.080 -0.7491  0.2389 -0.2435
   99SOL    HW1  431   1.498   0.755   3.124 -1.2567  0.2085 -0.7786
   99SOL    HW2  432   1.559   0.797   2.992  1.3675 -0.1132  0.2682
  100SOL     OW  433   2.210   2.294   2.313 -0.4120 -0.5362 -0.7048
  100SOL    HW1  434   2.292   2.267   2.355 -0.0480  0.7480 -0.5509
  100SOL    HW2  435   2.175   2.363   2.369 -0.8625 -0.0701 -1.5276
  101SOL     OW  436   2.861   1.559   0.759 -0.5668  0.4899  0.1673
  101SOL    HW1  437   2.952   1.529   0.766 -0.4318  0.7061 -0.5232
  101SOL    HW2  438   2.851   1.622   0.830  0.2759  1.5468 -0.6236
  102SOL     OW  439   2.954   1.188   0.641 -0.1053  0.0739  0.4536
  102SOL    HW1  440   2.897   1.184   0.565 -2.4810 -1.7766  2.1532
  102SOL    HW2  441   2.894   1.196   0.715  1.9695 -0.3156  2.2831
  103SOL     OW  442   1.428   0.159   0.025  0.4536 -0.2478 -0.1071
  103SOL    HW1  443   1.368   0.147  -0.048 -2.4254  1.5344  1.7435
  103SOL    HW2  444   1.431   0.074   0.068  1.0163 -0.9187 -1.4283
  104SOL     OW  445   2.841   0.354   0.482  0.1626 -0.2732 -0.3333
  104SOL    HW1  446   2.894   0.295   0.429  0.2776 -1.5160  1.0878
  104SOL    HW2  447   2.751   0.321   0.472 -0.1311  0.7816 -1.3822
  105SOL     OW  448   0.980   0.080   3.050  0.6452  0.3973  0.5511
  105SOL    HW1  449   1.041   0.035   2.992  1.9440  1.5493  0.9452
  105SOL    HW2  450   0.953   0.157   3.000  1.5907  1.2722  1.3186
  106SOL     OW  451   1.954   1.109   2.886  0.4772  0.4831 -0.2909
  106SOL    HW1  452   2.001   1.188   2.914  2.4688 -0.1599 -1.6243
  106SOL    HW2  453   2.017   1.038   2.899 -0.6925 -0.6623 -0.6905
  107SOL     OW  454   1.339   0.737   0.249  0.6056 -0.3641 -0.5486
  107SOL    HW1  455   1.422   0.769   0.282  0.4760 -0.7022  0.1144
  107SOL    HW2  456   1.352   0.642   0.237  0.8785 -0.1605 -2.1551
  108SOL     OW  457   2.939   0.457   1.462 -0.9241 -0.0664  0.1947
  108SOL    HW1  458   2.969   0.388   1.403  1.6092 -0.4445  1.7231
  108SOL    HW2  459   2.971   0.538   1.423  0.7494 -0.3154  0.9374
  109SOL     OW  460   1.550   2.701   2.902 -0.7799 -0.2599 -1.0132
  109SOL    HW1  461   1.496   2.683   2.825 -1.2421  0.5358 -0.8835
  109SOL    HW2  462   1.582   2.616   2.929 -0.7333 -0.5728 -2.0038
  110SOL     OW  463   1.925   2.294   0.906 -0.4798  0.4057  0.7631
  110SOL    HW1  464   1.957   2.350   0.976 -1.2124 -0.3619  1.7550
  110SOL    HW2  465   1.899   2.213   0.951 -1.0234 -0.0824 -0.3923
  111SOL     OW  466   0.550   0.974   1.594 -0.1947 -0.4608  0.0576
  111SOL    HW1  467   0.535   1.035   1.522 -1.6029  0.4924  1.1111
  111SOL    HW2  468   0.642   0.988   1.618  0.4078 -1.0461 -1.7349
  112SOL     OW  469   2.903   3.198   0.355  0.0598 -0.4588 -0.5742
  112SOL    HW1  470   2.950   3.167   0.432  0.0441  0.9994  0.0604
  112SOL    HW2  471   2.814   3.166   0.367  0.1090 -0.4199 -0.0779
  113SOL     OW  472   1.305   1.918   2.200 -0.4323 -0.0710  0.0835
  113SOL    HW1  473   1.356   1.883   2.127  1.8562  1.5151  0.7929
  113SOL    HW2  474   1.297   1.844   2.261  0.4226 -0.5588 -0.3777
  114SOL     OW  475   3.443   3.159   0.691  0.6031  0.0191  0.1912
  114SOL    HW1  476   3.526   3.206   0.699 -0.0305  1.3808 -0.8703
  114SOL    HW2  477   3.380   3.225   0.662 -1.0288 -0.8348  1.6056
  115SOL     OW  478   1.863   0.505   3.632  0.3815 -0.0931  0.4396
  115SOL    HW1  479   1.842   0.411   3.628 -0.6696  0.1692 -0.6018
  115SOL    HW2  480   1.958   0.507   3.644  0.2983 -1.2924  1.6909
  116SOL     OW  481   1.623   1.570   1.406 -0.0406  0.0068 -0.1101
  116SOL    HW1  482   1.627   1.660   1.375  0.9354 -0.1726 -0.5532
  116SOL    HW2  483   1.687   1.566   1.477  0.1115 -0.3809 -0.2617
  117SOL     OW  484   1.049   1.018   1.597 -0.0188  0.2476  0.1431
  117SOL    HW1  485   1.093   1.091   1.642 -0.7042 -0.2019  1.6087
  117SOL    HW2  486   1.107   0.996   1.524 -0.1542  2.7423 -0.8266
  118SOL     OW  487   1.275   3.706   2.518  0.6555 -0.3751  0.5035
  118SOL    HW1  488   1.182   3.723   2.499  0.8351  1.6986  1.2402
  118SOL    HW2  489   1.314   3.690   2.433  0.3099  2.7001 -0.3508
  119SOL     OW  490   1.604   0.248   0.433 -0.0861  0.4973 -0.1115
  119SOL    HW1  491   1.534   0.286   0.380  0.3503  1.0114 -0.3332
  119SOL    HW2  492   1.631   0.319   0.491  0.2654  0.3076 -0.0399
  120SOL     OW  493   0.183   1.019   1.540  0.0257  0.0516 -0.3168
  120SOL    HW1  494   0.273   0.987   1.531  0.3797  0.7712  0.4783
  120SOL    HW2  495   0.144   0.961   1.605  0.2878  0.4610  0.2135
  121SOL     OW  496   1.024   1.689   3.385 -0.6583 -0.0678 -0.5408
  121SOL    HW1  497   1.036   1.783   3.374  1.3174 -0.3883 -1.7094
  121SOL    HW2  498   1.113   1.654   3.388 -1.2789 -1.7207  2.0568
  122SOL     OW  499   1.475   2.732   0.656  0.6873 -0.5714  0.1584
  122SOL    HW1  500   1.520   2.679   0.590  0.5602 -0.6765  0.1553
  122SOL    HW2  501   1.534   2.732   0.732  0.9734 -0.1984 -0.0605
  123SOL     OW  502   0.631   2.101   1.983 -0.3900 -0.4312  0.4540
  123SOL    HW1  503   0.722   2.081   2.003 -0.3328 -2.7948 -1.7119
  123SOL    HW2  504   0.580   2.046   2.042 -0.4202 -0.0789  0.7641
  124SOL     OW  505   3.014   1.128   2.870  0.2672 -0.5064  0.0353
  124SOL    HW1  506   3.045   1.191   2.805  0.1029 -1.2620 -0.7931
  124SOL    HW2  507   3.024   1.173   2.954  2.0793 -0.1337 -0.3453
  125SOL     OW  508   3.258   2.202   2.433  0.1890  0.3102 -0.3129
  125SOL    HW1  509   3.204   2.149   2.374 -0.0876  0.5390 -0.2645
  125SOL    HW2  510   3.241   2.292   2.408  0.1646  0.4050  0.0354
  126SOL     OW  511   0.415   1.256   2.635  0.5719 -1.0103 -0.2521
  126SOL    HW1  512   0.497   1.258   2.585  0.6489 -1.4866 -0.1488
  126SOL    HW2  513   0.415   1.171   2.677  1.0051 -0.2165  1.4200
  127SOL     OW  514   1.501   2.678   1.406  0.4582  0.3857  0.3052
  127SOL    HW1  515   1.506   2.591   1.365  0.7108  0.2853  0.5537
  127SOL    HW2  516   1.497   2.738   1.331 -0.3988  0.1265  0.1248
  128SOL     OW  517   3.368   2.141   0.881 -0.5220 -0.3481 -0.2287
  128SOL    HW1  518   3.455   2.178   0.867 -1.1423  1.3451  0.2012
  128SOL    HW2  519   3.384   2.048   0.899  1.2527  0.1145  0.7548
  129SOL     OW  520   1.207   2.682   2.982  0.3905  0.3557 -0.2331
  129SOL    HW1  521   1.259   2.759   2.957  0.2842  0.4012 -0.3163
  129SOL    HW2  522   1.162   2.657   2.901 -1.8800  1.9641  0.4371
  130SOL     OW  523   2.579   1.147   2.767  0.1401 -0.4075  0.3371
  130SOL    HW1  524   2.650   1.130   2.705 -1.0023 -3.0894 -0.3755
  130SOL    HW2  525   2.623   1.159   2.851  1.5151 -0.7204 -0.3172
  131SOL     OW  526   0.074   0.924   0.618 -0.1808 -0.2859 -0.7486
  131SOL    HW1  527   0.092   0.877   0.536 -0.1484 -0.4432 -0.6508
  131SOL    HW2  528   0.071   1.016   0.592 -0.5403 -0.3641 -0.9946
  132SOL     OW  529   1.708   1.481   0.270 -0.7375 -0.4250 -0.7246
  132SOL    HW1  530   1.689   1.522   0.354  0.9356 -0.6639 -0.2025
  132SOL    HW2  531   1.647   1.407   0.265  0.0432 -1.2304  0.9261
  133SOL     OW  532   2.066   3.246   2.735 -0.2133  0.4905 -0.1918
  133SOL    HW1  533   2.117   3.170   2.764 -1.5472  0.1836  1.4932
  133SOL    HW2  534   1.977   3.213   2.726 -1.2962  2.2486  2.7487
  134SOL     OW  535   1.780   0.197   3.590  0.6386 -0.4616  0.1282
  134SOL    HW1  536   1.847   0.131   3.608 -0.5149 -1.0502  2.6703
  134SOL    HW2  537   1.723   0.157   3.525  1.5360 -0.8210 -0.4452
  135SOL     OW  538   0.350   1.437   1.104 -0.4442 -0.0705  0.5262
  135SOL    HW1  539   0.441   1.455   1.082  0.4144 -1.3408  2.7465
  135SOL    HW2  540   0.351   1.416   1.197 -2.9314 -0.6954  0.4907
  136SOL     OW  541   1.769   1.656   1.607 -0.3967 -0.6355  0.6026
  136SOL    HW1  542   1.830   1.726   1.588 -0.5272 -0.6393  0.1643
  136SOL    HW2  543   1.811   1.606   1.677  0.9500 -1.7115 -0.9145
  137SOL     OW  544   2.199   0.853   0.433 -0.0927  0.4036  0.5849
  137SOL    HW1  545   2.255   0.809   0.369  1.0491 -2.2579  3.2113
  137SOL    HW2  546   2.187   0.941   0.397  0.1965 -0.9670 -3.3695
  138SOL     OW  547   0.526   2.973   2.186  0.2730 -0.1360  0.1033
  138SOL    HW1  548   0.557   2.888   2.154 -0.2085  0.3070 -1.6463
  138SOL    HW2  549   0.565   3.037   2.127 -2.4809  0.5658 -1.1253
  139SOL     OW  550   3.292   3.718   1.542 -0.2127 -0.4290  0.4858
  139SOL    HW1  551   3.266   3.676   1.459  1.8760  0.2474 -0.5701
  139SOL    HW2  552   3.338   3.798   1.516  0.3806 -0.1205  2.3099
  140SOL     OW  553   0.197   3.432   3.330 -0.6531 -0.2663 -0.4386
  140SOL    HW1  554   0.104   3.418   3.350 -0.9310 -2.8363 -2.9174
  140SOL    HW2  555   0.198   3.460   3.239  0.9571  2.7440  0.3729
  141SOL     OW  556   0.697   3.057   1.992 -0.5217  0.2463  0.2715
  141SOL    HW1  557   0.743   3.079   2.073  1.9667 -2.6458 -0.1961
  141SOL    HW2  558   0.730   2.971   1.968 -2.8734 -0.0001 -2.6663
  142SOL     OW  559   3.510   2.573   2.434  0.2897  0.0784  0.3353
  142SOL    HW1  560   3.479   2.653   2.477 -1.1429  0.6417 -1.5908
  142SOL    HW2  561   3.583   2.603   2.379  0.5362 -0.1931  0.5063
  143SOL     OW  562   3.659   0.696   0.287  0.6095 -0.0237  0.3923
  143SOL    HW1  563   3.719   0.770   0.277  1.4950 -0.5471  1.6931
  143SOL    HW2  564   3.696   0.627   0.231 -0.7632  0.7799 -1.6294
  144SOL     OW  565   3.187   3.427   2.469  0.3166  0.3724 -0.3512
  144SOL    HW1  566   3.189   3.332   2.467 -1.2738  0.2804  0.8356
  144SOL    HW2  567   3.094   3.450   2.463  0.5503  1.7842  0.7922
  145SOL     OW  568   2.173   0.730   2.546 -0.6832  0.5691  0.0908
  145SOL    HW1  569   2.219   0.696   2.469 -1.7549  1.1453 -0.8354
  145SOL    HW2  570   2.211   0.682   2.620 -0.8979 -1.3577 -0.9648
  146SOL     OW  571   0.771   0.916   2.769 -0.3749  0.3952 -0.0825
  146SOL    HW1  572   0.816   0.887   2.689 -0.3369  1.1254 -0.3300
  146SOL    HW2  573   0.718   0.841   2.795  0.0838 -0.0635 -0.4500
  147SOL     OW  574   2.574   3.100   1.938  0.3820 -0.0711 -0.3877
  147SOL    HW1  575   2.490   3.115   1.894  0.6322  0.7743 -0.6108
  147SOL    HW2  576   2.640   3.119   1.871  0.7587 -0.7473 -0.2203
  148SOL     OW  577   3.392   0.258   2.530 -0.0215 -0.2395  1.1291
  148SOL    HW1  578   3.350   0.172   2.528  0.6496 -0.5630 -0.1445
  148SOL    HW2  579   3.319   0.320   2.538 -0.6699 -0.8482  0.2525
  149SOL     OW  580   2.431   1.930   0.797 -0.2765  0.3837 -0.3729
  149SOL    HW1  581   2.434   1.913   0.703  0.6537  0.4582 -0.3718
  149SOL    HW2  582   2.459   2.021   0.806  0.4140  0.1390  0.0273
  150SOL     OW  583   1.768   2.429   2.269 -0.2834 -0.2634 -0.6801
  150SOL    HW1  584   1.832   2.495   2.243 -0.7847 -0.0896 -1.5167
  150SOL    HW2  585   1.794   2.350   2.224 -0.9308 -0.0642 -1.4223
  151SOL     OW  586   3.329   1.397   0.273  0.2767 -0.1003 -0.4519
  151SOL    HW1  587   3.253   1.339   0.277 -0.6605  1.0165 -1.3548
  151SOL    HW2  588   3.304   1.474   0.325  0.4576  0.6327 -1.4287
  152SOL     OW  589   2.261   2.888   0.949 -0.0192  0.5044  0.1482
  152SOL    HW1  590   2.350   2.891   0.984 -0.0785  0.8302  0.2691
  152SOL    HW2  591   2.215   2.825   1.006  0.4554 -0.6285 -0.6711
  153SOL     OW  592   0.616   2.532   1.844  0.5749  0.1214  0.6477
  153SOL    HW1  593   0.593   2.557   1.755  2.9884 -0.8885 -0.3391
  153SOL    HW2  594   0.551   2.464   1.867  2.0701 -2.3548 -1.8543
  154SOL     OW  595   1.469   0.940   2.744 -0.3024  0.3427  0.5745
  154SOL    HW1  596   1.549   0.939   2.796  0.4244  0.0821 -0.5067
  154SOL    HW2  597   1.495   0.905   2.659 -1.6285  0.0037  0.2794
  155SOL     OW  598   1.848   1.474   3.571  0.0958  0.1886 -0.5103
  155SOL    HW1  599   1.852   1.464   3.666 -0.8182 -2.8648 -0.7154
  155SOL    HW2  600   1.804   1.395   3.540  2.5834 -0.1513 -3.6754
  156SOL     OW  601   3.211   1.425   2.573 -0.0520  0.1777  0.4783
  156SOL    HW1  602   3.134   1.454   2.523 -1.5121 -0.9957  1.9330
  156SOL    HW2  603   3.248   1.354   2.521 -0.1611  0.4868 -0.0355
  157SOL     OW  604   2.765   1.577   1.032  0.0819  0.3345  0.1367
  157SOL    HW1  605   2.709   1.504   1.006 -1.1218  1.4387 -0.4904
  157SOL    HW2  606   2.704   1.643   1.066  0.8279  2.0411 -1.6248
  158SOL     OW  607   3.105   0.355   1.719  0.1079 -0.1886  0.4861
  158SOL    HW1  608   3.095   0.399   1.634  3.0197  1.7672  0.9914
  158SOL    HW2  609   3.016   0.338   1.748 -1.0886  1.9939 -1.5332
  159SOL     OW  610   0.034   0.955   2.263 -0.4017  0.2074 -0.1399
  159SOL    HW1  611   0.057   0.900   2.339 -0.0099 -0.2241 -0.5643
  159SOL    HW2  612  -0.010   1.031   2.301 -0.2338 -0.0178  0.5218
  160SOL     OW  613   0.988   2.303   1.493  0.4244  0.5926  0.0352
  160SOL    HW1  614   1.043   2.334   1.421  1.4978  1.0242  1.0064
  160SOL    HW2  615   0.953   2.382   1.533  1.0567  0.4412  0.9100
  161SOL     OW  616   0.446   0.899   0.093  0.5323 -0.1363 -0.8008
  161SOL    HW1  617   0.392   0.945   0.029 -0.1634 -1.1592 -0.9666
  161SOL    HW2  618   0.512   0.963   0.119  0.1504  0.6446 -1.7131
  162SOL     OW  619   1.158   0.609   3.069  0.4682  0.5405 -0.0033
  162SOL    HW1  620   1.161   0.682   3.007  0.0695 -0.6598 -1.4921
  162SOL    HW2  621   1.245   0.568   3.063  0.2009  0.0038 -0.2996
  163SOL     OW  622   2.482   3.689   1.507  0.2545 -0.0630 -0.5775
  163SOL    HW1  623   2.428   3.764   1.534 -0.6542 -0.2480 -1.8063
  163SOL    HW2  624   2.493   3.638   1.586 -0.2569  0.6746 -0.0132
  164SOL     OW  625   1.552   0.388   3.001 -0.0128  0.2508  0.4721
  164SOL    HW1  626   1.616   0.346   3.059 -0.4899 -0.3036  0.6097
  164SOL    HW2  627   1.483   0.322   2.990  1.3524 -0.8704 -3.0206
  165SOL     OW  628   1.962   1.834   3.252  0.4588 -0.6333  0.6246
  165SOL    HW1  629   2.000   1.922   3.246 -0.0166 -0.3423  1.5863
  165SOL    HW2  630   1.868   1.850   3.260  0.2636 -1.2798 -0.3039
  166SOL     OW  631   1.231   0.354   1.149  0.3344 -0.3000 -0.0216
  166SOL    HW1  632   1.297   0.290   1.121  1.5938  0.4188  1.1633
  166SOL    HW2  633   1.149   0.306   1.147  1.3822 -2.3757  1.9723
  167SOL     OW  634   0.342   3.165   2.347  0.0527  0.5324  0.2098
  167SOL    HW1  635   0.365   3.150   2.255  0.3488 -0.7931  0.4682
  167SOL    HW2  636   0.311   3.255   2.350  0.4573  0.7388 -1.1079
  168SOL     OW  637   0.951   2.474   0.531 -0.2286 -0.0563  0.0361
  168SOL    HW1  638   0.973   2.381   0.539 -3.0961 -0.7160  1.6483
  168SOL    HW2  639   1.000   2.516   0.601  0.5044 -0.4486 -0.2289
  169SOL     OW  640   2.105   1.392   1.964  0.4526  0.4833 -0.2846
  169SOL    HW1  641   2.154   1.451   1.908 -0.4569  1.2123 -0.3489
  169SOL    HW2  642   2.085   1.444   2.042 -0.5189  0.3399 -0.4226
  170SOL     OW  643   2.884   0.629   2.858  0.1963  0.1647 -0.3396
  170SOL    HW1  644   2.881   0.712   2.906 -3.0549 -0.7986  1.4229
  170SOL    HW2  645   2.914   0.565   2.922  1.0939 -0.3075 -1.2095
  171SOL     OW  646   1.252   0.049   0.209 -0.1533 -0.1155 -0.0533
  171SOL    HW1  647   1.164   0.087   0.210 -0.8248 -1.6284  0.5512
  171SOL    HW2  648   1.238  -0.045   0.212  1.4376 -0.5206 -2.2808
  172SOL     OW  649   2.073   2.373   1.906  0.4651  0.2972  0.3017
  172SOL    HW1  650   2.150   2.429   1.893 -0.0958  0.7980 -1.1396
  172SOL    HW2  651   2.001   2.423   1.867 -0.3127 -0.8189  0.2722
  173SOL     OW  652   0.599   1.800   0.059  0.2030  0.6107  0.0334
  173SOL    HW1  653   0.546   1.722   0.076  1.1955 -0.2783 -0.7771
  173SOL    HW2  654   0.547   1.851  -0.003 -0.4670  0.6251  0.5922
  174SOL     OW  655   1.728   2.919   0.601  0.1812 -0.4352 -0.4401
  174SOL    HW1  656   1.790   2.923   0.529  0.4633 -1.3099 -0.2536
  174SOL    HW2  657   1.765   2.979   0.667  0.6918 -0.7490 -0.4339
  175SOL     OW  658   0.946   0.553   1.134  0.6911  0.2377 -0.1585
  175SOL    HW1  659   0.956   0.554   1.038  0.4181  1.0624 -0.1800
  175SOL    HW2  660   0.952   0.460   1.157  0.6190  0.0164 -0.9925
  176SOL     OW  661   3.553   2.095   3.348 -0.2522 -0.1615  0.4153
  176SOL    HW1  662   3.612   2.092   3.423  0.9267  1.0863 -0.4164
  176SOL    HW2  663   3.527   2.187   3.341  0.8984  0.0937 -1.5651
  177SOL     OW  664   3.114   0.671   1.619 -0.2912  0.0367 -0.1533
  177SOL    HW1  665   3.142   0.760   1.599 -0.1504 -0.1866 -0.9944
  177SOL    HW2  666   3.196   0.622   1.627 -0.2845  0.3601  2.2497
  178SOL     OW  667   2.377   1.708   1.356 -0.6270  0.0107  0.3622
  178SOL    HW1  668   2.310   1.665   1.303 -0.4564 -0.1003  0.2356
  178SOL    HW2  669   2.346   1.699   1.446 -0.0649 -1.3464  0.4406
  179SOL     OW  670   0.533   0.113   3.202  0.5783  0.5347  0.4177
  179SOL    HW1  671   0.507   0.101   3.293 -0.0607 -0.6569  0.0998
  179SOL    HW2  672   0.527   0.025   3.163  0.4144  1.0905 -0.8756
  180SOL     OW  673   2.474   1.394   2.657  0.7606  1.1428  0.1627
  180SOL    HW1  674   2.534   1.461   2.690 -0.2955  1.5565  1.2945
  180SOL    HW2  675   2.491   1.317   2.711  0.8062  1.0145 -0.0321
  181SOL     OW  676   3.370   0.338   3.139  0.6366  0.3600  0.0052
  181SOL    HW1  677   3.380   0.381   3.054 -0.3450  1.7366  0.5605
  181SOL    HW2  678   3.458   0.341   3.178  1.1100 -0.3403 -0.9501
  182SOL     OW  679   1.008   2.666   1.836 -0.2268 -0.1208 -0.1976
  182SOL    HW1  680   0.996   2.669   1.741  1.3451 -1.3218 -0.4790
  182SOL    HW2  681   1.095   2.704   1.850  0.2807 -1.5221  0.5691
  183SOL     OW  682   2.170   0.227   2.933 -0.3833  0.0877  0.7515
  183SOL    HW1  683   2.081   0.193   2.927  0.0250 -1.0055  0.7452
  183SOL    HW2  684   2.200   0.234   2.842 -1.5256  3.4659  0.5009
  184SOL     OW  685   2.846   1.793   3.197 -0.1475 -0.1188 -0.6843
  184SOL    HW1  686   2.880   1.705   3.177  0.5292 -0.0298  0.0290
  184SOL    HW2  687   2.907   1.828   3.262 -1.5046  0.1245  0.5160
  185SOL     OW  688   1.389   2.298   0.349 -0.4540 -0.1154  0.0643
  185SOL    HW1  689   1.469   2.338   0.317 -0.3249  0.3218  0.8933
  185SOL    HW2  690   1.415   2.210   0.375 -0.5363 -0.4316 -0.8941
  186SOL     OW  691   3.564   1.398   0.403  0.3079  0.2022 -0.1596
  186SOL    HW1  692   3.552   1.493   0.408 -0.8761  0.0019  1.5297
  186SOL    HW2  693   3.505   1.370   0.334  0.4968  0.6543 -0.5146
  187SOL     OW  694   1.120   1.232   1.967  0.6255 -0.2123 -0.5901
  187SOL    HW1  695   1.052   1.252   1.903 -1.1511 -2.5719  0.3964
  187SOL    HW2  696   1.164   1.154   1.933  1.0897 -0.2450  0.0535
  188SOL     OW  697   1.250   1.157   2.431 -0.3962 -0.8361 -0.4360
  188SOL    HW1  698   1.177   1.104   2.398  1.6329 -3.1990 -1.5086
  188SOL    HW2  699   1.255   1.136   2.524 -1.0216 -0.6923 -0.3639
  189SOL     OW  700   1.321   2.403   0.625  0.2528 -0.2565  0.7256
  189SOL    HW1  701   1.277   2.401   0.541  1.1360 -0.2108  0.2486
  189SOL    HW2  702   1.303   2.491   0.660 -0.0019 -0.2279  0.5200
  190SOL     OW  703   2.717   3.262   2.490 -0.0366  0.2304  0.5793
  190SOL    HW1  704   2.625   3.271   2.517 -0.0460 -1.7301  1.4095
  190SOL    HW2  705   2.749   3.188   2.541  1.7711  0.3246 -0.3476
  191SOL     OW  706   3.345   3.652   2.323  0.4648  0.2884 -0.3116
  191SOL    HW1  707   3.322   3.713   2.252  0.7029  0.7391 -0.0053
  191SOL    HW2  708   3.288   3.678   2.396  2.5652  2.1112  0.8180
  192SOL     OW  709   1.578   0.253   1.808 -0.8496 -0.6521  0.2078
  192SOL    HW1  710   1.636   0.274   1.734 -0.2248 -1.5338  0.4233
  192SOL    HW2  711   1.491   0.277   1.777 -0.5386 -0.5634 -0.6476
  193SOL     OW  712   0.354   0.601   3.287 -0.8764 -0.3818  0.2130
  193SOL    HW1  713   0.385   0.531   3.229  1.2000 -0.0521  0.8388
  193SOL    HW2  714   0.373   0.682   3.239 -2.3209 -0.1865 -0.0700
  194SOL     OW  715   1.073   3.059   0.067  0.3996 -0.3191 -0.0202
  194SOL    HW1  716   1.086   2.965   0.055 -1.2410 -0.6092  0.1648
  194SOL    HW2  717   1.021   3.086  -0.009 -0.3102  0.1425  0.6119
  195SOL     OW  718   0.161   0.475   0.493 -0.0898 -0.3660  0.5416
  195SOL    HW1  719   0.122   0.454   0.577  1.6097 -0.5247  1.3344
  195SOL    HW2  720   0.249   0.440   0.498 -0.0217 -0.5792 -1.4067
  196SOL     OW  721   1.777   3.290   2.541  0.0982  0.2665 -0.5162
  196SOL    HW1  722   1.702   3.339   2.506 -0.7847 -1.0480 -0.5497
  196SOL    HW2  723   1.843   3.295   2.472 -0.1743  0.9545 -0.7372
  197SOL     OW  724   1.413   1.917   2.813  0.5264  0.0345 -0.3930
  197SOL    HW1  725   1.409   1.932   2.908 -0.1072 -0.9856 -0.2446
  197SOL    HW2  726   1.494   1.868   2.801  1.4136  1.4974 -0.5924
  198SOL     OW  727   1.390   3.456   0.357 -0.2607  0.1973 -0.0894
  198SOL    HW1  728   1.335   3.414   0.424 -0.4648 -0.7372 -0.8092
  198SOL    HW2  729   1.328   3.502   0.300 -0.0998  0.8840  0.2862
  199SOL     OW  730   3.506   3.400   2.426  0.4026 -0.0751  0.4658
  199SOL    HW1  731   3.427   3.455   2.419  0.2763 -0.3510 -0.5360
  199SOL    HW2  732   3.500   3.360   2.512 -0.8589 -0.5319  0.1827
  200SOL     OW  733   2.554   1.363   0.952  0.1786  0.0513  0.4339
  200SOL    HW1  734   2.463   1.384   0.931  0.4769 -0.4922 -1.6012
  200SOL    HW2  735   2.548   1.313   1.034 -1.3723 -0.2843  0.1562
  201SOL     OW  736   2.922   1.653   1.948  0.0636  0.4688 -0.1589
  201SOL    HW1  737   2.900   1.623   1.859 -3.0476  1.9713 -0.0145
  201SOL    HW2  738   2.862   1.605   2.004 -0.7846  2.4753  0.6915
  202SOL     OW  739   2.976   2.567   2.295  0.3314  0.0139  0.8132
  202SOL    HW1  740   2.966   2.480   2.256 -0.8902  0.7340 -0.5802
  202SOL    HW2  741   3.067   2.570   2.323  0.6663 -1.3578 -0.0232
  203SOL     OW  742   3.524   0.600   0.948  0.1389 -0.2221  0.2085
  203SOL    HW1  743   3.571   0.671   0.906  0.5030 -0.3926  0.3264
  203SOL    HW2  744   3.438   0.637   0.970  1.3321  1.1421  3.0439
  204SOL     OW  745   2.220   2.510   3.195 -0.0790 -0.2272  0.2884
  204SOL    HW1  746   2.172   2.442   3.148 -0.2688  1.6754 -2.5832
  204SOL    HW2  747   2.312   2.485   3.187 -0.2088 -0.6400  0.0943
  205SOL     OW  748   0.762   0.979   2.339 -0.3372  0.3408  0.9373
  205SOL    HW1  749   0.788   0.983   2.247  2.1019 -0.0835  1.5421
  205SOL    HW2  750   0.691   1.043   2.347 -2.0791 -1.1404 -1.6402
  206SOL     OW  751   2.834   1.385   1.853 -0.0015  0.1847  0.1853
  206SOL    HW1  752   2.779   1.323   1.902  0.4696 -0.8851 -0.5987
  206SOL    HW2  753   2.922   1.372   1.888 -0.1735  1.7755  1.3160
  207SOL     OW  754   1.882   0.382   0.711 -0.2054 -0.1181  0.5674
  207SOL    HW1  755   1.789   0.392   0.733  0.2197  0.8548  2.0955
  207SOL    HW2  756   1.889   0.417   0.622 -1.4442 -1.0604  0.0707
  208SOL     OW  757   2.187   0.600   3.010 -0.3609  0.1450 -0.5303
  208SOL    HW1  758   2.117   0.574   3.070 -1.2521 -0.2462 -1.7117
  208SOL    HW2  759   2.148   0.593   2.923  1.1945 -0.2326 -1.2298
  209SOL     OW  760   3.471   2.338   2.566  0.0241  0.8540 -0.1365
  209SOL    HW1  761   3.403   2.295   2.515  1.2632 -1.2447 -0.1236
  209SOL    HW2  762   3.473   2.428   2.532 -1.4356  0.4362 -1.4450
  210SOL     OW  763   1.544   0.637   0.571 -0.2843 -0.5142  0.5772
  210SOL    HW1  764   1.570   0.705   0.509 -1.8214  0.4737  0.9574
  210SOL    HW2  765   1.451   0.653   0.587 -0.3711 -1.8933  1.7142
  211SOL     OW  766   2.614   0.064   2.593  0.1973  0.3681  0.3722
  211SOL    HW1  767   2.690   0.072   2.651  0.3636 -1.8993  0.5715
  211SOL    HW2  768   2.646   0.012   2.519 -1.2972 -1.2981  0.8236
  212SOL     OW  769   1.537   2.436   2.460  0.5202 -0.6255 -0.0742
  212SOL    HW1  770   1.589   2.437   2.380 -0.0286  0.0891 -0.4412
  212SOL    HW2  771   1.457   2.387   2.436 -0.4408  1.0819 -0.5195
  213SOL     OW  772   0.729   3.472   3.648  0.2545  0.3244 -0.3610
  213SOL    HW1  773   0.732   3.464   3.743  1.6124  1.7729 -0.2406
  213SOL    HW2  774   0.704   3.563   3.632  2.2376  0.7496 -1.3222
  214SOL     OW  775   1.811   2.407   0.102 -0.4004 -0.3832  0.6739
  214SOL    HW1  776   1.795   2.478   0.164  0.2575  0.1314  0.2672
  214SOL    HW2  777   1.727   2.360   0.097 -0.8761  0.4296  0.8639
  215SOL     OW  778   1.971   2.046   0.344 -0.2104 -0.2743 -0.2343
  215SOL    HW1  779   1.911   2.012   0.409 -0.3583 -1.4437 -0.9662
  215SOL    HW2  780   1.978   2.140   0.365 -1.3917 -0.3412  0.5398
  216SOL     OW  781   0.358   0.915   1.815  0.4444  0.4379  0.3279
  216SOL    HW1  782   0.398   0.877   1.893  1.3279  1.1667  0.2422
  216SOL    HW2  783   0.417   0.891   1.743  0.3739  0.9413  0.0963
  217SOL     OW  784   2.271   2.045   0.342  0.1187  0.0003  0.1503
  217SOL    HW1  785   2.178   2.049   0.363  0.4500  1.5493  1.4958
  217SOL    HW2  786   2.277   2.079   0.253 -0.5791  0.0579  0.1185
  218SOL     OW  787   1.535   1.367   3.505  0.0208 -0.1084 -0.8877
  218SOL    HW1  788   1.522   1.427   3.432 -1.1488  0.3788 -0.3142
  218SOL    HW2  789   1.595   1.301   3.472  0.6752  0.9141 -1.8053
  219SOL     OW  790   0.740   0.783   1.484  0.2040  0.2489 -0.0702
  219SOL    HW1  791   0.650   0.812   1.496 -0.3735 -1.5952  0.4731
  219SOL    HW2  792   0.734   0.711   1.421  1.4019  0.5863 -0.6028
  220SOL     OW  793   1.935   0.088   2.891  0.7721  0.4398 -0.3439
  220SOL    HW1  794   2.020   0.057   2.860  1.2409  1.5834 -0.2308
  220SOL    HW2  795   1.912   0.028   2.963  1.2953 -0.0908 -0.6113
  221SOL     OW  796   2.436   1.776   1.019 -0.0848  0.0238  0.0970
  221SOL    HW1  797   2.416   1.849   0.961  1.0725  1.0617  0.9449
  221SOL    HW2  798   2.442   1.816   1.106 -0.6808 -1.3025  0.7761
  222SOL     OW  799   1.987   0.535   1.320  0.0497 -0.4861  0.2488
  222SOL    HW1  800   2.076   0.545   1.285 -0.6191  0.9056 -1.1612
  222SOL    HW2  801   1.976   0.440   1.331  1.4581 -0.7230 -0.1836
  223SOL     OW  802   1.319   1.202   3.549  0.8090  0.0140 -0.2857
  223SOL    HW1  803   1.394   1.261   3.554 -1.3486  2.9660  1.9480
  223SOL    HW2  804   1.252   1.245   3.604 -2.4109 -2.5038 -1.8702
  224SOL     OW  805   1.754   1.230   0.968  0.1925 -0.6797 -0.4547
  224SOL    HW1  806   1.734   1.295   1.035 -0.0628  0.1055 -1.2660
  224SOL    HW2  807   1.676   1.175   0.963 -0.0428 -0.3376 -0.5547
  225SOL     OW  808   1.156   2.712   3.270 -0.8352  0.4159  0.5056
  225SOL    HW1  809   1.249   2.713   3.294 -0.8604  1.4238  0.6007
  225SOL    HW2  810   1.156   2.719   3.175 -0.7928 -0.7863  0.4124
  226SOL     OW  811   3.540   0.100   3.443 -0.4013 -0.6092 -0.0199
  226SOL    HW1  812   3.557   0.008   3.462 -1.1113 -0.5732  0.8673
  226SOL    HW2  813   3.555   0.109   3.349  2.2931 -1.0217  0.3045
  227SOL     OW  814   1.905   3.348   1.586 -0.2455  0.8225 -0.1125
  227SOL    HW1  815   1.988   3.391   1.606 -1.3620  2.9169  0.2755
  227SOL    HW2  816   1.919   3.257   1.611  1.4181  1.4445  1.4436
  228SOL     OW  817   0.916   0.593   0.859  0.2422  0.5949  0.1950
  228SOL    HW1  818   0.858   0.657   0.817  0.2399 -0.1627 -1.0012
  228SOL    HW2  819   1.003   0.614   0.826  0.4642  0.9288  0.9891
  229SOL     OW  820   1.831   3.277   1.279  0.7496  0.3857  0.1329
  229SOL    HW1  821   1.759   3.294   1.218  0.9982  1.4963  0.1132
  229SOL    HW2  822   1.821   3.345   1.347  1.6940  0.4721  0.1988
  230SOL     OW  823   1.874   1.698   1.868  0.1462  0.0045  0.0231
  230SOL    HW1  824   1.943   1.751   1.909  1.0391 -0.5774 -0.6747
  230SOL    HW2  825   1.814   1.677   1.940  1.4110 -0.5858  0.9487
  231SOL     OW  826   3.253   0.914   1.525 -0.2128 -0.7424 -0.8623
  231SOL    HW1  827   3.337   0.870   1.537 -1.5363 -3.7361 -1.5926
  231SOL    HW2  828   3.260   0.994   1.578  3.2965 -0.4593 -1.5296
  232SOL     OW  829   3.156   1.729   3.275 -0.4889  0.4281 -0.1938
  232SOL    HW1  830   3.229   1.766   3.225 -1.1515 -0.6847 -2.0987
  232SOL    HW2  831   3.190   1.645   3.307 -1.1483 -0.4808 -1.7922
  233SOL     OW  832   3.737   1.926   1.460  0.2522 -0.3696  0.0600
  233SOL    HW1  833   3.746   1.971   1.544  1.2281  2.0527 -1.2353
  233SOL    HW2  834   3.679   1.982   1.409  0.7256 -1.0992 -1.3258
  234SOL     OW  835   0.312   3.192   3.384  0.4447  0.2197 -0.4236
  234SOL    HW1  836   0.353   3.199   3.470  1.0988 -0.0891 -0.7003
  234SOL    HW2  837   0.273   3.278   3.369 -1.5829 -0.3473  1.0959
  235SOL     OW  838   2.651   0.514   3.079 -0.2365  0.2917  0.5062
  235SOL    HW1  839   2.720   0.548   3.136  1.0563 -0.7352 -0.3816
  235SOL    HW2  840   2.672   0.421   3.070 -0.5228  0.3684 -1.4358
  236SOL     OW  841   2.515   1.028   1.539  0.0384 -0.4023 -0.4242
  236SOL    HW1  842   2.485   0.937   1.543 -0.1199 -0.3584 -0.5890
  236SOL    HW2  843   2.581   1.034   1.607 -0.7024 -0.3576  0.3091
  237SOL     OW  844  -0.011   3.256   2.073  0.1709 -0.2583 -0.5906
  237SOL    HW1  845   0.081   3.246   2.048  0.1095 -0.2436 -0.8245
  237SOL    HW2  846  -0.009   3.316   2.147  0.4748 -1.3602  0.3128
  238SOL     OW  847   2.802   1.108   3.186 -0.0123  0.2093  0.3034
  238SOL    HW1  848   2.897   1.117   3.178 -0.1378  1.8511  0.2406
  238SOL    HW2  849   2.781   1.031   3.135  1.3663 -0.6244  0.9224
  239SOL     OW  850   3.580   1.148   2.168 -0.1510 -1.0140  0.1587
  239SOL    HW1  851   3.593   1.241   2.147 -0.5639 -0.9137  0.3358
  239SOL    HW2  852   3.643   1.102   2.113 -0.9876 -0.7395 -1.0594
  240SOL     OW  853   0.096   2.834   0.073 -0.5208  0.0189 -0.2688
  240SOL    HW1  854   0.064   2.904   0.015  1.1167  0.9421 -0.1142
  240SOL    HW2  855   0.057   2.854   0.158  0.9132  1.5257  0.0818
  241SOL     OW  856   0.939   3.307   0.951 -0.4030 -0.0063  0.8723
  241SOL    HW1  857   0.937   3.394   0.911 -2.8672 -0.2471  0.3219
  241SOL    HW2  858   1.026   3.301   0.990  0.5553  1.9098 -0.7827
  242SOL     OW  859   1.620   1.668   2.198 -0.5967  0.2164 -0.4084
  242SOL    HW1  860   1.614   1.688   2.291 -0.3271  1.5964 -0.6715
  242SOL    HW2  861   1.586   1.578   2.191 -1.1417  0.2907  0.9300
  243SOL     OW  862   0.686   1.392   3.508 -0.5971  0.4029 -0.0549
  243SOL    HW1  863   0.703   1.319   3.450 -0.9974  1.5227 -1.6353
  243SOL    HW2  864   0.709   1.470   3.457 -1.3877  1.4546  1.1231
  244SOL     OW  865   1.386   0.200   1.587  0.3817  0.7679  0.5872
  244SOL    HW1  866   1.405   0.275   1.531 -0.8137  0.4504 -0.2754
  244SOL    HW2  867   1.426   0.125   1.542 -2.9593  0.0110 -1.4927
  245SOL     OW  868   2.887   1.855   2.575  0.4119 -0.7066  0.3815
  245SOL    HW1  869   2.834   1.787   2.618 -0.0608 -0.7716 -0.2811
  245SOL    HW2  870   2.973   1.849   2.616 -0.3817  0.1163  2.2583
  246SOL     OW  871   2.139   3.188   3.376  0.2792 -0.0173  0.3169
  246SOL    HW1  872   2.078   3.154   3.310 -0.3563  1.0633  0.3219
  246SOL    HW2  873   2.092   3.179   3.459  0.5254 -0.1019  0.4457
  247SOL     OW  874   0.935   2.715   1.575  0.4294 -0.3154  0.1506
  247SOL    HW1  875   0.870   2.688   1.510 -1.2632  3.2457  0.1844
  247SOL    HW2  876   1.006   2.753   1.523  1.0659 -1.2871  0.2746
  248SOL     OW  877   0.726   2.637   1.367 -0.3029  0.1510  0.0152
  248SOL    HW1  878   0.698   2.547   1.353 -1.3441  0.2734  1.2183
  248SOL    HW2  879   0.664   2.690   1.316  0.8651  0.1785 -1.4595
  249SOL     OW  880   1.639   0.520   1.607 -0.1342 -0.3559 -0.4374
  249SOL    HW1  881   1.713   0.582   1.610  0.0915 -0.6462  0.0837
  249SOL    HW2  882   1.679   0.434   1.617 -0.6453 -0.4382  1.2180
  250SOL     OW  883   0.214   1.792   1.755 -0.1134  0.1352  0.7451
  250SOL    HW1  884   0.163   1.712   1.743  1.4375 -0.6915 -0.7377
  250SOL    HW2  885   0.152   1.863   1.735 -1.2827 -0.6948  1.2787
  251SOL     OW  886   2.679   1.210   1.977 -0.2800 -0.8697 -0.0852
  251SOL    HW1  887   2.644   1.180   2.061 -0.3792  0.0919  0.2261
  251SOL    HW2  888   2.603   1.241   1.929  0.1074  1.4379  0.6840
  252SOL     OW  889   0.559   1.584   2.658 -0.4010 -0.3434 -0.1859
  252SOL    HW1  890   0.489   1.599   2.595 -1.0316  0.8955  0.7705
  252SOL    HW2  891   0.637   1.569   2.605 -0.7923  1.2922 -1.2662
  253SOL     OW  892   3.090   3.676   2.952 -0.0084 -0.4964 -0.1400
  253SOL    HW1  893   2.998   3.672   2.928  0.1886  1.7018 -1.5586
  253SOL    HW2  894   3.106   3.769   2.970  1.5057 -1.0885  2.0117
  254SOL     OW  895   2.506   1.301   1.456  0.0512 -0.1342 -0.1181
  254SOL    HW1  896   2.590   1.319   1.498  1.7553 -1.4279 -2.6921
  254SOL    HW2  897   2.485   1.211   1.483  0.4851 -0.4930 -0.9442
  255SOL     OW  898   0.017   0.496   0.107  0.7443  0.5509 -0.6282
  255SOL    HW1  899  -0.027   0.448   0.037 -3.2623  0.5488  1.5962
  255SOL    HW2  900   0.055   0.427   0.162 -0.3728  0.1920 -0.2727
  256SOL     OW  901   3.088   0.257   3.399  0.2187  0.3229 -0.6610
  256SOL    HW1  902   3.055   0.174   3.432  0.1279 -0.0140 -1.5550
  256SOL    HW2  903   3.069   0.320   3.468 -1.1280 -0.1076 -0.6158
  257SOL     OW  904   2.156   3.265   2.181  0.0576 -0.2993 -0.9776
  257SOL    HW1  905   2.248   3.276   2.203 -0.5854 -0.0321  1.9759
  257SOL    HW2  906   2.145   3.312   2.098  2.3997  0.3056 -1.0000
  258SOL     OW  907   0.959   0.037   0.563  0.8545 -0.4135 -0.2735
  258SOL    HW1  908   0.929   0.079   0.643  0.2859 -1.0993 -0.1141
  258SOL    HW2  909   1.000  -0.045   0.592 -3.1731 -2.9011 -0.8289
  259SOL     OW  910   0.282   2.115   2.291  0.3685  0.2171  0.5379
  259SOL    HW1  911   0.260   2.065   2.213  0.7882  0.5179  0.2290
  259SOL    HW2  912   0.232   2.197   2.282  0.8769  0.5018  0.2953
  260SOL     OW  913   2.330   0.393   1.727  0.2833 -0.2531  0.0098
  260SOL    HW1  914   2.327   0.299   1.744  1.5987 -0.4959 -0.9152
  260SOL    HW2  915   2.423   0.415   1.726  0.1874  0.4509 -2.6769
  261SOL     OW  916   1.460   2.500   1.618 -0.0305 -0.4506  0.0074
  261SOL    HW1  917   1.469   2.570   1.552  0.2163 -0.6224 -0.1423
  261SOL    HW2  918   1.470   2.546   1.702  2.1924 -0.5770 -0.1230
  262SOL     OW  919   2.990   1.906   3.654 -0.4702 -0.5173 -0.5220
  262SOL    HW1  920   2.910   1.910   3.706 -0.2702  0.6269 -0.2676
  262SOL    HW2  921   2.986   1.821   3.610 -2.2548 -0.1269 -1.2068
  263SOL     OW  922   0.241   1.773   0.416 -0.4948  0.1409  0.3726
  263SOL    HW1  923   0.230   1.816   0.331 -4.4125 -3.1795 -1.1119
  263SOL    HW2  924   0.223   1.842   0.480 -0.0069  2.1324 -1.5188
  264SOL     OW  925   1.436   2.027   2.545 -0.2322 -1.4131 -0.4048
  264SOL    HW1  926   1.388   2.038   2.627 -1.1236  1.9423 -1.2431
  264SOL    HW2  927   1.523   2.061   2.564 -1.2998  2.4301 -1.4537
  265SOL     OW  928   3.438   3.050   2.735  0.4511 -0.1322  0.0604
  265SOL    HW1  929   3.521   3.071   2.778  0.2278  1.1251 -0.0921
  265SOL    HW2  930   3.371   3.095   2.786 -0.1974 -1.4000  0.3703
  266SOL     OW  931   1.149   0.906   0.323  0.2802  1.2756  0.3201
  266SOL    HW1  932   1.070   0.858   0.345  0.0726  2.1830  1.6810
  266SOL    HW2  933   1.214   0.839   0.304 -0.3956  0.4890  0.7354
  267SOL     OW  934   2.769   0.883   1.268 -0.0639  0.7373  0.2041
  267SOL    HW1  935   2.826   0.869   1.344 -0.9965 -1.5527  0.5605
  267SOL    HW2  936   2.818   0.943   1.212  1.8243  0.3955  1.4088
  268SOL     OW  937   2.370   2.127   0.078 -0.0665  0.3410 -0.3202
  268SOL    HW1  938   2.430   2.197   0.055  1.0563 -0.4480  0.0959
  268SOL    HW2  939   2.283   2.165   0.069  0.5272  2.0663  0.7902
  269SOL     OW  940   1.621   0.129   2.251 -0.0747 -0.0286  0.1651
  269SOL    HW1  941   1.682   0.078   2.305 -1.0089 -1.8708 -0.4337
  269SOL    HW2  942   1.570   0.180   2.314  0.3850 -0.3927  0.8440
  270SOL     OW  943   3.426   0.566   0.405  0.1925 -0.3036 -0.6425
  270SOL    HW1  944   3.390   0.641   0.452 -1.7795 -0.5420 -1.6495
  270SOL    HW2  945   3.507   0.599   0.365  1.1297  0.3077  1.5883
  271SOL     OW  946   2.118   2.288   3.440 -0.1169 -0.7669 -0.4503
  271SOL    HW1  947   2.189   2.343   3.408  0.4125 -0.6255  0.8908
  271SOL    HW2  948   2.056   2.348   3.480  1.0489 -1.1006  2.1464
  272SOL     OW  949   1.466   1.552   3.705  0.6214 -0.8329 -0.2699
  272SOL    HW1  950   1.522   1.627   3.685  1.0512 -0.5870  1.6987
  272SOL    HW2  951   1.496   1.484   3.645 -0.0449  0.6316 -2.3825
  273SOL     OW  952   0.787   3.362   1.778 -0.8762  0.4143 -0.4966
  273SOL    HW1  953   0.860   3.413   1.812 -1.3369 -0.3082  1.7306
  273SOL    HW2  954   0.709   3.413   1.799 -1.2033 -0.2296 -0.0869
  274SOL     OW  955   0.634   0.122   0.746  0.2962 -0.0954  0.5572
  274SOL    HW1  956   0.575   0.118   0.821  0.6255  1.3542  0.9367
  274SOL    HW2  957   0.682   0.204   0.758 -1.2613  1.4062 -2.4643
  275SOL     OW  958   1.753   1.048   3.676  0.0237  0.5770  0.7749
  275SOL    HW1  959   1.797   0.986   3.735  0.3690  0.2887  0.2289
  275SOL    HW2  960   1.668   1.008   3.659  0.9529 -0.7746 -1.1056
  276SOL     OW  961   1.569   2.831   1.814  0.6928 -0.2214 -0.0271
  276SOL    HW1  962   1.507   2.763   1.843  1.7981 -1.5024 -0.6072
  276SOL    HW2  963   1.650   2.811   1.861  1.1481  0.4654 -0.5106
  277SOL     OW  964   0.464   2.719   0.670  0.4758 -0.1007  0.6037
  277SOL    HW1  965   0.454   2.673   0.587  2.1279 -1.2381  0.9933
  277SOL    HW2  966   0.507   2.801   0.647  0.9407 -0.4177  0.3258
  278SOL     OW  967   3.229   0.269   0.335 -0.4870  0.1765  0.0846
  278SOL    HW1  968   3.155   0.215   0.363 -0.4002  1.4148  2.9396
  278SOL    HW2  969   3.192   0.356   0.323  0.0077  0.2188 -1.3234
  279SOL     OW  970   1.062   0.053   2.359  1.0075 -0.5431 -0.6036
  279SOL    HW1  971   1.039   0.131   2.310 -1.0478 -0.6482  0.1019
  279SOL    HW2  972   0.979   0.019   2.392  2.0250 -1.9861  0.6726
  280SOL     OW  973   1.794   0.788   1.059 -0.1118 -0.1401 -0.2703
  280SOL    HW1  974   1.757   0.725   0.997 -1.3440  0.7287 -0.4719
  280SOL    HW2  975   1.864   0.740   1.104  0.0882 -1.1157 -1.5692
  281SOL     OW  976   3.126   1.643   2.869 -0.9029  0.0034 -0.4919
  281SOL    HW1  977   3.203   1.698   2.877 -0.1694 -0.9660 -0.7151
  281SOL    HW2  978   3.053   1.700   2.891 -0.0897  0.8338  0.0980
  282SOL     OW  979   2.934   1.100   1.713 -0.2395  0.4695 -0.0997
  282SOL    HW1  980   2.938   1.014   1.672 -0.2169  0.8808 -0.9911
  282SOL    HW2  981   3.021   1.111   1.752 -0.2486  0.0895  0.0378
  283SOL     OW  982   3.094   1.586   2.391  0.7745 -0.3784  0.0532
  283SOL    HW1  983   3.103   1.617   2.301 -0.0797  0.2665  0.1795
  283SOL    HW2  984   3.131   1.656   2.445 -2.4042  1.1803  0.4255
  284SOL     OW  985   1.677   1.859   2.030 -0.1868 -0.1808  0.4329
  284SOL    HW1  986   1.638   1.795   2.091 -1.2991  0.7925  0.7812
  284SOL    HW2  987   1.620   1.856   1.954  0.3083 -0.2650  0.0603
  285SOL     OW  988   1.218   2.821   1.915  0.6758  0.1404  0.2690
  285SOL    HW1  989   1.178   2.862   1.991 -1.2831 -2.3202  0.7003
  285SOL    HW2  990   1.254   2.894   1.864 -0.5414  2.1179  2.0708
  286SOL     OW  991   1.633   2.533   3.559 -0.3108  0.1522  0.4780
  286SOL    HW1  992   1.700   2.494   3.503 -2.2209 -0.4130 -1.5805
  286SOL    HW2  993   1.580   2.459   3.588 -0.5928  0.6748  1.3334
  287SOL     OW  994   3.628   0.120   1.114 -0.8901  0.1737 -0.2815
  287SOL    HW1  995   3.630   0.096   1.207 -0.2827 -1.8069 -0.7623
  287SOL    HW2  996   3.543   0.162   1.102 -0.4659  1.6361  1.4142
  288SOL     OW  997   0.579   3.015   1.127 -0.5862 -0.8603 -0.8439
  288SOL    HW1  998   0.587   2.934   1.177 -1.8478 -0.2781  0.3816
  288SOL    HW2  999   0.668   3.047   1.118 -0.1630 -1.8937 -0.5037
  289SOL     OW 1000   1.269   1.917   1.649 -0.1065 -0.8138  0.1512
  289SOL    HW1 1001   1.182   1.956   1.652  0.1264 -0.3486  1.3338
  289SOL    HW2 1002   1.311   1.946   1.730  1.2989 -0.6763 -0.5921
  290SOL     OW 1003   1.478   0.776   1.993  0.0885  0.0251 -0.2798
  290SOL    HW1 1004   1.424   0.751   2.068  1.8141 -0.8254  0.7296
  290SOL    HW2 1005   1.446   0.722   1.921 -0.9252  0.1211  0.0826
  291SOL     OW 1006   3.441   0.625   3.215 -0.2805  0.0710 -0.5064
  291SOL    HW1 1007   3.358   0.595   3.253  0.2726 -0.7572  0.0630
  291SOL    HW2 1008   3.509   0.580   3.265  0.6219  2.3158  0.4319
  292SOL     OW 1009   3.685   1.899   0.144 -0.2886  0.0581 -0.0066
  292SOL    HW1 1010   3.776   1.919   0.124 -0.9120  2.6646 -0.7318
  292SOL    HW2 1011   3.672   1.933   0.233 -0.7126  0.4078 -0.1943
  293SOL     OW 1012   3.253   3.306   3.573 -0.8911  0.0702  0.2928
  293SOL    HW1 1013   3.177   3.351   3.609 -1.0350 -1.5051  2.0905
  293SOL    HW2 1014   3.259   3.337   3.482 -3.5661  0.3351  0.1459
  294SOL     OW 1015   2.740   3.633   3.571  0.4354 -0.4023 -0.0777
  294SOL    HW1 1016   2.716   3.683   3.649 -0.4594  1.7874 -1.6760
  294SOL    HW2 1017   2.658   3.592   3.542  0.3783  0.2262 -0.8337
  295SOL     OW 1018   1.407   3.002   3.348  0.0790  0.5685  0.2144
  295SOL    HW1 1019   1.382   2.914   3.319 -0.8104  0.5301  1.0261
  295SOL    HW2 1020   1.494   2.991   3.387 -0.0158  0.0443  0.2850
  296SOL     OW 1021   3.184   2.419   1.112 -0.4063 -0.0569  0.5662
  296SOL    HW1 1022   3.195   2.456   1.199 -1.2469  0.6448  0.3903
  296SOL    HW2 1023   3.232   2.479   1.054 -2.1300  1.0508  0.2270
  297SOL     OW 1024   2.801   2.352   0.122  0.4244  0.0866  0.6917
  297SOL    HW1 1025   2.856   2.419   0.082  0.0268 -0.5929 -1.0900
  297SOL    HW2 1026   2.855   2.273   0.121  0.4380  0.0756  1.6221
  298SOL     OW 1027   2.770   2.143   3.049 -0.0302 -0.1870  0.0727
  298SOL    HW1 1028   2.751   2.217   3.106  0.5044  0.4831 -0.6013
  298SOL    HW2 1029   2.694   2.136   2.991 -0.6333 -0.9509  0.9281
  299SOL     OW 1030   3.071   2.549   1.487 -0.1215  0.5779  0.3973
  299SOL    HW1 1031   3.027   2.503   1.559  0.8250 -0.3010  0.4318
  299SOL    HW2 1032   3.131   2.484   1.450  0.2794  1.3903 -0.4161
  300SOL     OW 1033   1.281   2.985   3.113 -0.5536 -0.4564 -0.5652
  300SOL    HW1 1034   1.192   3.019   3.119 -0.6719 -0.6790 -1.0347
  300SOL    HW2 1035   1.321   3.007   3.197 -0.9996 -0.2093 -0.4178
  301SOL     OW 1036   3.054   1.800   0.877 -0.2135 -0.3917 -0.0296
  301SOL    HW1 1037   2.984   1.800   0.943  0.0107 -0.9535  0.2139
  301SOL    HW2 1038   3.058   1.891   0.847 -2.5515 -0.7196 -1.6560
  302SOL     OW 1039   3.230   0.413   0.041  0.5621  0.4574 -0.5220
  302SOL    HW1 1040   3.150   0.433  -0.008 -0.3972 -2.0246 -0.1238
  302SOL    HW2 1041   3.202   0.410   0.132  1.7322  2.1499 -0.0501
  303SOL     OW 1042   0.661   3.688   3.462  0.1364 -0.1231  0.0682
  303SOL    HW1 1043   0.598   3.619   3.440 -4.4097  3.2757  0.9010
  303SOL    HW2 1044   0.697   3.715   3.378 -2.4637  0.1653 -1.0660
  304SOL     OW 1045   3.186   0.731   2.999 -0.2138 -0.5375  0.0975
  304SOL    HW1 1046   3.124   0.787   3.045 -1.0128 -1.2332 -0.1188
  304SOL    HW2 1047   3.260   0.789   2.980 -0.5182  0.1399  0.9063
  305SOL     OW 1048   0.602   0.800   3.253 -0.0335 -0.3710  0.4983
  305SOL    HW1 1049   0.689   0.836   3.235 -0.9380  2.2168  0.9468
  305SOL    HW2 1050   0.619   0.716   3.296  2.2115 -0.4712 -0.4677
  306SOL     OW 1051   2.153   1.178   2.113 -0.4301  0.7080  0.5330
  306SOL    HW1 1052   2.123   1.233   2.041 -1.4272  2.5383  2.2588
  306SOL    HW2 1053   2.077   1.172   2.171  0.2784 -0.9131  1.3502
  307SOL     OW 1054   3.051   0.201   2.805 -0.6475  0.1279  0.4330
  307SOL    HW1 1055   2.997   0.280   2.807  0.6854  1.0842  0.1570
  307SOL    HW2 1056   2.990   0.130   2.789 -1.6397  1.3513 -1.4873
  308SOL     OW 1057   3.687   3.392   3.394 -0.0990  0.1645  0.0904
  308SOL    HW1 1058   3.644   3.462   3.443  0.9638  0.4226  0.6981
  308SOL    HW2 1059   3.626   3.318   3.398 -0.7650  0.7193  0.3516
  309SOL     OW 1060   1.729   2.051   1.280  0.3412  0.0483 -0.3841
  309SOL    HW1 1061   1.809   2.045   1.228  0.6250 -1.8398  0.1914
  309SOL    HW2 1062   1.669   1.989   1.239  0.7479 -1.8947  1.7288
  310SOL     OW 1063   2.835   1.609   1.559  0.6503 -0.2194  0.4387
  310SOL    HW1 1064   2.881   1.655   1.629 -0.2328  1.3434  0.0409
  310SOL    HW2 1065   2.871   1.645   1.479  2.5007 -2.8366 -0.0198
  311SOL     OW 1066   0.692   3.436   3.141 -0.4082  0.1204  1.3970
  311SOL    HW1 1067   0.782   3.411   3.121 -0.8579 -0.4668 -0.0064
  311SOL    HW2 1068   0.649   3.354   3.166 -1.0657  0.0054 -0.0080
  312SOL     OW 1069   0.484   2.663   1.199 -0.4302  0.6360  0.0229
  312SOL    HW1 1070   0.441   2.685   1.117  1.4556  0.7965 -0.9945
  312SOL    HW2 1071   0.483   2.567   1.202  0.4093  0.5817 -0.7643
  313SOL     OW 1072   2.708   0.267   1.050  0.2001  0.1959  0.2900
  313SOL    HW1 1073   2.801   0.262   1.071  0.4793 -0.7945 -1.0464
  313SOL    HW2 1074   2.678   0.176   1.051 -0.6034  0.4540  0.0897
  314SOL     OW 1075   2.878   3.507   0.398  0.0725 -0.0061 -0.0806
  314SOL    HW1 1076   2.874   3.601   0.415 -0.7945 -0.1509  0.5928
  314SOL    HW2 1077   2.968   3.492   0.371 -0.2728  1.3432 -2.2795
  315SOL     OW 1078   1.417   2.688   3.393 -0.4394  0.3108 -0.2099
  315SOL    HW1 1079   1.493   2.707   3.448 -0.9370  1.8967 -0.0332
  315SOL    HW2 1080   1.360   2.635   3.450 -0.7378  1.5414  0.6845
  316SOL     OW 1081   3.284   1.862   1.777  0.1770 -0.4000 -0.2015
  316SOL    HW1 1082   3.373   1.838   1.806  0.0320 -0.2753  0.3697
  316SOL    HW2 1083   3.233   1.782   1.786 -0.1760 -0.0527  1.1738
  317SOL     OW 1084   1.147   1.020   3.151  0.5675  0.0988 -0.3057
  317SOL    HW1 1085   1.241   1.023   3.167  0.6790  1.1508 -1.0267
  317SOL    HW2 1086   1.125   1.108   3.119 -0.5923 -0.2342 -0.4859
  318SOL     OW 1087   3.673   0.418   3.589 -0.2573 -0.1122  0.3312
  318SOL    HW1 1088   3.582   0.403   3.562 -0.4438  2.5643 -0.9310
  318SOL    HW2 1089   3.724   0.409   3.508  0.3753 -0.0311  0.7122
  319SOL     OW 1090   1.049   1.269   3.064  0.7513  0.4187  0.0669
  319SOL    HW1 1091   1.016   1.347   3.108  1.0973  0.1719  0.7695
  319SOL    HW2 1092   1.138   1.292   3.039  0.9923  0.1147  0.6301
  320SOL     OW 1093   0.909   1.647   3.021  0.1977  0.3228  0.4876
  320SOL    HW1 1094   0.840   1.681   3.078 -1.0529 -1.2928  0.0402
  320SOL    HW2 1095   0.887   1.680   2.934  0.2326  0.1780  0.4221
  321SOL     OW 1096   2.210   1.492   1.195 -0.4843  0.3633  0.0815
  321SOL    HW1 1097   2.120   1.488   1.163 -0.6973 -1.2078  0.7591
  321SOL    HW2 1098   2.264   1.501   1.117 -1.1563 -0.0898 -0.4388
  322SOL     OW 1099   3.417   0.343   3.452 -0.3470  0.1127  0.5226
  322SOL    HW1 1100   3.388   0.370   3.365  1.2131  0.6177  0.1293
  322SOL    HW2 1101   3.444   0.252   3.441  1.5938  0.7092 -0.0070
  323SOL     OW 1102   2.827   3.380   0.129 -0.3196 -0.8141  0.0330
  323SOL    HW1 1103   2.844   3.325   0.205 -1.4400 -1.5080 -0.1813
  323SOL    HW2 1104   2.753   3.435   0.156  0.9438  0.7973  0.3308
  324SOL     OW 1105   3.521   1.982   2.740  0.9448 -0.4979  0.6490
  324SOL    HW1 1106   3.462   1.988   2.665  0.8409  0.9651  0.8157
  324SOL    HW2 1107   3.563   2.068   2.744  0.8453 -0.5010  2.3548
  325SOL     OW 1108   1.776   1.310   0.044  0.0269 -0.0108  0.2896
  325SOL    HW1 1109   1.737   1.297   0.130  1.6846  0.3301  1.1390
  325SOL    HW2 1110   1.764   1.227  -0.002  1.6692 -1.2212  1.9367
  326SOL     OW 1111   3.196   0.163   1.883  0.1065  0.6345 -0.0749
  326SOL    HW1 1112   3.161   0.252   1.877 -0.4398  0.6452  2.1795
  326SOL    HW2 1113   3.140   0.111   1.825 -0.6268  1.4844 -0.1599
  327SOL     OW 1114   3.118   0.467   2.171  0.1603 -0.8287  1.3016
  327SOL    HW1 1115   3.125   0.560   2.190  0.4130 -0.6660  0.4676
  327SOL    HW2 1116   3.166   0.456   2.089 -2.1655 -1.1783 -0.1138
  328SOL     OW 1117   1.073   3.106   2.596  0.1050 -0.0607  0.3293
  328SOL    HW1 1118   0.988   3.150   2.593 -0.0377 -0.3541 -0.0507
  328SOL    HW2 1119   1.122   3.153   2.663 -0.9034 -0.8867  1.7003
  329SOL     OW 1120   1.911   0.845   2.345  0.4437 -0.4363 -0.4203
  329SOL    HW1 1121   1.884   0.816   2.258  1.9013  1.1524 -1.4608
  329SOL    HW2 1122   2.006   0.839   2.344  0.5335  0.4940  0.7517
  330SOL     OW 1123   1.609   1.579   3.336 -0.1668  0.4065  0.2869
  330SOL    HW1 1124   1.670   1.546   3.271 -0.3301 -0.4468  0.5622
  330SOL    HW2 1125   1.664   1.627   3.398  0.0204  0.9867 -0.3120
  331SOL     OW 1126   3.371   3.695   3.183  0.2333  0.0497  0.2421
  331SOL    HW1 1127   3.334   3.668   3.268  1.3424  0.7674  0.9819
  331SOL    HW2 1128   3.301   3.746   3.143  0.6531  2.1976  2.0313
  332SOL     OW 1129   0.945   1.606   1.444  0.2422 -0.1164 -0.1098
  332SOL    HW1 1130   0.998   1.679   1.413  0.6687  0.8908  2.7083
  332SOL    HW2 1131   0.858   1.622   1.407  0.6907  1.0228 -0.7113
  333SOL     OW 1132   1.514   3.128   2.780  0.7758 -0.2716  0.5158
  333SOL    HW1 1133   1.534   3.041   2.813  0.5885 -1.1377 -1.5258
  333SOL    HW2 1134   1.475   3.113   2.694 -0.1166  1.7896  0.4944
  334SOL     OW 1135   3.639   2.948   0.818 -0.0194  0.2634  0.1243
  334SOL    HW1 1136   3.731   2.968   0.834  0.1259 -0.5121  0.3282
  334SOL    HW2 1137   3.591   3.023   0.852  0.4688  0.0392  1.3410
  335SOL     OW 1138   2.290   2.968   3.695  0.2662 -0.4624  0.6605
  335SOL    HW1 1139   2.268   3.041   3.753  0.3373 -0.0397  0.1676
  335SOL    HW2 1140   2.368   2.929   3.734  1.5153  1.0620 -0.2111
  336SOL     OW 1141   2.706   1.413   2.469  0.5565 -0.3997  0.3256
  336SOL    HW1 1142   2.622   1.389   2.507 -0.5954  0.6211 -1.4019
  336SOL    HW2 1143   2.716   1.506   2.490 -0.2937  0.2985 -1.9792
  337SOL     OW 1144   0.308   2.088   0.369 -0.3541  1.0631 -0.0426
  337SOL    HW1 1145   0.231   2.046   0.331 -1.3406  1.2956  1.5849
  337SOL    HW2 1146   0.373   2.087   0.299 -1.5814  0.1888 -1.2281
  338SOL     OW 1147   0.752   0.302   3.295 -0.3424 -0.3039  0.3348
  338SOL    HW1 1148   0.823   0.320   3.234  1.8655  0.2237  2.8992
  338SOL    HW2 1149   0.700   0.233   3.252  2.1769 -1.3085 -1.2964
  339SOL     OW 1150   0.143   1.394   0.949  0.3581 -0.3734  0.1640
  339SOL    HW1 1151   0.220   1.409   1.005  0.2200 -0.7168  0.4451
  339SOL    HW2 1152   0.143   1.300   0.932  0.3018 -0.2953 -0.2760
  340SOL     OW 1153   3.696   0.772   0.822 -0.3310 -0.0578 -0.2959
  340SOL    HW1 1154   3.716   0.837   0.755  0.9907  0.4034  0.5206
  340SOL    HW2 1155   3.760   0.702   0.808  0.3776  0.3360  0.8618
  341SOL     OW 1156   2.215   0.032   2.111 -0.5850  1.0288  0.0407
  341SOL    HW1 1157   2.216   0.114   2.160  0.0886  0.7305  0.5375
  341SOL    HW2 1158   2.192  -0.034   2.176  0.5071  0.6026  0.0096
  342SOL     OW 1159   2.674   3.671   1.741  1.0644 -0.1732  1.0704
  342SOL    HW1 1160   2.760   3.629   1.748  1.1979  0.1696  1.5894
  342SOL    HW2 1161   2.611   3.599   1.743  1.2285 -0.3358  3.1984
  343SOL     OW 1162   0.682   2.203   1.605  0.3811 -0.4819 -0.2562
  343SOL    HW1 1163   0.616   2.251   1.655  1.2794  2.0452 -1.3167
  343SOL    HW2 1164   0.750   2.268   1.587  1.9764 -2.3425 -1.3311
  344SOL     OW 1165   2.748   2.942   3.034  0.6696  0.0912 -0.0717
  344SOL    HW1 1166   2.727   3.034   3.017 -3.0235 -0.5893 -0.0365
  344SOL    HW2 1167   2.777   2.940   3.125  0.2919  1.1737  0.0823
  345SOL     OW 1168   0.215   3.226   0.077  0.0942  0.5913 -0.0741
  345SOL    HW1 1169   0.127   3.263   0.071  0.2315  0.8188 -0.7341
  345SOL    HW2 1170   0.222   3.196   0.168 -0.6721  0.5467 -0.0253
  346SOL     OW 1171   1.551   1.708   1.764  0.2345 -0.0878  0.3179
  346SOL    HW1 1172   1.535   1.620   1.798  0.8616  0.2855  1.6583
  346SOL    HW2 1173   1.641   1.706   1.732  0.1184 -0.0338 -0.0196
  347SOL     OW 1174   2.363   1.572   3.474 -0.0828 -0.4612  0.4521
  347SOL    HW1 1175   2.436   1.560   3.413 -0.0876 -2.1244  0.7424
  347SOL    HW2 1176   2.310   1.641   3.434 -0.1481 -1.5742 -1.5210
  348SOL     OW 1177   3.247   1.259   2.335  0.4987  0.1751  0.2956
  348SOL    HW1 1178   3.336   1.239   2.306  0.5187 -0.0826  0.5288
  348SOL    HW2 1179   3.204   1.294   2.257  0.6939 -0.0487  0.0846
  349SOL     OW 1180   2.861   2.126   2.729  0.8105  0.1602 -0.3261
  349SOL    HW1 1181   2.906   2.043   2.711  1.7742  0.4707  0.5242
  349SOL    HW2 1182   2.889   2.149   2.817  0.6633  1.4689 -0.6063
  350SOL     OW 1183   0.436   2.928   2.486 -0.4711  0.1224 -0.0419
  350SOL    HW1 1184   0.529   2.926   2.462 -0.4660  1.3550 -0.2267
  350SOL    HW2 1185   0.397   2.991   2.424 -1.4159 -0.3384  0.0690
  351SOL     OW 1186   0.402   1.930   3.332 -0.0301  0.4893 -0.9946
  351SOL    HW1 1187   0.327   1.874   3.351  0.6009  0.3036  1.2297
  351SOL    HW2 1188   0.423   1.912   3.240  0.0537 -2.8873 -0.4402
  352SOL     OW 1189   2.057   0.934   3.120  0.3181  0.3502 -0.0428
  352SOL    HW1 1190   1.976   0.887   3.101  1.4372 -1.6776 -0.1585
  352SOL    HW2 1191   2.110   0.922   3.041  0.7967  1.5207  0.0899
  353SOL     OW 1192   0.813   0.357   3.663  0.1187 -0.3637 -0.3981
  353SOL    HW1 1193   0.886   0.309   3.703  1.2998  1.1002 -0.6969
  353SOL    HW2 1194   0.744   0.292   3.654 -0.4371 -0.7762  4.3630
  354SOL     OW 1195   3.017   2.135   1.147  0.7313 -0.1438  0.5742
  354SOL    HW1 1196   3.046   2.206   1.090  1.7090 -0.8168  0.1968
  354SOL    HW2 1197   3.085   2.069   1.139 -0.8465 -1.7776 -0.2603
  355SOL     OW 1198   1.027   2.906   2.789 -0.3450  0.4868 -0.7860
  355SOL    HW1 1199   1.115   2.897   2.827 -0.8937 -1.3766  0.1521
  355SOL    HW2 1200   1.027   2.993   2.749  1.1690  1.4379  1.1389
  356SOL     OW 1201   0.008   2.787   1.273 -0.1715  0.5126  0.9420
  356SOL    HW1 1202   0.036   2.842   1.346  1.5959  0.0905  0.6440
  356SOL    HW2 1203   0.081   2.793   1.210 -1.1458 -0.0287 -0.2832
  357SOL     OW 1204   3.260   0.996   2.883  0.2504 -0.1020  0.1199
  357SOL    HW1 1205   3.302   1.057   2.943 -0.0360  1.6278 -1.3549
  357SOL    HW2 1206   3.175   1.036   2.864  0.6345 -0.1870 -1.9823
  358SOL     OW 1207   3.598   1.949   3.072  0.2116 -0.0218 -0.0224
  358SOL    HW1 1208   3.669   1.943   3.009  0.1367  2.0334 -0.3678
  358SOL    HW2 1209   3.630   1.904   3.150  1.8768  0.8616 -0.1759
  359SOL     OW 1210   1.637   0.048   1.970  0.5017  0.3220 -0.3898
  359SOL    HW1 1211   1.600   0.128   1.933 -1.4734 -0.2925  0.1589
  359SOL    HW2 1212   1.644   0.065   2.064  0.8506  0.1477 -0.3818
  360SOL     OW 1213   0.152   2.205   2.919 -0.0027 -0.3712  0.0645
  360SOL    HW1 1214   0.105   2.195   3.001 -1.7661  1.4524 -0.6449
  360SOL    HW2 1215   0.087   2.238   2.857  1.5633 -0.4540 -1.7345
  361SOL     OW 1216   3.011   2.543   0.371 -0.3426 -0.1815  0.3321
  361SOL    HW1 1217   3.078   2.494   0.322  0.2839 -1.6615  2.5228
  361SOL    HW2 1218   3.051   2.559   0.456 -3.1883 -2.3239  2.2528
  362SOL     OW 1219   0.946   1.571   2.307 -0.4297  0.1076 -0.5388
  362SOL    HW1 1220   0.947   1.490   2.256  0.3195  0.2036 -0.6924
  362SOL    HW2 1221   0.944   1.641   2.241  0.4515  0.2306 -0.4529
  363SOL     OW 1222   2.723   2.575   2.950 -0.4848  0.7707  0.0084
  363SOL    HW1 1223   2.633   2.548   2.931 -0.3791  0.2272  0.2565
  363SOL    HW2 1224   2.719   2.611   3.038 -0.4080  0.5017  0.1209
  364SOL     OW 1225   0.793   0.338   0.791 -0.8076 -0.0288  0.2646
  364SOL    HW1 1226   0.843   0.413   0.824 -1.7873  0.6251  0.2763
  364SOL    HW2 1227   0.827   0.264   0.840 -1.2836  0.7184  1.7836
  365SOL     OW 1228   1.063   3.513   2.680  0.1966 -0.0032 -0.0982
  365SOL    HW1 1229   1.047   3.429   2.723 -0.2920  1.2153  2.2730
  365SOL    HW2 1230   1.136   3.496   2.620 -0.9247 -2.4564 -0.8845
  366SOL     OW 1231   1.611   2.161   0.972  0.5746 -0.3597 -0.1119
  366SOL    HW1 1232   1.623   2.069   0.951 -1.3514 -0.7102  0.1730
  366SOL    HW2 1233   1.592   2.202   0.888  0.7612 -0.3259 -0.1396
  367SOL     OW 1234   2.438   2.465   1.350 -0.8954  0.3497  0.0497
  367SOL    HW1 1235   2.405   2.481   1.262 -0.5464 -0.0263 -0.1547
  367SOL    HW2 1236   2.470   2.374   1.347 -2.0185 -0.0927  0.9130
  368SOL     OW 1237   0.999   2.308   0.195  0.6190 -0.1609 -0.3665
  368SOL    HW1 1238   1.002   2.349   0.281  0.1782  1.3651 -1.0373
  368SOL    HW2 1239   1.063   2.237   0.199  1.7578  0.8849  0.7130
  369SOL     OW 1240   0.526   3.215   3.226  0.3590  0.2727  0.2241
  369SOL    HW1 1241   0.458   3.221   3.293 -1.4518 -0.5662 -1.4349
  369SOL    HW2 1242   0.524   3.123   3.199  0.9878  0.6005 -1.0115
  370SOL     OW 1243   1.848   2.885   3.451  0.4505 -0.5387 -0.1035
  370SOL    HW1 1244   1.894   2.917   3.529 -0.0330  0.7533 -0.3280
  370SOL    HW2 1245   1.891   2.929   3.378  0.3530 -1.1002 -0.5068
  371SOL     OW 1246   2.979   3.100   2.529  0.7482  0.3382 -0.4416
  371SOL    HW1 1247   2.956   3.099   2.436  1.3674 -0.3276 -0.5923
  371SOL    HW2 1248   3.075   3.101   2.530  0.7424  0.3818  0.1856
  372SOL     OW 1249   1.941   1.610   2.539  0.0139  0.6594 -0.3978
  372SOL    HW1 1250   2.003   1.569   2.600 -0.6068 -0.6659 -0.6300
  372SOL    HW2 1251   1.944   1.703   2.562  0.9432  0.4133  0.6137
  373SOL     OW 1252   3.629   2.222   0.833  0.5302 -0.1233  0.1565
  373SOL    HW1 1253   3.646   2.268   0.751 -0.4854  0.4212  0.2310
  373SOL    HW2 1254   3.709   2.173   0.851  0.4483 -1.0097 -1.6594
  374SOL     OW 1255   1.867   2.526   1.811  1.1659 -0.5067 -0.3575
  374SOL    HW1 1256   1.814   2.551   1.886 -1.2252 -1.0317 -1.7831
  374SOL    HW2 1257   1.903   2.608   1.778  4.2089 -0.4484  2.5930
  375SOL     OW 1258   2.906   2.350   3.394  0.9780  0.6875  1.1725
  375SOL    HW1 1259   2.990   2.324   3.432  0.9529 -1.0961  0.1028
  375SOL    HW2 1260   2.925   2.366   3.302  0.5474  2.4773  1.3625
  376SOL     OW 1261   2.676   0.534   1.131  0.0983 -0.1229 -0.2529
  376SOL    HW1 1262   2.750   0.568   1.081  1.8377 -1.7380  1.0330
  376SOL    HW2 1263   2.661   0.446   1.096 -0.3682 -0.2802  0.3139
  377SOL     OW 1264   0.772   2.777   1.051 -0.2272  0.0200 -0.4198
  377SOL    HW1 1265   0.792   2.866   1.021  2.9194 -0.5772 -0.4062
  377SOL    HW2 1266   0.840   2.722   1.011 -0.8592 -2.0766  1.1903
  378SOL     OW 1267   0.483   1.723   1.555 -0.9794  0.1026  0.3471
  378SOL    HW1 1268   0.508   1.809   1.590 -1.1265  0.0845  0.4952
  378SOL    HW2 1269   0.508   1.661   1.624 -1.5329  0.0936  0.5415
  379SOL     OW 1270   2.425   3.069   2.153 -0.0018 -0.1566  0.4136
  379SOL    HW1 1271   2.383   3.019   2.084  1.6434 -0.0182 -0.7624
  379SOL    HW2 1272   2.515   3.083   2.122  0.5572  0.6570  2.1948
  380SOL     OW 1273   0.902   1.173   0.843  0.1769 -0.0650 -0.2339
  380SOL    HW1 1274   0.938   1.133   0.923 -1.3767 -1.8232 -0.3598
  380SOL    HW2 1275   0.923   1.111   0.774  0.5270  0.9101 -1.0116
  381SOL     OW 1276   1.828   2.281   1.153 -0.0142  0.2199 -0.2911
  381SOL    HW1 1277   1.812   2.244   1.239 -0.8107  0.8035 -0.1791
  381SOL    HW2 1278   1.754   2.252   1.100 -1.1579  2.3368  0.0347
  382SOL     OW 1279   3.727   2.499   2.580 -0.6129 -0.2627 -0.0474
  382SOL    HW1 1280   3.774   2.580   2.598  0.2039  0.1752 -3.4148
  382SOL    HW2 1281   3.645   2.528   2.538 -1.1053 -1.1510  0.2687
  383SOL     OW 1282   2.518   3.605   0.430 -0.0355  0.0879  0.1084
  383SOL    HW1 1283   2.429   3.575   0.413 -0.2552  0.5052  0.4910
  383SOL    HW2 1284   2.552   3.543   0.495 -0.3452  0.4200  0.5923
  384SOL     OW 1285   3.153   2.567   2.618 -0.2114  0.3616  0.0684
  384SOL    HW1 1286   3.059   2.548   2.627 -0.4123  1.2315 -0.0348
  384SOL    HW2 1287   3.197   2.496   2.664 -0.9189 -0.1786 -0.0795
  385SOL     OW 1288   2.132   3.381  -0.033 -0.3516 -0.4868 -0.3080
  385SOL    HW1 1289   2.062   3.364   0.030  0.7004 -1.3309  0.6786
  385SOL    HW2 1290   2.212   3.355   0.012  0.6967  1.0753 -1.1599
  386SOL     OW 1291   2.048   1.757   1.386  0.3388 -0.3095  0.0203
  386SOL    HW1 1292   2.094   1.717   1.460  0.5314  2.1091  1.3292
  386SOL    HW2 1293   1.969   1.794   1.424 -0.2564 -0.1871 -1.2740
  387SOL     OW 1294   2.176   2.058   2.830  0.0491 -0.0339  1.1289
  387SOL    HW1 1295   2.235   2.059   2.905  0.7416 -0.2646  0.5928
  387SOL    HW2 1296   2.232   2.076   2.755 -0.2980 -1.6691  0.4355
  388SOL     OW 1297   2.828   3.655   2.890 -0.0988 -0.3051 -0.1601
  388SOL    HW1 1298   2.768   3.582   2.908 -2.0233  0.4728 -2.6519
  388SOL    HW2 1299   2.843   3.649   2.795  0.5912  1.8509 -0.2324
  389SOL     OW 1300   2.562   0.161   2.326 -0.1235  0.0167 -0.2543
  389SOL    HW1 1301   2.585   0.129   2.238  1.1864  1.9884 -0.6991
  389SOL    HW2 1302   2.574   0.085   2.383  2.0440 -0.5694 -1.3641
  390SOL     OW 1303   0.380   1.951   1.425  0.1287 -0.4428  0.1705
  390SOL    HW1 1304   0.345   1.991   1.504 -0.0541 -0.8340  0.2874
  390SOL    HW2 1305   0.465   1.994   1.412 -0.3046  0.3812 -0.0188
  391SOL     OW 1306   0.418   1.122   1.342  0.2161 -0.0388 -0.4530
  391SOL    HW1 1307   0.476   1.195   1.319 -1.3848  1.5105  0.1296
  391SOL    HW2 1308   0.461   1.044   1.307  1.4865  1.3204 -2.0709
  392SOL     OW 1309   1.210   2.790   0.255 -0.1269 -0.3965 -1.0008
  392SOL    HW1 1310   1.276   2.732   0.292 -0.4267  0.2017  0.5643
  392SOL    HW2 1311   1.253   2.828   0.178  0.9104 -0.9392 -0.7174
  393SOL     OW 1312   2.823   0.838   1.969  0.3564  0.0908 -0.0901
  393SOL    HW1 1313   2.786   0.787   1.897 -0.4418  1.1258 -0.4361
  393SOL    HW2 1314   2.783   0.801   2.047  2.8672 -2.5213  0.1290
  394SOL     OW 1315   2.904   3.445   2.400  0.8289  0.3529 -0.2737
  394SOL    HW1 1316   2.835   3.395   2.443 -0.2898  0.9953 -1.2539
  394SOL    HW2 1317   2.895   3.425   2.307  1.1854  1.3584 -0.5453
  395SOL     OW 1318   3.624   1.699   0.708 -0.1673 -0.4870 -0.1622
  395SOL    HW1 1319   3.582   1.632   0.762  0.7607 -1.9907 -1.2275
  395SOL    HW2 1320   3.714   1.668   0.697 -0.2680 -0.1805 -2.3915
  396SOL     OW 1321   2.186   0.819   1.172 -0.3157  0.5981  0.2428
  396SOL    HW1 1322   2.167   0.845   1.263  0.2562 -0.7878  0.7848
  396SOL    HW2 1323   2.267   0.768   1.178 -1.3902 -1.3391 -0.7114
  397SOL     OW 1324   0.479   0.783   0.895  0.0289  0.2681 -0.3947
  397SOL    HW1 1325   0.395   0.758   0.858 -0.2418 -1.5325  1.2902
  397SOL    HW2 1326   0.476   0.879   0.898 -2.6565  0.2420  1.0457
  398SOL     OW 1327   3.261   1.796   0.581  0.3865 -0.4145 -0.2905
  398SOL    HW1 1328   3.340   1.837   0.614  1.5656 -2.7334 -0.0088
  398SOL    HW2 1329   3.200   1.797   0.655  1.6314 -2.1519  0.8279
  399SOL     OW 1330   1.433   3.145   2.492  0.4988 -0.5956 -0.2306
  399SOL    HW1 1331   1.368   3.134   2.423  1.7329  0.1686 -1.5778
  399SOL    HW2 1332   1.503   3.084   2.469  0.6243 -0.8377  0.7451
  400SOL     OW 1333   3.560   2.506   2.881  0.4355 -0.1653 -0.1431
  400SOL    HW1 1334   3.577   2.598   2.862  0.3298 -0.2354 -0.5913
  400SOL    HW2 1335   3.631   2.459   2.838  1.3797 -0.2042  1.3907
  401SOL     OW 1336   1.419   1.683   0.367  0.3286  0.1275  0.0314
  401SOL    HW1 1337   1.509   1.684   0.398  0.9356 -0.7810 -1.5502
  401SOL    HW2 1338   1.412   1.602   0.316 -1.0375  0.7303 -0.8192
  402SOL     OW 1339   0.915   0.757   0.445  0.1394 -0.4824  0.6529
  402SOL    HW1 1340   0.937   0.664   0.436  0.4635 -0.2343 -1.9371
  402SOL    HW2 1341   0.823   0.757   0.472  0.2922 -1.5359  1.2416
  403SOL     OW 1342   2.131   2.418   1.170  0.2205 -0.3013 -0.1388
  403SOL    HW1 1343   2.044   2.406   1.206 -0.1740  0.3851 -0.8153
  403SOL    HW2 1344   2.168   2.330   1.164 -1.0100 -0.7732 -1.2287
  404SOL     OW 1345   0.915   1.421   2.064  0.2507 -0.2976 -0.2448
  404SOL    HW1 1346   0.948   1.333   2.084  1.6910  0.3026  0.1652
  404SOL    HW2 1347   0.920   1.427   1.968 -0.1338 -0.7507 -0.2991
  405SOL     OW 1348   2.468   2.203   0.752 -0.4654 -0.3717 -0.0212
  405SOL    HW1 1349   2.406   2.205   0.678  1.5283 -1.8389 -1.8541
  405SOL    HW2 1350   2.551   2.232   0.714  0.4421 -0.3579  1.8804
  406SOL     OW 1351   2.280   1.872  -0.004  0.4258  0.5186 -0.4352
  406SOL    HW1 1352   2.312   1.959   0.019  0.1603  0.4598  0.1673
  406SOL    HW2 1353   2.185   1.881  -0.009  0.4417  0.4170 -1.0511
  407SOL     OW 1354   0.091   1.200   0.549 -0.4570  0.6877 -0.0274
  407SOL    HW1 1355   0.058   1.266   0.610  0.8285 -0.3500  1.9205
  407SOL    HW2 1356   0.176   1.234   0.521 -0.8091  0.9107 -0.8425
  408SOL     OW 1357   2.963   3.287   1.770  0.1404  0.1560  0.4672
  408SOL    HW1 1358   2.915   3.208   1.747 -0.2694  0.3743  0.5598
  408SOL    HW2 1359   3.022   3.260   1.841 -1.2059  0.3123  1.6819
  409SOL     OW 1360   3.181   0.154   3.136 -0.5123 -0.0505  0.3510
  409SOL    HW1 1361   3.159   0.153   3.229  0.8175 -1.2836  0.6922
  409SOL    HW2 1362   3.241   0.228   3.126 -0.4553 -0.0724  0.5320
  410SOL     OW 1363   1.816   0.490   2.482 -0.0265 -0.3786  0.5294
  410SOL    HW1 1364   1.742   0.549   2.487 -0.3180 -0.5807 -1.0245
  410SOL    HW2 1365   1.787   0.410   2.527 -0.7642 -0.4546 -0.0609
  411SOL     OW 1366   0.766   2.868  -0.016  0.3778 -0.0400 -0.1924
  411SOL    HW1 1367   0.816   2.787  -0.008  1.9770  0.8366 -0.6791
  411SOL    HW2 1368   0.754   2.898   0.074  0.5730 -0.3797 -0.0528
  412SOL     OW 1369   1.031   0.311   2.308  0.1733 -0.0334  0.7776
  412SOL    HW1 1370   1.036   0.406   2.311  1.2884 -0.0884  0.8570
  412SOL    HW2 1371   0.937   0.292   2.301  0.0139  1.0816 -0.2148
  413SOL     OW 1372   1.747   2.601   0.310  0.3813  0.8312  0.0457
  413SOL    HW1 1373   1.719   2.628   0.397 -2.2862 -0.6754 -0.2554
  413SOL    HW2 1374   1.759   2.683   0.262 -3.4266  1.7318  0.3292
  414SOL     OW 1375   0.247   2.848   3.219  0.4862  0.1573  0.4380
  414SOL    HW1 1376   0.317   2.887   3.166  0.3162  2.3819  1.7181
  414SOL    HW2 1377   0.293   2.809   3.293  0.4558  0.6591  0.7241
  415SOL     OW 1378   0.450   2.128   0.064 -0.3231 -0.0782 -0.0051
  415SOL    HW1 1379   0.436   2.208   0.114 -0.5547  0.9581 -1.6569
  415SOL    HW2 1380   0.532   2.092   0.098 -0.7791  0.2513  1.4996
  416SOL     OW 1381   2.909   0.026   1.923 -0.6159  0.0500 -0.2641
  416SOL    HW1 1382   2.945   0.046   1.837 -1.5687 -0.0632 -0.6982
  416SOL    HW2 1383   2.816   0.048   1.916 -0.5802  0.7170  0.9465
  417SOL     OW 1384   2.762   0.553   1.927  0.4800 -1.0243  0.2679
  417SOL    HW1 1385   2.780   0.577   1.836  0.1251 -0.7345  0.2717
  417SOL    HW2 1386   2.681   0.503   1.924 -0.5852  0.6110  0.6211
  418SOL     OW 1387   1.141   3.237   2.853  0.3294  0.5140  0.5312
  418SOL    HW1 1388   1.183   3.302   2.910 -2.0167  0.8793  2.0000
  418SOL    HW2 1389   1.109   3.170   2.913 -0.1934 -0.2944 -0.6261
  419SOL     OW 1390   2.131   2.405   0.645 -0.3255 -0.1101  0.4982
  419SOL    HW1 1391   2.093   2.322   0.616 -0.9355  0.1632  0.4982
  419SOL    HW2 1392   2.169   2.443   0.566  0.6922 -0.7694  0.6577
  420SOL     OW 1393   0.359   2.416   2.144  0.6162  0.1148 -0.7074
  420SOL    HW1 1394   0.292   2.443   2.207  2.5029 -1.4618  2.1881
  420SOL    HW2 1395   0.324   2.336   2.105  0.6658 -0.5589  0.5926
  421SOL     OW 1396   1.246   2.172   0.839  0.1399  0.5802 -0.4346
  421SOL    HW1 1397   1.255   2.250   0.785  0.8294  1.5317  0.9887
  421SOL    HW2 1398   1.307   2.109   0.800 -0.6053  0.6361 -1.7435
  422SOL     OW 1399   1.331   2.975   1.247 -0.3857 -0.2189  0.9706
  422SOL    HW1 1400   1.420   2.980   1.212 -0.3313 -0.5957  1.0628
  422SOL    HW2 1401   1.293   2.898   1.205 -0.8591  0.2672  0.4846
  423SOL     OW 1402   3.629   2.318   2.152 -0.2323  0.1992  0.4091
  423SOL    HW1 1403   3.720   2.328   2.178  0.3680 -0.7816 -1.1603
  423SOL    HW2 1404   3.606   2.400   2.109 -0.3648  0.7635  1.5416
  424SOL     OW 1405   3.092   0.177   2.331 -0.1393 -0.3754  0.0204
  424SOL    HW1 1406   3.071   0.266   2.305 -1.2127 -0.6859 -0.2441
  424SOL    HW2 1407   3.036   0.160   2.406  1.9087  0.0270  1.7402
  425SOL     OW 1408   3.669   3.087   1.110 -0.0714  0.1953  0.1827
  425SOL    HW1 1409   3.655   2.993   1.104 -2.2832  0.4989  0.0372
  425SOL    HW2 1410   3.601   3.119   1.169  1.2219  1.6089  0.9987
  426SOL     OW 1411   3.679   0.171   0.732  0.0288  0.0223 -0.1311
  426SOL    HW1 1412   3.635   0.243   0.688 -2.0345 -0.5552  0.8959
  426SOL    HW2 1413   3.652   0.092   0.684 -0.7744 -0.4271  1.0371
  427SOL     OW 1414   0.263   1.482   1.952 -0.4573 -0.3243 -0.5207
  427SOL    HW1 1415   0.186   1.493   1.896 -0.9429 -1.8353 -0.2031
  427SOL    HW2 1416   0.327   1.544   1.918 -2.0695  1.5565 -0.3046
  428SOL     OW 1417   2.838   0.536   0.749  0.1217  0.5146 -0.3071
  428SOL    HW1 1418   2.881   0.460   0.710 -1.6124 -0.9776  0.5295
  428SOL    HW2 1419   2.748   0.506   0.766 -1.0657  3.2291 -1.2933
  429SOL     OW 1420   3.666   2.637   0.791 -1.0864 -0.3681 -0.0259
  429SOL    HW1 1421   3.721   2.598   0.859 -1.3660  1.3094  1.2191
  429SOL    HW2 1422   3.664   2.730   0.812 -4.0005 -0.2720 -0.2624
  430SOL     OW 1423   2.540   1.579   3.268 -0.3634 -0.6225 -0.6118
  430SOL    HW1 1424   2.606   1.523   3.227 -0.1988 -0.0347 -1.1554
  430SOL    HW2 1425   2.589   1.652   3.305 -0.6654 -0.3770 -0.6892
  431SOL     OW 1426   1.386   3.636   2.284  0.0024  0.0865  0.3481
  431SOL    HW1 1427   1.337   3.593   2.214  1.3184  0.4524 -0.8389
  431SOL    HW2 1428   1.423   3.714   2.243 -0.3870  1.1124  1.8493
  432SOL     OW 1429   2.610   1.783   0.327 -0.0806  0.3696 -0.3067
  432SOL    HW1 1430   2.642   1.844   0.260  0.1583 -3.0577 -3.6339
  432SOL    HW2 1431   2.524   1.754   0.295  0.3683 -1.9510  0.3706
  433SOL     OW 1432   0.033   0.063   0.226  0.0825  0.7947 -0.4295
  433SOL    HW1 1433   0.020  -0.028   0.253  1.1367  0.3636 -1.3003
  433SOL    HW2 1434   0.123   0.083   0.250 -0.5615  2.1293  1.1068
  434SOL     OW 1435   0.618   0.161   3.616  0.0219  0.6993  0.2905
  434SOL    HW1 1436   0.621   0.094   3.548 -0.4342  2.5953 -1.6701
  434SOL    HW2 1437   0.558   0.124   3.682 -1.1642 -0.3484 -1.2849
  435SOL     OW 1438   2.572   0.064   2.055  0.1547  0.6632 -0.2304
  435SOL    HW1 1439   2.514   0.049   1.981  1.7980  1.3852 -1.7380
  435SOL    HW2 1440   2.625  -0.016   2.061 -0.9487 -0.0090  1.1598
  436SOL     OW 1441   3.502   1.022   3.540  0.4241  0.8809 -0.1747
  436SOL    HW1 1442   3.507   0.959   3.611 -0.4097  1.2320  0.2081
  436SOL    HW2 1443   3.561   1.093   3.567 -0.5743  1.4350  0.6169
  437SOL     OW 1444  -0.027   1.115   1.390 -0.3088 -0.1768 -0.6246
  437SOL    HW1 1445   0.013   1.144   1.309  0.6589 -0.8323 -0.3973
  437SOL    HW2 1446   0.044   1.075   1.440 -0.5694  1.3721  1.1236
  438SOL     OW 1447   3.603   1.454   2.182 -0.2765  0.5688 -0.8311
  438SOL    HW1 1448   3.688   1.491   2.206  1.8020 -1.7749 -3.8020
  438SOL    HW2 1449   3.561   1.434   2.265  2.3624  1.1759  0.7694
  439SOL     OW 1450   1.792   2.719   2.723  0.0456  0.1703  0.1189
  439SOL    HW1 1451   1.705   2.726   2.764 -0.1011  2.0748 -0.4191
  439SOL    HW2 1452   1.774   2.721   2.629  0.7104  1.9190 -0.0103
  440SOL     OW 1453   0.446   1.907   3.603 -0.4031 -0.1855  0.0213
  440SOL    HW1 1454   0.444   1.923   3.509 -0.9850  1.9871  0.3642
  440SOL    HW2 1455   0.368   1.951   3.637  0.7180  0.6050  1.7170
  441SOL     OW 1456   3.197   0.904   0.115 -0.1086 -0.1218  0.2062
  441SOL    HW1 1457   3.252   0.840   0.161 -1.5273 -1.7525 -0.2934
  441SOL    HW2 1458   3.128   0.926   0.179 -2.4207 -2.8200 -1.1358
  442SOL     OW 1459   0.625   0.704   1.096  0.6760  0.5497 -0.2188
  442SOL    HW1 1460   0.582   0.725   1.013  2.8472  0.8618 -1.3341
  442SOL    HW2 1461   0.615   0.609   1.105  1.3193  0.3673 -1.3715
  443SOL     OW 1462   1.362   1.880   0.793  0.1607  0.2935 -0.3996
  443SOL    HW1 1463   1.278   1.855   0.830  1.3263 -0.1301  2.2296
  443SOL    HW2 1464   1.404   1.797   0.770  1.6039  0.0608  2.6329
  444SOL     OW 1465   0.299   2.567   1.410 -0.2709  0.0780  1.2657
  444SOL    HW1 1466   0.312   2.657   1.381 -3.4148  0.7428  1.5353
  444SOL    HW2 1467   0.255   2.575   1.495  0.5811 -1.7484  1.9435
  445SOL     OW 1468   3.678   2.367   0.600  0.3007  0.9309  0.1143
  445SOL    HW1 1469   3.705   2.437   0.540  0.0701 -0.6538 -1.9757
  445SOL    HW2 1470   3.590   2.344   0.571  0.8743 -1.0876 -0.1703
  446SOL     OW 1471   2.977   2.966   1.172 -0.6482 -0.0400  0.0191
  446SOL    HW1 1472   3.041   2.906   1.133 -1.9283 -0.6135 -1.3208
  446SOL    HW2 1473   2.940   2.917   1.246 -0.5493 -0.2784 -0.0877
  447SOL     OW 1474   3.129   2.795   1.587 -0.1689 -0.6340  0.0843
  447SOL    HW1 1475   3.111   2.704   1.564 -0.2073 -0.3870 -0.9130
  447SOL    HW2 1476   3.130   2.796   1.682  0.4372 -1.7996  0.1105
  448SOL     OW 1477   0.340   2.699   0.133  0.1321  0.0275 -0.6078
  448SOL    HW1 1478   0.328   2.622   0.077 -0.4763 -0.3643  0.0522
  448SOL    HW2 1479   0.264   2.755   0.114 -1.4057 -1.1900  1.5331
  449SOL     OW 1480   1.157   2.191   2.994  0.0994 -0.6388  0.0462
  449SOL    HW1 1481   1.198   2.182   3.080  0.3257  0.5752  0.0874
  449SOL    HW2 1482   1.220   2.241   2.942 -0.0924 -1.2441 -0.7907
  450SOL     OW 1483   2.099   0.936   1.977 -0.6112 -0.5054  0.2340
  450SOL    HW1 1484   2.124   1.006   2.037  2.2249 -1.2559  0.0887
  450SOL    HW2 1485   2.114   0.973   1.890  1.9589 -1.4946  0.1595
  451SOL     OW 1486   3.398   1.629   3.500 -0.3311 -0.2335  0.2665
  451SOL    HW1 1487   3.479   1.592   3.466 -0.5929 -0.4933 -0.0813
  451SOL    HW2 1488   3.344   1.554   3.524 -1.5883 -0.1857 -2.1307
  452SOL     OW 1489   3.376   1.403   0.808  0.1638 -0.0224  0.0029
  452SOL    HW1 1490   3.346   1.323   0.852  1.2426 -0.8153 -0.6567
  452SOL    HW2 1491   3.378   1.469   0.877 -4.2679  0.5072 -0.0704
  453SOL     OW 1492   1.079   3.305   3.319  0.2559  0.6381  0.5756
  453SOL    HW1 1493   1.014   3.365   3.356 -1.0247  0.3007 -0.9951
  453SOL    HW2 1494   1.124   3.268   3.395 -0.6155  1.7399  1.6625
  454SOL     OW 1495   1.081   3.567   2.178 -0.3769 -0.3738 -0.2079
  454SOL    HW1 1496   1.096   3.603   2.265 -0.0214 -1.1360  0.0528
  454SOL    HW2 1497   1.142   3.614   2.121  2.3766 -2.6301  0.6369
  455SOL     OW 1498   3.095   2.079   0.770  0.2687 -0.2835  0.3146
  455SOL    HW1 1499   3.164   2.136   0.804  1.1672 -0.0995 -1.6694
  455SOL    HW2 1500   3.034   2.139   0.725  0.3463 -0.7114 -0.3753
  456SOL     OW 1501   2.717   1.105   3.491  0.0855 -0.3068 -0.2078
  456SOL    HW1 1502   2.679   1.048   3.425  1.2066 -2.3216  0.7964
  456SOL    HW2 1503   2.656   1.178   3.498 -1.0830 -1.0601 -1.9935
  457SOL     OW 1504   1.733   0.843   1.585 -0.5838 -0.1335 -0.9142
  457SOL    HW1 1505   1.658   0.903   1.588 -0.2531  0.2657 -0.5334
  457SOL    HW2 1506   1.730   0.805   1.497  0.1907  1.6923 -1.7681
  458SOL     OW 1507   0.831   1.057   1.455  0.1428  0.0012  0.0683
  458SOL    HW1 1508   0.813   0.966   1.432  2.8288 -0.0603 -2.5348
  458SOL    HW2 1509   0.909   1.052   1.510 -1.1331  0.6911  2.0371
  459SOL     OW 1510   0.717   2.828   0.748 -0.5432 -0.2950 -0.5565
  459SOL    HW1 1511   0.787   2.772   0.784  0.0513  1.2923  0.8777
  459SOL    HW2 1512   0.758   2.871   0.673 -1.1651 -2.0883 -2.0058
  460SOL     OW 1513   2.868   3.747   1.274  0.0153  0.1537 -0.1129
  460SOL    HW1 1514   2.856   3.654   1.288  1.5913 -0.2572 -1.1750
  460SOL    HW2 1515   2.780   3.782   1.261 -0.4725 -1.5536 -1.8129
  461SOL     OW 1516   3.078   2.138   3.738  0.5038 -0.3838  0.4190
  461SOL    HW1 1517   3.067   2.200   3.666  2.0697 -1.6633 -0.9943
  461SOL    HW2 1518   3.074   2.052   3.696 -0.8633 -1.2668  2.2173
  462SOL     OW 1519   2.454   1.855   0.537  0.2212 -0.2095 -0.2407
  462SOL    HW1 1520   2.403   1.891   0.465  1.4249  2.4493  0.1013
  462SOL    HW2 1521   2.535   1.826   0.496  1.1966  1.9420  0.0262
  463SOL     OW 1522   2.865   3.603   0.690  0.4357 -0.7539  0.0363
  463SOL    HW1 1523   2.821   3.689   0.685 -0.3068 -1.0569  1.0312
  463SOL    HW2 1524   2.931   3.614   0.758 -0.4851 -1.2908  1.0627
  464SOL     OW 1525   2.168   3.647   2.775  0.6455 -0.1664 -0.1752
  464SOL    HW1 1526   2.207   3.575   2.824  2.4633 -0.4504 -1.9065
  464SOL    HW2 1527   2.182   3.625   2.683  0.1192  1.7954 -0.7942
  465SOL     OW 1528   0.864   0.870   3.204  0.3861  0.4102  0.2796
  465SOL    HW1 1529   0.924   0.875   3.279  0.1992 -2.2361  0.7004
  465SOL    HW2 1530   0.864   0.958   3.167  1.1602  1.5854  2.8703
  466SOL     OW 1531   3.096   3.620   1.093  0.1993  0.1079 -0.7995
  466SOL    HW1 1532   3.159   3.582   1.031 -0.3235 -0.0614 -1.2310
  466SOL    HW2 1533   3.012   3.616   1.048 -0.1837  0.0323 -0.0991
  467SOL     OW 1534   0.604   1.504   2.946  0.0893 -0.4650 -0.0442
  467SOL    HW1 1535   0.565   1.563   3.011 -0.4336  0.5039 -1.2073
  467SOL    HW2 1536   0.608   1.556   2.866  1.8074 -1.2550 -0.5165
  468SOL     OW 1537   2.346   2.542   2.402 -0.4768 -0.1629 -0.2075
  468SOL    HW1 1538   2.362   2.538   2.496 -0.4218  2.3568 -0.0192
  468SOL    HW2 1539   2.259   2.582   2.395 -0.7454 -0.9130 -1.2268
  469SOL     OW 1540   3.329   1.853   3.671  0.1379 -0.0798 -0.0201
  469SOL    HW1 1541   3.327   1.774   3.616  0.8968 -0.0955 -0.0460
  469SOL    HW2 1542   3.320   1.819   3.760 -0.2588 -0.1291 -0.0771
  470SOL     OW 1543   0.049   2.408   1.847  0.4605  0.1252  0.1857
  470SOL    HW1 1544  -0.002   2.342   1.800 -0.8290  0.5726  0.9283
  470SOL    HW2 1545  -0.011   2.444   1.912  0.9754  2.3964 -0.5034
  471SOL     OW 1546   0.146   1.851   3.634 -0.3416 -0.1943 -0.2672
  471SOL    HW1 1547   0.151   1.944   3.612 -0.9768  0.2761  1.3798
  471SOL    HW2 1548   0.060   1.824   3.604 -0.7221  0.1297  0.5029
  472SOL     OW 1549   2.805   0.132   0.770  0.2340  0.2971 -0.4752
  472SOL    HW1 1550   2.796   0.127   0.866  0.0194  0.1489 -0.5002
  472SOL    HW2 1551   2.724   0.174   0.741 -0.4747 -1.1653 -0.7223
  473SOL     OW 1552   0.808   0.296   2.995  0.0371 -0.1544  0.1300
  473SOL    HW1 1553   0.723   0.339   3.007  0.8364  0.8526  3.0594
  473SOL    HW2 1554   0.824   0.301   2.901 -3.7336 -1.6618 -0.7881
  474SOL     OW 1555   2.637   1.991   0.104 -0.3899 -0.2520 -0.6209
  474SOL    HW1 1556   2.610   2.081   0.087  1.7793  0.5129 -0.3265
  474SOL    HW2 1557   2.591   1.939   0.038 -1.6869  1.0545 -0.7805
  475SOL     OW 1558   2.947   3.436   3.398  0.5068  0.4058 -0.1530
  475SOL    HW1 1559   2.908   3.469   3.317 -0.8379  0.9583  0.6818
  475SOL    HW2 1560   2.879   3.447   3.464  1.0511 -1.3717  0.7821
  476SOL     OW 1561   0.375   0.730   2.062 -0.6818  0.0009 -0.3325
  476SOL    HW1 1562   0.359   0.689   2.147  0.2857  0.1029 -0.0977
  476SOL    HW2 1563   0.334   0.670   1.999  0.0274 -0.9287  0.0698
  477SOL     OW 1564   2.862   0.336   2.127 -0.0818  0.5186 -0.1890
  477SOL    HW1 1565   2.825   0.421   2.102  0.4662  1.1868  1.1069
  477SOL    HW2 1566   2.939   0.326   2.070 -0.3210  0.7550 -0.5570
  478SOL     OW 1567   2.988   1.518   3.209  0.7444  0.0746 -0.1704
  478SOL    HW1 1568   3.056   1.457   3.177 -0.0622 -1.4992  0.9780
  478SOL    HW2 1569   3.032   1.603   3.213  2.3907 -0.7327 -0.3101
  479SOL     OW 1570   3.079   0.892   1.308  0.7887  0.2643  0.0691
  479SOL    HW1 1571   3.088   0.954   1.236 -1.2200  3.6885  2.4368
  479SOL    HW2 1572   3.133   0.928   1.378  0.3335 -1.2538  1.2704
  480SOL     OW 1573   2.093   2.108   1.868 -0.0706 -0.0315 -0.5262
  480SOL    HW1 1574   2.086   2.197   1.901 -0.0832  0.1425 -0.9954
  480SOL    HW2 1575   2.003   2.077   1.860 -0.0451 -0.6438  1.1046
  481SOL     OW 1576   3.385   0.236   1.390  0.0366  0.2069  0.0312
  481SOL    HW1 1577   3.458   0.296   1.375  0.8821 -1.0452 -1.0740
  481SOL    HW2 1578   3.405   0.159   1.337 -2.0727 -0.2019 -0.2912
  482SOL     OW 1579   0.502   0.863   1.273  0.1041  0.0519 -0.0226
  482SOL    HW1 1580   0.561   0.846   1.199  1.3772  1.4104  0.6229
  482SOL    HW2 1581   0.499   0.781   1.321  1.9207  0.0685  0.1926
  483SOL     OW 1582   1.849   2.026   1.856 -0.2159  0.7530  0.1987
  483SOL    HW1 1583   1.780   1.977   1.901 -0.0701  0.0318 -0.3404
  483SOL    HW2 1584   1.806   2.106   1.826 -0.1863  1.5206  2.0700
  484SOL     OW 1585   3.320   2.281   2.108  0.3141  0.1628  0.2408
  484SOL    HW1 1586   3.266   2.339   2.162 -0.5709  0.1135 -0.5775
  484SOL    HW2 1587   3.409   2.294   2.142  0.0192  1.3836  0.6067
  485SOL     OW 1588   2.211   3.488   1.414  0.2134 -0.1966 -0.1243
  485SOL    HW1 1589   2.236   3.547   1.344  3.9076 -3.2139 -1.7198
  485SOL    HW2 1590   2.194   3.404   1.370 -0.5474 -1.4472  2.3377
  486SOL     OW 1591   2.455   3.223   3.448 -0.1450 -0.0796 -0.4578
  486SOL    HW1 1592   2.399   3.158   3.406 -0.9164  0.8180 -0.8478
  486SOL    HW2 1593   2.488   3.179   3.526  0.4886 -1.4208 -1.4456
  487SOL     OW 1594   1.822   2.735   1.126 -0.4817 -0.3929 -0.0821
  487SOL    HW1 1595   1.839   2.767   1.215  1.4544 -0.3789 -0.3984
  487SOL    HW2 1596   1.909   2.732   1.086 -1.4379  0.7927 -2.3911
  488SOL     OW 1597   3.225   2.374   0.812 -0.3237 -0.3588  0.1293
  488SOL    HW1 1598   3.260   2.427   0.883 -1.7314  0.0681  0.5483
  488SOL    HW2 1599   3.269   2.290   0.820  1.6778  0.5956 -0.3121
  489SOL     OW 1600   2.400   1.785   2.287 -0.5543  1.1267  0.2119
  489SOL    HW1 1601   2.329   1.849   2.277 -0.6429  0.9651 -0.2438
  489SOL    HW2 1602   2.358   1.700   2.271 -0.4011  0.9693  0.6444
  490SOL     OW 1603   0.670   1.893   0.682 -0.7168 -0.3396  0.4445
  490SOL    HW1 1604   0.753   1.939   0.683 -1.3905  0.9156  1.7220
  490SOL    HW2 1605   0.676   1.834   0.606  1.4359 -0.5284  0.6967
  491SOL     OW 1606   0.704   3.120   3.421  0.2181  0.4421  0.1995
  491SOL    HW1 1607   0.694   3.213   3.404 -1.3912  0.2738  0.0298
  491SOL    HW2 1608   0.752   3.115   3.504 -1.5829  1.4891  1.3746
  492SOL     OW 1609   2.263   2.823   2.291  0.7486  0.5296  0.0267
  492SOL    HW1 1610   2.277   2.914   2.265  2.5118 -0.0385 -1.1816
  492SOL    HW2 1611   2.339   2.776   2.257 -1.8603 -2.1146 -2.8547
  493SOL     OW 1612   2.889   3.371   3.029  0.3042 -0.8401  0.0614
  493SOL    HW1 1613   2.855   3.286   3.057 -2.8802  0.1346 -0.3835
  493SOL    HW2 1614   2.872   3.372   2.934 -1.3933  0.8752  0.3168
  494SOL     OW 1615   3.189   2.978   3.083  0.2541 -0.1808  0.1198
  494SOL    HW1 1616   3.171   2.977   3.177  1.3411 -0.0166  0.3349
  494SOL    HW2 1617   3.145   2.899   3.050  0.7266 -0.8017  0.9345
  495SOL     OW 1618   2.327   1.585   0.554  0.2691  0.5625 -0.0345
  495SOL    HW1 1619   2.282   1.669   0.556  1.4747  1.2841 -1.4203
  495SOL    HW2 1620   2.418   1.606   0.576  0.5343 -0.4291 -0.1407
  496SOL     OW 1621   2.877   3.519   0.976  0.2111 -0.5739 -0.7671
  496SOL    HW1 1622   2.801   3.575   0.992  1.5412  0.3872  3.8079
  496SOL    HW2 1623   2.842   3.429   0.980 -1.1527 -0.1852 -2.7605
  497SOL     OW 1624   2.430   1.023   3.606 -0.1002 -0.0636  0.0592
  497SOL    HW1 1625   2.377   0.944   3.600 -0.7748  0.4867 -1.4849
  497SOL    HW2 1626   2.478   1.027   3.524  0.9760  0.4208  0.6843
  498SOL     OW 1627   2.041   0.103   0.022  0.1587  0.1405  0.1266
  498SOL    HW1 1628   1.976   0.078   0.088  0.6008  2.1617  1.4239
  498SOL    HW2 1629   2.125   0.093   0.067  0.5571  0.2918 -0.5798
  499SOL     OW 1630   0.102   2.332   0.018  0.0302  0.3073  0.0894
  499SOL    HW1 1631   0.073   2.423   0.014  0.5671  0.5264  0.8936
  499SOL    HW2 1632   0.055   2.295   0.093 -0.2421 -0.1041 -0.2782
  500SOL     OW 1633   1.927   0.781   2.602  0.9830  0.3765  0.1377
  500SOL    HW1 1634   1.899   0.799   2.512 -0.0628 -3.0522 -0.3694
  500SOL    HW2 1635   2.020   0.757   2.593  0.8815  0.0401 -0.0728
  501SOL     OW 1636   3.097   3.679   0.051 -0.2721  0.1814  0.0300
  501SOL    HW1 1637   3.132   3.755   0.098 -0.3619  1.6354 -2.0926
  501SOL    HW2 1638   3.004   3.679   0.072  0.1140 -0.8974  1.9943
  502SOL     OW 1639   2.446   2.576   1.056  0.0930 -0.0326  0.0976
  502SOL    HW1 1640   2.391   2.576   0.978 -1.0332  0.1946  0.8793
  502SOL    HW2 1641   2.520   2.519   1.032  0.8287  1.5886 -1.8263
  503SOL     OW 1642   1.318   3.312   1.847 -0.7005  0.3255 -0.0741
  503SOL    HW1 1643   1.291   3.229   1.809  1.8013 -0.2222 -0.8283
  503SOL    HW2 1644   1.288   3.378   1.784  0.2592 -0.3159 -1.2549
  504SOL     OW 1645   3.645  -0.014   2.268  0.3234  0.7916 -0.1505
  504SOL    HW1 1646   3.565  -0.047   2.308  0.9787 -0.0644  0.4790
  504SOL    HW2 1647   3.657   0.073   2.306  0.2471  0.4991  0.5565
  505SOL     OW 1648   0.607   2.501   2.934  0.4060 -0.3303 -0.6510
  505SOL    HW1 1649   0.670   2.489   3.005  0.7846 -0.8208 -1.0717
  505SOL    HW2 1650   0.523   2.510   2.979  0.4900 -1.6774 -0.1782
  506SOL     OW 1651   0.543   1.705   0.892 -0.6038 -0.4597  0.1543
  506SOL    HW1 1652   0.452   1.678   0.878 -0.4005  0.2780 -3.8670
  506SOL    HW2 1653   0.576   1.721   0.804  2.1057  3.6235  1.6498
  507SOL     OW 1654   2.403   0.643   1.149  0.0070  0.2988  0.3813
  507SOL    HW1 1655   2.402   0.659   1.055 -0.9188 -1.4990  0.0423
  507SOL    HW2 1656   2.496   0.642   1.172  0.3674 -1.3125 -0.9390
  508SOL     OW 1657   3.034   1.133   2.027  0.0165  0.0147 -0.4494
  508SOL    HW1 1658   2.971   1.065   2.001 -1.1005  0.8720 -0.0423
  508SOL    HW2 1659   3.105   1.085   2.070 -2.1726 -0.7159  2.6417
  509SOL     OW 1660   3.061   3.054   3.458  0.2311  0.4575  0.1431
  509SOL    HW1 1661   3.138   3.111   3.462  0.8263 -0.3897  1.6025
  509SOL    HW2 1662   3.097   2.966   3.454 -0.6753  0.0918 -0.1743
  510SOL     OW 1663   0.383   0.662   0.231 -0.2115 -0.2910 -0.8614
  510SOL    HW1 1664   0.384   0.757   0.223  0.5962 -0.0588  1.3890
  510SOL    HW2 1665   0.389   0.630   0.141 -0.9451  1.7613 -1.6895
  511SOL     OW 1666   1.065   1.960   1.192 -0.6729  0.0317  0.2293
  511SOL    HW1 1667   1.143   2.016   1.197 -1.4490  1.1320  0.3279
  511SOL    HW2 1668   1.021   1.974   1.276 -0.4690 -1.3713  0.5875
  512SOL     OW 1669   3.637   2.067   3.594 -0.6182  0.1140 -0.3996
  512SOL    HW1 1670   3.648   2.023   3.678  0.5415 -1.0777 -1.1269
  512SOL    HW2 1671   3.594   2.150   3.615  0.0783  0.0561  1.4209
  513SOL     OW 1672   1.811   3.091   2.726 -0.3288 -0.1051  0.4145
  513SOL    HW1 1673   1.854   3.041   2.656 -2.8056 -4.2934  1.5044
  513SOL    HW2 1674   1.766   3.162   2.680  0.3531 -1.0623 -1.8985
  514SOL     OW 1675   3.719   0.549   2.187 -0.5705 -0.5615 -0.2532
  514SOL    HW1 1676   3.627   0.547   2.213 -0.5638  0.1473 -0.1479
  514SOL    HW2 1677   3.718   0.527   2.094 -1.2299  2.8001 -1.1601
  515SOL     OW 1678   3.000  -0.024   2.173  0.6134  0.0466  0.0907
  515SOL    HW1 1679   3.045   0.058   2.194 -0.4624  0.4936  0.7250
  515SOL    HW2 1680   2.970  -0.012   2.082  0.8173  0.1898  0.0428
  516SOL     OW 1681   0.217   0.189   3.225  0.0206 -0.2627 -0.4240
  516SOL    HW1 1682   0.144   0.127   3.219 -1.1980  1.1417 -0.6118
  516SOL    HW2 1683   0.294   0.134   3.239 -0.9666 -1.8328 -0.9518
  517SOL     OW 1684   0.101   3.332   2.659  0.1399  0.2262  0.0667
  517SOL    HW1 1685   0.075   3.410   2.611 -2.0196 -0.2085  0.4159
  517SOL    HW2 1686   0.190   3.350   2.689 -0.3210  2.5825  0.1857
  518SOL     OW 1687   0.035   1.634   2.762 -0.3379  0.4401  0.0432
  518SOL    HW1 1688   0.089   1.588   2.698 -0.3070  0.0137  0.3684
  518SOL    HW2 1689   0.082   1.715   2.779  0.0994  0.1623  0.1719
  519SOL     OW 1690   3.060   0.438   2.970 -0.2069  0.0917  1.1528
  519SOL    HW1 1691   3.081   0.373   2.902  0.1031  1.1440  0.2013
  519SOL    HW2 1692   3.138   0.493   2.975  0.3729 -0.8295  3.4686
  520SOL     OW 1693   3.487   0.003   2.918 -0.2603  0.6609 -0.2709
  520SOL    HW1 1694   3.457  -0.008   3.009  3.0480 -1.7073  0.7568
  520SOL    HW2 1695   3.482   0.097   2.902 -1.5703  1.0903  2.1117
  521SOL     OW 1696   0.739  -0.000   2.925  0.0610 -0.6458  0.3275
  521SOL    HW1 1697   0.769   0.007   3.016  0.9437  0.5329 -0.0304
  521SOL    HW2 1698   0.819   0.002   2.873 -0.5325  0.6494 -0.5698
  522SOL     OW 1699   0.914   2.517   3.371 -0.2593  0.6075 -0.0833
  522SOL    HW1 1700   0.980   2.450   3.353 -1.0666 -1.0597  2.5782
  522SOL    HW2 1701   0.953   2.598   3.339  0.8293 -0.9936 -3.3228
  523SOL     OW 1702   2.443   0.975   1.030  0.5269 -0.1445 -0.5025
  523SOL    HW1 1703   2.470   0.938   1.113 -0.4717  0.4333  0.1026
  523SOL    HW2 1704   2.426   0.899   0.974 -2.3678 -0.7198  0.9853
  524SOL     OW 1705   2.717   2.531   1.251  0.6374 -0.4204 -0.8194
  524SOL    HW1 1706   2.704   2.516   1.345  2.6459 -0.9673 -0.5938
  524SOL    HW2 1707   2.630   2.554   1.219 -0.1253 -0.3329  1.1485
  525SOL     OW 1708   2.495   0.188   2.817 -0.4671  0.1427 -0.3388
  525SOL    HW1 1709   2.516   0.148   2.733 -0.5087 -1.2396  0.2937
  525SOL    HW2 1710   2.400   0.179   2.825 -0.2723 -1.2317  0.5883
  526SOL     OW 1711   2.803   0.661   1.665 -0.1602  0.0171  0.0842
  526SOL    HW1 1712   2.730   0.608   1.635  0.2841 -0.2355 -0.5963
  526SOL    HW2 1713   2.878   0.628   1.616 -0.0010  1.7690 -0.9709
  527SOL     OW 1714   2.269   0.411   0.397  0.0572 -0.2475  0.1840
  527SOL    HW1 1715   2.247   0.328   0.440  0.8763 -1.3633 -1.4733
  527SOL    HW2 1716   2.220   0.410   0.315 -0.1424  1.0521  0.2617
  528SOL     OW 1717   1.792   3.266   2.041  0.2150  0.6264  0.6076
  528SOL    HW1 1718   1.773   3.348   2.087  0.1652  1.8984 -1.5429
  528SOL    HW2 1719   1.783   3.288   1.948 -0.4690 -2.0062 -0.0284
  529SOL     OW 1720   1.431   0.591   3.207  0.1196  0.1202 -0.2693
  529SOL    HW1 1721   1.505   0.544   3.167  0.4344  0.1499  0.2691
  529SOL    HW2 1722   1.441   0.575   3.301  1.1941  2.6095  0.1290
  530SOL     OW 1723   0.834   3.567   0.854  0.4662 -0.5662 -0.6443
  530SOL    HW1 1724   0.741   3.560   0.872  0.2164 -0.3501 -1.7669
  530SOL    HW2 1725   0.855   3.659   0.870  0.7937 -0.8914  0.9137
  531SOL     OW 1726   0.602   2.226   3.313 -0.3258  0.1170  0.3568
  531SOL    HW1 1727   0.510   2.213   3.289 -0.5013 -1.7130  1.8278
  531SOL    HW2 1728   0.623   2.151   3.368  2.1205  0.4188 -0.0889
  532SOL     OW 1729   1.993   3.067   1.546  0.6894  0.1220  0.0581
  532SOL    HW1 1730   1.963   3.060   1.637  0.4768  1.9577  0.1641
  532SOL    HW2 1731   2.054   2.994   1.535  0.7360 -0.1189  1.6865
  533SOL     OW 1732   3.230   3.119   2.548 -0.3560  0.4167  0.2049
  533SOL    HW1 1733   3.297   3.071   2.499  0.3808  1.7571 -0.1371
  533SOL    HW2 1734   3.254   3.107   2.640 -0.2586  0.0449  0.1346
  534SOL     OW 1735   1.120   2.277   3.647  0.0295 -0.1014  0.1747
  534SOL    HW1 1736   1.050   2.251   3.588 -2.9945  2.4434  2.2571
  534SOL    HW2 1737   1.088   2.252   3.734  1.8226  0.9715  1.2019
  535SOL     OW 1738   2.492   2.454   2.005  0.3380  0.3458 -0.0654
  535SOL    HW1 1739   2.497   2.359   2.015  0.4447  0.3932  0.3448
  535SOL    HW2 1740   2.414   2.479   2.055  1.3223  0.6752  1.3514
  536SOL     OW 1741   2.588   3.512   3.054 -0.3103  0.3505  0.2743
  536SOL    HW1 1742   2.507   3.517   3.105 -0.5652  0.9922 -0.1797
  536SOL    HW2 1743   2.640   3.445   3.098 -0.5963  0.7636  1.2640
  537SOL     OW 1744   0.775   2.798   3.433 -0.1283 -0.1434  0.2274
  537SOL    HW1 1745   0.765   2.817   3.526  2.3874  0.4582  0.4242
  537SOL    HW2 1746   0.745   2.707   3.424 -0.0219 -0.3425  1.6813
  538SOL     OW 1747   1.833   1.053   1.268 -0.4489  0.3170  0.1204
  538SOL    HW1 1748   1.835   1.146   1.292 -1.1434  0.9543 -2.0787
  538SOL    HW2 1749   1.869   1.050   1.179 -0.7546 -1.4852  0.0184
  539SOL     OW 1750   0.599   0.440   1.081 -0.0329 -0.0059  0.3288
  539SOL    HW1 1751   0.647   0.364   1.114  1.5669  0.6830 -0.2699
  539SOL    HW2 1752   0.575   0.417   0.992 -2.1516 -0.8986  1.0695
  540SOL     OW 1753   3.400   1.013   2.340 -0.9982  0.0298 -0.5073
  540SOL    HW1 1754   3.417   1.017   2.434 -1.3745  0.6273 -0.4575
  540SOL    HW2 1755   3.483   1.042   2.300 -0.8993 -0.0392 -0.3537
  541SOL     OW 1756   0.810   0.053   0.350  0.7813  0.1841  0.4015
  541SOL    HW1 1757   0.876   0.073   0.284 -0.5399 -0.8549 -1.3234
  541SOL    HW2 1758   0.860   0.038   0.431  2.5974 -0.1427 -0.7313
  542SOL     OW 1759   0.279   3.216   1.661 -0.4689 -0.0185 -0.0631
  542SOL    HW1 1760   0.245   3.302   1.637  0.0019  0.7307  1.7503
  542SOL    HW2 1761   0.201   3.160   1.664 -0.7899  0.3523 -1.1866
  543SOL     OW 1762   2.122   2.974   0.709  0.6223  0.1277  0.4491
  543SOL    HW1 1763   2.054   3.042   0.710 -0.0196 -0.4566 -0.6772
  543SOL    HW2 1764   2.159   2.976   0.797 -0.4938  0.8327  0.9355
  544SOL     OW 1765   1.025   1.775   2.500  0.0311  0.0510  0.2357
  544SOL    HW1 1766   1.042   1.848   2.440  0.1715  0.0207  0.2388
  544SOL    HW2 1767   1.030   1.698   2.444  0.3051  0.0111  0.3115
  545SOL     OW 1768   1.533   1.828   1.305  0.2138 -0.7676  0.5389
  545SOL    HW1 1769   1.490   1.788   1.379  0.4658 -2.5206 -0.2079
  545SOL    HW2 1770   1.487   1.794   1.228  1.0353 -0.3479 -0.1663
  546SOL     OW 1771   0.699   3.440   2.820  0.2191 -0.1882 -0.5619
  546SOL    HW1 1772   0.651   3.408   2.897 -1.5062  0.4298 -1.3296
  546SOL    HW2 1773   0.726   3.529   2.845 -0.0176 -0.1234 -0.5342
  547SOL     OW 1774   0.166   1.540   3.521  0.1030  0.6014  0.3345
  547SOL    HW1 1775   0.178   1.588   3.603  1.4935  2.6068 -0.9328
  547SOL    HW2 1776   0.234   1.473   3.522  0.4185  0.9194  0.6465
  548SOL     OW 1777   2.169   0.543   2.132 -0.5504  0.7773  0.5823
  548SOL    HW1 1778   2.089   0.507   2.169 -0.2725  0.0689  0.5103
  548SOL    HW2 1779   2.156   0.539   2.037 -0.1394 -0.0327  0.5533
  549SOL     OW 1780   0.594   2.860   0.320 -0.1532  0.2282 -0.3178
  549SOL    HW1 1781   0.627   2.770   0.325  1.2204  0.6630 -1.0870
  549SOL    HW2 1782   0.506   2.855   0.358 -0.7390 -1.7494 -1.7571
  550SOL     OW 1783   1.141   2.386   3.275  0.1086 -0.0151  0.5466
  550SOL    HW1 1784   1.203   2.438   3.224 -1.0075 -0.4017 -1.3011
  550SOL    HW2 1785   1.185   2.301   3.286 -0.1361 -0.3781 -0.9854
  551SOL     OW 1786   2.121   2.926   1.278 -0.2037 -0.1481 -0.6230
  551SOL    HW1 1787   2.158   2.842   1.306 -0.1963 -1.1269 -3.3249
  551SOL    HW2 1788   2.029   2.921   1.304  0.0749 -0.4236  0.3646
  552SOL     OW 1789   0.321   1.539   1.415  0.4789 -0.7459 -0.5742
  552SOL    HW1 1790   0.390   1.598   1.445 -0.4848 -0.6966  1.8069
  552SOL    HW2 1791   0.260   1.594   1.367 -0.1204  0.1542  1.1325
  553SOL     OW 1792   3.291   2.431   1.362 -0.3387 -1.3551  0.0180
  553SOL    HW1 1793   3.307   2.361   1.426 -1.4535  0.1284  2.0232
  553SOL    HW2 1794   3.379   2.459   1.336  0.1276 -2.9725 -0.2508
  554SOL     OW 1795   2.168   2.179   1.351  0.3683  0.3318  0.2220
  554SOL    HW1 1796   2.180   2.127   1.431 -0.0165 -1.1486 -0.6594
  554SOL    HW2 1797   2.114   2.253   1.380  0.1656 -0.2160  1.3271
  555SOL     OW 1798   2.568   0.382   0.418  0.0820 -0.1827 -0.1453
  555SOL    HW1 1799   2.597   0.459   0.370 -0.5137  0.8170  1.0539
  555SOL    HW2 1800   2.480   0.364   0.385  0.0704 -0.1154 -0.1503
  556SOL     OW 1801   0.384   0.672   3.551  0.1078  0.2049  0.2798
  556SOL    HW1 1802   0.342   0.666   3.465  2.1918  2.0053 -0.9687
  556SOL    HW2 1803   0.419   0.584   3.567 -4.4695 -1.6589  1.7678
  557SOL     OW 1804   3.588   3.636   0.640 -0.1432 -0.1751 -0.5379
  557SOL    HW1 1805   3.566   3.548   0.607  0.9438 -1.1277  1.1556
  557SOL    HW2 1806   3.683   3.635   0.649 -0.2023  0.8847  0.3230
  558SOL     OW 1807   1.897   0.281   1.347 -1.1812 -0.1462 -0.2023
  558SOL    HW1 1808   1.909   0.235   1.264 -0.7675  0.7941 -0.6707
  558SOL    HW2 1809   1.812   0.249   1.379 -1.9913  0.4508 -1.6341
  559SOL     OW 1810   2.396   3.572   3.281 -0.1428  0.5405  1.1979
  559SOL    HW1 1811   2.437   3.592   3.365  0.8826 -0.8841  1.0781
  559SOL    HW2 1812   2.366   3.657   3.248  1.2628  1.4228  2.0682
  560SOL     OW 1813   1.287   0.050   3.494  0.1673 -1.0868  0.8727
  560SOL    HW1 1814   1.243   0.083   3.416  2.1141 -1.3857 -0.4199
  560SOL    HW2 1815   1.226  -0.014   3.531 -1.2755 -0.0900  0.2729
  561SOL     OW 1816   0.444   0.379   2.754  0.1097  0.1426 -0.5490
  561SOL    HW1 1817   0.503   0.366   2.680  1.7550 -1.2366  0.9012
  561SOL    HW2 1818   0.483   0.327   2.825 -1.4171  1.3463  1.2759
  562SOL     OW 1819   3.127   0.318   1.302  0.5586 -0.0179 -0.0351
  562SOL    HW1 1820   3.200   0.296   1.360 -0.4638 -0.4867  1.1152
  562SOL    HW2 1821   3.164   0.382   1.241  1.4629  1.2227  1.7069
  563SOL     OW 1822   2.052   1.584   2.153 -0.5290 -0.0727  0.0858
  563SOL    HW1 1823   2.062   1.679   2.157  1.4579 -0.1865 -0.9996
  563SOL    HW2 1824   1.959   1.569   2.168 -1.2286  2.1721 -1.5831
  564SOL     OW 1825   1.519   2.651   2.238  0.1690 -0.9389 -0.4567
  564SOL    HW1 1826   1.449   2.694   2.287  1.3735 -0.2779  0.7442
  564SOL    HW2 1827   1.482   2.566   2.214 -1.0201 -0.6388  0.2025
  565SOL     OW 1828   2.113   2.848   2.917 -0.4233 -0.2481 -0.0536
  565SOL    HW1 1829   2.104   2.817   2.827  0.8813 -2.6842  0.5759
  565SOL    HW2 1830   2.147   2.937   2.908  0.6083 -0.7786 -1.9925
  566SOL     OW 1831   0.811   2.358   1.288  0.1659 -0.0561  0.4475
  566SOL    HW1 1832   0.745   2.295   1.319  0.0963 -0.1693  0.0752
  566SOL    HW2 1833   0.890   2.337   1.337  0.0364 -0.1896  0.5979
  567SOL     OW 1834   1.547   0.440   0.979  0.1751 -0.3069 -0.0404
  567SOL    HW1 1835   1.608   0.443   1.054 -0.8560  0.9657  0.7998
  567SOL    HW2 1836   1.496   0.360   0.993  0.7689 -0.6894 -0.0272
  568SOL     OW 1837   2.268   3.638   0.630  0.0238 -0.4590  0.3632
  568SOL    HW1 1838   2.336   3.571   0.624  1.2969  0.8324 -0.0857
  568SOL    HW2 1839   2.225   3.622   0.714  1.2939 -0.9273  0.9343
  569SOL     OW 1840   3.047   2.442   2.873 -0.0485 -0.0689  0.8418
  569SOL    HW1 1841   2.986   2.495   2.821 -1.9261 -2.2682  0.6566
  569SOL    HW2 1842   3.127   2.439   2.821 -1.2020 -0.5518 -1.0150
  570SOL     OW 1843   3.185   3.141   2.173  0.0634 -0.0454 -0.1180
  570SOL    HW1 1844   3.236   3.217   2.201 -0.6209  0.3721  0.0433
  570SOL    HW2 1845   3.241   3.065   2.192  0.3505  0.3564  0.6706
  571SOL     OW 1846   2.560   2.815   0.657  0.0774 -0.5595 -0.3243
  571SOL    HW1 1847   2.655   2.822   0.645  0.2622  1.9370  1.6815
  571SOL    HW2 1848   2.525   2.888   0.607 -0.3728  0.8399  1.8987
  572SOL     OW 1849   2.173   3.443   2.553  0.0467  0.5060  0.6089
  572SOL    HW1 1850   2.144   3.393   2.629  0.8245 -0.0542  0.5415
  572SOL    HW2 1851   2.103   3.432   2.489  0.5603 -1.1567  0.3066
  573SOL     OW 1852   1.332   1.737   2.391  0.2586  0.2043  0.0890
  573SOL    HW1 1853   1.264   1.670   2.380 -0.1889  0.4913  0.9863
  573SOL    HW2 1854   1.378   1.713   2.471 -0.0360  1.0626  0.5370
  574SOL     OW 1855   1.330   0.792   3.523 -0.5686  0.0754 -0.2783
  574SOL    HW1 1856   1.282   0.771   3.443  0.2182 -1.2240 -0.4322
  574SOL    HW2 1857   1.279   0.862   3.564 -2.2289 -0.8024 -0.7658
  575SOL     OW 1858   2.862   1.814   2.298 -0.3451  0.4495  0.2392
  575SOL    HW1 1859   2.936   1.763   2.266 -0.3765 -0.1497  1.0763
  575SOL    HW2 1860   2.895   1.857   2.377 -0.1074  2.3098 -0.8085
  576SOL     OW 1861   1.473   3.456   2.007 -0.0618 -0.0010  0.2718
  576SOL    HW1 1862   1.479   3.534   1.951 -0.6874 -0.1116  0.0394
  576SOL    HW2 1863   1.397   3.408   1.973  0.2567 -0.6622  0.4763
  577SOL     OW 1864   2.952   1.375   1.047  0.1887 -0.1313  0.9815
  577SOL    HW1 1865   2.899   1.453   1.032  1.2865  0.1945 -1.7005
  577SOL    HW2 1866   3.029   1.387   0.992  0.2844 -3.1930  0.2550
  578SOL     OW 1867   1.556   1.393   2.196  0.7902  0.1573  0.0549
  578SOL    HW1 1868   1.546   1.389   2.291 -1.9449  1.5752 -0.0651
  578SOL    HW2 1869   1.488   1.335   2.162  2.0797 -0.7519 -1.0726
  579SOL     OW 1870   3.421   0.540   2.385  0.3078 -0.3530 -0.2715
  579SOL    HW1 1871   3.330   0.568   2.376 -0.8021 -2.3893  3.0539
  579SOL    HW2 1872   3.425   0.458   2.337  0.0975 -0.7317  0.3451
  580SOL     OW 1873   1.847   1.471   2.308  0.1946  0.2330 -0.1039
  580SOL    HW1 1874   1.753   1.484   2.294 -0.0383  0.3395  1.4290
  580SOL    HW2 1875   1.871   1.536   2.374  1.3433  0.1909 -0.4676
  581SOL     OW 1876   0.878   2.903   0.538 -0.2881  0.3443 -0.2521
  581SOL    HW1 1877   0.911   2.857   0.460 -0.4241  0.3631 -0.3197
  581SOL    HW2 1878   0.925   2.986   0.538 -2.5103  1.7124 -2.0461
  582SOL     OW 1879   1.549   2.424   2.745  0.2754 -0.8217 -0.5479
  582SOL    HW1 1880   1.528   2.410   2.653  0.2438 -0.5708 -0.5814
  582SOL    HW2 1881   1.632   2.379   2.758 -1.2668 -3.6622  0.1146
  583SOL     OW 1882   2.746   2.990   0.555 -0.0716  0.0766  0.0367
  583SOL    HW1 1883   2.732   3.053   0.627  0.9035 -1.5111  1.6862
  583SOL    HW2 1884   2.837   2.964   0.563  0.5116  0.9194 -2.7485
  584SOL     OW 1885   0.824   0.438   0.541 -0.3977  0.2776  0.8699
  584SOL    HW1 1886   0.802   0.397   0.625  0.2562 -1.0250  0.4247
  584SOL    HW2 1887   0.915   0.466   0.551 -0.2106 -0.1919  0.4694
  585SOL     OW 1888   3.025   2.843   2.729 -0.6054 -0.3693 -0.2634
  585SOL    HW1 1889   3.051   2.921   2.681 -3.3988  1.3748  0.8229
  585SOL    HW2 1890   3.095   2.780   2.711  1.1774  1.9349 -2.1464
  586SOL     OW 1891   1.895   3.117   0.758  0.1419 -0.4610 -0.0115
  586SOL    HW1 1892   1.919   3.136   0.849 -0.4773 -3.0471  0.7689
  586SOL    HW2 1893   1.874   3.203   0.721  2.0185  0.8695  1.7674
  587SOL     OW 1894   2.867   3.179   3.234  0.6407  0.1403  0.2434
  587SOL    HW1 1895   2.900   3.093   3.261  0.2326 -0.1617 -0.2166
  587SOL    HW2 1896   2.907   3.240   3.297  1.1755 -0.3436  0.3843
  588SOL     OW 1897   0.937   0.695   0.079  0.4597  0.6073  0.0275
  588SOL    HW1 1898   0.878   0.658   0.145 -0.7105  0.0120 -1.3025
  588SOL    HW2 1899   0.886   0.694  -0.002  1.1465  3.1554 -0.5252
  589SOL     OW 1900   2.231   1.204   1.736  0.0861 -0.1902 -0.0016
  589SOL    HW1 1901   2.231   1.115   1.700 -0.3152 -0.6034  0.9906
  589SOL    HW2 1902   2.145   1.239   1.712 -1.5730 -1.6171  3.1904
  590SOL     OW 1903   1.905   3.643   0.174 -0.4415 -0.1074  0.0039
  590SOL    HW1 1904   1.963   3.583   0.222 -1.4584 -0.3892  0.9218
  590SOL    HW2 1905   1.828   3.652   0.231  0.0531  2.8294  0.3397
  591SOL     OW 1906   0.769   2.449   1.021 -0.0657  0.2415  0.0647
  591SOL    HW1 1907   0.781   2.543   1.018 -0.4968  0.4841  2.9261
  591SOL    HW2 1908   0.773   2.427   1.114 -0.3114 -2.5272 -0.4795
  592SOL     OW 1909   0.267   1.420   2.211  0.0574 -0.4040  0.0077
  592SOL    HW1 1910   0.256   1.326   2.228 -2.6373  0.0480  1.2589
  592SOL    HW2 1911   0.274   1.426   2.115  1.2253 -1.9275 -0.0376
  593SOL     OW 1912   3.154   1.051   0.765  0.2419 -0.2072  0.1908
  593SOL    HW1 1913   3.098   1.099   0.703  0.0752 -0.2792  0.2834
  593SOL    HW2 1914   3.215   1.003   0.711 -1.0304 -1.6812  0.0044
  594SOL     OW 1915   1.548   1.619   0.933 -0.3212 -0.0260  1.0089
  594SOL    HW1 1916   1.454   1.605   0.942 -0.7673  2.0071  0.2358
  594SOL    HW2 1917   1.570   1.585   0.847 -1.0640  2.2619 -0.1811
  595SOL     OW 1918   0.880   0.713   1.839 -0.0984  0.3541 -0.7308
  595SOL    HW1 1919   0.968   0.721   1.875 -1.7815  0.2581  4.2363
  595SOL    HW2 1920   0.867   0.619   1.827 -0.3102  0.0454  1.4006
  596SOL     OW 1921   3.029   0.823   2.514  0.0247 -0.2932 -0.7269
  596SOL    HW1 1922   3.075   0.906   2.526 -0.3961 -0.4198  2.8702
  596SOL    HW2 1923   2.940   0.848   2.488  0.3916  0.2503 -1.4984
  597SOL     OW 1924   2.125   1.861   2.117 -0.0954  0.5493 -0.2942
  597SOL    HW1 1925   2.148   1.935   2.174 -0.1452  1.1996 -1.0981
  597SOL    HW2 1926   2.186   1.869   2.044  0.5150 -0.7584  0.0476
  598SOL     OW 1927   2.966   0.133   0.343 -0.5619  0.0608  0.8439
  598SOL    HW1 1928   2.876   0.111   0.366 -0.9795  0.3326 -0.4778
  598SOL    HW2 1929   2.966   0.142   0.248 -0.0185  3.8612  1.0420
  599SOL     OW 1930   2.013   2.380   1.466 -0.5866  0.3637  0.1879
  599SOL    HW1 1931   2.077   2.341   1.526  0.9140 -1.1097 -2.2475
  599SOL    HW2 1932   1.940   2.405   1.523 -0.1139 -2.7583  2.4040
  600SOL     OW 1933   1.099   1.841   0.939  0.3061 -0.7177 -0.3694
  600SOL    HW1 1934   1.077   1.899   1.011 -1.9576  2.0178 -3.0029
  600SOL    HW2 1935   1.102   1.754   0.978 -0.3689  0.6578  3.0411
  601SOL     OW 1936   2.177   2.734   2.663  0.7137  0.1363  0.1860
  601SOL    HW1 1937   2.190   2.743   2.569 -0.2467 -0.6329 -0.0375
  601SOL    HW2 1938   2.262   2.756   2.702  0.3276  3.6597 -0.6355
  602SOL     OW 1939   2.698   0.605   2.635  0.2926  0.1089 -0.0638
  602SOL    HW1 1940   2.663   0.524   2.596  3.4246 -0.6207 -1.6845
  602SOL    HW2 1941   2.687   0.592   2.729  0.1775 -1.9790 -0.3022
  603SOL     OW 1942   3.572   2.282   1.094  0.0747  0.2439 -0.3320
  603SOL    HW1 1943   3.550   2.256   1.004  3.5952 -0.6667 -1.0832
  603SOL    HW2 1944   3.556   2.203   1.146  3.4343 -1.2279 -1.2820
  604SOL     OW 1945   2.285   1.473   1.756 -0.4967  0.2192 -1.2674
  604SOL    HW1 1946   2.342   1.491   1.831 -0.4498 -0.4661 -1.1330
  604SOL    HW2 1947   2.283   1.377   1.749 -1.6788  0.2269 -1.2389
  605SOL     OW 1948   0.648   2.580   2.462 -0.3861 -0.1055 -0.1784
  605SOL    HW1 1949   0.734   2.599   2.497 -0.5187 -0.1548  0.1773
  605SOL    HW2 1950   0.606   2.526   2.529 -0.5462 -0.4228 -0.5258
  606SOL     OW 1951   2.206   3.648   1.660  0.3340 -0.3674  0.9543
  606SOL    HW1 1952   2.218   3.622   1.569  0.8077  2.0337  0.2530
  606SOL    HW2 1953   2.118   3.687   1.662  1.3755  2.1777  0.7638
  607SOL     OW 1954   1.477   1.105   0.630  0.4191  0.3792 -0.7524
  607SOL    HW1 1955   1.566   1.122   0.599  1.1566 -1.8450 -0.0443
  607SOL    HW2 1956   1.441   1.043   0.566  0.7257 -1.5388  0.8288
  608SOL     OW 1957   3.377   1.128   3.079 -0.1418  0.4755 -0.2625
  608SOL    HW1 1958   3.438   1.160   3.013  0.8230 -1.4526 -0.3774
  608SOL    HW2 1959   3.433   1.108   3.155 -0.7302 -0.5617 -0.0847
  609SOL     OW 1960   0.984   1.289   2.340 -0.0630 -0.0654  0.5266
  609SOL    HW1 1961   0.902   1.272   2.386 -2.1631 -0.9908 -3.1926
  609SOL    HW2 1962   1.005   1.205   2.298  2.6792  0.2411  1.1084
  610SOL     OW 1963   1.662   1.691   0.520 -0.2948 -0.3118  0.3587
  610SOL    HW1 1964   1.628   1.766   0.569 -0.2465  1.2168 -1.7774
  610SOL    HW2 1965   1.726   1.650   0.578  0.1141  1.6813  1.3871
  611SOL     OW 1966   3.314   3.272   3.269 -0.0356 -0.7505  0.2974
  611SOL    HW1 1967   3.382   3.239   3.211  1.2155  2.2689 -0.1715
  611SOL    HW2 1968   3.249   3.311   3.210  0.0649  0.2454  0.8124
  612SOL     OW 1969   1.094   2.985   2.084  0.7946  0.3744  0.2031
  612SOL    HW1 1970   1.121   3.033   2.163 -0.7369 -1.2391  1.7935
  612SOL    HW2 1971   1.034   3.045   2.040 -1.1629  0.0267  2.2043
  613SOL     OW 1972   2.593   0.457   0.832  0.1583 -0.3182 -0.3618
  613SOL    HW1 1973   2.526   0.425   0.770  0.0106 -0.2292 -0.2496
  613SOL    HW2 1974   2.613   0.381   0.886  0.6814 -0.5426 -0.8649
  614SOL     OW 1975   3.633   0.367   1.370 -0.2304  0.4533  0.6285
  614SOL    HW1 1976   3.718   0.400   1.401  0.3315 -1.7122  1.6124
  614SOL    HW2 1977   3.627   0.398   1.280  0.9219  1.8929  1.0069
  615SOL     OW 1978   3.336   1.745   2.056 -0.2504  0.0733  0.0276
  615SOL    HW1 1979   3.411   1.766   2.001 -1.3600  2.4615 -0.6734
  615SOL    HW2 1980   3.372   1.740   2.145  0.4183  4.4053  0.2270
  616SOL     OW 1981   0.323   2.270   0.810 -0.4289  0.2268 -0.0171
  616SOL    HW1 1982   0.339   2.248   0.718 -2.8180  1.1136 -0.6988
  616SOL    HW2 1983   0.398   2.324   0.835 -0.6591  1.5808 -2.0478
  617SOL     OW 1984   1.954   1.112   0.545  0.2228 -0.0686 -0.1984
  617SOL    HW1 1985   1.895   1.095   0.472 -1.2875  0.3511  0.8758
  617SOL    HW2 1986   1.938   1.039   0.606  2.7836 -1.4232 -1.0227
  618SOL     OW 1987   0.486   1.645   3.187  0.7862 -0.3909 -0.5901
  618SOL    HW1 1988   0.453   1.668   3.274  1.7507 -0.1243 -0.2767
  618SOL    HW2 1989   0.494   1.550   3.189 -0.3553 -0.5021 -0.8282
  619SOL     OW 1990   3.645   1.961   1.784 -0.0235 -0.5418  0.4884
  619SOL    HW1 1991   3.620   1.869   1.771 -0.1082 -0.6703  1.4495
  619SOL    HW2 1992   3.698   1.960   1.865  1.4911  0.0026 -0.4467
  620SOL     OW 1993   2.157   0.195   2.305 -0.0828  0.4233  0.2300
  620SOL    HW1 1994   2.070   0.234   2.313  0.1240  0.8491  0.4373
  620SOL    HW2 1995   2.183   0.177   2.396  0.1116  0.4517  0.1796
  621SOL     OW 1996   1.347   2.385   2.935 -0.0252 -0.0212  0.2199
  621SOL    HW1 1997   1.411   2.384   3.006  1.2329  0.9289 -0.8473
  621SOL    HW2 1998   1.400   2.393   2.855 -1.4723  1.0372 -0.6895
  622SOL     OW 1999   2.946   2.960   1.822 -0.2313  0.3628 -0.7988
  622SOL    HW1 2000   2.944   2.879   1.873 -0.0615  0.4034 -0.7288
  622SOL    HW2 2001   3.026   3.004   1.849  1.1032 -0.6877 -2.7505
  623SOL     OW 2002   2.421   1.237   1.163  0.5372  0.3428 -0.5856
  623SOL    HW1 2003   2.416   1.146   1.134 -0.0131  0.0911  0.2544
  623SOL    HW2 2004   2.510   1.247   1.196 -0.4228 -1.0626  2.8929
  624SOL     OW 2005   3.083   0.938   0.408 -1.0874 -0.0422 -0.1613
  624SOL    HW1 2006   3.077   1.029   0.378 -2.2058 -0.7325 -2.1916
  624SOL    HW2 2007   3.177   0.923   0.419 -0.8024  0.9944 -0.9983
  625SOL     OW 2008   1.885   0.188   0.416  0.1447  0.1492 -0.0495
  625SOL    HW1 2009   1.855   0.100   0.396  2.0110 -0.3711 -0.7490
  625SOL    HW2 2010   1.804   0.238   0.431 -0.9601 -1.5407 -0.1070
  626SOL     OW 2011   2.692   2.660   3.201 -0.5029 -0.0224 -0.7557
  626SOL    HW1 2012   2.685   2.745   3.243  0.8789  0.0869 -0.6893
  626SOL    HW2 2013   2.703   2.598   3.273  2.4291  0.2275 -0.8717
  627SOL     OW 2014   1.191   1.087   0.129  0.2136  0.0245 -0.1170
  627SOL    HW1 2015   1.196   1.027   0.055  2.3596  0.7723 -0.6368
  627SOL    HW2 2016   1.181   1.030   0.206  2.5177 -1.0818 -0.5531
  628SOL     OW 2017   0.208   2.213   1.991  0.6929  0.6161  0.5846
  628SOL    HW1 2018   0.160   2.131   1.980 -0.1551  1.1225  0.4060
  628SOL    HW2 2019   0.169   2.272   1.926  0.6925  1.4224  1.3069
  629SOL     OW 2020   3.272   0.762   1.003  0.2308 -0.0982 -0.2342
  629SOL    HW1 2021   3.243   0.765   0.912 -0.0820  1.5915 -0.1172
  629SOL    HW2 2022   3.276   0.854   1.030  0.3067 -0.5584  1.4645
  630SOL     OW 2023   1.254   0.216   2.069  0.5420 -0.0867  0.0566
  630SOL    HW1 2024   1.283   0.295   2.024  0.9653 -0.6296 -0.6507
  630SOL    HW2 2025   1.202   0.248   2.143 -0.8391  0.8232 -1.2418
  631SOL     OW 2026   3.452   1.867   0.953 -0.1198 -0.7002  0.2959
  631SOL    HW1 2027   3.545   1.874   0.972 -0.1404 -1.7109  0.8436
  631SOL    HW2 2028   3.416   1.819   1.027 -1.2917  0.6655  0.6619
  632SOL     OW 2029   1.061   2.887   2.392  0.1462 -0.7328 -0.2558
  632SOL    HW1 2030   1.060   2.951   2.464 -0.0942 -3.3166  2.2150
  632SOL    HW2 2031   0.999   2.922   2.329 -0.1874  1.3389  1.0991
  633SOL     OW 2032   1.530   3.296   3.014  0.1093 -0.2431 -0.5297
  633SOL    HW1 2033   1.542   3.239   2.938  0.8411 -1.8023  0.7070
  633SOL    HW2 2034   1.451   3.261   3.057  0.0834  0.2129 -0.2052
  634SOL     OW 2035   2.897   1.401   2.265  0.2170 -0.0057 -0.5428
  634SOL    HW1 2036   2.824   1.417   2.325  1.2249 -0.9486  1.0179
  634SOL    HW2 2037   2.967   1.459   2.296  1.9605 -2.9112  1.5781
  635SOL     OW 2038   2.899   2.331   2.213  0.5889 -0.1411  0.3943
  635SOL    HW1 2039   2.940   2.288   2.138 -0.9041  0.3395 -0.7522
  635SOL    HW2 2040   2.859   2.260   2.262  1.0728 -0.4058  0.4073
  636SOL     OW 2041   3.564   2.908   0.565 -0.4215  0.0793 -0.7901
  636SOL    HW1 2042   3.597   2.904   0.655 -0.3793 -0.1365 -0.8155
  636SOL    HW2 2043   3.508   2.985   0.564  0.0530  0.4320 -0.7359
  637SOL     OW 2044   1.535   3.680   0.770 -0.6798 -0.1797  0.1333
  637SOL    HW1 2045   1.447   3.718   0.763 -0.9867 -1.0094 -0.7510
  637SOL    HW2 2046   1.520   3.591   0.802 -0.2278 -0.5442 -0.6368
  638SOL     OW 2047   1.663   3.527   1.195  0.1356 -0.3882 -0.1982
  638SOL    HW1 2048   1.755   3.501   1.189  0.7782  1.0161  2.2784
  638SOL    HW2 2049   1.659   3.584   1.271 -3.0564 -1.4130  0.5520
  639SOL     OW 2050   2.487   3.460   1.727  0.4535  0.3820  0.2133
  639SOL    HW1 2051   2.395   3.486   1.728  0.5983  1.0372 -1.2163
  639SOL    HW2 2052   2.490   3.383   1.671  1.0370  1.6087 -1.5222
  640SOL     OW 2053   2.293   0.595   0.604 -0.0640 -0.0254 -0.9437
  640SOL    HW1 2054   2.298   0.541   0.525  0.6427  1.7646 -2.2083
  640SOL    HW2 2055   2.253   0.677   0.574 -3.4415 -0.6072  1.4128
  641SOL     OW 2056   2.923   0.550   2.357 -0.3156 -0.2055 -0.2243
  641SOL    HW1 2057   2.936   0.473   2.303 -1.0745  0.3647 -1.2481
  641SOL    HW2 2058   2.838   0.585   2.330 -0.3632  0.5208  0.8088
  642SOL     OW 2059   0.164   3.136   0.326  0.5461  0.6926 -0.0646
  642SOL    HW1 2060   0.069   3.143   0.315  0.5239 -0.0146 -0.3661
  642SOL    HW2 2061   0.176   3.058   0.380  0.9224  1.2396  0.6622
  643SOL     OW 2062   2.631   0.489   2.307  0.0198  0.6690 -0.0116
  643SOL    HW1 2063   2.575   0.422   2.269  0.1727  0.5750 -0.0716
  643SOL    HW2 2064   2.598   0.500   2.396  0.0662  0.4308  0.0354
  644SOL     OW 2065   0.270   0.130   0.424 -0.6076 -0.8504  0.5256
  644SOL    HW1 2066   0.205   0.066   0.454 -0.5311 -0.7708  0.8617
  644SOL    HW2 2067   0.353   0.097   0.459 -0.8869  0.8638  3.0847
  645SOL     OW 2068   2.788   1.185   2.555 -0.2492  0.0832  0.2250
  645SOL    HW1 2069   2.809   1.128   2.481  0.2248  2.1168 -1.2844
  645SOL    HW2 2070   2.768   1.270   2.516 -1.6367  0.8281  2.3327
  646SOL     OW 2071   1.784   2.574   3.021 -0.1869 -0.0992  0.1337
  646SOL    HW1 2072   1.789   2.622   3.104 -3.2372  0.4181  0.1422
  646SOL    HW2 2073   1.802   2.640   2.954  1.0064 -0.2256  0.3138
  647SOL     OW 2074   3.195   0.677   2.345  0.2495 -0.0172 -0.2040
  647SOL    HW1 2075   3.135   0.605   2.365 -2.3954  1.0347 -3.4143
  647SOL    HW2 2076   3.168   0.747   2.404  0.4548 -0.5023  0.4858
  648SOL     OW 2077   0.034   1.358   1.611  0.5390 -0.7609 -0.7278
  648SOL    HW1 2078  -0.002   1.299   1.678 -0.2634 -0.0477 -0.5114
  648SOL    HW2 2079   0.128   1.343   1.614  0.5339 -0.6649  0.6494
  649SOL     OW 2080   0.845   2.419   1.938  0.1580  0.2083 -0.5490
  649SOL    HW1 2081   0.808   2.408   2.026  2.8609  2.6032  1.0428
  649SOL    HW2 2082   0.783   2.476   1.893 -0.4070  0.3773  0.4087
  650SOL     OW 2083   2.906   3.031   1.453  0.5224  0.0452  0.0498
  650SOL    HW1 2084   2.861   2.957   1.495  0.0368  0.4159  0.1938
  650SOL    HW2 2085   2.998   3.021   1.478  0.3547 -0.1454  0.6100
  651SOL     OW 2086   1.385   0.201   1.015  0.3118  0.2830 -0.3574
  651SOL    HW1 2087   1.404   0.110   1.037 -1.8382 -0.3843 -0.9857
  651SOL    HW2 2088   1.336   0.196   0.933 -1.7377  1.8095  0.6861
  652SOL     OW 2089   1.107   2.471   2.826 -0.0373  0.5050  0.3791
  652SOL    HW1 2090   1.036   2.435   2.880  0.5965 -0.0325  0.8773
  652SOL    HW2 2091   1.183   2.472   2.884  0.2427  1.5952  0.0191
  653SOL     OW 2092   0.811   1.524   2.516  0.2634  0.4164  0.5449
  653SOL    HW1 2093   0.843   1.536   2.426 -0.2444  0.2758  0.3437
  653SOL    HW2 2094   0.837   1.435   2.539 -1.6081 -0.3912 -0.3042
  654SOL     OW 2095   3.612   0.981   3.167  0.2792 -0.2221 -0.0833
  654SOL    HW1 2096   3.624   1.071   3.197 -0.2226 -0.4239  0.7629
  654SOL    HW2 2097   3.596   0.931   3.248 -0.3673 -0.9069 -0.6171
  655SOL     OW 2098   1.010   1.807   2.166 -0.3383  0.9376  0.4313
  655SOL    HW1 2099   1.039   1.895   2.191 -3.6494  2.2522  0.1107
  655SOL    HW2 2100   1.029   1.801   2.072 -0.4835  1.5019  0.3608
  656SOL     OW 2101   1.282   2.353   2.447 -0.0938  0.3148  0.2316
  656SOL    HW1 2102   1.278   2.258   2.432  1.1104  0.0947  1.1340
  656SOL    HW2 2103   1.256   2.392   2.364 -1.2675 -0.8049  0.0488
  657SOL     OW 2104   1.962   1.108   0.139 -0.3320  0.4210  0.0342
  657SOL    HW1 2105   2.053   1.088   0.118 -0.5198 -0.7274  0.2355
  657SOL    HW2 2106   1.934   1.168   0.071  0.1278 -0.4113 -0.9142
  658SOL     OW 2107   1.918   1.047   1.722  0.4708 -0.3825  0.5038
  658SOL    HW1 2108   1.851   0.996   1.678  0.3535 -0.0380  0.2847
  658SOL    HW2 2109   2.000   1.023   1.678  0.1596  1.1771 -1.0253
  659SOL     OW 2110   2.920   0.397   2.631 -0.2820 -0.3644 -0.1771
  659SOL    HW1 2111   2.855   0.372   2.697  0.1910  0.4337  0.6076
  659SOL    HW2 2112   2.908   0.333   2.561  0.1885 -2.1663  1.3024
  660SOL     OW 2113   1.756   2.281   1.797 -0.2852 -0.6430 -0.1242
  660SOL    HW1 2114   1.717   2.316   1.717  1.3809 -1.4082 -1.3315
  660SOL    HW2 2115   1.816   2.350   1.827 -1.4133 -0.0673  0.9074
  661SOL     OW 2116   2.902   2.675   0.761  0.5640  0.4113 -0.0817
  661SOL    HW1 2117   2.883   2.620   0.837  1.8348  2.0548  1.5277
  661SOL    HW2 2118   2.975   2.632   0.717  0.7942  0.1968  0.5035
  662SOL     OW 2119   2.507   1.010   3.337 -0.1301 -0.0770  1.2457
  662SOL    HW1 2120   2.485   0.918   3.322  1.4165 -0.3743  0.5676
  662SOL    HW2 2121   2.438   1.059   3.291  0.9917 -0.9642 -1.6339
  663SOL     OW 2122   2.266   2.679   1.250 -0.0568  0.2423  0.7596
  663SOL    HW1 2123   2.329   2.653   1.183 -2.0199  1.4394 -1.7354
  663SOL    HW2 2124   2.201   2.608   1.250 -0.1905  0.3626  1.2497
  664SOL     OW 2125   2.573   1.531   1.273  0.5472  0.5830  0.5013
  664SOL    HW1 2126   2.548   1.605   1.328 -0.7954  0.2899  0.3173
  664SOL    HW2 2127   2.511   1.462   1.296 -2.8257  1.6293 -4.0902
  665SOL     OW 2128   3.081   0.252   0.818  0.0326  0.7863  0.0123
  665SOL    HW1 2129   3.010   0.197   0.784  1.3674 -0.1825 -1.3456
  665SOL    HW2 2130   3.067   0.253   0.912  0.5586 -2.8881  0.2838
  666SOL     OW 2131   3.087   1.357   1.615  0.3356  0.3538  0.3752
  666SOL    HW1 2132   3.012   1.298   1.604  1.8061 -1.2067 -2.1630
  666SOL    HW2 2133   3.154   1.302   1.656  1.1203  0.7859 -0.3096
  667SOL     OW 2134   1.704   1.731   3.613  0.2472 -0.6722 -0.2922
  667SOL    HW1 2135   1.773   1.667   3.597  0.9949  0.3726 -1.4381
  667SOL    HW2 2136   1.733   1.780   3.689 -1.1184 -2.6913  1.6445
  668SOL     OW 2137   0.964   1.070   1.096  0.1036  0.1305 -0.1742
  668SOL    HW1 2138   0.947   0.978   1.079  1.2352 -0.4003  1.3422
  668SOL    HW2 2139   1.058   1.081   1.083  0.1012  0.9048  0.3570
  669SOL     OW 2140   0.997   1.946   1.702 -0.5050  0.1369 -0.3214
  669SOL    HW1 2141   0.988   2.008   1.775 -1.4365 -1.6512  1.1768
  669SOL    HW2 2142   0.945   1.870   1.729  1.1108 -1.5779 -1.7614
  670SOL     OW 2143   2.277   2.604   1.562 -0.2378  0.4058  0.1108
  670SOL    HW1 2144   2.250   2.588   1.472 -0.5311 -0.0099  0.2679
  670SOL    HW2 2145   2.366   2.567   1.568  0.5541  2.0940 -0.5038
  671SOL     OW 2146   1.160   0.711   3.330 -0.3691  0.2808 -0.1400
  671SOL    HW1 2147   1.179   0.629   3.376 -0.6350  0.3651  0.1236
  671SOL    HW2 2148   1.166   0.688   3.237 -0.9772 -0.1678 -0.0743
  672SOL     OW 2149   2.648   0.541   3.709  0.1257 -0.3282  1.0024
  672SOL    HW1 2150   2.675   0.498   3.790  0.5539 -0.8391  0.5967
  672SOL    HW2 2151   2.715   0.608   3.694 -1.3773  1.6321  2.4788
  673SOL     OW 2152   0.099   0.451   2.990 -0.4261 -0.4717 -0.1339
  673SOL    HW1 2153   0.075   0.501   2.911 -0.0183  0.3871  0.2693
  673SOL    HW2 2154   0.194   0.459   2.994 -0.5817  1.2469  1.5484
  674SOL     OW 2155   1.687   3.214   0.964 -0.8400  0.6291 -0.0637
  674SOL    HW1 2156   1.663   3.122   0.951  0.6998  0.3858 -1.4847
  674SOL    HW2 2157   1.642   3.261   0.895  1.4294  0.3598 -1.8316
  675SOL     OW 2158   1.409   1.437   0.188 -0.4949  1.0923 -0.0244
  675SOL    HW1 2159   1.314   1.428   0.189 -0.8095  3.7411  0.7325
  675SOL    HW2 2160   1.428   1.481   0.105  0.1924 -0.1368 -0.5446
  676SOL     OW 2161   1.398   1.728   1.521  0.2412  0.1494  0.3372
  676SOL    HW1 2162   1.344   1.788   1.573 -1.2991 -1.1405  0.3087
  676SOL    HW2 2163   1.474   1.710   1.576  0.6402  1.9289  0.4244
  677SOL     OW 2164   3.275   2.753   0.446 -0.4747  0.1995 -0.3218
  677SOL    HW1 2165   3.348   2.800   0.407 -1.8161  0.9194 -2.1086
  677SOL    HW2 2166   3.308   2.665   0.462  1.4115  1.0793  1.0091
  678SOL     OW 2167   2.035   0.897   3.488  0.3921 -0.7514  0.2379
  678SOL    HW1 2168   2.049   0.810   3.452 -0.6338 -1.2523  0.9821
  678SOL    HW2 2169   2.013   0.882   3.580 -0.8680  0.1953  0.1282
  679SOL     OW 2170   2.022   1.405   3.349  0.4173 -0.1853  0.8031
  679SOL    HW1 2171   2.014   1.310   3.356 -3.1410 -0.1869 -0.8126
  679SOL    HW2 2172   1.985   1.439   3.431  1.7699 -0.1498  1.4185
  680SOL     OW 2173   0.213   0.140   1.306  0.3573  0.1470  1.4338
  680SOL    HW1 2174   0.295   0.090   1.298 -0.2867 -0.5941 -2.6779
  680SOL    HW2 2175   0.238   0.230   1.288  0.3351 -0.1027  0.0144
  681SOL     OW 2176   0.289   2.065   1.686 -0.1476 -0.3700  0.0576
  681SOL    HW1 2177   0.299   1.990   1.745 -2.3778  0.9996  2.3734
  681SOL    HW2 2178   0.352   2.129   1.718 -3.1920  1.4561  3.0702
  682SOL     OW 2179   3.493   2.744   1.822 -0.1440 -0.2769 -0.0955
  682SOL    HW1 2180   3.426   2.727   1.887 -0.7592  0.0873 -0.6232
  682SOL    HW2 2181   3.477   2.834   1.793  0.9498  0.0279  0.2080
  683SOL     OW 2182   0.658   0.572   2.175 -0.0825 -0.7748  0.0742
  683SOL    HW1 2183   0.604   0.569   2.254 -1.0536 -2.3527 -0.6044
  683SOL    HW2 2184   0.610   0.630   2.115  0.4289  0.0695  0.4750
  684SOL     OW 2185   0.841   3.032   1.051 -0.1478  0.0850  0.2389
  684SOL    HW1 2186   0.861   3.114   1.006 -0.5491  0.7620  1.2556
  684SOL    HW2 2187   0.859   3.051   1.143  0.4585 -1.2054  0.3988
  685SOL     OW 2188   3.123   2.817   0.993 -0.3529 -0.2330  0.9457
  685SOL    HW1 2189   3.195   2.814   0.929 -0.6541 -0.4980  0.6169
  685SOL    HW2 2190   3.078   2.733   0.983 -1.1099  0.1966  0.6883
  686SOL     OW 2191   3.029   2.890   0.471  0.4724  0.2918 -0.2813
  686SOL    HW1 2192   3.049   2.960   0.534  0.2781  1.1291 -1.1344
  686SOL    HW2 2193   3.108   2.837   0.469  0.6408  0.5073  0.3491
  687SOL     OW 2194   3.694   2.839   0.318 -0.5109  0.0974  0.0179
  687SOL    HW1 2195   3.720   2.755   0.354  0.3275 -0.1155 -1.0367
  687SOL    HW2 2196   3.648   2.883   0.390 -0.2584 -0.9258  0.8268
  688SOL     OW 2197   3.480   2.346   3.350  0.2587 -0.4619  0.3473
  688SOL    HW1 2198   3.484   2.340   3.255  0.3957  0.1334  0.3076
  688SOL    HW2 2199   3.435   2.429   3.366 -1.3463 -1.3829  0.8069
  689SOL     OW 2200   3.286   2.763   1.292  0.3106  0.1193  0.1194
  689SOL    HW1 2201   3.258   2.699   1.228  1.1794 -0.2995  0.1404
  689SOL    HW2 2202   3.244   2.736   1.374 -0.0258  0.0951 -0.0598
  690SOL     OW 2203   1.863   1.904   0.553 -0.0631 -0.4253 -0.1987
  690SOL    HW1 2204   1.840   1.817   0.520  2.6140 -0.6830 -1.7004
  690SOL    HW2 2205   1.952   1.893   0.589  1.2101  2.0341 -2.2952
  691SOL     OW 2206   3.478   2.275   3.074 -0.0830 -0.0574  0.1151
  691SOL    HW1 2207   3.517   2.343   3.019 -0.3707  0.3872  0.4465
  691SOL    HW2 2208   3.522   2.194   3.048  1.2269  0.4666  0.6427
  692SOL     OW 2209   0.328   0.909   2.387 -0.3301  0.8576 -0.2422
  692SOL    HW1 2210   0.278   0.833   2.357  1.2182  0.3788 -1.8109
  692SOL    HW2 2211   0.361   0.884   2.473 -0.2077 -0.0696 -0.5498
  693SOL     OW 2212   0.295   1.803   0.867  0.0759  0.1558 -0.4462
  693SOL    HW1 2213   0.347   1.877   0.836 -1.5554  1.8646  0.7197
  693SOL    HW2 2214   0.300   1.808   0.962  1.2622 -2.2712 -0.2999
  694SOL     OW 2215   2.700   1.504   2.827 -0.4891  0.4194 -0.0994
  694SOL    HW1 2216   2.743   1.425   2.861  1.4303 -0.0744 -3.2703
  694SOL    HW2 2217   2.747   1.576   2.869 -1.3250 -0.0377  1.7536
  695SOL     OW 2218   0.654   2.395   2.120  0.5037  0.7536  0.5349
  695SOL    HW1 2219   0.559   2.404   2.126  0.4598  1.2528 -0.6822
  695SOL    HW2 2220   0.674   2.317   2.171 -0.6125  0.3855  0.4375
  696SOL     OW 2221   0.827   0.398   0.250 -0.0386  0.1742  0.1540
  696SOL    HW1 2222   0.768   0.469   0.229  0.0329  0.4762  0.9628
  696SOL    HW2 2223   0.827   0.393   0.345 -1.4845 -2.1118  0.1239
  697SOL     OW 2224   0.119   1.842   3.073 -0.0999  0.5375 -0.4888
  697SOL    HW1 2225   0.149   1.880   2.990 -2.2761 -0.5702 -1.8860
  697SOL    HW2 2226   0.196   1.843   3.129  1.1464  2.4963 -2.0785
  698SOL     OW 2227   0.679   1.159   1.904 -0.3565  0.1646  0.1931
  698SOL    HW1 2228   0.612   1.207   1.855  0.4298  0.9701 -0.1169
  698SOL    HW2 2229   0.691   1.077   1.856  0.2217  0.8374 -0.8382
  699SOL     OW 2230   2.412   0.362   2.197 -1.0792 -0.1039 -0.0339
  699SOL    HW1 2231   2.448   0.279   2.227 -0.2968  0.4125  0.5007
  699SOL    HW2 2232   2.318   0.346   2.188 -1.5468 -0.1559  3.3792
  700SOL     OW 2233   1.503   2.084   1.537  0.3793 -0.2136  0.0181
  700SOL    HW1 2234   1.453   2.163   1.560  1.0694 -0.2522  1.7673
  700SOL    HW2 2235   1.437   2.017   1.521 -0.1761  0.3212  0.0405
  701SOL     OW 2236   3.640   0.407   3.193 -0.4025  0.3548 -0.4569
  701SOL    HW1 2237   3.711   0.382   3.251 -0.7472  0.3595 -0.0330
  701SOL    HW2 2238   3.683   0.448   3.118  0.0245  0.5385 -0.1088
  702SOL     OW 2239   1.463   2.017   0.397  0.1040 -0.1211  0.0781
  702SOL    HW1 2240   1.503   1.962   0.465 -1.8517 -1.7177  0.0336
  702SOL    HW2 2241   1.369   1.999   0.403 -0.1494 -0.5276 -3.1672
  703SOL     OW 2242   0.670   0.627   0.246 -0.6645 -0.7844  0.1676
  703SOL    HW1 2243   0.618   0.620   0.166 -0.1341 -1.6680 -0.1219
  703SOL    HW2 2244   0.606   0.627   0.317 -1.2937  2.1829 -0.2708
  704SOL     OW 2245   0.797   0.163   2.292 -0.2944 -0.3194  0.2327
  704SOL    HW1 2246   0.799   0.102   2.365 -0.0370  0.4947  0.9210
  704SOL    HW2 2247   0.764   0.111   2.218 -2.0622 -0.7597  1.2836
  705SOL     OW 2248   3.422   1.186   1.359 -0.6814  0.5183 -0.4006
  705SOL    HW1 2249   3.509   1.150   1.343 -0.6397  0.8141 -0.8789
  705SOL    HW2 2250   3.412   1.187   1.454 -0.3870 -0.0433 -0.3676
  706SOL     OW 2251   0.533   1.943   2.216 -0.7284  0.0367 -0.5447
  706SOL    HW1 2252   0.603   1.880   2.229  0.1978  0.8908 -1.1968
  706SOL    HW2 2253   0.507   1.969   2.304  1.8290  1.8819 -0.2202
  707SOL     OW 2254   1.930   2.934   0.431 -0.4353 -0.0965  0.1806
  707SOL    HW1 2255   1.933   2.840   0.409 -2.7957 -0.6651  1.9336
  707SOL    HW2 2256   2.022   2.959   0.440  0.2966 -1.9445 -1.4123
  708SOL     OW 2257   0.388   2.796   1.799  0.1374 -0.5432  0.5441
  708SOL    HW1 2258   0.403   2.748   1.880 -2.1679  0.9031  1.9362
  708SOL    HW2 2259   0.403   2.887   1.822 -2.4733  0.1106 -0.0397
  709SOL     OW 2260   2.196   1.155   1.302  0.0155  0.8592  0.2868
  709SOL    HW1 2261   2.277   1.182   1.258 -0.0001 -2.4767 -2.2455
  709SOL    HW2 2262   2.127   1.179   1.240 -0.6764  1.2376  1.1902
  710SOL     OW 2263   0.229   0.145   0.766  0.1038 -0.1392  0.3287
  710SOL    HW1 2264   0.218   0.178   0.856  1.3387 -0.3446  0.5766
  710SOL    HW2 2265   0.141   0.120   0.739 -0.3991  0.5665  1.2311
  711SOL     OW 2266   1.610   2.905   2.125  0.1103 -0.0396  0.4624
  711SOL    HW1 2267   1.563   2.824   2.145  0.1354 -0.7094 -1.8507
  711SOL    HW2 2268   1.693   2.877   2.088  1.0039  1.1008  1.5291
  712SOL     OW 2269   0.988   1.240   2.808 -0.0118 -0.2859  0.2311
  712SOL    HW1 2270   1.020   1.252   2.898  1.7109  0.3450 -0.4319
  712SOL    HW2 2271   0.995   1.327   2.769 -1.7993 -0.2992 -0.2333
  713SOL     OW 2272   1.357   1.911   1.892 -0.1674 -0.3188  0.1057
  713SOL    HW1 2273   1.283   1.852   1.879 -0.5309  0.2044 -0.1968
  713SOL    HW2 2274   1.428   1.871   1.841  0.1935 -1.5796  1.5127
  714SOL     OW 2275   1.282   3.340   3.118  0.0200  0.0731  0.0032
  714SOL    HW1 2276   1.212   3.320   3.181  0.9371 -2.0625  0.4513
  714SOL    HW2 2277   1.322   3.420   3.151  0.9728 -1.3845  2.6818
  715SOL     OW 2278   0.370  -0.009   2.819 -0.4467  0.7303  0.0314
  715SOL    HW1 2279   0.441   0.055   2.821  0.2461  0.0273 -0.8868
  715SOL    HW2 2280   0.296   0.035   2.860 -0.1867  2.3728 -1.1943
  716SOL     OW 2281   0.847   3.697   3.269  0.1908 -0.3344  0.2847
  716SOL    HW1 2282   0.856   3.689   3.174 -0.8804  0.1163  0.1382
  716SOL    HW2 2283   0.919   3.754   3.295 -0.0338  0.2606 -0.3786
  717SOL     OW 2284   1.780   2.208   2.084  0.7304  0.9408 -0.0805
  717SOL    HW1 2285   1.696   2.170   2.111  1.0237  0.8550  0.7368
  717SOL    HW2 2286   1.775   2.211   1.989 -0.1616  0.8389 -0.0479
  718SOL     OW 2287   2.254   1.410   0.865 -0.4967  0.0327  0.1099
  718SOL    HW1 2288   2.306   1.332   0.845 -0.1300  0.1266  0.6879
  718SOL    HW2 2289   2.164   1.385   0.843 -0.4173 -0.6341  0.5170
  719SOL     OW 2290   2.546   1.064   0.112  0.1730  0.0790 -0.1140
  719SOL    HW1 2291   2.533   1.033   0.022 -1.8036 -1.6174  0.6604
  719SOL    HW2 2292   2.473   1.124   0.127  0.6486  0.5633  0.2889
  720SOL     OW 2293   2.214   1.106   0.382  0.0549 -0.1246  0.0135
  720SOL    HW1 2294   2.278   1.141   0.320 -1.2847  0.6698 -0.9719
  720SOL    HW2 2295   2.207   1.173   0.450 -0.0915  0.0298 -0.1509
  721SOL     OW 2296   3.464   1.460   2.680 -0.3893  0.3215  0.7766
  721SOL    HW1 2297   3.375   1.457   2.643 -0.3334  0.8648  0.5825
  721SOL    HW2 2298   3.454   1.511   2.760 -0.0310  1.5576  0.0653
  722SOL     OW 2299   0.254   1.748   2.424  0.2318  0.0733  0.2085
  722SOL    HW1 2300   0.328   1.691   2.405  1.2732  1.6977 -0.8283
  722SOL    HW2 2301   0.291   1.821   2.473 -0.9344  0.2663  0.8495
  723SOL     OW 2302   2.771   1.755   2.893 -0.2944  0.3579 -0.4953
  723SOL    HW1 2303   2.811   1.793   2.971  0.7723 -0.7284 -0.4864
  723SOL    HW2 2304   2.698   1.813   2.873 -0.5288  0.7083  1.2479
  724SOL     OW 2305   2.746   1.902   0.871 -0.6620  0.4206  0.2982
  724SOL    HW1 2306   2.660   1.908   0.829 -0.0565 -2.1720 -1.6238
  724SOL    HW2 2307   2.728   1.879   0.962 -1.9889  4.1661  1.1258
  725SOL     OW 2308   3.627   2.225   1.739 -0.1119 -0.4998 -0.2283
  725SOL    HW1 2309   3.616   2.232   1.645  1.0391 -0.1428 -0.3497
  725SOL    HW2 2310   3.598   2.136   1.760 -1.5452 -0.1813 -0.7167
  726SOL     OW 2311   0.726   1.772   3.195 -0.6218 -0.3128 -0.1219
  726SOL    HW1 2312   0.635   1.744   3.192 -0.4402 -1.5162  2.8395
  726SOL    HW2 2313   0.724   1.857   3.239 -0.4613  1.0565 -2.5342
  727SOL     OW 2314   1.574   1.291   1.518 -0.1326 -0.2201 -0.2539
  727SOL    HW1 2315   1.503   1.287   1.454  1.4263 -1.4495 -2.0110
  727SOL    HW2 2316   1.534   1.333   1.595 -2.3153  0.5414 -1.6898
  728SOL     OW 2317   3.248   2.488   2.364 -0.2607 -0.0561  0.5559
  728SOL    HW1 2318   3.204   2.516   2.444 -1.9060  1.4373 -0.7735
  728SOL    HW2 2319   3.340   2.512   2.378 -0.5131  0.1705  1.9873
  729SOL     OW 2320   2.475   3.237   0.320 -0.7071  0.6515 -0.0888
  729SOL    HW1 2321   2.437   3.241   0.407  0.2252  2.2547  0.2830
  729SOL    HW2 2322   2.544   3.171   0.326 -1.4319 -0.1143  0.0319
  730SOL     OW 2323   0.912   2.312   2.953  0.1359 -0.0173 -0.2133
  730SOL    HW1 2324   0.844   2.322   3.021  0.4243  0.9099 -0.0438
  730SOL    HW2 2325   0.953   2.228   2.973  0.5208  0.4413  1.0625
  731SOL     OW 2326   0.708   0.513   1.365  0.4441  0.0367  0.2083
  731SOL    HW1 2327   0.735   0.496   1.275  0.9518 -0.3066  0.4246
  731SOL    HW2 2328   0.775   0.472   1.419  0.2462  0.4060  0.7461
  732SOL     OW 2329   1.848   2.687   3.255  0.4286 -0.1887  0.1931
  732SOL    HW1 2330   1.821   2.749   3.322  1.3937  0.6249 -0.1419
  732SOL    HW2 2331   1.941   2.705   3.241  0.2730 -0.3565 -1.3166
  733SOL     OW 2332   2.117   0.820   0.904  0.2617  0.0994 -0.0026
  733SOL    HW1 2333   2.184   0.821   0.972 -2.1616  1.0886  2.5886
  733SOL    HW2 2334   2.063   0.744   0.924 -0.8758  0.7710 -0.4028
  734SOL     OW 2335   2.278   2.072   2.210  0.2372  0.6384 -0.1741
  734SOL    HW1 2336   2.243   2.158   2.233 -0.5326  0.1529  0.5546
  734SOL    HW2 2337   2.339   2.089   2.139 -2.2294  1.4520 -2.2602
  735SOL     OW 2338   0.214   1.153   0.872 -0.0509  0.2675  0.3373
  735SOL    HW1 2339   0.276   1.086   0.844  0.2196  0.5995  0.1256
  735SOL    HW2 2340   0.128   1.118   0.849 -0.1009 -0.9322  2.1072
  736SOL     OW 2341   3.147   0.644   2.734  0.5332  0.2639  0.3475
  736SOL    HW1 2342   3.153   0.653   2.829  0.4251 -1.8823  0.6170
  736SOL    HW2 2343   3.216   0.701   2.699 -0.2001  2.0132  1.6059
  737SOL     OW 2344   2.291   0.811   3.242 -0.5522  0.0655  0.3846
  737SOL    HW1 2345   2.253   0.732   3.281  0.0166  0.7037  2.3071
  737SOL    HW2 2346   2.220   0.848   3.190 -0.1394 -3.0005 -2.7833
  738SOL     OW 2347   3.678   0.084   1.367  0.4373 -0.2808  0.8199
  738SOL    HW1 2348   3.770   0.065   1.351 -0.0011 -2.1343  0.3869
  738SOL    HW2 2349   3.677   0.178   1.390  2.5107 -0.4065  1.6396
  739SOL     OW 2350   1.258   3.668   1.953 -0.2527  0.3241 -0.8648
  739SOL    HW1 2351   1.265   3.648   1.859 -1.0135  0.3733 -0.9382
  739SOL    HW2 2352   1.245   3.763   1.956 -0.0512  0.3459 -0.6979
  740SOL     OW 2353   0.952   0.954   0.695  0.0799 -0.0186 -0.0512
  740SOL    HW1 2354   0.904   0.882   0.737  2.6514 -2.2655 -0.6643
  740SOL    HW2 2355   1.011   0.910   0.633  1.6554  2.6689 -0.6143
  741SOL     OW 2356   3.588   0.771   2.388 -0.0220  0.3275 -0.2088
  741SOL    HW1 2357   3.539   0.689   2.390  0.0608  0.2238 -1.6567
  741SOL    HW2 2358   3.596   0.792   2.295  2.5016  0.4357 -0.0352
  742SOL     OW 2359   1.125   2.823   3.690 -0.4459 -0.0605 -0.5189
  742SOL    HW1 2360   1.125   2.822   3.594  0.4539 -1.8227 -0.5450
  742SOL    HW2 2361   1.064   2.754   3.715  0.4412 -0.6322  0.1391
  743SOL     OW 2362   3.259   1.979   1.243  0.4520  0.5349 -0.5732
  743SOL    HW1 2363   3.275   1.892   1.206 -0.4424  0.6623 -1.3008
  743SOL    HW2 2364   3.232   1.962   1.333  0.8028  0.0961 -0.5454
  744SOL     OW 2365   1.422   3.475   3.565  0.0464 -0.3812 -0.2979
  744SOL    HW1 2366   1.333   3.446   3.543 -0.8759  0.2885  2.2623
  744SOL    HW2 2367   1.475   3.396   3.555 -1.3343 -1.5001  0.7199
  745SOL     OW 2368   1.088   3.261   0.241 -0.1237  0.3565 -0.3366
  745SOL    HW1 2369   1.004   3.251   0.284 -0.4027  0.4295 -0.8561
  745SOL    HW2 2370   1.082   3.206   0.162  0.5933 -0.2542  0.0147
  746SOL     OW 2371   3.379   1.162   2.653  0.0930 -0.4348  0.2167
  746SOL    HW1 2372   3.452   1.214   2.687  0.0925 -0.0257 -0.3873
  746SOL    HW2 2373   3.342   1.119   2.730  0.5100 -0.0639  0.6299
  747SOL     OW 2374   1.946   0.758   0.491 -0.2648  0.1453 -0.5468
  747SOL    HW1 2375   1.922   0.782   0.581 -1.4900 -2.1781 -0.1866
  747SOL    HW2 2376   2.042   0.755   0.492 -0.2643 -0.1878  0.7767
  748SOL     OW 2377   2.243   0.957   0.714 -0.9155 -0.1266  0.1652
  748SOL    HW1 2378   2.175   0.914   0.766 -0.3788 -1.9566 -0.5624
  748SOL    HW2 2379   2.238   0.916   0.628  0.8472 -0.0314 -0.0304
  749SOL     OW 2380   2.061   0.766   0.018 -0.3595  0.5959  0.7037
  749SOL    HW1 2381   2.132   0.730  -0.035 -1.5808  0.0695 -0.6326
  749SOL    HW2 2382   2.096   0.848   0.053  0.8327  0.4442 -0.0983
  750SOL     OW 2383   3.567   2.065   2.218  0.5684  0.6123 -0.5081
  750SOL    HW1 2384   3.602   2.055   2.306  0.7936  0.9805 -0.5579
  750SOL    HW2 2385   3.581   2.157   2.196 -0.6033  0.8255 -0.4478
  751SOL     OW 2386   2.474   2.432   3.202  0.4236  0.0532 -0.4989
  751SOL    HW1 2387   2.484   2.339   3.220 -2.0902 -0.4976 -1.5544
  751SOL    HW2 2388   2.519   2.476   3.275  1.4446 -1.9582  0.1394
  752SOL     OW 2389   3.439   2.386   0.461  0.2379 -0.0228  0.9650
  752SOL    HW1 2390   3.403   2.370   0.374 -0.3151  0.1085  1.1695
  752SOL    HW2 2391   3.399   2.319   0.517  2.2595 -1.5415  0.7112
  753SOL     OW 2392   1.988   1.658   0.989 -0.2132 -0.2691 -0.7254
  753SOL    HW1 2393   2.078   1.689   0.978 -0.7930  1.2079 -1.6983
  753SOL    HW2 2394   1.966   1.617   0.906 -0.0790 -1.6983 -0.0817
  754SOL     OW 2395   0.930   1.995   3.566  0.4431  0.2528 -0.3889
  754SOL    HW1 2396   0.953   1.930   3.632 -1.0120 -0.0346 -0.1346
  754SOL    HW2 2397   1.000   1.988   3.500  0.5176 -1.2973 -0.1773
  755SOL     OW 2398   2.787   2.079   0.448 -0.3943 -0.1733  0.0209
  755SOL    HW1 2399   2.708   2.134   0.451  0.2378  0.7335  0.4641
  755SOL    HW2 2400   2.767   2.006   0.506 -1.8117 -1.2277 -1.6936
  756SOL     OW 2401  -0.003   2.249   0.272 -0.0871 -0.1195 -0.2246
  756SOL    HW1 2402   0.047   2.298   0.336 -1.2881  1.2644 -0.3062
  756SOL    HW2 2403  -0.021   2.165   0.315  1.7229 -0.4231  0.0302
  757SOL     OW 2404   0.152   3.639   3.545 -0.1682 -0.4034  0.2804
  757SOL    HW1 2405   0.110   3.680   3.469 -1.9720 -0.4234  1.2013
  757SOL    HW2 2406   0.105   3.676   3.620  1.5607 -0.3890  1.4062
  758SOL     OW 2407   2.603   0.487   3.440  0.6824 -0.6415 -0.0468
  758SOL    HW1 2408   2.601   0.514   3.531  0.4099  0.6256 -0.3999
  758SOL    HW2 2409   2.619   0.568   3.391 -0.1968 -1.1160 -1.1827
  759SOL     OW 2410   3.448   3.639   2.652 -0.0775  0.4843  0.2003
  759SOL    HW1 2411   3.471   3.660   2.743  3.0415 -2.5269  0.3352
  759SOL    HW2 2412   3.508   3.692   2.600 -0.7394  1.0132 -0.0214
  760SOL     OW 2413   1.816   0.773   1.999  0.0746  0.9770  0.3445
  760SOL    HW1 2414   1.816   0.868   2.013 -1.8685  0.9339  0.8638
  760SOL    HW2 2415   1.729   0.753   1.965 -0.3839 -0.8993  2.3795
  761SOL     OW 2416   2.523   1.843   2.859  0.1596 -0.0459 -0.3990
  761SOL    HW1 2417   2.477   1.797   2.929  0.3165 -1.0462 -0.9243
  761SOL    HW2 2418   2.463   1.839   2.784  0.7932 -0.7602 -0.8895
  762SOL     OW 2419   2.674   3.033   0.291  0.4896 -0.1875  0.3030
  762SOL    HW1 2420   2.702   2.999   0.376  0.2276 -0.9703  0.0930
  762SOL    HW2 2421   2.716   2.975   0.227  0.7416  0.4392 -0.1033
  763SOL     OW 2422   1.236   1.697   2.729 -0.0800 -0.3768 -0.0363
  763SOL    HW1 2423   1.309   1.758   2.734  0.0229 -0.4183 -0.8283
  763SOL    HW2 2424   1.215   1.693   2.636 -0.3822 -1.2013  0.0603
  764SOL     OW 2425   2.942   3.621   3.175 -0.2609 -0.3413 -0.4956
  764SOL    HW1 2426   2.998   3.669   3.114 -0.5633 -0.9885 -1.3136
  764SOL    HW2 2427   2.904   3.551   3.122 -0.6178 -0.8632  0.4237
  765SOL     OW 2428   1.454   0.416   2.565  0.2291  0.2020  0.1007
  765SOL    HW1 2429   1.409   0.376   2.490  0.8613  0.1628 -0.2761
  765SOL    HW2 2430   1.468   0.507   2.539  1.3747 -0.0605 -0.2959
  766SOL     OW 2431   3.624   1.505   0.918  0.5929  0.9143 -0.2079
  766SOL    HW1 2432   3.711   1.465   0.912 -0.2423 -0.9253 -0.4224
  766SOL    HW2 2433   3.579   1.457   0.987 -0.6956  1.0023 -0.9578
  767SOL     OW 2434   2.622   1.250   3.018 -0.2072  0.0280 -0.1398
  767SOL    HW1 2435   2.675   1.213   3.089  0.5937  1.1842 -0.1219
  767SOL    HW2 2436   2.534   1.217   3.035  0.4947 -2.1135 -0.2934
  768SOL     OW 2437   3.302   2.397   1.867  0.9913  0.0246 -0.6151
  768SOL    HW1 2438   3.223   2.396   1.813  0.2914  0.3691  0.3728
  768SOL    HW2 2439   3.312   2.306   1.896  0.4044  0.1650  0.0357
  769SOL     OW 2440   2.225   2.877   1.629 -0.2992 -0.5041  0.0206
  769SOL    HW1 2441   2.233   2.782   1.618  0.1203 -0.3384 -1.3689
  769SOL    HW2 2442   2.307   2.912   1.594 -1.4082  0.4884 -1.7590
  770SOL     OW 2443   2.874   3.000   3.646  0.2340  0.3348  0.2561
  770SOL    HW1 2444   2.954   3.036   3.607  0.8821 -0.9988  0.2973
  770SOL    HW2 2445   2.902   2.969   3.732 -0.4292  0.2448  0.4400
  771SOL     OW 2446   2.321   2.920   1.921 -0.1827 -0.2832  0.7091
  771SOL    HW1 2447   2.317   2.867   1.841  1.0316  1.3010 -0.4762
  771SOL    HW2 2448   2.251   2.985   1.910 -0.0063 -0.0545  0.9229
  772SOL     OW 2449   1.535   2.250   1.304  0.4695  0.0397 -0.3349
  772SOL    HW1 2450   1.613   2.200   1.326  0.8125  1.1239  1.1027
  772SOL    HW2 2451   1.462   2.195   1.329  0.7873 -0.5577 -0.7078
  773SOL     OW 2452   0.963   0.175   3.446  0.0376 -0.2873  0.2285
  773SOL    HW1 2453   1.022   0.248   3.435  0.4342 -0.3747  1.5615
  773SOL    HW2 2454   0.881   0.203   3.405  0.9240 -0.1036 -1.4729
  774SOL     OW 2455   2.948   2.340   2.571  0.4255 -0.3698 -0.0387
  774SOL    HW1 2456   2.914   2.423   2.606 -0.6456 -1.3829  1.4559
  774SOL    HW2 2457   2.904   2.273   2.623  1.6356 -1.8734 -0.8913
  775SOL     OW 2458   0.908   2.722   2.139  0.2503  0.1874  0.8396
  775SOL    HW1 2459   0.982   2.774   2.108 -0.1191  0.3333  0.1878
  775SOL    HW2 2460   0.949   2.643   2.176  0.7524  0.4757  0.9140
  776SOL     OW 2461   0.426   0.098   0.072 -0.7283 -0.2425  0.1479
  776SOL    HW1 2462   0.393   0.012   0.097 -0.1557 -0.1510  1.2937
  776SOL    HW2 2463   0.438   0.144   0.155  0.3680  0.4272 -0.3508
  777SOL     OW 2464   1.634   1.474   1.150 -0.2695 -0.0737  0.6876
  777SOL    HW1 2465   1.634   1.553   1.095  0.7179 -0.2228  0.4505
  777SOL    HW2 2466   1.659   1.506   1.237 -1.0461  0.0463  0.8681
  778SOL     OW 2467   0.417   0.374   3.493 -0.1991  0.4982  0.4034
  778SOL    HW1 2468   0.447   0.291   3.455 -0.6588  0.5019  0.0261
  778SOL    HW2 2469   0.332   0.354   3.532  0.3427  0.4588  1.5892
  779SOL     OW 2470   0.979   2.028   1.441 -0.3463 -0.2014 -0.5198
  779SOL    HW1 2471   0.978   1.982   1.525 -2.8929  0.3908 -0.1512
  779SOL    HW2 2472   0.985   2.120   1.464 -2.2196  0.0479 -0.8597
  780SOL     OW 2473   1.785   3.336   0.657 -0.0449  0.4011  0.2066
  780SOL    HW1 2474   1.812   3.324   0.565 -0.0447  2.6602 -0.1335
  780SOL    HW2 2475   1.705   3.387   0.652  0.4392  1.3263  1.4962
  781SOL     OW 2476   0.585   2.298   0.893 -0.4603  0.0255 -0.7711
  781SOL    HW1 2477   0.662   2.343   0.928  0.1789 -0.6762 -1.2366
  781SOL    HW2 2478   0.621   2.235   0.830 -1.1403 -2.4070  1.1202
  782SOL     OW 2479   0.329   2.124   1.103  0.3536  0.2751  0.8828
  782SOL    HW1 2480   0.312   2.061   1.173  0.0188 -0.0332  0.5287
  782SOL    HW2 2481   0.424   2.129   1.097  0.4058 -1.3849 -0.1342
  783SOL     OW 2482   2.047   2.566   2.422 -0.0613  0.0770 -0.1498
  783SOL    HW1 2483   1.962   2.551   2.465 -0.3339 -0.3384 -0.8199
  783SOL    HW2 2484   2.026   2.623   2.347 -0.4163 -2.9371 -2.5258
  784SOL     OW 2485   0.507   2.964   1.555  0.1941  0.3179  0.4049
  784SOL    HW1 2486   0.563   3.032   1.594  2.5523 -1.2536  0.0118
  784SOL    HW2 2487   0.480   2.910   1.629 -0.2750  0.7035  0.5195
  785SOL     OW 2488   2.039   1.072   1.080  0.1076  0.5412  0.5760
  785SOL    HW1 2489   2.101   0.999   1.067  0.3199  0.9881 -1.1797
  785SOL    HW2 2490   2.026   1.107   0.992 -3.2340  0.0146  0.7449
  786SOL     OW 2491   0.295   3.511   0.814  0.0527  0.3760 -0.1147
  786SOL    HW1 2492   0.254   3.497   0.899  1.1782 -1.3696  0.1987
  786SOL    HW2 2493   0.233   3.475   0.751  1.0900 -2.5180  0.3759
  787SOL     OW 2494   1.352   0.495   0.151 -0.3647 -0.0517 -0.3131
  787SOL    HW1 2495   1.284   0.476   0.086  1.2279 -1.0403 -1.7891
  787SOL    HW2 2496   1.434   0.467   0.109  0.6943 -1.4194  2.3919
  788SOL     OW 2497   2.191   1.187   2.600  0.1830  0.0391 -0.1605
  788SOL    HW1 2498   2.227   1.110   2.556 -0.8622 -0.6998  0.2292
  788SOL    HW2 2499   2.160   1.244   2.529  0.0408 -0.3740 -0.4313
  789SOL     OW 2500   3.462   2.908   3.387  0.5758 -0.0448 -0.1517
  789SOL    HW1 2501   3.548   2.875   3.411 -0.1659 -0.2082  2.6190
  789SOL    HW2 2502   3.474   3.003   3.378  1.9173 -0.3788 -4.5334
  790SOL     OW 2503   0.205   0.806   0.423 -0.2842 -0.2525  0.1610
  790SOL    HW1 2504   0.146   0.824   0.350 -0.8433 -1.2397  0.3464
  790SOL    HW2 2505   0.265   0.738   0.390  0.6390  0.5928  0.0395
  791SOL     OW 2506   0.273   1.123   3.032  0.1469 -0.3922  0.0571
  791SOL    HW1 2507   0.232   1.037   3.029 -1.6875  0.4572 -0.9822
  791SOL    HW2 2508   0.311   1.128   3.120  2.2084 -3.0314 -0.5527
  792SOL     OW 2509   3.546   3.345   0.962  0.3284  0.5681  0.0084
  792SOL    HW1 2510   3.625   3.356   1.015  0.6206  0.6186 -0.4378
  792SOL    HW2 2511   3.577   3.314   0.877  0.0726  2.4030 -0.8196
  793SOL     OW 2512   1.552   2.972   3.052 -0.2151 -0.4620  0.2321
  793SOL    HW1 2513   1.554   2.892   3.001 -2.1543  0.0274 -0.7145
  793SOL    HW2 2514   1.461   2.980   3.081 -0.2092  1.6553 -0.1592
  794SOL     OW 2515   3.211   2.784   1.897 -0.0351 -0.1448 -0.0619
  794SOL    HW1 2516   3.169   2.870   1.906  1.3931  0.6188 -0.2015
  794SOL    HW2 2517   3.140   2.724   1.877 -0.9716  1.1857 -0.9688
  795SOL     OW 2518   2.175   0.949   1.670  0.5121 -0.1391 -0.3428
  795SOL    HW1 2519   2.148   0.943   1.578  0.5934 -1.4935 -0.3008
  795SOL    HW2 2520   2.221   0.866   1.686 -1.1104 -0.7615  1.4374
  796SOL     OW 2521   0.362   2.775   3.468  0.6640  0.4334 -0.4430
  796SOL    HW1 2522   0.406   2.830   3.532  1.0469 -0.7243  0.3129
  796SOL    HW2 2523   0.281   2.748   3.511  0.4224  0.4969 -0.8530
  797SOL     OW 2524   3.527   1.375   1.119 -0.2793  0.0319 -0.6371
  797SOL    HW1 2525   3.434   1.364   1.099 -0.2639  0.7471 -1.1244
  797SOL    HW2 2526   3.528   1.399   1.212 -0.5749 -0.0326 -0.6157
  798SOL     OW 2527   0.095   1.482   0.391  0.1183  0.1664 -0.1224
  798SOL    HW1 2528   0.129   1.519   0.471  0.3785  0.9293 -0.5824
  798SOL    HW2 2529  -0.000   1.488   0.400  0.1469  0.2402  0.1239
  799SOL     OW 2530   0.401   1.074   3.289  0.5331 -0.3243  0.2013
  799SOL    HW1 2531   0.495   1.059   3.279  0.4853 -2.1321  1.8612
  799SOL    HW2 2532   0.363   0.986   3.286 -1.1981  0.4107 -0.9516
  800SOL     OW 2533   1.904   1.867   1.592 -0.2761  0.4121 -0.2308
  800SOL    HW1 2534   1.878   1.958   1.576 -1.0229  0.0306 -1.2795
  800SOL    HW2 2535   1.972   1.873   1.659 -1.9892  1.5848  1.5289
  801SOL     OW 2536   3.214   3.228   0.840  0.0087 -0.1077  0.0550
  801SOL    HW1 2537   3.191   3.172   0.915  0.5239  0.3377  0.5609
  801SOL    HW2 2538   3.294   3.190   0.805 -0.7635 -0.8933 -0.8930
  802SOL     OW 2539   2.650   2.490   1.588  0.1698 -0.1568  0.2286
  802SOL    HW1 2540   2.592   2.414   1.595 -0.9186  0.6234  0.0247
  802SOL    HW2 2541   2.621   2.549   1.658  2.7526 -1.0006  2.1483
  803SOL     OW 2542   3.155   0.969   2.188 -0.7042  0.0394  0.1334
  803SOL    HW1 2543   3.131   0.880   2.162 -1.8116 -0.1055  1.5427
  803SOL    HW2 2544   3.195   0.958   2.274 -1.5839  0.9709  0.6806
  804SOL     OW 2545   3.623   1.560   0.100  0.1289  0.4946 -0.0723
  804SOL    HW1 2546   3.587   1.491   0.156 -0.5144 -2.0977 -3.3747
  804SOL    HW2 2547   3.572   1.638   0.123 -1.9753 -1.1044  1.0062
  805SOL     OW 2548   2.792   0.111   3.250  0.2231 -0.4845 -0.2221
  805SOL    HW1 2549   2.841   0.030   3.259 -1.1373 -1.2684  0.2829
  805SOL    HW2 2550   2.727   0.093   3.182  0.6693  0.5900 -0.9865
  806SOL     OW 2551   2.761   0.766   3.251 -0.3768  0.1770  0.6679
  806SOL    HW1 2552   2.735   0.823   3.178 -1.0071 -2.4169 -1.3018
  806SOL    HW2 2553   2.855   0.777   3.258 -0.4764  1.3636  0.2671
  807SOL     OW 2554   0.904   3.042   1.308  0.0272  0.2379 -0.7780
  807SOL    HW1 2555   0.894   2.951   1.334  0.6858  0.0909 -1.0133
  807SOL    HW2 2556   0.890   3.092   1.389  0.2365 -0.1106 -0.5228
  808SOL     OW 2557   0.254   3.527   3.088 -0.0528  0.7471 -0.4434
  808SOL    HW1 2558   0.258   3.459   3.021 -0.0138 -1.8487  2.0132
  808SOL    HW2 2559   0.344   3.559   3.095  0.0972  0.4811 -1.0740
  809SOL     OW 2560   1.732   2.266   3.495  0.3326 -0.5197  0.2085
  809SOL    HW1 2561   1.755   2.314   3.416  1.4161  1.0647  1.4143
  809SOL    HW2 2562   1.790   2.191   3.495 -0.7071 -1.3715 -1.2172
  810SOL     OW 2563   2.811   3.705   0.125  0.2968  0.4044 -0.4348
  810SOL    HW1 2564   2.756   3.778   0.097 -0.0680  0.1945 -0.2752
  810SOL    HW2 2565   2.749   3.636   0.148  0.6044  0.4272  0.5016
  811SOL     OW 2566   2.004   3.210   0.982 -0.8076 -0.2532 -0.8926
  811SOL    HW1 2567   1.924   3.199   1.034 -1.4021 -0.5974 -1.8609
  811SOL    HW2 2568   2.075   3.191   1.044 -1.2892  2.8480  0.7746
  812SOL     OW 2569   2.547   2.319   0.022 -0.0595  0.6630 -0.5784
  812SOL    HW1 2570   2.630   2.333   0.067 -0.3426  0.8198 -0.0946
  812SOL    HW2 2571   2.568   2.327  -0.071  0.3895  1.1315 -0.4408
  813SOL     OW 2572   1.254   1.703   3.725  0.5187  0.0223 -0.2518
  813SOL    HW1 2573   1.185   1.642   3.698 -0.3864  0.9372 -0.0358
  813SOL    HW2 2574   1.333   1.649   3.725 -0.0313 -0.8406 -1.3487
  814SOL     OW 2575   2.772   0.521   0.273 -0.0126  0.5021 -0.0404
  814SOL    HW1 2576   2.803   0.611   0.260  0.4757  0.2480 -0.6731
  814SOL    HW2 2577   2.814   0.493   0.353  0.6265  0.4994 -0.3715
  815SOL     OW 2578   1.344   1.015   1.162  0.3061  0.2849  0.6370
  815SOL    HW1 2579   1.430   0.974   1.154  0.5392  0.7305  0.8340
  815SOL    HW2 2580   1.287   0.947   1.198  0.5309 -0.0700  0.3202
  816SOL     OW 2581   3.283   1.197   0.059 -0.1736  0.6373  0.4664
  816SOL    HW1 2582   3.376   1.193   0.077 -0.4487 -0.6530  1.8096
  816SOL    HW2 2583   3.272   1.273   0.001  1.9573 -0.4202 -1.4693
  817SOL     OW 2584   0.661   1.943   1.556  0.0436 -0.6078  0.4201
  817SOL    HW1 2585   0.736   1.927   1.498  0.7462 -0.7850  1.3657
  817SOL    HW2 2586   0.678   2.031   1.592  0.5984 -1.2607  1.8065
  818SOL     OW 2587   3.392   0.880   0.397  0.2566  0.4801 -0.5116
  818SOL    HW1 2588   3.382   0.916   0.485 -1.4930  1.2877 -0.9801
  818SOL    HW2 2589   3.476   0.914   0.366  1.0899 -0.1528  0.9705
  819SOL     OW 2590   2.766   1.380   3.306 -0.1277 -0.4980 -0.1897
  819SOL    HW1 2591   2.781   1.286   3.311  1.3552 -0.2309  1.9402
  819SOL    HW2 2592   2.847   1.416   3.270  0.8077  0.1861  2.3645
  820SOL     OW 2593   1.328   1.160   1.381 -0.1797  0.1713 -0.0180
  820SOL    HW1 2594   1.343   1.236   1.325 -2.6327  0.3618 -0.5104
  820SOL    HW2 2595   1.338   1.085   1.322 -0.3751  0.2470 -0.1478
  821SOL     OW 2596   3.002   2.019   3.399 -0.3121 -0.1729 -0.5146
  821SOL    HW1 2597   3.098   2.015   3.399 -0.1773  1.5224 -2.4341
  821SOL    HW2 2598   2.977   1.985   3.485  1.9767 -0.8408 -0.0274
  822SOL     OW 2599   0.838   2.056   3.192 -0.3132 -0.1244 -0.0432
  822SOL    HW1 2600   0.774   2.117   3.229  0.7934  0.8820  0.2929
  822SOL    HW2 2601   0.805   2.037   3.104 -2.1437 -1.2938  0.8184
  823SOL     OW 2602   3.217   1.162   1.761 -0.0638 -0.0803  0.0345
  823SOL    HW1 2603   3.247   1.105   1.832 -3.1186 -2.3616 -0.2386
  823SOL    HW2 2604   3.295   1.180   1.709  1.9341  0.1372  2.8713
  824SOL     OW 2605   2.124   2.280   0.055  0.2987  0.0322 -0.5880
  824SOL    HW1 2606   2.057   2.266  -0.012  0.5433  1.3026 -1.1263
  824SOL    HW2 2607   2.110   2.371   0.084  0.7206 -0.2369  0.4937
  825SOL     OW 2608   1.109   0.864   3.693 -0.1244  0.3524 -0.3029
  825SOL    HW1 2609   1.118   0.808   3.770  1.4703  0.7369 -0.1605
  825SOL    HW2 2610   1.015   0.869   3.677 -0.5732  1.0690  2.2146
  826SOL     OW 2611   0.068   2.210   1.327  0.0019 -0.0431  0.7474
  826SOL    HW1 2612   0.015   2.165   1.261  0.1265 -1.7289  1.7478
  826SOL    HW2 2613   0.003   2.242   1.391  0.0403 -0.3764  0.9548
  827SOL     OW 2614   3.501   2.513   2.039  0.0044 -0.0722 -0.1513
  827SOL    HW1 2615   3.463   2.594   2.074  0.0915 -0.5837  1.1979
  827SOL    HW2 2616   3.435   2.482   1.977  0.9710  2.1814 -2.5071
  828SOL     OW 2617   0.689   1.838   0.319  0.4875  0.2167  0.1014
  828SOL    HW1 2618   0.658   1.829   0.229  2.0187 -0.3231 -0.4040
  828SOL    HW2 2619   0.781   1.809   0.316  0.8115  0.9612  1.6711
  829SOL     OW 2620   1.057   0.555   2.710  0.3404 -0.0189 -0.3426
  829SOL    HW1 2621   1.130   0.618   2.707  1.6847 -1.4117  0.8786
  829SOL    HW2 2622   1.078   0.499   2.785 -1.1575 -1.4856 -0.9608
  830SOL     OW 2623   2.886   1.169   1.433 -0.0098 -0.1516  0.7556
  830SOL    HW1 2624   2.860   1.209   1.516  0.0798  0.7039  0.3790
  830SOL    HW2 2625   2.888   1.075   1.452  2.0856  0.1196  2.3490
  831SOL     OW 2626   0.296   3.067   0.979  0.4163 -0.1134  0.4429
  831SOL    HW1 2627   0.374   3.113   1.010  0.2552 -0.2086  1.0089
  831SOL    HW2 2628   0.249   3.045   1.059 -1.0569  1.4336  0.0674
  832SOL     OW 2629   2.980   1.774   1.700 -0.6024  0.7837  0.0760
  832SOL    HW1 2630   2.987   1.800   1.792 -1.3918  1.7886 -0.1265
  832SOL    HW2 2631   2.930   1.845   1.659  1.6009  1.5038 -1.5918
  833SOL     OW 2632   1.875   0.924   0.773  0.4221 -0.1460 -0.0484
  833SOL    HW1 2633   1.953   0.935   0.828 -0.3521  0.1929  1.0363
  833SOL    HW2 2634   1.802   0.938   0.834 -0.4845 -0.7562 -0.9761
  834SOL     OW 2635   1.281   2.093   1.092 -0.4576 -0.0437  0.5285
  834SOL    HW1 2636   1.369   2.059   1.108  0.0019  1.1374  0.6296
  834SOL    HW2 2637   1.286   2.130   1.004  0.1026  2.7938  1.6411
  835SOL     OW 2638   1.723   3.698   0.356  0.3050 -0.8740 -0.2711
  835SOL    HW1 2639   1.672   3.618   0.365 -0.4588 -0.4240 -0.5314
  835SOL    HW2 2640   1.658   3.769   0.361  1.1333 -0.1819  1.6901
  836SOL     OW 2641   2.248   1.414   1.442  0.4098 -0.3834 -0.5108
  836SOL    HW1 2642   2.325   1.357   1.451  1.4948  1.0830 -0.0218
  836SOL    HW2 2643   2.247   1.438   1.349  1.8233  1.2005 -0.1806
  837SOL     OW 2644   3.127   1.610   1.490 -0.6921 -0.0365  0.0066
  837SOL    HW1 2645   3.113   1.570   1.576  0.8828  1.1483  0.8605
  837SOL    HW2 2646   3.096   1.544   1.428  0.0922 -1.8130  1.4094
  838SOL     OW 2647   0.387   1.913   2.581  0.4595 -0.0318 -0.0531
  838SOL    HW1 2648   0.467   1.917   2.528  0.5126 -1.3075 -0.1248
  838SOL    HW2 2649   0.417   1.903   2.671  0.4205 -1.3517 -0.1612
  839SOL     OW 2650   2.649   1.960   1.153  0.5240  0.3488 -0.7673
  839SOL    HW1 2651   2.567   1.940   1.199  0.9495 -0.7033 -0.4408
  839SOL    HW2 2652   2.681   2.039   1.197  1.9311 -1.6798  2.2637
  840SOL     OW 2653   0.669   3.325   0.886  0.4761 -0.1836  0.5489
  840SOL    HW1 2654   0.630   3.405   0.921  1.3580  0.0501  1.0408
  840SOL    HW2 2655   0.760   3.328   0.917  1.5612  0.4157 -2.3735
  841SOL     OW 2656   0.241   0.903   3.609 -0.0254  0.1916 -0.2825
  841SOL    HW1 2657   0.304   0.831   3.610  1.0735  1.1353  0.2404
  841SOL    HW2 2658   0.156   0.860   3.594  0.3613 -1.3889  1.7062
  842SOL     OW 2659   0.331   0.690   0.669  0.5317  0.4420  0.2983
  842SOL    HW1 2660   0.401   0.644   0.622  0.5412  0.2152  0.5302
  842SOL    HW2 2661   0.255   0.682   0.611  0.7391  0.8376 -0.0312
  843SOL     OW 2662   0.737   2.266   2.730 -0.1523  0.3941 -0.0885
  843SOL    HW1 2663   0.798   2.327   2.772 -0.8783 -0.3030  2.1238
  843SOL    HW2 2664   0.662   2.319   2.706  0.3182  0.8245 -0.6519
  844SOL     OW 2665   2.096   2.756   3.176 -0.4396  0.7226  0.1006
  844SOL    HW1 2666   2.107   2.791   3.087  0.8290 -1.1217 -0.5324
  844SOL    HW2 2667   2.158   2.684   3.181 -0.1408  1.0574  2.6857
  845SOL     OW 2668   0.788   2.175   0.758 -0.6627 -0.4061  0.1292
  845SOL    HW1 2669   0.831   2.202   0.839  0.5658  2.3931 -1.2913
  845SOL    HW2 2670   0.859   2.139   0.704 -1.0642 -0.3608 -0.4348
  846SOL     OW 2671   2.106   0.290   3.404  0.0869  0.2374  0.9527
  846SOL    HW1 2672   2.190   0.334   3.410 -0.5803  1.8335 -0.6626
  846SOL    HW2 2673   2.123   0.202   3.438  1.9194  1.1047  2.4553
  847SOL     OW 2674   3.346   3.674   3.663  0.1840 -0.6964  0.3459
  847SOL    HW1 2675   3.394   3.753   3.689  2.8455 -2.1222  0.1977
  847SOL    HW2 2676   3.258   3.687   3.697  0.7377  1.9901  0.9839
  848SOL     OW 2677   1.726   1.194   3.454  0.7398  0.3997 -0.0400
  848SOL    HW1 2678   1.795   1.191   3.388 -0.4441  1.1159 -1.3590
  848SOL    HW2 2679   1.751   1.127   3.518  2.5734  0.5682 -0.5300
  849SOL     OW 2680   2.185   1.252   2.866 -0.2896  0.2826  0.2056
  849SOL    HW1 2681   2.185   1.207   2.781  1.8187  0.6525 -0.0393
  849SOL    HW2 2682   2.254   1.209   2.916  0.5588  2.0293  0.6245
  850SOL     OW 2683   3.634   3.441   1.564  0.1201 -0.2071 -0.1801
  850SOL    HW1 2684   3.646   3.367   1.623 -1.6405 -0.3758  0.0299
  850SOL    HW2 2685   3.554   3.420   1.516 -0.2318  1.3994 -0.3543
  851SOL     OW 2686   2.110   3.250   1.344  0.5973  0.1544  0.4350
  851SOL    HW1 2687   2.030   3.232   1.296  1.6369 -1.5328 -0.7604
  851SOL    HW2 2688   2.109   3.188   1.417  0.8043  0.1687  0.4505
  852SOL     OW 2689   1.248   1.015   0.912 -0.6467 -0.4086  0.3891
  852SOL    HW1 2690   1.319   0.952   0.916 -0.8850 -0.7092 -0.0663
  852SOL    HW2 2691   1.275   1.086   0.971  0.2727 -0.2691 -0.1820
  853SOL     OW 2692   0.113   2.357   2.356 -0.1079 -0.0513 -0.0939
  853SOL    HW1 2693   0.184   2.377   2.417 -0.6547 -2.5717  1.5176
  853SOL    HW2 2694   0.036   2.400   2.393 -0.0588  0.0005 -0.0519
  854SOL     OW 2695   1.432   0.303   3.341 -0.5181 -0.4226  0.1467
  854SOL    HW1 2696   1.524   0.289   3.322 -0.2318 -0.6225  1.5577
  854SOL    HW2 2697   1.431   0.370   3.409 -1.0461 -3.6879  3.7002
  855SOL     OW 2698   2.435   3.544   2.291  0.2225  0.0937  0.2865
  855SOL    HW1 2699   2.423   3.537   2.196  0.8276  1.2454  0.1065
  855SOL    HW2 2700   2.422   3.455   2.323  0.6390 -0.4365 -0.9510
  856SOL     OW 2701   0.784   0.270   1.195  0.5141  0.0379 -0.4961
  856SOL    HW1 2702   0.872   0.244   1.168  0.8609  0.2011  0.4536
  856SOL    HW2 2703   0.756   0.202   1.257  1.7542  2.1752  2.6754
  857SOL     OW 2704   1.732   0.995   3.247 -0.0002 -0.3910 -0.5728
  857SOL    HW1 2705   1.645   1.019   3.277  0.3713  0.8177 -0.4132
  857SOL    HW2 2706   1.717   0.948   3.164 -0.7703  0.1889 -0.7675
  858SOL     OW 2707   2.521   2.804   3.018  0.0277 -0.8413 -0.8292
  858SOL    HW1 2708   2.543   2.735   3.080 -0.2063  0.5291  0.8691
  858SOL    HW2 2709   2.603   2.852   3.004 -0.4200  0.4041  0.5066
  859SOL     OW 2710   2.000   2.320   0.358 -0.4252 -0.1234 -0.8978
  859SOL    HW1 2711   2.015   2.412   0.383 -1.4465 -0.0616 -0.4786
  859SOL    HW2 2712   1.971   2.325   0.266 -1.0065  0.0294 -0.7121
  860SOL     OW 2713   1.570   2.182   3.261 -0.6820  0.5320 -0.1832
  860SOL    HW1 2714   1.637   2.180   3.330 -1.6356  1.5649  0.8203
  860SOL    HW2 2715   1.609   2.232   3.190 -0.6086  1.6786  0.6491
  861SOL     OW 2716   2.205   1.777   3.374 -0.0483  0.7954  0.4139
  861SOL    HW1 2717   2.228   1.867   3.398 -0.5311  1.2981 -0.8734
  861SOL    HW2 2718   2.135   1.787   3.309 -0.3297 -0.5292  0.4845
  862SOL     OW 2719   1.406   1.407   1.323  0.2958 -0.6346 -0.2006
  862SOL    HW1 2720   1.332   1.466   1.312 -1.2969 -2.0192  2.3135
  862SOL    HW2 2721   1.482   1.465   1.332 -1.4129  1.3148  3.8980
  863SOL     OW 2722   3.735   3.446   2.278  0.4547  0.6970 -0.1971
  863SOL    HW1 2723   3.731   3.540   2.262  0.6278  0.8632  0.7020
  863SOL    HW2 2724   3.658   3.428   2.333 -1.1661 -0.1703 -2.5714
  864SOL     OW 2725   2.137   1.950   1.207 -0.0246 -0.3078  0.2077
  864SOL    HW1 2726   2.128   1.885   1.276  3.6059 -0.4134  0.7528
  864SOL    HW2 2727   2.165   2.030   1.252  0.0120  0.3318 -0.9070
  865SOL     OW 2728   1.760   1.043   0.338 -0.5154 -0.0411 -0.0903
  865SOL    HW1 2729   1.829   1.050   0.272 -1.2718 -2.0591 -1.2025
  865SOL    HW2 2730   1.683   1.082   0.296 -0.6158  0.0972  0.2214
  866SOL     OW 2731   0.803   1.323   0.267  0.2910 -0.1004 -0.3703
  866SOL    HW1 2732   0.885   1.327   0.316  0.2907  0.1825 -0.3938
  866SOL    HW2 2733   0.777   1.414   0.255 -0.3884 -0.2092  0.2356
  867SOL     OW 2734   1.161   0.421   0.882 -0.4102 -0.1615  0.1346
  867SOL    HW1 2735   1.107   0.352   0.921  1.5348 -1.8470  0.0508
  867SOL    HW2 2736   1.223   0.445   0.951 -0.1791  0.4948 -0.2949
  868SOL     OW 2737   1.320   3.089   0.351  0.1258 -0.4943  0.3462
  868SOL    HW1 2738   1.357   3.023   0.293 -0.3817 -0.8871  0.4608
  868SOL    HW2 2739   1.251   3.131   0.299  0.3636 -0.1351  0.3152
  869SOL     OW 2740   2.987   2.093   2.431 -0.2111 -0.3324 -0.0810
  869SOL    HW1 2741   2.921   2.048   2.484 -4.3409  2.3686 -2.4111
  869SOL    HW2 2742   2.994   2.180   2.469 -1.1674  0.7355 -2.1701
  870SOL     OW 2743   2.207   0.160   0.237  0.1852 -0.6132  0.2428
  870SOL    HW1 2744   2.203   0.147   0.332  1.5645  0.7174  0.5210
  870SOL    HW2 2745   2.135   0.221   0.218  0.3535 -0.3202  0.5437
  871SOL     OW 2746   2.277   0.536   2.688  0.2645  0.2278 -0.0798
  871SOL    HW1 2747   2.334   0.533   2.765  1.4108 -2.7693 -0.8831
  871SOL    HW2 2748   2.201   0.482   2.711 -1.0196  2.0200  0.0469
  872SOL     OW 2749   0.681   2.532   0.707  0.2313  0.0848 -0.0132
  872SOL    HW1 2750   0.595   2.570   0.726 -0.1817  0.1542 -1.8426
  872SOL    HW2 2751   0.714   2.584   0.634  2.2026  0.5532  1.1600
  873SOL     OW 2752   3.184   0.438   2.572  0.3494 -0.9516  0.0809
  873SOL    HW1 2753   3.181   0.518   2.625 -0.0724 -0.5589 -0.5278
  873SOL    HW2 2754   3.123   0.378   2.615  0.1291 -0.6898  0.1356
  874SOL     OW 2755   1.328   0.699   2.750  0.0738  0.6994 -0.6319
  874SOL    HW1 2756   1.299   0.771   2.807 -1.1402  0.3101 -0.7288
  874SOL    HW2 2757   1.417   0.681   2.778 -0.1289  1.2318  0.4192
  875SOL     OW 2758   1.077   2.927   3.444 -0.2916 -0.9071  0.1425
  875SOL    HW1 2759   1.095   2.861   3.377 -0.6764 -0.4291 -0.4490
  875SOL    HW2 2760   0.981   2.934   3.445 -0.2388  1.4293 -1.6455
  876SOL     OW 2761   1.038   3.088   3.134  0.9829 -0.8715 -0.4519
  876SOL    HW1 2762   1.011   3.160   3.191  2.0145 -0.6745 -0.1908
  876SOL    HW2 2763   0.977   3.017   3.155 -0.0445 -0.0929 -0.7140
  877SOL     OW 2764   1.444   0.795   0.912  0.1632 -0.9302 -0.0226
  877SOL    HW1 2765   1.396   0.761   0.836  1.5802 -1.3249 -0.7835
  877SOL    HW2 2766   1.412   0.743   0.986 -1.0647 -0.7084 -0.3732
  878SOL     OW 2767   2.336   2.228   0.516 -0.4295 -0.3110 -0.1636
  878SOL    HW1 2768   2.310   2.155   0.461  0.5678 -1.7416  1.1671
  878SOL    HW2 2769   2.362   2.297   0.455 -2.0568 -0.7752 -1.4493
  879SOL     OW 2770   1.328   3.168   1.488  0.0389 -0.4765 -0.0974
  879SOL    HW1 2771   1.319   3.162   1.583 -1.2191 -0.6220 -0.2056
  879SOL    HW2 2772   1.421   3.153   1.472  0.2257 -0.7138  1.0881
  880SOL     OW 2773   1.424   2.407   2.186  0.3965 -0.1316 -0.1507
  880SOL    HW1 2774   1.329   2.394   2.181  0.3159 -1.1273  2.5088
  880SOL    HW2 2775   1.461   2.337   2.132 -0.3753 -1.2807  0.7583
  881SOL     OW 2776   1.878   2.921   2.303  0.6838  0.4885 -0.2529
  881SOL    HW1 2777   1.908   2.990   2.243  0.6874  1.0319  0.3568
  881SOL    HW2 2778   1.914   2.840   2.266  1.1263  0.8741 -0.6943
  882SOL     OW 2779   0.422   3.503   3.460  0.4559 -0.4138 -0.5027
  882SOL    HW1 2780   0.349   3.503   3.397  0.9182 -1.9001 -1.0715
  882SOL    HW2 2781   0.397   3.438   3.525 -1.4233  3.0582  2.6903
  883SOL     OW 2782   1.273   2.469   3.538 -0.0342 -0.1591  0.5681
  883SOL    HW1 2783   1.241   2.441   3.452 -2.5930  1.8139  0.7373
  883SOL    HW2 2784   1.220   2.419   3.600  2.3317 -2.1481  1.1373
  884SOL     OW 2785   1.703   1.930   3.262  0.3705  0.2042 -0.4760
  884SOL    HW1 2786   1.631   1.921   3.325  1.0501  0.9540  0.4263
  884SOL    HW2 2787   1.670   1.886   3.183 -0.2067 -1.4410  0.6081
  885SOL     OW 2788   0.186   2.866   0.821  0.2027  0.3534  0.1097
  885SOL    HW1 2789   0.173   2.781   0.862 -0.1116  0.2841 -0.1292
  885SOL    HW2 2790   0.265   2.901   0.862 -0.6762  0.7509  1.5756
  886SOL     OW 2791   1.502   1.628   2.592 -0.1882  0.3649 -0.1147
  886SOL    HW1 2792   1.532   1.655   2.679  2.6518 -2.3568 -0.0884
  886SOL    HW2 2793   1.575   1.649   2.534  0.1488 -2.5648 -0.8733
  887SOL     OW 2794   1.479   0.400   1.416 -0.0493  0.0058 -0.1421
  887SOL    HW1 2795   1.390   0.424   1.391  0.3447  0.4754 -1.1293
  887SOL    HW2 2796   1.506   0.471   1.474 -0.7801 -0.8295  1.2946
  888SOL     OW 2797   3.317   1.887   3.117  1.2342 -0.5144 -0.7429
  888SOL    HW1 2798   3.248   1.952   3.135 -0.7866 -2.5435 -0.7216
  888SOL    HW2 2799   3.397   1.929   3.148  0.4144  2.7913 -2.5546
  889SOL     OW 2800   0.814   3.223   2.250 -0.0203  0.3244 -0.7152
  889SOL    HW1 2801   0.883   3.260   2.305 -0.5651  0.2805  0.0099
  889SOL    HW2 2802   0.838   3.131   2.240 -0.5019  0.0668  0.3884
  890SOL     OW 2803   1.094   0.486   0.026  0.9262  0.5133 -0.4675
  890SOL    HW1 2804   1.041   0.563   0.050 -2.5031 -1.1434 -2.0311
  890SOL    HW2 2805   1.070   0.420   0.090  0.7063 -0.4053 -1.4674
  891SOL     OW 2806   0.069   1.559   1.782 -0.2851 -0.2643 -0.0073
  891SOL    HW1 2807  -0.005   1.618   1.771 -0.2389 -0.4349 -1.4330
  891SOL    HW2 2808   0.069   1.506   1.702  1.0038 -0.6759  0.2444
  892SOL     OW 2809   0.220   2.120   3.638 -0.2011 -0.4284 -0.4246
  892SOL    HW1 2810   0.289   2.115   3.705  0.4692  0.4850 -1.0114
  892SOL    HW2 2811   0.173   2.200   3.659 -2.4752 -2.0585  1.2038
  893SOL     OW 2812   1.398   1.064   3.080 -0.1152 -0.4315  0.6748
  893SOL    HW1 2813   1.442   1.121   3.016  1.4101 -1.1943  1.0037
  893SOL    HW2 2814   1.463   0.997   3.101 -1.0107 -0.8782  2.1503
  894SOL     OW 2815   3.020   1.430   1.318  0.3028  0.0470 -0.5894
  894SOL    HW1 2816   2.968   1.369   1.370  2.6699 -0.3701  1.4845
  894SOL    HW2 2817   3.040   1.382   1.238 -1.9783  0.0376 -1.2037
  895SOL     OW 2818   1.428   2.616   1.861 -0.3083 -0.1026  0.8468
  895SOL    HW1 2819   1.418   2.531   1.904 -3.3799 -1.7501 -2.5805
  895SOL    HW2 2820   1.356   2.669   1.897 -0.3945 -0.0632  0.6129
  896SOL     OW 2821   0.648   0.847   0.408 -0.4162 -0.5637  0.3272
  896SOL    HW1 2822   0.667   0.799   0.328  0.3223 -0.8353  0.6554
  896SOL    HW2 2823   0.602   0.926   0.379 -2.9458 -2.1052 -0.1187
  897SOL     OW 2824   2.680   2.323   0.635 -0.1239 -0.1191  0.4245
  897SOL    HW1 2825   2.764   2.277   0.634  0.3980  0.8283 -0.3654
  897SOL    HW2 2826   2.663   2.345   0.544 -1.6600 -1.0107  0.4468
  898SOL     OW 2827   1.612   3.245   1.790 -0.0009  0.0426  0.0775
  898SOL    HW1 2828   1.553   3.288   1.852  1.1541  0.2477  1.0694
  898SOL    HW2 2829   1.663   3.316   1.752  1.3436 -0.3396  1.1077
  899SOL     OW 2830   2.851   3.150   0.845 -0.2640 -0.5426 -0.3133
  899SOL    HW1 2831   2.792   3.083   0.879  0.0258 -0.0812  1.1850
  899SOL    HW2 2832   2.883   3.195   0.923 -1.0302  1.8414 -1.2896
  900SOL     OW 2833   2.255   0.667   1.666  0.3999  0.3883 -0.7750
  900SOL    HW1 2834   2.266   0.576   1.696  0.2846 -0.0581 -2.0264
  900SOL    HW2 2835   2.161   0.683   1.673  0.4118  0.3831 -0.6123
  901SOL     OW 2836   0.954   3.143   1.903 -0.2199 -0.4822 -0.1260
  901SOL    HW1 2837   0.875   3.190   1.876  1.0796  2.0998  0.2006
  901SOL    HW2 2838   0.968   3.078   1.834 -0.7496  1.3382 -2.0806
  902SOL     OW 2839   2.128   3.410   1.940  0.1751 -0.2058 -1.1579
  902SOL    HW1 2840   2.094   3.500   1.944 -1.0887 -0.6852 -0.9481
  902SOL    HW2 2841   2.108   3.382   1.850  0.1726 -0.4313 -1.0854
  903SOL     OW 2842   2.809   2.159   0.958 -0.4340  0.1978  0.0314
  903SOL    HW1 2843   2.842   2.159   1.048  0.1764  0.3741 -0.1845
  903SOL    HW2 2844   2.807   2.067   0.933 -0.4490  0.1603  0.1704
  904SOL     OW 2845   2.346   1.195   3.100 -0.5161  0.1184 -0.6059
  904SOL    HW1 2846   2.354   1.290   3.110  1.7639  0.0447 -1.1642
  904SOL    HW2 2847   2.277   1.169   3.162 -0.7195  2.0329  0.0135
  905SOL     OW 2848   2.644   2.995   2.418  0.0242  0.8503  0.3517
  905SOL    HW1 2849   2.671   3.079   2.381 -0.3931  0.3394 -1.1598
  905SOL    HW2 2850   2.564   2.973   2.372  0.2791 -0.5131  0.5291
  906SOL     OW 2851   0.685   1.681   1.377 -0.2396  0.1217 -0.0859
  906SOL    HW1 2852   0.611   1.701   1.435 -0.9570  1.4391 -1.3815
  906SOL    HW2 2853   0.660   1.717   1.292  0.5176 -2.2991 -1.4185
  907SOL     OW 2854   2.975   2.551   1.012 -0.1054 -0.3848  0.7871
  907SOL    HW1 2855   3.010   2.482   1.069  0.4728 -0.3337  0.5072
  907SOL    HW2 2856   2.959   2.624   1.071 -0.9369 -0.8260  1.1253
  908SOL     OW 2857   2.667   2.840   1.859 -0.2840 -0.5434  0.3715
  908SOL    HW1 2858   2.694   2.894   1.785  1.1175 -0.9568  0.5565
  908SOL    HW2 2859   2.599   2.892   1.903 -1.4474 -0.4820 -1.4149
  909SOL     OW 2860   1.126   0.765   1.251  0.4043 -0.0464  0.3255
  909SOL    HW1 2861   1.055   0.720   1.206  2.0493  0.9352 -3.6246
  909SOL    HW2 2862   1.095   0.774   1.341 -3.2245 -2.0867 -0.5244
  910SOL     OW 2863   0.362   0.056   3.436  0.1257  0.1726  0.2468
  910SOL    HW1 2864   0.292   0.041   3.500  0.5698  1.1393  0.9937
  910SOL    HW2 2865   0.414  -0.024   3.438 -1.9028 -1.3327 -1.6280
  911SOL     OW 2866   3.074   1.564   0.118 -0.0186 -0.6123 -0.1149
  911SOL    HW1 2867   3.014   1.491   0.135  0.3436 -0.5230  1.6959
  911SOL    HW2 2868   3.093   1.600   0.204  0.7758  0.8746 -0.8762
  912SOL     OW 2869   1.309   0.618   1.432 -0.3660  0.5653 -0.1016
  912SOL    HW1 2870   1.333   0.705   1.402  0.0427 -0.7213 -4.2551
  912SOL    HW2 2871   1.214   0.613   1.420 -0.0443 -0.4439 -3.3483
  913SOL     OW 2872   2.128   3.097   1.863  0.4777 -0.2987  0.0578
  913SOL    HW1 2873   2.070   3.167   1.891 -0.1384 -0.3881 -0.9423
  913SOL    HW2 2874   2.069   3.028   1.833  1.0949 -0.6739 -0.3137
  914SOL     OW 2875   3.336   0.698   0.665 -0.8507  0.0293 -0.0711
  914SOL    HW1 2876   3.380   0.613   0.671 -1.3278 -0.2575 -0.5600
  914SOL    HW2 2877   3.244   0.679   0.683 -0.9424  0.4626 -0.0746
  915SOL     OW 2878   2.036   2.365   3.042 -0.1206  0.1489  0.0754
  915SOL    HW1 2879   1.979   2.302   2.997 -0.9020  0.5360  0.5066
  915SOL    HW2 2880   2.012   2.450   3.005  1.8426  0.1002 -1.4617
  916SOL     OW 2881   1.417   0.587   1.773  0.0045  0.2154 -0.3894
  916SOL    HW1 2882   1.497   0.550   1.735 -1.7061 -2.5702 -1.6411
  916SOL    HW2 2883   1.369   0.622   1.697 -1.1763 -0.7473 -0.1182
  917SOL     OW 2884   0.534   1.342   0.865  0.3087 -0.5015  0.0078
  917SOL    HW1 2885   0.440   1.328   0.855  0.6017 -1.3981 -1.8763
  917SOL    HW2 2886   0.549   1.429   0.827  0.1723 -0.0569  0.9357
  918SOL     OW 2887   2.447   3.338   2.664 -0.4410 -0.2036 -0.6031
  918SOL    HW1 2888   2.374   3.366   2.719 -0.7803  0.0065 -1.1471
  918SOL    HW2 2889   2.412   3.341   2.574  0.7882  1.7360 -1.0718
  919SOL     OW 2890   0.092   2.396   1.113  0.3932  0.4806 -0.3323
  919SOL    HW1 2891   0.143   2.344   1.176 -0.2103  1.4717  1.0317
  919SOL    HW2 2892   0.009   2.350   1.106 -0.3544  1.4956  1.3087
  920SOL     OW 2893   1.306   2.772   2.375 -0.0810  0.3381  0.7510
  920SOL    HW1 2894   1.278   2.722   2.451 -0.8769  0.2320  0.3905
  920SOL    HW2 2895   1.226   2.811   2.340  0.2971  0.5169  0.0612
  921SOL     OW 2896   3.207   2.838   3.446  0.9066  0.0357 -0.2000
  921SOL    HW1 2897   3.293   2.856   3.409  1.5751  1.6697  1.9850
  921SOL    HW2 2898   3.215   2.751   3.485  0.3480 -1.4808 -3.1722
  922SOL     OW 2899   0.877   3.242   3.635  0.1440 -0.3635 -0.4194
  922SOL    HW1 2900   0.827   3.323   3.628  0.1964 -0.3583 -0.7283
  922SOL    HW2 2901   0.858   3.210   3.724  0.2444  0.0669 -0.2379
  923SOL     OW 2902   1.962   3.358   3.096 -0.1291 -0.4845  0.0705
  923SOL    HW1 2903   2.006   3.274   3.112 -1.5994 -1.2139  0.5445
  923SOL    HW2 2904   2.030   3.424   3.108  0.6311 -1.4950  1.7299
  924SOL     OW 2905   1.050   1.511   3.671 -0.0434  0.2152  0.1148
  924SOL    HW1 2906   0.979   1.576   3.662 -0.4664 -0.3178 -0.4999
  924SOL    HW2 2907   1.061   1.476   3.583 -0.7809 -1.5530  0.6846
  925SOL     OW 2908   3.331   2.175   0.580  0.2639 -0.1229  0.0380
  925SOL    HW1 2909   3.362   2.118   0.650  1.6202 -0.4148 -0.7639
  925SOL    HW2 2910   3.280   2.117   0.523  0.6214 -0.2719 -0.1327
  926SOL     OW 2911   0.202   2.410   0.414 -0.0520 -0.4823  0.0466
  926SOL    HW1 2912   0.219   2.504   0.420 -0.3714 -0.3994 -0.3374
  926SOL    HW2 2913   0.223   2.377   0.501  0.5480 -0.1377  0.0411
  927SOL     OW 2914   1.052   1.948   3.320  0.0571  0.0656 -0.2832
  927SOL    HW1 2915   1.118   1.916   3.259  0.9983  1.8355 -0.2598
  927SOL    HW2 2916   0.985   1.990   3.265  0.3310  0.6497 -0.1849
  928SOL     OW 2917   2.751   2.112   3.567  0.1547  0.2288 -0.0682
  928SOL    HW1 2918   2.810   2.171   3.521  1.2041 -0.8437 -0.1334
  928SOL    HW2 2919   2.794   2.094   3.650 -0.3417 -0.1454  0.1171
  929SOL     OW 2920   0.836   3.219   2.867  0.0182  0.1816 -0.6089
  929SOL    HW1 2921   0.751   3.262   2.876 -1.4466 -2.5944  0.0414
  929SOL    HW2 2922   0.893   3.265   2.928 -1.0218  2.0239 -0.9529
  930SOL     OW 2923   3.594   0.981   1.759 -0.4752 -0.2904  0.0544
  930SOL    HW1 2924   3.561   0.934   1.836  0.1174  1.9648  1.8075
  930SOL    HW2 2925   3.607   1.071   1.790  2.5070  0.0841 -1.8683
  931SOL     OW 2926   2.256   1.983   1.535 -0.4322 -0.0040  0.8558
  931SOL    HW1 2927   2.340   1.959   1.575 -0.5445  2.1966  2.6445
  931SOL    HW2 2928   2.193   1.923   1.575  0.0751 -0.7202  0.6049
  932SOL     OW 2929   2.458   2.316   1.701 -0.8012 -0.5540 -0.3657
  932SOL    HW1 2930   2.516   2.308   1.777 -1.4745 -0.3492  0.1843
  932SOL    HW2 2931   2.490   2.251   1.639  0.5150  0.1005 -0.4101
  933SOL     OW 2932   3.452   2.613   0.624 -0.0145  0.5242 -0.0260
  933SOL    HW1 2933   3.525   2.621   0.686 -0.8625 -1.2689  1.3008
  933SOL    HW2 2934   3.471   2.532   0.575 -1.7356 -0.7823  1.3255
  934SOL     OW 2935   3.695   0.227   2.367 -0.0183 -0.3035  0.1763
  934SOL    HW1 2936   3.650   0.289   2.309 -1.5531 -1.4484  0.0787
  934SOL    HW2 2937   3.734   0.282   2.435 -1.1909  0.7918  0.0017
  935SOL     OW 2938   0.923   1.438   0.765  0.1218  0.4793  0.2949
  935SOL    HW1 2939   0.866   1.471   0.835 -1.7632 -0.0390 -0.9319
  935SOL    HW2 2940   0.948   1.350   0.794  0.7427  0.8888  1.0627
  936SOL     OW 2941   0.792   0.951   1.763 -0.0813  0.2218 -0.2791
  936SOL    HW1 2942   0.809   0.857   1.768  3.1968  0.7325  0.9946
  936SOL    HW2 2943   0.877   0.990   1.740 -0.6480  3.0263  1.7626
  937SOL     OW 2944   1.282   0.643   1.074 -0.3618 -0.3614  0.2855
  937SOL    HW1 2945   1.224   0.686   1.137 -0.2230 -0.1366  0.2616
  937SOL    HW2 2946   1.280   0.551   1.099 -0.5654 -0.3225  0.4149
  938SOL     OW 2947   1.750   0.189   0.910 -0.8277  0.2107 -0.1733
  938SOL    HW1 2948   1.823   0.217   0.855 -2.1507  4.6142 -0.1215
  938SOL    HW2 2949   1.674   0.235   0.873 -2.7768 -0.8862  2.1984
  939SOL     OW 2950   2.119   0.049   3.510 -0.4095 -0.1822 -0.2930
  939SOL    HW1 2951   2.039   0.001   3.489 -1.0627  0.1821  1.2212
  939SOL    HW2 2952   2.118   0.055   3.606  0.2421  1.8747 -0.3857
  940SOL     OW 2953   3.689   0.528   1.146 -0.6085  0.1992 -0.1800
  940SOL    HW1 2954   3.743   0.605   1.165  1.3365 -1.0893 -0.1876
  940SOL    HW2 2955   3.644   0.549   1.064  2.2214  0.2401 -1.8546
  941SOL     OW 2956   3.064   3.330   1.366 -0.4314 -0.1421 -0.0230
  941SOL    HW1 2957   3.030   3.311   1.278 -1.8238 -3.3147  1.0534
  941SOL    HW2 2958   3.123   3.257   1.385 -1.1824 -0.2304  2.1641
  942SOL     OW 2959   0.827   0.388   2.750  0.4164 -0.0755 -0.4353
  942SOL    HW1 2960   0.865   0.469   2.717 -0.9463  0.1938 -1.4171
  942SOL    HW2 2961   0.876   0.319   2.706  0.6905  0.2316 -0.6184
  943SOL     OW 2962   3.051   1.003   1.026  0.2768  0.1707 -0.3957
  943SOL    HW1 2963   2.955   1.008   1.019  0.2951 -0.4020 -1.1427
  943SOL    HW2 2964   3.082   1.013   0.937  0.8256 -1.3095 -0.3957
  944SOL     OW 2965   2.853   0.305   1.816  0.3797  0.2912  1.1498
  944SOL    HW1 2966   2.833   0.391   1.854  1.9915 -0.0882  3.0572
  944SOL    HW2 2967   2.774   0.280   1.768  0.5246  3.6761 -1.2148
  945SOL     OW 2968   3.181   3.595   0.346 -0.2981  1.3024 -0.3502
  945SOL    HW1 2969   3.183   3.570   0.439 -0.9893 -0.5409 -0.7887
  945SOL    HW2 2970   3.141   3.682   0.346 -1.7557  0.6911  0.9937
  946SOL     OW 2971   3.471   1.583   2.918 -0.2295 -0.3955  0.1713
  946SOL    HW1 2972   3.565   1.603   2.913 -0.7633  2.1436 -2.5482
  946SOL    HW2 2973   3.431   1.664   2.949 -1.8389  0.3078 -3.3054
  947SOL     OW 2974   1.400   3.051   1.792 -0.0431  0.0808 -0.5488
  947SOL    HW1 2975   1.465   2.981   1.781  0.7178  0.9526 -1.8981
  947SOL    HW2 2976   1.452   3.130   1.808 -0.9280  0.1477  2.6209
  948SOL     OW 2977   3.057   1.401   2.041  0.0090 -0.1139  0.6518
  948SOL    HW1 2978   2.990   1.390   2.108  3.3166 -1.4756  4.1160
  948SOL    HW2 2979   3.092   1.313   2.027  0.6039  0.4140 -1.6746
  949SOL     OW 2980   2.630   2.455   3.434  0.3019  0.1993  0.0134
  949SOL    HW1 2981   2.671   2.519   3.493 -0.6572  1.2810 -0.4529
  949SOL    HW2 2982   2.703   2.402   3.402  0.6848 -1.6514  3.5139
  950SOL     OW 2983   0.911   1.689   1.727 -0.2882 -0.7223 -0.6044
  950SOL    HW1 2984   0.829   1.648   1.756  0.4497 -1.7799  0.0802
  950SOL    HW2 2985   0.929   1.647   1.643 -0.7665 -0.0213 -1.0641
  951SOL     OW 2986   2.588   2.093   2.620  0.2555 -0.4179 -0.2718
  951SOL    HW1 2987   2.585   2.035   2.544 -1.2664  0.9626 -1.3346
  951SOL    HW2 2988   2.681   2.113   2.631  0.5773 -1.1948 -1.3366
  952SOL     OW 2989   3.378   2.615   3.321 -0.5859  0.1643 -0.2602
  952SOL    HW1 2990   3.326   2.602   3.242 -1.2329  0.8474  0.0323
  952SOL    HW2 2991   3.424   2.698   3.306 -1.9973  1.1736  0.7206
  953SOL     OW 2992   0.461   2.793   0.942 -0.0557 -0.0667  0.0425
  953SOL    HW1 2993   0.477   2.782   0.848 -4.0499 -0.6775 -0.7662
  953SOL    HW2 2994   0.505   2.875   0.965  2.8429 -0.9775 -1.7643
  954SOL     OW 2995   3.492   0.759   1.935 -0.4325 -0.1276  0.4376
  954SOL    HW1 2996   3.577   0.796   1.957 -0.9348  1.5595 -0.3204
  954SOL    HW2 2997   3.510   0.666   1.922  1.2314  0.1359  0.5774
  955SOL     OW 2998   2.275   2.522   0.840 -0.0065  0.0898 -0.0945
  955SOL    HW1 2999   2.339   2.560   0.779 -1.2344 -0.1823 -1.6003
  955SOL    HW2 3000   2.205   2.489   0.784 -0.2452 -2.0184  1.3265
  956SOL     OW 3001   3.203   1.633   0.379  0.1983 -0.2928  0.2545
  956SOL    HW1 3002   3.225   1.700   0.445  0.2460 -0.4944  0.4438
  956SOL    HW2 3003   3.124   1.591   0.413  1.9333 -2.5313  1.7963
  957SOL     OW 3004   3.235   2.585   3.044 -0.4931  0.1952  0.3233
  957SOL    HW1 3005   3.159   2.638   3.019 -0.7577  1.0215  2.6397
  957SOL    HW2 3006   3.225   2.505   2.993 -1.7621  1.1335 -0.9918
  958SOL     OW 3007   2.985   1.672   1.154 -0.6413 -0.1346  0.3109
  958SOL    HW1 3008   2.898   1.645   1.124 -0.0427 -0.2812 -1.3938
  958SOL    HW2 3009   3.022   1.594   1.195 -1.3096 -0.0591  1.0814
  959SOL     OW 3010   0.608   2.692   2.193  0.4143  0.3751 -0.5178
  959SOL    HW1 3011   0.679   2.644   2.150 -1.2534 -1.8887 -0.9332
  959SOL    HW2 3012   0.616   2.669   2.285  0.8151  0.9681 -0.3972
  960SOL     OW 3013   3.185   0.689   3.633  0.0746 -0.3812 -0.2052
  960SOL    HW1 3014   3.187   0.754   3.702  0.9438  0.7844 -1.2806
  960SOL    HW2 3015   3.097   0.651   3.638 -0.5907  1.1432  0.1925
  961SOL     OW 3016   3.640   0.076   2.615 -0.5551 -0.2427 -0.1501
  961SOL    HW1 3017   3.617   0.158   2.571 -2.0457 -0.3405  0.3926
  961SOL    HW2 3018   3.707   0.101   2.678 -0.6423  0.4770 -0.3360
  962SOL     OW 3019   1.230   1.278   0.425  0.0225  0.8013 -0.2134
  962SOL    HW1 3020   1.201   1.324   0.347 -0.1001 -0.1548 -0.7398
  962SOL    HW2 3021   1.150   1.256   0.471  0.0513  0.5438 -0.2882
  963SOL     OW 3022   2.737   0.321   2.813  0.3174  0.3456 -0.0555
  963SOL    HW1 3023   2.644   0.298   2.823 -0.3945  2.4708 -1.1872
  963SOL    HW2 3024   2.777   0.293   2.895 -1.2299 -0.9834  0.3085
  964SOL     OW 3025   2.527   2.859   1.061 -0.1286 -0.0277  0.2656
  964SOL    HW1 3026   2.600   2.882   1.002 -2.6540  1.7967 -2.4443
  964SOL    HW2 3027   2.511   2.767   1.042  0.7458 -0.1428  0.0175
  965SOL     OW 3028   3.160   3.076   1.914  0.1240  0.3512 -0.4254
  965SOL    HW1 3029   3.200   3.158   1.883 -0.3125  0.3368 -1.0444
  965SOL    HW2 3030   3.149   3.089   2.008 -2.5822  2.1918 -0.8849
  966SOL     OW 3031   0.460   2.246   1.832  0.3942  0.7748 -0.6213
  966SOL    HW1 3032   0.388   2.239   1.895 -0.0991 -2.3249 -1.3608
  966SOL    HW2 3033   0.535   2.207   1.877  0.4687  0.0404 -1.3638
  967SOL     OW 3034   1.878   1.801   2.987  0.3255 -0.6708  0.2786
  967SOL    HW1 3035   1.902   1.803   3.080 -1.3177 -0.7004  0.7296
  967SOL    HW2 3036   1.952   1.758   2.944 -0.0308 -3.1351  1.9600
  968SOL     OW 3037   0.558   2.608   3.339 -0.0987  0.6193  0.1126
  968SOL    HW1 3038   0.512   2.525   3.329 -0.2120  0.7780 -0.7670
  968SOL    HW2 3039   0.498   2.663   3.390  0.4406 -0.1785  1.6844
  969SOL     OW 3040   2.349   0.730   0.232  0.7817  0.2291  0.0671
  969SOL    HW1 3041   2.441   0.728   0.259  1.1856  2.1128 -0.9859
  969SOL    HW2 3042   2.333   0.643   0.194  2.7777  0.5183 -1.6429
  970SOL     OW 3043   0.739   0.673   3.596 -0.6305  0.0492  0.7797
  970SOL    HW1 3044   0.751   0.618   3.520  0.8239  1.6951 -0.2641
  970SOL    HW2 3045   0.670   0.734   3.572  1.6537  2.3604 -0.4336
  971SOL     OW 3046   3.047   2.060   3.116  0.0678 -0.1238  0.7747
  971SOL    HW1 3047   3.038   2.073   3.211 -0.6348 -0.6631  0.7830
  971SOL    HW2 3048   2.960   2.076   3.081  0.4784  0.7622  0.1243
  972SOL     OW 3049   2.355   1.801   2.644 -0.4564 -0.1126  0.7532
  972SOL    HW1 3050   2.329   1.715   2.611 -1.1952  0.3069  0.2200
  972SOL    HW2 3051   2.332   1.862   2.574  1.8439  0.3275  0.2921
  973SOL     OW 3052   0.026   1.652   2.241  0.1750  0.4260 -0.2946
  973SOL    HW1 3053   0.074   1.637   2.160  1.2413 -0.3293  0.4423
  973SOL    HW2 3054   0.085   1.706   2.294 -0.7567  1.4162 -0.2402
  974SOL     OW 3055   0.826   2.948   2.274 -0.2558  0.1024  0.4595
  974SOL    HW1 3056   0.782   2.947   2.358 -1.0789  1.0270  0.0588
  974SOL    HW2 3057   0.818   2.859   2.241  1.0533 -0.5750  1.8211
  975SOL     OW 3058   1.583   0.632   2.889  0.6597  0.2548 -0.1753
  975SOL    HW1 3059   1.675   0.633   2.918 -0.2585 -0.1663  3.1839
  975SOL    HW2 3060   1.552   0.545   2.913 -0.5157  0.1614 -1.8795
  976SOL     OW 3061   1.869   1.198   2.187 -0.1502 -0.2219 -0.2657
  976SOL    HW1 3062   1.867   1.165   2.277 -3.1812  0.9005  0.2172
  976SOL    HW2 3063   1.844   1.290   2.195 -2.3441 -0.5245 -2.3412
  977SOL     OW 3064   2.610   1.923   2.428 -0.1160 -0.1471 -0.1998
  977SOL    HW1 3065   2.542   1.893   2.369  0.7844 -0.3972 -1.1307
  977SOL    HW2 3066   2.683   1.864   2.413  1.7449  2.4206 -2.1260
  978SOL     OW 3067   3.166   3.222   0.279 -0.1186 -0.6827  0.4002
  978SOL    HW1 3068   3.072   3.219   0.298 -0.0647  1.7185  1.3555
  978SOL    HW2 3069   3.172   3.262   0.193  0.0425 -0.4314  0.5279
  979SOL     OW 3070   0.189   2.945   0.543 -0.5071  0.1776  0.1226
  979SOL    HW1 3071   0.233   2.962   0.627  0.5048 -1.6319 -0.0068
  979SOL    HW2 3072   0.126   2.876   0.563  0.4458 -0.9786 -0.8062
  980SOL     OW 3073   1.768   2.845   0.166 -0.0193  0.0079 -0.0886
  980SOL    HW1 3074   1.737   2.935   0.174 -0.8985 -0.3050  0.1870
  980SOL    HW2 3075   1.707   2.804   0.105 -0.1530 -0.6159  0.4471
  981SOL     OW 3076   0.505   0.917   2.179 -0.2727  0.3957  0.4734
  981SOL    HW1 3077   0.454   0.851   2.132 -2.8502  2.2740  0.4091
  981SOL    HW2 3078   0.470   0.915   2.268  2.4087 -0.9734  1.5969
  982SOL     OW 3079   0.383   2.236   0.567 -0.6795 -0.3070  0.2285
  982SOL    HW1 3080   0.465   2.270   0.531 -1.6304  1.7324 -0.1524
  982SOL    HW2 3081   0.350   2.176   0.500 -0.0536 -0.2690 -0.1182
  983SOL     OW 3082   0.321   1.331   1.570 -0.1726  0.1259 -0.1013
  983SOL    HW1 3083   0.337   1.407   1.513  1.3495 -1.1189 -1.4388
  983SOL    HW2 3084   0.298   1.260   1.510  1.9327 -1.3502  0.7076
  984SOL     OW 3085   2.535   0.920   0.626  0.1229  0.5151  0.1471
  984SOL    HW1 3086   2.458   0.944   0.677  0.7313  0.0450  1.3531
  984SOL    HW2 3087   2.546   0.991   0.562 -0.0274  1.7386  1.4226
  985SOL     OW 3088   3.244   1.443   3.652 -0.1235 -0.7780  0.4553
  985SOL    HW1 3089   3.241   1.522   3.707  0.0276 -0.9583  0.7220
  985SOL    HW2 3090   3.153   1.429   3.626 -0.1639 -0.5626  0.4733
  986SOL     OW 3091   0.719   2.560   3.597 -0.1394  0.0627 -0.0232
  986SOL    HW1 3092   0.794   2.532   3.544 -1.1028 -0.1686 -1.3269
  986SOL    HW2 3093   0.684   2.479   3.633  1.4591  0.3342  2.4191
  987SOL     OW 3094   3.015   2.383   3.155  0.4345  0.2008 -0.0748
  987SOL    HW1 3095   3.097   2.334   3.161 -0.3646 -1.2507 -0.5958
  987SOL    HW2 3096   3.009   2.409   3.063 -0.1508 -0.5597 -0.2624
  988SOL     OW 3097   0.046   3.027   3.624  0.8240 -0.1299  0.7524
  988SOL    HW1 3098   0.078   2.996   3.540 -1.4996  0.1722 -0.3265
  988SOL    HW2 3099   0.093   3.110   3.639  2.6286 -1.1054  0.7366
  989SOL     OW 3100   3.028   3.135   0.642  0.1625 -0.4946  0.1822
  989SOL    HW1 3101   2.956   3.137   0.706 -1.2600 -0.2229 -1.3568
  989SOL    HW2 3102   3.103   3.171   0.689 -1.0200  0.3725  1.4803
  990SOL     OW 3103   2.606   0.779   3.497  0.5348 -0.3130 -0.4344
  990SOL    HW1 3104   2.635   0.811   3.411  2.2230 -1.6266 -0.3915
  990SOL    HW2 3105   2.657   0.830   3.560 -0.4623  0.4165 -0.1952
  991SOL     OW 3106   0.098   2.236   3.411 -0.2249  0.3432 -0.4343
  991SOL    HW1 3107   0.045   2.270   3.484  0.8631  2.1087 -0.4313
  991SOL    HW2 3108   0.151   2.167   3.451 -1.5602 -0.5793 -0.1686
  992SOL     OW 3109   3.727   2.712   1.943 -0.0448 -0.1662  0.2311
  992SOL    HW1 3110   3.660   2.729   1.876  0.3875  1.3305  0.1388
  992SOL    HW2 3111   3.692   2.639   1.994 -0.0925 -1.8155 -2.0139
  993SOL     OW 3112   2.491   2.700   2.205 -0.2319 -0.9009 -0.0707
  993SOL    HW1 3113   2.461   2.625   2.258 -3.0470  0.1118 -0.0502
  993SOL    HW2 3114   2.576   2.723   2.242  0.1844 -3.3598  0.6728
  994SOL     OW 3115   1.554   0.553   2.233  0.2041  0.3260  0.5964
  994SOL    HW1 3116   1.475   0.544   2.179  1.3817 -1.4133 -0.9825
  994SOL    HW2 3117   1.598   0.631   2.199 -0.6252  1.0873  1.2372
  995SOL     OW 3118   2.920   1.096   2.291  0.6787 -0.2986  0.0737
  995SOL    HW1 3119   2.989   1.067   2.231 -1.3997 -2.3448 -1.4988
  995SOL    HW2 3120   2.903   1.187   2.265  1.0175 -0.5961 -1.2887
  996SOL     OW 3121   1.989   2.733   0.710 -0.0878 -0.0145 -0.1788
  996SOL    HW1 3122   2.007   2.701   0.622  2.4045 -0.9137  0.5724
  996SOL    HW2 3123   2.035   2.816   0.715 -0.5025  0.1971  0.1860
  997SOL     OW 3124   2.694   0.976   1.738  0.5001 -0.5553  0.1664
  997SOL    HW1 3125   2.763   1.042   1.737 -0.4442  0.4951  1.3336
  997SOL    HW2 3126   2.696   0.941   1.827  0.2627 -1.3213 -0.1280
  998SOL     OW 3127   2.414   3.273   2.367  0.0140  0.0027  0.3252
  998SOL    HW1 3128   2.337   3.221   2.390  0.6278 -0.8984  0.4093
  998SOL    HW2 3129   2.438   3.243   2.279 -0.5744  1.3208 -0.3112
  999SOL     OW 3130   1.158   0.256   0.505 -0.4119 -0.3563  1.0177
  999SOL    HW1 3131   1.229   0.298   0.456 -0.4936  0.3276  1.4774
  999SOL    HW2 3132   1.129   0.186   0.447  0.1411 -0.1731  0.4988
 1000SOL     OW 3133   1.646   2.848   1.556 -0.1763  0.1490  0.0748
 1000SOL    HW1 3134   1.598   2.867   1.636  0.7481  1.6311  0.3252
 1000SOL    HW2 3135   1.587   2.793   1.504 -0.9291 -0.5369  1.5971
 1001SOL     OW 3136   3.488   0.259   2.849  1.2113  0.4649  0.2289
 1001SOL    HW1 3137   3.458   0.349   2.867 -1.8082  0.1758 -2.3697
 1001SOL    HW2 3138   3.531   0.265   2.764 -1.9380 -0.8404 -1.6534
 1002SOL     OW 3139   0.629   1.937   2.482 -0.2812 -0.5150  0.1690
 1002SOL    HW1 3140   0.692   1.998   2.522 -1.2480  0.0814  0.8065
 1002SOL    HW2 3141   0.684   1.879   2.429  0.5948  1.8565 -1.7417
 1003SOL     OW 3142   1.950   1.880   2.606 -0.4067  0.6343  0.0869
 1003SOL    HW1 3143   1.903   1.920   2.679 -1.3043  1.6801 -1.0216
 1003SOL    HW2 3144   2.012   1.946   2.577  1.2780 -0.4637  1.0552
 1004SOL     OW 3145   2.976   0.895   3.530  0.5509  0.0684 -0.3050
 1004SOL    HW1 3146   2.965   0.990   3.524  1.5857  0.4082  2.3185
 1004SOL    HW2 3147   3.069   0.882   3.550  0.6321 -1.5849 -1.5204
 1005SOL     OW 3148   3.637   2.370   3.563  0.6579  1.1883  0.0895
 1005SOL    HW1 3149   3.588   2.435   3.613 -0.9377 -0.1342  0.3271
 1005SOL    HW2 3150   3.583   2.354   3.485 -0.3244 -1.6526  1.2513
 1006SOL     OW 3151   0.421   3.228   3.622  0.6975 -0.6008 -0.4879
 1006SOL    HW1 3152   0.359   3.234   3.694  0.4998 -0.6005 -0.6562
 1006SOL    HW2 3153   0.496   3.179   3.658 -0.3379 -2.6096 -0.9006
 1007SOL     OW 3154   3.429   2.945   2.361  0.2795  0.1663 -0.0484
 1007SOL    HW1 3155   3.462   3.035   2.356  2.2063 -0.4197  1.2895
 1007SOL    HW2 3156   3.503   2.893   2.391 -1.2682 -1.6246  0.8869
 1008SOL     OW 3157   1.463   1.273   1.023  0.2108 -0.1945  0.1447
 1008SOL    HW1 3158   1.460   1.201   1.087 -1.5810  0.5600  1.0036
 1008SOL    HW2 3159   1.498   1.347   1.073 -2.9487  0.9212  0.9557
 1009SOL     OW 3160   2.387   3.167   1.746 -0.4859  0.5433  0.0182
 1009SOL    HW1 3161   2.414   3.129   1.662  1.3132 -0.6306  1.0548
 1009SOL    HW2 3162   2.307   3.121   1.769 -1.3709  1.3404 -1.3267
 1010SOL     OW 3163   0.742   1.797   2.271 -0.1515 -0.3543  0.0323
 1010SOL    HW1 3164   0.825   1.827   2.234 -1.0561  0.7305 -1.2128
 1010SOL    HW2 3165   0.739   1.703   2.250  0.3941 -0.2291 -0.6389
 1011SOL     OW 3166   3.537   0.822   0.010 -0.1200  0.3075 -0.0931
 1011SOL    HW1 3167   3.526   0.801   0.103  2.3301 -0.9232  0.0219
 1011SOL    HW2 3168   3.509   0.742  -0.036 -1.4135  0.9450 -0.4483
 1012SOL     OW 3169   0.668   3.142   1.673 -0.5407  0.9057  0.7290
 1012SOL    HW1 3170   0.712   3.227   1.682  0.4685  0.2038  3.2192
 1012SOL    HW2 3171   0.738   3.078   1.684 -0.6905 -0.4511 -4.0684
 1013SOL     OW 3172   2.555   2.612   1.800 -0.3330 -0.4615  0.4883
 1013SOL    HW1 3173   2.603   2.690   1.828  0.3759 -0.2818 -1.1513
 1013SOL    HW2 3174   2.558   2.554   1.876  2.1362 -0.2908  0.5877
 1014SOL     OW 3175   0.128   3.654   0.603  0.7172  0.2714 -0.9606
 1014SOL    HW1 3176   0.193   3.669   0.672  0.0785 -0.7967 -0.0911
 1014SOL    HW2 3177   0.163   3.580   0.553  0.7114  0.4218 -1.1866
 1015SOL     OW 3178   2.906   2.439   1.706  0.8917  0.2986  0.3055
 1015SOL    HW1 3179   2.936   2.374   1.644  0.9904  1.3826 -0.8167
 1015SOL    HW2 3180   2.818   2.463   1.676  0.7607  0.5255  0.8456
 1016SOL     OW 3181   2.075   3.407   0.794  0.0597  0.2616  0.2454
 1016SOL    HW1 3182   2.025   3.353   0.856 -1.1072  0.3426 -0.5895
 1016SOL    HW2 3183   2.152   3.354   0.773 -0.4085 -0.5176  0.4367
 1017SOL     OW 3184   1.835   2.840   1.988 -0.4196  0.1336  0.4387
 1017SOL    HW1 3185   1.858   2.922   2.032  0.4874  0.6098 -0.8743
 1017SOL    HW2 3186   1.918   2.797   1.971 -0.7093  0.0987 -1.0301
 1018SOL     OW 3187   1.908   0.167   1.860  0.2802  0.3063  0.2131
 1018SOL    HW1 3188   1.931   0.256   1.887 -0.2744 -0.2663  2.8354
 1018SOL    HW2 3189   1.813   0.161   1.872  0.1453 -0.3721 -0.9228
 1019SOL     OW 3190   0.086   3.534   0.284  0.4175 -0.3926  0.1833
 1019SOL    HW1 3191   0.174   3.557   0.254  0.2615  1.2206  0.8459
 1019SOL    HW2 3192   0.045   3.491   0.209  0.6372  1.8830 -1.3634
 1020SOL     OW 3193   1.396   1.481   1.727  0.2141  1.3254 -0.6333
 1020SOL    HW1 3194   1.377   1.514   1.815  1.0108 -1.8212  0.8650
 1020SOL    HW2 3195   1.310   1.472   1.687 -0.3780  0.6907  0.6994
 1021SOL     OW 3196   0.256   0.717   1.155 -0.2036 -0.2695 -0.1879
 1021SOL    HW1 3197   0.193   0.789   1.163  0.5475  0.3805  0.0642
 1021SOL    HW2 3198   0.338   0.754   1.188  0.6387 -0.6556 -1.7719
 1022SOL     OW 3199   1.751   2.244   2.805  0.3676  0.4298  0.2293
 1022SOL    HW1 3200   1.816   2.258   2.736  0.6138 -1.5565 -0.0146
 1022SOL    HW2 3201   1.800   2.200   2.875  0.1914  2.6547  1.8439
 1023SOL     OW 3202   0.039   0.225   2.828  0.0222  0.3752  0.0510
 1023SOL    HW1 3203   0.026   0.148   2.884 -0.8107  1.5608  1.5902
 1023SOL    HW2 3204   0.058   0.296   2.890  0.4523  1.4729 -1.2967
 1024SOL     OW 3205   0.641   1.581   1.772  0.2892 -0.6259 -0.2964
 1024SOL    HW1 3206   0.578   1.626   1.828  0.8165  1.9505 -1.6548
 1024SOL    HW2 3207   0.627   1.488   1.790 -1.4389  0.0065  2.0158
 1025SOL     OW 3208   1.967   0.419   2.248  0.0762 -0.0867  0.1890
 1025SOL    HW1 3209   1.891   0.404   2.192 -0.0008  2.2790 -0.4639
 1025SOL    HW2 3210   1.931   0.440   2.334  0.0292 -0.1383  0.1814
 1026SOL     OW 3211   0.290   1.889   2.105  0.4203  0.1388 -0.4963
 1026SOL    HW1 3212   0.376   1.929   2.122 -0.3371  1.3938  0.6210
 1026SOL    HW2 3213   0.287   1.812   2.162  0.9375 -0.1101 -0.8026
 1027SOL     OW 3214   0.610   2.965   2.933 -0.0526  0.3070  0.0384
 1027SOL    HW1 3215   0.634   2.964   3.026  0.8578  1.0883 -0.1670
 1027SOL    HW2 3216   0.686   2.929   2.888 -0.7253 -0.6408 -0.3775
 1028SOL     OW 3217   1.627   1.477   0.712 -1.3024 -0.4456  0.4959
 1028SOL    HW1 3218   1.595   1.479   0.622 -0.9306 -2.0270  0.2995
 1028SOL    HW2 3219   1.683   1.399   0.716  0.5249  0.8484  1.5055
 1029SOL     OW 3220   2.484   0.759   1.562 -0.1751  0.2422  0.5345
 1029SOL    HW1 3221   2.535   0.683   1.591  1.2461  0.2774 -1.6965
 1029SOL    HW2 3222   2.399   0.746   1.604  0.5307 -1.6892  1.5532
 1030SOL     OW 3223   0.286   1.397   2.916 -0.0340  0.2269 -0.8542
 1030SOL    HW1 3224   0.332   1.314   2.906  2.1159  1.3511 -0.7353
 1030SOL    HW2 3225   0.349   1.464   2.889 -0.9035  1.9871  1.1788
 1031SOL     OW 3226   0.279   0.555   0.922  0.3273 -0.0940 -0.5617
 1031SOL    HW1 3227   0.351   0.588   0.868  1.2350  0.8155  1.1408
 1031SOL    HW2 3228   0.258   0.627   0.981 -1.5241 -0.6010 -0.5242
 1032SOL     OW 3229   2.448   0.836   3.008 -0.0251  0.8122 -0.1384
 1032SOL    HW1 3230   2.388   0.854   2.935  1.1283 -1.1081 -1.6579
 1032SOL    HW2 3231   2.392   0.802   3.077 -1.0098  1.5442 -0.5559
 1033SOL     OW 3232   0.627   3.132   0.441  0.0049 -0.6272  0.5736
 1033SOL    HW1 3233   0.674   3.104   0.520  1.3962 -1.4025 -0.4812
 1033SOL    HW2 3234   0.639   3.060   0.379 -1.4024 -0.2094 -0.2265
 1034SOL     OW 3235   0.620   3.234   2.410  0.5564  0.1353 -0.5696
 1034SOL    HW1 3236   0.544   3.205   2.360  0.7643  0.8791 -1.3289
 1034SOL    HW2 3237   0.690   3.244   2.345  2.3971 -3.8230  0.4791
 1035SOL     OW 3238   3.518   0.835   1.545 -0.5722 -0.8348  0.5051
 1035SOL    HW1 3239   3.548   0.878   1.625  0.1497 -2.1984  1.0030
 1035SOL    HW2 3240   3.597   0.820   1.494 -1.2630  2.8531 -2.0688
 1036SOL     OW 3241   1.852   1.343   1.792  0.2460 -0.2108  0.1886
 1036SOL    HW1 3242   1.917   1.318   1.857  0.4798 -3.6508 -1.1179
 1036SOL    HW2 3243   1.896   1.330   1.708 -1.1829  0.3598 -0.6966
 1037SOL     OW 3244   2.195   2.265   1.651  0.1339  0.4690 -0.0489
 1037SOL    HW1 3245   2.195   2.203   1.725  0.5126  1.8884  1.1933
 1037SOL    HW2 3246   2.285   2.298   1.648  0.2719  0.0260 -1.5409
 1038SOL     OW 3247   0.376   2.328   0.221 -0.0511 -0.1170 -0.0605
 1038SOL    HW1 3248   0.348   2.390   0.153 -1.3709 -0.8344 -0.2083
 1038SOL    HW2 3249   0.306   2.331   0.286  1.1605  0.4886  1.2593
 1039SOL     OW 3250   2.406   1.939   1.266  0.2299 -0.0949 -0.4612
 1039SOL    HW1 3251   2.401   1.856   1.313 -0.0608 -0.1739 -0.6313
 1039SOL    HW2 3252   2.373   2.004   1.328 -1.5331 -0.3950 -1.0375
 1040SOL     OW 3253   0.039   0.954   0.199  0.2319  0.1828 -0.2808
 1040SOL    HW1 3254   0.057   1.043   0.230 -1.5078  0.0110  1.4350
 1040SOL    HW2 3255   0.017   0.964   0.107 -1.0507  1.7389  0.1536
 1041SOL     OW 3256   2.308   2.567   3.457  0.3596  0.3448 -0.3048
 1041SOL    HW1 3257   2.262   2.536   3.379  1.8353 -2.4163 -0.1937
 1041SOL    HW2 3258   2.381   2.620   3.423  0.0337  0.5372 -0.7076
 1042SOL     OW 3259   3.591   3.594   1.195  0.1662 -0.2955 -0.1846
 1042SOL    HW1 3260   3.610   3.635   1.280  0.1337  0.5425 -0.5676
 1042SOL    HW2 3261   3.633   3.652   1.131  1.2380 -1.5730 -0.6769
 1043SOL     OW 3262   2.881   2.892   3.309  0.0956  0.2512 -0.3762
 1043SOL    HW1 3263   2.918   2.923   3.392  1.5877 -0.5006 -0.7398
 1043SOL    HW2 3264   2.914   2.802   3.300 -1.5876 -0.3589 -0.8789
 1044SOL     OW 3265   3.694   0.040   3.694 -0.0294 -0.7237 -0.1968
 1044SOL    HW1 3266   3.630   0.105   3.664 -2.2670 -1.1832  3.0203
 1044SOL    HW2 3267   3.714   0.066   3.784  2.6143 -1.9325 -0.3592
 1045SOL     OW 3268   1.793   0.779   0.089  0.7012  0.6322  0.2936
 1045SOL    HW1 3269   1.869   0.775   0.031  1.5857  1.0754  1.4058
 1045SOL    HW2 3270   1.755   0.691   0.084 -0.8522  1.3374 -3.0302
 1046SOL     OW 3271   2.335   0.235   1.074 -0.5642 -0.2571  0.0233
 1046SOL    HW1 3272   2.276   0.307   1.051  0.3338  0.6506  0.4972
 1046SOL    HW2 3273   2.361   0.253   1.164  0.8039 -0.3659 -0.3335
 1047SOL     OW 3274   2.266   3.339   3.160 -0.1593 -0.0174  0.6200
 1047SOL    HW1 3275   2.242   3.263   3.213 -2.7200  1.6667  2.1186
 1047SOL    HW2 3276   2.318   3.394   3.220 -0.2502  0.4309  0.2883
 1048SOL     OW 3277   1.604   3.275   3.538 -0.0634 -0.5762  0.3475
 1048SOL    HW1 3278   1.583   3.181   3.538 -1.1459 -0.3682 -1.7741
 1048SOL    HW2 3279   1.635   3.293   3.450  1.6801  0.7908  1.1702
 1049SOL     OW 3280   2.457   3.026   1.509 -0.6803 -0.4626  0.0032
 1049SOL    HW1 3281   2.466   3.119   1.487 -1.9638 -0.0923  0.9335
 1049SOL    HW2 3282   2.509   2.980   1.442  1.4108  0.9980  0.5192
 1050SOL     OW 3283   0.576   2.201   1.358 -0.3540 -0.4763  0.5681
 1050SOL    HW1 3284   0.626   2.201   1.440  1.2390  1.5921 -0.3170
 1050SOL    HW2 3285   0.500   2.258   1.376  1.2460  1.9765  0.0069
 1051SOL     OW 3286   3.472   1.933   0.695  0.1886  0.0195  0.3096
 1051SOL    HW1 3287   3.433   1.921   0.782 -0.9039  2.4421  0.2237
 1051SOL    HW2 3288   3.542   1.868   0.691  0.1617 -0.2667  2.9426
 1052SOL     OW 3289   2.768   1.563   0.291  0.0447  0.2262 -0.3775
 1052SOL    HW1 3290   2.703   1.501   0.259 -0.8767  0.9325  0.0980
 1052SOL    HW2 3291   2.717   1.635   0.328  1.0955  0.9788 -0.3557
 1053SOL     OW 3292   2.720   2.318   1.900 -0.3411  0.3871 -0.2480
 1053SOL    HW1 3293   2.797   2.350   1.852 -1.0534  1.7899 -0.5271
 1053SOL    HW2 3294   2.698   2.390   1.960 -1.7960  0.2834 -0.6296
 1054SOL     OW 3295   0.784   3.092   0.156  0.0237  0.9744 -0.3535
 1054SOL    HW1 3296   0.846   3.020   0.168  1.8551  2.5243  0.0544
 1054SOL    HW2 3297   0.732   3.092   0.236  0.1444  0.2534 -0.2668
 1055SOL     OW 3298   3.563   3.152   3.112 -0.9329  0.0712 -0.4763
 1055SOL    HW1 3299   3.624   3.132   3.182 -0.2665  0.4454 -0.9402
 1055SOL    HW2 3300   3.616   3.153   3.032 -1.3081  1.5160 -0.7480
 1056SOL     OW 3301   3.428   2.545   1.608 -0.5327 -0.4236 -0.4201
 1056SOL    HW1 3302   3.353   2.543   1.667  0.2470 -0.5034  0.6023
 1056SOL    HW2 3303   3.491   2.604   1.651  0.5768 -1.5059 -0.4877
 1057SOL     OW 3304   0.181   0.241   2.556  0.5286 -0.6515 -0.2035
 1057SOL    HW1 3305   0.276   0.240   2.568  0.2646 -1.3657  2.3169
 1057SOL    HW2 3306   0.145   0.259   2.643 -1.6703 -0.7859 -1.0083
 1058SOL     OW 3307   3.208   1.191   3.398  0.0887  0.2739 -0.0518
 1058SOL    HW1 3308   3.296   1.227   3.393  0.5996 -0.8392  0.5712
 1058SOL    HW2 3309   3.218   1.108   3.445 -1.0812 -0.5884 -1.2621
 1059SOL     OW 3310   0.727   2.039   2.923 -0.1911 -0.0935 -0.3079
 1059SOL    HW1 3311   0.709   1.954   2.883  1.3578 -0.6056 -0.0053
 1059SOL    HW2 3312   0.739   2.099   2.849  2.9177 -1.0839 -0.7642
 1060SOL     OW 3313   1.530   0.963   2.437  0.3722 -0.3388  0.9653
 1060SOL    HW1 3314   1.551   0.964   2.343 -1.3279 -2.3393  0.4777
 1060SOL    HW2 3315   1.444   1.005   2.442 -0.6208 -2.2779  1.2268
 1061SOL     OW 3316   0.744   2.797   1.893  0.3127 -0.3339 -0.2222
 1061SOL    HW1 3317   0.666   2.744   1.877 -0.4310  1.3755 -3.0920
 1061SOL    HW2 3318   0.806   2.737   1.933 -0.8066 -3.1344 -2.3406
 1062SOL     OW 3319   3.551   2.792   1.477 -0.8052  0.9542 -0.2975
 1062SOL    HW1 3320   3.458   2.768   1.473 -0.3641 -1.4971  1.6258
 1062SOL    HW2 3321   3.591   2.745   1.404 -0.5800 -1.1790  1.0995
 1063SOL     OW 3322   2.312   2.292   0.972 -0.0626 -0.6816 -0.1365
 1063SOL    HW1 3323   2.366   2.264   0.898  1.7397  0.9554  0.4833
 1063SOL    HW2 3324   2.279   2.378   0.946 -2.6791 -1.7362 -0.5993
 1064SOL     OW 3325   2.620   3.128   1.179 -0.3130 -0.0650  0.3506
 1064SOL    HW1 3326   2.608   3.215   1.142 -1.1344 -0.1264  0.4574
 1064SOL    HW2 3327   2.569   3.070   1.123 -0.4053 -0.3602  0.7326
 1065SOL     OW 3328   0.113   3.628   2.557 -0.0976 -0.7822 -0.1748
 1065SOL    HW1 3329   0.172   3.695   2.590  0.4505 -2.6163  2.9754
 1065SOL    HW2 3330   0.025   3.663   2.574  0.1754 -1.0322  2.1308
 1066SOL     OW 3331   2.795   3.515   1.381 -0.1350  0.2078  0.2616
 1066SOL    HW1 3332   2.840   3.541   1.462 -1.0948  0.1153  0.8391
 1066SOL    HW2 3333   2.762   3.427   1.400 -0.7293  0.3579 -0.0778
 1067SOL     OW 3334   1.734   0.369   2.104 -0.1186 -0.2197  0.6553
 1067SOL    HW1 3335   1.665   0.400   2.163 -1.7724  0.3310 -1.4460
 1067SOL    HW2 3336   1.688   0.350   2.022  2.4009  1.5406 -1.3083
 1068SOL     OW 3337   1.444   2.536   1.014 -0.5179 -0.3121 -0.6531
 1068SOL    HW1 3338   1.468   2.618   1.056 -1.1688 -2.1065  3.8474
 1068SOL    HW2 3339   1.520   2.512   0.961  0.4349  2.1777 -0.5461
 1069SOL     OW 3340   0.976   0.582   2.435 -0.6751 -0.0949 -0.4301
 1069SOL    HW1 3341   0.933   0.666   2.451  0.2666  0.1444  0.9849
 1069SOL    HW2 3342   1.008   0.555   2.521  1.8260 -0.3439 -1.3649
 1070SOL     OW 3343   2.525   1.317   0.433  0.4264 -0.5574 -0.1595
 1070SOL    HW1 3344   2.567   1.347   0.514  0.2558 -0.9758  0.0864
 1070SOL    HW2 3345   2.439   1.359   0.434  1.0918  0.8898 -1.0259
 1071SOL     OW 3346   2.944   2.654   1.865 -0.0368  0.4600  0.3062
 1071SOL    HW1 3347   2.952   2.575   1.811  0.4537  0.3146  0.5878
 1071SOL    HW2 3348   2.875   2.634   1.928 -0.2222  0.4253  0.0953
 1072SOL     OW 3349   2.467   0.210   0.120  0.4298 -0.1660  0.4764
 1072SOL    HW1 3350   2.381   0.210   0.162 -1.3165 -0.1162 -2.7891
 1072SOL    HW2 3351   2.472   0.127   0.074  0.7750  1.0487 -1.8221
 1073SOL     OW 3352   0.871   1.765   0.011 -0.1499  0.4149  0.2639
 1073SOL    HW1 3353   0.777   1.773   0.027 -0.5295  0.0662 -1.5533
 1073SOL    HW2 3354   0.909   1.747   0.097 -1.7749  0.2901  0.9853
 1074SOL     OW 3355   2.551   1.044   0.375 -0.4678 -0.0246  0.7799
 1074SOL    HW1 3356   2.496   1.117   0.404 -0.0046  0.0588  1.4725
 1074SOL    HW2 3357   2.541   1.043   0.280 -1.9479 -0.2376  0.9154
 1075SOL     OW 3358   2.620   3.504   0.204 -0.1448 -0.2080 -0.3693
 1075SOL    HW1 3359   2.539   3.467   0.169  0.1454 -0.3659 -0.8954
 1075SOL    HW2 3360   2.600   3.527   0.294 -1.6065  2.3071 -1.2412
 1076SOL     OW 3361   3.651   0.826   2.638 -0.7293  0.1341 -0.6493
 1076SOL    HW1 3362   3.642   0.800   2.547  0.9431 -0.4904 -0.6790
 1076SOL    HW2 3363   3.696   0.911   2.635 -1.6113  0.6179 -0.4235
 1077SOL     OW 3364   2.223   1.689   0.871 -0.3955  0.3960 -0.2676
 1077SOL    HW1 3365   2.301   1.742   0.888 -0.1785  0.6803 -1.9898
 1077SOL    HW2 3366   2.255   1.599   0.877 -0.4440  0.4566  1.2145
 1078SOL     OW 3367   3.522   2.805   1.116  0.2378  0.0893 -0.9343
 1078SOL    HW1 3368   3.610   2.779   1.144 -0.7219 -3.8822 -1.0564
 1078SOL    HW2 3369   3.468   2.790   1.193 -0.8265 -0.7248 -1.8259
 1079SOL     OW 3370   0.106   0.359   3.376 -0.0261  0.1513 -0.2850
 1079SOL    HW1 3371   0.181   0.372   3.434  0.4608 -0.2451 -0.8144
 1079SOL    HW2 3372   0.139   0.303   3.307 -0.8843 -0.2244 -0.3980
 1080SOL     OW 3373   3.059   0.008   1.699  0.3714  0.1107  0.0263
 1080SOL    HW1 3374   3.004   0.062   1.643 -0.5809  1.5498  2.2148
 1080SOL    HW2 3375   3.148   0.018   1.663 -0.1513  1.2350 -1.0055
 1081SOL     OW 3376   3.684   2.028   0.409 -0.2941 -0.2689 -0.1532
 1081SOL    HW1 3377   3.614   2.072   0.457 -1.6088 -1.1196 -1.1980
 1081SOL    HW2 3378   3.742   1.994   0.477 -3.0326 -3.0287  1.0515
 1082SOL     OW 3379   1.602   0.898   1.220 -0.4303  0.1969  0.2771
 1082SOL    HW1 3380   1.661   0.955   1.269 -0.6355  0.1968  0.5279
 1082SOL    HW2 3381   1.653   0.869   1.144 -0.8994  2.2058 -0.8971
 1083SOL     OW 3382   2.487   1.101   2.470 -0.6341  0.4805 -0.1510
 1083SOL    HW1 3383   2.495   1.135   2.559 -0.7136 -0.1245  0.0965
 1083SOL    HW2 3384   2.545   1.025   2.469 -0.5664  0.5358 -0.6440
 1084SOL     OW 3385   2.110   0.119   1.408 -1.0570  0.4950  0.5903
 1084SOL    HW1 3386   2.042   0.186   1.397 -1.8680 -0.2647  0.8710
 1084SOL    HW2 3387   2.072   0.057   1.471 -1.6636 -1.9288 -1.9856
 1085SOL     OW 3388   1.271   1.064   1.833 -0.0404  0.2804 -0.5682
 1085SOL    HW1 3389   1.254   1.131   1.768 -0.7187  1.8417  1.1265
 1085SOL    HW2 3390   1.360   1.083   1.865 -0.4288  0.7370  0.2828
 1086SOL     OW 3391   3.117   3.480   0.595  0.0099 -0.4587 -0.5384
 1086SOL    HW1 3392   3.034   3.444   0.627 -0.5253 -1.1864 -2.5550
 1086SOL    HW2 3393   3.131   3.558   0.648 -1.1998 -1.1258  0.8451
 1087SOL     OW 3394   1.855   3.504   2.673  0.2312 -0.1841  0.3365
 1087SOL    HW1 3395   1.833   3.482   2.763  0.7320 -1.3761  0.1761
 1087SOL    HW2 3396   1.822   3.431   2.621  0.3202  0.2909 -0.4066
 1088SOL     OW 3397   1.302   0.125   0.743 -0.0489  0.4308 -0.0045
 1088SOL    HW1 3398   1.246   0.049   0.762 -1.6235  1.4157 -0.4658
 1088SOL    HW2 3399   1.249   0.178   0.683 -0.3763  3.4361  2.6974
 1089SOL     OW 3400   1.885   3.226   0.090  0.7928  0.3195 -0.0650
 1089SOL    HW1 3401   1.866   3.243   0.182  0.8995 -1.5702  0.3390
 1089SOL    HW2 3402   1.853   3.304   0.045  1.5483  1.6750  1.6382
 1090SOL     OW 3403   3.033   1.928   1.944 -0.2516  0.3145 -0.3865
 1090SOL    HW1 3404   2.977   1.865   1.990  0.9187 -0.8194 -0.4571
 1090SOL    HW2 3405   3.099   1.954   2.009  0.9382 -0.6999 -1.1371
 1091SOL     OW 3406   3.470   0.257   1.648 -0.1161 -0.6562 -0.1479
 1091SOL    HW1 3407   3.442   0.266   1.557 -3.9284 -1.1260  0.8035
 1091SOL    HW2 3408   3.453   0.342   1.688  0.7186 -0.7026  0.3440
 1092SOL     OW 3409   3.691   1.090   0.838 -0.0061  0.0927  0.1933
 1092SOL    HW1 3410   3.662   1.141   0.762  0.5423 -1.4683 -1.1407
 1092SOL    HW2 3411   3.614   1.040   0.865 -0.2698  0.8381  0.8477
 1093SOL     OW 3412   2.658   2.396   0.966 -0.0037  0.4627  0.0200
 1093SOL    HW1 3413   2.685   2.351   0.886  1.9138 -0.8431  1.3253
 1093SOL    HW2 3414   2.696   2.344   1.037 -0.2806  2.4630  1.7303
 1094SOL     OW 3415   2.436   3.468   0.990  0.6141 -0.0749 -0.3830
 1094SOL    HW1 3416   2.340   3.472   0.987  0.5241 -0.2703  1.2539
 1094SOL    HW2 3417   2.457   3.478   1.083  2.1456 -0.9606 -0.6059
 1095SOL     OW 3418   1.118   3.333   3.674  0.1138 -0.1052 -0.3154
 1095SOL    HW1 3419   1.172   3.260   3.644 -0.2936 -0.4043 -0.3428
 1095SOL    HW2 3420   1.029   3.310   3.644  0.0088  0.4846 -0.4758
 1096SOL     OW 3421   1.598   1.002   0.873 -0.0152 -0.1729  0.2003
 1096SOL    HW1 3422   1.544   1.041   0.804 -0.1642  1.2153  1.0664
 1096SOL    HW2 3423   1.549   0.924   0.901 -0.2566 -0.3979 -0.8144
 1097SOL     OW 3424   3.447   3.067   1.783 -0.1611 -0.1398  0.1421
 1097SOL    HW1 3425   3.447   3.094   1.874  1.5534 -0.3301  0.2311
 1097SOL    HW2 3426   3.368   3.013   1.773 -0.4310 -0.0013  1.4669
 1098SOL     OW 3427   1.433   3.631   1.081  0.2163  0.0607  0.0777
 1098SOL    HW1 3428   1.501   3.666   1.023 -0.4551 -0.7467 -1.2204
 1098SOL    HW2 3429   1.482   3.587   1.151  1.0516  2.1705  0.9084
 1099SOL     OW 3430   1.840   3.514   0.903  0.5974 -0.1139  0.5682
 1099SOL    HW1 3431   1.794   3.454   0.962  0.5976  0.9570  1.7192
 1099SOL    HW2 3432   1.870   3.460   0.831 -0.9405 -1.1622  0.6751
 1100SOL     OW 3433   0.351   2.169   3.185 -0.1887  0.1654  0.1044
 1100SOL    HW1 3434   0.257   2.170   3.168 -0.2914  1.2380  0.6177
 1100SOL    HW2 3435   0.370   2.080   3.216 -1.1800  0.1838  0.7775
 1101SOL     OW 3436   3.228   1.593   1.854  0.1626  0.1591  0.0308
 1101SOL    HW1 3437   3.285   1.625   1.924  0.7392  1.3568 -0.9518
 1101SOL    HW2 3438   3.162   1.539   1.900  0.0431  1.5370  1.5833
 1102SOL     OW 3439   0.445   1.559   2.369 -0.2249 -0.9627 -0.7759
 1102SOL    HW1 3440   0.535   1.556   2.334  0.1816  0.1316  0.1005
 1102SOL    HW2 3441   0.399   1.489   2.323  1.5223 -2.7166  0.0171
 1103SOL     OW 3442   2.979   0.239   0.075  0.2145 -0.2635 -0.1141
 1103SOL    HW1 3443   2.974   0.217  -0.018  1.7220  0.2453 -0.3456
 1103SOL    HW2 3444   2.904   0.296   0.091  0.5799  0.5904 -1.2970
 1104SOL     OW 3445   0.909   3.467   0.607 -0.5168  0.3529 -0.5374
 1104SOL    HW1 3446   0.824   3.501   0.633  0.7618  2.5996  1.0712
 1104SOL    HW2 3447   0.964   3.476   0.685  0.8789 -2.4273 -1.0578
 1105SOL     OW 3448   1.293   0.244   2.371  0.2794 -0.6648  0.0711
 1105SOL    HW1 3449   1.295   0.149   2.380 -0.5151 -0.7756 -0.8427
 1105SOL    HW2 3450   1.201   0.267   2.372  0.4680  0.1151  0.3491
 1106SOL     OW 3451   2.114   2.059   2.500  0.0991  0.6010  0.5835
 1106SOL    HW1 3452   2.058   2.120   2.547  0.2324  0.3766  1.0430
 1106SOL    HW2 3453   2.182   2.114   2.460 -0.1183  0.8102  0.5005
 1107SOL     OW 3454   1.001   1.899   0.683 -0.3936 -0.0792  0.3336
 1107SOL    HW1 3455   1.010   1.817   0.634  1.2025 -0.2282  0.8198
 1107SOL    HW2 3456   1.017   1.875   0.774 -0.0328  0.7387  0.4977
 1108SOL     OW 3457   2.051   2.670   0.989  0.1224  0.3320 -0.2887
 1108SOL    HW1 3458   2.126   2.612   1.004 -0.1838 -0.0607 -0.2485
 1108SOL    HW2 3459   2.045   2.677   0.894  0.4167  0.6325 -0.2824
 1109SOL     OW 3460   1.170   0.356   2.872  0.5730  0.0225  0.1834
 1109SOL    HW1 3461   1.126   0.359   2.957  0.1301 -1.6502  0.0452
 1109SOL    HW2 3462   1.255   0.316   2.890  0.9712  0.7825  0.0184
 1110SOL     OW 3463   2.380   3.403   0.137 -0.7696  0.0983  0.2510
 1110SOL    HW1 3464   2.400   3.330   0.196  1.2987 -0.9309 -1.5919
 1110SOL    HW2 3465   2.312   3.452   0.183 -1.6712 -2.4984  1.9514
 1111SOL     OW 3466   2.475   2.238   1.224 -0.3911  0.6679 -0.1322
 1111SOL    HW1 3467   2.486   2.254   1.131  0.0601  0.3447 -0.1350
 1111SOL    HW2 3468   2.417   2.162   1.229  0.5650 -0.0739 -0.1684
 1112SOL     OW 3469   0.440   3.086   1.846  0.2373  0.3933  0.2867
 1112SOL    HW1 3470   0.413   3.141   1.772  0.6545 -1.2333 -1.1321
 1112SOL    HW2 3471   0.535   3.078   1.836 -0.0656 -2.7592 -1.2220
 1113SOL     OW 3472   1.890   1.908   1.077  0.2739 -0.4949  0.4656
 1113SOL    HW1 3473   1.974   1.935   1.116 -0.7458 -1.6068  3.7785
 1113SOL    HW2 3474   1.911   1.826   1.031  1.1875 -0.2674  0.4527
 1114SOL     OW 3475   2.956   0.146   1.485  0.1394  0.2316 -0.5501
 1114SOL    HW1 3476   3.035   0.184   1.446 -0.0652  0.3605 -0.8454
 1114SOL    HW2 3477   2.931   0.076   1.425  0.6326 -0.5184  0.0981
 1115SOL     OW 3478   1.698   0.623   0.819 -0.5985  0.1168  0.0527
 1115SOL    HW1 3479   1.644   0.570   0.878  1.4910 -2.9121 -0.5164
 1115SOL    HW2 3480   1.637   0.655   0.753 -2.5176  1.3004  2.2481
 1116SOL     OW 3481   1.933   2.638   2.163  0.8405 -0.4151 -1.1194
 1116SOL    HW1 3482   1.875   2.615   2.090  0.7631 -0.6003 -1.0000
 1116SOL    HW2 3483   2.020   2.608   2.135  0.4886 -2.4058 -0.2861
 1117SOL     OW 3484   2.965   1.525   0.483  0.0174 -0.3857 -0.2344
 1117SOL    HW1 3485   2.937   1.522   0.574 -1.4050  0.5506 -0.6076
 1117SOL    HW2 3486   2.883   1.522   0.433  0.5244  2.2261 -1.3927
 1118SOL     OW 3487   1.815   0.299   2.754 -0.4512 -0.2976 -0.0724
 1118SOL    HW1 3488   1.851   0.234   2.815 -0.1487 -2.9815 -2.8820
 1118SOL    HW2 3489   1.722   0.277   2.749 -0.0978 -1.5528 -2.0953
 1119SOL     OW 3490   0.660   1.116   3.211  0.1994  0.2535 -0.3422
 1119SOL    HW1 3491   0.713   1.098   3.133 -0.1326  1.5079 -0.8747
 1119SOL    HW2 3492   0.713   1.176   3.262  1.1015 -1.7456  1.2030
 1120SOL     OW 3493   0.735   2.432   3.172 -0.3268 -0.2916  0.2548
 1120SOL    HW1 3494   0.698   2.354   3.214  0.3169  0.8653  3.2600
 1120SOL    HW2 3495   0.769   2.484   3.245 -0.6244  2.7685 -1.6158
 1121SOL     OW 3496   1.034   0.247   2.652 -0.0943 -0.4514 -0.0226
 1121SOL    HW1 3497   1.087   0.263   2.574  0.1747 -2.3847 -0.2989
 1121SOL    HW2 3498   1.078   0.294   2.722  1.3135 -1.0201 -0.4922
 1122SOL     OW 3499   3.589   1.221   0.138  0.0626  0.1900  0.2123
 1122SOL    HW1 3500   3.594   1.147   0.077  0.5949 -0.9269  1.5573
 1122SOL    HW2 3501   3.680   1.243   0.156 -0.0259 -0.8504  2.1524
 1123SOL     OW 3502   1.603   2.931   2.402 -0.0876 -0.0508  0.0005
 1123SOL    HW1 3503   1.691   2.964   2.419 -0.4728  1.0774 -0.1134
 1123SOL    HW2 3504   1.597   2.928   2.306 -0.1393 -0.2074  0.0087
 1124SOL     OW 3505   2.333   0.486   0.103 -0.6077  0.7481 -0.4800
 1124SOL    HW1 3506   2.394   0.416   0.081 -0.7226  0.7385 -0.7682
 1124SOL    HW2 3507   2.249   0.457   0.067 -1.1890 -0.0603  1.3963
 1125SOL     OW 3508   3.291   1.231   1.001  0.5976  0.1099 -0.0156
 1125SOL    HW1 3509   3.213   1.182   0.977 -1.0169  2.0365  1.0748
 1125SOL    HW2 3510   3.342   1.170   1.055 -1.2510 -0.4495  1.1542
 1126SOL     OW 3511   0.077   2.696   0.541 -0.2571  0.2587 -0.1435
 1126SOL    HW1 3512   0.157   2.654   0.573 -0.4813 -1.1383 -1.3504
 1126SOL    HW2 3513   0.012   2.679   0.610  0.2262  0.6085  0.4133
 1127SOL     OW 3514   0.864   0.834   1.016 -0.2031  0.0225  1.0816
 1127SOL    HW1 3515   0.848   0.759   1.074 -0.5768  0.2418  1.2621
 1127SOL    HW2 3516   0.789   0.835   0.958  1.1231 -1.4526 -0.7927
 1128SOL     OW 3517   1.335   0.198   2.970 -0.0943 -0.2776 -0.6127
 1128SOL    HW1 3518   1.310   0.156   3.052 -1.7408  0.3215 -0.7810
 1128SOL    HW2 3519   1.343   0.127   2.907  2.0912 -0.8608  0.2188
 1129SOL     OW 3520   0.609   2.063   1.091 -0.3312 -0.1537  0.0126
 1129SOL    HW1 3521   0.659   2.109   1.159 -2.6392  2.8066 -0.1136
 1129SOL    HW2 3522   0.641   2.099   1.009 -0.3178 -0.8097 -0.2811
 1130SOL     OW 3523   0.412   2.070   2.869  0.4219 -0.2975  0.0627
 1130SOL    HW1 3524   0.494   2.116   2.849  0.5327  0.2140  1.5802
 1130SOL    HW2 3525   0.349   2.140   2.887 -0.3639 -0.6874 -1.0580
 1131SOL     OW 3526   2.068   0.651   1.881  0.1533 -0.5354 -0.0867
 1131SOL    HW1 3527   2.021   0.687   1.806  2.0902  0.2534 -0.9697
 1131SOL    HW2 3528   2.046   0.710   1.953  0.2890  0.1737 -0.6250
 1132SOL     OW 3529   1.745   2.612   0.602 -0.3632 -0.7763 -0.1393
 1132SOL    HW1 3530   1.757   2.544   0.668 -1.9961 -0.7817  0.2030
 1132SOL    HW2 3531   1.775   2.693   0.646 -1.2458 -0.8105  0.5598
 1133SOL     OW 3532   3.325   3.320   0.491  0.2749 -0.0646 -0.0320
 1133SOL    HW1 3533   3.289   3.289   0.408  1.5237  0.6029 -0.8556
 1133SOL    HW2 3534   3.249   3.352   0.540 -0.6316 -1.5617 -0.4050
 1134SOL     OW 3535   2.195   0.486   1.082 -0.1266 -0.3798 -0.4016
 1134SOL    HW1 3536   2.261   0.554   1.098  1.2641 -1.0237 -2.7957
 1134SOL    HW2 3537   2.120   0.534   1.046  0.3020  0.0626 -0.7255
 1135SOL     OW 3538   2.104   0.637   3.437  0.2033  0.1440 -0.6254
 1135SOL    HW1 3539   2.080   0.546   3.456 -1.2143  0.7107  0.5405
 1135SOL    HW2 3540   2.179   0.654   3.493 -0.1373 -0.0293 -0.1077
 1136SOL     OW 3541   0.667   1.108   0.176 -0.4832  0.2250  0.4024
 1136SOL    HW1 3542   0.715   1.081   0.098 -1.5861  0.4345 -0.3734
 1136SOL    HW2 3543   0.727   1.166   0.223 -0.0493  0.6240 -0.6283
 1137SOL     OW 3544   0.453   0.856   2.618  0.1481  0.5601  0.2346
 1137SOL    HW1 3545   0.490   0.935   2.656  4.7291 -0.7177 -0.8695
 1137SOL    HW2 3546   0.438   0.798   2.692 -0.8311  1.5218  0.8214
 1138SOL     OW 3547   1.822   3.674   0.670 -0.8164  0.2530  0.0614
 1138SOL    HW1 3548   1.785   3.641   0.752 -0.4963  4.7001  2.2885
 1138SOL    HW2 3549   1.746   3.710   0.623 -0.7314 -0.5934 -0.7545
 1139SOL     OW 3550   2.337   0.579   2.340  0.4672 -0.6706 -0.4612
 1139SOL    HW1 3551   2.262   0.574   2.280  0.2246  0.3564 -0.2692
 1139SOL    HW2 3552   2.395   0.509   2.311  0.2266 -0.3793 -1.7223
 1140SOL     OW 3553   3.381   1.717   1.189 -0.0049  0.3379 -0.0445
 1140SOL    HW1 3554   3.331   1.652   1.238 -0.6289  1.7228  1.2187
 1140SOL    HW2 3555   3.470   1.711   1.225  0.2705 -0.6938 -0.8527
 1141SOL     OW 3556   1.643   3.419   0.229 -0.1947  0.1717 -0.3931
 1141SOL    HW1 3557   1.565   3.469   0.204  0.2614  1.3367  0.3989
 1141SOL    HW2 3558   1.708   3.439   0.161  0.3327  1.5642  0.4786
 1142SOL     OW 3559   1.732   0.577   3.209  0.4098 -0.2124 -0.0867
 1142SOL    HW1 3560   1.699   0.637   3.276  1.6891  0.2726  0.1245
 1142SOL    HW2 3561   1.791   0.519   3.257 -0.6564 -1.5419 -0.3227
 1143SOL     OW 3562   3.218   3.065   1.052 -0.9896 -0.3957 -0.0858
 1143SOL    HW1 3563   3.236   3.096   1.141  0.6592  1.0025 -0.8403
 1143SOL    HW2 3564   3.223   2.970   1.058  2.0069 -0.2896  0.8194
 1144SOL     OW 3565   1.711   2.461   0.837 -0.0332 -0.2690  0.5631
 1144SOL    HW1 3566   1.786   2.402   0.841 -0.7049 -1.0596  3.1800
 1144SOL    HW2 3567   1.636   2.404   0.820 -0.3856  0.1813  0.5858
 1145SOL     OW 3568   0.417   3.051   2.757 -0.2898 -0.5159 -0.6214
 1145SOL    HW1 3569   0.431   3.007   2.673  0.2461 -0.0720 -0.7682
 1145SOL    HW2 3570   0.482   3.014   2.816 -2.4205 -2.8755  0.4232
 1146SOL     OW 3571   1.468   1.983   3.083 -0.0024 -0.4948  0.6038
 1146SOL    HW1 3572   1.494   2.048   3.148  0.2825 -1.0676  1.0666
 1146SOL    HW2 3573   1.377   1.962   3.105 -0.7989  1.2133 -0.7732
 1147SOL     OW 3574   0.072   3.044   1.695  0.4870  0.5366  0.6248
 1147SOL    HW1 3575   0.105   2.969   1.745 -0.1110  0.3563  0.7526
 1147SOL    HW2 3576  -0.016   3.059   1.729  1.1235  2.2181  1.6355
 1148SOL     OW 3577   3.622   2.346   1.481  0.5039 -0.2695 -0.5736
 1148SOL    HW1 3578   3.541   2.296   1.469 -0.2345  1.1502 -1.9747
 1148SOL    HW2 3579   3.593   2.429   1.521  1.2884  0.1572 -0.8674
 1149SOL     OW 3580   0.377   0.319   0.611 -0.1620  0.4807  0.7144
 1149SOL    HW1 3581   0.418   0.285   0.531 -1.8830  1.0195 -0.4687
 1149SOL    HW2 3582   0.336   0.243   0.652 -1.8004  0.6376 -0.5427
 1150SOL     OW 3583   0.869   1.259   1.276 -0.1691  0.4549 -0.5454
 1150SOL    HW1 3584   0.855   1.186   1.336 -0.8155  1.2452  0.3059
 1150SOL    HW2 3585   0.893   1.218   1.193 -0.9342 -0.7343 -0.2050
 1151SOL     OW 3586   0.921   2.833   0.244 -0.1473 -0.3764  0.4099
 1151SOL    HW1 3587   0.888   2.750   0.279  1.2435 -0.7825  0.8167
 1151SOL    HW2 3588   1.013   2.815   0.225 -0.1613  0.6898 -0.7603
 1152SOL     OW 3589   1.333   3.015   0.763  0.2688 -0.2536 -0.4012
 1152SOL    HW1 3590   1.278   3.027   0.840  0.7755  0.7682 -0.1828
 1152SOL    HW2 3591   1.271   2.997   0.692 -0.1658 -1.9384  0.3519
 1153SOL     OW 3592   2.284   1.530   2.288 -0.4082 -0.3493 -0.4041
 1153SOL    HW1 3593   2.196   1.537   2.251 -0.6296  0.0872  0.1761
 1153SOL    HW2 3594   2.319   1.449   2.253 -0.2825  0.4404 -2.2275
 1154SOL     OW 3595   0.030   2.543   3.172 -0.6945  0.5547 -0.4157
 1154SOL    HW1 3596  -0.017   2.625   3.159 -1.7669  0.0200 -0.0978
 1154SOL    HW2 3597   0.002   2.513   3.259  2.1544  1.4126  0.9388
 1155SOL     OW 3598   3.352   1.965   2.525  0.5830 -0.0534  0.2064
 1155SOL    HW1 3599   3.332   2.048   2.481 -0.6711 -0.5985 -0.2975
 1155SOL    HW2 3600   3.376   1.906   2.453 -1.2474 -0.8870  0.2193
 1156SOL     OW 3601   1.599   2.961   3.538 -0.3749 -0.3481 -0.5700
 1156SOL    HW1 3602   1.570   2.900   3.607 -0.5419  0.0311 -0.2969
 1156SOL    HW2 3603   1.681   2.925   3.506  0.5844  0.3434  0.9922
 1157SOL     OW 3604   1.562   2.137   2.251 -0.2362 -0.4932 -0.3361
 1157SOL    HW1 3605   1.493   2.094   2.302 -0.6203  0.2232 -0.2316
 1157SOL    HW2 3606   1.643   2.106   2.291 -0.5308  0.0388  0.7234
 1158SOL     OW 3607   0.977   1.234   0.517  0.3788 -0.3510 -0.4045
 1158SOL    HW1 3608   0.944   1.145   0.520  1.5175 -0.8053 -0.8863
 1158SOL    HW2 3609   0.904   1.288   0.550 -1.4434 -1.1217 -2.8474
 1159SOL     OW 3610   0.567   0.077   1.025 -0.0796 -0.3602  0.1606
 1159SOL    HW1 3611   0.553   0.054   1.117  1.8190  0.6522  0.7489
 1159SOL    HW2 3612   0.533   0.167   1.017 -1.1818 -0.7991 -0.4252
 1160SOL     OW 3613   2.185   3.131   0.190  0.1699  0.9808  0.0971
 1160SOL    HW1 3614   2.196   3.208   0.246 -2.4668  1.6247 -0.1279
 1160SOL    HW2 3615   2.229   3.060   0.237  0.6685  2.1539  1.4451
 1161SOL     OW 3616   1.838   3.068   2.993  0.3025  0.0148 -0.4406
 1161SOL    HW1 3617   1.757   3.017   2.995 -1.1909  2.1217 -2.0120
 1161SOL    HW2 3618   1.850   3.090   2.900  3.4628 -1.2959 -0.4470
 1162SOL     OW 3619   1.396   0.870   1.414 -0.1339 -0.1413  0.2540
 1162SOL    HW1 3620   1.447   0.927   1.471  1.1483  0.1215 -1.1106
 1162SOL    HW2 3621   1.447   0.864   1.333 -2.9120  1.2762 -1.7607
 1163SOL     OW 3622   2.755   0.973   1.009  0.4331  0.1876  0.1889
 1163SOL    HW1 3623   2.742   0.888   0.967 -0.8656 -0.2333  1.3841
 1163SOL    HW2 3624   2.666   1.007   1.021  0.8036  0.5777  2.0122
 1164SOL     OW 3625   0.635   0.669   2.759 -0.4289  0.2988  0.0632
 1164SOL    HW1 3626   0.548   0.698   2.785 -1.5380  0.4126 -3.3302
 1164SOL    HW2 3627   0.649   0.588   2.809 -2.5801  0.1128  0.4728
 1165SOL     OW 3628   1.190   3.523   0.164  0.4859 -0.1938  0.0268
 1165SOL    HW1 3629   1.132   3.457   0.203 -1.3358  0.3117 -1.6783
 1165SOL    HW2 3630   1.205   3.492   0.075 -0.3807  1.6521 -0.8038
 1166SOL     OW 3631   2.657   0.196   1.625  0.6803  0.6725 -0.4342
 1166SOL    HW1 3632   2.617   0.111   1.646 -1.3564  1.9047  1.0095
 1166SOL    HW2 3633   2.716   0.177   1.551  1.6470 -2.3040  0.9162
 1167SOL     OW 3634   0.218   1.740   3.334 -0.0731  0.0513 -0.4073
 1167SOL    HW1 3635   0.212   1.656   3.379  1.4337 -0.2717 -0.7415
 1167SOL    HW2 3636   0.127   1.763   3.313 -0.6354 -0.7296  1.0360
 1168SOL     OW 3637   1.553   2.961   0.928 -0.2551 -0.3916 -0.1526
 1168SOL    HW1 3638   1.484   2.997   0.872 -0.6734 -0.8357  0.0712
 1168SOL    HW2 3639   1.573   2.876   0.890 -0.2704 -0.5302  0.1437
 1169SOL     OW 3640   1.246   1.874   0.458 -1.0110  0.0604 -0.6220
 1169SOL    HW1 3641   1.300   1.815   0.405 -1.5898 -0.9440 -0.1441
 1169SOL    HW2 3642   1.251   1.837   0.546  1.6842  2.9203  0.5737
 1170SOL     OW 3643   2.090   3.638   3.180  0.3897 -0.2310  0.5628
 1170SOL    HW1 3644   2.124   3.572   3.241  1.7223 -0.8014 -0.7268
 1170SOL    HW2 3645   2.150   3.712   3.189 -0.8516  0.6955  1.6902
 1171SOL     OW 3646   0.121   1.042   2.682  0.2868  0.3177 -0.3519
 1171SOL    HW1 3647   0.082   1.119   2.724 -1.5040 -0.8887  0.3274
 1171SOL    HW2 3648   0.203   1.027   2.730  0.0124  1.0469  0.3569
 1172SOL     OW 3649   3.455   1.065   0.630  0.1268  0.1667 -0.2908
 1172SOL    HW1 3650   3.401   1.143   0.615  1.3347  1.0520 -0.2190
 1172SOL    HW2 3651   3.530   1.077   0.572  0.4863 -0.7843 -0.0249
 1173SOL     OW 3652   0.357   2.448   2.465  0.1292 -0.5260 -0.3195
 1173SOL    HW1 3653   0.451   2.440   2.484 -0.0035 -1.6007 -0.0003
 1173SOL    HW2 3654   0.315   2.430   2.549 -0.3573  1.4417 -0.0966
 1174SOL     OW 3655   1.864   1.847   2.247 -0.0208 -0.1981 -0.8426
 1174SOL    HW1 3656   1.956   1.849   2.220 -0.7567 -0.7795 -3.7948
 1174SOL    HW2 3657   1.816   1.830   2.166 -2.8904  1.9005  0.2405
 1175SOL     OW 3658   0.909   1.630   1.075  0.0904  0.1450  0.5905
 1175SOL    HW1 3659   0.832   1.681   1.100  0.6560  1.2279  0.2267
 1175SOL    HW2 3660   0.878   1.541   1.064 -0.6972  0.1358  2.5501
 1176SOL     OW 3661   3.395   0.588   1.642 -0.3329  0.3913  0.2185
 1176SOL    HW1 3662   3.417   0.676   1.613 -0.9538  0.4404 -0.1163
 1176SOL    HW2 3663   3.463   0.566   1.705  1.3662  0.0754 -1.6244
 1177SOL     OW 3664   3.445   2.791   0.190 -0.0950 -0.2502  0.4068
 1177SOL    HW1 3665   3.516   2.842   0.230 -0.9993  1.2649  0.1336
 1177SOL    HW2 3666   3.462   2.794   0.096 -0.5104  0.0963  0.3421
 1178SOL     OW 3667   0.332   2.301   1.435 -0.2530 -0.4689  0.3335
 1178SOL    HW1 3668   0.244   2.264   1.436 -0.4691  0.0457  0.5319
 1178SOL    HW2 3669   0.319   2.394   1.417  0.3563 -0.6718 -1.3018
 1179SOL     OW 3670   0.442   3.272   0.586  0.2073 -0.7941  0.2637
 1179SOL    HW1 3671   0.500   3.281   0.661  0.7829  1.4441 -0.3674
 1179SOL    HW2 3672   0.495   3.226   0.521  1.3626  1.2092 -0.2969
 1180SOL     OW 3673   1.640   1.898   0.942 -0.4460 -0.2213 -0.7088
 1180SOL    HW1 3674   1.722   1.884   0.988 -0.1115 -1.6133 -1.6432
 1180SOL    HW2 3675   1.603   1.810   0.931 -1.9859  0.3580 -0.4549
 1181SOL     OW 3676   0.861   3.272   0.430  0.7255 -0.0157 -0.3309
 1181SOL    HW1 3677   0.768   3.252   0.420  0.8714 -1.5754  1.0882
 1181SOL    HW2 3678   0.863   3.351   0.485  0.2470  0.4406 -0.9549
 1182SOL     OW 3679   2.813   1.039   0.139 -0.0719 -0.6429  0.3461
 1182SOL    HW1 3680   2.721   1.035   0.113 -0.0897 -0.6037  0.4018
 1182SOL    HW2 3681   2.851   1.105   0.082  0.1764 -1.4493 -0.4469
 1183SOL     OW 3682   1.537   1.385   3.058  0.4407  0.0913 -0.6772
 1183SOL    HW1 3683   1.569   1.317   2.998  2.8977 -1.1589  1.8503
 1183SOL    HW2 3684   1.614   1.437   3.078 -1.1235  2.8992 -1.4628
 1184SOL     OW 3685   1.768   2.047   2.421 -0.2293 -0.0080 -0.2928
 1184SOL    HW1 3686   1.825   1.996   2.363 -0.2490  0.5079 -0.7726
 1184SOL    HW2 3687   1.816   2.128   2.436 -0.8028  0.4012 -0.6424
 1185SOL     OW 3688   1.620   0.165   1.377 -0.5867 -0.0029  1.2525
 1185SOL    HW1 3689   1.576   0.250   1.371  0.2773  0.5077  1.8347
 1185SOL    HW2 3690   1.552   0.101   1.357 -1.2583  0.8240  0.8050
 1186SOL     OW 3691   3.136   2.028   0.465  0.3588  0.1724  0.0698
 1186SOL    HW1 3692   3.166   1.947   0.506  1.6030  1.3811  1.7278
 1186SOL    HW2 3693   3.048   2.041   0.499 -0.2273 -0.9174 -0.9508
 1187SOL     OW 3694   3.765   0.897   2.953 -0.1770 -0.3023 -0.3995
 1187SOL    HW1 3695   3.723   0.939   3.027 -0.6529 -0.8647 -0.3483
 1187SOL    HW2 3696   3.696   0.888   2.887  0.4455  1.0648 -1.3117
 1188SOL     OW 3697   0.672   2.292   0.491  0.3800 -0.5613 -0.0443
 1188SOL    HW1 3698   0.727   2.280   0.569 -0.3269 -2.0872  0.2711
 1188SOL    HW2 3699   0.671   2.386   0.476  2.2433 -0.4097  0.5321
 1189SOL     OW 3700   1.465   2.631   0.205  0.0776 -0.6397 -0.2430
 1189SOL    HW1 3701   1.479   2.701   0.268 -0.1956  0.3451 -1.2494
 1189SOL    HW2 3702   1.510   2.555   0.243  1.7993  0.5051  0.0963
 1190SOL     OW 3703   1.370   3.488   2.805 -0.0732  0.5281  0.5039
 1190SOL    HW1 3704   1.423   3.555   2.762 -0.1066  1.1840  1.4332
 1190SOL    HW2 3705   1.434   3.424   2.837 -0.1251 -0.5355 -1.4066
 1191SOL     OW 3706   0.591   1.310   1.695  0.1189 -0.2157 -0.4795
 1191SOL    HW1 3707   0.647   1.357   1.632 -1.4483  2.6337  0.0795
 1191SOL    HW2 3708   0.510   1.294   1.648  0.5916 -2.5555 -0.6472
 1192SOL     OW 3709   1.966   0.199   2.541  0.4270 -0.4640 -0.1827
 1192SOL    HW1 3710   1.924   0.113   2.539 -2.4477  0.8290  0.6349
 1192SOL    HW2 3711   1.921   0.246   2.611  0.5280  2.3858 -1.8946
 1193SOL     OW 3712   2.114   1.845   0.635 -0.6478  0.0118  0.2633
 1193SOL    HW1 3713   2.158   1.930   0.628  1.2532 -1.0641 -2.0330
 1193SOL    HW2 3714   2.141   1.812   0.721  2.7652 -0.3379 -0.7749
 1194SOL     OW 3715   1.610   2.349   3.033  0.5222  0.6384  1.0564
 1194SOL    HW1 3716   1.619   2.313   2.945  1.6659  1.2932  0.8869
 1194SOL    HW2 3717   1.674   2.420   3.036  0.8656  0.2921  2.5882
 1195SOL     OW 3718   0.836   2.456   1.626 -0.3206  0.1923  0.0737
 1195SOL    HW1 3719   0.811   2.471   1.717 -0.5974  2.3585 -0.2962
 1195SOL    HW2 3720   0.766   2.498   1.575  0.7557  0.6484 -1.0872
 1196SOL     OW 3721   3.565   2.020   1.222 -0.3635  0.3691  0.6918
 1196SOL    HW1 3722   3.602   1.957   1.160 -1.8560  2.1342 -2.1640
 1196SOL    HW2 3723   3.478   1.985   1.242 -1.8834  2.1339 -2.2051
 1197SOL     OW 3724   2.492   2.431   2.937  0.3038 -0.4234 -0.6283
 1197SOL    HW1 3725   2.478   2.439   3.032 -0.3957 -0.0739 -0.7552
 1197SOL    HW2 3726   2.516   2.339   2.924 -2.6884 -1.3409 -0.4542
 1198SOL     OW 3727   0.274   2.430   2.741  0.0867  0.0276 -0.4389
 1198SOL    HW1 3728   0.271   2.348   2.790 -2.0254 -1.0154 -2.1473
 1198SOL    HW2 3729   0.258   2.498   2.806  1.9075 -0.8521  1.0209
 1199SOL     OW 3730   0.833   1.060   2.992  0.1553  0.4622  0.5851
 1199SOL    HW1 3731   0.779   1.048   2.914 -0.4398  0.8485  0.9236
 1199SOL    HW2 3732   0.912   1.103   2.961 -0.5863  1.7035  0.3554
 1200SOL     OW 3733   0.959   3.325   2.443  0.1725  0.1423  0.6652
 1200SOL    HW1 3734   0.892   3.387   2.471 -0.5861 -0.1465 -0.4635
 1200SOL    HW2 3735   1.040   3.358   2.484 -0.0326  2.3908 -0.5654
 1201SOL     OW 3736   3.456   1.293   3.400 -0.3095 -1.0206 -0.5910
 1201SOL    HW1 3737   3.482   1.327   3.486 -2.3926 -1.6560  0.3846
 1201SOL    HW2 3738   3.538   1.270   3.357  0.9847  1.8371  0.1010
 1202SOL     OW 3739   0.618   1.316   1.338  0.3786 -0.1959 -0.7924
 1202SOL    HW1 3740   0.693   1.272   1.299 -0.2151  0.2454 -2.5408
 1202SOL    HW2 3741   0.648   1.405   1.353  0.5722 -0.3351 -0.3474
 1203SOL     OW 3742   0.189   3.011   2.872 -0.1508  0.3607 -0.0003
 1203SOL    HW1 3743   0.268   3.038   2.826  0.0749 -0.5161 -0.1308
 1203SOL    HW2 3744   0.120   3.015   2.806  0.0795 -0.4074 -0.2883
 1204SOL     OW 3745   2.462   0.528   2.880 -0.1402  0.0538  0.3128
 1204SOL    HW1 3746   2.545   0.546   2.923 -0.0016  1.2492 -0.4115
 1204SOL    HW2 3747   2.396   0.549   2.946  0.1046 -0.6756  0.8100
 1205SOL     OW 3748   2.623   1.674   1.736  0.5620  0.0515 -0.0516
 1205SOL    HW1 3749   2.679   1.639   1.667 -0.5122 -0.2634 -0.7924
 1205SOL    HW2 3750   2.579   1.597   1.772  0.4701  0.3106  0.3938
 1206SOL     OW 3751   0.248   3.416   2.362  0.4403 -0.5841 -0.1391
 1206SOL    HW1 3752   0.259   3.459   2.446 -1.3159  0.4343 -0.3792
 1206SOL    HW2 3753   0.154   3.422   2.343  0.2462 -3.6087 -0.7120
 1207SOL     OW 3754   3.156   1.783   2.585 -0.4736 -0.7842  0.2078
 1207SOL    HW1 3755   3.210   1.857   2.558 -1.1592 -0.6753 -0.9231
 1207SOL    HW2 3756   3.204   1.743   2.657  0.7714 -0.2920 -0.3292
 1208SOL     OW 3757   0.215   3.207   0.762  0.2113 -0.2707 -0.8770
 1208SOL    HW1 3758   0.227   3.155   0.842  1.1144  1.2479  0.0129
 1208SOL    HW2 3759   0.289   3.182   0.707  2.5830  2.2686  0.8542
 1209SOL     OW 3760   0.983   2.422   0.824  0.0906 -0.7656 -0.4303
 1209SOL    HW1 3761   0.896   2.461   0.836  0.5854  0.5625 -0.9709
 1209SOL    HW2 3762   0.982   2.344   0.879 -1.8755 -1.4749 -1.3742
 1210SOL     OW 3763   1.662   2.713   0.886 -0.1447 -0.1623  0.1156
 1210SOL    HW1 3764   1.729   2.762   0.934 -0.8821  1.2406 -0.2446
 1210SOL    HW2 3765   1.705   2.630   0.864  0.9372  0.0603  1.2540
 1211SOL     OW 3766   1.698   0.939   2.866  0.4676  0.1310  0.0522
 1211SOL    HW1 3767   1.729   0.877   2.931  0.8984 -2.4014 -2.3559
 1211SOL    HW2 3768   1.765   1.007   2.863  0.9608 -0.2610  1.4523
 1212SOL     OW 3769   1.775   1.517   3.117  0.4803  0.2589  0.2942
 1212SOL    HW1 3770   1.786   1.493   3.025  1.3258  1.2719  0.1050
 1212SOL    HW2 3771   1.848   1.475   3.162 -0.9655 -1.7955  0.8588
 1213SOL     OW 3772   1.760   3.469   3.319  0.0009 -0.1974 -0.3194
 1213SOL    HW1 3773   1.798   3.406   3.258 -1.7575 -0.3798 -1.2777
 1213SOL    HW2 3774   1.671   3.483   3.288  0.0772  2.2029  0.3181
 1214SOL     OW 3775   2.081   0.387   1.841  0.7905  0.7549 -0.3825
 1214SOL    HW1 3776   2.099   0.470   1.885  1.4367  1.5077 -1.9951
 1214SOL    HW2 3777   2.146   0.382   1.771 -1.4135  0.6194 -2.5889
 1215SOL     OW 3778   1.997   1.896   3.736  0.6456  0.4890 -0.3917
 1215SOL    HW1 3779   2.004   1.863   3.646 -0.9458  1.6613 -0.9865
 1215SOL    HW2 3780   1.930   1.842   3.777  1.0848  0.2193 -0.0145
 1216SOL     OW 3781   2.460   2.872   2.774 -0.3782  0.4112  0.5894
 1216SOL    HW1 3782   2.485   2.834   2.858  0.5148 -0.8182 -0.2210
 1216SOL    HW2 3783   2.542   2.893   2.731 -0.7873 -0.3285 -0.5946
 1217SOL     OW 3784   0.576   1.215   2.383  0.0106 -1.0206  0.2491
 1217SOL    HW1 3785   0.659   1.261   2.389 -0.6816  0.0914  2.0953
 1217SOL    HW2 3786   0.542   1.239   2.297  1.9868 -2.3150 -0.9823
 1218SOL     OW 3787   3.656   1.242   3.230  0.4635 -0.8083 -0.3548
 1218SOL    HW1 3788   3.655   1.333   3.200  0.4080 -1.5010 -2.5803
 1218SOL    HW2 3789   3.740   1.232   3.274  0.0515  0.5646  0.8195
 1219SOL     OW 3790   2.130   0.385   3.676  0.1286 -0.4433  0.1860
 1219SOL    HW1 3791   2.090   0.302   3.702 -3.8466  1.5447  1.2864
 1219SOL    HW2 3792   2.173   0.366   3.593 -0.2106 -3.6503  0.6199
 1220SOL     OW 3793   2.128   3.518   1.031  0.4116 -0.2157  0.2006
 1220SOL    HW1 3794   2.096   3.483   0.948 -1.3819 -0.0380  0.7851
 1220SOL    HW2 3795   2.135   3.612   1.017  0.1564 -0.1916  0.2397
 1221SOL     OW 3796   1.116   1.714   1.909 -0.0783 -0.2833 -0.2159
 1221SOL    HW1 3797   1.170   1.639   1.935  1.4777  0.5945 -0.7627
 1221SOL    HW2 3798   1.066   1.683   1.834 -0.1838 -1.0544  0.1627
 1222SOL     OW 3799   0.657   3.106   0.714  0.4666  0.0595 -0.0531
 1222SOL    HW1 3800   0.630   3.173   0.777 -2.1185 -0.8956 -0.0399
 1222SOL    HW2 3801   0.668   3.026   0.767 -3.8382 -1.3179 -0.8345
 1223SOL     OW 3802   0.883   2.970   1.712  0.5672  0.0485  0.5459
 1223SOL    HW1 3803   0.853   2.888   1.753  0.1935  0.6378  1.4841
 1223SOL    HW2 3804   0.951   2.942   1.651 -1.7547 -1.3562 -1.6095
 1224SOL     OW 3805   2.259   3.064   2.799  0.3892 -0.0500  0.2105
 1224SOL    HW1 3806   2.330   3.004   2.776  0.8069  0.0411  1.2210
 1224SOL    HW2 3807   2.293   3.115   2.873 -0.0433  1.2793 -0.4786
 1225SOL     OW 3808   0.386   2.686   2.043  0.1581 -0.3508 -0.4424
 1225SOL    HW1 3809   0.355   2.595   2.050  0.9871 -0.6527 -0.5136
 1225SOL    HW2 3810   0.455   2.692   2.108 -1.3823  0.9159  1.1671
 1226SOL     OW 3811   2.145   2.050   3.313  0.0356 -0.0415 -0.6030
 1226SOL    HW1 3812   2.229   2.057   3.268  0.9515 -1.3163  0.8322
 1226SOL    HW2 3813   2.136   2.134   3.359  2.0219 -0.9401  1.6281
 1227SOL     OW 3814   0.854   2.065   2.559 -0.1791 -0.8045  0.0964
 1227SOL    HW1 3815   0.826   2.112   2.638  2.1348  0.4341  0.2507
 1227SOL    HW2 3816   0.948   2.081   2.553  0.3952 -3.9015 -0.9341
 1228SOL     OW 3817   2.920   0.805   0.213  0.3942  0.0154 -0.2432
 1228SOL    HW1 3818   2.888   0.886   0.173  1.7849 -0.7866 -3.2710
 1228SOL    HW2 3819   2.986   0.833   0.276  0.0973  1.2867 -0.4732
 1229SOL     OW 3820   1.513   2.364   1.917 -0.1145 -0.6556  0.0412
 1229SOL    HW1 3821   1.449   2.293   1.911 -0.9564  0.1698 -1.1517
 1229SOL    HW2 3822   1.569   2.352   1.841 -2.3675  1.8673 -2.2222
 1230SOL     OW 3823   2.515   2.169   3.230 -0.1659 -0.2988  0.3182
 1230SOL    HW1 3824   2.461   2.184   3.308 -0.3481 -0.4869  0.2290
 1230SOL    HW2 3825   2.556   2.084   3.246 -0.0676 -0.2563  0.2877
 1231SOL     OW 3826   0.977   2.691   0.870  0.3708 -0.2923  0.3255
 1231SOL    HW1 3827   0.994   2.605   0.832  0.7325 -0.9819  1.9560
 1231SOL    HW2 3828   1.058   2.740   0.858  0.4651 -0.4821  0.1916
 1232SOL     OW 3829   3.426   0.080   0.268 -0.0594 -0.3486  0.3535
 1232SOL    HW1 3830   3.367   0.145   0.306  0.0849 -1.3513  2.4361
 1232SOL    HW2 3831   3.438   0.108   0.177 -1.6502  1.3293  0.6115
 1233SOL     OW 3832   1.360   2.150   2.024  0.3531 -0.4500  0.2135
 1233SOL    HW1 3833   1.360   2.065   1.980 -0.8944 -0.0088 -0.6873
 1233SOL    HW2 3834   1.395   2.132   2.111  2.5375 -1.4113 -0.7863
 1234SOL     OW 3835   0.902   2.460   2.278  0.3746 -0.4055 -0.3267
 1234SOL    HW1 3836   0.873   2.512   2.352  3.0512 -2.2754  2.2571
 1234SOL    HW2 3837   0.867   2.372   2.294 -0.2228 -0.5431 -2.1267
 1235SOL     OW 3838   0.001   2.792   3.440  0.2208 -0.6301 -0.2299
 1235SOL    HW1 3839   0.067   2.807   3.372  0.3020 -0.8457 -0.1993
 1235SOL    HW2 3840   0.003   2.698   3.455 -1.5434 -0.9460 -1.6626
 1236SOL     OW 3841   1.313   1.308   2.166 -0.2303  0.2698  0.0014
 1236SOL    HW1 3842   1.282   1.281   2.252  0.5412  1.3212  0.6293
 1236SOL    HW2 3843   1.255   1.263   2.104 -1.5759  0.4494  1.0837
 1237SOL     OW 3844   2.625   3.318   3.254 -0.1027  0.0488  0.0558
 1237SOL    HW1 3845   2.582   3.285   3.334 -0.7529 -1.1971 -0.7657
 1237SOL    HW2 3846   2.703   3.264   3.245 -0.5973 -0.5750 -0.7068
 1238SOL     OW 3847   0.499   3.609   0.611 -0.0268  0.0340 -0.2445
 1238SOL    HW1 3848   0.462   3.572   0.691  1.4575 -1.6892 -0.2862
 1238SOL    HW2 3849   0.548   3.686   0.642  0.7419 -0.7538  0.5775
 1239SOL     OW 3850   3.027   2.179   2.016 -0.3497  0.0649 -0.7852
 1239SOL    HW1 3851   3.103   2.127   2.041 -0.8739  0.1002  1.0277
 1239SOL    HW2 3852   2.964   2.114   1.985 -1.1131 -0.5282  1.7491
 1240SOL     OW 3853   3.137   1.189   0.285  0.0134 -0.8905 -1.0764
 1240SOL    HW1 3854   3.185   1.174   0.203  1.4745 -0.5808 -0.3219
 1240SOL    HW2 3855   3.053   1.226   0.257  1.0442  0.6065 -2.3948
 1241SOL     OW 3856   1.795   0.707   1.368 -0.4988 -0.3393  0.2935
 1241SOL    HW1 3857   1.753   0.736   1.288 -0.5954  0.3050  0.5764
 1241SOL    HW2 3858   1.872   0.658   1.338 -0.6185 -0.2348 -0.1899
 1242SOL     OW 3859   1.518   1.864   3.462  0.5757  1.2295  0.5914
 1242SOL    HW1 3860   1.561   1.801   3.520  1.0135  1.6166  0.6863
 1242SOL    HW2 3861   1.451   1.905   3.517 -0.3803  0.1745  0.2738
 1243SOL     OW 3862   2.500   0.950   1.293  0.0030 -0.3180  0.6082
 1243SOL    HW1 3863   2.491   0.991   1.379 -0.6097 -1.3985  1.0767
 1243SOL    HW2 3864   2.594   0.933   1.286  0.6629  3.0206 -0.5309
 1244SOL     OW 3865   3.320   3.037   1.297  0.8784 -0.3194 -0.3580
 1244SOL    HW1 3866   3.296   2.945   1.285  0.7210 -0.3345  0.0691
 1244SOL    HW2 3867   3.359   3.041   1.384  1.9049 -0.1818 -0.8088
 1245SOL     OW 3868   0.357   1.776   1.152  0.0323  0.2935  0.2659
 1245SOL    HW1 3869   0.298   1.764   1.226 -1.3567  1.2593 -0.6278
 1245SOL    HW2 3870   0.441   1.744   1.183 -0.3162  1.3835  2.5260
 1246SOL     OW 3871   3.138   2.292   3.519  0.2008 -1.0290  0.1292
 1246SOL    HW1 3872   3.215   2.235   3.517 -0.3904 -1.8517  0.2834
 1246SOL    HW2 3873   3.162   2.363   3.579  0.2355 -2.1717  1.5087
 1247SOL     OW 3874   1.965   2.923   2.562 -0.2530  0.0220 -0.4557
 1247SOL    HW1 3875   1.996   2.844   2.606 -0.3615  0.1165 -0.2048
 1247SOL    HW2 3876   1.942   2.894   2.473  0.1096 -0.1402 -0.4964
 1248SOL     OW 3877   0.239   1.167   3.596  0.1740 -0.3119  0.2899
 1248SOL    HW1 3878   0.334   1.152   3.603 -0.0307 -0.9253  2.4126
 1248SOL    HW2 3879   0.200   1.088   3.632 -1.1243  0.5570  0.8566
 1249SOL     OW 3880   2.940   2.284   0.591  0.0297  0.6112 -0.2815
 1249SOL    HW1 3881   3.029   2.319   0.590  0.4703 -0.4743 -0.9306
 1249SOL    HW2 3882   2.905   2.304   0.505 -0.1009  0.4424 -0.2687
 1250SOL     OW 3883   1.527   2.271   0.726 -0.1993  0.1399  0.1741
 1250SOL    HW1 3884   1.557   2.248   0.638  4.7984  1.0870  1.2695
 1250SOL    HW2 3885   1.468   2.345   0.713 -0.7597 -0.6550 -2.3881
 1251SOL     OW 3886   1.698   1.749   2.456  0.6018 -0.0502 -0.1342
 1251SOL    HW1 3887   1.776   1.734   2.509  1.2790  0.7679 -0.8759
 1251SOL    HW2 3888   1.718   1.828   2.406  0.3607 -1.2983 -2.2905
 1252SOL     OW 3889   0.397   0.990   0.664  0.1047  0.2720 -0.2436
 1252SOL    HW1 3890   0.373   1.069   0.617  0.4750  0.9125  0.6074
 1252SOL    HW2 3891   0.371   0.918   0.607 -1.5469  0.9779 -0.4129
 1253SOL     OW 3892   2.284   3.690   1.248  0.7989  0.2371  0.0100
 1253SOL    HW1 3893   2.222   3.736   1.305  1.1176 -1.3733  1.7490
 1253SOL    HW2 3894   2.344   3.758   1.218 -0.6085  1.4856 -0.1387
 1254SOL     OW 3895   3.010   2.956   0.178 -0.0248 -0.2877  0.1010
 1254SOL    HW1 3896   2.964   2.879   0.212 -3.4225  1.3842 -0.1827
 1254SOL    HW2 3897   3.024   3.011   0.255 -0.3997  0.0679 -0.0778
 1255SOL     OW 3898   0.573   2.518   0.286 -0.0978  0.0508 -0.6051
 1255SOL    HW1 3899   0.581   2.445   0.224 -1.0458 -1.0186  0.4565
 1255SOL    HW2 3900   0.479   2.519   0.308  0.1069  0.8433  0.2714
 1256SOL     OW 3901   1.214   2.098   2.388 -0.4092  0.7496 -0.3133
 1256SOL    HW1 3902   1.274   2.047   2.442 -2.1963  0.1835  1.2605
 1256SOL    HW2 3903   1.202   2.045   2.309 -0.3123 -0.0724  0.2069
 1257SOL     OW 3904   2.463   1.541   1.974  0.0218  0.5863 -0.1971
 1257SOL    HW1 3905   2.519   1.607   2.014 -0.5056  0.2210  1.2191
 1257SOL    HW2 3906   2.490   1.459   2.015 -1.3102  0.3634  0.2798
 1258SOL     OW 3907   1.571   0.409   3.741 -0.0528  0.2278  0.0416
 1258SOL    HW1 3908   1.535   0.321   3.736 -0.6877  0.5021 -0.4290
 1258SOL    HW2 3909   1.659   0.401   3.705 -0.2955 -0.1152 -0.4880
 1259SOL     OW 3910   2.233   0.175   2.656  0.2740 -0.3753  0.3316
 1259SOL    HW1 3911   2.167   0.218   2.601  1.2884  0.4275 -0.3070
 1259SOL    HW2 3912   2.241   0.087   2.620  1.7207  0.4760 -1.6008
 1260SOL     OW 3913   2.035   2.147   0.697 -0.0963 -0.3051 -0.8291
 1260SOL    HW1 3914   2.067   2.083   0.761  0.5272 -1.9937 -2.7461
 1260SOL    HW2 3915   2.003   2.219   0.751 -0.2098 -1.9114  1.4247
 1261SOL     OW 3916   0.223   3.144   2.011 -0.4137 -0.9559  0.5661
 1261SOL    HW1 3917   0.211   3.053   2.039 -0.0933 -1.6354 -1.3754
 1261SOL    HW2 3918   0.283   3.139   1.937 -0.7315  0.7983  0.1395
 1262SOL     OW 3919   3.603   1.341   0.677 -0.0316  0.3297 -0.3801
 1262SOL    HW1 3920   3.545   1.380   0.742  0.4371  0.3317  0.0473
 1262SOL    HW2 3921   3.560   1.357   0.593 -0.0306  1.4454 -0.1843
 1263SOL     OW 3922   1.060   1.067   3.429  0.0666  0.3893 -0.3086
 1263SOL    HW1 3923   1.151   1.068   3.459  0.0938 -0.8896 -0.3073
 1263SOL    HW2 3924   1.065   1.035   3.339 -0.4315 -0.2435 -0.1137
 1264SOL     OW 3925   2.868   2.784   2.448 -0.2672 -0.5742 -0.0639
 1264SOL    HW1 3926   2.875   2.858   2.388  0.1789  0.5634  1.3432
 1264SOL    HW2 3927   2.915   2.713   2.404  2.7550  1.0986  0.2352
 1265SOL     OW 3928  -0.003   1.900   0.994  0.6680 -0.2467 -0.0695
 1265SOL    HW1 3929   0.024   1.973   0.938  2.2203  0.3194  1.3245
 1265SOL    HW2 3930   0.078   1.851   1.011  0.3480 -0.1766  1.9373
 1266SOL     OW 3931   3.613   1.099   0.413 -0.2106  0.6267  0.8884
 1266SOL    HW1 3932   3.605   1.170   0.349  0.3706  0.8667  1.0758
 1266SOL    HW2 3933   3.696   1.117   0.458 -0.4635  0.2823  1.4947
 1267SOL     OW 3934   1.376   1.502   1.988  0.0636  0.5291  0.1678
 1267SOL    HW1 3935   1.463   1.495   2.028 -0.1499  2.3139  1.0609
 1267SOL    HW2 3936   1.322   1.439   2.037  0.4791  0.6467  0.7922
 1268SOL     OW 3937   1.004   0.440   3.496  0.3163 -0.3725  0.0725
 1268SOL    HW1 3938   0.928   0.423   3.552 -0.1555 -0.5152 -0.6054
 1268SOL    HW2 3939   1.074   0.464   3.557 -0.3178 -0.0725  0.6902
 1269SOL     OW 3940   1.858   0.789   3.037  0.3933 -0.2619  0.1958
 1269SOL    HW1 3941   1.812   0.733   3.099  1.8927 -1.6389  0.1337
 1269SOL    HW2 3942   1.885   0.729   2.967  0.7650  0.8316 -0.6161
 1270SOL     OW 3943   0.851   1.163   2.561  0.1700  0.7574  0.7828
 1270SOL    HW1 3944   0.892   1.183   2.646 -1.7922 -0.6667  2.1569
 1270SOL    HW2 3945   0.838   1.069   2.563  1.5828  0.4324 -1.8903
 1271SOL     OW 3946   0.724   2.863   2.536  0.1427  0.3121  0.6868
 1271SOL    HW1 3947   0.744   2.949   2.572  2.9350 -0.1928  0.5609
 1271SOL    HW2 3948   0.776   2.802   2.588 -0.4828 -1.1255 -0.2836
 1272SOL     OW 3949   0.259   0.332   0.214  0.5635  0.5868 -0.1185
 1272SOL    HW1 3950   0.282   0.287   0.295  1.4734 -1.0059 -1.1913
 1272SOL    HW2 3951   0.301   0.417   0.220  1.9847 -0.1268  0.4182
 1273SOL     OW 3952   3.469   0.811   2.984 -0.1827 -0.2237 -0.0497
 1273SOL    HW1 3953   3.462   0.778   3.073 -1.1823  2.7726  1.0956
 1273SOL    HW2 3954   3.527   0.886   2.991 -0.5802  0.3037 -1.8669
 1274SOL     OW 3955   2.734   3.277   3.637 -0.3875 -0.4549  0.8320
 1274SOL    HW1 3956   2.821   3.248   3.607 -1.1251  0.2883 -2.4299
 1274SOL    HW2 3957   2.753   3.338   3.708  1.8697  0.3501 -0.3393
 1275SOL     OW 3958   2.371   1.718   3.091  0.3928 -0.1927 -0.4436
 1275SOL    HW1 3959   2.281   1.717   3.058  0.4300 -2.5142 -0.6110
 1275SOL    HW2 3960   2.373   1.649   3.157  1.8320  0.4941  0.2794
 1276SOL     OW 3961   3.651   3.646   3.240  0.1538 -0.4456  0.2773
 1276SOL    HW1 3962   3.657   3.552   3.255 -0.7425 -0.5976 -0.2697
 1276SOL    HW2 3963   3.560   3.660   3.212 -0.0013  0.7128  1.2842
 1277SOL     OW 3964   0.436   2.018   0.783  0.2497  0.1194 -0.6618
 1277SOL    HW1 3965   0.528   2.013   0.757  0.8888 -1.7262  1.6561
 1277SOL    HW2 3966   0.432   2.094   0.842  1.0918 -1.6306  1.7943
 1278SOL     OW 3967   3.080   1.704   2.156  0.0288  0.2569 -0.3903
 1278SOL    HW1 3968   3.169   1.693   2.123  0.2489  2.4363 -0.6320
 1278SOL    HW2 3969   3.025   1.703   2.077  0.1342  1.5397 -0.4886
 1279SOL     OW 3970   2.348   1.226   0.107  0.4410  0.4301  0.3011
 1279SOL    HW1 3971   2.343   1.316   0.139 -0.8552  0.7753 -0.7834
 1279SOL    HW2 3972   2.318   1.231   0.016  0.6086 -1.0659  0.1370
 1280SOL     OW 3973   3.208   2.721   0.036 -0.2709 -0.1135  0.6877
 1280SOL    HW1 3974   3.247   2.745   0.120  0.3325 -0.4156  0.4919
 1280SOL    HW2 3975   3.215   2.800  -0.017  0.6566 -0.3527  0.4395
 1281SOL     OW 3976   1.834   0.518   2.954  0.9593 -0.0405 -0.6129
 1281SOL    HW1 3977   1.831   0.431   2.914  0.6586  0.3677 -1.5019
 1281SOL    HW2 3978   1.789   0.507   3.038  1.3318 -0.8395 -0.5068
 1282SOL     OW 3979   1.730   0.009   2.499  0.5095 -0.0467 -0.1042
 1282SOL    HW1 3980   1.672   0.063   2.554  1.3942  1.4478 -0.5715
 1282SOL    HW2 3981   1.782  -0.042   2.562 -2.2953 -2.6410  0.3168
 1283SOL     OW 3982   2.875   2.571   2.714 -0.0708 -0.3147  0.1803
 1283SOL    HW1 3983   2.817   2.579   2.790  3.3596  3.0450  2.8896
 1283SOL    HW2 3984   2.900   2.662   2.694  4.0258 -1.4347 -0.7609
 1284SOL     OW 3985   2.074   1.353   2.401  0.6804  0.3563  0.1339
 1284SOL    HW1 3986   2.115   1.432   2.436  1.3798  0.6633 -1.3215
 1284SOL    HW2 3987   1.995   1.383   2.357  1.1523  0.3099 -0.7634
 1285SOL     OW 3988   0.472   3.476   0.376 -0.6912  0.0905 -0.3293
 1285SOL    HW1 3989   0.441   3.399   0.424 -2.2218 -0.2800 -1.8378
 1285SOL    HW2 3990   0.498   3.538   0.444 -0.1276 -1.4720  0.9204
 1286SOL     OW 3991   2.439   3.423   0.635 -0.2174 -0.4394  0.8448
 1286SOL    HW1 3992   2.385   3.357   0.680 -1.4545  0.3487  0.5546
 1286SOL    HW2 3993   2.523   3.379   0.622 -0.7531 -1.6909  1.3633
 1287SOL     OW 3994   0.715   3.548   0.184  0.0551  0.2594 -0.2579
 1287SOL    HW1 3995   0.759   3.603   0.249  1.1434 -1.1686  0.2863
 1287SOL    HW2 3996   0.635   3.519   0.228 -0.1921  0.8699 -0.3000
 1288SOL     OW 3997   0.353   3.311   2.812 -0.1418 -0.1250 -0.3338
 1288SOL    HW1 3998   0.393   3.232   2.775  1.2066 -0.1160  0.9837
 1288SOL    HW2 3999   0.306   3.281   2.889 -0.6900  0.2063 -0.5299
 1289SOL     OW 4000   0.833   1.395   1.563  0.6256  0.1841 -0.1723
 1289SOL    HW1 4001   0.863   1.335   1.494  0.5385 -0.1382  0.0679
 1289SOL    HW2 4002   0.853   1.482   1.529 -1.1404  0.1442 -1.4586
 1290SOL     OW 4003   3.161   3.717   2.651 -0.2751  0.0222 -0.3462
 1290SOL    HW1 4004   3.240   3.664   2.661  1.2130  1.6801 -2.2997
 1290SOL    HW2 4005   3.180   3.798   2.699  1.0462  2.0786 -3.8652
 1291SOL     OW 4006   2.718   3.574   2.094  0.3122 -0.0464 -0.1538
 1291SOL    HW1 4007   2.800   3.546   2.133  0.8075 -0.5622 -1.4927
 1291SOL    HW2 4008   2.722   3.541   2.004 -0.3839  1.8389 -0.9183
 1292SOL     OW 4009   2.577   1.534   0.742 -0.4021  0.5697  0.2410
 1292SOL    HW1 4010   2.673   1.535   0.747 -0.3955  1.4598 -0.0071
 1292SOL    HW2 4011   2.551   1.467   0.805  0.4169 -0.3094 -0.3351
 1293SOL     OW 4012   1.021   1.648   0.575  0.0824 -0.0547 -0.4636
 1293SOL    HW1 4013   0.980   1.586   0.636  1.7460  1.2817  2.2127
 1293SOL    HW2 4014   1.115   1.631   0.582  0.5775  2.4722  0.1159
 1294SOL     OW 4015   1.091   3.588   3.603 -0.8254  0.0885 -0.6308
 1294SOL    HW1 4016   1.101   3.507   3.653  0.2910  0.4605 -0.2113
 1294SOL    HW2 4017   1.023   3.569   3.539  0.2528 -1.5839 -1.3304
 1295SOL     OW 4018   0.210   1.472   2.610 -0.6106  0.0081 -0.0784
 1295SOL    HW1 4019   0.243   1.384   2.593  1.1065  0.7533 -0.9002
 1295SOL    HW2 4020   0.250   1.526   2.542 -0.7063  1.6131  1.0774
 1296SOL     OW 4021   1.640   2.496   1.226 -0.3208  0.3074 -0.3598
 1296SOL    HW1 4022   1.719   2.474   1.177  0.1181 -1.0842  0.9001
 1296SOL    HW2 4023   1.597   2.412   1.242 -1.9279  1.0132 -0.7776
 1297SOL     OW 4024   0.923   0.866   2.521  0.0947  0.2559  0.4338
 1297SOL    HW1 4025   1.014   0.887   2.498  0.2524  0.4028  1.1529
 1297SOL    HW2 4026   0.871   0.909   2.453  0.6052 -0.9944 -0.8032
 1298SOL     OW 4027   3.438   0.076   0.902 -0.1387  0.1750 -0.1728
 1298SOL    HW1 4028   3.442   0.170   0.916  0.5676  0.0468  0.5833
 1298SOL    HW2 4029   3.529   0.050   0.887 -0.2463 -0.4643  0.2321
 1299SOL     OW 4030   2.547   1.917   1.885  0.2706  0.2199  0.4880
 1299SOL    HW1 4031   2.567   1.828   1.859  0.3950  0.4079 -0.0707
 1299SOL    HW2 4032   2.619   1.942   1.943 -1.2943 -1.0982  3.2191
 1300SOL     OW 4033   1.944   3.539   1.240 -0.1900 -0.1332 -0.4975
 1300SOL    HW1 4034   2.004   3.519   1.168 -1.1113 -2.6632 -0.6448
 1300SOL    HW2 4035   2.002   3.566   1.312  1.1167 -1.8808 -0.8292
 1301SOL     OW 4036   1.197   0.866   2.511  0.5200 -0.0699 -0.1912
 1301SOL    HW1 4037   1.252   0.788   2.517 -0.5312 -0.8316 -0.1010
 1301SOL    HW2 4038   1.215   0.914   2.592  1.2302 -0.1790 -0.2800
 1302SOL     OW 4039   1.617   0.341   0.716 -0.0871  0.5332  0.6503
 1302SOL    HW1 4040   1.543   0.293   0.678  0.1358  1.6202 -1.2268
 1302SOL    HW2 4041   1.578   0.394   0.786 -0.5879 -1.0378  1.6249
 1303SOL     OW 4042   2.368   3.737   3.644 -0.2423 -0.1372  0.1568
 1303SOL    HW1 4043   2.305   3.757   3.575  0.1446 -0.0659 -0.1771
 1303SOL    HW2 4044   2.383   3.643   3.636 -0.0319 -0.0913  0.0002
 1304SOL     OW 4045   3.604   0.474   2.576 -0.0001  0.0765  0.2663
 1304SOL    HW1 4046   3.566   0.387   2.565 -1.2711  0.8516 -2.4979
 1304SOL    HW2 4047   3.546   0.532   2.525  1.6025  2.3048  0.8199
 1305SOL     OW 4048   1.288   1.394   3.134  0.2062 -0.3870 -0.0732
 1305SOL    HW1 4049   1.249   1.468   3.088 -0.3699 -0.8866 -0.4056
 1305SOL    HW2 4050   1.382   1.403   3.121  0.2709  1.1743  1.2301
 1306SOL     OW 4051   2.708   3.384   0.583 -0.1019  0.3641 -0.5073
 1306SOL    HW1 4052   2.742   3.374   0.494 -2.4304  1.1585 -1.5555
 1306SOL    HW2 4053   2.765   3.451   0.622  0.1801  0.9379 -1.8342
 1307SOL     OW 4054   0.243   2.690   2.377 -0.3727  0.8444 -0.3528
 1307SOL    HW1 4055   0.329   2.732   2.366 -0.4932  0.7234 -2.0095
 1307SOL    HW2 4056   0.264   2.598   2.395 -0.1394  0.9118 -0.2760
 1308SOL     OW 4057   0.484   1.044   2.788 -1.0278  0.1000  0.0303
 1308SOL    HW1 4058   0.463   1.041   2.881 -0.1825 -2.5152  0.2182
 1308SOL    HW2 4059   0.562   1.098   2.782 -0.8572 -0.0423  0.8938
 1309SOL     OW 4060   2.544   3.499   1.295 -0.3873 -0.1267  0.2664
 1309SOL    HW1 4061   2.515   3.589   1.308 -0.8128 -0.1013 -0.7457
 1309SOL    HW2 4062   2.640   3.506   1.291 -0.2079 -0.1111  2.8368
 1310SOL     OW 4063   3.483   3.198   2.272  0.0527  0.2966  0.3602
 1310SOL    HW1 4064   3.487   3.258   2.347 -2.6389  2.3813 -0.9931
 1310SOL    HW2 4065   3.513   3.250   2.198 -1.1172 -0.4012 -0.6463
 1311SOL     OW 4066   0.864   2.881   3.178 -0.5812 -0.1585 -0.5426
 1311SOL    HW1 4067   0.895   2.808   3.124 -0.6459 -1.2666  0.8547
 1311SOL    HW2 4068   0.821   2.839   3.252 -1.0987  1.3209  0.0285
 1312SOL     OW 4069   2.918   2.020   0.210 -0.2656 -0.1926 -0.3868
 1312SOL    HW1 4070   2.895   2.050   0.298  0.2920  2.1750 -0.9516
 1312SOL    HW2 4071   2.852   1.955   0.188 -0.7677 -0.4017  1.5467
 1313SOL     OW 4072   2.075   2.703   3.641 -0.1964 -0.2129  0.2827
 1313SOL    HW1 4073   2.151   2.697   3.584 -0.6200  0.6132 -0.3787
 1313SOL    HW2 4074   2.096   2.774   3.702 -0.1592 -0.4383  0.5366
 1314SOL     OW 4075   0.129   3.515   1.361 -0.4055  0.4227  0.7855
 1314SOL    HW1 4076   0.046   3.473   1.384 -0.0551 -0.8265 -0.1036
 1314SOL    HW2 4077   0.163   3.549   1.443 -0.5999 -1.2609  1.6002
 1315SOL     OW 4078   3.436   3.535   0.272 -0.2828  0.5015  0.9353
 1315SOL    HW1 4079   3.342   3.525   0.288 -0.7893  3.2074  0.0978
 1315SOL    HW2 4080   3.450   3.629   0.266  2.2342  0.1344 -0.4950
 1316SOL     OW 4081   0.561   2.439   2.686 -0.8650 -0.0536 -0.2972
 1316SOL    HW1 4082   0.585   2.515   2.738 -1.5364  0.1918 -0.3494
 1316SOL    HW2 4083   0.466   2.431   2.695 -1.3379  1.2615 -3.1613
 1317SOL     OW 4084   2.631   1.788   2.098 -0.1843 -0.0843  0.0555
 1317SOL    HW1 4085   2.555   1.803   2.154 -0.3054 -2.5222  0.6185
 1317SOL    HW2 4086   2.703   1.832   2.144 -1.1206  1.9680 -0.3261
 1318SOL     OW 4087   3.202   3.142   2.865 -0.1668  0.2618  0.3724
 1318SOL    HW1 4088   3.202   3.228   2.908 -5.2023  1.2763 -0.9859
 1318SOL    HW2 4089   3.190   3.080   2.937  0.4958  0.9934  1.1309
 1319SOL     OW 4090   2.140   1.507   2.774 -0.4765 -0.0116 -0.0875
 1319SOL    HW1 4091   2.206   1.515   2.705  1.1587  0.7051  1.4743
 1319SOL    HW2 4092   2.167   1.431   2.824 -0.8399  0.2903  0.5763
 1320SOL     OW 4093   2.089   0.922   1.421  0.2639 -0.3485 -0.1339
 1320SOL    HW1 4094   2.007   0.914   1.373 -0.4296  1.6752  0.6140
 1320SOL    HW2 4095   2.127   1.004   1.390  1.1701 -0.4247  0.7289
 1321SOL     OW 4096   1.114   2.378   1.790  0.1957  0.0496  0.7053
 1321SOL    HW1 4097   1.058   2.436   1.840  0.6348  0.9883  0.1384
 1321SOL    HW2 4098   1.078   2.380   1.701  0.8216  0.2818  0.4452
 1322SOL     OW 4099   2.838   0.300   3.060 -0.5775 -0.2340  0.9592
 1322SOL    HW1 4100   2.824   0.237   3.131  1.3226  0.5361  2.1239
 1322SOL    HW2 4101   2.934   0.306   3.053 -0.6598 -1.1060 -2.4859
 1323SOL     OW 4102   2.036   3.671   1.942  0.3840  0.0382 -0.1102
 1323SOL    HW1 4103   1.986   3.748   1.915  1.7023  0.6054 -1.0846
 1323SOL    HW2 4104   2.097   3.704   2.009  1.8824  0.1986 -1.4853
 1324SOL     OW 4105   1.142   3.251   1.239  0.2282  0.3621  0.0048
 1324SOL    HW1 4106   1.058   3.268   1.283 -1.2120 -2.4126 -1.3489
 1324SOL    HW2 4107   1.195   3.208   1.306  0.5770  2.0117  0.8361
 1325SOL     OW 4108   0.536   0.214   2.938 -0.2370 -0.2220  1.0832
 1325SOL    HW1 4109   0.512   0.218   3.031 -0.2119  2.6495  1.0648
 1325SOL    HW2 4110   0.610   0.153   2.935  0.8579  0.8555  3.2619
 1326SOL     OW 4111   0.577   1.251   0.415 -0.1103 -0.2609 -0.1156
 1326SOL    HW1 4112   0.649   1.267   0.355  0.0595  0.0133  0.1568
 1326SOL    HW2 4113   0.619   1.243   0.501 -0.2597 -1.4646 -0.1312
 1327SOL     OW 4114   1.617   0.805   0.312  0.4414 -0.2072  0.5243
 1327SOL    HW1 4115   1.651   0.879   0.363 -0.1402  0.4856 -0.0749
 1327SOL    HW2 4116   1.666   0.807   0.230  0.3004 -0.3765  0.4342
 1328SOL     OW 4117   1.231   1.230   1.623 -0.5309 -0.9213  0.1100
 1328SOL    HW1 4118   1.212   1.318   1.591  2.1184  0.3488  1.7090
 1328SOL    HW2 4119   1.265   1.183   1.547  1.8204  0.7493  0.0470
 1329SOL     OW 4120   0.759   1.697   3.496 -0.1205 -0.5443  0.1578
 1329SOL    HW1 4121   0.811   1.669   3.421  0.7403 -0.9287  0.8788
 1329SOL    HW2 4122   0.824   1.715   3.564 -0.9798 -2.1304  1.4538
 1330SOL     OW 4123   1.328   1.955   3.661 -0.0349  0.0927 -0.6125
 1330SOL    HW1 4124   1.294   1.868   3.683 -0.8399  0.3871 -0.6749
 1330SOL    HW2 4125   1.395   1.972   3.728 -0.8466  0.0075  0.2437
 1331SOL     OW 4126   0.554   0.130   0.481 -0.1582 -0.1022  0.6241
 1331SOL    HW1 4127   0.623   0.104   0.420  0.3693  2.5519  0.0019
 1331SOL    HW2 4128   0.599   0.135   0.566  0.1239  0.3932  0.4475
 1332SOL     OW 4129   3.219   1.957   1.518 -0.1776  0.0851 -0.4278
 1332SOL    HW1 4130   3.255   1.949   1.607  1.7588 -1.0491 -1.2494
 1332SOL    HW2 4131   3.175   1.873   1.503 -2.5502  1.1044  0.2103
 1333SOL     OW 4132   1.053   3.292   2.124 -0.4130 -0.0512  0.1496
 1333SOL    HW1 4133   1.031   3.282   2.032 -1.0309 -0.7528  0.3686
 1333SOL    HW2 4134   1.044   3.386   2.141 -1.6671 -0.0950 -0.1713
 1334SOL     OW 4135   1.217   1.868   3.097  0.9106 -0.2294 -0.2399
 1334SOL    HW1 4136   1.206   1.774   3.084 -0.9647 -0.6468  3.1697
 1334SOL    HW2 4137   1.131   1.906   3.080  0.3522  0.1145  2.7687
 1335SOL     OW 4138   0.513   1.120   3.636  0.5744 -0.1928  0.5162
 1335SOL    HW1 4139   0.604   1.144   3.653  0.9638 -1.7761  0.9079
 1335SOL    HW2 4140   0.520   1.043   3.579 -0.6183  1.7147 -2.3950
 1336SOL     OW 4141   2.348   2.617   0.458  0.1417  0.8364  0.5448
 1336SOL    HW1 4142   2.410   2.672   0.409  0.1512 -1.4145 -2.1880
 1336SOL    HW2 4143   2.400   2.579   0.529  1.3003  0.8385 -0.2825
 1337SOL     OW 4144   0.575   3.568   0.923  0.2949 -0.5266 -0.0954
 1337SOL    HW1 4145   0.570   3.661   0.943  1.2622 -0.4812 -0.0399
 1337SOL    HW2 4146   0.484   3.537   0.931 -0.1847  0.5762 -1.0315
 1338SOL     OW 4147   0.459   0.483   3.059  0.0673 -0.2265  0.1547
 1338SOL    HW1 4148   0.544   0.523   3.079  0.9414 -2.0931  0.4839
 1338SOL    HW2 4149   0.454   0.485   2.964  0.5074 -0.1222  0.1280
 1339SOL     OW 4150   3.269   0.657   1.320 -0.3351 -0.0749 -0.6494
 1339SOL    HW1 4151   3.339   0.668   1.384 -1.5537  0.8722  0.5822
 1339SOL    HW2 4152   3.209   0.729   1.337 -1.3484 -0.5498 -2.0215
 1340SOL     OW 4153   0.397   1.246   0.182  0.2009  0.2606  0.4483
 1340SOL    HW1 4154   0.454   1.236   0.258 -2.1107 -2.6507  2.0347
 1340SOL    HW2 4155   0.450   1.217   0.108  1.6989  0.6571  1.3278
 1341SOL     OW 4156   2.181   3.328   1.672  0.1445  0.5255  0.4386
 1341SOL    HW1 4157   2.264   3.286   1.691 -0.1752  0.8258  2.7030
 1341SOL    HW2 4158   2.194   3.370   1.586  1.7380 -0.8331 -0.0184
 1342SOL     OW 4159   2.022   1.221   0.835 -0.5578 -0.4180  0.2089
 1342SOL    HW1 4160   1.931   1.210   0.864 -1.2064  1.2532 -1.0277
 1342SOL    HW2 4161   2.016   1.224   0.740  1.1822 -2.9995 -0.0739
 1343SOL     OW 4162   1.052   3.450   1.885  0.3916 -0.2069  0.5312
 1343SOL    HW1 4163   1.144   3.425   1.894  0.2771 -0.5312  0.8463
 1343SOL    HW2 4164   1.040   3.521   1.949  0.7416  0.7413 -0.4350
 1344SOL     OW 4165   1.987   0.740   1.642  0.4066  0.4777  0.5350
 1344SOL    HW1 4166   2.032   0.774   1.564 -0.7385  0.2591 -0.2332
 1344SOL    HW2 4167   1.894   0.754   1.625 -0.0873 -2.2898  0.5282
 1345SOL     OW 4168   2.729   1.241   1.196  0.7237  0.4106  0.1929
 1345SOL    HW1 4169   2.792   1.299   1.153 -0.0240 -0.0485 -1.6353
 1345SOL    HW2 4170   2.778   1.202   1.268  1.8145  1.8347  0.2631
 1346SOL     OW 4171   1.163   1.504   1.583 -0.1782  0.0916  0.1345
 1346SOL    HW1 4172   1.230   1.515   1.516 -0.4123  0.3139 -0.0635
 1346SOL    HW2 4173   1.090   1.558   1.554 -0.4038 -0.0620  0.4052
 1347SOL     OW 4174   3.378   0.784   2.713  0.4346  0.4731 -0.8777
 1347SOL    HW1 4175   3.389   0.802   2.806  1.5843  0.5769 -1.0249
 1347SOL    HW2 4176   3.453   0.825   2.671 -0.3669  0.9063 -1.9209
 1348SOL     OW 4177   1.296   0.038   2.773 -0.3735  0.2589  0.4441
 1348SOL    HW1 4178   1.204   0.041   2.801  0.0426  2.5404  1.8621
 1348SOL    HW2 4179   1.294  -0.010   2.690 -2.7998 -0.0296  0.5825
 1349SOL     OW 4180   0.856   1.249   3.319 -0.6565 -0.3796  0.0918
 1349SOL    HW1 4181   0.937   1.202   3.339 -0.8742 -0.9969 -0.4594
 1349SOL    HW2 4182   0.884   1.340   3.307  0.1096 -0.7381 -0.9983
 1350SOL     OW 4183   0.820   2.750   2.786  0.0665  0.2921 -0.0195
 1350SOL    HW1 4184   0.888   2.817   2.788  0.5152 -0.0968  2.7815
 1350SOL    HW2 4185   0.856   2.679   2.840 -3.0510  0.7344  3.0266
 1351SOL     OW 4186   2.041   1.169   3.577 -0.3393 -0.7627 -0.1232
 1351SOL    HW1 4187   2.054   1.079   3.546  0.7957 -0.2017 -1.3974
 1351SOL    HW2 4188   2.121   1.215   3.552 -0.4647  0.3859  1.4153
 1352SOL     OW 4189   1.784   1.278   2.687 -0.5539  0.1020 -0.2313
 1352SOL    HW1 4190   1.717   1.246   2.748 -2.0576 -0.3613 -2.0087
 1352SOL    HW2 4191   1.857   1.218   2.699 -0.6210  0.2887  1.3882
 1353SOL     OW 4192   0.125   3.001   1.431  0.4939 -0.6395 -0.6137
 1353SOL    HW1 4193   0.202   2.950   1.455 -0.1399 -2.1951 -1.6518
 1353SOL    HW2 4194   0.079   3.017   1.513  0.5313 -2.1171 -0.2753
 1354SOL     OW 4195   3.620   0.279   0.403 -0.5949 -0.0465 -0.1109
 1354SOL    HW1 4196   3.703   0.319   0.379  1.3650 -0.3132  4.9641
 1354SOL    HW2 4197   3.632   0.186   0.385  0.4264 -0.1236  0.8265
 1355SOL     OW 4198   2.295   0.508   1.379  0.6458 -0.5324 -0.1658
 1355SOL    HW1 4199   2.340   0.553   1.308 -0.8479 -0.1388 -0.8815
 1355SOL    HW2 4200   2.278   0.576   1.444 -0.2308 -0.3755 -0.5569
 1356SOL     OW 4201   2.045   1.804   0.289 -0.2533 -0.0020 -0.4566
 1356SOL    HW1 4202   2.073   1.864   0.220 -1.8139  0.7347 -0.4943
 1356SOL    HW2 4203   2.048   1.856   0.369 -2.5106  0.4896 -0.6196
 1357SOL     OW 4204   2.734   3.252   1.455  1.0363  0.3258 -0.4247
 1357SOL    HW1 4205   2.801   3.187   1.431  0.3866  0.0950 -1.7036
 1357SOL    HW2 4206   2.653   3.218   1.416 -0.2697 -0.3631  2.6023
 1358SOL     OW 4207   3.522   1.685   0.433  0.3158  0.0093  0.2852
 1358SOL    HW1 4208   3.468   1.764   0.435 -0.0246 -0.2349  1.3352
 1358SOL    HW2 4209   3.541   1.666   0.525 -0.2701 -1.5802  0.1129
 1359SOL     OW 4210   1.702   3.526   1.828 -0.3127  0.4614  0.7094
 1359SOL    HW1 4211   1.718   3.598   1.889  0.8335  0.6700  0.1849
 1359SOL    HW2 4212   1.735   3.558   1.744 -3.2362  0.7739 -0.4251
 1360SOL     OW 4213   1.652   0.685   2.589 -0.3227  0.2554 -0.1793
 1360SOL    HW1 4214   1.673   0.767   2.544  0.4351 -0.2056 -0.7010
 1360SOL    HW2 4215   1.728   0.669   2.645 -0.4789 -0.0707 -0.0604
 1361SOL     OW 4216   2.357   1.707   0.268 -0.1453  0.2557 -0.3736
 1361SOL    HW1 4217   2.279   1.762   0.279 -1.8362 -2.0807  0.0225
 1361SOL    HW2 4218   2.329   1.620   0.296  3.3891 -0.2009  2.4059
 1362SOL     OW 4219   2.168   2.530   2.144  0.1746 -0.8043  0.0789
 1362SOL    HW1 4220   2.142   2.439   2.127  3.0919 -1.5757 -0.8307
 1362SOL    HW2 4221   2.165   2.537   2.239  0.6642 -2.1227  0.2190
 1363SOL     OW 4222   0.189   1.769   1.349  0.4617 -0.4725 -0.6143
 1363SOL    HW1 4223   0.258   1.817   1.395  0.5805 -1.7154  0.5774
 1363SOL    HW2 4224   0.107   1.809   1.379  0.5985 -0.2543 -0.5357
 1364SOL     OW 4225   1.979   3.079   2.119 -0.4103  0.3520  0.6265
 1364SOL    HW1 4226   1.909   3.144   2.121  0.5092  1.3565  0.9783
 1364SOL    HW2 4227   2.055   3.124   2.155  0.4968 -0.6356  0.0085
 1365SOL     OW 4228   3.023   1.406   3.502 -0.1483 -0.2038 -0.2401
 1365SOL    HW1 4229   2.937   1.412   3.459 -0.2328 -0.4182 -0.1043
 1365SOL    HW2 4230   3.072   1.344   3.449  0.3211  0.7552 -0.9720
 1366SOL     OW 4231   1.693   3.176   3.240 -0.0321  0.1617  0.3174
 1366SOL    HW1 4232   1.629   3.111   3.211 -0.4955  0.7434  0.0109
 1366SOL    HW2 4233   1.768   3.164   3.183  0.7458 -1.5050  1.6030
 1367SOL     OW 4234   3.055   0.714   0.803 -0.2716 -0.7706 -0.3806
 1367SOL    HW1 4235   3.048   0.732   0.896  0.3137 -0.4200 -0.4007
 1367SOL    HW2 4236   2.982   0.655   0.784 -0.8582 -0.2193  0.1356
 1368SOL     OW 4237   3.692   3.263   0.728 -0.0457 -0.2628 -0.0798
 1368SOL    HW1 4238   3.693   3.323   0.653 -1.7570 -1.0844 -0.8289
 1368SOL    HW2 4239   3.782   3.233   0.736  0.2674  0.2029 -1.5350
 1369SOL     OW 4240   3.070   1.958   2.856 -0.1041 -0.5913 -0.4815
 1369SOL    HW1 4241   3.084   2.002   2.940  0.1263 -2.0133  0.2571
 1369SOL    HW2 4242   3.153   1.912   2.839  0.1073  0.2620 -1.8552
 1370SOL     OW 4243   2.237   3.137   1.111  0.2292  0.0755  0.3951
 1370SOL    HW1 4244   2.221   3.180   1.195 -0.2109 -0.5292  0.6265
 1370SOL    HW2 4245   2.213   3.045   1.126  0.1246 -0.0335 -0.3956
 1371SOL     OW 4246   3.630   1.472   3.565  0.2481  0.2056 -0.2110
 1371SOL    HW1 4247   3.615   1.501   3.654  2.9793 -1.8040  1.0642
 1371SOL    HW2 4248   3.725   1.482   3.552  0.2831 -1.6816 -2.0025
 1372SOL     OW 4249   0.968   0.108   3.722  0.1011  0.5577 -0.5059
 1372SOL    HW1 4250   1.022   0.038   3.686 -2.8763 -1.3198 -1.6775
 1372SOL    HW2 4251   0.917   0.140   3.647 -3.4885 -0.8035  1.1308
 1373SOL     OW 4252   2.199   1.649   1.578  0.2465 -0.6245 -0.2468
 1373SOL    HW1 4253   2.223   1.561   1.606 -0.1377 -1.0725 -1.2790
 1373SOL    HW2 4254   2.206   1.702   1.658  2.5249 -1.1389 -0.0342
 1374SOL     OW 4255   1.699   2.560   2.021 -0.2401  0.2417  0.1438
 1374SOL    HW1 4256   1.637   2.491   1.996  0.6705 -0.1570 -1.1368
 1374SOL    HW2 4257   1.662   2.597   2.101 -0.6359 -1.8982  1.0363
 1375SOL     OW 4258   0.651   0.554   3.346  0.3943  0.2969  0.4128
 1375SOL    HW1 4259   0.568   0.545   3.393 -0.3542 -0.5622 -1.0070
 1375SOL    HW2 4260   0.675   0.464   3.323  1.5624  0.5658  0.5246
 1376SOL     OW 4261   0.493   1.686   0.425 -0.0694  0.5771 -0.7320
 1376SOL    HW1 4262   0.556   1.753   0.400  1.5290 -0.1952  0.9576
 1376SOL    HW2 4263   0.408   1.724   0.404  0.8055  2.8325 -0.4755
 1377SOL     OW 4264   0.565   1.261   2.113 -0.2322 -0.4808  0.3602
 1377SOL    HW1 4265   0.611   1.201   2.054  0.9060  0.1228  0.6002
 1377SOL    HW2 4266   0.475   1.260   2.083  0.0094 -1.4197 -0.3717
 1378SOL     OW 4267   0.217   2.598   1.693  0.1979  0.6375 -0.4381
 1378SOL    HW1 4268   0.166   2.556   1.761 -0.3122 -1.1217 -1.8275
 1378SOL    HW2 4269   0.263   2.670   1.737 -1.7303  0.8768  1.2839
 1379SOL     OW 4270   2.948   3.388   2.114  0.4725  0.6493 -0.1729
 1379SOL    HW1 4271   2.947   3.403   2.019  0.0475 -0.0314 -0.2892
 1379SOL    HW2 4272   3.040   3.391   2.138  0.4687  2.7233 -0.2751
 1380SOL     OW 4273   0.152   1.611   0.752  0.4341  0.0798 -0.1835
 1380SOL    HW1 4274   0.218   1.672   0.784 -1.5782  1.3819  1.7885
 1380SOL    HW2 4275   0.149   1.541   0.817  0.4336 -0.4214 -0.7085
 1381SOL     OW 4276   2.431   3.303   1.444  0.0658 -0.4008  0.1465
 1381SOL    HW1 4277   2.498   3.365   1.417 -0.5403 -0.3929 -1.4423
 1381SOL    HW2 4278   2.348   3.347   1.424 -0.3922 -1.2516  0.1194
 1382SOL     OW 4279   1.065   1.043   2.227  0.5161 -0.0098 -0.0726
 1382SOL    HW1 4280   1.117   0.964   2.238 -0.6864 -0.8306 -0.0137
 1382SOL    HW2 4281   1.016   1.028   2.146 -0.2945  0.3115  0.3417
 1383SOL     OW 4282   1.089   0.495   0.618 -1.2780 -0.3151 -0.0237
 1383SOL    HW1 4283   1.105   0.417   0.565 -0.3170 -0.9199  1.0817
 1383SOL    HW2 4284   1.115   0.468   0.707  1.1980  1.9056  0.0301
 1384SOL     OW 4285   0.085   1.174   2.042  0.1803  0.0043  0.9058
 1384SOL    HW1 4286   0.115   1.150   2.129  1.7583  1.7496  0.8977
 1384SOL    HW2 4287   0.165   1.186   1.991 -0.6699  0.2931 -0.4220
 1385SOL     OW 4288   2.849   0.898   1.527  0.6153  0.1759 -0.1673
 1385SOL    HW1 4289   2.769   0.912   1.578  1.2931  0.6153  0.8127
 1385SOL    HW2 4290   2.878   0.810   1.552  1.7405  0.9382  1.3984
 1386SOL     OW 4291   3.683   1.797   3.346 -0.1346  0.8333  0.0118
 1386SOL    HW1 4292   3.659   1.887   3.366 -1.0499  0.2790  1.6569
 1386SOL    HW2 4293   3.600   1.748   3.352  0.6582 -0.4620  1.5597
 1387SOL     OW 4294   2.307   0.083   3.166  0.5592  0.4391 -0.5036
 1387SOL    HW1 4295   2.263   0.150   3.113 -1.9049  1.0185  2.0271
 1387SOL    HW2 4296   2.400   0.095   3.147  0.0107  2.7251 -2.1979
 1388SOL     OW 4297   2.463   2.791   3.394  0.3132 -0.2127 -0.3063
 1388SOL    HW1 4298   2.417   2.865   3.355 -0.0692  0.3963  1.2321
 1388SOL    HW2 4299   2.531   2.831   3.448 -0.0489 -0.9611  0.7300
 1389SOL     OW 4300   1.072   2.128   1.914 -0.4927 -0.1759  0.4916
 1389SOL    HW1 4301   1.083   2.190   1.842 -1.2254 -1.7373 -1.0387
 1389SOL    HW2 4302   1.162   2.109   1.942 -0.2252  0.9413  0.4325
 1390SOL     OW 4303   3.551   0.432   0.699  0.3844 -0.0993 -0.0351
 1390SOL    HW1 4304   3.640   0.460   0.716  0.3754 -0.2651  0.2815
 1390SOL    HW2 4305   3.511   0.421   0.785  0.3006 -0.8073 -0.1560
 1391SOL     OW 4306   1.502   1.019   3.391 -0.0817 -0.1825 -0.0264
 1391SOL    HW1 4307   1.439   0.949   3.411  1.0642 -0.7960  1.6109
 1391SOL    HW2 4308   1.466   1.097   3.434 -1.1414  0.1885 -1.4986
 1392SOL     OW 4309   2.634   1.658   2.616  0.1791 -0.1021 -0.4040
 1392SOL    HW1 4310   2.546   1.696   2.613 -0.9688 -2.5467 -0.9450
 1392SOL    HW2 4311   2.652   1.646   2.709 -0.2228  0.1205 -0.2955
 1393SOL     OW 4312   3.695   2.675   2.265  0.7827 -0.1645 -0.0628
 1393SOL    HW1 4313   3.784   2.685   2.298  0.3492  1.5577  0.7104
 1393SOL    HW2 4314   3.668   2.764   2.244 -0.7955 -0.6556 -0.1985
 1394SOL     OW 4315   2.980   0.607   0.486 -0.3280 -0.2471  0.2608
 1394SOL    HW1 4316   2.938   0.691   0.505 -0.5029 -0.4733  0.8811
 1394SOL    HW2 4317   2.914   0.542   0.506  0.2760 -0.6023  1.1411
 1395SOL     OW 4318   1.014   0.764   1.503 -0.3807 -0.4670 -0.0196
 1395SOL    HW1 4319   0.925   0.752   1.536 -0.2701 -2.6278 -0.3703
 1395SOL    HW2 4320   1.065   0.789   1.580 -0.7914 -1.9307  0.7467
 1396SOL     OW 4321   1.276   0.522   2.035 -0.1942  0.1764  0.2499
 1396SOL    HW1 4322   1.273   0.539   1.941  0.2937  0.1286  0.2238
 1396SOL    HW2 4323   1.187   0.540   2.065 -0.5666 -0.6122 -0.3505
 1397SOL     OW 4324   2.240   0.956   2.394 -0.1163 -0.6303 -0.1087
 1397SOL    HW1 4325   2.244   0.890   2.463 -1.1041 -3.8332 -2.8391
 1397SOL    HW2 4326   2.331   0.968   2.367  0.0828 -0.7960  0.4834
 1398SOL     OW 4327   3.482   3.158   3.501 -0.0042  0.2281 -0.5350
 1398SOL    HW1 4328   3.448   3.108   3.575  1.5659 -1.2857 -0.7605
 1398SOL    HW2 4329   3.425   3.234   3.494 -0.7959 -0.1265  1.5832
 1399SOL     OW 4330   2.981   1.681   3.489  0.6677 -0.3965  0.6117
 1399SOL    HW1 4331   3.046   1.740   3.451  0.1366  2.0381  3.1712
 1399SOL    HW2 4332   3.021   1.594   3.483  2.3111  0.4289 -1.5976
 1400SOL     OW 4333   0.493   1.651   3.448  0.2547 -1.0134  0.0503
 1400SOL    HW1 4334   0.445   1.712   3.503  1.0281  1.5845 -1.9167
 1400SOL    HW2 4335   0.585   1.673   3.463  0.4886  0.0922 -2.4191
 1401SOL     OW 4336   0.915   2.628   3.088  0.0841 -1.1461 -0.2979
 1401SOL    HW1 4337   0.963   2.561   3.138 -0.6022 -0.5742  1.1956
 1401SOL    HW2 4338   0.823   2.608   3.104 -0.1359  0.6062  0.8674
 1402SOL     OW 4339   0.790   2.647   0.375 -0.2671  0.4567  0.6734
 1402SOL    HW1 4340   0.844   2.591   0.431 -0.7137  0.5417  1.1943
 1402SOL    HW2 4341   0.706   2.601   0.368  0.3319 -0.4291 -1.3666
 1403SOL     OW 4342   0.343   2.503   3.690  0.4732 -1.0891  0.5072
 1403SOL    HW1 4343   0.325   2.521   3.597 -1.4961  0.1983  1.0668
 1403SOL    HW2 4344   0.425   2.454   3.689  2.2423  1.5574 -1.7271
 1404SOL     OW 4345   1.524   3.151   2.160 -0.1753  0.3582  0.5128
 1404SOL    HW1 4346   1.599   3.189   2.116 -0.4789 -1.4057 -1.7211
 1404SOL    HW2 4347   1.537   3.056   2.153 -2.0512  0.0127  1.0755
 1405SOL     OW 4348   2.236   1.442   0.254  0.2744  0.2993 -0.3068
 1405SOL    HW1 4349   2.168   1.408   0.313  1.3846 -1.4504  0.0424
 1405SOL    HW2 4350   2.188   1.474   0.178 -0.9923 -0.1738  0.2610
 1406SOL     OW 4351   3.696   3.226   2.872  0.5293  0.1428  0.2650
 1406SOL    HW1 4352   3.749   3.252   2.797 -0.8830  0.3745 -0.6834
 1406SOL    HW2 4353   3.625   3.290   2.875  2.0186  1.8728  3.5397
 1407SOL     OW 4354   0.908   3.482   3.411 -0.1238  0.3088 -0.6806
 1407SOL    HW1 4355   0.841   3.455   3.474 -0.8159 -0.1648 -1.5956
 1407SOL    HW2 4356   0.865   3.548   3.357  0.6853  1.2190 -0.2315
 1408SOL     OW 4357   3.351   2.819   0.796 -0.0102 -0.1497  0.4048
 1408SOL    HW1 4358   3.431   2.869   0.778 -0.2388  0.0427 -0.0847
 1408SOL    HW2 4359   3.350   2.750   0.730  0.5115 -1.0677  1.3218
 1409SOL     OW 4360   3.429   1.265   1.633  0.1663  0.1192  0.0532
 1409SOL    HW1 4361   3.505   1.231   1.680  0.7233  0.7063 -0.4013
 1409SOL    HW2 4362   3.447   1.359   1.622  0.5795 -0.1612 -2.2262
 1410SOL     OW 4363   1.553   2.766   1.158  0.3486 -0.0441 -1.2050
 1410SOL    HW1 4364   1.615   2.694   1.168 -0.9370 -0.9862  0.7280
 1410SOL    HW2 4365   1.606   2.845   1.168  1.4419 -0.7838 -0.9489
 1411SOL     OW 4366   1.928   3.612   2.240 -0.1287  0.1016  0.2385
 1411SOL    HW1 4367   1.880   3.657   2.308 -1.0867  1.5452 -1.3128
 1411SOL    HW2 4368   1.861   3.581   2.179  0.7704  1.9278 -1.8405
 1412SOL     OW 4369   0.829   3.640   2.379  0.7129  0.5596  0.0388
 1412SOL    HW1 4370   0.804   3.582   2.451 -2.2771  2.1751  0.5042
 1412SOL    HW2 4371   0.806   3.591   2.300  0.2807  0.2551  0.3464
 1413SOL     OW 4372   0.075   3.140   2.459 -0.6737  0.0902 -0.0719
 1413SOL    HW1 4373   0.093   3.203   2.528 -1.0832 -0.0620  0.1780
 1413SOL    HW2 4374   0.161   3.116   2.424 -0.2353 -1.7177  2.0513
 1414SOL     OW 4375   3.216   3.660   3.387 -0.6092  0.2291  0.2016
 1414SOL    HW1 4376   3.200   3.715   3.463 -1.1383  1.8371 -1.0214
 1414SOL    HW2 4377   3.148   3.592   3.391 -0.7228  0.3915  1.0743
 1415SOL     OW 4378   2.419   1.237   2.248  0.0431 -0.3769  0.6397
 1415SOL    HW1 4379   2.457   1.178   2.313 -0.2255  0.1337  1.2718
 1415SOL    HW2 4380   2.330   1.203   2.235  0.3079 -0.8651  0.0437
 1416SOL     OW 4381   1.550   1.988   0.110 -0.1422  0.5365 -0.1956
 1416SOL    HW1 4382   1.534   2.008   0.202 -0.7036  0.2259 -0.2269
 1416SOL    HW2 4383   1.646   1.991   0.102 -0.1229  1.3519  0.2163
 1417SOL     OW 4384   1.000   2.104   2.161  0.1596 -0.0450 -0.0739
 1417SOL    HW1 4385   1.059   2.176   2.182 -1.3663  1.1155  0.4088
 1417SOL    HW2 4386   0.990   2.108   2.066 -0.0618  0.4984 -0.0281
 1418SOL     OW 4387   2.490   2.559   0.679 -0.2886 -0.6485 -0.4026
 1418SOL    HW1 4388   2.561   2.517   0.727  0.0246  0.6627  0.3302
 1418SOL    HW2 4389   2.515   2.651   0.674 -2.2054 -0.0299  0.4080
 1419SOL     OW 4390   2.771   2.074   1.991 -0.9091 -0.1807  0.1084
 1419SOL    HW1 4391   2.772   2.147   1.929 -0.1078 -0.4493 -0.2102
 1419SOL    HW2 4392   2.753   2.115   2.075 -0.0527  0.4547  0.0024
 1420SOL     OW 4393   1.284   3.224   2.278 -0.4345  0.1453 -0.3285
 1420SOL    HW1 4394   1.359   3.244   2.221 -0.8915 -1.2231 -1.4816
 1420SOL    HW2 4395   1.208   3.256   2.229 -0.7694 -0.2947 -0.1027
 1421SOL     OW 4396   0.101   1.929   2.795 -0.7154  0.2365 -0.4485
 1421SOL    HW1 4397   0.138   2.009   2.758  1.0565 -0.6551 -0.7021
 1421SOL    HW2 4398   0.019   1.916   2.747 -0.1163  0.9064 -1.6998
 1422SOL     OW 4399   2.739   1.358   1.590 -0.0473 -0.7795 -0.7108
 1422SOL    HW1 4400   2.744   1.342   1.684  0.3509 -2.4211 -0.9802
 1422SOL    HW2 4401   2.768   1.448   1.579  2.3584 -1.3142  0.5159
 1423SOL     OW 4402   0.443   1.564   0.062 -0.3029  0.4428 -0.1423
 1423SOL    HW1 4403   0.353   1.565   0.095 -0.7091 -1.9057 -0.9947
 1423SOL    HW2 4404   0.436   1.529  -0.026  1.4301  0.5401 -0.3489
 1424SOL     OW 4405   0.144   1.233   0.207  0.3307  0.1467 -0.6093
 1424SOL    HW1 4406   0.238   1.217   0.215 -0.2957 -3.6386  2.0827
 1424SOL    HW2 4407   0.127   1.307   0.265  1.5820  0.6993 -0.9116
 1425SOL     OW 4408   0.699   1.201   0.640  0.7817  0.1662 -0.1719
 1425SOL    HW1 4409   0.716   1.121   0.689 -0.7207  0.0479  0.1964
 1425SOL    HW2 4410   0.684   1.268   0.707  0.8183  0.4894 -0.4819
 1426SOL     OW 4411   2.559   1.459   0.145 -0.5425 -0.3152 -0.6636
 1426SOL    HW1 4412   2.499   1.449   0.219 -0.9081  0.9276 -0.7763
 1426SOL    HW2 4413   2.525   1.533   0.096  0.8420  0.1430 -0.9705
 1427SOL     OW 4414   0.090   0.423   0.790  0.3621  0.0381  0.4323
 1427SOL    HW1 4415   0.157   0.473   0.836  0.1556 -0.0705  0.8495
 1427SOL    HW2 4416   0.072   0.348   0.847  0.0735 -0.0720  0.1991
 1428SOL     OW 4417   0.562   2.949   3.236  0.2849 -0.5658  0.0701
 1428SOL    HW1 4418   0.617   2.976   3.310 -0.1137 -0.7564  0.4421
 1428SOL    HW2 4419   0.521   2.868   3.266 -1.0770  0.1685  0.2438
 1429SOL     OW 4420   2.326   0.127   1.846 -0.0866  0.1494  0.1506
 1429SOL    HW1 4421   2.253   0.113   1.906 -0.4415  3.3196  0.6135
 1429SOL    HW2 4422   2.312   0.063   1.776 -2.2770 -0.5223  1.1277
 1430SOL     OW 4423   1.214   1.450   3.437 -0.1757  0.5780 -0.5917
 1430SOL    HW1 4424   1.215   1.408   3.351  1.8681  0.4139 -0.5262
 1430SOL    HW2 4425   1.275   1.523   3.430 -0.6244  1.0911  0.4925
 1431SOL     OW 4426   2.617   0.224   3.460 -0.1022  0.1477 -0.5899
 1431SOL    HW1 4427   2.665   0.202   3.380  0.4451 -0.3193 -0.1438
 1431SOL    HW2 4428   2.608   0.319   3.457  1.6273  0.3602 -0.2771
 1432SOL     OW 4429   3.438   0.621   3.569  0.1077 -0.4797 -0.5571
 1432SOL    HW1 4430   3.412   0.537   3.533 -0.0559 -0.6367 -0.0782
 1432SOL    HW2 4431   3.356   0.671   3.575  0.3676  0.2009 -2.0529
 1433SOL     OW 4432   3.526   3.003   2.053 -0.0809  0.3228 -0.0028
 1433SOL    HW1 4433   3.586   3.069   2.087 -1.9013  3.3497 -2.1524
 1433SOL    HW2 4434   3.468   2.983   2.126  1.3699 -0.0336  1.0902
 1434SOL     OW 4435   3.382   3.100   0.046  0.3738  0.6529 -0.3532
 1434SOL    HW1 4436   3.312   3.102   0.111 -0.5486 -0.9456 -1.2492
 1434SOL    HW2 4437   3.408   3.192   0.037 -0.4570  1.0802  1.1984
 1435SOL     OW 4438   2.294   1.297   3.565  0.1488 -0.8198 -0.0715
 1435SOL    HW1 4439   2.299   1.393   3.567 -0.2966 -0.7776  2.0074
 1435SOL    HW2 4440   2.372   1.270   3.517  1.0523  0.5735  0.5320
 1436SOL     OW 4441   0.738   3.448   2.561 -0.2485  0.0902  0.0938
 1436SOL    HW1 4442   0.706   3.449   2.652 -0.3657 -1.8460  0.1290
 1436SOL    HW2 4443   0.681   3.386   2.517  1.3260 -0.8618 -0.6858
 1437SOL     OW 4444   0.035   2.145   3.156 -0.1605 -0.9669  0.2140
 1437SOL    HW1 4445  -0.054   2.114   3.172 -0.6819  0.3701  0.0547
 1437SOL    HW2 4446   0.055   2.200   3.232 -0.5361  0.9349 -1.0009
 1438SOL     OW 4447   1.851   3.049   1.781 -0.3533 -0.2029 -0.1105
 1438SOL    HW1 4448   1.772   3.102   1.794 -1.1981 -1.4107 -0.1873
 1438SOL    HW2 4449   1.826   2.961   1.810  0.6732 -0.8130 -1.0127
 1439SOL     OW 4450   0.122   0.256   1.019  0.0568 -0.1639  0.1390
 1439SOL    HW1 4451   0.164   0.317   1.080  0.4849 -0.0806 -0.2363
 1439SOL    HW2 4452   0.046   0.223   1.068 -0.5146  1.0920  0.1534
 1440SOL     OW 4453   3.488   2.784   2.587 -0.3257  0.7368 -0.0030
 1440SOL    HW1 4454   3.461   2.875   2.596  1.3283  1.1795  0.8523
 1440SOL    HW2 4455   3.505   2.754   2.676  3.1980  0.9463 -0.4617
 1441SOL     OW 4456   2.649   2.301   0.350 -0.5592  0.6832  0.1965
 1441SOL    HW1 4457   2.694   2.273   0.270 -0.0786 -1.7396  1.2174
 1441SOL    HW2 4458   2.556   2.297   0.327 -0.5727 -2.3613  0.3142
 1442SOL     OW 4459   3.484   0.905   0.857  0.6582 -0.4204 -0.4528
 1442SOL    HW1 4460   3.553   0.856   0.812 -0.9693 -2.4048 -0.9280
 1442SOL    HW2 4461   3.440   0.954   0.788  0.2078 -0.9078 -0.5157
 1443SOL     OW 4462   2.710   2.144   2.258  0.4551  0.7538 -0.4861
 1443SOL    HW1 4463   2.632   2.180   2.299 -1.3204 -1.2861 -1.9033
 1443SOL    HW2 4464   2.736   2.071   2.314 -0.5769 -0.5445 -1.6301
 1444SOL     OW 4465   0.670   2.046   3.488  0.2801  0.2770  0.0129
 1444SOL    HW1 4466   0.637   1.981   3.550 -1.9848  0.3730 -0.9704
 1444SOL    HW2 4467   0.764   2.052   3.506  0.0853 -1.3394  1.8648
 1445SOL     OW 4468   0.178   1.588   0.138 -0.0036  0.0877  0.0266
 1445SOL    HW1 4469   0.083   1.577   0.135 -0.0970  0.8371 -0.0196
 1445SOL    HW2 4470   0.200   1.591   0.231 -0.2002  1.2197  0.0519
 1446SOL     OW 4471   0.354   3.486   2.636  0.0110  0.5289  0.2457
 1446SOL    HW1 4472   0.351   3.419   2.704 -0.0484 -0.3778 -0.6246
 1446SOL    HW2 4473   0.405   3.557   2.675  2.4265 -1.0966  0.3031
 1447SOL     OW 4474   1.406   0.699   2.428 -0.5049  0.8184  0.2586
 1447SOL    HW1 4475   1.463   0.659   2.362 -0.2004  1.2655  0.2451
 1447SOL    HW2 4476   1.464   0.716   2.503 -0.9153  0.0327  0.7600
 1448SOL     OW 4477   0.089   2.528   3.459  0.3593  0.3389  0.0654
 1448SOL    HW1 4478   0.159   2.475   3.420  0.7491  1.4116 -0.7467
 1448SOL    HW2 4479   0.044   2.468   3.519  2.1666 -0.3084  0.8605
 1449SOL     OW 4480   1.042   0.618   2.152  0.4682 -0.1592  0.2621
 1449SOL    HW1 4481   0.984   0.570   2.093 -0.1838 -0.3247  1.0261
 1449SOL    HW2 4482   0.988   0.641   2.227  1.6263 -1.1620  1.4528
 1450SOL     OW 4483   3.627   3.264   1.770 -0.3553 -0.2630  0.0377
 1450SOL    HW1 4484   3.675   3.250   1.852 -1.4306  0.1532  0.7598
 1450SOL    HW2 4485   3.568   3.189   1.764 -0.1719 -0.3717 -0.4443
 1451SOL     OW 4486   2.853   0.971   2.750 -0.3852  0.0492 -0.4063
 1451SOL    HW1 4487   2.837   1.002   2.661  2.0463 -1.3179 -1.4151
 1451SOL    HW2 4488   2.923   1.027   2.783  0.4036 -0.9623 -0.3046
 1452SOL     OW 4489   1.848   1.489   2.837 -0.5465  0.3664  0.0816
 1452SOL    HW1 4490   1.918   1.546   2.805 -1.0746  0.5562 -0.7679
 1452SOL    HW2 4491   1.825   1.435   2.762 -2.6137  1.6134 -0.2691
 1453SOL     OW 4492   0.778   1.398   0.990 -0.0285  0.3144  0.5384
 1453SOL    HW1 4493   0.695   1.350   0.988 -0.9569  1.8502 -1.9266
 1453SOL    HW2 4494   0.845   1.331   0.974 -1.1470 -0.4464 -1.2166
 1454SOL     OW 4495   0.934   2.647   2.483  0.2126 -0.4678 -0.1776
 1454SOL    HW1 4496   0.992   2.610   2.551  1.0946 -0.2962 -0.8159
 1454SOL    HW2 4497   0.975   2.731   2.461 -2.3086  1.5041  2.0157
 1455SOL     OW 4498   2.603   0.770   0.375 -0.5901  0.5137  0.0408
 1455SOL    HW1 4499   2.638   0.857   0.361 -0.2706  0.3984  0.1129
 1455SOL    HW2 4500   2.600   0.761   0.470  0.9257 -0.1565  0.0645
 1456SOL     OW 4501   3.642   3.448   0.446  0.8016 -0.8052  0.1083
 1456SOL    HW1 4502   3.573   3.467   0.382  0.8520 -1.1414 -0.0486
 1456SOL    HW2 4503   3.719   3.493   0.412  0.3801  0.5397  0.8848
 1457SOL     OW 4504   0.276   1.160   2.281  0.7567  0.0889  0.2823
 1457SOL    HW1 4505   0.348   1.137   2.222 -0.6299 -1.4604 -0.9560
 1457SOL    HW2 4506   0.259   1.079   2.330 -1.5460 -0.3748 -1.1183
 1458SOL     OW 4507   1.248   2.477   0.119 -0.4629 -0.1542 -0.1193
 1458SOL    HW1 4508   1.296   2.553   0.153  0.6250 -1.1407  0.6609
 1458SOL    HW2 4509   1.290   2.457   0.036  0.7700 -1.2100  0.7107
 1459SOL     OW 4510   0.667   1.785   2.813  0.0951  0.2656  0.0885
 1459SOL    HW1 4511   0.640   1.719   2.749  1.6435 -0.8306  0.5114
 1459SOL    HW2 4512   0.757   1.808   2.788  0.6771 -0.0819  1.7586
 1460SOL     OW 4513   1.998   1.370   0.398 -0.2872  0.4884 -0.1643
 1460SOL    HW1 4514   2.000   1.284   0.440 -0.0999  0.4892 -0.1686
 1460SOL    HW2 4515   1.957   1.355   0.313  1.2893  0.0679 -0.8911
 1461SOL     OW 4516   0.532   2.332   3.605  0.4198  1.1333  0.4361
 1461SOL    HW1 4517   0.566   2.253   3.647 -2.2382  0.3306  1.2511
 1461SOL    HW2 4518   0.514   2.305   3.515 -1.1394  0.5556  0.8961
 1462SOL     OW 4519   1.117   0.778   0.860 -0.6107  0.0819  0.3187
 1462SOL    HW1 4520   1.082   0.766   0.948  2.2659  2.8166  2.0105
 1462SOL    HW2 4521   1.139   0.871   0.855  3.0289 -0.7051 -1.7545
 1463SOL     OW 4522   0.807   0.996   2.090  0.5353  0.1886  0.2992
 1463SOL    HW1 4523   0.751   0.919   2.076 -0.9422  1.0040  1.3246
 1463SOL    HW2 4524   0.773   1.062   2.029  1.0099  0.3961  0.2572
 1464SOL     OW 4525   2.358   0.740   3.573  0.6081 -0.3598 -0.3684
 1464SOL    HW1 4526   2.441   0.760   3.530  0.5246 -0.2925 -0.4978
 1464SOL    HW2 4527   2.381   0.729   3.665  0.3154  3.0582  0.2738
 1465SOL     OW 4528   0.330   0.609   2.763  0.0571  0.0387  0.4527
 1465SOL    HW1 4529   0.238   0.611   2.738  0.5388 -0.0521 -1.4677
 1465SOL    HW2 4530   0.355   0.517   2.759  0.5232  0.1856 -0.2294
 1466SOL     OW 4531   2.237   1.060   3.372 -0.1273 -0.1057 -0.1017
 1466SOL    HW1 4532   2.261   0.970   3.351 -0.3198 -0.3245  0.6129
 1466SOL    HW2 4533   2.141   1.062   3.366 -0.2189 -0.2836  1.1900
 1467SOL     OW 4534   0.079   3.722   3.015  0.4308 -0.0028  0.6566
 1467SOL    HW1 4535   0.142   3.652   3.032  0.2581 -0.6567 -1.1655
 1467SOL    HW2 4536   0.011   3.710   3.081 -0.2529 -2.3917 -0.3851
 1468SOL     OW 4537   3.428   0.345   2.194  0.7102  0.1928 -0.5615
 1468SOL    HW1 4538   3.398   0.255   2.181  1.4936  0.0463 -1.5184
 1468SOL    HW2 4539   3.483   0.363   2.118 -0.2027  1.8340 -0.8823
 1469SOL     OW 4540   0.521   2.750   2.730 -0.1174  0.2284  0.2345
 1469SOL    HW1 4541   0.577   2.751   2.653 -0.3639 -3.4440 -0.1505
 1469SOL    HW2 4542   0.576   2.784   2.801  1.4803 -0.1857 -0.7710
 1470SOL     OW 4543   2.243   3.694   2.479 -0.8576 -0.0309 -0.6346
 1470SOL    HW1 4544   2.242   3.605   2.515  0.8146  0.3607  0.5405
 1470SOL    HW2 4545   2.301   3.688   2.403  1.5701  0.4896  1.0253
 1471SOL     OW 4546   3.734   0.831   1.365 -0.0228 -0.1064 -0.2311
 1471SOL    HW1 4547   3.660   0.843   1.305  1.5337 -0.6862 -2.3810
 1471SOL    HW2 4548   3.798   0.896   1.338 -0.5130  2.0100  3.1156
 1472SOL     OW 4549   3.211   0.500   3.309 -0.2189  0.2437  0.0429
 1472SOL    HW1 4550   3.236   0.422   3.260  0.1421  1.7910 -2.3697
 1472SOL    HW2 4551   3.149   0.468   3.374 -1.8669 -1.7550 -2.3441
 1473SOL     OW 4552   0.946   1.762   0.304  0.5197 -0.6974 -0.0732
 1473SOL    HW1 4553   0.973   1.674   0.331  1.2314 -0.6927 -0.7061
 1473SOL    HW2 4554   1.028   1.811   0.299  0.2706 -0.3445 -0.9220
 1474SOL     OW 4555   2.108   2.717   0.402  0.2923 -0.0386 -0.0694
 1474SOL    HW1 4556   2.100   2.656   0.329  0.3597 -1.7625  1.3259
 1474SOL    HW2 4557   2.200   2.713   0.427  0.1550  0.1492  0.4645
 1475SOL     OW 4558   1.154   2.402   2.164  0.1428  0.2552 -0.0254
 1475SOL    HW1 4559   1.069   2.438   2.190  0.0337 -0.6562  0.9395
 1475SOL    HW2 4560   1.138   2.365   2.077 -0.7980 -1.0208  0.6591
 1476SOL     OW 4561   1.950   0.586   0.919  0.4000  0.5170  0.4496
 1476SOL    HW1 4562   1.955   0.494   0.894  0.3010  0.3025  1.1734
 1476SOL    HW2 4563   1.872   0.619   0.875  0.3524  0.2155  0.3051
 1477SOL     OW 4564   1.934   1.545   0.621  0.0883  0.0479 -0.3210
 1477SOL    HW1 4565   1.925   1.535   0.527 -1.7410  0.6453 -0.2360
 1477SOL    HW2 4566   1.995   1.476   0.647  0.0959 -0.5430 -1.8368
 1478SOL     OW 4567   3.439   3.366   0.065 -0.2755 -0.2915 -0.1346
 1478SOL    HW1 4568   3.384   3.422   0.010  0.3291 -1.1131 -1.6340
 1478SOL    HW2 4569   3.448   3.415   0.147 -1.6810  0.7112 -0.5367
 1479SOL     OW 4570   2.757   0.909   2.395  0.1943 -0.1991 -0.1821
 1479SOL    HW1 4571   2.735   0.839   2.333  5.4258 -1.4543 -1.0403
 1479SOL    HW2 4572   2.791   0.979   2.340  1.8317 -0.0023  1.0302
 1480SOL     OW 4573   1.570   0.177   2.666  0.1498 -0.0224  0.4672
 1480SOL    HW1 4574   1.522   0.257   2.647 -0.6601 -0.5336  0.3258
 1480SOL    HW2 4575   1.511   0.126   2.722 -0.2790 -1.4745 -1.2128
 1481SOL     OW 4576   3.375   2.737   2.872 -0.6278 -0.1501  0.0329
 1481SOL    HW1 4577   3.411   2.814   2.914  2.8057 -0.4028 -2.0023
 1481SOL    HW2 4578   3.343   2.682   2.944 -0.9838  2.0731  1.6748
 1482SOL     OW 4579   3.371   2.197   1.531 -0.3042 -0.2422  0.4652
 1482SOL    HW1 4580   3.350   2.178   1.622  1.8232 -1.2830  0.7878
 1482SOL    HW2 4581   3.343   2.119   1.483 -0.1268 -0.2827  0.4282
 1483SOL     OW 4582   2.414   2.512   2.673 -0.2531 -0.2943  0.6147
 1483SOL    HW1 4583   2.489   2.570   2.658 -0.9173  0.7201  1.1601
 1483SOL    HW2 4584   2.440   2.458   2.747 -0.4215  0.7023  1.4138
 1484SOL     OW 4585   3.170   3.397   3.023 -0.8122  0.8651  0.3406
 1484SOL    HW1 4586   3.078   3.422   3.033 -0.6372  1.4495  0.4882
 1484SOL    HW2 4587   3.217   3.479   3.011 -0.2933  0.5787  0.3727
 1485SOL     OW 4588   1.141   1.974   2.820 -0.0787 -0.1550 -0.4632
 1485SOL    HW1 4589   1.236   1.967   2.809 -0.1008  1.4456 -2.0240
 1485SOL    HW2 4590   1.129   2.052   2.873 -0.4782 -2.0656  2.5113
 1486SOL     OW 4591   3.288   0.125   2.115  0.3709 -0.1864  0.5975
 1486SOL    HW1 4592   3.245   0.175   2.184  1.1665  0.6595  0.4879
 1486SOL    HW2 4593   3.231   0.135   2.039 -0.6697 -1.3655  1.1653
 1487SOL     OW 4594   2.107   3.484   3.406  0.4889  0.1246  0.2029
 1487SOL    HW1 4595   2.121   3.392   3.384 -2.0527 -0.7993  1.9926
 1487SOL    HW2 4596   2.158   3.498   3.486  0.5596  0.1604  0.1517
 1488SOL     OW 4597   2.936   3.247   1.125 -0.5386 -0.1012  0.1569
 1488SOL    HW1 4598   2.841   3.241   1.136 -0.3606 -0.4329  1.7064
 1488SOL    HW2 4599   2.968   3.157   1.136  0.0657  0.2005  0.9761
 1489SOL     OW 4600   1.833   3.700   3.143  0.4427 -0.2850 -0.1347
 1489SOL    HW1 4601   1.789   3.638   3.201  0.2542 -0.3604 -0.3582
 1489SOL    HW2 4602   1.926   3.676   3.149  1.1214  2.3508  3.4486
 1490SOL     OW 4603   1.776   1.751   0.130  0.1868 -0.0871 -0.4198
 1490SOL    HW1 4604   1.808   1.789   0.211  1.1871 -0.2829 -0.7063
 1490SOL    HW2 4605   1.752   1.661   0.153  1.7182 -0.5634 -0.6032
 1491SOL     OW 4606   2.704   2.625   3.629 -0.3115 -0.1072  0.1532
 1491SOL    HW1 4607   2.780   2.651   3.681 -0.8312  1.0600  0.3629
 1491SOL    HW2 4608   2.666   2.708   3.599  1.1021 -0.6452 -3.7752
 1492SOL     OW 4609   3.259   1.257   0.541  0.1853 -0.2333 -0.0008
 1492SOL    HW1 4610   3.170   1.289   0.558  1.1732  1.8509  1.6528
 1492SOL    HW2 4611   3.262   1.245   0.447 -2.2310 -1.6593  0.0099
 1493SOL     OW 4612   1.466   1.201   2.831  0.0729  0.5157 -0.3056
 1493SOL    HW1 4613   1.436   1.260   2.762  0.5168  1.3083  0.1503
 1493SOL    HW2 4614   1.448   1.114   2.799 -0.2528  0.8963 -1.1747
 1494SOL     OW 4615   1.958   2.990   3.236 -0.8663  0.2482  0.2960
 1494SOL    HW1 4616   2.022   2.919   3.233  0.5860  1.5024  0.3167
 1494SOL    HW2 4617   1.908   2.982   3.155 -0.9011 -0.9117  0.4097
 1495SOL     OW 4618   3.099   3.386   0.054  0.0182 -0.2693 -0.2814
 1495SOL    HW1 4619   3.138   3.471   0.072 -0.8968  0.2180 -0.5000
 1495SOL    HW2 4620   3.005   3.399   0.071 -0.3616 -0.7942 -1.8144
 1496SOL     OW 4621   1.905   1.565   1.238 -0.5675 -0.0897 -0.4793
 1496SOL    HW1 4622   1.902   1.609   1.152  2.6579  0.4740 -0.4164
 1496SOL    HW2 4623   1.960   1.621   1.292 -0.4018 -1.7486  1.1866
 1497SOL     OW 4624   3.098   1.432   0.785  0.3463 -0.2088 -0.0394
 1497SOL    HW1 4625   3.182   1.477   0.796  0.1467 -0.1465  1.3535
 1497SOL    HW2 4626   3.121   1.350   0.741  1.0146  0.1997 -0.4681
 1498SOL     OW 4627   1.347   1.804   1.120 -0.1852  0.0163  0.5716
 1498SOL    HW1 4628   1.324   1.712   1.105  0.9011  0.0604 -1.9068
 1498SOL    HW2 4629   1.303   1.851   1.049 -1.1118  1.5322  2.0755
 1499SOL     OW 4630   2.590   1.910   3.198  0.2999  0.6405  0.2469
 1499SOL    HW1 4631   2.680   1.883   3.218  0.2565 -0.2595 -0.7090
 1499SOL    HW2 4632   2.541   1.829   3.191 -1.5270  1.1160  4.5150
 1500SOL     OW 4633   1.765   3.432   2.927 -0.7112  0.9534  0.1283
 1500SOL    HW1 4634   1.842   3.423   2.983 -0.7582  2.9844  0.6166
 1500SOL    HW2 4635   1.700   3.373   2.965  0.2767 -0.0726  0.2756
 1501SOL     OW 4636   0.157   1.271   3.343 -0.2571  0.6224 -0.0124
 1501SOL    HW1 4637   0.205   1.349   3.314 -0.0331  1.2605  1.8735
 1501SOL    HW2 4638   0.185   1.260   3.434  0.6165 -2.3823 -0.5386
 1502SOL     OW 4639   2.026   0.337   3.163 -0.7376  0.3295  0.0966
 1502SOL    HW1 4640   2.073   0.319   3.244 -0.2080  1.5896  0.0883
 1502SOL    HW2 4641   2.090   0.316   3.094 -0.7093  0.5887  0.0445
 1503SOL     OW 4642   2.737   0.910   3.026  0.7859 -0.6160  0.2493
 1503SOL    HW1 4643   2.648   0.878   3.012  0.4686 -0.5672  1.9853
 1503SOL    HW2 4644   2.768   0.934   2.939 -1.3149  0.4433 -0.2511
 1504SOL     OW 4645   2.592   2.840   1.320  0.0535 -0.7277  0.2966
 1504SOL    HW1 4646   2.528   2.800   1.260 -1.4300 -0.2843  1.5068
 1504SOL    HW2 4647   2.622   2.918   1.274 -0.1194 -1.0562 -0.3853
 1505SOL     OW 4648   3.645   1.723   1.628 -0.2459 -0.0580 -0.0913
 1505SOL    HW1 4649   3.694   1.765   1.557  0.4499 -1.0083 -0.1930
 1505SOL    HW2 4650   3.560   1.702   1.589 -0.8411  1.7634  0.1383
 1506SOL     OW 4651   0.405   1.538   0.640 -0.1507 -0.2552 -0.0225
 1506SOL    HW1 4652   0.313   1.565   0.638 -0.4686 -1.3537 -1.6020
 1506SOL    HW2 4653   0.443   1.579   0.563  0.8294  0.5768  0.8785
 1507SOL     OW 4654   0.370   2.745   0.405  0.1469 -0.0371  0.0978
 1507SOL    HW1 4655   0.294   2.801   0.421  0.1497  0.1619 -0.5657
 1507SOL    HW2 4656   0.372   2.733   0.310 -0.2214 -1.7013  0.2613
 1508SOL     OW 4657   2.603   0.065   1.306  0.2392 -0.3417  0.5008
 1508SOL    HW1 4658   2.560   0.150   1.311 -0.6560 -0.5524 -1.9682
 1508SOL    HW2 4659   2.574   0.019   1.385 -2.1597  0.4261  0.1618
 1509SOL     OW 4660   3.279   3.449   0.955  0.0874  0.6491  0.5584
 1509SOL    HW1 4661   3.234   3.375   0.915 -0.5776  0.6321  1.3122
 1509SOL    HW2 4662   3.369   3.419   0.968  0.1275  0.4099 -0.2419
 1510SOL     OW 4663   1.363   1.051   0.405 -0.0954 -0.7248  0.2914
 1510SOL    HW1 4664   1.328   1.138   0.427 -0.3368 -0.6314 -0.4264
 1510SOL    HW2 4665   1.286   0.999   0.382  0.1093 -0.9321  0.0662
 1511SOL     OW 4666   2.894   3.657   2.645  0.5496  0.0101  0.2265
 1511SOL    HW1 4667   2.867   3.628   2.557 -2.2472  2.4092  0.1874
 1511SOL    HW2 4668   2.989   3.670   2.637  0.4069 -0.0431 -2.3874
 1512SOL     OW 4669   1.206   1.486   2.448  0.3194 -0.2127 -0.3335
 1512SOL    HW1 4670   1.264   1.420   2.486 -1.5378 -1.1697  1.0129
 1512SOL    HW2 4671   1.138   1.435   2.402  0.2281  0.8506 -1.4492
 1513SOL     OW 4672   3.212   1.369   2.852 -0.1709 -0.3066  0.2652
 1513SOL    HW1 4673   3.219   1.371   2.756 -1.1590 -0.8760  0.1693
 1513SOL    HW2 4674   3.222   1.460   2.878  3.4585 -0.4577 -0.0763
 1514SOL     OW 4675   3.361   3.717   1.205  0.1484  0.3616  0.2865
 1514SOL    HW1 4676   3.281   3.693   1.156  0.3950  1.3807 -0.6628
 1514SOL    HW2 4677   3.427   3.655   1.174 -0.5573 -1.3704  2.0728
 1515SOL     OW 4678   0.577   0.709   2.424 -0.0124 -0.4878  0.2588
 1515SOL    HW1 4679   0.621   0.777   2.373 -0.1782 -0.6750 -0.1315
 1515SOL    HW2 4680   0.527   0.758   2.489 -1.9886 -0.0957 -1.4608
 1516SOL     OW 4681   2.879   1.229   3.666 -0.0115 -0.0273  0.4506
 1516SOL    HW1 4682   2.935   1.287   3.614 -2.6894  3.3486  1.0044
 1516SOL    HW2 4683   2.829   1.180   3.600  0.6400  0.0106 -0.0830
 1517SOL     OW 4684   2.688   0.752   2.205 -0.0540 -0.3748  0.1202
 1517SOL    HW1 4685   2.608   0.775   2.157  0.2388  0.7139  0.1480
 1517SOL    HW2 4686   2.668   0.667   2.244 -0.5003 -1.0338 -1.4625
 1518SOL     OW 4687   1.782   1.035   1.967 -0.0032 -0.1393 -0.1451
 1518SOL    HW1 4688   1.828   1.039   1.884  0.6839 -4.0581 -0.1723
 1518SOL    HW2 4689   1.837   1.084   2.028  0.6151  0.9684 -1.5448
 1519SOL     OW 4690   0.953   3.396   3.072 -0.4711 -0.8081 -0.1904
 1519SOL    HW1 4691   0.984   3.374   3.160 -1.7110  1.9254  1.0566
 1519SOL    HW2 4692   1.018   3.457   3.038  1.4442 -3.8102 -2.4263
 1520SOL     OW 4693   1.614   1.437   1.883 -0.2031  0.0920  0.3946
 1520SOL    HW1 4694   1.691   1.401   1.838 -0.2751 -0.4572  0.7010
 1520SOL    HW2 4695   1.539   1.404   1.834 -0.2892 -0.7134  1.0559
 1521SOL     OW 4696   2.962   3.283   2.736  1.0863  0.9798 -0.0340
 1521SOL    HW1 4697   2.956   3.214   2.670  0.2042  0.9394  0.0839
 1521SOL    HW2 4698   3.049   3.272   2.774  0.7891 -0.3592  0.2931
 1522SOL     OW 4699   3.350   1.472   1.337  0.1975 -0.5377 -0.2651
 1522SOL    HW1 4700   3.384   1.399   1.388 -0.7859 -1.6597 -1.1725
 1522SOL    HW2 4701   3.255   1.462   1.340 -0.0726  1.6517  0.9316
 1523SOL     OW 4702   1.337   1.665   3.369  0.4204  0.7483 -0.4043
 1523SOL    HW1 4703   1.392   1.628   3.300  0.2230  2.3937 -1.5054
 1523SOL    HW2 4704   1.382   1.745   3.395  0.3883  0.2535  1.2812
 1524SOL     OW 4705   1.522   3.189   0.715 -0.4314  0.1518 -0.3001
 1524SOL    HW1 4706   1.468   3.113   0.698  0.7490 -0.7451 -0.1739
 1524SOL    HW2 4707   1.558   3.212   0.629 -1.0539  0.7962 -0.3987
 1525SOL     OW 4708   0.961   0.011   2.771  0.6629 -0.4009 -0.3089
 1525SOL    HW1 4709   0.968   0.068   2.694  4.2868  0.1159  0.2168
 1525SOL    HW2 4710   0.996  -0.073   2.741  0.4310 -0.7334  0.3407
 1526SOL     OW 4711   3.589   1.362   2.447 -0.1993 -0.7600 -0.3086
 1526SOL    HW1 4712   3.634   1.285   2.481  0.1505  0.1111  1.2647
 1526SOL    HW2 4713   3.534   1.393   2.519 -1.4711 -0.3647 -1.3849
 1527SOL     OW 4714   3.173   1.068   2.507 -0.5020  0.2221  0.0811
 1527SOL    HW1 4715   3.230   1.116   2.567  2.2878 -1.5365 -0.9718
 1527SOL    HW2 4716   3.168   1.124   2.429 -0.8736  0.7191  0.4543
 1528SOL     OW 4717   0.271   1.893   0.152 -0.2430  0.4669  0.2197
 1528SOL    HW1 4718   0.353   1.933   0.124  1.2175 -0.0863  3.3097
 1528SOL    HW2 4719   0.236   1.853   0.073  1.1335  2.8700 -1.7454
 1529SOL     OW 4720   3.715   1.176   1.099 -0.1911  0.0913  0.1838
 1529SOL    HW1 4721   3.651   1.246   1.112 -1.8475 -1.0441 -1.3454
 1529SOL    HW2 4722   3.693   1.139   1.014  1.0628 -1.8602  0.6450
 1530SOL     OW 4723   1.144   3.567   2.971  0.3071 -0.2387 -0.4214
 1530SOL    HW1 4724   1.189   3.584   3.054  0.5719 -2.6869  0.0170
 1530SOL    HW2 4725   1.210   3.522   2.918  0.1208  1.2437 -1.9748
 1531SOL     OW 4726   0.941   1.469   3.212 -0.4286 -0.2205 -0.1236
 1531SOL    HW1 4727   0.918   1.520   3.134 -0.4171  1.2945  0.8259
 1531SOL    HW2 4728   0.965   1.535   3.277  1.1543 -1.5152  0.6745
 1532SOL     OW 4729   1.158   2.852   1.456 -0.3219 -0.5023  0.2228
 1532SOL    HW1 4730   1.176   2.878   1.365 -0.0850 -1.4129 -0.0038
 1532SOL    HW2 4731   1.242   2.856   1.500 -0.3959 -0.2788  0.3414
 1533SOL     OW 4732   1.579   3.723   3.491  0.3033  0.1356 -0.0971
 1533SOL    HW1 4733   1.555   3.633   3.516 -0.2580  0.0091 -1.0195
 1533SOL    HW2 4734   1.495   3.766   3.475  0.5674 -0.1807 -2.9330
 1534SOL     OW 4735   2.654   2.610   0.292  0.5854  0.4150  0.0562
 1534SOL    HW1 4736   2.665   2.515   0.282 -0.1641  0.5063 -2.1579
 1534SOL    HW2 4737   2.723   2.636   0.354  0.6785 -1.5727  0.8685
 1535SOL     OW 4738   1.164   1.481   1.237 -0.0209 -0.1344  0.3813
 1535SOL    HW1 4739   1.086   1.430   1.216  0.6237 -0.6225 -0.9131
 1535SOL    HW2 4740   1.130   1.564   1.271 -1.1278  0.0786 -1.1596
 1536SOL     OW 4741   1.179   2.482   1.045  0.6688 -0.1198 -0.2014
 1536SOL    HW1 4742   1.148   2.416   0.983  0.3654 -1.5375  1.3944
 1536SOL    HW2 4743   1.274   2.485   1.031  0.8128 -1.5721  0.3005
 1537SOL     OW 4744   2.843   1.987   1.681  0.6148  0.0530 -0.2577
 1537SOL    HW1 4745   2.780   2.013   1.613 -1.2417 -3.2342 -0.0206
 1537SOL    HW2 4746   2.802   2.015   1.763 -0.1510 -1.2655 -0.1655
 1538SOL     OW 4747   3.021   2.768   2.980 -0.7756  0.0805 -0.1244
 1538SOL    HW1 4748   3.006   2.778   2.886 -0.9839  0.1196 -0.0872
 1538SOL    HW2 4749   2.945   2.810   3.021 -0.5102  0.3813  0.0668
 1539SOL     OW 4750   1.404   3.454   1.368 -1.1574 -0.4118  0.0851
 1539SOL    HW1 4751   1.486   3.404   1.366 -0.5934  0.5069  0.0391
 1539SOL    HW2 4752   1.339   3.391   1.400 -0.1865 -0.8020  1.3653
 1540SOL     OW 4753   2.353   0.364   3.445  0.2685 -0.2071 -0.4051
 1540SOL    HW1 4754   2.427   0.424   3.449  0.9732 -1.0953  0.4630
 1540SOL    HW2 4755   2.391   0.280   3.419  0.2440 -1.5712  3.3709
 1541SOL     OW 4756   1.607   3.509   0.512  0.2481  0.1950  0.4319
 1541SOL    HW1 4757   1.557   3.570   0.566 -0.3300 -0.0913  0.2394
 1541SOL    HW2 4758   1.542   3.475   0.449  0.9269  0.6207 -0.5199
 1542SOL     OW 4759   1.660   3.374   1.475 -0.0905 -0.2653 -0.2387
 1542SOL    HW1 4760   1.625   3.286   1.490  0.4837 -0.2918  1.1551
 1542SOL    HW2 4761   1.744   3.375   1.522  0.7251  0.5000 -1.6572
 1543SOL     OW 4762   1.742   1.228   0.681  0.6398  0.5366 -0.2538
 1543SOL    HW1 4763   1.792   1.162   0.633 -0.3058  0.4723 -1.1682
 1543SOL    HW2 4764   1.748   1.199   0.773 -3.7101 -3.7500 -0.9149
 1544SOL     OW 4765   1.104   2.045   0.208 -0.6839  0.0816 -0.0992
 1544SOL    HW1 4766   1.148   1.987   0.146 -1.4054 -1.1908  0.5468
 1544SOL    HW2 4767   1.147   2.028   0.292 -0.1250  1.3453 -0.1007
 1545SOL     OW 4768   0.793   3.114   2.621  0.1620 -0.4744 -0.9134
 1545SOL    HW1 4769   0.804   3.149   2.709  1.5689 -0.6021 -1.0208
 1545SOL    HW2 4770   0.742   3.181   2.575 -0.5307 -0.3800 -0.0367
 1546SOL     OW 4771   0.394   1.419   3.567 -0.1443  0.0547  0.0407
 1546SOL    HW1 4772   0.418   1.331   3.595  1.0400  0.6468  0.9890
 1546SOL    HW2 4773   0.470   1.450   3.517  0.3913  1.3052  1.5612
 1547SOL     OW 4774   1.198   2.741   1.148 -0.0467  0.2250 -0.1682
 1547SOL    HW1 4775   1.168   2.652   1.128 -2.6290  0.6533  1.3257
 1547SOL    HW2 4776   1.138   2.798   1.098  1.9639  1.2016 -1.6096
 1548SOL     OW 4777   1.783   2.129   0.069 -0.6697  0.0151 -0.2557
 1548SOL    HW1 4778   1.820   2.215   0.087 -1.3738  0.3155 -0.2404
 1548SOL    HW2 4779   1.859   2.071   0.061 -0.2266  0.5093  0.4009
 1549SOL     OW 4780   3.134   0.503   0.305  0.2965  0.0464  0.6919
 1549SOL    HW1 4781   3.151   0.581   0.252  0.5425  0.2369  1.0469
 1549SOL    HW2 4782   3.058   0.527   0.359  0.3631  0.0345  0.7903
 1550SOL     OW 4783   1.947   1.138   3.274  0.1350  0.4919  0.4487
 1550SOL    HW1 4784   2.010   1.080   3.232  0.2185 -0.1632  1.4438
 1550SOL    HW2 4785   1.866   1.087   3.279  1.0128 -0.8879  4.1850
 1551SOL     OW 4786   1.061   0.389   3.227  0.6085 -0.1483  0.4370
 1551SOL    HW1 4787   1.078   0.453   3.159  1.3348  0.5097  1.2240
 1551SOL    HW2 4788   1.019   0.439   3.297 -0.8874 -0.9670  0.1718
 1552SOL     OW 4789   1.545   3.400   2.414 -0.0434 -0.1081  0.0274
 1552SOL    HW1 4790   1.503   3.316   2.396 -0.8484  0.0114  1.2219
 1552SOL    HW2 4791   1.479   3.465   2.390 -0.4670  0.0901  1.6008
 1553SOL     OW 4792   2.666   3.431   2.807  1.0770 -0.5358  0.3215
 1553SOL    HW1 4793   2.589   3.417   2.751  1.0109 -2.6013  0.8271
 1553SOL    HW2 4794   2.629   3.455   2.892  1.1205  1.0930 -0.0977
 1554SOL     OW 4795   0.289   0.400   1.198  0.3515  0.1321 -0.1076
 1554SOL    HW1 4796   0.240   0.481   1.214 -0.8860  0.2991 -3.8108
 1554SOL    HW2 4797   0.371   0.429   1.160 -0.2043 -0.3022 -1.6982
 1555SOL     OW 4798   0.182   2.116   2.579 -0.0541  0.1035 -0.0086
 1555SOL    HW1 4799   0.256   2.062   2.609  1.4664  1.4893 -1.0419
 1555SOL    HW2 4800   0.201   2.133   2.487 -2.4020 -0.5824 -0.6712
 1556SOL     OW 4801   2.827   1.675   0.036 -0.3194 -0.2699 -0.4915
 1556SOL    HW1 4802   2.787   1.606   0.089 -0.1561 -0.9370 -1.2255
 1556SOL    HW2 4803   2.920   1.653   0.033 -0.6040 -1.4754 -2.8073
 1557SOL     OW 4804   2.368   0.260   1.392 -0.1872  0.3557  0.6911
 1557SOL    HW1 4805   2.369   0.353   1.413 -0.0457  1.0119 -1.8915
 1557SOL    HW2 4806   2.275   0.236   1.393 -0.2720  0.6819  0.7605
 1558SOL     OW 4807   1.535   1.197   0.183  0.3486 -0.4693 -0.0453
 1558SOL    HW1 4808   1.492   1.280   0.162  0.3004 -0.0906  1.4670
 1558SOL    HW2 4809   1.463   1.136   0.202  0.4185 -0.5634 -0.0790
 1559SOL     OW 4810   3.105   1.174   3.130 -0.9136  0.1021 -0.1653
 1559SOL    HW1 4811   3.195   1.158   3.100 -1.4634  0.5763 -2.1904
 1559SOL    HW2 4812   3.113   1.184   3.225  0.8979 -1.7183 -0.0731
 1560SOL     OW 4813   1.971   3.379   2.361  0.0680 -0.2050  0.0037
 1560SOL    HW1 4814   2.039   3.325   2.320  0.1302 -1.0304  1.1615
 1560SOL    HW2 4815   1.970   3.459   2.308  0.4534 -1.0462 -1.3227
 1561SOL     OW 4816   2.376   1.145   0.831 -1.4079  0.2947  0.3868
 1561SOL    HW1 4817   2.308   1.089   0.794 -0.6335 -0.0254 -0.5970
 1561SOL    HW2 4818   2.420   1.090   0.896  0.2738 -0.8038 -1.5643
 1562SOL     OW 4819   3.656   2.797   3.115  0.0261 -0.4481 -0.2952
 1562SOL    HW1 4820   3.704   2.797   3.031 -0.3542 -0.0162 -0.5149
 1562SOL    HW2 4821   3.698   2.866   3.166 -0.9880  0.6245 -0.8612
 1563SOL     OW 4822   2.396   0.696   0.885  0.0944  0.0593  0.2533
 1563SOL    HW1 4823   2.490   0.704   0.864  0.6625 -3.8553  0.5157
 1563SOL    HW2 4824   2.361   0.643   0.813 -1.6584  0.4633  0.7866
 1564SOL     OW 4825   3.312   0.649   0.158 -0.1127 -0.0358 -0.0399
 1564SOL    HW1 4826   3.367   0.612   0.227 -2.1931 -0.1574  1.6459
 1564SOL    HW2 4827   3.338   0.602   0.079  2.2356 -0.0021  0.6437
 1565SOL     OW 4828   0.544   0.486   0.051 -0.1556  0.5232  0.5572
 1565SOL    HW1 4829   0.627   0.458   0.012 -1.0859 -1.4770 -0.1520
 1565SOL    HW2 4830   0.478   0.437   0.002 -1.6587  1.1133  1.9295
 1566SOL     OW 4831   0.446   0.333   0.893  0.0095 -0.4264 -0.0220
 1566SOL    HW1 4832   0.369   0.382   0.922  1.0662  1.5463 -0.3092
 1566SOL    HW2 4833   0.423   0.303   0.805 -0.5891 -0.2136  0.0548
 1567SOL     OW 4834   0.341   1.297   0.558 -0.2434  0.1723  0.5932
 1567SOL    HW1 4835   0.361   1.386   0.586  1.4732 -0.1871  0.6431
 1567SOL    HW2 4836   0.414   1.272   0.501 -0.9236 -1.0446  0.1995
 1568SOL     OW 4837   0.242   2.810   1.132 -0.1683  0.0808 -0.1392
 1568SOL    HW1 4838   0.293   2.831   1.210  0.6256 -0.8941 -0.3743
 1568SOL    HW2 4839   0.304   2.814   1.060 -0.5193 -0.6072 -0.5000
 1569SOL     OW 4840   2.272   2.914   0.293  0.0006 -0.2377 -0.2393
 1569SOL    HW1 4841   2.344   2.865   0.252  1.2479  1.2842  0.0294
 1569SOL    HW2 4842   2.199   2.852   0.295  1.3105 -1.8687 -0.4676
 1570SOL     OW 4843   0.930   1.815   2.747  0.3979  0.6360 -0.0455
 1570SOL    HW1 4844   0.992   1.879   2.783  0.3573 -0.4612  2.0976
 1570SOL    HW2 4845   0.953   1.810   2.654  2.8400  1.0604  0.4607
 1571SOL     OW 4846   2.158   2.067   0.953  0.2424 -0.3843 -0.0461
 1571SOL    HW1 4847   2.208   2.148   0.962  1.0626 -0.8435 -0.3412
 1571SOL    HW2 4848   2.175   2.018   1.033 -0.0600 -0.3674  0.0291
 1572SOL     OW 4849   3.210   3.689   0.752 -0.0102  0.3079  0.3093
 1572SOL    HW1 4850   3.239   3.764   0.804  1.0407 -0.9454  1.6406
 1572SOL    HW2 4851   3.263   3.616   0.784  0.7173 -0.5681 -2.5688
 1573SOL     OW 4852   1.972   2.671   1.583 -0.3160 -0.8198  0.3262
 1573SOL    HW1 4853   2.036   2.617   1.538 -0.9532  1.1961 -3.3434
 1573SOL    HW2 4854   1.888   2.629   1.565 -0.7359  0.8188 -1.9121
 1574SOL     OW 4855   2.271   3.593   0.333 -0.0220  0.1066 -1.1733
 1574SOL    HW1 4856   2.260   3.677   0.287  1.2135  0.8154 -0.2549
 1574SOL    HW2 4857   2.196   3.587   0.392 -0.6951  0.0245 -2.0190
 1575SOL     OW 4858   2.502   1.861   1.600  0.0319  0.5534  0.2112
 1575SOL    HW1 4859   2.463   1.793   1.545 -0.1404  0.7785  0.0502
 1575SOL    HW2 4860   2.551   1.813   1.667  1.2457  0.2761 -0.8366
 1576SOL     OW 4861   3.376   0.515   2.924 -0.6436  0.8017 -0.3138
 1576SOL    HW1 4862   3.382   0.575   2.998 -1.0720  2.1046 -1.2812
 1576SOL    HW2 4863   3.373   0.572   2.847  0.3007 -0.5132 -1.3886
 1577SOL     OW 4864   2.486   1.670   3.712 -0.0868  0.1284 -0.5890
 1577SOL    HW1 4865   2.448   1.631   3.634 -0.0364  0.0373 -0.5673
 1577SOL    HW2 4866   2.433   1.749   3.727 -2.6770 -1.8347  1.5507
 1578SOL     OW 4867   2.006   0.347   0.225  0.0141  0.1983 -0.1948
 1578SOL    HW1 4868   1.959   0.314   0.302 -0.0792  1.6507  0.4070
 1578SOL    HW2 4869   1.984   0.440   0.221  2.5350  0.8812 -0.0817
 1579SOL     OW 4870   1.579   1.926   0.638  0.4909  0.5167 -0.1135
 1579SOL    HW1 4871   1.653   1.935   0.697 -0.9276 -0.7266  1.9809
 1579SOL    HW2 4872   1.502   1.947   0.692 -0.9491 -1.4578 -1.2676
 1580SOL     OW 4873   1.464   0.542   3.501  0.1262  0.1946 -0.1874
 1580SOL    HW1 4874   1.485   0.515   3.590 -0.5127 -0.3817 -0.2056
 1580SOL    HW2 4875   1.412   0.622   3.511 -0.6363 -0.3166 -0.0034
 1581SOL     OW 4876   2.697   0.117   0.423 -0.6097  0.0042 -0.4831
 1581SOL    HW1 4877   2.642   0.153   0.493 -1.8604 -0.3889 -1.2245
 1581SOL    HW2 4878   2.645   0.046   0.386  0.8324 -1.0386 -0.5785
 1582SOL     OW 4879   2.660   3.329   0.939 -0.4695  0.6416  0.0224
 1582SOL    HW1 4880   2.577   3.375   0.943  0.2198  1.8552  1.0824
 1582SOL    HW2 4881   2.664   3.293   0.850 -1.3985  1.9336 -0.5634
 1583SOL     OW 4882   0.228   3.417   0.537  0.9833  0.3222  0.6051
 1583SOL    HW1 4883   0.317   3.384   0.550  0.6596 -1.1170 -0.5662
 1583SOL    HW2 4884   0.192   3.361   0.468 -0.6720  1.1930  0.7279
 1584SOL     OW 4885   1.137   2.986   0.542  0.8787 -0.0066 -0.3054
 1584SOL    HW1 4886   1.167   2.950   0.459 -1.2436 -1.9709 -0.3189
 1584SOL    HW2 4887   1.134   3.081   0.528 -1.6519 -0.3885 -3.3449
 1585SOL     OW 4888   2.803   1.209   0.394  0.4226  0.0962  0.7596
 1585SOL    HW1 4889   2.747   1.270   0.442 -1.1237 -0.3128 -0.4148
 1585SOL    HW2 4890   2.743   1.138   0.368  1.1239  0.3308 -1.7855
 1586SOL     OW 4891   2.465   2.244   2.378 -1.0791  0.5356  0.3759
 1586SOL    HW1 4892   2.510   2.322   2.412 -0.7643  0.5910 -0.1459
 1586SOL    HW2 4893   2.470   2.180   2.448  0.0448  0.4588  0.2475
 1587SOL     OW 4894   2.904   1.357   0.155 -0.1310  0.1741  0.0166
 1587SOL    HW1 4895   2.892   1.299   0.080 -0.8011  1.3089 -0.7704
 1587SOL    HW2 4896   2.837   1.328   0.218 -0.6686  0.3015 -0.4952
 1588SOL     OW 4897   0.670   1.557   0.236  0.1712  0.2935 -0.6702
 1588SOL    HW1 4898   0.605   1.546   0.167  0.2115 -0.1215 -0.6433
 1588SOL    HW2 4899   0.623   1.604   0.305  0.0458  0.4413 -0.8529
 1589SOL     OW 4900   1.505   3.414   0.866 -0.3915  0.5226 -0.1243
 1589SOL    HW1 4901   1.489   3.338   0.810  0.5712  0.8049 -0.8174
 1589SOL    HW2 4902   1.439   3.408   0.935  0.5375 -1.7400  0.6592
 1590SOL     OW 4903   1.280   2.150   3.280  0.3883  0.2022 -0.2775
 1590SOL    HW1 4904   1.370   2.156   3.310  0.7850  0.0249 -1.3788
 1590SOL    HW2 4905   1.245   2.073   3.324  0.5272  0.7046  0.7388
 1591SOL     OW 4906   2.830   2.080   1.407 -0.2568  0.0974  0.5290
 1591SOL    HW1 4907   2.874   1.996   1.420  1.1198  0.7585  0.2461
 1591SOL    HW2 4908   2.851   2.104   1.317 -1.6351  0.2084  0.2056
 1592SOL     OW 4909   3.336   1.842   2.852 -0.6846 -0.4426 -0.1557
 1592SOL    HW1 4910   3.418   1.886   2.830 -2.0911  1.8154 -1.2488
 1592SOL    HW2 4911   3.331   1.846   2.947  1.6487 -3.0337  0.2038
 1593SOL     OW 4912   0.665   1.227   2.824 -0.3956  0.0940  0.0816
 1593SOL    HW1 4913   0.642   1.298   2.884 -1.6496 -1.3870  1.4373
 1593SOL    HW2 4914   0.761   1.230   2.819 -0.4395  2.4705 -0.7276
 1594SOL     OW 4915   2.953   0.451   3.576  0.0611  0.1819  0.0663
 1594SOL    HW1 4916   2.925   0.533   3.617 -0.2165 -0.7307  1.8057
 1594SOL    HW2 4917   2.877   0.422   3.526  0.3293  1.2096 -0.9651
 1595SOL     OW 4918   0.239   2.548   0.685  0.1617  0.0508  0.2626
 1595SOL    HW1 4919   0.315   2.593   0.724  0.0921  0.6243 -0.2435
 1595SOL    HW2 4920   0.228   2.469   0.738  1.3687 -0.2518  0.0874
 1596SOL     OW 4921   2.967   1.849   1.381 -0.6872  0.1542 -0.0508
 1596SOL    HW1 4922   3.003   1.811   1.301 -1.1507  0.6360 -0.4964
 1596SOL    HW2 4923   3.015   1.805   1.452  1.2482  1.2076 -0.6176
 1597SOL     OW 4924   1.203   1.608   2.989  0.4583  0.3676 -0.2712
 1597SOL    HW1 4925   1.109   1.623   3.005  0.4869  1.3381 -0.9663
 1597SOL    HW2 4926   1.219   1.645   2.903  1.3060 -0.6095 -0.5579
 1598SOL     OW 4927   2.359   3.535   2.030  0.1175  0.4940  0.3186
 1598SOL    HW1 4928   2.325   3.624   2.040  0.0349  0.6831 -1.4504
 1598SOL    HW2 4929   2.288   3.486   1.989  0.5033 -0.1612  0.4191
 1599SOL     OW 4930   1.027   0.401   1.880  0.2790  0.3744 -0.1190
 1599SOL    HW1 4931   1.046   0.309   1.860  2.6723  0.8352 -0.2746
 1599SOL    HW2 4932   0.952   0.398   1.939  0.5849 -1.7175  0.2312
 1600SOL     OW 4933   3.054   2.244   1.580 -0.1840 -0.1672  0.1291
 1600SOL    HW1 4934   3.127   2.194   1.616 -0.8270 -2.1560 -1.1780
 1600SOL    HW2 4935   2.988   2.178   1.557 -1.8240  1.4368 -0.0550
 1601SOL     OW 4936   1.697   3.469   2.172 -0.1069 -0.0012 -0.2610
 1601SOL    HW1 4937   1.628   3.480   2.107 -0.8852  0.3237  0.6012
 1601SOL    HW2 4938   1.651   3.445   2.252  0.7613  0.4471  0.3849
 1602SOL     OW 4939   1.270   0.768   2.189  0.2911  0.3617 -0.3517
 1602SOL    HW1 4940   1.296   0.771   2.282  0.4541  0.9286 -0.4113
 1602SOL    HW2 4941   1.206   0.697   2.185  1.2376 -0.5422 -0.0536
 1603SOL     OW 4942   2.190   1.020   0.050 -0.9021  0.3450  0.1389
 1603SOL    HW1 4943   2.249   1.077   0.100 -0.4452  0.7823 -0.8685
 1603SOL    HW2 4944   2.195   1.054  -0.040  1.1932 -2.6961 -1.0392
 1604SOL     OW 4945   2.004   2.264   2.683 -0.4450 -0.2650 -0.2413
 1604SOL    HW1 4946   2.009   2.359   2.685  0.6102 -0.3193  0.7090
 1604SOL    HW2 4947   2.045   2.236   2.765  1.0971 -1.6023 -1.4069
 1605SOL     OW 4948   2.398   3.005   3.183 -0.4639  0.1839 -0.0108
 1605SOL    HW1 4949   2.418   3.070   3.115 -2.8389  0.2280 -0.7564
 1605SOL    HW2 4950   2.423   2.921   3.144  0.8076  0.4335  0.2085
 1606SOL     OW 4951   1.210   1.037   2.701 -0.0354  0.3721 -0.0831
 1606SOL    HW1 4952   1.156   1.099   2.751 -2.2446 -2.4216  1.2728
 1606SOL    HW2 4953   1.276   1.007   2.763 -0.5170 -0.4177  0.0563
 1607SOL     OW 4954   1.561   3.530   3.157  0.6000  0.0668 -0.4634
 1607SOL    HW1 4955   1.528   3.455   3.108  2.2222 -0.3322 -0.9890
 1607SOL    HW2 4956   1.595   3.590   3.090 -1.1950  1.5822 -0.1044
 1608SOL     OW 4957   2.647   2.435   2.483 -0.0025  0.0139 -1.0827
 1608SOL    HW1 4958   2.644   2.530   2.493 -0.0020  0.0145 -1.0882
 1608SOL    HW2 4959   2.740   2.413   2.486  0.0049  0.0276 -1.2093
 1609SOL     OW 4960   1.398   2.964   0.111  0.3627 -0.7778 -0.5194
 1609SOL    HW1 4961   1.470   3.027   0.120  1.2802 -1.6938 -1.1535
 1609SOL    HW2 4962   1.381   2.961   0.017 -1.3287  0.2893 -0.2820
 1610SOL     OW 4963   2.233   2.582   1.834 -0.4150 -0.2961  0.0160
 1610SOL    HW1 4964   2.230   2.574   1.739  0.8302  0.3904 -0.0947
 1610SOL    HW2 4965   2.326   2.584   1.856 -0.6739  0.4645  1.1713
 1611SOL     OW 4966   3.411   0.208   3.725  0.7239 -0.8754  0.3299
 1611SOL    HW1 4967   3.427   0.252   3.641 -0.6533 -1.3915 -0.2242
 1611SOL    HW2 4968   3.345   0.262   3.768  1.4627 -0.5846  1.1297
 1612SOL     OW 4969   2.733   3.426   1.871 -0.0930 -0.1209  0.2313
 1612SOL    HW1 4970   2.664   3.432   1.804 -0.8907  1.3996  1.1225
 1612SOL    HW2 4971   2.797   3.364   1.835 -1.5251 -0.9579 -0.9822
 1613SOL     OW 4972   0.699   0.606   3.066  0.5664 -0.0119  0.0715
 1613SOL    HW1 4973   0.707   0.701   3.063 -0.4838  0.0855 -0.1031
 1613SOL    HW2 4974   0.740   0.581   3.149 -0.8298  0.8127  1.0581
 1614SOL     OW 4975   0.611   2.099   0.316  0.2944  0.0581 -0.1889
 1614SOL    HW1 4976   0.628   2.145   0.398  0.6678  0.0759 -0.2784
 1614SOL    HW2 4977   0.640   2.009   0.332  1.4578  0.3358 -0.6866
 1615SOL     OW 4978   2.620   2.685   2.550  0.0896 -0.3393  0.0853
 1615SOL    HW1 4979   2.547   2.743   2.530  0.4843  0.6905  1.4826
 1615SOL    HW2 4980   2.698   2.740   2.536  0.4932 -0.7266  0.7893
 1616SOL     OW 4981   0.714   2.274   0.152  0.0710  0.0131 -0.0892
 1616SOL    HW1 4982   0.670   2.218   0.216 -0.9611 -0.1978 -0.9474
 1616SOL    HW2 4983   0.807   2.253   0.162 -0.1062 -0.2803  1.0745
 1617SOL     OW 4984   0.184   3.419   1.092  0.4504 -0.2155 -0.5053
 1617SOL    HW1 4985   0.170   3.325   1.106 -0.6173 -0.0944 -0.7121
 1617SOL    HW2 4986   0.175   3.457   1.179  1.4143 -0.3472 -0.3290
 1618SOL     OW 4987   0.145   2.120   0.900 -0.4723  0.0017 -0.9181
 1618SOL    HW1 4988   0.177   2.123   0.990  1.5946 -1.0646 -1.5526
 1618SOL    HW2 4989   0.207   2.174   0.851 -0.5519 -0.8158 -1.9567
 1619SOL     OW 4990   1.151   1.367   0.152  0.2062  0.6105 -0.2467
 1619SOL    HW1 4991   1.128   1.416   0.073  0.5683  0.9897 -0.1178
 1619SOL    HW2 4992   1.136   1.275   0.128 -3.2293  0.8805  0.3849
 1620SOL     OW 4993   1.532   1.033   1.591  0.0711 -0.1614 -0.5248
 1620SOL    HW1 4994   1.515   1.073   1.676 -4.3499 -2.5606  0.0565
 1620SOL    HW2 4995   1.557   1.106   1.535 -0.8061  2.2017  1.9264
 1621SOL     OW 4996   0.004   0.872   2.011 -0.6173  0.5911  0.1529
 1621SOL    HW1 4997   0.053   0.936   1.959  0.6330 -0.1058  0.4372
 1621SOL    HW2 4998   0.029   0.891   2.101 -0.1514 -0.3561  0.2322
 1622SOL     OW 4999   1.768   0.250   3.162 -0.1941  0.0873  0.5073
 1622SOL    HW1 5000   1.848   0.301   3.174  1.3199 -1.5304 -1.7914
 1622SOL    HW2 5001   1.798   0.159   3.164 -1.9512 -0.5510 -0.5021
 1623SOL     OW 5002   1.229   3.394   2.498 -0.6921 -0.6384  0.2316
 1623SOL    HW1 5003   1.296   3.369   2.562  0.5719 -0.8673 -1.1264
 1623SOL    HW2 5004   1.232   3.327   2.431 -0.7701  0.4812 -0.9415
 1624SOL     OW 5005   2.692   0.623   1.399  0.0808  0.7660 -0.5371
 1624SOL    HW1 5006   2.645   0.706   1.398 -2.8844 -0.7461  0.2690
 1624SOL    HW2 5007   2.717   0.608   1.307 -1.1194  1.6437 -1.0329
 1625SOL     OW 5008   1.475   1.391   0.510 -0.6904 -0.2555  0.0458
 1625SOL    HW1 5009   1.398   1.360   0.463 -2.2743  2.0170  0.9279
 1625SOL    HW2 5010   1.477   1.340   0.592 -1.7560  0.2109  0.3721
 1626SOL     OW 5011   1.570   2.301   3.755  0.0681 -0.0965  0.3094
 1626SOL    HW1 5012   1.644   2.279   3.699  0.0128  0.1030  0.1582
 1626SOL    HW2 5013   1.505   2.233   3.737 -0.7354  1.0469 -1.3367
 1627SOL     OW 5014   3.263   0.852   1.838 -0.8942 -0.1708  0.0595
 1627SOL    HW1 5015   3.342   0.807   1.870 -0.9246  1.3933  2.6455
 1627SOL    HW2 5016   3.191   0.810   1.885 -1.2803  0.2650 -0.1424
 1628SOL     OW 5017   0.218   0.280   3.674 -0.1450  0.7625  0.3904
 1628SOL    HW1 5018   0.255   0.284   3.762  0.6775 -0.2058  0.1064
 1628SOL    HW2 5019   0.176   0.194   3.669 -1.7007  1.4922  0.4052
 1629SOL     OW 5020   2.807   2.702   0.508  0.3131 -0.6536  0.0364
 1629SOL    HW1 5021   2.881   2.755   0.477 -1.2614  1.6523 -0.0429
 1629SOL    HW2 5022   2.828   2.683   0.599  1.3538 -0.7414 -0.2018
 1630SOL     OW 5023   1.068   2.243   2.663  0.7404 -0.0913  0.4851
 1630SOL    HW1 5024   1.123   2.290   2.600  1.3709  1.4632  2.0949
 1630SOL    HW2 5025   1.072   2.297   2.742 -0.0453 -1.9427  1.8514
 1631SOL     OW 5026   3.612   2.609   0.005  0.4216  0.1301  0.7528
 1631SOL    HW1 5027   3.559   2.680  -0.031 -0.4356 -0.3189  1.1059
 1631SOL    HW2 5028   3.690   2.653   0.040 -0.2580  0.9465  1.2868
 1632SOL     OW 5029   3.509   2.532   1.201  0.3538  0.1573  0.0987
 1632SOL    HW1 5030   3.531   2.451   1.154  2.3290  0.5939  0.1875
 1632SOL    HW2 5031   3.593   2.565   1.232 -0.6585  1.0144  2.1326
 1633SOL     OW 5032   3.459   2.441   0.159 -0.0397  0.4230 -0.2138
 1633SOL    HW1 5033   3.504   2.516   0.120  0.7782 -0.9533 -2.0867
 1633SOL    HW2 5034   3.528   2.390   0.201 -0.5704  0.6343  0.9469
 1634SOL     OW 5035   3.602   3.164   0.325  0.4297 -0.2911  0.2769
 1634SOL    HW1 5036   3.582   3.229   0.393 -1.2572 -2.5988  2.1715
 1634SOL    HW2 5037   3.517   3.139   0.290  1.0784 -1.1406 -0.7422
 1635SOL     OW 5038   1.956   0.619   0.255 -0.5309 -0.0080 -0.3797
 1635SOL    HW1 5039   1.937   0.687   0.319  1.3991  0.3463 -0.1248
 1635SOL    HW2 5040   1.972   0.666   0.173  4.9906  0.5522  0.6000
 1636SOL     OW 5041   1.764   2.109   1.537  0.3368  0.9396 -0.3309
 1636SOL    HW1 5042   1.674   2.085   1.559  0.7170  0.0687  0.3265
 1636SOL    HW2 5043   1.767   2.104   1.442 -0.6029  2.0869 -0.4458
 1637SOL     OW 5044   3.361   1.097   1.997 -0.2136  0.7085 -0.5435
 1637SOL    HW1 5045   3.374   1.002   2.001  1.0746  0.8653 -0.5471
 1637SOL    HW2 5046   3.400   1.129   2.079 -2.3567  1.0806  0.3903
 1638SOL     OW 5047   3.412   0.129   0.600  0.4460 -0.1902 -0.0272
 1638SOL    HW1 5048   3.429   0.036   0.595  0.2414 -0.1677 -1.3210
 1638SOL    HW2 5049   3.323   0.135   0.635 -0.4924 -0.5846 -2.1817
 1639SOL     OW 5050   0.585   0.870   3.504  0.2949 -0.0166 -0.2110
 1639SOL    HW1 5051   0.506   0.849   3.554  0.5843 -0.4048  0.0874
 1639SOL    HW2 5052   0.557   0.864   3.413  0.0044 -0.2516 -0.1101
 1640SOL     OW 5053   1.132   3.418   0.464 -0.0859 -0.5003 -0.1798
 1640SOL    HW1 5054   1.101   3.361   0.393  0.1766 -3.1792  1.7070
 1640SOL    HW2 5055   1.055   3.435   0.518  0.3807 -1.6033  0.8796
 1641SOL     OW 5056   2.423   0.926   2.738  0.4538 -0.8818  0.1607
 1641SOL    HW1 5057   2.467   0.869   2.676  0.7555 -0.8957  0.3875
 1641SOL    HW2 5058   2.459   1.013   2.722 -1.8201 -0.2350 -1.9295
 1642SOL     OW 5059   0.356   2.431   3.256 -1.1783  0.7451  0.0387
 1642SOL    HW1 5060   0.325   2.485   3.183  2.5300  0.3753 -2.0213
 1642SOL    HW2 5061   0.351   2.341   3.224 -0.6199  0.4708  0.6979
 1643SOL     OW 5062   1.768   2.660   2.469  0.1240  0.5255  0.1589
 1643SOL    HW1 5063   1.695   2.714   2.439 -0.7368 -0.8037 -0.1979
 1643SOL    HW2 5064   1.751   2.574   2.432  0.9748 -0.2366  1.4781
 1644SOL     OW 5065   3.087   2.287   0.310  0.5058 -0.0797  0.2624
 1644SOL    HW1 5066   3.107   2.210   0.364 -1.0634 -0.3417  0.5081
 1644SOL    HW2 5067   3.089   2.255   0.220 -0.9704 -0.6485  0.3989
 1645SOL     OW 5068   1.304   3.575   1.673 -0.5231  0.5711  0.0797
 1645SOL    HW1 5069   1.252   3.592   1.594 -0.0325  0.2267 -0.3155
 1645SOL    HW2 5070   1.393   3.601   1.650 -0.5591  1.4872  0.8713
 1646SOL     OW 5071   2.033   0.143   0.695 -0.0550  0.0560 -0.4116
 1646SOL    HW1 5072   1.995   0.227   0.668  0.2536  1.4675  2.9723
 1646SOL    HW2 5073   1.960   0.082   0.693 -0.8145  0.9485 -0.8660
 1647SOL     OW 5074   1.545   1.100   1.847 -0.1378  0.7901  0.5065
 1647SOL    HW1 5075   1.584   1.013   1.858  0.8029  1.4428  2.7662
 1647SOL    HW2 5076   1.617   1.161   1.862 -0.9990  2.0039 -0.1199
 1648SOL     OW 5077   1.473   3.583   0.088  0.0217 -0.1350  0.2153
 1648SOL    HW1 5078   1.470   3.515   0.020  0.2456 -1.9424  1.9050
 1648SOL    HW2 5079   1.386   3.623   0.087 -0.0185 -0.2141 -1.0161
 1649SOL     OW 5080   1.372   0.281   0.323  0.4008  0.0817  0.3907
 1649SOL    HW1 5081   1.354   0.348   0.257  2.9449  0.0592 -0.4320
 1649SOL    HW2 5082   1.340   0.200   0.284 -1.4777  0.5655  0.8260
 1650SOL     OW 5083   2.118   1.869   1.764 -0.0691 -0.1155  0.8991
 1650SOL    HW1 5084   2.194   1.820   1.794 -0.7244 -0.8249  1.4452
 1650SOL    HW2 5085   2.120   1.950   1.815  0.5016  0.0268  0.6618
 1651SOL     OW 5086   1.862   2.823   1.373 -0.2563  0.1683  0.4148
 1651SOL    HW1 5087   1.905   2.763   1.434  1.8200 -0.4033 -1.5019
 1651SOL    HW2 5088   1.802   2.874   1.428  1.7336 -0.0699  2.9742
 1652SOL     OW 5089   1.693   0.736   3.404 -0.1418  0.4952  0.2071
 1652SOL    HW1 5090   1.651   0.817   3.377 -0.5622 -0.1656 -1.2176
 1652SOL    HW2 5091   1.668   0.726   3.496 -1.7703  0.9681 -0.1464
 1653SOL     OW 5092   1.415   3.730   1.375 -0.8508  0.0049  0.5972
 1653SOL    HW1 5093   1.329   3.771   1.363 -0.8309 -0.0730  0.1868
 1653SOL    HW2 5094   1.399   3.636   1.365 -0.7458 -0.0222  0.6828
 1654SOL     OW 5095   3.751   3.436   3.753 -0.6403  0.5857 -0.5573
 1654SOL    HW1 5096   3.656   3.426   3.741 -1.0204  3.1357 -0.2337
 1654SOL    HW2 5097   3.786   3.435   3.664 -0.6083 -2.5569 -0.6159
 1655SOL     OW 5098   3.437   3.350   1.375 -0.3118  0.1120 -0.3769
 1655SOL    HW1 5099   3.390   3.432   1.361 -2.0690 -1.1508 -2.3511
 1655SOL    HW2 5100   3.489   3.337   1.295  0.0703 -0.6357 -0.0229
 1656SOL     OW 5101   2.030   1.304   1.571  0.2702  0.1104 -0.0910
 1656SOL    HW1 5102   2.103   1.355   1.536  1.4001 -1.3477  0.0231
 1656SOL    HW2 5103   1.989   1.264   1.494  0.4629 -0.1740 -0.0471
 1657SOL     OW 5104   2.390   2.566   3.699 -0.1515 -0.1912 -0.5410
 1657SOL    HW1 5105   2.435   2.482   3.700  0.1464 -0.0274 -0.3729
 1657SOL    HW2 5106   2.362   2.577   3.607  3.6252  1.5465 -1.6859
 1658SOL     OW 5107   2.238   1.439   3.179  0.6302  0.2821 -0.2989
 1658SOL    HW1 5108   2.226   1.431   3.273 -0.9715 -0.7072 -0.5387
 1658SOL    HW2 5109   2.151   1.465   3.146  1.1284  0.5000 -1.5064
 1659SOL     OW 5110   2.269   1.301   0.568 -0.3279  0.0060 -0.6701
 1659SOL    HW1 5111   2.274   1.396   0.578  1.7687 -0.0982 -0.2635
 1659SOL    HW2 5112   2.276   1.267   0.657  1.7994 -0.5595 -1.0024
 1660SOL     OW 5113   1.266   1.597   0.949  0.2728  0.7499  0.2359
 1660SOL    HW1 5114   1.240   1.574   0.859  0.0953  0.2597  0.4090
 1660SOL    HW2 5115   1.210   1.543   1.004  2.4784 -1.3538  0.6227
 1661SOL     OW 5116   0.675   1.512   2.203  0.1743 -0.2314 -0.0691
 1661SOL    HW1 5117   0.762   1.472   2.197 -0.5922 -2.0696  0.3147
 1661SOL    HW2 5118   0.618   1.455   2.151 -0.8697  0.7642 -0.0750
 1662SOL     OW 5119   2.320   0.349   0.717  0.4084  0.1433  0.4162
 1662SOL    HW1 5120   2.291   0.428   0.672 -1.2513  0.3466  1.7231
 1662SOL    HW2 5121   2.261   0.280   0.685  0.2822 -0.0470  1.0401
 1663SOL     OW 5122   2.104   2.556   0.148  0.0779  0.5765 -0.1194
 1663SOL    HW1 5123   2.170   2.559   0.079 -0.6460  1.3520 -0.8113
 1663SOL    HW2 5124   2.067   2.644   0.148 -0.7415  0.2382  0.4616
 1664SOL     OW 5125   0.167   2.622   0.961  0.4366  1.2419 -0.3348
 1664SOL    HW1 5126   0.143   2.548   1.017 -0.2131  0.9866 -0.9413
 1664SOL    HW2 5127   0.203   2.687   1.021 -2.7982  2.1206  0.8015
 1665SOL     OW 5128   3.535   1.227   2.878  0.3194 -0.3467 -0.4613
 1665SOL    HW1 5129   3.619   1.218   2.833  0.6590  0.0709  0.0771
 1665SOL    HW2 5130   3.532   1.319   2.904  0.2263 -0.6248  0.5481
 1666SOL     OW 5131   2.491   0.788   2.478 -0.8054  0.0516  0.0088
 1666SOL    HW1 5132   2.575   0.743   2.491  0.8104  2.7544 -0.1921
 1666SOL    HW2 5133   2.429   0.718   2.459  1.1808 -2.1659  1.1103
 1667SOL     OW 5134   1.056   2.221   0.618  0.2059 -0.2760  0.2578
 1667SOL    HW1 5135   1.074   2.165   0.694 -0.3481 -0.2898  0.3839
 1667SOL    HW2 5136   1.051   2.160   0.545 -0.6685 -0.4419  0.4369
 1668SOL     OW 5137   0.178   0.962   1.158  0.1243  0.3552 -0.3369
 1668SOL    HW1 5138   0.140   1.028   1.100  0.7979  0.9832 -0.0880
 1668SOL    HW2 5139   0.218   1.013   1.229  1.6565 -0.2442 -0.7288
 1669SOL     OW 5140   0.735   0.770   0.725  0.3152 -0.0209  0.2480
 1669SOL    HW1 5141   0.659   0.784   0.783  0.6393  3.7389  0.0309
 1669SOL    HW2 5142   0.701   0.788   0.637  1.6084  3.2507  0.2901
 1670SOL     OW 5143   0.469   2.383   1.155  0.4133 -0.0872  0.0773
 1670SOL    HW1 5144   0.389   2.333   1.164  0.4174 -0.3282 -1.1681
 1670SOL    HW2 5145   0.512   2.348   1.077  0.9492  1.1053 -0.1894
 1671SOL     OW 5146   2.092   3.304   0.381 -0.2861  0.1901  1.4122
 1671SOL    HW1 5147   2.063   3.381   0.429 -0.2851 -0.4948  2.5428
 1671SOL    HW2 5148   2.017   3.245   0.382  0.1140 -0.3288  1.6542
 1672SOL     OW 5149   2.449   2.779   0.116 -0.8333 -0.8423 -0.6757
 1672SOL    HW1 5150   2.528   2.746   0.158  0.0004  1.0852 -0.6583
 1672SOL    HW2 5151   2.430   2.714   0.047  0.9013 -1.2182 -0.8525
 1673SOL     OW 5152   3.212   0.398   0.617 -0.1170  0.2807  0.6052
 1673SOL    HW1 5153   3.140   0.451   0.584  0.0364  0.9933  1.3697
 1673SOL    HW2 5154   3.173   0.344   0.686 -0.0643  0.1271  0.5168
 1674SOL     OW 5155   3.647   1.707   1.241  0.5149 -0.3685 -0.1330
 1674SOL    HW1 5156   3.737   1.730   1.220  0.6957  0.2553  1.2903
 1674SOL    HW2 5157   3.654   1.630   1.298  0.1577 -0.1884  0.1577
 1675SOL     OW 5158   2.570   0.202   0.638  0.4662 -0.0505 -0.5200
 1675SOL    HW1 5159   2.485   0.174   0.671  0.4107  0.7046 -0.0021
 1675SOL    HW2 5160   2.551   0.277   0.582  0.8750  0.7968  0.4427
 1676SOL     OW 5161   2.328   1.772   1.898 -0.5986  0.0533  0.0782
 1676SOL    HW1 5162   2.351   1.681   1.919 -1.3397  0.2197  1.8647
 1676SOL    HW2 5163   2.409   1.821   1.912  0.1502 -0.4533 -2.1427
 1677SOL     OW 5164   0.078   3.055   3.315  0.4043  0.8206 -1.0925
 1677SOL    HW1 5165   0.136   2.992   3.271  1.9750  1.2056  0.2910
 1677SOL    HW2 5166   0.136   3.128   3.338 -0.6505  1.2366  0.3539
 1678SOL     OW 5167   1.157   1.753   1.354 -0.3826 -0.0713 -0.0224
 1678SOL    HW1 5168   1.136   1.826   1.295 -2.0766 -0.8658 -0.4765
 1678SOL    HW2 5169   1.250   1.764   1.373  0.5308 -0.2706 -3.5937
 1679SOL     OW 5170   0.362   2.833   1.369 -0.1221 -0.0295  0.2554
 1679SOL    HW1 5171   0.410   2.888   1.431  1.2581  1.5594 -2.1147
 1679SOL    HW2 5172   0.429   2.780   1.326 -1.0018 -0.8275 -0.1676
 1680SOL     OW 5173   2.691   1.715   3.511  0.0534  0.6040  0.0322
 1680SOL    HW1 5174   2.787   1.714   3.514  0.1619 -1.9722 -1.3160
 1680SOL    HW2 5175   2.664   1.675   3.594  0.3394 -1.5202 -0.8186
 1681SOL     OW 5176   0.654   1.786   1.122  0.4744 -0.1402 -0.5543
 1681SOL    HW1 5177   0.598   1.744   1.056  1.2343 -1.4478 -0.4036
 1681SOL    HW2 5178   0.651   1.879   1.100 -0.4590 -0.3751 -1.5258
 1682SOL     OW 5179   3.685   1.981   2.489 -0.2104 -0.2409 -0.8017
 1682SOL    HW1 5180   3.757   2.037   2.518 -2.5167  2.3772  0.4188
 1682SOL    HW2 5181   3.654   1.940   2.570 -1.2957  0.2739 -0.9347
 1683SOL     OW 5182   3.422   0.333   0.988  0.1998 -0.1542 -0.1045
 1683SOL    HW1 5183   3.348   0.347   1.047 -1.2314  0.9730 -2.0808
 1683SOL    HW2 5184   3.476   0.411   0.998 -0.2757  0.2431 -0.5865
 1684SOL     OW 5185   1.832   3.222   0.382 -0.3007  0.2739 -0.1023
 1684SOL    HW1 5186   1.736   3.230   0.380 -0.3505 -0.3118 -0.3607
 1684SOL    HW2 5187   1.848   3.137   0.422  0.1567  0.9583  1.2294
 1685SOL     OW 5188   0.007   1.938   2.038  0.2312 -0.1283 -0.3434
 1685SOL    HW1 5189   0.059   1.866   2.074  0.2026 -0.5998 -1.2169
 1685SOL    HW2 5190  -0.051   1.964   2.109 -0.0675 -1.2720 -0.1602
 1686SOL     OW 5191   2.389   2.382   0.301 -0.2340  0.1260 -0.1395
 1686SOL    HW1 5192   2.374   2.395   0.207 -1.5941 -0.1581  0.0109
 1686SOL    HW2 5193   2.378   2.470   0.339  1.1816  0.4014 -0.3301
 1687SOL     OW 5194   3.119   2.566   0.628 -0.0654 -0.0100 -0.3793
 1687SOL    HW1 5195   3.204   2.611   0.632 -0.9720  1.8772  4.6484
 1687SOL    HW2 5196   3.119   2.509   0.705 -3.5975  0.5450  0.1638
 1688SOL     OW 5197   3.130   3.590   1.362 -0.2587  0.1283 -0.0664
 1688SOL    HW1 5198   3.114   3.600   1.268 -1.5180 -0.0618  0.1140
 1688SOL    HW2 5199   3.085   3.508   1.385  2.7333 -1.6190  0.1063
 1689SOL     OW 5200   2.693   3.626   2.397 -0.4239 -0.6283 -0.5640
 1689SOL    HW1 5201   2.766   3.579   2.357 -0.3831 -0.7013 -0.4076
 1689SOL    HW2 5202   2.615   3.579   2.367 -0.5652  0.6899 -2.4230
 1690SOL     OW 5203   1.131   2.340   1.268  0.1109  0.0889  0.9130
 1690SOL    HW1 5204   1.140   2.422   1.219 -0.5442  1.1158  2.4416
 1690SOL    HW2 5205   1.190   2.279   1.223  2.2079  1.9709  0.9516
 1691SOL     OW 5206   0.422   1.350   3.180  0.3306 -0.2262  0.0456
 1691SOL    HW1 5207   0.425   1.258   3.206 -1.2063 -0.3980 -0.2553
 1691SOL    HW2 5208   0.339   1.359   3.133 -0.8366  1.8413  2.2311
 1692SOL     OW 5209   3.364   3.366   2.690 -0.3202  0.2694  0.3444
 1692SOL    HW1 5210   3.420   3.443   2.685  0.3460 -0.1357  1.2560
 1692SOL    HW2 5211   3.314   3.367   2.608  0.8966  0.7273 -0.4183
 1693SOL     OW 5212   2.835   0.278   2.403  0.0267  0.3608 -0.1875
 1693SOL    HW1 5213   2.840   0.280   2.307 -0.5454 -1.8462 -0.3166
 1693SOL    HW2 5214   2.746   0.246   2.421 -0.0754  1.3055  1.1162
 1694SOL     OW 5215   0.939   1.325   1.803 -0.5306 -0.0116  0.3249
 1694SOL    HW1 5216   0.921   1.377   1.725 -1.1269  0.0663  0.5157
 1694SOL    HW2 5217   0.857   1.280   1.823 -1.0713  1.6200  2.1401
 1695SOL     OW 5218   2.696   0.168   3.710 -0.3983 -0.2348  0.5477
 1695SOL    HW1 5219   2.661   0.177   3.621  1.2858 -2.1869 -0.4055
 1695SOL    HW2 5220   2.636   0.219   3.765 -2.1467  0.0979 -1.5281
 1696SOL     OW 5221   0.196   3.171   1.223 -0.5107  0.3961 -0.2581
 1696SOL    HW1 5222   0.191   3.133   1.310 -1.7925 -0.1155 -0.5201
 1696SOL    HW2 5223   0.104   3.176   1.194 -0.1552  1.1098 -1.3341
 1697SOL     OW 5224   0.024   1.464   3.015  0.0466  0.1477  0.1920
 1697SOL    HW1 5225   0.087   1.420   2.957 -1.6850 -1.4419 -0.5916
 1697SOL    HW2 5226   0.023   1.555   2.983 -0.3096 -0.5059 -1.8503
 1698SOL     OW 5227   0.281   1.177   1.842  0.2275  0.3623  0.2731
 1698SOL    HW1 5228   0.304   1.211   1.756 -1.2466 -0.3807 -0.4550
 1698SOL    HW2 5229   0.303   1.083   1.837 -0.2398  0.2366  0.5686
 1699SOL     OW 5230   0.140   2.893   2.095 -0.1137 -0.5853 -0.1300
 1699SOL    HW1 5231   0.226   2.851   2.100 -0.3075 -1.3115 -2.3152
 1699SOL    HW2 5232   0.085   2.831   2.049 -0.9476  1.1636 -1.6211
 1700SOL     OW 5233   3.189   3.489   2.180 -0.2870  0.6716  0.3150
 1700SOL    HW1 5234   3.245   3.529   2.246  1.1758  0.1513 -0.5677
 1700SOL    HW2 5235   3.127   3.558   2.156  0.4204  1.4908  0.8172
 1701SOL     OW 5236   2.228   3.411   2.885 -0.0872 -0.4293 -0.4622
 1701SOL    HW1 5237   2.153   3.366   2.846  1.8114 -3.2341 -1.1330
 1701SOL    HW2 5238   2.211   3.409   2.979 -2.3223  1.9748 -0.6789
 1702SOL     OW 5239   3.684   1.113   2.493 -0.5896  0.0888 -0.7497
 1702SOL    HW1 5240   3.628   1.105   2.570 -1.1857 -2.2656 -1.3646
 1702SOL    HW2 5241   3.773   1.101   2.527 -0.9171 -2.0104 -0.5028
 1703SOL     OW 5242   2.623   2.935   3.580 -0.0494 -0.6926  0.0127
 1703SOL    HW1 5243   2.572   2.996   3.632 -0.3377 -1.4023  0.5744
 1703SOL    HW2 5244   2.713   2.966   3.587 -0.4973  1.3213 -2.0185
 1704SOL     OW 5245   3.305   2.417   2.796  0.3994  1.0418  0.1411
 1704SOL    HW1 5246   3.334   2.336   2.755 -0.9414  0.2337  0.7195
 1704SOL    HW2 5247   3.386   2.462   2.821  1.1739 -0.7158  0.9569
 1705SOL     OW 5248   1.238   3.149   3.504 -0.0993  0.3203  0.1501
 1705SOL    HW1 5249   1.322   3.132   3.462 -0.9313 -0.3884 -1.2938
 1705SOL    HW2 5250   1.185   3.073   3.484 -2.3287  2.3381 -2.2856
 1706SOL     OW 5251   0.449   1.902   3.074 -0.0536 -0.5103  0.2937
 1706SOL    HW1 5252   0.443   1.812   3.041 -1.1587 -0.1339 -0.6376
 1706SOL    HW2 5253   0.448   1.956   2.995  1.6483  0.3051  0.7901
 1707SOL     OW 5254   1.973   2.451   3.613  0.6845 -0.1030  0.3606
 1707SOL    HW1 5255   1.973   2.546   3.628  0.2347  0.1644 -1.2338
 1707SOL    HW2 5256   1.880   2.426   3.615  0.7627 -0.4149  0.2085
 1708SOL     OW 5257   1.225   0.175   3.230  0.8347 -0.0489 -0.2271
 1708SOL    HW1 5258   1.162   0.245   3.211  1.0981  1.2655  2.9917
 1708SOL    HW2 5259   1.304   0.222   3.260  1.4837 -1.6883  0.7799
 1709SOL     OW 5260   2.405   3.461   3.586 -0.6393  0.6861 -0.3497
 1709SOL    HW1 5261   2.427   3.398   3.516  0.4176  0.7671 -0.1059
 1709SOL    HW2 5262   2.342   3.415   3.641 -0.0110 -0.1062 -0.2761
 1710SOL     OW 5263   2.522   3.147  -0.012  0.2841  0.7074  0.1429
 1710SOL    HW1 5264   2.588   3.215  -0.022 -2.1130  3.5347  1.6247
 1710SOL    HW2 5265   2.522   3.127   0.082  0.3319 -0.7096 -0.1390
 1711SOL     OW 5266   1.938   2.086   2.939  0.5003  0.6842  0.2627
 1711SOL    HW1 5267   1.915   2.006   2.987  2.0664  0.7251  1.1446
 1711SOL    HW2 5268   2.027   2.070   2.907 -1.0389 -0.0886 -4.3406
 1712SOL     OW 5269   2.362   2.157   3.458 -0.3152 -0.5482  0.6277
 1712SOL    HW1 5270   2.280   2.150   3.507  0.1094 -0.3047  1.3867
 1712SOL    HW2 5271   2.417   2.087   3.494 -0.0271 -0.4167  0.4458
 1713SOL     OW 5272   1.135   3.662   0.766  0.1431  0.1871  0.5577
 1713SOL    HW1 5273   1.166   3.604   0.835  0.1320  0.7140  1.0127
 1713SOL    HW2 5274   1.076   3.723   0.811 -0.6002 -0.0478 -0.0793
 1714SOL     OW 5275   3.389   2.147  -0.000  0.0665 -0.2951 -0.5025
 1714SOL    HW1 5276   3.386   2.053  -0.014  2.3492 -0.5919  0.6074
 1714SOL    HW2 5277   3.302   2.170   0.032 -0.7013 -1.8940 -1.3464
 1715SOL     OW 5278   0.585   1.061   0.873 -0.0470 -0.9116  0.2011
 1715SOL    HW1 5279   0.569   1.155   0.886  0.0262 -0.8630 -0.0600
 1715SOL    HW2 5280   0.524   1.035   0.804  1.1205 -0.6779 -0.9510
 1716SOL     OW 5281   1.661   1.706   2.851 -0.0145  0.1116  0.0404
 1716SOL    HW1 5282   1.717   1.756   2.910  0.3610  1.4125 -1.3270
 1716SOL    HW2 5283   1.691   1.616   2.857  1.4777  0.6057  0.1843
 1717SOL     OW 5284   3.214   0.488   1.111 -0.0153 -0.5972  0.0149
 1717SOL    HW1 5285   3.222   0.557   1.177  0.9771  0.6579 -1.3895
 1717SOL    HW2 5286   3.167   0.529   1.039  0.7742 -1.3323 -0.9296
 1718SOL     OW 5287   1.945   0.055   1.620 -0.0247 -0.2718 -0.1457
 1718SOL    HW1 5288   1.930   0.104   1.701  0.7579  0.0630 -0.1941
 1718SOL    HW2 5289   1.859   0.017   1.599 -0.4166  0.2762  0.4145
 1719SOL     OW 5290   0.033   0.604   2.764 -0.4322 -0.0750  0.2285
 1719SOL    HW1 5291  -0.011   0.566   2.688  0.4392  1.0242 -0.8687
 1719SOL    HW2 5292  -0.017   0.684   2.783 -0.4292 -0.1556  0.5786
 1720SOL     OW 5293   0.248   2.736   2.670 -0.9530 -0.2782  0.0493
 1720SOL    HW1 5294   0.340   2.722   2.690 -1.4048 -0.9471  1.7661
 1720SOL    HW2 5295   0.247   2.758   2.576  1.1004  1.3847  0.3549
 1721SOL     OW 5296  -0.029   1.432   1.348  0.6548 -0.9222 -0.6604
 1721SOL    HW1 5297  -0.015   1.387   1.431 -1.2051  0.8070  0.6789
 1721SOL    HW2 5298   0.057   1.466   1.324  1.5054 -2.6641 -0.2457
 1722SOL     OW 5299   3.754   0.700   3.588 -1.0320 -0.3063  0.4817
 1722SOL    HW1 5300   3.671   0.738   3.617 -1.2553 -0.3738 -0.0489
 1722SOL    HW2 5301   3.750   0.609   3.616 -1.0216 -0.2456  0.6847
 1723SOL     OW 5302   3.520   2.866   3.667 -0.3008  0.0501 -0.5607
 1723SOL    HW1 5303   3.455   2.935   3.671  0.8373  1.1543 -0.4721
 1723SOL    HW2 5304   3.596   2.906   3.624  0.6346 -0.9297  0.1036
 1724SOL     OW 5305   2.004   2.534   2.746  0.0775  0.5747 -0.1195
 1724SOL    HW1 5306   1.937   2.601   2.756  1.4975  1.8155  1.6955
 1724SOL    HW2 5307   2.071   2.576   2.692  0.2814  0.0474 -0.2803
 1725SOL     OW 5308   3.534   0.820   1.161 -0.2994  0.2376 -0.0401
 1725SOL    HW1 5309   3.587   0.831   1.082  2.9222 -1.3797  1.6933
 1725SOL    HW2 5310   3.471   0.752   1.137  0.7039 -0.3337 -1.2163
 1726SOL     OW 5311   2.015   3.561   0.452  0.2644  0.3261  0.1741
 1726SOL    HW1 5312   2.021   3.583   0.545  0.2238 -0.2352  0.3187
 1726SOL    HW2 5313   1.921   3.567   0.432  0.1444 -0.5095  0.4279
 1727SOL     OW 5314   2.747   3.107   1.727 -0.0708 -0.2909 -0.1092
 1727SOL    HW1 5315   2.812   3.054   1.773 -0.2577 -0.1287  0.3567
 1727SOL    HW2 5316   2.788   3.129   1.644  0.5812  0.0285  0.2840
 1728SOL     OW 5317   2.893   0.680   3.684  0.5374 -0.0264 -0.6414
 1728SOL    HW1 5318   2.908   0.692   3.777  1.7098 -1.6348 -0.5783
 1728SOL    HW2 5319   2.908   0.766   3.645  0.5357  0.5431  0.5919
 1729SOL     OW 5320   1.756   2.517   1.480  0.3515 -0.3619  0.0820
 1729SOL    HW1 5321   1.750   2.537   1.387  0.4935 -0.5803  0.0248
 1729SOL    HW2 5322   1.668   2.489   1.505 -0.1351  1.3735  0.4116
 1730SOL     OW 5323   3.245   0.441   1.926  0.2637 -0.5814  0.0565
 1730SOL    HW1 5324   3.211   0.435   1.837  0.0094  2.5735 -0.1855
 1730SOL    HW2 5325   3.333   0.477   1.916  0.0069  0.3986  1.0324
 1731SOL     OW 5326   2.347   2.984   0.556  0.1523  0.3120  0.4416
 1731SOL    HW1 5327   2.265   2.963   0.600 -1.6585  3.1409 -1.2512
 1731SOL    HW2 5328   2.331   2.963   0.464  1.7152  0.0114  0.2125
 1732SOL     OW 5329   2.370   0.852   2.082  0.1566  0.4224 -0.2459
 1732SOL    HW1 5330   2.306   0.922   2.068 -1.6024 -1.2238 -0.7898
 1732SOL    HW2 5331   2.321   0.771   2.071  1.8513 -0.9570  1.5254
 1733SOL     OW 5332   3.193   2.425   0.035 -0.1265 -0.5116  0.3774
 1733SOL    HW1 5333   3.280   2.411   0.073 -1.0062 -1.3291  2.1963
 1733SOL    HW2 5334   3.189   2.519   0.018  0.4003 -0.1339  2.1562
 1734SOL     OW 5335   0.545   0.522   0.550 -0.2239 -0.6890 -0.3011
 1734SOL    HW1 5336   0.494   0.443   0.571 -0.2707 -1.3122 -2.4979
 1734SOL    HW2 5337   0.628   0.489   0.516 -0.4997  0.1582 -1.8808
 1735SOL     OW 5338   2.924   2.705   1.275 -0.4420  0.1019 -0.4643
 1735SOL    HW1 5339   2.979   2.658   1.337 -1.3582 -0.8094 -0.3152
 1735SOL    HW2 5340   2.836   2.670   1.289 -0.6694 -0.1982 -2.3115
 1736SOL     OW 5341   3.250   1.605   0.956 -0.0316  0.2160 -0.5378
 1736SOL    HW1 5342   3.181   1.663   0.924 -0.0353  0.8433  0.5486
 1736SOL    HW2 5343   3.307   1.662   1.008  0.5285 -0.5562 -0.2946
 1737SOL     OW 5344   1.642   2.379   0.447 -0.5667 -0.1944  0.2718
 1737SOL    HW1 5345   1.671   2.304   0.499 -0.3158  0.8963  1.7707
 1737SOL    HW2 5346   1.714   2.443   0.454 -1.0628  0.4626 -0.4110
 1738SOL     OW 5347   2.740   2.957   2.671  0.3295 -0.2139  0.1476
 1738SOL    HW1 5348   2.835   2.944   2.664  0.1760 -1.7772  0.4064
 1738SOL    HW2 5349   2.713   2.983   2.583  1.2280  2.3116  0.5458
 1739SOL     OW 5350   1.767   0.494   0.479  0.4752  0.6426 -0.2170
 1739SOL    HW1 5351   1.702   0.549   0.521  0.1223  1.4322 -1.7200
 1739SOL    HW2 5352   1.797   0.545   0.404 -0.3928 -1.4681 -2.1247
 1740SOL     OW 5353   3.288   1.461   3.166  0.7806  0.4102  0.9978
 1740SOL    HW1 5354   3.370   1.435   3.207  0.0297 -1.1342  1.6007
 1740SOL    HW2 5355   3.298   1.436   3.074  1.1118  0.5634  0.9905
 1741SOL     OW 5356   1.153   2.998   0.981 -0.1534 -0.1490  0.1078
 1741SOL    HW1 5357   1.195   3.053   1.047  0.0842 -0.7343  0.4540
 1741SOL    HW2 5358   1.068   3.039   0.966 -1.2425 -1.2928  2.5479
 1742SOL     OW 5359   2.744   1.208   0.796 -0.2878 -0.3191 -0.1581
 1742SOL    HW1 5360   2.704   1.242   0.876  0.1446  0.9239 -0.4584
 1742SOL    HW2 5361   2.682   1.143   0.764 -3.1588  2.8965 -1.7192
 1743SOL     OW 5362   1.669   3.694   2.868  0.6836 -0.3474  0.0557
 1743SOL    HW1 5363   1.702   3.605   2.864  1.4980 -0.0871  0.6687
 1743SOL    HW2 5364   1.747   3.749   2.864  0.6207  0.2449  3.6039
 1744SOL     OW 5365   0.961   2.616   0.026 -0.3438 -0.5475 -0.1586
 1744SOL    HW1 5366   0.868   2.592   0.021 -0.4858  0.1879 -1.5256
 1744SOL    HW2 5367   1.005   2.536   0.056 -1.5407 -0.5533  1.7250
 1745SOL     OW 5368   2.653   3.701   1.010  0.3410  0.6880 -0.3084
 1745SOL    HW1 5369   2.584   3.710   0.945 -0.6083 -0.1007  0.5606
 1745SOL    HW2 5370   2.607   3.687   1.093  1.5261 -1.2109  0.0919
 1746SOL     OW 5371   3.548   3.471   2.883 -0.0660  0.0298  0.7369
 1746SOL    HW1 5372   3.459   3.436   2.880 -0.3609  0.7901  0.5143
 1746SOL    HW2 5373   3.539   3.558   2.923  0.4701  0.4212  0.0211
 1747SOL     OW 5374   2.155   1.748   2.899 -0.1572  0.1598 -0.7042
 1747SOL    HW1 5375   2.192   1.816   2.842  0.2435 -1.4953 -2.5011
 1747SOL    HW2 5376   2.176   1.666   2.856 -0.9137 -1.1343  1.2490
 1748SOL     OW 5377   2.970   0.051   3.532  0.0892 -0.1476 -0.3071
 1748SOL    HW1 5378   2.884   0.092   3.519 -0.3086 -0.7377  0.3798
 1748SOL    HW2 5379   2.950  -0.033   3.573  1.1116  0.6986  2.1222
 1749SOL     OW 5380   1.306   1.329   0.794 -0.3179 -0.1228 -0.2448
 1749SOL    HW1 5381   1.370   1.333   0.865  0.4245  1.7523 -0.9555
 1749SOL    HW2 5382   1.321   1.244   0.753 -0.4413 -1.0413  1.5160
 1750SOL     OW 5383   1.243   3.631   3.208 -0.6029  0.4361  0.3552
 1750SOL    HW1 5384   1.270   3.604   3.296  1.7056  2.3029  0.2925
 1750SOL    HW2 5385   1.222   3.724   3.216 -0.7043  0.5563 -0.9986
 1751SOL     OW 5386   1.478   2.791   2.612  0.2608 -0.2037 -0.3487
 1751SOL    HW1 5387   1.431   2.712   2.588 -3.1734  1.3907  0.5165
 1751SOL    HW2 5388   1.498   2.834   2.529  0.7326 -1.1793 -0.7490
 1752SOL     OW 5389   2.558   2.166   2.894 -0.1117  0.6169  0.2665
 1752SOL    HW1 5390   2.620   2.134   2.829  1.0159  0.7634  1.2406
 1752SOL    HW2 5391   2.490   2.098   2.897  2.1932 -1.8607  2.2786
 1753SOL     OW 5392   3.361   1.742   0.195  0.7037 -0.3611 -0.1910
 1753SOL    HW1 5393   3.321   1.664   0.233  1.6924 -0.8959 -0.2157
 1753SOL    HW2 5394   3.327   1.815   0.247  0.6272 -0.9149  0.5514
 1754SOL     OW 5395   1.121   0.797   1.939 -0.1459 -0.0535  0.7472
 1754SOL    HW1 5396   1.152   0.814   2.028 -0.2513  2.2617  0.4098
 1754SOL    HW2 5397   1.145   0.876   1.891  0.8927 -1.6805 -1.5752
 1755SOL     OW 5398   0.505   3.616   3.081  0.0719  0.3494 -0.1886
 1755SOL    HW1 5399   0.560   3.539   3.097 -0.5858  0.0432  0.6731
 1755SOL    HW2 5400   0.507   3.627   2.986 -1.0796 -1.6686 -0.5013
 1756SOL     OW 5401   1.778   1.064   2.403  0.3825 -0.0324  0.0789
 1756SOL    HW1 5402   1.709   1.019   2.451  1.0687 -0.9653  0.2093
 1756SOL    HW2 5403   1.843   0.996   2.384  1.0352  0.7247 -0.4704
 1757SOL     OW 5404   2.050   2.840   0.125  0.3965 -0.5106 -0.3078
 1757SOL    HW1 5405   2.068   2.934   0.115  1.5573 -0.7692 -0.8874
 1757SOL    HW2 5406   1.955   2.834   0.128  0.2249  0.5324 -2.0825
 1758SOL     OW 5407   0.273   0.825   3.071 -0.3711  0.0841 -0.7001
 1758SOL    HW1 5408   0.188   0.812   3.030 -0.3543 -0.2986 -0.6144
 1758SOL    HW2 5409   0.328   0.755   3.035 -0.4160 -0.3962  0.1558
 1759SOL     OW 5410   0.531   2.478   1.570 -0.0673  0.2459  0.5107
 1759SOL    HW1 5411   0.514   2.563   1.531  0.4927  1.3358  2.4777
 1759SOL    HW2 5412   0.454   2.426   1.550 -0.2597  1.0856 -1.0494
 1760SOL     OW 5413   3.005   0.726   1.095 -0.1707 -0.0461  0.3513
 1760SOL    HW1 5414   2.956   0.751   1.174  0.2478  1.3133  0.2087
 1760SOL    HW2 5415   3.091   0.767   1.106 -0.0382 -0.0003 -0.7145
 1761SOL     OW 5416   0.174   3.259   3.049  0.3770 -1.1937 -0.1867
 1761SOL    HW1 5417   0.115   3.232   2.979 -2.0574 -0.1553  1.3201
 1761SOL    HW2 5418   0.189   3.179   3.100 -0.8221 -1.2098  0.1528
 1762SOL     OW 5419   3.065   0.741   2.060 -0.2008  0.1148  0.0197
 1762SOL    HW1 5420   3.033   0.654   2.035  0.0096 -1.4241  4.2411
 1762SOL    HW2 5421   2.992   0.799   2.043 -0.8515 -1.1210 -1.6481
 1763SOL     OW 5422   1.270   3.377   1.036 -0.6847 -0.0079 -0.1866
 1763SOL    HW1 5423   1.308   3.448   1.089  2.3268 -1.8088  0.2853
 1763SOL    HW2 5424   1.231   3.318   1.101 -2.5467  0.7624 -0.5333
 1764SOL     OW 5425   2.773   2.767   1.536  0.0158 -1.1679 -0.4140
 1764SOL    HW1 5426   2.715   2.777   1.460  0.8928 -1.2880 -1.1167
 1764SOL    HW2 5427   2.749   2.683   1.574 -0.6949 -0.9318 -0.3252
 1765SOL     OW 5428   2.704   3.155   2.867  0.1250 -0.1123 -0.5055
 1765SOL    HW1 5429   2.721   3.085   2.805  1.7504  0.5509 -0.8612
 1765SOL    HW2 5430   2.723   3.235   2.818  0.7415  0.4495  0.6148
 1766SOL     OW 5431   0.791   2.221   2.322  0.1726 -0.3945  0.7811
 1766SOL    HW1 5432   0.830   2.138   2.296 -0.9653 -0.0584 -2.4287
 1766SOL    HW2 5433   0.764   2.208   2.413  3.0705 -2.3124  1.4749
 1767SOL     OW 5434   1.107   3.281   1.661 -0.2817 -0.2210 -0.1005
 1767SOL    HW1 5435   1.031   3.260   1.715  0.0969 -0.2914  0.4242
 1767SOL    HW2 5436   1.071   3.323   1.583 -0.9140 -1.0814 -0.2884
 1768SOL     OW 5437   1.198   2.701   0.619  0.2569 -0.2168 -0.2255
 1768SOL    HW1 5438   1.286   2.723   0.651 -0.0505  0.0964  0.4149
 1768SOL    HW2 5439   1.161   2.784   0.589  1.1625 -0.7279 -3.0657
 1769SOL     OW 5440   2.143   0.895   2.848  0.0766 -0.1721  0.4467
 1769SOL    HW1 5441   2.209   0.937   2.792  1.4417 -0.9858  1.3873
 1769SOL    HW2 5442   2.069   0.879   2.789  0.2873  1.7096 -0.3987
 1770SOL     OW 5443   2.032   0.454   2.724 -0.3366  0.4460 -0.1251
 1770SOL    HW1 5444   1.953   0.402   2.738 -0.2343  0.1717 -0.5454
 1770SOL    HW2 5445   2.011   0.510   2.649  0.2309 -0.3941 -0.9356
 1771NA      NA 5446   2.938   0.631   2.635 -0.3334 -0.2621 -0.0376
 1772NA      NA 5447   3.422   0.351   0.502  0.1519  0.4043  0.4711
   3.73190   3.73190   3.73190
