Protein in water
 5425
    0TYR      N    1   0.937   1.785   3.495 -0.3992  0.7048  0.1356
    0TYR     H1    2   0.987   1.699   3.466  0.5531  1.6074 -0.9866
    0TYR     H2    3   0.837   1.769   3.518 -0.3077  3.4062  3.0821
    0TYR     H3    4   0.980   1.825   3.582  0.1314  2.5349 -0.8999
    0TYR     CA    5   0.959   1.887   3.391  0.9783 -0.3682 -0.3957
    0TYR     HA    6   0.913   1.838   3.306 -1.1423 -1.0444  1.0474
    0TYR     CB    7   0.881   2.020   3.436 -0.3164 -0.6134  0.1158
    0TYR    HB1    8   0.936   2.058   3.525  3.1621 -0.0225 -2.0606
    0TYR    HB2    9   0.772   2.007   3.452 -1.1691  2.4991 -2.1989
    0TYR     CG   10   0.879   2.136   3.329 -0.0959  0.0785 -0.6376
    0TYR    CD1   11   0.977   2.235   3.330 -0.2627 -0.3294  0.6524
    0TYR    HD1   12   1.056   2.236   3.403  2.3259 -0.5237 -1.9785
    0TYR    CE1   13   0.981   2.335   3.229  0.9535  1.0763 -0.7600
    0TYR    HE1   14   1.062   2.406   3.224  2.6245 -0.4856  1.7147
    0TYR     CZ   15   0.872   2.339   3.141  0.9670  0.1382 -0.2615
    0TYR     OH   16   0.859   2.440   3.043 -0.5139  0.3263 -0.1198
    0TYR     HH   17   0.897   2.519   3.080 -0.0462  0.6666 -1.2667
    0TYR    CD2   18   0.785   2.138   3.235 -0.4196 -0.1426  0.0189
    0TYR    HD2   19   0.702   2.069   3.248  0.8262 -1.6306  0.3922
    0TYR    CE2   20   0.778   2.237   3.139 -0.0171 -0.3835 -0.1638
    0TYR    HE2   21   0.701   2.239   3.063  1.7955  0.9006 -2.0576
    0TYR      C   22   1.100   1.905   3.358 -0.6544 -0.6205 -0.7577
    0TYR      O   23   1.169   1.975   3.429 -0.0959 -0.3655 -0.0077
    1TYR      N   24   1.146   1.857   3.243 -0.6503  0.0494 -0.2616
    1TYR     HN   25   1.083   1.801   3.189 -1.3046  0.3683  0.1518
    1TYR     CA   26   1.272   1.907   3.187  0.6563 -0.8957 -0.4549
    1TYR     HA   27   1.349   1.913   3.262  0.9721 -0.5591 -0.7995
    1TYR     CB   28   1.327   1.824   3.069  0.7353 -0.7854  0.4080
    1TYR    HB1   29   1.248   1.818   2.991 -1.0794  0.8787  2.0085
    1TYR    HB2   30   1.355   1.719   3.092 -0.8714 -2.0370 -2.7419
    1TYR     CG   31   1.458   1.879   3.014  0.0161  0.6977  0.2547
    1TYR    CD1   32   1.464   1.938   2.884 -0.0094  0.3542  0.3575
    1TYR    HD1   33   1.381   1.946   2.816  0.1043  1.5197  0.3344
    1TYR    CE1   34   1.582   1.992   2.841  0.0922  0.5668 -0.4702
    1TYR    HE1   35   1.588   2.029   2.739  2.7443 -1.5897 -1.2225
    1TYR     CZ   36   1.694   1.986   2.913 -0.1301  0.1427 -0.0637
    1TYR     OH   37   1.805   2.069   2.874 -0.1020 -0.0105  0.2568
    1TYR     HH   38   1.764   2.131   2.813 -0.9625  0.7884  1.5852
    1TYR    CD2   39   1.570   1.890   3.101 -0.1766 -0.2926  0.4059
    1TYR    HD2   40   1.567   1.855   3.203 -2.8911  0.9703  0.8448
    1TYR    CE2   41   1.689   1.938   3.041 -0.4393  0.3731 -0.0788
    1TYR    HE2   42   1.784   1.941   3.092  0.4268 -2.0671 -1.3982
    1TYR      C   43   1.246   2.052   3.142 -0.2812  0.2740  0.7266
    1TYR      O   44   1.168   2.081   3.044 -0.0533  0.5184 -0.3416
    2ASP      N   45   1.312   2.146   3.210  0.0892 -0.7563  0.6429
    2ASP     HN   46   1.367   2.126   3.291  0.1124  0.2943  0.9093
    2ASP     CA   47   1.313   2.282   3.168 -0.2932 -0.2027  0.5851
    2ASP     HA   48   1.213   2.308   3.137 -0.3755 -1.3713 -0.1945
    2ASP     CB   49   1.345   2.370   3.289 -0.1202 -0.2768  0.2142
    2ASP    HB1   50   1.451   2.362   3.319 -0.4458 -2.7937  0.9247
    2ASP    HB2   51   1.281   2.344   3.376 -1.1211  2.0590  0.2411
    2ASP     CG   52   1.319   2.515   3.264  0.1540  0.5234  0.2197
    2ASP    OD1   53   1.363   2.602   3.343 -0.1487 -0.2646 -0.5093
    2ASP    OD2   54   1.250   2.549   3.163  0.0595  0.0997  0.6809
    2ASP      C   55   1.421   2.325   3.062  0.7209  0.0863  0.0959
    2ASP      O   56   1.536   2.324   3.098  0.3783  0.1275 -0.0497
    3PRO      N   57   1.385   2.351   2.937  0.1171 -0.6706 -0.3496
    3PRO     CD   58   1.254   2.336   2.878 -0.3815  0.6050  0.3240
    3PRO    HD1   59   1.248   2.227   2.855  0.1568  0.6501 -0.0542
    3PRO    HD2   60   1.169   2.365   2.944 -0.8401  0.8583 -0.3657
    3PRO     CA   61   1.488   2.395   2.843  0.3875 -0.1185 -0.7987
    3PRO     HA   62   1.569   2.325   2.858 -0.4575 -1.3076 -1.6055
    3PRO     CB   63   1.415   2.389   2.702 -0.2719 -0.1531  0.2626
    3PRO    HB1   64   1.413   2.289   2.654 -2.4258  0.0780 -0.2233
    3PRO    HB2   65   1.448   2.469   2.632 -1.4122 -2.1865 -2.8159
    3PRO     CG   66   1.270   2.408   2.748 -0.5157  0.2753 -0.4962
    3PRO    HG1   67   1.197   2.384   2.667  0.7489 -0.6527 -1.3903
    3PRO    HG2   68   1.265   2.519   2.758 -2.0652  0.1277  0.7507
    3PRO      C   69   1.544   2.528   2.884  0.5103  0.7026  0.2663
    3PRO      O   70   1.637   2.573   2.825  0.0361 -0.0336 -0.1410
    4GLU      N   71   1.500   2.606   2.989  0.0690 -0.2104  0.0677
    4GLU     HN   72   1.430   2.568   3.048 -0.0775  3.8184  2.9211
    4GLU     CA   73   1.543   2.749   3.006  0.6080 -0.0524  0.1557
    4GLU     HA   74   1.578   2.800   2.917  1.5077  0.0482  0.5624
    4GLU     CB   75   1.426   2.836   3.057  0.3575 -0.2410  0.1796
    4GLU    HB1   76   1.378   2.781   3.141  0.2682 -0.3785  0.0387
    4GLU    HB2   77   1.358   2.859   2.973 -0.3398  2.1825  1.3294
    4GLU     CG   78   1.465   2.980   3.089 -0.1746 -0.3275 -0.0560
    4GLU    HG1   79   1.523   3.010   2.999  1.5255 -0.6543  0.8910
    4GLU    HG2   80   1.523   2.972   3.183 -0.7590 -0.9996  0.2589
    4GLU     CD   81   1.340   3.065   3.104 -0.3154 -0.1722  0.2431
    4GLU    OE1   82   1.320   3.146   3.012  0.3847 -0.2542  0.1660
    4GLU    OE2   83   1.263   3.044   3.198 -0.3054  0.9201  0.2553
    4GLU      C   84   1.651   2.739   3.104 -0.0093  0.2823  0.1822
    4GLU      O   85   1.763   2.779   3.086 -0.0297  0.2021 -0.1001
    5THR      N   86   1.627   2.663   3.217  0.4353  0.5979  0.6394
    5THR     HN   87   1.531   2.640   3.233 -0.0190  1.2731 -0.8447
    5THR     CA   88   1.721   2.632   3.318  1.1908  0.5099 -0.5892
    5THR     HA   89   1.781   2.719   3.339  2.4800 -0.9883  2.5009
    5THR     CB   90   1.650   2.594   3.454  0.2372  0.5189 -0.1114
    5THR     HB   91   1.596   2.497   3.441  0.2041  0.4729  0.3656
    5THR    OG1   92   1.562   2.694   3.485 -0.4822 -0.0921  0.7102
    5THR    HG1   93   1.489   2.676   3.424  0.0138 -1.4919  0.4809
    5THR    CG2   94   1.742   2.581   3.576 -0.2315  0.5991 -0.5662
    5THR   HG21   95   1.772   2.686   3.592  1.1431  0.6249 -2.8341
    5THR   HG22   96   1.842   2.539   3.553  1.9507  4.0073  1.8402
    5THR   HG23   97   1.695   2.528   3.662 -0.4981  1.4474 -0.1786
    5THR      C   98   1.814   2.526   3.281  0.6440  0.4077  0.0544
    5THR      O   99   1.928   2.519   3.324 -0.0314 -0.3203  0.1262
    6GLY      N  100   1.773   2.437   3.188  0.5623  0.1192 -0.2712
    6GLY     HN  101   1.687   2.453   3.141 -0.2368 -0.8379  0.7895
    6GLY     CA  102   1.861   2.327   3.136  0.7629  0.2378  0.2377
    6GLY    HA1  103   1.953   2.375   3.106  0.2097 -0.1929 -2.4005
    6GLY    HA2  104   1.826   2.282   3.044  1.2815 -0.7178  0.5023
    6GLY      C  105   1.883   2.214   3.234 -0.0414 -0.1649  0.5271
    6GLY      O  106   1.988   2.154   3.234  0.1069 -1.0214 -0.2883
    7THR      N  107   1.780   2.192   3.319 -0.5460 -0.1894 -0.4971
    7THR     HN  108   1.696   2.246   3.313  0.1283  1.1821  1.6619
    7THR     CA  109   1.778   2.084   3.418 -0.8068  0.1053 -0.5732
    7THR     HA  110   1.836   2.003   3.377 -2.3401 -1.3701  0.0543
    7THR     CB  111   1.852   2.115   3.548  0.1324 -0.9147  0.0347
    7THR     HB  112   1.951   2.154   3.517 -1.0938  2.5859  0.0818
    7THR    OG1  113   1.876   1.999   3.623  0.5402 -0.3088  0.5723
    7THR    HG1  114   1.913   2.033   3.705  2.9880 -2.7478  0.6404
    7THR    CG2  115   1.783   2.226   3.636 -0.0775 -0.0028 -0.6062
    7THR   HG21  116   1.678   2.190   3.649  0.5832 -2.1650 -0.8873
    7THR   HG22  117   1.794   2.323   3.583  0.6400 -0.2592 -0.9392
    7THR   HG23  118   1.816   2.242   3.741  0.4153 -0.0909 -0.7455
    7THR      C  119   1.636   2.037   3.444  0.8674 -0.5542 -0.2024
    7THR      O  120   1.535   2.101   3.407  0.7506 -0.2193  0.4546
    8TRP      N  121   1.616   1.923   3.518  0.5933 -0.5054 -0.1011
    8TRP     HN  122   1.693   1.872   3.555  0.7053  1.2856  2.3864
    8TRP     CA  123   1.481   1.873   3.539 -0.2087  0.3149  0.1576
    8TRP     HA  124   1.404   1.913   3.475  0.7119 -0.3364 -1.4242
    8TRP     CB  125   1.472   1.719   3.521 -0.4897 -0.2358  0.5744
    8TRP    HB1  126   1.363   1.695   3.527 -1.0220  2.0174  0.7859
    8TRP    HB2  127   1.531   1.672   3.602 -0.4514 -1.8916 -0.3628
    8TRP     CG  128   1.521   1.656   3.380  0.7075 -0.0565 -0.8026
    8TRP    CD1  129   1.444   1.597   3.282 -0.2777 -0.5697 -0.1638
    8TRP    HD1  130   1.337   1.607   3.277 -0.1116  2.0802  0.2439
    8TRP    NE1  131   1.535   1.533   3.202  0.0864 -0.2085 -0.0776
    8TRP    HE1  132   1.514   1.483   3.122 -0.2735 -0.3758  0.1201
    8TRP    CE2  133   1.663   1.565   3.240 -0.0559 -0.5597  0.2452
    8TRP    CD2  134   1.661   1.635   3.363  0.8478  0.5367 -0.6926
    8TRP    CE3  135   1.780   1.679   3.421  0.0640 -0.3069 -0.0456
    8TRP    HE3  136   1.787   1.739   3.511 -1.1826 -0.2882  0.0530
    8TRP    CZ3  137   1.901   1.632   3.366  0.2269  0.7707  0.6680
    8TRP    HZ3  138   1.993   1.663   3.414  0.6711  3.0909 -1.4550
    8TRP    CZ2  139   1.788   1.528   3.185  0.9465  0.3974  0.2892
    8TRP    HZ2  140   1.786   1.474   3.091 -0.6687 -0.9768  1.0589
    8TRP    CH2  141   1.904   1.555   3.251  0.3162 -0.7906  0.4016
    8TRP    HH2  142   1.993   1.528   3.197  0.5288  0.4298  0.0978
    8TRP      C  143   1.442   1.902   3.686  0.6106 -0.0432 -0.0435
    8TRP      O  144   1.520   1.890   3.783  0.9549  0.6995  0.5344
    9GLY      N  145   1.317   1.951   3.706 -0.0609  0.7758 -1.0467
    9GLY     HN  146   1.248   1.975   3.639 -0.6243  0.1245 -0.7016
    9GLY     CA  147   1.245   1.971   3.827  0.0294  0.1326 -0.1400
    9GLY    HA1  148   1.212   2.073   3.841 -2.3735 -0.6676  0.4338
    9GLY    HA2  149   1.306   1.935   3.909 -0.1830  0.9127  0.3724
    9GLY      C  150   1.111   1.891   3.828 -0.6053 -0.3613  0.2189
    9GLY    OT1  151   1.033   1.916   3.926  0.2369 -0.1659 -0.0789
    9GLY    OT2  152   1.077   1.809   3.733 -0.1530 -0.2651 -0.1932
   10SOL     OW  153   1.982   0.299   0.113  0.1268 -0.4079 -0.2613
   10SOL    HW1  154   1.970   0.218   0.064 -0.4091 -1.2832  1.2468
   10SOL    HW2  155   1.941   0.366   0.059  0.1193 -1.2225 -1.2990
   11SOL     OW  156   1.996   1.794   1.431 -0.3385  0.4202  0.0075
   11SOL    HW1  157   2.000   1.870   1.374 -0.5311 -0.1295 -0.7562
   11SOL    HW2  158   1.976   1.830   1.518  0.6069  1.3157 -0.1313
   12SOL     OW  159   3.301   3.252   3.138  0.4124  0.1340 -0.2941
   12SOL    HW1  160   3.277   3.269   3.047 -0.3711  0.9690  0.0614
   12SOL    HW2  161   3.395   3.232   3.134  0.8190  2.0159 -1.0615
   13SOL     OW  162   2.833   3.013   2.944  0.1613 -0.4977  0.1253
   13SOL    HW1  163   2.739   3.021   2.925  0.6388 -0.2283 -2.5625
   13SOL    HW2  164   2.874   3.016   2.858  2.5743 -1.9326  1.1537
   14SOL     OW  165   1.748   0.948   1.089 -0.2295  0.5225 -0.0891
   14SOL    HW1  166   1.749   0.853   1.072  0.3702  0.4718  0.2105
   14SOL    HW2  167   1.774   0.956   1.181 -2.3761  0.8562  0.5592
   15SOL     OW  168   2.549   0.894   1.042 -0.0168  0.1641 -0.1121
   15SOL    HW1  169   2.538   0.951   0.965 -1.5544 -2.6749 -2.1635
   15SOL    HW2  170   2.466   0.847   1.049 -0.0176  0.4054  3.5149
   16SOL     OW  171   3.473   1.311   3.078 -0.2101  0.0359 -0.0976
   16SOL    HW1  172   3.379   1.327   3.082 -0.2035  0.2422 -0.7234
   16SOL    HW2  173   3.512   1.390   3.115 -0.2814 -0.1460  0.3815
   17SOL     OW  174   1.811   3.150   1.067 -0.9679  0.3653 -0.4711
   17SOL    HW1  175   1.794   3.156   1.161 -1.6865  2.0570 -0.6530
   17SOL    HW2  176   1.734   3.105   1.032  0.2880 -2.2623 -0.0603
   18SOL     OW  177   1.464   0.177   2.788  0.2299 -0.2473 -0.0765
   18SOL    HW1  178   1.431   0.087   2.799 -2.4788  0.5850 -0.4898
   18SOL    HW2  179   1.485   0.205   2.877 -2.3196 -0.1954  0.6010
   19SOL     OW  180   2.066   2.332   0.106 -0.4120 -0.3664 -0.2029
   19SOL    HW1  181   1.981   2.291   0.122 -0.6707  0.4430  0.5549
   19SOL    HW2  182   2.128   2.279   0.154 -0.9614  1.0421  2.2306
   20SOL     OW  183   1.601   3.273   1.983 -0.2190 -0.2338 -0.1236
   20SOL    HW1  184   1.596   3.258   2.077 -0.7477 -1.7576 -0.3505
   20SOL    HW2  185   1.670   3.338   1.972  1.9757 -2.2056  1.1258
   21SOL     OW  186   1.088   1.411   2.485  0.0910 -0.3961 -0.2057
   21SOL    HW1  187   1.167   1.400   2.538 -0.3181  0.3689  0.5824
   21SOL    HW2  188   1.085   1.504   2.466 -1.2808 -0.1920  0.8392
   22SOL     OW  189   3.191   1.061   1.828 -0.2849  0.3995  0.3120
   22SOL    HW1  190   3.179   0.966   1.830 -1.2799  0.4411 -1.5015
   22SOL    HW2  191   3.114   1.094   1.781  1.3451  1.8263 -1.5458
   23SOL     OW  192   0.494   1.871   2.383  0.1160 -0.4907 -0.4653
   23SOL    HW1  193   0.519   1.783   2.358  0.5862 -0.4462 -0.1715
   23SOL    HW2  194   0.569   1.904   2.433  0.0149  0.1339 -0.7158
   24SOL     OW  195   0.084   3.425   3.134  0.4989  0.2128 -0.2255
   24SOL    HW1  196   0.067   3.430   3.229  0.5847  0.6680 -0.2340
   24SOL    HW2  197   0.173   3.389   3.128 -0.0973 -1.3843 -0.1692
   25SOL     OW  198   3.459   1.628   1.682 -0.5681  0.3756 -0.2148
   25SOL    HW1  199   3.410   1.642   1.763  1.3522 -0.9726  1.2766
   25SOL    HW2  200   3.510   1.708   1.670  1.0146 -0.3366  1.3600
   26SOL     OW  201   0.131   3.024   3.261 -0.1566 -0.1403 -0.1753
   26SOL    HW1  202   0.156   3.007   3.352 -0.1604  1.2023  0.1001
   26SOL    HW2  203   0.052   2.972   3.248  0.8531 -1.7781  0.0034
   27SOL     OW  204   2.665   1.037   2.466 -0.5182 -0.1231  0.0682
   27SOL    HW1  205   2.748   1.039   2.420  0.2556  0.6839  1.4354
   27SOL    HW2  206   2.608   1.096   2.416 -0.4003 -0.9530 -1.0699
   28SOL     OW  207   0.070   1.598   1.682  0.8156  0.2254 -0.9217
   28SOL    HW1  208  -0.009   1.630   1.638  0.3341 -0.3441 -0.4871
   28SOL    HW2  209   0.104   1.531   1.623  0.7956  0.2459 -0.9567
   29SOL     OW  210   0.162   2.784   2.790  0.1923  0.2351  0.5316
   29SOL    HW1  211   0.190   2.714   2.731 -0.6931 -0.7946  1.3002
   29SOL    HW2  212   0.188   2.754   2.877  1.0173  1.5007  0.7446
   30SOL     OW  213   1.032   0.686   0.643  1.0165 -0.0227  0.2161
   30SOL    HW1  214   1.095   0.755   0.665  1.0581  0.4100 -1.1789
   30SOL    HW2  215   1.058   0.657   0.556  1.0842 -1.9329  0.8219
   31SOL     OW  216   3.253   3.580   0.392 -0.4028 -0.2849 -0.2685
   31SOL    HW1  217   3.327   3.597   0.451 -0.2449 -0.8575 -0.2918
   31SOL    HW2  218   3.259   3.649   0.327 -0.8741  0.6569  0.6512
   32SOL     OW  219   1.812   2.597   1.351  0.4903 -0.4531  0.2115
   32SOL    HW1  220   1.802   2.655   1.276  0.5169  0.6552  1.0429
   32SOL    HW2  221   1.730   2.605   1.399  0.4460 -1.2081  0.2744
   33SOL     OW  222   3.264   2.031   1.377 -0.6564  0.1101 -0.0353
   33SOL    HW1  223   3.343   1.977   1.367  0.3229  1.3093  0.8598
   33SOL    HW2  224   3.292   2.103   1.434 -2.8142 -0.2584  1.5978
   34SOL     OW  225   3.702   1.967   0.131  0.1526 -0.5735  0.2160
   34SOL    HW1  226   3.705   1.964   0.227  0.6474 -1.7407  0.1899
   34SOL    HW2  227   3.617   2.004   0.110  1.1594  2.5144  1.0955
   35SOL     OW  228   1.860   1.282   1.396  0.4711 -0.2611 -0.3481
   35SOL    HW1  229   1.887   1.295   1.487 -0.4025 -0.5042 -0.0476
   35SOL    HW2  230   1.941   1.259   1.350  0.7831 -0.9436  0.5250
   36SOL     OW  231   2.634   3.178   0.308 -1.0251 -0.1062 -0.3424
   36SOL    HW1  232   2.704   3.112   0.305 -1.3922 -0.5756  0.7973
   36SOL    HW2  233   2.625   3.207   0.218 -1.9442 -2.7842 -1.2121
   37SOL     OW  234   0.601   3.534   0.131 -0.3016 -0.0305  0.1969
   37SOL    HW1  235   0.650   3.465   0.177  1.1103  1.1902  0.6137
   37SOL    HW2  236   0.626   3.523   0.039 -1.2749 -0.9970  0.0297
   38SOL     OW  237   2.712   0.990   1.627 -0.1545 -0.4475  0.6109
   38SOL    HW1  238   2.663   0.910   1.641  1.6921 -1.7356  0.1701
   38SOL    HW2  239   2.671   1.031   1.551  1.1057 -2.9655 -1.5852
   39SOL     OW  240   3.602   0.146   0.605 -0.3240  0.2893  0.2963
   39SOL    HW1  241   3.681   0.094   0.619  1.1346  2.1947 -0.5006
   39SOL    HW2  242   3.531   0.082   0.607  1.5018 -2.1120 -2.8635
   40SOL     OW  243   3.151   1.962   2.351  0.3197 -0.6914  0.0501
   40SOL    HW1  244   3.235   1.980   2.309  0.4093 -0.6718  0.2346
   40SOL    HW2  245   3.174   1.917   2.433  0.2127  0.2674  0.6229
   41SOL     OW  246   3.453   0.860   1.178  0.0956 -0.5161 -0.0400
   41SOL    HW1  247   3.489   0.948   1.190  0.2318 -0.3256 -1.6239
   41SOL    HW2  248   3.514   0.803   1.225  0.1328  0.1946  0.8065
   42SOL     OW  249   2.331   0.456   0.976  0.5351 -0.2519  0.8744
   42SOL    HW1  250   2.388   0.489   1.045 -0.9494 -1.5964  2.8399
   42SOL    HW2  251   2.281   0.385   1.017 -2.7376  0.9845 -0.6257
   43SOL     OW  252   3.657   0.695   1.266  0.0792  0.5399 -0.3955
   43SOL    HW1  253   3.708   0.614   1.274 -0.4717  0.2933  0.8929
   43SOL    HW2  254   3.713   0.763   1.301 -0.4791  0.2534  1.1126
   44SOL     OW  255   1.429   1.991   2.526  0.4384  0.0208  0.1252
   44SOL    HW1  256   1.380   1.918   2.488 -0.3660  0.3067  0.5800
   44SOL    HW2  257   1.520   1.962   2.526  0.2702 -0.5439 -0.7044
   45SOL     OW  258   1.178   3.321   1.331  0.1322  0.2283  0.1500
   45SOL    HW1  259   1.243   3.255   1.305 -1.6056 -1.3020 -0.5246
   45SOL    HW2  260   1.168   3.377   1.254 -0.3773 -0.4158 -0.2585
   46SOL     OW  261   2.893   0.900   0.862 -0.6141  0.0836 -0.0665
   46SOL    HW1  262   2.853   0.933   0.943 -1.1872 -0.8543  0.0465
   46SOL    HW2  263   2.880   0.805   0.865 -1.0325  0.0693 -1.4614
   47SOL     OW  264   1.900   1.365   0.248  0.2332  0.6661 -0.0488
   47SOL    HW1  265   1.915   1.396   0.159 -0.3248  0.7470 -0.1210
   47SOL    HW2  266   1.986   1.365   0.289  0.7293 -0.7081 -1.0054
   48SOL     OW  267   0.316   1.198   1.376  0.3189  0.2246 -0.4896
   48SOL    HW1  268   0.255   1.177   1.306  0.6438 -1.0305 -0.4224
   48SOL    HW2  269   0.261   1.208   1.454 -0.0908  2.0596 -0.9671
   49SOL     OW  270   0.744   2.885   1.012  0.1680 -0.0404  0.5445
   49SOL    HW1  271   0.833   2.918   1.025  0.3565 -0.7661  1.1850
   49SOL    HW2  272   0.704   2.947   0.952  0.1899  1.9490  2.4461
   50SOL     OW  273   2.077   3.527   3.052 -0.0694 -0.7650  0.0696
   50SOL    HW1  274   2.099   3.620   3.044  1.3016 -0.9654  1.1088
   50SOL    HW2  275   2.005   3.514   2.990 -0.3689  1.0048 -0.0174
   51SOL     OW  276   0.143   1.990   2.469  0.1830  0.7391  0.0559
   51SOL    HW1  277   0.136   1.895   2.461  1.0914  0.5850  0.9103
   51SOL    HW2  278   0.105   2.010   2.555 -0.1102  1.1741 -0.1682
   52SOL     OW  279   3.312   3.043   3.508  0.7103 -0.0199 -0.0573
   52SOL    HW1  280   3.254   2.973   3.475 -0.4164  0.4459  0.8613
   52SOL    HW2  281   3.275   3.123   3.471 -0.1582  0.4432  1.7019
   53SOL     OW  282   0.590   0.519   3.060  0.6807 -0.0835  0.0974
   53SOL    HW1  283   0.593   0.575   3.138  1.9322 -0.3393  0.2507
   53SOL    HW2  284   0.497   0.512   3.040  0.4063  0.8448  0.9477
   54SOL     OW  285   0.772   2.177   1.701  0.6336  0.3903 -0.5182
   54SOL    HW1  286   0.787   2.119   1.625  2.3912  1.6657 -1.2025
   54SOL    HW2  287   0.735   2.256   1.663 -3.5469 -0.7991  0.6151
   55SOL     OW  288   3.266   1.157   2.129  0.6584 -0.0223 -0.6275
   55SOL    HW1  289   3.308   1.217   2.067  2.4493 -0.4906  0.0421
   55SOL    HW2  290   3.232   1.086   2.074  1.1006  0.1975 -1.2012
   56SOL     OW  291   1.572   0.232   0.896 -0.7634 -0.1241  0.2919
   56SOL    HW1  292   1.520   0.246   0.817  0.1695  2.5434  0.0359
   56SOL    HW2  293   1.525   0.164   0.944 -0.5345 -3.0715 -3.2130
   57SOL     OW  294   2.570   1.088   0.753  0.6225  0.0620  0.5283
   57SOL    HW1  295   2.571   1.025   0.681  1.9530  0.8205 -0.1511
   57SOL    HW2  296   2.483   1.129   0.748  0.8983  0.5478 -1.0739
   58SOL     OW  297   2.325   1.930   1.312 -0.0763  0.2653 -0.1378
   58SOL    HW1  298   2.313   1.901   1.221 -4.2021 -0.8047  0.5426
   58SOL    HW2  299   2.351   1.850   1.358  1.4149  0.6741 -0.2392
   59SOL     OW  300   3.322   2.629   2.924 -0.7243  0.3573  0.0800
   59SOL    HW1  301   3.297   2.702   2.981 -0.0726  0.3705  0.3512
   59SOL    HW2  302   3.417   2.638   2.914 -0.6495 -0.4371  0.0790
   60SOL     OW  303   3.054   3.455   2.980 -0.6966  0.5183  0.4251
   60SOL    HW1  304   3.089   3.431   3.066  0.6172 -2.2572 -0.7495
   60SOL    HW2  305   3.123   3.509   2.941 -1.3336  1.8600  1.0827
   61SOL     OW  306   1.432   3.245   1.394  0.5434  0.3023  0.2706
   61SOL    HW1  307   1.397   3.158   1.380  1.5228 -0.1621  0.5922
   61SOL    HW2  308   1.420   3.261   1.488  0.0501  0.6556  0.1484
   62SOL     OW  309   2.795   1.506   0.511 -0.0734  0.6302  0.4245
   62SOL    HW1  310   2.888   1.524   0.525  0.2947 -1.1668  0.4490
   62SOL    HW2  311   2.773   1.440   0.576 -0.4682 -1.4732 -1.6984
   63SOL     OW  312   1.855   3.565   2.565  0.1287  0.0682 -0.0704
   63SOL    HW1  313   1.816   3.629   2.625  0.0524  1.4153 -1.4978
   63SOL    HW2  314   1.803   3.485   2.579 -1.2188  0.9456  0.2061
   64SOL     OW  315   2.020   1.307   1.939  0.2465  0.2087 -0.1070
   64SOL    HW1  316   2.007   1.289   2.032 -0.8864 -1.1021 -0.4975
   64SOL    HW2  317   2.115   1.319   1.930  0.4166 -0.0890  1.1330
   65SOL     OW  318   1.736   3.104   2.841  0.0449 -0.0694 -0.4596
   65SOL    HW1  319   1.757   3.116   2.934  2.7229  1.2006 -1.1448
   65SOL    HW2  320   1.772   3.018   2.820  2.7779  1.1172 -1.0657
   66SOL     OW  321   2.569   0.083   1.902 -0.9126  0.2796 -0.0784
   66SOL    HW1  322   2.547   0.003   1.854  0.9560 -1.1426  1.2617
   66SOL    HW2  323   2.493   0.102   1.956 -1.2351 -0.8394 -0.1276
   67SOL     OW  324   0.744   1.128   0.702  0.1276 -0.4819 -0.0407
   67SOL    HW1  325   0.654   1.114   0.733  0.0054 -0.7382 -0.4972
   67SOL    HW2  326   0.794   1.144   0.781 -0.3765 -0.0336  0.1921
   68SOL     OW  327   0.039   2.656   3.206 -0.2354 -0.1474  0.1527
   68SOL    HW1  328  -0.036   2.703   3.243 -0.6521 -2.2243  2.1555
   68SOL    HW2  329   0.111   2.718   3.212 -1.2773  1.1000  0.2973
   69SOL     OW  330   3.342   1.647   1.913  0.7776 -0.0544 -0.0038
   69SOL    HW1  331   3.260   1.696   1.920  0.0200 -0.6560 -3.1221
   69SOL    HW2  332   3.410   1.709   1.938 -0.5651  0.2007  3.5445
   70SOL     OW  333   0.408   1.009   3.290 -0.8278  0.1744  0.1533
   70SOL    HW1  334   0.354   1.020   3.211  0.0273 -0.8107 -0.5972
   70SOL    HW2  335   0.488   0.967   3.258 -0.7277 -0.8435  1.6383
   71SOL     OW  336   1.410   1.796   0.805  0.5074 -0.2030 -0.1900
   71SOL    HW1  337   1.378   1.817   0.717 -2.8406 -1.0602  0.6888
   71SOL    HW2  338   1.421   1.701   0.804 -0.4965 -0.3417  0.5586
   72SOL     OW  339   2.868   2.540   3.433  0.5369 -0.0618  0.9884
   72SOL    HW1  340   2.910   2.472   3.486 -0.1554  0.2364  1.9455
   72SOL    HW2  341   2.784   2.502   3.407 -0.2529  0.7254  2.2812
   73SOL     OW  342   1.646   3.558   1.419 -0.1300 -0.0439  0.4825
   73SOL    HW1  343   1.614   3.578   1.331  1.2154 -1.4384 -0.3894
   73SOL    HW2  344   1.636   3.639   1.468 -1.0574  0.7161 -0.9243
   74SOL     OW  345   2.544   0.229   3.382 -0.4123  0.3417 -0.4770
   74SOL    HW1  346   2.572   0.319   3.366  3.6436 -0.4607  1.0188
   74SOL    HW2  347   2.568   0.182   3.303 -1.5479  0.3223 -0.8318
   75SOL     OW  348   0.861   3.387   1.310  0.4217  0.2413  0.0072
   75SOL    HW1  349   0.852   3.386   1.405  2.9068 -0.5028  0.3099
   75SOL    HW2  350   0.921   3.315   1.290 -2.4158 -1.6692 -2.4952
   76SOL     OW  351   0.810   0.781   1.883  0.0782 -0.0880  0.7134
   76SOL    HW1  352   0.877   0.843   1.914  0.0503 -0.8930  2.4498
   76SOL    HW2  353   0.841   0.695   1.913  0.6671 -1.1584 -2.5430
   77SOL     OW  354   0.383   1.155   2.023 -0.3815 -0.5082 -0.1532
   77SOL    HW1  355   0.332   1.168   2.103  0.6534  0.4357  0.3897
   77SOL    HW2  356   0.460   1.105   2.052  0.3355  0.4221 -0.4021
   78SOL     OW  357   0.382   3.720   1.174 -0.1138 -0.2417 -0.4049
   78SOL    HW1  358   0.459   3.738   1.121  0.8761  1.2576  1.4462
   78SOL    HW2  359   0.412   3.658   1.240 -0.4768  0.3596  0.3365
   79SOL     OW  360   1.983   1.334   2.785  0.5179 -0.1165  0.8560
   79SOL    HW1  361   1.981   1.246   2.823  0.9183 -0.1670  0.7613
   79SOL    HW2  362   1.894   1.367   2.798  0.6236 -0.1679  1.7705
   80SOL     OW  363   3.004   1.145   0.419  0.0027  0.3389 -0.0656
   80SOL    HW1  364   3.013   1.055   0.389  0.0205  0.3889 -0.2109
   80SOL    HW2  365   3.048   1.198   0.352  1.6140  0.3187  0.9060
   81SOL     OW  366   0.032   1.349   3.206  0.1035 -0.3120  0.2383
   81SOL    HW1  367   0.110   1.377   3.254  2.3195 -1.5798 -2.3248
   81SOL    HW2  368   0.030   1.407   3.129 -2.2035  0.4357  0.7901
   82SOL     OW  369   2.274   0.165   3.308 -0.1430 -0.3618 -0.2420
   82SOL    HW1  370   2.221   0.150   3.387  0.2613 -1.1740 -0.1157
   82SOL    HW2  371   2.363   0.179   3.341 -0.1983  0.5897 -0.4798
   83SOL     OW  372   2.639   0.542   0.394  0.0468  0.1888  0.2371
   83SOL    HW1  373   2.711   0.602   0.413 -2.2064  2.8081  1.1959
   83SOL    HW2  374   2.636   0.482   0.468  1.4068 -0.1791  0.0132
   84SOL     OW  375   0.949   2.674   3.163 -0.4337 -0.0439 -0.4806
   84SOL    HW1  376   0.914   2.638   3.245  3.2252 -3.2572  0.0169
   84SOL    HW2  377   1.041   2.691   3.183  0.3942 -0.1829 -3.7029
   85SOL     OW  378   3.499   1.494   1.077  0.6281  0.3157 -0.3064
   85SOL    HW1  379   3.414   1.462   1.047  1.5443 -1.1958 -1.4589
   85SOL    HW2  380   3.507   1.459   1.166  1.4143 -2.5678 -1.3774
   86SOL     OW  381   0.593   2.494   0.525  0.4226  0.0225 -0.2052
   86SOL    HW1  382   0.616   2.450   0.443  0.8683  1.4334 -0.8663
   86SOL    HW2  383   0.502   2.519   0.513 -0.5493 -2.5359  1.0447
   87SOL     OW  384   2.099   3.569   2.497 -0.4761  0.7342  0.0771
   87SOL    HW1  385   2.010   3.540   2.518 -0.1855 -1.5486 -1.4221
   87SOL    HW2  386   2.092   3.606   2.409  0.1815 -0.4617 -0.5106
   88SOL     OW  387   1.544   0.570   0.123 -0.3129  0.5839  0.3387
   88SOL    HW1  388   1.611   0.635   0.100  0.1900  1.2036  3.1514
   88SOL    HW2  389   1.593   0.491   0.144 -0.5843  0.5120  0.7203
   89SOL     OW  390   1.783   2.823   2.788 -0.0916  0.0675  0.0960
   89SOL    HW1  391   1.868   2.795   2.823  0.5249  1.1107 -0.5111
   89SOL    HW2  392   1.735   2.742   2.772  2.0518 -0.7961 -2.7644
   90SOL     OW  393   3.675   1.657   2.180 -0.0846 -0.3504 -0.1919
   90SOL    HW1  394   3.647   1.592   2.115  0.1282 -0.4051 -0.2281
   90SOL    HW2  395   3.770   1.659   2.173 -0.1161  0.2962 -0.5067
   91SOL     OW  396   3.505   1.567   3.230  0.1527 -0.3671  0.2765
   91SOL    HW1  397   3.528   1.577   3.323  0.7013 -0.1519  0.1211
   91SOL    HW2  398   3.560   1.630   3.184 -0.4554 -0.1412 -0.1582
   92SOL     OW  399   1.757   2.269   2.685  0.3622  0.3331  0.1796
   92SOL    HW1  400   1.735   2.354   2.647  1.6444  0.2329 -0.8361
   92SOL    HW2  401   1.833   2.239   2.635  0.0092 -1.3593  0.6034
   93SOL     OW  402   3.650   2.401   3.490  0.7010 -0.2445  0.1174
   93SOL    HW1  403   3.721   2.460   3.512  1.1588 -0.2944 -1.1528
   93SOL    HW2  404   3.593   2.402   3.567  1.3019  0.9393  0.5706
   94SOL     OW  405   3.575   0.246   2.478  0.2913  0.2070  0.2557
   94SOL    HW1  406   3.585   0.150   2.479 -1.4628 -0.0180 -0.3923
   94SOL    HW2  407   3.661   0.279   2.505  0.9114 -1.5458  0.5800
   95SOL     OW  408   2.253   2.939   2.712  0.7663 -0.0987  0.5554
   95SOL    HW1  409   2.337   2.969   2.677  0.4863  0.1351  0.0624
   95SOL    HW2  410   2.225   3.009   2.771  0.6506  0.0897  0.2799
   96SOL     OW  411   2.959   2.556   2.549 -0.1417  0.2775 -0.4196
   96SOL    HW1  412   2.880   2.597   2.585  0.7911 -0.3602  2.6158
   96SOL    HW2  413   2.926   2.501   2.477 -2.3262  0.7652  0.1210
   97SOL     OW  414   1.760   2.326   1.493 -0.2509 -0.6101  0.0110
   97SOL    HW1  415   1.701   2.284   1.431 -1.3021 -0.6894  1.0146
   97SOL    HW2  416   1.816   2.256   1.526 -0.4952 -0.7925  0.0337
   98SOL     OW  417   0.383   2.727   3.559  0.1102  0.1099 -0.2800
   98SOL    HW1  418   0.475   2.707   3.576 -0.2652  0.1505  2.0499
   98SOL    HW2  419   0.385   2.812   3.515  1.2042 -0.3022 -1.0936
   99SOL     OW  420   2.883   3.495   1.057 -0.7118  0.3770  0.0223
   99SOL    HW1  421   2.823   3.421   1.065  0.2799 -0.2791  2.1033
   99SOL    HW2  422   2.860   3.552   1.131 -0.6233  1.5559 -0.8244
  100SOL     OW  423   2.803   1.362   1.189  0.3816  0.2128 -0.1633
  100SOL    HW1  424   2.887   1.360   1.143 -0.6473  1.3008 -2.2328
  100SOL    HW2  425   2.737   1.357   1.119 -1.2880  1.7155  1.2059
  101SOL     OW  426   2.025   3.325   1.015  0.3316 -0.4548  0.0777
  101SOL    HW1  427   1.948   3.270   1.028 -1.3204  1.0096 -2.5384
  101SOL    HW2  428   2.095   3.265   0.990 -0.9011 -1.5392 -0.8423
  102SOL     OW  429   1.128   0.763   0.089  0.0347 -0.4958  0.0245
  102SOL    HW1  430   1.143   0.691   0.027  2.0213  0.2862 -0.4835
  102SOL    HW2  431   1.185   0.743   0.162  1.8959  1.3408 -0.8409
  103SOL     OW  432   0.884   3.104   3.315  0.0822  0.4306 -0.4744
  103SOL    HW1  433   0.963   3.151   3.291 -1.2177  2.4351 -1.0646
  103SOL    HW2  434   0.836   3.093   3.233 -0.1123 -1.0758 -0.1880
  104SOL     OW  435   2.957   3.030   2.706  0.5049 -0.0263  0.3346
  104SOL    HW1  436   3.027   3.006   2.646 -0.8323 -0.8935 -0.9689
  104SOL    HW2  437   2.939   3.122   2.687  1.7075  0.4099  1.1732
  105SOL     OW  438   1.255   2.618   2.467 -0.1042 -0.1411 -0.5934
  105SOL    HW1  439   1.226   2.535   2.427 -0.4873 -0.4206  0.2395
  105SOL    HW2  440   1.201   2.684   2.425  0.5724 -0.2379 -1.6545
  106SOL     OW  441   1.225   2.165   2.442 -0.3891  0.5553 -0.1564
  106SOL    HW1  442   1.278   2.131   2.515 -2.0724  0.0597  0.8872
  106SOL    HW2  443   1.171   2.091   2.415  0.2394  0.7165 -1.9972
  107SOL     OW  444   0.717   1.051   1.722  0.0226  0.3753 -0.4001
  107SOL    HW1  445   0.717   0.985   1.791  0.7900  0.7189 -0.0557
  107SOL    HW2  446   0.656   1.018   1.657  0.4688 -0.7199 -0.2818
  108SOL     OW  447   3.606   0.429   0.637  0.5246 -0.4185 -0.1716
  108SOL    HW1  448   3.694   0.438   0.674  0.8655 -0.3407 -0.9898
  108SOL    HW2  449   3.581   0.339   0.659  0.5370 -0.2387  0.6278
  109SOL     OW  450   3.220   1.397   1.117 -0.1178  0.1667  0.0727
  109SOL    HW1  451   3.202   1.303   1.111  0.0817  0.0968  0.4896
  109SOL    HW2  452   3.204   1.431   1.029 -0.2265 -0.2528 -0.0700
  110SOL     OW  453   1.471   2.455   0.144 -0.3002  0.8275  0.1075
  110SOL    HW1  454   1.502   2.415   0.063  1.2527 -0.1007  1.1106
  110SOL    HW2  455   1.377   2.439   0.144  0.0759 -1.8132 -0.1174
  111SOL     OW  456   0.542   0.728   2.339  0.1947 -0.0333 -0.2986
  111SOL    HW1  457   0.558   0.810   2.386  2.6781 -1.1007  0.9576
  111SOL    HW2  458   0.626   0.708   2.297 -0.6972 -1.3543 -1.5266
  112SOL     OW  459   3.239   1.305   2.373 -0.1799 -0.2575  0.5458
  112SOL    HW1  460   3.219   1.212   2.386  1.0193 -0.4885  0.8568
  112SOL    HW2  461   3.250   1.313   2.278 -1.0229 -0.2540  0.4328
  113SOL     OW  462   3.414   1.913   3.202  0.3699 -0.3215 -0.5870
  113SOL    HW1  463   3.481   1.981   3.198 -1.0082  1.0427 -1.2702
  113SOL    HW2  464   3.436   1.855   3.129  1.1234 -0.2108 -0.4583
  114SOL     OW  465   0.513   0.919   1.288  0.1285  1.0077 -0.0644
  114SOL    HW1  466   0.509   0.940   1.381 -0.6207 -0.2037  0.1897
  114SOL    HW2  467   0.606   0.927   1.266  0.5349 -0.0571  1.1320
  115SOL     OW  468   1.664   2.540   1.622  0.2320  0.1113  0.2421
  115SOL    HW1  469   1.705   2.466   1.579  2.0583  1.6604 -0.8516
  115SOL    HW2  470   1.597   2.570   1.561  1.5114  1.1238 -0.7175
  116SOL     OW  471   1.142   2.659   2.948 -0.1486 -0.2285  0.0016
  116SOL    HW1  472   1.181   2.610   3.021  1.4047 -0.7023 -1.0988
  116SOL    HW2  473   1.054   2.682   2.979  0.9304  0.8350  2.5706
  117SOL     OW  474   3.330   0.272   2.875  0.0415  0.1838  0.4368
  117SOL    HW1  475   3.318   0.272   2.970 -0.9430 -0.8151  0.3403
  117SOL    HW2  476   3.256   0.324   2.842 -0.7253 -1.0655  0.1320
  118SOL     OW  477   0.496   2.331   2.557 -0.6119 -0.3807 -0.0177
  118SOL    HW1  478   0.450   2.251   2.534  3.3737 -2.5688 -1.4345
  118SOL    HW2  479   0.537   2.311   2.642  0.5644  0.0435 -0.4669
  119SOL     OW  480   2.198   2.016   0.835 -1.0991 -0.3343 -0.5317
  119SOL    HW1  481   2.198   1.941   0.776  1.1699  0.1333 -1.2217
  119SOL    HW2  482   2.276   2.066   0.811 -2.0651  1.7997  0.4911
  120SOL     OW  483   1.997   0.517   0.286 -0.3096 -0.3172  0.0069
  120SOL    HW1  484   1.975   0.432   0.246  1.9973 -1.4335  0.9152
  120SOL    HW2  485   2.048   0.494   0.363  1.9274  1.9195 -0.6969
  121SOL     OW  486   3.205   3.610   1.444  0.5187 -0.0007  0.0199
  121SOL    HW1  487   3.188   3.687   1.498  1.0820  0.9599 -1.1147
  121SOL    HW2  488   3.275   3.637   1.384  0.6985 -1.3845 -0.4439
  122SOL     OW  489   2.977   0.652   1.079 -0.1567 -0.4368 -0.4450
  122SOL    HW1  490   3.054   0.709   1.076  0.2758 -1.0425 -1.0652
  122SOL    HW2  491   2.954   0.638   0.988 -0.9981 -0.2759 -0.2623
  123SOL     OW  492   2.422   1.653   3.722 -0.3415 -0.1883 -0.1694
  123SOL    HW1  493   2.336   1.628   3.687 -0.5222 -0.0359  0.1574
  123SOL    HW2  494   2.438   1.740   3.686 -0.5333 -0.0262  0.1333
  124SOL     OW  495   3.155   2.313   2.265  0.0407  0.2502 -0.0833
  124SOL    HW1  496   3.113   2.266   2.193  1.3606 -1.3425  0.1478
  124SOL    HW2  497   3.130   2.265   2.344 -0.7768  1.5426  0.4888
  125SOL     OW  498   2.272   0.699   2.802  0.0923  0.5747  0.5550
  125SOL    HW1  499   2.313   0.618   2.832 -0.4774  0.3501  0.7406
  125SOL    HW2  500   2.304   0.711   2.713 -1.5438 -1.0812 -0.3279
  126SOL     OW  501   0.205   0.287   2.008 -0.2666  0.3657  0.6245
  126SOL    HW1  502   0.182   0.311   2.098  0.7979  0.1223  0.9777
  126SOL    HW2  503   0.251   0.364   1.974 -0.8113  0.5189  0.2260
  127SOL     OW  504   1.007   1.211   1.871 -0.5884 -0.0748  0.0480
  127SOL    HW1  505   1.003   1.118   1.851  0.1919 -0.8242  2.9348
  127SOL    HW2  506   0.932   1.227   1.928  0.6301  0.4603  1.5737
  128SOL     OW  507   0.754   1.559   0.395 -0.4726 -0.0712 -0.1379
  128SOL    HW1  508   0.668   1.572   0.436 -1.0222 -0.2047 -1.2246
  128SOL    HW2  509   0.797   1.494   0.450  0.0041  1.8642  1.9588
  129SOL     OW  510   1.617   1.161   1.364  0.7286 -0.2491 -0.1321
  129SOL    HW1  511   1.708   1.187   1.350  1.1424 -1.6551 -0.1673
  129SOL    HW2  512   1.622   1.092   1.430 -0.1483 -1.5578 -1.4033
  130SOL     OW  513   0.816   2.429   1.414  0.3654 -0.2605 -0.2943
  130SOL    HW1  514   0.759   2.356   1.438 -0.4667 -0.0979 -1.6778
  130SOL    HW2  515   0.757   2.503   1.404  0.7662 -0.1232 -1.8962
  131SOL     OW  516   0.018   3.532   2.879  0.0672  0.9091 -0.2189
  131SOL    HW1  517  -0.054   3.477   2.848 -1.6735  1.8114  1.9093
  131SOL    HW2  518   0.037   3.499   2.967  0.1770  2.5479  0.4161
  132SOL     OW  519   3.723   0.063   3.435 -0.5246 -0.4281  0.0495
  132SOL    HW1  520   3.653   0.118   3.400 -1.0167 -1.7089 -1.0355
  132SOL    HW2  521   3.727   0.087   3.528 -1.8997  0.1906 -0.0250
  133SOL     OW  522   3.322   0.604   1.357  0.0813 -0.0263  0.4241
  133SOL    HW1  523   3.292   0.526   1.403  1.7720 -0.0764  1.5408
  133SOL    HW2  524   3.395   0.574   1.303  1.2359  0.8765  1.4305
  134SOL     OW  525   2.365   0.948   2.208 -0.0584 -0.1627 -0.7074
  134SOL    HW1  526   2.272   0.960   2.227  0.1496  0.3283  0.0254
  134SOL    HW2  527   2.410   1.007   2.268  0.6804  0.5300 -1.9027
  135SOL     OW  528   2.477   2.602   2.470  0.4366 -0.1004  0.3930
  135SOL    HW1  529   2.496   2.691   2.440  0.5332 -0.5180 -0.8375
  135SOL    HW2  530   2.405   2.613   2.532 -0.7756  0.6728 -1.0866
  136SOL     OW  531   0.143   1.770   1.277  0.0894 -0.0838 -0.0190
  136SOL    HW1  532   0.234   1.759   1.305 -0.7747  1.0236  3.7528
  136SOL    HW2  533   0.146   1.840   1.213  1.7224  1.5234  1.7014
  137SOL     OW  534   0.712   1.669  -0.029  0.0906 -0.4193 -0.4746
  137SOL    HW1  535   0.687   1.739   0.031  0.7738 -0.4526 -0.1385
  137SOL    HW2  536   0.738   1.597   0.029 -0.1311 -0.7746 -0.8152
  138SOL     OW  537   3.220   2.048   3.531 -0.2017  0.6441  0.0284
  138SOL    HW1  538   3.243   1.977   3.472  0.5404  0.7712  0.1481
  138SOL    HW2  539   3.292   2.111   3.521 -0.8275  1.3604 -0.0541
  139SOL     OW  540  -0.004   0.562   1.006  0.0603  0.3981  0.0130
  139SOL    HW1  541  -0.021   0.621   1.080  2.6467  0.5867  0.5573
  139SOL    HW2  542   0.057   0.611   0.951 -0.4990 -0.4367 -1.3786
  140SOL     OW  543   3.659   2.913   2.353  0.2315 -0.0555  0.1932
  140SOL    HW1  544   3.600   2.856   2.402  0.4220  1.2700  2.0313
  140SOL    HW2  545   3.601   2.967   2.300 -0.1244  0.2297  0.8681
  141SOL     OW  546   2.611   0.174   2.612 -0.5757  0.0142  0.1997
  141SOL    HW1  547   2.572   0.260   2.628 -3.3784 -1.0541 -0.4214
  141SOL    HW2  548   2.612   0.132   2.698  1.4375  0.8462  0.6329
  142SOL     OW  549   2.554   0.463   3.218  0.1701  0.6296 -0.0365
  142SOL    HW1  550   2.629   0.522   3.205  0.1405  0.6263 -0.2249
  142SOL    HW2  551   2.505   0.502   3.291  1.4122 -0.4260  1.4327
  143SOL     OW  552   1.599   1.759   2.246  0.6151 -0.5166  0.1702
  143SOL    HW1  553   1.629   1.819   2.314  1.6096 -1.4956  0.6192
  143SOL    HW2  554   1.562   1.685   2.294 -3.8071  1.0817 -0.2956
  144SOL     OW  555   3.642   2.268   0.038  0.5291 -0.7062 -0.2423
  144SOL    HW1  556   3.702   2.254  -0.035  1.1710 -1.6739  0.4474
  144SOL    HW2  557   3.569   2.208   0.020  0.4511 -0.5793 -0.3475
  145SOL     OW  558   3.510   2.939   3.288 -0.6822 -0.9223  0.8362
  145SOL    HW1  559   3.541   3.028   3.271 -1.3184 -0.5808  1.4196
  145SOL    HW2  560   3.511   2.931   3.383  1.1005 -2.1829  0.7792
  146SOL     OW  561   3.650   3.058   1.990 -0.4166 -0.5843 -0.7598
  146SOL    HW1  562   3.638   3.147   1.959 -0.2825 -0.1966  0.2793
  146SOL    HW2  563   3.562   3.019   1.985 -1.1821  0.5921  1.7421
  147SOL     OW  564   1.325   0.475   2.117 -0.1896 -0.2184 -0.0287
  147SOL    HW1  565   1.402   0.436   2.159  0.2222  0.2997 -0.2883
  147SOL    HW2  566   1.293   0.407   2.058  2.6300  0.8956 -3.2158
  148SOL     OW  567   2.142   3.686   0.654  0.1185 -0.3434 -0.7836
  148SOL    HW1  568   2.075   3.638   0.704  0.4694 -0.0490 -0.0089
  148SOL    HW2  569   2.099   3.767   0.628  1.1271  1.5673  2.8046
  149SOL     OW  570   3.086   2.986   3.147  0.3273  0.1372 -0.0995
  149SOL    HW1  571   3.092   2.989   3.243  2.8190 -0.8557 -0.1529
  149SOL    HW2  572   3.063   3.076   3.122 -1.3651  0.1916  1.4251
  150SOL     OW  573   2.935   1.733   1.872 -0.4110 -0.1006  0.3032
  150SOL    HW1  574   2.945   1.776   1.957  0.5873 -0.0307  0.1582
  150SOL    HW2  575   2.975   1.647   1.885  0.1185  0.0671 -0.2157
  151SOL     OW  576   0.379   2.274   0.429  0.1506  0.1564  0.2850
  151SOL    HW1  577   0.424   2.218   0.492 -0.7404  0.3206  1.0807
  151SOL    HW2  578   0.309   2.316   0.479 -0.9872 -0.2053 -0.9542
  152SOL     OW  579   3.438   0.359   1.897 -0.0894 -0.7229 -0.1034
  152SOL    HW1  580   3.404   0.372   1.985 -1.2770 -0.0972 -0.6288
  152SOL    HW2  581   3.510   0.421   1.890  0.4826 -1.2748  0.6454
  153SOL     OW  582   3.222   0.339   3.369  0.1129 -0.4621  0.6158
  153SOL    HW1  583   3.192   0.249   3.363  0.5993 -0.5530 -0.7857
  153SOL    HW2  584   3.275   0.341   3.449 -0.8864 -1.0967  1.3118
  154SOL     OW  585   0.266   1.368   3.353 -0.4405  0.1831  0.1964
  154SOL    HW1  586   0.342   1.349   3.297  1.6124  1.9830  2.1792
  154SOL    HW2  587   0.234   1.453   3.321 -1.0854 -0.1575 -0.0736
  155SOL     OW  588   0.452   0.113   2.121  0.9131  0.0433 -0.2283
  155SOL    HW1  589   0.368   0.138   2.081  1.3396  1.1372 -0.4702
  155SOL    HW2  590   0.477   0.188   2.174  1.7845 -0.2335 -0.2283
  156SOL     OW  591   1.363   1.033   1.748  0.3368 -0.1483 -0.2468
  156SOL    HW1  592   1.442   0.988   1.718  1.9702  1.5381  1.2815
  156SOL    HW2  593   1.392   1.087   1.822 -1.8500  1.9780 -0.7913
  157SOL     OW  594   2.503   1.187   2.315 -0.2517  0.0574 -0.0134
  157SOL    HW1  595   2.462   1.267   2.347  0.6077  0.0259  1.2610
  157SOL    HW2  596   2.562   1.216   2.246 -0.6640  0.3988 -0.2244
  158SOL     OW  597   3.195   1.416   0.849  0.3361 -0.0723  0.4858
  158SOL    HW1  598   3.119   1.361   0.829  1.5474 -1.5981 -0.1198
  158SOL    HW2  599   3.254   1.403   0.775  0.1268  3.1512 -0.3627
  159SOL     OW  600   2.002   0.684   1.425  0.1182  1.1252  0.0479
  159SOL    HW1  601   1.920   0.637   1.405 -0.4445  1.9952  0.2607
  159SOL    HW2  602   2.068   0.642   1.370  0.0085 -1.0573  1.4529
  160SOL     OW  603   0.449   3.524   2.019  0.0125 -0.3241 -0.1294
  160SOL    HW1  604   0.481   3.601   1.972  0.5621 -0.8604 -0.6449
  160SOL    HW2  605   0.515   3.457   2.004 -1.8817 -1.8571 -2.2269
  161SOL     OW  606   1.871   0.459   3.574 -0.8249  0.2285  0.5867
  161SOL    HW1  607   1.917   0.541   3.593 -0.8518  1.2119 -2.9671
  161SOL    HW2  608   1.894   0.438   3.484 -2.3485 -2.7154  0.7543
  162SOL     OW  609   0.591   1.379   3.422  0.3660 -0.4102  0.7649
  162SOL    HW1  610   0.521   1.374   3.357 -2.2377  1.3309  3.2281
  162SOL    HW2  611   0.564   1.318   3.491  0.1957  1.6805  2.6339
  163SOL     OW  612   0.423   3.495   1.341  0.1691 -0.0375  0.0982
  163SOL    HW1  613   0.462   3.450   1.267  0.3338 -0.7847  0.6256
  163SOL    HW2  614   0.394   3.425   1.400 -0.0659  0.5333  0.6794
  164SOL     OW  615   3.142   2.762   1.010  0.1367 -0.0518 -0.3621
  164SOL    HW1  616   3.088   2.684   1.000 -0.2705  0.0146  1.1692
  164SOL    HW2  617   3.086   2.825   1.056  1.1759  0.3696  0.3619
  165SOL     OW  618   2.071   0.952   1.205  0.6563  0.5387 -0.0965
  165SOL    HW1  619   2.130   0.941   1.279 -0.0420  0.2856  0.4306
  165SOL    HW2  620   1.984   0.942   1.242  0.1037  3.3969 -0.3588
  166SOL     OW  621   1.082   2.656   0.590  0.3614 -0.1051 -0.1846
  166SOL    HW1  622   1.145   2.649   0.662 -1.4823 -0.8931  1.4583
  166SOL    HW2  623   1.022   2.582   0.603 -0.8353  0.5201 -1.7378
  167SOL     OW  624   2.196   1.429   1.313  0.5123  0.4470  0.1765
  167SOL    HW1  625   2.166   1.435   1.403 -0.3988  1.4998 -0.1689
  167SOL    HW2  626   2.166   1.511   1.273  1.9540  0.5474 -0.7650
  168SOL     OW  627   1.699   2.583   0.323  0.6667  0.4566  0.0381
  168SOL    HW1  628   1.691   2.489   0.308  1.0701  0.5221 -0.6037
  168SOL    HW2  629   1.630   2.603   0.387  2.3474 -0.7678  2.4011
  169SOL     OW  630   1.521   2.737   0.134 -0.0560 -0.5529 -0.7163
  169SOL    HW1  631   1.491   2.647   0.143  1.5144 -1.0627 -0.3173
  169SOL    HW2  632   1.617   2.731   0.131  0.0650  1.0430 -1.3621
  170SOL     OW  633   3.570   0.196   0.319 -0.2531 -0.2695 -0.5826
  170SOL    HW1  634   3.588   0.105   0.299  0.4521 -0.4663  0.8285
  170SOL    HW2  635   3.565   0.200   0.415  1.6246  1.4766 -0.4744
  171SOL     OW  636   2.930   1.435   3.401 -0.4699  0.4329 -0.2954
  171SOL    HW1  637   2.849   1.458   3.448  0.7644  0.2245  2.0957
  171SOL    HW2  638   2.953   1.516   3.355 -0.8059  1.2693  0.9322
  172SOL     OW  639   2.065   1.612   2.121  1.0038  0.2315 -0.5368
  172SOL    HW1  640   2.033   1.609   2.211  2.9570  1.8604  0.3169
  172SOL    HW2  641   1.989   1.594   2.067 -0.3522 -0.2391  1.4332
  173SOL     OW  642   0.906   0.485   0.278  0.1148 -0.5243 -0.0426
  173SOL    HW1  643   0.874   0.496   0.188 -0.0127  1.2236  0.1709
  173SOL    HW2  644   0.836   0.522   0.332  1.2577  0.7583  0.6059
  174SOL     OW  645   0.598   0.021   1.932  0.2782  0.0637  0.8670
  174SOL    HW1  646   0.592   0.093   1.869  1.6947  2.0033  2.8003
  174SOL    HW2  647   0.575   0.060   2.016  0.7229 -1.8634  1.9455
  175SOL     OW  648   2.110   3.597   2.232  0.1405  0.2226  0.1494
  175SOL    HW1  649   2.074   3.638   2.153 -1.9005  0.1550  0.9684
  175SOL    HW2  650   2.157   3.520   2.199 -2.5021 -1.0755 -0.9678
  176SOL     OW  651   2.988   0.894   0.263 -0.2102  0.0292  0.5918
  176SOL    HW1  652   3.064   0.884   0.205  0.3260  1.0330  1.1117
  176SOL    HW2  653   2.915   0.915   0.204  0.5010  1.8781  0.3299
  177SOL     OW  654   3.005   1.615   2.331 -0.2262 -0.0155  0.0382
  177SOL    HW1  655   3.055   1.543   2.370 -1.7650 -0.4547  1.2994
  177SOL    HW2  656   2.973   1.665   2.406 -1.6182  0.2730 -0.7226
  178SOL     OW  657   3.649   0.674   0.509 -0.3566  0.1976  0.0233
  178SOL    HW1  658   3.634   0.584   0.536  0.1850  0.4259  1.1461
  178SOL    HW2  659   3.581   0.725   0.553 -1.9032  0.1473 -2.1485
  179SOL     OW  660   3.257   3.235   1.368  0.1518 -0.9641 -0.5209
  179SOL    HW1  661   3.176   3.195   1.337 -0.2184  0.7495 -1.9638
  179SOL    HW2  662   3.291   3.282   1.292  0.7469  1.0914  0.9097
  180SOL     OW  663   1.145   0.598   0.401  0.1652 -0.6835 -0.7294
  180SOL    HW1  664   1.226   0.594   0.349  1.6505  2.1171  1.0540
  180SOL    HW2  665   1.075   0.598   0.336  1.8727  1.7895 -2.7924
  181SOL     OW  666   0.342   0.465   3.145  0.6845  0.2573 -0.3423
  181SOL    HW1  667   0.367   0.445   3.235  0.6638 -0.1100 -0.4157
  181SOL    HW2  668   0.264   0.410   3.129  2.5984 -2.3017 -1.6688
  182SOL     OW  669   0.178   0.834   3.518 -0.4783 -0.3155 -0.9090
  182SOL    HW1  670   0.162   0.912   3.465  0.4197  1.2783  1.0424
  182SOL    HW2  671   0.096   0.821   3.567 -0.4376 -0.2432 -0.8202
  183SOL     OW  672   3.571   1.256   2.588  0.5562  0.3813 -0.4187
  183SOL    HW1  673   3.650   1.306   2.566  0.1741  0.6871 -1.1110
  183SOL    HW2  674   3.501   1.321   2.590  0.2804  0.0718 -0.0381
  184SOL     OW  675   1.758   1.338   3.546 -0.1549  0.2396 -0.6890
  184SOL    HW1  676   1.718   1.294   3.470 -3.3749  2.4872 -0.4939
  184SOL    HW2  677   1.683   1.367   3.598  1.9133  1.8207  1.5713
  185SOL     OW  678   0.484   3.530   2.832 -0.4209  0.2091 -0.3167
  185SOL    HW1  679   0.536   3.455   2.861 -4.0274 -2.5438 -0.4216
  185SOL    HW2  680   0.531   3.563   2.755  2.2028 -0.7089  0.7631
  186SOL     OW  681   1.753   0.671   0.971 -0.1271  0.1401 -0.0586
  186SOL    HW1  682   1.807   0.596   0.993  0.3776  0.5727  0.2165
  186SOL    HW2  683   1.704   0.645   0.893 -1.9726 -1.4466  1.5179
  187SOL     OW  684   1.041   3.343   1.569 -0.3360  0.0701  0.0216
  187SOL    HW1  685   1.097   3.336   1.492 -1.1725  0.0366 -0.5940
  187SOL    HW2  686   0.999   3.429   1.560 -1.3751 -0.4417 -0.2289
  188SOL     OW  687   0.363   2.676   2.001 -0.4938  0.1370  0.3334
  188SOL    HW1  688   0.429   2.679   2.070  0.0144 -1.0823 -0.0759
  188SOL    HW2  689   0.313   2.756   2.013  1.9032  1.8268 -0.2060
  189SOL     OW  690   3.693   3.642   1.741 -0.0551  0.0337 -0.4820
  189SOL    HW1  691   3.777   3.667   1.780 -0.7984  0.6058  0.8495
  189SOL    HW2  692   3.639   3.617   1.816 -1.1038 -0.2480 -1.3040
  190SOL     OW  693   3.088   3.424   0.723 -0.2702  0.6996  0.0716
  190SOL    HW1  694   3.016   3.371   0.688 -0.3740  0.7105  0.2682
  190SOL    HW2  695   3.045   3.495   0.770 -0.1767 -0.5439  2.1402
  191SOL     OW  696   1.247   2.996   0.690 -0.1653  0.0301  0.1600
  191SOL    HW1  697   1.208   3.024   0.608  2.0321 -0.9465 -1.3161
  191SOL    HW2  698   1.262   2.902   0.679  0.6751 -0.0142  1.4302
  192SOL     OW  699   3.584   1.687   0.067 -0.3267  0.0293 -0.2181
  192SOL    HW1  700   3.663   1.738   0.082  1.1987 -1.5729 -2.2860
  192SOL    HW2  701   3.612   1.595   0.076 -1.4248 -0.6601 -2.8217
  193SOL     OW  702   0.105   2.567   0.190  0.1051 -0.3767 -0.2847
  193SOL    HW1  703   0.192   2.599   0.216  0.6431 -0.0971 -2.2576
  193SOL    HW2  704   0.109   2.472   0.205  0.4868 -0.2675  0.3256
  194SOL     OW  705   1.115   0.876   2.661  0.3179 -0.6670  0.5936
  194SOL    HW1  706   1.050   0.835   2.718 -1.1035  2.1455  1.1524
  194SOL    HW2  707   1.194   0.881   2.715  0.4579 -2.3155  0.5964
  195SOL     OW  708   1.836   3.709   0.688  0.2175  0.0826  0.2378
  195SOL    HW1  709   1.769   3.762   0.647  1.5137  1.0694 -0.6757
  195SOL    HW2  710   1.798   3.621   0.693 -1.0018  0.5475 -0.5282
  196SOL     OW  711   2.174   2.707   3.383 -0.0346  0.0449  0.2751
  196SOL    HW1  712   2.095   2.654   3.389 -0.3319  0.1769 -1.7320
  196SOL    HW2  713   2.149   2.792   3.419 -0.7572  0.0181 -0.1374
  197SOL     OW  714   1.257   0.843   0.744 -0.3010  0.3043 -0.3395
  197SOL    HW1  715   1.217   0.916   0.792 -1.8496 -0.3508 -0.5597
  197SOL    HW2  716   1.326   0.885   0.691 -0.5298  1.4634  0.2377
  198SOL     OW  717   2.466   0.738   3.089 -0.0138  0.3770  0.0814
  198SOL    HW1  718   2.403   0.755   3.020 -1.2926  0.8446  1.3141
  198SOL    HW2  719   2.433   0.787   3.165 -0.1938 -2.2610  1.8352
  199SOL     OW  720   2.663   0.166   0.440  0.0380  0.2778 -0.0973
  199SOL    HW1  721   2.577   0.125   0.447  0.2187  0.1300  4.3927
  199SOL    HW2  722   2.723   0.095   0.416 -0.8065 -0.0515 -1.2684
  200SOL     OW  723   1.663   0.823   0.481 -0.0886  0.8927 -0.1403
  200SOL    HW1  724   1.662   0.727   0.474 -0.4314  0.9353 -0.7631
  200SOL    HW2  725   1.668   0.853   0.390  1.3094  1.4637  0.0947
  201SOL     OW  726   2.849   0.273   2.833  0.9367 -0.1333  0.0404
  201SOL    HW1  727   2.780   0.207   2.820  0.9016  0.1213 -1.2264
  201SOL    HW2  728   2.913   0.253   2.765  0.4521  1.7145 -1.0124
  202SOL     OW  729   3.643   1.882   0.598  0.3513 -0.3086 -0.4519
  202SOL    HW1  730   3.595   1.962   0.617  0.9336 -0.3422  1.3368
  202SOL    HW2  731   3.624   1.824   0.672  2.5854 -0.5442  0.0399
  203SOL     OW  732   1.739   1.454   2.831 -0.5274  0.3823  0.0036
  203SOL    HW1  733   1.795   1.503   2.891  0.4921  1.6042 -1.8543
  203SOL    HW2  734   1.703   1.521   2.773 -0.9832 -0.8310 -1.1484
  204SOL     OW  735   2.873   0.312   0.286 -0.3110 -0.1006  0.0920
  204SOL    HW1  736   2.881   0.397   0.330  2.5714 -0.6323  0.7690
  204SOL    HW2  737   2.809   0.264   0.339 -0.0640  0.7613  1.2083
  205SOL     OW  738   1.560   1.888   1.984 -0.1289  0.6041  0.3514
  205SOL    HW1  739   1.561   1.845   2.069  0.7942  2.6463  1.4703
  205SOL    HW2  740   1.469   1.915   1.971 -0.9834 -2.4771 -0.9135
  206SOL     OW  741   2.503   1.834   2.860 -0.7182  0.3004  0.3382
  206SOL    HW1  742   2.581   1.819   2.914  2.1319  1.7663 -3.0274
  206SOL    HW2  743   2.448   1.757   2.877  1.6970 -1.1417  2.4026
  207SOL     OW  744   0.486   2.896   2.777 -0.3180 -0.0539  0.0820
  207SOL    HW1  745   0.525   2.821   2.821 -0.7911 -1.1185 -1.2262
  207SOL    HW2  746   0.394   2.893   2.801 -0.4008 -0.0945 -0.2346
  208SOL     OW  747   2.825   2.881   0.467 -0.2773 -0.3230 -0.1636
  208SOL    HW1  748   2.789   2.797   0.437 -2.3549  0.5840 -0.3663
  208SOL    HW2  749   2.774   2.902   0.545  1.1009  0.1552  0.6260
  209SOL     OW  750   2.217   3.499   1.575  0.2504 -0.5227  0.5694
  209SOL    HW1  751   2.128   3.500   1.541  0.0387  2.1441  0.9966
  209SOL    HW2  752   2.211   3.546   1.658  2.3863  1.8392 -0.4907
  210SOL     OW  753   0.684   0.656   0.311 -0.1481 -0.2265 -0.2739
  210SOL    HW1  754   0.611   0.716   0.319  1.0042  1.0651  1.3510
  210SOL    HW2  755   0.735   0.689   0.237 -1.4231 -1.4512 -1.7632
  211SOL     OW  756   3.523   3.667   3.067  0.6088 -0.2493  0.8159
  211SOL    HW1  757   3.505   3.747   3.117 -1.1444  0.0565 -0.2053
  211SOL    HW2  758   3.595   3.690   3.009 -0.7127  1.0428 -0.3822
  212SOL     OW  759   3.314   1.201   0.464 -0.0780  0.3790  0.1025
  212SOL    HW1  760   3.303   1.112   0.499  0.9286  1.4681  3.6781
  212SOL    HW2  761   3.372   1.189   0.388  2.5363 -1.8828  2.1854
  213SOL     OW  762   3.371   0.045   1.235  0.5701  0.1168 -0.3478
  213SOL    HW1  763   3.455   0.079   1.265 -0.3137  0.5494  1.8255
  213SOL    HW2  764   3.374   0.054   1.139  1.8753  2.7607 -0.1465
  214SOL     OW  765   0.098   2.377   2.859  0.0178  0.3322  0.6352
  214SOL    HW1  766   0.164   2.373   2.928  1.8758 -2.0048 -1.1089
  214SOL    HW2  767   0.132   2.322   2.789 -2.5594  1.1973 -1.5092
  215SOL     OW  768   0.505   0.335   1.555  0.1578 -0.6418 -0.3016
  215SOL    HW1  769   0.413   0.311   1.569  0.4274 -1.3086  0.4855
  215SOL    HW2  770   0.513   0.349   1.461 -1.3446  2.0585 -0.1059
  216SOL     OW  771   0.160   0.434   0.443 -0.5190 -0.3684  0.0832
  216SOL    HW1  772   0.140   0.380   0.367 -1.3071 -1.7007  1.2077
  216SOL    HW2  773   0.254   0.453   0.434 -0.9262  0.9628 -2.0911
  217SOL     OW  774   2.222   3.669   1.783 -0.2957  0.0198 -0.1787
  217SOL    HW1  775   2.314   3.655   1.802 -0.1970 -2.8200 -2.2092
  217SOL    HW2  776   2.220   3.744   1.723  1.0704 -1.5349 -2.3099
  218SOL     OW  777   1.711   0.166  -0.016  0.6393  0.5841  0.2050
  218SOL    HW1  778   1.727   0.253   0.021  1.4362  0.5751 -0.1009
  218SOL    HW2  779   1.682   0.113   0.058 -0.9652  1.3824  0.1964
  219SOL     OW  780   0.434   3.613   2.290 -0.1139  0.0122 -0.3288
  219SOL    HW1  781   0.443   3.518   2.286 -2.9093 -0.2659 -3.2027
  219SOL    HW2  782   0.470   3.645   2.207  1.7026  1.6582  0.9875
  220SOL     OW  783   1.315   3.376   0.933  0.4259 -0.2871 -0.1457
  220SOL    HW1  784   1.338   3.457   0.887 -1.0282 -0.8033 -1.9165
  220SOL    HW2  785   1.384   3.365   0.999  1.2908  1.7605 -0.6373
  221SOL     OW  786   1.873   2.510   2.532  0.3773 -0.1394  0.2309
  221SOL    HW1  787   1.845   2.583   2.476  2.0942  2.5477  2.5448
  221SOL    HW2  788   1.937   2.462   2.479 -0.4180  0.3221 -1.1990
  222SOL     OW  789   2.617   1.028   1.269 -0.9176 -0.5686  0.4900
  222SOL    HW1  790   2.693   0.971   1.275 -1.4046 -1.3146 -0.2050
  222SOL    HW2  791   2.592   1.025   1.176 -0.6665  1.1614  0.3266
  223SOL     OW  792   3.135   1.250   1.379 -0.0552  1.0039 -0.8799
  223SOL    HW1  793   3.151   1.343   1.363 -1.8304  1.0280 -3.0310
  223SOL    HW2  794   3.058   1.248   1.436  1.4091  0.8044  1.2032
  224SOL     OW  795   1.086   1.488   2.821  0.3527 -0.2266  0.5763
  224SOL    HW1  796   1.055   1.579   2.822 -0.5350 -0.5192 -0.0263
  224SOL    HW2  797   1.169   1.491   2.869  0.7426  1.0480 -0.1338
  225SOL     OW  798   3.203   1.976   0.629 -0.2632  0.5987  0.1405
  225SOL    HW1  799   3.221   1.959   0.537  1.1918 -0.7168  0.6330
  225SOL    HW2  800   3.113   1.945   0.642 -0.1640 -0.0259 -0.6286
  226SOL     OW  801   0.258   2.320   0.943 -0.4227  0.4154 -0.0023
  226SOL    HW1  802   0.220   2.314   1.030 -1.2609  0.4158 -0.3542
  226SOL    HW2  803   0.244   2.233   0.905 -0.1924  0.4587 -0.1920
  227SOL     OW  804   0.543   0.315   2.271  0.1397  0.2959  0.6895
  227SOL    HW1  805   0.587   0.350   2.349  0.3370 -0.4105  0.8976
  227SOL    HW2  806   0.469   0.374   2.257 -0.0714  0.2560  1.5825
  228SOL     OW  807   3.078   2.332   3.492 -0.1715  0.2939 -0.3920
  228SOL    HW1  808   3.116   2.249   3.521 -2.1410 -0.3470  0.5410
  228SOL    HW2  809   3.116   2.397   3.552  1.6549  0.1788 -1.3526
  229SOL     OW  810   1.876   1.900   2.014  0.1424  0.1594  1.0132
  229SOL    HW1  811   1.788   1.924   1.984  0.3451 -0.2940  0.0261
  229SOL    HW2  812   1.882   1.937   2.102 -0.7036  0.9684  0.7469
  230SOL     OW  813   3.382   0.176   1.480  0.1159 -0.5558 -0.6402
  230SOL    HW1  814   3.439   0.253   1.480  2.0404 -1.9294 -0.4311
  230SOL    HW2  815   3.302   0.207   1.437  0.9287  1.4762 -0.8310
  231SOL     OW  816   0.342   0.832   1.771  0.9474  0.2013  0.2184
  231SOL    HW1  817   0.287   0.908   1.791  1.4394  0.4020  0.8165
  231SOL    HW2  818   0.370   0.799   1.857  0.5336 -0.8122 -0.0187
  232SOL     OW  819   0.860   3.111   0.980 -0.0434  0.0583  1.0827
  232SOL    HW1  820   0.949   3.136   0.953 -0.4069 -0.8776 -1.2341
  232SOL    HW2  821   0.805   3.184   0.954 -0.2541 -0.3815  0.2665
  233SOL     OW  822   0.896   2.307   1.000 -0.4415 -0.5479 -0.0160
  233SOL    HW1  823   0.866   2.386   1.045 -0.5723 -0.8240  0.3863
  233SOL    HW2  824   0.986   2.295   1.030 -0.4393 -0.5814 -0.0361
  234SOL     OW  825   2.099   3.128   0.001 -1.0217 -0.0883  0.8537
  234SOL    HW1  826   2.086   3.193  -0.067 -1.7023 -1.0854 -0.0023
  234SOL    HW2  827   2.129   3.178   0.077  0.7247  0.9374 -0.4287
  235SOL     OW  828   2.165   3.178   1.632 -0.1124 -0.7304 -0.4695
  235SOL    HW1  829   2.114   3.190   1.712  0.1132  1.8578 -0.6326
  235SOL    HW2  830   2.105   3.202   1.561  0.7429  0.4948 -0.7995
  236SOL     OW  831   2.894   0.611   1.801  0.2000  0.0450  0.5604
  236SOL    HW1  832   2.862   0.644   1.885 -0.7586  0.5298  0.0247
  236SOL    HW2  833   2.910   0.689   1.749  2.2001 -0.1865  0.7530
  237SOL     OW  834   0.107   1.617   3.260  0.2798  0.2873 -0.2769
  237SOL    HW1  835   0.126   1.620   3.354 -1.1969  1.8415  0.0117
  237SOL    HW2  836   0.155   1.691   3.223 -2.3681  2.2551 -0.0346
  238SOL     OW  837   3.161   1.238   0.179  0.2913  0.1403 -0.1080
  238SOL    HW1  838   3.208   1.187   0.113  0.0480 -0.0360 -0.1444
  238SOL    HW2  839   3.219   1.237   0.256 -0.0197 -0.7849  0.1308
  239SOL     OW  840   3.128   2.256   0.262 -0.1789 -0.0070 -0.2762
  239SOL    HW1  841   3.158   2.176   0.305  0.7035  0.3316 -0.2463
  239SOL    HW2  842   3.034   2.242   0.248 -0.2288 -0.6321  0.6241
  240SOL     OW  843   3.261   2.478   1.920  0.5071  0.0715  0.6351
  240SOL    HW1  844   3.219   2.393   1.909 -1.3196  0.9167  0.6353
  240SOL    HW2  845   3.308   2.471   2.003 -1.9259 -0.0972  2.0954
  241SOL     OW  846   0.680   3.325   2.805 -0.5805  0.0587 -0.3003
  241SOL    HW1  847   0.747   3.370   2.753 -0.2203  0.0069  0.1115
  241SOL    HW2  848   0.707   3.233   2.804 -0.7881 -0.0019 -0.3474
  242SOL     OW  849   1.852   0.388   3.294  0.7310  0.0755 -0.2386
  242SOL    HW1  850   1.796   0.465   3.283 -0.2956 -0.7765 -1.2228
  242SOL    HW2  851   1.881   0.366   3.205 -1.2294 -2.2617 -0.3848
  243SOL     OW  852   1.686   1.312   2.559  0.6069  0.2035 -0.5968
  243SOL    HW1  853   1.701   1.348   2.646 -0.4706  0.8159 -0.6495
  243SOL    HW2  854   1.722   1.223   2.563  0.7166  0.2848  0.4141
  244SOL     OW  855   2.526   1.473   0.406  1.0263 -0.2724 -0.6926
  244SOL    HW1  856   2.487   1.470   0.493  0.5395  0.1324 -0.8860
  244SOL    HW2  857   2.613   1.437   0.417  0.6807 -0.9742 -0.1926
  245SOL     OW  858   1.958   2.109   0.959 -0.2716  0.0219  0.2947
  245SOL    HW1  859   1.993   2.137   1.043 -0.5509 -0.0239  0.4270
  245SOL    HW2  860   2.030   2.121   0.897 -0.3889  1.1006  0.3386
  246SOL     OW  861   3.702   2.054   2.684  0.6775 -0.2613  0.4778
  246SOL    HW1  862   3.655   2.113   2.743 -1.0322 -2.0908  1.0541
  246SOL    HW2  863   3.635   1.993   2.653  1.6554  0.1727 -2.8679
  247SOL     OW  864   3.622   0.583   1.578  0.1637  0.0374 -0.2503
  247SOL    HW1  865   3.610   0.500   1.531 -0.9247 -0.3311  0.6461
  247SOL    HW2  866   3.666   0.640   1.515  0.0287 -0.9001 -1.2214
  248SOL     OW  867   1.535   3.340   2.546  0.1473 -0.5017  1.0684
  248SOL    HW1  868   1.490   3.268   2.589 -3.0171 -0.1814 -1.3736
  248SOL    HW2  869   1.483   3.418   2.566 -1.1491 -0.2295 -2.5101
  249SOL     OW  870   1.595   0.495   3.551 -0.3531  0.7602  0.1840
  249SOL    HW1  871   1.690   0.499   3.561 -0.2784  0.6748 -0.4117
  249SOL    HW2  872   1.561   0.493   3.640  0.3118 -1.8103  0.4398
  250SOL     OW  873   1.163   3.153   0.924 -0.6263  0.6945 -0.4811
  250SOL    HW1  874   1.193   3.242   0.943  0.1801  0.6225 -1.3355
  250SOL    HW2  875   1.174   3.144   0.829  0.8606 -0.8640 -0.2023
  251SOL     OW  876   2.148   0.448   1.285 -0.7281 -0.0856  0.2329
  251SOL    HW1  877   2.181   0.537   1.271  1.2017 -0.9848 -1.3363
  251SOL    HW2  878   2.129   0.416   1.197 -1.3535 -1.2571  0.7783
  252SOL     OW  879   3.650   2.009   1.422  0.1246  0.2554 -0.4120
  252SOL    HW1  880   3.692   1.970   1.499 -0.4427  0.3270 -0.0587
  252SOL    HW2  881   3.649   2.103   1.440  0.6860  0.3536 -0.8613
  253SOL     OW  882   0.858   2.131   0.121  0.6040 -0.0569  0.2468
  253SOL    HW1  883   0.816   2.057   0.078 -0.8927 -0.4404  2.2207
  253SOL    HW2  884   0.932   2.093   0.168 -0.8828 -0.5927  2.2686
  254SOL     OW  885   3.611   0.898   2.009  0.8081  0.1044  0.1808
  254SOL    HW1  886   3.685   0.846   2.039  0.4486 -0.4457  0.1431
  254SOL    HW2  887   3.548   0.833   1.976  0.1037  0.5192  0.6668
  255SOL     OW  888   0.122   0.953   2.801  0.2431  0.3136  0.3450
  255SOL    HW1  889   0.047   0.992   2.845 -0.3607 -1.5573  1.0430
  255SOL    HW2  890   0.088   0.872   2.762  2.1243 -1.2100  1.7054
  256SOL     OW  891   2.912   2.440   2.289 -0.1434 -0.5146  0.0155
  256SOL    HW1  892   2.997   2.399   2.276 -0.5648 -1.3560 -0.1921
  256SOL    HW2  893   2.879   2.454   2.200  0.0461  0.4015  0.0820
  257SOL     OW  894   0.866   0.219   1.918  0.0544  0.1182 -0.5839
  257SOL    HW1  895   0.799   0.203   1.852 -0.0376 -3.1896  0.1559
  257SOL    HW2  896   0.947   0.186   1.879  0.9072  2.1359 -0.6440
  258SOL     OW  897   1.330   3.361   0.390  0.0674  0.2761 -0.3460
  258SOL    HW1  898   1.255   3.330   0.439  0.2330 -1.7534 -1.2740
  258SOL    HW2  899   1.403   3.306   0.419  0.8108  1.0202 -0.7315
  259SOL     OW  900   2.308   2.715   2.930  0.4552 -0.3462 -0.3862
  259SOL    HW1  901   2.302   2.663   3.010  0.3499 -1.9276 -1.3831
  259SOL    HW2  902   2.362   2.790   2.954 -2.2694  1.0566  2.0807
  260SOL     OW  903   0.310   2.296   3.041 -0.2496  0.3249 -0.2377
  260SOL    HW1  904   0.251   2.270   3.112  0.9835 -2.3552 -0.0515
  260SOL    HW2  905   0.331   2.387   3.060 -2.6027  0.6996  0.8850
  261SOL     OW  906   0.817   1.868   0.499 -0.0636  0.5882  0.5908
  261SOL    HW1  907   0.777   1.884   0.414 -0.6442  1.1325  0.9631
  261SOL    HW2  908   0.869   1.788   0.486  0.7307  1.2645 -0.5560
  262SOL     OW  909   1.094   0.632   2.151  0.1130 -0.1395 -0.2281
  262SOL    HW1  910   1.132   0.712   2.187  1.5981 -0.2465 -1.4981
  262SOL    HW2  911   1.167   0.571   2.146 -1.0355 -1.6907  0.9242
  263SOL     OW  912   2.618   1.205   1.754 -0.4423  0.0030  0.1337
  263SOL    HW1  913   2.675   1.281   1.742 -0.2756 -0.2083 -0.4297
  263SOL    HW2  914   2.662   1.135   1.707 -0.6916 -0.3995  0.4965
  264SOL     OW  915   1.122   1.523   0.259  0.2290  0.0919 -0.2470
  264SOL    HW1  916   1.096   1.560   0.175 -1.6251 -0.3352  0.0828
  264SOL    HW2  917   1.212   1.551   0.272 -0.0539  1.6971 -1.5310
  265SOL     OW  918   1.461   3.075   1.845 -0.0412  0.1513  0.4369
  265SOL    HW1  919   1.386   3.109   1.797 -0.3790 -0.7045  0.3402
  265SOL    HW2  920   1.499   3.152   1.888 -0.4900  0.7216 -0.1557
  266SOL     OW  921   1.130   1.223   2.245  0.2291 -0.6254 -0.2827
  266SOL    HW1  922   1.104   1.312   2.271  0.9890 -0.0364 -1.4564
  266SOL    HW2  923   1.133   1.174   2.328 -0.9969  0.2148  0.2939
  267SOL     OW  924   0.679   2.784   0.275  0.4040 -0.0267 -0.1572
  267SOL    HW1  925   0.769   2.751   0.287  0.1176 -0.4523  0.9076
  267SOL    HW2  926   0.630   2.708   0.243  0.1674 -0.1204  0.4206
  268SOL     OW  927   0.066   0.288   1.770 -0.4862  0.4819 -0.4912
  268SOL    HW1  928   0.091   0.243   1.851  2.2908 -0.0214 -1.5367
  268SOL    HW2  929   0.027   0.370   1.800 -0.4564 -0.1253  1.3598
  269SOL     OW  930   3.636   3.213   0.424  0.2222  0.2329 -0.5189
  269SOL    HW1  931   3.659   3.154   0.496  1.3831  0.8960 -0.3348
  269SOL    HW2  932   3.686   3.180   0.349 -1.9687 -1.2704 -1.4478
  270SOL     OW  933   0.021   2.212   1.969  0.6299 -0.4895 -0.8233
  270SOL    HW1  934   0.059   2.198   2.056  1.1537  0.8467 -0.8105
  270SOL    HW2  935  -0.011   2.302   1.970 -2.6529 -1.5478 -0.8453
  271SOL     OW  936   1.777   0.425   2.884 -0.2365  0.1228  0.3638
  271SOL    HW1  937   1.814   0.408   2.797  1.2167 -0.9864  1.1495
  271SOL    HW2  938   1.780   0.521   2.893 -1.6767  0.3869 -1.2878
  272SOL     OW  939   1.510   2.614   0.813  0.5780 -0.1314 -0.0203
  272SOL    HW1  940   1.486   2.531   0.855  0.3306 -0.2809 -0.4486
  272SOL    HW2  941   1.524   2.591   0.721 -1.4596  0.6377 -0.5761
  273SOL     OW  942   2.071   0.293   0.738 -0.3950  0.3545 -0.1012
  273SOL    HW1  943   2.043   0.379   0.768 -2.0998  0.6396 -2.2456
  273SOL    HW2  944   2.019   0.231   0.789 -0.2392  0.6489  0.4158
  274SOL     OW  945   3.245   3.210   2.367  0.4320 -0.1447 -0.0565
  274SOL    HW1  946   3.265   3.207   2.273  2.0004 -0.4012  0.2634
  274SOL    HW2  947   3.274   3.125   2.400 -0.8703 -0.3783  0.5401
  275SOL     OW  948   0.724   0.631   2.595  0.6323 -0.4487 -0.2199
  275SOL    HW1  949   0.691   0.715   2.563 -0.7915 -1.2291 -0.8574
  275SOL    HW2  950   0.818   0.646   2.605  0.1746  1.8104  1.5535
  276SOL     OW  951   2.186   3.131   0.937 -0.1612  0.0228 -0.1837
  276SOL    HW1  952   2.109   3.088   0.898 -0.2771  0.0023  0.0617
  276SOL    HW2  953   2.258   3.070   0.921 -0.1987  0.0336 -0.3995
  277SOL     OW  954   2.913   2.086   0.133 -0.1607  0.0960 -0.2594
  277SOL    HW1  955   2.991   2.040   0.101  0.9937  2.0891 -0.4475
  277SOL    HW2  956   2.860   2.102   0.055 -0.4370 -0.6459 -0.2306
  278SOL     OW  957   2.345   2.279   2.512 -0.3115 -0.3546 -0.3148
  278SOL    HW1  958   2.389   2.299   2.429  1.2989  1.5736  0.9150
  278SOL    HW2  959   2.273   2.343   2.516 -0.6262 -0.7026 -0.3883
  279SOL     OW  960   2.976   2.935   1.168  0.6120  0.6926  0.1048
  279SOL    HW1  961   2.957   3.028   1.164  3.1194  1.3098  0.7317
  279SOL    HW2  962   2.981   2.915   1.262  1.3867  0.2508 -0.0182
  280SOL     OW  963   0.210   1.950   2.813 -0.7354 -0.6766  0.3624
  280SOL    HW1  964   0.202   1.932   2.906 -1.5502 -1.1401  0.2132
  280SOL    HW2  965   0.121   1.967   2.784 -0.2985  1.2060 -0.0086
  281SOL     OW  966   3.354   3.225   0.360 -0.1291 -0.1170  0.8455
  281SOL    HW1  967   3.434   3.264   0.396  0.7971 -1.6248  0.4854
  281SOL    HW2  968   3.375   3.207   0.269 -0.3364 -1.9185  1.1325
  282SOL     OW  969   2.570   3.615   0.551  0.0074  0.2794 -0.1569
  282SOL    HW1  970   2.486   3.660   0.565 -1.0230 -1.2696 -1.0174
  282SOL    HW2  971   2.617   3.627   0.633  0.4525  4.1136 -0.7730
  283SOL     OW  972   3.597   2.395   0.870  0.2377  0.1396  0.2582
  283SOL    HW1  973   3.530   2.328   0.883  2.4201 -2.1772  0.3330
  283SOL    HW2  974   3.659   2.355   0.808  2.0485  1.7735  0.9277
  284SOL     OW  975   2.492   3.115   2.640 -0.2311 -0.2965 -0.2776
  284SOL    HW1  976   2.424   3.174   2.606  0.8772  0.7439 -0.7432
  284SOL    HW2  977   2.574   3.153   2.611  0.5169 -2.6567 -1.4890
  285SOL     OW  978   0.470   3.202   1.892  0.6846 -0.2228  0.3370
  285SOL    HW1  979   0.430   3.155   1.819  0.0072 -1.2964  1.3620
  285SOL    HW2  980   0.535   3.259   1.851 -1.6397  1.3748 -1.3732
  286SOL     OW  981   0.212   1.103   0.674  0.0961  0.1018  0.3878
  286SOL    HW1  982   0.298   1.097   0.715  0.0335  0.4976  0.5766
  286SOL    HW2  983   0.224   1.164   0.601 -0.4960  1.8240  1.6663
  287SOL     OW  984   0.412   3.336   1.569  0.0705 -0.7478 -0.0027
  287SOL    HW1  985   0.435   3.244   1.582 -0.2516 -0.8080  0.1536
  287SOL    HW2  986   0.358   3.358   1.645 -1.1996 -0.8896 -0.8311
  288SOL     OW  987   1.240   2.536   3.564  0.3448 -0.2730  0.0815
  288SOL    HW1  988   1.275   2.547   3.475 -0.8104 -0.7747 -0.4579
  288SOL    HW2  989   1.200   2.620   3.585  1.1122  0.0266  0.3573
  289SOL     OW  990   0.846   0.437   1.154 -0.1401 -0.1778  0.3336
  289SOL    HW1  991   0.915   0.432   1.220  0.1248  0.5628  0.1227
  289SOL    HW2  992   0.766   0.413   1.201 -0.0277  0.7925  1.0605
  290SOL     OW  993   3.562   0.821   2.739  0.0109  0.3213  0.5499
  290SOL    HW1  994   3.537   0.861   2.823 -0.9804 -0.1973  0.5198
  290SOL    HW2  995   3.547   0.890   2.674 -1.3026  0.0706  0.5502
  291SOL     OW  996   3.289   2.125   0.866 -0.6663  0.2588 -0.4384
  291SOL    HW1  997   3.231   2.076   0.807  0.1683 -0.2459 -0.8571
  291SOL    HW2  998   3.251   2.112   0.953 -0.4968 -1.1223 -0.5382
  292SOL     OW  999   2.426   2.345   1.414  0.2301  0.1796  0.2791
  292SOL    HW1 1000   2.383   2.308   1.492 -0.1344  0.1121  0.0493
  292SOL    HW2 1001   2.360   2.337   1.345  0.3938  0.6438  0.0676
  293SOL     OW 1002   1.387   1.604   0.266  0.1074 -0.1014 -0.0461
  293SOL    HW1 1003   1.385   1.691   0.304 -0.3729 -1.7102  4.1097
  293SOL    HW2 1004   1.476   1.572   0.284 -0.1348 -0.9478 -0.2869
  294SOL     OW 1005   1.491   0.632   1.034  0.2418 -0.0748  0.7552
  294SOL    HW1 1006   1.572   0.627   0.983 -0.6368  0.0112 -0.7037
  294SOL    HW2 1007   1.466   0.724   1.029  0.9518  0.2878  2.7333
  295SOL     OW 1008   3.608   2.951   1.644  0.5694  0.0286 -0.6740
  295SOL    HW1 1009   3.550   2.877   1.664  0.9281 -0.3405 -0.9821
  295SOL    HW2 1010   3.566   2.996   1.571  1.1967 -0.8614 -1.6116
  296SOL     OW 1011   2.636   3.338   1.888 -0.8132  0.3579 -0.3035
  296SOL    HW1 1012   2.699   3.266   1.883 -1.9056 -0.6636  0.1779
  296SOL    HW2 1013   2.586   3.321   1.968 -0.1590  2.4653  0.6170
  297SOL     OW 1014   3.232   0.127   0.272  0.2923 -0.1742 -0.0686
  297SOL    HW1 1015   3.163   0.072   0.234 -0.1857  0.3459  0.0486
  297SOL    HW2 1016   3.280   0.161   0.196 -0.0475  0.0659 -0.1774
  298SOL     OW 1017   1.509   3.344   2.998  0.5470  0.0015  0.3300
  298SOL    HW1 1018   1.451   3.276   3.034  0.0980 -0.5232 -1.2966
  298SOL    HW2 1019   1.596   3.303   2.999  0.4240 -0.2690  0.1795
  299SOL     OW 1020   0.716   2.232   2.434  0.0695 -0.0975  0.0507
  299SOL    HW1 1021   0.630   2.263   2.463  0.0165 -0.0544 -0.1510
  299SOL    HW2 1022   0.779   2.277   2.491  0.2620  3.3545 -2.6077
  300SOL     OW 1023   3.215   2.922   0.305 -0.3931  0.3778 -0.3138
  300SOL    HW1 1024   3.148   2.854   0.298 -2.1608  1.9889 -0.1212
  300SOL    HW2 1025   3.259   2.922   0.220 -0.3766 -0.9630 -0.3229
  301SOL     OW 1026   1.626   1.386   0.564  0.0824  0.1453 -0.2425
  301SOL    HW1 1027   1.670   1.302   0.553  0.8054  0.4699  0.1425
  301SOL    HW2 1028   1.540   1.363   0.600  0.5116 -0.4006  0.4626
  302SOL     OW 1029   3.098   2.293   2.562 -0.3748 -0.2612  0.3031
  302SOL    HW1 1030   3.086   2.388   2.562 -1.3367 -0.3668 -0.0112
  302SOL    HW2 1031   3.009   2.258   2.575  0.0786 -1.1104  1.2855
  303SOL     OW 1032   0.259   1.948   1.567 -0.4391  0.1155  0.5947
  303SOL    HW1 1033   0.283   2.037   1.542 -0.9005 -0.1947 -1.0642
  303SOL    HW2 1034   0.265   1.948   1.663  2.4155  1.1041  0.5185
  304SOL     OW 1035   2.649   0.401   0.004  0.4215  0.2367 -0.4610
  304SOL    HW1 1036   2.596   0.372   0.079  1.1420  0.4568  0.1461
  304SOL    HW2 1037   2.677   0.320  -0.038 -2.0124  0.1035 -1.9870
  305SOL     OW 1038   0.031   3.709   2.635 -0.2342 -0.0118 -0.2239
  305SOL    HW1 1039  -0.026   3.666   2.698 -1.0545 -0.2402 -1.1010
  305SOL    HW2 1040   0.060   3.639   2.576  1.5878 -0.0505  0.6404
  306SOL     OW 1041   2.313   2.430   0.857 -0.6099  0.0609  0.2721
  306SOL    HW1 1042   2.354   2.374   0.923 -0.8917 -1.4324 -0.7814
  306SOL    HW2 1043   2.219   2.416   0.869 -0.7215  0.9373  0.5102
  307SOL     OW 1044   0.275   3.407   1.792 -1.0771  0.3458  0.7896
  307SOL    HW1 1045   0.196   3.392   1.844 -0.2551 -0.2376  1.9449
  307SOL    HW2 1046   0.347   3.393   1.855 -0.0345 -0.3659 -0.5141
  308SOL     OW 1047   2.876   0.436   2.495 -0.0857  0.6515  0.3576
  308SOL    HW1 1048   2.910   0.502   2.435  1.3416 -0.6972 -0.4015
  308SOL    HW2 1049   2.900   0.467   2.582  0.5559  1.1460  0.0121
  309SOL     OW 1050   1.946   2.886   1.471  0.3261 -0.3722  0.2432
  309SOL    HW1 1051   1.940   2.870   1.377 -1.1693 -0.9747  0.4032
  309SOL    HW2 1052   1.996   2.967   1.479 -0.8143  0.5325 -1.1656
  310SOL     OW 1053   2.098   0.177   3.529 -0.5119 -0.1993 -0.1244
  310SOL    HW1 1054   2.095   0.114   3.601 -0.6118  0.0267  0.0697
  310SOL    HW2 1055   2.009   0.181   3.496 -0.9085  1.1790  1.0286
  311SOL     OW 1056   3.381   2.233   1.568  0.4991  0.2186  0.2878
  311SOL    HW1 1057   3.423   2.205   1.649  0.0178 -1.0188  0.1421
  311SOL    HW2 1058   3.454   2.251   1.508  0.8599  1.3814  1.0533
  312SOL     OW 1059   0.327   2.642   1.224 -0.6433  0.0075  0.3150
  312SOL    HW1 1060   0.403   2.585   1.210  1.4829  2.3172  1.5772
  312SOL    HW2 1061   0.326   2.656   1.319 -0.5912  2.5780 -0.0090
  313SOL     OW 1062   1.425   1.105   2.503  0.6863 -0.0168  0.1844
  313SOL    HW1 1063   1.379   1.061   2.431  0.9288 -0.4532  0.2923
  313SOL    HW2 1064   1.515   1.112   2.473  0.5429  0.8939 -0.0517
  314SOL     OW 1065   2.213   1.815   0.230  0.0028 -0.5528  0.1594
  314SOL    HW1 1066   2.197   1.806   0.136  1.4730  0.9753 -0.3054
  314SOL    HW2 1067   2.127   1.810   0.270 -1.1902  2.4259 -1.6532
  315SOL     OW 1068   1.389   3.004   3.428 -0.2685  0.3802  0.2204
  315SOL    HW1 1069   1.358   3.004   3.337  0.4443  2.5903 -0.0901
  315SOL    HW2 1070   1.341   3.076   3.470  2.1683  1.9844  0.4913
  316SOL     OW 1071   1.525   1.247   1.005 -0.1306 -0.1064 -0.0236
  316SOL    HW1 1072   1.497   1.197   1.083 -0.7295  2.3963  1.4899
  316SOL    HW2 1073   1.581   1.316   1.040  1.3222 -0.1574 -2.1162
  317SOL     OW 1074   2.034   0.002   1.464 -0.0208  0.1121 -0.0180
  317SOL    HW1 1075   2.069   0.090   1.477  1.1759 -0.3896  0.3264
  317SOL    HW2 1076   2.085  -0.033   1.391 -0.2819 -0.4010  0.0447
  318SOL     OW 1077   0.551   2.482   1.244  0.2266 -0.2846  0.0443
  318SOL    HW1 1078   0.542   2.402   1.297 -0.8716  0.0894  0.4563
  318SOL    HW2 1079   0.629   2.467   1.192  0.3306 -1.4225  0.4865
  319SOL     OW 1080   1.711   1.344   2.240 -1.0750  0.6535 -0.2287
  319SOL    HW1 1081   1.649   1.311   2.305 -2.0371 -1.5585 -2.1240
  319SOL    HW2 1082   1.659   1.405   2.187 -1.4306 -0.4726 -1.2253
  320SOL     OW 1083   2.927   1.668   3.276 -0.2363  0.4120 -0.0117
  320SOL    HW1 1084   2.872   1.700   3.204 -0.1112  1.4266  0.3263
  320SOL    HW2 1085   2.954   1.747   3.322 -0.0498 -0.2056  0.9631
  321SOL     OW 1086   2.962   0.677   2.972 -0.8839  0.3735  0.2615
  321SOL    HW1 1087   3.010   0.682   3.054 -1.6400  0.8786  0.6803
  321SOL    HW2 1088   2.875   0.644   2.996 -0.3192 -2.0878 -0.6827
  322SOL     OW 1089   3.531   1.344   1.291 -0.4504  0.7751 -0.3242
  322SOL    HW1 1090   3.510   1.364   1.382  0.4148  0.7915 -0.1184
  322SOL    HW2 1091   3.573   1.258   1.294 -0.7191  0.6224 -0.7556
  323SOL     OW 1092   3.583   3.148   1.199  0.8201  0.3000  0.4415
  323SOL    HW1 1093   3.602   3.231   1.156  1.0418  0.0400  0.0404
  323SOL    HW2 1094   3.662   3.128   1.248  0.5137  0.6724  1.1075
  324SOL     OW 1095   3.339   3.313   2.830  0.3190  0.0104  0.4758
  324SOL    HW1 1096   3.388   3.382   2.787 -1.1034  1.1326  0.5719
  324SOL    HW2 1097   3.278   3.281   2.763 -0.3209  0.1647  0.9703
  325SOL     OW 1098   1.013   2.120   2.057 -0.0174  0.4114  0.3430
  325SOL    HW1 1099   0.943   2.107   2.121 -0.4965 -1.9718 -0.5422
  325SOL    HW2 1100   1.014   2.214   2.041 -1.0785  0.8568  2.4920
  326SOL     OW 1101   2.698   3.053   3.731 -0.5328  0.7286  0.3324
  326SOL    HW1 1102   2.785   3.018   3.749 -1.5035 -1.2742  1.4862
  326SOL    HW2 1103   2.694   3.058   3.635  0.4840 -0.1800  0.2191
  327SOL     OW 1104   0.103   0.686   2.694  0.3121 -0.1489 -0.2994
  327SOL    HW1 1105   0.166   0.614   2.685  2.7007  1.9299 -1.3509
  327SOL    HW2 1106   0.022   0.643   2.722  0.9547 -3.5043 -2.9044
  328SOL     OW 1107   0.599   1.432   2.334 -0.1980  0.1277 -0.2407
  328SOL    HW1 1108   0.627   1.524   2.339  3.6404 -0.9227  0.4768
  328SOL    HW2 1109   0.541   1.430   2.258  1.9327  2.6698 -2.1412
  329SOL     OW 1110   2.179   2.610   0.647 -0.2093  0.2158 -0.2862
  329SOL    HW1 1111   2.095   2.576   0.617 -0.0639  0.8245 -1.4270
  329SOL    HW2 1112   2.217   2.538   0.697 -1.1637 -0.2559 -0.2197
  330SOL     OW 1113   1.584   0.967   1.586 -0.1062 -0.2075  0.2578
  330SOL    HW1 1114   1.511   0.941   1.529 -0.8473 -0.5872  1.3602
  330SOL    HW2 1115   1.632   0.886   1.602 -0.5666 -0.3196  1.0994
  331SOL     OW 1116   0.256   0.835   0.619 -0.2794  0.3454 -0.0700
  331SOL    HW1 1117   0.223   0.753   0.582  1.7804 -0.3766 -0.4232
  331SOL    HW2 1118   0.226   0.903   0.558 -1.4051 -0.2085 -0.1568
  332SOL     OW 1119   2.008   0.504   1.691  0.1089  0.7714 -0.2219
  332SOL    HW1 1120   2.049   0.583   1.726  0.5283  1.2012 -1.6032
  332SOL    HW2 1121   1.920   0.503   1.729  0.1936  1.7621  0.0233
  333SOL     OW 1122   0.870   0.851   3.067 -0.2254  0.4610 -0.4826
  333SOL    HW1 1123   0.879   0.758   3.047 -0.0116  0.3531  0.0984
  333SOL    HW2 1124   0.960   0.883   3.073 -0.2692  0.4322  0.5343
  334SOL     OW 1125   2.682   0.948   2.753 -0.2173  0.4953  0.1780
  334SOL    HW1 1126   2.610   0.903   2.797  0.9586 -1.5789  0.1231
  334SOL    HW2 1127   2.642   0.987   2.675 -0.7943 -3.8538 -2.0258
  335SOL     OW 1128   2.624   2.278   1.244 -0.1141  0.6068 -0.3758
  335SOL    HW1 1129   2.697   2.334   1.268 -0.2728  0.2463  1.0384
  335SOL    HW2 1130   2.558   2.294   1.311 -0.6642 -0.3293 -0.6675
  336SOL     OW 1131   3.006   2.553   3.139 -0.1668 -0.4047  0.5194
  336SOL    HW1 1132   3.028   2.615   3.069 -0.0194 -0.0556  0.8740
  336SOL    HW2 1133   2.914   2.571   3.159 -0.5479 -1.2711 -0.3574
  337SOL     OW 1134   2.586   0.055   0.802  0.4865 -0.8776 -0.1062
  337SOL    HW1 1135   2.511   0.111   0.781  1.5878  0.9691  0.5716
  337SOL    HW2 1136   2.547  -0.026   0.836 -1.1878 -0.3353 -0.6355
  338SOL     OW 1137   3.181   1.973   2.814 -0.5559 -0.0921  0.0102
  338SOL    HW1 1138   3.232   2.029   2.874  1.0083  0.2156 -1.5271
  338SOL    HW2 1139   3.094   2.012   2.812  0.3088  1.9053 -0.4799
  339SOL     OW 1140   0.661   1.976   2.576 -0.9935  0.2388  0.2554
  339SOL    HW1 1141   0.708   2.040   2.523 -1.9212 -1.1847 -2.4822
  339SOL    HW2 1142   0.683   1.999   2.666  2.5678  1.4029 -0.7437
  340SOL     OW 1143   0.945   3.362   0.882 -0.3182  0.1214 -0.3097
  340SOL    HW1 1144   0.885   3.436   0.873  1.4797  1.4064 -3.4108
  340SOL    HW2 1145   1.010   3.391   0.945  0.0259  0.9919 -1.0392
  341SOL     OW 1146   1.607   1.997   0.741  0.3409 -0.2093 -0.1156
  341SOL    HW1 1147   1.539   1.930   0.740  1.4225 -1.3577 -0.5320
  341SOL    HW2 1148   1.685   1.951   0.775  0.8114  1.1587  0.7260
  342SOL     OW 1149   1.417   0.892   1.040  0.3318  0.1803  0.5385
  342SOL    HW1 1150   1.376   0.967   1.082  0.7851  0.9984 -0.4439
  342SOL    HW2 1151   1.465   0.929   0.966  0.0300 -1.1484 -0.3520
  343SOL     OW 1152   3.017   3.456   3.328 -0.5696  0.1437 -0.1580
  343SOL    HW1 1153   2.980   3.515   3.262  0.2248  0.8266 -0.0100
  343SOL    HW2 1154   2.940   3.419   3.372 -1.1236 -0.4069 -1.5072
  344SOL     OW 1155   1.690   2.801   1.187 -1.0286  0.1948  0.1006
  344SOL    HW1 1156   1.609   2.763   1.153 -2.1200  1.2937  1.3245
  344SOL    HW2 1157   1.669   2.894   1.200  0.5890  0.6048  0.0169
  345SOL     OW 1158   1.479   1.591   2.768  0.4228  0.2549  0.4462
  345SOL    HW1 1159   1.433   1.655   2.714  0.7717  1.8426  1.9161
  345SOL    HW2 1160   1.467   1.623   2.858  2.9973 -0.1631  1.0093
  346SOL     OW 1161   1.896   3.493   2.871  0.2228 -0.5448 -0.1342
  346SOL    HW1 1162   1.823   3.450   2.826  1.9081 -2.1498 -1.5384
  346SOL    HW2 1163   1.886   3.586   2.851 -0.5535 -0.9233 -1.6345
  347SOL     OW 1164   0.323   2.566   3.060 -0.4477 -0.6802 -0.3182
  347SOL    HW1 1165   0.377   2.645   3.058  0.5619 -1.3126  0.8136
  347SOL    HW2 1166   0.256   2.585   3.127  0.7171 -1.3148  1.0879
  348SOL     OW 1167   1.890   0.993   0.853 -0.1548  0.3804  0.0411
  348SOL    HW1 1168   1.843   1.077   0.855 -0.0114  0.4734 -0.3379
  348SOL    HW2 1169   1.876   0.956   0.940 -1.1927  0.2603 -0.1663
  349SOL     OW 1170   2.574   2.581   2.219 -0.1212  0.4923  0.2518
  349SOL    HW1 1171   2.512   2.648   2.189  0.9984  1.4332 -0.0052
  349SOL    HW2 1172   2.545   2.560   2.308 -1.3810  0.1991 -0.2030
  350SOL     OW 1173   3.597   3.682   1.499 -0.1802 -1.7858 -0.0081
  350SOL    HW1 1174   3.635   3.671   1.587  1.6201 -0.0492 -0.4909
  350SOL    HW2 1175   3.536   3.755   1.509  1.0394 -0.6798 -0.4490
  351SOL     OW 1176   3.328   2.170   2.551  0.4302 -0.2858  0.0321
  351SOL    HW1 1177   3.251   2.224   2.570  1.0885  0.5896  0.2660
  351SOL    HW2 1178   3.329   2.104   2.621 -0.3337 -0.5677 -0.2135
  352SOL     OW 1179   1.104   2.404   2.035 -0.2419  0.0567  0.5966
  352SOL    HW1 1180   1.029   2.460   2.052  1.2631  1.4028  3.5012
  352SOL    HW2 1181   1.111   2.402   1.939 -2.3385  2.0643  0.3117
  353SOL     OW 1182   0.404   0.110   3.137 -0.2225 -0.4666 -0.5795
  353SOL    HW1 1183   0.405   0.076   3.227 -1.3634  0.1873 -0.2933
  353SOL    HW2 1184   0.313   0.096   3.108 -0.2007  0.5192 -1.1559
  354SOL     OW 1185   0.772   1.202   3.214  0.6987  0.0560 -0.1444
  354SOL    HW1 1186   0.745   1.218   3.304  2.0120 -1.2205  0.5342
  354SOL    HW2 1187   0.718   1.261   3.161  0.1480  1.0888  1.4934
  355SOL     OW 1188   0.321   2.839   0.123  0.0856  0.4004  0.3126
  355SOL    HW1 1189   0.334   2.745   0.112  2.5180  0.4266  2.1010
  355SOL    HW2 1190   0.409   2.876   0.118  0.1847  1.7145  5.7483
  356SOL     OW 1191   2.109   0.901   2.278  0.4234 -0.3915  0.7588
  356SOL    HW1 1192   2.096   0.901   2.373 -0.4081 -1.4000  0.6714
  356SOL    HW2 1193   2.024   0.874   2.242  0.6332  0.2768 -0.2962
  357SOL     OW 1194   0.903   3.390   1.825  0.0966  0.1380  0.1559
  357SOL    HW1 1195   0.954   3.343   1.758 -1.6897 -4.8494  1.7918
  357SOL    HW2 1196   0.933   3.353   1.908 -2.4402  0.9099  1.5348
  358SOL     OW 1197   3.130   0.520   2.506 -0.1348  0.2033  0.0931
  358SOL    HW1 1198   3.225   0.510   2.505 -0.2432 -0.8118 -0.6809
  358SOL    HW2 1199   3.099   0.456   2.570 -0.3213  0.3663  0.1684
  359SOL     OW 1200   0.674   1.692   2.283 -0.1539 -0.4153  0.3775
  359SOL    HW1 1201   0.710   1.781   2.289 -3.4958  1.0835  0.4995
  359SOL    HW2 1202   0.713   1.656   2.203 -1.0787  2.4133 -1.5048
  360SOL     OW 1203   0.694   3.367   0.334 -0.2213  0.1703  0.2386
  360SOL    HW1 1204   0.742   3.404   0.408 -0.4915 -1.6542  1.4052
  360SOL    HW2 1205   0.740   3.285   0.314 -0.2455  0.5595 -1.5514
  361SOL     OW 1206   0.668   2.878   3.560  0.0977 -0.1893 -0.0788
  361SOL    HW1 1207   0.733   2.948   3.567 -0.1012 -0.0137 -0.0007
  361SOL    HW2 1208   0.584   2.922   3.567 -0.0290 -0.4348 -0.0494
  362SOL     OW 1209   0.207   2.470   2.544  1.1980  0.8357  0.3827
  362SOL    HW1 1210   0.234   2.378   2.546  1.3887  0.8050 -1.4284
  362SOL    HW2 1211   0.251   2.510   2.618  0.9189 -0.5657  1.3547
  363SOL     OW 1212   0.887   0.880   1.009  0.8166  0.0994 -0.5001
  363SOL    HW1 1213   0.794   0.885   0.988  0.9583  1.1377 -0.9060
  363SOL    HW2 1214   0.910   0.788   0.993 -0.1520 -0.1873 -0.2979
  364SOL     OW 1215   3.524   3.744   2.080  0.0418  0.4413 -0.6583
  364SOL    HW1 1216   3.480   3.694   2.012  1.0796 -0.4385 -0.7166
  364SOL    HW2 1217   3.563   3.677   2.137 -1.2476  1.1360  1.1139
  365SOL     OW 1218   2.378   1.944   3.647 -0.0418  0.7204  0.0115
  365SOL    HW1 1219   2.325   1.899   3.581 -0.5122  1.7445 -0.3267
  365SOL    HW2 1220   2.333   2.027   3.661 -0.3095  0.2640  2.1074
  366SOL     OW 1221   0.203   1.060   1.818 -0.7682  0.2391  0.7589
  366SOL    HW1 1222   0.118   1.062   1.863 -0.3870 -1.2630  1.6009
  366SOL    HW2 1223   0.261   1.112   1.873 -1.3505  2.1844 -0.3709
  367SOL     OW 1224   0.705   2.252   2.718 -0.4956  0.5279 -0.5092
  367SOL    HW1 1225   0.798   2.276   2.717  0.4723 -2.5459 -3.0489
  367SOL    HW2 1226   0.700   2.181   2.783 -1.1692  0.9168 -0.1300
  368SOL     OW 1227   0.287   3.714   2.871  0.4355 -0.2895 -0.2504
  368SOL    HW1 1228   0.209   3.664   2.893 -0.1149 -0.3323 -2.1626
  368SOL    HW2 1229   0.355   3.648   2.855  0.4831 -0.3063  0.0187
  369SOL     OW 1230   0.053   2.618   0.860 -0.3418 -0.0959  0.1149
  369SOL    HW1 1231   0.048   2.671   0.939  2.2819 -1.7192  1.5266
  369SOL    HW2 1232  -0.002   2.542   0.878  0.6409 -0.7018  0.6249
  370SOL     OW 1233   0.832   2.527   2.350 -0.0101 -0.1439  0.1853
  370SOL    HW1 1234   0.911   2.503   2.302 -0.1180 -0.5914  0.2259
  370SOL    HW2 1235   0.847   2.618   2.376 -0.2890  0.3666 -1.3645
  371SOL     OW 1236   0.525   3.563   0.685  0.1108  0.4109  0.4353
  371SOL    HW1 1237   0.509   3.620   0.610  0.5641 -0.6739 -0.4949
  371SOL    HW2 1238   0.503   3.618   0.761 -0.1339  1.5932 -0.4609
  372SOL     OW 1239   0.875   0.618   0.968 -0.6390  0.7090  0.0059
  372SOL    HW1 1240   0.879   0.559   1.043 -0.9506  0.7979  0.0927
  372SOL    HW2 1241   0.786   0.608   0.934 -1.2722  2.3940  1.0470
  373SOL     OW 1242   1.299   0.545   2.466  0.1821  0.0206 -0.6705
  373SOL    HW1 1243   1.207   0.530   2.446 -0.3635  2.0937 -0.0102
  373SOL    HW2 1244   1.305   0.537   2.562  1.3024 -2.7271 -0.8556
  374SOL     OW 1245   2.744   2.982   3.195 -1.0010 -0.1135  0.0257
  374SOL    HW1 1246   2.785   2.923   3.132 -2.8579 -1.2685 -0.1793
  374SOL    HW2 1247   2.771   3.069   3.166 -1.1861 -0.6436 -1.9549
  375SOL     OW 1248   1.223   3.583   3.376  0.2608 -0.1339 -0.4296
  375SOL    HW1 1249   1.213   3.676   3.397  2.2257 -0.0143  0.2204
  375SOL    HW2 1250   1.250   3.583   3.284 -2.9251 -0.3319 -1.4942
  376SOL     OW 1251   1.316   2.995   2.507  0.4245 -0.0420 -0.5066
  376SOL    HW1 1252   1.334   2.904   2.532 -0.4095 -0.1993 -0.4272
  376SOL    HW2 1253   1.383   3.046   2.552  3.2405 -0.8701 -3.3941
  377SOL     OW 1254   1.981   2.065   0.163 -0.1827  0.1714 -0.4089
  377SOL    HW1 1255   2.076   2.060   0.156 -0.2021  0.8153 -1.1638
  377SOL    HW2 1256   1.964   2.052   0.257  0.7522  1.5347 -0.0192
  378SOL     OW 1257   0.619   2.422   1.701 -0.1618  0.2707  0.1996
  378SOL    HW1 1258   0.630   2.477   1.624 -2.3190  0.6625  0.0998
  378SOL    HW2 1259   0.613   2.484   1.774  1.1315 -0.0617  0.6128
  379SOL     OW 1260   0.681   1.771   2.976  0.0345  0.1518  0.5757
  379SOL    HW1 1261   0.596   1.810   2.998 -0.3216 -0.5045  0.3922
  379SOL    HW2 1262   0.662   1.709   2.906  0.5266 -0.5932  1.0816
  380SOL     OW 1263   1.922   0.766   1.806 -0.1940 -0.0309 -0.3160
  380SOL    HW1 1264   1.842   0.816   1.822 -0.1084 -0.0420  0.1540
  380SOL    HW2 1265   1.987   0.832   1.779 -1.1513 -0.3381 -3.8064
  381SOL     OW 1266   2.525   0.734   2.164  0.0843 -0.0064 -0.6846
  381SOL    HW1 1267   2.555   0.728   2.254  1.7107 -1.2084 -1.2597
  381SOL    HW2 1268   2.466   0.810   2.163  1.9960  1.6099  0.8392
  382SOL     OW 1269   1.703   1.540   1.328 -0.3574  0.1879 -0.3741
  382SOL    HW1 1270   1.631   1.501   1.377 -1.3399  1.2895 -0.9029
  382SOL    HW2 1271   1.709   1.487   1.248  1.4327 -1.7919  0.9526
  383SOL     OW 1272   2.685   2.652   0.386 -0.1204  0.4177 -0.5482
  383SOL    HW1 1273   2.737   2.663   0.307  1.1579  1.8384  0.4298
  383SOL    HW2 1274   2.598   2.630   0.354  0.2346  1.4283 -2.3669
  384SOL     OW 1275   0.627   2.467   2.204  0.7788  0.6421 -0.1209
  384SOL    HW1 1276   0.688   2.450   2.276  2.0684  1.9655 -0.8776
  384SOL    HW2 1277   0.613   2.562   2.206 -1.9625  0.3273  0.5579
  385SOL     OW 1278   1.080   3.484   1.147 -0.2744 -0.3926  0.5173
  385SOL    HW1 1279   1.012   3.509   1.210 -1.5053  0.4966 -1.0707
  385SOL    HW2 1280   1.094   3.563   1.095  2.7453 -0.2347  1.3869
  386SOL     OW 1281   2.071   2.565   1.437  0.3699  0.0657 -0.1655
  386SOL    HW1 1282   1.977   2.575   1.422  0.5978 -0.2045 -1.9214
  386SOL    HW2 1283   2.112   2.609   1.364  1.5864 -1.4601 -0.4573
  387SOL     OW 1284   1.984   2.197   2.492  0.1571 -0.3844  0.1570
  387SOL    HW1 1285   1.925   2.219   2.419  0.2522  2.1383  0.7310
  387SOL    HW2 1286   2.069   2.232   2.465  0.1097  0.9181  1.5798
  388SOL     OW 1287   1.977   0.338   3.046 -0.0431  0.1763 -0.1325
  388SOL    HW1 1288   1.905   0.356   2.985  0.4467 -1.0471 -1.1178
  388SOL    HW2 1289   2.047   0.397   3.019  0.9863 -1.8969 -2.3050
  389SOL     OW 1290   0.991   3.437   3.156  0.8655  0.0805  0.4967
  389SOL    HW1 1291   1.068   3.407   3.204  0.9931  0.5237  0.5788
  389SOL    HW2 1292   0.984   3.530   3.178  1.3874  0.4914 -0.9366
  390SOL     OW 1293   1.072   2.300   1.503  0.1070 -0.0422 -0.3199
  390SOL    HW1 1294   1.136   2.315   1.434 -1.5305  0.4475 -1.7779
  390SOL    HW2 1295   0.989   2.289   1.458 -0.8728 -0.6561  1.5194
  391SOL     OW 1296   0.348   3.441   3.634  0.3368 -0.0439  0.3916
  391SOL    HW1 1297   0.382   3.353   3.650 -0.7459 -0.7269 -0.9009
  391SOL    HW2 1298   0.412   3.481   3.575  1.7882  0.7456  2.3866
  392SOL     OW 1299   0.370   1.647   3.678  0.6320 -0.1437 -0.3382
  392SOL    HW1 1300   0.437   1.584   3.703  0.5652  0.5374  1.7546
  392SOL    HW2 1301   0.411   1.699   3.608  1.8332 -0.4919  0.0884
  393SOL     OW 1302   1.998   0.575   0.778 -0.4502  0.0955  0.3770
  393SOL    HW1 1303   1.919   0.610   0.737 -0.4692 -0.0829  0.2603
  393SOL    HW2 1304   2.064   0.643   0.765 -0.6940  0.4368  0.8574
  394SOL     OW 1305   0.612   0.828  -0.020 -0.1405 -0.4107  0.4389
  394SOL    HW1 1306   0.566   0.756   0.024  1.4832 -0.0148  2.9792
  394SOL    HW2 1307   0.575   0.907   0.018 -0.5728  0.0709 -0.9371
  395SOL     OW 1308   2.739   1.823   1.149 -0.2134  0.2124 -0.4171
  395SOL    HW1 1309   2.689   1.823   1.067 -2.3722  1.7216  0.8181
  395SOL    HW2 1310   2.716   1.906   1.191  3.5741  1.1550  0.1753
  396SOL     OW 1311   2.902   0.881   1.315  0.0963  0.5602  0.4095
  396SOL    HW1 1312   2.860   0.800   1.285  0.5896  0.2408  0.5662
  396SOL    HW2 1313   2.974   0.851   1.370 -0.8523  1.1382  2.0136
  397SOL     OW 1314   0.238   1.713   2.124  0.6768 -0.3403  0.3007
  397SOL    HW1 1315   0.280   1.698   2.039 -0.4391 -0.5458 -0.2282
  397SOL    HW2 1316   0.222   1.808   2.125  1.1748 -0.2535  0.5249
  398SOL     OW 1317   3.305   2.368   2.847 -0.0024  0.2829  0.2089
  398SOL    HW1 1318   3.320   2.462   2.861 -1.0697  0.3512  0.9660
  398SOL    HW2 1319   3.211   2.360   2.836  0.1942 -0.5692 -1.0611
  399SOL     OW 1320   3.532   2.247   2.803 -0.0691  0.5595 -0.0962
  399SOL    HW1 1321   3.445   2.284   2.821 -0.9916 -1.5901  0.1907
  399SOL    HW2 1322   3.589   2.288   2.868 -1.6611 -0.7997  2.3102
  400SOL     OW 1323   3.054   3.467   3.701 -0.3311  0.3942  0.6897
  400SOL    HW1 1324   3.047   3.436   3.610 -0.2008 -0.0720  0.8338
  400SOL    HW2 1325   2.993   3.410   3.749  0.8250 -0.4798  1.1660
  401SOL     OW 1326   3.097   3.330   1.065 -0.2930  0.2348  0.0219
  401SOL    HW1 1327   3.038   3.398   1.034 -0.2333 -0.4899 -1.8113
  401SOL    HW2 1328   3.184   3.370   1.062 -0.2576  0.1017 -1.0465
  402SOL     OW 1329   2.733   3.001   0.700  0.1799 -0.0783 -0.1295
  402SOL    HW1 1330   2.800   2.958   0.753 -0.1126  0.9746  1.1334
  402SOL    HW2 1331   2.777   3.076   0.661  0.5712 -1.2176 -1.9639
  403SOL     OW 1332   0.637   3.406   1.812  0.2910  0.4897  0.0115
  403SOL    HW1 1333   0.733   3.408   1.816  0.2862  0.2823  0.3174
  403SOL    HW2 1334   0.614   3.477   1.752  0.5208  2.4887  2.1392
  404SOL     OW 1335   3.426   0.684   1.955  0.0993 -0.2570 -0.0580
  404SOL    HW1 1336   3.433   0.659   2.048 -0.1063 -3.6210 -0.7930
  404SOL    HW2 1337   3.334   0.670   1.934  0.7157 -3.0558 -1.4637
  405SOL     OW 1338   1.765   0.551   1.441 -0.5475  0.5109 -0.6313
  405SOL    HW1 1339   1.702   0.533   1.372 -1.0865  0.9815 -0.2697
  405SOL    HW2 1340   1.765   0.472   1.495 -2.2126  1.1814  0.4214
  406SOL     OW 1341   2.134   1.877   2.354 -0.2382 -0.6599  0.9658
  406SOL    HW1 1342   2.189   1.858   2.279 -2.4601  0.7013 -1.1758
  406SOL    HW2 1343   2.110   1.791   2.389 -0.2752 -1.4105 -0.8102
  407SOL     OW 1344   3.602   2.937   0.048 -0.3174 -0.0846  0.4661
  407SOL    HW1 1345   3.635   2.877   0.115 -1.0854 -0.6031  0.3909
  407SOL    HW2 1346   3.554   2.880  -0.014  1.2077  0.2289 -1.0786
  408SOL     OW 1347   0.257   0.958   0.364  0.1388  0.2184 -0.3627
  408SOL    HW1 1348   0.211   1.042   0.368 -0.2291 -0.0100  0.8230
  408SOL    HW2 1349   0.249   0.931   0.273  0.2094  1.4342 -0.7550
  409SOL     OW 1350   2.675   0.376   2.231 -0.1687  0.5586 -0.3269
  409SOL    HW1 1351   2.718   0.301   2.273 -0.7448  0.5897  0.3240
  409SOL    HW2 1352   2.738   0.447   2.240 -0.4792  0.6898  0.9191
  410SOL     OW 1353   2.222   0.040   1.285 -0.0936  0.2537 -0.3081
  410SOL    HW1 1354   2.298   0.003   1.240  0.4350 -0.7133  1.2945
  410SOL    HW2 1355   2.256   0.118   1.330 -0.0681 -0.0796  0.2648
  411SOL     OW 1356   1.355   1.384   2.612 -0.2631  0.4475 -0.2101
  411SOL    HW1 1357   1.381   1.329   2.685  0.9592  1.3584  0.0762
  411SOL    HW2 1358   1.382   1.472   2.637  0.6834  0.7066 -1.9581
  412SOL     OW 1359   1.248   1.730   2.643 -0.5456  0.1312 -0.6364
  412SOL    HW1 1360   1.171   1.739   2.699 -1.3211 -1.2202 -1.4253
  412SOL    HW2 1361   1.213   1.702   2.558  0.7002  0.9208 -1.4478
  413SOL     OW 1362   2.230   1.844   3.448  0.5283 -0.1068 -0.1039
  413SOL    HW1 1363   2.246   1.762   3.401 -0.9855 -0.3424 -0.2670
  413SOL    HW2 1364   2.218   1.909   3.378 -2.9617 -0.6854 -0.2401
  414SOL     OW 1365   0.780   1.488   1.721 -0.3260 -0.2604 -0.0214
  414SOL    HW1 1366   0.782   1.583   1.709 -0.9087 -0.3578 -1.0281
  414SOL    HW2 1367   0.732   1.456   1.645  1.4716 -1.5193 -0.6827
  415SOL     OW 1368   0.950   3.206   2.230  0.0374  0.3642 -0.4179
  415SOL    HW1 1369   1.028   3.187   2.283 -1.4193  0.1309  1.7982
  415SOL    HW2 1370   0.982   3.263   2.160  2.2512 -0.0410  0.1706
  416SOL     OW 1371   1.638   2.943   3.472  0.0999 -0.6950 -0.0139
  416SOL    HW1 1372   1.552   2.980   3.451 -0.1573 -0.4302  1.4340
  416SOL    HW2 1373   1.625   2.848   3.467  0.1698 -0.6588 -1.4182
  417SOL     OW 1374   1.342   1.492   1.660  0.4206  0.0635 -0.2696
  417SOL    HW1 1375   1.311   1.404   1.682 -1.7104  0.6392 -0.7015
  417SOL    HW2 1376   1.388   1.481   1.577 -0.0507 -0.6353 -0.4522
  418SOL     OW 1377   2.559   2.022   2.458  0.7328  0.1016  0.1979
  418SOL    HW1 1378   2.621   1.963   2.415  1.1287  0.0984  0.7625
  418SOL    HW2 1379   2.525   2.076   2.387 -0.5586 -1.5981 -0.5591
  419SOL     OW 1380   0.612   2.682   1.452 -0.2797  0.2097 -0.3501
  419SOL    HW1 1381   0.558   2.722   1.384 -0.9748  1.1252  0.6915
  419SOL    HW2 1382   0.702   2.696   1.423 -0.5398 -1.8006 -2.3846
  420SOL     OW 1383   1.484   0.238   1.579 -0.0732  0.3612 -0.5397
  420SOL    HW1 1384   1.567   0.194   1.561  0.1600  0.2744  0.6622
  420SOL    HW2 1385   1.421   0.195   1.520  0.4513 -0.5494 -0.4533
  421SOL     OW 1386   1.001   0.281   2.258 -0.2817 -0.0824  0.9738
  421SOL    HW1 1387   0.951   0.269   2.178 -0.2062  1.7725  0.6025
  421SOL    HW2 1388   1.076   0.222   2.248  0.1841  0.7322 -0.7307
  422SOL     OW 1389   2.812   3.573   2.749  0.0471  0.1659  0.0524
  422SOL    HW1 1390   2.734   3.572   2.805 -1.6255  1.5056 -2.0826
  422SOL    HW2 1391   2.855   3.489   2.767 -0.7966  0.2091  2.6927
  423SOL     OW 1392   0.579   1.925   1.790 -0.1165 -0.5713  1.0561
  423SOL    HW1 1393   0.532   2.007   1.774  0.2614 -0.2143  1.7205
  423SOL    HW2 1394   0.654   1.950   1.844  2.1436 -0.7599 -1.7786
  424SOL     OW 1395   0.219   0.405   0.725 -0.5193  0.0942  0.3595
  424SOL    HW1 1396   0.192   0.390   0.634 -3.2317  0.1378  1.0708
  424SOL    HW2 1397   0.224   0.500   0.734  0.5528  0.0771  0.0785
  425SOL     OW 1398   3.378   2.883   3.062  0.1949 -0.4888  0.2919
  425SOL    HW1 1399   3.287   2.910   3.054  0.5420  0.6476 -0.0355
  425SOL    HW2 1400   3.406   2.920   3.147  0.2859 -1.0379  0.5047
  426SOL     OW 1401   3.350   3.453   1.622 -0.3520 -0.2480 -0.7689
  426SOL    HW1 1402   3.309   3.517   1.563  1.3952 -0.1964 -1.9787
  426SOL    HW2 1403   3.330   3.368   1.584  0.0996 -0.2573 -0.9844
  427SOL     OW 1404   1.600   3.515   0.701 -0.0679  0.3191  0.2632
  427SOL    HW1 1405   1.656   3.488   0.773 -0.7577 -1.8311  0.0423
  427SOL    HW2 1406   1.517   3.539   0.742  0.4016  1.7855  0.4135
  428SOL     OW 1407   0.197   1.262   0.157 -0.3191  0.2012 -0.1517
  428SOL    HW1 1408   0.202   1.308   0.073 -0.6506  0.1041 -0.2264
  428SOL    HW2 1409   0.288   1.237   0.176  0.3293  3.1633  1.1794
  429SOL     OW 1410   1.880   1.001   1.643  0.1522  0.2772  0.5391
  429SOL    HW1 1411   1.917   1.085   1.671  0.4931  0.1720  0.4109
  429SOL    HW2 1412   1.785   1.014   1.645  0.0691 -0.2551  3.4611
  430SOL     OW 1413   0.827   0.957   0.367  0.2284  0.1748 -0.1719
  430SOL    HW1 1414   0.792   0.895   0.430  1.6155  0.1073  0.5815
  430SOL    HW2 1415   0.882   0.904   0.309  2.6053  0.8082  1.3511
  431SOL     OW 1416   3.146   0.349   0.427 -0.4859  0.2876  0.1092
  431SOL    HW1 1417   3.099   0.356   0.344  2.3557  1.2409 -1.5415
  431SOL    HW2 1418   3.181   0.260   0.427 -2.3926 -0.5276  1.4784
  432SOL     OW 1419   2.412   1.806   1.730  0.3889 -0.2924  0.0194
  432SOL    HW1 1420   2.365   1.827   1.649 -0.7719 -1.8516  0.2406
  432SOL    HW2 1421   2.345   1.812   1.798  0.5518 -2.1548  0.4007
  433SOL     OW 1422   0.158   2.005   1.814 -0.5302  0.9641  0.0474
  433SOL    HW1 1423   0.211   1.944   1.866  0.5085  1.3258 -0.5421
  433SOL    HW2 1424   0.132   2.073   1.876 -0.2973  0.7787  0.3523
  434SOL     OW 1425   2.558   0.243   1.637  0.0248  0.0846  0.5364
  434SOL    HW1 1426   2.525   0.207   1.719 -1.4159 -0.7941 -0.3737
  434SOL    HW2 1427   2.491   0.306   1.610 -0.6116 -1.1636 -0.9624
  435SOL     OW 1428   1.111   1.794   0.651 -0.5231 -0.0955  0.3357
  435SOL    HW1 1429   1.087   1.886   0.663 -0.4462 -0.0877  0.4318
  435SOL    HW2 1430   1.098   1.778   0.557 -0.3401  0.0706  0.2818
  436SOL     OW 1431   3.445   2.900   1.235  0.3022 -0.3372  0.3860
  436SOL    HW1 1432   3.486   2.980   1.201  1.6022 -1.3623 -0.5410
  436SOL    HW2 1433   3.428   2.847   1.157 -0.4158 -1.0304  1.0007
  437SOL     OW 1434   2.307   0.294   2.629  0.1112 -0.3989 -0.2643
  437SOL    HW1 1435   2.307   0.363   2.696  0.3744 -0.3987 -0.2618
  437SOL    HW2 1436   2.255   0.223   2.668 -1.1572  0.2390 -0.7457
  438SOL     OW 1437   1.341   3.643   1.547  0.1432 -0.4364 -0.6891
  438SOL    HW1 1438   1.288   3.702   1.601  3.0829  2.0399 -0.1649
  438SOL    HW2 1439   1.421   3.630   1.599  0.4612 -3.2959 -1.7578
  439SOL     OW 1440   3.399   3.173   0.092 -0.3514 -0.5385 -0.1562
  439SOL    HW1 1441   3.423   3.247   0.036 -1.3931 -0.1638 -0.1327
  439SOL    HW2 1442   3.448   3.099   0.056  0.7705  0.1624 -0.1368
  440SOL     OW 1443   1.569   2.020   0.287 -0.0226 -0.2630 -0.0483
  440SOL    HW1 1444   1.649   1.968   0.299 -0.9140 -1.3226  1.5711
  440SOL    HW2 1445   1.539   1.997   0.199  1.1856 -0.2181 -0.4888
  441SOL     OW 1446   0.307   1.864   0.364  0.6864  0.7157 -0.7747
  441SOL    HW1 1447   0.247   1.810   0.315  1.0535 -1.0818  0.6430
  441SOL    HW2 1448   0.393   1.847   0.325  0.4689  2.6340 -2.2490
  442SOL     OW 1449   1.215   2.406   1.293 -0.4635  0.7418  0.7439
  442SOL    HW1 1450   1.212   2.498   1.266  0.0229  0.9613  1.4294
  442SOL    HW2 1451   1.216   2.357   1.210 -1.1692  1.3307  0.3762
  443SOL     OW 1452   0.531   0.334   3.393  0.4362 -0.2574 -0.2508
  443SOL    HW1 1453   0.565   0.277   3.324 -0.0399  0.5602 -1.1884
  443SOL    HW2 1454   0.603   0.394   3.413 -0.7666  2.6165 -3.4596
  444SOL     OW 1455   2.863   2.280   0.646  0.4572  0.0441 -0.2563
  444SOL    HW1 1456   2.861   2.229   0.565 -1.0608  0.1750 -0.3310
  444SOL    HW2 1457   2.800   2.236   0.703  4.0927 -2.3617  2.3579
  445SOL     OW 1458   1.162   3.291   3.285 -0.9519 -0.0862  0.4249
  445SOL    HW1 1459   1.169   3.207   3.238 -0.1103  0.3742 -0.2864
  445SOL    HW2 1460   1.215   3.279   3.363 -0.7870 -0.1960  0.2970
  446SOL     OW 1461   3.503   0.995   2.535 -0.0548 -0.4257 -0.3443
  446SOL    HW1 1462   3.522   1.081   2.573 -1.8795 -0.6042  1.1800
  446SOL    HW2 1463   3.441   1.012   2.465 -1.8137 -0.5526  1.0971
  447SOL     OW 1464   2.831   1.896   3.095  0.5432  0.3799  0.0338
  447SOL    HW1 1465   2.793   1.976   3.059 -1.0288 -0.2238  0.2878
  447SOL    HW2 1466   2.903   1.926   3.151  1.1136  1.4896 -1.2492
  448SOL     OW 1467   1.243   3.418   2.674 -0.5821 -0.0164 -0.3917
  448SOL    HW1 1468   1.260   3.498   2.725  0.6328  0.0140 -0.8016
  448SOL    HW2 1469   1.207   3.357   2.738 -1.3870  0.8080 -0.0387
  449SOL     OW 1470   1.324   3.533   1.909  0.6251  0.2329 -0.5741
  449SOL    HW1 1471   1.379   3.609   1.931 -1.7122  1.8203  0.1708
  449SOL    HW2 1472   1.342   3.469   1.977  0.5554  1.2737  0.4486
  450SOL     OW 1473   2.368   1.241   1.626 -0.4937 -0.0931 -0.1204
  450SOL    HW1 1474   2.281   1.281   1.636  0.1143  1.1721  0.2097
  450SOL    HW2 1475   2.415   1.266   1.706 -0.2995 -2.0480  0.4327
  451SOL     OW 1476   1.213   0.855   2.386  0.1481  0.0686 -0.1619
  451SOL    HW1 1477   1.170   0.789   2.442 -0.0753  1.7155  1.7047
  451SOL    HW2 1478   1.304   0.827   2.382  0.1353 -0.1669  0.9279
  452SOL     OW 1479   0.748   2.018   2.865 -0.0341 -0.1554  0.1646
  452SOL    HW1 1480   0.699   2.054   2.938  0.9217  1.0128  0.2619
  452SOL    HW2 1481   0.762   1.926   2.889  1.9738  0.6414  2.4546
  453SOL     OW 1482   3.102   1.048   3.043  0.5443 -0.7025 -0.1721
  453SOL    HW1 1483   3.019   1.036   2.997 -0.1693 -0.0706  0.8945
  453SOL    HW2 1484   3.083   1.115   3.109  1.7348 -0.9947  0.4942
  454SOL     OW 1485   3.238   0.180   2.538 -0.2338  0.4038 -0.2328
  454SOL    HW1 1486   3.262   0.157   2.448 -0.9440  0.3548 -0.4141
  454SOL    HW2 1487   3.176   0.112   2.565  0.5025  0.0153  0.5504
  455SOL     OW 1488   2.307   3.323   2.568 -0.1998  0.3020  0.6185
  455SOL    HW1 1489   2.227   3.312   2.619  0.0919  2.8568  1.8075
  455SOL    HW2 1490   2.335   3.412   2.588  1.8508  0.1728 -1.3631
  456SOL     OW 1491   0.189   1.450   2.209  0.7561 -0.1921  0.1032
  456SOL    HW1 1492   0.247   1.489   2.144  0.6201 -0.8252 -0.4125
  456SOL    HW2 1493   0.219   1.359   2.216  0.7592 -0.1308  0.9162
  457SOL     OW 1494   1.552   2.939   2.202  0.1540  0.5931 -0.4541
  457SOL    HW1 1495   1.585   2.849   2.209  0.1102  0.6707  1.0812
  457SOL    HW2 1496   1.538   2.952   2.108  0.0002 -1.0675 -0.6940
  458SOL     OW 1497   1.335   3.631   3.715 -0.0029  0.3967  0.4264
  458SOL    HW1 1498   1.412   3.598   3.761 -0.0301  0.3945  0.4696
  458SOL    HW2 1499   1.369   3.661   3.631 -0.0172  0.0267  0.2869
  459SOL     OW 1500   2.522   3.683   3.618  0.0125  0.3210  0.3314
  459SOL    HW1 1501   2.539   3.766   3.663  0.8461  0.0178  0.5922
  459SOL    HW2 1502   2.499   3.622   3.688  0.0633  0.1681  0.2153
  460SOL     OW 1503   0.208   0.689   0.875  0.1888  0.0124  0.2599
  460SOL    HW1 1504   0.258   0.700   0.955  0.7836 -2.8595  0.3610
  460SOL    HW2 1505   0.204   0.777   0.837  2.7251  0.8587  1.7461
  461SOL     OW 1506   2.964   1.083   1.679  0.6120  0.1781 -0.6661
  461SOL    HW1 1507   2.879   1.044   1.660 -0.4071  1.2494  1.3727
  461SOL    HW2 1508   2.956   1.174   1.650  0.0161  1.0522  2.0122
  462SOL     OW 1509   2.467   3.520   0.106 -0.3772  0.3019  0.7493
  462SOL    HW1 1510   2.478   3.428   0.084  0.3966  0.6410 -0.3569
  462SOL    HW2 1511   2.422   3.519   0.191  0.7138 -1.0832  1.3497
  463SOL     OW 1512   0.965   1.224   3.440  0.4167 -0.0958 -0.2166
  463SOL    HW1 1513   1.016   1.199   3.362  0.3958  0.6848 -0.4880
  463SOL    HW2 1514   0.873   1.214   3.412  0.2935  3.1513 -1.3833
  464SOL     OW 1515   0.442   3.026   3.516  0.1387  0.0850  0.2331
  464SOL    HW1 1516   0.346   3.022   3.516  0.1492 -0.1630 -0.0101
  464SOL    HW2 1517   0.462   3.119   3.530 -0.1374  0.1762  0.0261
  465SOL     OW 1518   1.688   0.074   2.662 -0.0568 -0.4036  0.6578
  465SOL    HW1 1519   1.674   0.111   2.575 -0.5703  0.3570  1.0485
  465SOL    HW2 1520   1.614   0.106   2.714 -0.2163 -1.5325  1.1682
  466SOL     OW 1521   2.636   2.644   1.255 -0.8545 -0.5997  0.2036
  466SOL    HW1 1522   2.654   2.720   1.309 -2.9232 -0.4072  0.7081
  466SOL    HW2 1523   2.722   2.610   1.231  0.1174  1.5469  0.4290
  467SOL     OW 1524   2.310   3.113   2.343 -0.2288  0.1718 -0.3086
  467SOL    HW1 1525   2.282   3.198   2.375 -0.5855 -0.2453  0.5159
  467SOL    HW2 1526   2.286   3.112   2.250  2.0281  1.9280 -1.0112
  468SOL     OW 1527   0.433   0.484   0.372  0.7537 -0.4152 -0.5045
  468SOL    HW1 1528   0.486   0.422   0.323  2.7269  0.6980  0.1343
  468SOL    HW2 1529   0.489   0.560   0.384 -0.4470  0.2249  1.5305
  469SOL     OW 1530   2.204   3.544   3.330  0.1062  0.6687 -0.2506
  469SOL    HW1 1531   2.179   3.550   3.238  0.1303  0.6988 -0.2549
  469SOL    HW2 1532   2.125   3.571   3.377  0.6617  2.4752 -0.2837
  470SOL     OW 1533   0.977   0.636   2.714  0.0328  0.3732  0.7582
  470SOL    HW1 1534   1.027   0.565   2.674 -0.4909  0.6316 -0.4052
  470SOL    HW2 1535   0.942   0.599   2.795  0.1594 -0.5422  0.4026
  471SOL     OW 1536   0.696   1.083   3.483 -0.1577  0.2190  0.0391
  471SOL    HW1 1537   0.741   1.060   3.564  0.0868 -0.1462 -0.1976
  471SOL    HW2 1538   0.603   1.073   3.503 -0.1656  1.3673  0.6486
  472SOL     OW 1539   0.515   2.126   0.613 -0.1343  0.0173 -0.3141
  472SOL    HW1 1540   0.575   2.109   0.686 -0.1006 -2.3815 -0.8287
  472SOL    HW2 1541   0.428   2.108   0.650  0.0115 -3.3427 -1.2941
  473SOL     OW 1542   1.248   1.258   1.722  0.0613 -0.5912 -0.2554
  473SOL    HW1 1543   1.275   1.166   1.719  2.1673 -0.1236  1.6622
  473SOL    HW2 1544   1.177   1.260   1.786 -0.0105 -0.8713 -0.3238
  474SOL     OW 1545   0.467   2.183   1.720  0.2569 -0.6062 -0.5247
  474SOL    HW1 1546   0.412   2.239   1.776 -0.3198 -0.2022 -1.4818
  474SOL    HW2 1547   0.549   2.232   1.712 -0.0141 -0.1927 -0.8329
  475SOL     OW 1548   0.251   1.632   2.695  0.4040 -0.2853  0.5262
  475SOL    HW1 1549   0.309   1.705   2.717 -1.1673  1.0433  0.5239
  475SOL    HW2 1550   0.245   1.635   2.599 -0.9846  0.7458  0.6001
  476SOL     OW 1551   1.077   0.127   0.200  0.7512 -0.9109  0.0061
  476SOL    HW1 1552   1.035   0.041   0.209 -0.8558 -0.0686  1.0756
  476SOL    HW2 1553   1.149   0.125   0.263  0.6001 -1.4113  0.1720
  477SOL     OW 1554   1.353   0.621   2.905  0.4714 -0.1196 -0.2464
  477SOL    HW1 1555   1.423   0.672   2.865 -0.1876 -0.0016 -1.2780
  477SOL    HW2 1556   1.324   0.560   2.837  2.0210 -2.7857  1.3000
  478SOL     OW 1557   1.096   0.096   1.319  0.1101 -0.5492 -0.8676
  478SOL    HW1 1558   1.007   0.088   1.283  0.8869 -2.8748 -2.5412
  478SOL    HW2 1559   1.088   0.066   1.410 -0.8930 -0.2043 -0.8286
  479SOL     OW 1560   3.209   3.287   2.046 -0.3484  0.1935 -0.4879
  479SOL    HW1 1561   3.152   3.362   2.025  0.0936  0.3292 -1.2548
  479SOL    HW2 1562   3.296   3.326   2.054 -0.5326  0.2304  2.1659
  480SOL     OW 1563   3.548   3.452   1.344  0.4006  0.6149  0.3871
  480SOL    HW1 1564   3.614   3.384   1.351 -0.5180 -0.3837 -0.2959
  480SOL    HW2 1565   3.584   3.526   1.393  2.1484  0.2230 -0.2298
  481SOL     OW 1566   2.393   2.498   3.520 -0.0407 -0.1671  0.3188
  481SOL    HW1 1567   2.388   2.566   3.586  1.9639  2.0836 -1.6604
  481SOL    HW2 1568   2.302   2.474   3.503 -1.0822  3.6047 -0.3684
  482SOL     OW 1569   0.964   0.777   3.359 -0.0651 -0.2947 -0.1085
  482SOL    HW1 1570   0.941   0.748   3.271 -0.8904 -1.5949  0.5048
  482SOL    HW2 1571   0.880   0.792   3.402  0.3143 -0.2584  0.6362
  483SOL     OW 1572   0.921   2.021   0.720  0.3060 -0.1585 -0.4566
  483SOL    HW1 1573   0.874   1.983   0.646  0.3199  0.2939 -0.7035
  483SOL    HW2 1574   0.853   2.063   0.773  0.6487  2.9260 -2.2540
  484SOL     OW 1575   2.308   0.982   2.516 -0.1511 -0.1526 -0.5677
  484SOL    HW1 1576   2.307   0.998   2.611 -0.9234  0.3322 -0.6504
  484SOL    HW2 1577   2.362   1.053   2.480 -0.5054  0.1225 -0.5638
  485SOL     OW 1578   3.059   3.710   0.127  0.9100 -0.6596  0.0714
  485SOL    HW1 1579   3.070   3.620   0.094  2.3524 -0.1743 -0.8913
  485SOL    HW2 1580   3.028   3.760   0.052  0.3096 -0.2968  0.5496
  486SOL     OW 1581   1.765   2.737   2.089 -0.6246 -0.0038 -0.3385
  486SOL    HW1 1582   1.809   2.653   2.074 -1.9864 -0.9555  0.7705
  486SOL    HW2 1583   1.716   2.753   2.009  0.6157  0.3915 -1.0485
  487SOL     OW 1584   2.847   2.621   2.040 -0.0497  0.2705  0.0462
  487SOL    HW1 1585   2.767   2.570   2.036 -0.9392  1.5726  0.3912
  487SOL    HW2 1586   2.840   2.670   2.123  1.0824  0.4317  0.0702
  488SOL     OW 1587   0.565   1.575   2.597  0.2946  0.1687  0.0138
  488SOL    HW1 1588   0.507   1.528   2.537 -1.4512 -0.2924  1.9533
  488SOL    HW2 1589   0.526   1.662   2.606  0.3794  0.1496  0.6609
  489SOL     OW 1590   0.330   2.626   0.476 -0.1877 -0.5267  0.1438
  489SOL    HW1 1591   0.364   2.712   0.500 -0.2590 -0.5532  0.3422
  489SOL    HW2 1592   0.289   2.593   0.556 -1.0401 -0.3254 -0.1986
  490SOL     OW 1593   2.201   0.730   1.623 -0.5529  0.4681 -0.6530
  490SOL    HW1 1594   2.215   0.824   1.633 -3.8472  0.9094  1.2807
  490SOL    HW2 1595   2.115   0.723   1.581 -1.2537 -1.6167  0.9694
  491SOL     OW 1596   2.531   1.427   3.224 -0.4185  0.2375 -0.2148
  491SOL    HW1 1597   2.483   1.355   3.184  0.3279  0.1909 -1.0774
  491SOL    HW2 1598   2.598   1.384   3.277  0.0799  0.2823 -0.7964
  492SOL     OW 1599   2.409   2.768   2.139 -0.2832  0.6123  0.1428
  492SOL    HW1 1600   2.437   2.821   2.214 -0.6117  0.2568  0.5233
  492SOL    HW2 1601   2.409   2.829   2.065  0.9742  0.7416  0.2340
  493SOL     OW 1602   1.971   0.744   3.091  0.0112 -0.5697 -0.5956
  493SOL    HW1 1603   1.944   0.781   3.008 -1.0044 -2.3281 -1.1105
  493SOL    HW2 1604   2.041   0.682   3.069  1.2285  0.4711  0.1585
  494SOL     OW 1605   0.617   2.689   3.012 -0.5830  0.0985  0.7766
  494SOL    HW1 1606   0.633   2.633   3.088 -2.2670  0.3473  1.3518
  494SOL    HW2 1607   0.632   2.631   2.936 -0.7540 -0.6928  1.3322
  495SOL     OW 1608   2.031   2.536   2.758  0.2215 -0.1986  0.2171
  495SOL    HW1 1609   2.012   2.623   2.794 -0.7668 -0.8469  1.3375
  495SOL    HW2 1610   1.969   2.527   2.685  2.8314  1.4832 -2.4400
  496SOL     OW 1611   2.237   2.242   1.232  0.1993 -0.5368  0.8465
  496SOL    HW1 1612   2.192   2.170   1.276  0.1534  0.0373  1.7687
  496SOL    HW2 1613   2.169   2.308   1.217  0.5869  0.0998  1.7408
  497SOL     OW 1614   2.117   1.759   3.699 -0.4074 -0.4660  0.3529
  497SOL    HW1 1615   2.103   1.797   3.612  0.8155 -1.0335 -0.1205
  497SOL    HW2 1616   2.124   1.665   3.682 -0.2139 -0.5804  1.0718
  498SOL     OW 1617   1.360   0.569   0.703  0.4556 -0.0318 -0.4753
  498SOL    HW1 1618   1.364   0.538   0.793 -1.0966  0.0061 -0.3684
  498SOL    HW2 1619   1.305   0.647   0.706  2.0644  1.1901 -1.1699
  499SOL     OW 1620   3.316   1.741   0.051 -0.0553  0.1716  0.0974
  499SOL    HW1 1621   3.307   1.672  -0.015 -0.2369 -0.6919  1.0002
  499SOL    HW2 1622   3.397   1.719   0.097 -0.1736  0.4996  0.4645
  500SOL     OW 1623   1.390   3.039   1.115  0.2238 -0.1415  0.4596
  500SOL    HW1 1624   1.300   3.058   1.091  0.1025 -1.6019 -0.3825
  500SOL    HW2 1625   1.394   3.053   1.210 -0.4132  1.5941  0.2612
  501SOL     OW 1626   2.035   2.379   2.206 -0.1502  0.0764 -0.9115
  501SOL    HW1 1627   1.961   2.432   2.177 -0.4226 -1.1452 -2.6719
  501SOL    HW2 1628   2.112   2.422   2.169 -0.0464  0.8275  0.1344
  502SOL     OW 1629   2.687   2.409   2.049 -0.6188  0.2686 -0.3573
  502SOL    HW1 1630   2.630   2.461   2.105  0.4936  1.4272 -0.2568
  502SOL    HW2 1631   2.639   2.327   2.035 -1.5224  0.5190  1.1174
  503SOL     OW 1632   1.389   1.282   0.411 -0.0559 -0.3832 -0.5409
  503SOL    HW1 1633   1.417   1.196   0.380  0.6156 -0.0809 -0.7818
  503SOL    HW2 1634   1.425   1.344   0.347  0.9867  0.2172  0.5816
  504SOL     OW 1635   0.488   1.975   1.291  0.4136  0.1112  0.2791
  504SOL    HW1 1636   0.559   1.968   1.228 -0.4824  1.4252 -0.9429
  504SOL    HW2 1637   0.465   1.885   1.314 -0.1038 -0.4792 -2.2952
  505SOL     OW 1638   3.459   1.616   0.373  0.9834 -0.5858  0.1130
  505SOL    HW1 1639   3.439   1.694   0.322 -2.0320 -0.0478  1.9147
  505SOL    HW2 1640   3.433   1.637   0.462 -1.2358 -3.9801  0.4693
  506SOL     OW 1641   3.153   2.646   2.695 -0.3729 -0.1525  0.5561
  506SOL    HW1 1642   3.157   2.632   2.790 -1.7411 -1.7748  0.4092
  506SOL    HW2 1643   3.065   2.617   2.670 -0.0992  0.4151 -1.2070
  507SOL     OW 1644   0.663   0.446   0.551 -0.7353 -0.0299 -0.5518
  507SOL    HW1 1645   0.683   0.368   0.499 -0.6430  0.0087 -0.5736
  507SOL    HW2 1646   0.568   0.455   0.545 -0.9111 -0.9428  0.5813
  508SOL     OW 1647   3.369   0.642   0.257 -0.7566  0.2189 -0.2661
  508SOL    HW1 1648   3.424   0.593   0.196  0.0774  0.0052  0.6356
  508SOL    HW2 1649   3.378   0.596   0.340  1.2088  2.6398  1.0024
  509SOL     OW 1650   1.941   1.100   3.650  0.2290 -0.4322  0.3338
  509SOL    HW1 1651   2.010   1.166   3.659  0.1584 -0.4536  1.0385
  509SOL    HW2 1652   1.879   1.119   3.720 -0.2768 -0.6699 -0.0393
  510SOL     OW 1653   2.081   2.905   2.400 -0.5475  0.1470  0.1341
  510SOL    HW1 1654   2.053   2.996   2.412 -0.3441  0.3854 -1.1431
  510SOL    HW2 1655   2.119   2.902   2.313 -2.8585 -1.7281 -0.9195
  511SOL     OW 1656   2.488   2.108   2.825 -0.7700  0.2336 -0.5278
  511SOL    HW1 1657   2.502   2.137   2.735 -0.4048  1.2600 -0.1536
  511SOL    HW2 1658   2.503   2.013   2.822 -0.3788  0.3136 -1.4677
  512SOL     OW 1659   1.349   1.761   1.557 -0.3545 -0.0650 -0.0449
  512SOL    HW1 1660   1.330   1.745   1.464  0.8151  0.2354 -0.3547
  512SOL    HW2 1661   1.317   1.683   1.602 -1.1063 -0.1315 -0.6783
  513SOL     OW 1662   2.484   3.228   0.065 -0.5190  0.2287  0.7756
  513SOL    HW1 1663   2.423   3.170   0.110  0.3108 -1.9719 -0.7954
  513SOL    HW2 1664   2.561   3.174   0.049  0.7906  2.1399  0.2984
  514SOL     OW 1665   1.856   3.419   1.984  0.9825  0.3979 -0.0993
  514SOL    HW1 1666   1.868   3.446   2.075  1.4596  1.9855 -0.6108
  514SOL    HW2 1667   1.874   3.497   1.932 -0.3451 -0.1673 -1.5208
  515SOL     OW 1668   3.453   1.415   0.635  0.0196 -0.7058  0.3071
  515SOL    HW1 1669   3.442   1.327   0.672 -0.9846 -2.0772 -2.8757
  515SOL    HW2 1670   3.519   1.404   0.566 -0.3727  0.9658 -0.3849
  516SOL     OW 1671   3.153   2.728   1.896 -0.5549 -0.0260 -0.4514
  516SOL    HW1 1672   3.162   2.638   1.867 -0.1298 -0.2345  0.2864
  516SOL    HW2 1673   3.200   2.731   1.980  1.1378  1.3231 -1.3581
  517SOL     OW 1674   3.373   2.965   1.917  0.1472 -0.1414 -0.2869
  517SOL    HW1 1675   3.403   3.006   1.836 -0.1156 -1.0467 -0.8479
  517SOL    HW2 1676   3.278   2.979   1.918  0.4348  2.4507  1.3375
  518SOL     OW 1677   2.679   2.827   1.458 -0.3386  0.1743  0.3062
  518SOL    HW1 1678   2.589   2.826   1.490 -0.3848  0.7346  0.2044
  518SOL    HW2 1679   2.693   2.917   1.427 -1.0302 -0.7771 -3.2207
  519SOL     OW 1680   1.455   0.436   0.483  0.2461  0.1128 -0.5811
  519SOL    HW1 1681   1.529   0.495   0.469  0.4505  0.3048  1.1022
  519SOL    HW2 1682   1.402   0.480   0.550 -0.2519 -1.0293 -0.2033
  520SOL     OW 1683   2.811   0.843   3.325  0.0114  0.0700 -0.5715
  520SOL    HW1 1684   2.743   0.817   3.387 -0.0541  0.5150 -0.4562
  520SOL    HW2 1685   2.769   0.909   3.270  0.5660  0.9104 -0.0137
  521SOL     OW 1686   0.767   0.025   1.298 -0.4295  0.1649  0.2422
  521SOL    HW1 1687   0.719   0.089   1.245 -1.8564 -1.8015 -0.9756
  521SOL    HW2 1688   0.732   0.035   1.386 -1.7708  0.0526 -0.2531
  522SOL     OW 1689   2.614   1.875   2.003  0.2078 -0.5664 -0.1513
  522SOL    HW1 1690   2.544   1.885   1.940 -0.1077 -0.1302  0.2675
  522SOL    HW2 1691   2.653   1.790   1.981  1.6279  0.5664 -2.4333
  523SOL     OW 1692   0.876   0.196   2.498 -0.3401 -0.1378 -0.1785
  523SOL    HW1 1693   0.954   0.198   2.442 -0.6670 -0.6895 -0.6670
  523SOL    HW2 1694   0.805   0.170   2.439 -1.0920  1.3690  0.0287
  524SOL     OW 1695   2.209   1.515   3.581 -0.1748 -0.1751 -0.2697
  524SOL    HW1 1696   2.245   1.552   3.501 -1.6350  2.5595  0.2011
  524SOL    HW2 1697   2.136   1.461   3.552 -1.4436  1.7333 -0.8476
  525SOL     OW 1698   0.177   0.331   2.290  0.3979  0.1466 -0.5475
  525SOL    HW1 1699   0.183   0.239   2.317  0.0282 -0.1394 -1.4020
  525SOL    HW2 1700   0.170   0.379   2.372  0.4373 -0.5968 -0.0908
  526SOL     OW 1701   2.081   0.976   3.283  0.2196  0.2681 -0.3043
  526SOL    HW1 1702   2.137   0.986   3.360 -0.2006  3.0999 -0.2870
  526SOL    HW2 1703   2.116   0.899   3.237  3.5412  1.3589  0.1954
  527SOL     OW 1704   3.064   3.686   1.216 -0.1673  0.1502 -0.1509
  527SOL    HW1 1705   2.977   3.659   1.246 -0.4757  1.9729  0.7893
  527SOL    HW2 1706   3.115   3.693   1.297  1.3391 -2.2597 -0.7951
  528SOL     OW 1707   0.122   1.183   1.170 -0.5992  0.4236 -0.4352
  528SOL    HW1 1708   0.105   1.271   1.137  0.7154  0.7239 -0.3854
  528SOL    HW2 1709   0.111   1.126   1.094  1.9155  1.0544 -1.3845
  529SOL     OW 1710   0.893   0.722   1.587 -0.2984  0.4841 -0.3767
  529SOL    HW1 1711   0.949   0.799   1.578  0.0089  0.4248  0.7964
  529SOL    HW2 1712   0.874   0.717   1.681 -1.2654 -0.2103 -0.5853
  530SOL     OW 1713   1.062   2.667   1.514 -0.3132 -0.1962 -0.3345
  530SOL    HW1 1714   1.087   2.587   1.468 -1.3925 -0.3043 -0.7676
  530SOL    HW2 1715   1.025   2.724   1.446 -0.3705  0.3162  0.1123
  531SOL     OW 1716   3.090   0.401   2.112  0.1979 -0.6876  0.2642
  531SOL    HW1 1717   3.174   0.444   2.129  0.4731 -1.0109 -0.2414
  531SOL    HW2 1718   3.111   0.334   2.046 -0.0211 -2.2840  1.7383
  532SOL     OW 1719   0.330   1.421   2.450 -0.0262 -0.0100  0.3515
  532SOL    HW1 1720   0.236   1.408   2.459 -0.0503  0.3467  0.6449
  532SOL    HW2 1721   0.339   1.501   2.398  0.1105  0.2649  0.7908
  533SOL     OW 1722   1.911   2.027   2.246 -0.3062  0.5151  0.6368
  533SOL    HW1 1723   1.955   1.966   2.305  0.1025 -0.5481 -0.7272
  533SOL    HW2 1724   1.830   2.050   2.292  0.4843  0.5272  2.0569
  534SOL     OW 1725   1.196   2.211   1.114  0.8919 -0.4041  0.1910
  534SOL    HW1 1726   1.284   2.197   1.151  1.7810  0.8322 -1.3508
  534SOL    HW2 1727   1.177   2.130   1.066  0.1737 -1.5952  2.3144
  535SOL     OW 1728   2.988   2.864   1.435  0.2363 -0.3071 -0.3400
  535SOL    HW1 1729   2.967   2.772   1.425 -1.1529 -0.0565  0.0441
  535SOL    HW2 1730   2.904   2.906   1.458  1.0051  0.9028  0.4083
  536SOL     OW 1731   3.472   0.431   3.124 -0.5298  0.2348 -0.3051
  536SOL    HW1 1732   3.529   0.422   3.048 -1.5578  0.9143 -1.1929
  536SOL    HW2 1733   3.427   0.515   3.110 -2.5373 -0.7676 -0.2125
  537SOL     OW 1734   2.676   0.697   1.230  0.4164  0.6078 -0.0895
  537SOL    HW1 1735   2.649   0.649   1.308 -0.8508  0.0208 -0.8657
  537SOL    HW2 1736   2.625   0.659   1.159 -0.2241  2.7161 -0.8297
  538SOL     OW 1737   0.302   3.363   1.054 -0.0894  0.4000  0.3314
  538SOL    HW1 1738   0.218   3.362   1.100 -0.5797 -1.6422 -0.5059
  538SOL    HW2 1739   0.282   3.403   0.970 -0.2796 -0.2118  0.0783
  539SOL     OW 1740   0.660   0.934   3.199  0.3564  0.1043 -0.5144
  539SOL    HW1 1741   0.746   0.902   3.173 -0.1131 -3.3178  1.5731
  539SOL    HW2 1742   0.600   0.897   3.134 -0.0550 -2.6049  1.2533
  540SOL     OW 1743   1.098   3.361   2.039 -0.3653 -0.8457  0.3498
  540SOL    HW1 1744   1.106   3.282   1.985 -0.7786  0.2741 -1.4378
  540SOL    HW2 1745   1.187   3.383   2.064  0.0099 -0.6100 -1.1037
  541SOL     OW 1746   1.560   3.526   0.098 -0.4114 -0.5559 -0.2241
  541SOL    HW1 1747   1.566   3.609   0.145  0.9703 -0.4952 -0.4817
  541SOL    HW2 1748   1.606   3.463   0.153  0.4009 -0.6841 -1.0135
  542SOL     OW 1749   0.934   2.841   0.443  0.0443  0.1407  0.1861
  542SOL    HW1 1750   0.979   2.770   0.488  1.0231  0.5209 -0.1598
  542SOL    HW2 1751   0.846   2.841   0.479  0.3447 -0.5822  0.9367
  543SOL     OW 1752   0.854   1.300   1.330  0.3007 -0.4188  0.0021
  543SOL    HW1 1753   0.873   1.215   1.290  0.1520  0.2834 -1.6073
  543SOL    HW2 1754   0.759   1.310   1.321  0.3463  0.0155  0.0029
  544SOL     OW 1755   3.020   0.057   2.754 -0.6066 -1.4738 -0.7088
  544SOL    HW1 1756   2.968   0.004   2.815  1.3244 -2.4162  0.2246
  544SOL    HW2 1757   3.073  -0.007   2.707  0.7420 -0.4976 -0.5821
  545SOL     OW 1758   1.653   3.298   3.321  0.1842  0.1634 -0.0341
  545SOL    HW1 1759   1.684   3.297   3.230  0.9991 -1.8999  0.1917
  545SOL    HW2 1760   1.593   3.372   3.326 -2.7803 -1.6945 -3.2773
  546SOL     OW 1761   0.100   1.041   0.931 -0.3975 -0.0890  0.0098
  546SOL    HW1 1762   0.130   1.035   0.840 -1.4907 -0.5344 -0.3413
  546SOL    HW2 1763   0.029   0.977   0.937 -0.0735 -0.3445  1.2952
  547SOL     OW 1764   0.079   2.727   1.125 -0.5005 -0.5241  0.1400
  547SOL    HW1 1765   0.066   2.822   1.124  2.2766 -0.0560 -1.8319
  547SOL    HW2 1766   0.166   2.714   1.161  0.1713 -2.0896 -1.8045
  548SOL     OW 1767   2.699   2.722   2.899  0.1373  0.2877  0.7103
  548SOL    HW1 1768   2.782   2.677   2.914 -0.3387 -0.5235  1.0090
  548SOL    HW2 1769   2.638   2.681   2.961 -0.7976 -0.0343 -0.3721
  549SOL     OW 1770   1.381   1.072   3.309  0.5801  0.6050  0.3638
  549SOL    HW1 1771   1.415   0.983   3.318 -0.8907  0.0305  0.4562
  549SOL    HW2 1772   1.357   1.097   3.398 -0.0977  0.6351  0.1788
  550SOL     OW 1773   2.555   1.653   2.561  0.1477  0.3658 -0.4232
  550SOL    HW1 1774   2.499   1.706   2.618 -1.2266 -1.3395 -0.0867
  550SOL    HW2 1775   2.619   1.613   2.621 -1.5835 -1.7934  0.1018
  551SOL     OW 1776   0.058   1.170   0.356 -0.3937 -0.0632  0.3413
  551SOL    HW1 1777   0.118   1.201   0.288 -1.7725  1.7625 -0.1186
  551SOL    HW2 1778   0.045   1.245   0.413  0.1339 -1.3432  2.2434
  552SOL     OW 1779   3.429   3.068   1.481 -0.0934 -0.1566 -0.0842
  552SOL    HW1 1780   3.430   3.034   1.391 -3.0532 -0.4668 -0.0693
  552SOL    HW2 1781   3.399   3.158   1.472  0.3638  0.0724  0.5702
  553SOL     OW 1782   0.275   1.966   0.042 -0.2767 -0.2761 -0.3320
  553SOL    HW1 1783   0.184   1.964   0.073  0.2542  0.2742  1.4138
  553SOL    HW2 1784   0.289   1.878   0.006 -0.5580 -1.6039  2.4891
  554SOL     OW 1785   1.463   3.603   0.469 -0.5600 -0.1752 -0.3261
  554SOL    HW1 1786   1.485   3.532   0.529  2.0033 -0.3871 -1.3798
  554SOL    HW2 1787   1.410   3.562   0.401  0.4066 -0.9840 -0.6103
  555SOL     OW 1788   3.598   3.151   2.896 -0.5433  0.0726  1.1683
  555SOL    HW1 1789   3.511   3.188   2.882 -0.6478 -0.2833  0.8556
  555SOL    HW2 1790   3.613   3.095   2.819 -0.2851 -0.3294  1.5043
  556SOL     OW 1791   2.678   2.488   0.992 -1.0374 -0.1196  0.3350
  556SOL    HW1 1792   2.594   2.529   1.012 -1.3631  0.4848 -1.9716
  556SOL    HW2 1793   2.688   2.499   0.898  1.8085  0.1318  0.5801
  557SOL     OW 1794   3.103   1.633   0.239 -0.5773  0.4762  0.0736
  557SOL    HW1 1795   3.037   1.697   0.268  0.4016  1.9797 -0.8893
  557SOL    HW2 1796   3.141   1.671   0.160  0.0711 -1.3154 -0.5392
  558SOL     OW 1797   1.406   0.986   2.190  0.3260  0.2216 -0.3976
  558SOL    HW1 1798   1.428   0.893   2.176 -1.6501 -0.1522 -1.3995
  558SOL    HW2 1799   1.488   1.026   2.219  0.7373 -2.2502  2.3197
  559SOL     OW 1800   2.069   0.316   1.511  0.4430 -1.3480 -0.6737
  559SOL    HW1 1801   2.050   0.393   1.565 -1.5684 -3.1338  1.3919
  559SOL    HW2 1802   2.099   0.352   1.428 -0.5812  1.6691  0.1165
  560SOL     OW 1803   1.661   0.846   0.051  0.0879 -0.2019 -0.5216
  560SOL    HW1 1804   1.688   0.882  -0.034 -0.2950  1.1606 -0.0911
  560SOL    HW2 1805   1.742   0.817   0.092  0.3059 -0.6399 -1.2272
  561SOL     OW 1806   2.806   3.139   1.907  0.0337  0.1489  0.4789
  561SOL    HW1 1807   2.784   3.046   1.915 -0.7691  0.4910  3.0909
  561SOL    HW2 1808   2.902   3.140   1.907  0.0708 -0.7072 -0.6019
  562SOL     OW 1809   0.975   0.444   0.744 -0.4043 -0.0249  0.2082
  562SOL    HW1 1810   0.896   0.472   0.790  0.7691  1.4708  1.4192
  562SOL    HW2 1811   1.011   0.524   0.707  0.4036 -0.7326 -0.5781
  563SOL     OW 1812   1.555   0.529   1.276  0.4456  0.9210  0.1488
  563SOL    HW1 1813   1.544   0.588   1.201 -0.0237  0.6232 -0.0207
  563SOL    HW2 1814   1.482   0.552   1.335 -1.0993 -0.9582 -0.9033
  564SOL     OW 1815   1.452   2.376   0.924 -0.2960  0.1136 -0.1158
  564SOL    HW1 1816   1.401   2.305   0.886  2.1658 -2.3537  0.8951
  564SOL    HW2 1817   1.517   2.333   0.979  1.4468  3.1662  0.4584
  565SOL     OW 1818   0.525   1.423   0.016  0.2995 -0.2269  0.2219
  565SOL    HW1 1819   0.552   1.337   0.048 -1.5537 -0.3903  1.4830
  565SOL    HW2 1820   0.597   1.481   0.041  1.0748 -1.2155  0.3448
  566SOL     OW 1821   3.280   2.380   0.034  0.6376  0.0395  0.3735
  566SOL    HW1 1822   3.211   2.443   0.013 -1.2671 -1.7416  0.9733
  566SOL    HW2 1823   3.311   2.406   0.121 -0.2905  0.0138  0.7188
  567SOL     OW 1824   0.932   3.463   2.778 -0.4538  1.0483  0.7288
  567SOL    HW1 1825   0.942   3.378   2.819 -1.0090  0.3681 -0.4801
  567SOL    HW2 1826   1.022   3.496   2.769 -0.2124  0.4638  0.9534
  568SOL     OW 1827   1.926   3.214   0.399  0.3911 -0.1892 -0.1615
  568SOL    HW1 1828   1.919   3.177   0.311  1.2421  0.6815 -0.6211
  568SOL    HW2 1829   2.015   3.193   0.427 -0.2808 -1.6083  1.0651
  569SOL     OW 1830   1.366   2.176   0.773  0.2642 -0.4610 -0.1312
  569SOL    HW1 1831   1.433   2.141   0.715 -0.0883  0.3462 -1.0616
  569SOL    HW2 1832   1.294   2.199   0.715  0.0318  0.7076  0.5884
  570SOL     OW 1833   2.221   1.976   3.231  0.1604 -0.2721  0.0050
  570SOL    HW1 1834   2.174   2.059   3.219 -1.1426 -1.2517 -2.3239
  570SOL    HW2 1835   2.291   1.978   3.166 -0.3507 -1.2543 -0.6160
  571SOL     OW 1836   3.639   2.283   1.440 -0.3833 -0.2426 -0.4569
  571SOL    HW1 1837   3.651   2.361   1.386 -1.0627  0.8099  0.8442
  571SOL    HW2 1838   3.715   2.282   1.499  0.7854 -1.8407 -1.9006
  572SOL     OW 1839   0.709   1.942   0.028  0.2496  0.0475  0.1395
  572SOL    HW1 1840   0.728   1.902   0.113 -1.1185 -0.8526  0.0458
  572SOL    HW2 1841   0.616   1.967   0.033  0.7848  2.3899 -0.1546
  573SOL     OW 1842   2.150   1.207   2.167 -0.6634 -0.1727 -0.0171
  573SOL    HW1 1843   2.170   1.271   2.236 -0.0676  1.1090 -1.3105
  573SOL    HW2 1844   2.103   1.137   2.212 -0.2564  0.5870  1.6902
  574SOL     OW 1845   1.192   0.701   1.246 -0.4191  0.5337 -0.8716
  574SOL    HW1 1846   1.189   0.712   1.151 -0.4353  1.2172 -0.7969
  574SOL    HW2 1847   1.110   0.658   1.269 -1.0435  1.6421 -1.0078
  575SOL     OW 1848   3.080   3.361   0.398  0.1363 -0.5277  1.0010
  575SOL    HW1 1849   3.143   3.290   0.415  1.3526  0.6027  1.3535
  575SOL    HW2 1850   3.131   3.441   0.408 -0.7289  0.3801 -1.3400
  576SOL     OW 1851   0.538   0.034   0.466  0.2635  0.8231  0.2055
  576SOL    HW1 1852   0.591   0.103   0.427  0.7617 -0.2991 -1.1954
  576SOL    HW2 1853   0.452   0.042   0.425  0.0150  1.2351  0.7982
  577SOL     OW 1854   2.021   3.217   1.399 -0.5265  0.0218 -0.5669
  577SOL    HW1 1855   1.986   3.305   1.385  1.6678  0.9466 -0.5551
  577SOL    HW2 1856   1.985   3.166   1.326 -1.5070  0.9896 -0.7970
  578SOL     OW 1857   0.617   0.040   1.045  0.0689 -0.4959  0.0156
  578SOL    HW1 1858   0.693   0.095   1.025 -0.2153 -0.5318 -1.2716
  578SOL    HW2 1859   0.655  -0.039   1.084  0.4839  0.5679  1.8659
  579SOL     OW 1860   3.133   1.956   0.047  0.1467  0.6002  0.2126
  579SOL    HW1 1861   3.203   1.891   0.038  0.5179  0.9563  0.4988
  579SOL    HW2 1862   3.115   1.984  -0.043  0.2971  0.4327  0.1286
  580SOL     OW 1863   2.222   0.472   3.277 -0.6814 -0.0965 -0.2050
  580SOL    HW1 1864   2.163   0.441   3.209 -0.0200 -0.0241 -0.8354
  580SOL    HW2 1865   2.228   0.400   3.339 -0.4976 -0.5669 -0.7599
  581SOL     OW 1866   3.469   2.747   2.473  0.5539  0.4312 -0.0145
  581SOL    HW1 1867   3.392   2.804   2.467 -0.2935 -0.3957  1.9124
  581SOL    HW2 1868   3.433   2.660   2.491  1.9146  0.1930  1.8583
  582SOL     OW 1869   0.078   0.565  -0.013  0.3714  1.0446  0.2589
  582SOL    HW1 1870   0.083   0.578   0.082 -0.9708 -0.8457  0.6468
  582SOL    HW2 1871   0.064   0.653  -0.049 -0.5305  1.6299  1.9329
  583SOL     OW 1872   1.953   1.637   0.523 -0.3600 -0.3684 -0.2209
  583SOL    HW1 1873   1.998   1.702   0.577 -0.0522 -0.4093 -0.4224
  583SOL    HW2 1874   1.864   1.635   0.556  0.3940 -2.1518  1.9282
  584SOL     OW 1875   0.816   2.929   2.138 -0.9489 -0.2114 -0.1296
  584SOL    HW1 1876   0.846   3.008   2.182 -1.5084  0.8465 -1.5370
  584SOL    HW2 1877   0.805   2.956   2.046 -3.4415 -1.2332 -0.2237
  585SOL     OW 1878   1.141   0.723   3.123  0.4815  0.2876  0.0453
  585SOL    HW1 1879   1.150   0.629   3.108  1.7715  0.2955  0.6841
  585SOL    HW2 1880   1.227   0.760   3.102 -0.1969  1.4307 -0.8631
  586SOL     OW 1881   1.591   1.467   0.027  0.1523 -0.1644 -0.0347
  586SOL    HW1 1882   1.639   1.544  -0.003 -0.2105  0.5545  1.1426
  586SOL    HW2 1883   1.570   1.486   0.118 -0.8322 -1.2246 -0.0127
  587SOL     OW 1884   3.406   0.991   2.286  0.1766 -0.5478 -0.3757
  587SOL    HW1 1885   3.357   1.056   2.235 -0.3091  0.4298  1.2438
  587SOL    HW2 1886   3.382   0.907   2.248 -3.4956 -0.2205  0.8157
  588SOL     OW 1887   2.291   2.222   3.003  0.1781  0.1340 -0.0670
  588SOL    HW1 1888   2.209   2.255   2.967  0.2802 -0.4289 -0.8500
  588SOL    HW2 1889   2.357   2.247   2.939  0.1297 -2.3370 -1.2120
  589SOL     OW 1890   3.559   3.474   3.301 -0.3016  0.3691  0.3042
  589SOL    HW1 1891   3.542   3.531   3.226  1.5636  0.0175 -0.4324
  589SOL    HW2 1892   3.575   3.534   3.374  0.3139  0.7835 -0.1587
  590SOL     OW 1893   3.529   0.060   3.686  0.2597  0.0556  0.3830
  590SOL    HW1 1894   3.542   0.042   3.779  1.5266  1.5566  0.5453
  590SOL    HW2 1895   3.540  -0.025   3.643  1.3950 -0.3713  1.4622
  591SOL     OW 1896   0.913   0.033   2.789  0.2864 -0.6985  0.7708
  591SOL    HW1 1897   0.879  -0.055   2.775  1.5270 -1.4336  2.0683
  591SOL    HW2 1898   0.898   0.078   2.706 -0.2110 -2.1840  0.0164
  592SOL     OW 1899   2.665   1.595   3.460  0.6916  0.2272  0.2165
  592SOL    HW1 1900   2.583   1.603   3.507  0.8785  0.7805  0.4530
  592SOL    HW2 1901   2.662   1.664   3.394  0.6096 -0.2803 -0.3204
  593SOL     OW 1902   2.461   1.851   0.446 -0.3736 -0.2466  0.3908
  593SOL    HW1 1903   2.483   1.893   0.363  0.0096 -0.9158  0.1406
  593SOL    HW2 1904   2.542   1.852   0.496 -0.0228 -1.7084 -0.0845
  594SOL     OW 1905   3.476   0.386   1.192  0.4692  0.7872 -0.4943
  594SOL    HW1 1906   3.396   0.335   1.206  0.7516  0.4112 -0.2661
  594SOL    HW2 1907   3.497   0.372   1.099  1.5399 -0.9738 -0.0428
  595SOL     OW 1908   2.863   1.025   2.937  0.1655  0.2038 -0.2287
  595SOL    HW1 1909   2.815   1.003   3.017  0.2595 -0.9600 -0.4817
  595SOL    HW2 1910   2.800   1.012   2.866  0.8289 -1.4118 -0.5696
  596SOL     OW 1911   1.857   1.010   3.140  0.1300 -0.4209  0.2628
  596SOL    HW1 1912   1.893   1.057   3.215  0.2530 -0.1260  0.0201
  596SOL    HW2 1913   1.888   0.920   3.150  1.7378  0.0146 -0.4430
  597SOL     OW 1914   2.777   0.418   1.225  0.0393  0.1620 -0.4405
  597SOL    HW1 1915   2.822   0.487   1.177  0.5409  0.1422 -0.0047
  597SOL    HW2 1916   2.808   0.337   1.185  0.8719  0.1218  0.2463
  598SOL     OW 1917   0.532   0.680   2.792  0.1208  0.2979  0.3149
  598SOL    HW1 1918   0.573   0.653   2.874 -0.8542  0.6384  0.9297
  598SOL    HW2 1919   0.586   0.640   2.724  1.8274  1.2291  1.0614
  599SOL     OW 1920   3.120   1.337   0.573 -0.1825 -0.5727  0.2417
  599SOL    HW1 1921   3.057   1.275   0.536  0.7932 -0.6971 -1.3050
  599SOL    HW2 1922   3.205   1.303   0.548  0.3890  1.2049 -0.3784
  600SOL     OW 1923   2.524   0.307   3.004 -0.0044  0.1250 -0.0095
  600SOL    HW1 1924   2.561   0.220   3.017  0.2381  0.3092  0.5797
  600SOL    HW2 1925   2.529   0.349   3.091  0.1129  0.8113 -0.3401
  601SOL     OW 1926   0.813   1.084   2.630  0.0669  0.0827 -0.1630
  601SOL    HW1 1927   0.808   1.070   2.724  0.3671  0.9590 -0.0059
  601SOL    HW2 1928   0.755   1.017   2.592  0.4263 -0.6748  0.5966
  602SOL     OW 1929   2.143   0.537   2.991 -0.1207 -0.4836 -0.2045
  602SOL    HW1 1930   2.237   0.557   2.994 -0.0781 -0.6165 -0.6452
  602SOL    HW2 1931   2.124   0.525   2.898 -0.3885 -1.3367 -0.0479
  603SOL     OW 1932   1.029   1.411   1.555  0.4558 -0.7118  0.5466
  603SOL    HW1 1933   0.988   1.392   1.639 -0.0681  0.9404  0.6989
  603SOL    HW2 1934   0.976   1.365   1.490 -0.4383 -0.2581  0.9390
  604SOL     OW 1935   2.916   1.105   2.277  0.3347  0.5318 -0.3490
  604SOL    HW1 1936   2.939   1.086   2.186 -0.4199  1.8505 -0.8435
  604SOL    HW2 1937   2.994   1.082   2.328 -0.0264 -2.4843 -1.0096
  605SOL     OW 1938   1.382   1.347   3.524 -0.1928 -0.9179  0.0401
  605SOL    HW1 1939   1.440   1.272   3.540 -0.1747 -1.0810 -0.7534
  605SOL    HW2 1940   1.412   1.413   3.586 -0.3380 -1.6332  0.8934
  606SOL     OW 1941   2.329   2.221   1.675 -0.3028  0.7113  0.2804
  606SOL    HW1 1942   2.417   2.186   1.694 -0.2564 -0.9037 -2.3802
  606SOL    HW2 1943   2.307   2.273   1.752  1.0649 -2.5716  3.1599
  607SOL     OW 1944   0.813   3.102   1.619 -0.0357 -0.4146  0.1175
  607SOL    HW1 1945   0.879   3.039   1.590 -0.8735 -1.4978  0.4811
  607SOL    HW2 1946   0.860   3.185   1.625  0.5181 -0.3867 -2.9177
  608SOL     OW 1947   2.950   2.858   3.651  0.9069 -0.1806  0.1305
  608SOL    HW1 1948   3.011   2.931   3.641  1.0945 -0.4393 -0.7811
  608SOL    HW2 1949   2.915   2.845   3.563 -0.2277 -0.2501  0.5760
  609SOL     OW 1950   1.300   2.443   0.625  0.6022 -0.5437 -0.2561
  609SOL    HW1 1951   1.223   2.387   0.616  0.0148  0.5935 -3.9654
  609SOL    HW2 1952   1.374   2.382   0.617  0.0761 -1.3132  0.5295
  610SOL     OW 1953   3.625   1.309   3.465 -0.0768 -0.4756  0.0469
  610SOL    HW1 1954   3.640   1.324   3.372  0.0347 -1.0630 -0.0321
  610SOL    HW2 1955   3.646   1.393   3.507  0.6477 -0.4500 -0.3656
  611SOL     OW 1956   2.954   3.220   3.090  0.0321  0.3719  0.1018
  611SOL    HW1 1957   2.915   3.302   3.060  0.2166 -0.1896 -1.8073
  611SOL    HW2 1958   2.919   3.154   3.030  1.1220 -0.6975  0.6123
  612SOL     OW 1959   1.519   2.718   2.364 -0.7286 -0.0984  0.4201
  612SOL    HW1 1960   1.450   2.671   2.410 -0.9588 -0.9268 -0.7355
  612SOL    HW2 1961   1.476   2.753   2.285  0.4229 -1.7426 -1.0043
  613SOL     OW 1962   2.830   0.784   2.010 -0.3408 -0.0612  0.2641
  613SOL    HW1 1963   2.827   0.728   2.088 -0.0433 -0.3374  0.0788
  613SOL    HW2 1964   2.752   0.838   2.016 -0.8942 -0.8435  0.1830
  614SOL     OW 1965   1.548   1.528   1.043 -0.4851  0.3357 -0.2246
  614SOL    HW1 1966   1.494   1.497   0.971 -1.1054  2.1720 -0.6009
  614SOL    HW2 1967   1.499   1.601   1.080 -0.9847 -1.5014  3.1412
  615SOL     OW 1968   1.849   2.755   1.700 -0.5430  0.4902  0.2151
  615SOL    HW1 1969   1.874   2.787   1.614  2.4405 -0.6387  0.5377
  615SOL    HW2 1970   1.814   2.668   1.684 -1.5112  0.8947  0.0437
  616SOL     OW 1971   3.434   2.750   1.644  0.1686  0.2463 -0.2715
  616SOL    HW1 1972   3.350   2.790   1.620  0.1455  1.0932  1.1126
  616SOL    HW2 1973   3.411   2.661   1.670 -0.4130  0.6723  0.7196
  617SOL     OW 1974   2.403   2.954   0.856  0.6387 -0.6294 -0.0848
  617SOL    HW1 1975   2.371   2.886   0.916  0.9811 -0.4191  0.3412
  617SOL    HW2 1976   2.493   2.972   0.885  0.8603 -0.6283 -0.7541
  618SOL     OW 1977   1.072   1.055   0.854 -0.1518 -0.2296  0.2984
  618SOL    HW1 1978   1.117   1.121   0.907 -0.1729 -0.9021  1.1687
  618SOL    HW2 1979   1.010   1.014   0.915  0.4456 -1.6262 -0.0142
  619SOL     OW 1980   0.197   3.418   2.107  0.1439  0.6926  0.5794
  619SOL    HW1 1981   0.184   3.327   2.135 -0.7481  0.8575  0.7057
  619SOL    HW2 1982   0.292   3.431   2.115  0.3251 -0.3066  0.2945
  620SOL     OW 1983   3.275   1.930   1.776 -0.1847 -0.8030  0.0136
  620SOL    HW1 1984   3.287   1.900   1.686 -2.3065 -2.5797  0.2435
  620SOL    HW2 1985   3.184   1.961   1.778 -0.1462 -0.7383  1.5404
  621SOL     OW 1986   0.912   3.618   0.245  0.3105 -0.2740  0.4958
  621SOL    HW1 1987   0.974   3.544   0.245  0.0154 -0.5246  0.3819
  621SOL    HW2 1988   0.868   3.612   0.330 -1.9258 -2.1231 -0.6937
  622SOL     OW 1989   2.921   1.232   2.796  0.0220 -0.9158 -0.7337
  622SOL    HW1 1990   2.876   1.165   2.848 -1.9059  0.8540  0.0059
  622SOL    HW2 1991   2.992   1.262   2.852 -0.6077 -0.6555 -0.0663
  623SOL     OW 1992   3.116   0.217   1.912  1.0989 -0.1226  0.3271
  623SOL    HW1 1993   3.074   0.267   1.842  1.6004  1.0798  0.8479
  623SOL    HW2 1994   3.205   0.200   1.880  1.4201  0.6751  0.7630
  624SOL     OW 1995   0.334   0.334   0.973 -0.3545 -0.0578  0.2405
  624SOL    HW1 1996   0.377   0.418   0.984  3.2286 -0.9879 -3.7626
  624SOL    HW2 1997   0.289   0.341   0.888  0.2977 -2.1616 -0.3513
  625SOL     OW 1998   2.398   0.457   2.824  0.2078 -0.6345  0.0812
  625SOL    HW1 1999   2.481   0.474   2.779  0.4682 -1.0259  0.4062
  625SOL    HW2 2000   2.417   0.383   2.882  0.3110  0.8191  1.9867
  626SOL     OW 2001   2.338   3.353   1.799  0.5414  0.6257  0.7976
  626SOL    HW1 2002   2.276   3.305   1.744 -0.7723  0.0906  2.6654
  626SOL    HW2 2003   2.394   3.285   1.837 -0.5814  0.6115  2.5355
  627SOL     OW 2004   2.157   3.318   0.167  0.2912 -0.6053  0.0894
  627SOL    HW1 2005   2.203   3.352   0.244 -0.5612 -1.3478  0.9603
  627SOL    HW2 2006   2.073   3.363   0.167  0.8669  0.5419 -1.3373
  628SOL     OW 2007   0.344   3.095   0.405 -0.5498  0.0947  0.8894
  628SOL    HW1 2008   0.344   3.013   0.357 -3.4643 -0.3240  1.4163
  628SOL    HW2 2009   0.396   3.155   0.351 -1.4037 -1.1110 -1.3872
  629SOL     OW 2010   2.218   0.955   0.954 -0.7557  0.5608 -0.2144
  629SOL    HW1 2011   2.173   0.936   1.036 -0.3125  0.3274 -0.0216
  629SOL    HW2 2012   2.257   1.042   0.967 -2.2255  1.3549 -0.8551
  630SOL     OW 2013   3.640   3.308   1.891 -0.1866  0.6012  0.5990
  630SOL    HW1 2014   3.615   3.370   1.960  0.3511 -0.3479  1.6816
  630SOL    HW2 2015   3.674   3.362   1.820  2.3231  1.4985  2.3499
  631SOL     OW 2016   3.033   2.489   0.453  0.4144  0.1908 -0.6944
  631SOL    HW1 2017   3.095   2.483   0.525 -2.0213 -1.0675  1.4852
  631SOL    HW2 2018   3.033   2.402   0.413 -0.0954  0.0897 -0.4920
  632SOL     OW 2019   2.034   1.122   2.951  0.1563  0.3645  0.3016
  632SOL    HW1 2020   1.977   1.092   3.021 -1.3836 -0.2904 -1.1541
  632SOL    HW2 2021   2.121   1.091   2.975 -0.6964 -1.7593  0.8687
  633SOL     OW 2022   2.777   3.578   0.108  0.3232  0.1425  0.3986
  633SOL    HW1 2023   2.821   3.505   0.152  0.3838  0.5370  1.0063
  633SOL    HW2 2024   2.687   3.575   0.140 -0.0366 -0.4939 -0.6321
  634SOL     OW 2025   1.938   1.854   1.676  0.2570 -0.3336  0.2828
  634SOL    HW1 2026   2.006   1.847   1.742 -0.6202  1.9732  1.5652
  634SOL    HW2 2027   1.877   1.783   1.695  0.7687 -0.5816  1.0115
  635SOL     OW 2028   2.383   3.092   1.487 -0.1946 -0.1888 -0.2450
  635SOL    HW1 2029   2.295   3.106   1.521 -0.2057 -2.6117  0.9457
  635SOL    HW2 2030   2.440   3.106   1.563  0.4599  1.0216 -0.9254
  636SOL     OW 2031   3.410   0.786   1.557 -0.3901  0.0565  0.2694
  636SOL    HW1 2032   3.390   0.727   1.484  2.2415 -0.1282 -0.4053
  636SOL    HW2 2033   3.391   0.873   1.523  1.0332 -0.0112 -0.7754
  637SOL     OW 2034   2.722   2.327   1.779  0.0303 -0.3368 -0.0504
  637SOL    HW1 2035   2.722   2.388   1.706 -0.5588  0.4925  0.6157
  637SOL    HW2 2036   2.704   2.382   1.856  0.6481 -1.1781  0.7149
  638SOL     OW 2037   3.592   2.138   3.421 -0.2750 -0.2620  0.2675
  638SOL    HW1 2038   3.520   2.191   3.455  0.5250  1.5508 -0.7266
  638SOL    HW2 2039   3.669   2.170   3.466  0.4402  0.5108 -1.4097
  639SOL     OW 2040   2.484   0.794   1.883 -0.1119 -0.3475  0.8843
  639SOL    HW1 2041   2.494   0.885   1.855 -0.3851  0.4996  3.2521
  639SOL    HW2 2042   2.522   0.792   1.971  0.2934 -2.6548  0.7267
  640SOL     OW 2043   2.486   3.617   3.372  0.3610  0.3433  0.7369
  640SOL    HW1 2044   2.493   3.649   3.462  0.5250  0.3193  0.7327
  640SOL    HW2 2045   2.392   3.606   3.358  0.1409  2.3813  0.1984
  641SOL     OW 2046   2.429   0.858   1.387  0.1800 -0.0804  0.0794
  641SOL    HW1 2047   2.450   0.839   1.479  1.0395 -0.9763 -0.2893
  641SOL    HW2 2048   2.511   0.890   1.350  1.1136 -3.8002 -1.4355
  642SOL     OW 2049   3.316   2.398   1.299 -0.5226  0.1196 -0.1440
  642SOL    HW1 2050   3.409   2.419   1.312  0.1377 -2.6359  0.2566
  642SOL    HW2 2051   3.281   2.393   1.388  0.1194 -3.1092  0.0710
  643SOL     OW 2052   2.714   1.342   2.668  0.1308 -0.3415 -0.0913
  643SOL    HW1 2053   2.724   1.425   2.714  1.8519  1.1914 -2.9286
  643SOL    HW2 2054   2.795   1.294   2.686  0.2084 -0.3269 -0.3886
  644SOL     OW 2055   2.597   1.964   1.398 -0.2954 -0.4982 -0.4126
  644SOL    HW1 2056   2.553   2.039   1.358 -0.4223 -0.8118 -0.8721
  644SOL    HW2 2057   2.527   1.898   1.407 -0.1964 -0.5474  0.0302
  645SOL     OW 2058   1.767   2.274   0.828 -0.4046  0.1071  0.5648
  645SOL    HW1 2059   1.749   2.222   0.750 -0.2232 -0.4669  0.9030
  645SOL    HW2 2060   1.772   2.211   0.899  1.6360  0.3486  0.7066
  646SOL     OW 2061   1.169   0.058   2.633  0.5808 -0.0470 -0.0753
  646SOL    HW1 2062   1.091   0.029   2.586 -2.0577  2.5845  2.2352
  646SOL    HW2 2063   1.148   0.044   2.725  3.3385 -0.1934  0.6125
  647SOL     OW 2064   2.229   2.935   0.629  0.3051 -0.4143 -0.0238
  647SOL    HW1 2065   2.270   2.948   0.715  0.8404 -1.6264 -0.0684
  647SOL    HW2 2066   2.179   2.854   0.639 -1.8991  0.8636 -0.0701
  648SOL     OW 2067   2.686   2.988   3.448  0.3003 -0.8424  0.6221
  648SOL    HW1 2068   2.649   2.984   3.360  0.6699  0.0147  0.4125
  648SOL    HW2 2069   2.754   2.920   3.449  2.0660  0.7925 -0.6360
  649SOL     OW 2070   2.583   1.216   1.452  0.1338 -0.1111  0.7536
  649SOL    HW1 2071   2.507   1.256   1.494  0.1881  0.7599  0.0666
  649SOL    HW2 2072   2.548   1.173   1.374  0.4626  1.3178 -0.2261
  650SOL     OW 2073   2.477   0.522   3.498 -0.0752  0.7474  0.1722
  650SOL    HW1 2074   2.409   0.461   3.526 -0.1531  0.0354 -1.4534
  650SOL    HW2 2075   2.548   0.511   3.561 -1.1716  0.9779  1.4698
  651SOL     OW 2076   2.599   0.923   3.499 -0.0641 -0.0450 -0.0730
  651SOL    HW1 2077   2.566   0.907   3.587  0.4983 -0.7288  0.0232
  651SOL    HW2 2078   2.682   0.968   3.512  0.7997 -1.5423 -0.1798
  652SOL     OW 2079   2.007   2.372   1.208 -0.2116  0.2045  0.2154
  652SOL    HW1 2080   1.943   2.324   1.155 -0.2906 -0.2035  0.6744
  652SOL    HW2 2081   1.966   2.456   1.226 -0.8433 -0.2431  0.9320
  653SOL     OW 2082   2.631   2.798   1.731 -0.6032 -0.4418 -0.3055
  653SOL    HW1 2083   2.645   2.756   1.646  1.0865 -0.1326 -0.2082
  653SOL    HW2 2084   2.719   2.813   1.766 -1.1714  1.6636  0.3911
  654SOL     OW 2085   2.801   2.707   0.126  0.0756  0.0699  0.2290
  654SOL    HW1 2086   2.718   2.748   0.150 -1.1451 -1.1529 -1.6955
  654SOL    HW2 2087   2.843   2.771   0.069  0.7376  0.9015  1.5945
  655SOL     OW 2088   2.275   0.992   1.663  0.0791 -0.0922 -0.1403
  655SOL    HW1 2089   2.229   0.997   1.747  0.3309 -0.4929  0.0222
  655SOL    HW2 2090   2.314   1.079   1.652 -0.3246  0.1067 -0.0619
  656SOL     OW 2091   3.019   2.209   2.040 -0.3079 -0.4714  0.1720
  656SOL    HW1 2092   2.962   2.268   1.991 -1.7351 -0.8326  1.3212
  656SOL    HW2 2093   3.050   2.146   1.975 -2.3412 -1.0821 -0.2864
  657SOL     OW 2094   3.495   0.293   2.203  0.0787  0.4654  0.1760
  657SOL    HW1 2095   3.510   0.218   2.145 -2.6050 -0.0815  0.0546
  657SOL    HW2 2096   3.496   0.256   2.291 -3.4960 -0.3322  0.0406
  658SOL     OW 2097   3.621   0.841   0.914 -0.4804  0.2341  0.1916
  658SOL    HW1 2098   3.541   0.888   0.935 -0.8401 -0.5196  0.5681
  658SOL    HW2 2099   3.592   0.767   0.860  0.2397  1.2407 -1.6630
  659SOL     OW 2100   2.398   0.751   2.585 -0.6806  0.8503 -0.2054
  659SOL    HW1 2101   2.358   0.824   2.537  0.5651  1.3759 -0.4823
  659SOL    HW2 2102   2.481   0.736   2.539  0.1231  0.7598  1.2424
  660SOL     OW 2103   0.314   0.640   3.412 -0.3539  0.3141  0.0831
  660SOL    HW1 2104   0.280   0.717   3.457 -0.8274  1.0722 -1.5132
  660SOL    HW2 2105   0.236   0.589   3.389 -0.0185 -1.0815  1.7817
  661SOL     OW 2106   0.641   1.909   0.973  0.3311  0.1950 -1.0970
  661SOL    HW1 2107   0.699   1.839   1.002 -0.4032  0.6000  1.5354
  661SOL    HW2 2108   0.653   1.911   0.878  1.2288 -2.7199 -1.1596
  662SOL     OW 2109   0.315   1.509   0.921  0.3889  0.1088 -0.8719
  662SOL    HW1 2110   0.237   1.503   0.976 -0.0796 -0.1214 -1.5585
  662SOL    HW2 2111   0.357   1.591   0.949 -0.3028  0.4384 -0.7683
  663SOL     OW 2112   2.856   2.040   0.437 -1.1415  0.5318  0.5186
  663SOL    HW1 2113   2.904   1.959   0.455  1.3698  2.1992  1.9982
  663SOL    HW2 2114   2.859   2.048   0.342 -1.5615 -1.1389  0.3246
  664SOL     OW 2115   1.542   1.365   1.504  0.4049 -0.4896  0.0226
  664SOL    HW1 2116   1.591   1.345   1.583  0.1862 -0.2905  0.2115
  664SOL    HW2 2117   1.570   1.300   1.440  0.9193 -0.3684  0.1232
  665SOL     OW 2118   2.715   3.283   1.039  0.3801 -0.1070  0.2428
  665SOL    HW1 2119   2.627   3.246   1.043  1.7544 -3.6820  1.9076
  665SOL    HW2 2120   2.764   3.222   0.984  2.2230  0.8017  0.8018
  666SOL     OW 2121   2.880   3.680   0.382 -0.2857 -0.0980  0.0645
  666SOL    HW1 2122   2.957   3.704   0.330 -1.0982  1.6414 -0.4374
  666SOL    HW2 2123   2.859   3.591   0.355  1.8139 -0.7905  0.5754
  667SOL     OW 2124   0.444   1.210   2.701  0.1888 -0.4944  0.4024
  667SOL    HW1 2125   0.451   1.212   2.606 -0.8833  0.4328  0.3236
  667SOL    HW2 2126   0.360   1.252   2.720  1.0625  0.7175  1.8244
  668SOL     OW 2127   1.401   1.203   2.808  0.4728 -0.0680  0.3600
  668SOL    HW1 2128   1.378   1.128   2.863  2.2158 -0.1364  1.0606
  668SOL    HW2 2129   1.409   1.167   2.720 -0.5424 -0.3175  0.3594
  669SOL     OW 2130   1.188   2.645   0.855 -0.2421 -0.2785  0.6036
  669SOL    HW1 2131   1.263   2.586   0.841  0.5598  0.3003  2.2371
  669SOL    HW2 2132   1.187   2.660   0.949 -0.7573  1.8908  0.2923
  670SOL     OW 2133   2.784   3.212   2.587 -0.0812 -0.3589  0.2578
  670SOL    HW1 2134   2.740   3.287   2.547  1.1308  0.3860  0.2435
  670SOL    HW2 2135   2.802   3.241   2.677  2.2011  0.2364 -0.3092
  671SOL     OW 2136   1.580   0.259   1.302  0.3562  0.4023  0.1274
  671SOL    HW1 2137   1.587   0.351   1.279  2.1984  0.2649 -0.0765
  671SOL    HW2 2138   1.602   0.212   1.221 -3.5446 -0.3650 -0.6842
  672SOL     OW 2139   0.850   0.512   3.481 -1.1027  0.1049 -0.2814
  672SOL    HW1 2140   0.935   0.476   3.454 -1.1047 -1.2532  1.3722
  672SOL    HW2 2141   0.843   0.594   3.432  0.8191 -0.1097 -1.0284
  673SOL     OW 2142   2.558   0.476   1.824  0.4503  0.0045 -0.6328
  673SOL    HW1 2143   2.500   0.520   1.887 -1.5363 -1.4129 -1.3692
  673SOL    HW2 2144   2.615   0.422   1.879  0.2217  0.4476  0.0592
  674SOL     OW 2145   3.665   0.804   3.664  0.6381 -0.0491  0.2543
  674SOL    HW1 2146   3.577   0.775   3.638  1.1721  0.1162 -1.8939
  674SOL    HW2 2147   3.651   0.851   3.746 -1.5170  1.2901 -0.7991
  675SOL     OW 2148   2.202   3.557   2.754  0.2206  0.2816 -0.3115
  675SOL    HW1 2149   2.172   3.466   2.758  2.7596 -0.5869  1.4379
  675SOL    HW2 2150   2.196   3.580   2.661  1.3294 -2.3611 -1.1365
  676SOL     OW 2151   0.324   2.581   0.901 -0.1139  0.1693  0.2890
  676SOL    HW1 2152   0.233   2.590   0.872  0.5211  0.9924 -1.6663
  676SOL    HW2 2153   0.330   2.491   0.934 -1.7704  0.3020  1.0198
  677SOL     OW 2154   0.148   1.944   3.215  0.3173  0.0681  0.0319
  677SOL    HW1 2155   0.083   1.967   3.148  0.7326 -0.4627 -0.5661
  677SOL    HW2 2156   0.223   2.001   3.196  0.6699 -0.5138 -0.3478
  678SOL     OW 2157   1.621   1.460   0.280  0.0692  0.3819  0.0680
  678SOL    HW1 2158   1.699   1.419   0.243 -0.9591 -2.5112  0.8545
  678SOL    HW2 2159   1.640   1.468   0.374 -0.7103 -0.7998  0.3488
  679SOL     OW 2160   2.822   3.518   1.746 -0.3077 -0.6335 -0.4757
  679SOL    HW1 2161   2.848   3.452   1.681  2.2565 -0.3417  0.1673
  679SOL    HW2 2162   2.773   3.468   1.812 -1.6011 -1.2025 -1.8172
  680SOL     OW 2163   0.382   0.713   1.102  0.5789 -0.1589  0.0715
  680SOL    HW1 2164   0.351   0.666   1.180 -0.1592  1.6844  0.9599
  680SOL    HW2 2165   0.417   0.796   1.137  0.8381  0.4229 -1.5038
  681SOL     OW 2166   1.169   0.670   0.975 -0.6088 -0.4209 -0.8041
  681SOL    HW1 2167   1.080   0.655   0.942 -1.5433  0.2078  1.2406
  681SOL    HW2 2168   1.202   0.743   0.924 -1.9610  0.4824 -0.4365
  682SOL     OW 2169   1.321   1.458   2.994  0.4364  0.4893  0.2142
  682SOL    HW1 2170   1.315   1.415   3.079 -0.3256  0.8657  0.3627
  682SOL    HW2 2171   1.342   1.388   2.932 -0.4112 -0.0393  0.5085
  683SOL     OW 2172   2.090   3.330   3.520  0.2931  0.0095 -0.0400
  683SOL    HW1 2173   2.185   3.338   3.527  0.3546 -0.4270 -0.3175
  683SOL    HW2 2174   2.063   3.409   3.474  0.5436  0.0404 -0.1366
  684SOL     OW 2175   1.051   0.357   3.374  0.0991 -0.0484  0.0181
  684SOL    HW1 2176   0.981   0.356   3.308  0.7082  0.1388 -0.6486
  684SOL    HW2 2177   1.131   0.376   3.324  0.8258 -1.4801  0.5657
  685SOL     OW 2178   3.651   1.381   2.847  0.3510 -0.4957  0.0469
  685SOL    HW1 2179   3.602   1.323   2.789  1.1040 -0.9392 -0.1721
  685SOL    HW2 2180   3.607   1.374   2.932 -0.9795  0.4326 -0.5331
  686SOL     OW 2181   2.934   1.253   0.913  0.1954 -0.0580  0.0793
  686SOL    HW1 2182   2.870   1.203   0.963 -0.1936  0.6944  0.3501
  686SOL    HW2 2183   3.010   1.194   0.906 -0.4648 -0.9086 -0.1458
  687SOL     OW 2184   3.671   2.054   3.027 -0.2924 -0.0436 -0.6086
  687SOL    HW1 2185   3.613   2.119   3.065 -0.0801 -0.5805  0.7105
  687SOL    HW2 2186   3.614   1.981   3.002 -0.4465  0.3579 -1.4565
  688SOL     OW 2187   1.100   1.655   2.421 -0.5881 -0.1310 -0.3599
  688SOL    HW1 2188   1.147   1.643   2.339  1.2322  0.6961  0.5197
  688SOL    HW2 2189   1.056   1.740   2.411  0.2330  0.3223 -0.2342
  689SOL     OW 2190   2.868   2.816   1.869  0.5864 -0.5658 -0.1844
  689SOL    HW1 2191   2.961   2.837   1.882  0.2688  0.7936  0.0270
  689SOL    HW2 2192   2.851   2.745   1.932  0.6473  1.6081  2.4792
  690SOL     OW 2193   0.577   3.259   1.019  0.1845  0.1398 -0.0655
  690SOL    HW1 2194   0.483   3.271   1.033  0.1070 -0.6597  0.1027
  690SOL    HW2 2195   0.608   3.216   1.099  0.7366  0.6058 -0.0221
  691SOL     OW 2196   2.596   0.944   0.497 -0.2630  0.2591  0.1579
  691SOL    HW1 2197   2.505   0.922   0.478 -0.5166  1.0367  0.4431
  691SOL    HW2 2198   2.614   1.020   0.442  0.5018 -0.4342 -0.5770
  692SOL     OW 2199   0.529   1.301   1.848 -0.1960 -0.0520  0.1126
  692SOL    HW1 2200   0.614   1.311   1.891 -0.2494  0.0989  0.1824
  692SOL    HW2 2201   0.494   1.219   1.883  0.1006 -0.3249 -0.2220
  693SOL     OW 2202   1.918   0.067   2.360 -0.3753  0.6348  0.3849
  693SOL    HW1 2203   1.912   0.019   2.443 -3.6903  2.8922  1.6852
  693SOL    HW2 2204   2.002   0.112   2.365  0.2931 -0.6665  1.6627
  694SOL     OW 2205   2.427   2.640   0.522  0.2261  0.0860 -0.4548
  694SOL    HW1 2206   2.341   2.647   0.565 -0.4503  1.3053 -1.9192
  694SOL    HW2 2207   2.431   2.551   0.489  0.2996 -0.5339  1.1503
  695SOL     OW 2208   1.009   2.348   1.764  0.0366  0.1918 -0.1613
  695SOL    HW1 2209   0.959   2.268   1.750  0.8632 -0.2642 -0.5833
  695SOL    HW2 2210   1.045   2.369   1.677  1.8064 -0.3471  0.3926
  696SOL     OW 2211   3.094   1.225   3.320  0.3043  0.5926  0.0792
  696SOL    HW1 2212   3.026   1.291   3.334 -0.5236  0.0549 -1.2713
  696SOL    HW2 2213   3.115   1.193   3.408 -0.0187  1.9014  0.6566
  697SOL     OW 2214   2.323   2.938   1.197 -0.0327 -0.2153  0.0198
  697SOL    HW1 2215   2.312   2.846   1.221 -0.2842 -0.0119  0.7149
  697SOL    HW2 2216   2.418   2.953   1.205  0.7034 -1.4710 -4.1280
  698SOL     OW 2217   2.921   2.054   2.801  0.9521  0.0417  0.2884
  698SOL    HW1 2218   2.930   2.137   2.847  0.3437 -0.0476  0.5748
  698SOL    HW2 2219   2.908   2.078   2.710  4.1906  0.1988 -0.2548
  699SOL     OW 2220   3.643   2.457   3.088  0.1929 -0.1109  0.9322
  699SOL    HW1 2221   3.714   2.448   3.025 -0.7826  0.9059 -0.3896
  699SOL    HW2 2222   3.665   2.536   3.138  0.7623 -0.6885  1.6147
  700SOL     OW 2223   2.913   3.306   0.161  0.3635  0.2072 -0.4652
  700SOL    HW1 2224   2.900   3.215   0.189  0.4266  0.7912  1.6193
  700SOL    HW2 2225   2.947   3.350   0.239  0.3675  2.0222 -1.4484
  701SOL     OW 2226   1.823   0.095   1.843 -0.3002  0.4972 -0.2365
  701SOL    HW1 2227   1.895   0.097   1.906  0.5294 -0.3338 -1.1107
  701SOL    HW2 2228   1.863   0.059   1.763 -1.7645 -0.2546 -0.6560
  702SOL     OW 2229   1.499   2.493   1.859  0.0477  0.1009  0.1612
  702SOL    HW1 2230   1.592   2.503   1.837 -0.5370  3.9879 -1.5030
  702SOL    HW2 2231   1.456   2.483   1.774 -1.1677 -0.0706  0.7814
  703SOL     OW 2232   1.945   1.679   0.243  0.4109 -0.1127 -0.0822
  703SOL    HW1 2233   2.012   1.619   0.211  1.2334  0.3945  0.6499
  703SOL    HW2 2234   1.932   1.654   0.334  0.3282  0.4298  0.0568
  704SOL     OW 2235   2.522   2.352   2.679  0.0711  0.5210  0.3429
  704SOL    HW1 2236   2.464   2.318   2.611 -0.1760  2.6871 -0.6160
  704SOL    HW2 2237   2.467   2.411   2.730  0.2904 -0.9993  2.4245
  705SOL     OW 2238   2.862   0.694   3.678 -0.2238 -0.2897  0.3230
  705SOL    HW1 2239   2.775   0.697   3.718 -0.0289 -1.2063  0.8568
  705SOL    HW2 2240   2.873   0.602   3.653  0.7919 -0.2923  0.7456
  706SOL     OW 2241   2.511   0.512   1.158  0.1121 -0.3560  0.1086
  706SOL    HW1 2242   2.522   0.475   1.246 -1.2044 -1.9277 -0.3171
  706SOL    HW2 2243   2.577   0.468   1.105  0.6205  0.2691  0.2173
  707SOL     OW 2244   3.485   0.440   3.552  0.1298 -0.1383  0.9892
  707SOL    HW1 2245   3.545   0.492   3.497 -0.3860 -0.2489  0.3051
  707SOL    HW2 2246   3.543   0.395   3.614  0.7289  0.0091  0.5495
  708SOL     OW 2247   1.311   0.644   3.378  1.2408 -0.1694  0.4094
  708SOL    HW1 2248   1.254   0.638   3.454 -0.1800  0.8431 -0.5065
  708SOL    HW2 2249   1.251   0.643   3.303  2.3737  1.2422 -0.5894
  709SOL     OW 2250   0.863   1.342   0.540  0.1372 -0.2982  0.5118
  709SOL    HW1 2251   0.947   1.319   0.500 -0.8651 -0.5000 -1.5451
  709SOL    HW2 2252   0.852   1.278   0.611  1.5075 -0.5173  0.5533
  710SOL     OW 2253   2.284   0.678   1.228 -0.0854  0.1882 -0.1946
  710SOL    HW1 2254   2.357   0.639   1.180 -0.4444  0.7894 -1.2737
  710SOL    HW2 2255   2.325   0.729   1.298  0.3888 -2.3955  1.5547
  711SOL     OW 2256   0.614   3.161   2.389 -0.7408 -0.3386  0.1591
  711SOL    HW1 2257   0.563   3.084   2.415  1.0222 -1.5829  0.1376
  711SOL    HW2 2258   0.687   3.125   2.338  1.8826  0.9809  2.7243
  712SOL     OW 2259   1.732   3.353   2.732 -0.2622  0.6850 -0.5547
  712SOL    HW1 2260   1.730   3.264   2.769 -1.8494  0.4458 -1.1474
  712SOL    HW2 2261   1.722   3.340   2.638  0.9470  1.4444 -0.8125
  713SOL     OW 2262   1.672   3.122   1.324 -0.9913  0.3124  0.0481
  713SOL    HW1 2263   1.656   3.206   1.368 -0.3581  0.0442  0.8215
  713SOL    HW2 2264   1.677   3.059   1.396 -0.5081 -0.2287 -0.4548
  714SOL     OW 2265   0.820   0.481   0.031 -0.1398 -0.1789 -0.3959
  714SOL    HW1 2266   0.838   0.501  -0.061  0.8078 -0.2577 -0.2346
  714SOL    HW2 2267   0.735   0.437   0.030 -0.9993  1.4213 -1.0456
  715SOL     OW 2268   2.037   0.572   1.062  0.7119 -0.6375 -0.0166
  715SOL    HW1 2269   2.041   0.572   0.967 -0.7854 -1.2544 -0.1191
  715SOL    HW2 2270   2.093   0.645   1.089  0.9654 -0.3060 -1.3700
  716SOL     OW 2271   2.914   3.242   0.631 -0.3793 -0.0767  0.4427
  716SOL    HW1 2272   2.967   3.167   0.604 -1.6719 -0.6417 -0.6359
  716SOL    HW2 2273   2.910   3.298   0.554 -0.1963  0.6674  0.9581
  717SOL     OW 2274   1.453   3.117   2.697  0.5170 -0.3220 -0.2686
  717SOL    HW1 2275   1.404   3.138   2.777  1.5429  1.8945 -0.1653
  717SOL    HW2 2276   1.545   3.123   2.723  0.8617  0.4288 -1.6098
  718SOL     OW 2277   0.371   1.720   1.426 -0.1923  0.3946  0.0452
  718SOL    HW1 2278   0.422   1.663   1.483  1.0121  0.4116 -0.9709
  718SOL    HW2 2279   0.329   1.782   1.485 -1.1208 -1.1884  1.1355
  719SOL     OW 2280   2.322   1.380   2.408  0.0928 -0.0375 -0.2466
  719SOL    HW1 2281   2.341   1.473   2.404 -1.2188  0.2151 -1.2455
  719SOL    HW2 2282   2.266   1.369   2.485 -1.4856  0.3782 -1.2782
  720SOL     OW 2283   0.833   0.060   2.153 -0.0456  0.1298  0.3775
  720SOL    HW1 2284   0.821   0.105   2.069 -0.6075 -1.5656 -0.5064
  720SOL    HW2 2285   0.759   0.089   2.206 -0.5237  0.1094 -0.2551
  721SOL     OW 2286   0.401   3.229   3.301  0.5366  0.4408  0.3059
  721SOL    HW1 2287   0.465   3.242   3.231 -0.3779 -0.0117 -0.6441
  721SOL    HW2 2288   0.440   3.161   3.357  0.6868 -0.1806 -0.5366
  722SOL     OW 2289   0.287   0.829   2.510 -0.1031  0.1658  0.2926
  722SOL    HW1 2290   0.267   0.770   2.584  1.6248 -0.5885  0.2163
  722SOL    HW2 2291   0.278   0.774   2.433  3.7636 -0.8453  0.3324
  723SOL     OW 2292   1.357   1.045   3.602 -0.3414  0.1191  0.1197
  723SOL    HW1 2293   1.351   1.108   3.673 -1.8005  0.3004 -0.1421
  723SOL    HW2 2294   1.366   0.960   3.645 -1.6829  0.1753  0.5498
  724SOL     OW 2295   3.050   1.583   0.643  0.1194 -0.1452  0.2470
  724SOL    HW1 2296   3.078   1.493   0.630  1.7834  0.4150 -0.3769
  724SOL    HW2 2297   3.100   1.613   0.720  0.2452  0.4932 -0.0714
  725SOL     OW 2298   3.601   2.038   2.186 -0.1303  0.1408 -0.2734
  725SOL    HW1 2299   3.651   2.104   2.234 -0.1189 -0.0079 -0.0785
  725SOL    HW2 2300   3.532   2.087   2.142 -2.4747 -0.0917  2.8328
  726SOL     OW 2301   3.323   0.486   1.636  0.2812 -0.4838  0.0426
  726SOL    HW1 2302   3.344   0.450   1.722  0.4025 -0.2341  0.1180
  726SOL    HW2 2303   3.369   0.570   1.633  0.7463 -0.7457 -0.4801
  727SOL     OW 2304   0.033   0.580   3.287  0.3386 -0.2079 -0.5704
  727SOL    HW1 2305  -0.038   0.522   3.258 -1.0293  1.2030 -0.1757
  727SOL    HW2 2306   0.021   0.660   3.236 -0.2821  1.1964  1.6054
  728SOL     OW 2307   3.329   0.237   0.025  0.4993 -0.8154  0.7715
  728SOL    HW1 2308   3.398   0.172   0.015  0.2894 -0.8097 -0.8843
  728SOL    HW2 2309   3.375   0.319   0.045  0.9568 -0.8971  0.0692
  729SOL     OW 2310   2.790   3.380   3.421 -0.1644 -0.6590 -0.2267
  729SOL    HW1 2311   2.722   3.376   3.353 -0.1564  0.0932 -0.2869
  729SOL    HW2 2312   2.748   3.426   3.493 -0.6297 -2.6529  0.8415
  730SOL     OW 2313   3.266   0.603   2.971 -0.4748  0.2387 -0.1563
  730SOL    HW1 2314   3.319   0.683   2.970 -1.5516  1.0125  1.3114
  730SOL    HW2 2315   3.212   0.611   3.049 -2.0199 -1.0158 -1.0334
  731SOL     OW 2316   1.129   3.365   2.428  0.5185  0.0438 -0.1823
  731SOL    HW1 2317   1.192   3.304   2.389 -0.4331 -1.2811  0.2794
  731SOL    HW2 2318   1.170   3.393   2.510  0.6666 -0.5460 -0.0469
  732SOL     OW 2319   0.728   1.594   0.830  0.2178 -0.2951 -0.3201
  732SOL    HW1 2320   0.768   1.631   0.909  1.5692  0.4174 -1.3080
  732SOL    HW2 2321   0.688   1.669   0.786  1.4962 -0.2679 -1.4755
  733SOL     OW 2322   0.619   0.958   0.934  0.4857  0.1921 -0.5857
  733SOL    HW1 2323   0.530   0.962   0.967 -0.0463  2.1387 -2.0854
  733SOL    HW2 2324   0.615   0.894   0.863  0.2423  0.3715 -0.7353
  734SOL     OW 2325   2.097   0.886   0.500 -0.3181  0.1968  0.7150
  734SOL    HW1 2326   2.062   0.969   0.467 -0.8345 -0.2201  0.1934
  734SOL    HW2 2327   2.020   0.834   0.523 -0.0107 -0.2177  0.8280
  735SOL     OW 2328   3.315   2.961   0.556 -0.2379 -0.4837 -0.2097
  735SOL    HW1 2329   3.360   3.045   0.554  0.1591 -0.7047 -0.6935
  735SOL    HW2 2330   3.284   2.948   0.466  0.5148 -1.2891 -0.3636
  736SOL     OW 2331   3.657   3.293   0.797  0.6179 -0.3474  0.3604
  736SOL    HW1 2332   3.701   3.376   0.777 -3.6763  1.5063 -3.1543
  736SOL    HW2 2333   3.719   3.226   0.772  3.1479  1.8470  0.3142
  737SOL     OW 2334   3.030   3.500   2.058 -0.1341  0.7440  0.1444
  737SOL    HW1 2335   2.955   3.464   2.011 -0.2547  1.9791 -0.6444
  737SOL    HW2 2336   3.079   3.549   1.992  0.5846  1.1566  0.9588
  738SOL     OW 2337   3.431   3.371   3.601  0.4860 -0.3539 -0.0065
  738SOL    HW1 2338   3.364   3.396   3.538  0.9787  0.5673 -0.1897
  738SOL    HW2 2339   3.504   3.431   3.584  0.2945  0.5554  2.0355
  739SOL     OW 2340   1.188   3.601   2.257 -0.4310  0.4233  0.1285
  739SOL    HW1 2341   1.116   3.581   2.197  0.7090 -0.6987 -0.9243
  739SOL    HW2 2342   1.234   3.518   2.268  0.9290  1.1850  0.4563
  740SOL     OW 2343   2.657   0.599   2.932 -0.1688  0.5351 -0.5028
  740SOL    HW1 2344   2.604   0.625   3.008 -0.3003  0.0712 -0.4336
  740SOL    HW2 2345   2.641   0.506   2.922  1.6908  0.0748  0.3547
  741SOL     OW 2346   0.274   1.682   2.395  0.3291  0.7768  0.1566
  741SOL    HW1 2347   0.252   1.673   2.303  1.1973  0.3428 -0.0173
  741SOL    HW2 2348   0.328   1.762   2.400  1.7091 -0.1161  0.0060
  742SOL     OW 2349   2.262   1.104   1.380  0.2467  0.4009  0.1446
  742SOL    HW1 2350   2.271   1.083   1.473 -0.2519 -1.9571 -0.2719
  742SOL    HW2 2351   2.316   1.039   1.335 -0.5132  0.7027 -1.2722
  743SOL     OW 2352   3.640   0.516   1.843 -0.8405  0.0102 -0.3922
  743SOL    HW1 2353   3.620   0.598   1.887  0.1030 -0.3434  0.7603
  743SOL    HW2 2354   3.629   0.535   1.750 -0.0680  1.6124 -0.1947
  744SOL     OW 2355   0.880   3.074   1.251  0.3467  0.3569 -0.1800
  744SOL    HW1 2356   0.872   3.108   1.162  0.6220  0.0783 -0.3145
  744SOL    HW2 2357   0.797   3.095   1.292  0.0904  0.1941 -0.6054
  745SOL     OW 2358   1.692   2.317   0.284 -0.1643  0.0799  0.0476
  745SOL    HW1 2359   1.662   2.271   0.206 -0.7374  0.2430  0.1716
  745SOL    HW2 2360   1.622   2.305   0.348 -0.8567  2.0267 -0.2637
  746SOL     OW 2361   0.046   0.119   0.928  0.3531 -0.0982 -0.4977
  746SOL    HW1 2362  -0.035   0.164   0.903  0.6322  1.5901  1.3961
  746SOL    HW2 2363   0.074   0.162   1.009  1.5658 -2.6360  0.5515
  747SOL     OW 2364   3.378   1.011   0.912 -0.7442  0.6291  0.4712
  747SOL    HW1 2365   3.308   1.007   0.847 -0.1918  0.1828 -0.1135
  747SOL    HW2 2366   3.334   1.004   0.997 -1.3550 -0.1952  0.0927
  748SOL     OW 2367   3.166   0.871   2.826  0.6990  0.5619  0.1971
  748SOL    HW1 2368   3.165   0.945   2.887  0.5745 -0.8132  1.9741
  748SOL    HW2 2369   3.103   0.809   2.863  0.7995 -0.4293 -1.2250
  749SOL     OW 2370   0.372   3.007   1.392 -0.0758  0.0768 -0.8561
  749SOL    HW1 2371   0.351   2.982   1.482 -1.8224 -0.5470 -1.4143
  749SOL    HW2 2372   0.417   2.930   1.356 -1.9882 -0.8344 -1.3846
  750SOL     OW 2373   2.196   2.674   0.241  0.3419  0.8093 -0.5410
  750SOL    HW1 2374   2.142   2.597   0.256  3.2112 -1.3149 -0.3279
  750SOL    HW2 2375   2.145   2.747   0.276 -2.3179 -1.0186 -0.3948
  751SOL     OW 2376   0.005   2.798   0.254 -0.1220  0.0364  0.6600
  751SOL    HW1 2377   0.021   2.721   0.200 -0.0235  0.4094  0.1435
  751SOL    HW2 2378   0.088   2.812   0.300 -0.4114 -0.6641  1.4156
  752SOL     OW 2379   0.086   3.501   2.477 -0.1651  0.6805 -0.6967
  752SOL    HW1 2380   0.047   3.430   2.528 -0.6777 -0.0958 -2.1173
  752SOL    HW2 2381   0.179   3.479   2.473 -0.1170  0.7480 -0.1319
  753SOL     OW 2382   1.056   0.860   2.017  0.1057  0.0704 -0.7672
  753SOL    HW1 2383   1.079   0.769   1.998 -1.6853 -0.4599 -0.5997
  753SOL    HW2 2384   1.090   0.909   1.942 -0.2271 -0.9523 -1.6197
  754SOL     OW 2385   1.837   2.241   0.494 -0.0512  1.0633 -0.4737
  754SOL    HW1 2386   1.866   2.152   0.512 -2.9339  0.1858  0.5003
  754SOL    HW2 2387   1.851   2.252   0.400  1.6870  0.1664 -0.3658
  755SOL     OW 2388   3.333   3.477   1.140  0.7115 -0.7239  0.0283
  755SOL    HW1 2389   3.303   3.567   1.154  0.5819 -0.6609 -0.6301
  755SOL    HW2 2390   3.382   3.456   1.219 -0.9357 -0.7774  1.0661
  756SOL     OW 2391   2.242   1.640   0.478  0.1203  0.1411 -0.2626
  756SOL    HW1 2392   2.166   1.602   0.435  0.7675 -2.3228  0.5960
  756SOL    HW2 2393   2.295   1.675   0.407 -0.3647 -0.9102 -1.1678
  757SOL     OW 2394   0.563   0.665   3.270 -0.5931 -0.1445 -0.1608
  757SOL    HW1 2395   0.630   0.708   3.322  0.9177 -1.6552 -0.7313
  757SOL    HW2 2396   0.487   0.658   3.328 -0.0867  1.1226  0.6932
  758SOL     OW 2397   2.899   3.271   1.613  0.6940  0.7406 -0.5867
  758SOL    HW1 2398   2.841   3.217   1.667 -2.2964  1.9837 -2.3151
  758SOL    HW2 2399   2.987   3.247   1.642 -0.5356 -2.6310  0.9370
  759SOL     OW 2400   2.431   2.674   1.090 -0.5066 -0.5786  0.0027
  759SOL    HW1 2401   2.472   2.750   1.049 -1.2230  0.3603  0.9326
  759SOL    HW2 2402   2.490   2.650   1.161  0.0975 -1.3929 -0.7573
  760SOL     OW 2403   2.472   2.418   0.422  0.0304 -0.3521 -0.2818
  760SOL    HW1 2404   2.412   2.347   0.444 -0.2107  0.1324  0.6443
  760SOL    HW2 2405   2.554   2.373   0.398  1.5092 -1.0208  4.8185
  761SOL     OW 2406   0.361   2.322   2.213  0.0033  0.0427  0.0622
  761SOL    HW1 2407   0.442   2.373   2.222 -1.1173  1.7192  1.1486
  761SOL    HW2 2408   0.360   2.266   2.290  1.2500 -1.7690 -1.1469
  762SOL     OW 2409   1.878   3.463   1.316  0.1602 -0.1971 -0.3353
  762SOL    HW1 2410   1.915   3.536   1.268  0.2122  0.1690  0.2590
  762SOL    HW2 2411   1.793   3.495   1.347 -0.5177 -0.9050 -1.3787
  763SOL     OW 2412   2.590   0.059   2.855 -0.2087  0.2714 -0.1851
  763SOL    HW1 2413   2.504   0.045   2.894  0.2180 -3.4349 -0.1979
  763SOL    HW2 2414   2.646  -0.005   2.898  2.0631  1.1998 -1.6142
  764SOL     OW 2415   2.268   3.661   0.988  0.5157  0.0734 -0.1336
  764SOL    HW1 2416   2.323   3.591   0.954  1.2452  0.6795 -0.2169
  764SOL    HW2 2417   2.293   3.738   0.938  0.0051  0.4848  0.2375
  765SOL     OW 2418   0.298   0.129   0.378 -0.2739 -0.5661 -0.5043
  765SOL    HW1 2419   0.310   0.087   0.293 -0.5419  1.5712 -1.6743
  765SOL    HW2 2420   0.228   0.192   0.363 -0.4157 -0.2419  1.3601
  766SOL     OW 2421   2.490   0.377   0.567 -0.2517 -0.3643  0.1738
  766SOL    HW1 2422   2.508   0.307   0.630 -0.7809 -1.1489 -0.5206
  766SOL    HW2 2423   2.421   0.429   0.607  1.5626  1.0401  1.6316
  767SOL     OW 2424   1.403   1.557   0.666 -0.8057  0.1933 -0.0118
  767SOL    HW1 2425   1.325   1.609   0.651 -1.3771 -0.6986 -0.1729
  767SOL    HW2 2426   1.372   1.467   0.675  0.2976 -0.3596 -1.2805
  768SOL     OW 2427   1.180   0.124   3.467  0.2566 -0.6229 -0.5636
  768SOL    HW1 2428   1.119   0.196   3.452  1.4341  0.4489 -0.4022
  768SOL    HW2 2429   1.260   0.150   3.420  0.3971 -2.2873 -1.3093
  769SOL     OW 2430   0.355   2.597   2.744  0.1225  0.4151  0.3508
  769SOL    HW1 2431   0.397   2.620   2.661 -0.3254  0.2770  0.0834
  769SOL    HW2 2432   0.423   2.551   2.793  0.1240 -0.2812 -0.2874
  770SOL     OW 2433   2.802   3.630   1.291  0.0591  0.7560 -0.0380
  770SOL    HW1 2434   2.797   3.539   1.319  1.3759  0.1571 -1.6146
  770SOL    HW2 2435   2.757   3.679   1.361 -1.0717 -1.1093  0.6197
  771SOL     OW 2436   3.499   1.134   0.717 -0.6828 -0.3482 -0.0870
  771SOL    HW1 2437   3.480   1.087   0.798  0.4174  0.8584  0.9147
  771SOL    HW2 2438   3.545   1.070   0.663  0.2648 -0.6259  1.0081
  772SOL     OW 2439   1.405   1.347   2.308  0.3304 -0.3211 -0.2382
  772SOL    HW1 2440   1.393   1.265   2.259 -0.3029 -1.5315  1.7905
  772SOL    HW2 2441   1.379   1.324   2.398 -2.0371  2.6545  0.0068
  773SOL     OW 2442   3.489   2.100   0.664  0.1471  0.7679  0.6798
  773SOL    HW1 2443   3.490   2.120   0.571 -1.3136 -0.6885  0.3089
  773SOL    HW2 2444   3.396   2.088   0.685  0.6394 -2.8496  1.3950
  774SOL     OW 2445   2.736   1.208   0.343 -0.2087 -0.2168  0.2385
  774SOL    HW1 2446   2.826   1.181   0.361 -0.3185 -0.1014  0.9889
  774SOL    HW2 2447   2.742   1.300   0.319 -0.1775 -0.0747  0.7834
  775SOL     OW 2448   0.170   2.223   3.271 -0.3695  0.3243  0.4616
  775SOL    HW1 2449   0.172   2.282   3.347 -3.8016  1.1451  0.0687
  775SOL    HW2 2450   0.093   2.168   3.285  0.6044 -1.5512 -1.0442
  776SOL     OW 2451   2.354   3.655   2.946  0.3781 -0.4317  0.2191
  776SOL    HW1 2452   2.290   3.691   3.008 -0.5436 -2.5802  0.6147
  776SOL    HW2 2453   2.301   3.626   2.871  1.3036  0.7206 -0.9323
  777SOL     OW 2454   1.967   1.396   2.332 -0.1246 -0.0200  0.7935
  777SOL    HW1 2455   1.962   1.401   2.237  1.3330 -1.4928  0.6154
  777SOL    HW2 2456   1.880   1.366   2.359 -0.2291 -0.5794 -0.1448
  778SOL     OW 2457   1.925   3.469   0.111 -0.3417  0.1710 -0.5623
  778SOL    HW1 2458   1.914   3.564   0.117 -3.4007 -0.1598  0.7023
  778SOL    HW2 2459   1.870   3.444   0.036  0.5338 -0.6201 -0.9585
  779SOL     OW 2460   3.172   1.116   1.130 -0.0651  0.0340  0.5088
  779SOL    HW1 2461   3.193   1.145   1.219  0.1306 -0.9035  0.7773
  779SOL    HW2 2462   3.079   1.097   1.132 -0.2789  0.9926  0.2236
  780SOL     OW 2463   0.165   0.816   1.389  0.0782  0.0745  0.2306
  780SOL    HW1 2464   0.209   0.747   1.437  0.4852  0.5888  0.6027
  780SOL    HW2 2465   0.146   0.883   1.454 -4.1801 -1.4184  0.8840
  781SOL     OW 2466   3.179   0.368   1.407 -0.2029  0.6600  0.2344
  781SOL    HW1 2467   3.086   0.365   1.383 -0.2507  0.3402  0.4614
  781SOL    HW2 2468   3.179   0.394   1.499 -0.0258  1.6491 -0.0315
  782SOL     OW 2469   3.150   3.207   1.669  0.1136  0.2924  0.5352
  782SOL    HW1 2470   3.182   3.140   1.609  0.9559  0.3354  0.9287
  782SOL    HW2 2471   3.222   3.222   1.730 -0.1282  1.4209  0.5647
  783SOL     OW 2472   3.472   0.156   3.250  0.0343 -0.4901  0.3871
  783SOL    HW1 2473   3.380   0.143   3.273 -0.7256  0.4689 -1.7991
  783SOL    HW2 2474   3.478   0.248   3.223  1.5906 -0.5793  0.3039
  784SOL     OW 2475   2.286   1.387   3.016  0.1669 -0.0484 -0.2989
  784SOL    HW1 2476   2.218   1.350   2.960 -0.6563 -0.2434  0.8022
  784SOL    HW2 2477   2.322   1.459   2.965 -0.0796 -0.6540 -1.3615
  785SOL     OW 2478   1.734   0.595   2.450 -0.2159 -0.6809 -0.4856
  785SOL    HW1 2479   1.792   0.550   2.389 -0.0122 -1.2522  0.1177
  785SOL    HW2 2480   1.723   0.533   2.522  0.1616  0.2754  0.4135
  786SOL     OW 2481   1.040   0.958   1.483 -0.0670  0.4829  0.1143
  786SOL    HW1 2482   1.119   0.972   1.431  0.2613 -1.1329  0.1330
  786SOL    HW2 2483   0.969   0.961   1.419  0.2627 -0.6800 -0.3259
  787SOL     OW 2484   1.658   1.174   3.328  0.4029 -0.4788 -0.0587
  787SOL    HW1 2485   1.702   1.155   3.245  0.2253 -0.7112 -0.0999
  787SOL    HW2 2486   1.565   1.174   3.307  0.3614 -0.4406  0.1208
  788SOL     OW 2487   0.286   0.880   0.108  0.3948 -0.3294 -0.5000
  788SOL    HW1 2488   0.334   0.910   0.031  2.4531  0.3265  0.9449
  788SOL    HW2 2489   0.315   0.790   0.120 -1.0819 -0.9467 -1.3061
  789SOL     OW 2490   1.072   0.377   0.066 -0.6794  0.5776  0.1972
  789SOL    HW1 2491   1.077   0.284   0.090  1.4353  1.0305  1.8034
  789SOL    HW2 2492   0.991   0.407   0.108  0.7163  0.3192  3.4198
  790SOL     OW 2493   3.456   2.677   1.993 -0.2077 -0.3418 -0.0116
  790SOL    HW1 2494   3.384   2.684   2.056 -1.0143  0.7908 -1.0311
  790SOL    HW2 2495   3.470   2.767   1.963  2.2988 -0.3610  0.8667
  791SOL     OW 2496   0.121   0.465   1.297 -0.1361 -0.4173 -0.2318
  791SOL    HW1 2497   0.134   0.396   1.232 -0.5073 -0.5476 -0.1733
  791SOL    HW2 2498   0.068   0.423   1.365 -2.6083  0.6109 -1.3994
  792SOL     OW 2499   2.598   1.946   3.504 -0.0757  0.1166 -0.0000
  792SOL    HW1 2500   2.659   1.920   3.572 -0.0738 -1.1526 -0.4654
  792SOL    HW2 2501   2.513   1.947   3.548 -0.0315 -0.3804  0.1037
  793SOL     OW 2502   3.195   1.962   0.347  0.0662  0.6415 -0.1987
  793SOL    HW1 2503   3.163   1.961   0.257  0.8959  0.9628 -0.5154
  793SOL    HW2 2504   3.290   1.954   0.338  0.0671 -0.5997  0.7175
  794SOL     OW 2505   3.118   1.567   2.671 -0.3604  0.6448  0.0252
  794SOL    HW1 2506   3.078   1.642   2.628 -0.5146  0.4143 -0.2399
  794SOL    HW2 2507   3.096   1.493   2.614  0.1499  0.4644  0.0613
  795SOL     OW 2508   2.541   2.551   0.744 -0.3801  0.7219 -0.1720
  795SOL    HW1 2509   2.475   2.510   0.800 -0.6602  0.9803 -0.3137
  795SOL    HW2 2510   2.491   2.603   0.681 -0.1182 -0.4026 -1.3412
  796SOL     OW 2511   3.544   2.395   2.022  0.1971  0.2516 -0.2130
  796SOL    HW1 2512   3.612   2.433   2.076  1.6699 -1.7286 -0.5557
  796SOL    HW2 2513   3.530   2.458   1.951  0.2364  1.5671  0.9212
  797SOL     OW 2514   1.037   0.333   2.723 -0.6544 -0.3696 -0.3132
  797SOL    HW1 2515   0.954   0.334   2.772  0.8101  0.9732  2.4044
  797SOL    HW2 2516   1.029   0.259   2.663 -3.9332 -0.0719 -0.4486
  798SOL     OW 2517   2.932   1.383   0.233 -0.5394  0.2187 -0.1119
  798SOL    HW1 2518   3.010   1.329   0.218  0.2654  0.8039  1.6721
  798SOL    HW2 2519   2.963   1.473   0.221 -1.2554  0.4169 -0.5422
  799SOL     OW 2520   3.605   1.197   1.906  0.2319 -0.5137  0.0381
  799SOL    HW1 2521   3.541   1.209   1.835 -0.5943 -0.3644  0.7854
  799SOL    HW2 2522   3.605   1.102   1.922  1.9068 -0.8186 -1.4755
  800SOL     OW 2523   2.887   2.087   1.166  0.0522 -0.0600 -0.6900
  800SOL    HW1 2524   2.894   2.036   1.247 -1.5849  0.0682 -0.4421
  800SOL    HW2 2525   2.946   2.162   1.181 -0.2951  0.0158  0.4230
  801SOL     OW 2526   2.821   2.350   0.332 -0.4591 -0.5919  0.0625
  801SOL    HW1 2527   2.836   2.406   0.408 -0.6253  0.1416 -0.4371
  801SOL    HW2 2528   2.758   2.284   0.362  0.8122 -1.3746  1.0603
  802SOL     OW 2529   0.352   3.406   0.547 -0.2002 -0.0574  0.4220
  802SOL    HW1 2530   0.428   3.464   0.554 -0.8194  1.0647 -1.3722
  802SOL    HW2 2531   0.374   3.347   0.475 -1.9879  2.0119 -2.0105
  803SOL     OW 2532   2.778   3.058   1.366  0.3643 -0.3503  0.0352
  803SOL    HW1 2533   2.694   3.091   1.333  0.1582  1.3469  2.0259
  803SOL    HW2 2534   2.836   3.134   1.361  2.8507 -2.2322 -4.2202
  804SOL     OW 2535   0.086   0.299   3.649  0.7270  0.4002  0.4694
  804SOL    HW1 2536   0.151   0.307   3.580 -0.1014 -1.6734 -0.6619
  804SOL    HW2 2537   0.061   0.389   3.670  2.7398  1.1710 -0.2020
  805SOL     OW 2538   2.704   1.842   0.039  0.3843 -0.0972 -0.3004
  805SOL    HW1 2539   2.740   1.761   0.076  0.6083 -0.0053 -0.3147
  805SOL    HW2 2540   2.685   1.896   0.116  0.5035 -0.0517 -0.3024
  806SOL     OW 2541   1.288   2.676   1.265  0.3030  0.4536 -0.5212
  806SOL    HW1 2542   1.220   2.742   1.258 -1.7914 -1.4276  0.5770
  806SOL    HW2 2543   1.349   2.696   1.194  0.1803  3.9031  0.1903
  807SOL     OW 2544   0.189   3.413   3.397 -0.3810  0.0752 -0.3921
  807SOL    HW1 2545   0.244   3.336   3.385 -0.3512  0.1752 -0.9183
  807SOL    HW2 2546   0.245   3.475   3.443 -0.1586  0.0517 -0.6235
  808SOL     OW 2547   1.134   2.655   1.868  0.4124  0.0741 -0.1965
  808SOL    HW1 2548   1.207   2.629   1.925  0.3005  0.3146  0.0601
  808SOL    HW2 2549   1.070   2.694   1.928 -0.0975 -0.4891 -0.3651
  809SOL     OW 2550   0.736   2.162   0.839  0.5554 -0.5999  0.4544
  809SOL    HW1 2551   0.669   2.150   0.907  1.2432 -1.1836  1.0369
  809SOL    HW2 2552   0.794   2.229   0.875  1.8671 -2.0878  1.2018
  810SOL     OW 2553   2.944   2.301   3.127 -0.6582  0.2832  0.1955
  810SOL    HW1 2554   2.976   2.389   3.105  1.1279 -0.0364  1.2601
  810SOL    HW2 2555   2.985   2.282   3.212 -0.9888 -1.5829 -0.0306
  811SOL     OW 2556   3.589   3.218   3.192  0.3554  0.5472 -0.6792
  811SOL    HW1 2557   3.591   3.307   3.228 -0.2305  0.8789 -1.4555
  811SOL    HW2 2558   3.628   3.226   3.105 -0.0015  0.1083 -0.8837
  812SOL     OW 2559   2.977   3.226   1.309 -0.4294  0.2849  0.4125
  812SOL    HW1 2560   3.012   3.297   1.255 -1.5438  0.9423  0.5288
  812SOL    HW2 2561   2.942   3.270   1.386  0.4921 -0.5765  1.3605
  813SOL     OW 2562   2.002   3.238   1.844  0.4516 -0.3258 -0.7133
  813SOL    HW1 2563   1.989   3.153   1.887 -1.0043  0.4964  0.5986
  813SOL    HW2 2564   1.937   3.295   1.885  0.7636  1.1931 -2.2344
  814SOL     OW 2565   1.140   2.809   3.333 -0.0355 -0.0679  0.1778
  814SOL    HW1 2566   1.200   2.734   3.334 -0.5177 -0.4586  1.5683
  814SOL    HW2 2567   1.177   2.868   3.266  1.1624 -0.8862  0.0838
  815SOL     OW 2568   1.734   0.764   1.606  0.2799 -0.2012 -0.1271
  815SOL    HW1 2569   1.748   0.684   1.556 -0.3489 -1.4976  1.6474
  815SOL    HW2 2570   1.818   0.779   1.650 -0.4303 -1.6937  1.9068
  816SOL     OW 2571   2.775   3.564   2.333  0.1601 -0.0156 -0.1942
  816SOL    HW1 2572   2.735   3.607   2.257 -0.2350  1.5072  0.8377
  816SOL    HW2 2573   2.777   3.631   2.400  3.6440 -0.2649  0.1311
  817SOL     OW 2574   3.499   2.458   0.191  0.1992 -0.4177 -0.0732
  817SOL    HW1 2575   3.584   2.438   0.153 -0.3808  0.5585 -1.9923
  817SOL    HW2 2576   3.470   2.376   0.230  0.9109 -1.4285 -1.6127
  818SOL     OW 2577   0.532   3.012   0.896 -0.0216  0.0915  0.4077
  818SOL    HW1 2578   0.525   3.087   0.955 -0.5187  1.0565 -0.8591
  818SOL    HW2 2579   0.448   2.966   0.907 -0.6476  0.9839 -0.4733
  819SOL     OW 2580   1.421   0.884   2.711  0.1830 -0.0227  0.1985
  819SOL    HW1 2581   1.509   0.888   2.749  0.4197  1.8291 -0.4484
  819SOL    HW2 2582   1.429   0.932   2.629 -1.1278 -1.0172 -0.5405
  820SOL     OW 2583   2.792   1.649   0.247 -1.1107  0.2718 -0.6772
  820SOL    HW1 2584   2.787   1.624   0.339 -1.0217 -1.3601 -1.0856
  820SOL    HW2 2585   2.736   1.586   0.202 -1.8112  1.5449 -1.6718
  821SOL     OW 2586   0.570   2.997   0.153 -0.3574 -0.0985 -0.0730
  821SOL    HW1 2587   0.603   2.907   0.154 -1.2493 -0.4880 -1.7469
  821SOL    HW2 2588   0.639   3.049   0.193  1.5415 -1.1116 -1.8674
  822SOL     OW 2589   1.245   1.960   0.999  0.0745  0.7023  0.4012
  822SOL    HW1 2590   1.282   1.989   0.916  1.2170  1.5859  1.1972
  822SOL    HW2 2591   1.315   1.908   1.039 -1.4204 -2.1557 -0.3722
  823SOL     OW 2592   3.160   3.555   2.285 -0.3404  0.0836 -0.2527
  823SOL    HW1 2593   3.167   3.650   2.275  0.6204 -0.0724 -1.2778
  823SOL    HW2 2594   3.104   3.527   2.212 -1.6408 -0.0387  0.7414
  824SOL     OW 2595   0.198   0.033   2.335  0.1324  0.3044 -0.1249
  824SOL    HW1 2596   0.289   0.014   2.315  1.1919  0.9393  3.3539
  824SOL    HW2 2597   0.171  -0.038   2.395 -0.8809  1.3514  0.7099
  825SOL     OW 2598   3.147   3.026   0.030  0.3036 -0.2692 -0.4370
  825SOL    HW1 2599   3.193   3.010  -0.052  1.6616 -0.8738  0.4007
  825SOL    HW2 2600   3.194   3.099   0.070 -0.8484  0.5591 -0.5412
  826SOL     OW 2601   0.327   3.363   2.556 -0.4241 -0.5959  0.5220
  826SOL    HW1 2602   0.291   3.306   2.624 -3.2575  2.1267  1.5391
  826SOL    HW2 2603   0.389   3.419   2.603 -0.5510 -0.3245  0.3669
  827SOL     OW 2604   2.443   2.995   1.762  0.1856  0.3562  0.3662
  827SOL    HW1 2605   2.362   2.945   1.750 -1.1544  2.1169  1.5621
  827SOL    HW2 2606   2.513   2.929   1.756 -1.3599 -1.3575  0.1944
  828SOL     OW 2607   3.220   2.419   3.247  0.2994 -0.5454 -0.8112
  828SOL    HW1 2608   3.187   2.481   3.182  1.0572  0.8963  0.1233
  828SOL    HW2 2609   3.146   2.404   3.306  0.7699  1.3811  0.3306
  829SOL     OW 2610   2.121   0.516   2.471  0.0161 -0.5841 -0.1276
  829SOL    HW1 2611   2.074   0.472   2.400  0.8010 -0.7159 -0.5806
  829SOL    HW2 2612   2.211   0.486   2.462  0.6390  1.2740 -0.6029
  830SOL     OW 2613   0.509   0.773   1.997  0.0518  0.0039 -0.0460
  830SOL    HW1 2614   0.537   0.682   1.985  2.4298  0.4977  1.0832
  830SOL    HW2 2615   0.588   0.818   2.028 -1.2587  2.3011  0.1730
  831SOL     OW 2616   1.271   1.884   2.310  0.6473  0.1879  0.2148
  831SOL    HW1 2617   1.186   1.876   2.267 -0.5163  1.0685  2.2053
  831SOL    HW2 2618   1.314   1.800   2.293 -0.4418 -0.1526 -1.1191
  832SOL     OW 2619   3.550   0.567   2.754 -0.6871  0.3652 -0.2970
  832SOL    HW1 2620   3.549   0.662   2.744  1.2275  0.2591 -2.2610
  832SOL    HW2 2621   3.484   0.536   2.692 -1.9424  0.4112  0.9801
  833SOL     OW 2622   0.237   3.040   2.985  0.2582  0.1364  0.6154
  833SOL    HW1 2623   0.236   3.029   3.080  0.2907  0.2719  0.6320
  833SOL    HW2 2624   0.154   3.001   2.956  0.9520 -1.3381  0.5289
  834SOL     OW 2625   2.192   2.850   1.767  0.0484  0.2690  0.1624
  834SOL    HW1 2626   2.124   2.896   1.719  1.4843  0.4449 -1.8481
  834SOL    HW2 2627   2.196   2.763   1.727  0.0911 -0.2178  1.1816
  835SOL     OW 2628   1.506  -0.008   2.002  0.0304 -0.0323  0.0130
  835SOL    HW1 2629   1.578  -0.057   2.043 -0.5478 -0.9903 -0.0973
  835SOL    HW2 2630   1.528   0.084   2.017  1.3069 -0.3075 -0.0534
  836SOL     OW 2631   1.604   3.041   0.945  0.2270  0.4506 -0.2471
  836SOL    HW1 2632   1.579   3.103   0.876 -3.2757 -2.2128 -1.7222
  836SOL    HW2 2633   1.528   3.041   1.004  1.2592 -0.5939  1.1248
  837SOL     OW 2634   2.209   3.432   2.045 -0.4083  0.0168 -0.1109
  837SOL    HW1 2635   2.175   3.344   2.063  2.1428 -1.1014 -0.3243
  837SOL    HW2 2636   2.234   3.429   1.953 -0.9794  1.2581 -0.3236
  838SOL     OW 2637   2.284   1.322   1.919  0.4351  0.2311  0.0481
  838SOL    HW1 2638   2.373   1.353   1.901  0.3323  1.1574  1.0549
  838SOL    HW2 2639   2.286   1.300   2.012 -0.1265 -0.6928 -0.1479
  839SOL     OW 2640   3.368   1.441   2.568  0.1107 -0.5755  0.2704
  839SOL    HW1 2641   3.329   1.468   2.485  0.4442 -1.4644 -0.1853
  839SOL    HW2 2642   3.303   1.467   2.634  0.0059  0.4655 -0.2159
  840SOL     OW 2643   2.770   1.905   1.707 -0.0898 -0.1765 -0.3584
  840SOL    HW1 2644   2.721   1.850   1.646  0.5123 -0.4655 -0.5810
  840SOL    HW2 2645   2.816   1.844   1.764 -0.8714  0.0809  0.5895
  841SOL     OW 2646   2.562   1.590   1.169 -0.2002  0.3975  0.1737
  841SOL    HW1 2647   2.619   1.658   1.206 -2.4450  1.8107  1.3111
  841SOL    HW2 2648   2.540   1.623   1.082 -1.4467  1.3061  0.7991
  842SOL     OW 2649   1.150   0.024   1.021  0.4108  0.8526 -0.1108
  842SOL    HW1 2650   1.129   0.117   1.023 -0.6887  0.6032  1.0110
  842SOL    HW2 2651   1.119  -0.005   0.935 -1.5594  1.0521  0.4778
  843SOL     OW 2652   3.654   3.196   3.495  0.3151  0.1245 -0.3081
  843SOL    HW1 2653   3.587   3.252   3.535 -0.3813 -0.2597 -0.9155
  843SOL    HW2 2654   3.664   3.230   3.406  1.4077  0.5833 -0.0252
  844SOL     OW 2655   1.955   1.323   1.676  0.1981 -0.5942 -0.0741
  844SOL    HW1 2656   1.942   1.410   1.639 -2.4704 -0.7859  0.2270
  844SOL    HW2 2657   1.968   1.338   1.770  0.3945 -0.4809 -0.1201
  845SOL     OW 2658   3.445   1.438   3.669 -0.0745 -0.7790 -0.1826
  845SOL    HW1 2659   3.495   1.359   3.689 -1.2109 -1.3355  0.5576
  845SOL    HW2 2660   3.391   1.453   3.746 -0.5817  0.1823 -0.6989
  846SOL     OW 2661   0.590   2.727   0.791 -0.1348  0.3061 -0.4595
  846SOL    HW1 2662   0.568   2.649   0.739  1.7529 -0.7157  0.1802
  846SOL    HW2 2663   0.512   2.742   0.844 -1.0203 -0.3705 -1.5132
  847SOL     OW 2664   3.365   2.212   2.147  0.0500 -0.8036 -0.4029
  847SOL    HW1 2665   3.429   2.278   2.123  0.4343 -2.1103 -3.3738
  847SOL    HW2 2666   3.310   2.255   2.213  2.4254  1.1740  0.4636
  848SOL     OW 2667   1.791   1.124   0.171  0.2841  0.4914 -0.5334
  848SOL    HW1 2668   1.698   1.101   0.160  0.5924 -1.7000  0.8546
  848SOL    HW2 2669   1.791   1.219   0.179 -1.9048  0.5138 -0.0604
  849SOL     OW 2670   1.566   3.608   2.930  0.0645 -0.7616 -0.1764
  849SOL    HW1 2671   1.545   3.523   2.967 -0.2963 -0.4505  0.3439
  849SOL    HW2 2672   1.549   3.598   2.836 -2.2271 -0.6021  0.1721
  850SOL     OW 2673   0.161   1.664   0.189 -0.0264  0.1903 -0.3382
  850SOL    HW1 2674   0.118   1.582   0.212  2.1583 -0.1029  3.5243
  850SOL    HW2 2675   0.222   1.640   0.118 -0.0968 -1.3276  0.0826
  851SOL     OW 2676   3.193   2.822   3.430  0.1821  0.1369  0.1642
  851SOL    HW1 2677   3.115   2.772   3.406 -0.5538  2.0464 -1.7093
  851SOL    HW2 2678   3.265   2.760   3.418 -0.6740 -0.5126 -2.1927
  852SOL     OW 2679   2.148   1.591   1.546 -0.1743 -0.2676 -0.5014
  852SOL    HW1 2680   2.072   1.640   1.516  0.7840 -0.3869 -3.5420
  852SOL    HW2 2681   2.146   1.597   1.641 -2.7196  1.5742 -0.5893
  853SOL     OW 2682   2.459   1.329   2.739 -0.2182 -0.2543 -0.1837
  853SOL    HW1 2683   2.541   1.325   2.690 -0.9324 -1.2264 -1.3452
  853SOL    HW2 2684   2.398   1.374   2.680 -0.6950 -0.0769  0.4292
  854SOL     OW 2685   1.802   0.382   0.980  0.3955 -0.3384 -0.6593
  854SOL    HW1 2686   1.723   0.333   0.960 -0.6596  2.0281 -2.8737
  854SOL    HW2 2687   1.804   0.386   1.076 -4.6987  3.0551 -0.3117
  855SOL     OW 2688   3.434   3.609   1.843  0.2347  0.4481  0.6738
  855SOL    HW1 2689   3.411   3.679   1.781 -0.3349  0.2807  0.6903
  855SOL    HW2 2690   3.408   3.529   1.798 -0.7693  0.3637  1.3847
  856SOL     OW 2691   3.670   0.497   2.194  0.1107 -0.3847  0.1810
  856SOL    HW1 2692   3.604   0.427   2.197  2.0259 -2.4694 -1.9073
  856SOL    HW2 2693   3.750   0.456   2.228  0.8062  1.4642  0.8631
  857SOL     OW 2694   0.319   2.348   1.936  0.0110 -0.7364  0.4474
  857SOL    HW1 2695   0.322   2.348   2.031 -0.8121 -0.7156  0.4802
  857SOL    HW2 2696   0.240   2.398   1.914  1.0325  0.6089 -0.2866
  858SOL     OW 2697   3.598   2.703   2.880  0.6230 -0.1890  0.3313
  858SOL    HW1 2698   3.667   2.760   2.913 -0.8036  1.2672  0.9460
  858SOL    HW2 2699   3.630   2.672   2.795  1.7343  1.0119  0.2863
  859SOL     OW 2700   1.877   2.989   1.901 -0.0512  0.3334 -0.6658
  859SOL    HW1 2701   1.915   2.902   1.889 -0.0866  0.2724 -0.3480
  859SOL    HW2 2702   1.783   2.976   1.887 -0.3225 -0.0764  1.2940
  860SOL     OW 2703   1.978   1.105   0.390  0.0013 -0.2176  0.3115
  860SOL    HW1 2704   2.055   1.137   0.344  0.2807  2.5093  2.4001
  860SOL    HW2 2705   1.923   1.065   0.322  2.3206 -0.4379 -1.5292
  861SOL     OW 2706   3.676   0.394   2.921 -0.5606  0.2211  0.3673
  861SOL    HW1 2707   3.642   0.309   2.893  1.3325 -0.7393  0.8178
  861SOL    HW2 2708   3.648   0.455   2.854 -0.4660 -1.1008 -0.9107
  862SOL     OW 2709   1.530   3.205   2.278 -0.3363 -0.0763 -0.0214
  862SOL    HW1 2710   1.567   3.280   2.325  2.9942  0.0312 -2.3837
  862SOL    HW2 2711   1.574   3.129   2.316  1.1558 -0.1250 -1.6722
  863SOL     OW 2712   0.416   3.724   0.147  0.3858 -0.0755  0.2299
  863SOL    HW1 2713   0.388   3.739   0.057 -0.2673  0.3599  0.5010
  863SOL    HW2 2714   0.478   3.651   0.141  1.8949  1.2212 -0.8394
  864SOL     OW 2715   0.439   0.641   0.090 -0.5362 -0.4491  0.1513
  864SOL    HW1 2716   0.415   0.590   0.012  0.4881 -0.7419  0.0209
  864SOL    HW2 2717   0.484   0.578   0.146 -2.0802 -0.4993  1.4297
  865SOL     OW 2718   1.410   0.871   1.353  0.0367  0.2180 -0.8465
  865SOL    HW1 2719   1.440   0.926   1.281  1.0383 -0.0635 -0.6581
  865SOL    HW2 2720   1.353   0.806   1.311 -1.1911  1.3894 -1.0626
  866SOL     OW 2721   0.379   0.503   1.343  0.5669 -0.4412  0.2102
  866SOL    HW1 2722   0.289   0.475   1.325  0.7810 -1.0729  0.0972
  866SOL    HW2 2723   0.374   0.549   1.426  0.2905 -1.3225  0.6942
  867SOL     OW 2724   3.655   3.562   2.226  0.0847 -0.4278 -0.3132
  867SOL    HW1 2725   3.739   3.555   2.180  0.0970 -1.5155 -0.1460
  867SOL    HW2 2726   3.678   3.563   2.318 -0.0385  0.1851 -0.2850
  868SOL     OW 2727   0.309   0.511   2.697 -0.1237 -0.3305 -0.0621
  868SOL    HW1 2728   0.351   0.589   2.733 -1.8274  0.5957  0.0269
  868SOL    HW2 2729   0.303   0.451   2.772 -0.6694  0.2840  0.3971
  869SOL     OW 2730   0.164   3.152   2.168  0.8059  0.9361 -0.2418
  869SOL    HW1 2731   0.102   3.123   2.101  0.3587  3.3418 -0.9762
  869SOL    HW2 2732   0.247   3.110   2.144 -0.0885 -0.8807 -0.3042
  870SOL     OW 2733   1.526   0.812   3.386 -0.3453 -0.1423  0.4523
  870SOL    HW1 2734   1.540   0.808   3.480 -1.1230  0.0794  0.5880
  870SOL    HW2 2735   1.449   0.756   3.371 -0.8322  0.6022  0.0858
  871SOL     OW 2736   1.183   1.386   1.203 -0.7441  0.3580 -0.1907
  871SOL    HW1 2737   1.190   1.364   1.296 -0.6178 -0.6666 -0.4298
  871SOL    HW2 2738   1.156   1.477   1.202 -1.7524  0.0944  0.8665
  872SOL     OW 2739   3.299   0.138   0.629 -0.0368 -0.3252  0.2379
  872SOL    HW1 2740   3.314   0.083   0.552  0.0946  1.6703 -1.2713
  872SOL    HW2 2741   3.208   0.123   0.652  0.1829 -1.6599  0.3143
  873SOL     OW 2742   2.459   0.230   0.165  0.5801 -0.5780  0.1102
  873SOL    HW1 2743   2.389   0.277   0.210  0.3330 -0.6887 -0.1545
  873SOL    HW2 2744   2.519   0.204   0.234  0.6229 -0.0358  0.2821
  874SOL     OW 2745   1.093   1.290   0.365 -0.3983  0.4375  0.0081
  874SOL    HW1 2746   1.174   1.309   0.412  0.3211  0.0322 -1.0131
  874SOL    HW2 2747   1.069   1.373   0.324  1.0150  0.0091 -1.8733
  875SOL     OW 2748   1.724   0.043   2.164 -0.1125  0.3030 -0.6234
  875SOL    HW1 2749   1.816   0.054   2.185  0.2554 -0.2877 -1.7998
  875SOL    HW2 2750   1.680   0.115   2.209  0.5631 -0.8309  2.0268
  876SOL     OW 2751   1.748   3.521   3.596 -0.3942 -0.4097 -0.4762
  876SOL    HW1 2752   1.696   3.534   3.516 -2.2164 -1.4364  0.4574
  876SOL    HW2 2753   1.690   3.552   3.667  2.0577  2.7329  0.3642
  877SOL     OW 2754   1.976   0.770   2.490  0.2488  0.3747  0.5541
  877SOL    HW1 2755   1.892   0.727   2.473  0.5770  0.4199 -1.4501
  877SOL    HW2 2756   2.037   0.698   2.503  0.2282  0.3106  0.2887
  878SOL     OW 2757   3.674   1.651   1.443  0.3508 -0.0943  0.1180
  878SOL    HW1 2758   3.582   1.655   1.416  0.9695 -1.2919 -2.4507
  878SOL    HW2 2759   3.717   1.719   1.392  1.0896 -0.3192  0.4239
  879SOL     OW 2760   0.540   1.269   1.222 -0.1320  0.4999  0.5973
  879SOL    HW1 2761   0.486   1.213   1.277  0.4737 -0.3044  0.3901
  879SOL    HW2 2762   0.480   1.336   1.190 -0.9340 -0.1898  0.6236
  880SOL     OW 2763   3.542   0.443   0.186  0.1179  0.0939 -0.6545
  880SOL    HW1 2764   3.610   0.500   0.221 -1.0151 -0.4226  2.7716
  880SOL    HW2 2765   3.566   0.355   0.217 -1.7654 -0.1691  0.2499
  881SOL     OW 2766   1.527   3.583   2.257 -0.5453 -0.4104 -0.0706
  881SOL    HW1 2767   1.493   3.618   2.340  0.4503  0.2722  0.0600
  881SOL    HW2 2768   1.595   3.645   2.231  1.4603 -2.3601  0.2818
  882SOL     OW 2769   2.226   0.320   0.234 -0.7810 -0.0619  0.5273
  882SOL    HW1 2770   2.190   0.348   0.318 -0.0981  3.6135 -0.2297
  882SOL    HW2 2771   2.150   0.318   0.175 -0.7437  1.2592  0.4003
  883SOL     OW 2772   0.549   1.515   2.895 -0.8028 -0.5449  0.2290
  883SOL    HW1 2773   0.541   1.520   2.800 -0.1706  1.0101  0.2175
  883SOL    HW2 2774   0.539   1.422   2.916  0.6469 -1.1417 -1.4995
  884SOL     OW 2775   0.441   1.091   3.562 -0.2840  0.1090  0.0583
  884SOL    HW1 2776   0.433   1.029   3.489  1.8327 -0.0653 -0.0905
  884SOL    HW2 2777   0.351   1.106   3.590 -0.9784 -1.8778 -0.8701
  885SOL     OW 2778   1.270   1.454   1.969 -0.4546  0.3969 -0.1870
  885SOL    HW1 2779   1.278   1.361   1.993 -0.2474  0.6896  0.8984
  885SOL    HW2 2780   1.295   1.456   1.876  0.3052 -0.5219 -0.0170
  886SOL     OW 2781   2.132   2.938   2.117 -1.1320 -0.6701  0.0527
  886SOL    HW1 2782   2.090   2.861   2.077 -2.3987  0.7636 -1.5606
  886SOL    HW2 2783   2.213   2.949   2.068  0.2714 -2.2982  1.8716
  887SOL     OW 2784   0.846   2.785   1.359 -0.7007 -0.3333  0.0898
  887SOL    HW1 2785   0.871   2.871   1.326 -0.2901 -0.1070  0.9554
  887SOL    HW2 2786   0.889   2.723   1.300 -1.9045  0.0223 -1.2222
  888SOL     OW 2787   2.969   0.122   1.496 -0.2090  0.4417  1.1685
  888SOL    HW1 2788   2.887   0.083   1.465 -0.2387 -0.1934  1.9828
  888SOL    HW2 2789   2.941   0.182   1.566 -0.0871  1.2543  0.5239
  889SOL     OW 2790   2.785   3.619   3.564  0.8006 -0.2289  0.3368
  889SOL    HW1 2791   2.696   3.653   3.566  0.3003 -1.2635 -1.5121
  889SOL    HW2 2792   2.801   3.590   3.654 -0.5049  0.5183  0.8429
  890SOL     OW 2793   1.371   0.194   0.692  0.2332  0.2047  0.0428
  890SOL    HW1 2794   1.438   0.183   0.624 -0.0391 -1.5536  0.0309
  890SOL    HW2 2795   1.288   0.191   0.644  0.0714  0.0593  0.3340
  891SOL     OW 2796   2.115   2.127   2.100 -0.3584  0.1403  0.8528
  891SOL    HW1 2797   2.044   2.074   2.135 -0.8766  0.3695  0.1660
  891SOL    HW2 2798   2.081   2.217   2.100  0.0563  0.3008  0.8388
  892SOL     OW 2799   2.527   3.641   1.216  0.2991 -0.0865 -0.0715
  892SOL    HW1 2800   2.622   3.632   1.210  0.2020 -0.7333 -0.6699
  892SOL    HW2 2801   2.499   3.565   1.267  0.0906  0.0557  0.0251
  893SOL     OW 2802   0.152   1.997   2.118  0.1835 -0.1042  0.8728
  893SOL    HW1 2803   0.057   1.998   2.127  0.1101  1.0856  0.1916
  893SOL    HW2 2804   0.184   2.050   2.190  0.1579  1.4801 -0.2238
  894SOL     OW 2805   2.154   1.890   1.057 -0.1247  0.2782 -0.1406
  894SOL    HW1 2806   2.198   1.940   0.988 -0.5590 -1.3460 -1.6790
  894SOL    HW2 2807   2.070   1.935   1.069 -0.8290 -0.4229 -2.0385
  895SOL     OW 2808   3.530   1.399   1.567  0.2114 -0.2094  0.2954
  895SOL    HW1 2809   3.532   1.487   1.603 -0.1813  0.6974 -1.7743
  895SOL    HW2 2810   3.468   1.352   1.623 -2.4657  1.8814 -0.6832
  896SOL     OW 2811   0.585   0.906   2.562 -0.0590 -0.3681  0.9000
  896SOL    HW1 2812   0.508   0.874   2.609 -1.2389 -0.4486 -0.9786
  896SOL    HW2 2813   0.561   0.995   2.536  0.8202 -0.0975  0.9821
  897SOL     OW 2814   1.203   0.131   1.703 -0.0080 -0.3289 -0.2384
  897SOL    HW1 2815   1.251   0.165   1.778  0.7713  0.3419 -1.0292
  897SOL    HW2 2816   1.135   0.076   1.742 -0.6719  1.3035  1.0424
  898SOL     OW 2817   2.767   0.948   0.126 -1.1123  0.0960  0.1354
  898SOL    HW1 2818   2.727   0.889   0.189 -0.8324  1.7649  1.9643
  898SOL    HW2 2819   2.693   0.993   0.085 -1.2631 -0.2846 -0.0091
  899SOL     OW 2820   0.844   3.693   1.737  0.5161 -0.2119  0.6223
  899SOL    HW1 2821   0.783   3.658   1.802  0.4109 -0.8947  0.1618
  899SOL    HW2 2822   0.929   3.693   1.782  0.4098 -0.4879  0.8252
  900SOL     OW 2823   0.471   1.809   2.710 -0.1611 -0.1523 -0.2842
  900SOL    HW1 2824   0.404   1.876   2.700 -0.2496  0.0742  1.5270
  900SOL    HW2 2825   0.550   1.848   2.673 -0.6265  0.2503 -0.8587
  901SOL     OW 2826   2.522   2.228   2.253 -0.1035  0.0623 -0.1583
  901SOL    HW1 2827   2.593   2.216   2.191  1.2160  1.1288  1.0760
  901SOL    HW2 2828   2.565   2.253   2.335 -1.8907  0.9030  0.5938
  902SOL     OW 2829   1.852   0.754   0.252  0.2925 -0.8189  0.1989
  902SOL    HW1 2830   1.885   0.674   0.294 -0.3457 -1.5758 -0.7017
  902SOL    HW2 2831   1.924   0.817   0.261  1.4504 -1.9840 -0.4427
  903SOL     OW 2832   1.418   2.086   2.192  0.0277 -0.2580  0.1913
  903SOL    HW1 2833   1.366   2.098   2.113 -0.3549  0.2696  0.5117
  903SOL    HW2 2834   1.357   2.046   2.255 -0.7454  2.4181  1.3167
  904SOL     OW 2835   2.316   1.661   2.924  0.4276 -0.1697 -0.7818
  904SOL    HW1 2836   2.280   1.703   3.002 -1.0700 -0.6326 -1.2022
  904SOL    HW2 2837   2.250   1.675   2.856  2.4154  1.6958 -2.4755
  905SOL     OW 2838   1.804   0.135   3.439 -0.5756  0.4924  0.3865
  905SOL    HW1 2839   1.760   0.142   3.523 -0.2716  0.9341  0.5142
  905SOL    HW2 2840   1.820   0.226   3.413  2.4053  0.3961  1.4892
  906SOL     OW 2841   3.363   0.071   0.961 -0.1835 -0.3208 -0.3085
  906SOL    HW1 2842   3.280   0.027   0.943 -0.1355 -0.2411 -0.7261
  906SOL    HW2 2843   3.390   0.109   0.877  0.1435 -0.1206 -0.1187
  907SOL     OW 2844   2.111   1.385   0.444 -0.2509  0.2952  0.0710
  907SOL    HW1 2845   2.178   1.385   0.513 -0.2435  1.0575  0.0690
  907SOL    HW2 2846   2.028   1.382   0.492 -0.2618  1.4814  0.1380
  908SOL     OW 2847   1.299   2.788   2.687  0.6090 -0.5162 -0.0380
  908SOL    HW1 2848   1.287   2.708   2.636 -0.7583 -0.8921  0.8393
  908SOL    HW2 2849   1.294   2.759   2.778 -2.8924  0.9087  0.3569
  909SOL     OW 2850   2.606   3.389   2.477 -0.5668 -0.1020 -0.5072
  909SOL    HW1 2851   2.515   3.419   2.470 -0.6003  0.6737  2.1992
  909SOL    HW2 2852   2.657   3.458   2.435 -1.0194  1.3675  1.2258
  910SOL     OW 2853   2.693   0.052   1.516 -0.1479 -0.3136 -0.6235
  910SOL    HW1 2854   2.630  -0.012   1.549  1.1713 -1.0166  0.5985
  910SOL    HW2 2855   2.675   0.132   1.566  1.7439 -1.3276  1.8901
  911SOL     OW 2856   2.936   3.137   0.941 -0.5844 -0.4925 -0.4293
  911SOL    HW1 2857   2.993   3.095   0.876 -1.0626 -4.7314  1.5668
  911SOL    HW2 2858   2.996   3.191   0.994  0.1953  1.0010 -2.6880
  912SOL     OW 2859   3.322   0.510   2.190 -0.8034 -0.1727  0.1530
  912SOL    HW1 2860   3.372   0.579   2.232 -2.5549 -0.2356  2.5301
  912SOL    HW2 2861   3.364   0.429   2.218 -1.0838 -0.1706  0.5855
  913SOL     OW 2862   3.500   1.452   2.183  0.0779  0.4232  0.4247
  913SOL    HW1 2863   3.536   1.389   2.245  1.2546  1.0303  0.3966
  913SOL    HW2 2864   3.564   1.455   2.112  0.3681  2.0753  0.7087
  914SOL     OW 2865   1.138   2.402   2.322 -0.0347  0.3823  0.4929
  914SOL    HW1 2866   1.136   2.409   2.226 -3.0316  0.6191  0.4917
  914SOL    HW2 2867   1.178   2.317   2.339  0.1104  0.1284 -0.9800
  915SOL     OW 2868   1.726   1.699   0.057 -0.7738  0.4646 -0.9129
  915SOL    HW1 2869   1.704   1.789   0.082 -1.7136 -0.3361  1.3898
  915SOL    HW2 2870   1.788   1.670   0.124  0.5060 -0.2398 -2.3442
  916SOL     OW 2871   2.085   1.232   1.120  0.3027 -0.2127  0.7110
  916SOL    HW1 2872   2.150   1.258   1.186  0.4617  2.0249 -0.2402
  916SOL    HW2 2873   2.078   1.137   1.130  2.2091 -0.2662  2.2165
  917SOL     OW 2874   0.758   0.791   0.561 -0.4346 -0.2791  0.1266
  917SOL    HW1 2875   0.851   0.793   0.580 -0.1483  0.9811 -1.2469
  917SOL    HW2 2876   0.739   0.699   0.543 -0.0037 -0.9505  2.6848
  918SOL     OW 2877   2.179   0.252   1.061 -0.0482 -0.9266 -0.0087
  918SOL    HW1 2878   2.210   0.179   1.114  1.4719 -1.4078 -1.4481
  918SOL    HW2 2879   2.097   0.220   1.022 -1.3196 -0.4654  2.1617
  919SOL     OW 2880   0.630   2.635   1.907 -0.1389 -0.7864 -0.1683
  919SOL    HW1 2881   0.694   2.706   1.898  3.2797 -3.6423 -0.5123
  919SOL    HW2 2882   0.548   2.680   1.929  2.6175  3.0824  4.2184
  920SOL     OW 2883   2.331   1.617   2.087 -0.1929  0.6531  0.3237
  920SOL    HW1 2884   2.236   1.610   2.087 -0.6035  4.0612 -1.8835
  920SOL    HW2 2885   2.352   1.657   2.171 -1.1323  2.6032 -0.2969
  921SOL     OW 2886   2.908   2.017   2.228 -1.0394  0.3327 -0.0549
  921SOL    HW1 2887   2.968   1.977   2.291 -1.2569 -1.0052 -0.6663
  921SOL    HW2 2888   2.964   2.048   2.157 -1.0103 -0.4128 -0.3634
  922SOL     OW 2889   1.897   0.809   2.139  0.7239 -0.1891 -0.3468
  922SOL    HW1 2890   1.859   0.725   2.168  0.2285 -0.0210 -0.4971
  922SOL    HW2 2891   1.849   0.830   2.060  1.1705  0.0132 -0.5648
  923SOL     OW 2892   2.642   2.181   0.448 -0.4619 -0.5597  0.1270
  923SOL    HW1 2893   2.717   2.122   0.452 -1.0363 -1.5030 -1.6081
  923SOL    HW2 2894   2.566   2.123   0.439 -1.0095  0.3659 -2.1182
  924SOL     OW 2895   0.660   3.167   0.711  0.3092 -0.4702  0.4024
  924SOL    HW1 2896   0.623   3.097   0.763  0.9478 -0.3702  1.0121
  924SOL    HW2 2897   0.641   3.247   0.760 -1.0153 -0.1165 -0.6218
  925SOL     OW 2898   0.789   2.009   1.502  0.0658  0.1893  0.1746
  925SOL    HW1 2899   0.770   1.985   1.411 -1.0807  1.9063 -0.0778
  925SOL    HW2 2900   0.769   1.930   1.552  0.0188 -0.5568 -0.9840
  926SOL     OW 2901   0.140   2.822   0.690 -0.0817 -0.6147 -0.5006
  926SOL    HW1 2902   0.228   2.834   0.727  0.1639 -2.7520 -0.2734
  926SOL    HW2 2903   0.097   2.762   0.751 -1.3044 -0.5333 -1.2561
  927SOL     OW 2904   2.042   2.788   2.868  0.2442  0.1240 -0.0367
  927SOL    HW1 2905   2.124   2.835   2.854  0.0186  0.3907 -0.4954
  927SOL    HW2 2906   2.061   2.727   2.938  0.9479 -0.0787 -0.3948
  928SOL     OW 2907   3.152   0.139   3.115 -0.6652  0.1421  0.2910
  928SOL    HW1 2908   3.089   0.211   3.126 -2.4748 -1.4445  0.9278
  928SOL    HW2 2909   3.198   0.134   3.199 -0.3229  0.7246  0.1437
  929SOL     OW 2910   1.079   2.972   1.597  0.4022  0.1651 -0.1012
  929SOL    HW1 2911   1.168   2.997   1.622  0.2415  1.0913 -0.4234
  929SOL    HW2 2912   1.080   2.876   1.600  1.1400  0.1806  0.8138
  930SOL     OW 2913   1.896   3.035   3.070 -0.3383 -0.4498 -0.5689
  930SOL    HW1 2914   1.984   3.008   3.046  0.9461  0.0718  2.9483
  930SOL    HW2 2915   1.850   2.953   3.088  0.8505 -0.6936  1.7076
  931SOL     OW 2916   1.066   1.214   2.740  0.4535  0.2496 -0.5463
  931SOL    HW1 2917   1.074   1.136   2.794 -1.0182 -0.0268 -0.6999
  931SOL    HW2 2918   1.094   1.286   2.797 -1.3009  0.0056  0.7021
  932SOL     OW 2919   0.691   0.143   3.236 -0.1795  0.0307  0.7139
  932SOL    HW1 2920   0.670   0.107   3.150 -1.1914  3.6498 -0.6947
  932SOL    HW2 2921   0.692   0.066   3.293 -3.9125 -2.0968 -1.6472
  933SOL     OW 2922   0.291   0.025   3.389  0.7072 -0.6460  0.1631
  933SOL    HW1 2923   0.328   0.080   3.458  1.4492 -1.7730  0.6847
  933SOL    HW2 2924   0.196   0.037   3.397  0.8627  1.0625 -0.1836
  934SOL     OW 2925   1.173   0.224   2.981 -0.4234 -0.0259 -0.5868
  934SOL    HW1 2926   1.152   0.130   2.985 -1.3244  0.0996 -1.9330
  934SOL    HW2 2927   1.108   0.261   2.922  2.4194  0.7384 -3.4972
  935SOL     OW 2928   1.888   0.803   0.635 -0.2327  0.2986  0.8469
  935SOL    HW1 2929   1.881   0.872   0.702  0.5127  1.1545  0.0779
  935SOL    HW2 2930   1.805   0.806   0.588 -0.1893  0.7091  0.7908
  936SOL     OW 2931   1.033   1.785   2.780  0.2878  0.6705 -0.5495
  936SOL    HW1 2932   1.051   1.877   2.797  0.3165  0.4670  0.5369
  936SOL    HW2 2933   0.949   1.785   2.733 -0.4762  1.1679  0.7565
  937SOL     OW 2934  -0.012   1.651   2.800  0.3417 -0.2036  0.0810
  937SOL    HW1 2935  -0.014   1.555   2.802  0.5550 -0.2310 -0.7345
  937SOL    HW2 2936   0.071   1.672   2.757  0.2342  0.3470  0.1417
  938SOL     OW 2937   2.885   0.437   3.485 -0.3807 -0.5526 -0.5348
  938SOL    HW1 2938   2.927   0.421   3.570 -3.4344 -0.6176  1.1412
  938SOL    HW2 2939   2.875   0.349   3.447 -0.7717 -0.7482  0.0037
  939SOL     OW 2940   0.776   3.512   2.116 -0.3427  0.5421 -0.5747
  939SOL    HW1 2941   0.787   3.454   2.192  0.2084  0.3787 -0.7734
  939SOL    HW2 2942   0.785   3.600   2.153 -0.9612  0.4964 -0.3076
  940SOL     OW 2943   0.974   2.559   1.210  0.4639 -0.0361  0.2063
  940SOL    HW1 2944   0.928   2.498   1.268  0.3837 -0.4517 -0.2851
  940SOL    HW2 2945   0.910   2.581   1.143  0.0105  1.6999  1.1187
  941SOL     OW 2946   0.765   3.058   2.783  0.4244 -0.5176  0.2928
  941SOL    HW1 2947   0.826   3.074   2.711  1.2629 -1.9933  0.6349
  941SOL    HW2 2948   0.734   2.969   2.769  0.0589 -0.5764  1.3664
  942SOL     OW 2949   2.071   1.638   1.204  0.2437  0.1380 -0.2017
  942SOL    HW1 2950   2.031   1.677   1.281  0.5077  1.2807 -0.6324
  942SOL    HW2 2951   2.112   1.711   1.158  0.2399 -0.5460 -1.3366
  943SOL     OW 2952   2.147   0.407   2.153  0.1389  0.3367 -0.2867
  943SOL    HW1 2953   2.221   0.386   2.096 -0.2790  1.8319 -1.4615
  943SOL    HW2 2954   2.160   0.499   2.176 -0.9328  0.4026  0.1219
  944SOL     OW 2955   0.307   1.630   2.989 -0.0003  0.5578  0.2267
  944SOL    HW1 2956   0.373   1.616   2.921 -0.8778 -1.7735 -0.2499
  944SOL    HW2 2957   0.227   1.593   2.952 -0.4152 -1.2205  2.6384
  945SOL     OW 2958   3.426   1.671   2.728 -0.3846 -0.0188 -0.2759
  945SOL    HW1 2959   3.511   1.667   2.772 -1.0054  0.3972  1.0194
  945SOL    HW2 2960   3.443   1.638   2.640  0.8704 -1.1097  0.3380
  946SOL     OW 2961   0.419   1.563   1.194  0.1834  0.5206 -0.1395
  946SOL    HW1 2962   0.334   1.528   1.219 -0.5263  1.5546 -0.9614
  946SOL    HW2 2963   0.461   1.589   1.276 -0.4655  0.3596  0.2423
  947SOL     OW 2964   0.564   1.252   0.442 -0.6256 -0.0203  0.1244
  947SOL    HW1 2965   0.485   1.241   0.496  0.2488  0.5406  1.5633
  947SOL    HW2 2966   0.630   1.200   0.487  0.3304  1.0875  0.0279
  948SOL     OW 2967   0.325   2.815   3.274  0.7739  0.1051  0.6068
  948SOL    HW1 2968   0.313   2.896   3.225  2.0606 -0.3966 -0.6308
  948SOL    HW2 2969   0.420   2.804   3.278  0.6324 -1.6173  0.2197
  949SOL     OW 2970   3.717   3.345   1.064 -0.3903  0.3387 -0.2322
  949SOL    HW1 2971   3.721   3.439   1.076  0.5268  0.0648  1.9643
  949SOL    HW2 2972   3.678   3.334   0.977  2.0201  2.7466 -1.7761
  950SOL     OW 2973   3.518   3.483   2.696 -0.7359  0.4690 -0.2139
  950SOL    HW1 2974   3.486   3.572   2.713 -3.2773 -0.4726  0.4219
  950SOL    HW2 2975   3.479   3.460   2.611  0.3330  0.1379 -0.6218
  951SOL     OW 2976   2.321   2.544   3.180  0.2380  0.6059  0.0330
  951SOL    HW1 2977   2.325   2.596   3.261 -0.0085 -1.5927  1.5401
  951SOL    HW2 2978   2.269   2.467   3.203 -0.2162  0.1090 -2.3827
  952SOL     OW 2979   2.900   1.376   1.650 -0.0154  1.0858 -0.1671
  952SOL    HW1 2980   2.856   1.402   1.731 -2.7925  3.2599 -2.1414
  952SOL    HW2 2981   2.962   1.447   1.633  2.9490 -0.8884  1.4575
  953SOL     OW 2982   3.319   3.257   0.644 -1.0121 -0.4980 -0.1569
  953SOL    HW1 2983   3.241   3.310   0.659 -0.8557 -0.0355 -0.8710
  953SOL    HW2 2984   3.338   3.269   0.550 -0.0082 -0.4836  0.0316
  954SOL     OW 2985   1.710   2.416   1.180 -0.3548  0.2021 -0.0538
  954SOL    HW1 2986   1.736   2.456   1.097  1.2862 -0.1542  0.2545
  954SOL    HW2 2987   1.738   2.479   1.247 -0.1976 -0.2299  0.2944
  955SOL     OW 2988   0.533   1.655   1.926 -0.3502  0.1677 -0.4226
  955SOL    HW1 2989   0.533   1.745   1.894  1.4563 -0.0192 -1.0562
  955SOL    HW2 2990   0.474   1.608   1.867  0.5831  0.4592 -1.6140
  956SOL     OW 2991   1.747   3.454   0.947  0.7614 -0.1164  0.1070
  956SOL    HW1 2992   1.689   3.406   1.006 -0.8383  1.8838  0.2761
  956SOL    HW2 2993   1.836   3.431   0.976  0.0617  0.7549  3.3467
  957SOL     OW 2994   2.195   0.730   0.170 -0.2252  0.3316 -0.5039
  957SOL    HW1 2995   2.144   0.809   0.186 -0.4919  0.3618 -1.4353
  957SOL    HW2 2996   2.153   0.663   0.226 -0.6306  0.6065 -0.4739
  958SOL     OW 2997   0.871   2.650   3.426 -0.1453 -0.2092 -0.0950
  958SOL    HW1 2998   0.864   2.625   3.518  1.1536 -0.0857  0.0542
  958SOL    HW2 2999   0.937   2.720   3.425 -0.4440  0.0739 -1.0720
  959SOL     OW 3000   1.704   0.585   2.097  0.1009 -0.4276 -0.6804
  959SOL    HW1 3001   1.772   0.556   2.036  0.1425  1.8882 -1.8496
  959SOL    HW2 3002   1.651   0.646   2.046 -0.4701  0.8369  1.3197
  960SOL     OW 3003   0.089   0.308   3.143  0.1910  0.1266 -0.0530
  960SOL    HW1 3004   0.037   0.367   3.089 -0.6231 -0.6687 -0.1645
  960SOL    HW2 3005   0.083   0.224   3.099  1.6726  0.0372 -0.1183
  961SOL     OW 3006   1.504   1.985   1.575 -0.0592 -0.1299  0.2876
  961SOL    HW1 3007   1.459   2.062   1.610  0.9583  0.4163  0.4365
  961SOL    HW2 3008   1.436   1.917   1.572 -2.1324  1.7568 -3.4572
  962SOL     OW 3009   0.011   1.443   0.194  0.6402  0.1765 -0.0223
  962SOL    HW1 3010  -0.050   1.401   0.255  0.9215  0.2439  0.3163
  962SOL    HW2 3011   0.065   1.372   0.162  0.0232  0.0317 -0.7595
  963SOL     OW 3012   0.579   2.746   2.208  0.2343 -0.6255  0.1861
  963SOL    HW1 3013   0.668   2.780   2.201  0.3741 -1.1201 -0.5676
  963SOL    HW2 3014   0.550   2.772   2.295  1.0202 -0.2352  0.3388
  964SOL     OW 3015   2.499   3.569   1.799 -0.2295 -0.2633 -0.4169
  964SOL    HW1 3016   2.553   3.496   1.830 -0.3208 -0.3183 -0.3852
  964SOL    HW2 3017   2.431   3.527   1.746  0.7311 -0.0652 -1.8617
  965SOL     OW 3018   1.580   0.244   1.962  0.0549 -0.5920 -0.1741
  965SOL    HW1 3019   1.645   0.181   1.930 -0.0500 -0.3655 -0.8396
  965SOL    HW2 3020   1.579   0.313   1.896  0.3309  0.2333  0.6554
  966SOL     OW 3021   0.923   1.541   1.244 -0.4797 -0.4607  0.1539
  966SOL    HW1 3022   0.909   1.446   1.244 -1.0607 -0.3889 -0.6194
  966SOL    HW2 3023   0.945   1.562   1.334 -2.3387 -1.0720  0.8108
  967SOL     OW 3024   3.369   1.648   2.336  0.4720 -0.2702  0.6663
  967SOL    HW1 3025   3.393   1.727   2.286 -2.2593  0.3830  0.2383
  967SOL    HW2 3026   3.417   1.577   2.293 -1.1686  0.3731 -2.5467
  968SOL     OW 3027   0.381   0.949   2.772  0.1192 -0.5345  0.4914
  968SOL    HW1 3028   0.409   1.038   2.748 -0.9147 -0.7885 -2.0065
  968SOL    HW2 3029   0.285   0.953   2.770  0.0458 -1.9786 -1.0062
  969SOL     OW 3030   3.574   0.330   0.952  0.3863 -0.1677  0.7724
  969SOL    HW1 3031   3.615   0.413   0.978  0.2554 -0.4199  1.8524
  969SOL    HW2 3032   3.523   0.352   0.875 -0.9841  1.1557  1.9917
  970SOL     OW 3033   1.322   0.543   1.495  0.2358 -0.7544  0.5648
  970SOL    HW1 3034   1.270   0.464   1.481  0.5323 -0.7273 -0.7905
  970SOL    HW2 3035   1.315   0.592   1.413  3.1767 -1.2192 -0.0824
  971SOL     OW 3036   0.895   2.397   0.113 -0.0239  0.0966  0.2112
  971SOL    HW1 3037   0.867   2.308   0.091  1.2833  0.0277 -1.3208
  971SOL    HW2 3038   0.905   2.396   0.208 -0.6862 -1.1784  0.2915
  972SOL     OW 3039   3.650   0.975   0.559 -0.4468 -0.1797 -0.6165
  972SOL    HW1 3040   3.738   1.012   0.570  0.2328 -1.9499  0.4259
  972SOL    HW2 3041   3.666   0.887   0.525 -1.9295  0.0321 -1.9550
  973SOL     OW 3042   1.931   2.506   0.582  0.0313  0.2984 -0.2715
  973SOL    HW1 3043   1.938   2.521   0.488  0.3317 -2.7086 -0.8086
  973SOL    HW2 3044   1.873   2.430   0.591 -0.5167  0.8993  2.0321
  974SOL     OW 3045   0.445   1.152   0.823  0.8616  0.2768 -0.0117
  974SOL    HW1 3046   0.446   1.246   0.840  2.8176  0.2415  0.2296
  974SOL    HW2 3047   0.417   1.113   0.906 -0.7678  0.6413 -0.3485
  975SOL     OW 3048   2.501   1.427   0.678 -0.5540 -0.1222  0.5704
  975SOL    HW1 3049   2.588   1.390   0.666 -0.3927  0.9184 -2.3790
  975SOL    HW2 3050   2.513   1.496   0.744  0.8993  0.1309  0.0801
  976SOL     OW 3051   1.660   1.362   1.757  0.0144  0.3801 -0.2066
  976SOL    HW1 3052   1.600   1.421   1.802 -0.8544 -0.4968 -0.1943
  976SOL    HW2 3053   1.736   1.417   1.736 -0.4008  1.2823  0.5699
  977SOL     OW 3054   3.460   0.685   0.750  0.4305 -0.3975  0.6260
  977SOL    HW1 3055   3.464   0.590   0.742  0.4464 -0.2454 -3.4807
  977SOL    HW2 3056   3.370   0.707   0.726  0.4614  0.6549  1.4089
  978SOL     OW 3057   3.385   0.509   0.493  0.2085  0.4799  0.0453
  978SOL    HW1 3058   3.446   0.490   0.565  1.0502 -0.5420 -0.9043
  978SOL    HW2 3059   3.336   0.428   0.482  0.3126  0.5223 -0.7456
  979SOL     OW 3060   3.698   2.509   1.288 -0.3292  0.4505 -0.5332
  979SOL    HW1 3061   3.733   2.563   1.217 -0.4812  0.6523 -0.4556
  979SOL    HW2 3062   3.645   2.569   1.339  0.5616  0.5380  0.3149
  980SOL     OW 3063   0.446   3.698   1.702  0.2422 -0.6430  0.5989
  980SOL    HW1 3064   0.415   3.615   1.737  0.0066 -0.9722 -0.3549
  980SOL    HW2 3065   0.376   3.760   1.723 -0.3054 -1.0246 -0.0488
  981SOL     OW 3066   3.196   1.418   3.151  0.1513 -0.3687 -0.5960
  981SOL    HW1 3067   3.177   1.366   3.229  1.4159 -1.6542 -1.1045
  981SOL    HW2 3068   3.220   1.505   3.184  0.9266 -0.9707  0.4634
  982SOL     OW 3069  -0.005   3.292   2.614  0.3334  0.2764 -0.5243
  982SOL    HW1 3070  -0.055   3.350   2.671  1.2685  0.5445  0.0492
  982SOL    HW2 3071   0.066   3.259   2.669  2.5800  2.2216 -2.0116
  983SOL     OW 3072   2.736   0.306   1.929  0.6135  0.2034  0.3473
  983SOL    HW1 3073   2.785   0.307   2.011 -1.2322 -0.1311  1.5265
  983SOL    HW2 3074   2.699   0.218   1.924  0.5409  0.2827 -0.7487
  984SOL     OW 3075   1.574   0.063   3.254  0.4924 -0.5558  0.1871
  984SOL    HW1 3076   1.588   0.075   3.160 -1.6343  0.5532 -0.0290
  984SOL    HW2 3077   1.654   0.098   3.294  1.3341 -0.8385 -1.1635
  985SOL     OW 3078   3.022   2.438   2.871  0.9654  0.0555 -0.2048
  985SOL    HW1 3079   2.946   2.397   2.912  2.3066 -0.7177  1.6476
  985SOL    HW2 3080   2.991   2.468   2.785 -0.8843 -2.0663 -0.3416
  986SOL     OW 3081   0.116   3.110   1.328 -0.4359  0.4588  0.1675
  986SOL    HW1 3082   0.107   3.125   1.422  1.3446 -1.6831  0.7670
  986SOL    HW2 3083   0.208   3.087   1.316  0.2001  3.6270 -2.6274
  987SOL     OW 3084   0.547   0.625   1.777  0.2181 -0.6277  0.8132
  987SOL    HW1 3085   0.634   0.620   1.736 -0.0561 -0.4741  0.2055
  987SOL    HW2 3086   0.522   0.717   1.769 -0.7763 -0.9992 -0.6444
  988SOL     OW 3087   2.794   0.163   0.036 -0.0721 -0.4226 -0.0544
  988SOL    HW1 3088   2.796   0.067   0.045  0.5277 -0.7639 -2.7673
  988SOL    HW2 3089   2.833   0.196   0.117  2.5865 -2.6292 -0.2876
  989SOL     OW 3090   0.634   2.589   3.265  0.5038  0.3043  0.1052
  989SOL    HW1 3091   0.630   2.680   3.236  2.0395 -0.3203 -2.4147
  989SOL    HW2 3092   0.708   2.586   3.325  1.4473  0.4982 -0.9982
  990SOL     OW 3093   1.307   1.194   2.047 -0.1447  0.6642  0.0045
  990SOL    HW1 3094   1.344   1.119   2.094 -1.2908 -0.7225 -1.2098
  990SOL    HW2 3095   1.215   1.195   2.074 -0.2388  1.3537 -0.3426
  991SOL     OW 3096   3.565   0.163   2.851  0.0283  0.3427 -0.4312
  991SOL    HW1 3097   3.479   0.203   2.847 -0.8652 -1.3979  0.0312
  991SOL    HW2 3098   3.562   0.094   2.784  0.7423 -0.2597  0.1340
  992SOL     OW 3099   1.045   1.669   1.494  0.9320 -0.3184  0.4419
  992SOL    HW1 3100   1.027   1.725   1.570  1.5126  0.5553 -0.0468
  992SOL    HW2 3101   1.062   1.583   1.532 -1.0719 -0.4672  1.1366
  993SOL     OW 3102   1.147   3.485   0.214  0.4977 -0.1446 -0.2150
  993SOL    HW1 3103   1.196   3.530   0.146  0.6699 -0.0188 -0.0064
  993SOL    HW2 3104   1.213   3.452   0.274  0.2921  0.7924  0.5510
  994SOL     OW 3105   2.266   2.127   0.146 -0.0184 -0.0384 -0.1444
  994SOL    HW1 3106   2.275   2.035   0.121  1.5360  0.0299  0.0908
  994SOL    HW2 3107   2.350   2.167   0.123  0.3989  0.6945  2.2840
  995SOL     OW 3108   2.992   2.466   1.854 -0.0780  0.1780  1.2389
  995SOL    HW1 3109   2.935   2.535   1.887  0.0082 -0.0997  2.0003
  995SOL    HW2 3110   3.078   2.485   1.893 -0.3587 -1.0962  2.5803
  996SOL     OW 3111   1.892   0.369   2.338 -0.0596 -0.1543 -0.2952
  996SOL    HW1 3112   1.933   0.286   2.361 -1.2190 -0.6694 -0.0246
  996SOL    HW2 3113   1.878   0.364   2.244 -2.5975 -1.4593  0.0797
  997SOL     OW 3114   0.601   2.873   3.245  0.5325 -0.1821 -0.0078
  997SOL    HW1 3115   0.605   2.937   3.174  0.3124  2.0651  1.8768
  997SOL    HW2 3116   0.687   2.879   3.287 -0.7765  1.9300  2.6078
  998SOL     OW 3117   0.765   0.685   1.367  0.3201 -0.3144  0.8010
  998SOL    HW1 3118   0.806   0.704   1.452  0.9442  0.3024  0.3678
  998SOL    HW2 3119   0.827   0.627   1.323 -0.5666 -1.6455  1.2354
  999SOL     OW 3120   1.229   0.104   0.429  0.7108 -0.6494 -0.7606
  999SOL    HW1 3121   1.238   0.020   0.474  2.1067  0.7699  1.8767
  999SOL    HW2 3122   1.153   0.146   0.470  2.1880  0.7987  0.6983
 1000SOL     OW 3123   3.271   1.975   2.070  0.8452  0.1080 -0.0036
 1000SOL    HW1 3124   3.297   2.065   2.084  0.0362  0.3509  0.0004
 1000SOL    HW2 3125   3.272   1.964   1.974 -2.3006  1.1720 -0.2746
 1001SOL     OW 3126   1.092   0.945   1.757 -0.6286  0.4559  0.1454
 1001SOL    HW1 3127   1.070   0.965   1.666  2.1603  0.6872 -0.5926
 1001SOL    HW2 3128   1.184   0.916   1.753 -0.4138  0.5179  2.8922
 1002SOL     OW 3129   1.682   0.887   1.966 -0.0705  0.0552 -0.4351
 1002SOL    HW1 3130   1.595   0.855   1.989 -0.6970  0.5660 -1.9808
 1002SOL    HW2 3131   1.671   0.981   1.954  0.2312 -0.1123 -2.4619
 1003SOL     OW 3132   1.817   3.199   2.489 -0.4078  0.2999  0.4564
 1003SOL    HW1 3133   1.817   3.130   2.555 -0.0298  0.3459  0.5041
 1003SOL    HW2 3134   1.860   3.160   2.413 -1.3191  0.0740  0.0504
 1004SOL     OW 3135   3.177   1.687   2.922 -0.5732 -0.2383 -0.7648
 1004SOL    HW1 3136   3.165   1.776   2.889  1.2277 -0.2935 -1.7349
 1004SOL    HW2 3137   3.147   1.631   2.851 -1.9969 -0.4336 -0.0342
 1005SOL     OW 3138   3.399   1.243   2.826  0.3305 -0.0971  0.1817
 1005SOL    HW1 3139   3.401   1.266   2.734  0.3025 -1.2304 -0.1126
 1005SOL    HW2 3140   3.306   1.236   2.847  0.3359 -1.4028 -0.1292
 1006SOL     OW 3141   2.711   2.661   2.623  0.5496 -0.0751 -0.8698
 1006SOL    HW1 3142   2.628   2.613   2.619  0.0193  0.6251  0.7416
 1006SOL    HW2 3143   2.721   2.682   2.716  1.0299  2.4196 -1.4206
 1007SOL     OW 3144   1.267   2.604   0.373 -0.4107  0.2365 -0.0289
 1007SOL    HW1 3145   1.214   2.599   0.293  0.0422  0.7298 -0.3679
 1007SOL    HW2 3146   1.204   2.592   0.444 -0.4952 -2.8399 -0.4798
 1008SOL     OW 3147   3.329   2.478   1.673  0.6801 -0.4390  0.0578
 1008SOL    HW1 3148   3.344   2.388   1.646  3.1738  0.0767 -0.5642
 1008SOL    HW2 3149   3.295   2.472   1.762  2.0864 -1.9814  0.5331
 1009SOL     OW 3150   2.540   0.453   1.422  0.1012 -0.2715 -0.1334
 1009SOL    HW1 3151   2.463   0.473   1.476  0.7959 -1.8075  1.5085
 1009SOL    HW2 3152   2.614   0.484   1.474  0.6481  2.1193 -2.1356
 1010SOL     OW 3153   2.984   1.973   3.321 -0.4920  0.0753  0.4953
 1010SOL    HW1 3154   2.989   1.962   3.416 -1.5428  0.1914  0.5744
 1010SOL    HW2 3155   3.069   1.942   3.289 -0.2727 -0.3327  1.4354
 1011SOL     OW 3156   0.687   0.103   0.060 -0.6030  0.2937 -0.5649
 1011SOL    HW1 3157   0.639   0.037   0.111  0.5894 -1.0413 -1.1201
 1011SOL    HW2 3158   0.750   0.140   0.121  0.0460 -0.4921 -0.7378
 1012SOL     OW 3159   2.064   2.852   0.381 -0.2423 -0.6890 -0.5019
 1012SOL    HW1 3160   2.106   2.902   0.451 -1.3809  0.1784 -0.4115
 1012SOL    HW2 3161   1.972   2.874   0.388 -0.0838  2.2492 -4.3941
 1013SOL     OW 3162   2.040   2.995   1.215  0.0681  0.1543  0.3906
 1013SOL    HW1 3163   2.025   2.943   1.136  0.9371  2.0326 -1.0944
 1013SOL    HW2 3164   2.135   3.005   1.220  0.1385 -0.9949  2.4580
 1014SOL     OW 3165   0.515   0.789   0.701 -0.3575  0.0803 -0.4219
 1014SOL    HW1 3166   0.431   0.827   0.676 -1.2379 -0.7506  1.0979
 1014SOL    HW2 3167   0.571   0.802   0.625 -1.4873  1.7366 -1.0223
 1015SOL     OW 3168   2.175   1.261   0.037 -0.6215  0.1555  0.6226
 1015SOL    HW1 3169   2.178   1.357   0.029  2.1101  0.0560 -0.7350
 1015SOL    HW2 3170   2.243   1.241   0.102  0.6193 -0.9270 -0.9282
 1016SOL     OW 3171   1.449   0.467   1.776  0.6166 -0.5997  0.4749
 1016SOL    HW1 3172   1.412   0.412   1.707  0.4050  1.2361 -0.9542
 1016SOL    HW2 3173   1.398   0.548   1.771  2.9622  0.9479  0.3234
 1017SOL     OW 3174   2.690   2.112   3.034 -0.0227  0.8296  0.1531
 1017SOL    HW1 3175   2.720   2.200   3.014  2.1823 -0.1864 -1.5050
 1017SOL    HW2 3176   2.627   2.091   2.964  0.7756  0.5074 -0.4856
 1018SOL     OW 3177   3.535   2.054   0.969  1.2175 -0.5610 -0.1038
 1018SOL    HW1 3178   3.474   2.068   0.897  1.3345 -0.1730 -0.1318
 1018SOL    HW2 3179   3.501   1.977   1.015 -0.0563  0.4030  0.6635
 1019SOL     OW 3180   3.594   1.057   2.975  0.0162  0.9531  0.2442
 1019SOL    HW1 3181   3.539   1.126   2.938 -0.1208 -0.1695 -1.7885
 1019SOL    HW2 3182   3.593   1.073   3.069 -3.8820  0.9426  0.3361
 1020SOL     OW 3183   2.335   1.111   3.045 -0.3060  0.2197 -0.5408
 1020SOL    HW1 3184   2.311   1.059   3.122 -2.4388 -0.2453 -1.4431
 1020SOL    HW2 3185   2.357   1.197   3.079  0.7394 -0.5200  0.7470
 1021SOL     OW 3186   2.650   1.002   3.160 -0.3029 -0.1102 -0.4154
 1021SOL    HW1 3187   2.569   0.974   3.203  0.2898  0.7497  1.3507
 1021SOL    HW2 3188   2.620   1.044   3.079 -1.6929  0.7486  0.4923
 1022SOL     OW 3189   1.411   2.709   2.074  0.4133 -0.6002  0.3590
 1022SOL    HW1 3190   1.429   2.626   2.030 -0.2487 -0.2045 -0.6900
 1022SOL    HW2 3191   1.449   2.776   2.017  2.2285 -0.2301  1.8989
 1023SOL     OW 3192   1.338   2.181   1.715  0.2755 -0.6875  0.6538
 1023SOL    HW1 3193   1.371   2.271   1.716  1.0698 -0.9803  1.5923
 1023SOL    HW2 3194   1.370   2.142   1.796  0.7854 -2.1188 -0.1933
 1024SOL     OW 3195   3.218   1.785   1.531  0.0269 -0.2100  0.6434
 1024SOL    HW1 3196   3.196   1.850   1.465 -0.5042 -0.8699  0.1506
 1024SOL    HW2 3197   3.295   1.740   1.497  0.2914  0.0511  0.9002
 1025SOL     OW 3198   1.460   3.189   0.778  0.2095  0.4912 -0.2330
 1025SOL    HW1 3199   1.393   3.226   0.836 -1.6355 -0.8579 -1.3703
 1025SOL    HW2 3200   1.410   3.134   0.717  2.3539 -0.2939 -1.3696
 1026SOL     OW 3201   0.244   1.119   2.505 -0.3458  0.2696  0.5292
 1026SOL    HW1 3202   0.178   1.145   2.569 -1.7131 -1.1225 -0.2562
 1026SOL    HW2 3203   0.246   1.023   2.510  0.5829  0.2159 -0.4750
 1027SOL     OW 3204   2.059   2.930   3.532 -0.1000  0.6087  0.0296
 1027SOL    HW1 3205   2.090   2.989   3.600  1.4350  2.5380 -2.1976
 1027SOL    HW2 3206   1.977   2.970   3.501  0.1855  0.7959 -0.4993
 1028SOL     OW 3207   0.844   3.100   0.509 -1.0167  0.3047  0.5635
 1028SOL    HW1 3208   0.889   3.029   0.555 -0.1020 -0.3743 -1.2686
 1028SOL    HW2 3209   0.769   3.120   0.564 -1.0136 -1.7285  1.4063
 1029SOL     OW 3210   0.250   3.463   0.801 -0.5925  0.6099  0.5960
 1029SOL    HW1 3211   0.271   3.433   0.713 -0.6615 -0.6715  0.9945
 1029SOL    HW2 3212   0.321   3.523   0.824  0.4647 -0.5253  0.3888
 1030SOL     OW 3213   1.411   1.271   0.699 -0.0212 -0.1058 -0.8056
 1030SOL    HW1 3214   1.351   1.232   0.762  2.3088 -2.0006  0.3955
 1030SOL    HW2 3215   1.415   1.208   0.627  2.1770 -1.2360  0.1935
 1031SOL     OW 3216   1.293   0.309   1.331  0.2685  0.6401  0.4454
 1031SOL    HW1 3217   1.379   0.273   1.352 -0.0924  0.2365  1.2822
 1031SOL    HW2 3218   1.240   0.232   1.308 -0.1934  0.7516  1.1081
 1032SOL     OW 3219   1.963   3.626   3.444  0.0886  0.6411  0.2321
 1032SOL    HW1 3220   1.899   3.580   3.498  0.7334 -1.0770 -0.3784
 1032SOL    HW2 3221   1.918   3.704   3.413 -0.9691  0.5837  1.5510
 1033SOL     OW 3222   0.528   2.605   2.502 -0.1920 -0.1450 -0.4041
 1033SOL    HW1 3223   0.457   2.619   2.440 -1.9792  0.8112  1.7258
 1033SOL    HW2 3224   0.539   2.510   2.505 -3.4239 -0.6114  1.2317
 1034SOL     OW 3225   1.084   1.284   3.660  0.1829  0.1602 -0.0667
 1034SOL    HW1 3226   1.138   1.360   3.639  0.7958 -0.4824 -0.9289
 1034SOL    HW2 3227   1.038   1.264   3.579  0.6640 -0.8670 -0.1114
 1035SOL     OW 3228   2.291   0.590   1.893 -0.0170 -0.3946 -0.5527
 1035SOL    HW1 3229   2.325   0.670   1.853  4.1784 -0.2689  2.5757
 1035SOL    HW2 3230   2.230   0.620   1.960 -0.4670 -0.0309 -1.1188
 1036SOL     OW 3231   2.090   1.623   2.431  0.4977 -0.1882  0.2938
 1036SOL    HW1 3232   2.114   1.596   2.519 -0.8370 -0.2358  0.6651
 1036SOL    HW2 3233   2.064   1.542   2.387  1.0240 -0.1453 -0.1138
 1037SOL     OW 3234   2.057   2.330   1.825  0.4233 -0.0270 -0.0442
 1037SOL    HW1 3235   2.141   2.299   1.860  0.0126 -1.1536  0.0110
 1037SOL    HW2 3236   2.045   2.279   1.745 -0.1690  0.1766 -0.0848
 1038SOL     OW 3237   2.860   1.101   3.554 -0.6731  0.6383 -0.1462
 1038SOL    HW1 3238   2.844   1.175   3.613 -0.8956  0.3587  0.1509
 1038SOL    HW2 3239   2.955   1.090   3.555 -0.7696 -0.9244  2.1614
 1039SOL     OW 3240   1.179   1.643   1.024 -0.0352 -0.2314 -0.0333
 1039SOL    HW1 3241   1.174   1.606   0.936 -1.7390  0.5215 -0.2897
 1039SOL    HW2 3242   1.192   1.736   1.010  1.6630 -0.3585  0.5673
 1040SOL     OW 3243   0.485   0.869   3.002  0.3129  0.5972  0.0346
 1040SOL    HW1 3244   0.414   0.824   3.048  1.4316  0.1845  1.4249
 1040SOL    HW2 3245   0.450   0.885   2.914 -1.6164  0.7345  0.7747
 1041SOL     OW 3246   2.034   3.566   1.092 -0.3087  0.1775 -0.0556
 1041SOL    HW1 3247   2.027   3.476   1.062 -0.1871  0.2326 -0.2561
 1041SOL    HW2 3248   2.125   3.591   1.071 -0.4204  0.4305 -0.2493
 1042SOL     OW 3249   2.387   3.025   2.020  0.1859  0.2045  0.5279
 1042SOL    HW1 3250   2.399   3.027   1.925  1.5198  4.0650  0.6211
 1042SOL    HW2 3251   2.469   3.057   2.056  0.4611 -3.0002  3.2402
 1043SOL     OW 3252   0.150   2.922   1.904 -0.7331  0.1396 -0.3520
 1043SOL    HW1 3253   0.156   2.882   1.991 -0.5139  0.9080 -0.0077
 1043SOL    HW2 3254   0.066   2.968   1.905 -1.5029 -1.1801 -1.1350
 1044SOL     OW 3255   3.298   0.939   0.506 -0.3325  1.0745 -0.1062
 1044SOL    HW1 3256   3.227   0.876   0.521  0.2603  0.2700 -0.6307
 1044SOL    HW2 3257   3.378   0.892   0.526  0.0242  2.4041  1.8645
 1045SOL     OW 3258   3.201   2.885   2.321 -0.1243 -0.5057  0.3401
 1045SOL    HW1 3259   3.111   2.895   2.289  0.4375  1.1515 -0.8587
 1045SOL    HW2 3260   3.193   2.889   2.417 -1.2772  0.1306  0.2350
 1046SOL     OW 3261   1.143   1.737   1.969  0.1715  0.0170 -0.4026
 1046SOL    HW1 3262   1.146   1.643   1.949  0.1747 -0.1438  0.3036
 1046SOL    HW2 3263   1.097   1.776   1.895 -0.2184 -0.6032 -0.4950
 1047SOL     OW 3264   3.555   3.039   0.769  0.3243 -0.3435 -0.2630
 1047SOL    HW1 3265   3.506   2.970   0.813 -1.7432 -1.1056 -3.4613
 1047SOL    HW2 3266   3.579   3.003   0.684 -0.1764  2.5653 -1.7864
 1048SOL     OW 3267   2.642   1.325   0.958 -0.9692  0.3681 -0.7842
 1048SOL    HW1 3268   2.564   1.271   0.966 -1.2086  0.7428 -0.5463
 1048SOL    HW2 3269   2.661   1.326   0.865 -0.9118 -0.1958 -0.7815
 1049SOL     OW 3270   1.836   3.028   2.255 -0.4690 -0.5472  0.4299
 1049SOL    HW1 3271   1.890   3.001   2.181  0.7570  1.0448  0.6993
 1049SOL    HW2 3272   1.757   2.975   2.247  1.1603 -3.1279  0.1357
 1050SOL     OW 3273   2.357   0.502   1.601  0.5481  0.2681  0.1916
 1050SOL    HW1 3274   2.371   0.502   1.696 -0.0890  0.5538  0.2941
 1050SOL    HW2 3275   2.290   0.569   1.587  0.9127  0.5000 -0.5055
 1051SOL     OW 3276   3.025   1.820   1.072 -0.3673 -0.1424  0.6097
 1051SOL    HW1 3277   2.931   1.831   1.088 -0.5337  0.1871 -0.4714
 1051SOL    HW2 3278   3.046   1.735   1.110 -1.3517 -0.7258 -0.0671
 1052SOL     OW 3279   2.849   1.577   1.324 -0.0468  0.1942  0.3060
 1052SOL    HW1 3280   2.835   1.635   1.249  0.9174  1.0537  0.7633
 1052SOL    HW2 3281   2.814   1.493   1.296  0.4262  0.4571 -1.1734
 1053SOL     OW 3282   1.047   0.545   1.772 -0.0406 -0.7461  0.4087
 1053SOL    HW1 3283   1.072   0.497   1.693 -1.1122  0.4061 -0.6683
 1053SOL    HW2 3284   1.022   0.477   1.835  1.2324 -1.6916 -0.0726
 1054SOL     OW 3285   2.337   1.208   0.627 -0.7047  0.1987 -0.5506
 1054SOL    HW1 3286   2.362   1.292   0.666 -2.3030  1.0298 -1.2371
 1054SOL    HW2 3287   2.255   1.185   0.671  0.4708 -1.8143  0.7450
 1055SOL     OW 3288   0.121   0.382   2.564  0.6739 -0.2826  0.3144
 1055SOL    HW1 3289   0.136   0.306   2.621  0.5874 -0.3317  0.2717
 1055SOL    HW2 3290   0.197   0.438   2.578  0.7285 -0.3685  0.3608
 1056SOL     OW 3291   2.338   0.201   0.760  0.0349  0.0403 -0.2675
 1056SOL    HW1 3292   2.244   0.217   0.753  0.2653  1.0758 -1.2523
 1056SOL    HW2 3293   2.362   0.238   0.845 -0.2305  0.9560 -0.5772
 1057SOL     OW 3294   1.917   0.133   1.201  0.2496 -0.4009 -0.7504
 1057SOL    HW1 3295   1.960   0.117   1.117  0.9473  0.7345 -0.6352
 1057SOL    HW2 3296   1.989   0.133   1.264  0.0234  0.8728 -0.4637
 1058SOL     OW 3297   2.346   3.016   0.214 -0.1937 -0.1679 -0.7104
 1058SOL    HW1 3298   2.253   2.991   0.214 -0.6137  1.2542  0.0751
 1058SOL    HW2 3299   2.373   3.006   0.305  0.5818 -1.0923 -1.0389
 1059SOL     OW 3300   2.927   0.485   1.457 -0.0955 -0.0766 -0.1001
 1059SOL    HW1 3301   2.871   0.480   1.535 -0.7362 -2.1257 -0.6374
 1059SOL    HW2 3302   2.872   0.452   1.386  0.9678  0.3433 -1.1376
 1060SOL     OW 3303   0.769   1.270   2.010 -0.6410 -0.1054  0.5537
 1060SOL    HW1 3304   0.712   1.208   2.055 -3.1439  1.0588 -0.8207
 1060SOL    HW2 3305   0.741   1.356   2.042  0.9002  0.4950  0.3936
 1061SOL     OW 3306   2.935   0.350   3.079 -0.1189 -0.2727 -0.2086
 1061SOL    HW1 3307   2.870   0.411   3.113  0.2526 -0.6405  1.2467
 1061SOL    HW2 3308   2.894   0.311   3.002 -2.4480 -1.8382  1.6684
 1062SOL     OW 3309   3.281   2.106   3.016  1.1374 -1.1100 -0.0292
 1062SOL    HW1 3310   3.352   2.169   3.033  0.8655 -0.9866  0.7040
 1062SOL    HW2 3311   3.276   2.054   3.097 -0.9861  0.2539  0.8006
 1063SOL     OW 3312   2.405   1.666   2.344 -0.2038  0.4204 -0.3697
 1063SOL    HW1 3313   2.420   1.757   2.319  1.1104  0.0397 -1.0545
 1063SOL    HW2 3314   2.456   1.654   2.424 -0.4516  0.3162 -0.2269
 1064SOL     OW 3315   1.670   3.326   0.246  0.4917 -0.5020  0.2208
 1064SOL    HW1 3316   1.629   3.287   0.323  0.2050  0.5291  0.6046
 1064SOL    HW2 3317   1.740   3.264   0.223 -0.9859 -2.0967 -0.2252
 1065SOL     OW 3318   3.393   3.043   2.521  0.6444 -0.0598  0.1545
 1065SOL    HW1 3319   3.408   2.999   2.604 -0.2553 -0.0368  0.3473
 1065SOL    HW2 3320   3.470   3.097   2.507  0.0081  1.4024  1.9203
 1066SOL     OW 3321   2.844   1.657   0.900 -0.5836 -0.4171 -0.1023
 1066SOL    HW1 3322   2.879   1.610   0.976 -1.6433  1.1124  1.4184
 1066SOL    HW2 3323   2.776   1.600   0.866 -0.4604 -0.8906  0.4228
 1067SOL     OW 3324   1.173   3.642   2.889 -0.4208 -0.4992 -0.0767
 1067SOL    HW1 3325   1.226   3.601   2.957 -0.0221  0.1905  0.0388
 1067SOL    HW2 3326   1.087   3.654   2.929 -0.7341 -1.7888 -0.3233
 1068SOL     OW 3327   3.130   0.766   2.363 -0.3936  0.6225 -0.0908
 1068SOL    HW1 3328   3.179   0.816   2.428 -0.4471 -0.3568  0.7112
 1068SOL    HW2 3329   3.127   0.677   2.397 -2.8375  0.6640 -0.0499
 1069SOL     OW 3330   1.697   1.845   2.482  0.1509  0.1171 -0.5466
 1069SOL    HW1 3331   1.684   1.752   2.461 -1.4575  0.2619 -0.2979
 1069SOL    HW2 3332   1.782   1.848   2.526  0.9286 -1.0092 -1.8646
 1070SOL     OW 3333   0.405   2.917   0.605  0.5679  0.3550 -0.5604
 1070SOL    HW1 3334   0.460   2.970   0.662 -1.6777  1.5766  0.5839
 1070SOL    HW2 3335   0.379   2.976   0.535 -0.2308  0.1526 -0.4426
 1071SOL     OW 3336   3.737   2.675   1.613 -0.0191 -0.4951  0.4886
 1071SOL    HW1 3337   3.731   2.771   1.617  0.9106 -0.3549 -0.7636
 1071SOL    HW2 3338   3.651   2.647   1.581 -0.7134 -0.1968  2.0142
 1072SOL     OW 3339   3.131   1.080   2.441  0.2020 -0.6884 -0.3902
 1072SOL    HW1 3340   3.191   1.008   2.423  1.1114 -0.3924  1.2206
 1072SOL    HW2 3341   3.063   1.042   2.496  0.7096 -0.3347  0.5045
 1073SOL     OW 3342   1.051   3.008   3.014  0.3493  0.6201  0.9923
 1073SOL    HW1 3343   1.091   3.016   2.928 -0.5285  0.7379  0.5815
 1073SOL    HW2 3344   1.125   2.998   3.074  1.0981  2.2630  0.4329
 1074SOL     OW 3345   1.867   2.128   1.652 -0.0103 -0.4395 -0.2550
 1074SOL    HW1 3346   1.915   2.047   1.668 -0.1336 -0.5603 -0.4915
 1074SOL    HW2 3347   1.775   2.102   1.649 -0.1828 -0.0587  1.1999
 1075SOL     OW 3348   0.805   3.125   0.236  0.5793 -0.2439 -0.2929
 1075SOL    HW1 3349   0.837   3.085   0.316  0.4816 -2.3250 -1.2355
 1075SOL    HW2 3350   0.849   3.078   0.165 -2.1190 -1.1415 -1.5534
 1076SOL     OW 3351   0.266   0.247   1.582  0.3006  0.3293  0.0778
 1076SOL    HW1 3352   0.196   0.280   1.638  1.3383  1.1646  0.9373
 1076SOL    HW2 3353   0.236   0.160   1.554  0.0933 -0.5071  2.6340
 1077SOL     OW 3354   1.300   0.568   0.180 -0.1202  0.2272 -0.6557
 1077SOL    HW1 3355   1.391   0.542   0.171 -0.7014 -2.1555 -0.1757
 1077SOL    HW2 3356   1.253   0.518   0.113 -1.1912  0.9073 -0.4484
 1078SOL     OW 3357   1.918   1.414   0.722  0.4158 -0.3841 -0.4866
 1078SOL    HW1 3358   1.923   1.505   0.692  2.9450 -0.5991 -0.9852
 1078SOL    HW2 3359   1.826   1.400   0.742 -0.3329  1.7713 -2.0332
 1079SOL     OW 3360   2.405   1.678   1.415  0.0916  0.0822  0.1746
 1079SOL    HW1 3361   2.319   1.652   1.448 -0.2140  0.9946  0.1401
 1079SOL    HW2 3362   2.457   1.598   1.418 -0.4149 -0.2313  1.2962
 1080SOL     OW 3363   2.029   1.911   2.918  0.0147  0.0549  0.2472
 1080SOL    HW1 3364   1.969   1.985   2.931  0.3722  0.3958 -0.0169
 1080SOL    HW2 3365   2.105   1.950   2.875  0.8129 -0.2051  1.3748
 1081SOL     OW 3366   2.703   1.239   3.301 -0.5412  0.1353 -0.3203
 1081SOL    HW1 3367   2.748   1.217   3.382  0.2426  0.3627 -0.6861
 1081SOL    HW2 3368   2.707   1.159   3.248 -1.3797 -0.1327 -0.0035
 1082SOL     OW 3369   2.161   0.110   3.075  0.5092 -0.1853  0.6468
 1082SOL    HW1 3370   2.078   0.157   3.070  0.3105 -0.6877 -1.4078
 1082SOL    HW2 3371   2.191   0.126   3.165 -1.6307  0.2603  1.3498
 1083SOL     OW 3372   3.056   2.467   0.726 -0.7059 -0.3717 -0.2198
 1083SOL    HW1 3373   2.993   2.400   0.700 -0.3293 -1.0567  0.5668
 1083SOL    HW2 3374   3.012   2.514   0.797 -0.3765 -0.7965  0.2735
 1084SOL     OW 3375   1.953   3.582   1.727 -0.4082  0.5353  0.1354
 1084SOL    HW1 3376   1.956   3.644   1.653 -1.8789 -1.2866 -1.5428
 1084SOL    HW2 3377   2.045   3.562   1.744  0.0170  1.8173 -0.4521
 1085SOL     OW 3378   1.844   3.123   3.419  0.6630  0.0818 -0.4123
 1085SOL    HW1 3379   1.770   3.063   3.431  1.2706 -0.1364  3.5579
 1085SOL    HW2 3380   1.804   3.205   3.389 -1.1861 -0.2067  1.0833
 1086SOL     OW 3381   0.037   1.302   0.794 -0.0264  0.3469  0.3234
 1086SOL    HW1 3382  -0.038   1.243   0.800 -0.1327  0.5844  1.7167
 1086SOL    HW2 3383   0.109   1.246   0.765 -0.3907 -0.2170  0.4775
 1087SOL     OW 3384   0.950   2.321   2.537 -0.1574  0.2200 -0.5781
 1087SOL    HW1 3385   1.000   2.328   2.456 -1.0238  1.1076 -1.0561
 1087SOL    HW2 3386   0.977   2.397   2.589 -0.4056  0.2580 -0.5012
 1088SOL     OW 3387   2.676   2.064   0.747 -0.0845  0.0036  0.2548
 1088SOL    HW1 3388   2.729   2.034   0.674 -0.2052  2.7069 -1.0478
 1088SOL    HW2 3389   2.738   2.074   0.819  1.1922  2.5221 -1.0717
 1089SOL     OW 3390   0.411   1.831   3.473 -0.1546 -0.4937  0.5166
 1089SOL    HW1 3391   0.403   1.926   3.467 -0.5088 -0.5058  0.7811
 1089SOL    HW2 3392   0.467   1.807   3.399  0.0573 -0.0645  0.5320
 1090SOL     OW 3393   2.622   1.266   2.961 -0.2764 -0.1421  0.1088
 1090SOL    HW1 3394   2.586   1.283   2.874 -1.1363 -0.7562  0.3356
 1090SOL    HW2 3395   2.653   1.351   2.991  0.0973  0.0660 -0.8160
 1091SOL     OW 3396   0.814   1.791   0.228  0.1428  0.2872 -0.1704
 1091SOL    HW1 3397   0.817   1.716   0.286 -1.3509  1.9933  2.3076
 1091SOL    HW2 3398   0.904   1.826   0.229 -0.0836  0.9282  2.1058
 1092SOL     OW 3399   0.072   1.400   1.033 -0.2679 -0.1536  1.1738
 1092SOL    HW1 3400  -0.023   1.412   1.038 -0.7324 -2.6337 -0.0766
 1092SOL    HW2 3401   0.088   1.372   0.943  1.9314  1.8649  0.8452
 1093SOL     OW 3402   3.142   0.684   1.888 -0.2794 -0.2534  0.2963
 1093SOL    HW1 3403   3.121   0.765   1.842  1.1035 -0.3654 -0.6121
 1093SOL    HW2 3404   3.081   0.620   1.853 -1.4564  0.3890  1.1005
 1094SOL     OW 3405   2.090   3.106   3.265 -0.1400 -0.4366 -0.7142
 1094SOL    HW1 3406   2.067   3.166   3.336  0.9848 -0.3853 -0.3675
 1094SOL    HW2 3407   2.007   3.086   3.222 -1.0346 -1.3271  1.2771
 1095SOL     OW 3408   2.373   0.053   2.118 -0.1223  0.3596 -0.1156
 1095SOL    HW1 3409   2.378  -0.043   2.116 -2.2583  0.2137  0.0736
 1095SOL    HW2 3410   2.418   0.077   2.199  0.1544 -0.5073  0.0000
 1096SOL     OW 3411   0.771   2.727   2.601  0.2355 -0.1505  0.1210
 1096SOL    HW1 3412   0.698   2.768   2.555  0.5584  3.1382  2.1828
 1096SOL    HW2 3413   0.848   2.746   2.547 -0.0915 -1.5906 -0.8934
 1097SOL     OW 3414   1.139   2.196   0.642 -0.3107 -0.1859  0.4493
 1097SOL    HW1 3415   1.051   2.201   0.679 -0.0806  0.5679  0.9390
 1097SOL    HW2 3416   1.140   2.116   0.590 -1.1379 -0.4439  0.8214
 1098SOL     OW 3417   1.893   1.665   2.934  0.0367 -0.4111  0.3118
 1098SOL    HW1 3418   1.912   1.660   3.027 -2.2126 -1.8345  0.7609
 1098SOL    HW2 3419   1.877   1.758   2.917 -0.0893 -0.2152  1.4639
 1099SOL     OW 3420   0.811   0.711   2.188  0.3243 -0.0773  0.7144
 1099SOL    HW1 3421   0.825   0.646   2.120  1.5963  0.2793  0.6240
 1099SOL    HW2 3422   0.884   0.773   2.179  0.1929  0.3035  2.0172
 1100SOL     OW 3423   1.121   1.100   2.487  0.1477  0.0742  0.4699
 1100SOL    HW1 3424   1.131   1.105   2.582 -0.8393 -0.9054  0.6586
 1100SOL    HW2 3425   1.162   1.017   2.463  2.9922  1.6244 -0.4089
 1101SOL     OW 3426   1.386   3.634   0.824  0.2117  0.3579 -0.3028
 1101SOL    HW1 3427   1.336   3.712   0.798 -0.0078  0.5158  0.5369
 1101SOL    HW2 3428   1.450   3.668   0.887 -0.5939 -0.2750  0.9103
 1102SOL     OW 3429   0.462   1.928   3.100  0.7834 -0.6720  0.6805
 1102SOL    HW1 3430   0.443   1.845   3.144  1.0133 -0.8271  0.4855
 1102SOL    HW2 3431   0.488   1.986   3.172 -1.1178 -0.2193  1.0735
 1103SOL     OW 3432   3.202   0.779   0.996  0.4653 -0.3681 -0.1279
 1103SOL    HW1 3433   3.295   0.798   1.009 -0.3428  2.3898  2.9283
 1103SOL    HW2 3434   3.174   0.840   0.928  0.6544 -0.4558 -0.2870
 1104SOL     OW 3435   3.024   2.385   1.596 -0.4734 -0.8094 -0.5858
 1104SOL    HW1 3436   3.005   2.393   1.689  2.0451  0.5928 -0.1019
 1104SOL    HW2 3437   2.976   2.307   1.568  0.4926 -2.6362  2.4178
 1105SOL     OW 3438   3.102   0.099   2.207 -0.0798  0.0915 -0.0367
 1105SOL    HW1 3439   3.018   0.137   2.231 -0.7223 -0.2990 -1.5577
 1105SOL    HW2 3440   3.123   0.138   2.122  0.9959 -0.2619  0.0477
 1106SOL     OW 3441   0.718   0.804   3.437  0.1690 -0.5413  0.4070
 1106SOL    HW1 3442   0.691   0.815   3.528 -1.1300 -0.9442  0.0884
 1106SOL    HW2 3443   0.704   0.890   3.397  0.4611 -0.4451  0.5043
 1107SOL     OW 3444   1.330   3.016   1.390 -0.8881 -0.1561 -0.6823
 1107SOL    HW1 3445   1.384   2.959   1.445 -0.2798 -1.0763 -2.1766
 1107SOL    HW2 3446   1.244   2.975   1.389 -1.0270  0.1124 -0.0682
 1108SOL     OW 3447   0.640   0.372   2.525  0.1745  0.0309  0.3338
 1108SOL    HW1 3448   0.634   0.463   2.554 -0.5262 -0.2858  1.2309
 1108SOL    HW2 3449   0.733   0.350   2.532  0.1827  0.3256  1.2538
 1109SOL     OW 3450   1.559   3.386   1.135 -0.4939  0.3549 -0.8429
 1109SOL    HW1 3451   1.561   3.335   1.215  2.7098  1.7567  0.1560
 1109SOL    HW2 3452   1.537   3.475   1.163 -1.0027  0.5443 -1.7890
 1110SOL     OW 3453   1.108   2.979   2.738 -0.2922 -0.7786  0.0353
 1110SOL    HW1 3454   1.052   2.903   2.757 -0.2904 -0.7742  0.0583
 1110SOL    HW2 3455   1.189   2.940   2.704 -0.5235 -0.7658 -0.5499
 1111SOL     OW 3456   0.119   1.071   3.655 -0.3507 -0.5586 -0.6048
 1111SOL    HW1 3457   0.155   1.018   3.726  0.5366  0.8180  0.0047
 1111SOL    HW2 3458   0.028   1.086   3.680 -0.2981 -0.8579 -0.2267
 1112SOL     OW 3459   0.844   1.271   2.330  0.1377 -0.6729 -0.4620
 1112SOL    HW1 3460   0.874   1.268   2.239 -0.7749 -2.3977 -0.7566
 1112SOL    HW2 3461   0.764   1.323   2.327  1.8222  2.1397 -0.0226
 1113SOL     OW 3462   2.454   1.499   1.755 -0.2068 -0.2002 -0.6024
 1113SOL    HW1 3463   2.500   1.510   1.672 -0.7770  0.0685 -0.8863
 1113SOL    HW2 3464   2.414   1.584   1.772 -2.4370 -1.0116 -1.4769
 1114SOL     OW 3465   2.018   3.460   0.711 -0.3135 -0.3577  0.2326
 1114SOL    HW1 3466   2.014   3.417   0.796  1.1916  0.1244  0.5897
 1114SOL    HW2 3467   1.932   3.447   0.673 -1.2313 -0.0412  2.0904
 1115SOL     OW 3468   2.330   2.681   0.003 -0.0657  0.1890  0.6101
 1115SOL    HW1 3469   2.257   2.720  -0.045 -0.4986 -0.0455  1.0593
 1115SOL    HW2 3470   2.309   2.699   0.095  1.6601  2.2469  0.6716
 1116SOL     OW 3471   2.702   3.448   0.354 -0.6575 -0.3969  0.3701
 1116SOL    HW1 3472   2.667   3.359   0.356 -0.6791 -0.3771  1.0583
 1116SOL    HW2 3473   2.652   3.495   0.420 -0.7731  0.1792 -0.1179
 1117SOL     OW 3474   1.585   2.841   1.889 -0.2088 -0.5107 -0.5029
 1117SOL    HW1 3475   1.554   2.794   1.811  0.0734  0.6623 -1.3384
 1117SOL    HW2 3476   1.565   2.933   1.871 -1.9696 -0.3796  1.6635
 1118SOL     OW 3477   1.005   2.098   1.302  0.2959 -0.0136  0.5774
 1118SOL    HW1 3478   1.080   2.142   1.263  0.5495 -1.5976 -0.7943
 1118SOL    HW2 3479   1.039   2.014   1.333 -1.2526 -1.7331 -2.0296
 1119SOL     OW 3480   2.720   1.253   2.170 -0.0465  0.2690  0.6217
 1119SOL    HW1 3481   2.723   1.342   2.205  2.5973  1.1307 -1.4597
 1119SOL    HW2 3482   2.780   1.203   2.226  0.3859  0.4324  0.3100
 1120SOL     OW 3483   0.853   0.780   0.127 -0.2037 -0.1886 -0.0744
 1120SOL    HW1 3484   0.944   0.785   0.096 -0.0824  0.9799  0.4095
 1120SOL    HW2 3485   0.800   0.800   0.050  0.0421  1.1365  0.0704
 1121SOL     OW 3486   3.394   3.466   2.444  0.5289 -0.1757  0.3336
 1121SOL    HW1 3487   3.393   3.370   2.434  1.9430 -0.1534 -0.2397
 1121SOL    HW2 3488   3.320   3.496   2.392  1.7589 -0.8058 -1.9345
 1122SOL     OW 3489   3.092   0.157   3.578 -1.3411  0.1334  0.7940
 1122SOL    HW1 3490   3.173   0.172   3.627 -0.2546  1.8225 -1.3036
 1122SOL    HW2 3491   3.024   0.200   3.629 -0.7729 -0.5043  2.1305
 1123SOL     OW 3492   2.244   1.969   2.778  0.3342  0.1671  0.1763
 1123SOL    HW1 3493   2.258   1.921   2.696 -2.6009  0.4140 -0.5599
 1123SOL    HW2 3494   2.320   2.027   2.784  0.6901  0.0980 -2.3296
 1124SOL     OW 3495   3.162   3.329   2.605 -0.2700 -0.0463 -0.3940
 1124SOL    HW1 3496   3.186   3.276   2.529  0.6249  1.0252 -0.8783
 1124SOL    HW2 3497   3.158   3.419   2.572 -2.7220  0.1380  0.1751
 1125SOL     OW 3498   2.743   1.326   0.687  0.0373  0.4159  0.1414
 1125SOL    HW1 3499   2.713   1.239   0.659 -1.5093  0.4733  1.4928
 1125SOL    HW2 3500   2.810   1.307   0.753  0.5581  0.2690 -0.4197
 1126SOL     OW 3501   2.905   3.039   0.223 -0.0474  0.1592 -0.1508
 1126SOL    HW1 3502   2.903   2.983   0.300 -1.1132  1.2381  0.6414
 1126SOL    HW2 3503   2.986   3.015   0.178 -0.3493 -1.8386  0.2621
 1127SOL     OW 3504   0.638   3.318   3.107  0.2320  0.1517 -0.3673
 1127SOL    HW1 3505   0.685   3.396   3.137  0.9703 -0.4600  0.1079
 1127SOL    HW2 3506   0.707   3.254   3.088 -0.3615 -0.3926 -0.7270
 1128SOL     OW 3507   2.871   1.216   1.444 -0.3887 -0.7446  0.2002
 1128SOL    HW1 3508   2.856   1.280   1.514 -0.5677  0.1382 -0.6256
 1128SOL    HW2 3509   2.783   1.194   1.413 -0.2805 -0.4947 -0.2988
 1129SOL     OW 3510   2.195   0.764   0.726 -0.3686 -0.5266  0.1701
 1129SOL    HW1 3511   2.230   0.834   0.781  0.2582 -1.8586  1.5391
 1129SOL    HW2 3512   2.163   0.808   0.648  1.8346  1.0843  0.0854
 1130SOL     OW 3513   0.313   2.205   1.465  0.0357  0.1272 -0.2427
 1130SOL    HW1 3514   0.217   2.211   1.470 -0.0057 -0.3401 -0.4875
 1130SOL    HW2 3515   0.342   2.211   1.556 -0.3310 -1.5393  0.0186
 1131SOL     OW 3516   0.383   0.530   2.190  0.0861  0.2654 -0.1681
 1131SOL    HW1 3517   0.434   0.600   2.230  1.1659 -1.7987  2.3603
 1131SOL    HW2 3518   0.298   0.534   2.233  0.8531 -1.2099  1.6007
 1132SOL     OW 3519   3.170   2.853   1.624  0.5641 -0.2083 -0.0791
 1132SOL    HW1 3520   3.116   2.864   1.546 -0.0396  1.0070  0.4857
 1132SOL    HW2 3521   3.122   2.791   1.678  0.5679 -0.4112 -0.3056
 1133SOL     OW 3522   2.401   3.490   2.294 -0.6411 -0.1997 -0.7430
 1133SOL    HW1 3523   2.351   3.426   2.243 -1.6219 -1.6288  1.8447
 1133SOL    HW2 3524   2.342   3.518   2.363  1.4051 -0.3378  1.1803
 1134SOL     OW 3525   0.186  -0.017   0.614  0.1834  0.2967  0.0330
 1134SOL    HW1 3526   0.252   0.013   0.552 -0.0325  1.3443  0.2908
 1134SOL    HW2 3527   0.208   0.027   0.696 -0.4024  0.0787  0.3112
 1135SOL     OW 3528   3.655   3.510   3.559  0.1619 -0.3525  0.0817
 1135SOL    HW1 3529   3.720   3.507   3.488  1.3470  0.2831  1.1025
 1135SOL    HW2 3530   3.707   3.508   3.639 -1.1777 -1.4429  0.9605
 1136SOL     OW 3531   1.127   3.127   0.494 -0.6363 -0.1931 -0.3126
 1136SOL    HW1 3532   1.173   3.077   0.427  0.1015  0.3954 -0.2560
 1136SOL    HW2 3533   1.034   3.113   0.475 -0.4360 -0.2794 -1.2763
 1137SOL     OW 3534   0.084   3.171   1.601  0.1430 -0.3744  0.2602
 1137SOL    HW1 3535   0.029   3.104   1.642 -0.1373 -0.9190 -0.9833
 1137SOL    HW2 3536   0.031   3.250   1.602  0.4704 -0.1472  1.7256
 1138SOL     OW 3537   3.331   1.667   0.613  0.5784 -0.1969  0.1374
 1138SOL    HW1 3538   3.327   1.708   0.699  0.4328 -0.5799  0.3142
 1138SOL    HW2 3539   3.357   1.576   0.630 -0.1710 -0.4749 -0.1486
 1139SOL     OW 3540   0.040   0.626   0.258  0.2549  0.2008 -0.1533
 1139SOL    HW1 3541  -0.005   0.659   0.335  0.1364 -0.1157 -0.0833
 1139SOL    HW2 3542   0.133   0.628   0.282  0.2964  1.0821 -0.3883
 1140SOL     OW 3543   2.783   3.162   2.302 -0.3338  0.2060 -0.4044
 1140SOL    HW1 3544   2.821   3.227   2.360  0.0723 -1.2354  1.0175
 1140SOL    HW2 3545   2.749   3.094   2.361 -0.2489 -1.1327 -1.8262
 1141SOL     OW 3546   0.550   0.612   0.900  1.2387 -0.2312 -0.2756
 1141SOL    HW1 3547   0.506   0.654   0.973 -0.3719 -1.7315 -0.3371
 1141SOL    HW2 3548   0.515   0.656   0.822 -0.1069 -1.3231 -0.3174
 1142SOL     OW 3549   0.058   1.456   2.468  0.0873  0.1659  0.3128
 1142SOL    HW1 3550   0.087   1.466   2.378  3.1103  1.3130  1.2566
 1142SOL    HW2 3551   0.036   1.545   2.496  2.1774  0.3873  1.4950
 1143SOL     OW 3552   2.668   2.363   2.432 -0.3749 -0.0774  0.1785
 1143SOL    HW1 3553   2.645   2.432   2.494  2.0934 -0.2648  1.4490
 1143SOL    HW2 3554   2.737   2.402   2.378  1.0740 -1.4616  0.9231
 1144SOL     OW 3555   3.360   2.516   2.543 -0.1559  0.2243 -0.5104
 1144SOL    HW1 3556   3.428   2.458   2.576  0.0273  0.4130 -0.5567
 1144SOL    HW2 3557   3.305   2.534   2.619 -0.0079  0.2758 -0.4153
 1145SOL     OW 3558   3.637   2.541   2.342  0.5270  0.5541 -0.4694
 1145SOL    HW1 3559   3.589   2.469   2.383  0.0903  0.4116 -1.2148
 1145SOL    HW2 3560   3.598   2.620   2.379  0.0991  0.4283 -0.6472
 1146SOL     OW 3561   2.964   1.722   1.597  0.0636 -0.1969 -0.0591
 1146SOL    HW1 3562   2.985   1.719   1.690  0.2099  2.3267  0.0436
 1146SOL    HW2 3563   3.041   1.687   1.553 -0.1483 -1.7592  0.7255
 1147SOL     OW 3564   1.432   0.059   1.057 -0.2710 -0.1178  0.7161
 1147SOL    HW1 3565   1.423   0.030   1.147  0.4220  0.8127  1.0957
 1147SOL    HW2 3566   1.344   0.052   1.020 -0.6730  0.0804  1.6352
 1148SOL     OW 3567   3.415   0.006   2.703 -0.3912  0.1877  0.6521
 1148SOL    HW1 3568   3.342  -0.040   2.746 -2.0520  1.8949 -0.2029
 1148SOL    HW2 3569   3.375   0.083   2.663  1.8530  1.0099 -0.1797
 1149SOL     OW 3570   2.770   3.447   0.767 -0.0443 -0.4920  0.0556
 1149SOL    HW1 3571   2.793   3.426   0.858  2.6152  0.1757 -0.3794
 1149SOL    HW2 3572   2.771   3.362   0.723 -0.1687 -0.6839  0.4136
 1150SOL     OW 3573   0.598   1.052   0.226 -0.4053  0.5751  0.2151
 1150SOL    HW1 3574   0.676   0.997   0.227 -0.5647  0.3401  1.1056
 1150SOL    HW2 3575   0.629   1.137   0.259 -0.1608  1.0355 -1.1507
 1151SOL     OW 3576   0.505   1.413   0.766  0.6295 -0.1279 -0.1467
 1151SOL    HW1 3577   0.583   1.459   0.797  0.5895  0.8191 -1.3708
 1151SOL    HW2 3578   0.434   1.445   0.822  0.7167  0.8472 -0.5701
 1152SOL     OW 3579   0.987   1.531   1.895 -0.0014  0.1088 -0.3840
 1152SOL    HW1 3580   0.909   1.506   1.847 -0.7288 -1.1835  1.3468
 1152SOL    HW2 3581   1.030   1.448   1.916  0.7934  0.6782  0.3223
 1153SOL     OW 3582   2.884   2.802   3.389 -0.1711 -0.4130 -0.3310
 1153SOL    HW1 3583   2.865   2.711   3.412  0.4446 -0.7374 -1.0767
 1153SOL    HW2 3584   2.847   2.813   3.302 -0.3079  0.0814 -0.2145
 1154SOL     OW 3585   0.191   1.335   2.755  0.1095  0.1401  0.4543
 1154SOL    HW1 3586   0.100   1.332   2.787  0.1421 -0.1638  0.5252
 1154SOL    HW2 3587   0.205   1.426   2.731  0.0624  0.3684  1.2625
 1155SOL     OW 3588   1.804   3.452   0.556 -0.5208 -0.2418 -0.0777
 1155SOL    HW1 3589   1.811   3.386   0.487 -0.9016 -0.1737 -0.1830
 1155SOL    HW2 3590   1.719   3.436   0.596  0.0433 -0.8104  0.9286
 1156SOL     OW 3591   2.358   2.244   3.266  0.6371  0.1641 -0.4093
 1156SOL    HW1 3592   2.279   2.262   3.315  0.5902 -0.9667 -0.0324
 1156SOL    HW2 3593   2.327   2.215   3.180  0.6830  0.9665 -0.6986
 1157SOL     OW 3594   0.640   2.545   2.780  0.2172  0.5154  0.3582
 1157SOL    HW1 3595   0.668   2.454   2.773  2.3997  1.1851 -0.3746
 1157SOL    HW2 3596   0.671   2.586   2.700 -1.7743  1.6756  0.1325
 1158SOL     OW 3597   1.930   2.697   2.300 -0.4134 -0.6298 -0.0093
 1158SOL    HW1 3598   1.875   2.756   2.249 -1.2443  0.2671  1.8435
 1158SOL    HW2 3599   1.994   2.754   2.342  0.0836 -1.3124  0.1791
 1159SOL     OW 3600   2.662   0.100   3.168 -0.3932  0.3111 -0.3407
 1159SOL    HW1 3601   2.738   0.091   3.226  0.7474  0.5396 -1.7588
 1159SOL    HW2 3602   2.630   0.011   3.157  1.1181 -0.1246 -1.5833
 1160SOL     OW 3603   2.931   3.655   3.162 -0.1643 -0.5246 -0.7443
 1160SOL    HW1 3604   2.913   3.701   3.244 -1.5401 -1.4278 -0.5017
 1160SOL    HW2 3605   2.987   3.714   3.113 -1.5540  1.2438 -0.2852
 1161SOL     OW 3606   3.019   0.814   0.504 -0.6915 -0.3916  0.1666
 1161SOL    HW1 3607   2.995   0.822   0.412  2.4097 -0.4302 -0.7548
 1161SOL    HW2 3608   2.947   0.767   0.544 -2.0571 -0.5017 -2.2614
 1162SOL     OW 3609   1.758   2.271   2.107 -0.1639  0.2893  0.2523
 1162SOL    HW1 3610   1.850   2.245   2.104  0.4385  2.2434 -0.3875
 1162SOL    HW2 3611   1.718   2.214   2.173  1.2592 -1.2752 -0.1855
 1163SOL     OW 3612   0.531   1.178   2.396 -0.0828  0.3466  0.2207
 1163SOL    HW1 3613   0.437   1.164   2.412  0.1487 -1.3049  0.3161
 1163SOL    HW2 3614   0.543   1.272   2.405 -1.4909  0.4336  1.6441
 1164SOL     OW 3615   0.589   2.230   1.363 -0.2899 -0.0902 -0.7691
 1164SOL    HW1 3616   0.502   2.205   1.333 -0.5979 -1.7978  1.2260
 1164SOL    HW2 3617   0.641   2.150   1.354  0.5105  0.3363 -0.1316
 1165SOL     OW 3618   3.481   1.933   0.347 -0.5917  0.2367 -0.9276
 1165SOL    HW1 3619   3.520   1.910   0.431 -1.5639  0.2405 -0.4617
 1165SOL    HW2 3620   3.478   2.028   0.346 -0.2042  0.2501 -1.1520
 1166SOL     OW 3621   0.875   2.577   2.057 -0.1546  0.0913  0.0237
 1166SOL    HW1 3622   0.790   2.543   2.028 -0.2106 -2.2061  2.4746
 1166SOL    HW2 3623   0.858   2.613   2.144  1.3064 -0.1332  0.4259
 1167SOL     OW 3624   3.071   1.788   2.119  0.0577 -0.0337  0.7672
 1167SOL    HW1 3625   3.147   1.841   2.145 -0.4760  1.0714  0.1628
 1167SOL    HW2 3626   3.055   1.730   2.193  1.2864 -0.0616  1.0358
 1168SOL     OW 3627   1.122   2.062   1.627  0.5379 -0.5084  0.2663
 1168SOL    HW1 3628   1.203   2.094   1.665  0.7885 -0.6144 -0.1748
 1168SOL    HW2 3629   1.091   2.135   1.573  1.1227 -0.9986 -0.7613
 1169SOL     OW 3630   1.347   0.201   3.257  0.4364  0.4557  0.2921
 1169SOL    HW1 3631   1.420   0.148   3.226 -0.7643 -1.6734  0.8824
 1169SOL    HW2 3632   1.298   0.224   3.178 -1.0672 -2.5698  0.1898
 1170SOL     OW 3633   1.788   1.101   2.798  0.2029 -0.0669 -0.7272
 1170SOL    HW1 3634   1.867   1.053   2.824 -0.1905 -0.1737  0.3349
 1170SOL    HW2 3635   1.739   1.110   2.879 -1.1590 -0.5131 -1.4745
 1171SOL     OW 3636   2.388   2.070   1.954 -0.8258 -0.0449 -0.4977
 1171SOL    HW1 3637   2.434   2.071   1.870 -0.5891  0.0337 -0.3661
 1171SOL    HW2 3638   2.373   2.163   1.974 -0.7608 -0.0581 -0.3869
 1172SOL     OW 3639   2.515   0.782   1.606 -0.6131  0.1295  0.3247
 1172SOL    HW1 3640   2.442   0.781   1.669 -1.4236 -2.4704 -0.5084
 1172SOL    HW2 3641   2.560   0.699   1.622 -0.1024 -0.0163 -1.6817
 1173SOL     OW 3642   2.580   3.258   2.155  0.2257 -0.4546  0.4942
 1173SOL    HW1 3643   2.552   3.329   2.212 -0.1759 -0.9598  0.9443
 1173SOL    HW2 3644   2.650   3.214   2.203  1.3355  0.3745 -0.3231
 1174SOL     OW 3645   1.244   0.161   2.237 -0.1928 -0.6285  0.0489
 1174SOL    HW1 3646   1.305   0.195   2.302  0.0269  0.4107 -0.6924
 1174SOL    HW2 3647   1.257   0.066   2.240  2.0491 -0.3846 -0.6741
 1175SOL     OW 3648   2.145   2.450   2.471  0.2054 -0.4219  0.0203
 1175SOL    HW1 3649   2.181   2.532   2.504 -0.8222  0.0582 -0.0322
 1175SOL    HW2 3650   2.112   2.471   2.384 -0.2265 -0.8496  0.0742
 1176SOL     OW 3651   1.652   2.094   1.373 -0.1810  0.4373  0.0109
 1176SOL    HW1 3652   1.666   2.018   1.316  2.0247  1.2079 -0.6003
 1176SOL    HW2 3653   1.613   2.057   1.453  2.1712 -1.6436  0.3328
 1177SOL     OW 3654   3.355   2.608   3.383 -0.0830  0.1068  0.0469
 1177SOL    HW1 3655   3.444   2.622   3.350  0.6529 -1.3032  1.2939
 1177SOL    HW2 3656   3.315   2.549   3.320 -0.0484  0.5120 -0.3627
 1178SOL     OW 3657   3.358   1.088   1.456  0.4604 -0.3741  0.3607
 1178SOL    HW1 3658   3.412   1.087   1.377 -1.0280 -1.4311 -0.7213
 1178SOL    HW2 3659   3.274   1.125   1.427 -0.8167 -2.6561  0.8818
 1179SOL     OW 3660   0.666   1.717   3.427  0.1433 -0.0235  0.7912
 1179SOL    HW1 3661   0.635   1.648   3.369 -2.7074  0.0988  2.0387
 1179SOL    HW2 3662   0.670   1.677   3.513  1.3614  0.6207  1.0598
 1180SOL     OW 3663   1.784   1.349   1.075 -0.5267 -0.6050  0.1673
 1180SOL    HW1 3664   1.791   1.306   0.990 -0.0360 -0.0089 -0.1043
 1180SOL    HW2 3665   1.871   1.340   1.113 -0.2971  0.5063 -0.0757
 1181SOL     OW 3666   1.185   0.534   3.599 -0.4439  0.0741  0.3207
 1181SOL    HW1 3667   1.120   0.482   3.646 -2.7301  1.0669 -1.5404
 1181SOL    HW2 3668   1.225   0.472   3.538 -1.2815 -0.0897 -0.0792
 1182SOL     OW 3669   1.994   2.504   0.305  0.0883 -0.4749  0.0572
 1182SOL    HW1 3670   1.916   2.555   0.284  0.8108 -0.0392 -1.7921
 1182SOL    HW2 3671   2.013   2.456   0.224  2.4211  0.3660  0.0369
 1183SOL     OW 3672   2.844   2.421   1.297 -0.1643 -0.2163  0.7205
 1183SOL    HW1 3673   2.900   2.352   1.261 -1.4263 -0.4629 -0.8904
 1183SOL    HW2 3674   2.905   2.487   1.330  1.1034 -0.3620 -1.1918
 1184SOL     OW 3675  -0.023   0.160   1.334  0.2591 -0.2416  0.0438
 1184SOL    HW1 3676  -0.029   0.081   1.387 -0.4047  0.6907  1.4240
 1184SOL    HW2 3677   0.055   0.147   1.280  0.6993 -1.4154  0.9207
 1185SOL     OW 3678   0.436   0.474   3.613 -0.2238  0.9367 -0.1613
 1185SOL    HW1 3679   0.386   0.536   3.559  1.0609  0.8180 -1.5569
 1185SOL    HW2 3680   0.438   0.394   3.562  2.5157  1.3383 -0.8547
 1186SOL     OW 3681   2.377   3.493   0.369  0.2385 -0.1236 -0.6504
 1186SOL    HW1 3682   2.449   3.549   0.397  0.8589 -1.6783  1.1011
 1186SOL    HW2 3683   2.365   3.432   0.442 -2.3988 -0.3642 -1.1872
 1187SOL     OW 3684   0.457   3.346   2.300 -0.7921 -0.1994 -0.1095
 1187SOL    HW1 3685   0.522   3.278   2.316  0.9077  0.9602 -1.6859
 1187SOL    HW2 3686   0.405   3.348   2.380  1.6233 -0.6414  1.5789
 1188SOL     OW 3687   3.637   3.642   0.258 -0.8836 -0.1557  0.2785
 1188SOL    HW1 3688   3.660   3.594   0.338 -0.8974  0.0512  0.4092
 1188SOL    HW2 3689   3.696   3.608   0.191 -2.7210 -2.3902 -0.3415
 1189SOL     OW 3690   1.865   0.364   2.043 -0.1961  0.1110 -0.4596
 1189SOL    HW1 3691   1.834   0.345   1.955  1.2484  0.9866 -1.1995
 1189SOL    HW2 3692   1.960   0.372   2.033  0.2945 -2.0823  1.5957
 1190SOL     OW 3693   0.181   0.177   1.161 -0.5181 -0.2065 -0.7256
 1190SOL    HW1 3694   0.230   0.239   1.108  0.3154 -1.1092 -1.0372
 1190SOL    HW2 3695   0.246   0.113   1.190 -0.8176  0.5310  1.8510
 1191SOL     OW 3696   0.027   2.538   0.537 -0.0314  0.2751 -0.5588
 1191SOL    HW1 3697   0.056   2.569   0.452  0.7616 -0.5873 -0.6139
 1191SOL    HW2 3698  -0.025   2.611   0.573 -0.6401  0.5245 -1.8986
 1192SOL     OW 3699   1.044   0.493   2.427 -0.6249 -0.3910  0.4265
 1192SOL    HW1 3700   1.022   0.565   2.368  2.1938 -0.5660 -0.9948
 1192SOL    HW2 3701   1.016   0.414   2.380  1.8324 -0.5473 -0.9351
 1193SOL     OW 3702   0.269   0.744   3.089  0.4212  0.2366  0.0787
 1193SOL    HW1 3703   0.176   0.750   3.114  0.0153  0.1174 -1.3070
 1193SOL    HW2 3704   0.291   0.652   3.102 -0.1835 -0.1214 -1.2613
 1194SOL     OW 3705   1.895   3.414   2.263  0.2904 -0.0282 -0.2601
 1194SOL    HW1 3706   1.828   3.372   2.316 -0.1384  1.4842  0.4553
 1194SOL    HW2 3707   1.938   3.476   2.323  2.3028 -0.9040 -0.7051
 1195SOL     OW 3708   2.169   0.171   2.809  0.4169 -0.0272  0.2432
 1195SOL    HW1 3709   2.244   0.138   2.860  0.1098 -1.2853 -0.0690
 1195SOL    HW2 3710   2.098   0.177   2.872  0.4710  0.0146  0.3003
 1196SOL     OW 3711   0.941   3.148   2.556 -0.6651 -0.0372 -0.0663
 1196SOL    HW1 3712   0.950   3.242   2.571  0.8718  0.0155 -1.1235
 1196SOL    HW2 3713   1.027   3.111   2.577 -0.9302 -1.0548 -0.6761
 1197SOL     OW 3714   2.354   0.580   0.381 -0.7149 -0.5141 -0.2632
 1197SOL    HW1 3715   2.410   0.618   0.448 -1.9019  1.0244 -0.0686
 1197SOL    HW2 3716   2.414   0.533   0.323  0.4893 -0.7450  1.1081
 1198SOL     OW 3717   1.611   0.111   0.550  0.2740 -0.0625  0.3317
 1198SOL    HW1 3718   1.565   0.030   0.529  0.5176  0.1169 -1.0084
 1198SOL    HW2 3719   1.599   0.166   0.472  1.0525  0.7643  0.7744
 1199SOL     OW 3720   0.944   2.064   2.600  0.1808  0.0167  0.7866
 1199SOL    HW1 3721   0.938   2.156   2.576  0.7021 -0.3580 -0.8789
 1199SOL    HW2 3722   1.002   2.063   2.676 -1.3588  1.2159  2.0533
 1200SOL     OW 3723   2.247   2.716   2.557 -0.2480  0.1906 -0.1612
 1200SOL    HW1 3724   2.229   2.762   2.639 -0.3802  0.0094 -0.0861
 1200SOL    HW2 3725   2.188   2.757   2.494  0.9819  1.4294 -0.5571
 1201SOL     OW 3726   1.444   0.718   1.964  0.7139  0.0414  0.2238
 1201SOL    HW1 3727   1.393   0.716   1.883  0.4957  0.5951  0.3430
 1201SOL    HW2 3728   1.400   0.654   2.021  0.0968  0.5745  0.3561
 1202SOL     OW 3729   0.408   1.515   1.742 -0.5071 -0.0739 -0.4929
 1202SOL    HW1 3730   0.436   1.434   1.784  0.9107  0.7833  0.2866
 1202SOL    HW2 3731   0.400   1.493   1.649 -1.0196 -1.3055 -0.1758
 1203SOL     OW 3732   2.942   3.325   2.771  0.1270  0.2410 -0.7949
 1203SOL    HW1 3733   3.009   3.319   2.703 -0.4338  0.3064 -1.3487
 1203SOL    HW2 3734   2.988   3.367   2.844  0.9783 -0.6401 -0.7969
 1204SOL     OW 3735   2.783   2.765   2.291 -0.6646  0.6005  0.8462
 1204SOL    HW1 3736   2.718   2.695   2.292 -2.0709  1.8478  0.2159
 1204SOL    HW2 3737   2.770   2.812   2.374 -0.6922  0.9705  0.6346
 1205SOL     OW 3738   0.790   3.277   3.605  0.3137  0.1961 -0.1805
 1205SOL    HW1 3739   0.861   3.326   3.646 -0.6628  0.4661  1.2544
 1205SOL    HW2 3740   0.822   3.187   3.601  1.9133  0.7984 -2.3524
 1206SOL     OW 3741   3.522   1.958   2.458 -0.4430 -0.2549  0.1223
 1206SOL    HW1 3742   3.453   2.012   2.497  0.5657 -0.3911  2.3047
 1206SOL    HW2 3743   3.554   2.009   2.384 -1.8702  0.4923 -0.0027
 1207SOL     OW 3744   2.037   0.845   2.800  0.0748  0.0739  0.1226
 1207SOL    HW1 3745   2.123   0.803   2.803  0.0763 -0.0993 -1.4648
 1207SOL    HW2 3746   2.040   0.899   2.721 -0.6819  1.4163  0.9780
 1208SOL     OW 3747   3.538   1.818   2.012 -0.3430  0.2181 -0.4769
 1208SOL    HW1 3748   3.588   1.754   2.063 -1.4239 -0.9250 -0.8212
 1208SOL    HW2 3749   3.562   1.902   2.051  0.2245 -0.4739  0.7466
 1209SOL     OW 3750   2.597   0.447   2.640 -0.1160  0.1244  0.3331
 1209SOL    HW1 3751   2.522   0.478   2.589 -0.1845  2.6179  1.7483
 1209SOL    HW2 3752   2.672   0.455   2.581 -0.5786  0.2765 -0.2420
 1210SOL     OW 3753   3.287   0.820   2.604  0.5706 -0.8919 -0.1563
 1210SOL    HW1 3754   3.374   0.809   2.644  0.9172 -0.3715 -0.7528
 1210SOL    HW2 3755   3.234   0.862   2.671  0.6308 -1.6738  0.3932
 1211SOL     OW 3756   2.742   2.494   1.561  0.0592  0.5260 -0.1037
 1211SOL    HW1 3757   2.715   2.562   1.499  1.5572  0.3198 -1.0327
 1211SOL    HW2 3758   2.832   2.474   1.537  0.1311 -0.7617  1.1000
 1212SOL     OW 3759   2.898   2.148   1.574  0.6507  0.7688 -0.1949
 1212SOL    HW1 3760   2.873   2.081   1.511  2.5506 -1.3593  1.1424
 1212SOL    HW2 3761   2.835   2.138   1.645  0.3309  1.0985 -0.4301
 1213SOL     OW 3762   1.511   1.972   1.033  0.5020 -0.1867  0.0821
 1213SOL    HW1 3763   1.514   1.976   0.937 -0.9814 -1.0778 -0.0301
 1213SOL    HW2 3764   1.513   2.064   1.060 -0.7034  0.1528 -0.8876
 1214SOL     OW 3765   1.434   0.317   0.053  0.4447  0.3165  0.2369
 1214SOL    HW1 3766   1.416   0.333  -0.040 -0.2318  1.0615  0.4873
 1214SOL    HW2 3767   1.369   0.251   0.079  1.2142 -0.5634 -0.0283
 1215SOL     OW 3768   0.388   2.121   2.426  0.4675 -0.0920 -0.5267
 1215SOL    HW1 3769   0.303   2.080   2.439  1.3771 -1.8932  0.0346
 1215SOL    HW2 3770   0.447   2.049   2.404  2.0454  0.9835 -0.0456
 1216SOL     OW 3771   2.835   2.158   2.550 -0.2946 -0.4247 -0.0884
 1216SOL    HW1 3772   2.758   2.215   2.544  0.8577  1.0824 -1.5314
 1216SOL    HW2 3773   2.818   2.089   2.486 -0.3392  0.0900 -0.6487
 1217SOL     OW 3774   0.639   0.078   2.373  0.6233  0.6197  0.4260
 1217SOL    HW1 3775   0.604   0.160   2.337  0.8346  1.0625  1.1996
 1217SOL    HW2 3776   0.580   0.010   2.342 -0.0733  1.1792  0.5080
 1218SOL     OW 3777   2.343   0.091   0.500 -0.3342  0.3343  0.0965
 1218SOL    HW1 3778   2.280   0.029   0.538  1.6076 -0.3770  2.3803
 1218SOL    HW2 3779   2.333   0.170   0.553 -0.2143  0.6894 -0.4042
 1219SOL     OW 3780   2.235   3.282   3.122  0.1898  0.4959 -0.3856
 1219SOL    HW1 3781   2.179   3.236   3.185  1.4572 -0.9850 -0.2774
 1219SOL    HW2 3782   2.187   3.362   3.100 -0.7988  0.4825  1.5809
 1220SOL     OW 3783   2.528   2.536   1.813 -0.2739 -0.4635  0.2741
 1220SOL    HW1 3784   2.585   2.519   1.738 -1.0838 -0.2873 -0.4071
 1220SOL    HW2 3785   2.521   2.631   1.817  0.2815 -0.4447  0.9885
 1221SOL     OW 3786   2.562   3.411   3.231 -0.2599 -1.0918 -0.9343
 1221SOL    HW1 3787   2.493   3.346   3.243 -0.5305 -0.5786  0.3978
 1221SOL    HW2 3788   2.527   3.492   3.269  2.2078 -1.5467  2.8430
 1222SOL     OW 3789   3.377   2.927   2.782 -0.3598 -0.2883  0.4497
 1222SOL    HW1 3790   3.446   2.863   2.766 -1.4253 -1.7614  1.5145
 1222SOL    HW2 3791   3.350   2.911   2.872 -2.5264 -0.1599 -0.1332
 1223SOL     OW 3792   1.273   1.603   2.202  0.0604 -0.0915  0.1533
 1223SOL    HW1 3793   1.282   1.603   2.107 -0.1307 -1.6547  0.1209
 1223SOL    HW2 3794   1.308   1.519   2.231 -2.6575 -1.0195  1.1440
 1224SOL     OW 3795   2.314   0.333   1.861 -0.2036 -0.6909 -0.2066
 1224SOL    HW1 3796   2.274   0.416   1.888 -2.9101 -1.9333 -0.1095
 1224SOL    HW2 3797   2.404   0.338   1.895 -0.4487  1.9265  0.2828
 1225SOL     OW 3798   0.212   1.042   3.092 -0.3367  0.5019 -0.3214
 1225SOL    HW1 3799   0.269   1.056   3.016  1.4311 -2.9143  0.1749
 1225SOL    HW2 3800   0.156   0.969   3.066 -2.2078  1.6152  0.4555
 1226SOL     OW 3801   1.356   3.388   1.660 -0.2524  0.5521  0.2806
 1226SOL    HW1 3802   1.339   3.468   1.612  0.6786  0.6855  0.1518
 1226SOL    HW2 3803   1.382   3.418   1.747  1.6358  0.4783 -0.2278
 1227SOL     OW 3804   2.443   2.918   0.469  0.2595 -0.0393  0.2220
 1227SOL    HW1 3805   2.500   2.845   0.492  1.9845  1.0496 -0.3338
 1227SOL    HW2 3806   2.357   2.895   0.504  0.7556 -2.2899  0.0832
 1228SOL     OW 3807   0.714   1.765   1.639  0.2908 -0.5155  0.2025
 1228SOL    HW1 3808   0.658   1.825   1.690  1.6790  0.0365  1.1529
 1228SOL    HW2 3809   0.655   1.726   1.575 -1.3147 -0.4166  1.5420
 1229SOL     OW 3810   3.017   2.787   2.972 -0.3574 -0.6392 -0.2646
 1229SOL    HW1 3811   3.040   2.830   2.890 -0.6138 -0.2741 -0.1469
 1229SOL    HW2 3812   3.001   2.858   3.033  1.7483 -0.9090  0.6546
 1230SOL     OW 3813   3.032   0.212   1.057 -0.3204  0.3490 -0.7445
 1230SOL    HW1 3814   2.953   0.160   1.039 -0.4247 -0.2908  1.2696
 1230SOL    HW2 3815   3.078   0.163   1.125  1.1898  1.3555 -0.9903
 1231SOL     OW 3816   1.081   0.350   1.577 -0.0896 -0.5950  0.3742
 1231SOL    HW1 3817   1.136   0.281   1.616 -1.0738 -0.1639  2.6927
 1231SOL    HW2 3818   0.998   0.307   1.557 -0.0370 -0.5121 -0.0309
 1232SOL     OW 3819   0.961   1.934   1.021  0.0981  0.1249 -0.2415
 1232SOL    HW1 3820   0.936   1.969   0.936  0.3354  0.2140 -0.2745
 1232SOL    HW2 3821   1.052   1.963   1.033 -0.1216  0.5953  0.2981
 1233SOL     OW 3822   0.743   1.222   1.050 -0.0754 -0.0699  0.6254
 1233SOL    HW1 3823   0.678   1.245   1.117 -0.7234  0.1401 -0.0678
 1233SOL    HW2 3824   0.700   1.155   0.997 -0.9039  2.0896 -1.6202
 1234SOL     OW 3825   2.351   3.329   3.544 -0.1741 -0.1054  0.6027
 1234SOL    HW1 3826   2.402   3.301   3.620  1.5873 -0.3524 -0.6118
 1234SOL    HW2 3827   2.390   3.282   3.471 -2.1216 -0.2204 -0.4161
 1235SOL     OW 3828   3.425   3.175   1.746 -0.1168  0.4620 -0.0841
 1235SOL    HW1 3829   3.461   3.126   1.672 -0.7913 -0.7776  0.3679
 1235SOL    HW2 3830   3.502   3.208   1.792  0.3930  4.5233 -3.2810
 1236SOL     OW 3831   0.154   3.016   3.539 -0.2739  0.4821  0.1512
 1236SOL    HW1 3832   0.115   3.101   3.517 -1.9123 -0.2800 -0.0583
 1236SOL    HW2 3833   0.079   2.956   3.542  1.1350 -1.8355 -3.6837
 1237SOL     OW 3834   1.751   0.952   3.530  0.0812 -0.0834 -0.2064
 1237SOL    HW1 3835   1.709   1.001   3.460 -1.0407  0.8354  1.0701
 1237SOL    HW2 3836   1.813   1.014   3.569  0.1556 -0.3437  0.0943
 1238SOL     OW 3837   1.674   0.020   0.226  0.6313 -0.4253  0.1694
 1238SOL    HW1 3838   1.613   0.017   0.300 -0.4241 -3.8642 -0.6291
 1238SOL    HW2 3839   1.760   0.006   0.266  0.0812 -2.1931  0.8579
 1239SOL     OW 3840   1.134   1.508   0.762 -0.4181  0.0450  0.2506
 1239SOL    HW1 3841   1.076   1.569   0.715  0.5738  1.7540  1.1402
 1239SOL    HW2 3842   1.076   1.439   0.794 -1.4482 -0.0090 -1.5623
 1240SOL     OW 3843   2.406   1.578   0.914 -0.1651 -0.0893  0.1769
 1240SOL    HW1 3844   2.321   1.534   0.916  0.1422 -0.7305 -0.4804
 1240SOL    HW2 3845   2.388   1.664   0.877 -0.4365 -0.4622 -0.5812
 1241SOL     OW 3846   1.754   3.405   1.636  0.5624 -0.1065  0.7581
 1241SOL    HW1 3847   1.807   3.460   1.693  1.9930 -0.8584  0.2092
 1241SOL    HW2 3848   1.716   3.465   1.572  2.0136  0.2852  0.2276
 1242SOL     OW 3849   0.238   1.393   3.612  0.4009  0.2245  0.7097
 1242SOL    HW1 3850   0.320   1.431   3.645  1.8618 -0.1673 -2.1860
 1242SOL    HW2 3851   0.257   1.371   3.521 -3.4287  1.5696 -0.5904
 1243SOL     OW 3852   0.087   3.492   0.086 -0.3966  0.0192 -0.3794
 1243SOL    HW1 3853   0.085   3.411   0.137 -0.7563 -0.5556 -1.2789
 1243SOL    HW2 3854   0.177   3.499   0.056  0.2307  1.1999  1.5975
 1244SOL     OW 3855   0.980   1.725   3.044  0.1525  0.0496  0.1714
 1244SOL    HW1 3856   0.929   1.644   3.050 -0.5425  0.4470 -0.1798
 1244SOL    HW2 3857   0.952   1.765   2.961  1.5706 -0.0681 -0.3925
 1245SOL     OW 3858   3.684   1.738   2.482 -0.7525  0.7884 -0.2452
 1245SOL    HW1 3859   3.676   1.712   2.390 -0.2379  2.1712 -0.7090
 1245SOL    HW2 3860   3.616   1.804   2.494  0.1326  1.6893 -0.0595
 1246SOL     OW 3861   0.786   1.463   0.121  0.0776  0.0866  0.2123
 1246SOL    HW1 3862   0.811   1.372   0.139 -0.0264 -0.0865 -0.5030
 1246SOL    HW2 3863   0.766   1.500   0.208  1.5941 -0.1258  0.6821
 1247SOL     OW 3864   1.763   0.655   3.323 -0.9291 -0.3122  0.7610
 1247SOL    HW1 3865   1.710   0.725   3.362 -0.8697 -1.0200  2.1996
 1247SOL    HW2 3866   1.835   0.700   3.280 -1.2579  0.5504  1.0839
 1248SOL     OW 3867   1.759   3.108   0.594  0.7594 -0.3553 -0.2493
 1248SOL    HW1 3868   1.836   3.137   0.546  2.5658 -0.9515  2.1102
 1248SOL    HW2 3869   1.733   3.027   0.551  1.9805 -0.5922 -0.5705
 1249SOL     OW 3870   0.007   1.376   0.523 -0.2058  0.1827 -0.5316
 1249SOL    HW1 3871   0.034   1.468   0.514  3.8098 -0.7371 -0.0122
 1249SOL    HW2 3872  -0.004   1.364   0.618 -1.3093  0.2199 -0.6430
 1250SOL     OW 3873   2.311   0.341   3.633  0.2830 -1.1613  0.0733
 1250SOL    HW1 3874   2.233   0.297   3.598  0.9595 -1.5477 -0.9903
 1250SOL    HW2 3875   2.350   0.276   3.691  0.1139 -1.1782  0.1690
 1251SOL     OW 3876   3.240   0.827   2.122 -0.3972  0.1269  0.7510
 1251SOL    HW1 3877   3.196   0.820   2.207 -1.0530 -0.4845  0.3672
 1251SOL    HW2 3878   3.206   0.753   2.071  0.9323 -0.2594  0.3803
 1252SOL     OW 3879   0.130   3.586   1.128 -0.0934  0.7070 -0.3110
 1252SOL    HW1 3880   0.225   3.574   1.122  0.1054  2.1197 -0.3338
 1252SOL    HW2 3881   0.116   3.676   1.096 -1.4620  0.4201 -0.5423
 1253SOL     OW 3882   0.765   0.191   0.368 -0.0145  0.5093  0.4075
 1253SOL    HW1 3883   0.856   0.195   0.398  0.1476  1.1994 -0.1288
 1253SOL    HW2 3884   0.761   0.256   0.297 -1.5818  2.4785  2.1676
 1254SOL     OW 3885   1.593   0.884   2.969  0.2229 -0.3985  0.3499
 1254SOL    HW1 3886   1.627   0.798   2.944 -2.8447 -2.2886  2.0534
 1254SOL    HW2 3887   1.646   0.910   3.044  0.7505 -1.1398  0.2414
 1255SOL     OW 3888   2.885   3.154   3.496 -0.2538  0.3095 -0.0918
 1255SOL    HW1 3889   2.860   3.246   3.486  0.3734  0.5716  0.6223
 1255SOL    HW2 3890   2.809   3.105   3.465 -0.1515  1.0538 -1.6261
 1256SOL     OW 3891   0.173   1.471   1.285 -0.6858  0.1858 -0.1726
 1256SOL    HW1 3892   0.141   1.481   1.195  0.3618  0.0730 -0.5785
 1256SOL    HW2 3893   0.140   1.548   1.331  0.6401  1.4644 -1.2469
 1257SOL     OW 3894   1.177   0.908   0.451  0.0773 -0.3338  0.2864
 1257SOL    HW1 3895   1.167   0.813   0.452  1.0065 -0.4382  0.9909
 1257SOL    HW2 3896   1.101   0.941   0.499 -0.7663 -0.6504 -0.7999
 1258SOL     OW 3897   3.687   0.838   1.699 -0.5639  0.8641  0.0974
 1258SOL    HW1 3898   3.601   0.860   1.733 -1.0890 -0.3012 -0.4319
 1258SOL    HW2 3899   3.674   0.758   1.649  0.7512  0.8904 -0.3417
 1259SOL     OW 3900   3.210   0.057   3.353 -0.5869  0.0810 -0.4788
 1259SOL    HW1 3901   3.215  -0.038   3.352  3.1086  0.0990  0.6282
 1259SOL    HW2 3902   3.162   0.078   3.433 -2.2687 -0.7892 -1.2214
 1260SOL     OW 3903   0.692   3.382   1.549  0.5039  0.4763  0.3740
 1260SOL    HW1 3904   0.633   3.442   1.504 -1.7010 -3.1666 -2.1772
 1260SOL    HW2 3905   0.639   3.346   1.620  1.6894  1.2386  1.6859
 1261SOL     OW 3906   3.558   1.146   3.675  0.1203 -0.0513  0.4748
 1261SOL    HW1 3907   3.529   1.068   3.628  0.2289 -0.6985  1.4597
 1261SOL    HW2 3908   3.591   1.204   3.607 -0.5214 -0.6182 -0.3304
 1262SOL     OW 3909   2.942   2.980   2.207  0.3920 -0.0323  0.4271
 1262SOL    HW1 3910   2.889   2.902   2.221  0.9138  0.0174  3.1943
 1262SOL    HW2 3911   2.888   3.052   2.240  0.2450  0.7075 -1.3293
 1263SOL     OW 3912   2.769   1.335   0.032  0.0707  0.2678  0.7854
 1263SOL    HW1 3913   2.718   1.415   0.045  2.4020  2.3180 -1.5904
 1263SOL    HW2 3914   2.841   1.342   0.094  0.2399 -0.0465  0.6239
 1264SOL     OW 3915   0.117   0.275   0.230  0.4753  0.2217  0.0633
 1264SOL    HW1 3916   0.031   0.237   0.243 -1.6954  5.0207  2.2574
 1264SOL    HW2 3917   0.128   0.279   0.135 -1.8547 -0.3439 -0.2901
 1265SOL     OW 3918   0.794   0.550   2.901 -0.4836 -0.3092 -0.6903
 1265SOL    HW1 3919   0.723   0.548   2.965  2.5169 -1.3773  2.9652
 1265SOL    HW2 3920   0.783   0.469   2.850 -3.2709  0.8534 -2.1544
 1266SOL     OW 3921   0.083   1.085   3.340 -0.0187 -0.0667 -0.0580
 1266SOL    HW1 3922   0.134   1.121   3.267  0.1352 -1.1563 -0.5146
 1266SOL    HW2 3923   0.056   1.161   3.391  0.1317  0.6920 -1.0879
 1267SOL     OW 3924   0.238   1.699   1.846 -1.1052  0.0501 -0.0102
 1267SOL    HW1 3925   0.307   1.644   1.809 -1.0046  1.0921 -1.4726
 1267SOL    HW2 3926   0.159   1.676   1.798 -1.7416 -0.8973  1.4256
 1268SOL     OW 3927   2.349   2.371   1.921 -0.6803 -0.3194  0.7714
 1268SOL    HW1 3928   2.320   2.412   2.003 -0.9066 -0.3074  0.6856
 1268SOL    HW2 3929   2.414   2.431   1.886 -1.5476  0.3481  0.2696
 1269SOL     OW 3930   0.471   2.375   3.403  0.1858  0.4996 -0.3951
 1269SOL    HW1 3931   0.486   2.420   3.320 -2.5120  1.0705 -0.6637
 1269SOL    HW2 3932   0.412   2.432   3.451  0.2795 -0.6652  1.1803
 1270SOL     OW 3933   1.033   0.488   1.340 -0.4434  0.0978 -0.1519
 1270SOL    HW1 3934   0.991   0.467   1.424  1.7770  0.3995  1.1028
 1270SOL    HW2 3935   1.113   0.436   1.339  1.1413  2.3897 -0.6174
 1271SOL     OW 3936   2.642   0.656   0.126  1.2864 -0.3200 -0.2815
 1271SOL    HW1 3937   2.632   0.564   0.101 -0.0175 -0.8516  1.8964
 1271SOL    HW2 3938   2.634   0.656   0.221 -0.2727  2.1946 -0.3087
 1272SOL     OW 3939   0.536   3.104   1.647  0.4323  0.3067  0.1411
 1272SOL    HW1 3940   0.533   3.008   1.649  1.4008  0.2625  0.0935
 1272SOL    HW2 3941   0.629   3.125   1.656  0.2175  1.2492  0.2646
 1273SOL     OW 3942   2.433   2.861   3.322 -0.2433 -0.1581 -0.2683
 1273SOL    HW1 3943   2.472   2.795   3.380 -1.1963 -1.0053 -0.5675
 1273SOL    HW2 3944   2.339   2.851   3.334 -0.4123  1.0217 -0.4812
 1274SOL     OW 3945   1.110   2.934   1.254 -0.7584 -0.7348  0.7036
 1274SOL    HW1 3946   1.087   2.898   1.168 -2.0175  1.8657 -0.1589
 1274SOL    HW2 3947   1.041   2.998   1.272  1.7893  1.9901  1.5699
 1275SOL     OW 3948   1.092   1.023   2.943  0.1716 -0.4905  0.3711
 1275SOL    HW1 3949   1.187   1.029   2.949  0.2030 -0.6155 -0.0007
 1275SOL    HW2 3950   1.062   1.026   3.034  0.4904  0.1758  0.4627
 1276SOL     OW 3951   2.579   2.725   3.508  0.1730 -0.3976  0.1812
 1276SOL    HW1 3952   2.509   2.707   3.570 -0.7204 -0.7187 -0.8886
 1276SOL    HW2 3953   2.624   2.640   3.498  1.2528 -0.0152  1.4650
 1277SOL     OW 3954   2.209   1.097   3.504  0.4377  0.1381  0.0887
 1277SOL    HW1 3955   2.213   1.008   3.540  1.5755  0.1798  0.0812
 1277SOL    HW2 3956   2.188   1.152   3.579  0.1797 -0.0828  0.1815
 1278SOL     OW 3957   3.147   2.589   3.690  0.0559 -0.0546 -0.6451
 1278SOL    HW1 3958   3.143   2.657   3.623 -1.7164 -1.1168 -1.6854
 1278SOL    HW2 3959   3.083   2.617   3.756 -0.3726 -0.4811 -0.8729
 1279SOL     OW 3960   0.467   2.921   2.501  0.3592  0.1612  0.0511
 1279SOL    HW1 3961   0.494   2.923   2.593  2.6989  0.5660 -0.5869
 1279SOL    HW2 3962   0.374   2.943   2.503 -0.0826 -1.5821  2.4483
 1280SOL     OW 3963   1.748   0.500   1.792  0.1381  0.0305 -0.6086
 1280SOL    HW1 3964   1.655   0.493   1.814  0.2994 -0.2053  0.0312
 1280SOL    HW2 3965   1.757   0.586   1.750 -0.0354  0.9821  1.1770
 1281SOL     OW 3966   2.281   0.199   1.648  0.5115  0.7750 -0.0446
 1281SOL    HW1 3967   2.297   0.239   1.733  0.5275 -1.0580  0.8599
 1281SOL    HW2 3968   2.235   0.267   1.598  1.5103  2.2880  1.0008
 1282SOL     OW 3969   1.210   1.322   3.245 -0.2751 -0.6998  0.4654
 1282SOL    HW1 3970   1.295   1.344   3.281 -1.0183  0.9967  1.2610
 1282SOL    HW2 3971   1.208   1.226   3.245  1.9015 -0.7916 -0.2935
 1283SOL     OW 3972   0.374   2.546   1.759  0.1612  0.6735  0.0566
 1283SOL    HW1 3973   0.374   2.452   1.774  1.2638  0.6108 -0.1993
 1283SOL    HW2 3974   0.365   2.585   1.846 -0.8516  0.3453  0.1083
 1284SOL     OW 3975   2.593   1.505   0.157  0.3435  0.2837 -0.2200
 1284SOL    HW1 3976   2.537   1.507   0.235  1.9829  2.0482  1.0072
 1284SOL    HW2 3977   2.542   1.549   0.089 -1.2204 -1.5196 -0.3069
 1285SOL     OW 3978   0.376   3.020   2.068  0.4253  1.0667  0.1059
 1285SOL    HW1 3979   0.451   2.964   2.088  0.6408  0.5225 -2.0402
 1285SOL    HW2 3980   0.405   3.075   1.996 -1.7969 -0.5391 -2.2046
 1286SOL     OW 3981   2.909   0.943   2.556  0.6674 -0.7284  0.4564
 1286SOL    HW1 3982   2.940   0.853   2.570  1.3978 -0.1122  3.6146
 1286SOL    HW2 3983   2.847   0.958   2.626 -0.7783  0.7480 -1.0540
 1287SOL     OW 3984   1.858   0.301   0.418  0.5626  0.1513 -0.3706
 1287SOL    HW1 3985   1.943   0.323   0.457  0.7853  1.8454 -1.6602
 1287SOL    HW2 3986   1.853   0.206   0.423  1.0773  0.1761  2.6315
 1288SOL     OW 3987   2.336   3.424   0.625 -0.4805  0.0594  0.2513
 1288SOL    HW1 3988   2.299   3.336   0.616 -0.6486  0.0266  1.1546
 1288SOL    HW2 3989   2.262   3.479   0.648 -0.2729  0.3304  0.2779
 1289SOL     OW 3990   2.150   1.660   1.825  0.6287  0.1789  0.0587
 1289SOL    HW1 3991   2.134   1.745   1.866 -0.1009 -0.2834  0.7631
 1289SOL    HW2 3992   2.158   1.599   1.899  3.5967 -0.0220 -0.3020
 1290SOL     OW 3993   1.554   0.379   2.198 -0.5118 -0.3501 -0.8948
 1290SOL    HW1 3994   1.569   0.333   2.116  3.2262 -0.7409 -0.1883
 1290SOL    HW2 3995   1.608   0.458   2.191 -0.2589 -0.3008  1.0867
 1291SOL     OW 3996   0.768   1.596   2.055  0.2315 -0.0141  0.2284
 1291SOL    HW1 3997   0.850   1.627   2.016  0.8462 -0.2432  1.2846
 1291SOL    HW2 3998   0.700   1.623   1.994  0.8937  2.0335  0.3342
 1292SOL     OW 3999   0.428   3.339   0.275  0.2702 -0.7141 -0.1964
 1292SOL    HW1 4000   0.512   3.366   0.310 -1.3604  1.6166  2.3851
 1292SOL    HW2 4001   0.411   3.401   0.204  0.3235 -0.5388 -0.0572
 1293SOL     OW 4002   2.433   3.184   0.470  0.6511  0.8807  1.0698
 1293SOL    HW1 4003   2.447   3.094   0.501 -1.5563 -0.4016 -1.1605
 1293SOL    HW2 4004   2.501   3.197   0.404 -0.5732 -0.3019 -0.5276
 1294SOL     OW 4005   0.764   3.402   3.335 -0.1491 -0.0702  0.7239
 1294SOL    HW1 4006   0.852   3.401   3.298 -0.2224  1.6977  0.4249
 1294SOL    HW2 4007   0.766   3.335   3.403  1.7246  0.5949  1.3811
 1295SOL     OW 4008   2.869   0.070   3.381 -0.3938  0.4191 -0.5227
 1295SOL    HW1 4009   2.939   0.100   3.440  0.2344  0.3029 -1.1934
 1295SOL    HW2 4010   2.817   0.010   3.435  0.2023  0.2741 -0.0963
 1296SOL     OW 4011   0.874   2.627   1.717  0.2300 -0.8527 -0.7453
 1296SOL    HW1 4012   0.962   2.648   1.686  0.2493 -1.7759 -1.3626
 1296SOL    HW2 4013   0.885   2.547   1.768  0.1303  0.3989  1.3735
 1297SOL     OW 4014   3.108   3.667   0.893 -0.4223 -0.3808 -0.0537
 1297SOL    HW1 4015   3.081   3.692   0.981  0.9850  2.3954 -0.2624
 1297SOL    HW2 4016   3.034   3.691   0.837 -0.0209  1.2763  0.0530
 1298SOL     OW 4017   2.818   0.041   2.530  0.5227  0.9957  0.2479
 1298SOL    HW1 4018   2.800   0.131   2.559  0.2547  0.7024  1.0023
 1298SOL    HW2 4019   2.821  -0.010   2.610  0.7625  0.3368 -0.1734
 1299SOL     OW 4020   2.068   3.284   2.730  0.8681 -0.1653 -0.6250
 1299SOL    HW1 4021   2.041   3.192   2.726  1.7750 -0.7035  2.8655
 1299SOL    HW2 4022   2.014   3.323   2.799  2.1627  1.2771 -0.3729
 1300SOL     OW 4023   2.426   1.921   2.202  0.4334  0.3001 -0.1089
 1300SOL    HW1 4024   2.365   1.985   2.166  0.1893  0.1699  0.0700
 1300SOL    HW2 4025   2.506   1.932   2.150  0.1763  0.2961 -0.5112
 1301SOL     OW 4026   0.771   3.026   3.082  0.2151  0.1317  0.7313
 1301SOL    HW1 4027   0.740   3.043   2.992  0.2123 -1.0223  0.5052
 1301SOL    HW2 4028   0.863   3.002   3.071  0.0971 -0.4455  0.9856
 1302SOL     OW 4029   3.429   3.597   0.581  0.2541 -0.3731 -0.2244
 1302SOL    HW1 4030   3.410   3.545   0.658 -0.2563 -1.2231 -0.9011
 1302SOL    HW2 4031   3.503   3.553   0.539 -1.3795 -1.7862 -1.8421
 1303SOL     OW 4032   2.031   2.810   0.991  0.2975  0.5594 -0.3567
 1303SOL    HW1 4033   2.004   2.718   0.988  0.9559  0.3275  0.3405
 1303SOL    HW2 4034   1.965   2.856   0.939 -0.9515 -0.0828  0.6131
 1304SOL     OW 4035   0.049   2.204   2.327 -0.8002 -0.1774 -0.2968
 1304SOL    HW1 4036   0.007   2.287   2.351 -0.1660  0.2030 -0.4540
 1304SOL    HW2 4037   0.083   2.170   2.409  2.1925  1.5868 -0.6177
 1305SOL     OW 4038   2.028   2.412   0.858 -0.1519 -0.3822 -0.2343
 1305SOL    HW1 4039   2.004   2.456   0.776  0.7387 -2.2025 -1.5471
 1305SOL    HW2 4040   1.944   2.386   0.896 -0.7305  2.3927  0.6689
 1306SOL     OW 4041   3.091   2.289   1.142  0.6048  0.1069 -0.3323
 1306SOL    HW1 4042   3.160   2.339   1.186  1.0347  0.0219 -0.9002
 1306SOL    HW2 4043   3.128   2.202   1.129 -0.3436 -0.5526  1.1427
 1307SOL     OW 4044   2.891   1.085   1.144 -0.1013 -0.4727  0.2522
 1307SOL    HW1 4045   2.914   1.011   1.200  0.7631 -0.3934  0.0212
 1307SOL    HW2 4046   2.827   1.135   1.195  0.2178 -0.7286  0.9169
 1308SOL     OW 4047   3.166   1.489   1.642 -0.3749  0.0830  0.1299
 1308SOL    HW1 4048   3.154   1.495   1.737 -0.5786  1.2303  0.0523
 1308SOL    HW2 4049   3.256   1.520   1.628 -0.0312 -0.9414  0.0194
 1309SOL     OW 4050   1.871   3.121   0.153 -0.4501  0.0819  0.4917
 1309SOL    HW1 4051   1.950   3.091   0.109  0.0162  1.8503  0.0394
 1309SOL    HW2 4052   1.802   3.062   0.122  0.2434  0.0413 -1.0572
 1310SOL     OW 4053   2.543   2.006   0.212  0.5284  0.3904 -0.4018
 1310SOL    HW1 4054   2.499   1.983   0.130  1.4917 -1.4924 -0.4523
 1310SOL    HW2 4055   2.564   2.099   0.202 -0.1391  0.4102 -1.9290
 1311SOL     OW 4056   1.098   3.292   0.047  0.0132  0.0447 -0.3583
 1311SOL    HW1 4057   1.104   3.371   0.101 -2.7345  0.1625 -0.0569
 1311SOL    HW2 4058   1.084   3.325  -0.042 -0.1184 -0.0950 -0.3903
 1312SOL     OW 4059   1.179   2.245   0.324 -0.4526  0.0592 -0.3600
 1312SOL    HW1 4060   1.190   2.275   0.233  0.2467 -2.6398 -1.2407
 1312SOL    HW2 4061   1.097   2.286   0.352 -1.1072  0.3625 -2.4947
 1313SOL     OW 4062   0.166   2.085   0.414 -0.4126 -0.0160 -0.0792
 1313SOL    HW1 4063   0.201   1.997   0.409  4.6931  1.6627 -0.0042
 1313SOL    HW2 4064   0.129   2.092   0.502  0.3049 -1.6644  0.3802
 1314SOL     OW 4065   0.112   2.587   3.619 -0.0122 -0.1733 -0.6137
 1314SOL    HW1 4066   0.066   2.583   3.702  0.8391 -2.5850 -0.1904
 1314SOL    HW2 4067   0.188   2.643   3.636 -0.8261  0.8937 -0.3486
 1315SOL     OW 4068   0.966  -0.019   3.576  0.5346 -0.3522 -0.0261
 1315SOL    HW1 4069   1.037   0.031   3.537  1.1965 -0.2048  1.3067
 1315SOL    HW2 4070   0.948   0.024   3.660 -0.8809 -0.6111 -0.1549
 1316SOL     OW 4071   0.146   1.765   3.497 -0.3133 -0.2063  0.3378
 1316SOL    HW1 4072   0.239   1.785   3.480 -0.3666 -0.9904 -1.0175
 1316SOL    HW2 4073   0.098   1.822   3.437 -0.6833 -0.2718  0.5716
 1317SOL     OW 4074   3.617   1.607   3.484  0.0516 -0.7530  0.3997
 1317SOL    HW1 4075   3.571   1.608   3.568  0.6505  0.8834  0.7477
 1317SOL    HW2 4076   3.705   1.639   3.505 -0.0526  0.5087 -0.9768
 1318SOL     OW 4077   2.441   2.157   0.782 -0.0914 -0.6868 -0.0855
 1318SOL    HW1 4078   2.534   2.145   0.763 -0.2013 -1.2952 -0.2719
 1318SOL    HW2 4079   2.438   2.186   0.873  0.4432  2.0340 -0.8164
 1319SOL     OW 4080   0.189   1.980   0.699 -0.1137  0.3522 -0.4715
 1319SOL    HW1 4081   0.112   1.935   0.664  0.3580 -0.6802 -0.2095
 1319SOL    HW2 4082   0.159   2.015   0.784  0.3606 -2.2405  0.8570
 1320SOL     OW 4083   3.491   2.660   1.358  0.3092  0.2924 -0.3141
 1320SOL    HW1 4084   3.405   2.658   1.399 -2.0113 -0.5888 -4.6893
 1320SOL    HW2 4085   3.501   2.750   1.327 -0.1756 -0.1224 -1.7716
 1321SOL     OW 4086   0.476   1.271   3.200 -0.0721 -0.9123  0.0399
 1321SOL    HW1 4087   0.504   1.254   3.111  0.0722 -2.2381  0.3160
 1321SOL    HW2 4088   0.452   1.185   3.235 -0.6599 -0.3481  1.0977
 1322SOL     OW 4089   2.252   2.553   2.133 -0.0191 -0.2921 -0.8953
 1322SOL    HW1 4090   2.179   2.605   2.102 -1.1881 -0.5167  1.2890
 1322SOL    HW2 4091   2.323   2.616   2.145 -0.8350  0.5156 -0.0888
 1323SOL     OW 4092   0.573   2.836   1.673 -0.4721  0.7825 -0.1402
 1323SOL    HW1 4093   0.502   2.774   1.689 -0.3160 -0.3420 -3.1260
 1323SOL    HW2 4094   0.622   2.798   1.600  0.3371  3.8564 -1.3587
 1324SOL     OW 4095   3.392   0.420   2.581 -0.1542  0.5210  0.2438
 1324SOL    HW1 4096   3.325   0.353   2.592 -2.2047  1.7907 -3.0485
 1324SOL    HW2 4097   3.467   0.373   2.545 -1.1370 -0.2211 -0.8881
 1325SOL     OW 4098   2.283   0.824   3.550 -0.0089  0.3361 -0.4801
 1325SOL    HW1 4099   2.209   0.767   3.567 -1.9255  2.8611  0.2421
 1325SOL    HW2 4100   2.336   0.820   3.630 -2.1117  2.2552  1.1458
 1326SOL     OW 4101   0.102   2.325   0.274  0.6631 -0.0164 -0.7622
 1326SOL    HW1 4102   0.130   2.247   0.322 -1.7353  0.4254  1.6067
 1326SOL    HW2 4103   0.081   2.293   0.186 -2.2484 -2.6524  0.6849
 1327SOL     OW 4104   3.178   3.659   1.876  0.0732 -0.3887 -0.0835
 1327SOL    HW1 4105   3.177   3.733   1.816 -1.6149  0.0061  0.3868
 1327SOL    HW2 4106   3.271   3.646   1.896  0.3925  1.9254  0.2310
 1328SOL     OW 4107   1.317   2.469   1.632  0.3462  0.0576  0.0104
 1328SOL    HW1 4108   1.238   2.465   1.685  0.3989  2.2700  0.3590
 1328SOL    HW2 4109   1.288   2.449   1.543 -0.4175 -0.0964  0.2892
 1329SOL     OW 4110   0.973   0.968   0.605 -0.0636 -0.1187 -0.7405
 1329SOL    HW1 4111   1.034   1.030   0.645 -0.6521  0.0949 -0.1533
 1329SOL    HW2 4112   0.886   1.002   0.627 -0.4002 -1.2299 -0.2745
 1330SOL     OW 4113   2.869   0.602   0.828 -0.3805 -0.2642  0.2196
 1330SOL    HW1 4114   2.795   0.542   0.837 -0.1669 -0.6948 -0.7514
 1330SOL    HW2 4115   2.916   0.571   0.751  0.8867 -0.0705  0.8891
 1331SOL     OW 4116   3.363   2.268   3.474  0.1379  0.0680  0.2913
 1331SOL    HW1 4117   3.323   2.330   3.413 -0.6305  1.4974  2.1594
 1331SOL    HW2 4118   3.357   2.311   3.560  2.7874 -1.0679  1.1555
 1332SOL     OW 4119   1.524   3.556   3.387 -0.2637 -0.0150 -0.2361
 1332SOL    HW1 4120   1.544   3.628   3.327 -0.6903 -0.5907 -1.1037
 1332SOL    HW2 4121   1.428   3.555   3.392 -0.2314 -0.0191  0.4012
 1333SOL     OW 4122   3.475   1.161   0.240  0.1239  0.0012 -0.3826
 1333SOL    HW1 4123   3.492   1.152   0.146  0.5032 -0.6226 -0.2607
 1333SOL    HW2 4124   3.561   1.152   0.281  0.0146  0.6143  0.0124
 1334SOL     OW 4125   3.568   0.879   0.191 -0.4198 -0.4397  0.0445
 1334SOL    HW1 4126   3.536   0.966   0.216  0.1023 -0.0741 -0.5190
 1334SOL    HW2 4127   3.497   0.819   0.216 -0.9469  0.1908  0.0984
 1335SOL     OW 4128   2.030   1.346   3.479  0.1068 -0.1332  0.2042
 1335SOL    HW1 4129   1.936   1.331   3.492 -0.1150 -1.2441 -2.2133
 1335SOL    HW2 4130   2.068   1.258   3.487  0.8037  0.1694  0.2014
 1336SOL     OW 4131   0.410   2.082   3.355 -0.8664 -0.2985 -0.3304
 1336SOL    HW1 4132   0.460   2.158   3.387  0.0202  0.3315 -2.9499
 1336SOL    HW2 4133   0.321   2.115   3.345 -1.0599 -0.3802  0.9387
 1337SOL     OW 4134   0.137   3.150   0.652 -0.3789 -0.6832 -0.0001
 1337SOL    HW1 4135   0.213   3.148   0.593 -1.5192 -1.6026 -1.5095
 1337SOL    HW2 4136   0.122   3.058   0.673 -1.7677 -0.6303 -0.6832
 1338SOL     OW 4137   2.091   1.002   1.872  0.0984  0.2581 -0.5971
 1338SOL    HW1 4138   2.108   0.948   1.950 -0.6970  0.1556 -0.4903
 1338SOL    HW2 4139   2.089   1.092   1.905 -0.9014  0.1669 -0.3712
 1339SOL     OW 4140   1.610   0.650   0.738 -0.2714  0.2156  0.5364
 1339SOL    HW1 4141   1.664   0.583   0.697 -0.2218 -0.9429  2.4043
 1339SOL    HW2 4142   1.520   0.621   0.722 -0.3409  1.1513 -0.9446
 1340SOL     OW 4143   2.447   0.469   2.124  0.4041 -0.0170  0.0274
 1340SOL    HW1 4144   2.440   0.565   2.122  1.8788  0.0926 -1.0346
 1340SOL    HW2 4145   2.524   0.452   2.177 -0.4707 -0.6947  1.1324
 1341SOL     OW 4146  -0.009   3.558   0.846 -0.8369  0.3451 -0.1281
 1341SOL    HW1 4147  -0.013   3.648   0.879 -1.4248  1.2973 -2.5696
 1341SOL    HW2 4148   0.081   3.548   0.815 -0.5026 -0.2700  0.9983
 1342SOL     OW 4149   3.332   3.122   0.986  0.3145  0.0314 -0.0690
 1342SOL    HW1 4150   3.293   3.047   0.940 -2.2356  1.6537 -0.7741
 1342SOL    HW2 4151   3.299   3.114   1.076  1.1528 -0.4033  0.2054
 1343SOL     OW 4152   1.309   3.510   3.144  0.4240  0.3234  0.0979
 1343SOL    HW1 4153   1.385   3.468   3.102  0.4790 -0.3841  0.8918
 1343SOL    HW2 4154   1.248   3.439   3.161 -0.3317  0.8554 -0.3140
 1344SOL     OW 4155   0.278   1.322   0.553 -0.2466 -0.8337 -0.6699
 1344SOL    HW1 4156   0.342   1.386   0.585 -1.8555 -0.4698  2.1207
 1344SOL    HW2 4157   0.203   1.374   0.526  0.2032 -1.3210 -3.0575
 1345SOL     OW 4158   3.447   3.465   0.882 -0.1151  0.1881  0.1538
 1345SOL    HW1 4159   3.413   3.490   0.968  0.2183  0.3474  0.2406
 1345SOL    HW2 4160   3.533   3.506   0.877  0.1955 -0.4534  0.0597
 1346SOL     OW 4161   2.609   2.552   0.038  0.1251  0.0212  0.6039
 1346SOL    HW1 4162   2.672   2.608   0.083  0.6903  0.6278 -0.8923
 1346SOL    HW2 4163   2.541   2.613   0.008  0.0653 -0.2899  0.1099
 1347SOL     OW 4164   3.040   2.736   0.308 -0.1222  0.4506  0.0008
 1347SOL    HW1 4165   2.956   2.739   0.262 -1.4170 -0.4884  2.1379
 1347SOL    HW2 4166   3.036   2.654   0.359  1.7596  0.7824  0.7472
 1348SOL     OW 4167   1.216   1.583   3.684  0.4873  0.5566 -0.6582
 1348SOL    HW1 4168   1.163   1.662   3.678  0.5477  0.4849 -3.2463
 1348SOL    HW2 4169   1.288   1.606   3.743  0.3534  2.3357 -1.1525
 1349SOL     OW 4170   2.486   2.210   3.500 -0.2523  0.0182 -0.5441
 1349SOL    HW1 4171   2.449   2.221   3.413  0.3149 -1.0287 -0.9216
 1349SOL    HW2 4172   2.553   2.142   3.491 -1.3915 -1.4049  1.0465
 1350SOL     OW 4173   3.346   0.169   1.767  0.5002  0.0282 -0.0248
 1350SOL    HW1 4174   3.388   0.235   1.822  0.3904 -1.6533  2.2232
 1350SOL    HW2 4175   3.379   0.187   1.679  2.5429  1.4239  0.9376
 1351SOL     OW 4176   1.223   0.446   3.156 -0.3647  0.9584 -0.3193
 1351SOL    HW1 4177   1.159   0.397   3.105  0.1970 -1.5954  1.2641
 1351SOL    HW2 4178   1.300   0.450   3.099 -0.5667  0.3773 -0.6493
 1352SOL     OW 4179   1.912   0.042   2.811 -0.5250 -0.3050  0.3053
 1352SOL    HW1 4180   1.995   0.052   2.765  0.4084 -1.5974  1.5861
 1352SOL    HW2 4181   1.846   0.073   2.750  0.8320 -0.0197 -1.0690
 1353SOL     OW 4182   2.403   0.976   3.317 -0.1869  0.2904  0.3721
 1353SOL    HW1 4183   2.472   0.939   3.373  0.9331 -1.2052 -1.8475
 1353SOL    HW2 4184   2.353   1.032   3.376  1.9585  0.2031  2.4685
 1354SOL     OW 4185   0.786   3.624   0.794 -0.0355  0.3293  0.4637
 1354SOL    HW1 4186   0.760   3.695   0.851 -2.5115 -1.3307  1.5572
 1354SOL    HW2 4187   0.715   3.617   0.730  1.0050 -0.0824 -0.6935
 1355SOL     OW 4188   2.852   1.925   1.405  0.5892  0.0658 -0.3595
 1355SOL    HW1 4189   2.876   1.846   1.453 -1.5960 -0.4143  0.0377
 1355SOL    HW2 4190   2.758   1.918   1.393  0.5554  1.9561 -1.5480
 1356SOL     OW 4191   2.899   1.785   2.826 -0.1116 -0.1981 -0.0009
 1356SOL    HW1 4192   2.906   1.742   2.911  1.2266 -2.5461 -1.2038
 1356SOL    HW2 4193   2.910   1.878   2.845 -3.0010 -0.2294  2.7366
 1357SOL     OW 4194   3.328   1.480   0.203 -0.3491  0.1560  0.4520
 1357SOL    HW1 4195   3.377   1.508   0.281 -1.6484 -0.2883  1.4666
 1357SOL    HW2 4196   3.243   1.522   0.212 -0.5221  0.1068 -0.7624
 1358SOL     OW 4197   0.941   3.037   3.562 -0.7223  0.0493 -0.4651
 1358SOL    HW1 4198   0.929   3.042   3.467  0.6847 -0.6764 -0.7072
 1358SOL    HW2 4199   1.005   2.967   3.575  0.9457  1.7267  0.8680
 1359SOL     OW 4200   2.606   2.914   1.082 -0.3577  0.6108  0.4077
 1359SOL    HW1 4201   2.642   2.997   1.113 -2.8629  3.0179 -2.4767
 1359SOL    HW2 4202   2.658   2.892   1.005 -1.8984  1.5915 -0.9869
 1360SOL     OW 4203   1.047   1.737   0.404  0.2625  0.0346  0.3360
 1360SOL    HW1 4204   1.061   1.650   0.367 -0.5544  0.0459 -0.0203
 1360SOL    HW2 4205   1.072   1.797   0.334  0.8616  0.0887  0.5949
 1361SOL     OW 4206   1.444   1.745   1.154  0.1324  0.1576 -1.2771
 1361SOL    HW1 4207   1.526   1.776   1.194  0.3752  0.1227 -1.7301
 1361SOL    HW2 4208   1.435   1.799   1.075  0.6194 -0.9794 -2.1406
 1362SOL     OW 4209   1.813   1.625   2.001 -0.4964 -0.3493 -0.6936
 1362SOL    HW1 4210   1.723   1.627   1.967 -1.4022  1.4550  1.5552
 1362SOL    HW2 4211   1.834   1.717   2.018  0.5685 -0.9638  1.7233
 1363SOL     OW 4212   3.613   1.061   1.295 -0.3468  0.8719  0.0171
 1363SOL    HW1 4213   3.693   1.090   1.251 -0.1996 -0.1697 -0.4300
 1363SOL    HW2 4214   3.643   1.035   1.383 -0.0206 -0.4072 -0.4612
 1364SOL     OW 4215   0.906   1.847   2.454 -0.1785  0.0975 -0.2714
 1364SOL    HW1 4216   0.899   1.888   2.368 -3.0182 -0.3217 -0.3224
 1364SOL    HW2 4217   0.919   1.920   2.515 -0.0627  0.5672 -0.8570
 1365SOL     OW 4218   2.388   1.761   0.698  0.0278  0.2445  0.3454
 1365SOL    HW1 4219   2.346   1.691   0.648 -1.9150  1.5507  0.0418
 1365SOL    HW2 4220   2.428   1.817   0.632  1.0630 -0.2210  0.5530
 1366SOL     OW 4221   2.547   2.812   0.146  0.5765  0.2149 -0.1860
 1366SOL    HW1 4222   2.573   2.893   0.103  0.4058 -0.2437 -1.1739
 1366SOL    HW2 4223   2.465   2.834   0.191  0.7467  0.6951 -0.1056
 1367SOL     OW 4224   2.968   1.942   0.756  0.3863  0.0847 -0.6972
 1367SOL    HW1 4225   2.966   2.006   0.827  0.4566  2.1496 -2.4622
 1367SOL    HW2 4226   2.941   1.860   0.798 -1.1712  1.5348  1.3887
 1368SOL     OW 4227   1.340   3.302   3.519 -0.4609  0.1525 -0.3551
 1368SOL    HW1 4228   1.430   3.298   3.550 -0.3256  1.4176 -0.5460
 1368SOL    HW2 4229   1.304   3.381   3.559 -1.8815 -0.9511  0.7087
 1369SOL     OW 4230   2.269   0.727   3.297  0.6584 -0.6308 -0.5673
 1369SOL    HW1 4231   2.265   0.632   3.280  2.3476 -0.6090 -1.3407
 1369SOL    HW2 4232   2.304   0.734   3.385  0.8279 -0.7342 -0.6250
 1370SOL     OW 4233   2.594   1.168   0.114 -0.2227  0.2939  0.5480
 1370SOL    HW1 4234   2.664   1.210   0.063 -0.5912  0.9562  0.5781
 1370SOL    HW2 4235   2.633   1.154   0.200 -0.4027  1.4952  0.8429
 1371SOL     OW 4236   0.981   2.859   0.171  0.0923 -0.6738  0.4764
 1371SOL    HW1 4237   1.050   2.924   0.172 -2.1382  1.9261 -1.0750
 1371SOL    HW2 4238   0.951   2.854   0.262 -0.1676  1.0619  0.5120
 1372SOL     OW 4239   3.155   1.083   3.550 -0.4459  0.3366  0.6461
 1372SOL    HW1 4240   3.136   0.991   3.532 -1.0181  0.6111 -0.2218
 1372SOL    HW2 4241   3.247   1.094   3.526 -0.7672  0.3159 -0.6623
 1373SOL     OW 4242   2.455   0.157   1.051  0.4867 -0.0894  0.0539
 1373SOL    HW1 4243   2.410   0.225   1.102 -0.0873  0.0688 -0.6564
 1373SOL    HW2 4244   2.479   0.091   1.116 -1.1626 -0.3906  0.3975
 1374SOL     OW 4245   2.069   0.979   0.147  0.4995 -0.6972 -0.2146
 1374SOL    HW1 4246   2.028   0.998   0.062 -0.6234  0.3407  0.5193
 1374SOL    HW2 4247   2.156   1.017   0.140  0.0881  0.2226 -0.5972
 1375SOL     OW 4248   1.265   0.234   1.972 -0.9301  0.3857  0.0320
 1375SOL    HW1 4249   1.359   0.232   1.952 -1.0453  0.4356 -0.5278
 1375SOL    HW2 4250   1.257   0.182   2.052 -0.7764 -1.9472 -1.3683
 1376SOL     OW 4251   0.977   2.804   2.405 -0.3149 -0.1558 -0.3841
 1376SOL    HW1 4252   0.984   2.896   2.430 -2.2515 -0.0728  0.0453
 1376SOL    HW2 4253   1.049   2.789   2.344  1.6083  0.9349  1.4932
 1377SOL     OW 4254   0.305   2.861   0.948  0.0133 -0.1418 -0.0252
 1377SOL    HW1 4255   0.286   2.772   0.975 -1.0997  0.1003  0.0522
 1377SOL    HW2 4256   0.242   2.915   0.996 -0.7376  0.4715 -1.6316
 1378SOL     OW 4257   0.215   2.541   3.366  0.1907  0.2683  0.4315
 1378SOL    HW1 4258   0.146   2.576   3.310  0.0014  1.0433  1.1439
 1378SOL    HW2 4259   0.209   2.591   3.447  0.5709 -0.7283  1.0995
 1379SOL     OW 4260   3.283   3.610   2.940 -0.1716  0.5301  0.2406
 1379SOL    HW1 4261   3.229   3.679   2.980  0.8195  1.1740  0.5075
 1379SOL    HW2 4262   3.371   3.624   2.977  0.0166 -0.9975  0.4373
 1380SOL     OW 4263   2.280   2.253   0.578 -0.6683 -0.0651  0.3599
 1380SOL    HW1 4264   2.239   2.312   0.642 -1.6591 -1.8331  1.4402
 1380SOL    HW2 4265   2.311   2.179   0.630  0.6593 -0.4716 -0.9351
 1381SOL     OW 4266   0.198   2.984   2.462 -0.1162 -0.1101  0.1039
 1381SOL    HW1 4267   0.121   2.962   2.409  0.8676  1.6318 -2.2611
 1381SOL    HW2 4268   0.209   3.078   2.449  3.2428 -0.5304 -0.9537
 1382SOL     OW 4269   2.747   2.422   2.821 -0.1278  0.0927  0.5588
 1382SOL    HW1 4270   2.683   2.393   2.756  1.1986  2.3967 -1.9916
 1382SOL    HW2 4271   2.702   2.412   2.905 -1.9360 -3.0744 -0.5814
 1383SOL     OW 4272   3.008   1.795   0.454  0.6665  0.0791 -0.1916
 1383SOL    HW1 4273   3.077   1.855   0.427 -0.0527  1.4928  0.9464
 1383SOL    HW2 4274   3.053   1.726   0.502  1.3090  1.1307  0.7879
 1384SOL     OW 4275   0.316   2.626   2.314  0.5626 -0.2816  0.0416
 1384SOL    HW1 4276   0.261   2.564   2.363 -1.7299  1.0331 -0.7149
 1384SOL    HW2 4277   0.254   2.680   2.266  2.5063  2.0034 -0.0839
 1385SOL     OW 4278   3.202   0.800   0.086 -0.6541 -0.1884  0.6170
 1385SOL    HW1 4279   3.293   0.808   0.055 -1.0810 -1.3756 -1.1020
 1385SOL    HW2 4280   3.203   0.722   0.142  0.0061  1.6615  3.3830
 1386SOL     OW 4281   1.161   2.015   0.435 -0.0052  0.0165  0.0942
 1386SOL    HW1 4282   1.203   2.088   0.390  1.3881 -1.8429 -1.8217
 1386SOL    HW2 4283   1.094   1.985   0.374  2.4752 -3.0947 -1.3780
 1387SOL     OW 4284   1.113   1.846   1.303  0.1723  0.3967  0.7458
 1387SOL    HW1 4285   1.135   1.778   1.239 -1.6977  2.0760 -1.8755
 1387SOL    HW2 4286   1.086   1.798   1.381 -0.5107 -1.9023 -0.8084
 1388SOL     OW 4287   3.281   0.780   3.410 -0.0456  0.5553  0.2135
 1388SOL    HW1 4288   3.264   0.717   3.340 -1.6276  0.4521  0.6542
 1388SOL    HW2 4289   3.198   0.787   3.457  0.4857  1.9440  1.0185
 1389SOL     OW 4290   2.958   3.375   2.397 -1.0051 -0.3644 -0.0472
 1389SOL    HW1 4291   3.039   3.386   2.346  1.3063  0.1425  3.3911
 1389SOL    HW2 4292   2.908   3.454   2.380  0.4837  0.5736 -0.2231
 1390SOL     OW 4293   1.727   2.947   2.549 -0.3668  0.0270  0.3419
 1390SOL    HW1 4294   1.735   2.897   2.630  0.4747 -0.3035  0.0632
 1390SOL    HW2 4295   1.662   2.898   2.498  0.7610 -1.0707 -0.1075
 1391SOL     OW 4296   1.142   3.246   2.836 -0.7298 -0.2698 -0.1546
 1391SOL    HW1 4297   1.166   3.228   2.927 -3.2291 -0.9311  0.4438
 1391SOL    HW2 4298   1.131   3.159   2.797  0.0366  0.0163 -1.0381
 1392SOL     OW 4299   2.632   0.350   0.888  0.1637 -1.0174 -0.3871
 1392SOL    HW1 4300   2.629   0.259   0.918  1.1434 -0.4079  1.6919
 1392SOL    HW2 4301   2.679   0.345   0.804  0.3636 -2.4148 -0.2191
 1393SOL     OW 4302   3.201   2.712   1.301  0.4376 -0.3375  0.0365
 1393SOL    HW1 4303   3.192   2.682   1.211 -0.1285 -2.0165  0.6126
 1393SOL    HW2 4304   3.226   2.804   1.294 -2.5295  0.4512 -1.8270
 1394SOL     OW 4305   0.723   2.542   1.038  0.3131 -0.3991 -0.2738
 1394SOL    HW1 4306   0.674   2.490   0.975 -1.6047  0.1814  0.6611
 1394SOL    HW2 4307   0.721   2.631   1.002 -1.2826  0.0489  0.7980
 1395SOL     OW 4308   1.476   0.715   2.311 -0.2349  0.1647  0.5431
 1395SOL    HW1 4309   1.426   0.643   2.349  0.2502 -1.4659 -1.6723
 1395SOL    HW2 4310   1.561   0.677   2.288  0.5983  1.8440  0.6387
 1396SOL     OW 4311   1.398   1.123   1.225  0.3938  0.3139  0.1982
 1396SOL    HW1 4312   1.470   1.121   1.289 -1.6260  0.3842  2.5987
 1396SOL    HW2 4313   1.325   1.163   1.272 -1.6179 -0.8685 -1.7285
 1397SOL     OW 4314   0.538   0.351   0.106 -0.5951  0.2748  0.2582
 1397SOL    HW1 4315   0.540   0.258   0.085 -3.9278 -0.2519  1.6509
 1397SOL    HW2 4316   0.494   0.392   0.032 -1.0069  0.4005  0.5671
 1398SOL     OW 4317   2.781   0.254   0.676  0.5250 -0.4641  0.1366
 1398SOL    HW1 4318   2.734   0.256   0.593 -0.2592  0.8685  0.5638
 1398SOL    HW2 4319   2.779   0.162   0.703 -2.0690 -0.4604  0.2166
 1399SOL     OW 4320   1.059   3.612   0.663  0.2920 -0.6840 -0.2658
 1399SOL    HW1 4321   1.016   3.532   0.633  2.4000 -1.7465 -0.6675
 1399SOL    HW2 4322   0.996   3.653   0.722 -0.5954 -3.0433  0.5614
 1400SOL     OW 4323   2.123   1.696   2.718 -0.4730 -0.8570  0.1552
 1400SOL    HW1 4324   2.068   1.699   2.796 -0.7770 -0.3122 -0.0771
 1400SOL    HW2 4325   2.080   1.755   2.656  2.6011  3.1419  1.4047
 1401SOL     OW 4326   1.356   1.036   3.029  0.5713 -0.4142 -0.5698
 1401SOL    HW1 4327   1.433   0.982   3.012  0.5002 -0.1003 -2.0269
 1401SOL    HW2 4328   1.364   1.060   3.121  2.0430 -0.6593 -0.6002
 1402SOL     OW 4329   2.359   0.552   0.704 -0.2978 -0.3156  0.3738
 1402SOL    HW1 4330   2.385   0.525   0.792 -1.7156 -0.6019  0.7290
 1402SOL    HW2 4331   2.312   0.634   0.717  0.1259  0.0286 -0.2115
 1403SOL     OW 4332   1.610   1.255   3.010 -0.4590 -0.4629 -0.4237
 1403SOL    HW1 4333   1.640   1.319   2.946  1.7077 -1.9978 -1.0750
 1403SOL    HW2 4334   1.541   1.207   2.965 -0.6144  0.0361 -0.7175
 1404SOL     OW 4335   3.702   1.058   2.204  0.3600  0.1871  0.3822
 1404SOL    HW1 4336   3.676   1.020   2.120 -0.0338  1.1493  0.0660
 1404SOL    HW2 4337   3.623   1.056   2.258  0.4548  0.1447  0.5227
 1405SOL     OW 4338   2.799   2.337   0.002  0.0120  0.1687  0.4669
 1405SOL    HW1 4339   2.732   2.401  -0.023  2.1297  1.6811 -1.7291
 1405SOL    HW2 4340   2.828   2.366   0.088 -1.0803  0.3705  0.7883
 1406SOL     OW 4341   0.884   1.363   0.847  0.0146  0.7134 -0.1371
 1406SOL    HW1 4342   0.836   1.445   0.849 -0.5581  0.3933  1.8453
 1406SOL    HW2 4343   0.857   1.317   0.927  2.0738 -0.3724  0.0170
 1407SOL     OW 4344   2.157   0.701   2.102 -0.4224  0.6339 -0.3667
 1407SOL    HW1 4345   2.211   0.756   2.159 -0.7389  0.0175  0.5546
 1407SOL    HW2 4346   2.067   0.728   2.121 -0.6563 -0.9333  0.9347
 1408SOL     OW 4347   2.957   0.433   0.036 -0.1948 -0.7023 -0.5125
 1408SOL    HW1 4348   3.008   0.506   0.071 -0.6683 -0.2408 -0.7704
 1408SOL    HW2 4349   2.939   0.377   0.112  1.7918 -1.5583 -0.6233
 1409SOL     OW 4350   0.245   0.333   3.403 -0.2338 -0.0608  0.0919
 1409SOL    HW1 4351   0.336   0.303   3.392 -0.1410  0.4021 -0.4749
 1409SOL    HW2 4352   0.209   0.330   3.314 -0.3278  1.1489  0.0745
 1410SOL     OW 4353   3.266   2.614   2.193 -0.4672 -0.0467  0.0353
 1410SOL    HW1 4354   3.258   2.699   2.236 -2.6319 -0.2840  0.2132
 1410SOL    HW2 4355   3.249   2.550   2.262  1.0310 -0.6605 -0.1202
 1411SOL     OW 4356   3.295   2.409   0.839 -0.5017  0.4244 -0.6529
 1411SOL    HW1 4357   3.293   2.317   0.864  0.2823  0.1001 -1.7173
 1411SOL    HW2 4358   3.209   2.424   0.798 -0.7500  0.2653 -0.2057
 1412SOL     OW 4359   2.696   0.047   2.144 -0.3290 -0.2063  0.0640
 1412SOL    HW1 4360   2.650   0.021   2.064 -2.0594 -0.4889  1.1077
 1412SOL    HW2 4361   2.789   0.046   2.120 -0.6138 -2.7721 -1.2724
 1413SOL     OW 4362   0.501   0.987   1.539  0.1881  0.9194  0.2308
 1413SOL    HW1 4363   0.445   1.063   1.521 -0.5762 -0.2503 -3.1725
 1413SOL    HW2 4364   0.448   0.930   1.594 -2.3314 -0.2606 -3.0662
 1414SOL     OW 4365   0.176   3.682   1.936  0.1094 -0.7299  0.2333
 1414SOL    HW1 4366   0.170   3.758   1.995 -1.1234 -0.9939  0.4715
 1414SOL    HW2 4367   0.202   3.610   1.992  0.1290 -0.7333  0.2200
 1415SOL     OW 4368   0.261   3.709   1.448  0.1633  0.0651  0.0407
 1415SOL    HW1 4369   0.242   3.630   1.398  1.6241 -1.0432  1.1474
 1415SOL    HW2 4370   0.357   3.710   1.455  0.3615  2.9577 -1.5356
 1416SOL     OW 4371   3.363   2.407   0.568  0.2337 -0.0563  0.2992
 1416SOL    HW1 4372   3.368   2.417   0.663 -0.6371 -0.5009  0.3929
 1416SOL    HW2 4373   3.376   2.496   0.534  1.5390 -0.0360  0.7747
 1417SOL     OW 4374   3.262   1.800   0.876 -0.2953 -0.1837 -0.4397
 1417SOL    HW1 4375   3.176   1.838   0.891 -0.2515  0.1387 -1.0009
 1417SOL    HW2 4376   3.299   1.791   0.964  0.2047  2.2503 -0.3408
 1418SOL     OW 4377   0.487   0.865   0.416 -0.0572 -0.1614  0.1203
 1418SOL    HW1 4378   0.400   0.896   0.392  0.0727  0.1214  0.0174
 1418SOL    HW2 4379   0.545   0.939   0.399  0.4312 -0.8439 -1.3305
 1419SOL     OW 4380   1.476   2.360   3.584  0.1332 -0.0398  0.2540
 1419SOL    HW1 4381   1.453   2.268   3.575 -0.3268 -0.1456  2.1650
 1419SOL    HW2 4382   1.393   2.407   3.572  0.1267  0.0351  0.5912
 1420SOL     OW 4383   0.683   2.357   3.626  0.0091  0.0988 -0.4954
 1420SOL    HW1 4384   0.660   2.343   3.534  0.0310 -0.2937 -0.4431
 1420SOL    HW2 4385   0.730   2.440   3.627  0.8894 -0.3848 -0.9869
 1421SOL     OW 4386   0.523   1.597   0.520  0.1736 -0.6821 -0.2987
 1421SOL    HW1 4387   0.551   1.518   0.566  0.4629 -1.4899 -1.8019
 1421SOL    HW2 4388   0.461   1.639   0.580 -0.0341 -2.0748  0.5029
 1422SOL     OW 4389   2.174   3.150   0.474  0.0289 -0.6572 -0.1705
 1422SOL    HW1 4390   2.264   3.179   0.456 -0.3502  0.3469 -0.5009
 1422SOL    HW2 4391   2.183   3.086   0.545  0.9716 -0.3013  0.0428
 1423SOL     OW 4392   3.049   0.458   2.781  0.1683 -0.3588 -0.2087
 1423SOL    HW1 4393   3.101   0.512   2.840 -1.0256 -0.6768  1.1935
 1423SOL    HW2 4394   2.975   0.429   2.834 -1.4046 -0.0038 -2.0823
 1424SOL     OW 4395   0.510   0.209   2.687 -0.4286  0.1072 -0.0054
 1424SOL    HW1 4396   0.533   0.259   2.608  0.4537  0.6841  0.5961
 1424SOL    HW2 4397   0.459   0.271   2.740 -0.6171 -0.1252  0.0851
 1425SOL     OW 4398   2.440   3.398   1.414  0.1687 -0.3439 -0.2502
 1425SOL    HW1 4399   2.372   3.451   1.457  0.2764  0.1039 -0.6340
 1425SOL    HW2 4400   2.410   3.308   1.426 -0.0076 -0.2039  0.4170
 1426SOL     OW 4401   3.407   1.224   1.725  0.1328  0.0539  0.3419
 1426SOL    HW1 4402   3.322   1.234   1.768 -0.1543  2.0741 -0.5526
 1426SOL    HW2 4403   3.390   1.165   1.652 -0.2447 -0.4050  0.7918
 1427SOL     OW 4404   1.799   0.701   2.811 -1.0133  0.2175  0.3834
 1427SOL    HW1 4405   1.878   0.749   2.833  0.4663 -2.5021  1.4782
 1427SOL    HW2 4406   1.788   0.716   2.717  1.8958 -0.6797 -0.2227
 1428SOL     OW 4407   0.157   3.318   0.287 -0.4870 -0.6278  0.0477
 1428SOL    HW1 4408   0.245   3.323   0.325 -1.5672  0.7441  2.5801
 1428SOL    HW2 4409   0.151   3.228   0.255  1.6019 -0.9553  0.3903
 1429SOL     OW 4410   3.228   1.569   3.545 -0.6162 -0.0222 -0.3573
 1429SOL    HW1 4411   3.135   1.548   3.557 -0.4626 -1.5308 -1.5240
 1429SOL    HW2 4412   3.274   1.489   3.566  0.5904  1.1197  1.6166
 1430SOL     OW 4413   0.349   0.283   2.912 -0.1287  0.1678 -0.2473
 1430SOL    HW1 4414   0.383   0.259   2.998 -1.9452  1.6741  0.9834
 1430SOL    HW2 4415   0.310   0.203   2.878  1.6084 -0.7325 -0.2187
 1431SOL     OW 4416   2.749   1.416   1.869 -0.7196 -0.2816 -0.2350
 1431SOL    HW1 4417   2.700   1.481   1.920  2.0366  0.8445  1.1872
 1431SOL    HW2 4418   2.765   1.345   1.930  0.8382  0.1461 -0.1066
 1432SOL     OW 4419   0.132   1.741   0.900  0.1953  0.1074 -0.3798
 1432SOL    HW1 4420   0.153   1.779   0.814  0.6365 -1.4955 -1.0132
 1432SOL    HW2 4421   0.186   1.790   0.961  1.4793 -0.1203 -1.2922
 1433SOL     OW 4422   2.629   2.445   3.397  0.1635 -0.4307  0.2840
 1433SOL    HW1 4423   2.539   2.447   3.430 -0.5776  1.3381 -1.5553
 1433SOL    HW2 4424   2.648   2.352   3.384 -1.7476 -0.8119 -0.1132
 1434SOL     OW 4425   0.164   2.319   1.182 -0.6434  0.4031  0.1102
 1434SOL    HW1 4426   0.208   2.374   1.247 -0.1498 -1.1613  1.1643
 1434SOL    HW2 4427   0.078   2.361   1.169  0.1889  2.1252 -0.1304
 1435SOL     OW 4428   2.150   1.446   0.925  0.2948 -0.2092  0.0284
 1435SOL    HW1 4429   2.107   1.409   1.002 -0.5022  0.9600  0.1828
 1435SOL    HW2 4430   2.083   1.443   0.857  0.4005  0.3972 -0.1080
 1436SOL     OW 4431   3.665   2.919   0.507  0.0884  0.1524 -0.1690
 1436SOL    HW1 4432   3.726   2.875   0.567 -0.7684 -1.0830 -0.1734
 1436SOL    HW2 4433   3.688   2.884   0.421  1.4513  2.0731 -0.6574
 1437SOL     OW 4434   1.283   1.973   1.926 -0.5585  0.1939  0.3114
 1437SOL    HW1 4435   1.240   1.891   1.952 -0.0484  0.4155  1.9104
 1437SOL    HW2 4436   1.216   2.040   1.941 -0.2139  0.3403  1.2584
 1438SOL     OW 4437   1.190   3.059   0.173  0.5623 -0.3489  0.3081
 1438SOL    HW1 4438   1.141   3.128   0.128 -0.7462 -1.2386  0.3205
 1438SOL    HW2 4439   1.257   3.032   0.110  0.6049  0.4191  0.0225
 1439SOL     OW 4440   2.037   1.076   2.610  0.0025  0.3535  0.6441
 1439SOL    HW1 4441   2.115   1.062   2.555 -0.0363 -0.3125  0.7565
 1439SOL    HW2 4442   2.060   1.151   2.664 -0.0562  1.1946 -0.4575
 1440SOL     OW 4443   0.404   0.085   0.810  0.2174  0.2594 -0.4014
 1440SOL    HW1 4444   0.358   0.169   0.802  0.0914  0.1057 -1.4718
 1440SOL    HW2 4445   0.461   0.096   0.886 -0.4710  0.9870  0.0349
 1441SOL     OW 4446   2.714   1.840   2.359  0.0967 -0.2135 -0.3447
 1441SOL    HW1 4447   2.735   1.750   2.334  1.1427  0.4156 -1.9754
 1441SOL    HW2 4448   2.752   1.893   2.288 -0.5555  1.5005  0.5349
 1442SOL     OW 4449   2.357   1.879   2.553 -0.2286 -0.3375 -0.6048
 1442SOL    HW1 4450   2.316   1.843   2.474 -1.2901  0.3629 -0.3948
 1442SOL    HW2 4451   2.439   1.917   2.522  0.1987 -1.5964 -1.0686
 1443SOL     OW 4452   0.914   2.791   2.831  0.0806 -0.2257 -0.5584
 1443SOL    HW1 4453   0.878   2.785   2.920  0.9109 -1.6978 -0.2812
 1443SOL    HW2 4454   0.847   2.751   2.775  0.4612 -1.2661 -0.2914
 1444SOL     OW 4455   0.069   1.279   1.459  0.0616 -0.1881  0.2204
 1444SOL    HW1 4456  -0.010   1.328   1.484 -0.3177 -1.2650  1.2068
 1444SOL    HW2 4457   0.103   1.326   1.383 -0.4509  1.4271  0.9457
 1445SOL     OW 4458   1.583   0.182   2.384  0.5781  0.2623 -0.2412
 1445SOL    HW1 4459   1.583   0.259   2.327 -0.7441 -0.7111 -1.6343
 1445SOL    HW2 4460   1.511   0.197   2.445  1.6694  1.0680  0.8958
 1446SOL     OW 4461   1.338   0.257   2.476 -0.2825  0.1915 -0.7781
 1446SOL    HW1 4462   1.313   0.349   2.483  0.3017  0.3455 -0.6283
 1446SOL    HW2 4463   1.275   0.211   2.532  1.4708  0.8989  1.9879
 1447SOL     OW 4464   1.513   2.614   0.522 -0.1462  0.3182  0.2233
 1447SOL    HW1 4465   1.502   2.707   0.540 -0.9880  0.3005 -0.1211
 1447SOL    HW2 4466   1.426   2.585   0.494  0.5270 -0.1413 -1.5645
 1448SOL     OW 4467   2.578   1.539   2.054 -0.0491 -0.3208 -0.2368
 1448SOL    HW1 4468   2.595   1.535   2.148 -0.4808  2.9951  0.0941
 1448SOL    HW2 4469   2.493   1.583   2.047  0.3154  0.1660 -2.1668
 1449SOL     OW 4470   2.482   0.870   0.037  0.3651 -0.3061 -0.0044
 1449SOL    HW1 4471   2.534   0.797   0.070  2.0157  0.1570 -1.4541
 1449SOL    HW2 4472   2.431   0.900   0.113  0.7390 -2.0198  0.9630
 1450SOL     OW 4473   0.605   0.274   1.829  0.3591  0.0422  0.4109
 1450SOL    HW1 4474   0.583   0.357   1.873 -0.3663  0.6832 -1.0981
 1450SOL    HW2 4475   0.569   0.283   1.741  4.9363  0.4064 -1.7192
 1451SOL     OW 4476   1.227   1.248   0.958 -0.1522  0.1717  0.5148
 1451SOL    HW1 4477   1.211   1.295   1.040 -0.2627  1.2465 -0.0914
 1451SOL    HW2 4478   1.322   1.235   0.956  0.2474  2.6501 -0.4375
 1452SOL     OW 4479   1.174   3.025   1.975  0.6663  0.8705  0.2648
 1452SOL    HW1 4480   1.099   3.084   1.967 -0.3400 -0.3599  0.3530
 1452SOL    HW2 4481   1.207   3.015   1.885 -0.7560 -0.4136 -0.1577
 1453SOL     OW 4482   0.361   2.367   3.674  0.1716  0.3260 -0.2587
 1453SOL    HW1 4483   0.357   2.297   3.739 -0.3304  0.0276 -0.6012
 1453SOL    HW2 4484   0.452   2.367   3.645  0.1521 -0.2652 -0.3367
 1454SOL     OW 4485   1.978   0.091   0.930  0.2405  0.2246 -0.3505
 1454SOL    HW1 4486   1.998   0.009   0.976 -0.8571  1.4058  2.4484
 1454SOL    HW2 4487   1.909   0.067   0.868  1.0626 -1.2485 -0.7554
 1455SOL     OW 4488   1.801   2.559   0.972 -0.3692 -0.3711 -0.7431
 1455SOL    HW1 4489   1.784   2.497   0.901 -2.2158 -1.7922  0.8312
 1455SOL    HW2 4490   1.758   2.639   0.944 -1.8182 -1.1711 -0.8960
 1456SOL     OW 4491   3.269   3.446   3.337 -0.3142  0.1789 -0.2479
 1456SOL    HW1 4492   3.291   3.380   3.272 -0.9532 -0.0720 -0.2121
 1456SOL    HW2 4493   3.174   3.460   3.327 -0.6946 -0.8369  1.5214
 1457SOL     OW 4494   2.065   0.025   0.072  0.3032  0.7467  0.1681
 1457SOL    HW1 4495   2.078   0.004   0.164 -0.3262  0.9380  0.3061
 1457SOL    HW2 4496   2.130  -0.028   0.025  0.4027  0.4006  0.6954
 1458SOL     OW 4497   2.767   2.214   0.955  0.1323 -0.4494  0.2650
 1458SOL    HW1 4498   2.697   2.274   0.982 -0.5312 -1.0843 -0.0204
 1458SOL    HW2 4499   2.788   2.165   1.035  0.7529  0.2143  0.5277
 1459SOL     OW 4500   0.719   3.504   1.086 -0.1913  0.1456  0.0550
 1459SOL    HW1 4501   0.682   3.426   1.043  0.0960  1.6576 -3.3052
 1459SOL    HW2 4502   0.768   3.470   1.160 -2.9814 -2.5083  0.9016
 1460SOL     OW 4503   2.896   1.736   2.568 -0.0668 -0.2077  0.2388
 1460SOL    HW1 4504   2.881   1.749   2.662 -1.7752  1.4308 -0.2028
 1460SOL    HW2 4505   2.822   1.779   2.526  0.9240 -0.4716 -1.8946
 1461SOL     OW 4506   0.805   0.181   0.914 -0.4407  0.0265  0.2355
 1461SOL    HW1 4507   0.747   0.247   0.877 -0.4981 -0.3118 -0.2864
 1461SOL    HW2 4508   0.890   0.224   0.918 -0.9567  0.9942  2.2621
 1462SOL     OW 4509   0.449   1.679   3.202  0.4151 -0.6048  0.7196
 1462SOL    HW1 4510   0.410   1.657   3.118 -1.8332  0.8150  1.3062
 1462SOL    HW2 4511   0.539   1.646   3.197  0.1893 -0.9642 -2.0357
 1463SOL     OW 4512   2.836   0.053   0.956 -0.5861 -0.2063 -0.3533
 1463SOL    HW1 4513   2.843  -0.037   0.985 -0.0919 -0.3212 -0.8228
 1463SOL    HW2 4514   2.752   0.057   0.910 -1.1485 -0.1387  0.6359
 1464SOL     OW 4515   3.672   2.918   3.049  0.0065  0.3067  0.3512
 1464SOL    HW1 4516   3.596   2.892   3.101 -0.3603 -1.9540 -1.1428
 1464SOL    HW2 4517   3.648   3.002   3.011 -1.3134  0.1219  0.7383
 1465SOL     OW 4518   0.432   2.591   0.225 -0.0121 -0.5301 -0.0290
 1465SOL    HW1 4519   0.387   2.563   0.305 -1.2716 -1.3387 -0.9727
 1465SOL    HW2 4520   0.480   2.514   0.196 -2.9604 -1.7527 -2.2743
 1466SOL     OW 4521   3.231   1.844   2.577  0.2851 -0.0470  0.3060
 1466SOL    HW1 4522   3.203   1.884   2.659 -0.2902 -0.0197  0.1008
 1466SOL    HW2 4523   3.281   1.767   2.604 -0.2006 -0.2406  0.6876
 1467SOL     OW 4524   2.697   3.393   1.347 -0.1275  0.2951  0.1125
 1467SOL    HW1 4525   2.609   3.389   1.386 -0.0163 -1.6680  0.2667
 1467SOL    HW2 4526   2.691   3.339   1.268  1.1317 -0.6077  0.5935
 1468SOL     OW 4527   3.227   1.801   3.389  0.2104 -0.3749 -0.0964
 1468SOL    HW1 4528   3.295   1.803   3.322  0.2841  0.0648 -0.0096
 1468SOL    HW2 4529   3.222   1.709   3.416  0.4031 -0.4970 -0.4751
 1469SOL     OW 4530   1.093   1.577   3.415 -0.2522 -0.0794  0.2056
 1469SOL    HW1 4531   1.090   1.509   3.347 -2.6267 -0.3547  0.4827
 1469SOL    HW2 4532   1.134   1.534   3.490  2.2892  0.1921 -0.9305
 1470SOL     OW 4533   0.486   2.135   2.920 -0.3451  0.3849 -0.4549
 1470SOL    HW1 4534   0.464   2.043   2.938  0.0289  0.0322 -1.7027
 1470SOL    HW2 4535   0.420   2.185   2.967 -0.7188 -0.5281  0.0188
 1471SOL     OW 4536   1.771   3.262   3.060  0.1785 -0.4864 -0.8217
 1471SOL    HW1 4537   1.828   3.329   3.021  0.3493  0.3018  0.6992
 1471SOL    HW2 4538   1.829   3.188   3.076  1.0878  0.6171  1.5205
 1472SOL     OW 4539   2.964   2.520   0.978 -0.5696  0.5103  0.2923
 1472SOL    HW1 4540   2.980   2.440   1.029 -1.3223 -0.9136 -1.6142
 1472SOL    HW2 4541   2.878   2.550   1.006 -0.4842  0.4194  0.6637
 1473SOL     OW 4542   2.151   2.347   3.434 -0.2582  0.0800 -0.6916
 1473SOL    HW1 4543   2.072   2.388   3.399 -1.0621  0.0300  0.9642
 1473SOL    HW2 4544   2.131   2.332   3.527  0.3883 -3.0502 -0.9390
 1474SOL     OW 4545   2.659   2.667   3.205  1.0412  0.4453  0.2044
 1474SOL    HW1 4546   2.615   2.746   3.239  2.0394  0.7349  0.8761
 1474SOL    HW2 4547   2.631   2.597   3.265  2.2192  0.8175  1.2477
 1475SOL     OW 4548   0.796   0.430   1.468 -0.7423 -0.2434  0.3026
 1475SOL    HW1 4549   0.742   0.392   1.537 -1.9221 -0.5725 -0.7468
 1475SOL    HW2 4550   0.742   0.501   1.432  0.9987  1.8231  1.5426
 1476SOL     OW 4551   2.346   1.222   0.365  0.3219  0.6867  0.6560
 1476SOL    HW1 4552   2.424   1.261   0.325 -0.2249  0.0361 -1.1359
 1476SOL    HW2 4553   2.358   1.237   0.459  1.0003  3.5379  0.2237
 1477SOL     OW 4554   1.763   0.433   0.716  0.0467  0.2505 -0.4349
 1477SOL    HW1 4555   1.801   0.420   0.803 -0.5664  0.2332 -0.1651
 1477SOL    HW2 4556   1.689   0.371   0.713  0.3843 -0.1334 -1.1657
 1478SOL     OW 4557   1.705   3.623   1.167  0.4131  0.2974 -0.3740
 1478SOL    HW1 4558   1.714   3.573   1.086  0.2459  0.6347 -0.6012
 1478SOL    HW2 4559   1.766   3.697   1.157  0.8939 -0.0249  0.0928
 1479SOL     OW 4560   1.440   2.753   1.051  0.6184 -0.5134  0.4768
 1479SOL    HW1 4561   1.452   2.711   0.966 -1.1593 -0.2635  0.0531
 1479SOL    HW2 4562   1.417   2.843   1.031  0.7940 -0.2846  1.2572
 1480SOL     OW 4563   1.497   2.245   1.172 -0.3258  0.0180  0.4300
 1480SOL    HW1 4564   1.524   2.199   1.252  0.8773  0.7499  0.4680
 1480SOL    HW2 4565   1.544   2.328   1.175 -1.0855  0.5029 -0.5275
 1481SOL     OW 4566   1.386   3.633   2.493  0.6051  0.1609  0.1908
 1481SOL    HW1 4567   1.350   3.715   2.529 -1.2740 -0.6142  0.1920
 1481SOL    HW2 4568   1.314   3.570   2.500  1.6908 -1.2441 -0.7263
 1482SOL     OW 4569   3.550   2.318   2.467 -0.4077  0.1309 -0.4329
 1482SOL    HW1 4570   3.560   2.322   2.562 -1.8873  1.4106 -0.2994
 1482SOL    HW2 4571   3.469   2.270   2.453  0.6249 -1.4995 -1.1413
 1483SOL     OW 4572   3.399   2.847   0.895 -0.0645  0.0637  0.2142
 1483SOL    HW1 4573   3.316   2.814   0.861 -1.9407  1.0719  3.3694
 1483SOL    HW2 4574   3.431   2.778   0.952 -0.2716  0.7825  1.2348
 1484SOL     OW 4575   0.674   0.048   1.555 -0.0898  0.0049  0.5109
 1484SOL    HW1 4576   0.740   0.045   1.624  3.1946 -1.2269 -2.3582
 1484SOL    HW2 4577   0.591   0.034   1.600  1.9512 -2.3681  4.0358
 1485SOL     OW 4578   3.514   1.764   1.034  0.0279 -0.0471  0.4058
 1485SOL    HW1 4579   3.533   1.750   0.942 -0.6787  0.2298  0.2123
 1485SOL    HW2 4580   3.508   1.676   1.071 -0.6260 -0.1839 -0.0133
 1486SOL     OW 4581   3.173   0.698   0.708 -0.3353  0.1222  0.1282
 1486SOL    HW1 4582   3.142   0.608   0.720  0.7937 -0.5689 -1.8228
 1486SOL    HW2 4583   3.108   0.739   0.651  0.2438 -0.1098 -0.7057
 1487SOL     OW 4584   1.843   2.473   1.974  0.6520 -0.3691  0.4782
 1487SOL    HW1 4585   1.891   2.417   1.914  0.4160 -2.3037  1.9933
 1487SOL    HW2 4586   1.780   2.414   2.017  0.4591  1.0238  2.2245
 1488SOL     OW 4587   0.015   2.999   2.699 -0.3536  0.1568  0.5417
 1488SOL    HW1 4588   0.085   2.937   2.722 -0.8217  0.1852  2.1575
 1488SOL    HW2 4589   0.018   3.003   2.603  2.9321  1.4033  0.5584
 1489SOL     OW 4590   3.056   0.230   0.756 -0.0872  0.3027 -0.2029
 1489SOL    HW1 4591   2.966   0.219   0.724 -0.4979  0.4324  0.8531
 1489SOL    HW2 4592   3.050   0.207   0.849  0.7545  1.3404  0.1206
 1490SOL     OW 4593   0.706   2.188   0.409  0.3488  0.3666 -0.8592
 1490SOL    HW1 4594   0.665   2.164   0.493  1.6699  1.6903  0.2149
 1490SOL    HW2 4595   0.635   2.229   0.359 -0.4906 -0.5560 -0.4823
 1491SOL     OW 4596   0.896   1.398   3.052  0.2975 -0.2254 -0.1896
 1491SOL    HW1 4597   0.900   1.315   3.101 -0.5540 -0.4857 -0.5621
 1491SOL    HW2 4598   0.970   1.393   2.991  1.9836  0.5018  1.6412
 1492SOL     OW 4599   1.720   1.175   1.976  0.5265 -0.3394 -0.1327
 1492SOL    HW1 4600   1.682   1.247   1.927  0.4820  0.4603  1.0528
 1492SOL    HW2 4601   1.810   1.203   1.994  0.8002 -0.9829 -0.4487
 1493SOL     OW 4602   2.727   3.520   3.023  0.2017 -0.5157 -0.1810
 1493SOL    HW1 4603   2.682   3.471   3.092 -0.1673  0.8916  0.6324
 1493SOL    HW2 4604   2.795   3.569   3.070 -0.1520  0.5864 -0.7749
 1494SOL     OW 4605   1.866   0.908   1.380 -0.2127  0.0075  0.4570
 1494SOL    HW1 4606   1.918   0.833   1.406  0.5521  0.0077 -0.9598
 1494SOL    HW2 4607   1.860   0.962   1.459  0.0923 -1.0298  1.2100
 1495SOL     OW 4608   2.343   1.073   0.148 -0.4078 -0.2953  0.0233
 1495SOL    HW1 4609   2.417   1.116   0.105 -0.4473  0.5251  0.7485
 1495SOL    HW2 4610   2.331   1.121   0.230 -2.5974  0.5018 -0.6625
 1496SOL     OW 4611   0.596   2.238   2.023 -0.1103 -0.5053 -0.0701
 1496SOL    HW1 4612   0.617   2.315   2.076  0.3999  0.8884 -2.1658
 1496SOL    HW2 4613   0.536   2.271   1.957 -1.3487 -2.3639  0.0907
 1497SOL     OW 4614   1.535   2.901   0.554  0.1703  0.8090  0.0237
 1497SOL    HW1 4615   1.478   2.952   0.496  0.3400  1.3603  0.3369
 1497SOL    HW2 4616   1.498   2.914   0.641  0.2398  0.4228  0.1122
 1498SOL     OW 4617   3.528   1.058   3.227  0.1940  0.1625  0.2842
 1498SOL    HW1 4618   3.604   1.089   3.276 -0.1569  1.4144  0.0674
 1498SOL    HW2 4619   3.486   1.138   3.194 -1.4133 -0.4757  0.6887
 1499SOL     OW 4620   2.453   2.638   1.551 -0.0187  0.3017 -0.0087
 1499SOL    HW1 4621   2.392   2.638   1.625 -1.6700  2.8435 -1.2157
 1499SOL    HW2 4622   2.443   2.552   1.512 -2.7646  0.5380 -0.0216
 1500SOL     OW 4623   1.302   2.917   0.383  0.1673 -0.0610 -0.0655
 1500SOL    HW1 4624   1.289   2.970   0.304  0.0948 -0.3676 -0.2596
 1500SOL    HW2 4625   1.305   2.827   0.352  0.5529 -0.1565  0.2346
 1501SOL     OW 4626   1.155   2.421   0.110 -0.0633  0.1800 -0.3534
 1501SOL    HW1 4627   1.061   2.434   0.101 -0.1940  0.2957  0.9266
 1501SOL    HW2 4628   1.193   2.468   0.035 -0.9311  1.8618  0.2017
 1502SOL     OW 4629   2.414   3.200   3.324  0.1445 -0.0514 -0.1703
 1502SOL    HW1 4630   2.336   3.214   3.272  0.0267 -0.2998 -0.0620
 1502SOL    HW2 4631   2.430   3.105   3.319  0.2481 -0.0478  0.0757
 1503SOL     OW 4632   2.551   3.363   2.893  0.2093  0.0935 -0.0054
 1503SOL    HW1 4633   2.469   3.412   2.898  0.5259  0.5463  1.1496
 1503SOL    HW2 4634   2.587   3.367   2.982  2.2249  1.2102 -0.7973
 1504SOL     OW 4635   2.216   1.434   2.662 -0.1538  0.7522  0.1148
 1504SOL    HW1 4636   2.142   1.401   2.713  0.0294  0.5617  0.2525
 1504SOL    HW2 4637   2.223   1.526   2.688 -0.3844  0.7903  0.0507
 1505SOL     OW 4638   2.976   1.024   2.019 -0.0166  0.9959 -0.0659
 1505SOL    HW1 4639   2.970   1.047   1.926  0.6039  1.3256 -0.0317
 1505SOL    HW2 4640   2.934   0.938   2.026  1.0795  0.3689 -0.8880
 1506SOL     OW 4641   2.081   2.288   2.866 -0.1281 -0.2921  0.5422
 1506SOL    HW1 4642   2.058   2.377   2.840  3.7756  0.5766 -0.6666
 1506SOL    HW2 4643   2.073   2.237   2.785  0.8554 -0.2157  0.3798
 1507SOL     OW 4644   3.471   3.364   2.129  0.2824  0.2450 -0.5029
 1507SOL    HW1 4645   3.510   3.438   2.175  1.6913 -1.7086  1.6447
 1507SOL    HW2 4646   3.498   3.287   2.178 -2.3146 -1.6568 -1.7625
 1508SOL     OW 4647   2.932   1.813   3.544  0.1460  0.0329 -0.0134
 1508SOL    HW1 4648   2.888   1.819   3.629  1.5446 -0.8922  0.8140
 1508SOL    HW2 4649   2.861   1.799   3.481 -0.9101  0.6351  0.9997
 1509SOL     OW 4650   1.310   0.406   1.072 -0.2115  0.5117 -0.3856
 1509SOL    HW1 4651   1.291   0.499   1.073 -3.1295  0.0246  1.7243
 1509SOL    HW2 4652   1.314   0.381   1.164 -0.0084 -1.5378 -0.8948
 1510SOL     OW 4653   3.653   1.459   1.948  0.0719 -0.0238  0.4782
 1510SOL    HW1 4654   3.701   1.501   1.877  1.5289 -2.0484  0.1916
 1510SOL    HW2 4655   3.628   1.373   1.914  0.4207 -0.8744  2.2311
 1511SOL     OW 4656   0.563   2.868   1.216 -0.4709 -0.4037 -0.3330
 1511SOL    HW1 4657   0.488   2.834   1.168 -0.0993  0.4332 -1.5677
 1511SOL    HW2 4658   0.630   2.881   1.148 -0.1681  1.5037  0.2746
 1512SOL     OW 4659   1.713   0.122   1.507 -0.3177  1.0104  0.4459
 1512SOL    HW1 4660   1.807   0.119   1.491 -0.3507 -2.7513  0.0275
 1512SOL    HW2 4661   1.680   0.187   1.444  1.8590  1.7062 -0.0491
 1513SOL     OW 4662   2.672   1.489   2.329 -0.1502 -0.4720  0.5175
 1513SOL    HW1 4663   2.766   1.503   2.341 -0.1520  0.5582 -0.5383
 1513SOL    HW2 4664   2.632   1.527   2.408  0.2208  0.7134  0.1541
 1514SOL     OW 4665   1.387   0.346   3.487 -0.0816  0.0418 -0.1960
 1514SOL    HW1 4666   1.371   0.334   3.393  1.9757 -1.8704 -0.3970
 1514SOL    HW2 4667   1.476   0.382   3.491 -0.1539  0.0984  1.0011
 1515SOL     OW 4668   2.362   0.273   1.329 -0.5616 -0.3457 -0.2695
 1515SOL    HW1 4669   2.435   0.316   1.373 -0.2846 -1.8073  0.7756
 1515SOL    HW2 4670   2.300   0.344   1.310  0.9574  0.8715 -0.9046
 1516SOL     OW 4671   2.571   1.835   0.938  0.6178  0.2735  0.1216
 1516SOL    HW1 4672   2.514   1.912   0.925  0.9237  0.4004 -0.5061
 1516SOL    HW2 4673   2.590   1.805   0.850 -0.0429 -0.9394  0.3760
 1517SOL     OW 4674   0.225   1.184   2.240 -0.6100  0.5125 -0.5047
 1517SOL    HW1 4675   0.237   1.167   2.333  1.9457 -1.4030 -1.0564
 1517SOL    HW2 4676   0.145   1.138   2.217 -0.1845 -0.7081  0.3784
 1518SOL     OW 4677   2.650   1.805   3.283 -1.0509  0.2903  0.2836
 1518SOL    HW1 4678   2.620   1.882   3.333 -0.0091  0.7331  0.2455
 1518SOL    HW2 4679   2.693   1.841   3.206 -0.2615 -0.3271  0.4267
 1519SOL     OW 4680   1.704   1.816   1.286 -0.0083 -0.3415 -0.6005
 1519SOL    HW1 4681   1.724   1.754   1.356 -1.3467  0.4105  0.4980
 1519SOL    HW2 4682   1.765   1.792   1.215  1.7220 -0.8247  0.9573
 1520SOL     OW 4683   0.787   1.715   2.664  1.0460  0.3457  0.4716
 1520SOL    HW1 4684   0.732   1.641   2.641  0.5501  0.3423  1.5791
 1520SOL    HW2 4685   0.816   1.751   2.581 -0.0123 -0.1189 -0.1178
 1521SOL     OW 4686   1.547   0.485   3.247 -0.3110 -0.1638 -0.7541
 1521SOL    HW1 4687   1.611   0.549   3.277  0.8345 -1.5604 -0.0629
 1521SOL    HW2 4688   1.466   0.510   3.289  0.1785  0.6691 -0.2802
 1522SOL     OW 4689   2.153   2.078   1.475 -0.8114  0.5997  0.2436
 1522SOL    HW1 4690   2.212   2.007   1.448 -0.8742  0.7694 -0.3595
 1522SOL    HW2 4691   2.188   2.108   1.559 -0.7039 -0.0526  0.4409
 1523SOL     OW 4692   0.752   3.657   3.412  0.2337 -0.3279  0.8459
 1523SOL    HW1 4693   0.768   3.563   3.402 -0.4866 -0.3170 -0.7879
 1523SOL    HW2 4694   0.826   3.688   3.464 -0.3905 -2.0411  2.9146
 1524SOL     OW 4695   1.986   3.026   2.686 -0.3189  0.3654  0.3421
 1524SOL    HW1 4696   1.914   2.975   2.649  1.0135 -0.8981 -0.5886
 1524SOL    HW2 4697   2.065   2.981   2.659  0.8389  1.0553  2.3288
 1525SOL     OW 4698   0.066   2.475   1.845 -0.5933 -0.9781 -0.6429
 1525SOL    HW1 4699   0.054   2.529   1.767  0.4720 -1.1805 -0.9574
 1525SOL    HW2 4700   0.065   2.538   1.918 -0.5026 -0.6649 -0.9089
 1526SOL     OW 4701   0.761   0.279   2.802 -0.2516  0.3393 -0.3566
 1526SOL    HW1 4702   0.813   0.203   2.827 -0.8368  0.5938  1.8655
 1526SOL    HW2 4703   0.678   0.242   2.770 -0.1419  0.0076 -0.2596
 1527SOL     OW 4704   0.229   2.007   1.161  0.0793 -0.4147 -0.5962
 1527SOL    HW1 4705   0.324   2.009   1.169  0.1583  2.5377 -1.2443
 1527SOL    HW2 4706   0.197   2.050   1.241 -0.7551 -1.6229 -0.2529
 1528SOL     OW 4707   0.652   1.080   2.174  0.3042  0.1378  0.2590
 1528SOL    HW1 4708   0.725   1.028   2.210  0.6524  0.9571  0.7691
 1528SOL    HW2 4709   0.592   1.091   2.248  1.5616  2.7975  0.9759
 1529SOL     OW 4710   1.462   0.984   0.622 -0.1227 -0.2073  0.4618
 1529SOL    HW1 4711   1.544   0.936   0.630 -0.3854 -0.5256  1.3236
 1529SOL    HW2 4712   1.457   1.007   0.529  2.1533  1.9771  0.7403
 1530SOL     OW 4713   1.905   2.988   0.846  0.1059  0.7514  1.2358
 1530SOL    HW1 4714   1.869   3.048   0.911 -2.1311  0.5650  0.2840
 1530SOL    HW2 4715   1.829   2.963   0.793  1.4091 -1.0043  0.0877
 1531SOL     OW 4716   0.794   1.391   2.677 -0.2194 -0.3217 -0.1338
 1531SOL    HW1 4717   0.711   1.369   2.721 -1.1535  1.3965 -0.9272
 1531SOL    HW2 4718   0.833   1.458   2.734 -0.8704  1.0559 -1.2379
 1532SOL     OW 4719   0.263   2.379   0.676  0.5354  0.5014  0.1261
 1532SOL    HW1 4720   0.189   2.430   0.643  1.0273  0.4363 -1.1231
 1532SOL    HW2 4721   0.260   2.392   0.771 -0.3588  1.4684 -0.0101
 1533SOL     OW 4722   3.012   1.352   2.534  0.3665 -0.2889  0.1153
 1533SOL    HW1 4723   3.010   1.282   2.600  0.7157 -1.2234 -0.8352
 1533SOL    HW2 4724   3.062   1.315   2.462  2.9191  1.8993  0.6032
 1534SOL     OW 4725   1.496   2.197   0.486  0.5185 -0.0595  0.1710
 1534SOL    HW1 4726   1.574   2.182   0.540  1.8156  0.7672 -1.3865
 1534SOL    HW2 4727   1.495   2.125   0.424 -0.6745 -0.7209  0.9199
 1535SOL     OW 4728   1.397   0.991   0.359 -0.1621  0.1524  0.2920
 1535SOL    HW1 4729   1.313   0.966   0.396 -1.2653  0.1602 -1.9854
 1535SOL    HW2 4730   1.389   0.971   0.266  1.4990  2.2975 -0.4151
 1536SOL     OW 4731   1.467   2.215   1.962  0.8078  1.0496  0.0116
 1536SOL    HW1 4732   1.478   2.310   1.953  1.5739  1.0794  1.0445
 1536SOL    HW2 4733   1.507   2.194   2.047  2.3257 -0.4529 -0.9956
 1537SOL     OW 4734   0.642   0.036   3.007 -0.0814 -0.7762 -0.2038
 1537SOL    HW1 4735   0.650  -0.022   2.932  0.2640 -3.4223  1.7385
 1537SOL    HW2 4736   0.549   0.032   3.030  0.1713 -1.7173  0.7391
 1538SOL     OW 4737   0.497   3.542   3.450 -0.6056 -0.2141  0.0431
 1538SOL    HW1 4738   0.462   3.536   3.361 -0.7154 -2.3023  0.1892
 1538SOL    HW2 4739   0.589   3.518   3.440 -0.9148 -1.7399  0.6425
 1539SOL     OW 4740   1.729   1.218   0.828  0.0776  0.3767 -0.1752
 1539SOL    HW1 4741   1.723   1.160   0.751  1.9783 -0.4677  0.2610
 1539SOL    HW2 4742   1.646   1.205   0.874 -0.7467  0.2575 -1.6308
 1540SOL     OW 4743   0.398   1.830   0.619  0.0244  0.5341  0.2033
 1540SOL    HW1 4744   0.363   1.842   0.531 -1.0078 -0.3690  0.4730
 1540SOL    HW2 4745   0.330   1.865   0.677 -0.4174 -1.0957  0.7228
 1541SOL     OW 4746   2.082   1.182   0.748 -0.3869  1.0141 -0.7449
 1541SOL    HW1 4747   2.040   1.116   0.804  0.9559  0.7578 -0.0060
 1541SOL    HW2 4748   2.014   1.247   0.733 -0.9592  0.7943  0.7169
 1542SOL     OW 4749   2.465   3.496   0.862  0.0149 -0.4330 -0.1032
 1542SOL    HW1 4750   2.516   3.422   0.895 -0.0091 -0.8126 -0.9007
 1542SOL    HW2 4751   2.441   3.471   0.773 -1.4798 -0.2333  0.2142
 1543SOL     OW 4752   0.854   1.217   0.214  0.2519  0.3861  0.3340
 1543SOL    HW1 4753   0.833   1.144   0.271  2.4108  0.0590  0.8079
 1543SOL    HW2 4754   0.950   1.216   0.208  0.2657  2.3964 -0.6723
 1544SOL     OW 4755   0.845   2.500   0.648 -0.1318 -0.1338 -0.2019
 1544SOL    HW1 4756   0.754   2.510   0.620 -1.0055  2.3239  2.8441
 1544SOL    HW2 4757   0.839   2.490   0.743  2.7820 -0.9151 -0.0142
 1545SOL     OW 4758   2.568   2.110   1.718 -0.6344  0.9079 -0.7415
 1545SOL    HW1 4759   2.624   2.187   1.727  0.1641  0.0919  3.7722
 1545SOL    HW2 4760   2.629   2.036   1.717 -1.3715  0.1107  2.3484
 1546SOL     OW 4761   3.538   1.814   2.965  0.0486  0.5569 -0.1516
 1546SOL    HW1 4762   3.594   1.762   2.907 -1.1348 -0.7299 -0.1782
 1546SOL    HW2 4763   3.450   1.805   2.928 -0.4991  0.8851  1.0218
 1547SOL     OW 4764   1.022   3.425   3.526 -0.3640 -0.2597 -0.2344
 1547SOL    HW1 4765   1.098   3.419   3.468  0.7184  0.6863  1.0227
 1547SOL    HW2 4766   1.002   3.519   3.530 -0.5464 -0.3300  0.7547
 1548SOL     OW 4767   0.080   2.986   1.034 -0.4386 -0.5739  1.3683
 1548SOL    HW1 4768   0.063   3.066   1.083 -0.5255  0.0558  0.3261
 1548SOL    HW2 4769   0.021   2.991   0.959 -0.7499 -1.8174  1.5049
 1549SOL     OW 4770   1.098   2.787   3.635  0.4514  0.5100  0.6827
 1549SOL    HW1 4771   1.066   2.813   3.722 -0.3284  0.5956  0.3826
 1549SOL    HW2 4772   1.185   2.825   3.628  1.0462 -0.5461  1.9295
 1550SOL     OW 4773   2.118   1.917   1.891  0.2618 -0.1551 -0.0603
 1550SOL    HW1 4774   2.168   1.991   1.924 -0.2862  0.2490 -0.1232
 1550SOL    HW2 4775   2.038   1.915   1.944 -0.1326 -0.1550 -0.6380
 1551SOL     OW 4776   1.564   3.675   1.721  0.1776 -0.7314 -0.0135
 1551SOL    HW1 4777   1.659   3.688   1.717  0.2209 -0.2211  1.8727
 1551SOL    HW2 4778   1.546   3.663   1.814 -1.9055  1.5467 -0.0372
 1552SOL     OW 4779   0.793   2.879   1.828 -0.2009 -0.7722 -0.3567
 1552SOL    HW1 4780   0.718   2.887   1.770 -1.7173 -1.8471  1.3331
 1552SOL    HW2 4781   0.842   2.805   1.794 -0.7053 -0.9813 -0.6410
 1553SOL     OW 4782   1.214   3.141   2.286  0.5514 -0.3893 -0.0798
 1553SOL    HW1 4783   1.232   3.093   2.205  1.7256 -3.3561  1.7871
 1553SOL    HW2 4784   1.259   3.091   2.354 -0.9545  1.5888  2.5445
 1554SOL     OW 4785   2.882   0.028   1.916 -0.3727 -0.4827 -0.0478
 1554SOL    HW1 4786   2.847  -0.009   1.836  0.7052 -3.2428  0.6548
 1554SOL    HW2 4787   2.977   0.028   1.904 -0.1052 -2.0113  1.5514
 1555SOL     OW 4788   1.567   1.560   2.438 -0.6982  0.2547  0.2373
 1555SOL    HW1 4789   1.602   1.489   2.492 -2.5793  0.2224  1.5038
 1555SOL    HW2 4790   1.512   1.517   2.373  0.8897  0.3624 -1.2607
 1556SOL     OW 4791   0.532   2.190   1.015 -0.2947 -0.4619  0.1502
 1556SOL    HW1 4792   0.552   2.200   1.108 -2.2839 -1.2967  0.7180
 1556SOL    HW2 4793   0.447   2.233   1.004  0.2382  0.2596 -1.4487
 1557SOL     OW 4794   0.989   0.286   0.475  0.1711 -0.0249 -0.1619
 1557SOL    HW1 4795   0.994   0.352   0.405 -1.2743 -0.1143 -0.3870
 1557SOL    HW2 4796   0.969   0.337   0.553  0.5581 -0.0428 -0.0543
 1558SOL     OW 4797   3.459   2.625   1.025  0.1769 -0.1286 -0.1164
 1558SOL    HW1 4798   3.490   2.572   1.098 -0.1090 -0.3375 -0.1490
 1558SOL    HW2 4799   3.435   2.562   0.957  3.0340  0.0636 -1.4889
 1559SOL     OW 4800   3.107   0.729   1.416 -0.0679  0.1777 -0.4608
 1559SOL    HW1 4801   3.048   0.656   1.433  0.6436 -0.3053  0.0249
 1559SOL    HW2 4802   3.183   0.689   1.374 -0.9461  1.0739 -3.1377
 1560SOL     OW 4803   0.823   0.368   3.177  0.1448  0.2103  0.3196
 1560SOL    HW1 4804   0.751   0.417   3.137  0.0513 -1.6965 -2.0315
 1560SOL    HW2 4805   0.788   0.281   3.193  2.6950 -2.1013 -4.5292
 1561SOL     OW 4806   0.332   3.370   3.016 -0.3939  0.0505 -0.0598
 1561SOL    HW1 4807   0.349   3.427   2.941 -0.8178 -2.1355 -1.9472
 1561SOL    HW2 4808   0.411   3.377   3.070  0.1634  1.2665 -0.9793
 1562SOL     OW 4809   1.614   1.770   1.740 -0.1391 -0.5819 -0.2262
 1562SOL    HW1 4810   1.596   1.834   1.810 -2.1242 -1.7045  0.3669
 1562SOL    HW2 4811   1.564   1.802   1.665 -1.1393 -1.3949  0.0722
 1563SOL     OW 4812   2.720   1.769   0.541  0.0204  0.5452 -0.1754
 1563SOL    HW1 4813   2.810   1.802   0.537  0.2447  0.0785  0.7923
 1563SOL    HW2 4814   2.726   1.679   0.509 -0.0393  0.4042  0.2021
 1564SOL     OW 4815   3.043   0.836   3.512 -0.0302  0.5577  0.6361
 1564SOL    HW1 4816   3.014   0.796   3.594  1.0749  0.0698  0.8125
 1564SOL    HW2 4817   2.968   0.827   3.453  0.1771 -1.9087  0.6444
 1565SOL     OW 4818   1.235   3.161   1.707 -0.5648  0.3077 -0.3769
 1565SOL    HW1 4819   1.154   3.184   1.662  0.7965  1.1326 -2.5340
 1565SOL    HW2 4820   1.288   3.240   1.704  1.0851 -0.7650 -0.7380
 1566SOL     OW 4821   3.507   2.248   3.142 -0.4474 -0.0203 -0.1221
 1566SOL    HW1 4822   3.518   2.235   3.236 -0.4198  0.3569 -0.0754
 1566SOL    HW2 4823   3.553   2.329   3.123 -1.9396  0.8445 -0.1651
 1567SOL     OW 4824   2.381   3.266   1.055 -0.3389  0.3253 -0.2245
 1567SOL    HW1 4825   2.303   3.211   1.044 -1.6227  1.4172  2.4465
 1567SOL    HW2 4826   2.355   3.352   1.023 -0.2872  0.7171  0.7516
 1568SOL     OW 4827   1.825   1.678   1.060 -0.2146 -0.0447 -0.2865
 1568SOL    HW1 4828   1.775   1.597   1.054 -0.2809  0.0889 -2.0209
 1568SOL    HW2 4829   1.907   1.652   1.103 -1.0731 -0.5782  1.1018
 1569SOL     OW 4830   1.073   2.889   0.975 -0.4366 -0.4533  0.2382
 1569SOL    HW1 4831   1.091   2.969   0.927  0.2211 -0.8198 -0.1356
 1569SOL    HW2 4832   1.108   2.819   0.920  0.0138 -0.9032  1.0778
 1570SOL     OW 4833   3.129   3.179   3.383 -0.2345  0.4968 -0.6327
 1570SOL    HW1 4834   3.102   3.235   3.311 -0.6950  0.9739 -0.1049
 1570SOL    HW2 4835   3.048   3.164   3.432 -0.4901 -2.0612 -1.7058
 1571SOL     OW 4836  -0.008   3.500   0.480  0.3870 -0.0966  0.2757
 1571SOL    HW1 4837   0.080   3.511   0.515  0.2097 -1.2070  1.1282
 1571SOL    HW2 4838  -0.005   3.417   0.432  0.3342  0.8754 -1.4664
 1572SOL     OW 4839   3.044   2.753   0.692  0.0314 -0.5482 -0.3325
 1572SOL    HW1 4840   2.964   2.714   0.657  0.2074  0.6244 -2.1590
 1572SOL    HW2 4841   3.110   2.684   0.685 -0.4287 -0.9947 -0.3224
 1573SOL     OW 4842   3.413   0.684   3.654 -0.7214 -0.8286 -0.1812
 1573SOL    HW1 4843   3.382   0.732   3.578  1.2016 -0.5325 -0.8327
 1573SOL    HW2 4844   3.398   0.592   3.632 -0.3386 -0.7371 -0.8571
 1574SOL     OW 4845   2.356   0.881   0.382  0.6658 -0.5880 -0.4264
 1574SOL    HW1 4846   2.276   0.911   0.424  1.2431 -0.6853  0.7819
 1574SOL    HW2 4847   2.330   0.803   0.332 -0.1548 -0.0901 -0.7858
 1575SOL     OW 4848   0.814   1.716   1.065  0.3448  0.3699 -0.2592
 1575SOL    HW1 4849   0.854   1.662   1.133 -0.2271 -0.7872 -0.8097
 1575SOL    HW2 4850   0.873   1.791   1.057  0.4340  0.5337  1.4859
 1576SOL     OW 4851   1.810   1.894   0.323  0.2338 -0.3607  0.2828
 1576SOL    HW1 4852   1.887   1.845   0.296  2.1306  1.5111  1.9303
 1576SOL    HW2 4853   1.826   1.915   0.415 -1.1246  2.0340  0.0500
 1577SOL     OW 4854   1.515   3.214   0.514 -0.2617  0.1817  0.2988
 1577SOL    HW1 4855   1.510   3.284   0.579 -1.4530  1.3449 -0.9804
 1577SOL    HW2 4856   1.603   3.180   0.523  0.9199  2.8648 -0.0041
 1578SOL     OW 4857   2.474   1.362   1.239 -0.3019  0.1674  0.5913
 1578SOL    HW1 4858   2.395   1.397   1.281  0.4346  1.3535  1.0159
 1578SOL    HW2 4859   2.526   1.439   1.216 -0.3438 -0.4575 -1.9017
 1579SOL     OW 4860   3.328   0.850   3.091  0.2879 -0.3451 -0.3235
 1579SOL    HW1 4861   3.235   0.870   3.090  0.1997 -0.7190  0.2741
 1579SOL    HW2 4862   3.370   0.934   3.109  0.0958 -0.1047 -0.9473
 1580SOL     OW 4863   3.422   0.700   2.339  0.3030 -0.5403 -0.6777
 1580SOL    HW1 4864   3.508   0.685   2.378  0.0972 -1.2245 -0.4689
 1580SOL    HW2 4865   3.371   0.741   2.410  1.2494  2.6101 -1.6378
 1581SOL     OW 4866   2.136   2.108   0.396  0.4134  0.4474 -0.4952
 1581SOL    HW1 4867   2.145   2.186   0.451  1.8911  0.5130 -0.7747
 1581SOL    HW2 4868   2.212   2.111   0.338  0.6323 -1.3157 -0.3536
 1582SOL     OW 4869   2.151   0.196   2.379  0.2549  0.4173  0.0948
 1582SOL    HW1 4870   2.213   0.194   2.452 -0.9179  3.3471  1.3565
 1582SOL    HW2 4871   2.200   0.236   2.307  0.8609 -0.6818 -0.1159
 1583SOL     OW 4872   1.724   1.119   0.555  0.3919 -0.3214 -0.0414
 1583SOL    HW1 4873   1.803   1.126   0.501 -0.2180 -0.0594 -0.9198
 1583SOL    HW2 4874   1.676   1.046   0.518 -1.1082  1.2303 -1.3311
 1584SOL     OW 4875   3.640   2.756   3.478 -0.1219  0.0706  0.3394
 1584SOL    HW1 4876   3.697   2.684   3.505  0.6822  0.8955  0.9215
 1584SOL    HW2 4877   3.562   2.747   3.533  0.2391 -0.0010  0.8431
 1585SOL     OW 4878   0.591   2.354   0.198  0.4546 -0.8609  0.0447
 1585SOL    HW1 4879   0.530   2.281   0.201  0.9901 -1.2698  1.4603
 1585SOL    HW2 4880   0.628   2.350   0.109  1.1183 -2.8586  0.3632
 1586SOL     OW 4881   1.019   1.899   1.817 -0.5813  1.0347  0.4439
 1586SOL    HW1 4882   0.934   1.916   1.856 -1.2891  0.4330 -0.7557
 1586SOL    HW2 4883   1.032   1.971   1.755 -1.1162  0.1760 -0.7292
 1587SOL     OW 4884   2.521   2.241   0.070 -0.2651 -0.1142 -0.1288
 1587SOL    HW1 4885   2.499   2.239  -0.023  1.6778  0.9285 -0.6830
 1587SOL    HW2 4886   2.563   2.326   0.083  0.5174 -0.6969  1.4476
 1588SOL     OW 4887   0.970   2.513   2.716 -0.3057 -0.7413 -0.1521
 1588SOL    HW1 4888   1.022   2.555   2.784 -1.4090 -0.4353  0.5283
 1588SOL    HW2 4889   0.898   2.573   2.699 -1.9758 -2.3266  0.9079
 1589SOL     OW 4890   0.663   1.844   0.706  0.1297  0.1524 -0.0091
 1589SOL    HW1 4891   0.731   1.851   0.639  0.7547 -2.4222  0.2535
 1589SOL    HW2 4892   0.581   1.835   0.657  0.4721 -0.7338 -0.4420
 1590SOL     OW 4893   1.946   1.930   2.580 -0.6470  0.3693 -0.7297
 1590SOL    HW1 4894   2.040   1.949   2.572 -0.6350  0.5737 -0.1937
 1590SOL    HW2 4895   1.903   2.015   2.572 -0.7819  0.2809 -0.9365
 1591SOL     OW 4896   3.307   1.414   2.024  0.1633 -0.1923  0.1072
 1591SOL    HW1 4897   3.353   1.416   2.108 -0.2811 -0.0064  0.3496
 1591SOL    HW2 4898   3.327   1.498   1.984 -0.6289  0.2342  0.5794
 1592SOL     OW 4899   2.989   2.589   1.440  0.2250  0.0813  0.4538
 1592SOL    HW1 4900   3.068   2.639   1.416 -0.1396  1.6966  2.3894
 1592SOL    HW2 4901   3.023   2.509   1.480  0.8701  0.2863  0.3354
 1593SOL     OW 4902   1.082   3.652   1.902  1.1268  0.7667 -0.5885
 1593SOL    HW1 4903   1.024   3.591   1.947  0.1529  0.9830 -1.5055
 1593SOL    HW2 4904   1.170   3.617   1.916  0.8438  0.7248  1.2741
 1594SOL     OW 4905   3.180   2.040   1.120 -0.3684  0.2896 -0.1242
 1594SOL    HW1 4906   3.114   1.971   1.114  1.6737 -1.6421 -2.1353
 1594SOL    HW2 4907   3.212   2.035   1.210 -1.1013 -0.5326  0.1097
 1595SOL     OW 4908   2.112   0.581   3.645 -0.4316  0.1749 -0.5311
 1595SOL    HW1 4909   2.162   0.635   3.707 -0.7351 -0.5522  0.3742
 1595SOL    HW2 4910   2.153   0.495   3.650  0.9322  0.6031 -2.9944
 1596SOL     OW 4911   0.937  -0.008   3.090 -0.1808  0.3842  0.0049
 1596SOL    HW1 4912   0.921   0.059   3.157  0.0247  0.8686 -0.4234
 1596SOL    HW2 4913   0.852  -0.022   3.049  0.2147  2.2544 -1.6180
 1597SOL     OW 4914   3.423   2.664   0.527  0.1977  0.5775  0.1053
 1597SOL    HW1 4915   3.426   2.723   0.603  0.3249  0.9030 -0.1475
 1597SOL    HW2 4916   3.408   2.723   0.453 -0.6886  0.1874 -0.0389
 1598SOL     OW 4917   0.928   2.353   0.398 -0.3961  0.2299 -0.1188
 1598SOL    HW1 4918   0.856   2.290   0.402 -0.3721  0.2417  0.6198
 1598SOL    HW2 4919   0.927   2.396   0.484  1.1754 -0.5222  0.3103
 1599SOL     OW 4920   0.296   0.556   1.904  0.5675 -0.2525 -0.6491
 1599SOL    HW1 4921   0.361   0.558   1.834  1.1962  3.7720 -0.1568
 1599SOL    HW2 4922   0.335   0.604   1.976 -2.2844  0.9151  0.2812
 1600SOL     OW 4923   1.366   3.389   2.132  0.0247  0.1362 -0.0286
 1600SOL    HW1 4924   1.413   3.311   2.161 -2.2929  0.0747  4.4824
 1600SOL    HW2 4925   1.417   3.462   2.170 -0.7138  0.4070  0.4551
 1601SOL     OW 4926   0.660   0.377   0.832 -0.2573 -0.2580 -0.0358
 1601SOL    HW1 4927   0.680   0.400   0.741 -0.8989 -0.5609 -0.2579
 1601SOL    HW2 4928   0.627   0.459   0.870  0.9528  0.1355  0.2166
 1602SOL     OW 4929   2.151   2.583   1.688  0.1684  0.2850 -0.1827
 1602SOL    HW1 4930   2.130   2.572   1.595 -0.3115  0.2468 -0.0728
 1602SOL    HW2 4931   2.113   2.506   1.730 -0.2584  0.6688  0.1428
 1603SOL     OW 4932   0.382   0.995   1.067 -0.7537  0.6915  0.7928
 1603SOL    HW1 4933   0.420   0.950   1.142  1.2234  1.1106  0.0925
 1603SOL    HW2 4934   0.288   0.999   1.087 -0.4884 -0.4895  2.5380
 1604SOL     OW 4935   2.619   1.610   3.039 -0.2345 -0.1209 -0.2474
 1604SOL    HW1 4936   2.712   1.588   3.047 -0.2292  0.3358  1.3263
 1604SOL    HW2 4937   2.583   1.590   3.126 -1.1850  1.5933 -0.2149
 1605SOL     OW 4938   2.873   0.673   2.680  0.4915 -0.2819 -0.2115
 1605SOL    HW1 4939   2.807   0.676   2.750  0.4555 -3.1058 -0.0327
 1605SOL    HW2 4940   2.953   0.645   2.724  0.8442 -0.6262 -1.0640
 1606SOL     OW 4941   2.529   3.223   0.754  0.1267 -0.4940 -0.5611
 1606SOL    HW1 4942   2.474   3.227   0.676  0.7357 -1.0339 -1.0315
 1606SOL    HW2 4943   2.543   3.129   0.768  1.1508 -0.3627 -0.6226
 1607SOL     OW 4944   1.326   1.603   1.351  0.1683 -0.4048 -0.1393
 1607SOL    HW1 4945   1.328   1.663   1.276  1.5796 -0.7215 -0.3934
 1607SOL    HW2 4946   1.402   1.546   1.338 -0.0088 -0.9685  1.1340
 1608SOL     OW 4947   1.392   1.833   0.468  0.1725  0.0325  0.4831
 1608SOL    HW1 4948   1.316   1.887   0.448 -1.0078 -0.7454  2.6484
 1608SOL    HW2 4949   1.466   1.883   0.433 -1.2278  1.1531 -1.0206
 1609SOL     OW 4950   3.605   1.852   1.659  0.5891  0.3913 -1.1323
 1609SOL    HW1 4951   3.695   1.852   1.690  0.4191  3.2500 -0.3502
 1609SOL    HW2 4952   3.565   1.929   1.700 -1.9103 -0.1741 -2.2859
 1610SOL     OW 4953   0.538   1.725   0.266 -0.4282  0.1183 -0.4937
 1610SOL    HW1 4954   0.631   1.745   0.253 -0.8679  1.6776 -1.5455
 1610SOL    HW2 4955   0.535   1.680   0.351  1.0689  2.0527  0.6944
 1611SOL     OW 4956   1.155   2.780   2.200 -0.1825 -0.1264 -0.0981
 1611SOL    HW1 4957   1.130   2.850   2.139  1.9772  1.0085  0.2367
 1611SOL    HW2 4958   1.235   2.744   2.163 -0.6015 -1.6428  0.4070
 1612SOL     OW 4959   3.481   1.831   1.318 -0.2236  0.3192 -0.0223
 1612SOL    HW1 4960   3.556   1.886   1.342 -0.3788  0.9522 -0.9515
 1612SOL    HW2 4961   3.481   1.830   1.222 -0.0216 -1.5927 -0.0568
 1613SOL     OW 4962   0.205   3.240   2.782  0.1687  0.3420  0.4318
 1613SOL    HW1 4963   0.253   3.159   2.796  1.8442  0.8488 -1.8118
 1613SOL    HW2 4964   0.203   3.282   2.869  0.9836 -1.1779  1.2182
 1614SOL     OW 4965   2.028   0.458   2.753  0.5861 -0.0700 -0.0757
 1614SOL    HW1 4966   2.089   0.508   2.698  1.9174 -1.0107  0.4823
 1614SOL    HW2 4967   2.019   0.374   2.709  0.0673 -0.1132  0.1053
 1615SOL     OW 4968   3.040   0.492   0.632  0.8110  0.3972  0.1741
 1615SOL    HW1 4969   3.117   0.479   0.577  1.9492  1.4314  1.4652
 1615SOL    HW2 4970   2.994   0.408   0.628  0.8631  0.4061 -2.2627
 1616SOL     OW 4971   3.092   3.031   1.963  0.0482 -0.1394  0.1632
 1616SOL    HW1 4972   3.131   3.118   1.975  1.1300 -0.6874  0.8152
 1616SOL    HW2 4973   3.022   3.027   2.028 -0.1334  0.3059  0.0020
 1617SOL     OW 4974   2.699   2.129   2.082  0.0945 -0.5832  0.1019
 1617SOL    HW1 4975   2.785   2.105   2.116  0.6961 -0.5862 -1.3699
 1617SOL    HW2 4976   2.675   2.056   2.025  0.1715  0.4691 -1.3073
 1618SOL     OW 4977   2.079   0.038   1.996 -0.6535  0.6024  0.2705
 1618SOL    HW1 4978   2.153   0.058   2.054  0.2651 -3.3130  0.6821
 1618SOL    HW2 4979   2.120   0.021   1.911 -1.7179  3.3253 -0.9185
 1619SOL     OW 4980   3.071   3.604   2.552  0.5056 -0.1197 -0.5160
 1619SOL    HW1 4981   3.110   3.618   2.466 -0.3575  0.3620 -0.8460
 1619SOL    HW2 4982   2.978   3.587   2.534  0.3920 -0.4079  0.2896
 1620SOL     OW 4983   3.138   1.387   2.892 -0.4730  0.1631 -0.2008
 1620SOL    HW1 4984   3.145   1.390   2.987 -1.9982 -0.4598 -0.0427
 1620SOL    HW2 4985   3.198   1.456   2.861 -1.0727  1.3789  1.2600
 1621SOL     OW 4986   3.652   0.750   2.467 -0.2471  0.2768 -0.9912
 1621SOL    HW1 4987   3.685   0.755   2.557 -0.9271 -0.6481 -0.6685
 1621SOL    HW2 4988   3.603   0.832   2.456 -1.3464 -0.2083 -0.0010
 1622SOL     OW 4989   1.799   1.837   0.851 -0.2317 -0.3590  0.3252
 1622SOL    HW1 4990   1.808   1.758   0.905  0.3766 -1.3359 -1.1432
 1622SOL    HW2 4991   1.847   1.904   0.898 -0.0901 -1.0688  1.2173
 1623SOL     OW 4992   1.040   1.870   2.172  0.3831 -0.1710 -0.6801
 1623SOL    HW1 4993   1.021   1.955   2.131  0.0329 -0.7006 -1.6262
 1623SOL    HW2 4994   1.077   1.817   2.102  0.4527 -0.8578 -0.1304
 1624SOL     OW 4995   2.807   2.644   0.672  0.0204  0.7132 -0.1494
 1624SOL    HW1 4996   2.778   2.654   0.582  0.2221  1.2701 -0.1544
 1624SOL    HW2 4997   2.731   2.608   0.718 -0.2865  1.0347 -0.4062
 1625SOL     OW 4998   2.832   2.866   0.903  0.0940 -0.3267  0.9328
 1625SOL    HW1 4999   2.897   2.819   0.850 -0.6182  0.0684 -0.3240
 1625SOL    HW2 5000   2.884   2.920   0.963  0.9141 -1.2360  1.0718
 1626SOL     OW 5001   0.589   1.264   1.569 -0.3971 -0.4236 -0.1556
 1626SOL    HW1 5002   0.559   1.277   1.660  1.1334 -1.9438  0.6094
 1626SOL    HW2 5003   0.655   1.195   1.575  0.8673  0.5239 -2.2310
 1627SOL     OW 5004   0.573   0.347   1.219 -0.0482 -0.6105 -0.0520
 1627SOL    HW1 5005   0.527   0.426   1.249  0.5858 -0.2312 -0.0540
 1627SOL    HW2 5006   0.520   0.315   1.146 -1.3706 -1.2940  1.1610
 1628SOL     OW 5007   1.417   0.775   3.669 -0.4315 -0.0138  0.3431
 1628SOL    HW1 5008   1.499   0.790   3.714 -0.7000 -0.0533  0.8503
 1628SOL    HW2 5009   1.369   0.714   3.725 -1.4465  1.1899  0.8569
 1629SOL     OW 5010   0.943   0.978   2.219  0.0973  0.5277  0.5063
 1629SOL    HW1 5011   1.015   1.019   2.268  0.3965  0.1624  0.3832
 1629SOL    HW2 5012   0.986   0.941   2.141  0.0550 -1.0287  1.1768
 1630SOL     OW 5013   2.132   1.891   0.606  0.5766  0.1535 -0.1822
 1630SOL    HW1 5014   2.154   1.940   0.526  4.3237  2.8941  2.1552
 1630SOL    HW2 5015   2.193   1.818   0.607  1.0588  0.5488  0.4395
 1631SOL     OW 5016   2.309   2.501   2.759 -0.2896 -0.2836 -0.1940
 1631SOL    HW1 5017   2.217   2.513   2.735  0.2879  1.8783 -1.6195
 1631SOL    HW2 5018   2.329   2.576   2.816  0.5129 -0.9200  0.3934
 1632SOL     OW 5019   0.689   3.238   2.038  0.8690  0.2906  0.3143
 1632SOL    HW1 5020   0.715   3.328   2.018 -1.0000  1.0236  0.9914
 1632SOL    HW2 5021   0.600   3.230   2.005  0.1902 -0.5953  2.2020
 1633SOL     OW 5022   3.446   2.965   2.205 -0.4969 -1.6151  0.6266
 1633SOL    HW1 5023   3.395   2.967   2.125 -1.7164  1.0799  1.3591
 1633SOL    HW2 5024   3.382   2.950   2.274  0.1075 -1.1149  1.3147
 1634SOL     OW 5025   0.620   3.665   2.622  0.3533 -0.2415  0.1626
 1634SOL    HW1 5026   0.664   3.690   2.540 -1.8458  0.4296 -0.8870
 1634SOL    HW2 5027   0.582   3.747   2.654  0.7793 -0.5932  1.6353
 1635SOL     OW 5028   0.753   1.023   2.878 -0.4599  0.7985 -0.1332
 1635SOL    HW1 5029   0.682   0.959   2.892  1.3429 -1.7968 -1.8825
 1635SOL    HW2 5030   0.828   0.986   2.925  1.1346  0.5807 -2.6923
 1636SOL     OW 5031   2.302   1.599   3.338 -0.6500  0.2058 -0.4678
 1636SOL    HW1 5032   2.240   1.541   3.292 -0.5829 -1.0154  0.8942
 1636SOL    HW2 5033   2.388   1.565   3.313 -0.6061 -0.1643  0.1742
 1637SOL     OW 5034   2.170   1.536   0.217 -0.4373 -0.0541 -0.0424
 1637SOL    HW1 5035   2.252   1.579   0.197 -1.0289  1.1376  0.0172
 1637SOL    HW2 5036   2.189   1.482   0.294 -0.0397  1.3313  0.8711
 1638SOL     OW 5037   0.696   1.571   3.164 -1.0052  0.1749 -0.4287
 1638SOL    HW1 5038   0.690   1.632   3.090  1.1006  3.1219  1.6109
 1638SOL    HW2 5039   0.751   1.500   3.133 -1.0457  0.7951 -1.9882
 1639SOL     OW 5040   2.097   3.207   2.130 -0.3240  0.3728 -0.2312
 1639SOL    HW1 5041   2.009   3.231   2.157 -0.3513  0.2319 -0.1912
 1639SOL    HW2 5042   2.090   3.114   2.107  0.0735  0.0436  0.9249
 1640SOL     OW 5043   0.958   3.628   1.481  0.4894  0.4316 -1.1879
 1640SOL    HW1 5044   0.882   3.633   1.422 -0.9076 -4.8536 -0.3417
 1640SOL    HW2 5045   0.923   3.651   1.567  0.5549  0.6592 -1.2219
 1641SOL     OW 5046   0.223   0.653   1.614 -0.3823  0.1899  0.0096
 1641SOL    HW1 5047   0.200   0.587   1.680 -0.7453  0.1862 -0.1187
 1641SOL    HW2 5048   0.242   0.732   1.665 -1.6740  0.4823  0.0709
 1642SOL     OW 5049   0.442   2.139   0.172  0.9967  0.1282 -0.1786
 1642SOL    HW1 5050   0.393   2.140   0.254  1.0916 -1.1267 -0.0999
 1642SOL    HW2 5051   0.399   2.074   0.118 -1.9539  3.9617 -3.0029
 1643SOL     OW 5052   3.114   1.621   1.228  0.7399  0.2946  0.2111
 1643SOL    HW1 5053   3.052   1.597   1.297  0.5798  0.1397  0.0175
 1643SOL    HW2 5054   3.141   1.537   1.191  0.5065  0.3919 -0.1892
 1644SOL     OW 5055   2.112   1.739   3.094  0.2872  0.0158  0.2266
 1644SOL    HW1 5056   2.155   1.803   3.151  1.2546  0.5905 -1.0885
 1644SOL    HW2 5057   2.075   1.792   3.023  0.7991 -0.8402 -0.7006
 1645SOL     OW 5058   1.707   0.542   0.403 -0.1187 -0.0981  0.0638
 1645SOL    HW1 5059   1.684   0.492   0.325 -0.1486  1.0922 -0.7101
 1645SOL    HW2 5060   1.788   0.501   0.434 -0.1324 -0.6143 -0.5678
 1646SOL     OW 5061   0.599   1.223   2.956  0.3335  0.3099 -0.3762
 1646SOL    HW1 5062   0.661   1.149   2.954 -1.3002 -1.1220 -1.6797
 1646SOL    HW2 5063   0.568   1.229   2.866  0.6493  2.8601 -0.3688
 1647SOL     OW 5064   1.131   0.270   0.946  0.3180 -0.0523  0.9383
 1647SOL    HW1 5065   1.193   0.308   1.009 -2.2748  0.5915  3.3015
 1647SOL    HW2 5066   1.125   0.335   0.877  1.6762  0.2041  1.0258
 1648SOL     OW 5067   0.083   2.441   2.145 -0.1324  0.0379 -0.8192
 1648SOL    HW1 5068   0.164   2.401   2.176  0.1422 -0.0238 -1.5892
 1648SOL    HW2 5069   0.045   2.483   2.222 -0.0293 -1.0415 -0.1614
 1649SOL     OW 5070   0.697   1.683   1.326 -0.7548 -0.7180  0.0393
 1649SOL    HW1 5071   0.726   1.656   1.239  1.0630  1.4173 -0.1048
 1649SOL    HW2 5072   0.776   1.677   1.380 -1.7136 -1.4183  1.4271
 1650SOL     OW 5073   0.796   3.622   0.482  0.1615  0.6466  0.4908
 1650SOL    HW1 5074   0.833   3.662   0.561  0.8026 -0.8059  0.9656
 1650SOL    HW2 5075   0.719   3.675   0.463  1.0602  2.2186  0.9487
 1651SOL     OW 5076   2.618   1.017   2.011 -0.1230 -0.5766 -0.5191
 1651SOL    HW1 5077   2.677   1.079   2.054 -0.2081 -0.2349 -0.8907
 1651SOL    HW2 5078   2.565   1.071   1.953 -0.0815 -1.0201 -0.9750
 1652SOL     OW 5079   3.593   1.662   0.773  0.8412  0.1657  0.9005
 1652SOL    HW1 5080   3.670   1.661   0.830  1.9937 -1.2497 -0.6026
 1652SOL    HW2 5081   3.560   1.572   0.775  0.7471  0.1553 -0.4318
 1653SOL     OW 5082   0.590   3.139   1.275 -1.2002 -0.1869  0.2197
 1653SOL    HW1 5083   0.591   3.048   1.244  0.0512  0.0284 -0.4264
 1653SOL    HW2 5084   0.508   3.146   1.324 -0.6573 -2.0887  1.5389
 1654SOL     OW 5085   1.902   3.713   0.410  0.2011  0.2879 -0.1046
 1654SOL    HW1 5086   1.984   3.697   0.364  1.0192  0.3215  1.3133
 1654SOL    HW2 5087   1.910   3.664   0.492 -1.5393 -0.3859 -0.2927
 1655SOL     OW 5088   2.920   0.343   1.735  0.0060  0.3051  0.3915
 1655SOL    HW1 5089   2.917   0.438   1.749 -0.7506  0.3550 -0.0952
 1655SOL    HW2 5090   2.834   0.312   1.763 -0.4363  0.0112 -1.2230
 1656SOL     OW 5091   3.210   0.412   0.990 -0.7172  0.0153  0.0899
 1656SOL    HW1 5092   3.151   0.343   1.020 -1.0258  0.5846  0.8370
 1656SOL    HW2 5093   3.160   0.493   1.004  0.5111  0.5841  1.4902
 1657SOL     OW 5094   0.466   1.424   2.093  0.4296 -0.8564 -0.0151
 1657SOL    HW1 5095   0.497   1.490   2.031  0.3500 -1.8831 -1.1952
 1657SOL    HW2 5096   0.454   1.345   2.040 -2.7657 -0.9480  0.6339
 1658SOL     OW 5097   3.050   1.494   1.930 -0.6823 -0.0021 -1.0093
 1658SOL    HW1 5098   3.106   1.416   1.935 -1.0062 -0.1815 -0.0692
 1658SOL    HW2 5099   3.057   1.534   2.016 -2.0063 -0.0260 -0.8746
 1659SOL     OW 5100   3.511   2.088   1.767 -0.0894  0.3214 -0.1551
 1659SOL    HW1 5101   3.441   2.035   1.805 -1.5216  2.1546 -0.0732
 1659SOL    HW2 5102   3.571   2.104   1.841 -0.2092 -0.2494  0.0750
 1660SOL     OW 5103   1.814   1.595   1.647 -0.4962  0.7725  0.1637
 1660SOL    HW1 5104   1.731   1.632   1.678 -1.0409  2.6969 -3.1295
 1660SOL    HW2 5105   1.801   1.582   1.553  1.8194 -2.2592  0.1028
 1661SOL     OW 5106   1.538   2.940   1.569  0.5125  0.0278 -0.4381
 1661SOL    HW1 5107   1.612   2.988   1.606  0.4562  0.7085 -1.1738
 1661SOL    HW2 5108   1.481   2.922   1.643  1.4836 -0.6485  0.1667
 1662SOL     OW 5109   2.435   2.248   1.052  0.2866 -0.3251 -0.2342
 1662SOL    HW1 5110   2.508   2.241   1.113  0.0173 -2.6735 -0.0850
 1662SOL    HW2 5111   2.357   2.232   1.106 -0.0908 -0.6708 -0.8670
 1663SOL     OW 5112   0.810   3.395   2.375  0.4222 -0.1944  0.5950
 1663SOL    HW1 5113   0.752   3.358   2.441  1.2809 -0.6363  1.1221
 1663SOL    HW2 5114   0.853   3.318   2.336  0.3143  0.0950 -0.1030
 1664SOL     OW 5115   0.853   0.505   2.013  0.1138  0.6898 -0.0390
 1664SOL    HW1 5116   0.940   0.527   2.045  0.7883  0.5326 -1.6773
 1664SOL    HW2 5117   0.852   0.409   2.010 -0.7276  0.6095  1.4938
 1665SOL     OW 5118   0.088   2.087   0.929  0.8408  0.4353 -0.6483
 1665SOL    HW1 5119  -0.007   2.079   0.943  0.6604  1.1799 -1.3881
 1665SOL    HW2 5120   0.127   2.048   1.007 -0.0742 -0.0686 -0.4292
 1666SOL     OW 5121   2.426   2.914   3.069  0.2633 -0.2299 -0.7365
 1666SOL    HW1 5122   2.484   2.978   3.029  1.0562 -1.3533 -1.4540
 1666SOL    HW2 5123   2.461   2.902   3.157  0.4050 -0.0439 -0.7672
 1667SOL     OW 5124   3.584   0.375   1.442 -0.1222  0.0738  0.2137
 1667SOL    HW1 5125   3.639   0.299   1.425 -1.1801 -0.8470  0.7658
 1667SOL    HW2 5126   3.540   0.392   1.359 -2.1542 -1.8409  0.7985
 1668SOL     OW 5127   1.692   0.346   0.201 -0.2999  0.5027 -1.3255
 1668SOL    HW1 5128   1.614   0.291   0.203  0.0527 -0.0007 -0.5947
 1668SOL    HW2 5129   1.742   0.318   0.278  0.2529  1.3216 -1.3777
 1669SOL     OW 5130   2.376   1.222   1.013  0.2313  0.2715  0.5331
 1669SOL    HW1 5131   2.350   1.309   0.983  1.9754  0.2874 -1.1245
 1669SOL    HW2 5132   2.404   1.235   1.104  1.8207  1.7649 -0.1161
 1670SOL     OW 5133   2.573   3.090   2.907  0.4390 -0.3506 -0.6133
 1670SOL    HW1 5134   2.540   3.063   2.821 -0.6182  0.2270 -0.4001
 1670SOL    HW2 5135   2.562   3.185   2.909  2.6565 -0.0444 -0.7308
 1671SOL     OW 5136   3.364   0.372   0.757 -0.0142 -0.2895 -0.2374
 1671SOL    HW1 5137   3.346   0.302   0.695 -0.9188 -0.9515  0.7321
 1671SOL    HW2 5138   3.291   0.369   0.819  1.8348 -1.0400  2.0841
 1672SOL     OW 5139   3.449   2.652   3.645 -0.5168  0.3666 -0.0094
 1672SOL    HW1 5140   3.392   2.612   3.580 -0.3993  1.0789 -0.5583
 1672SOL    HW2 5141   3.412   2.625   3.729  0.1068 -1.6688 -0.3409
 1673SOL     OW 5142   0.757   2.854   0.630 -0.4612  0.5572  0.1602
 1673SOL    HW1 5143   0.820   2.849   0.702 -1.2452 -0.7275  0.8003
 1673SOL    HW2 5144   0.676   2.821   0.668 -1.1893  0.9541 -1.0107
 1674SOL     OW 5145   2.647   2.382   3.055 -0.6540  0.0853 -0.4990
 1674SOL    HW1 5146   2.686   2.404   3.140  0.2733  0.6206 -1.0329
 1674SOL    HW2 5147   2.556   2.361   3.075  0.1620 -2.4208  0.9862
 1675SOL     OW 5148   2.696   1.583   2.776  0.3158  0.3685  0.5816
 1675SOL    HW1 5149   2.783   1.617   2.798  0.4719  0.6914 -0.4531
 1675SOL    HW2 5150   2.654   1.566   2.860  1.6841 -0.5819  1.0952
 1676SOL     OW 5151   1.695   1.652   0.627  0.4855  0.1288  0.1888
 1676SOL    HW1 5152   1.677   1.571   0.580 -0.9174  0.9145 -0.7195
 1676SOL    HW2 5153   1.646   1.645   0.709 -1.1180  0.7542 -0.6747
 1677SOL     OW 5154   1.726   3.106   1.678  0.0047 -0.1303  0.2836
 1677SOL    HW1 5155   1.724   3.200   1.663  1.3007 -0.5625 -3.8545
 1677SOL    HW2 5156   1.806   3.092   1.728  0.9970  0.8418 -0.9679
 1678SOL     OW 5157   1.305   0.411   2.726  0.1723 -0.3787  0.4847
 1678SOL    HW1 5158   1.212   0.387   2.728  0.1066 -0.1067  0.7923
 1678SOL    HW2 5159   1.351   0.329   2.743  0.0072 -0.6196 -0.2117
 1679SOL     OW 5160   0.097   2.281   1.662  0.7673 -0.0115  0.4599
 1679SOL    HW1 5161   0.089   2.197   1.708 -0.1810  0.4250  1.1176
 1679SOL    HW2 5162   0.087   2.347   1.731 -1.8315  0.6893 -0.4593
 1680SOL     OW 5163   1.526   1.214   0.142 -0.2723 -0.1900 -0.0387
 1680SOL    HW1 5164   1.437   1.197   0.172  0.6782  0.8485  3.9243
 1680SOL    HW2 5165   1.523   1.303   0.107 -0.7926 -0.2610 -0.1869
 1681SOL     OW 5166   1.644   1.080   2.294  0.4697 -0.4473  0.0059
 1681SOL    HW1 5167   1.688   1.121   2.220  0.3005 -1.3650 -0.6215
 1681SOL    HW2 5168   1.714   1.039   2.344  0.4684 -0.7990 -0.2779
 1682SOL     OW 5169   1.259   1.186   0.161 -0.4390 -0.0187 -0.9515
 1682SOL    HW1 5170   1.219   1.223   0.083  0.5288  1.2377 -0.8807
 1682SOL    HW2 5171   1.201   1.213   0.233 -1.1378 -0.8758 -1.1837
 1683SOL     OW 5172   1.522   2.661   1.427  0.2596  0.0767  0.0906
 1683SOL    HW1 5173   1.432   2.653   1.395  0.5761 -0.5055 -0.7000
 1683SOL    HW2 5174   1.534   2.755   1.443 -0.7891  0.0585  1.1627
 1684SOL     OW 5175   0.746   2.000   1.218 -0.0166 -0.9606 -0.1902
 1684SOL    HW1 5176   0.833   2.029   1.243 -0.4494 -0.8930  1.3290
 1684SOL    HW2 5177   0.745   2.004   1.123  1.6282 -0.9522 -0.2192
 1685SOL     OW 5178   0.277   2.951   1.661 -1.3895  0.1738 -0.1718
 1685SOL    HW1 5179   0.227   3.032   1.654 -0.3462  0.7754 -0.9118
 1685SOL    HW2 5180   0.248   2.911   1.743 -1.4422  1.6125  0.5278
 1686SOL     OW 5181   1.482   0.203   0.343 -0.3379 -0.6318 -0.5619
 1686SOL    HW1 5182   1.401   0.155   0.361  0.1193 -0.7195  1.5262
 1686SOL    HW2 5183   1.467   0.290   0.379 -0.3125  0.1170 -2.2624
 1687SOL     OW 5184   1.605   3.229   3.623  0.0631 -0.0300 -0.1918
 1687SOL    HW1 5185   1.682   3.202   3.674  0.4619  0.6150 -0.4333
 1687SOL    HW2 5186   1.636   3.228   3.532 -0.4954 -0.6795 -0.3859
 1688SOL     OW 5187   3.662   0.779   3.120 -0.4845  0.3852  0.0947
 1688SOL    HW1 5188   3.584   0.789   3.065 -0.4084  0.2309 -0.0400
 1688SOL    HW2 5189   3.677   0.867   3.156 -0.6535  0.4403  0.0295
 1689SOL     OW 5190   0.034   1.643   0.486  0.1748  0.5894 -0.2260
 1689SOL    HW1 5191  -0.019   1.716   0.518  1.7904  1.1777  1.2666
 1689SOL    HW2 5192   0.024   1.645   0.391 -2.1039  0.9136 -0.0281
 1690SOL     OW 5193   3.053   3.048   0.503  0.3607 -0.9297  0.0773
 1690SOL    HW1 5194   3.132   3.015   0.461  0.6065 -0.7126  0.3678
 1690SOL    HW2 5195   2.996   2.971   0.512  0.9190 -1.2816  0.7254
 1691SOL     OW 5196   1.540   1.570   1.919  0.7341 -0.0386 -0.9618
 1691SOL    HW1 5197   1.536   1.655   1.875  1.9097  0.4241 -0.2199
 1691SOL    HW2 5198   1.452   1.558   1.954  0.8971  1.5176  0.0824
 1692SOL     OW 5199   0.127   3.729   3.138 -0.0088 -0.0718 -0.0865
 1692SOL    HW1 5200   0.115   3.668   3.211 -2.0621  0.7527  0.3365
 1692SOL    HW2 5201   0.096   3.680   3.061 -1.2922  0.2645  0.1931
 1693SOL     OW 5202   1.928   1.484   3.712  0.7599  0.5931 -0.6075
 1693SOL    HW1 5203   1.933   1.576   3.687 -0.7503  0.4228 -1.6905
 1693SOL    HW2 5204   1.879   1.443   3.641 -0.4148 -0.6512  0.8584
 1694SOL     OW 5205   3.203   2.243   1.793  0.0956  0.1848  0.3281
 1694SOL    HW1 5206   3.168   2.280   1.712 -3.6061  1.0347  2.0854
 1694SOL    HW2 5207   3.236   2.157   1.768  0.5801  1.0359 -2.2940
 1695SOL     OW 5208   0.161   0.689   2.313  0.4482 -0.3277  0.2993
 1695SOL    HW1 5209   0.142   0.687   2.219  1.4330 -0.6402  0.0947
 1695SOL    HW2 5210   0.076   0.703   2.354  0.2382  1.6565 -0.7025
 1696SOL     OW 5211   3.628   3.388   1.644  0.4642  0.5772 -0.5726
 1696SOL    HW1 5212   3.535   3.404   1.632  0.3602  0.5976  0.2444
 1696SOL    HW2 5213   3.670   3.471   1.622  0.2893  0.5792 -0.9031
 1697SOL     OW 5214   2.257   3.608   3.582 -0.2037 -0.3998 -0.1229
 1697SOL    HW1 5215   2.294   3.526   3.614  1.0346  0.4740  0.7754
 1697SOL    HW2 5216   2.277   3.608   3.488  1.5052 -0.2794  0.2128
 1698SOL     OW 5217   1.085   2.034   2.804  0.0492 -0.0642  0.5578
 1698SOL    HW1 5218   1.176   2.061   2.795 -1.0358  4.7139  0.7190
 1698SOL    HW2 5219   1.064   2.051   2.896 -1.0142 -0.9886  0.5090
 1699SOL     OW 5220   3.455   2.028   0.010  0.2336 -0.3515 -0.1854
 1699SOL    HW1 5221   3.459   1.938  -0.022  1.6118 -1.1835  2.0794
 1699SOL    HW2 5222   3.370   2.035   0.053 -0.1349 -0.3470 -0.8976
 1700SOL     OW 5223   2.416   0.417   2.412  0.1484 -0.1846 -0.1609
 1700SOL    HW1 5224   2.472   0.375   2.348  1.7829 -1.0957  1.7578
 1700SOL    HW2 5225   2.394   0.348   2.474  1.3364  1.3043  2.0502
 1701SOL     OW 5226   0.769   2.624   3.684 -0.3164 -0.4277 -0.2928
 1701SOL    HW1 5227   0.766   2.717   3.660 -0.1658 -0.4819 -0.5206
 1701SOL    HW2 5228   0.851   2.614   3.732  0.2315 -0.6707 -1.2382
 1702SOL     OW 5229   3.117   2.988   0.790 -0.2720  0.2627 -0.1133
 1702SOL    HW1 5230   3.099   2.897   0.765  0.8197 -0.0472  0.1631
 1702SOL    HW2 5231   3.149   3.029   0.709 -3.7589  1.3246 -1.1087
 1703SOL     OW 5232   2.078   2.720   1.970  0.9467  0.1997 -0.3081
 1703SOL    HW1 5233   2.146   2.743   1.907  0.9802 -1.1832 -0.8131
 1703SOL    HW2 5234   2.020   2.661   1.923 -0.3681  0.9940  0.2601
 1704SOL     OW 5235   3.673   2.532   2.675  0.1630  0.0545 -0.0197
 1704SOL    HW1 5236   3.697   2.465   2.738 -0.5943 -0.0231  0.2035
 1704SOL    HW2 5237   3.723   2.510   2.596 -1.7338 -2.1562 -0.7304
 1705SOL     OW 5238   2.408   3.607   2.551 -0.1597  0.5295 -0.3950
 1705SOL    HW1 5239   2.460   3.634   2.626  0.3085 -0.1179 -0.4747
 1705SOL    HW2 5240   2.444   3.657   2.478 -0.3574  0.8714 -0.2590
 1706SOL     OW 5241   3.403   0.983   3.488  0.2179 -0.5589  0.1133
 1706SOL    HW1 5242   3.369   0.900   3.455  0.6721 -1.1983  1.1826
 1706SOL    HW2 5243   3.439   1.026   3.411 -1.7861 -0.4367 -0.8189
 1707SOL     OW 5244   1.969   2.062   1.282  0.7274  0.0935  0.0623
 1707SOL    HW1 5245   1.887   2.098   1.316 -0.3991 -1.9489 -0.3365
 1707SOL    HW2 5246   2.031   2.071   1.355  0.1197  1.4420  0.4539
 1708SOL     OW 5247   1.793   2.841   0.403 -0.1408  0.8483  0.0358
 1708SOL    HW1 5248   1.703   2.851   0.434  0.1958  1.0311  0.9873
 1708SOL    HW2 5249   1.787   2.775   0.334 -1.5476  3.4116 -2.4994
 1709SOL     OW 5250   0.981   1.004   0.025  0.2459  0.0481  0.2755
 1709SOL    HW1 5251   1.046   0.934   0.027 -0.1482 -0.2985  1.8377
 1709SOL    HW2 5252   1.032   1.085   0.020  0.7140 -0.2961 -0.9793
 1710SOL     OW 5253   1.263   1.235   1.432  0.0071  0.4963 -0.5491
 1710SOL    HW1 5254   1.189   1.281   1.472  0.5204  1.9142 -1.1382
 1710SOL    HW2 5255   1.336   1.250   1.492 -0.6392 -3.0471  1.3706
 1711SOL     OW 5256   2.761   0.745   0.594 -0.4842 -0.8578  0.1824
 1711SOL    HW1 5257   2.759   0.781   0.682  0.5903 -1.4049  0.4521
 1711SOL    HW2 5258   2.707   0.805   0.542 -0.2721  0.0650  0.9935
 1712SOL     OW 5259   2.862   0.206   2.330  0.6993 -0.4205  0.2061
 1712SOL    HW1 5260   2.840   0.136   2.391 -1.3056 -0.7421 -0.8075
 1712SOL    HW2 5261   2.865   0.285   2.384 -1.6608 -0.5980  0.6870
 1713SOL     OW 5262   3.046   0.616   0.244  0.4211 -0.6210  0.1226
 1713SOL    HW1 5263   3.017   0.707   0.236  0.0874 -0.7044  0.3594
 1713SOL    HW2 5264   3.102   0.615   0.321  1.4425 -0.3652 -0.6044
 1714SOL     OW 5265   1.014   1.034   3.212 -0.0689  0.1503 -0.6684
 1714SOL    HW1 5266   0.923   1.058   3.228  0.4158  1.2860  0.5569
 1714SOL    HW2 5267   1.031   0.960   3.270 -0.5410 -0.9295 -1.8438
 1715SOL     OW 5268   1.329   2.778   1.688  0.1675  0.6019  0.8187
 1715SOL    HW1 5269   1.261   2.745   1.747 -0.0774  0.6870  0.5869
 1715SOL    HW2 5270   1.361   2.700   1.643  0.6613  0.4763  1.3770
 1716SOL     OW 5271   1.654   2.121   2.294 -0.3232  0.3261 -0.4602
 1716SOL    HW1 5272   1.640   2.207   2.334  0.9272 -0.6535  2.4214
 1716SOL    HW2 5273   1.567   2.088   2.275 -1.1059  0.7357  2.0432
 1717SOL     OW 5274   2.906   3.686   0.661 -0.1570  0.4690  0.6872
 1717SOL    HW1 5275   2.922   3.690   0.567  0.3877  0.1729  0.7581
 1717SOL    HW2 5276   2.847   3.612   0.673  1.2614 -0.7154  0.7375
 1718SOL     OW 5277   2.673   0.723   2.488  0.2404  0.1175  0.3567
 1718SOL    HW1 5278   2.690   0.817   2.493  1.1143  0.1480 -1.9778
 1718SOL    HW2 5279   2.750   0.683   2.529  0.9763  0.4197 -0.6865
 1719SOL     OW 5280   2.492   2.891   2.365  0.5257  0.7178  0.2838
 1719SOL    HW1 5281   2.530   2.919   2.449  0.3927 -1.2139  1.0466
 1719SOL    HW2 5282   2.432   2.961   2.341  0.6176  1.3461  1.7705
 1720SOL     OW 5283   0.789   1.989   1.943  0.3592  0.2111 -0.0606
 1720SOL    HW1 5284   0.813   2.068   1.894 -0.2230 -0.0570 -0.7976
 1720SOL    HW2 5285   0.783   2.018   2.034  1.7967  0.6449 -0.0802
 1721SOL     OW 5286   3.607   3.227   2.327  0.2519  0.1758  0.0610
 1721SOL    HW1 5287   3.637   3.250   2.415 -0.3261  1.2023  0.0174
 1721SOL    HW2 5288   3.685   3.195   2.282  0.5369 -0.4363  0.9671
 1722SOL     OW 5289   0.273   2.587   1.475  0.4456 -0.3612  0.6327
 1722SOL    HW1 5290   0.190   2.617   1.512  0.3904  0.0093  0.2127
 1722SOL    HW2 5291   0.315   2.539   1.546 -0.9112 -2.0820  0.3611
 1723SOL     OW 5292   2.528   3.137   1.265 -0.2604  0.1997  0.2691
 1723SOL    HW1 5293   2.472   3.195   1.213 -0.6188 -1.1905 -0.9944
 1723SOL    HW2 5294   2.474   3.111   1.339 -0.6627  0.2469 -0.0057
 1724SOL     OW 5295   0.390   1.784   0.983  0.2306  0.0030  0.4996
 1724SOL    HW1 5296   0.473   1.827   0.964 -0.6325  1.0191 -1.1587
 1724SOL    HW2 5297   0.400   1.751   1.073  2.3735  0.1645  0.3682
 1725SOL     OW 5298   0.458   0.076   3.589 -0.6814 -0.2682 -0.3810
 1725SOL    HW1 5299   0.541   0.122   3.604 -1.2240  0.6657 -0.1781
 1725SOL    HW2 5300   0.483  -0.002   3.540  0.0896  1.0544 -2.2158
 1726SOL     OW 5301   0.835   0.967   1.305  0.0798  0.3364 -0.2326
 1726SOL    HW1 5302   0.791   0.887   1.334  3.2056 -1.2690  0.4992
 1726SOL    HW2 5303   0.861   0.949   1.215 -2.6709  2.2404 -1.5648
 1727SOL     OW 5304   3.016   0.810   1.658  0.2034 -0.2282 -0.3640
 1727SOL    HW1 5305   3.064   0.783   1.580  0.7432  1.6339 -0.7419
 1727SOL    HW2 5306   3.004   0.905   1.646  0.1674  0.0728  1.7248
 1728SOL     OW 5307   3.034   2.019   1.770  0.1249  0.1990  0.5164
 1728SOL    HW1 5308   3.012   2.090   1.710 -0.4436  0.2213  0.7487
 1728SOL    HW2 5309   2.977   1.947   1.743 -0.2412  0.2576  1.1203
 1729SOL     OW 5310   2.608   1.496   1.523  0.1192 -0.4205  0.8009
 1729SOL    HW1 5311   2.627   1.419   1.469 -0.3683  0.7503 -1.1335
 1729SOL    HW2 5312   2.692   1.540   1.534  0.1814 -0.5342  0.7805
 1730SOL     OW 5313   0.185   2.201   3.554 -0.6871  0.3523  0.2632
 1730SOL    HW1 5314   0.247   2.270   3.579 -0.0392  0.0221 -0.4019
 1730SOL    HW2 5315   0.198   2.133   3.620 -1.7462  1.0922  1.2678
 1731SOL     OW 5316   1.349   3.629   1.262 -0.2730  0.0066  0.1435
 1731SOL    HW1 5317   1.330   3.609   1.354 -1.5696 -0.6739 -0.2396
 1731SOL    HW2 5318   1.265   3.658   1.226  0.2654  0.4599 -0.7839
 1732SOL     OW 5319   2.127   0.415   0.494 -0.2503 -0.3235  0.3549
 1732SOL    HW1 5320   2.180   0.490   0.520 -1.0237  0.4402 -0.2436
 1732SOL    HW2 5321   2.120   0.362   0.573  1.4430 -0.4840  0.4392
 1733SOL     OW 5322   0.073   0.688   2.030  0.3860 -0.3154 -0.1212
 1733SOL    HW1 5323   0.134   0.642   1.974  0.6425 -0.9489  0.6626
 1733SOL    HW2 5324   0.029   0.620   2.081  0.7847  0.2829  1.0683
 1734SOL     OW 5325   2.176   3.063   2.956 -0.0568  0.5513 -0.2733
 1734SOL    HW1 5326   2.234   3.004   3.004 -0.6355  0.8235  0.7965
 1734SOL    HW2 5327   2.174   3.142   3.009 -1.7315  0.3960 -0.0650
 1735SOL     OW 5328   0.161   3.064   0.175 -0.3896 -0.5538 -0.1980
 1735SOL    HW1 5329   0.221   3.000   0.137  0.5315  1.6073 -2.7317
 1735SOL    HW2 5330   0.084   3.063   0.118 -0.6175  0.1678  0.0750
 1736SOL     OW 5331   3.154   0.592   3.209 -0.2563  0.8531  0.9140
 1736SOL    HW1 5332   3.186   0.511   3.251  1.0397  1.2067  0.6626
 1736SOL    HW2 5333   3.067   0.605   3.246  0.4314  0.6061  2.7404
 1737SOL     OW 5334   0.906   3.108   1.926  1.1441 -0.7521  0.0526
 1737SOL    HW1 5335   0.816   3.140   1.926  0.4317 -2.6026  0.9147
 1737SOL    HW2 5336   0.905   3.034   1.865  2.0448 -0.8845  0.1845
 1738SOL     OW 5337   2.927   0.544   2.237 -0.5673  0.2287 -0.0036
 1738SOL    HW1 5338   2.980   0.472   2.204 -0.5949  1.0253 -1.9508
 1738SOL    HW2 5339   2.988   0.617   2.245 -0.5098  0.0177  2.0905
 1739SOL     OW 5340   1.291   0.692   1.728 -0.1223  0.0151  0.4868
 1739SOL    HW1 5341   1.315   0.663   1.640 -1.3885  0.6362 -0.0803
 1739SOL    HW2 5342   1.199   0.667   1.738 -0.4616  1.3648  1.0122
 1740SOL     OW 5343   2.146   3.635   0.307  0.1381  0.4113 -0.5639
 1740SOL    HW1 5344   2.190   3.556   0.339  1.5344  1.1825 -0.5284
 1740SOL    HW2 5345   2.196   3.707   0.344 -0.7502  1.3222 -1.0991
 1741SOL     OW 5346   0.416   1.441   1.472 -0.2584  0.3577 -0.2625
 1741SOL    HW1 5347   0.489   1.380   1.478  0.4033  0.9457 -1.8886
 1741SOL    HW2 5348   0.350   1.394   1.421 -1.1763 -0.2699  1.4124
 1742SOL     OW 5349   3.178   2.886   2.601 -0.2381  0.4500  0.5044
 1742SOL    HW1 5350   3.256   2.922   2.644  0.5700  0.0620 -0.5993
 1742SOL    HW2 5351   3.173   2.796   2.633  0.4465  0.1157 -0.2872
 1743SOL     OW 5352   1.344   2.894   3.699  0.1379  0.6725  0.8500
 1743SOL    HW1 5353   1.372   2.908   3.608 -3.1034 -0.8675 -0.5445
 1743SOL    HW2 5354   1.409   2.833   3.735  1.9686  1.9807 -0.0673
 1744SOL     OW 5355   3.508   2.231   0.397  0.6004 -0.2994  0.7947
 1744SOL    HW1 5356   3.594   2.272   0.395  0.9990 -0.8620  3.1738
 1744SOL    HW2 5357   3.452   2.296   0.439 -0.1840  0.0744 -0.7648
 1745SOL     OW 5358   1.880   1.934   0.606  1.0235 -0.4363  0.0677
 1745SOL    HW1 5359   1.835   1.886   0.676  1.7303 -1.6066 -0.2405
 1745SOL    HW2 5360   1.973   1.924   0.626  1.1931  1.5054  0.4055
 1746SOL     OW 5361   0.267   2.208   2.726  0.1738 -0.3087  0.3002
 1746SOL    HW1 5362   0.354   2.213   2.768  1.2497 -2.3214 -1.5046
 1746SOL    HW2 5363   0.241   2.117   2.736 -1.2192  0.0114 -0.2145
 1747SOL     OW 5364   0.117   1.036   1.536 -0.2288  0.1539  0.4183
 1747SOL    HW1 5365   0.092   1.128   1.539 -4.4873 -0.7563 -0.6776
 1747SOL    HW2 5366   0.115   1.008   1.627  0.8020  1.0039  0.7283
 1748SOL     OW 5367   2.694   2.185   3.320  0.6390 -0.1027 -0.2602
 1748SOL    HW1 5368   2.639   2.147   3.252  1.2001 -2.2932  0.4235
 1748SOL    HW2 5369   2.780   2.145   3.305  0.8948 -0.2340  1.3871
 1749SOL     OW 5370   3.134   1.033   0.769  0.4296 -0.4342 -0.7574
 1749SOL    HW1 5371   3.045   1.000   0.786 -0.1318  1.1224 -0.5436
 1749SOL    HW2 5372   3.142   1.034   0.674  0.3197 -0.8090 -0.7728
 1750SOL     OW 5373   0.976   3.355   0.585  0.2428 -0.3297  0.4134
 1750SOL    HW1 5374   0.943   3.276   0.541  0.3740 -0.9713  1.4317
 1750SOL    HW2 5375   0.959   3.339   0.678  0.8974  0.5552  0.6942
 1751SOL     OW 5376   2.858   1.486   3.046 -0.0332 -0.2549 -0.8370
 1751SOL    HW1 5377   2.945   1.464   3.014  0.2552 -0.3276 -0.0196
 1751SOL    HW2 5378   2.860   1.465   3.139 -1.4453 -1.8893 -1.1166
 1752SOL     OW 5379   1.557   0.307   3.021  0.3066  0.2854  0.5696
 1752SOL    HW1 5380   1.627   0.344   2.967  0.9728  0.3832  1.4735
 1752SOL    HW2 5381   1.563   0.356   3.103  0.4653 -1.0357  1.3726
 1753SOL     OW 5382   0.959   3.586   2.492 -0.1727 -0.3131 -0.0501
 1753SOL    HW1 5383   0.887   3.525   2.478  0.4350 -1.0835  0.0850
 1753SOL    HW2 5384   1.031   3.550   2.440 -0.0914  0.8346 -0.7577
 1754SOL     OW 5385   2.523   0.116   2.365  0.8645 -0.6357 -0.0267
 1754SOL    HW1 5386   2.590   0.063   2.322 -1.2931 -3.4004 -0.2861
 1754SOL    HW2 5387   2.563   0.143   2.448  3.7120  1.5325 -1.9088
 1755SOL     OW 5388   0.788   2.108   2.195  0.1394 -0.4860 -0.0425
 1755SOL    HW1 5389   0.783   2.152   2.280 -0.7594 -1.5802  0.5062
 1755SOL    HW2 5390   0.717   2.147   2.144 -0.9235 -1.5390  0.5842
 1756SOL     OW 5391   2.342   1.093   2.779 -0.5440 -0.4749  0.2981
 1756SOL    HW1 5392   2.371   1.182   2.758 -1.4190 -0.2109  0.1921
 1756SOL    HW2 5393   2.327   1.094   2.873 -0.2261 -0.6075  0.3507
 1757SOL     OW 5394   0.150   2.806   2.184 -0.3659 -0.1058 -0.5174
 1757SOL    HW1 5395   0.216   2.870   2.211 -0.0638  0.2913 -2.1037
 1757SOL    HW2 5396   0.072   2.829   2.234 -0.6168  2.2761 -1.8697
 1758SOL     OW 5397   0.523   3.225   3.681 -0.5878  0.2079 -0.0698
 1758SOL    HW1 5398   0.530   3.169   3.758  1.6582 -0.8131 -0.9365
 1758SOL    HW2 5399   0.609   3.268   3.675  0.4046 -1.8840 -3.5088
 1759SOL     OW 5400   0.595   2.428   0.831  0.0280  0.2140 -0.0861
 1759SOL    HW1 5401   0.527   2.435   0.764 -0.6984 -0.2327  0.5850
 1759SOL    HW2 5402   0.631   2.340   0.820 -0.6659 -0.1726  0.6277
 1760SOL     OW 5403   2.748   2.925   2.494  0.3345  0.1772 -0.0518
 1760SOL    HW1 5404   2.754   2.991   2.563 -2.1037  1.1035 -0.6157
 1760SOL    HW2 5405   2.737   2.842   2.540 -0.1998  0.6462  0.6931
 1761SOL     OW 5406   1.707   2.946   0.032 -0.4742  0.5943  0.3052
 1761SOL    HW1 5407   1.703   2.934  -0.063  1.2648 -1.9863  0.4546
 1761SOL    HW2 5408   1.627   2.904   0.065 -0.1711 -0.1850  0.0681
 1762SOL     OW 5409   2.704   0.576   1.622  0.0866 -0.4021 -0.0233
 1762SOL    HW1 5410   2.786   0.594   1.668 -0.2737 -2.5010  1.5986
 1762SOL    HW2 5411   2.652   0.526   1.684 -1.5958 -0.9455 -1.7677
 1763SOL     OW 5412   1.599   2.386   2.406 -0.3592 -0.2963  0.3457
 1763SOL    HW1 5413   1.577   2.479   2.408 -2.4022 -0.7493  1.5628
 1763SOL    HW2 5414   1.524   2.342   2.446  0.4098 -2.5179 -0.4693
 1764SOL     OW 5415   1.775   0.965   2.494  0.3429  0.5045  0.3801
 1764SOL    HW1 5416   1.810   1.038   2.545  0.3974 -0.0720  1.1861
 1764SOL    HW2 5417   1.841   0.896   2.500 -0.8004 -0.5480  1.8074
 1765SOL     OW 5418   2.167   2.684   1.193 -0.3160 -0.4498  0.1228
 1765SOL    HW1 5419   2.251   2.647   1.167  0.2743  0.0940  1.2335
 1765SOL    HW2 5420   2.134   2.725   1.113  0.5187 -0.5643 -0.2945
 1766SOL     OW 5421   2.808   0.596   3.221  0.2796 -0.6291 -0.0253
 1766SOL    HW1 5422   2.816   0.547   3.303 -2.7781 -1.0921  0.1068
 1766SOL    HW2 5423   2.809   0.688   3.249 -1.6295 -0.7822  0.7383
 1767NA      NA 5424   3.442   3.248   0.838  0.5115  0.3334  0.1317
 1768NA      NA 5425   0.933   1.240   2.523  0.1448  0.1120 -0.2639
   3.70710   3.70710   3.70710
