Protein in water
 5422
    0TYR      N    1   2.230   1.274   0.740  0.2898 -0.3764  0.3245
    0TYR     H1    2   2.305   1.215   0.698  1.0684  0.0762  1.0438
    0TYR     H2    3   2.261   1.373   0.733  0.6803 -0.5844 -1.5642
    0TYR     H3    4   2.141   1.272   0.687 -0.2210  1.7337  1.0133
    0TYR     CA    5   2.219   1.236   0.879  0.2920  0.5958  0.4141
    0TYR     HA    6   2.148   1.306   0.918  0.8597  1.0312  0.6805
    0TYR     CB    7   2.143   1.097   0.887  0.1370 -0.6116 -0.0450
    0TYR    HB1    8   2.213   1.014   0.862 -1.4372 -2.2429  0.7824
    0TYR    HB2    9   2.067   1.090   0.807  1.3291 -0.7256 -1.1966
    0TYR     CG   10   2.093   1.059   1.023  0.0767 -0.0078 -0.2275
    0TYR    CD1   11   2.043   1.163   1.117 -0.1441  0.4863 -0.2445
    0TYR    HD1   12   2.046   1.268   1.093 -2.0227  0.0195 -3.0039
    0TYR    CE1   13   1.993   1.129   1.242  0.6351 -0.7400  0.3541
    0TYR    HE1   14   1.950   1.199   1.312  0.6381 -0.6149  0.2311
    0TYR     CZ   15   1.994   0.995   1.284  0.9225  0.1217  0.1135
    0TYR     OH   16   1.954   0.969   1.417 -0.0917  0.5582 -0.2758
    0TYR     HH   17   1.910   0.883   1.410  1.6327 -0.4965  0.9611
    0TYR    CD2   18   2.088   0.923   1.075 -0.2106 -0.2209  0.8938
    0TYR    HD2   19   2.120   0.846   1.006 -0.0775 -0.3467  1.0957
    0TYR    CE2   20   2.039   0.886   1.201  0.1517 -0.4819 -0.3460
    0TYR    HE2   21   2.044   0.782   1.229 -2.1494 -1.4605 -3.1698
    0TYR      C   22   2.355   1.238   0.954 -0.1348 -0.2519 -0.4570
    0TYR      O   23   2.453   1.292   0.904 -0.0374 -0.4085  0.2420
    1TYR      N   24   2.365   1.187   1.082 -0.9029  0.0823  0.6512
    1TYR     HN   25   2.295   1.129   1.122 -1.7621  1.6555  1.5535
    1TYR     CA   26   2.491   1.185   1.160  1.0262  0.1159  0.1978
    1TYR     HA   27   2.552   1.273   1.141 -1.4755  1.9513  0.1087
    1TYR     CB   28   2.466   1.196   1.310 -0.0334 -0.2805 -0.8196
    1TYR    HB1   29   2.419   1.101   1.345 -2.7484  0.2640 -2.6329
    1TYR    HB2   30   2.389   1.274   1.329 -4.0527 -4.0734  0.0801
    1TYR     CG   31   2.590   1.225   1.397  0.5751 -0.4237 -0.0149
    1TYR    CD1   32   2.620   1.355   1.443  1.4503  0.2262  0.4741
    1TYR    HD1   33   2.559   1.440   1.417  1.6687 -0.1014 -1.2030
    1TYR    CE1   34   2.737   1.373   1.522 -0.3441 -0.1745 -0.3148
    1TYR    HE1   35   2.755   1.476   1.548  1.5401 -1.0166  2.0021
    1TYR     CZ   36   2.815   1.264   1.556 -0.4173  0.3819  0.0921
    1TYR     OH   37   2.906   1.290   1.660 -0.2083  0.2356  0.3372
    1TYR     HH   38   2.947   1.208   1.688  1.6730  0.7662 -0.6881
    1TYR    CD2   39   2.676   1.115   1.430 -0.0310 -0.1764 -0.6050
    1TYR    HD2   40   2.657   1.018   1.387  2.2045 -0.0492 -2.0561
    1TYR    CE2   41   2.788   1.134   1.517  1.2583  0.1699 -0.5224
    1TYR    HE2   42   2.839   1.056   1.572  0.2709  0.8529  1.4626
    1TYR      C   43   2.579   1.071   1.118 -0.0890 -0.1097  0.4816
    1TYR      O   44   2.578   0.958   1.176  0.5324  0.0090 -0.1140
    2ASP      N   45   2.660   1.093   1.012 -0.5794 -0.1954  0.0914
    2ASP     HN   46   2.664   1.183   0.969  0.6591 -0.8269 -1.1879
    2ASP     CA   47   2.746   0.999   0.945  0.5934  0.6573 -0.8358
    2ASP     HA   48   2.698   0.906   0.917  1.5509  0.1115 -0.7210
    2ASP     CB   49   2.791   1.059   0.812  0.8262 -0.3178 -0.5659
    2ASP    HB1   50   2.851   1.151   0.826  1.7900 -0.4621 -3.1003
    2ASP    HB2   51   2.702   1.065   0.745  0.1982 -2.8161 -0.0775
    2ASP     CG   52   2.885   0.975   0.731  0.3173  0.9075  0.3689
    2ASP    OD1   53   2.836   0.878   0.663 -0.0946  0.4624  0.2032
    2ASP    OD2   54   3.006   1.004   0.729 -0.3260 -0.2668  0.4118
    2ASP      C   55   2.872   0.971   1.029  0.2956  0.0043  0.2527
    2ASP      O   56   2.941   1.066   1.063  0.0620  0.0609  0.7259
    3PRO      N   57   2.905   0.850   1.059 -0.1301 -0.4699  0.4808
    3PRO     CD   58   2.825   0.730   1.042 -0.1162 -0.1717  0.4119
    3PRO    HD1   59   2.743   0.739   1.116  0.6731 -0.3106  1.3305
    3PRO    HD2   60   2.790   0.713   0.938 -0.4251  1.6076  0.1792
    3PRO     CA   61   3.008   0.827   1.165  0.7634  0.1608  0.5002
    3PRO     HA   62   3.000   0.886   1.255  0.7501  1.3032 -0.2289
    3PRO     CB   63   2.994   0.678   1.200 -0.3078 -0.8409 -0.2833
    3PRO    HB1   64   2.933   0.666   1.293 -0.7478 -2.0690 -0.7196
    3PRO    HB2   65   3.092   0.628   1.215  0.1049 -1.1653 -3.4065
    3PRO     CG   66   2.921   0.620   1.087  0.2130 -0.1129  0.3170
    3PRO    HG1   67   2.863   0.528   1.112 -1.5542  0.7029 -0.6478
    3PRO    HG2   68   2.992   0.603   1.004  0.0799  1.1336 -0.0651
    3PRO      C   69   3.147   0.855   1.112  0.3890 -0.1795  0.3482
    3PRO      O   70   3.234   0.897   1.187  0.0321  0.6313 -0.0313
    4GLU      N   71   3.168   0.833   0.977 -0.1841 -0.0244  0.4199
    4GLU     HN   72   3.089   0.812   0.920 -1.9514  4.8696  0.5750
    4GLU     CA   73   3.291   0.848   0.908 -0.7483 -0.0650  0.2216
    4GLU     HA   74   3.368   0.808   0.972  0.0406 -0.2042 -0.7698
    4GLU     CB   75   3.282   0.786   0.766  0.1179 -0.2032 -0.6679
    4GLU    HB1   76   3.191   0.828   0.718 -0.2130  1.2100  1.0887
    4GLU    HB2   77   3.259   0.681   0.795  1.3672 -1.3364 -3.4510
    4GLU     CG   78   3.407   0.802   0.686 -0.3160 -0.0998  0.1542
    4GLU    HG1   79   3.499   0.766   0.737  0.7373 -0.1930 -1.7386
    4GLU    HG2   80   3.422   0.908   0.658 -1.5424  0.1531  0.3890
    4GLU     CD   81   3.411   0.733   0.551  0.3871  0.1705  0.6393
    4GLU    OE1   82   3.325   0.757   0.465  0.1537  0.4750  0.2947
    4GLU    OE2   83   3.517   0.666   0.528 -0.5285  0.0481 -0.6448
    4GLU      C   84   3.333   0.999   0.898  0.4899  0.1267  0.0229
    4GLU      O   85   3.445   1.042   0.923  0.7334  0.5836  0.0873
    5THR      N   86   3.229   1.083   0.885 -0.9086  0.2603 -1.3943
    5THR     HN   87   3.139   1.040   0.880  0.0074 -1.6220 -3.0243
    5THR     CA   88   3.250   1.228   0.886  0.1076  0.4834  0.0546
    5THR     HA   89   3.350   1.253   0.855  1.1022  1.1686  3.3224
    5THR     CB   90   3.147   1.296   0.802 -0.2168 -0.6727 -0.3329
    5THR     HB   91   3.045   1.290   0.845 -0.3382 -2.5671 -0.8117
    5THR    OG1   92   3.146   1.228   0.681 -0.3533 -0.2571  0.2781
    5THR    HG1   93   3.094   1.150   0.700 -1.1647  0.3793  0.7143
    5THR    CG2   94   3.190   1.450   0.785 -0.2308  0.0361 -0.2824
    5THR   HG21   95   3.198   1.507   0.881 -0.7371 -2.2463  1.2089
    5THR   HG22   96   3.109   1.498   0.727 -0.0072  0.2554 -0.4132
    5THR   HG23   97   3.279   1.463   0.720  0.2192  2.9558  0.7806
    5THR      C   98   3.242   1.272   1.033  0.3682 -0.2017  0.6392
    5THR      O   99   3.329   1.354   1.077  0.2274  0.4758  0.3747
    6GLY      N  100   3.148   1.220   1.111  0.5151  0.7367  0.0267
    6GLY     HN  101   3.086   1.147   1.083 -0.0823  1.4750 -0.6081
    6GLY     CA  102   3.122   1.250   1.249  0.2324 -0.1144  0.1839
    6GLY    HA1  103   3.220   1.259   1.293 -0.2145  2.3399  0.8197
    6GLY    HA2  104   3.055   1.177   1.292  0.2874 -0.1071  0.2813
    6GLY      C  105   3.043   1.369   1.281 -0.0650  0.1461  0.1995
    6GLY      O  106   3.065   1.427   1.390 -0.4520  0.2671  0.5761
    7THR      N  107   2.957   1.413   1.191  0.4232 -0.2521 -0.0686
    7THR     HN  108   2.930   1.353   1.115 -0.2010 -0.2258  0.1299
    7THR     CA  109   2.882   1.533   1.205 -0.0097  0.3582 -0.4058
    7THR     HA  110   2.849   1.546   1.308 -0.6016 -0.0598 -0.5366
    7THR     CB  111   2.960   1.663   1.178  0.4749  0.2743  0.4489
    7THR     HB  112   3.058   1.641   1.226  1.4592 -2.4836 -2.4692
    7THR    OG1  113   2.901   1.788   1.217 -0.2526  0.4770 -0.2683
    7THR    HG1  114   2.954   1.864   1.192  1.0537 -0.3742 -0.2008
    7THR    CG2  115   2.999   1.680   1.034  0.5268  0.9493  0.4358
    7THR   HG21  116   2.913   1.707   0.969  1.3878  0.3822 -0.9869
    7THR   HG22  117   3.046   1.589   0.992 -1.6065 -0.6651  1.3172
    7THR   HG23  118   3.079   1.757   1.031  1.6701  0.0686  3.6550
    7THR      C  119   2.750   1.531   1.123  0.0947  0.6018 -0.4612
    7THR      O  120   2.726   1.430   1.051 -0.1727 -0.3166  0.1864
    8TRP      N  121   2.661   1.627   1.142 -0.6261  0.3818  0.5151
    8TRP     HN  122   2.700   1.707   1.189  1.7947  0.8312 -2.0099
    8TRP     CA  123   2.536   1.647   1.071 -0.3198  0.3259  0.1761
    8TRP     HA  124   2.484   1.553   1.076 -0.3920  0.2970 -0.9194
    8TRP     CB  125   2.463   1.765   1.143  0.1264  0.1712  0.2186
    8TRP    HB1  126   2.361   1.776   1.100 -0.5915  1.6686  2.1635
    8TRP    HB2  127   2.519   1.858   1.118  1.1495 -0.6424 -0.5890
    8TRP     CG  128   2.435   1.752   1.289  0.2096 -0.5718 -0.2327
    8TRP    CD1  129   2.510   1.793   1.392 -0.6638 -0.5307  0.4333
    8TRP    HD1  130   2.589   1.867   1.381 -0.1606 -1.2741 -1.2423
    8TRP    NE1  131   2.470   1.734   1.512 -0.5228 -0.6240 -0.6687
    8TRP    HE1  132   2.492   1.772   1.599  0.2291 -2.5973  0.0679
    8TRP    CE2  133   2.367   1.639   1.481 -1.3584  0.6384  0.0630
    8TRP    CD2  134   2.345   1.647   1.341 -0.2979 -0.4625 -0.7356
    8TRP    CE3  135   2.247   1.573   1.279 -0.3530 -0.1203  0.5119
    8TRP    HE3  136   2.233   1.564   1.172  0.8233 -0.0111  0.3354
    8TRP    CZ3  137   2.183   1.473   1.362 -0.6567 -0.0603  0.3174
    8TRP    HZ3  138   2.115   1.397   1.327 -0.3250 -0.1145 -0.2188
    8TRP    CZ2  139   2.315   1.544   1.560  0.3242 -0.7027  0.2207
    8TRP    HZ2  140   2.340   1.546   1.665  2.6459 -2.7272 -0.2182
    8TRP    CH2  141   2.209   1.470   1.504 -0.1299  0.6510 -0.1877
    8TRP    HH2  142   2.164   1.392   1.564  0.0867  1.3611  0.9267
    8TRP      C  143   2.563   1.669   0.917  0.3335 -0.7366 -0.0617
    8TRP      O  144   2.599   1.778   0.873 -0.9467  0.3039 -0.0760
    9VAL      N  145   2.543   1.572   0.831 -0.2077  0.2547 -0.3030
    9VAL     HN  146   2.520   1.484   0.873  0.0400  1.5264  2.6958
    9VAL     CA  147   2.574   1.564   0.685 -0.2305 -0.3502  0.0218
    9VAL     HA  148   2.631   1.650   0.653 -1.8736  0.2229 -1.5560
    9VAL     CB  149   2.648   1.437   0.649 -0.1413 -0.8226  0.2224
    9VAL     HB  150   2.605   1.363   0.720 -0.1561 -3.0281 -1.9594
    9VAL    CG1  151   2.625   1.386   0.503  0.1863 -0.1983 -0.3373
    9VAL   HG11  152   2.520   1.407   0.473  0.0228  0.2037  0.5082
    9VAL   HG12  153   2.708   1.428   0.442  0.4581  0.6395  0.5814
    9VAL   HG13  154   2.625   1.275   0.508  0.3004 -0.1348  1.6923
    9VAL    CG2  155   2.793   1.460   0.669  0.2922 -1.1410 -0.2781
    9VAL   HG21  156   2.854   1.382   0.618 -0.1543 -1.3481 -0.4918
    9VAL   HG22  157   2.816   1.561   0.626  2.2224 -1.3026  0.2516
    9VAL   HG23  158   2.815   1.462   0.778  0.6354  0.4759 -0.3468
    9VAL      C  159   2.444   1.586   0.614 -0.2063 -0.5514  0.7822
    9VAL    OT1  160   2.439   1.672   0.521 -0.1953  0.1646 -0.2062
    9VAL    OT2  161   2.338   1.520   0.637  0.0131 -0.2819  0.0480
   10SOL     OW  162   2.227   0.177   0.173 -0.8413 -0.2271  0.1311
   10SOL    HW1  163   2.215   0.082   0.178 -0.8394 -0.3054 -1.1065
   10SOL    HW2  164   2.254   0.202   0.261 -1.7864 -1.2338  0.7380
   11SOL     OW  165   1.628   0.946   1.754 -0.0978  0.0952 -0.2027
   11SOL    HW1  166   1.541   0.913   1.734 -0.2504  0.8103 -0.7665
   11SOL    HW2  167   1.679   0.931   1.674  0.4749 -0.8636  0.3220
   12SOL     OW  168   2.569   2.472   1.899  0.0968  0.1191  0.0448
   12SOL    HW1  169   2.591   2.467   1.992  1.0210 -1.1553 -0.2158
   12SOL    HW2  170   2.513   2.549   1.892  2.1063  1.8088  1.2421
   13SOL     OW  171   2.215   3.429   3.375 -0.3972  0.1636  0.4179
   13SOL    HW1  172   2.240   3.474   3.294  0.7670 -1.7846 -0.3650
   13SOL    HW2  173   2.289   3.445   3.434  0.2674 -1.0875 -0.0423
   14SOL     OW  174   1.199   3.214   2.963 -0.0402 -0.3182  0.2986
   14SOL    HW1  175   1.105   3.212   2.947 -0.0775  1.0142  0.2044
   14SOL    HW2  176   1.229   3.293   2.918  1.6012 -2.1498 -2.0851
   15SOL     OW  177   1.312   3.212   1.310 -0.1590 -0.9681  0.0654
   15SOL    HW1  178   1.282   3.299   1.336 -0.7112 -1.1998  0.2090
   15SOL    HW2  179   1.233   3.159   1.307  0.2030 -1.5218  0.1761
   16SOL     OW  180   0.675   3.169   3.385 -0.0728  0.5758  0.1798
   16SOL    HW1  181   0.585   3.162   3.416  0.4504 -0.9868  1.4627
   16SOL    HW2  182   0.677   3.119   3.303 -0.8011  2.3281 -0.9600
   17SOL     OW  183   2.697   0.300   2.463  0.6208  0.7011 -0.3436
   17SOL    HW1  184   2.764   0.243   2.424  2.0656  1.4938  0.8582
   17SOL    HW2  185   2.715   0.387   2.425  0.2071  0.9012 -0.0827
   18SOL     OW  186   0.644   2.030   0.365  0.7819 -0.4852  0.2039
   18SOL    HW1  187   0.667   1.966   0.298 -2.3231 -0.7895 -0.7515
   18SOL    HW2  188   0.635   1.979   0.445  2.2881 -0.5044  0.3837
   19SOL     OW  189   0.154   0.446   0.196  0.2230  0.3530 -0.0864
   19SOL    HW1  190   0.072   0.452   0.146 -0.1951 -0.5120  0.4681
   19SOL    HW2  191   0.169   0.535   0.228  0.2205  0.8120 -1.3047
   20SOL     OW  192   1.179   2.105   0.384 -0.0015  0.3623  0.8421
   20SOL    HW1  193   1.251   2.154   0.344  1.2333 -0.6213  1.8043
   20SOL    HW2  194   1.221   2.048   0.448 -1.7838  0.9193  2.6031
   21SOL     OW  195   0.417   0.405   3.286 -0.1349  0.5924  0.1092
   21SOL    HW1  196   0.469   0.477   3.322  1.0561  0.4003 -1.1320
   21SOL    HW2  197   0.328   0.438   3.285 -0.0171  1.0714  1.9718
   22SOL     OW  198   1.490   2.931   3.202  0.5787 -0.1210 -0.3649
   22SOL    HW1  199   1.395   2.930   3.208  0.4147  4.5879  2.8794
   22SOL    HW2  200   1.510   2.994   3.132  0.9549  2.8841  2.2238
   23SOL     OW  201   2.460   3.556   1.677 -0.5289 -0.6689 -0.0649
   23SOL    HW1  202   2.463   3.512   1.592 -0.1383  0.2583 -0.5470
   23SOL    HW2  203   2.400   3.629   1.665 -1.3227 -1.1580  0.7855
   24SOL     OW  204   3.693   3.364   1.501  0.2825 -0.5123 -0.0143
   24SOL    HW1  205   3.612   3.328   1.465  0.6380 -0.7218 -0.6293
   24SOL    HW2  206   3.733   3.409   1.426  0.2434  0.4635  0.5363
   25SOL     OW  207   2.925   1.503   2.055 -0.3587 -0.0559 -0.5453
   25SOL    HW1  208   2.862   1.435   2.081 -0.3983  0.9555  2.3825
   25SOL    HW2  209   2.882   1.548   1.983 -2.4219 -0.2674  0.4723
   26SOL     OW  210   3.104   0.175   0.704 -0.2827  0.0163 -0.3219
   26SOL    HW1  211   3.152   0.243   0.657 -1.2334  0.8315 -0.1526
   26SOL    HW2  212   3.100   0.205   0.794 -1.2602  0.0666 -0.3692
   27SOL     OW  213   0.511   1.268   0.484 -0.0785  0.1582 -0.0938
   27SOL    HW1  214   0.596   1.249   0.525  0.3024  1.1649 -0.3943
   27SOL    HW2  215   0.499   1.362   0.496 -0.9224  0.1076 -0.5046
   28SOL     OW  216   1.805   1.925   3.728 -0.3938 -0.0825  0.1545
   28SOL    HW1  217   1.782   1.848   3.780  1.7779  1.0088  3.0497
   28SOL    HW2  218   1.839   1.890   3.646  1.8361 -2.4296  1.9055
   29SOL     OW  219   1.379   2.853   2.809  0.3637  0.2464 -0.0938
   29SOL    HW1  220   1.434   2.800   2.751  0.4239  1.6904 -1.4294
   29SOL    HW2  221   1.394   2.943   2.780 -1.2126  0.8349  0.8236
   30SOL     OW  222   3.228   2.485   0.645  0.5970 -0.1190 -0.4098
   30SOL    HW1  223   3.260   2.462   0.557  0.7649  0.3489 -0.4747
   30SOL    HW2  224   3.241   2.579   0.651  0.4338 -0.1243  0.0612
   31SOL     OW  225   1.244   3.404   2.010  0.0074 -0.1635  0.5802
   31SOL    HW1  226   1.308   3.470   2.035  0.6923  0.3521 -2.1757
   31SOL    HW2  227   1.164   3.429   2.057  0.8827  1.2275  1.4019
   32SOL     OW  228   0.715   2.348   2.901 -0.3518 -0.2388 -0.8436
   32SOL    HW1  229   0.724   2.263   2.943  1.3794  0.6215  0.6831
   32SOL    HW2  230   0.621   2.359   2.888 -0.6004 -2.4998 -1.4353
   33SOL     OW  231   0.418   0.726   0.476  0.4371 -0.0302  0.5705
   33SOL    HW1  232   0.396   0.656   0.538  1.4165 -1.7029 -0.8748
   33SOL    HW2  233   0.503   0.758   0.507  0.1362  0.3126  1.0548
   34SOL     OW  234   0.042   0.713   2.978 -0.5528 -0.1748  0.5923
   34SOL    HW1  235   0.020   0.758   3.060 -1.9973 -0.2771  0.2763
   34SOL    HW2  236   0.056   0.784   2.915  2.2401 -0.0141  1.2652
   35SOL     OW  237   2.939   3.237   1.239  0.0564 -0.3763  0.3182
   35SOL    HW1  238   2.854   3.277   1.221 -0.6444 -1.2390  1.5449
   35SOL    HW2  239   2.923   3.143   1.229  1.3997 -0.4459 -1.4664
   36SOL     OW  240   1.735   0.905   0.942  0.3984 -0.1461  0.1921
   36SOL    HW1  241   1.793   0.923   0.868  0.4639 -1.8495 -0.2174
   36SOL    HW2  242   1.652   0.880   0.902 -0.9856  2.9911  0.7671
   37SOL     OW  243   0.516   0.603   0.886 -0.0413  0.3611  0.5529
   37SOL    HW1  244   0.465   0.570   0.959 -0.8590 -1.0742 -0.6134
   37SOL    HW2  245   0.514   0.532   0.821 -2.2694  2.7647 -2.3000
   38SOL     OW  246   3.018   3.389   3.033 -0.3258  0.2816 -0.5195
   38SOL    HW1  247   3.030   3.327   3.105  0.9301  0.0670 -0.8924
   38SOL    HW2  248   3.061   3.469   3.062  1.5588 -0.2701 -1.5845
   39SOL     OW  249   1.505   0.411   2.658  0.0131 -0.0403  0.2356
   39SOL    HW1  250   1.516   0.454   2.573  4.3221  0.7874  0.9783
   39SOL    HW2  251   1.468   0.326   2.637 -0.3038  0.6282 -2.2983
   40SOL     OW  252   0.548   3.119   1.090  0.5138  0.2800  0.0658
   40SOL    HW1  253   0.602   3.101   1.013  1.7121  0.8526  0.7310
   40SOL    HW2  254   0.507   3.036   1.111 -2.1181  0.6808 -2.8092
   41SOL     OW  255   0.588   0.531   2.494  0.0353 -0.1769 -0.2656
   41SOL    HW1  256   0.516   0.488   2.449 -0.8107  0.7423  0.1749
   41SOL    HW2  257   0.589   0.620   2.460  1.9237 -0.5447 -1.3452
   42SOL     OW  258   1.517   2.106   2.406  0.7277 -0.2166 -0.4761
   42SOL    HW1  259   1.445   2.047   2.431  0.9109 -0.9728 -1.6241
   42SOL    HW2  260   1.475   2.191   2.395 -0.3427 -0.9356 -2.5759
   43SOL     OW  261   0.812   0.897   3.147 -0.0134 -0.1717  0.3832
   43SOL    HW1  262   0.731   0.891   3.197  0.7742  0.2239  1.7659
   43SOL    HW2  263   0.852   0.979   3.175  2.5875 -1.9475  2.5325
   44SOL     OW  264   0.872   0.572   0.466 -0.6163 -0.1753  0.5587
   44SOL    HW1  265   0.795   0.536   0.422 -0.1215 -2.0179  1.1049
   44SOL    HW2  266   0.850   0.663   0.482 -0.6048  0.8628 -4.0084
   45SOL     OW  267   2.093   2.832   3.210 -0.3313  0.0392 -0.5351
   45SOL    HW1  268   2.151   2.771   3.165  0.9954  0.8769 -0.0064
   45SOL    HW2  269   2.061   2.783   3.286 -1.2689 -0.8096 -1.4283
   46SOL     OW  270   2.158   0.361   2.461  0.3342 -0.4627 -0.7182
   46SOL    HW1  271   2.218   0.348   2.387  0.9742 -1.7992 -0.0042
   46SOL    HW2  272   2.072   0.375   2.420  0.8610 -0.0300 -1.7256
   47SOL     OW  273   3.326   0.499   1.254  0.5294 -0.2988 -0.4357
   47SOL    HW1  274   3.370   0.581   1.274  1.3180 -0.9351  0.5095
   47SOL    HW2  275   3.328   0.449   1.336  1.7078 -2.0021 -1.4309
   48SOL     OW  276   1.969   0.190   1.357  0.6903  0.6693 -0.9417
   48SOL    HW1  277   1.983   0.112   1.411 -1.4179 -2.8018 -4.7978
   48SOL    HW2  278   1.880   0.219   1.381  1.1013  1.3498 -0.1917
   49SOL     OW  279   3.406   3.291   1.491 -0.2462 -0.2411 -0.0350
   49SOL    HW1  280   3.326   3.328   1.527  0.9942  1.4501  1.1353
   49SOL    HW2  281   3.398   3.197   1.507 -1.4521  0.0451  1.2000
   50SOL     OW  282   0.306   2.481   0.460  0.0493  0.1104 -0.2088
   50SOL    HW1  283   0.323   2.505   0.369 -0.2797  1.2523  0.0215
   50SOL    HW2  284   0.227   2.530   0.484  0.0006 -0.3501  0.6259
   51SOL     OW  285   1.811   2.471   1.480 -0.4251 -0.1624 -0.1320
   51SOL    HW1  286   1.863   2.397   1.450  2.4604  1.3960  0.6325
   51SOL    HW2  287   1.767   2.439   1.559 -1.3850 -1.7678 -1.2492
   52SOL     OW  288   1.055   2.135   1.848  0.6629 -0.4637 -0.4206
   52SOL    HW1  289   1.108   2.065   1.886  1.2872 -0.1594 -0.7144
   52SOL    HW2  290   1.000   2.166   1.920  0.5438 -1.1048 -0.2350
   53SOL     OW  291   1.296   3.630   3.355 -0.1287 -0.2570 -0.4213
   53SOL    HW1  292   1.272   3.541   3.330  0.8693 -0.6351 -0.0539
   53SOL    HW2  293   1.344   3.620   3.437 -0.4268  0.6680 -0.1194
   54SOL     OW  294   3.198   1.735   0.540 -0.0158 -0.6270  0.1398
   54SOL    HW1  295   3.163   1.820   0.516 -0.6447 -1.5582 -2.7377
   54SOL    HW2  296   3.127   1.673   0.520  1.5113 -2.0835 -1.1210
   55SOL     OW  297   3.712   3.733   2.841 -0.1489 -0.7119 -0.1518
   55SOL    HW1  298   3.662   3.651   2.838 -1.1021 -0.1612  0.4313
   55SOL    HW2  299   3.799   3.709   2.808  0.0251 -2.2796  1.3043
   56SOL     OW  300   0.296   0.551   2.388 -0.3697 -0.0169  0.7626
   56SOL    HW1  301   0.340   0.636   2.383 -0.3310 -0.0677  0.2537
   56SOL    HW2  302   0.332   0.500   2.316 -3.0039  0.7587 -1.2565
   57SOL     OW  303   2.080   3.677   2.492  0.2267  0.6778  0.1040
   57SOL    HW1  304   2.032   3.600   2.522 -1.7288  1.3305 -1.1460
   57SOL    HW2  305   2.053   3.747   2.551  0.1486  0.9027 -0.1932
   58SOL     OW  306   0.231   0.020   1.458 -0.2856  0.2160 -0.3378
   58SOL    HW1  307   0.325   0.001   1.451 -0.4649 -1.0383  0.2806
   58SOL    HW2  308   0.221   0.108   1.422  1.2050  0.5672  0.0446
   59SOL     OW  309   0.184   2.019   2.187 -0.5203 -0.4671 -0.5349
   59SOL    HW1  310   0.214   2.053   2.103 -0.0537  0.2492 -0.0888
   59SOL    HW2  311   0.116   2.080   2.215  1.2257  0.9676  0.8994
   60SOL     OW  312   1.855   0.267   2.550 -0.3003  0.3555  0.1668
   60SOL    HW1  313   1.784   0.230   2.497  1.7534 -1.5781 -1.3925
   60SOL    HW2  314   1.864   0.206   2.624  0.2830  0.0950 -0.1118
   61SOL     OW  315   3.601   2.762   3.393  0.1269 -0.1658 -0.3874
   61SOL    HW1  316   3.660   2.827   3.430 -1.4800  0.2034  1.7154
   61SOL    HW2  317   3.553   2.727   3.468 -2.0630 -0.6898 -1.9139
   62SOL     OW  318   2.260   2.130   2.721 -0.3849  0.0112 -0.4431
   62SOL    HW1  319   2.256   2.225   2.725  0.2121  0.0023  0.9812
   62SOL    HW2  320   2.314   2.111   2.643 -0.9314  0.7994 -1.0274
   63SOL     OW  321   0.161   1.952   0.166 -0.8813  0.1213 -0.2963
   63SOL    HW1  322   0.243   1.919   0.203  0.8750  1.2838 -2.8273
   63SOL    HW2  323   0.114   1.990   0.240  2.3260  2.2001  0.8746
   64SOL     OW  324   0.771   0.621   3.588  0.5799  0.3748  0.3077
   64SOL    HW1  325   0.771   0.691   3.652  0.2912  1.0502 -0.4123
   64SOL    HW2  326   0.811   0.547   3.633  1.3077  1.1347  0.9285
   65SOL     OW  327   1.024   0.525   0.680 -0.3998 -0.2750  0.2259
   65SOL    HW1  328   0.969   0.528   0.603  0.4720  0.2848 -0.3941
   65SOL    HW2  329   0.974   0.473   0.744 -0.9892 -1.0216 -0.8170
   66SOL     OW  330   2.527   0.464   3.143 -0.6066  0.1028 -0.2535
   66SOL    HW1  331   2.546   0.528   3.211  0.4404  0.4061 -0.8086
   66SOL    HW2  332   2.612   0.425   3.123 -1.0620 -0.6823 -0.6981
   67SOL     OW  333   3.535   1.515   0.960  0.0191 -0.2957  0.5592
   67SOL    HW1  334   3.456   1.489   1.008 -0.8800 -1.8367 -1.5904
   67SOL    HW2  335   3.512   1.502   0.868  2.5832 -0.1380 -0.1695
   68SOL     OW  336   3.075   0.517   2.397  0.2214  0.2857  0.2546
   68SOL    HW1  337   3.097   0.465   2.475 -0.6483 -0.6435 -0.1019
   68SOL    HW2  338   3.135   0.485   2.330  0.3608  0.4461  0.3034
   69SOL     OW  339   1.258   3.336   0.711  0.0047  0.7849 -0.3178
   69SOL    HW1  340   1.234   3.421   0.748  0.1957  0.6899  0.0269
   69SOL    HW2  341   1.176   3.286   0.711  0.0600  0.6819  0.2667
   70SOL     OW  342   3.497   0.489   0.061 -0.8487  0.2985  0.1135
   70SOL    HW1  343   3.533   0.408   0.026 -0.3394  1.2212 -1.6145
   70SOL    HW2  344   3.408   0.467   0.088  0.1747 -1.4788  2.3388
   71SOL     OW  345   1.968   1.741   2.790 -0.3955 -0.1063  0.1048
   71SOL    HW1  346   2.000   1.790   2.865 -1.3969 -0.3451  0.7043
   71SOL    HW2  347   2.013   1.779   2.715  0.6079  0.1438  0.8221
   72SOL     OW  348   1.275   2.003   2.476  0.0682 -0.5351 -0.3314
   72SOL    HW1  349   1.191   2.010   2.430 -0.3443 -0.6994  0.3853
   72SOL    HW2  350   1.252   1.969   2.563  0.5182  2.1249  0.9181
   73SOL     OW  351   3.565   3.633   0.484  0.2398  0.1892  0.2363
   73SOL    HW1  352   3.538   3.600   0.398 -0.1968 -0.6777  0.6981
   73SOL    HW2  353   3.494   3.609   0.542  0.9529 -0.0466  1.0273
   74SOL     OW  354   2.788   0.051   0.763  0.0831  0.1005 -0.6272
   74SOL    HW1  355   2.709   0.021   0.718 -0.5926  1.7032 -0.5778
   74SOL    HW2  356   2.775   0.026   0.854 -0.2120  0.0531 -0.6799
   75SOL     OW  357   1.125   1.860   1.288 -0.1430  0.1026 -0.5547
   75SOL    HW1  358   1.106   1.903   1.371 -1.4855  0.7969 -1.1984
   75SOL    HW2  359   1.134   1.767   1.310 -0.8163  0.2375  0.3083
   76SOL     OW  360   3.638   0.611   3.370 -0.3028  0.0272  0.3386
   76SOL    HW1  361   3.570   0.666   3.408  0.8692  2.9632 -1.4935
   76SOL    HW2  362   3.594   0.566   3.297 -0.7582  0.2988  0.4434
   77SOL     OW  363   0.508   1.760   1.251 -0.2364  0.3826  0.1428
   77SOL    HW1  364   0.522   1.854   1.237 -0.1442  0.4957  0.8981
   77SOL    HW2  365   0.526   1.720   1.167  1.7425  0.8358  0.2797
   78SOL     OW  366   0.064   1.333   1.018 -0.2595 -0.3637 -0.3869
   78SOL    HW1  367   0.007   1.406   0.995 -0.2314 -0.2011  0.0509
   78SOL    HW2  368   0.105   1.308   0.935  0.1878  0.5105 -0.4366
   79SOL     OW  369   0.561   1.871   2.914  0.0888 -0.2381 -0.0681
   79SOL    HW1  370   0.578   1.873   3.008  2.3355  0.5728 -0.4218
   79SOL    HW2  371   0.507   1.949   2.897  1.2694  0.6829  0.3141
   80SOL     OW  372   2.635   0.124   2.847  0.7022  0.1788 -0.1827
   80SOL    HW1  373   2.558   0.181   2.841  1.1776  0.7265 -1.4954
   80SOL    HW2  374   2.621   0.058   2.778  0.7652 -0.5588  0.4883
   81SOL     OW  375   0.184   2.301   1.943 -0.1690 -0.7420 -0.1058
   81SOL    HW1  376   0.181   2.386   1.900  1.0580 -2.1687 -3.3542
   81SOL    HW2  377   0.276   2.286   1.962 -0.2316 -1.7025 -0.4716
   82SOL     OW  378   2.187   3.247   1.358 -0.3628  0.7172  0.3703
   82SOL    HW1  379   2.103   3.291   1.372 -1.2892  0.4849 -3.3378
   82SOL    HW2  380   2.164   3.160   1.327  1.3181  0.1237  0.6625
   83SOL     OW  381   2.517   1.600   0.019  0.2998 -0.2405  0.2564
   83SOL    HW1  382   2.457   1.531  -0.011 -2.0544  1.3937  0.9281
   83SOL    HW2  383   2.543   1.572   0.107  0.0625 -0.6964  0.1871
   84SOL     OW  384   1.849   3.087   0.469 -0.5342  0.2744  0.1990
   84SOL    HW1  385   1.810   3.153   0.526  0.5893  0.3100  0.9587
   84SOL    HW2  386   1.882   3.020   0.529 -2.3513 -1.4230 -0.5727
   85SOL     OW  387   1.981   1.205   0.120  0.0142 -0.3488 -0.8185
   85SOL    HW1  388   2.000   1.114   0.097  0.1584 -0.6738  0.4946
   85SOL    HW2  389   2.064   1.239   0.151 -0.5908 -0.5815  1.1864
   86SOL     OW  390   0.398   2.141   1.989  0.4532  0.2590 -0.1674
   86SOL    HW1  391   0.431   2.053   2.010 -0.5175 -0.4527 -1.4735
   86SOL    HW2  392   0.362   2.133   1.901 -2.8987  1.0196  0.9635
   87SOL     OW  393   2.014   1.970   1.836 -0.4628 -0.3079 -0.2215
   87SOL    HW1  394   1.935   2.004   1.879 -1.5284  0.5461 -2.6969
   87SOL    HW2  395   2.086   2.011   1.883 -1.4037 -1.3441  2.3217
   88SOL     OW  396   1.079   1.630   3.004 -0.6994 -0.2698 -0.1252
   88SOL    HW1  397   1.030   1.565   2.954 -1.2951  1.0090 -1.2781
   88SOL    HW2  398   1.171   1.609   2.987 -0.7636 -2.4330  1.7215
   89SOL     OW  399   1.667   0.537   0.712  0.3012 -0.0463 -0.0533
   89SOL    HW1  400   1.694   0.578   0.793  0.3514  0.6534 -0.4172
   89SOL    HW2  401   1.604   0.598   0.674  0.0763 -0.4925 -0.4100
   90SOL     OW  402   1.457   1.545   0.696 -0.5116 -0.4546  0.5513
   90SOL    HW1  403   1.432   1.632   0.726 -2.0084 -0.8170  0.4104
   90SOL    HW2  404   1.378   1.509   0.655  0.5055 -1.2974 -0.7606
   91SOL     OW  405   1.363   1.670   2.988 -0.1577  0.0870 -0.5037
   91SOL    HW1  406   1.379   1.653   2.895  0.7592 -1.3161 -0.1103
   91SOL    HW2  407   1.448   1.657   3.030 -0.0729  2.6349  0.3238
   92SOL     OW  408   0.267   0.737   2.090  0.2233 -0.4424 -0.1551
   92SOL    HW1  409   0.307   0.664   2.138  1.3961 -1.0071 -1.9034
   92SOL    HW2  410   0.239   0.797   2.159  0.0073 -2.1227  1.3069
   93SOL     OW  411   0.269   2.264   0.181  0.2869 -0.8669 -0.7223
   93SOL    HW1  412   0.277   2.245   0.088  1.0989 -1.8784 -0.4623
   93SOL    HW2  413   0.295   2.355   0.190  1.8910 -1.2416 -1.2772
   94SOL     OW  414   1.251   0.657   2.716 -0.3529 -0.1420 -0.4618
   94SOL    HW1  415   1.181   0.616   2.666  0.2162 -2.0389  0.1859
   94SOL    HW2  416   1.331   0.637   2.668  0.1086 -1.2700  0.7029
   95SOL     OW  417   1.128   3.538   0.848  0.2898  0.3498 -0.1946
   95SOL    HW1  418   1.175   3.514   0.927  0.2286  0.4773 -0.1198
   95SOL    HW2  419   1.044   3.491   0.855 -0.3944  1.6426  0.6094
   96SOL     OW  420   2.429   2.479   1.618 -0.3337 -0.2022  0.0013
   96SOL    HW1  421   2.399   2.518   1.700 -2.6866 -0.6863 -0.5464
   96SOL    HW2  422   2.363   2.506   1.554  2.1441  1.3446 -2.1078
   97SOL     OW  423   2.792   2.921   3.061 -0.2117 -0.0176  0.0317
   97SOL    HW1  424   2.738   2.979   3.115 -1.1083 -0.7190 -0.0708
   97SOL    HW2  425   2.737   2.902   2.985 -0.5600 -2.1429  0.7462
   98SOL     OW  426   3.291   2.806   3.638 -0.0292 -0.3314 -0.5868
   98SOL    HW1  427   3.330   2.724   3.609  0.9705  0.3063 -1.0911
   98SOL    HW2  428   3.352   2.840   3.702  0.2680  0.6858 -1.3892
   99SOL     OW  429   3.561   2.744   3.051  0.3581  0.0496 -0.3113
   99SOL    HW1  430   3.501   2.712   3.118  0.2039  0.0391 -0.4538
   99SOL    HW2  431   3.626   2.794   3.100  0.4725 -0.2895 -0.1145
  100SOL     OW  432   3.582   1.028   1.929 -0.5788  0.4225  0.4277
  100SOL    HW1  433   3.538   0.983   2.001  0.1348 -0.3452  0.3914
  100SOL    HW2  434   3.668   0.987   1.923  0.3509  2.1957  0.7848
  101SOL     OW  435   3.270   0.210   3.497 -0.1387  0.2398  0.0015
  101SOL    HW1  436   3.207   0.168   3.555  0.9060  0.4440  1.3130
  101SOL    HW2  437   3.221   0.283   3.459 -1.1495 -0.5248 -0.2169
  102SOL     OW  438   2.245   0.811   3.242 -0.7032  0.0240 -0.6278
  102SOL    HW1  439   2.149   0.817   3.244 -0.8649 -1.9210 -0.6418
  102SOL    HW2  440   2.267   0.821   3.150 -0.8980  0.3825 -0.6382
  103SOL     OW  441   0.265   1.904   3.489 -0.0598 -0.0735  0.2058
  103SOL    HW1  442   0.233   1.861   3.410 -0.8855  3.4944 -1.5897
  103SOL    HW2  443   0.206   1.874   3.558 -2.5413  0.5465 -1.5508
  104SOL     OW  444   3.014   2.767   2.107 -0.5511 -0.4328 -0.0907
  104SOL    HW1  445   3.048   2.835   2.165 -0.0120  0.3846 -1.3214
  104SOL    HW2  446   3.072   2.693   2.120  2.4214  1.1717 -2.7202
  105SOL     OW  447   3.478   2.621   3.626  0.6356 -0.3064  0.2411
  105SOL    HW1  448   3.446   2.531   3.629 -1.2407  0.2884 -0.4319
  105SOL    HW2  449   3.490   2.646   3.718 -0.8526 -0.5817  0.5288
  106SOL     OW  450   0.514  -0.024   1.475 -0.3539 -0.0224 -0.4459
  106SOL    HW1  451   0.506   0.042   1.543 -1.8036  0.1265 -0.7388
  106SOL    HW2  452   0.490   0.021   1.394  3.0960  0.3279 -1.4467
  107SOL     OW  453   3.313   3.294   3.310  0.6765 -0.2217  0.0487
  107SOL    HW1  454   3.340   3.225   3.249  2.8590 -0.9166  1.6779
  107SOL    HW2  455   3.288   3.247   3.390 -0.8499  0.7477  0.1881
  108SOL     OW  456   2.058   3.270   2.041 -0.0958 -0.4953  0.2961
  108SOL    HW1  457   2.134   3.322   2.067  0.0031 -1.3431  1.7976
  108SOL    HW2  458   1.988   3.334   2.031  0.1432  0.0073  1.6232
  109SOL     OW  459   2.198   2.292   0.048  0.3534  0.2005  0.2356
  109SOL    HW1  460   2.265   2.278  -0.018 -1.4623  1.0512 -1.8943
  109SOL    HW2  461   2.169   2.204   0.073  0.0508 -0.1207 -1.2038
  110SOL     OW  462   1.893   2.146   0.517  0.1913 -0.2851  0.1581
  110SOL    HW1  463   1.878   2.151   0.611 -2.4822  3.9925 -0.2216
  110SOL    HW2  464   1.979   2.188   0.504 -0.3058  0.9325  0.6358
  111SOL     OW  465   0.156   3.197   3.132  0.5586  0.0105  0.1133
  111SOL    HW1  466   0.235   3.147   3.114 -0.1148 -0.8217 -0.5995
  111SOL    HW2  467   0.091   3.131   3.157 -0.0732  0.6229  0.1162
  112SOL     OW  468   3.039   1.566   0.387 -0.3875  0.1863  0.6485
  112SOL    HW1  469   2.946   1.572   0.368 -0.0535 -0.6307 -1.6215
  112SOL    HW2  470   3.080   1.626   0.324  0.6631 -0.2222  0.9284
  113SOL     OW  471   2.525   3.046   2.976 -0.6246 -0.4731  0.5584
  113SOL    HW1  472   2.488   2.967   2.937 -1.9301  1.3846 -2.3336
  113SOL    HW2  473   2.474   3.060   3.056 -3.6775 -0.0827 -1.3176
  114SOL     OW  474   1.458   1.327   3.320  0.0802  0.0699  0.1267
  114SOL    HW1  475   1.490   1.242   3.290  0.6678  0.6154 -0.8244
  114SOL    HW2  476   1.373   1.338   3.277 -0.8586 -0.8167  1.6667
  115SOL     OW  477   0.402   2.141   0.419 -0.7270 -0.2915 -0.3283
  115SOL    HW1  478   0.386   2.183   0.334 -0.4573 -1.2875 -0.8868
  115SOL    HW2  479   0.483   2.093   0.407 -1.3645 -1.5106  0.0728
  116SOL     OW  480   3.033   3.366   0.386  0.4962  0.9794 -0.8251
  116SOL    HW1  481   3.045   3.295   0.323 -0.5838  0.2078 -0.1851
  116SOL    HW2  482   3.081   3.440   0.348  1.6574 -0.0859 -1.4895
  117SOL     OW  483   1.373   3.163   3.646  0.4465 -0.3094 -0.0212
  117SOL    HW1  484   1.469   3.163   3.653  0.3820  0.1288  1.2175
  117SOL    HW2  485   1.346   3.242   3.693 -0.5254 -0.4996 -0.2468
  118SOL     OW  486   3.359   2.681   3.306 -0.2891  0.8774 -0.1398
  118SOL    HW1  487   3.313   2.729   3.236 -0.6618  2.5855  1.2034
  118SOL    HW2  488   3.441   2.730   3.318 -0.1935  0.5523  0.5458
  119SOL     OW  489   0.399   0.538   2.812 -0.2579 -0.1286  0.2207
  119SOL    HW1  490   0.318   0.569   2.771 -0.4403 -0.5196  0.2751
  119SOL    HW2  491   0.396   0.573   2.900 -0.0334  0.4293  0.0077
  120SOL     OW  492   0.728   1.210   3.686 -0.1750  0.7382  0.2158
  120SOL    HW1  493   0.763   1.138   3.635  0.2100  0.7691  0.4354
  120SOL    HW2  494   0.787   1.218   3.762 -0.6337  0.8042  0.5740
  121SOL     OW  495   2.330   1.950   0.824 -0.2311  0.1206 -0.1514
  121SOL    HW1  496   2.387   2.023   0.849  1.9784 -1.5883  0.1464
  121SOL    HW2  497   2.351   1.882   0.888 -1.8481 -0.9549 -0.7301
  122SOL     OW  498   0.917   2.315   3.098 -1.0875 -0.1397 -0.3263
  122SOL    HW1  499   0.890   2.228   3.127 -0.0584 -0.2688  0.2903
  122SOL    HW2  500   0.846   2.344   3.042 -2.9476 -0.0966  1.8895
  123SOL     OW  501   3.300   0.886   2.191  0.4088 -0.4101  0.8698
  123SOL    HW1  502   3.233   0.827   2.225  1.1761 -2.3134 -0.6958
  123SOL    HW2  503   3.291   0.966   2.242 -0.6966 -1.8836  3.1092
  124SOL     OW  504   1.261   0.385   0.009  0.0323 -0.8740  0.2716
  124SOL    HW1  505   1.352   0.384  -0.018 -0.0093 -1.3267  0.1279
  124SOL    HW2  506   1.263   0.411   0.101  0.3695 -1.5604  0.4680
  125SOL     OW  507   2.980   1.766   3.683 -0.7279 -0.2167  0.3230
  125SOL    HW1  508   2.948   1.688   3.639  1.7086  0.2683 -2.6416
  125SOL    HW2  509   2.933   1.838   3.641 -1.7052  0.0591  1.8250
  126SOL     OW  510   0.824   1.489   1.071  0.3719 -0.0788 -0.0702
  126SOL    HW1  511   0.822   1.416   1.009  2.5517 -1.4912  1.3608
  126SOL    HW2  512   0.800   1.450   1.155  2.1189  0.6554  0.8260
  127SOL     OW  513   1.624   1.674   2.330  0.4358 -0.3292 -0.2844
  127SOL    HW1  514   1.603   1.732   2.404  1.2024  0.0790 -0.3821
  127SOL    HW2  515   1.649   1.733   2.259  0.1797 -0.7417 -0.7236
  128SOL     OW  516   1.206   1.886   3.566 -0.1552 -0.2070  0.3380
  128SOL    HW1  517   1.166   1.938   3.497 -1.1683 -0.3426  0.7957
  128SOL    HW2  518   1.220   1.800   3.527  0.3472  0.0431 -0.0382
  129SOL     OW  519   2.258   2.966   1.063  0.1880  0.3929  0.5568
  129SOL    HW1  520   2.178   3.008   1.030 -0.8900 -1.5570  0.5180
  129SOL    HW2  521   2.235   2.873   1.070  2.0250 -0.0206  1.8948
  130SOL     OW  522   0.173   0.408   2.037 -0.0292 -0.1308  0.2682
  130SOL    HW1  523   0.107   0.477   2.024 -1.6963 -1.7422 -0.1545
  130SOL    HW2  524   0.252   0.456   2.061 -1.4843  1.8704  1.4432
  131SOL     OW  525   0.754   0.579   3.196 -0.1464 -0.0406 -0.2667
  131SOL    HW1  526   0.705   0.600   3.276 -0.7470  0.9281 -0.8625
  131SOL    HW2  527   0.778   0.487   3.206 -1.4329 -0.3329  0.3999
  132SOL     OW  528   1.757   3.502   3.294  0.0343  0.5218 -0.2422
  132SOL    HW1  529   1.830   3.563   3.282  1.1019 -0.5327  0.7581
  132SOL    HW2  530   1.727   3.518   3.383  1.9158 -2.0147  0.9587
  133SOL     OW  531   0.431   1.628   1.506 -0.0900 -0.3904  0.3528
  133SOL    HW1  532   0.345   1.593   1.482 -0.9769  1.6887  0.2913
  133SOL    HW2  533   0.472   1.653   1.423 -1.0792  2.1458  0.5283
  134SOL     OW  534   2.426   3.218   1.216  0.6165 -0.3192  0.1119
  134SOL    HW1  535   2.344   3.247   1.258  1.0569 -0.2278  0.9429
  134SOL    HW2  536   2.450   3.138   1.263  1.4801  0.1552  0.5019
  135SOL     OW  537   1.140   0.019   2.072  0.0472 -0.7326 -0.0181
  135SOL    HW1  538   1.198  -0.028   2.133 -0.5868  0.5948  1.6964
  135SOL    HW2  539   1.193   0.093   2.041 -0.2274 -0.3290  0.4446
  136SOL     OW  540   0.945   0.191   1.913  0.1389  0.1562 -0.2105
  136SOL    HW1  541   1.000   0.114   1.927  1.3295  1.1098  0.6217
  136SOL    HW2  542   0.977   0.255   1.977 -0.5594  1.4680 -1.1234
  137SOL     OW  543   1.989   3.147   2.770 -0.2416  0.4194 -0.1755
  137SOL    HW1  544   1.975   3.145   2.865  0.6601  0.7647 -0.0245
  137SOL    HW2  545   1.902   3.160   2.733 -0.7182 -0.5520  0.5638
  138SOL     OW  546   2.383   1.634   3.392  0.4037  0.1565 -0.2613
  138SOL    HW1  547   2.314   1.655   3.330  0.0241  0.5243  0.2755
  138SOL    HW2  548   2.344   1.653   3.478  0.7327 -0.8390  0.1185
  139SOL     OW  549   1.032   1.868   0.663 -0.3262 -0.4334 -0.3249
  139SOL    HW1  550   1.044   1.962   0.652 -0.2590 -0.4101 -0.0635
  139SOL    HW2  551   0.979   1.860   0.743 -1.0693 -0.5784 -0.8186
  140SOL     OW  552   0.995   2.060   2.787 -0.2217  0.2431 -0.1762
  140SOL    HW1  553   0.914   2.072   2.836  1.8120 -0.3554  3.7257
  140SOL    HW2  554   1.003   1.965   2.776 -0.1751  0.3168 -0.8309
  141SOL     OW  555   0.035   1.366   2.001 -0.1206 -0.5928  0.0444
  141SOL    HW1  556   0.041   1.275   1.971 -2.0559 -0.5680 -0.5022
  141SOL    HW2  557  -0.013   1.360   2.083  2.7593 -0.3640  1.8971
  142SOL     OW  558   3.099   3.018   2.006 -0.5088  0.0948  0.3236
  142SOL    HW1  559   3.176   3.074   2.020  1.4444 -2.6442  1.7285
  142SOL    HW2  560   3.113   2.979   1.920 -0.9298  0.4190  0.1062
  143SOL     OW  561   3.638   1.342   2.233 -0.1055 -0.2958  0.0020
  143SOL    HW1  562   3.607   1.259   2.270 -0.0134  0.6063  2.2467
  143SOL    HW2  563   3.559   1.394   2.223 -0.0075 -0.1708 -0.1216
  144SOL     OW  564   2.645   3.194   0.478  0.1671 -0.2819  0.0874
  144SOL    HW1  565   2.569   3.251   0.481  0.6098  0.4823 -1.9974
  144SOL    HW2  566   2.697   3.219   0.555 -1.3986 -0.4827  1.2555
  145SOL     OW  567   2.954   0.000   3.395  0.5475 -0.0078 -0.2619
  145SOL    HW1  568   3.036   0.029   3.437  0.5101 -1.7706  1.1433
  145SOL    HW2  569   2.915   0.081   3.361  1.4740  1.2907  1.5704
  146SOL     OW  570   0.228   1.118   2.837  0.0738 -0.0212  0.3718
  146SOL    HW1  571   0.252   1.195   2.889  0.2818  0.6187 -0.6408
  146SOL    HW2  572   0.299   1.056   2.852 -1.1086 -0.9136  2.8792
  147SOL     OW  573   1.436   2.198   0.311  0.5987 -0.1039  0.0321
  147SOL    HW1  574   1.511   2.221   0.365  0.0138  0.4905  0.6243
  147SOL    HW2  575   1.471   2.140   0.244  1.4143 -0.5403  0.8155
  148SOL     OW  576   1.233   0.993   2.219  0.1917  0.0877  0.3008
  148SOL    HW1  577   1.177   0.919   2.243  0.0854 -0.3328 -1.1590
  148SOL    HW2  578   1.322   0.957   2.223  0.0438 -1.3554 -3.9256
  149SOL     OW  579   1.301   0.621   2.158  0.3077 -0.2452  0.2787
  149SOL    HW1  580   1.212   0.655   2.145 -0.4141 -1.4499  1.7244
  149SOL    HW2  581   1.333   0.669   2.235 -0.6305 -2.5111  2.1898
  150SOL     OW  582   2.314   1.923   0.543 -0.0106 -0.7135  0.3758
  150SOL    HW1  583   2.340   1.832   0.529 -1.4727 -1.1784  0.5216
  150SOL    HW2  584   2.347   1.943   0.631  0.5395 -1.0171  0.2435
  151SOL     OW  585   2.818   2.683   2.374  0.2525  0.0079 -0.4020
  151SOL    HW1  586   2.859   2.600   2.401 -3.8061 -1.2415  3.0828
  151SOL    HW2  587   2.827   2.740   2.451 -1.2806  0.9581 -0.8876
  152SOL     OW  588   2.827   2.634   0.233  0.3232 -0.4447 -0.1212
  152SOL    HW1  589   2.873   2.616   0.315 -2.1742 -2.6258  0.9906
  152SOL    HW2  590   2.818   2.548   0.192 -0.4966  0.2800 -1.5397
  153SOL     OW  591   2.231   1.541   0.876  0.0879  0.3025 -0.1843
  153SOL    HW1  592   2.185   1.624   0.870  0.7250  0.7250  0.5918
  153SOL    HW2  593   2.286   1.538   0.798  1.8917  1.7622  0.9491
  154SOL     OW  594   0.082   3.675   0.539 -0.3391 -0.5716 -0.4528
  154SOL    HW1  595  -0.011   3.656   0.551 -0.5647  0.6297 -0.1215
  154SOL    HW2  596   0.093   3.678   0.444 -0.6221 -0.8029 -0.4963
  155SOL     OW  597   3.119   2.003   0.612  0.4439 -0.5671  0.2051
  155SOL    HW1  598   3.038   2.052   0.601  0.7362 -0.2835 -0.7907
  155SOL    HW2  599   3.186   2.069   0.624  0.3874 -0.8248  2.2879
  156SOL     OW  600   2.905   0.984   2.431  0.3711 -0.4079 -0.2108
  156SOL    HW1  601   2.910   1.034   2.350  0.3551 -0.5852 -0.3235
  156SOL    HW2  602   2.899   1.049   2.501  0.1125 -0.2607 -0.3731
  157SOL     OW  603   1.741   0.750   0.019  0.0889 -0.0124 -0.4633
  157SOL    HW1  604   1.694   0.689   0.076 -2.1976 -0.9613 -3.1751
  157SOL    HW2  605   1.672   0.799  -0.025  1.7953  1.3716 -1.6841
  158SOL     OW  606   3.183   0.440   2.664 -0.0047  0.0866 -0.1144
  158SOL    HW1  607   3.273   0.414   2.682 -0.4217 -0.7381  0.8610
  158SOL    HW2  608   3.135   0.417   2.743 -1.2289 -0.2354 -0.9195
  159SOL     OW  609   1.134   1.036   1.530 -0.4202 -0.2368  0.1415
  159SOL    HW1  610   1.179   1.118   1.547  0.9779 -0.9180 -0.1531
  159SOL    HW2  611   1.067   1.031   1.599  0.8516  0.1551  1.4655
  160SOL     OW  612   1.515   2.699   0.958 -0.0783 -0.0106 -0.5761
  160SOL    HW1  613   1.562   2.731   0.881  0.8554  0.3525  0.1259
  160SOL    HW2  614   1.518   2.771   1.020  0.4756 -0.7964  0.3470
  161SOL     OW  615   0.565   0.241   1.313  0.1835  0.2782  0.2149
  161SOL    HW1  616   0.479   0.217   1.277 -0.7630  0.3347  2.2802
  161SOL    HW2  617   0.626   0.225   1.241 -1.9025  3.7250 -2.6479
  162SOL     OW  618   3.423   2.818   2.309 -0.2217 -0.3254 -0.5398
  162SOL    HW1  619   3.341   2.789   2.349 -0.2049 -1.3682 -1.2490
  162SOL    HW2  620   3.488   2.807   2.378 -0.5484 -0.1415 -0.1952
  163SOL     OW  621   0.763   2.445   2.658 -0.4382 -0.1062  0.6265
  163SOL    HW1  622   0.749   2.432   2.752 -0.0738  0.1995  0.7260
  163SOL    HW2  623   0.744   2.360   2.619 -2.3899  0.2197  0.7647
  164SOL     OW  624   0.123   0.175   1.101 -0.3882 -0.6136  0.0059
  164SOL    HW1  625   0.119   0.235   1.026 -0.6065  0.9510  1.2152
  164SOL    HW2  626   0.031   0.165   1.128 -0.3307 -1.3288 -0.0456
  165SOL     OW  627   2.385   1.784   0.149  0.2325  0.2613  0.1530
  165SOL    HW1  628   2.442   1.708   0.154  0.7402  0.6872  1.3487
  165SOL    HW2  629   2.309   1.761   0.203  1.6477  1.5661  2.9408
  166SOL     OW  630   0.407   0.786   2.451 -0.2164  0.0445  0.1584
  166SOL    HW1  631   0.373   0.845   2.518 -0.2828  0.4352 -0.2142
  166SOL    HW2  632   0.390   0.831   2.369 -1.2809 -1.0021 -0.2100
  167SOL     OW  633   2.781   3.268   2.914  0.1114  0.1087  0.2573
  167SOL    HW1  634   2.861   3.320   2.923  1.2754 -1.6267  0.3775
  167SOL    HW2  635   2.750   3.253   3.003  0.3095 -0.1919  0.2763
  168SOL     OW  636   2.408   2.570   0.502  0.0485 -0.4081 -0.6275
  168SOL    HW1  637   2.409   2.654   0.455  2.0431 -0.0580 -0.0503
  168SOL    HW2  638   2.315   2.554   0.520 -0.4034  1.5874 -0.9368
  169SOL     OW  639   1.763   2.848   1.773  0.1441  0.5436  0.2932
  169SOL    HW1  640   1.759   2.905   1.850 -0.1860 -0.6684  1.1994
  169SOL    HW2  641   1.816   2.773   1.800  1.2625  0.7806 -1.1427
  170SOL     OW  642   0.854   2.590   2.387 -0.0127  0.5583  0.0951
  170SOL    HW1  643   0.917   2.519   2.376 -0.0857  0.4329  0.4728
  170SOL    HW2  644   0.861   2.641   2.306  1.6014  1.3527  0.6918
  171SOL     OW  645   0.629   3.679   1.809 -0.0079 -0.1284  0.4779
  171SOL    HW1  646   0.593   3.598   1.847  0.6909 -1.2655 -1.1661
  171SOL    HW2  647   0.557   3.742   1.815 -0.9525 -1.2045  0.7680
  172SOL     OW  648   3.063   2.954   3.721 -0.6843 -0.3792 -0.1429
  172SOL    HW1  649   3.007   2.886   3.758 -1.2407 -0.0993 -0.4618
  172SOL    HW2  650   3.125   2.907   3.665 -1.0517 -0.6330 -0.3418
  173SOL     OW  651   2.775   0.445   0.526 -0.3954 -0.6464  0.1735
  173SOL    HW1  652   2.706   0.478   0.468 -0.9106 -1.0840  0.5345
  173SOL    HW2  653   2.821   0.524   0.556  0.0702 -0.4217 -1.0514
  174SOL     OW  654   0.775   0.804   1.916  0.5703 -0.5324 -0.3371
  174SOL    HW1  655   0.727   0.881   1.882  0.7231  0.1311  0.9047
  174SOL    HW2  656   0.866   0.833   1.921  0.7379 -1.0276 -0.5050
  175SOL     OW  657   0.964   1.227   2.578 -0.2561 -0.3457 -0.1981
  175SOL    HW1  658   0.953   1.233   2.483  0.3756  1.9773 -0.2037
  175SOL    HW2  659   0.903   1.293   2.613  2.3451  1.7761  0.6865
  176SOL     OW  660   3.004   2.545   0.433  0.1657  0.3769  0.2570
  176SOL    HW1  661   3.075   2.492   0.397 -0.8269 -0.2956 -0.7722
  176SOL    HW2  662   2.973   2.497   0.509 -1.3962 -1.1373 -1.2387
  177SOL     OW  663   0.921   1.120   3.240 -0.0581  0.4601 -0.3132
  177SOL    HW1  664   0.991   1.166   3.287  0.0527  0.9075 -0.9134
  177SOL    HW2  665   0.883   1.187   3.182  1.7581 -0.7611 -3.1009
  178SOL     OW  666   2.823   2.450   1.037  0.4234 -0.0827 -0.0700
  178SOL    HW1  667   2.861   2.539   1.037  0.7320 -0.1943  1.1510
  178SOL    HW2  668   2.805   2.432   1.130 -0.8046 -0.8149 -0.4382
  179SOL     OW  669   3.562   0.542   1.548  0.2061  0.1473 -0.2194
  179SOL    HW1  670   3.518   0.601   1.608  0.6264 -1.3925  1.7461
  179SOL    HW2  671   3.555   0.456   1.590  1.3632 -0.8514 -1.9300
  180SOL     OW  672   3.387   3.564   1.299 -0.7256  0.4577  0.1433
  180SOL    HW1  673   3.378   3.649   1.256 -0.7495  1.0405  1.2822
  180SOL    HW2  674   3.366   3.580   1.391  0.4724 -0.5190  0.6239
  181SOL     OW  675   1.070   2.586   2.621 -0.8310 -0.0059 -0.0248
  181SOL    HW1  676   1.075   2.501   2.666 -0.4164  0.3985  0.7203
  181SOL    HW2  677   1.007   2.573   2.551  1.0047 -1.6564 -1.4927
  182SOL     OW  678   1.535   0.893   0.331 -0.3188  0.2739  0.1558
  182SOL    HW1  679   1.477   0.936   0.392 -0.7264  2.5217 -1.6758
  182SOL    HW2  680   1.496   0.909   0.245  0.4221 -2.4150 -0.7981
  183SOL     OW  681   0.111   0.456   1.164  0.4567 -0.4721  0.0752
  183SOL    HW1  682   0.106   0.508   1.244 -1.7972 -2.3392  1.2542
  183SOL    HW2  683   0.028   0.471   1.120  0.5259 -1.6439 -0.4961
  184SOL     OW  684   1.639   2.910   0.787 -0.1046  0.2647  0.1236
  184SOL    HW1  685   1.732   2.931   0.780  0.3200 -1.5351 -0.2823
  184SOL    HW2  686   1.599   2.987   0.828  1.8794  0.3110  2.1740
  185SOL     OW  687   3.544   0.490   0.789  0.5107  0.7073  0.1315
  185SOL    HW1  688   3.591   0.519   0.711 -1.5659  0.7095 -1.1736
  185SOL    HW2  689   3.459   0.461   0.757  1.0736 -3.4530  1.7861
  186SOL     OW  690   3.367   3.385   2.774  0.8190 -0.1298 -0.0389
  186SOL    HW1  691   3.356   3.302   2.728  1.2808 -1.0905  1.5401
  186SOL    HW2  692   3.278   3.416   2.789  0.5737 -1.3353  1.1051
  187SOL     OW  693   3.324   3.200   1.865 -0.3644  0.3650 -0.1555
  187SOL    HW1  694   3.269   3.157   1.799 -0.1096 -0.8895  0.4232
  187SOL    HW2  695   3.317   3.293   1.845 -1.9663  0.1645 -0.6686
  188SOL     OW  696   0.314   1.645   0.125 -0.1537 -0.3069 -0.2689
  188SOL    HW1  697   0.324   1.582   0.196 -2.7473 -2.5088 -1.6721
  188SOL    HW2  698   0.222   1.671   0.130  0.6091  2.8197 -0.3093
  189SOL     OW  699   3.683   1.249   2.643 -0.1453 -0.0367 -0.0335
  189SOL    HW1  700   3.758   1.289   2.688  0.0340 -1.6626  1.1962
  189SOL    HW2  701   3.624   1.323   2.624  0.5217  0.9146  1.4335
  190SOL     OW  702   2.356   2.643   1.861  0.1508  0.1587 -0.7513
  190SOL    HW1  703   2.293   2.683   1.801  0.6632 -1.4905 -2.5067
  190SOL    HW2  704   2.306   2.627   1.941 -0.7636  1.7409 -0.9781
  191SOL     OW  705   1.642   0.164   0.297 -0.0121  0.5372 -0.6664
  191SOL    HW1  706   1.643   0.070   0.280  1.7345 -0.1415  2.4524
  191SOL    HW2  707   1.554   0.181   0.331  0.7033 -0.8560  2.2341
  192SOL     OW  708   0.627   3.206   2.246 -0.3923  0.7051 -0.0326
  192SOL    HW1  709   0.716   3.241   2.248 -0.0340 -0.1208  2.5461
  192SOL    HW2  710   0.573   3.279   2.216  0.8663  2.0590  0.8763
  193SOL     OW  711   2.975   1.870   1.506  0.0530  0.4745 -0.3354
  193SOL    HW1  712   2.971   1.788   1.555  0.5536  1.1624  0.8832
  193SOL    HW2  713   2.979   1.842   1.414  1.7121 -0.9335  0.1078
  194SOL     OW  714   2.760   2.549   0.767  0.1490 -0.1429 -0.0031
  194SOL    HW1  715   2.684   2.497   0.739 -0.0755 -1.6153  3.0093
  194SOL    HW2  716   2.834   2.491   0.754  0.4571  0.3760 -0.5914
  195SOL     OW  717   2.660   3.027   3.393  0.1124  0.3535  0.2039
  195SOL    HW1  718   2.579   2.976   3.392  0.9370 -1.0063  0.2861
  195SOL    HW2  719   2.666   3.060   3.482 -0.4135  0.5665  0.1637
  196SOL     OW  720   2.439   3.454   3.512  0.0088 -0.1776 -0.5197
  196SOL    HW1  721   2.446   3.430   3.605  0.8575  0.8312 -0.2871
  196SOL    HW2  722   2.515   3.413   3.471  0.9905  1.3222 -0.2790
  197SOL     OW  723   0.165   1.679   2.074 -0.3785 -0.1059 -0.1995
  197SOL    HW1  724   0.188   1.765   2.110 -1.2291 -0.5758  1.5847
  197SOL    HW2  725   0.069   1.679   2.073 -0.3848 -1.0290 -0.2034
  198SOL     OW  726   1.355   0.936   1.360  0.1522  0.2654 -0.5326
  198SOL    HW1  727   1.406   1.017   1.362  0.0714  0.3135  2.1127
  198SOL    HW2  728   1.296   0.942   1.435  0.2010 -2.2745 -0.1955
  199SOL     OW  729   3.225   2.193   2.765  1.0386  0.4357 -1.0254
  199SOL    HW1  730   3.158   2.226   2.705 -0.1790 -2.0190 -1.1479
  199SOL    HW2  731   3.176   2.168   2.844  1.3964 -3.0616 -1.7693
  200SOL     OW  732   1.757   2.428   1.038 -0.3784 -0.0500 -0.5269
  200SOL    HW1  733   1.715   2.462   0.959 -0.8580  2.3242  0.6581
  200SOL    HW2  734   1.684   2.417   1.100 -0.2259 -3.2557 -0.7612
  201SOL     OW  735   3.301   1.158   2.290 -0.2689  0.0700 -0.1972
  201SOL    HW1  736   3.350   1.239   2.274  1.9891 -0.8011  1.6503
  201SOL    HW2  737   3.226   1.186   2.343  0.7197  0.9305  0.7990
  202SOL     OW  738   1.305   0.237   1.289  0.3090 -0.7198  0.2962
  202SOL    HW1  739   1.257   0.307   1.245  0.9572 -0.5996 -0.2440
  202SOL    HW2  740   1.314   0.267   1.379 -0.2245 -0.5357  0.2877
  203SOL     OW  741   1.090   2.071   3.122  0.3264 -0.2249 -0.4523
  203SOL    HW1  742   1.106   2.068   3.028  2.5665 -2.0874 -0.1151
  203SOL    HW2  743   1.099   2.163   3.145 -2.1023  0.5445 -2.2674
  204SOL     OW  744   0.798   0.201   1.690  0.1765  1.0013  0.4009
  204SOL    HW1  745   0.718   0.152   1.708 -1.1758  3.4334  1.5509
  204SOL    HW2  746   0.849   0.195   1.770  1.7378 -1.4107 -0.6766
  205SOL     OW  747   2.971   3.316   1.865  0.4400  0.1937 -0.1024
  205SOL    HW1  748   3.048   3.262   1.848  0.4380 -0.6090  2.1970
  205SOL    HW2  749   2.984   3.351   1.953 -1.3652  0.8361 -0.0420
  206SOL     OW  750   0.339   3.434   3.464 -0.1450  0.9685 -0.5953
  206SOL    HW1  751   0.303   3.508   3.514 -0.6914  1.0585 -1.1138
  206SOL    HW2  752   0.266   3.404   3.410  0.3701  0.7006 -1.1511
  207SOL     OW  753   2.452   0.126   3.632 -0.5144  0.1980 -0.1757
  207SOL    HW1  754   2.366   0.100   3.667  0.1942  1.6154  2.9473
  207SOL    HW2  755   2.431   0.193   3.566 -1.8650 -1.4452 -1.5119
  208SOL     OW  756   1.155   2.923   1.804 -0.2511  0.2228 -0.2798
  208SOL    HW1  757   1.248   2.942   1.815 -0.2987 -0.0930  0.9215
  208SOL    HW2  758   1.147   2.829   1.822 -0.5204 -0.2439 -2.5265
  209SOL     OW  759   3.469   1.798   3.615  0.6251  0.5057 -0.0698
  209SOL    HW1  760   3.445   1.783   3.524  0.3760 -1.7616  0.3139
  209SOL    HW2  761   3.385   1.809   3.661  0.7478  1.6064 -0.0817
  210SOL     OW  762   1.590   0.516   0.183 -0.5647  0.0337 -0.9775
  210SOL    HW1  763   1.579   0.588   0.244 -0.5546 -0.4459 -0.4077
  210SOL    HW2  764   1.546   0.442   0.224  0.8816 -0.7407 -0.7513
  211SOL     OW  765   1.076   3.042   0.318  0.1596 -0.6900 -0.5911
  211SOL    HW1  766   1.082   3.073   0.228 -0.8934  0.8242 -0.1940
  211SOL    HW2  767   1.008   2.975   0.316  0.6127 -1.1366 -1.0355
  212SOL     OW  768   1.252   0.491   0.260 -0.3658  0.4319 -0.1129
  212SOL    HW1  769   1.319   0.455   0.317  1.4324 -0.2213 -2.4566
  212SOL    HW2  770   1.242   0.582   0.289 -1.0490 -0.3719  2.4442
  213SOL     OW  771   0.260   1.689   2.480  0.0086 -0.1121  0.3053
  213SOL    HW1  772   0.202   1.641   2.421 -0.9819 -0.1870  1.3233
  213SOL    HW2  773   0.236   1.660   2.568  1.9128 -0.5036  0.7525
  214SOL     OW  774   0.019   3.020   2.619 -0.6432  0.1560  0.2045
  214SOL    HW1  775   0.113   3.030   2.630 -0.8911  0.7108  2.1931
  214SOL    HW2  776  -0.018   3.050   2.702 -2.4774 -1.6202  0.1010
  215SOL     OW  777   1.143   2.269   0.876 -0.3019  0.0433 -0.4879
  215SOL    HW1  778   1.190   2.318   0.808 -0.1347 -0.4713 -0.7486
  215SOL    HW2  779   1.149   2.324   0.954  1.3482 -0.3196 -0.3279
  216SOL     OW  780   1.263   0.426   3.100  0.4579 -1.0405 -0.8532
  216SOL    HW1  781   1.189   0.422   3.040 -0.2965 -1.4542  0.0747
  216SOL    HW2  782   1.340   0.436   3.044 -0.4509  1.6234 -1.7913
  217SOL     OW  783   0.268   3.312   0.767  0.0292  0.0517 -0.1213
  217SOL    HW1  784   0.354   3.277   0.789  0.3316  0.6773 -0.2695
  217SOL    HW2  785   0.276   3.406   0.784 -0.3923  0.2234 -0.8582
  218SOL     OW  786   2.863   2.827   2.635 -0.0671  0.2657 -0.2481
  218SOL    HW1  787   2.830   2.911   2.667 -1.0634  0.0884 -0.7580
  218SOL    HW2  788   2.794   2.764   2.658  1.5789 -0.8546  2.0680
  219SOL     OW  789   1.575   1.885   2.537 -0.0010  0.5447  0.5776
  219SOL    HW1  790   1.594   1.959   2.481 -2.6689  0.4155 -0.6808
  219SOL    HW2  791   1.512   1.918   2.601  1.3626  0.1462  2.2108
  220SOL     OW  792   2.757   1.711   1.646  0.1991  0.0988 -0.2491
  220SOL    HW1  793   2.724   1.686   1.732  2.3548 -1.7435  0.1416
  220SOL    HW2  794   2.723   1.799   1.632 -1.1783 -0.0028  1.9553
  221SOL     OW  795   2.529   2.267   1.444  0.0128  0.0376 -0.6262
  221SOL    HW1  796   2.454   2.324   1.459 -0.7308 -1.1567  0.4377
  221SOL    HW2  797   2.495   2.179   1.457  1.6613 -0.5299  0.1959
  222SOL     OW  798   1.010   3.640   3.422 -0.9964  0.0524  0.2618
  222SOL    HW1  799   1.064   3.578   3.374  0.2475  0.8849  0.5578
  222SOL    HW2  800   0.955   3.584   3.479 -1.3859 -0.8491 -0.9589
  223SOL     OW  801   0.777   2.070   2.995  0.0769 -0.6470  0.2347
  223SOL    HW1  802   0.705   2.084   3.056 -1.2862 -1.4076 -1.1367
  223SOL    HW2  803   0.811   1.983   3.017  0.1431 -0.5671  0.4493
  224SOL     OW  804   1.112   1.587   2.434  0.1293  0.8119 -0.0380
  224SOL    HW1  805   1.196   1.633   2.433  0.8180 -0.3225  1.7578
  224SOL    HW2  806   1.091   1.576   2.526 -1.4629  0.0795 -0.4450
  225SOL     OW  807   3.023   1.065   1.769 -0.0227  0.1404  0.0185
  225SOL    HW1  808   3.116   1.057   1.791 -0.1892 -0.6319  0.4712
  225SOL    HW2  809   2.978   1.055   1.853 -0.5893 -1.0847 -0.4180
  226SOL     OW  810   2.621   1.724   2.129  1.6209 -0.6084 -0.2321
  226SOL    HW1  811   2.679   1.784   2.081 -0.2700  0.6468 -1.0602
  226SOL    HW2  812   2.565   1.686   2.061  2.3806 -2.9344  0.3625
  227SOL     OW  813   3.046   1.905   2.931 -0.4015 -0.1076 -0.5191
  227SOL    HW1  814   3.037   1.881   2.839  0.0533  1.8358 -1.1227
  227SOL    HW2  815   3.120   1.966   2.933 -1.0620  0.7015  0.9624
  228SOL     OW  816   0.976   1.282   0.088 -0.5557 -0.4130 -0.2960
  228SOL    HW1  817   1.048   1.231   0.050 -1.3753 -0.5731 -1.6751
  228SOL    HW2  818   0.926   1.217   0.138 -0.1458 -0.4301  0.1084
  229SOL     OW  819   2.864   2.229   0.294  0.4287  0.1989  0.3185
  229SOL    HW1  820   2.834   2.273   0.214 -0.3069  1.2930  1.1737
  229SOL    HW2  821   2.864   2.136   0.271  0.1739  0.4912 -0.9352
  230SOL     OW  822   3.636   1.793   0.917 -0.6419 -0.0253  0.2030
  230SOL    HW1  823   3.592   1.836   0.991 -1.2722  2.1529 -1.3178
  230SOL    HW2  824   3.584   1.715   0.900 -2.6509  1.2924 -0.0982
  231SOL     OW  825   2.700   2.047   2.285 -0.0816  0.3786  0.0493
  231SOL    HW1  826   2.770   2.024   2.224 -0.1646  1.9739 -0.7082
  231SOL    HW2  827   2.620   2.016   2.242  0.0946 -1.3175  0.8505
  232SOL     OW  828   1.817   0.144   1.844 -0.1510 -0.1419  0.1264
  232SOL    HW1  829   1.759   0.165   1.917  0.2539  0.7958  0.1915
  232SOL    HW2  830   1.795   0.208   1.776  0.7655  0.2066  0.1404
  233SOL     OW  831   1.751   3.244   0.670 -0.3090 -0.1273 -0.0039
  233SOL    HW1  832   1.787   3.248   0.758 -0.8418  0.6322  0.1968
  233SOL    HW2  833   1.656   3.250   0.683 -0.4341 -0.7623 -0.5867
  234SOL     OW  834   3.459   1.056   0.252  0.2071 -0.6433 -0.6089
  234SOL    HW1  835   3.394   1.053   0.322 -0.1519 -0.0555 -0.9134
  234SOL    HW2  836   3.505   0.972   0.259 -1.4222 -1.6330 -1.1882
  235SOL     OW  837   2.884   0.259   1.142 -0.5063 -0.2815 -0.4977
  235SOL    HW1  838   2.868   0.312   1.221  0.2425 -0.8279  0.0312
  235SOL    HW2  839   2.809   0.278   1.085 -1.5745 -0.6279  0.7449
  236SOL     OW  840   3.313   1.898   3.371 -0.2778  0.1425 -0.1572
  236SOL    HW1  841   3.362   1.891   3.289 -1.3534  0.6527 -0.8548
  236SOL    HW2  842   3.288   1.808   3.392  0.5983 -0.0759  0.0017
  237SOL     OW  843   0.578   1.866   3.325  0.0996 -0.2622 -0.0245
  237SOL    HW1  844   0.486   1.875   3.300  0.4876 -0.9075 -1.8085
  237SOL    HW2  845   0.578   1.878   3.420 -1.6824  0.7635 -0.1103
  238SOL     OW  846   1.272   0.133   2.839 -1.0181 -0.2931 -0.0062
  238SOL    HW1  847   1.263   0.077   2.915  0.8961  2.0354  2.0942
  238SOL    HW2  848   1.185   0.171   2.827 -1.6595 -1.6552  0.1485
  239SOL     OW  849   2.378   0.231   1.782 -0.0182  0.2946 -0.5933
  239SOL    HW1  850   2.462   0.267   1.757  0.2002  1.0350  1.0786
  239SOL    HW2  851   2.353   0.175   1.709  2.4484 -0.8365 -0.6667
  240SOL     OW  852   2.706   1.500   3.042 -0.7917  0.9028 -0.0397
  240SOL    HW1  853   2.796   1.484   3.070 -0.4219  0.4755 -1.3666
  240SOL    HW2  854   2.708   1.585   2.999 -1.1787  1.1914  0.4915
  241SOL     OW  855   3.755   1.863   3.631  0.4768 -0.1269  1.0493
  241SOL    HW1  856   3.668   1.834   3.603  0.8097  0.5970 -0.9173
  241SOL    HW2  857   3.781   1.800   3.699 -1.0461 -1.1218  0.7492
  242SOL     OW  858   0.062   1.498   0.649  0.2476 -0.3439  0.0365
  242SOL    HW1  859   0.136   1.545   0.689  0.8711 -2.9744  2.2746
  242SOL    HW2  860   0.100   1.416   0.617 -1.5474 -1.4770  0.6491
  243SOL     OW  861   1.433   3.625   1.918  0.2938  0.2743  0.7749
  243SOL    HW1  862   1.408   3.700   1.865 -1.9740 -1.3303 -0.5929
  243SOL    HW2  863   1.492   3.574   1.863  1.3051  0.6856  1.4489
  244SOL     OW  864   0.556   0.177   2.606 -0.5097 -0.3730 -0.1131
  244SOL    HW1  865   0.484   0.231   2.637  0.8488  0.6107  1.4467
  244SOL    HW2  866   0.575   0.211   2.518  0.0466  1.4648  0.6753
  245SOL     OW  867   1.615   3.420   3.679  0.0816  0.4379 -0.0915
  245SOL    HW1  868   1.681   3.479   3.644 -0.3048 -0.0100 -1.6508
  245SOL    HW2  869   1.658   3.377   3.753  0.4227  2.4939  0.9904
  246SOL     OW  870   0.746   1.798   1.422  0.4489  0.0367  0.0346
  246SOL    HW1  871   0.765   1.799   1.329 -0.3195 -1.0360 -0.1459
  246SOL    HW2  872   0.653   1.818   1.428  0.2640 -0.9169  0.4975
  247SOL     OW  873   3.006   0.210   2.134  0.1692  0.4136 -0.0673
  247SOL    HW1  874   2.998   0.135   2.075 -0.5857 -1.8540  2.6732
  247SOL    HW2  875   2.949   0.277   2.096 -1.7505 -1.6067 -1.0049
  248SOL     OW  876   1.743   1.576   0.714  0.4907  0.1642 -0.1739
  248SOL    HW1  877   1.667   1.551   0.660 -0.7344  2.2850  0.4512
  248SOL    HW2  878   1.706   1.598   0.799  2.1625 -1.1434  0.9576
  249SOL     OW  879   3.360   0.171   0.869 -0.4095 -0.4724  0.1135
  249SOL    HW1  880   3.356   0.222   0.788 -0.8180  0.3077  0.6144
  249SOL    HW2  881   3.385   0.083   0.841 -0.4158 -0.1761 -0.8442
  250SOL     OW  882   2.760   3.661   2.944 -0.3086  0.5305 -0.2607
  250SOL    HW1  883   2.712   3.737   2.911  0.0403  1.8634  2.0501
  250SOL    HW2  884   2.701   3.621   3.007  0.3008  0.1824  0.1060
  251SOL     OW  885   1.612   3.657   2.165 -0.0375  0.0457 -0.0263
  251SOL    HW1  886   1.558   3.657   2.244 -0.1944  1.0752 -0.1263
  251SOL    HW2  887   1.550   3.660   2.093  0.1462  1.2479 -0.1416
  252SOL     OW  888   0.780   2.163   3.408  0.0204 -0.1346  0.1594
  252SOL    HW1  889   0.727   2.109   3.466  0.3385 -0.4000  0.2043
  252SOL    HW2  890   0.731   2.164   3.325 -0.0841 -0.3278  0.2187
  253SOL     OW  891   0.544   0.216   3.102 -0.4395 -0.3165  0.4364
  253SOL    HW1  892   0.635   0.224   3.132 -0.2771  0.3034 -0.2009
  253SOL    HW2  893   0.493   0.264   3.166 -0.3045 -0.5417  0.7155
  254SOL     OW  894   2.802   1.974   0.288 -0.3181  0.7481  0.0830
  254SOL    HW1  895   2.719   2.014   0.261 -0.2330  1.8640  1.3704
  254SOL    HW2  896   2.779   1.922   0.365 -0.5728 -2.4345 -1.9532
  255SOL     OW  897   2.442   0.961   3.399  0.0296  0.2935 -1.1002
  255SOL    HW1  898   2.364   0.923   3.357 -0.0160 -0.8756 -0.0227
  255SOL    HW2  899   2.411   0.988   3.486  0.9578 -0.8399 -0.3848
  256SOL     OW  900   2.586   2.704   0.141  0.3321 -0.3483 -0.1310
  256SOL    HW1  901   2.532   2.648   0.198 -1.9349  1.2310 -0.5732
  256SOL    HW2  902   2.666   2.720   0.190  0.2223 -2.3943  0.7945
  257SOL     OW  903   2.959   0.082   2.992 -0.0388  0.1043  0.5753
  257SOL    HW1  904   2.891   0.015   2.987  0.1028 -0.1740  1.8747
  257SOL    HW2  905   2.955   0.113   3.083  0.8971  0.7875  0.3986
  258SOL     OW  906   0.888   1.064   1.873 -0.2480  0.0482  0.4097
  258SOL    HW1  907   0.857   1.030   1.788 -1.2800  1.5833  0.1330
  258SOL    HW2  908   0.975   1.100   1.854  0.7597 -2.0769  0.6546
  259SOL     OW  909   2.830   2.838   1.856  0.4612  0.3197 -0.0983
  259SOL    HW1  910   2.867   2.790   1.782  3.1533  1.8508  0.1289
  259SOL    HW2  911   2.894   2.828   1.926 -0.6152  1.3268  1.0889
  260SOL     OW  912   2.399   1.076   0.620  0.4697 -0.4076  0.8762
  260SOL    HW1  913   2.469   1.060   0.557 -0.4827 -0.5644 -0.1683
  260SOL    HW2  914   2.370   0.988   0.646 -0.0961 -0.3576  0.4326
  261SOL     OW  915   0.651   2.353   2.427  0.0089 -0.2892  0.0771
  261SOL    HW1  916   0.722   2.413   2.448  0.7163 -1.9078  2.9003
  261SOL    HW2  917   0.661   2.334   2.334  2.3127  0.7035  0.0694
  262SOL     OW  918   2.848   3.496   2.734 -0.0264 -0.6880 -0.2098
  262SOL    HW1  919   2.818   3.541   2.814  0.5050  0.7216 -0.7658
  262SOL    HW2  920   2.787   3.526   2.666 -0.1286 -1.4275 -0.4530
  263SOL     OW  921   2.506   3.300   2.889  0.5084 -0.3660  0.2134
  263SOL    HW1  922   2.495   3.211   2.923  0.0461 -0.2733  0.3066
  263SOL    HW2  923   2.601   3.315   2.893  0.5955 -0.8837  0.1188
  264SOL     OW  924   3.245   1.873   0.859 -0.2283  0.5011 -0.4106
  264SOL    HW1  925   3.238   1.808   0.789 -3.4927 -0.8397  0.9353
  264SOL    HW2  926   3.266   1.823   0.938  1.3811  1.7073 -0.0214
  265SOL     OW  927   1.411   1.333   0.877 -0.1703 -0.2056  0.2239
  265SOL    HW1  928   1.423   1.417   0.833 -0.7653  0.1554  0.7364
  265SOL    HW2  929   1.490   1.283   0.856 -1.7547 -1.3296 -4.0059
  266SOL     OW  930   2.811   0.361   0.781  0.0722  0.3604 -0.3838
  266SOL    HW1  931   2.845   0.275   0.754 -0.6804 -0.0405 -0.1034
  266SOL    HW2  932   2.772   0.397   0.701  0.2148  0.3607 -0.4552
  267SOL     OW  933   0.813   3.049   0.092  0.5708  0.4835  0.0467
  267SOL    HW1  934   0.753   2.980   0.062 -0.9747  1.2172  1.3024
  267SOL    HW2  935   0.870   3.065   0.017 -1.0852  0.0334 -1.3856
  268SOL     OW  936   0.421   3.715   3.160 -0.0274  0.2287  0.7055
  268SOL    HW1  937   0.496   3.668   3.196  0.7204 -0.8850 -2.1202
  268SOL    HW2  938   0.451   3.806   3.154 -0.1169  0.4269  2.5670
  269SOL     OW  939   0.625   3.241   0.527 -0.5227  0.2278  0.0811
  269SOL    HW1  940   0.702   3.194   0.495  0.6976  1.2711  1.3134
  269SOL    HW2  941   0.605   3.304   0.458  2.3907  2.8125  1.3469
  270SOL     OW  942   2.969   0.597   2.951 -0.6943 -0.2006 -0.1948
  270SOL    HW1  943   2.921   0.621   2.872  0.2557  0.5385 -0.5583
  270SOL    HW2  944   3.045   0.655   2.952 -0.4002 -0.5803  0.9687
  271SOL     OW  945   1.285   2.562   2.883 -0.0252 -0.1074  0.4268
  271SOL    HW1  946   1.245   2.649   2.884 -0.4404 -0.2977  1.6091
  271SOL    HW2  947   1.232   2.511   2.944  0.9789 -0.8436  0.6992
  272SOL     OW  948   2.048   1.803   1.178  0.2002  0.1211 -0.0303
  272SOL    HW1  949   2.068   1.780   1.088  1.1782 -0.3822  0.3070
  272SOL    HW2  950   1.983   1.874   1.171 -0.0513 -0.2020 -1.1082
  273SOL     OW  951   1.214   2.492   0.708 -0.1395 -0.0425 -0.1183
  273SOL    HW1  952   1.211   2.545   0.629 -1.8815 -0.8320 -0.6373
  273SOL    HW2  953   1.264   2.414   0.684  0.0273  0.0933 -0.2045
  274SOL     OW  954   1.438   2.427   2.718  0.2971  0.0707  0.5408
  274SOL    HW1  955   1.480   2.349   2.754 -2.9096 -2.0319  0.1030
  274SOL    HW2  956   1.372   2.451   2.783 -0.3706  0.9404 -0.4364
  275SOL     OW  957   1.002   3.224   0.703  0.5129  0.4114  0.6710
  275SOL    HW1  958   0.951   3.303   0.721  0.6924  1.2186 -1.9162
  275SOL    HW2  959   0.939   3.162   0.666  0.6968 -0.0423  1.1041
  276SOL     OW  960   2.609   1.256   0.242  0.0968  0.3683 -0.1632
  276SOL    HW1  961   2.519   1.254   0.272 -0.7576  1.3068 -2.4316
  276SOL    HW2  962   2.661   1.272   0.321 -1.3248 -3.4663  1.7717
  277SOL     OW  963   3.302   1.765   1.454  0.1167  0.2316  0.1895
  277SOL    HW1  964   3.348   1.844   1.426  0.8096  0.5226  2.0521
  277SOL    HW2  965   3.332   1.697   1.393 -0.6654  1.3803 -1.5829
  278SOL     OW  966   3.374   0.521   2.018  0.2716 -0.1479 -0.0909
  278SOL    HW1  967   3.281   0.543   2.022  0.7616  2.0839  0.7289
  278SOL    HW2  968   3.378   0.427   2.035 -1.6857  0.1380  2.5194
  279SOL     OW  969   2.434   1.942   2.143 -0.0880  0.4686 -0.0583
  279SOL    HW1  970   2.494   1.868   2.153 -0.4103  0.4259  2.2159
  279SOL    HW2  971   2.487   2.011   2.102  1.2105  0.0747  0.8846
  280SOL     OW  972   0.921   0.675   2.656  0.3178 -0.4914  0.1226
  280SOL    HW1  973   0.858   0.606   2.675 -2.0547  1.6191  0.4139
  280SOL    HW2  974   0.898   0.746   2.716  1.3238  1.3040 -1.4821
  281SOL     OW  975   3.308   1.114   1.777  0.4450  0.5813  0.0473
  281SOL    HW1  976   3.349   1.051   1.718 -0.4809  0.2126 -0.2183
  281SOL    HW2  977   3.277   1.184   1.719 -2.7843 -0.9749 -0.3417
  282SOL     OW  978   0.226   1.135   1.164 -0.2153 -0.3367 -0.3600
  282SOL    HW1  979   0.190   1.179   1.087  0.3033 -0.3888 -0.6319
  282SOL    HW2  980   0.167   1.160   1.235  1.1975  2.4450 -0.0698
  283SOL     OW  981   2.327   3.509   2.580 -0.7257 -0.0197  0.2750
  283SOL    HW1  982   2.283   3.425   2.566  0.4547 -0.5667 -0.2377
  283SOL    HW2  983   2.340   3.544   2.491  0.2001 -0.0366  0.3992
  284SOL     OW  984   0.954   0.398   2.327  0.3526 -0.1768  0.0210
  284SOL    HW1  985   0.953   0.479   2.378 -1.6860  0.3610 -0.7898
  284SOL    HW2  986   1.001   0.421   2.246 -0.4855  0.2934 -0.3382
  285SOL     OW  987   2.210   1.739   3.657  0.4778 -0.1486  0.4474
  285SOL    HW1  988   2.153   1.670   3.692 -0.2128 -0.7810 -1.7356
  285SOL    HW2  989   2.273   1.756   3.727 -2.4282  0.7071  3.0694
  286SOL     OW  990   2.696   3.660   2.067 -0.5414 -0.2322  0.3838
  286SOL    HW1  991   2.679   3.592   2.002 -0.0189  1.1670 -1.2797
  286SOL    HW2  992   2.609   3.692   2.091 -0.6949  0.2471 -0.7556
  287SOL     OW  993   2.516   1.914   3.676 -0.3882 -0.6792 -0.8017
  287SOL    HW1  994   2.567   1.891   3.598 -1.2358 -4.3572 -0.4673
  287SOL    HW2  995   2.489   1.830   3.712 -0.5161  0.8644  3.1931
  288SOL     OW  996   1.000   2.222   2.117 -0.4920  0.5545  0.2597
  288SOL    HW1  997   0.957   2.142   2.149 -1.7282  1.5369  1.2184
  288SOL    HW2  998   0.974   2.289   2.181 -0.9188  2.0840 -1.4494
  289SOL     OW  999   0.399   0.403   1.117 -0.8935 -0.1470  0.6135
  289SOL    HW1 1000   0.405   0.429   1.209 -0.1607  1.5495  0.1250
  289SOL    HW2 1001   0.305   0.395   1.102 -1.1747  2.0766  0.8922
  290SOL     OW 1002   1.843   2.046   2.255 -0.2073  1.1564  0.0635
  290SOL    HW1 1003   1.895   2.086   2.186 -2.4717  2.7740 -0.8180
  290SOL    HW2 1004   1.853   2.104   2.331  0.0856  0.8909  0.2316
  291SOL     OW 1005   1.702   1.168   2.015 -0.0815 -0.3039  0.0516
  291SOL    HW1 1006   1.706   1.262   2.029 -1.8724 -0.0644 -0.8076
  291SOL    HW2 1007   1.793   1.139   2.021  0.3801  1.2753  1.5616
  292SOL     OW 1008   3.568   0.122   0.170 -0.0346 -0.4501 -0.5275
  292SOL    HW1 1009   3.540   0.125   0.079 -2.4369 -2.2157  0.0554
  292SOL    HW2 1010   3.584   0.029   0.187  1.3029 -0.0492  0.6322
  293SOL     OW 1011   1.386   3.145   1.985  0.3356 -0.2839  0.7729
  293SOL    HW1 1012   1.343   3.227   1.959  0.6140  0.8877  3.5898
  293SOL    HW2 1013   1.424   3.111   1.904  0.6383  2.6454 -0.4473
  294SOL     OW 1014   0.795   1.165   0.257  0.6368  0.4653 -0.0067
  294SOL    HW1 1015   0.729   1.100   0.277  1.3629 -0.1777  0.3622
  294SOL    HW2 1016   0.804   1.216   0.338  0.4590  0.6728 -0.1171
  295SOL     OW 1017   2.349   1.340   3.385 -0.0227  0.9892  0.3537
  295SOL    HW1 1018   2.310   1.413   3.336  2.3054  1.4780 -0.9054
  295SOL    HW2 1019   2.360   1.374   3.474 -1.1016  1.3048  0.3886
  296SOL     OW 1020   3.107   3.411   2.689 -1.0943  0.6832 -0.7996
  296SOL    HW1 1021   3.137   3.497   2.659 -1.7653  1.3091  0.2581
  296SOL    HW2 1022   3.023   3.429   2.732 -1.3820 -0.5470 -0.8286
  297SOL     OW 1023   2.759   0.073   1.459 -0.3644 -0.3248  0.3399
  297SOL    HW1 1024   2.813   0.058   1.536  0.0266 -1.8419 -0.1912
  297SOL    HW2 1025   2.723  -0.013   1.438  1.2404 -0.4442 -2.4003
  298SOL     OW 1026   2.127   2.446   0.728 -0.4003 -0.0605 -0.0231
  298SOL    HW1 1027   2.201   2.483   0.775 -0.4365 -0.4989  0.3850
  298SOL    HW2 1028   2.099   2.371   0.781 -1.4072  0.3551  0.0591
  299SOL     OW 1029   1.486   3.722   2.433  0.7793 -0.3693  0.0349
  299SOL    HW1 1030   1.454   3.812   2.420  0.5392 -0.2004  1.6167
  299SOL    HW2 1031   1.409   3.667   2.420  0.7609 -0.2903 -0.1973
  300SOL     OW 1032   3.332   2.636   0.912 -0.2645 -0.0680  0.4044
  300SOL    HW1 1033   3.393   2.610   0.843  0.1258  1.1036  0.2811
  300SOL    HW2 1034   3.362   2.590   0.990  0.3644 -0.0365  0.1844
  301SOL     OW 1035   3.004   1.806   0.214  0.2691 -0.2105 -0.8084
  301SOL    HW1 1036   2.998   1.802   0.118 -0.5118 -0.7319 -0.7493
  301SOL    HW2 1037   2.939   1.871   0.239  0.6378  0.0958 -0.6443
  302SOL     OW 1038   1.220   0.222   0.214 -0.6229  0.6979  0.1210
  302SOL    HW1 1039   1.191   0.244   0.302 -1.6800 -0.6309  0.1439
  302SOL    HW2 1040   1.149   0.252   0.157 -0.3779  0.6913 -0.1926
  303SOL     OW 1041   2.625   2.263   1.716  0.6911 -0.1587 -0.6536
  303SOL    HW1 1042   2.575   2.287   1.638  0.6925 -0.6764 -0.8216
  303SOL    HW2 1043   2.580   2.305   1.789 -0.2289 -0.9415 -0.7559
  304SOL     OW 1044   0.907   1.561   1.383 -0.1756 -0.6370 -0.1646
  304SOL    HW1 1045   0.849   1.632   1.356 -1.1239 -1.1105  0.5619
  304SOL    HW2 1046   0.904   1.562   1.479  2.8163  0.7729  0.0133
  305SOL     OW 1047   3.105   2.676   1.177  0.1391  0.3136  0.0926
  305SOL    HW1 1048   3.112   2.637   1.089 -0.4642 -0.8380  0.5368
  305SOL    HW2 1049   3.179   2.735   1.182  0.4533  0.0534 -1.0300
  306SOL     OW 1050   2.287   2.007   2.445  0.7677 -0.0604 -0.8482
  306SOL    HW1 1051   2.252   2.093   2.421 -1.4960 -0.1843  1.5746
  306SOL    HW2 1052   2.255   1.949   2.376  0.7140  0.7279 -1.5048
  307SOL     OW 1053   1.870   3.168   2.405  0.0226 -0.0213  0.1206
  307SOL    HW1 1054   1.887   3.263   2.403  0.9180 -0.1695  0.3266
  307SOL    HW2 1055   1.914   3.135   2.327  0.0605 -0.3256  0.2725
  308SOL     OW 1056   1.655   0.853   2.011 -0.2159  0.2119  0.0176
  308SOL    HW1 1057   1.620   0.917   2.073 -1.0958  0.1959 -0.4500
  308SOL    HW2 1058   1.644   0.894   1.926  0.5289  0.0210 -0.1831
  309SOL     OW 1059   1.757   2.304   1.951 -0.0653 -0.1383 -0.2749
  309SOL    HW1 1060   1.747   2.234   1.886 -2.0063  0.3768 -0.5730
  309SOL    HW2 1061   1.696   2.282   2.021 -0.8019  1.2897 -0.4263
  310SOL     OW 1062   2.082   0.265   0.847 -0.1710  0.6366 -0.2549
  310SOL    HW1 1063   2.032   0.290   0.924  1.4731  2.7881  0.2177
  310SOL    HW2 1064   2.034   0.302   0.773 -0.9802 -0.1671 -0.1388
  311SOL     OW 1065   3.163   3.382   1.201 -0.3592 -0.5115 -0.5570
  311SOL    HW1 1066   3.081   3.333   1.209 -1.1451  0.8016 -0.1610
  311SOL    HW2 1067   3.182   3.412   1.290 -0.2265  0.3861 -0.8789
  312SOL     OW 1068   2.818   2.523   1.757 -0.3383  0.2649  0.0929
  312SOL    HW1 1069   2.845   2.456   1.695 -0.5446 -0.4073  0.7098
  312SOL    HW2 1070   2.736   2.489   1.794  0.2941  0.1644  1.4553
  313SOL     OW 1071   2.555   2.393   0.654  0.5816 -0.3824 -0.6238
  313SOL    HW1 1072   2.544   2.312   0.604 -4.3219 -1.5898  1.7801
  313SOL    HW2 1073   2.507   2.459   0.605 -0.1715 -0.3924  0.0722
  314SOL     OW 1074   0.161   2.591   3.209  0.2302  0.1075  0.3215
  314SOL    HW1 1075   0.177   2.609   3.302 -0.3880 -2.3000  0.9625
  314SOL    HW2 1076   0.248   2.595   3.169  0.6645  0.0594  1.2200
  315SOL     OW 1077   1.778   0.242   0.523 -0.0527 -0.0245  0.1224
  315SOL    HW1 1078   1.750   0.158   0.559 -3.2744  0.9536  0.2067
  315SOL    HW2 1079   1.724   0.253   0.444  1.2305  1.4105 -0.6083
  316SOL     OW 1080   1.998   2.568   1.688 -0.2757 -0.1434 -0.3347
  316SOL    HW1 1081   2.074   2.626   1.681 -1.3592  1.3445 -0.2045
  316SOL    HW2 1082   1.965   2.560   1.598 -1.0642  0.7684 -0.1396
  317SOL     OW 1083   1.016   1.986   2.327 -0.1934 -0.0199  0.8097
  317SOL    HW1 1084   0.943   1.952   2.276 -0.8158  0.2785  1.4876
  317SOL    HW2 1085   1.090   1.929   2.303 -0.4385  0.1813 -0.4779
  318SOL     OW 1086   1.489   0.718   1.127 -0.3581  0.2302 -0.1419
  318SOL    HW1 1087   1.491   0.646   1.063  0.4597  1.1613 -1.1977
  318SOL    HW2 1088   1.406   0.763   1.110 -0.8777 -0.4323  0.5292
  319SOL     OW 1089   2.375   2.224   1.238  0.0362  0.0930 -0.5079
  319SOL    HW1 1090   2.328   2.141   1.238 -0.0835  0.1067  1.9259
  319SOL    HW2 1091   2.467   2.200   1.237  0.0040 -0.0282 -0.5922
  320SOL     OW 1092   3.435   3.020   1.263  0.6820  0.4088  0.3247
  320SOL    HW1 1093   3.473   3.091   1.213  1.3733 -0.1249  0.0858
  320SOL    HW2 1094   3.390   2.965   1.199  0.7164  0.2675  0.4190
  321SOL     OW 1095   1.042   2.428   0.305  0.8167 -0.2135  0.0338
  321SOL    HW1 1096   1.031   2.523   0.306 -2.9845 -0.4844  1.5737
  321SOL    HW2 1097   1.061   2.405   0.396 -1.1662 -1.0258  0.3116
  322SOL     OW 1098   3.484   1.860   3.126  0.1946 -0.1017  0.1153
  322SOL    HW1 1099   3.434   1.868   3.044 -0.0175  0.1620  0.2681
  322SOL    HW2 1100   3.572   1.887   3.102 -0.0247  0.6440  0.1285
  323SOL     OW 1101   1.473   0.835   0.056  0.4291  0.4921 -0.4469
  323SOL    HW1 1102   1.429   0.890  -0.008  0.3749 -0.4131 -1.1996
  323SOL    HW2 1103   1.444   0.746   0.037  0.8516  0.1370  0.4718
  324SOL     OW 1104   0.813   2.129   1.380  0.7239 -0.1369  0.0894
  324SOL    HW1 1105   0.778   2.200   1.434 -0.4594 -1.9019  1.7963
  324SOL    HW2 1106   0.870   2.079   1.440 -0.9484 -2.4046 -0.0762
  325SOL     OW 1107   3.399   2.100   3.513  0.1985  0.3272  0.4476
  325SOL    HW1 1108   3.374   2.016   3.475  0.3947  0.5564 -0.1945
  325SOL    HW2 1109   3.320   2.154   3.508  0.4021  0.5622 -0.2067
  326SOL     OW 1110   1.281   3.592   2.253  0.2111  0.1681  0.2978
  326SOL    HW1 1111   1.327   3.509   2.270  0.4555  0.5164  1.4646
  326SOL    HW2 1112   1.189   3.572   2.272  0.1008 -0.1268 -0.5312
  327SOL     OW 1113   1.947   0.604   2.535  0.0251  0.5766 -0.4446
  327SOL    HW1 1114   1.861   0.645   2.539  0.7244  2.0381  0.6001
  327SOL    HW2 1115   1.947   0.556   2.453 -2.7649 -1.7361  0.7032
  328SOL     OW 1116   0.653   2.833   0.458 -0.0132 -0.5360 -0.3443
  328SOL    HW1 1117   0.612   2.747   0.462 -0.5599 -0.2925 -0.6468
  328SOL    HW2 1118   0.585   2.894   0.486  0.9304 -0.3582  1.7866
  329SOL     OW 1119   3.337   1.257   3.369 -0.6616  0.3351  0.0323
  329SOL    HW1 1120   3.321   1.166   3.343 -0.1613  0.3590 -0.3840
  329SOL    HW2 1121   3.430   1.270   3.350 -0.1275  0.1986  2.3441
  330SOL     OW 1122   1.476   0.372   0.398  0.1578  0.0022 -0.6242
  330SOL    HW1 1123   1.473   0.316   0.475  1.4076  0.1710 -0.4424
  330SOL    HW2 1124   1.508   0.456   0.430 -2.7166  1.2523 -0.6720
  331SOL     OW 1125   2.629   0.660   3.317 -0.1465 -0.3149  0.5873
  331SOL    HW1 1126   2.674   0.739   3.347 -2.9528  1.3720  0.6588
  331SOL    HW2 1127   2.573   0.634   3.390  0.1862 -2.0006  0.2958
  332SOL     OW 1128   3.408   2.165   2.524  0.8152  0.3727  0.2310
  332SOL    HW1 1129   3.434   2.254   2.548  0.5876  0.5833 -0.3086
  332SOL    HW2 1130   3.423   2.114   2.604  1.9000  0.6940  0.2408
  333SOL     OW 1131   0.271   0.172   2.815  0.1919 -0.0349  0.0032
  333SOL    HW1 1132   0.189   0.137   2.850  0.2211  2.1549  2.5423
  333SOL    HW2 1133   0.245   0.219   2.736 -1.2548  1.5395  1.3477
  334SOL     OW 1134   1.898   2.089   0.789  0.5471 -0.2691 -0.2145
  334SOL    HW1 1135   1.893   1.993   0.793  0.5702 -0.2542  0.2611
  334SOL    HW2 1136   1.837   2.119   0.856  0.4579  0.0535 -0.4370
  335SOL     OW 1137   0.292   2.979   3.036  0.2826 -0.3292 -0.1587
  335SOL    HW1 1138   0.231   2.906   3.032  2.9424 -3.0816  3.0059
  335SOL    HW2 1139   0.373   2.945   2.998  0.6245  2.3887 -2.1594
  336SOL     OW 1140   1.946   1.474   0.497  0.5183 -0.4336 -0.3155
  336SOL    HW1 1141   1.888   1.527   0.551 -1.0805 -1.3953 -1.0203
  336SOL    HW2 1142   2.022   1.530   0.480 -0.8384  1.4071 -0.5359
  337SOL     OW 1143   2.403   2.808   3.727  0.0247  0.2823  0.0685
  337SOL    HW1 1144   2.399   2.749   3.652  0.2114  0.9527 -0.4805
  337SOL    HW2 1145   2.451   2.759   3.793 -1.6798 -1.0041  0.4128
  338SOL     OW 1146   2.145   3.186   0.782 -0.0484 -0.4455  0.0424
  338SOL    HW1 1147   2.086   3.226   0.846 -1.1967 -1.2627 -0.4583
  338SOL    HW2 1148   2.121   3.094   0.782  1.1882 -0.7862 -0.2585
  339SOL     OW 1149   0.631   1.672   2.737 -0.0363  0.2961 -0.5231
  339SOL    HW1 1150   0.591   1.720   2.664 -0.5586  0.7479  0.0500
  339SOL    HW2 1151   0.621   1.730   2.812  1.2543  0.1982 -0.2546
  340SOL     OW 1152   3.458   2.090   0.111  0.4338 -0.4289  0.4622
  340SOL    HW1 1153   3.466   2.166   0.054  0.0560 -0.4430  0.3849
  340SOL    HW2 1154   3.380   2.044   0.079 -0.0070 -0.2309  1.2184
  341SOL     OW 1155   0.896   0.258   0.340  0.0263 -0.3436  0.3962
  341SOL    HW1 1156   0.907   0.347   0.309  0.9510 -0.5953 -0.0198
  341SOL    HW2 1157   0.808   0.257   0.379  0.7474  1.2785  2.2231
  342SOL     OW 1158   3.432   3.706   3.683  0.1381  0.4560  0.4005
  342SOL    HW1 1159   3.451   3.708   3.589  1.1413 -1.8568  0.5030
  342SOL    HW2 1160   3.353   3.759   3.692 -0.6122 -0.1500 -1.9223
  343SOL     OW 1161   3.254   2.387   0.379 -0.4809  0.4078  0.1926
  343SOL    HW1 1162   3.221   2.374   0.290  0.6091 -0.0751 -0.1586
  343SOL    HW2 1163   3.313   2.313   0.394  1.8502  2.1239  0.0873
  344SOL     OW 1164   2.663   1.594   3.345  0.0895 -0.1587 -0.0185
  344SOL    HW1 1165   2.570   1.575   3.340  0.3748 -1.6403 -0.2755
  344SOL    HW2 1166   2.706   1.510   3.329  1.4612  0.3329  0.8481
  345SOL     OW 1167   1.576   0.378   1.273 -0.2741  0.3286 -0.2127
  345SOL    HW1 1168   1.483   0.361   1.255 -0.0608 -0.2927 -0.7578
  345SOL    HW2 1169   1.596   0.318   1.345 -0.0666 -0.2013 -0.7066
  346SOL     OW 1170   2.791   0.784   1.567 -0.1689 -0.2843 -0.6778
  346SOL    HW1 1171   2.751   0.697   1.565 -1.3351  0.2206 -0.2425
  346SOL    HW2 1172   2.717   0.845   1.563  0.3399  0.6918  2.1314
  347SOL     OW 1173   1.803   0.412   3.565  0.1464  0.1212  0.7055
  347SOL    HW1 1174   1.880   0.407   3.509  0.8852  0.7540  1.6304
  347SOL    HW2 1175   1.785   0.321   3.589 -1.0859 -0.3463 -1.6816
  348SOL     OW 1176   0.173   0.213   3.161 -0.6278  0.3588  0.0580
  348SOL    HW1 1177   0.160   0.123   3.189  2.6656 -0.5014 -0.6802
  348SOL    HW2 1178   0.205   0.206   3.071  2.4531  1.9400  0.8812
  349SOL     OW 1179   0.656   0.228   0.538  0.0066  0.2530  0.2822
  349SOL    HW1 1180   0.575   0.193   0.574 -0.2245  0.8901  0.4015
  349SOL    HW2 1181   0.725   0.191   0.594 -0.2810  0.5135  0.8211
  350SOL     OW 1182   1.608   0.241   0.999 -0.9003  0.3046  0.2430
  350SOL    HW1 1183   1.692   0.217   1.037 -1.2854  0.1860  1.0443
  350SOL    HW2 1184   1.587   0.326   1.038  0.5274  2.1608 -2.6820
  351SOL     OW 1185   3.068   2.047   1.188  0.3288 -0.2303 -0.3061
  351SOL    HW1 1186   3.163   2.047   1.176  0.2684 -0.4514 -0.7844
  351SOL    HW2 1187   3.048   2.135   1.220  1.0589 -1.0443  2.7352
  352SOL     OW 1188   3.636   2.247   0.679 -1.2369 -0.1291 -0.6423
  352SOL    HW1 1189   3.642   2.156   0.708  0.1992  0.1883  0.1514
  352SOL    HW2 1190   3.712   2.260   0.623 -1.8443  0.3885 -1.3687
  353SOL     OW 1191   0.284   2.628   3.653  0.0233 -0.3147 -0.4445
  353SOL    HW1 1192   0.197   2.591   3.636 -0.2619  0.8959 -1.8432
  353SOL    HW2 1193   0.336   2.604   3.577  0.2366  0.9100 -0.7054
  354SOL     OW 1194   3.007   2.027   0.886 -1.1210  0.6814 -0.2401
  354SOL    HW1 1195   3.060   1.951   0.907 -3.2201 -0.4243  1.4156
  354SOL    HW2 1196   3.068   2.100   0.885  0.8441 -0.8945 -1.2399
  355SOL     OW 1197   1.175   1.025   1.912 -0.0019 -0.0373  0.6893
  355SOL    HW1 1198   1.270   1.041   1.912 -0.0251  0.1009  0.3863
  355SOL    HW2 1199   1.158   0.984   1.997  0.2475  0.4330  0.9690
  356SOL     OW 1200   3.498   2.274   1.754  0.0322 -0.3614  0.7139
  356SOL    HW1 1201   3.542   2.242   1.675  1.6658 -0.4065  1.6039
  356SOL    HW2 1202   3.516   2.368   1.754  0.7743 -0.4903  1.4479
  357SOL     OW 1203   3.406   3.361   0.307  0.1403  0.0225  0.1770
  357SOL    HW1 1204   3.377   3.272   0.288  1.2868  0.0106 -1.6506
  357SOL    HW2 1205   3.468   3.351   0.379 -1.5580 -0.3216  1.6988
  358SOL     OW 1206   1.240   2.534   1.269  0.0788  0.1958  0.5194
  358SOL    HW1 1207   1.207   2.603   1.326 -1.9322  1.5798 -2.0630
  358SOL    HW2 1208   1.218   2.453   1.314  1.2077  1.1811  2.9829
  359SOL     OW 1209   2.127   2.023   0.149  0.4142 -0.6403  0.2349
  359SOL    HW1 1210   2.183   2.050   0.222 -0.2759  0.1640  0.4895
  359SOL    HW2 1211   2.117   1.929   0.159  3.5620 -1.2684 -1.1293
  360SOL     OW 1212   0.787   2.154   0.087 -0.2664 -0.1844 -0.3545
  360SOL    HW1 1213   0.836   2.135   0.167 -0.5670  0.2128 -0.0734
  360SOL    HW2 1214   0.785   2.070   0.040 -0.9878 -0.7016  0.5487
  361SOL     OW 1215   2.592   3.419   1.121 -0.2297  0.5860 -0.4891
  361SOL    HW1 1216   2.546   3.340   1.148 -1.1300  0.4535 -2.2578
  361SOL    HW2 1217   2.522   3.479   1.094  0.5426  1.1132 -1.3819
  362SOL     OW 1218   3.353   2.590   2.133  0.1089 -0.3830 -1.3079
  362SOL    HW1 1219   3.432   2.602   2.080  0.4140  1.7625 -0.4406
  362SOL    HW2 1220   3.315   2.677   2.141  0.3958 -0.4525  2.4573
  363SOL     OW 1221   1.490   1.449   0.159 -0.1365  0.0682  0.0653
  363SOL    HW1 1222   1.510   1.405   0.076 -2.1683 -3.9873  1.4822
  363SOL    HW2 1223   1.575   1.457   0.202  0.7461  0.8202 -1.7139
  364SOL     OW 1224   3.135   1.211   2.074 -0.8802 -0.7621  0.2151
  364SOL    HW1 1225   3.092   1.275   2.130 -0.3617  2.0132 -2.2589
  364SOL    HW2 1226   3.221   1.199   2.113 -0.3075  1.5689 -0.1583
  365SOL     OW 1227   3.020   2.959   2.390 -0.1774 -0.2284 -0.2148
  365SOL    HW1 1228   3.051   2.894   2.453  0.1235  0.4175  0.3167
  365SOL    HW2 1229   2.974   3.024   2.443 -0.8529 -0.2283 -0.7896
  366SOL     OW 1230   3.677   1.673   1.833  0.0679  0.2119 -0.2710
  366SOL    HW1 1231   3.602   1.646   1.885  0.7105 -2.0825 -0.4537
  366SOL    HW2 1232   3.658   1.764   1.809 -1.9446  0.1448  0.8712
  367SOL     OW 1233   0.237   0.842   0.807  0.1546 -0.2076  0.0222
  367SOL    HW1 1234   0.174   0.898   0.853 -0.2574 -0.1556 -0.5893
  367SOL    HW2 1235   0.207   0.753   0.825 -0.4878 -0.1665 -0.8025
  368SOL     OW 1236   1.613   1.102   2.979  0.0971 -0.5848 -0.1819
  368SOL    HW1 1237   1.571   1.069   3.058  1.2894  0.7886  1.0998
  368SOL    HW2 1238   1.655   1.025   2.941  0.4946 -1.0854  1.1927
  369SOL     OW 1239   3.380   0.156   2.438  0.5714  0.0341  0.2755
  369SOL    HW1 1240   3.443   0.220   2.405  1.3743 -1.4241 -1.1823
  369SOL    HW2 1241   3.432   0.093   2.487  0.2077 -0.8939 -0.4883
  370SOL     OW 1242   1.319   2.888   2.191  0.2591  0.0175 -0.0151
  370SOL    HW1 1243   1.399   2.877   2.243 -0.7943  0.5118  1.7851
  370SOL    HW2 1244   1.248   2.870   2.251 -1.0257 -0.8309 -1.6977
  371SOL     OW 1245   2.104   1.369   2.968  0.1595  0.2314 -0.4518
  371SOL    HW1 1246   2.037   1.307   2.996 -0.5663  0.2134 -2.0884
  371SOL    HW2 1247   2.132   1.413   3.048 -2.5432  0.9725  0.1733
  372SOL     OW 1248   0.488   2.697   2.351  0.6167  0.0589  0.4448
  372SOL    HW1 1249   0.564   2.740   2.312  1.1597  0.7321  2.1623
  372SOL    HW2 1250   0.426   2.767   2.367  0.5973 -0.1300  1.2187
  373SOL     OW 1251   1.128   2.483   3.113 -0.3906  0.1429 -0.0390
  373SOL    HW1 1252   1.173   2.442   3.186  1.3483 -3.4270 -2.8139
  373SOL    HW2 1253   1.053   2.426   3.096 -1.0464  1.1854 -0.7865
  374SOL     OW 1254   0.677   0.016   0.835  0.2479 -0.5113 -0.2574
  374SOL    HW1 1255   0.673  -0.052   0.768 -0.4418 -0.7813  0.0499
  374SOL    HW2 1256   0.757   0.064   0.815 -0.1884 -0.2957 -1.5509
  375SOL     OW 1257   0.748   1.998   2.438  0.1612  0.7232  0.0867
  375SOL    HW1 1258   0.725   2.036   2.523  0.8327  1.6807 -0.1428
  375SOL    HW2 1259   0.670   1.950   2.411  0.4708 -0.9311  1.9656
  376SOL     OW 1260   1.526   0.375   3.635 -0.3752  0.4781 -0.5395
  376SOL    HW1 1261   1.601   0.421   3.598  0.0508 -0.3195 -0.6914
  376SOL    HW2 1262   1.483   0.334   3.560 -1.0388  1.0195 -0.4699
  377SOL     OW 1263   1.897   2.648   1.948  0.2538 -0.2470 -0.6893
  377SOL    HW1 1264   1.930   2.609   1.867 -1.3541  0.7930 -1.9069
  377SOL    HW2 1265   1.922   2.585   2.016  2.0813 -0.9234 -1.8817
  378SOL     OW 1266   0.938   2.878   0.867 -0.1165  0.0126  0.5322
  378SOL    HW1 1267   0.911   2.940   0.799  0.8909 -0.0707  0.0400
  378SOL    HW2 1268   0.984   2.809   0.820 -0.4237 -0.6462  1.1807
  379SOL     OW 1269   1.667   3.329   1.249 -0.2346  0.0673 -0.4615
  379SOL    HW1 1270   1.657   3.313   1.156  0.2156  0.6565 -0.6174
  379SOL    HW2 1271   1.732   3.264   1.277 -0.8779 -0.5688 -0.4078
  380SOL     OW 1272   2.730   0.250   3.588 -0.3067 -0.3334  0.1803
  380SOL    HW1 1273   2.739   0.157   3.608 -0.1000 -0.4219 -0.3221
  380SOL    HW2 1274   2.657   0.255   3.526  1.6631 -0.5329 -2.3064
  381SOL     OW 1275   1.392   2.222   1.864  0.3900  0.1396 -0.1378
  381SOL    HW1 1276   1.485   2.196   1.865  1.4052  3.3656 -0.2067
  381SOL    HW2 1277   1.394   2.317   1.860 -2.9873  0.3466  0.5086
  382SOL     OW 1278   0.054   1.032   1.520 -0.0168  0.1129  0.0100
  382SOL    HW1 1279  -0.012   1.077   1.573 -0.4307  0.5401 -0.8454
  382SOL    HW2 1280   0.069   1.090   1.446  0.1233 -0.7310 -0.6383
  383SOL     OW 1281   1.166   1.838   2.693 -0.1700 -0.0309 -0.1179
  383SOL    HW1 1282   1.084   1.790   2.681 -0.9499  1.5961 -1.8013
  383SOL    HW2 1283   1.231   1.770   2.711 -1.9965 -1.3203  2.3319
  384SOL     OW 1284   0.975   3.643   2.341  0.1099 -0.5581 -0.0482
  384SOL    HW1 1285   1.006   3.701   2.410  0.7631 -1.3676  0.3435
  384SOL    HW2 1286   0.920   3.700   2.285  0.9839  0.5013  0.1426
  385SOL     OW 1287   3.301   1.727   1.085  0.6364  0.5539  0.7937
  385SOL    HW1 1288   3.291   1.639   1.121 -0.3132  0.7704  1.0945
  385SOL    HW2 1289   3.387   1.756   1.116  0.7184 -0.0593  1.1531
  386SOL     OW 1290   3.354   2.943   1.508  0.2303 -0.3614 -0.3114
  386SOL    HW1 1291   3.375   2.963   1.417  0.0812  1.4287  0.0192
  386SOL    HW2 1292   3.317   3.024   1.543 -0.8668 -1.3801  1.0149
  387SOL     OW 1293   3.096   0.673   1.851 -0.5569  1.0480  0.5985
  387SOL    HW1 1294   3.076   0.683   1.757  0.6106 -0.3411  0.1651
  387SOL    HW2 1295   3.154   0.746   1.871 -1.1280  1.5799  0.3501
  388SOL     OW 1296   0.518   1.581   2.986  0.0460  0.1551  0.1245
  388SOL    HW1 1297   0.451   1.623   2.932 -1.1445  0.2767  1.6109
  388SOL    HW2 1298   0.601   1.603   2.943 -0.8050  0.6382 -1.3515
  389SOL     OW 1299   0.938   1.863   3.068  0.1399  0.3026  0.2711
  389SOL    HW1 1300   1.001   1.806   3.024  0.0184  2.4038 -2.9746
  389SOL    HW2 1301   0.991   1.916   3.128  0.9579 -0.0317 -0.1500
  390SOL     OW 1302   0.342   0.366   2.625  0.0002  0.5310  0.3097
  390SOL    HW1 1303   0.334   0.435   2.559 -0.4509 -0.1299 -0.3489
  390SOL    HW2 1304   0.377   0.410   2.702 -0.4245  1.5276 -0.0487
  391SOL     OW 1305   0.937   2.566   1.293  0.2129 -0.1152  0.0139
  391SOL    HW1 1306   0.850   2.562   1.255 -0.5458  0.9491  1.5407
  391SOL    HW2 1307   0.995   2.584   1.219 -1.2148  2.0469 -0.6850
  392SOL     OW 1308   3.340   1.677   1.708 -0.0121  0.0543 -0.4385
  392SOL    HW1 1309   3.347   1.732   1.786  0.0713 -0.1533 -0.2948
  392SOL    HW2 1310   3.322   1.737   1.636 -0.5727  0.2045 -0.1823
  393SOL     OW 1311   2.892   2.164   0.555  0.1574  0.2457 -0.5279
  393SOL    HW1 1312   2.811   2.125   0.587  0.7479  1.1054  2.3623
  393SOL    HW2 1313   2.874   2.188   0.464 -2.6603 -0.0021 -0.1165
  394SOL     OW 1314   1.399   0.010   0.202  0.4243 -0.7823  0.2068
  394SOL    HW1 1315   1.331   0.077   0.199  0.7772 -0.3835  0.8446
  394SOL    HW2 1316   1.470   0.046   0.148  1.9925  0.9722  3.1455
  395SOL     OW 1317   2.301   0.591   2.189  0.3109  1.0558  0.0455
  395SOL    HW1 1318   2.270   0.681   2.197 -0.9923  0.5248  1.5004
  395SOL    HW2 1319   2.397   0.597   2.192  0.2201  2.3466  0.5800
  396SOL     OW 1320   1.362   0.584   0.668 -0.4836  0.5530  0.8524
  396SOL    HW1 1321   1.318   0.631   0.738 -1.6048 -0.9393  1.1908
  396SOL    HW2 1322   1.355   0.492   0.692  1.6383  0.1714  0.2045
  397SOL     OW 1323   1.929   0.296   2.249  0.1058  0.2946  0.5902
  397SOL    HW1 1324   2.013   0.251   2.241 -0.7600 -1.0606 -2.0163
  397SOL    HW2 1325   1.868   0.229   2.279 -0.8114  0.1002 -1.4939
  398SOL     OW 1326   3.723   2.115   1.878 -0.0944 -0.2188  0.7140
  398SOL    HW1 1327   3.810   2.146   1.855 -0.0802 -1.3044 -0.7569
  398SOL    HW2 1328   3.663   2.181   1.842  0.0852  0.3160  1.3762
  399SOL     OW 1329   1.365   2.039   3.319 -0.0471  0.1927 -0.1741
  399SOL    HW1 1330   1.404   2.096   3.252  1.3663 -0.0594  0.4135
  399SOL    HW2 1331   1.272   2.064   3.320  0.5380  2.5716  0.1407
  400SOL     OW 1332   0.031   1.577   2.390 -0.8402  0.5314  0.0648
  400SOL    HW1 1333  -0.014   1.635   2.328 -1.0974  0.7284  0.4294
  400SOL    HW2 1334   0.031   1.491   2.348 -3.2621  0.0808  0.8412
  401SOL     OW 1335   1.752   1.230   0.869  0.3807  0.5795 -0.0704
  401SOL    HW1 1336   1.795   1.267   0.791  1.1756  1.2707  0.6770
  401SOL    HW2 1337   1.794   1.274   0.942 -0.0024 -0.4409  0.7806
  402SOL     OW 1338   0.749   1.092   1.047  0.8439  0.1886 -0.0711
  402SOL    HW1 1339   0.748   1.177   1.003  0.0152  0.5027  0.5251
  402SOL    HW2 1340   0.733   1.112   1.139  0.5864 -0.6214  0.0701
  403SOL     OW 1341   0.049   0.340   0.898 -0.3722  0.7299  0.4998
  403SOL    HW1 1342  -0.031   0.373   0.858 -0.1733  1.9803  1.0710
  403SOL    HW2 1343   0.071   0.262   0.848  0.3099  2.6278 -2.3887
  404SOL     OW 1344   3.269   3.440   1.762  0.2499 -0.1453 -0.3922
  404SOL    HW1 1345   3.177   3.438   1.735  0.2274 -1.6766 -0.3174
  404SOL    HW2 1346   3.281   3.525   1.803 -0.8357  0.5361 -1.4253
  405SOL     OW 1347   0.616   3.003   3.159  0.0359  0.3319 -0.0391
  405SOL    HW1 1348   0.577   2.919   3.182 -0.3309  0.1859 -1.1494
  405SOL    HW2 1349   0.654   2.989   3.073 -0.0370  1.3078 -0.2391
  406SOL     OW 1350   2.009   3.628   1.220 -0.2382  0.5725 -0.3953
  406SOL    HW1 1351   1.965   3.650   1.302 -1.3601  0.9085 -1.0698
  406SOL    HW2 1352   2.085   3.577   1.247 -1.8862 -1.4520  0.7523
  407SOL     OW 1353   1.272   2.196   2.153 -0.2599 -0.7211 -0.1938
  407SOL    HW1 1354   1.182   2.204   2.122 -0.5587  0.1795  0.8288
  407SOL    HW2 1355   1.294   2.284   2.183  1.5321 -0.5414 -1.8620
  408SOL     OW 1356   0.318   2.897   3.451 -0.5672 -0.1710 -0.0564
  408SOL    HW1 1357   0.365   2.980   3.447 -1.3892  0.2709 -3.4696
  408SOL    HW2 1358   0.381   2.833   3.417  0.2756 -1.1765  3.1172
  409SOL     OW 1359   1.767   3.546   0.739 -0.1504 -1.0394  0.1285
  409SOL    HW1 1360   1.748   3.632   0.701  0.7699 -1.3906 -1.2490
  409SOL    HW2 1361   1.689   3.523   0.789 -0.6076  0.3728  0.1025
  410SOL     OW 1362   0.652   2.450   3.333  0.3556  0.1192 -0.2827
  410SOL    HW1 1363   0.747   2.435   3.331  0.0179 -2.5909 -0.0467
  410SOL    HW2 1364   0.629   2.447   3.425 -0.3370 -2.9502 -0.4362
  411SOL     OW 1365   3.477   2.325   3.685 -0.4365  0.9037  0.3327
  411SOL    HW1 1366   3.572   2.330   3.681 -0.4240  0.8366  0.5201
  411SOL    HW2 1367   3.452   2.273   3.608 -0.1799 -0.7118  1.2962
  412SOL     OW 1368   0.824   0.952   1.608 -0.4183  0.4145  0.2917
  412SOL    HW1 1369   0.738   0.965   1.647 -1.1924  0.4512 -1.3165
  412SOL    HW2 1370   0.810   0.966   1.514  0.9805 -1.1913 -0.2282
  413SOL     OW 1371   3.024   1.985   3.525  0.1592 -0.1713  0.5480
  413SOL    HW1 1372   3.068   2.040   3.590 -0.4718  0.5464  0.3766
  413SOL    HW2 1373   3.093   1.958   3.465  0.6502 -0.3811  1.2017
  414SOL     OW 1374   2.118   0.048   0.679 -0.1504  0.2981 -0.3100
  414SOL    HW1 1375   2.029   0.014   0.690 -0.5160  0.8420 -1.4691
  414SOL    HW2 1376   2.132   0.102   0.757 -1.0404  0.6050 -0.3417
  415SOL     OW 1377   3.499   0.946   1.594 -0.0931 -0.7013 -0.1852
  415SOL    HW1 1378   3.429   0.881   1.603 -1.6731  0.8556 -0.4990
  415SOL    HW2 1379   3.489   0.979   1.504  0.2798  0.3524  0.1444
  416SOL     OW 1380   0.432   3.148   1.867 -0.9526 -0.3063  0.3018
  416SOL    HW1 1381   0.443   3.058   1.896  0.2119 -0.8725 -1.6786
  416SOL    HW2 1382   0.518   3.188   1.882 -1.4450  0.4785  1.1164
  417SOL     OW 1383   1.429   2.785   0.277 -0.4602  0.0942 -1.0609
  417SOL    HW1 1384   1.514   2.750   0.250 -1.1906 -1.6221 -1.2531
  417SOL    HW2 1385   1.378   2.789   0.196 -1.2412 -0.9307 -0.6406
  418SOL     OW 1386   2.548   0.055   0.551  0.2516  0.2076 -0.3844
  418SOL    HW1 1387   2.465   0.020   0.517 -0.6502 -0.4909  2.3207
  418SOL    HW2 1388   2.546   0.148   0.528 -0.6996 -0.0365 -1.3790
  419SOL     OW 1389   3.242   2.950   2.836  0.0822 -0.3642 -0.0181
  419SOL    HW1 1390   3.184   3.025   2.846 -0.9904 -1.2888  1.0957
  419SOL    HW2 1391   3.305   2.977   2.770 -0.7230  1.2301 -0.1906
  420SOL     OW 1392   3.110   3.655   3.741  0.2370  0.0612  0.4564
  420SOL    HW1 1393   3.035   3.605   3.709  2.3831 -1.3611 -2.8301
  420SOL    HW2 1394   3.089   3.746   3.719 -0.4237 -0.3367 -0.6562
  421SOL     OW 1395   0.960   3.276   3.690 -0.0358 -0.5346 -0.5912
  421SOL    HW1 1396   1.044   3.251   3.728 -0.1406 -3.1020 -1.8681
  421SOL    HW2 1397   0.960   3.238   3.602 -2.9752 -1.6661 -0.2335
  422SOL     OW 1398   3.690   2.365   1.537  0.3581  0.4871  0.5814
  422SOL    HW1 1399   3.669   2.438   1.480 -0.2330  0.3837  0.6590
  422SOL    HW2 1400   3.713   2.293   1.478 -0.6245  0.2665  0.4466
  423SOL     OW 1401   0.752   1.701   3.224 -0.5444 -1.0548  0.2303
  423SOL    HW1 1402   0.688   1.760   3.263  2.5583  0.7012  3.1530
  423SOL    HW2 1403   0.800   1.756   3.161  1.5491 -0.6619  2.0603
  424SOL     OW 1404   0.481   0.382   1.503 -0.4382 -0.5901  0.3372
  424SOL    HW1 1405   0.504   0.316   1.437  0.4811 -0.9487  0.9896
  424SOL    HW2 1406   0.474   0.463   1.453 -2.0297 -1.2303 -0.5520
  425SOL     OW 1407   1.098   3.391   3.382  0.0619  0.2934 -0.0294
  425SOL    HW1 1408   1.143   3.311   3.408  0.9149 -0.0795 -2.4233
  425SOL    HW2 1409   1.022   3.361   3.331  1.2554  0.9190 -2.3223
  426SOL     OW 1410   3.687   0.685   0.260  0.0052 -0.4571 -0.3023
  426SOL    HW1 1411   3.658   0.766   0.304 -1.1207 -0.7957 -0.3807
  426SOL    HW2 1412   3.778   0.675   0.287  0.4115  1.2294 -0.8838
  427SOL     OW 1413   0.919   3.125   3.465 -0.1685 -0.3144 -0.6874
  427SOL    HW1 1414   0.825   3.146   3.469  0.2170  1.4602 -0.5187
  427SOL    HW2 1415   0.943   3.138   3.373 -0.1020 -0.8895 -0.7552
  428SOL     OW 1416   3.327   2.658   1.511  0.0439  0.3645  0.0178
  428SOL    HW1 1417   3.325   2.636   1.604  0.6974  1.2542  0.2528
  428SOL    HW2 1418   3.321   2.754   1.509  0.2437  0.3668 -0.8541
  429SOL     OW 1419   1.639   2.639   0.207  0.2986  0.0415 -0.4416
  429SOL    HW1 1420   1.689   2.675   0.134 -0.4739 -0.1177 -1.0602
  429SOL    HW2 1421   1.660   2.545   0.206  1.0555  0.1931  0.1681
  430SOL     OW 1422   0.068   0.241   0.439 -0.0303  0.1059 -0.1720
  430SOL    HW1 1423   0.025   0.200   0.364 -0.7145  0.1851  0.1669
  430SOL    HW2 1424   0.007   0.309   0.467 -0.6910 -1.1349  1.6100
  431SOL     OW 1425   2.793   1.777   3.038 -0.1926 -0.8716  0.0671
  431SOL    HW1 1426   2.752   1.795   3.122  2.3126  1.7613  0.8649
  431SOL    HW2 1427   2.884   1.803   3.049  1.3051 -4.2808 -2.2639
  432SOL     OW 1428   3.114   2.552   3.454 -0.5569 -0.4656  0.2088
  432SOL    HW1 1429   3.053   2.626   3.460 -2.1848 -1.5468 -1.6812
  432SOL    HW2 1430   3.200   2.593   3.453 -1.2700  1.2229  1.7212
  433SOL     OW 1431   1.318   0.976   3.565  0.4088 -0.4250  0.0719
  433SOL    HW1 1432   1.301   0.965   3.471 -0.1806 -0.5230  0.1806
  433SOL    HW2 1433   1.381   1.047   3.570 -1.0942  1.0205 -0.3182
  434SOL     OW 1434   2.181   2.671   1.164  0.3517  0.0025  0.0950
  434SOL    HW1 1435   2.091   2.664   1.197  0.2110 -0.0816 -0.3053
  434SOL    HW2 1436   2.211   2.580   1.158  1.3886  0.0808  2.7172
  435SOL     OW 1437   1.025   1.266   1.712  0.0475 -0.4716 -0.2847
  435SOL    HW1 1438   0.987   1.286   1.798  0.8141 -0.7865  0.1442
  435SOL    HW2 1439   1.120   1.267   1.728  0.1922 -0.6509 -1.1061
  436SOL     OW 1440   0.745   0.438   1.362 -0.2505  0.1855 -0.0627
  436SOL    HW1 1441   0.839   0.436   1.383 -0.1084 -0.3048 -0.7429
  436SOL    HW2 1442   0.714   0.349   1.380  0.1596 -0.6854 -3.1389
  437SOL     OW 1443   3.340   2.130   1.147  0.1573 -0.4679  0.2447
  437SOL    HW1 1444   3.397   2.099   1.077  1.2550  1.1018  0.3971
  437SOL    HW2 1445   3.300   2.209   1.113 -2.0514 -1.5550  0.1262
  438SOL     OW 1446   2.921   1.801   0.735  0.2924 -0.3108 -0.2004
  438SOL    HW1 1447   2.973   1.881   0.734  1.5681 -1.0680  0.8897
  438SOL    HW2 1448   2.883   1.797   0.822  1.5921 -1.6624  0.3580
  439SOL     OW 1449   0.998   3.139   3.216 -0.2048 -0.7908  0.9180
  439SOL    HW1 1450   0.970   3.109   3.129 -1.1960 -1.8765  1.5651
  439SOL    HW2 1451   1.092   3.125   3.217  0.1001  0.8749 -0.5730
  440SOL     OW 1452   0.356   2.889   3.723  0.2541 -1.6421 -0.1847
  440SOL    HW1 1453   0.336   2.796   3.735 -1.1384 -1.5351 -1.4373
  440SOL    HW2 1454   0.327   2.909   3.634  2.7946 -0.5530 -0.8581
  441SOL     OW 1455   0.192   2.797   2.469 -0.0074 -0.4434  0.5359
  441SOL    HW1 1456   0.247   2.859   2.517 -0.6350  0.2031  0.4460
  441SOL    HW2 1457   0.150   2.851   2.401  1.0481 -1.3682 -0.9161
  442SOL     OW 1458   3.130   0.199   1.527 -0.2826  0.3689 -0.2996
  442SOL    HW1 1459   3.095   0.196   1.616  0.5997  0.3210  0.0605
  442SOL    HW2 1460   3.115   0.111   1.492 -0.4427  0.3246 -0.1231
  443SOL     OW 1461   2.258   3.079   3.444  0.0953  0.3250  0.1014
  443SOL    HW1 1462   2.173   3.120   3.427  0.0734  0.9456  1.5921
  443SOL    HW2 1463   2.238   2.986   3.454 -0.3711  0.4365  0.2226
  444SOL     OW 1464   0.268   1.415   0.364 -0.0503 -0.7742  0.2706
  444SOL    HW1 1465   0.245   1.338   0.311 -0.0247  0.3764 -1.4957
  444SOL    HW2 1466   0.184   1.461   0.376  0.1713 -0.2916 -0.0063
  445SOL     OW 1467   3.221   2.040   2.364  0.9315 -0.0851 -0.4747
  445SOL    HW1 1468   3.272   2.083   2.433  0.6313 -0.3187 -0.1044
  445SOL    HW2 1469   3.188   1.960   2.404  0.4018 -0.0132 -0.7583
  446SOL     OW 1470   1.513   3.149   2.203 -0.0911  0.0023 -0.3741
  446SOL    HW1 1471   1.521   3.071   2.258  0.8871  0.5627  0.3042
  446SOL    HW2 1472   1.446   3.126   2.138  1.1613 -1.8873 -1.0568
  447SOL     OW 1473   2.487   2.374   2.996 -0.2932 -0.1450  0.0662
  447SOL    HW1 1474   2.431   2.331   3.060  0.0155 -0.5730  0.0483
  447SOL    HW2 1475   2.435   2.374   2.915  0.3421 -2.0022 -0.3826
  448SOL     OW 1476   2.050   1.490   2.713  0.0429 -0.3546 -0.2209
  448SOL    HW1 1477   2.050   1.429   2.787  0.1669 -1.5361 -1.1550
  448SOL    HW2 1478   2.038   1.576   2.753  0.9356 -0.8638  1.2314
  449SOL     OW 1479   2.383   2.867   2.798  0.2191 -0.2392  0.0781
  449SOL    HW1 1480   2.387   2.830   2.710 -0.1532  0.1673 -0.1108
  449SOL    HW2 1481   2.298   2.909   2.803  0.1689 -0.3997  0.6924
  450SOL     OW 1482   2.649   3.218   1.448  0.4361 -0.0783 -0.2603
  450SOL    HW1 1483   2.577   3.158   1.427  2.2930 -1.9493 -1.6691
  450SOL    HW2 1484   2.683   3.187   1.532  0.0030  0.4211  0.1043
  451SOL     OW 1485   2.246   2.478   1.414 -0.2322  0.6901  0.3196
  451SOL    HW1 1486   2.181   2.416   1.446 -0.0538  0.9930  1.2807
  451SOL    HW2 1487   2.286   2.434   1.338  0.2336 -0.5888  1.2661
  452SOL     OW 1488   2.721   3.047   2.761  0.1810 -0.0623  0.5953
  452SOL    HW1 1489   2.741   3.108   2.832  0.4403  0.2602  0.2520
  452SOL    HW2 1490   2.626   3.041   2.761  0.0503  1.3608 -0.1765
  453SOL     OW 1491  -0.006   1.752   3.331  0.2909  0.6316 -0.0898
  453SOL    HW1 1492   0.051   1.712   3.265  1.3643  1.2321  0.4416
  453SOL    HW2 1493  -0.035   1.679   3.385  2.6472  0.5514  1.1883
  454SOL     OW 1494   1.367   0.445   1.473 -0.9142 -0.2113 -0.5503
  454SOL    HW1 1495   1.412   0.510   1.420 -0.5974  0.3793  0.4141
  454SOL    HW2 1496   1.401   0.459   1.562 -0.6565 -1.8626 -0.3707
  455SOL     OW 1497   0.344   2.181   1.260  0.0199  0.4873  0.0466
  455SOL    HW1 1498   0.336   2.175   1.165 -1.9432 -1.8491  0.2626
  455SOL    HW2 1499   0.421   2.129   1.281  0.2884  0.7706 -0.2227
  456SOL     OW 1500   0.988   1.235   2.298  0.1274  0.1404  0.5523
  456SOL    HW1 1501   0.927   1.200   2.233 -0.7470 -0.1466  1.5029
  456SOL    HW2 1502   1.074   1.203   2.269 -0.0470  1.0973 -1.1668
  457SOL     OW 1503   1.735   3.355   2.801  0.0865 -0.1866  0.1597
  457SOL    HW1 1504   1.693   3.349   2.716 -0.4281 -0.1154  0.4060
  457SOL    HW2 1505   1.670   3.323   2.863  0.7079 -0.9186  0.4587
  458SOL     OW 1506   0.827   0.210   1.169  0.8812 -0.3321 -0.3720
  458SOL    HW1 1507   0.794   0.269   1.101 -0.2475  0.0424  0.4585
  458SOL    HW2 1508   0.899   0.163   1.128 -0.7457 -1.2511 -2.3386
  459SOL     OW 1509   0.772   1.698   0.593  0.4636  0.3210 -0.0450
  459SOL    HW1 1510   0.853   1.744   0.613  0.3589  0.3428  0.3188
  459SOL    HW2 1511   0.800   1.624   0.539  0.3667  2.3551 -3.1523
  460SOL     OW 1512   0.922   2.797   1.132 -0.2307  0.0726 -0.0025
  460SOL    HW1 1513   0.829   2.814   1.144 -1.2090 -3.0708 -1.8554
  460SOL    HW2 1514   0.933   2.790   1.037  2.5579  3.0318 -0.0712
  461SOL     OW 1515   3.515   1.483   3.706  0.0005 -0.8215 -0.2451
  461SOL    HW1 1516   3.440   1.495   3.647 -0.1062 -0.8074 -0.1082
  461SOL    HW2 1517   3.484   1.422   3.772  0.0193 -0.6079 -0.0351
  462SOL     OW 1518   3.344   0.877   0.000 -0.4934  0.4869 -0.6740
  462SOL    HW1 1519   3.416   0.938  -0.017 -0.1945 -0.0292 -1.2729
  462SOL    HW2 1520   3.366   0.836   0.083 -1.6814  2.6106  0.8062
  463SOL     OW 1521   0.141   2.458   2.918  0.1214 -0.0324 -0.4161
  463SOL    HW1 1522   0.113   2.449   3.009 -1.7320 -2.7959 -1.1463
  463SOL    HW2 1523   0.070   2.505   2.875  0.5427  0.3866 -0.6787
  464SOL     OW 1524   0.479   0.941   2.959 -0.0599 -0.6052 -0.1904
  464SOL    HW1 1525   0.534   0.929   2.882 -2.6843  0.2201 -2.3487
  464SOL    HW2 1526   0.440   0.855   2.976  0.6723 -0.8344  0.3961
  465SOL     OW 1527   3.074   2.907   1.482  0.2728 -0.4328  0.0383
  465SOL    HW1 1528   3.046   2.823   1.518  2.4973 -1.5172 -0.6098
  465SOL    HW2 1529   3.158   2.925   1.524 -0.2209  1.5604  0.2648
  466SOL     OW 1530   0.499   0.873   0.871  0.0900 -0.0999 -0.3995
  466SOL    HW1 1531   0.405   0.891   0.864  0.1599  0.2303 -0.4713
  466SOL    HW2 1532   0.505   0.777   0.866 -0.4524 -0.3220  1.8211
  467SOL     OW 1533   1.421   1.090   2.775 -0.5016  0.7576  0.1882
  467SOL    HW1 1534   1.420   1.062   2.866  2.3362 -2.1774 -0.4768
  467SOL    HW2 1535   1.346   1.045   2.736  0.8369 -1.7410  0.2909
  468SOL     OW 1536   0.471   0.051   0.133 -0.6167  0.5152  0.4764
  468SOL    HW1 1537   0.418  -0.029   0.131 -2.0888  1.4650 -0.6408
  468SOL    HW2 1538   0.450   0.096   0.051  0.9564  1.5728  0.6115
  469SOL     OW 1539   3.571   0.310   2.357 -0.2202 -0.3897 -0.1493
  469SOL    HW1 1540   3.582   0.301   2.263 -0.6189  0.2035 -0.2568
  469SOL    HW2 1541   3.655   0.346   2.388 -0.2620 -0.1218 -0.3459
  470SOL     OW 1542   3.279   1.753   2.530 -0.5589  0.0878 -0.2624
  470SOL    HW1 1543   3.278   1.665   2.493  2.2940 -0.3103  0.3649
  470SOL    HW2 1544   3.369   1.782   2.519 -0.8338  1.9480  1.7774
  471SOL     OW 1545   1.578   1.497   3.138 -0.4941  0.3895 -0.4061
  471SOL    HW1 1546   1.548   1.453   3.058  0.7791 -0.3745 -0.4881
  471SOL    HW2 1547   1.545   1.442   3.209  0.1151 -0.0844 -0.4786
  472SOL     OW 1548   2.515   2.174   3.536 -0.6633  0.3176 -0.0992
  472SOL    HW1 1549   2.498   2.097   3.590 -1.4710  1.0609  0.7465
  472SOL    HW2 1550   2.587   2.148   3.478 -1.2016 -1.1940 -0.1245
  473SOL     OW 1551   0.836   3.457   3.267 -0.4336 -0.4413 -0.2154
  473SOL    HW1 1552   0.776   3.527   3.292 -0.1016 -0.1422 -0.2479
  473SOL    HW2 1553   0.791   3.376   3.293 -1.3782 -0.3003 -1.3199
  474SOL     OW 1554   1.736   0.213   2.876 -0.2929 -0.1945 -0.0549
  474SOL    HW1 1555   1.777   0.294   2.907 -0.0127 -0.8871  1.4544
  474SOL    HW2 1556   1.809   0.157   2.850 -0.4884  0.0234 -1.1410
  475SOL     OW 1557   0.196   2.652   1.486  0.1820 -0.1308  0.5081
  475SOL    HW1 1558   0.124   2.696   1.531 -2.0014 -2.0760 -0.8183
  475SOL    HW2 1559   0.189   2.682   1.395  2.1268  0.8485  0.6211
  476SOL     OW 1560   1.480   1.183   3.607  0.4799 -0.1706 -0.4988
  476SOL    HW1 1561   1.553   1.218   3.555  1.4810 -0.1929  0.8409
  476SOL    HW2 1562   1.517   1.170   3.694 -1.2087  0.0771  0.2957
  477SOL     OW 1563   1.987   0.832   3.303  0.4620 -0.1646 -0.1989
  477SOL    HW1 1564   1.924   0.787   3.247 -1.7842  2.1631  0.2762
  477SOL    HW2 1565   1.937   0.901   3.346  3.1681  1.2878  0.9051
  478SOL     OW 1566   2.105   1.133   3.251 -0.0094  0.0459  0.0584
  478SOL    HW1 1567   2.126   1.061   3.191  2.7190 -0.5086  1.5425
  478SOL    HW2 1568   2.135   1.212   3.206  0.1058 -0.1217 -0.1587
  479SOL     OW 1569   0.722   0.893   2.365  0.4499  0.1096 -0.5219
  479SOL    HW1 1570   0.632   0.877   2.336  0.6605 -0.6364 -0.7918
  479SOL    HW2 1571   0.719   0.979   2.406 -0.4523 -0.0329 -0.2627
  480SOL     OW 1572   2.798   0.564   2.400  0.4715  0.2251 -0.5144
  480SOL    HW1 1573   2.806   0.626   2.473 -0.1033  1.8934 -1.7851
  480SOL    HW2 1574   2.888   0.545   2.375  0.7436  2.5156 -1.6006
  481SOL     OW 1575   2.149   0.197   2.665  0.7429  0.7242  0.2506
  481SOL    HW1 1576   2.106   0.237   2.741  0.4973  0.5333  0.2169
  481SOL    HW2 1577   2.114   0.245   2.590  0.0820  0.1457  0.1740
  482SOL     OW 1578   3.730   1.549   0.392 -0.0921 -0.2685  0.1230
  482SOL    HW1 1579   3.734   1.547   0.487  1.1311 -0.5687  0.0835
  482SOL    HW2 1580   3.688   1.466   0.368 -0.4519 -0.1683  0.3949
  483SOL     OW 1581   3.191   3.526   0.247 -0.2149  0.3344 -0.4188
  483SOL    HW1 1582   3.274   3.486   0.272  0.0923  1.3882  0.3167
  483SOL    HW2 1583   3.216   3.601   0.193 -0.6625  0.8009  0.0099
  484SOL     OW 1584   3.095   2.239   2.078  0.1917  0.1851 -0.6476
  484SOL    HW1 1585   3.159   2.170   2.062  0.9849  0.5586  0.7745
  484SOL    HW2 1586   3.123   2.280   2.160 -1.6830  0.5836 -0.1637
  485SOL     OW 1587   2.531   2.666   2.954  0.8007  0.2332  0.3602
  485SOL    HW1 1588   2.520   2.571   2.947  1.6513  0.0775  0.9468
  485SOL    HW2 1589   2.467   2.702   2.893  0.5286 -0.7196  0.0608
  486SOL     OW 1590   0.955   2.174   2.538 -0.3099  0.5317 -0.2363
  486SOL    HW1 1591   0.955   2.112   2.465  2.2667 -0.7829  0.7506
  486SOL    HW2 1592   0.957   2.119   2.616 -0.6585  1.8929  0.7612
  487SOL     OW 1593   1.287   1.954   1.905 -0.2627 -0.2067 -0.0918
  487SOL    HW1 1594   1.351   2.014   1.944  0.0343 -0.1937 -0.5932
  487SOL    HW2 1595   1.313   1.947   1.813 -0.2486 -1.1760 -0.0206
  488SOL     OW 1596   0.852   3.351   1.951  0.5479 -0.3281 -0.5370
  488SOL    HW1 1597   0.908   3.338   1.875  1.0559  0.9220 -0.3801
  488SOL    HW2 1598   0.907   3.394   2.016 -0.1479 -0.5210  0.2044
  489SOL     OW 1599   3.410   2.540   2.840 -0.0718  0.5367 -0.0634
  489SOL    HW1 1600   3.350   2.611   2.864 -0.3050  0.0885  0.7062
  489SOL    HW2 1601   3.425   2.493   2.922  0.9046  0.3187 -0.3629
  490SOL     OW 1602   0.015   3.055   2.888  0.6880  0.0399 -0.3718
  490SOL    HW1 1603   0.107   3.079   2.902  0.0530  2.3045  0.2452
  490SOL    HW2 1604  -0.013   3.017   2.971  0.1306  2.7262  0.7643
  491SOL     OW 1605   0.163   0.842   2.322 -0.2337  0.0400 -0.4060
  491SOL    HW1 1606   0.135   0.843   2.413  0.1877 -1.4334 -0.2490
  491SOL    HW2 1607   0.187   0.933   2.304 -1.0979  0.5175  0.6893
  492SOL     OW 1608   3.692   2.007   3.371  0.0963  0.1026  0.6075
  492SOL    HW1 1609   3.640   2.019   3.450 -4.0209 -0.0372 -1.8312
  492SOL    HW2 1610   3.687   1.913   3.352 -0.5591  0.3881 -0.7529
  493SOL     OW 1611   2.070   3.254   0.270  0.5467  0.2392 -0.4066
  493SOL    HW1 1612   2.085   3.197   0.345  3.4766  0.5217 -0.6379
  493SOL    HW2 1613   2.010   3.321   0.302  0.1285 -0.7825  1.0370
  494SOL     OW 1614   0.491   3.224   3.065 -0.8256 -0.1762 -0.3141
  494SOL    HW1 1615   0.514   3.155   3.128  3.3031 -1.3514 -2.6830
  494SOL    HW2 1616   0.457   3.295   3.119  0.3423 -1.8760  2.9767
  495SOL     OW 1617   2.153   0.080   3.473 -0.2722 -0.3612  0.8953
  495SOL    HW1 1618   2.139   0.002   3.526 -3.6658 -1.0198 -0.7461
  495SOL    HW2 1619   2.132   0.153   3.532  1.4066 -0.7027  1.9776
  496SOL     OW 1620   0.452   0.948   1.165 -0.5478  0.3759  0.2519
  496SOL    HW1 1621   0.453   0.930   1.071  3.1422  3.5234 -0.6072
  496SOL    HW2 1622   0.390   1.020   1.175 -2.0103 -0.8960  0.5345
  497SOL     OW 1623   0.796   3.045   2.653  0.3033  0.4243 -0.3521
  497SOL    HW1 1624   0.738   3.088   2.716  1.8004  2.4805 -0.2468
  497SOL    HW2 1625   0.784   2.952   2.669 -2.8250  0.7330 -0.2745
  498SOL     OW 1626   1.025   0.545   3.399  0.0483 -0.3984 -0.4120
  498SOL    HW1 1627   1.030   0.625   3.348 -0.9440  1.1007  1.7052
  498SOL    HW2 1628   0.931   0.530   3.412  0.2174 -1.8535 -0.6392
  499SOL     OW 1629   2.533   0.010   0.902 -0.0360  0.5017  0.1526
  499SOL    HW1 1630   2.495   0.084   0.855 -1.5147  0.1302  0.7161
  499SOL    HW2 1631   2.506  -0.067   0.851  1.1238  0.2912 -0.1870
  500SOL     OW 1632   3.684   2.825   1.628 -0.2663 -0.2734 -0.0036
  500SOL    HW1 1633   3.709   2.764   1.697 -0.0975 -1.1826 -0.8422
  500SOL    HW2 1634   3.602   2.863   1.659  0.6441  0.5922  1.4492
  501SOL     OW 1635   2.998   0.928   3.367  0.2789  0.3738  0.0926
  501SOL    HW1 1636   3.020   0.992   3.299 -1.3638  0.2497 -0.5996
  501SOL    HW2 1637   2.904   0.916   3.359  0.3614 -1.1752  1.0818
  502SOL     OW 1638   2.751   0.843   0.149  0.5122  0.4931  0.2820
  502SOL    HW1 1639   2.829   0.811   0.194  0.1949 -0.0108  0.4867
  502SOL    HW2 1640   2.763   0.938   0.143  2.0006  0.2648 -1.3105
  503SOL     OW 1641   0.561   1.544   0.548 -0.1853 -0.7590 -0.1883
  503SOL    HW1 1642   0.504   1.619   0.534  2.0439  0.7643 -1.7592
  503SOL    HW2 1643   0.583   1.548   0.642 -0.4544  0.2715 -0.1574
  504SOL     OW 1644   1.232   1.679   1.028  0.5180 -0.6043  0.2778
  504SOL    HW1 1645   1.298   1.749   1.029  1.5795 -1.5684  0.7801
  504SOL    HW2 1646   1.187   1.688   1.111 -0.4732  0.4660 -0.3389
  505SOL     OW 1647   3.723   2.366   3.126  0.4924  0.1780  0.1394
  505SOL    HW1 1648   3.673   2.327   3.198  0.8871 -0.3018  0.1591
  505SOL    HW2 1649   3.770   2.440   3.166  1.1896 -0.4584  0.5189
  506SOL     OW 1650   0.969   2.520   0.970 -0.3595  0.0707 -0.2047
  506SOL    HW1 1651   0.997   2.606   1.001 -1.7149  0.2832  0.5422
  506SOL    HW2 1652   1.009   2.510   0.884  0.4212  1.1260  0.0230
  507SOL     OW 1653   0.855   2.832   0.268  0.2282  0.3755 -0.6729
  507SOL    HW1 1654   0.798   2.874   0.203 -1.7069 -1.1604 -0.0652
  507SOL    HW2 1655   0.795   2.794   0.331  2.0192  2.2336  2.3868
  508SOL     OW 1656   2.159   1.623   2.443 -0.2314  0.6701  0.1981
  508SOL    HW1 1657   2.209   1.557   2.490 -1.2018 -0.4776 -0.3520
  508SOL    HW2 1658   2.068   1.606   2.465 -0.8688 -0.7618 -3.0162
  509SOL     OW 1659   2.093   0.670   1.989 -0.0894 -0.1293 -0.3195
  509SOL    HW1 1660   2.045   0.726   1.928  0.5543  0.3995 -0.3576
  509SOL    HW2 1661   2.149   0.616   1.934  1.7947  1.5633 -0.1793
  510SOL     OW 1662   0.985   2.620   2.163  0.5166 -0.0472  0.3844
  510SOL    HW1 1663   0.959   2.694   2.108 -1.9658 -2.1179 -1.4967
  510SOL    HW2 1664   1.015   2.554   2.100  0.3426 -1.4999  1.7626
  511SOL     OW 1665   0.461   1.310   2.876  0.4846 -0.5456  0.2620
  511SOL    HW1 1666   0.495   1.399   2.882  0.4293 -0.5448  0.5760
  511SOL    HW2 1667   0.527   1.256   2.920 -0.2320 -0.4581  1.4797
  512SOL     OW 1668   1.749   1.689   0.111  0.0775 -1.0483  0.1435
  512SOL    HW1 1669   1.656   1.687   0.088  0.1008  1.1688 -0.3294
  512SOL    HW2 1670   1.750   1.672   0.205 -0.8970 -0.3018  0.3125
  513SOL     OW 1671   2.127   1.382   1.853 -0.3738  0.3037  0.3614
  513SOL    HW1 1672   2.061   1.382   1.923 -1.2571 -0.4010 -0.4356
  513SOL    HW2 1673   2.131   1.291   1.823 -1.0838  0.8113 -1.4478
  514SOL     OW 1674   2.080   0.051   3.006 -0.1215 -0.1761  0.0649
  514SOL    HW1 1675   2.068   0.142   2.979 -0.6993  0.1624  1.3725
  514SOL    HW2 1676   2.123   0.009   2.932  0.4049  1.2299 -0.4526
  515SOL     OW 1677   3.697   0.769   1.693  0.9867 -0.0544 -0.1758
  515SOL    HW1 1678   3.668   0.852   1.653  0.4192 -1.0180 -1.8626
  515SOL    HW2 1679   3.779   0.749   1.647  0.8914 -0.6536 -0.0873
  516SOL     OW 1680   0.867   1.490   1.620  0.5709  0.1595 -0.2980
  516SOL    HW1 1681   0.782   1.497   1.663  0.6391  0.3900 -0.1980
  516SOL    HW2 1682   0.905   1.409   1.656  0.7098  0.4496  0.2283
  517SOL     OW 1683   1.293   1.341   0.312 -0.9880  0.5395  0.2987
  517SOL    HW1 1684   1.367   1.380   0.266 -0.1405  1.8124  2.5774
  517SOL    HW2 1685   1.225   1.408   0.311 -1.3843  0.1437 -0.0458
  518SOL     OW 1686   0.039   0.043   1.669  0.7398 -0.1934 -0.1974
  518SOL    HW1 1687   0.104   0.059   1.601  2.1420 -2.2139  0.5615
  518SOL    HW2 1688   0.083   0.069   1.750 -0.2644  0.5534  0.1208
  519SOL     OW 1689   0.303   3.005   2.615  0.3398  0.4424  0.0472
  519SOL    HW1 1690   0.378   3.031   2.563  0.7600 -1.1613 -0.1983
  519SOL    HW2 1691   0.295   3.072   2.682  2.0649  0.5728  0.1449
  520SOL     OW 1692   1.574   2.252   2.168 -0.7425  0.3363 -0.1095
  520SOL    HW1 1693   1.479   2.240   2.157 -0.9512 -1.5699  2.7341
  520SOL    HW2 1694   1.591   2.222   2.257  2.4246  1.5918 -0.1930
  521SOL     OW 1695   1.567   1.063   2.539 -0.6757  0.5779 -0.5516
  521SOL    HW1 1696   1.524   1.063   2.624  1.2943 -1.4697  0.5852
  521SOL    HW2 1697   1.614   1.147   2.535 -0.5745  0.5851  0.5351
  522SOL     OW 1698   3.617   2.830   2.506 -0.0110  0.1504 -0.3760
  522SOL    HW1 1699   3.690   2.891   2.519  0.6851 -0.5293 -1.0392
  522SOL    HW2 1700   3.587   2.810   2.595  0.5157  0.5465 -0.0979
  523SOL     OW 1701   1.251   2.653   0.463 -0.0169  0.6220  0.3639
  523SOL    HW1 1702   1.329   2.706   0.450  0.0377  0.3131 -0.6661
  523SOL    HW2 1703   1.198   2.668   0.385  0.0462 -0.9042 -0.0057
  524SOL     OW 1704   2.456   2.528   2.625  0.2397  0.5128  0.2827
  524SOL    HW1 1705   2.514   2.517   2.550  2.9204  2.9192  1.8423
  524SOL    HW2 1706   2.420   2.617   2.615 -2.1890 -0.3998  0.1168
  525SOL     OW 1707   0.569   1.567   2.260 -0.4062 -0.0615  0.5149
  525SOL    HW1 1708   0.517   1.639   2.226 -0.0636  0.8240  1.7804
  525SOL    HW2 1709   0.645   1.609   2.301 -0.2710 -1.1172  1.4033
  526SOL     OW 1710   1.091   2.756   3.008  0.1666 -0.1736 -0.4102
  526SOL    HW1 1711   1.160   2.816   3.038 -0.2432  0.0176  0.1625
  526SOL    HW2 1712   1.083   2.691   3.078 -0.9752  0.4239  0.0475
  527SOL     OW 1713   3.170   2.447   1.924 -0.4717  0.4906 -0.6831
  527SOL    HW1 1714   3.111   2.372   1.918 -2.3372  1.7398  0.7451
  527SOL    HW2 1715   3.185   2.458   2.018 -0.2954  1.9136 -0.8446
  528SOL     OW 1716   0.237   1.238   2.499  1.0620 -0.3377 -0.4038
  528SOL    HW1 1717   0.243   1.324   2.541  1.0938 -0.3993 -0.2852
  528SOL    HW2 1718   0.144   1.216   2.504  1.0534 -0.3091 -0.4367
  529SOL     OW 1719   1.730   1.778   1.324  0.4935  0.1377 -0.5533
  529SOL    HW1 1720   1.814   1.791   1.282  1.1854  2.8153  1.3418
  529SOL    HW2 1721   1.745   1.711   1.390  1.6446  1.6241  0.7729
  530SOL     OW 1722   2.827   2.729   3.649 -0.0616  0.5403 -0.2439
  530SOL    HW1 1723   2.819   2.639   3.619  1.0869  0.5554 -0.6745
  530SOL    HW2 1724   2.789   2.730   3.737 -1.0149 -0.1172 -0.6319
  531SOL     OW 1725   3.645   3.204   1.732  0.4271 -0.3703  0.3868
  531SOL    HW1 1726   3.611   3.251   1.656 -1.6077 -1.1250  0.7687
  531SOL    HW2 1727   3.739   3.219   1.729  0.1104  1.9193 -0.7200
  532SOL     OW 1728   1.706   2.253   2.537  0.2199 -0.2079 -0.0552
  532SOL    HW1 1729   1.664   2.241   2.622  0.0767  1.5055  0.1524
  532SOL    HW2 1730   1.645   2.216   2.474  0.5228 -1.9026  0.5899
  533SOL     OW 1731   2.865   3.053   2.144 -0.0836 -0.4226  0.2935
  533SOL    HW1 1732   2.942   3.036   2.091  0.0142  0.9232 -0.0230
  533SOL    HW2 1733   2.887   3.017   2.230  1.4023  1.0122  0.5616
  534SOL     OW 1734   2.080   2.935   1.310 -0.7301  0.0914 -0.1198
  534SOL    HW1 1735   1.992   2.911   1.280 -0.5721  0.6692 -1.0642
  534SOL    HW2 1736   2.139   2.896   1.246 -0.0936 -2.5872  1.9007
  535SOL     OW 1737   1.488   0.400   2.957 -0.0518 -0.3377 -0.2123
  535SOL    HW1 1738   1.522   0.327   3.009 -0.0243 -0.9662 -1.0808
  535SOL    HW2 1739   1.483   0.365   2.868 -0.1348  0.6981 -0.6262
  536SOL     OW 1740   1.771   3.745   1.112 -0.5274 -0.6112  0.1157
  536SOL    HW1 1741   1.821   3.735   1.193  1.0758  0.9947 -0.6001
  536SOL    HW2 1742   1.830   3.712   1.044 -1.2649 -0.5940 -0.5394
  537SOL     OW 1743   0.675   0.254   2.009  0.5953 -0.2832  0.0502
  537SOL    HW1 1744   0.611   0.289   1.948 -0.3405 -2.0418 -0.0486
  537SOL    HW2 1745   0.757   0.298   1.987 -0.3961  1.4773 -0.3079
  538SOL     OW 1746   0.859   1.751   1.151  0.4948 -0.5445 -0.0216
  538SOL    HW1 1747   0.949   1.775   1.173  0.6841 -2.4364  1.4722
  538SOL    HW2 1748   0.861   1.656   1.141 -1.4190 -0.6657  0.3973
  539SOL     OW 1749   2.396   2.485   0.865 -0.0717 -0.4436 -0.6754
  539SOL    HW1 1750   2.383   2.573   0.830 -3.1218 -0.7488 -0.6104
  539SOL    HW2 1751   2.445   2.439   0.796 -0.8893  0.5544 -1.9899
  540SOL     OW 1752   0.315   2.191   3.118 -0.7696 -0.2178 -0.5587
  540SOL    HW1 1753   0.249   2.191   3.049 -0.3197 -1.8123 -1.0124
  540SOL    HW2 1754   0.264   2.182   3.199 -1.1235 -1.4570 -0.9059
  541SOL     OW 1755   1.846   0.582   1.708  0.1709  0.2272  0.1342
  541SOL    HW1 1756   1.754   0.605   1.690  0.0036 -1.2745 -1.2061
  541SOL    HW2 1757   1.896   0.657   1.674 -0.5504  1.9890  2.6410
  542SOL     OW 1758   3.685   0.675   2.288 -0.1192  0.3733 -0.0804
  542SOL    HW1 1759   3.765   0.718   2.318 -0.4339  0.4714  0.6583
  542SOL    HW2 1760   3.639   0.651   2.369  0.6755 -2.6358 -0.3891
  543SOL     OW 1761   0.464   0.023   3.575 -0.2275 -0.1293 -0.2944
  543SOL    HW1 1762   0.498   0.112   3.567 -0.6405 -0.1167 -2.9113
  543SOL    HW2 1763   0.383   0.024   3.523 -0.1915 -2.0510 -0.4456
  544SOL     OW 1764   3.600   2.544   1.742 -0.2240  0.0425 -0.0366
  544SOL    HW1 1765   3.676   2.575   1.792  0.6887 -0.8008 -0.8429
  544SOL    HW2 1766   3.639   2.498   1.667 -1.5428 -0.4124 -0.4609
  545SOL     OW 1767   3.584   1.607   2.926 -0.2484 -1.1625 -0.3609
  545SOL    HW1 1768   3.520   1.666   2.885  2.5866  2.7477  0.2371
  545SOL    HW2 1769   3.549   1.589   3.013 -1.4002 -0.6925 -0.7116
  546SOL     OW 1770   1.198   0.217   3.343  0.1677  0.3629 -0.3199
  546SOL    HW1 1771   1.255   0.229   3.267  0.8991  1.7187  0.4195
  546SOL    HW2 1772   1.179   0.123   3.344  1.5727  0.0487 -1.1513
  547SOL     OW 1773   0.115   2.771   2.980 -0.2277  0.9258  0.2691
  547SOL    HW1 1774   0.128   2.684   3.018  1.7398  0.7454 -0.7164
  547SOL    HW2 1775   0.112   2.756   2.886  0.7954  1.9743  0.0480
  548SOL     OW 1776   0.134   2.981   0.633 -0.3946 -0.2326  0.1211
  548SOL    HW1 1777   0.149   2.979   0.538 -0.2269 -0.5264  0.1519
  548SOL    HW2 1778   0.205   3.035   0.667  0.8153 -1.8664  0.2983
  549SOL     OW 1779   2.795   0.290   1.917 -0.3091 -0.3438  0.0374
  549SOL    HW1 1780   2.776   0.383   1.926  1.8335  0.0859  0.6706
  549SOL    HW2 1781   2.797   0.274   1.823  2.4456  1.0341 -0.2351
  550SOL     OW 1782   0.105   1.124   2.246 -0.2699 -0.0835  0.1129
  550SOL    HW1 1783   0.103   1.178   2.326 -0.8975 -0.4985  0.3841
  550SOL    HW2 1784   0.014   1.098   2.233  0.0145 -1.0375 -0.0390
  551SOL     OW 1785   1.697   1.376   1.143 -0.3541 -0.0460 -0.6569
  551SOL    HW1 1786   1.759   1.347   1.210 -1.6140 -1.8662 -0.2079
  551SOL    HW2 1787   1.617   1.398   1.191 -0.4653  1.1611 -1.3394
  552SOL     OW 1788   0.998   0.024   1.511  0.1613  0.7861 -0.3452
  552SOL    HW1 1789   0.927   0.089   1.511  0.9385  1.6619 -1.1522
  552SOL    HW2 1790   1.069   0.066   1.463  0.2208 -1.1915 -2.1596
  553SOL     OW 1791   0.921   3.161   2.896 -0.3085 -0.8478 -0.0657
  553SOL    HW1 1792   0.905   3.069   2.912 -2.2661 -0.3400  1.2248
  553SOL    HW2 1793   0.834   3.199   2.882  0.2482  1.0951  1.2898
  554SOL     OW 1794   0.300   1.037   1.629  0.1704  0.0261 -0.0158
  554SOL    HW1 1795   0.359   1.018   1.556  0.9097  0.0914  0.5465
  554SOL    HW2 1796   0.214   1.047   1.589  0.8337  1.7782 -1.0978
  555SOL     OW 1797   0.409   3.444   3.190  0.3514  0.6388 -0.6273
  555SOL    HW1 1798   0.372   3.522   3.149  0.5048  0.7149 -0.6239
  555SOL    HW2 1799   0.389   3.455   3.283 -0.5415  0.1621 -0.7511
  556SOL     OW 1800   2.774   3.442   0.194  0.8064  0.3177  0.0677
  556SOL    HW1 1801   2.825   3.382   0.249  1.0847 -0.0735 -0.6068
  556SOL    HW2 1802   2.689   3.447   0.237  0.6171 -0.9471 -0.1281
  557SOL     OW 1803   3.422   1.274   1.969  0.6131  0.3938 -0.0197
  557SOL    HW1 1804   3.382   1.216   1.905  1.9259 -0.5898  0.0107
  557SOL    HW2 1805   3.355   1.283   2.037  0.9710 -2.5915  0.8795
  558SOL     OW 1806   3.655   2.284   2.121 -0.1951 -0.2277 -0.1356
  558SOL    HW1 1807   3.578   2.324   2.081  0.1659  0.6712  0.0494
  558SOL    HW2 1808   3.721   2.286   2.051 -0.2787 -0.8376 -0.2385
  559SOL     OW 1809   2.217   1.720   3.115 -0.0187 -1.1381  0.2175
  559SOL    HW1 1810   2.217   1.800   3.167 -1.2450 -1.9583  1.5340
  559SOL    HW2 1811   2.212   1.751   3.024 -1.9622  0.2868  0.7467
  560SOL     OW 1812   0.104   1.364   1.661  0.1751  0.0518  0.2711
  560SOL    HW1 1813   0.121   1.277   1.697  2.2809 -0.4789 -1.7000
  560SOL    HW2 1814   0.024   1.353   1.610  1.4085 -1.3395 -1.5038
  561SOL     OW 1815   1.610   3.434   1.785  0.1746 -0.5259  0.3084
  561SOL    HW1 1816   1.603   3.410   1.692  0.1583 -1.6327  0.5816
  561SOL    HW2 1817   1.688   3.387   1.816 -0.2885 -0.8210  1.0486
  562SOL     OW 1818   2.014   0.875   2.384  0.3628 -0.1030  0.5279
  562SOL    HW1 1819   1.938   0.880   2.442 -1.1044  1.0020 -1.3564
  562SOL    HW2 1820   2.068   0.805   2.421 -2.0031 -1.5844  1.4496
  563SOL     OW 1821   3.486   1.542   2.006  0.0104 -0.1806 -0.5699
  563SOL    HW1 1822   3.391   1.556   2.010  0.2893  1.7276  0.3834
  563SOL    HW2 1823   3.495   1.450   1.980 -2.0966 -0.7309  0.4121
  564SOL     OW 1824   1.524   2.859   2.378  1.0810  0.2758 -0.4839
  564SOL    HW1 1825   1.613   2.877   2.409  2.0731 -1.5001 -2.1286
  564SOL    HW2 1826   1.488   2.798   2.442  0.6703  1.6727  0.6707
  565SOL     OW 1827   2.864   0.654   0.314 -0.0788  0.2887  0.3430
  565SOL    HW1 1828   2.938   0.666   0.255 -0.2485  1.1058  0.2824
  565SOL    HW2 1829   2.902   0.655   0.401  0.6067 -3.8986  0.2944
  566SOL     OW 1830   1.002   0.171   2.463  0.4163  0.3197  0.0743
  566SOL    HW1 1831   0.986   0.184   2.557 -0.2096  1.1945 -0.1351
  566SOL    HW2 1832   0.997   0.259   2.426  1.2418  0.0546 -0.7039
  567SOL     OW 1833   3.610   3.296   0.502 -0.4043  0.3134  0.5640
  567SOL    HW1 1834   3.697   3.331   0.480 -0.6491  0.9102  0.5192
  567SOL    HW2 1835   3.611   3.207   0.468  0.1172  0.3879  0.3687
  568SOL     OW 1836   3.067   2.286   0.960  0.9422 -0.0855 -0.0133
  568SOL    HW1 1837   3.142   2.343   0.976  0.3221  0.5926  0.5537
  568SOL    HW2 1838   2.998   2.345   0.930  0.9049 -0.8252 -1.4823
  569SOL     OW 1839   0.863   2.990   0.562 -0.3099  0.5969  0.0825
  569SOL    HW1 1840   0.857   3.047   0.486 -1.4049  0.1397 -0.1963
  569SOL    HW2 1841   0.795   2.924   0.548 -1.0405  0.9321  1.7994
  570SOL     OW 1842   1.383   3.017   2.584  0.3336  0.4502 -0.2746
  570SOL    HW1 1843   1.456   3.031   2.523 -0.1097 -0.2342 -0.9848
  570SOL    HW2 1844   1.305   3.041   2.533 -0.0466 -0.1822  0.0013
  571SOL     OW 1845   0.048   3.297   0.196 -0.0404  0.7511  0.1851
  571SOL    HW1 1846  -0.012   3.364   0.162 -2.6870 -0.7956  1.4420
  571SOL    HW2 1847   0.037   3.223   0.137 -2.3359 -0.8469  2.3711
  572SOL     OW 1848   2.211   2.439   0.298 -0.1610 -0.5131  0.6709
  572SOL    HW1 1849   2.238   2.529   0.277  0.4292 -0.5932  1.0695
  572SOL    HW2 1850   2.240   2.387   0.223 -3.5733  0.0905 -1.3007
  573SOL     OW 1851   0.866   2.874   2.964  0.1666 -0.1691 -0.1546
  573SOL    HW1 1852   0.949   2.828   2.975  0.0477 -0.4341 -0.3408
  573SOL    HW2 1853   0.816   2.819   2.903  0.6372  0.9999 -1.6807
  574SOL     OW 1854   2.299   3.611   0.016 -0.1692  0.1059  0.0897
  574SOL    HW1 1855   2.251   3.587   0.095 -1.4433 -0.6276 -0.8746
  574SOL    HW2 1856   2.352   3.534  -0.004 -1.0691 -0.3433 -0.6459
  575SOL     OW 1857   1.828   0.647   0.434  0.0744 -0.3634 -0.5150
  575SOL    HW1 1858   1.754   0.638   0.494  0.6635  0.0398  0.2911
  575SOL    HW2 1859   1.861   0.558   0.422  0.1973 -0.3943  0.0706
  576SOL     OW 1860   2.752   1.820   0.516 -0.1244  0.0870  0.1330
  576SOL    HW1 1861   2.819   1.816   0.585  0.1205  0.2520 -0.0959
  576SOL    HW2 1862   2.672   1.846   0.562 -0.1336 -0.5233  0.4807
  577SOL     OW 1863   1.766   3.252   2.067  0.2187  0.1038  1.0349
  577SOL    HW1 1864   1.735   3.332   2.108  1.2109  0.8781  0.3181
  577SOL    HW2 1865   1.706   3.184   2.099  1.5803  0.3881  4.7382
  578SOL     OW 1866   1.399   2.199   3.114  0.8550 -0.2969  0.1920
  578SOL    HW1 1867   1.337   2.169   3.047 -0.1989  0.2342  0.8899
  578SOL    HW2 1868   1.428   2.285   3.084 -0.3691  0.3781  0.8589
  579SOL     OW 1869   1.888   1.258   3.542 -0.2819 -0.0132  0.2564
  579SOL    HW1 1870   1.845   1.320   3.601 -0.5438 -0.9044  1.0399
  579SOL    HW2 1871   1.891   1.302   3.458 -1.4793  0.6206  0.5204
  580SOL     OW 1872   0.438   2.684   1.793  0.0415  0.2796  0.0677
  580SOL    HW1 1873   0.489   2.733   1.859  1.5203  0.5245 -1.1983
  580SOL    HW2 1874   0.451   2.733   1.712 -3.2189  1.0167 -0.1340
  581SOL     OW 1875   3.287   1.885   0.266 -0.2625 -0.5889  0.4789
  581SOL    HW1 1876   3.191   1.880   0.258 -0.4141 -2.0850  2.4887
  581SOL    HW2 1877   3.318   1.806   0.220 -0.1779 -1.3327  1.7769
  582SOL     OW 1878   2.798   1.251   2.139  0.5019  0.1650  0.0014
  582SOL    HW1 1879   2.771   1.212   2.222  0.9114  2.2602  1.2008
  582SOL    HW2 1880   2.841   1.180   2.092 -1.1447 -1.5006  0.8634
  583SOL     OW 1881   0.917   1.541   0.146 -0.2881  0.5156  0.2927
  583SOL    HW1 1882   0.904   1.540   0.241 -2.0525 -0.6345  0.1002
  583SOL    HW2 1883   0.937   1.450   0.124 -3.5906 -0.0951 -0.7751
  584SOL     OW 1884   0.819   2.444   1.588 -0.0431  0.2568 -0.3264
  584SOL    HW1 1885   0.816   2.537   1.610 -2.1115  0.5089 -1.3738
  584SOL    HW2 1886   0.731   2.412   1.609  0.2673 -1.1748 -1.0984
  585SOL     OW 1887   2.464   3.248   2.203 -0.1912  0.0622  0.5368
  585SOL    HW1 1888   2.412   3.258   2.123  0.3562  0.3670  0.2175
  585SOL    HW2 1889   2.412   3.294   2.270 -0.1645  0.6821  0.1441
  586SOL     OW 1890   0.993   0.799   0.780  0.5279  0.0526 -0.3322
  586SOL    HW1 1891   0.977   0.717   0.734  0.9569  0.1643 -0.6852
  586SOL    HW2 1892   0.911   0.847   0.772  0.4400 -0.1325 -0.5535
  587SOL     OW 1893   1.373   1.897   1.115  0.1377 -0.2144  0.0433
  587SOL    HW1 1894   1.460   1.934   1.101  0.4096  0.2101  2.4871
  587SOL    HW2 1895   1.322   1.970   1.150 -1.4378 -0.2946 -1.8948
  588SOL     OW 1896   2.072   2.789   0.105 -0.3547  0.1825  0.4856
  588SOL    HW1 1897   2.005   2.855   0.123 -1.2361  0.2474 -2.5160
  588SOL    HW2 1898   2.024   2.706   0.106 -0.3801  0.1584 -0.9719
  589SOL     OW 1899   2.223   0.408   3.128 -0.2813 -0.3558 -0.2065
  589SOL    HW1 1900   2.317   0.396   3.113 -0.0390  2.1071 -1.1119
  589SOL    HW2 1901   2.215   0.421   3.223  0.3717 -0.1146 -0.1797
  590SOL     OW 1902   3.031   2.908   3.195  0.2212  0.3444 -0.1702
  590SOL    HW1 1903   3.007   2.872   3.281  0.6924 -0.2166 -0.2675
  590SOL    HW2 1904   2.951   2.902   3.143  0.0929  0.1274  0.0508
  591SOL     OW 1905   1.945   2.435   2.102 -0.5369  0.3922 -0.0411
  591SOL    HW1 1906   1.877   2.405   2.041  1.6935 -0.4223 -2.2925
  591SOL    HW2 1907   1.930   2.384   2.181 -2.8491  0.6470 -0.2453
  592SOL     OW 1908   0.834   1.083   2.126  0.4189  0.5889 -0.1596
  592SOL    HW1 1909   0.855   1.098   2.034  0.9457  1.0387  0.0259
  592SOL    HW2 1910   0.739   1.093   2.132  0.3158 -0.0359 -0.7602
  593SOL     OW 1911   1.950   1.812   2.157 -0.2130 -0.1228  0.5636
  593SOL    HW1 1912   2.041   1.836   2.173  0.0731 -0.4847 -0.4459
  593SOL    HW2 1913   1.900   1.884   2.194  0.5086  0.3750  0.5985
  594SOL     OW 1914   0.412   0.635   3.058  0.1993  0.5840  0.2701
  594SOL    HW1 1915   0.418   0.541   3.072 -0.1586  0.4577 -0.3826
  594SOL    HW2 1916   0.362   0.667   3.133 -1.9457 -0.1176 -0.7775
  595SOL     OW 1917   2.842   2.023   3.207 -0.3809 -0.2976 -0.6288
  595SOL    HW1 1918   2.936   2.016   3.191 -0.2239 -3.3716  1.0938
  595SOL    HW2 1919   2.825   2.118   3.204  2.8195  0.3930 -0.5119
  596SOL     OW 1920   1.173   1.573   1.307  0.6343 -0.2728 -0.4387
  596SOL    HW1 1921   1.087   1.539   1.331  0.1566  0.8560 -0.4827
  596SOL    HW2 1922   1.230   1.550   1.381  0.2555 -0.8430 -0.3197
  597SOL     OW 1923   2.516   2.025   2.814  0.5074  0.0695 -0.3804
  597SOL    HW1 1924   2.567   2.025   2.895 -0.1258  2.3680  0.0880
  597SOL    HW2 1925   2.425   2.018   2.842  0.2335  1.5273 -0.7870
  598SOL     OW 1926   2.196   2.305   2.401 -0.1498 -0.2373 -0.4152
  598SOL    HW1 1927   2.103   2.284   2.401  0.0952 -1.3441 -0.1701
  598SOL    HW2 1928   2.199   2.401   2.392 -1.3573  0.0617  1.7259
  599SOL     OW 1929   0.661   2.289   2.188 -0.0121  0.1027 -0.2503
  599SOL    HW1 1930   0.631   2.209   2.144  2.3233  0.0310 -1.9115
  599SOL    HW2 1931   0.621   2.360   2.139 -1.9024  0.0385  1.0846
  600SOL     OW 1932   3.487   1.993   2.746  0.2066  0.4504 -0.0456
  600SOL    HW1 1933   3.434   1.931   2.796  0.1261 -0.6316 -1.4271
  600SOL    HW2 1934   3.479   2.075   2.795 -1.5399 -0.0484  0.6005
  601SOL     OW 1935   1.608   2.405   1.664  0.2028  0.1580 -0.2268
  601SOL    HW1 1936   1.520   2.415   1.627  0.9880  1.4972 -1.9163
  601SOL    HW2 1937   1.626   2.490   1.705  0.7636 -0.0363 -0.0618
  602SOL     OW 1938   3.090   0.753   2.289  0.4032  0.0029  0.2046
  602SOL    HW1 1939   3.013   0.757   2.233  0.5693  0.9930  0.0366
  602SOL    HW2 1940   3.084   0.668   2.333 -0.1878 -0.3996 -0.6492
  603SOL     OW 1941   2.713   2.241   2.475  0.2697  0.1349 -0.3809
  603SOL    HW1 1942   2.699   2.173   2.409 -1.1593  0.1870 -0.1803
  603SOL    HW2 1943   2.674   2.205   2.555 -0.2039  1.0282 -0.1908
  604SOL     OW 1944   2.525   3.685   0.134 -0.1203  0.0110  0.5726
  604SOL    HW1 1945   2.436   3.683   0.098 -0.9209 -0.2743  2.4279
  604SOL    HW2 1946   2.554   3.775   0.122 -0.7668  0.1760  0.2064
  605SOL     OW 1947   1.815   2.482   2.868  0.1859  0.0216 -0.0421
  605SOL    HW1 1948   1.748   2.414   2.874  0.8863 -0.6885 -0.2204
  605SOL    HW2 1949   1.767   2.563   2.886 -1.0039 -0.3072 -1.5221
  606SOL     OW 1950   1.670   2.697   3.622 -0.4339  0.1807  0.2311
  606SOL    HW1 1951   1.687   2.775   3.569  0.5035 -0.1630  0.0053
  606SOL    HW2 1952   1.575   2.697   3.634 -0.6023  0.6014 -0.9473
  607SOL     OW 1953   1.719   2.922   0.232 -0.3017  0.0544 -1.0913
  607SOL    HW1 1954   1.789   2.955   0.176 -1.2418  0.4452 -2.0722
  607SOL    HW2 1955   1.723   2.977   0.310 -0.2986  0.8865 -1.6677
  608SOL     OW 1956   1.895   2.351   2.361 -0.2708  0.3796  0.5042
  608SOL    HW1 1957   1.845   2.336   2.441 -0.5826  1.3022  0.4927
  608SOL    HW2 1958   1.895   2.447   2.350  0.4029  0.3100 -0.1899
  609SOL     OW 1959  -0.016   2.504   1.156  0.4327 -0.7055  0.0038
  609SOL    HW1 1960   0.036   2.573   1.197  0.5260 -1.0625  0.4897
  609SOL    HW2 1961   0.036   2.425   1.166 -0.2230 -1.0794  0.5435
  610SOL     OW 1962   0.741   3.700   1.313 -0.0894  0.4297  0.5213
  610SOL    HW1 1963   0.757   3.792   1.295  1.0839  0.1272 -0.0975
  610SOL    HW2 1964   0.720   3.697   1.406  0.4324  1.2558  0.6775
  611SOL     OW 1965   2.019   2.120   2.061  0.2601  0.5532  0.6481
  611SOL    HW1 1966   2.110   2.144   2.077  0.4283  0.5349 -0.2313
  611SOL    HW2 1967   1.993   2.171   1.984 -0.3701  0.3215  0.6951
  612SOL     OW 1968  -0.034   0.233   2.085  0.2778 -0.0352  0.2819
  612SOL    HW1 1969   0.012   0.161   2.042  1.0279  0.5593  0.0678
  612SOL    HW2 1970   0.028   0.306   2.081 -0.2129  0.4327  1.0817
  613SOL     OW 1971   0.159   0.157   0.139  0.2518 -0.3219  1.0187
  613SOL    HW1 1972   0.143   0.240   0.184  0.8147 -0.0601  0.7467
  613SOL    HW2 1973   0.206   0.104   0.203  0.4056 -0.2148  0.9968
  614SOL     OW 1974   3.108   0.068   2.341 -0.0966 -0.6036  0.0090
  614SOL    HW1 1975   3.074   0.133   2.279 -1.2005 -0.5452  0.6541
  614SOL    HW2 1976   3.196   0.099   2.363 -0.0588 -0.1156 -0.7908
  615SOL     OW 1977   1.572   1.501   3.480  0.3781 -0.0348  1.2234
  615SOL    HW1 1978   1.503   1.443   3.447  2.1377 -1.5688 -0.0249
  615SOL    HW2 1979   1.552   1.587   3.443 -0.0566 -0.7878 -0.3801
  616SOL     OW 1980   0.381   3.494   1.555 -0.5039  0.4666 -0.1692
  616SOL    HW1 1981   0.434   3.566   1.520 -0.2690 -0.2047 -1.2681
  616SOL    HW2 1982   0.370   3.435   1.480 -1.4736 -0.1825  0.4692
  617SOL     OW 1983   1.871   1.208   3.002 -0.3194  0.2349  0.0332
  617SOL    HW1 1984   1.909   1.173   2.921 -1.1557 -0.3788 -0.1068
  617SOL    HW2 1985   1.781   1.176   3.002 -0.5584  0.8877  0.8237
  618SOL     OW 1986   1.428   0.191   3.177  0.3471 -0.1733  0.0245
  618SOL    HW1 1987   1.471   0.108   3.154 -0.6719 -0.6035 -0.3889
  618SOL    HW2 1988   1.362   0.204   3.109  0.3038  0.8433  0.2453
  619SOL     OW 1989   0.899   1.320   1.960 -0.1671  0.2532  0.2503
  619SOL    HW1 1990   0.836   1.323   2.032  0.2859 -2.7061  0.8878
  619SOL    HW2 1991   0.955   1.397   1.973 -1.3990  0.9366  1.7754
  620SOL     OW 1992   0.152   2.976   1.550  0.6551 -0.5195 -0.1194
  620SOL    HW1 1993   0.083   2.938   1.603  1.1163  0.8794  1.5591
  620SOL    HW2 1994   0.189   3.045   1.604 -0.1094  2.3324 -2.9498
  621SOL     OW 1995   0.768   3.082   1.677 -0.0047  0.4187  0.1776
  621SOL    HW1 1996   0.862   3.092   1.659  0.1064  0.3404  0.6936
  621SOL    HW2 1997   0.736   3.172   1.682  0.2722  0.4734  1.1390
  622SOL     OW 1998   2.513   1.309   2.976 -0.1605 -0.1169 -0.2191
  622SOL    HW1 1999   2.485   1.269   3.059 -1.4100  1.2645  0.0580
  622SOL    HW2 2000   2.560   1.388   3.002 -2.7770  1.7415 -0.7893
  623SOL     OW 2001   3.562   0.486   3.128 -1.0132  0.0037 -0.1635
  623SOL    HW1 2002   3.633   0.464   3.067 -0.9667  0.3033 -0.2175
  623SOL    HW2 2003   3.489   0.431   3.099 -0.7620 -0.4102 -0.0202
  624SOL     OW 2004   0.921   1.063   2.933  0.2262  0.0099 -0.8829
  624SOL    HW1 2005   0.891   1.027   2.849 -1.8623  0.8552 -0.5596
  624SOL    HW2 2006   0.892   0.999   2.998 -1.7823  1.2340 -0.4896
  625SOL     OW 2007   0.883   0.175   0.738  0.1632  0.3318  0.0049
  625SOL    HW1 2008   0.970   0.136   0.745  0.0137 -0.5734 -2.2744
  625SOL    HW2 2009   0.891   0.259   0.783  1.7324 -0.4221  1.2402
  626SOL     OW 2010   2.779   3.293   0.936 -0.1389  0.4101 -0.1163
  626SOL    HW1 2011   2.792   3.199   0.940 -1.8323  0.1157 -0.7670
  626SOL    HW2 2012   2.702   3.309   0.990 -0.7304  1.2158 -1.1619
  627SOL     OW 2013   3.054   2.701   2.787  0.9256 -0.3275  0.5988
  627SOL    HW1 2014   3.090   2.776   2.833  2.3507  0.6393 -1.9170
  627SOL    HW2 2015   3.007   2.738   2.712  0.5464 -1.8880  0.0152
  628SOL     OW 2016   1.828   1.575   1.483  0.2031 -0.0878 -0.4842
  628SOL    HW1 2017   1.808   1.529   1.565 -0.2229 -1.9600 -1.5690
  628SOL    HW2 2018   1.904   1.629   1.504 -1.6864  1.9069  1.9266
  629SOL     OW 2019   0.621   3.445   2.900  0.2711  0.1070 -0.1895
  629SOL    HW1 2020   0.605   3.388   2.975  0.7806 -0.4160 -0.4715
  629SOL    HW2 2021   0.542   3.498   2.892 -0.2777 -0.6840 -0.0381
  630SOL     OW 2022   0.746   0.161   2.357  0.1696 -0.2567  0.6844
  630SOL    HW1 2023   0.812   0.152   2.426  1.1772 -0.1579 -0.2528
  630SOL    HW2 2024   0.782   0.226   2.297  0.7056 -2.4304 -1.5043
  631SOL     OW 2025   2.920   3.526   0.983 -0.2226  0.0672  0.3852
  631SOL    HW1 2026   2.907   3.547   1.075 -0.9061  2.7298 -0.2203
  631SOL    HW2 2027   2.853   3.460   0.964  0.1807 -0.8059  1.8362
  632SOL     OW 2028   0.760   1.463   0.368  0.3329 -0.7556 -0.3626
  632SOL    HW1 2029   0.712   1.482   0.448  1.6145 -0.5797  0.4038
  632SOL    HW2 2030   0.694   1.435   0.305 -0.6687 -1.1671  0.8431
  633SOL     OW 2031   2.326   1.575   2.188  0.7716  0.1211 -0.3395
  633SOL    HW1 2032   2.415   1.542   2.176  0.4832 -0.9778  0.3878
  633SOL    HW2 2033   2.307   1.561   2.281  0.3534  1.6887 -0.1510
  634SOL     OW 2034   0.986   0.470   0.179 -0.1041 -0.4813 -0.3087
  634SOL    HW1 2035   1.080   0.476   0.197 -0.0268 -2.5916  0.2811
  634SOL    HW2 2036   0.973   0.526   0.103  0.8541  3.1148  1.9289
  635SOL     OW 2037   0.037   1.651   0.162  0.3258  0.5399 -0.0532
  635SOL    HW1 2038  -0.026   1.721   0.176  0.3356  0.5793 -0.1974
  635SOL    HW2 2039   0.029   1.594   0.239 -0.5907  0.0002 -0.5352
  636SOL     OW 2040   0.977   3.256   1.048  0.5099 -0.1461 -0.1413
  636SOL    HW1 2041   0.922   3.220   1.118  2.8523 -1.6371  1.0449
  636SOL    HW2 2042   1.010   3.339   1.083 -0.9314  0.7957 -0.8898
  637SOL     OW 2043   2.760   1.632   0.318  0.1657 -1.0917 -0.3353
  637SOL    HW1 2044   2.784   1.699   0.254  2.2427 -2.2727 -0.8613
  637SOL    HW2 2045   2.746   1.681   0.399 -0.4326  0.1844 -1.1580
  638SOL     OW 2046   2.602   2.039   3.073 -0.3326  1.0538 -0.1392
  638SOL    HW1 2047   2.674   1.986   3.107  0.5311  1.3762 -1.3912
  638SOL    HW2 2048   2.533   2.032   3.139 -0.4959 -2.1003 -0.4651
  639SOL     OW 2049   1.694   2.793   3.296  0.1909 -0.0582  0.5692
  639SOL    HW1 2050   1.735   2.850   3.362 -2.4378 -0.6843  2.9520
  639SOL    HW2 2051   1.608   2.832   3.282 -0.3260 -1.5043 -0.4441
  640SOL     OW 2052   2.924   0.045   1.684 -0.4505 -0.3428  0.0406
  640SOL    HW1 2053   2.950  -0.047   1.671 -0.3782 -0.5432  1.4502
  640SOL    HW2 2054   2.960   0.068   1.769 -0.2718  1.0930 -0.4001
  641SOL     OW 2055   0.436   0.611   1.366 -0.1181 -0.4733 -0.3558
  641SOL    HW1 2056   0.368   0.676   1.380 -1.2514 -1.7560  0.3808
  641SOL    HW2 2057   0.509   0.640   1.420  0.5648  1.7236 -2.2956
  642SOL     OW 2058   1.337   1.512   2.174  0.2583 -0.0815 -0.1423
  642SOL    HW1 2059   1.353   1.450   2.244 -0.5707 -0.0504  0.0807
  642SOL    HW2 2060   1.423   1.528   2.136  0.7932  0.2872  1.1837
  643SOL     OW 2061   0.992   0.212   2.987 -0.5759  0.0512  0.3176
  643SOL    HW1 2062   0.974   0.289   3.040 -0.7653  0.1039  0.1774
  643SOL    HW2 2063   0.972   0.138   3.044 -0.3123  0.1047  0.4800
  644SOL     OW 2064   3.627   3.601   0.183  0.2445 -0.8045  0.3727
  644SOL    HW1 2065   3.532   3.590   0.175  0.2912 -0.4347 -0.8571
  644SOL    HW2 2066   3.663   3.557   0.106  1.0544 -0.5793  0.6081
  645SOL     OW 2067   2.329   3.661   2.359 -0.0566  0.4759 -0.1748
  645SOL    HW1 2068   2.370   3.747   2.366 -0.4903  0.8019 -1.3928
  645SOL    HW2 2069   2.238   3.675   2.388  0.1860  0.1454  0.7964
  646SOL     OW 2070   1.134   0.688   0.399  0.2241  0.0572  0.7771
  646SOL    HW1 2071   1.044   0.659   0.391  0.4101 -0.3484  0.1436
  646SOL    HW2 2072   1.164   0.651   0.483 -0.5074  1.0636  1.5068
  647SOL     OW 2073   3.277   3.727   3.040  0.4627  0.0460  0.2753
  647SOL    HW1 2074   3.228   3.725   2.957  1.0645  0.1129 -0.0908
  647SOL    HW2 2075   3.215   3.695   3.105 -0.6493  1.7871  0.1368
  648SOL     OW 2076   1.426   1.354   2.369 -0.4910 -0.2803  0.8802
  648SOL    HW1 2077   1.522   1.355   2.361 -0.5627 -2.5429 -2.4314
  648SOL    HW2 2078   1.410   1.354   2.463  2.8660 -1.5629  1.6247
  649SOL     OW 2079   0.996   1.221   1.243  0.0840 -0.1555 -0.4859
  649SOL    HW1 2080   0.976   1.293   1.303  0.6269  0.3027 -0.8560
  649SOL    HW2 2081   1.047   1.260   1.173  2.9449 -1.3770  0.7528
  650SOL     OW 2082   0.526   2.436   1.668 -0.0558 -0.1350 -0.1105
  650SOL    HW1 2083   0.438   2.413   1.639  0.0408 -2.5379  1.1811
  650SOL    HW2 2084   0.519   2.526   1.698 -2.0458 -0.2213 -0.2058
  651SOL     OW 2085   3.426   0.776   3.463 -0.2065 -0.2746  0.1422
  651SOL    HW1 2086   3.426   0.861   3.508  1.8927 -0.0852 -0.1124
  651SOL    HW2 2087   3.372   0.720   3.519 -2.1035  1.3121  0.0349
  652SOL     OW 2088   0.014   0.873   3.226 -0.0631 -0.1865  0.0305
  652SOL    HW1 2089  -0.015   0.810   3.292  0.6787 -0.2203  0.3442
  652SOL    HW2 2090   0.015   0.957   3.272 -0.7454  0.0070 -0.2982
  653SOL     OW 2091   0.360   3.215   0.342 -0.1893 -0.2654  0.5725
  653SOL    HW1 2092   0.413   3.293   0.326 -2.5275  1.1179 -1.2736
  653SOL    HW2 2093   0.358   3.170   0.258 -0.6146 -1.1352  1.0350
  654SOL     OW 2094   0.575   0.400   1.805  0.4361  0.5157 -0.6501
  654SOL    HW1 2095   0.553   0.493   1.805  0.9609  0.6812  1.0648
  654SOL    HW2 2096   0.597   0.381   1.714 -0.4573  1.8608 -1.1936
  655SOL     OW 2097   2.602   1.973   0.697  0.0533  0.2114  0.3558
  655SOL    HW1 2098   2.602   2.049   0.756  1.3805 -0.3463  1.1196
  655SOL    HW2 2099   2.610   1.897   0.755  0.7046 -0.3911 -0.4949
  656SOL     OW 2100   1.101   2.332   2.723  0.5538  0.2982 -0.8192
  656SOL    HW1 2101   1.099   2.286   2.807  1.3256  1.2181 -0.2869
  656SOL    HW2 2102   1.046   2.279   2.666  1.5807 -1.4158 -0.2893
  657SOL     OW 2103   2.562   3.690   2.656 -0.4052  0.3151  0.1366
  657SOL    HW1 2104   2.591   3.646   2.576  0.7413 -1.5895  1.5188
  657SOL    HW2 2105   2.467   3.674   2.658 -0.0325 -2.3215  0.6290
  658SOL     OW 2106   3.379   3.011   2.618 -0.2878  0.3432  0.5259
  658SOL    HW1 2107   3.344   3.094   2.587 -0.0976 -0.0966 -0.9791
  658SOL    HW2 2108   3.411   2.968   2.539  3.0619  0.4193  1.6735
  659SOL     OW 2109   1.007   1.104   0.943 -0.6040 -0.9286 -0.0745
  659SOL    HW1 2110   0.921   1.105   0.984 -0.4381  1.0083  0.3712
  659SOL    HW2 2111   1.053   1.178   0.984 -0.1753  0.7014 -3.1720
  660SOL     OW 2112   2.943   2.966   1.205 -0.0745 -0.0650 -0.3862
  660SOL    HW1 2113   2.932   2.901   1.135 -0.3233  0.4284 -0.8090
  660SOL    HW2 2114   3.008   2.927   1.263  0.8342 -0.0962 -1.3794
  661SOL     OW 2115   2.307   0.945   0.353 -0.2382 -0.2222 -0.2569
  661SOL    HW1 2116   2.392   0.904   0.363 -0.1484  0.1550  0.5875
  661SOL    HW2 2117   2.271   0.907   0.272  0.5927 -0.6033 -0.4529
  662SOL     OW 2118   3.609   1.864   1.643  0.1193 -0.1396 -0.1437
  662SOL    HW1 2119   3.527   1.890   1.684 -0.0280  0.7321 -0.9696
  662SOL    HW2 2120   3.622   1.926   1.572  0.2598 -1.7247 -1.5735
  663SOL     OW 2121   0.900   0.485   1.683  0.2600 -0.1253  0.5029
  663SOL    HW1 2122   0.990   0.458   1.664  0.0745 -0.3999 -0.0237
  663SOL    HW2 2123   0.854   0.403   1.699  0.0903  0.0105  0.7107
  664SOL     OW 2124   0.334   2.048   2.510 -0.5758  0.7205 -0.0439
  664SOL    HW1 2125   0.393   2.120   2.533 -3.1796  2.5630  1.3921
  664SOL    HW2 2126   0.256   2.091   2.476 -0.7389 -1.6592 -3.1032
  665SOL     OW 2127   0.635   3.599   2.242 -0.1888 -0.2428 -0.1439
  665SOL    HW1 2128   0.587   3.665   2.293 -1.5122 -1.2763 -0.0078
  665SOL    HW2 2129   0.702   3.649   2.195 -0.9380  1.1433  0.2218
  666SOL     OW 2130   2.307   3.560   0.489 -0.8411  0.1714  0.1000
  666SOL    HW1 2131   2.227   3.607   0.466 -1.3268  0.2554  1.8592
  666SOL    HW2 2132   2.279   3.469   0.503 -1.0896  0.5864  2.7939
  667SOL     OW 2133   1.353   1.334   2.637 -0.1873  0.6502  0.4805
  667SOL    HW1 2134   1.329   1.250   2.677  0.4739  0.5043  0.5760
  667SOL    HW2 2135   1.423   1.368   2.692  0.6250  0.5196 -0.4566
  668SOL     OW 2136   2.123   2.294   0.502 -0.0216 -0.4311  0.2680
  668SOL    HW1 2137   2.121   2.364   0.567 -0.2724  0.1421 -0.3455
  668SOL    HW2 2138   2.136   2.339   0.418  3.3887 -1.3420  0.1647
  669SOL     OW 2139   0.574   0.884   3.276  0.1642 -0.6856  0.5755
  669SOL    HW1 2140   0.548   0.792   3.284 -0.1713 -0.6488 -0.0852
  669SOL    HW2 2141   0.497   0.929   3.243  0.5917 -0.3126  0.0665
  670SOL     OW 2142   3.622  -0.002   2.272 -0.6521 -0.1638 -0.1961
  670SOL    HW1 2143   3.632   0.019   2.365 -0.7898 -0.6663 -0.0651
  670SOL    HW2 2144   3.680   0.059   2.227  0.0783 -0.4978  0.2826
  671SOL     OW 2145   2.372   3.277   1.947  0.3631 -0.2771 -0.0418
  671SOL    HW1 2146   2.385   3.183   1.943 -3.4603 -0.9436 -0.8362
  671SOL    HW2 2147   2.373   3.306   1.856 -1.1712 -0.1143 -0.0451
  672SOL     OW 2148   3.313   0.604   3.617 -0.0281 -0.5376  0.1546
  672SOL    HW1 2149   3.304   0.648   3.702 -0.3733 -1.0393  0.3812
  672SOL    HW2 2150   3.289   0.513   3.634  1.2384 -0.9519 -0.1836
  673SOL     OW 2151   0.509   2.246   2.613  0.5871  0.0599 -0.8193
  673SOL    HW1 2152   0.553   2.292   2.541  0.0810  0.4641 -0.8703
  673SOL    HW2 2153   0.428   2.294   2.626  0.7373  0.0723  0.1174
  674SOL     OW 2154   1.712   2.898   2.088 -0.3204  0.6235 -0.1338
  674SOL    HW1 2155   1.623   2.872   2.113 -1.7965  3.5598 -1.7745
  674SOL    HW2 2156   1.757   2.816   2.070 -3.0218 -0.9493 -0.2832
  675SOL     OW 2157   3.058   2.496   0.051 -0.0366  0.4198 -0.4265
  675SOL    HW1 2158   3.000   2.482   0.125  1.0226  1.2115  0.6075
  675SOL    HW2 2159   3.000   2.501  -0.025 -1.4081  1.8766  0.6403
  676SOL     OW 2160   1.975   0.441   0.379 -0.5168 -0.4686  0.7012
  676SOL    HW1 2161   1.982   0.425   0.285  0.4416  0.5762  0.5683
  676SOL    HW2 2162   2.039   0.381   0.418 -1.2493 -1.2396  0.7429
  677SOL     OW 2163   0.007   0.960   2.806 -0.4882 -0.0781  0.1373
  677SOL    HW1 2164  -0.047   1.028   2.846  2.0753  2.7715 -0.9283
  677SOL    HW2 2165   0.093   1.000   2.795  1.7484 -4.0582  0.9704
  678SOL     OW 2166   2.528   2.882   1.110 -0.0013 -0.6417 -0.6454
  678SOL    HW1 2167   2.554   2.790   1.113 -0.3635 -0.7958 -1.8613
  678SOL    HW2 2168   2.440   2.880   1.072 -0.7451  0.0749  0.9532
  679SOL     OW 2169   2.941   2.875   0.896  0.0130 -0.2389  0.2231
  679SOL    HW1 2170   3.023   2.925   0.898 -0.3078  0.2916  0.5439
  679SOL    HW2 2171   2.963   2.793   0.853  0.4186  0.4355 -0.8857
  680SOL     OW 2172   0.386   1.865   0.299 -0.1859 -0.0355  0.1333
  680SOL    HW1 2173   0.414   1.839   0.387 -0.7025 -2.6826 -0.3936
  680SOL    HW2 2174   0.464   1.901   0.258  1.0226 -2.0825  0.5336
  681SOL     OW 2175   3.638   3.449   3.111 -0.0255 -0.0085  0.5376
  681SOL    HW1 2176   3.605   3.421   3.025  1.2028  0.3219 -0.0669
  681SOL    HW2 2177   3.625   3.373   3.168  1.2179 -1.0531 -0.5143
  682SOL     OW 2178   2.692   3.421   0.703 -0.4360  0.8395  0.1433
  682SOL    HW1 2179   2.704   3.391   0.793  0.2607  0.3067 -0.1192
  682SOL    HW2 2180   2.734   3.507   0.700 -0.1168  0.6858  0.2251
  683SOL     OW 2181   2.437   3.124   0.923 -0.0876 -0.3880 -0.2994
  683SOL    HW1 2182   2.451   3.176   1.002  0.9666 -2.1422  0.7357
  683SOL    HW2 2183   2.361   3.070   0.943 -0.0454 -0.5675 -0.6228
  684SOL     OW 2184   2.003   3.369   3.105  0.5727  0.1266 -0.2839
  684SOL    HW1 2185   2.084   3.350   3.057  0.6667 -1.8431  0.5589
  684SOL    HW2 2186   1.963   3.283   3.119 -0.7412  0.8985  0.9331
  685SOL     OW 2187   2.161   2.522   3.151 -0.5880 -0.4112  0.2491
  685SOL    HW1 2188   2.069   2.542   3.166 -0.6593 -0.7642  0.2983
  685SOL    HW2 2189   2.166   2.427   3.157 -0.2884 -0.4213 -0.1526
  686SOL     OW 2190   3.185   2.992   0.946  0.2315  0.4671  0.8340
  686SOL    HW1 2191   3.204   3.004   0.853 -0.9170 -0.2061  0.5036
  686SOL    HW2 2192   3.147   3.075   0.974 -0.5586  0.2531  0.4035
  687SOL     OW 2193   0.872   0.798   2.883 -0.4415 -0.7695  0.2116
  687SOL    HW1 2194   0.776   0.796   2.874 -0.3242 -3.5626 -1.4449
  687SOL    HW2 2195   0.887   0.788   2.977 -1.7683 -0.6374  0.4642
  688SOL     OW 2196   3.254   1.451   3.616 -0.4985  0.2932  0.4789
  688SOL    HW1 2197   3.220   1.374   3.570 -1.3895  1.2941 -0.6041
  688SOL    HW2 2198   3.195   1.462   3.691 -2.6930  1.9826 -1.3538
  689SOL     OW 2199   2.497   1.341   1.769 -0.2061  0.7812  0.2691
  689SOL    HW1 2200   2.490   1.302   1.682 -1.3407 -0.2645  0.7850
  689SOL    HW2 2201   2.520   1.267   1.826  0.2157  1.3903  0.9009
  690SOL     OW 2202   1.780   1.357   2.712 -0.1277 -0.3487 -0.2286
  690SOL    HW1 2203   1.834   1.291   2.754  1.0519  1.0391  0.5059
  690SOL    HW2 2204   1.713   1.379   2.776  0.5642  0.4458  0.2320
  691SOL     OW 2205   3.181   0.378   0.059 -0.0352  0.3894 -0.2495
  691SOL    HW1 2206   3.140   0.332   0.132 -0.8264  1.0554 -0.2623
  691SOL    HW2 2207   3.143   0.466   0.062 -0.9478  0.0914 -2.1794
  692SOL     OW 2208   1.049   2.842   3.322 -0.2279 -0.3732  0.0959
  692SOL    HW1 2209   0.990   2.916   3.309 -1.3546 -0.9554  1.5821
  692SOL    HW2 2210   0.992   2.769   3.346  1.0102 -1.2363  0.5580
  693SOL     OW 2211   0.489   0.935   2.213  0.3545 -0.0679 -0.3588
  693SOL    HW1 2212   0.452   0.905   2.130 -1.8250  1.7941 -0.1391
  693SOL    HW2 2213   0.482   1.030   2.210  1.6708  0.1305  1.3416
  694SOL     OW 2214   1.983   2.243   1.096  0.0832 -0.1583  0.0904
  694SOL    HW1 2215   2.056   2.268   1.039  0.2882  0.6871  0.7062
  694SOL    HW2 2216   1.921   2.315   1.089  0.4486  0.3381  1.4899
  695SOL     OW 2217   1.166   3.733   1.793 -0.3516 -0.0921 -0.0854
  695SOL    HW1 2218   1.083   3.713   1.749 -0.7417  1.4825 -0.1550
  695SOL    HW2 2219   1.153   3.706   1.883 -1.7588  2.0141  0.4068
  696SOL     OW 2220   0.892   3.526   3.619  0.1260 -0.7090  0.5649
  696SOL    HW1 2221   0.803   3.535   3.585  0.6992  1.8651 -0.5185
  696SOL    HW2 2222   0.913   3.433   3.608 -1.6581 -0.9770 -1.2051
  697SOL     OW 2223   2.571   2.162   0.477  0.5127  0.4069  0.9014
  697SOL    HW1 2224   2.536   2.152   0.388  2.7352  0.0711 -0.0060
  697SOL    HW2 2225   2.561   2.075   0.515 -0.2019  0.4819  0.9100
  698SOL     OW 2226   1.017   2.166   0.648 -0.2806 -0.2498 -0.2741
  698SOL    HW1 2227   1.091   2.173   0.588 -1.1744  3.2404 -1.1577
  698SOL    HW2 2228   1.050   2.200   0.731 -0.6746  0.6154 -0.4668
  699SOL     OW 2229   1.715   2.990   2.875 -0.1570  0.0256  0.7523
  699SOL    HW1 2230   1.769   2.977   2.952 -0.6505 -0.9056  0.9545
  699SOL    HW2 2231   1.634   3.029   2.909  0.6230  2.1311  0.3653
  700SOL     OW 2232   1.662   3.592   2.597  0.2368  0.0868 -0.0066
  700SOL    HW1 2233   1.610   3.648   2.539  1.7061  0.7172 -0.7700
  700SOL    HW2 2234   1.641   3.503   2.571 -0.9203  0.3128  0.1268
  701SOL     OW 2235   1.627   2.571   2.180  0.0216 -0.0890  0.2145
  701SOL    HW1 2236   1.614   2.498   2.119  0.7121  0.5048 -0.6785
  701SOL    HW2 2237   1.539   2.596   2.206 -0.2062 -1.9667  1.4705
  702SOL     OW 2238   1.549   3.606   0.564  0.0483  0.0534 -0.3860
  702SOL    HW1 2239   1.455   3.595   0.550  0.2245 -0.2826 -1.3519
  702SOL    HW2 2240   1.558   3.691   0.607 -0.8151 -0.5660  1.1016
  703SOL     OW 2241   2.001   2.880   0.549  0.3420 -0.0663  0.4754
  703SOL    HW1 2242   2.073   2.934   0.515  0.6163 -1.1769 -0.8460
  703SOL    HW2 2243   1.999   2.804   0.490 -1.7179 -0.2241  0.6857
  704SOL     OW 2244   2.202   3.009   0.383 -0.2353  0.0624 -0.1544
  704SOL    HW1 2245   2.279   3.050   0.422 -0.0639 -0.1444 -0.2751
  704SOL    HW2 2246   2.206   3.035   0.291 -0.3093  0.0509 -0.1605
  705SOL     OW 2247   2.364   3.013   1.993  0.1730  0.5785 -0.7025
  705SOL    HW1 2248   2.444   2.964   2.011  0.4076  1.1354 -0.1778
  705SOL    HW2 2249   2.293   2.949   2.006  0.4258  0.5391  0.7128
  706SOL     OW 2250   0.847   3.423   0.867 -0.4103 -0.1738  0.1991
  706SOL    HW1 2251   0.845   3.365   0.944 -2.0351 -2.3602 -1.3700
  706SOL    HW2 2252   0.755   3.442   0.849 -0.2986 -1.6543 -2.4999
  707SOL     OW 2253   0.393   0.043   1.939  0.8589  0.1411  0.1696
  707SOL    HW1 2254   0.330  -0.023   1.970  1.2940  0.1244  1.0598
  707SOL    HW2 2255   0.393   0.109   2.008 -0.2683  1.5740 -1.1297
  708SOL     OW 2256   2.887   3.114   2.554  0.7794  0.4285  0.4335
  708SOL    HW1 2257   2.823   3.126   2.483  0.7716 -1.4206  0.0684
  708SOL    HW2 2258   2.835   3.118   2.634 -0.0025 -1.8667  0.1086
  709SOL     OW 2259   1.835   2.082   3.262  0.5733  0.1701 -0.5935
  709SOL    HW1 2260   1.860   2.070   3.354  0.1991 -0.8289 -0.6165
  709SOL    HW2 2261   1.746   2.116   3.265  0.0902 -1.0669 -0.6007
  710SOL     OW 2262   0.729   1.357   2.150 -0.5783  0.4453 -0.8798
  710SOL    HW1 2263   0.650   1.407   2.171 -1.3040 -1.6374  2.0133
  710SOL    HW2 2264   0.800   1.406   2.192 -0.9174  0.4247 -0.2639
  711SOL     OW 2265   3.769   2.758   0.218  0.3151  0.5123  0.7903
  711SOL    HW1 2266   3.686   2.744   0.171  2.0166  1.2612 -2.7830
  711SOL    HW2 2267   3.752   2.725   0.306 -3.0492 -1.5384 -0.4180
  712SOL     OW 2268   0.787   1.929   1.680 -0.3842  0.0459  0.1692
  712SOL    HW1 2269   0.773   1.898   1.769 -0.9228  1.3871  0.5810
  712SOL    HW2 2270   0.718   1.887   1.628 -0.3470 -0.3845  0.4645
  713SOL     OW 2271   0.319   0.704   1.818  0.4186  0.2318  0.9044
  713SOL    HW1 2272   0.295   0.724   1.908  0.3059 -0.4220  1.0293
  713SOL    HW2 2273   0.414   0.691   1.821  0.2714 -0.9729  1.1867
  714SOL     OW 2274   1.969   1.152   2.752 -0.1514 -0.4965  0.6591
  714SOL    HW1 2275   2.009   1.201   2.680 -0.0860 -0.2529  0.8621
  714SOL    HW2 2276   2.024   1.074   2.761  0.4562 -0.0240  1.1279
  715SOL     OW 2277   1.504   0.601   1.947 -0.1112  0.5352  0.5587
  715SOL    HW1 2278   1.564   0.672   1.971  0.2540  0.1283  0.8553
  715SOL    HW2 2279   1.430   0.610   2.008 -1.8044  2.8297 -1.6025
  716SOL     OW 2280   1.124   3.032   3.732  0.2777  0.0364 -0.2489
  716SOL    HW1 2281   1.210   3.073   3.736  0.0135  0.7561 -1.4318
  716SOL    HW2 2282   1.099   3.037   3.639  0.3008 -2.9552 -0.5178
  717SOL     OW 2283   2.808   1.093   0.069 -0.3125  0.1394  0.0899
  717SOL    HW1 2284   2.759   1.149   0.131  1.0128  2.2355 -0.6438
  717SOL    HW2 2285   2.899   1.106   0.093  0.2176  0.8025 -2.1105
  718SOL     OW 2286   2.233   3.497   2.146  0.2091 -0.3625 -0.7777
  718SOL    HW1 2287   2.250   3.567   2.209 -0.9801 -2.6578  2.3472
  718SOL    HW2 2288   2.230   3.541   2.061  0.0754  3.2531  0.9262
  719SOL     OW 2289   3.595   3.260   2.573  0.5688 -0.0324 -0.5389
  719SOL    HW1 2290   3.624   3.169   2.568  0.2055 -0.1255 -1.0717
  719SOL    HW2 2291   3.506   3.259   2.538  0.0890  0.3281  0.6263
  720SOL     OW 2292   3.565   0.047   2.592 -0.2213 -0.0011  0.3319
  720SOL    HW1 2293   3.591  -0.013   2.662  3.8397 -0.8277 -1.6027
  720SOL    HW2 2294   3.617   0.126   2.607 -0.5461  0.4486 -0.7994
  721SOL     OW 2295   1.268   1.623   3.261 -0.3600 -0.7281 -0.4285
  721SOL    HW1 2296   1.245   1.626   3.168 -1.1314 -2.0670 -0.3078
  721SOL    HW2 2297   1.204   1.562   3.299 -0.7156  0.5635  1.1708
  722SOL     OW 2298   3.369   0.317   1.450 -0.1008  0.1928 -0.3161
  722SOL    HW1 2299   3.318   0.304   1.530 -1.7274 -1.4420 -1.5419
  722SOL    HW2 2300   3.411   0.232   1.435  0.2717  0.5181 -1.1495
  723SOL     OW 2301   0.685   2.799   3.705  0.0533 -0.0376  1.1543
  723SOL    HW1 2302   0.616   2.756   3.653 -0.0747  1.4509  0.0293
  723SOL    HW2 2303   0.758   2.737   3.703 -0.3838 -0.5530  0.2107
  724SOL     OW 2304   1.797   1.500   1.757  0.2298  0.0430 -0.1039
  724SOL    HW1 2305   1.811   1.407   1.775 -0.9536 -0.2368 -0.5369
  724SOL    HW2 2306   1.840   1.545   1.830 -0.3138 -0.8886  0.8198
  725SOL     OW 2307   0.357   2.265   2.323 -0.7004 -0.3198 -0.1210
  725SOL    HW1 2308   0.446   2.282   2.352 -0.8680  0.0626  0.1715
  725SOL    HW2 2309   0.368   2.217   2.240 -0.2208  0.6794 -0.6530
  726SOL     OW 2310   0.377   3.484   2.516 -0.1887  0.6078 -0.3802
  726SOL    HW1 2311   0.314   3.422   2.480 -0.4372  2.3548 -3.3799
  726SOL    HW2 2312   0.444   3.430   2.557 -0.5261 -1.6489 -2.5783
  727SOL     OW 2313   2.969   1.203   2.614 -0.2568 -0.2313 -0.0533
  727SOL    HW1 2314   2.931   1.212   2.701  0.8989  1.3148  0.3407
  727SOL    HW2 2315   2.895   1.212   2.554 -1.1162 -1.6624  0.7452
  728SOL     OW 2316   3.431   0.258   2.088  0.1680  0.0380 -0.1584
  728SOL    HW1 2317   3.517   0.262   2.046  0.4761  3.0695  0.5493
  728SOL    HW2 2318   3.407   0.165   2.084  2.3349 -0.5406 -2.5836
  729SOL     OW 2319   3.009   1.349   3.120 -0.1995 -0.2783  0.1998
  729SOL    HW1 2320   2.957   1.275   3.151 -0.5902 -0.4641 -0.8570
  729SOL    HW2 2321   3.069   1.311   3.056  1.0018 -0.0036  1.1115
  730SOL     OW 2322   0.665   0.652   1.507  0.0891 -0.0083 -0.5311
  730SOL    HW1 2323   0.696   0.561   1.505  1.1246  0.3373 -1.4090
  730SOL    HW2 2324   0.743   0.704   1.486  0.3822  1.3461  3.1444
  731SOL     OW 2325   0.488   0.777   0.111  0.0888 -0.1677  0.1892
  731SOL    HW1 2326   0.434   0.699   0.115  1.3546 -1.0743  0.3726
  731SOL    HW2 2327   0.484   0.805   0.020  0.1699 -0.8585 -0.0294
  732SOL     OW 2328   1.187   0.947   0.334  0.6768 -0.0851 -0.0354
  732SOL    HW1 2329   1.164   0.856   0.316  1.3924 -1.1315  3.5196
  732SOL    HW2 2330   1.107   0.984   0.373  0.3850  0.8773 -1.4712
  733SOL     OW 2331   3.043   3.135   0.201  0.4565  0.4882  0.1040
  733SOL    HW1 2332   3.010   3.055   0.240  0.0778  0.4990 -0.1816
  733SOL    HW2 2333   3.077   3.108   0.116  0.7755  0.5507  0.2121
  734SOL     OW 2334   0.823  -0.005   2.097  0.1361 -0.4428  0.0435
  734SOL    HW1 2335   0.804   0.070   2.041 -1.3722 -0.3482  0.6393
  734SOL    HW2 2336   0.911  -0.033   2.071 -0.7813 -0.9128 -2.9093
  735SOL     OW 2337   3.714   2.046   0.398  0.1312  0.0200 -0.0839
  735SOL    HW1 2338   3.652   2.032   0.327 -1.8265  1.0193  1.3092
  735SOL    HW2 2339   3.704   1.969   0.454 -0.0878  0.3218  0.2970
  736SOL     OW 2340   2.196   0.603   1.273 -0.1240  0.5511 -0.4526
  736SOL    HW1 2341   2.284   0.565   1.269  0.3562  1.2668  1.9005
  736SOL    HW2 2342   2.157   0.564   1.352 -1.7795  0.5913 -1.2034
  737SOL     OW 2343   2.501   0.613   2.535 -0.6150  0.2317 -0.0574
  737SOL    HW1 2344   2.451   0.536   2.562  0.9122 -0.2269  1.7196
  737SOL    HW2 2345   2.513   0.603   2.441  0.3337 -2.2421  0.2666
  738SOL     OW 2346   1.458   1.748   1.326 -0.6461  0.1350  0.4535
  738SOL    HW1 2347   1.422   1.811   1.263  0.0984 -0.9677 -1.1548
  738SOL    HW2 2348   1.551   1.768   1.329 -0.2163 -1.4127 -0.8126
  739SOL     OW 2349   3.392   1.665   0.163  0.3352 -0.7879 -0.5210
  739SOL    HW1 2350   3.384   1.569   0.166 -0.1763 -0.7741 -1.3359
  739SOL    HW2 2351   3.443   1.682   0.084  0.3845 -0.3804 -0.4017
  740SOL     OW 2352   2.378   3.120   3.194 -0.0526  0.2071  0.1843
  740SOL    HW1 2353   2.337   3.198   3.157 -0.8457  0.3103  1.2318
  740SOL    HW2 2354   2.339   3.111   3.281  1.7700  0.0125  1.0414
  741SOL     OW 2355   1.317   3.361   1.735  0.5259 -0.2309  0.1253
  741SOL    HW1 2356   1.410   3.376   1.720 -0.1229  2.8305 -1.5000
  741SOL    HW2 2357   1.298   3.408   1.816  0.2534 -0.3585  0.1371
  742SOL     OW 2358   1.982   2.306   1.364  0.2674  0.0342  0.3532
  742SOL    HW1 2359   2.028   2.237   1.413 -1.0241 -0.0270  1.5423
  742SOL    HW2 2360   1.976   2.272   1.275 -0.1558 -1.3188  0.8641
  743SOL     OW 2361   3.651   1.081   3.053  0.4188 -0.2278 -0.3140
  743SOL    HW1 2362   3.557   1.078   3.036  0.6495 -1.2362 -1.5548
  743SOL    HW2 2363   3.670   0.995   3.092  0.8216 -0.0034 -0.0164
  744SOL     OW 2364   3.181   3.138   2.273 -0.0027 -0.4191 -0.2187
  744SOL    HW1 2365   3.108   3.190   2.241 -0.2904 -1.0355 -0.5946
  744SOL    HW2 2366   3.142   3.053   2.295  0.6889 -0.9562 -0.9893
  745SOL     OW 2367   0.185   2.561   1.869  0.0125 -0.3454 -0.0520
  745SOL    HW1 2368   0.259   2.619   1.855 -0.9500  1.3652  1.5684
  745SOL    HW2 2369   0.166   2.568   1.962 -1.4860 -1.6260 -0.2211
  746SOL     OW 2370   1.003   1.320   2.978  0.2670  0.5222 -0.5317
  746SOL    HW1 2371   0.918   1.336   3.021  0.3522 -0.1754 -0.0812
  746SOL    HW2 2372   1.001   1.227   2.957  1.4278  0.2200  0.6160
  747SOL     OW 2373   2.433   0.526   1.953 -0.0602  1.0191 -0.3942
  747SOL    HW1 2374   2.373   0.540   2.027 -0.8681  0.4725 -0.9200
  747SOL    HW2 2375   2.380   0.545   1.876  0.7627  1.5352 -0.8394
  748SOL     OW 2376   3.437   2.538   1.184 -0.7082  0.2926  0.3287
  748SOL    HW1 2377   3.435   2.596   1.260  1.1824 -0.1535  0.7731
  748SOL    HW2 2378   3.529   2.514   1.175 -1.1791 -1.1885 -0.9605
  749SOL     OW 2379   2.936   0.722   2.058 -0.2212  0.0010 -0.6275
  749SOL    HW1 2380   2.858   0.671   2.035 -0.5336  0.6667 -1.1012
  749SOL    HW2 2381   2.995   0.710   1.984 -0.2101  0.1527 -0.6433
  750SOL     OW 2382   0.606   0.784   2.767  0.0979 -0.3462  1.0546
  750SOL    HW1 2383   0.532   0.724   2.773 -0.8094  0.2512 -2.1242
  750SOL    HW2 2384   0.635   0.777   2.676  1.1335  2.6276  1.0444
  751SOL     OW 2385   3.613   1.197   1.691  0.5526  0.5417 -0.3186
  751SOL    HW1 2386   3.612   1.208   1.786  2.9801  1.0954 -0.2877
  751SOL    HW2 2387   3.576   1.110   1.676 -0.3629  0.6544  1.0494
  752SOL     OW 2388   0.713   1.795   0.221  0.6083  0.1010  0.3478
  752SOL    HW1 2389   0.682   1.709   0.192  0.5287 -1.0660  3.5703
  752SOL    HW2 2390   0.778   1.776   0.289  1.0416  2.6055  0.7263
  753SOL     OW 2391   1.715   1.677   2.764 -0.2646 -0.0249  0.8116
  753SOL    HW1 2392   1.809   1.683   2.775 -0.1133 -0.3534 -0.1343
  753SOL    HW2 2393   1.695   1.736   2.691 -1.2010  2.1778  2.7263
  754SOL     OW 2394   0.628   0.308   0.955 -0.5255 -0.0638 -0.3990
  754SOL    HW1 2395   0.561   0.324   1.022 -0.7721 -0.6174 -0.5094
  754SOL    HW2 2396   0.585   0.253   0.890 -0.3262  0.5864 -1.0952
  755SOL     OW 2397   1.952   1.502   0.965  0.2421  0.0330 -0.4519
  755SOL    HW1 2398   1.877   1.535   0.916 -3.1580 -1.0856  3.3974
  755SOL    HW2 2399   1.987   1.578   1.011 -1.8194 -0.0568  1.4507
  756SOL     OW 2400   1.585   2.608   0.484 -0.3006 -0.1086 -0.4995
  756SOL    HW1 2401   1.598   2.653   0.401 -2.1316  2.5689  0.5476
  756SOL    HW2 2402   1.525   2.664   0.534  0.7235 -1.5585  2.6652
  757SOL     OW 2403   3.462  -0.020   3.235 -0.1906 -0.0939 -0.0429
  757SOL    HW1 2404   3.483   0.071   3.217 -2.4114  0.7909  1.3641
  757SOL    HW2 2405   3.389  -0.040   3.177 -0.9981 -0.3139  1.0090
  758SOL     OW 2406   2.910   1.959   2.496  0.2429 -0.4174 -0.7792
  758SOL    HW1 2407   2.899   1.964   2.401 -0.3113 -1.6078 -0.7936
  758SOL    HW2 2408   2.840   1.901   2.525 -0.9302  1.5495  0.6186
  759SOL     OW 2409   0.690   0.573   2.924  0.4914 -0.2704  0.1670
  759SOL    HW1 2410   0.625   0.642   2.916 -0.1225 -0.9662 -1.1149
  759SOL    HW2 2411   0.696   0.556   3.018 -0.4131  0.5075  0.3767
  760SOL     OW 2412   1.410   2.075   3.606  0.5951  0.0127 -0.6166
  760SOL    HW1 2413   1.417   2.093   3.512  2.1784 -0.5308 -0.6403
  760SOL    HW2 2414   1.318   2.053   3.620  0.0427  1.4895 -1.7728
  761SOL     OW 2415   2.249   2.577   2.348 -0.0507 -0.6466  0.3496
  761SOL    HW1 2416   2.333   2.572   2.393  1.0076 -0.4547 -1.5231
  761SOL    HW2 2417   2.218   2.666   2.364  0.5524 -0.4237  0.3002
  762SOL     OW 2418   1.534   3.434   0.871  0.6166  0.0977 -0.4168
  762SOL    HW1 2419   1.444   3.405   0.854  0.4378 -0.1570  0.8561
  762SOL    HW2 2420   1.524   3.519   0.914  0.9626 -0.0608 -0.0110
  763SOL     OW 2421   2.610   0.715   0.639 -0.2024  1.2595  0.5935
  763SOL    HW1 2422   2.588   0.707   0.546  1.0770 -1.2204  0.4194
  763SOL    HW2 2423   2.691   0.766   0.640  0.8444 -0.3123  0.1152
  764SOL     OW 2424   3.300   0.703   2.661 -0.0821  0.0469 -0.3753
  764SOL    HW1 2425   3.217   0.734   2.625 -0.2451  2.4884  1.8486
  764SOL    HW2 2426   3.288   0.608   2.670 -2.9086  0.3918  0.4641
  765SOL     OW 2427   3.468   0.988   1.295 -0.0409  0.2448  0.3648
  765SOL    HW1 2428   3.500   1.049   1.229 -1.5376  2.1476  1.3047
  765SOL    HW2 2429   3.385   0.956   1.261  0.3227 -0.6450  0.2734
  766SOL     OW 2430   3.141   3.398   3.584 -0.1108  1.0032  0.2798
  766SOL    HW1 2431   3.080   3.411   3.512  1.2600 -1.4469 -1.4818
  766SOL    HW2 2432   3.141   3.481   3.631 -2.0993  2.2487 -1.7191
  767SOL     OW 2433   2.501   2.168   0.885  0.2550  0.3705  0.0365
  767SOL    HW1 2434   2.442   2.236   0.917 -1.2749 -1.1675  0.6631
  767SOL    HW2 2435   2.565   2.156   0.955 -0.1648  0.3829  0.4300
  768SOL     OW 2436   2.260   0.039   1.092  0.1066  0.4226  0.6408
  768SOL    HW1 2437   2.232   0.097   1.022 -1.2054 -0.1890  0.6217
  768SOL    HW2 2438   2.255   0.093   1.171 -0.4510  0.5254  0.5386
  769SOL     OW 2439   2.914   0.207   0.447  0.5444  0.2804  0.3902
  769SOL    HW1 2440   2.999   0.218   0.403  0.8398 -1.2354  0.5172
  769SOL    HW2 2441   2.889   0.295   0.473  0.8974  1.0939 -1.8194
  770SOL     OW 2442   3.195   0.325   3.252  0.2065  0.3801  0.3565
  770SOL    HW1 2443   3.113   0.364   3.223  0.0315  0.5432  1.0464
  770SOL    HW2 2444   3.256   0.340   3.180  0.1267  1.8875  0.5641
  771SOL     OW 2445   0.122   0.613   0.887 -0.5306  0.3971 -0.3176
  771SOL    HW1 2446   0.125   0.519   0.871 -1.2045  0.4513 -0.8350
  771SOL    HW2 2447   0.126   0.622   0.983  0.3450 -0.1066 -0.3001
  772SOL     OW 2448   2.661   3.507   2.395  0.2836  0.1054 -0.0270
  772SOL    HW1 2449   2.730   3.557   2.351  0.1289  0.3921  0.0559
  772SOL    HW2 2450   2.581   3.531   2.348  0.1292  0.3499  0.3586
  773SOL     OW 2451   3.315   3.265   2.492  0.6761  0.1244  0.2871
  773SOL    HW1 2452   3.275   3.341   2.532 -0.2475 -1.3162  2.2745
  773SOL    HW2 2453   3.257   3.243   2.419  0.3998  0.7526  0.3170
  774SOL     OW 2454   3.572   2.993   0.481 -0.1602 -1.1911  0.3550
  774SOL    HW1 2455   3.573   2.903   0.448 -1.2417 -0.4487 -1.9026
  774SOL    HW2 2456   3.629   2.991   0.557 -0.6291 -3.9136  0.7347
  775SOL     OW 2457   0.992   3.660   0.375 -0.1061 -0.5992 -0.1519
  775SOL    HW1 2458   0.961   3.745   0.345 -0.8307 -1.0854 -0.8528
  775SOL    HW2 2459   0.974   3.601   0.302  1.4767 -1.1412 -0.1438
  776SOL     OW 2460   1.562   2.675   1.680  0.2953  0.3775  0.4721
  776SOL    HW1 2461   1.476   2.699   1.715 -0.6215 -2.1721  0.2206
  776SOL    HW2 2462   1.623   2.735   1.722 -1.4710  1.4956  1.5833
  777SOL     OW 2463   0.560   1.148   3.086 -0.5690 -0.6555 -0.0419
  777SOL    HW1 2464   0.517   1.070   3.051 -0.9727 -0.4740  0.0409
  777SOL    HW2 2465   0.515   1.165   3.169 -0.3234 -0.4740  0.0559
  778SOL     OW 2466   2.126   0.655   0.763 -0.1020 -0.2338 -0.4360
  778SOL    HW1 2467   2.100   0.585   0.703  0.6730 -0.7447 -0.1991
  778SOL    HW2 2468   2.054   0.662   0.825  0.4328 -1.8795  0.4405
  779SOL     OW 2469   1.607   0.656   1.629  0.1446 -0.3418  0.0277
  779SOL    HW1 2470   1.534   0.656   1.567  0.8429 -0.8395 -0.8224
  779SOL    HW2 2471   1.585   0.724   1.693 -0.2242  0.7183 -1.1999
  780SOL     OW 2472   2.482   2.081   0.217  0.0502 -0.3665 -0.1946
  780SOL    HW1 2473   2.489   2.019   0.144 -0.0739  1.0622 -1.4788
  780SOL    HW2 2474   2.393   2.071   0.249 -0.2606 -0.2222 -0.9909
  781SOL     OW 2475   3.201   3.040   0.662 -0.7567 -0.6322  0.1021
  781SOL    HW1 2476   3.231   3.128   0.637 -1.7153 -0.7305 -1.5600
  781SOL    HW2 2477   3.135   3.018   0.596 -0.5735 -2.5845  0.5145
  782SOL     OW 2478   2.981   2.230   2.625 -0.1900  0.0185  0.1771
  782SOL    HW1 2479   2.946   2.163   2.567 -2.0010  1.8140 -0.9565
  782SOL    HW2 2480   2.940   2.213   2.710 -1.5481  0.3166 -0.3910
  783SOL     OW 2481   2.683   3.002   0.091 -0.0792 -0.0610 -0.0895
  783SOL    HW1 2482   2.634   2.926   0.061 -1.6565  0.4410  1.1129
  783SOL    HW2 2483   2.687   3.059   0.015 -0.2384 -0.6570 -0.5549
  784SOL     OW 2484   2.786   2.611   3.169  0.5964 -0.7514 -0.1019
  784SOL    HW1 2485   2.707   2.649   3.208  1.1482 -0.2487  0.5568
  784SOL    HW2 2486   2.805   2.667   3.093  0.5435 -0.6339 -0.0287
  785SOL     OW 2487   3.070   1.578   1.606  0.3901  0.2385 -0.1394
  785SOL    HW1 2488   3.156   1.592   1.565 -0.5261 -0.0580 -2.2803
  785SOL    HW2 2489   3.029   1.510   1.554 -1.9995  1.8417 -0.5116
  786SOL     OW 2490   2.632   3.679   3.572  0.1422 -0.0768 -0.6391
  786SOL    HW1 2491   2.580   3.756   3.595 -0.7944 -1.6113  3.1006
  786SOL    HW2 2492   2.573   3.623   3.522 -0.9802 -0.5592  1.1431
  787SOL     OW 2493   0.235   3.221   1.461 -0.1412 -0.2122  0.4877
  787SOL    HW1 2494   0.253   3.140   1.412 -1.0791  0.8535 -1.7452
  787SOL    HW2 2495   0.140   3.225   1.467 -0.1506  1.1655 -0.2296
  788SOL     OW 2496   3.756   0.970   0.903 -0.5132 -0.5637 -0.2095
  788SOL    HW1 2497   3.686   1.021   0.863  1.2763  1.7856 -0.5443
  788SOL    HW2 2498   3.711   0.911   0.963 -2.7731  0.9571 -0.2877
  789SOL     OW 2499   0.039   3.161   1.087 -0.0975  0.6692  0.7048
  789SOL    HW1 2500   0.041   3.176   1.182 -0.2053  2.8263  0.4218
  789SOL    HW2 2501   0.024   3.248   1.050  1.8012  0.2038 -1.3857
  790SOL     OW 2502   0.420   0.126   0.900  0.4910 -0.8989  0.3055
  790SOL    HW1 2503   0.501   0.075   0.897  1.3535  0.4339 -0.2921
  790SOL    HW2 2504   0.396   0.128   0.992  1.3104 -1.0858  0.5353
  791SOL     OW 2505   0.297   3.576   0.033  0.3281 -0.4013 -0.2275
  791SOL    HW1 2506   0.250   3.641  -0.020  1.2527  0.6763  0.2433
  791SOL    HW2 2507   0.228   3.517   0.064 -0.3694 -0.4509 -1.7524
  792SOL     OW 2508   2.478   2.586   3.292 -0.0172  0.3026 -0.2943
  792SOL    HW1 2509   2.442   2.659   3.242  1.3783  0.9509 -0.4048
  792SOL    HW2 2510   2.428   2.510   3.263 -1.4592  1.1812 -0.2257
  793SOL     OW 2511   1.400   2.273   0.705  0.4114  0.2402  0.0714
  793SOL    HW1 2512   1.470   2.290   0.643 -0.7629  1.7404 -0.9062
  793SOL    HW2 2513   1.443   2.278   0.791  1.5017  1.2384 -0.4936
  794SOL     OW 2514   1.344   1.851   1.624 -0.0353  0.1006 -0.0762
  794SOL    HW1 2515   1.293   1.890   1.553  1.2690 -0.3112 -1.2702
  794SOL    HW2 2516   1.433   1.844   1.590  0.4096 -1.0978  1.2183
  795SOL     OW 2517   2.737   0.307   1.649  0.6203 -0.2366  0.3728
  795SOL    HW1 2518   2.746   0.244   1.578  1.6223 -0.0533  0.3210
  795SOL    HW2 2519   2.807   0.370   1.633 -0.2159  0.7640  0.5535
  796SOL     OW 2520   0.300   3.040   0.913 -0.0784  0.3823 -0.3614
  796SOL    HW1 2521   0.303   3.107   0.982  0.0703 -0.3836  0.3867
  796SOL    HW2 2522   0.377   3.059   0.859 -0.9514  1.8542 -1.1736
  797SOL     OW 2523   1.317   1.571   1.539 -0.1930 -0.2962  0.1449
  797SOL    HW1 2524   1.268   1.514   1.598  0.2153  0.8583  1.6685
  797SOL    HW2 2525   1.317   1.657   1.583  0.7442  0.4288 -1.1958
  798SOL     OW 2526   0.922   2.378   3.521  0.1106  0.0589 -0.2912
  798SOL    HW1 2527   0.943   2.385   3.614  1.0500  2.9347 -0.6238
  798SOL    HW2 2528   0.888   2.290   3.511  0.4453 -0.5141  2.6790
  799SOL     OW 2529   1.132   0.323   1.563  0.3687  0.0658 -0.6611
  799SOL    HW1 2530   1.201   0.378   1.526  2.0983 -0.4159  1.6565
  799SOL    HW2 2531   1.173   0.237   1.574 -0.7657 -0.3825  0.3356
  800SOL     OW 2532   3.199   3.122   3.503  0.2181  0.1594  0.4469
  800SOL    HW1 2533   3.133   3.165   3.557  0.5164 -2.2487  2.9288
  800SOL    HW2 2534   3.246   3.064   3.563  2.3420 -0.7756 -1.9189
  801SOL     OW 2535   0.737   2.027   1.004  0.0077  0.0257  0.0983
  801SOL    HW1 2536   0.817   2.075   1.025  0.5850 -0.6701 -0.4459
  801SOL    HW2 2537   0.757   1.982   0.922 -1.0780  0.1432 -0.2483
  802SOL     OW 2538   2.180   3.648   1.926  0.5235 -0.1157 -0.2540
  802SOL    HW1 2539   2.256   3.702   1.903 -0.2331  0.4138 -1.5827
  802SOL    HW2 2540   2.123   3.707   1.976  1.3281 -0.7446  1.4651
  803SOL     OW 2541   2.545   0.840   1.691  0.7954 -0.0816 -0.5134
  803SOL    HW1 2542   2.564   0.751   1.662 -2.5584 -1.2728  0.5000
  803SOL    HW2 2543   2.544   0.835   1.786 -3.1497 -0.0364 -0.4095
  804SOL     OW 2544   2.112   1.080   3.523 -0.2873 -0.3283 -0.0095
  804SOL    HW1 2545   2.141   1.104   3.435  0.4188 -1.6447 -0.1644
  804SOL    HW2 2546   2.035   1.135   3.539  0.4550  1.0112 -0.8373
  805SOL     OW 2547   1.294   2.976   0.831 -0.5377 -0.0269 -0.0120
  805SOL    HW1 2548   1.235   3.015   0.896 -1.8908  0.3337 -1.3990
  805SOL    HW2 2549   1.258   3.003   0.747 -0.0854 -2.2418 -0.9801
  806SOL     OW 2550   1.116   2.758   3.726  0.0284  0.3424  0.1331
  806SOL    HW1 2551   1.114   2.853   3.713  0.8075  0.5193  1.2228
  806SOL    HW2 2552   1.206   2.733   3.705 -0.7289 -0.5413 -2.4541
  807SOL     OW 2553   1.621   2.328   0.489  0.0313  0.3109  0.8505
  807SOL    HW1 2554   1.624   2.420   0.514  0.4580  0.5241  0.0404
  807SOL    HW2 2555   1.700   2.313   0.437  0.0361 -0.5444  1.0807
  808SOL     OW 2556   3.374   1.380   3.001  0.3202 -0.1137  0.2546
  808SOL    HW1 2557   3.420   1.427   2.931  1.7179 -0.4643  0.9035
  808SOL    HW2 2558   3.320   1.447   3.043  0.2545  0.3214 -0.4992
  809SOL     OW 2559   2.462   3.019   1.411 -0.6273 -1.2560 -0.4652
  809SOL    HW1 2560   2.483   2.942   1.359 -0.9639 -1.2341 -0.6393
  809SOL    HW2 2561   2.430   2.984   1.494 -0.1589 -1.2924 -0.2969
  810SOL     OW 2562   1.169   2.716   0.905  0.3799  0.4882  0.3369
  810SOL    HW1 2563   1.202   2.800   0.872  0.6625  0.6892  1.1233
  810SOL    HW2 2564   1.212   2.650   0.850  1.2409  0.7960  0.6344
  811SOL     OW 2565   0.369   0.607   3.580 -0.1226  0.2234  0.4107
  811SOL    HW1 2566   0.385   0.542   3.647  1.4561 -1.0820 -1.1495
  811SOL    HW2 2567   0.273   0.610   3.572 -0.2476 -1.5979  0.8303
  812SOL     OW 2568   0.188   3.201   1.723 -0.3398  0.7071 -0.2101
  812SOL    HW1 2569   0.269   3.205   1.774 -1.5330  1.9482  1.7417
  812SOL    HW2 2570   0.195   3.273   1.660 -0.4058  1.6032  0.7771
  813SOL     OW 2571   3.212   0.362   2.219 -0.0280 -0.5163  0.4695
  813SOL    HW1 2572   3.158   0.290   2.185 -0.3504  0.3888 -1.0099
  813SOL    HW2 2573   3.300   0.341   2.188 -0.5800  1.1928 -2.6491
  814SOL     OW 2574   3.261   1.157   2.928 -0.1444 -0.3362  0.3342
  814SOL    HW1 2575   3.318   1.086   2.958  1.0722  0.2262 -0.5352
  814SOL    HW2 2576   3.302   1.237   2.962 -1.5228 -0.0370  1.3445
  815SOL     OW 2577   2.053   0.429   1.463  0.3573  0.0465 -0.6617
  815SOL    HW1 2578   2.036   0.352   1.408 -2.5954 -0.4461  0.7308
  815SOL    HW2 2579   2.065   0.392   1.551 -0.8767  1.1036 -0.0178
  816SOL     OW 2580   1.343   1.107   0.195  0.8074  0.0907  0.6776
  816SOL    HW1 2581   1.321   1.182   0.251  0.2337  0.8399 -0.5133
  816SOL    HW2 2582   1.276   1.042   0.214  0.3522  0.5177  0.5307
  817SOL     OW 2583   2.347   3.220   0.580 -0.0911  0.0619  0.1555
  817SOL    HW1 2584   2.396   3.144   0.609  2.7430  2.3681  1.9607
  817SOL    HW2 2585   2.269   3.223   0.636  0.7363 -0.4859  1.3403
  818SOL     OW 2586   2.839   2.230   1.989  0.2037 -0.0996 -0.6079
  818SOL    HW1 2587   2.930   2.214   2.011  0.1901  0.8559  0.1926
  818SOL    HW2 2588   2.826   2.323   2.006 -1.3002 -0.5066  0.6897
  819SOL     OW 2589   2.110   0.270   3.668  0.2442  1.2550  0.3467
  819SOL    HW1 2590   2.145   0.249   3.755 -0.9610  1.8476  1.0207
  819SOL    HW2 2591   2.132   0.362   3.655  0.1511  1.2541  0.1824
  820SOL     OW 2592   0.761   2.091   0.678 -0.4077 -0.1507  0.0478
  820SOL    HW1 2593   0.717   2.130   0.603  0.2532  0.3341 -0.0961
  820SOL    HW2 2594   0.852   2.119   0.670 -0.0011 -1.4061  0.1643
  821SOL     OW 2595   1.859   3.750   2.706  0.1216 -0.2169 -0.4820
  821SOL    HW1 2596   1.793   3.701   2.657  0.2064  0.1293 -0.9486
  821SOL    HW2 2597   1.885   3.690   2.777 -0.4070 -0.5033 -0.5211
  822SOL     OW 2598   0.188   3.519   1.755  0.1718  0.1088 -0.2397
  822SOL    HW1 2599   0.249   3.493   1.686  0.5350  0.9835 -0.2579
  822SOL    HW2 2600   0.143   3.596   1.719 -1.3944 -0.8525 -0.4798
  823SOL     OW 2601   3.071   1.317   2.362  0.3358  0.9347 -0.6879
  823SOL    HW1 2602   3.057   1.298   2.454  1.4987  0.0991 -0.6606
  823SOL    HW2 2603   3.054   1.411   2.354 -1.7595  0.6510 -0.0556
  824SOL     OW 2604   0.090   2.266   1.016  0.2061  0.4081 -0.4266
  824SOL    HW1 2605   0.181   2.239   1.003 -0.1857 -1.2748  0.1109
  824SOL    HW2 2606   0.067   2.312   0.934  1.4941  0.8112 -0.5905
  825SOL     OW 2607   0.360   0.080   1.185  0.1259 -0.4318 -0.9066
  825SOL    HW1 2608   0.351  -0.015   1.187  0.7821 -0.4966 -0.8557
  825SOL    HW2 2609   0.271   0.113   1.195  0.0884 -1.0049  1.0220
  826SOL     OW 2610   2.193   0.721   2.563  0.0998 -0.2798 -0.2000
  826SOL    HW1 2611   2.124   0.654   2.560  0.4346 -0.7107  1.2188
  826SOL    HW2 2612   2.273   0.673   2.541  0.0000  0.2066 -1.7701
  827SOL     OW 2613   3.461   2.870   1.812 -0.1835  0.3369 -0.2959
  827SOL    HW1 2614   3.467   2.924   1.890  1.6923  0.8426 -0.7311
  827SOL    HW2 2615   3.470   2.780   1.844 -1.5797  0.3751  0.2561
  828SOL     OW 2616   3.312   3.496   1.006  0.5276  0.3793  0.0833
  828SOL    HW1 2617   3.231   3.522   0.963  0.8739  2.4698  0.5862
  828SOL    HW2 2618   3.285   3.432   1.072 -0.1916 -1.7455 -2.1290
  829SOL     OW 2619   0.972   1.794   0.385  0.6052  0.1060 -0.6146
  829SOL    HW1 2620   1.003   1.812   0.474 -1.5059 -0.5580  0.3156
  829SOL    HW2 2621   0.995   1.702   0.370 -0.1546 -0.1485 -0.2473
  830SOL     OW 2622   1.719   1.799   3.470  0.5217 -0.2951  0.3932
  830SOL    HW1 2623   1.638   1.821   3.517 -0.8143  1.6470 -2.5358
  830SOL    HW2 2624   1.690   1.780   3.381  3.1924 -1.0390 -0.3993
  831SOL     OW 2625   3.459   2.955   2.076 -0.3715  0.1991  0.0260
  831SOL    HW1 2626   3.452   2.908   2.159  0.4252 -0.1149 -0.0747
  831SOL    HW2 2627   3.474   3.046   2.101  0.0167  0.0802  0.2275
  832SOL     OW 2628   0.552   3.416   0.322 -0.3989  0.6265  0.3865
  832SOL    HW1 2629   0.515   3.481   0.381  0.2854  0.1624  1.3771
  832SOL    HW2 2630   0.599   3.467   0.256 -2.8120  1.2251 -0.9670
  833SOL     OW 2631   1.955   1.871   3.116  0.0976 -0.1206 -0.4813
  833SOL    HW1 2632   1.875   1.918   3.142  0.2050 -0.3585  0.2748
  833SOL    HW2 2633   1.925   1.782   3.096  0.1353 -0.1360 -0.4688
  834SOL     OW 2634   2.711   0.925   3.343 -0.0292  0.2136 -0.2575
  834SOL    HW1 2635   2.617   0.937   3.335 -0.3092 -0.3646  1.6262
  834SOL    HW2 2636   2.737   0.982   3.416  0.8991 -0.3525 -0.1229
  835SOL     OW 2637   1.851   2.127   0.149  0.6000  0.1130  0.4195
  835SOL    HW1 2638   1.833   2.061   0.083  1.1068  0.6215 -0.2369
  835SOL    HW2 2639   1.942   2.110   0.176  2.0246  2.6260 -2.2745
  836SOL     OW 2640   0.529   1.856   0.823 -0.2121 -0.0535  0.5321
  836SOL    HW1 2641   0.484   1.801   0.886  1.8386 -0.6423  1.5704
  836SOL    HW2 2642   0.506   1.946   0.849 -0.9869 -0.3343  0.8457
  837SOL     OW 2643   2.041   1.793   0.532  0.1179 -0.1290 -0.0860
  837SOL    HW1 2644   2.006   1.821   0.447 -0.2315  1.0344  0.4190
  837SOL    HW2 2645   2.131   1.826   0.532 -0.0110  0.2256  0.1539
  838SOL     OW 2646   3.333   1.750   2.226  0.3244  0.7803  0.0472
  838SOL    HW1 2647   3.382   1.724   2.148 -0.1992 -1.6376  0.4470
  838SOL    HW2 2648   3.244   1.765   2.194  0.2496  0.3878  0.0603
  839SOL     OW 2649   0.322   0.531   0.633  0.0860  0.3811 -0.1889
  839SOL    HW1 2650   0.337   0.458   0.573  2.0653 -0.1944  0.9410
  839SOL    HW2 2651   0.249   0.501   0.688 -0.6060  0.2228 -1.1461
  840SOL     OW 2652   0.455   2.755   1.523  0.0888 -0.4142  0.2934
  840SOL    HW1 2653   0.376   2.723   1.479  1.8401 -1.7252 -2.0636
  840SOL    HW2 2654   0.488   2.825   1.467  2.2257 -1.9218 -0.4405
  841SOL     OW 2655   0.260   1.899   1.366  0.4063 -0.2127 -0.0400
  841SOL    HW1 2656   0.234   1.954   1.292 -1.5370 -1.1311 -0.1103
  841SOL    HW2 2657   0.342   1.858   1.338 -1.9472 -3.2966 -3.3576
  842SOL     OW 2658   1.606   0.087   0.719  0.4298 -0.2617  0.8374
  842SOL    HW1 2659   1.528   0.131   0.684  1.2801  0.9545  0.3747
  842SOL    HW2 2660   1.584   0.066   0.810 -0.5905 -0.3377  0.5760
  843SOL     OW 2661   0.278   1.444   2.171  0.2069 -0.3731  0.3295
  843SOL    HW1 2662   0.197   1.403   2.139  0.4351 -0.8727  0.3842
  843SOL    HW2 2663   0.266   1.537   2.152 -0.1487 -0.5144 -0.1701
  844SOL     OW 2664   1.591   3.286   3.414  0.0609 -0.6809  0.3101
  844SOL    HW1 2665   1.541   3.275   3.494  1.5247 -3.1737  0.9645
  844SOL    HW2 2666   1.632   3.372   3.423 -0.1503 -0.7284  2.0236
  845SOL     OW 2667   1.848   3.287   1.822  0.1688  0.1235  0.5001
  845SOL    HW1 2668   1.839   3.263   1.914 -0.0203 -0.3867  0.3551
  845SOL    HW2 2669   1.942   3.299   1.809  0.0310  2.9724  1.4149
  846SOL     OW 2670   2.612   1.096   2.623  0.0801 -0.1710  0.2562
  846SOL    HW1 2671   2.524   1.070   2.595  0.2229 -1.1033  0.6267
  846SOL    HW2 2672   2.596   1.162   2.691 -0.2742  1.5094 -1.3678
  847SOL     OW 2673   2.981   0.488   3.205  0.4853  0.1731  0.1851
  847SOL    HW1 2674   2.987   0.556   3.272 -4.3103  0.9343  0.1383
  847SOL    HW2 2675   2.990   0.536   3.122 -0.0682  0.3019  0.1977
  848SOL     OW 2676   0.241   2.550   0.176  0.5990  0.3932 -0.3080
  848SOL    HW1 2677   0.163   2.606   0.185 -0.2713 -0.2551 -3.0164
  848SOL    HW2 2678   0.278   2.574   0.091  3.2659  0.4702  0.7831
  849SOL     OW 2679   0.428   3.732   2.410  0.2890 -0.1385  0.5781
  849SOL    HW1 2680   0.464   3.782   2.483  2.3849 -0.9040  0.1389
  849SOL    HW2 2681   0.387   3.656   2.450 -2.1592  1.3921  1.1893
  850SOL     OW 2682   3.226   1.501   2.048  0.3647  0.4737 -0.5172
  850SOL    HW1 2683   3.187   1.459   1.972  0.6585 -1.1991  0.2031
  850SOL    HW2 2684   3.171   1.577   2.065 -0.8970 -0.2594 -1.2067
  851SOL     OW 2685   3.346   3.679   1.857 -0.7483 -0.0942  0.1416
  851SOL    HW1 2686   3.392   3.682   1.941 -1.1278 -0.2732  0.3534
  851SOL    HW2 2687   3.406   3.723   1.796 -0.2172 -0.4884  0.3783
  852SOL     OW 2688   2.014   3.340   0.552  0.4002 -0.7091 -1.5018
  852SOL    HW1 2689   1.949   3.362   0.618  2.3000  1.4273 -0.1896
  852SOL    HW2 2690   2.072   3.277   0.596  2.4740  1.7541 -0.4776
  853SOL     OW 2691   0.211   0.271   1.351 -0.1555 -0.2173  0.2228
  853SOL    HW1 2692   0.231   0.346   1.406 -1.0231  0.4010 -0.2712
  853SOL    HW2 2693   0.163   0.307   1.277 -0.4576 -1.2364 -0.1064
  854SOL     OW 2694   1.155   1.315   1.020 -0.1077  0.7948 -0.3412
  854SOL    HW1 2695   1.242   1.284   0.996 -0.3958 -0.2419 -0.0841
  854SOL    HW2 2696   1.147   1.400   0.976  0.4275  0.1978 -1.6393
  855SOL     OW 2697   1.075   2.658   1.793 -0.1483 -0.2870 -0.3266
  855SOL    HW1 2698   1.120   2.575   1.806  1.1993  0.4672  0.0258
  855SOL    HW2 2699   0.990   2.647   1.834  0.8894 -0.7262  1.8328
  856SOL     OW 2700   2.385   3.700   3.340  0.3044  0.1741 -0.1126
  856SOL    HW1 2701   2.316   3.723   3.402  0.9476 -1.2787  1.2096
  856SOL    HW2 2702   2.348   3.721   3.254 -1.8666 -0.7162  0.5323
  857SOL     OW 2703   3.606   2.727   0.499 -0.1670  0.4057 -0.0847
  857SOL    HW1 2704   3.588   2.769   0.583 -0.8862  0.7523 -0.3983
  857SOL    HW2 2705   3.560   2.643   0.504 -0.3849  0.5150 -0.2003
  858SOL     OW 2706   2.626   2.921   2.031 -0.2336 -0.0441  0.5406
  858SOL    HW1 2707   2.682   2.987   2.071 -2.2811  1.7162  0.6949
  858SOL    HW2 2708   2.685   2.870   1.976  1.0957  3.7422 -1.9599
  859SOL     OW 2709   1.057   1.601   0.847  0.1421  0.7280  0.6309
  859SOL    HW1 2710   0.981   1.655   0.868 -0.0009 -0.0359  2.2005
  859SOL    HW2 2711   1.121   1.621   0.915  1.3896  1.3538 -0.6617
  860SOL     OW 2712   2.244   3.023   0.108 -0.4846  0.6521  0.0965
  860SOL    HW1 2713   2.319   2.969   0.134 -1.0945  0.3223  1.2082
  860SOL    HW2 2714   2.206   2.976   0.034  1.4380  1.7561 -1.7308
  861SOL     OW 2715   2.755   2.846   0.670 -0.1312 -0.1162  0.2298
  861SOL    HW1 2716   2.788   2.854   0.760  1.7323 -0.6737 -0.3599
  861SOL    HW2 2717   2.707   2.763   0.670 -0.7506  0.2272  0.8645
  862SOL     OW 2718   1.504   2.898   0.051 -0.5897  0.0394 -0.4581
  862SOL    HW1 2719   1.510   2.985   0.012 -0.5998  0.5484  0.6555
  862SOL    HW2 2720   1.585   2.889   0.101 -0.3718 -0.7902 -0.9319
  863SOL     OW 2721   3.597   2.635   1.467 -0.2058  0.0435  0.5475
  863SOL    HW1 2722   3.502   2.637   1.479 -0.4881  1.1710 -1.4091
  863SOL    HW2 2723   3.629   2.712   1.514 -0.2099 -0.4800  1.4252
  864SOL     OW 2724   1.365   1.648   2.679  0.5343 -0.0903 -0.1371
  864SOL    HW1 2725   1.385   1.687   2.594  1.5456 -1.0079 -0.3331
  864SOL    HW2 2726   1.342   1.558   2.660  0.3732 -0.1968  0.5299
  865SOL     OW 2727   0.117   1.857   2.985  1.2608  0.3554  0.4918
  865SOL    HW1 2728   0.106   1.887   2.895 -2.0385 -0.0633  0.6377
  865SOL    HW2 2729   0.053   1.907   3.036  0.9200 -1.5260  2.0425
  866SOL     OW 2730   1.119   2.829   2.337  0.0642 -0.1641 -0.8725
  866SOL    HW1 2731   1.093   2.818   2.429  1.7778 -0.2694 -0.3635
  866SOL    HW2 2732   1.059   2.772   2.288 -1.2360  0.3085  0.0923
  867SOL     OW 2733   0.173   0.036   3.621 -0.6607 -0.5257  0.5437
  867SOL    HW1 2734   0.111   0.066   3.555  1.8240 -0.5814 -2.0105
  867SOL    HW2 2735   0.160   0.094   3.696 -1.8026  1.2939 -0.9999
  868SOL     OW 2736   2.645   1.946   1.691  0.1911 -0.2298 -0.1044
  868SOL    HW1 2737   2.602   1.965   1.607  2.6588 -0.9383 -1.6338
  868SOL    HW2 2738   2.653   2.032   1.733 -0.0002  0.3266 -1.1541
  869SOL     OW 2739   2.175   0.240   1.230 -0.1213 -0.5028  0.4348
  869SOL    HW1 2740   2.136   0.308   1.174  0.4303 -2.1781 -2.1271
  869SOL    HW2 2741   2.102   0.211   1.285 -1.0707  0.2446 -0.3794
  870SOL     OW 2742   0.879   0.427   0.909  0.1061 -0.3111  0.2165
  870SOL    HW1 2743   0.918   0.491   0.969 -2.2379 -0.0888  1.6441
  870SOL    HW2 2744   0.785   0.436   0.924 -0.3601 -4.3886  0.8161
  871SOL     OW 2745   2.630   0.266   1.303  0.5593 -0.3406  0.0899
  871SOL    HW1 2746   2.626   0.218   1.220  2.6507 -0.2457 -0.1191
  871SOL    HW2 2747   2.683   0.210   1.360  0.4151  0.2969  0.8524
  872SOL     OW 2748   3.422   1.220   0.599  0.0949 -0.0438 -0.4661
  872SOL    HW1 2749   3.328   1.210   0.613  0.1547 -0.5960 -0.4091
  872SOL    HW2 2750   3.447   1.140   0.552  0.6396 -0.1962  0.0725
  873SOL     OW 2751   1.432   3.592   3.569 -0.3927 -0.0012  0.2476
  873SOL    HW1 2752   1.479   3.675   3.573  0.8052 -0.4935 -1.8231
  873SOL    HW2 2753   1.485   3.532   3.622 -0.4454  0.2058  0.5354
  874SOL     OW 2754   1.736   2.827   1.451  0.3223 -0.1376 -0.8570
  874SOL    HW1 2755   1.791   2.884   1.505  0.5920  0.1397 -1.4240
  874SOL    HW2 2756   1.691   2.772   1.515  0.5953  0.2228 -0.3388
  875SOL     OW 2757   2.101   2.868   1.982  0.2401 -0.6569 -0.1058
  875SOL    HW1 2758   2.051   2.917   2.047 -0.9658  1.3792 -2.3645
  875SOL    HW2 2759   2.045   2.794   1.959  0.0748 -0.6362  0.2273
  876SOL     OW 2760   2.993   3.711   1.997  0.6407  0.2350 -0.1257
  876SOL    HW1 2761   2.904   3.680   2.012  0.4953 -0.0273 -1.4323
  876SOL    HW2 2762   3.046   3.666   2.063 -0.3235  1.1929  1.3473
  877SOL     OW 2763   0.096   2.984   2.279 -0.3225  0.0595  0.2123
  877SOL    HW1 2764   0.050   3.067   2.294  1.7020  1.1967  0.6031
  877SOL    HW2 2765   0.185   3.010   2.255 -0.0922 -2.0057 -1.4563
  878SOL     OW 2766   1.295   1.716   0.498  0.2038 -0.3811  0.2694
  878SOL    HW1 2767   1.296   1.810   0.518 -0.4199 -0.4089  0.4584
  878SOL    HW2 2768   1.386   1.694   0.483  0.3097  0.3599 -0.2515
  879SOL     OW 2769   2.249   3.274   3.027  0.0391 -0.0038 -0.2381
  879SOL    HW1 2770   2.219   3.221   2.953  0.6741  1.4777 -1.5963
  879SOL    HW2 2771   2.324   3.323   2.994 -0.2050  1.3656  1.1187
  880SOL     OW 2772   0.913   3.428   0.190  0.1415 -0.3486 -0.2479
  880SOL    HW1 2773   0.827   3.470   0.200  1.1734  2.1978 -1.1783
  880SOL    HW2 2774   0.913   3.396   0.100  0.6004  0.8667 -0.7064
  881SOL     OW 2775   1.055   0.673   1.993  0.2348  0.0670  0.1640
  881SOL    HW1 2776   1.027   0.727   2.067 -0.6427 -1.1300  0.7284
  881SOL    HW2 2777   1.021   0.718   1.916 -0.4309  0.3635  0.6245
  882SOL     OW 2778   3.542   0.726   2.871  0.1013 -0.1945  0.0043
  882SOL    HW1 2779   3.622   0.699   2.916 -0.9766 -0.0963  2.0993
  882SOL    HW2 2780   3.523   0.655   2.810  1.2301 -0.6835  0.2072
  883SOL     OW 2781   2.946   3.470   3.397  0.1859 -0.2031 -0.0491
  883SOL    HW1 2782   2.872   3.417   3.366 -0.0105 -0.7998  1.3636
  883SOL    HW2 2783   2.909   3.558   3.407  0.1666 -0.0690 -1.0982
  884SOL     OW 2784   0.613   3.034   1.440  0.1936 -0.2047 -0.3535
  884SOL    HW1 2785   0.604   3.123   1.405 -0.3032 -0.5044 -1.0218
  884SOL    HW2 2786   0.624   3.047   1.534  1.4739  0.6192 -0.5871
  885SOL     OW 2787   2.255   1.610   1.933  0.2302  0.1452  0.0593
  885SOL    HW1 2788   2.213   1.538   1.884 -0.3410  1.0723 -0.8467
  885SOL    HW2 2789   2.235   1.591   2.025  0.5767 -1.1598 -0.1080
  886SOL     OW 2790   1.114   2.278   1.342 -0.3781 -0.8311  0.0741
  886SOL    HW1 2791   1.048   2.300   1.277 -1.4115 -2.0093  0.6856
  886SOL    HW2 2792   1.066   2.268   1.424  0.2022 -3.5108  0.2058
  887SOL     OW 2793   2.565   1.409   2.678 -0.2319 -0.2299 -0.3162
  887SOL    HW1 2794   2.659   1.393   2.685 -0.2200 -0.5551 -1.1183
  887SOL    HW2 2795   2.536   1.421   2.769  0.0878 -3.0504  0.2591
  888SOL     OW 2796   0.997   3.463   2.145 -0.3540 -0.2918 -0.3691
  888SOL    HW1 2797   0.997   3.528   2.215 -0.4522 -0.8050  0.1132
  888SOL    HW2 2798   0.947   3.390   2.180  0.8114 -1.1475 -0.4115
  889SOL     OW 2799   1.993   3.648   0.952  0.5077 -0.2123 -0.6522
  889SOL    HW1 2800   2.022   3.654   1.043 -1.1940  2.4475 -0.1974
  889SOL    HW2 2801   2.075   3.637   0.902  1.5718 -0.6009  1.1012
  890SOL     OW 2802   3.233   2.289   3.403  0.2938 -0.6095 -0.0637
  890SOL    HW1 2803   3.259   2.373   3.367 -0.3243 -1.5560 -2.9951
  890SOL    HW2 2804   3.143   2.276   3.372  0.9672 -3.0594 -1.2427
  891SOL     OW 2805   2.858   2.111   2.832 -0.5733 -0.2737 -0.4125
  891SOL    HW1 2806   2.769   2.078   2.821 -0.1349 -1.0785 -1.7439
  891SOL    HW2 2807   2.902   2.046   2.887 -0.3606 -0.7562 -1.1324
  892SOL     OW 2808   0.689   3.423   2.471 -0.4460  0.0623 -0.2642
  892SOL    HW1 2809   0.629   3.473   2.416 -0.3748 -0.7143 -1.0570
  892SOL    HW2 2810   0.767   3.478   2.478 -1.1753  1.0312  0.6901
  893SOL     OW 2811   0.874   2.517   0.676 -0.2229  0.3051  0.6913
  893SOL    HW1 2812   0.946   2.580   0.668 -0.8422  1.0195  0.6137
  893SOL    HW2 2813   0.914   2.433   0.653  0.4030  0.8032 -0.1467
  894SOL     OW 2814   2.635   2.858   1.667 -0.0634 -0.2478 -0.0791
  894SOL    HW1 2815   2.696   2.894   1.602 -1.5980 -0.2303 -1.5742
  894SOL    HW2 2816   2.682   2.864   1.750  1.1344  1.7511 -0.8470
  895SOL     OW 2817   2.038   3.484   3.569  0.1817  0.0115 -0.1233
  895SOL    HW1 2818   2.070   3.431   3.642  0.3129  1.8544  1.2092
  895SOL    HW2 2819   2.099   3.463   3.497  1.5662 -0.0301  1.0096
  896SOL     OW 2820   1.776   3.612   3.556  0.1668 -0.4211 -0.6025
  896SOL    HW1 2821   1.782   3.707   3.565 -2.5761 -0.2837  0.9199
  896SOL    HW2 2822   1.867   3.582   3.554  1.0985  2.1282 -0.0196
  897SOL     OW 2823   2.394   2.026   1.572  0.7816  0.2585  0.8899
  897SOL    HW1 2824   2.386   1.962   1.501  0.0765  2.0771 -0.7498
  897SOL    HW2 2825   2.344   1.988   1.644 -2.3878  0.3281 -1.1003
  898SOL     OW 2826   0.176   1.206   0.797 -0.1217 -0.1898  0.3578
  898SOL    HW1 2827   0.203   1.115   0.793  1.5767  0.3225 -2.2609
  898SOL    HW2 2828   0.128   1.221   0.716 -0.3386  1.2485  0.7219
  899SOL     OW 2829   0.872   2.579   0.014 -0.2608  0.5564  0.2247
  899SOL    HW1 2830   0.951   2.619  -0.021  0.8015  0.8953  2.7567
  899SOL    HW2 2831   0.900   2.492   0.043 -1.1534  0.1707 -0.0260
  900SOL     OW 2832   1.094   1.047   3.703 -0.4195 -0.2184  0.2603
  900SOL    HW1 2833   1.187   1.036   3.686  0.1357  1.6708  1.7288
  900SOL    HW2 2834   1.075   0.986   3.774 -0.7783 -1.9189 -1.2268
  901SOL     OW 2835   3.059   0.176   3.666 -0.0746  0.3332 -0.4586
  901SOL    HW1 2836   3.094   0.258   3.701 -0.1445  0.2480 -0.1896
  901SOL    HW2 2837   2.967   0.176   3.692  0.3934 -0.7946  1.3382
  902SOL     OW 2838   0.584   0.998   1.748  0.0533  0.2137  0.6930
  902SOL    HW1 2839   0.593   1.050   1.827 -0.5729  3.1553 -1.0000
  902SOL    HW2 2840   0.493   1.012   1.721  0.5288  0.1496 -1.0615
  903SOL     OW 2841   2.327   1.206   0.327 -0.5721 -0.2774  0.1542
  903SOL    HW1 2842   2.269   1.230   0.399  0.1082 -1.3647  1.1148
  903SOL    HW2 2843   2.335   1.110   0.334 -0.3903 -0.3832 -1.2911
  904SOL     OW 2844   0.577   2.478   1.125  0.6110 -0.1696  0.2198
  904SOL    HW1 2845   0.601   2.417   1.056  0.5413  0.6228 -0.5196
  904SOL    HW2 2846   0.635   2.456   1.198  0.3337 -1.3513  0.1098
  905SOL     OW 2847   1.065   2.892   2.601  0.1074  0.5867 -0.3548
  905SOL    HW1 2848   1.001   2.946   2.649 -2.7243 -2.4114 -0.4115
  905SOL    HW2 2849   1.061   2.807   2.643  1.5883 -0.6616 -2.5354
  906SOL     OW 2850   3.273   3.623   1.553 -0.3319 -0.3278  0.0753
  906SOL    HW1 2851   3.207   3.655   1.615  0.2293  0.2712  0.3718
  906SOL    HW2 2852   3.294   3.536   1.585 -0.9631 -0.5208 -0.0105
  907SOL     OW 2853   2.903   2.453   3.582  0.3915 -0.4000  0.1783
  907SOL    HW1 2854   2.980   2.455   3.525 -1.1653 -1.5810 -2.1574
  907SOL    HW2 2855   2.846   2.386   3.543 -2.4305  1.3499  0.9455
  908SOL     OW 2856   0.485   1.191   3.444 -0.0220  0.3342 -0.1023
  908SOL    HW1 2857   0.545   1.154   3.509  0.6277 -1.0916 -1.4673
  908SOL    HW2 2858   0.505   1.285   3.444 -1.3313  0.7612  3.0564
  909SOL     OW 2859   2.540   0.764   3.588  0.3045  0.1232  0.1598
  909SOL    HW1 2860   2.493   0.844   3.611 -0.1968 -0.5687  1.6479
  909SOL    HW2 2861   2.632   0.789   3.589  0.1515  0.6740  0.6310
  910SOL     OW 2862   0.726   1.975   2.725  0.1798 -0.0092  0.2287
  910SOL    HW1 2863   0.654   1.913   2.711 -0.8458  0.9881  0.8692
  910SOL    HW2 2864   0.707   2.015   2.810  0.4065  1.6720 -0.4661
  911SOL     OW 2865   0.282   1.527   3.510 -0.1468 -0.7206  0.2619
  911SOL    HW1 2866   0.323   1.533   3.423 -0.8310  0.4408 -0.0142
  911SOL    HW2 2867   0.355   1.538   3.571  0.2822 -1.0872 -0.1699
  912SOL     OW 2868   3.558   2.754   2.771  0.2105 -0.0165  0.2577
  912SOL    HW1 2869   3.581   2.777   2.861 -2.6599  0.5296  0.9656
  912SOL    HW2 2870   3.516   2.668   2.779 -1.1426  0.5618 -0.3464
  913SOL     OW 2871   0.071   2.588   3.486  0.0565 -0.4005 -0.7210
  913SOL    HW1 2872   0.005   2.651   3.457 -0.4591 -0.1791  0.8498
  913SOL    HW2 2873   0.024   2.504   3.487 -0.7412 -0.0042  1.9218
  914SOL     OW 2874   2.152   0.996   3.020 -0.4094  0.5796 -0.5081
  914SOL    HW1 2875   2.204   1.008   2.940  1.3707 -2.7258  0.0111
  914SOL    HW2 2876   2.083   0.935   2.994  0.6119 -1.0997  0.5384
  915SOL     OW 2877   1.854   0.707   1.444  0.1460 -0.1543  0.6917
  915SOL    HW1 2878   1.848   0.612   1.453 -0.5376 -0.2057 -0.1941
  915SOL    HW2 2879   1.765   0.739   1.456 -0.1735  0.0877 -1.7997
  916SOL     OW 2880   0.622   3.521   0.652  0.0665 -0.1577 -0.7158
  916SOL    HW1 2881   0.579   3.549   0.571 -1.1851 -2.2259 -0.8502
  916SOL    HW2 2882   0.647   3.430   0.636  1.1679 -0.1439  0.7034
  917SOL     OW 2883   0.680   3.568   0.156  0.3451  0.6467 -0.5126
  917SOL    HW1 2884   0.640   3.654   0.160 -2.8684 -0.5842 -2.0683
  917SOL    HW2 2885   0.663   3.539   0.066  1.2778 -1.6024 -0.0233
  918SOL     OW 2886   2.263   1.270   0.072  0.3840  0.0798 -0.1710
  918SOL    HW1 2887   2.288   1.251   0.163 -3.8628 -1.2501  1.0006
  918SOL    HW2 2888   2.344   1.262   0.022  2.8954  0.6129  3.4074
  919SOL     OW 2889   0.110   2.514   2.475 -0.0243 -0.4967 -0.4735
  919SOL    HW1 2890   0.124   2.606   2.451  1.9537 -0.0665  1.9201
  919SOL    HW2 2891   0.021   2.512   2.510 -0.0580  0.5545 -0.4490
  920SOL     OW 2892   2.987   3.530   1.667 -0.1438 -0.1628 -0.4631
  920SOL    HW1 2893   2.993   3.475   1.590 -1.8239  1.3478 -1.7639
  920SOL    HW2 2894   2.951   3.473   1.735  1.3124 -1.4961 -0.7777
  921SOL     OW 2895   2.790   3.199   3.195  0.2044  0.4799  0.1824
  921SOL    HW1 2896   2.884   3.191   3.205  0.4291  1.6641 -0.7248
  921SOL    HW2 2897   2.753   3.149   3.268  1.4711 -1.6607 -0.5490
  922SOL     OW 2898   3.712   2.849   2.069  0.2979 -0.3650  0.4791
  922SOL    HW1 2899   3.747   2.870   2.156  0.2260  0.7047  0.2620
  922SOL    HW2 2900   3.636   2.906   2.059 -0.1670 -1.0536  0.0266
  923SOL     OW 2901   3.678   2.035   3.071 -0.1494 -0.4740  0.0682
  923SOL    HW1 2902   3.655   2.061   3.160 -0.4194  0.5678 -0.2931
  923SOL    HW2 2903   3.681   2.117   3.022 -0.8598 -1.1104 -1.0890
  924SOL     OW 2904   2.829   0.753   3.606 -0.2145  0.3018  0.4281
  924SOL    HW1 2905   2.803   0.773   3.696 -3.1849 -0.9486 -0.0223
  924SOL    HW2 2906   2.832   0.657   3.603  2.2673  0.3321 -0.2723
  925SOL     OW 2907   1.554   2.037   0.126  0.3003 -0.6515 -0.3647
  925SOL    HW1 2908   1.500   2.077   0.057 -0.4885  0.8703  1.0702
  925SOL    HW2 2909   1.619   1.985   0.078  0.7480  1.5514 -2.3648
  926SOL     OW 2910   1.888   0.993   2.045  0.0043 -0.6329  0.3094
  926SOL    HW1 2911   1.955   0.979   1.979 -0.9726 -0.2494 -0.8000
  926SOL    HW2 2912   1.833   0.915   2.041 -0.5022 -0.2764  0.1128
  927SOL     OW 2913   3.530   2.603   0.206 -0.8081  0.1142 -0.0370
  927SOL    HW1 2914   3.592   2.534   0.227  0.5323  1.1911 -0.3514
  927SOL    HW2 2915   3.501   2.637   0.290  1.6102  1.8231  0.2190
  928SOL     OW 2916   3.070   0.481   0.790  0.1313  0.6238 -0.4413
  928SOL    HW1 2917   3.121   0.415   0.836  0.8721  0.5652 -1.3158
  928SOL    HW2 2918   2.979   0.458   0.809  0.4073  0.8326  1.2824
  929SOL     OW 2919   0.395   2.569   3.065 -0.3394  0.4873 -0.2730
  929SOL    HW1 2920   0.486   2.559   3.095 -0.9341 -0.8366  1.2457
  929SOL    HW2 2921   0.380   2.494   3.008 -0.6803  0.3017  0.0552
  930SOL     OW 2922   1.632   3.608   0.310  0.0051 -0.2104 -0.1056
  930SOL    HW1 2923   1.556   3.587   0.257 -0.3569  1.0623 -0.1260
  930SOL    HW2 2924   1.606   3.584   0.399  0.3756 -1.7391 -0.3859
  931SOL     OW 2925   2.714   3.041   1.027 -0.6233 -0.2896  0.0857
  931SOL    HW1 2926   2.630   3.000   1.048 -0.1070 -1.6760 -0.4799
  931SOL    HW2 2927   2.775   2.969   1.019  1.0775  0.7768  2.2934
  932SOL     OW 2928   2.561   2.471   0.307  0.2652  0.5195  0.7421
  932SOL    HW1 2929   2.508   2.514   0.375  1.5693  1.6265  1.0969
  932SOL    HW2 2930   2.604   2.398   0.353 -2.4128 -1.7125  0.0099
  933SOL     OW 2931   1.471   1.328   2.936 -0.3340 -0.0767  0.1236
  933SOL    HW1 2932   1.389   1.314   2.982  0.0217  0.2532  0.8671
  933SOL    HW2 2933   1.516   1.244   2.939 -0.1560  0.0337  0.7029
  934SOL     OW 2934   1.348   2.003   0.585  0.1455  0.1600 -0.7418
  934SOL    HW1 2935   1.365   2.097   0.586 -2.3398  0.6864  1.1014
  934SOL    HW2 2936   1.404   1.968   0.654 -0.8741  0.7374  0.4005
  935SOL     OW 2937   0.751   1.341   3.110 -0.1881 -0.0621 -0.4187
  935SOL    HW1 2938   0.708   1.256   3.116  0.6182 -0.4119  0.6855
  935SOL    HW2 2939   0.684   1.405   3.134 -1.6717 -0.0407 -3.9384
  936SOL     OW 2940   3.775   3.518   1.268 -0.6191 -0.1353  0.4286
  936SOL    HW1 2941   3.733   3.604   1.275 -0.3582 -0.1098  2.2547
  936SOL    HW2 2942   3.703   3.457   1.250 -0.8125  0.4278 -0.8223
  937SOL     OW 2943   1.200   0.750   1.170 -0.2275  0.8825  0.2115
  937SOL    HW1 2944   1.107   0.750   1.148 -1.2056  0.0109  3.6514
  937SOL    HW2 2945   1.214   0.835   1.213 -0.0943  0.1127  1.7669
  938SOL     OW 2946   3.027   1.577   2.295  0.0838  0.1328  0.3583
  938SOL    HW1 2947   2.960   1.640   2.322 -1.3287 -1.5498  0.9673
  938SOL    HW2 2948   2.994   1.539   2.214  0.0341 -1.0744  0.9227
  939SOL     OW 2949   0.885   0.998   3.519  0.4574  0.2857 -0.3958
  939SOL    HW1 2950   0.916   1.015   3.430 -0.3685  2.6179 -0.3128
  939SOL    HW2 2951   0.964   1.003   3.573  0.5593  2.2528 -0.6493
  940SOL     OW 2952   3.654   3.494   0.980 -0.5160  0.8495 -0.0206
  940SOL    HW1 2953   3.638   3.438   1.056  2.2842  1.1336  0.8875
  940SOL    HW2 2954   3.681   3.433   0.911 -2.6242  0.6373 -0.7199
  941SOL     OW 2955   1.487   3.201   0.638 -0.5884  0.5202 -0.2631
  941SOL    HW1 2956   1.467   3.108   0.640 -0.3991  0.4748 -0.4022
  941SOL    HW2 2957   1.405   3.244   0.661 -0.4042  0.2877  0.8438
  942SOL     OW 2958   0.924   0.198   2.725  0.4633 -0.3271  0.0452
  942SOL    HW1 2959   0.853   0.262   2.732 -0.4142 -1.3508  0.5801
  942SOL    HW2 2960   0.955   0.186   2.815  0.4219 -0.8879 -0.0142
  943SOL     OW 2961   1.910   0.430   1.928  0.4294  0.5169 -0.2411
  943SOL    HW1 2962   1.906   0.488   2.004 -0.5762  1.0675 -0.6967
  943SOL    HW2 2963   1.905   0.488   1.853  0.0841 -0.1068 -0.7110
  944SOL     OW 2964   1.055   2.027   3.380  0.0637 -0.5405 -0.0404
  944SOL    HW1 2965   0.971   2.054   3.419 -0.4680 -0.6951 -1.0571
  944SOL    HW2 2966   1.035   2.009   3.289  0.9662 -1.7225 -0.0382
  945SOL     OW 2967   2.197   2.072   3.607 -0.5339  0.2633 -0.4075
  945SOL    HW1 2968   2.193   1.978   3.590 -0.1910 -0.0462  1.0648
  945SOL    HW2 2969   2.178   2.080   3.701 -1.3222  1.7324 -0.6724
  946SOL     OW 2970   0.929   0.720   1.051 -0.2273  0.0184 -0.2360
  946SOL    HW1 2971   0.899   0.759   0.969 -0.1674 -0.5210 -0.5227
  946SOL    HW2 2972   0.855   0.731   1.111 -0.7336 -0.6484 -0.7206
  947SOL     OW 2973   3.075   0.863   1.569  0.1275  0.1447 -0.3529
  947SOL    HW1 2974   3.073   0.956   1.591 -0.0854 -0.1763  1.0955
  947SOL    HW2 2975   2.984   0.835   1.574  0.0532  0.0842 -1.8608
  948SOL     OW 2976   2.979   1.983   2.236 -0.3989  0.1791  0.1309
  948SOL    HW1 2977   3.062   2.020   2.265 -0.3935 -0.9511  1.7398
  948SOL    HW2 2978   2.999   1.942   2.152  1.1530 -1.5176  1.2300
  949SOL     OW 2979   1.475   1.007   3.178 -0.0790  0.3162 -0.1565
  949SOL    HW1 2980   1.382   1.019   3.194 -0.2785  0.3722 -1.3003
  949SOL    HW2 2981   1.514   1.004   3.265 -1.4594 -2.2546  0.4610
  950SOL     OW 2982   2.748   1.589   3.632 -0.4374 -0.3321  0.2679
  950SOL    HW1 2983   2.719   1.598   3.541  1.3437  0.6985 -0.2435
  950SOL    HW2 2984   2.669   1.602   3.684 -1.4350 -0.6523 -1.1099
  951SOL     OW 2985   0.130   2.221   2.451 -0.2628 -0.5447 -0.2900
  951SOL    HW1 2986   0.094   2.306   2.474  0.3763 -0.0888 -0.9218
  951SOL    HW2 2987   0.207   2.241   2.397 -1.5994 -1.5115 -2.7199
  952SOL     OW 2988   1.476   1.805   3.278 -0.0343  0.2203 -0.0668
  952SOL    HW1 2989   1.408   1.738   3.279  1.3807 -1.2596  0.9584
  952SOL    HW2 2990   1.433   1.883   3.313 -1.4745 -0.3822 -0.4265
  953SOL     OW 2991   1.360   0.519   1.729 -0.3736  0.9245 -0.2695
  953SOL    HW1 2992   1.417   0.566   1.789 -0.8185  0.3519  0.6190
  953SOL    HW2 2993   1.282   0.574   1.721 -0.5642  0.7168  0.1501
  954SOL     OW 2994   2.924   2.902   0.281  0.5614 -0.1920  0.4120
  954SOL    HW1 2995   2.902   2.812   0.259 -0.1872  0.5036 -2.0306
  954SOL    HW2 2996   2.840   2.944   0.301  0.5229  0.5816 -1.1986
  955SOL     OW 2997   0.360   1.839   2.247  0.0575 -0.1647 -0.3866
  955SOL    HW1 2998   0.296   1.908   2.228  0.7926  0.4592 -0.6651
  955SOL    HW2 2999   0.334   1.805   2.333  0.5868  1.5432  0.5000
  956SOL     OW 3000   1.812   0.964   3.563  0.2924 -0.0221  0.6572
  956SOL    HW1 3001   1.902   0.954   3.532  0.3163 -1.8333  1.2235
  956SOL    HW2 3002   1.817   1.035   3.627  0.3292  3.5085 -2.8616
  957SOL     OW 3003   0.147   0.142   2.468 -0.1461  0.6601 -0.0731
  957SOL    HW1 3004   0.116   0.105   2.551  3.1167  1.7707  1.8795
  957SOL    HW2 3005   0.226   0.093   2.448  1.4821  3.0923 -0.1107
  958SOL     OW 3006   2.086   1.903   1.471  0.5359  0.3938  0.2604
  958SOL    HW1 3007   2.052   1.867   1.389  1.5585  1.3459 -0.6211
  958SOL    HW2 3008   2.049   1.848   1.539  1.1570 -1.6283 -0.9470
  959SOL     OW 3009   1.091   1.516   2.026  0.2385 -0.1845  0.1716
  959SOL    HW1 3010   1.172   1.480   2.062 -0.6770 -0.2194  2.4047
  959SOL    HW2 3011   1.033   1.523   2.102 -0.7325  3.0294 -0.6971
  960SOL     OW 3012   2.442   1.987   3.296  0.0547 -0.9859 -0.6272
  960SOL    HW1 3013   2.469   1.985   3.388 -0.3241  1.1086 -0.4100
  960SOL    HW2 3014   2.347   1.993   3.298  0.0577 -0.6416 -1.1187
  961SOL     OW 3015   3.041   2.624   0.896  0.3787  0.0830 -0.1666
  961SOL    HW1 3016   2.983   2.601   0.823  0.5389 -0.5790 -0.0987
  961SOL    HW2 3017   3.113   2.562   0.889  0.6665  0.3660  0.2382
  962SOL     OW 3018   1.621   2.692   3.038 -0.3734 -0.0964  0.0724
  962SOL    HW1 3019   1.533   2.721   3.063  0.3858  1.5586  0.9037
  962SOL    HW2 3020   1.671   2.694   3.119  0.7272  0.0629 -0.6027
  963SOL     OW 3021   1.033   3.095   1.638  0.0641 -0.3623 -0.5671
  963SOL    HW1 3022   1.065   3.185   1.647 -0.5311 -0.0873 -1.1463
  963SOL    HW2 3023   1.087   3.044   1.698  0.0557  0.4667  0.1490
  964SOL     OW 3024   3.238   1.902   3.704 -0.3335  0.4440 -0.3267
  964SOL    HW1 3025   3.161   1.846   3.695  0.1552 -0.3339  0.1818
  964SOL    HW2 3026   3.203   1.991   3.703 -1.1735  0.1231 -0.6825
  965SOL     OW 3027   2.503   1.589   0.290 -0.1250  0.4983  0.1021
  965SOL    HW1 3028   2.598   1.580   0.292  0.0165  1.8423  0.8518
  965SOL    HW2 3029   2.481   1.627   0.375 -1.1406  1.6552 -0.6371
  966SOL     OW 3030   2.715   0.564   1.979  0.0251 -0.3381 -0.2859
  966SOL    HW1 3031   2.679   0.596   1.896 -1.5968 -0.1547  0.4508
  966SOL    HW2 3032   2.640   0.527   2.025  1.2133 -2.0248  0.3907
  967SOL     OW 3033   0.482   1.902   2.021  0.2232 -0.2084  0.4500
  967SOL    HW1 3034   0.441   1.853   2.092  0.4130 -0.3187  0.4836
  967SOL    HW2 3035   0.552   1.845   1.990 -1.4077 -1.2811 -1.4792
  968SOL     OW 3036   0.425   3.182   3.497 -0.0108 -0.0545  0.6341
  968SOL    HW1 3037   0.457   3.173   3.587  2.4548  0.9212 -0.0852
  968SOL    HW2 3038   0.378   3.266   3.497 -0.9338 -0.5480  1.2168
  969SOL     OW 3039   3.360   3.094   0.318  0.2237  0.1223  0.3025
  969SOL    HW1 3040   3.432   3.073   0.378 -0.2624  0.6093  1.0734
  969SOL    HW2 3041   3.290   3.032   0.342 -0.0455  0.4529  0.3800
  970SOL     OW 3042   3.070   1.845   2.669 -0.0245 -0.3695 -0.4437
  970SOL    HW1 3043   3.020   1.907   2.616 -1.4022 -0.6881  0.4138
  970SOL    HW2 3044   3.151   1.831   2.620 -1.6724 -1.5153 -3.0656
  971SOL     OW 3045   2.502   1.912   2.560  0.3532  0.4760  0.6489
  971SOL    HW1 3046   2.430   1.947   2.508  0.0719 -1.2396 -0.1982
  971SOL    HW2 3047   2.483   1.938   2.650 -2.5712 -1.7387  0.8255
  972SOL     OW 3048   1.678   0.749   3.420  0.0641  0.2887  0.5700
  972SOL    HW1 3049   1.678   0.659   3.453 -3.2276 -0.1917 -0.3413
  972SOL    HW2 3050   1.676   0.804   3.498 -1.5021 -0.5983  1.1963
  973SOL     OW 3051   1.553   0.667   2.971 -0.0719 -0.5041  0.9878
  973SOL    HW1 3052   1.514   0.584   2.944 -1.5999  0.5553 -0.2487
  973SOL    HW2 3053   1.513   0.687   3.055 -1.3045 -0.0296  0.3071
  974SOL     OW 3054   3.408   3.618   2.129 -0.1474 -0.0555  0.2141
  974SOL    HW1 3055   3.460   3.546   2.095 -0.4720  0.7273 -2.0850
  974SOL    HW2 3056   3.470   3.671   2.179  1.2693  0.6907 -2.2141
  975SOL     OW 3057   0.366   0.294   0.447  0.0815 -0.3944 -0.3089
  975SOL    HW1 3058   0.272   0.280   0.452  0.1383 -0.3502  2.1451
  975SOL    HW2 3059   0.404   0.215   0.485  0.9984  0.0129 -0.3594
  976SOL     OW 3060   2.081   1.511   3.722 -0.0864 -0.0271  0.0929
  976SOL    HW1 3061   1.989   1.489   3.711 -0.2081  0.8150 -0.7308
  976SOL    HW2 3062   2.124   1.429   3.745 -0.9693 -0.5089  0.0305
  977SOL     OW 3063   2.069   1.148   1.654 -0.3190 -0.1557  0.4783
  977SOL    HW1 3064   2.024   1.108   1.579  0.0068  0.1794  0.1019
  977SOL    HW2 3065   2.162   1.148   1.629 -0.3653  1.3155  0.2498
  978SOL     OW 3066   0.534   3.313   2.653  0.4598 -0.1686  0.1149
  978SOL    HW1 3067   0.603   3.338   2.592 -0.6202  1.6426 -0.4305
  978SOL    HW2 3068   0.577   3.314   2.739  1.4973 -0.7425 -0.3796
  979SOL     OW 3069   0.954   3.214   2.526  0.2734 -0.1191 -0.0648
  979SOL    HW1 3070   0.902   3.163   2.588 -0.7800  0.6909 -0.2584
  979SOL    HW2 3071   0.976   3.294   2.574  0.6666 -0.1137 -0.2563
  980SOL     OW 3072   3.335   3.065   3.119 -0.3267  0.3273 -0.0816
  980SOL    HW1 3073   3.360   3.072   3.027 -0.1775 -3.6507 -0.5044
  980SOL    HW2 3074   3.240   3.058   3.118 -0.2249 -4.4155 -0.6729
  981SOL     OW 3075   1.522   1.130   0.608  0.3651  0.4385  0.6473
  981SOL    HW1 3076   1.614   1.109   0.624  0.3572 -0.2889 -0.1838
  981SOL    HW2 3077   1.479   1.045   0.599 -0.3419  0.7754  0.7667
  982SOL     OW 3078   1.071   0.511   2.918  0.1671 -0.6601 -0.0281
  982SOL    HW1 3079   1.086   0.599   2.884  0.5220 -0.4392  0.6711
  982SOL    HW2 3080   1.000   0.476   2.864  1.0792 -0.5446 -1.3497
  983SOL     OW 3081   3.725   0.925   2.535 -0.0347  0.3244  0.2732
  983SOL    HW1 3082   3.665   0.852   2.520 -0.0692  0.7036 -1.8063
  983SOL    HW2 3083   3.719   0.943   2.629 -1.2468 -1.2768  0.5408
  984SOL     OW 3084   3.690   1.703   1.268  0.2727  0.2016 -0.1014
  984SOL    HW1 3085   3.705   1.695   1.362 -1.0616 -1.2473  0.0359
  984SOL    HW2 3086   3.755   1.645   1.228 -1.6916 -2.3710  0.2160
  985SOL     OW 3087   2.200   0.326   2.179  0.4242  0.3459 -1.0368
  985SOL    HW1 3088   2.251   0.407   2.168  0.1029  0.5912 -0.7359
  985SOL    HW2 3089   2.263   0.256   2.162  1.0507  0.6224  0.0458
  986SOL     OW 3090   3.145   3.583   2.170 -0.0252  0.1895 -0.0947
  986SOL    HW1 3091   3.133   3.660   2.226  1.8185  0.9003 -0.6092
  986SOL    HW2 3092   3.240   3.577   2.158 -0.0194 -2.7953  0.7851
  987SOL     OW 3093   2.271   0.416   0.642  0.0792  0.4106 -0.1637
  987SOL    HW1 3094   2.285   0.489   0.581 -2.1278  1.3233  0.3443
  987SOL    HW2 3095   2.276   0.457   0.729 -1.6233  0.0933  0.1159
  988SOL     OW 3096   2.344   0.159   2.047 -0.7485  0.3420  0.0917
  988SOL    HW1 3097   2.345   0.205   1.963 -2.0071  3.5489  1.6297
  988SOL    HW2 3098   2.424   0.188   2.091 -1.7580  1.5409  1.2480
  989SOL     OW 3099   0.532   2.730   3.377  0.8330  0.2343 -0.5833
  989SOL    HW1 3100   0.621   2.752   3.350  1.1287 -1.9659 -1.5884
  989SOL    HW2 3101   0.524   2.636   3.358 -1.5700  0.3046 -0.1367
  990SOL     OW 3102   2.807   3.660   0.487  0.5968  0.1426  0.0945
  990SOL    HW1 3103   2.808   3.585   0.428 -1.8658 -1.0063  1.3522
  990SOL    HW2 3104   2.714   3.676   0.504  1.1369  1.0397  2.8410
  991SOL     OW 3105   2.497   1.626   1.857 -0.3022 -0.1047  0.2810
  991SOL    HW1 3106   2.483   1.562   1.788  0.4396  1.0888 -1.0299
  991SOL    HW2 3107   2.421   1.617   1.914 -1.1685 -0.7888 -0.9489
  992SOL     OW 3108   1.082   2.706   0.263  0.3903 -0.6363 -0.3564
  992SOL    HW1 3109   0.997   2.745   0.281  1.0756 -0.1289  2.0573
  992SOL    HW2 3110   1.104   2.737   0.175 -1.5033 -0.1002 -0.6887
  993SOL     OW 3111   2.098   2.274   3.257 -0.4215 -0.0288 -0.4012
  993SOL    HW1 3112   2.069   2.224   3.181 -0.0208 -1.9582  0.6485
  993SOL    HW2 3113   2.052   2.234   3.331  1.2664 -0.0256  0.6996
  994SOL     OW 3114   0.266   1.660   0.722 -0.0809 -0.4385 -0.1785
  994SOL    HW1 3115   0.301   1.743   0.691  0.5598 -0.7390 -0.2771
  994SOL    HW2 3116   0.296   1.653   0.813  0.6233 -0.9742 -0.4490
  995SOL     OW 3117   2.329   0.440   2.643  0.2567 -0.5161  0.2092
  995SOL    HW1 3118   2.261   0.393   2.596  0.2710 -1.6091  1.2331
  995SOL    HW2 3119   2.365   0.376   2.704  1.7157  0.2507  0.1965
  996SOL     OW 3120   0.345   1.659   0.996 -0.0396 -0.2391 -0.3250
  996SOL    HW1 3121   0.396   1.580   0.978 -0.1768 -0.6331  0.9535
  996SOL    HW2 3122   0.267   1.628   1.041  0.5540  0.7322  1.4491
  997SOL     OW 3123   1.298   0.086   1.587 -0.5374 -0.3308  0.1862
  997SOL    HW1 3124   1.367   0.026   1.559  0.3113  0.2122  1.0450
  997SOL    HW2 3125   1.251   0.038   1.655  0.1508 -0.0477  0.8835
  998SOL     OW 3126   2.049   0.085   2.043  0.3859  0.3430  0.2709
  998SOL    HW1 3127   1.966   0.100   1.997  0.3590 -1.3373 -0.2842
  998SOL    HW2 3128   2.087   0.173   2.054 -0.3156  0.9191 -1.5926
  999SOL     OW 3129   0.608   0.927   3.604  0.1723  0.0500  0.3383
  999SOL    HW1 3130   0.697   0.961   3.614  0.3938 -0.4868  0.2215
  999SOL    HW2 3131   0.602   0.902   3.511 -0.5399  1.2943  0.0299
 1000SOL     OW 3132   3.389   2.411   3.091 -0.2540  0.2368  0.2854
 1000SOL    HW1 3133   3.430   2.390   3.175 -0.4503 -1.6051 -0.0340
 1000SOL    HW2 3134   3.302   2.443   3.114  0.0848  0.7887  0.8198
 1001SOL     OW 3135   0.616   0.944   0.296 -0.0571  0.0519 -0.1651
 1001SOL    HW1 3136   0.583   0.952   0.385 -1.3197  0.2077 -0.6253
 1001SOL    HW2 3137   0.542   0.910   0.245  0.4646  0.4901 -1.2605
 1002SOL     OW 3138   2.560   0.602   2.259 -0.2831 -0.0335  1.1313
 1002SOL    HW1 3139   2.641   0.590   2.308  0.1576 -0.7059  0.2889
 1002SOL    HW2 3140   2.564   0.692   2.227  0.1597 -0.0763  1.0583
 1003SOL     OW 3141   2.153   1.946   3.282  0.4185  0.3160 -0.3949
 1003SOL    HW1 3142   2.073   1.918   3.236  0.1505  0.5374 -0.0618
 1003SOL    HW2 3143   2.132   1.939   3.375  0.6206  0.8608 -0.3058
 1004SOL     OW 3144   0.906   3.614   1.828 -0.5436  1.1864  0.0685
 1004SOL    HW1 3145   0.827   3.661   1.854 -1.3835 -0.7767  1.3474
 1004SOL    HW2 3146   0.877   3.557   1.756 -0.0394  1.2113 -0.1553
 1005SOL     OW 3147   1.524   1.911   2.800 -0.2922  0.0590 -0.0719
 1005SOL    HW1 3148   1.521   1.933   2.893  0.0801  1.9831 -0.4666
 1005SOL    HW2 3149   1.595   1.848   2.791  1.9402  2.3495  0.5328
 1006SOL     OW 3150   0.579   3.428   1.976  0.4671  0.2431 -0.0416
 1006SOL    HW1 3151   0.620   3.467   2.054 -0.1156 -2.4391  1.7399
 1006SOL    HW2 3152   0.652   3.392   1.926  0.6260 -2.3030  1.8439
 1007SOL     OW 3153   1.586   0.217   2.241  0.2846 -0.6199  0.4541
 1007SOL    HW1 3154   1.626   0.133   2.265  0.6130 -0.9127 -0.9958
 1007SOL    HW2 3155   1.617   0.233   2.152  0.0931  0.9767  0.6458
 1008SOL     OW 3156   1.122   1.260   3.398  0.7080 -0.1094  0.3019
 1008SOL    HW1 3157   1.096   1.345   3.361 -1.2084 -0.9681 -0.4148
 1008SOL    HW2 3158   1.179   1.283   3.471 -0.6225  1.8490  0.8096
 1009SOL     OW 3159   3.347   0.313   3.037 -0.0308  0.6156  0.1152
 1009SOL    HW1 3160   3.265   0.335   2.993 -0.5768  1.0702  1.3480
 1009SOL    HW2 3161   3.356   0.218   3.025  0.2454  0.8127 -1.6327
 1010SOL     OW 3162   2.472   3.116   3.614  0.2175  0.5213  0.3698
 1010SOL    HW1 3163   2.410   3.113   3.541  1.2450  1.1660 -0.5746
 1010SOL    HW2 3164   2.456   3.036   3.663 -2.2614  1.3068  0.9371
 1011SOL     OW 3165   3.710   3.253   3.581  0.2114 -0.3452 -0.2331
 1011SOL    HW1 3166   3.783   3.224   3.635  0.3479  1.2180  0.4732
 1011SOL    HW2 3167   3.632   3.239   3.636  0.2018 -0.1189 -0.1860
 1012SOL     OW 3168   3.545   0.222   0.582 -0.1827 -0.1053  0.0913
 1012SOL    HW1 3169   3.628   0.174   0.580 -0.6048 -0.8327 -0.5473
 1012SOL    HW2 3170   3.545   0.266   0.667  0.9105  0.0014  0.0524
 1013SOL     OW 3171   2.840   0.100   0.059 -0.8937  0.2760  0.3329
 1013SOL    HW1 3172   2.799   0.014   0.070 -2.5930  0.8572 -1.0957
 1013SOL    HW2 3173   2.785   0.160   0.110 -1.8886  1.0634 -1.5873
 1014SOL     OW 3174   0.060   2.896   3.501  0.5628 -0.6131  0.6162
 1014SOL    HW1 3175   0.034   2.946   3.578  0.6707  0.5342 -0.0590
 1014SOL    HW2 3176   0.155   2.887   3.509  0.3715 -2.1931  1.5680
 1015SOL     OW 3177   1.251   2.999   0.536  0.6646 -0.5674  0.7379
 1015SOL    HW1 3178   1.190   3.030   0.469 -0.0400  2.9637  2.7320
 1015SOL    HW2 3179   1.337   3.008   0.496  0.4064  3.2547  0.6774
 1016SOL     OW 3180   0.660   0.470   0.126  0.2365  0.0417 -0.1507
 1016SOL    HW1 3181   0.694   0.382   0.107 -0.8265 -0.4196  0.0027
 1016SOL    HW2 3182   0.651   0.471   0.221  0.4586  0.4015 -0.1343
 1017SOL     OW 3183   0.992   1.066   0.508  0.2102  0.2725  0.2232
 1017SOL    HW1 3184   1.049   1.082   0.583  1.1864  1.8852 -0.8100
 1017SOL    HW2 3185   0.973   1.153   0.473 -2.9687 -0.1837  0.5247
 1018SOL     OW 3186   3.181   0.538   1.551  0.3820  0.0408 -0.5441
 1018SOL    HW1 3187   3.259   0.487   1.534  0.7950  0.9501 -1.4788
 1018SOL    HW2 3188   3.212   0.629   1.552 -0.4163  0.3284  0.5423
 1019SOL     OW 3189   3.620   3.484   2.705  0.3496  0.0841  0.0485
 1019SOL    HW1 3190   3.635   3.397   2.668 -0.9419 -1.2866  2.5115
 1019SOL    HW2 3191   3.531   3.481   2.740  0.2779  2.3978  0.2593
 1020SOL     OW 3192   2.034   3.204   3.359  0.3566 -0.0653 -0.4477
 1020SOL    HW1 3193   2.088   3.269   3.313  0.2560  0.0593 -0.3901
 1020SOL    HW2 3194   1.950   3.206   3.314  0.0743  0.4496  0.0726
 1021SOL     OW 3195   2.951   1.416   3.723  0.3560  0.5897 -0.1119
 1021SOL    HW1 3196   2.887   1.479   3.692  1.6103  1.7691 -0.4212
 1021SOL    HW2 3197   2.966   1.359   3.647 -0.6716 -0.0183  0.1228
 1022SOL     OW 3198   2.335   0.844   0.750 -0.3919 -0.2665  0.0591
 1022SOL    HW1 3199   2.277   0.792   0.805  1.0433 -0.5470  1.3896
 1022SOL    HW2 3200   2.409   0.785   0.732  0.2440  0.5966 -0.2215
 1023SOL     OW 3201   1.060   0.228   1.026  0.2337 -0.2050  0.3352
 1023SOL    HW1 3202   1.146   0.186   1.025 -0.5859 -1.9895  0.0436
 1023SOL    HW2 3203   1.062   0.289   0.952  1.0778 -0.5964  0.0217
 1024SOL     OW 3204   1.856   2.489   3.580 -0.0297  0.0267  0.0592
 1024SOL    HW1 3205   1.784   2.551   3.575  0.0779  0.0817 -1.1797
 1024SOL    HW2 3206   1.817   2.404   3.560  0.5572  0.3408 -2.7203
 1025SOL     OW 3207   2.759   1.471   1.846 -0.3509  0.2297  0.5818
 1025SOL    HW1 3208   2.667   1.472   1.818 -0.0219  1.6163 -0.5861
 1025SOL    HW2 3209   2.806   1.436   1.770  0.2532  1.2646  0.4612
 1026SOL     OW 3210   0.661   2.479   3.599 -0.2556 -0.3922 -0.5797
 1026SOL    HW1 3211   0.596   2.425   3.644  1.3183 -1.4942  0.4947
 1026SOL    HW2 3212   0.737   2.479   3.658  0.9142  0.3960 -2.0084
 1027SOL     OW 3213   1.371   0.151   0.549 -0.5735 -0.4703  0.0805
 1027SOL    HW1 3214   1.363   0.056   0.542 -0.4489 -0.6617  1.9478
 1027SOL    HW2 3215   1.283   0.184   0.529 -1.1351 -1.1461  1.3129
 1028SOL     OW 3216   3.101   1.572   2.766  0.0094  0.3582  0.0385
 1028SOL    HW1 3217   3.109   1.667   2.771  2.8338  0.1267  2.2201
 1028SOL    HW2 3218   3.113   1.552   2.673 -1.1345  2.1140 -0.5299
 1029SOL     OW 3219   2.176   2.788   1.677 -0.4964 -0.2866 -0.2881
 1029SOL    HW1 3220   2.146   2.863   1.728  1.0782 -0.9486  1.7833
 1029SOL    HW2 3221   2.220   2.826   1.601  3.4190  1.2995  2.4167
 1030SOL     OW 3222   1.402   1.920   2.172 -0.2105  0.2982  0.2674
 1030SOL    HW1 3223   1.327   1.876   2.132 -0.1908 -0.9348  1.5118
 1030SOL    HW2 3224   1.393   2.012   2.145 -0.7185 -0.2829 -1.6932
 1031SOL     OW 3225   1.227   3.433   1.456 -0.3296 -0.3413 -0.3201
 1031SOL    HW1 3226   1.255   3.405   1.543  1.4843  0.7945 -0.4837
 1031SOL    HW2 3227   1.144   3.479   1.471 -0.8601 -1.5246  0.5614
 1032SOL     OW 3228   1.044   2.285   1.609  0.5816  0.6907 -0.1879
 1032SOL    HW1 3229   1.016   2.240   1.688  0.8709  0.0426 -0.4486
 1032SOL    HW2 3230   0.972   2.344   1.588 -1.4871 -2.1695 -1.8320
 1033SOL     OW 3231   1.886   2.616   0.692 -0.4326 -0.4277  0.8231
 1033SOL    HW1 3232   1.953   2.551   0.711  1.5140  1.7474  1.9600
 1033SOL    HW2 3233   1.895   2.635   0.599 -1.3615 -2.0683  0.3673
 1034SOL     OW 3234   3.285   1.446   2.542  0.0717  0.1481 -0.3672
 1034SOL    HW1 3235   3.258   1.366   2.586  0.5743  0.3091  0.2450
 1034SOL    HW2 3236   3.366   1.472   2.587  0.8564  0.0620 -1.6809
 1035SOL     OW 3237   3.652   1.679   2.182 -0.0040 -0.2848  0.2504
 1035SOL    HW1 3238   3.585   1.611   2.177 -2.1031  1.4080  2.6702
 1035SOL    HW2 3239   3.626   1.744   2.117  0.4815 -0.5496 -0.2159
 1036SOL     OW 3240   2.536   0.810   0.345 -0.0053  0.3407  0.0561
 1036SOL    HW1 3241   2.501   0.722   0.340  0.4752  0.1798 -0.8275
 1036SOL    HW2 3242   2.582   0.822   0.262  1.1799  0.8911  0.7645
 1037SOL     OW 3243   2.093   2.909   0.812  0.4582 -0.0847 -0.2997
 1037SOL    HW1 3244   2.020   2.918   0.873  0.1819  1.0042 -0.7660
 1037SOL    HW2 3245   2.052   2.896   0.726  0.8269 -0.4956 -0.4173
 1038SOL     OW 3246   0.447   0.178   2.197  0.4773  0.4151  0.0039
 1038SOL    HW1 3247   0.537   0.177   2.165  0.6893 -1.0959  0.5825
 1038SOL    HW2 3248   0.447   0.117   2.270 -0.2418  2.9629  2.2771
 1039SOL     OW 3249   2.750   2.375   0.094  0.4735 -0.1423 -0.3673
 1039SOL    HW1 3250   2.754   2.402   0.003  1.3097 -1.0888 -0.6260
 1039SOL    HW2 3251   2.657   2.378   0.116  0.3018  0.4647 -1.1216
 1040SOL     OW 3252   3.206   1.571   3.092 -0.2328  0.2834  0.2364
 1040SOL    HW1 3253   3.166   1.620   3.165 -1.4662 -0.4091  0.0539
 1040SOL    HW2 3254   3.132   1.531   3.047  0.5664  0.1937 -1.0476
 1041SOL     OW 3255   1.510   2.423   2.990  0.1867 -0.3257 -0.1652
 1041SOL    HW1 3256   1.564   2.497   3.019  1.2309  0.0846 -2.9463
 1041SOL    HW2 3257   1.447   2.462   2.929 -0.9969 -1.3742  0.3386
 1042SOL     OW 3258   1.181   0.665   1.583  0.3953  0.0380  0.4168
 1042SOL    HW1 3259   1.106   0.670   1.523  1.4448 -0.1829 -0.9611
 1042SOL    HW2 3260   1.240   0.602   1.541  0.8750 -0.6198  2.0297
 1043SOL     OW 3261   0.615   0.485   0.382 -0.2865 -0.3791  0.4770
 1043SOL    HW1 3262   0.570   0.416   0.431 -2.9209 -0.5156 -1.9167
 1043SOL    HW2 3263   0.564   0.564   0.399 -0.5395 -0.1917 -1.0055
 1044SOL     OW 3264   3.633   0.920   0.436 -0.2451 -0.1824  0.0820
 1044SOL    HW1 3265   3.583   0.867   0.498  0.3999 -1.6424 -0.5711
 1044SOL    HW2 3266   3.722   0.921   0.473  0.2088 -1.2977 -0.8939
 1045SOL     OW 3267   3.701   3.070   1.360  0.3066  0.3801 -0.1927
 1045SOL    HW1 3268   3.617   3.027   1.342 -1.2515  1.5634  3.2988
 1045SOL    HW2 3269   3.743   3.014   1.425  2.1426 -0.0077 -1.6572
 1046SOL     OW 3270   1.668   1.862   2.161  0.0916 -0.0158  0.0507
 1046SOL    HW1 3271   1.579   1.898   2.168  0.1724  0.0720  0.6323
 1046SOL    HW2 3272   1.725   1.934   2.185  0.3734  0.2077 -1.2307
 1047SOL     OW 3273   0.106   1.177   0.248 -0.6645 -0.0128 -0.0761
 1047SOL    HW1 3274   0.064   1.228   0.180 -1.7181  1.0354  1.3031
 1047SOL    HW2 3275   0.095   1.086   0.221 -2.2059  0.3256 -0.6458
 1048SOL     OW 3276   1.903   2.987   0.975  0.6316  0.5920 -0.0436
 1048SOL    HW1 3277   1.843   3.060   0.959  2.1621  1.9312 -0.0532
 1048SOL    HW2 3278   1.863   2.937   1.045 -1.2552  0.4988 -1.1212
 1049SOL     OW 3279   0.258   0.877   3.712 -0.4165  0.3369 -0.2042
 1049SOL    HW1 3280   0.311   0.953   3.688  0.4297 -0.3907 -0.6548
 1049SOL    HW2 3281   0.266   0.817   3.638  0.6035 -1.0924  1.0201
 1050SOL     OW 3282   0.022   1.237   0.584 -0.8027  0.0585 -0.0636
 1050SOL    HW1 3283  -0.012   1.260   0.497 -1.1625  1.0044  0.3123
 1050SOL    HW2 3284   0.033   1.142   0.581  0.2022  0.1910 -1.4983
 1051SOL     OW 3285   3.699   0.758   1.375 -0.1526 -0.0676 -0.1953
 1051SOL    HW1 3286   3.674   0.685   1.431 -0.8826  0.2488 -0.1027
 1051SOL    HW2 3287   3.657   0.834   1.414  1.5158  0.6138  0.3644
 1052SOL     OW 3288   1.018   0.923   1.325 -0.2150 -0.4409 -0.3404
 1052SOL    HW1 3289   1.011   1.007   1.279 -1.1686 -0.1423  0.3075
 1052SOL    HW2 3290   1.045   0.947   1.413  1.1879 -0.9749 -0.6065
 1053SOL     OW 3291   3.307   2.747   0.613 -0.0933 -0.2709 -0.2045
 1053SOL    HW1 3292   3.251   2.774   0.540 -0.9470  2.9567  1.4750
 1053SOL    HW2 3293   3.347   2.827   0.645  0.6770 -1.6177  2.5526
 1054SOL     OW 3294   2.649   3.168   2.376 -0.3850 -0.5524 -0.1284
 1054SOL    HW1 3295   2.599   3.183   2.295 -0.7231 -1.4373 -0.0958
 1054SOL    HW2 3296   2.660   3.255   2.414  0.5017 -0.0121 -1.5515
 1055SOL     OW 3297   3.467   3.659   0.878 -0.1917 -0.1175  0.4299
 1055SOL    HW1 3298   3.559   3.640   0.896 -0.0687 -0.2424 -0.3003
 1055SOL    HW2 3299   3.418   3.594   0.928  0.1278 -0.2726  0.5419
 1056SOL     OW 3300   0.498   1.852   2.580  0.3289 -0.6232 -0.0684
 1056SOL    HW1 3301   0.417   1.803   2.561 -0.5759 -0.2193  2.3024
 1056SOL    HW2 3302   0.475   1.943   2.567  0.9811 -0.5950 -1.1304
 1057SOL     OW 3303   1.450   0.685   3.205  0.2934 -0.1184 -0.5760
 1057SOL    HW1 3304   1.451   0.741   3.282  0.4464 -0.8206 -0.0591
 1057SOL    HW2 3305   1.396   0.610   3.230 -2.5838  1.1947 -2.3011
 1058SOL     OW 3306   0.344   0.987   2.598  0.7118 -1.0298  0.3010
 1058SOL    HW1 3307   0.297   1.062   2.561  0.7536 -1.2723 -0.2490
 1058SOL    HW2 3308   0.437   1.010   2.588  0.7388 -0.1714  2.1551
 1059SOL     OW 3309   0.759   0.436   2.715 -0.0320  0.0937  0.3431
 1059SOL    HW1 3310   0.676   0.432   2.668 -0.2426 -1.4218  0.7878
 1059SOL    HW2 3311   0.737   0.479   2.798 -0.5978 -1.0615  0.8248
 1060SOL     OW 3312   1.250   1.315   3.712  0.0357 -0.1827 -0.2659
 1060SOL    HW1 3313   1.316   1.249   3.689  0.4660  0.3208 -0.4808
 1060SOL    HW2 3314   1.256   1.322   3.807 -1.3590 -1.8603 -0.0181
 1061SOL     OW 3315   1.391   2.479   1.035 -0.1518 -0.3290  0.3501
 1061SOL    HW1 3316   1.344   2.505   1.114 -2.1632 -1.3266 -0.4629
 1061SOL    HW2 3317   1.424   2.561   0.998 -1.5366  0.4574  0.8051
 1062SOL     OW 3318   2.510   0.874   2.836 -0.6505  0.6712  0.5149
 1062SOL    HW1 3319   2.455   0.840   2.766  0.0416 -0.2351  0.4040
 1062SOL    HW2 3320   2.481   0.829   2.915  0.0955 -0.0134  0.4112
 1063SOL     OW 3321   3.559   0.852   2.120  0.6098  0.1245  0.7690
 1063SOL    HW1 3322   3.464   0.852   2.124  0.5386  2.3154  0.3667
 1063SOL    HW2 3323   3.585   0.780   2.177 -1.2666  0.1926  1.8041
 1064SOL     OW 3324   0.411   1.339   1.251  0.2290  0.3230 -0.4603
 1064SOL    HW1 3325   0.396   1.262   1.307 -0.1497 -0.4837 -1.6387
 1064SOL    HW2 3326   0.390   1.309   1.163  1.6255  1.3281 -1.1703
 1065SOL     OW 3327   0.638   3.353   1.659 -0.3598  0.5672  0.3789
 1065SOL    HW1 3328   0.707   3.412   1.631 -1.5936  2.0617  0.3526
 1065SOL    HW2 3329   0.557   3.402   1.644 -1.3688 -0.7502  1.3029
 1066SOL     OW 3330   1.843   0.143   3.684 -0.1875  0.2318 -0.0747
 1066SOL    HW1 3331   1.935   0.171   3.676  0.6053 -2.0883  0.2460
 1066SOL    HW2 3332   1.813   0.184   3.765  0.8744  0.2625  0.3239
 1067SOL     OW 3333   2.043   0.703   0.258 -0.0946 -0.1943  0.3691
 1067SOL    HW1 3334   1.977   0.704   0.327 -0.0355 -0.2983  0.4277
 1067SOL    HW2 3335   2.122   0.737   0.300 -0.1437  0.0551  0.2647
 1068SOL     OW 3336   0.203   0.708   0.290 -0.7766 -0.1948  0.0917
 1068SOL    HW1 3337   0.213   0.779   0.227 -1.2425  0.2903  0.5538
 1068SOL    HW2 3338   0.268   0.726   0.358 -0.7571 -0.3219  0.1069
 1069SOL     OW 3339   2.159   0.932   2.715 -0.2161  0.1003  0.7145
 1069SOL    HW1 3340   2.223   1.003   2.706 -0.6611  0.5631  1.1070
 1069SOL    HW2 3341   2.181   0.871   2.645 -1.3903  1.8605 -1.3175
 1070SOL     OW 3342   2.929   2.414   2.439 -0.2608  0.1526  0.5725
 1070SOL    HW1 3343   2.846   2.369   2.419 -2.1907  3.4727  0.3301
 1070SOL    HW2 3344   2.954   2.381   2.525 -0.5588 -2.5470 -0.2719
 1071SOL     OW 3345   1.894   1.532   2.480  0.0517 -0.2792 -0.0642
 1071SOL    HW1 3346   1.918   1.482   2.558 -3.3069 -1.9733  0.0271
 1071SOL    HW2 3347   1.829   1.594   2.510 -2.1150 -1.6830 -1.5868
 1072SOL     OW 3348   0.096   1.312   3.085 -0.0373 -0.8661  0.2251
 1072SOL    HW1 3349   0.083   1.299   3.179 -3.0336 -2.0268 -0.2395
 1072SOL    HW2 3350   0.058   1.234   3.045 -0.1865  0.2684 -2.0041
 1073SOL     OW 3351   0.785   1.432   2.650 -0.2901 -0.1525 -0.2979
 1073SOL    HW1 3352   0.746   1.502   2.703  3.1349  1.8054 -0.1012
 1073SOL    HW2 3353   0.719   1.413   2.583 -2.9427  0.3862  1.9943
 1074SOL     OW 3354   1.523   3.679   1.023 -0.6362 -0.0112 -0.8648
 1074SOL    HW1 3355   1.608   3.714   1.052 -0.2367 -1.4565 -0.1841
 1074SOL    HW2 3356   1.494   3.624   1.095 -0.8745 -1.6632 -2.1656
 1075SOL     OW 3357   3.351   1.529   1.286 -0.7338  0.0958  0.1898
 1075SOL    HW1 3358   3.414   1.510   1.355 -1.2754 -0.8719  0.4361
 1075SOL    HW2 3359   3.356   1.455   1.227 -0.3411  0.8792 -0.7823
 1076SOL     OW 3360   2.138   3.273  -0.001 -0.1070 -0.3283 -0.4880
 1076SOL    HW1 3361   2.099   3.242   0.080  0.4772 -1.3315 -0.5762
 1076SOL    HW2 3362   2.224   3.306   0.025 -0.4611  0.6536 -0.4991
 1077SOL     OW 3363   3.090   0.082   1.240 -0.6593 -0.1917  0.1372
 1077SOL    HW1 3364   3.036   0.145   1.192  3.2678  2.9848 -0.6491
 1077SOL    HW2 3365   3.118   0.019   1.174 -0.7351  0.0767 -0.1513
 1078SOL     OW 3366   2.178   0.866   2.145  0.5492 -0.4050 -0.4920
 1078SOL    HW1 3367   2.178   0.786   2.093 -0.8731 -1.2423  0.7008
 1078SOL    HW2 3368   2.111   0.850   2.213  0.9239  1.4069  0.3586
 1079SOL     OW 3369   1.029   0.819   0.109  0.6471 -0.4798 -0.1172
 1079SOL    HW1 3370   1.087   0.753   0.071  2.1385  0.2879  0.7055
 1079SOL    HW2 3371   0.942   0.780   0.105  0.6401 -0.4702 -4.2812
 1080SOL     OW 3372   3.301   2.039   2.095 -0.1416  1.1124  0.0563
 1080SOL    HW1 3373   3.302   1.983   2.172  0.8957 -0.8261 -1.2693
 1080SOL    HW2 3374   3.345   2.119   2.123 -2.0475  1.5342  2.1326
 1081SOL     OW 3375   1.539   0.640   0.458 -0.3743  0.0668 -0.1929
 1081SOL    HW1 3376   1.546   0.727   0.418  1.8943  0.4255  0.8296
 1081SOL    HW2 3377   1.467   0.648   0.520 -0.3876  1.1332 -0.3281
 1082SOL     OW 3378   1.679   0.921   1.481  0.1351 -0.6471  0.3866
 1082SOL    HW1 3379   1.661   1.015   1.483 -0.9829 -0.8199 -0.6448
 1082SOL    HW2 3380   1.707   0.903   1.391 -0.5480 -1.4368  0.3133
 1083SOL     OW 3381   1.607   3.351   2.537  0.5403 -0.5294 -0.1062
 1083SOL    HW1 3382   1.544   3.315   2.599  0.3268  0.2643  0.1566
 1083SOL    HW2 3383   1.561   3.351   2.453  0.5979 -1.0007 -0.1398
 1084SOL     OW 3384   1.173   1.751   2.187  0.5860  0.0621  1.0111
 1084SOL    HW1 3385   1.162   1.701   2.107  3.1954  1.6448 -0.4737
 1084SOL    HW2 3386   1.224   1.694   2.245  0.8210 -0.1824  0.5640
 1085SOL     OW 3387   3.605   1.908   2.027  0.1581 -0.3825  0.2923
 1085SOL    HW1 3388   3.603   1.951   2.113  1.4446  1.1586 -0.4073
 1085SOL    HW2 3389   3.664   1.962   1.974  1.8198 -2.9852 -0.6938
 1086SOL     OW 3390   0.311   1.668   2.833  0.3429 -0.1353  0.6044
 1086SOL    HW1 3391   0.237   1.638   2.886  0.7185 -0.4321  0.9592
 1086SOL    HW2 3392   0.303   1.763   2.832 -1.0918 -0.2094 -0.8491
 1087SOL     OW 3393   3.641   1.314   0.331  0.1399  0.5109 -0.1716
 1087SOL    HW1 3394   3.562   1.304   0.278  0.3299 -1.4882 -0.1250
 1087SOL    HW2 3395   3.692   1.235   0.315  1.7083  1.3132  0.5519
 1088SOL     OW 3396   3.417   2.035   1.376 -0.0162 -0.3593 -0.1027
 1088SOL    HW1 3397   3.386   2.088   1.450  0.0761  0.8676 -0.9148
 1088SOL    HW2 3398   3.383   2.080   1.298  1.3420 -0.6358 -0.8940
 1089SOL     OW 3399   3.326   3.545   0.621 -0.0883 -0.2855 -0.1414
 1089SOL    HW1 3400   3.258   3.610   0.601 -1.4850 -1.1970  1.3794
 1089SOL    HW2 3401   3.352   3.564   0.711  0.1167 -1.2835  0.0218
 1090SOL     OW 3402   2.152   1.481   3.230 -0.0717  0.3834  0.4402
 1090SOL    HW1 3403   2.178   1.563   3.188 -0.4299  0.7447  0.9102
 1090SOL    HW2 3404   2.064   1.499   3.265  0.4238  0.2727  1.8051
 1091SOL     OW 3405   0.706   0.219   0.107  0.1775  0.6650 -0.3035
 1091SOL    HW1 3406   0.771   0.158   0.074  1.2942 -0.3714  3.2892
 1091SOL    HW2 3407   0.627   0.167   0.117  0.6587  0.1694  1.1920
 1092SOL     OW 3408   2.027   0.893   1.798 -0.0266 -0.3246 -0.2728
 1092SOL    HW1 3409   2.070   0.830   1.741 -0.3924 -0.8597  0.0406
 1092SOL    HW2 3410   2.041   0.978   1.755 -0.6419 -0.7595 -1.3608
 1093SOL     OW 3411   2.005   2.492   0.063 -0.0615 -0.1965 -0.3330
 1093SOL    HW1 3412   1.957   2.472  -0.018  1.4604 -0.0420 -1.3173
 1093SOL    HW2 3413   2.063   2.417   0.076  0.1671  0.0712  0.2512
 1094SOL     OW 3414   2.160   2.585   3.437 -0.1105  0.5284 -0.4552
 1094SOL    HW1 3415   2.194   2.521   3.374 -0.0625  1.3113 -1.2415
 1094SOL    HW2 3416   2.100   2.535   3.492  2.3279 -0.9398  1.0614
 1095SOL     OW 3417  -0.012   0.275   2.683  0.6008  0.2368 -0.8460
 1095SOL    HW1 3418   0.010   0.333   2.610  1.3423  1.0376 -0.0182
 1095SOL    HW2 3419   0.012   0.325   2.761 -2.9017  0.6131  0.1448
 1096SOL     OW 3420   2.699   2.423   1.301 -0.3903  0.1398 -0.5066
 1096SOL    HW1 3421   2.686   2.508   1.343  0.5704  0.9113 -1.7100
 1096SOL    HW2 3422   2.632   2.367   1.340  0.5182  0.7478  2.1560
 1097SOL     OW 3423   2.245   0.869   0.100  0.1625  0.6891 -0.4211
 1097SOL    HW1 3424   2.248   0.804   0.029 -0.2932  0.3753 -0.1627
 1097SOL    HW2 3425   2.151   0.882   0.117  0.2412 -0.3878  1.1385
 1098SOL     OW 3426   3.188   2.866   1.775  0.1670 -0.4626  0.0130
 1098SOL    HW1 3427   3.279   2.891   1.791  0.2085 -1.4074  1.3720
 1098SOL    HW2 3428   3.190   2.771   1.767 -0.8143 -0.5788  0.9559
 1099SOL     OW 3429   0.684   2.390   1.358 -0.7265  0.2628  0.2629
 1099SOL    HW1 3430   0.732   2.406   1.439 -0.7163 -0.5448  0.4255
 1099SOL    HW2 3431   0.620   2.322   1.381 -1.4968  0.8458 -0.1202
 1100SOL     OW 3432   0.008   3.500   3.694 -0.2217 -0.5101  0.7009
 1100SOL    HW1 3433   0.044   3.579   3.653 -2.3458  0.0828 -0.1841
 1100SOL    HW2 3434  -0.011   3.441   3.621 -3.5780  0.3547  0.7201
 1101SOL     OW 3435   2.297   1.203   2.823 -0.5568  0.5738 -0.4728
 1101SOL    HW1 3436   2.247   1.283   2.835  2.5494  2.6764 -0.4598
 1101SOL    HW2 3437   2.377   1.216   2.873  1.4557 -1.2094 -2.9379
 1102SOL     OW 3438   1.050   3.540   3.051  0.3977 -0.6503 -0.1745
 1102SOL    HW1 3439   0.988   3.549   2.978 -1.0625  1.1329  1.1909
 1102SOL    HW2 3440   1.001   3.494   3.119  0.8240  0.0272  0.6113
 1103SOL     OW 3441   1.690   0.337   1.704  0.4058  0.1025  0.4174
 1103SOL    HW1 3442   1.606   0.336   1.750 -0.2048 -0.5259 -0.6767
 1103SOL    HW2 3443   1.729   0.422   1.726 -0.2351  0.1551  1.4109
 1104SOL     OW 3444   0.948   3.488   1.510 -0.0473  0.3154 -0.3071
 1104SOL    HW1 3445   0.875   3.458   1.455 -0.7940  3.1309 -0.9828
 1104SOL    HW2 3446   0.952   3.582   1.496  3.5921  0.3195 -0.0500
 1105SOL     OW 3447   0.544   0.272   3.491  0.0389  0.1108  0.6112
 1105SOL    HW1 3448   0.621   0.317   3.526  0.2256  1.6715 -1.6295
 1105SOL    HW2 3449   0.509   0.331   3.425 -2.1628 -1.2889  0.4148
 1106SOL     OW 3450   0.001   3.325   0.796 -0.4199  0.4539  0.0540
 1106SOL    HW1 3451  -0.059   3.314   0.722  0.5546 -1.0046 -0.5428
 1106SOL    HW2 3452   0.087   3.306   0.760  0.3140  1.6427  1.1232
 1107SOL     OW 3453   0.791   2.933   2.364  0.4564 -0.0940  0.1314
 1107SOL    HW1 3454   0.834   2.982   2.294 -0.5555  1.7208  0.7250
 1107SOL    HW2 3455   0.846   2.949   2.441 -0.8963  1.8088  0.7741
 1108SOL     OW 3456   3.046   0.618   3.445  0.3707  0.0174 -0.0684
 1108SOL    HW1 3457   3.005   0.702   3.463 -0.1562  0.6538 -3.6191
 1108SOL    HW2 3458   3.128   0.620   3.496 -1.4660  0.8269  3.1558
 1109SOL     OW 3459   0.689   1.319   1.256 -0.1471 -0.2234  0.4315
 1109SOL    HW1 3460   0.690   1.265   1.335 -0.3653 -1.1334 -0.1744
 1109SOL    HW2 3461   0.609   1.371   1.264 -2.2480 -3.0309 -0.9387
 1110SOL     OW 3462   3.632   0.007   1.291 -0.5323 -0.0396 -0.6374
 1110SOL    HW1 3463   3.596   0.056   1.217  0.8521 -0.4918 -1.6406
 1110SOL    HW2 3464   3.568   0.021   1.362 -2.4831 -0.4775 -2.2050
 1111SOL     OW 3465   1.520   1.360   1.576 -0.0395  0.6220 -0.0598
 1111SOL    HW1 3466   1.450   1.425   1.566 -0.5518 -0.0728 -1.1120
 1111SOL    HW2 3467   1.601   1.411   1.565 -0.2578  1.7036  2.5879
 1112SOL     OW 3468   1.978   3.669   3.227 -0.1830  0.1936 -0.2030
 1112SOL    HW1 3469   2.062   3.627   3.242  1.2080  2.7915 -0.1739
 1112SOL    HW2 3470   1.991   3.723   3.149 -1.9978  0.2706 -0.5037
 1113SOL     OW 3471   3.427   0.954   2.986  0.2868  0.1029 -0.1706
 1113SOL    HW1 3472   3.441   0.892   3.057  2.2385 -0.4668 -0.9819
 1113SOL    HW2 3473   3.434   0.901   2.906 -2.1355  0.6697 -0.8641
 1114SOL     OW 3474   1.030   3.353   1.739 -0.5423  0.4425  0.1781
 1114SOL    HW1 3475   1.121   3.373   1.762 -0.4134  1.8255 -1.3379
 1114SOL    HW2 3476   1.013   3.405   1.660 -2.3360 -0.5767 -0.1698
 1115SOL     OW 3477   2.609   0.874   2.240  0.6408  0.2136 -0.0184
 1115SOL    HW1 3478   2.688   0.921   2.267  0.7310 -0.7168  1.4184
 1115SOL    HW2 3479   2.538   0.936   2.256  0.8970  0.3722  0.5308
 1116SOL     OW 3480   2.685   1.892   3.434  0.3350 -0.0592 -0.4065
 1116SOL    HW1 3481   2.766   1.932   3.403  0.7830 -0.2697  0.4665
 1116SOL    HW2 3482   2.671   1.817   3.376  0.3784  0.3932 -1.0067
 1117SOL     OW 3483   2.358   0.668   2.947  0.4374 -0.0268  0.0115
 1117SOL    HW1 3484   2.316   0.596   2.900  2.1061  1.0267 -3.3877
 1117SOL    HW2 3485   2.410   0.625   3.015  2.6912 -2.3508 -2.8963
 1118SOL     OW 3486   0.655   0.601   2.095  0.2172 -0.5404 -0.9395
 1118SOL    HW1 3487   0.653   0.681   2.041  0.7969  0.2443  0.1506
 1118SOL    HW2 3488   0.748   0.580   2.102  0.1731 -0.5009 -0.0862
 1119SOL     OW 3489   0.332   1.443   1.888 -0.1388 -0.1372  0.7772
 1119SOL    HW1 3490   0.374   1.361   1.912 -1.1130 -1.0410 -0.4398
 1119SOL    HW2 3491   0.403   1.506   1.880  0.8487 -1.3165 -0.0600
 1120SOL     OW 3492   1.498   3.005   0.428  0.0460 -0.6385 -0.2075
 1120SOL    HW1 3493   1.484   2.925   0.378 -2.0290 -0.4734  0.0445
 1120SOL    HW2 3494   1.499   3.074   0.362 -1.1184 -0.5871 -0.1934
 1121SOL     OW 3495   2.372   0.202   1.406 -0.1465 -0.1571 -0.6718
 1121SOL    HW1 3496   2.460   0.213   1.369  0.2591  1.1483  0.5608
 1121SOL    HW2 3497   2.313   0.231   1.336  0.4777  0.0782 -1.1110
 1122SOL     OW 3498   1.533   1.153   1.085 -0.1944 -0.1227  0.3341
 1122SOL    HW1 3499   1.550   1.245   1.065  1.3616 -0.4623 -0.0478
 1122SOL    HW2 3500   1.594   1.105   1.030 -1.3955 -1.4352  0.0681
 1123SOL     OW 3501   1.543   3.266   0.329  0.3759  0.2174  0.8375
 1123SOL    HW1 3502   1.563   3.260   0.423 -0.0555  0.4365  0.9442
 1123SOL    HW2 3503   1.450   3.289   0.326  0.3408  0.0173  0.3529
 1124SOL     OW 3504   3.597   2.463   2.643  0.1591  0.1641 -0.0610
 1124SOL    HW1 3505   3.524   2.463   2.581  0.5140  1.6219 -0.5321
 1124SOL    HW2 3506   3.558   2.438   2.726 -0.7650  0.3486 -0.4293
 1125SOL     OW 3507   0.627   0.851   0.588  0.1653 -0.3063  0.6763
 1125SOL    HW1 3508   0.634   0.892   0.675 -0.0386  2.3778 -0.4738
 1125SOL    HW2 3509   0.717   0.843   0.558  0.3430 -2.4343  1.5470
 1126SOL     OW 3510   0.408   2.079   2.853  0.1572  0.7191 -0.1249
 1126SOL    HW1 3511   0.313   2.074   2.844 -0.2876  3.4608  1.6045
 1126SOL    HW2 3512   0.436   2.136   2.782 -0.0023  2.4603  1.1388
 1127SOL     OW 3513   1.469   1.750   3.588  0.2959 -0.2380 -0.1612
 1127SOL    HW1 3514   1.415   1.672   3.599 -0.7446  0.3059 -1.1669
 1127SOL    HW2 3515   1.409   1.823   3.602  0.3420  0.4030 -2.6877
 1128SOL     OW 3516   0.687   2.983   0.897  0.2172 -0.1988 -0.0997
 1128SOL    HW1 3517   0.632   2.909   0.922 -0.2806 -1.2573 -3.7231
 1128SOL    HW2 3518   0.776   2.950   0.902  0.3474  0.3579  2.2418
 1129SOL     OW 3519   1.866   1.258   3.267  0.5704 -0.1480  0.9033
 1129SOL    HW1 3520   1.953   1.220   3.276  1.1700  1.0769  0.5043
 1129SOL    HW2 3521   1.850   1.260   3.173  1.0217  1.5562  0.8349
 1130SOL     OW 3522   1.291   3.373   0.341 -1.0134  0.1279  0.4330
 1130SOL    HW1 3523   1.304   3.453   0.392 -2.2197  1.6270 -1.4704
 1130SOL    HW2 3524   1.232   3.320   0.394  1.0730 -0.3334  2.4791
 1131SOL     OW 3525   1.446   3.029   1.033 -0.1388  0.1560 -0.4181
 1131SOL    HW1 3526   1.358   3.038   1.068  0.0583  0.9549 -0.0992
 1131SOL    HW2 3527   1.436   2.976   0.954 -1.1331  1.5589 -1.2651
 1132SOL     OW 3528   0.818   0.306   3.571 -0.0993 -0.2558 -0.0737
 1132SOL    HW1 3529   0.755   0.308   3.643  0.3887 -0.2552  0.3562
 1132SOL    HW2 3530   0.902   0.288   3.613  0.0476 -1.1900 -0.7370
 1133SOL     OW 3531   1.930   3.063   0.114 -0.4481 -0.2734  0.0189
 1133SOL    HW1 3532   1.953   3.098   0.028  0.4842 -0.5642  0.1452
 1133SOL    HW2 3533   1.970   3.123   0.176  0.4577 -1.0841  0.2369
 1134SOL     OW 3534   1.793   0.346   0.119  0.0376  0.6125 -0.0852
 1134SOL    HW1 3535   1.741   0.322   0.196  2.1344  0.2827  1.2938
 1134SOL    HW2 3536   1.740   0.414   0.076 -1.7915 -0.1045  0.8974
 1135SOL     OW 3537   1.676   0.326   1.993 -0.1310  0.0490  0.4240
 1135SOL    HW1 3538   1.622   0.405   1.990  1.9021  1.5292  1.1164
 1135SOL    HW2 3539   1.765   0.357   1.983  0.6074 -2.4133 -1.7672
 1136SOL     OW 3540   0.767   2.754   3.255 -0.0480  0.1677  0.2878
 1136SOL    HW1 3541   0.818   2.787   3.182  0.3885  1.9484  1.3422
 1136SOL    HW2 3542   0.820   2.683   3.292  0.1122 -0.1765 -0.5861
 1137SOL     OW 3543   1.783   1.655   3.070 -0.2077 -0.1676 -0.3029
 1137SOL    HW1 3544   1.797   1.646   2.976 -1.8768  0.5639 -0.6560
 1137SOL    HW2 3545   1.694   1.621   3.085  0.1938 -0.6857  1.0819
 1138SOL     OW 3546   1.239   3.352   1.006 -0.7574  0.0819 -0.4847
 1138SOL    HW1 3547   1.195   3.267   1.003 -0.5361 -0.0685  0.2042
 1138SOL    HW2 3548   1.313   3.338   1.066 -0.7004  0.7494 -0.3932
 1139SOL     OW 3549   0.220   0.682   2.681  0.1104  0.6434  0.1641
 1139SOL    HW1 3550   0.145   0.675   2.622  1.4856 -0.8415 -1.5398
 1139SOL    HW2 3551   0.247   0.774   2.676 -0.2916  0.7141 -0.9070
 1140SOL     OW 3552   0.732   0.990   1.317 -0.8332  0.1609 -0.0845
 1140SOL    HW1 3553   0.691   0.929   1.255 -0.2682 -0.3633  0.0464
 1140SOL    HW2 3554   0.818   1.007   1.280  0.7449 -2.4989  1.9772
 1141SOL     OW 3555   0.850   0.331   3.299 -0.3322  0.7301 -0.4435
 1141SOL    HW1 3556   0.857   0.338   3.394 -1.4527  0.2780 -0.3210
 1141SOL    HW2 3557   0.864   0.238   3.281 -2.2802  0.4023 -0.4934
 1142SOL     OW 3558   2.814   3.726   2.305 -0.5231  0.4636 -0.0670
 1142SOL    HW1 3559   2.800   3.698   2.214 -0.9842 -0.0435  0.1529
 1142SOL    HW2 3560   2.908   3.715   2.319 -0.6905 -1.1717  0.0447
 1143SOL     OW 3561   3.654   2.873   1.094 -0.6581  0.2188  0.0609
 1143SOL    HW1 3562   3.687   2.925   1.020  1.5031 -1.7990 -0.5056
 1143SOL    HW2 3563   3.563   2.854   1.072 -0.3019  0.3878 -1.6592
 1144SOL     OW 3564   2.017   2.283   1.795 -0.2452  0.2947  0.0329
 1144SOL    HW1 3565   2.038   2.373   1.768  0.8158 -0.4286 -1.7081
 1144SOL    HW2 3566   2.039   2.230   1.719  0.7008 -1.6558  1.5944
 1145SOL     OW 3567   1.574   3.466   3.076 -0.1820 -0.0397  0.3412
 1145SOL    HW1 3568   1.650   3.462   3.134 -0.4084 -3.5880  0.6134
 1145SOL    HW2 3569   1.566   3.558   3.053  2.4978  0.8674  2.5202
 1146SOL     OW 3570   3.058   2.073   1.674 -0.4778  0.1052  1.1335
 1146SOL    HW1 3571   3.142   2.116   1.655 -1.0765  1.3807  1.3046
 1146SOL    HW2 3572   3.044   2.013   1.600 -0.4786  1.5056 -0.0335
 1147SOL     OW 3573   0.423   0.486   2.150  0.1316  0.1477  0.6307
 1147SOL    HW1 3574   0.443   0.393   2.142 -1.4253 -0.1648  0.1121
 1147SOL    HW2 3575   0.502   0.530   2.119  0.1807 -1.0077 -1.0414
 1148SOL     OW 3576   2.472   2.967   2.383 -0.7564 -0.0624 -0.1849
 1148SOL    HW1 3577   2.476   2.961   2.288 -0.8298  0.1740 -0.2022
 1148SOL    HW2 3578   2.534   3.036   2.406 -1.4765  0.5842 -0.1367
 1149SOL     OW 3579   1.048   0.744   3.224  0.1021  0.4300 -0.0654
 1149SOL    HW1 3580   0.959   0.776   3.207 -0.6670  0.1559  2.9888
 1149SOL    HW2 3581   1.058   0.669   3.165 -1.8934  0.1505 -0.1171
 1150SOL     OW 3582   0.278   2.400   2.661  0.1954 -0.0366  0.0920
 1150SOL    HW1 3583   0.228   2.445   2.730  0.3906  1.2593 -0.5673
 1150SOL    HW2 3584   0.251   2.444   2.580  1.5285 -0.0873 -0.4087
 1151SOL     OW 3585   2.376   2.314   3.277  0.0752  0.2343  0.3424
 1151SOL    HW1 3586   2.416   2.261   3.346  0.4930 -1.5702 -1.1868
 1151SOL    HW2 3587   2.282   2.314   3.298  0.3789  1.3295  1.8937
 1152SOL     OW 3588   1.948   3.367   0.871 -0.1933  0.4368 -0.2299
 1152SOL    HW1 3589   1.961   3.430   0.942 -3.1720 -0.5063  1.3333
 1152SOL    HW2 3590   1.899   3.416   0.805  1.2201  0.8739 -0.9970
 1153SOL     OW 3591   0.565   2.170   1.532  0.2207  0.0424  0.3519
 1153SOL    HW1 3592   0.569   2.075   1.543  0.8865 -0.3220 -2.2951
 1153SOL    HW2 3593   0.472   2.189   1.523  0.0492 -0.2815  1.3612
 1154SOL     OW 3594   1.180   1.108   0.720 -0.2867  0.6357 -0.0138
 1154SOL    HW1 3595   1.119   1.095   0.793  1.1292 -0.8003  0.9960
 1154SOL    HW2 3596   1.256   1.149   0.760  1.4421 -2.1765 -0.1045
 1155SOL     OW 3597   1.995   1.543   2.205  0.5346  0.0658  0.3176
 1155SOL    HW1 3598   1.920   1.598   2.228  0.6115 -0.1803  1.2254
 1155SOL    HW2 3599   2.067   1.577   2.259  0.8030 -0.3536  0.2321
 1156SOL     OW 3600   1.315   0.481   3.370  0.0986 -0.8150 -0.1856
 1156SOL    HW1 3601   1.271   0.409   3.416 -2.9840  0.6527 -0.5846
 1156SOL    HW2 3602   1.288   0.471   3.278  0.2194  0.4099 -0.3744
 1157SOL     OW 3603   2.957   0.633   0.604 -0.9955 -0.1621 -0.1909
 1157SOL    HW1 3604   3.005   0.594   0.677  0.6807  0.0267 -1.1349
 1157SOL    HW2 3605   2.966   0.728   0.619 -0.2864 -0.1185 -0.8351
 1158SOL     OW 3606   2.258   2.418   1.103  0.1752  0.3591 -0.4872
 1158SOL    HW1 3607   2.304   2.346   1.145  0.6412  0.7018 -0.4042
 1158SOL    HW2 3608   2.291   2.417   1.013  2.0677  1.9956  0.1201
 1159SOL     OW 3609   2.866   3.529   3.672  0.6785 -0.4505 -0.0321
 1159SOL    HW1 3610   2.847   3.496   3.760  1.8425  1.0296  0.8252
 1159SOL    HW2 3611   2.782   3.566   3.642  0.3545 -0.6549  0.6093
 1160SOL     OW 3612   1.010   0.809   1.747 -0.1555  0.6394  0.6798
 1160SOL    HW1 3613   0.946   0.835   1.680  1.9381  1.7714 -1.0132
 1160SOL    HW2 3614   1.053   0.732   1.709 -0.1240  0.2207  1.5483
 1161SOL     OW 3615   3.465   1.603   3.190 -0.2750 -0.3902  0.2947
 1161SOL    HW1 3616   3.477   1.698   3.180 -0.9564 -0.1182  1.8043
 1161SOL    HW2 3617   3.370   1.592   3.190 -0.2449 -0.8510  1.8443
 1162SOL     OW 3618   2.089   1.242   2.499  0.0918  0.0804  0.5075
 1162SOL    HW1 3619   2.101   1.336   2.492  2.8346 -0.3069 -2.1222
 1162SOL    HW2 3620   2.031   1.219   2.427 -0.1875 -0.3220  0.8499
 1163SOL     OW 3621   1.527   3.724   1.455 -0.5044  0.2247 -0.0953
 1163SOL    HW1 3622   1.529   3.669   1.377 -0.8212 -0.7506  0.5725
 1163SOL    HW2 3623   1.593   3.686   1.514 -1.1607  0.1761  0.6278
 1164SOL     OW 3624   0.834   2.722   2.731 -0.3375 -0.0805  0.9253
 1164SOL    HW1 3625   0.906   2.660   2.722 -0.4464 -0.4157  2.2250
 1164SOL    HW2 3626   0.756   2.671   2.710 -0.4518 -0.4755  2.2373
 1165SOL     OW 3627   0.644   3.575   1.056  0.1721  0.2343 -0.4756
 1165SOL    HW1 3628   0.660   3.623   1.137 -0.9395 -0.1645  0.0012
 1165SOL    HW2 3629   0.631   3.644   0.990  0.8909  0.5599 -0.2937
 1166SOL     OW 3630   2.370   1.060   2.213 -0.7291 -0.1783 -0.4296
 1166SOL    HW1 3631   2.284   1.028   2.184 -0.1526 -0.2823 -2.1828
 1166SOL    HW2 3632   2.384   1.140   2.162 -0.2081  0.4038  0.5945
 1167SOL     OW 3633   1.260   2.971   3.043 -0.2447  0.1172  0.4367
 1167SOL    HW1 3634   1.233   3.055   3.005 -1.7198 -0.9901 -1.1249
 1167SOL    HW2 3635   1.331   2.941   2.985  0.4618  0.3908  1.1490
 1168SOL     OW 3636   0.506   3.124   0.005 -0.2559 -0.1273 -0.3624
 1168SOL    HW1 3637   0.601   3.112  -0.000 -0.0855  1.1323 -0.3999
 1168SOL    HW2 3638   0.471   3.035   0.013  1.0132 -0.5337  1.0767
 1169SOL     OW 3639   0.197   1.505   1.448 -0.0433  0.2026 -0.2234
 1169SOL    HW1 3640   0.184   1.458   1.531  3.5045 -0.5714  0.0799
 1169SOL    HW2 3641   0.114   1.548   1.431 -0.8424  0.7745  3.9796
 1170SOL     OW 3642   3.482   3.527   3.420  0.3015  0.2921 -0.1463
 1170SOL    HW1 3643   3.471   3.450   3.364 -0.6547 -0.0263  0.4619
 1170SOL    HW2 3644   3.450   3.600   3.368  0.9531  0.2445 -0.6235
 1171SOL     OW 3645   2.376   2.772   2.531 -0.4617  1.0192 -0.1439
 1171SOL    HW1 3646   2.431   2.841   2.493  0.0179  2.0159  2.2203
 1171SOL    HW2 3647   2.287   2.809   2.528 -0.6133  0.6166 -1.2567
 1172SOL     OW 3648   0.459   1.069   1.412  0.7171  0.1956  0.4171
 1172SOL    HW1 3649   0.429   1.024   1.333 -1.0636  1.0114  0.5795
 1172SOL    HW2 3650   0.555   1.062   1.409  0.6534 -0.3609 -1.4528
 1173SOL     OW 3651   0.806   1.399   3.506 -0.3200 -0.0453 -0.5192
 1173SOL    HW1 3652   0.799   1.345   3.584  0.6751 -0.1252 -0.4748
 1173SOL    HW2 3653   0.799   1.338   3.433 -2.5755  0.1649 -0.5680
 1174SOL     OW 3654   0.163   3.135   3.731  0.2606 -0.6238  0.3614
 1174SOL    HW1 3655   0.237   3.136   3.669  0.3366 -2.9120  0.3421
 1174SOL    HW2 3656   0.198   3.093   3.809 -0.8535 -1.1357  0.5941
 1175SOL     OW 3657   3.362   2.300   2.216 -0.4040 -0.3970  0.5717
 1175SOL    HW1 3658   3.333   2.384   2.179 -0.3967 -0.1903  1.0283
 1175SOL    HW2 3659   3.362   2.314   2.311 -1.0390 -1.1183  0.6894
 1176SOL     OW 3660   1.647   2.126   1.268 -0.6923 -0.4503 -0.0327
 1176SOL    HW1 3661   1.600   2.125   1.352 -0.8586  0.9951 -0.0732
 1176SOL    HW2 3662   1.635   2.215   1.235  1.1174 -0.3770 -0.6104
 1177SOL     OW 3663   1.646   3.108   1.748  0.4040 -0.0863  0.4778
 1177SOL    HW1 3664   1.698   3.183   1.776  1.4904  0.3894 -2.4884
 1177SOL    HW2 3665   1.709   3.048   1.708 -0.9916 -0.6174 -1.0355
 1178SOL     OW 3666   2.096   0.312   1.699 -0.1141  0.2305 -0.6206
 1178SOL    HW1 3667   2.114   0.219   1.691  1.3849  0.5684 -1.6201
 1178SOL    HW2 3668   2.056   0.322   1.785  1.2236 -1.1386  0.2144
 1179SOL     OW 3669   0.030   3.715   1.994 -0.1126 -0.2464 -0.3879
 1179SOL    HW1 3670   0.103   3.658   2.018  0.3502 -1.5924 -4.2933
 1179SOL    HW2 3671  -0.044   3.655   1.983 -0.3785  0.2768 -1.6340
 1180SOL     OW 3672   2.631   3.415   3.293 -0.1679  0.3236  0.0832
 1180SOL    HW1 3673   2.587   3.459   3.220 -1.5558  2.2510  1.9724
 1180SOL    HW2 3674   2.662   3.332   3.255 -2.1971  0.5220 -2.2889
 1181SOL     OW 3675   3.069   3.176   3.207  0.1571  0.1252 -0.0339
 1181SOL    HW1 3676   3.120   3.219   3.276 -0.0751  1.0393 -0.4155
 1181SOL    HW2 3677   3.058   3.086   3.238 -1.3222  0.8959  1.9420
 1182SOL     OW 3678   3.265   0.361   0.598 -0.3192  0.0431  0.1349
 1182SOL    HW1 3679   3.231   0.449   0.609  1.0700  0.6150  0.0994
 1182SOL    HW2 3680   3.319   0.365   0.519  0.4105 -0.6188  0.5787
 1183SOL     OW 3681   2.725   2.605   2.710  0.1454  0.5155  0.3615
 1183SOL    HW1 3682   2.633   2.582   2.714  0.1245  0.3427 -0.8451
 1183SOL    HW2 3683   2.768   2.542   2.768 -0.3326 -0.3093 -0.1684
 1184SOL     OW 3684   1.823   0.478   2.987  0.5005 -0.3977  0.1450
 1184SOL    HW1 3685   1.840   0.539   3.059  1.6987  0.1258 -0.5341
 1184SOL    HW2 3686   1.775   0.530   2.923  0.5389 -0.4864  0.0439
 1185SOL     OW 3687   0.220   3.158   2.040 -0.2550 -0.0492  0.1328
 1185SOL    HW1 3688   0.157   3.230   2.044 -1.2766 -0.7911 -1.5867
 1185SOL    HW2 3689   0.267   3.172   1.957  0.7088 -0.4357  0.6003
 1186SOL     OW 3690   1.503   3.116   2.992 -0.5393  0.2474 -0.0461
 1186SOL    HW1 3691   1.481   3.148   2.904  0.0171  0.4033 -0.1300
 1186SOL    HW2 3692   1.494   3.192   3.049  0.6576  0.5393 -0.2255
 1187SOL     OW 3693   0.097   2.790   1.255  0.4529  0.2186 -0.6907
 1187SOL    HW1 3694   0.018   2.818   1.209  0.4758  2.0507  0.3118
 1187SOL    HW2 3695   0.115   2.860   1.317  2.1693 -0.7526 -0.0266
 1188SOL     OW 3696   0.255   2.727   0.955  0.0101  0.1209  0.0610
 1188SOL    HW1 3697   0.250   2.821   0.938 -1.7416 -0.1962 -1.5548
 1188SOL    HW2 3698   0.304   2.691   0.881 -2.1601 -0.5617 -1.1220
 1189SOL     OW 3699   3.729   3.234   2.214  0.2027  0.7213  0.0459
 1189SOL    HW1 3700   3.673   3.229   2.137 -1.3372  1.4357  1.0726
 1189SOL    HW2 3701   3.704   3.316   2.257 -0.6740 -0.7337  2.5289
 1190SOL     OW 3702   1.443   1.807   0.223  0.5920 -0.0939 -0.5239
 1190SOL    HW1 3703   1.485   1.759   0.295 -1.5570  0.1475  0.9879
 1190SOL    HW2 3704   1.476   1.897   0.233 -1.4240  0.4927  1.7237
 1191SOL     OW 3705   0.546   1.835   0.558  0.5098  0.4661 -0.2689
 1191SOL    HW1 3706   0.529   1.863   0.648 -0.4286  2.8620 -1.1015
 1191SOL    HW2 3707   0.624   1.780   0.564 -0.9085 -1.5431  2.2882
 1192SOL     OW 3708   1.678   1.607   0.966  0.2912  0.0070  0.0419
 1192SOL    HW1 3709   1.613   1.663   1.008 -1.6796 -2.1260 -0.0004
 1192SOL    HW2 3710   1.688   1.532   1.026  0.2327 -1.2783 -1.5011
 1193SOL     OW 3711   3.478   0.059   1.489  0.2661 -0.1217  0.3829
 1193SOL    HW1 3712   3.542   0.064   1.560 -0.1922 -2.6224  1.0745
 1193SOL    HW2 3713   3.395   0.038   1.532 -0.8407  1.9314 -0.6094
 1194SOL     OW 3714   3.674   3.751   3.492 -0.1534 -0.1698 -0.1824
 1194SOL    HW1 3715   3.646   3.756   3.401 -1.1470  1.3727  0.1521
 1194SOL    HW2 3716   3.625   3.677   3.528 -1.2480  0.3950 -0.4530
 1195SOL     OW 3717   0.708   2.690   1.646 -0.1417  0.4191 -0.2917
 1195SOL    HW1 3718   0.756   2.735   1.578  1.8299 -0.7635  0.2449
 1195SOL    HW2 3719   0.616   2.699   1.621  0.4366  1.3861 -2.2017
 1196SOL     OW 3720   3.547   1.528   2.671  0.0191  0.0054  0.3016
 1196SOL    HW1 3721   3.557   1.587   2.745  1.0476  1.9504 -1.2932
 1196SOL    HW2 3722   3.606   1.563   2.604 -1.2426 -1.3593 -1.6332
 1197SOL     OW 3723   1.948   2.988   2.187 -0.1276 -0.4776  0.1878
 1197SOL    HW1 3724   1.858   2.963   2.166  0.1687 -0.4251 -1.1942
 1197SOL    HW2 3725   1.959   3.075   2.148  0.4970 -0.4440  0.4207
 1198SOL     OW 3726   3.567   2.846   0.748 -0.5745  0.5067 -0.0870
 1198SOL    HW1 3727   3.490   2.880   0.793 -0.0356  1.8953 -0.1534
 1198SOL    HW2 3728   3.641   2.881   0.798  0.0446 -1.1850  0.2621
 1199SOL     OW 3729   1.968   1.638   1.938  0.7037 -0.4363  0.5290
 1199SOL    HW1 3730   1.991   1.729   1.921 -0.9568  0.1582  1.2390
 1199SOL    HW2 3731   1.980   1.627   2.032  2.5131 -1.4817  0.2258
 1200SOL     OW 3732   0.121   0.510   1.432 -0.0881  0.2004 -0.0112
 1200SOL    HW1 3733   0.040   0.504   1.483  0.7393  0.2334  1.3244
 1200SOL    HW2 3734   0.170   0.581   1.472  0.8129 -0.1077 -0.5348
 1201SOL     OW 3735   1.396   2.729   3.624  0.0169 -0.1942 -0.7650
 1201SOL    HW1 3736   1.423   2.797   3.686  0.6027 -1.6328  0.6305
 1201SOL    HW2 3737   1.370   2.777   3.546 -1.2484  1.7472  0.7385
 1202SOL     OW 3738   3.705   1.818   0.564 -0.3733 -0.4436 -0.2822
 1202SOL    HW1 3739   3.762   1.771   0.502  0.1010 -0.2642  0.0118
 1202SOL    HW2 3740   3.633   1.758   0.581  0.1868 -1.0405  0.0262
 1203SOL     OW 3741   3.475   0.423   2.628  0.2029  0.3292  0.0072
 1203SOL    HW1 3742   3.537   0.355   2.654 -0.9250 -0.8151 -0.1763
 1203SOL    HW2 3743   3.455   0.405   2.536  0.2598  1.2213 -0.1937
 1204SOL     OW 3744   0.607   1.498   1.671 -0.0413 -0.1618  0.3147
 1204SOL    HW1 3745   0.611   1.413   1.627  0.4826 -0.6788  1.3138
 1204SOL    HW2 3746   0.542   1.548   1.622 -0.3501 -1.1410 -0.2964
 1205SOL     OW 3747   0.924   2.249   1.115 -0.0687 -0.2444 -0.0523
 1205SOL    HW1 3748   0.855   2.240   1.180 -1.5020 -0.5675 -1.5586
 1205SOL    HW2 3749   0.903   2.330   1.068  1.6278  0.6439  0.6181
 1206SOL     OW 3750   2.741   1.782   2.640  0.4805  0.3498 -0.1258
 1206SOL    HW1 3751   2.734   1.802   2.733 -1.0633 -3.2957  0.7448
 1206SOL    HW2 3752   2.656   1.807   2.604 -0.2031 -1.2778  0.2569
 1207SOL     OW 3753   3.668   2.045   1.462  0.0833 -0.0084  0.2117
 1207SOL    HW1 3754   3.578   2.049   1.428  0.2013 -0.5401 -0.1833
 1207SOL    HW2 3755   3.719   2.098   1.402 -0.3142  2.2590  1.7274
 1208SOL     OW 3756   0.430   0.105   0.628  0.2093  0.5154  0.0668
 1208SOL    HW1 3757   0.427   0.133   0.720 -0.1165  0.1432  0.1760
 1208SOL    HW2 3758   0.427   0.009   0.632  2.1616  0.4007 -0.2671
 1209SOL     OW 3759   1.592   1.695   0.443  0.4639  0.3100 -0.2535
 1209SOL    HW1 3760   1.639   1.620   0.477  0.4569 -0.0570 -1.0320
 1209SOL    HW2 3761   1.641   1.771   0.474  0.7733 -0.0314  0.0887
 1210SOL     OW 3762   1.273   2.893   3.470  0.7827  0.1082 -0.7071
 1210SOL    HW1 3763   1.206   2.861   3.410  0.8158 -1.3190 -0.0250
 1210SOL    HW2 3764   1.277   2.988   3.454 -0.4674  0.0200 -1.6595
 1211SOL     OW 3765   1.549  -0.014   3.004 -1.0845  0.2086 -0.1213
 1211SOL    HW1 3766   1.608   0.043   2.955 -0.1397 -0.8962 -0.3165
 1211SOL    HW2 3767   1.466  -0.010   2.957 -1.2250  1.8506  0.1997
 1212SOL     OW 3768   2.071   3.648   0.232 -0.4887 -0.2933  0.3803
 1212SOL    HW1 3769   2.013   3.591   0.281  0.4535 -2.0916 -0.5126
 1212SOL    HW2 3770   2.034   3.736   0.244 -0.9464 -0.7727  3.3061
 1213SOL     OW 3771   3.023   3.598   0.725 -0.5701  0.2287 -0.2956
 1213SOL    HW1 3772   3.055   3.513   0.695  1.0031  0.4467  0.6534
 1213SOL    HW2 3773   2.996   3.584   0.816 -0.1442  0.7605 -0.0764
 1214SOL     OW 3774   1.972   3.414   1.499  0.7031  0.0913  0.0704
 1214SOL    HW1 3775   2.000   3.403   1.590  0.0216 -0.5291  0.2144
 1214SOL    HW2 3776   1.919   3.337   1.481  0.6087  0.3464 -0.7740
 1215SOL     OW 3777   2.420   2.724   1.376  0.4768  0.4156  0.0350
 1215SOL    HW1 3778   2.347   2.662   1.384 -0.3206  0.8598 -2.8996
 1215SOL    HW2 3779   2.461   2.703   1.292  0.5462  3.4430 -0.7902
 1216SOL     OW 3780   2.367   1.051   3.637 -1.5616  0.2701  0.7190
 1216SOL    HW1 3781   2.330   0.980   3.689 -1.9878 -0.7702 -0.9254
 1216SOL    HW2 3782   2.292   1.098   3.602 -1.2842  1.0915  1.2128
 1217SOL     OW 3783   1.579   3.089   1.416 -0.2673  0.8305 -0.3063
 1217SOL    HW1 3784   1.519   3.147   1.370 -1.0288 -0.1200 -0.5497
 1217SOL    HW2 3785   1.528   3.009   1.432  0.6750  0.3093  0.2196
 1218SOL     OW 3786   3.145   0.295   0.332  0.1166  0.3167 -0.0247
 1218SOL    HW1 3787   3.151   0.390   0.343 -0.1175  0.2223  1.0030
 1218SOL    HW2 3788   3.231   0.263   0.358  0.0593  0.2054  0.0246
 1219SOL     OW 3789   1.911   2.592   1.234  0.6961  0.1653 -0.0887
 1219SOL    HW1 3790   1.898   2.550   1.319 -2.3598  1.8804  0.4242
 1219SOL    HW2 3791   1.870   2.533   1.171  3.2417 -1.2651 -0.5384
 1220SOL     OW 3792   0.714   3.022   1.940 -0.0723 -0.5295 -0.0529
 1220SOL    HW1 3793   0.731   3.024   1.845  1.7788 -0.2027  0.2476
 1220SOL    HW2 3794   0.760   3.098   1.974 -1.4890 -0.1158  1.0324
 1221SOL     OW 3795   1.831   1.135   0.611 -0.7375 -0.2587 -0.0182
 1221SOL    HW1 3796   1.862   1.049   0.641 -0.4117 -0.2495 -0.3214
 1221SOL    HW2 3797   1.830   1.128   0.515  0.0161  0.3222 -0.0774
 1222SOL     OW 3798   2.949   3.017   0.576 -0.3541 -0.1489 -0.4727
 1222SOL    HW1 3799   2.886   2.953   0.609  1.1007 -1.3573  0.0976
 1222SOL    HW2 3800   2.912   3.048   0.494 -1.4631 -1.1606 -0.3724
 1223SOL     OW 3801   1.415   2.980   1.736 -0.6704  0.4331  0.6585
 1223SOL    HW1 3802   1.381   2.992   1.648 -0.8301 -1.1839  0.4754
 1223SOL    HW2 3803   1.501   3.022   1.734  0.2589 -1.3827 -0.9291
 1224SOL     OW 3804   3.025   1.764   1.796  0.2198 -0.1686 -0.1537
 1224SOL    HW1 3805   3.050   1.698   1.730  1.3776 -1.0627  1.1258
 1224SOL    HW2 3806   2.993   1.838   1.744  0.3025 -1.1554 -1.6932
 1225SOL     OW 3807   0.405   3.379   1.060 -0.4482 -0.2964  0.4116
 1225SOL    HW1 3808   0.459   3.457   1.044 -0.7514 -0.1772 -0.0530
 1225SOL    HW2 3809   0.460   3.306   1.032 -1.2207 -0.0610 -2.0350
 1226SOL     OW 3810   3.565   0.217   1.802 -0.5083  0.0865 -0.1907
 1226SOL    HW1 3811   3.628   0.289   1.809 -0.6650  0.3020 -0.9459
 1226SOL    HW2 3812   3.619   0.140   1.784 -0.2447 -0.1897  1.6214
 1227SOL     OW 3813   2.099   2.217   2.953  0.6355 -0.2137 -0.2199
 1227SOL    HW1 3814   2.191   2.223   2.926  0.9015 -0.9687  0.4621
 1227SOL    HW2 3815   2.058   2.297   2.919  2.0840  1.3575  1.4936
 1228SOL     OW 3816   3.398   1.280   0.094  0.1526  1.0692  0.4632
 1228SOL    HW1 3817   3.304   1.283   0.077  0.4809 -0.2225 -1.8949
 1228SOL    HW2 3818   3.412   1.198   0.141  0.0670  1.5033  1.2669
 1229SOL     OW 3819   0.352   2.938   1.197  0.5167  0.0964  0.1503
 1229SOL    HW1 3820   0.351   2.843   1.209  1.1473  0.1882  0.9685
 1229SOL    HW2 3821   0.283   2.954   1.133 -1.2869 -0.6679  1.7960
 1230SOL     OW 3822   0.814   2.593   1.874  0.7833  0.5283 -0.1379
 1230SOL    HW1 3823   0.761   2.656   1.825 -1.7817 -0.7178  0.8388
 1230SOL    HW2 3824   0.756   2.518   1.887  1.5653  0.3965  3.9373
 1231SOL     OW 3825   1.761   0.201   3.224  0.9634  0.4807 -0.3357
 1231SOL    HW1 3826   1.820   0.125   3.228  1.3635  0.6553 -2.1035
 1231SOL    HW2 3827   1.807   0.264   3.169 -0.0549  1.4007 -0.1550
 1232SOL     OW 3828   1.354   2.458   1.549 -0.3693  0.2151 -0.0703
 1232SOL    HW1 3829   1.351   2.419   1.461  1.6481 -0.1146 -0.0393
 1232SOL    HW2 3830   1.271   2.505   1.557 -1.7238 -1.8731 -1.1355
 1233SOL     OW 3831   1.849   3.527   2.076  0.2451  0.7469  0.4198
 1233SOL    HW1 3832   1.782   3.591   2.098  0.7302  1.0904  0.9326
 1233SOL    HW2 3833   1.925   3.580   2.050  0.1067  0.3665 -0.8687
 1234SOL     OW 3834   2.182   0.555   1.775 -0.7238  0.0367  0.5022
 1234SOL    HW1 3835   2.159   0.464   1.752 -1.5692  0.1018  1.0720
 1234SOL    HW2 3836   2.157   0.605   1.697 -1.8559  0.0048  0.8296
 1235SOL     OW 3837   2.768   2.041   1.412 -0.9856 -1.0351  0.1063
 1235SOL    HW1 3838   2.771   2.126   1.456 -2.6279 -1.3945  0.9827
 1235SOL    HW2 3839   2.845   1.994   1.445 -1.0861 -0.5611  1.0401
 1236SOL     OW 3840   2.384   1.284   2.059 -0.1637 -0.3909  0.2987
 1236SOL    HW1 3841   2.471   1.319   2.077 -0.6098  1.5029 -1.0277
 1236SOL    HW2 3842   2.335   1.357   2.023 -1.2544 -2.2911 -2.3951
 1237SOL     OW 3843   0.760   0.739   0.103  0.0595  1.0383  0.1661
 1237SOL    HW1 3844   0.745   0.649   0.132 -0.3408  0.6196 -1.2581
 1237SOL    HW2 3845   0.675   0.782   0.111  0.1487  1.1691  0.4253
 1238SOL     OW 3846   1.025   1.489   3.287  0.3216  0.0187  0.1587
 1238SOL    HW1 3847   0.965   1.522   3.220  0.3404  1.0364  0.6230
 1238SOL    HW2 3848   0.984   1.516   3.370  1.5135  0.9129  0.4790
 1239SOL     OW 3849   0.810   3.666   2.623  0.7085 -1.1153  0.8826
 1239SOL    HW1 3850   0.735   3.691   2.678 -0.6073  0.3361 -1.3801
 1239SOL    HW2 3851   0.862   3.746   2.616  0.0365 -0.7745 -1.0662
 1240SOL     OW 3852   1.420   2.219   1.032 -0.0194  0.6157  0.6895
 1240SOL    HW1 3853   1.375   2.181   1.108 -0.6558  1.4512  0.7544
 1240SOL    HW2 3854   1.381   2.306   1.023 -0.3866  0.3064 -0.9786
 1241SOL     OW 3855   2.987   1.026   0.425  0.3290 -0.4689  0.8873
 1241SOL    HW1 3856   2.975   1.008   0.518 -0.8668 -0.1920  0.8009
 1241SOL    HW2 3857   2.987   1.122   0.419 -0.0758 -0.4897  0.5470
 1242SOL     OW 3858   3.726   2.426   0.318 -0.0202 -0.0475 -0.5139
 1242SOL    HW1 3859   3.666   2.438   0.392  0.5597 -1.4897  0.2206
 1242SOL    HW2 3860   3.793   2.366   0.350  0.0252 -1.0562 -2.3347
 1243SOL     OW 3861   1.405   3.348   2.336  0.0477  0.3457 -0.3619
 1243SOL    HW1 3862   1.334   3.304   2.384  0.4291 -0.3794 -0.4502
 1243SOL    HW2 3863   1.443   3.279   2.282 -0.2930  1.1198 -1.6246
 1244SOL     OW 3864   1.715   2.979   2.585  0.0878  0.5372 -0.9899
 1244SOL    HW1 3865   1.761   3.049   2.538  2.6887 -0.8984 -0.7403
 1244SOL    HW2 3866   1.719   3.007   2.677  1.1470  0.1078 -0.8871
 1245SOL     OW 3867   1.771   0.766   3.161 -0.0252  0.3338 -0.4795
 1245SOL    HW1 3868   1.716   0.805   3.093  1.0430 -0.0333 -1.5893
 1245SOL    HW2 3869   1.710   0.745   3.232 -1.0747  1.2560 -1.0753
 1246SOL     OW 3870   0.161   1.524   1.179 -0.3860  0.0901  0.4650
 1246SOL    HW1 3871   0.132   1.450   1.125 -0.6438  1.3919 -1.2652
 1246SOL    HW2 3872   0.248   1.499   1.209 -0.4169 -0.8662 -0.1753
 1247SOL     OW 3873   0.976   1.331   0.435 -0.7260  0.1321  0.2911
 1247SOL    HW1 3874   1.023   1.406   0.471  0.5035 -0.5162  0.0966
 1247SOL    HW2 3875   0.896   1.368   0.398  0.8626  1.7292 -1.7950
 1248SOL     OW 3876   3.001   0.397   1.355 -0.6116  0.1253 -0.0391
 1248SOL    HW1 3877   3.080   0.430   1.311 -0.2210  0.2382  0.7320
 1248SOL    HW2 3878   3.034   0.350   1.431 -1.2999  0.3960  0.4367
 1249SOL     OW 3879   0.504   1.890   1.585  0.1736 -0.3512 -0.2176
 1249SOL    HW1 3880   0.457   1.809   1.566 -2.1025  1.3691 -2.5180
 1249SOL    HW2 3881   0.440   1.946   1.628  1.6049  0.3979  1.0162
 1250SOL     OW 3882   1.705   3.677   1.691 -1.0389  0.3019  0.2371
 1250SOL    HW1 3883   1.708   3.742   1.762 -3.6522  0.1054  0.6406
 1250SOL    HW2 3884   1.692   3.594   1.736 -0.3200 -0.1558 -0.3913
 1251SOL     OW 3885   2.120   1.740   0.225 -0.2366 -0.2944 -0.2615
 1251SOL    HW1 3886   2.162   1.662   0.262 -0.2501 -0.8387 -1.3476
 1251SOL    HW2 3887   2.062   1.706   0.157  1.1397  0.7487 -2.0454
 1252SOL     OW 3888   1.634   1.091   3.372 -0.0458 -0.4229  0.4016
 1252SOL    HW1 3889   1.668   1.056   3.454 -0.3900  1.2283  1.2903
 1252SOL    HW2 3890   1.707   1.138   3.333 -0.3642  0.3344  0.6873
 1253SOL     OW 3891   1.999   0.590   2.228 -0.0068  0.0504 -0.6721
 1253SOL    HW1 3892   2.054   0.644   2.172  1.2590 -1.0602 -0.5484
 1253SOL    HW2 3893   2.043   0.505   2.230 -1.7123 -0.8719 -0.5197
 1254SOL     OW 3894   2.587   0.229   2.125  0.2005  0.2421 -0.1641
 1254SOL    HW1 3895   2.619   0.258   2.040  0.2856 -1.4587 -0.7424
 1254SOL    HW2 3896   2.664   0.196   2.170  0.1441  1.0759  0.5777
 1255SOL     OW 3897   1.696   0.663   2.190 -0.3163  0.3072 -0.1239
 1255SOL    HW1 3898   1.685   0.748   2.149 -0.0488  1.5079  2.1330
 1255SOL    HW2 3899   1.791   0.651   2.197 -0.3485  0.6243  1.0524
 1256SOL     OW 3900   3.042   1.006   2.925  0.2788  0.0306  0.2774
 1256SOL    HW1 3901   3.090   1.088   2.912  1.0126 -0.3572  0.4326
 1256SOL    HW2 3902   3.111   0.940   2.935 -0.3007 -0.6099  0.1205
 1257SOL     OW 3903   3.574   3.569   1.662 -0.0723 -0.1462  0.2034
 1257SOL    HW1 3904   3.645   3.631   1.644  1.3281 -2.1780 -2.0782
 1257SOL    HW2 3905   3.596   3.492   1.609 -3.6711 -1.1678 -0.0860
 1258SOL     OW 3906   2.761   0.743   3.084  0.4569 -0.9776 -1.0514
 1258SOL    HW1 3907   2.809   0.667   3.051 -1.9412 -2.6497 -0.9590
 1258SOL    HW2 3908   2.735   0.718   3.173 -1.0876 -0.4084 -1.3185
 1259SOL     OW 3909   2.431   0.163   2.393 -0.5722 -0.3509 -0.3082
 1259SOL    HW1 3910   2.517   0.201   2.373 -0.4137  0.9076  2.2824
 1259SOL    HW2 3911   2.421   0.177   2.488 -3.4193 -0.9403 -0.4491
 1260SOL     OW 3912   0.570   0.690   1.748 -0.6013  0.7476 -0.0219
 1260SOL    HW1 3913   0.648   0.713   1.798  0.3149 -2.1875  0.1049
 1260SOL    HW2 3914   0.603   0.669   1.660 -1.5221  1.2206 -0.4976
 1261SOL     OW 3915   0.991   3.503   1.187 -0.3744  0.1360  0.1671
 1261SOL    HW1 3916   1.035   3.582   1.154 -1.8381  0.4513 -1.1645
 1261SOL    HW2 3917   0.928   3.536   1.252  0.1096 -0.1223  0.7767
 1262SOL     OW 3918   1.845   2.927   3.551 -0.6193 -0.4061  0.0769
 1262SOL    HW1 3919   1.848   3.003   3.609 -1.6355 -1.0090  0.9398
 1262SOL    HW2 3920   1.927   2.880   3.568 -0.9577 -0.6319  1.1079
 1263SOL     OW 3921   3.015   3.348   2.146 -0.0779  0.2831  0.4214
 1263SOL    HW1 3922   2.977   3.324   2.230 -2.4667 -1.3483 -1.0132
 1263SOL    HW2 3923   3.068   3.426   2.165 -0.6186  0.0466  3.3597
 1264SOL     OW 3924   1.526   0.143   3.467 -0.2787  0.2369  0.5144
 1264SOL    HW1 3925   1.577   0.145   3.386  0.9120 -1.8500  1.1523
 1264SOL    HW2 3926   1.439   0.116   3.439  0.2996 -1.1472 -0.0248
 1265SOL     OW 3927   2.366   1.388   2.440  0.0441 -0.0801  0.0467
 1265SOL    HW1 3928   2.398   1.347   2.521  0.4458 -1.2460 -0.6764
 1265SOL    HW2 3929   2.443   1.432   2.404 -0.6874  2.6322  1.5273
 1266SOL     OW 3930   1.801   0.613   1.155  0.3507  0.1307 -0.7327
 1266SOL    HW1 3931   1.717   0.572   1.178  1.1690 -0.9181  0.5065
 1266SOL    HW2 3932   1.800   0.697   1.201  0.8070 -0.7639  0.9829
 1267SOL     OW 3933   0.565   1.531   3.607 -0.2343  0.0572 -0.1375
 1267SOL    HW1 3934   0.613   1.466   3.556 -2.1868 -0.4994 -1.3545
 1267SOL    HW2 3935   0.627   1.604   3.617  1.3865 -1.2448 -0.2381
 1268SOL     OW 3936   2.092   1.232   0.498  0.0776  0.4968 -0.7036
 1268SOL    HW1 3937   2.068   1.325   0.500  1.8737  0.9851  0.5948
 1268SOL    HW2 3938   2.025   1.191   0.444 -1.4202  2.3591 -0.3548
 1269SOL     OW 3939   3.130   1.823   2.056 -0.0841  0.1477 -0.5266
 1269SOL    HW1 3940   3.099   1.778   1.977 -0.2333 -0.0472 -0.3557
 1269SOL    HW2 3941   3.160   1.908   2.024 -0.9025  0.3874 -0.6741
 1270SOL     OW 3942   3.343   2.601   1.763 -0.5502 -0.1167  0.1972
 1270SOL    HW1 3943   3.301   2.551   1.834  1.2555 -0.2414  1.2534
 1270SOL    HW2 3944   3.431   2.565   1.758 -0.8458 -0.6551 -2.7266
 1271SOL     OW 3945   0.982   2.851   2.029 -0.5334 -0.4865  0.1491
 1271SOL    HW1 3946   1.010   2.914   1.963  0.8696  0.8131  1.9049
 1271SOL    HW2 3947   0.886   2.855   2.026 -0.5058  2.2695  0.6493
 1272SOL     OW 3948   1.553   1.885   1.878 -0.2038 -0.0759  0.4597
 1272SOL    HW1 3949   1.471   1.835   1.871 -0.4626  0.0790  1.9235
 1272SOL    HW2 3950   1.586   1.864   1.966  0.8831  0.5418  0.2159
 1273SOL     OW 3951   1.907   2.132   3.515 -0.8040 -0.0621  0.2076
 1273SOL    HW1 3952   1.844   2.105   3.582 -1.1805  1.5339  0.5396
 1273SOL    HW2 3953   1.990   2.097   3.545 -1.2689 -0.9037  0.5532
 1274SOL     OW 3954   2.824   1.097   3.540  0.0196  0.1502  0.2222
 1274SOL    HW1 3955   2.815   1.075   3.633  0.7263 -1.0962  0.0233
 1274SOL    HW2 3956   2.918   1.095   3.523 -0.0764  0.7931 -0.4272
 1275SOL     OW 3957   0.030   3.699   3.120  0.3360  0.2575 -0.2813
 1275SOL    HW1 3958   0.013   3.725   3.030  1.0995  0.1724 -0.4592
 1275SOL    HW2 3959  -0.039   3.636   3.141 -0.6150  1.2592 -0.3619
 1276SOL     OW 3960   2.639   0.495   0.267 -0.0827  0.0509  1.1938
 1276SOL    HW1 3961   2.612   0.508   0.176  0.9389 -1.7019  0.5995
 1276SOL    HW2 3962   2.715   0.552   0.278 -0.4434  0.5583  1.0682
 1277SOL     OW 3963   3.157  -0.001   0.472 -0.3798 -0.0689  0.1202
 1277SOL    HW1 3964   3.191   0.077   0.429 -1.3953  0.7836  0.8377
 1277SOL    HW2 3965   3.163  -0.070   0.405  2.0408  0.1890 -0.0274
 1278SOL     OW 3966   2.963   3.293   1.523 -0.3519  0.0150  0.3112
 1278SOL    HW1 3967   2.938   3.279   1.432  0.5596  2.1126 -0.3206
 1278SOL    HW2 3968   2.891   3.256   1.574 -0.2914 -2.3462 -1.1922
 1279SOL     OW 3969   1.319   0.126   0.972 -0.1496  0.2650 -0.2047
 1279SOL    HW1 3970   1.411   0.131   0.947  0.0752 -1.6318  0.0804
 1279SOL    HW2 3971   1.317   0.066   1.047 -1.5812  0.5085 -0.0053
 1280SOL     OW 3972   1.222   1.011   3.327 -0.0702 -0.2085  0.1725
 1280SOL    HW1 3973   1.154   0.960   3.283  1.1122  0.9300 -3.2931
 1280SOL    HW2 3974   1.186   1.100   3.331 -0.0524 -0.2383  1.3864
 1281SOL     OW 3975   1.139   3.062   1.035  0.3130 -0.0156 -0.2615
 1281SOL    HW1 3976   1.073   3.126   1.008  0.2499 -0.3793 -1.0122
 1281SOL    HW2 3977   1.088   2.992   1.077  0.4140  0.5628  0.8666
 1282SOL     OW 3978   0.287   0.837   1.355  0.5612  0.5407  0.0555
 1282SOL    HW1 3979   0.328   0.874   1.277  0.3183  1.1220  0.1902
 1282SOL    HW2 3980   0.193   0.853   1.342  0.2534 -1.5646 -0.6662
 1283SOL     OW 3981   2.881   2.879   3.420 -0.4543  0.3666  0.5504
 1283SOL    HW1 3982   2.797   2.924   3.413 -0.2280  0.5703 -1.1037
 1283SOL    HW2 3983   2.871   2.822   3.497 -2.6767 -0.7603 -0.4692
 1284SOL     OW 3984   1.534   1.957   3.052 -0.1258  0.5481 -0.1068
 1284SOL    HW1 3985   1.510   1.888   3.115  1.6514  0.6090  0.6911
 1284SOL    HW2 3986   1.545   2.036   3.106  1.6939  0.5399 -0.4136
 1285SOL     OW 3987   2.011   1.711   1.642  0.5064  0.5197  0.1759
 1285SOL    HW1 3988   2.090   1.663   1.667  1.9056  3.4627  1.9353
 1285SOL    HW2 3989   1.949   1.693   1.713 -0.4112 -1.5528 -1.0582
 1286SOL     OW 3990   0.096   1.625   3.118 -0.8034 -0.1283  0.3626
 1286SOL    HW1 3991   0.090   1.709   3.073  0.2067  0.1393  0.7105
 1286SOL    HW2 3992   0.099   1.561   3.046 -2.2002  0.0583  0.1034
 1287SOL     OW 3993   2.778   1.354   3.344 -0.1700  0.0882  0.2264
 1287SOL    HW1 3994   2.719   1.282   3.323  0.2769 -0.5362  1.0623
 1287SOL    HW2 3995   2.843   1.316   3.404  1.2039  0.7127 -0.8054
 1288SOL     OW 3996   1.447   2.162   1.532 -0.4483 -0.2595  0.1252
 1288SOL    HW1 3997   1.443   2.197   1.621 -0.8333 -1.0805  0.4514
 1288SOL    HW2 3998   1.494   2.079   1.542 -0.3058 -0.2539 -0.4767
 1289SOL     OW 3999   1.830   3.187   1.411  0.2419  0.3116 -0.5039
 1289SOL    HW1 4000   1.745   3.143   1.409 -0.2560  1.2326 -2.3566
 1289SOL    HW2 4001   1.883   3.136   1.472 -1.6001 -0.3406  0.6305
 1290SOL     OW 4002   3.169   3.144   1.641 -1.0360  0.1639 -0.3292
 1290SOL    HW1 4003   3.112   3.068   1.648 -1.2748  0.3085 -0.6787
 1290SOL    HW2 4004   3.116   3.211   1.598 -0.9893  0.6978  0.4252
 1291SOL     OW 4005   1.902   3.199   3.589  0.0595  0.1416  0.4171
 1291SOL    HW1 4006   1.980   3.225   3.638  1.6691 -3.8748  0.3598
 1291SOL    HW2 4007   1.931   3.191   3.499 -0.9946  0.5985  0.0224
 1292SOL     OW 4008   0.056   0.425   2.986 -0.4387  0.3809 -0.4345
 1292SOL    HW1 4009   0.082   0.354   3.045 -1.6264 -0.2100 -0.5968
 1292SOL    HW2 4010   0.114   0.497   3.008  2.8703 -1.4901 -2.2582
 1293SOL     OW 4011   0.256   2.951   0.224 -0.2568 -0.2725 -0.4366
 1293SOL    HW1 4012   0.294   2.918   0.143 -0.4431  0.6114 -0.8939
 1293SOL    HW2 4013   0.189   2.887   0.247  1.4064 -1.8411  0.3579
 1294SOL     OW 4014   3.525   3.251   2.944 -0.2691  0.7025 -1.2020
 1294SOL    HW1 4015   3.594   3.209   2.893  0.7412  0.4236  0.3259
 1294SOL    HW2 4016   3.484   3.312   2.883  0.4080 -0.1278 -2.5371
 1295SOL     OW 4017   2.009   1.132   2.239  0.7869  0.4118 -0.2067
 1295SOL    HW1 4018   2.033   1.070   2.307  1.4225 -1.5253 -2.0900
 1295SOL    HW2 4019   1.962   1.080   2.174  1.8748  1.7244 -2.1689
 1296SOL     OW 4020   2.554   1.193   3.252 -0.1784  1.2396  0.2330
 1296SOL    HW1 4021   2.502   1.267   3.285  1.3618  1.5870  2.1037
 1296SOL    HW2 4022   2.515   1.116   3.294 -2.2032  0.8266 -2.2373
 1297SOL     OW 4023   2.806   1.395   2.484  0.8326  0.1647  0.1712
 1297SOL    HW1 4024   2.847   1.412   2.569  1.2067  0.4347 -0.0608
 1297SOL    HW2 4025   2.806   1.480   2.440  1.8511 -0.2319 -0.6282
 1298SOL     OW 4026   3.090   0.938   0.171 -0.2640 -0.2880  0.3063
 1298SOL    HW1 4027   3.054   0.995   0.239  0.0456  0.4423 -0.1239
 1298SOL    HW2 4028   3.181   0.923   0.198 -0.1077  0.0948  0.0054
 1299SOL     OW 4029   3.041   3.335   0.658  0.1069 -0.1658 -0.4726
 1299SOL    HW1 4030   3.041   3.239   0.660 -0.5212 -0.1962 -1.2052
 1299SOL    HW2 4031   3.039   3.357   0.565  0.6499  0.5662 -0.3210
 1300SOL     OW 4032   1.502   0.847   0.807 -0.4251  0.1394  0.5403
 1300SOL    HW1 4033   1.423   0.887   0.842 -0.3026 -0.6155  1.7419
 1300SOL    HW2 4034   1.479   0.819   0.719 -0.7326  2.1538 -0.0496
 1301SOL     OW 4035   3.090   0.280   1.793  0.3702 -0.4594 -0.4768
 1301SOL    HW1 4036   3.089   0.291   1.888  0.5717 -1.2230 -0.3769
 1301SOL    HW2 4037   3.180   0.297   1.768  0.6310 -1.5611 -0.3492
 1302SOL     OW 4038   3.369   0.720   3.184  0.1438  0.2044 -0.3079
 1302SOL    HW1 4039   3.422   0.640   3.191  0.6655  0.5355 -0.4843
 1302SOL    HW2 4040   3.359   0.750   3.275 -0.7748 -0.5254 -0.1541
 1303SOL     OW 4041   0.465   0.134   1.684 -0.2096 -0.1065 -0.3714
 1303SOL    HW1 4042   0.442   0.138   1.777 -0.3525 -1.5610 -0.3126
 1303SOL    HW2 4043   0.401   0.190   1.641  1.6978  3.0843  0.6521
 1304SOL     OW 4044   3.508   1.875   1.145  0.1150  0.3065 -0.0142
 1304SOL    HW1 4045   3.474   1.935   1.211  0.0495  0.8746 -0.5557
 1304SOL    HW2 4046   3.575   1.824   1.192  0.3720  0.9922  0.3868
 1305SOL     OW 4047   3.271   2.047   3.018  0.5744  0.1384  0.0154
 1305SOL    HW1 4048   3.187   2.094   3.025  0.1983  0.0342 -2.8235
 1305SOL    HW2 4049   3.336   2.117   3.011  0.1064  0.3830 -3.2588
 1306SOL     OW 4050   0.360   2.648   1.205 -0.5178 -0.9028  0.2752
 1306SOL    HW1 4051   0.303   2.646   1.127  2.6782  0.5992 -2.3573
 1306SOL    HW2 4052   0.424   2.579   1.189  0.0112 -0.8087  1.8327
 1307SOL     OW 4053   1.759   0.484   2.706  0.7032  0.2743 -0.5735
 1307SOL    HW1 4054   1.826   0.423   2.674  1.2259 -0.8093  2.2705
 1307SOL    HW2 4055   1.676   0.441   2.689  0.7220  1.0312 -2.9273
 1308SOL     OW 4056   0.034   1.350   0.020 -0.0873 -0.3167  0.0571
 1308SOL    HW1 4057  -0.056   1.371  -0.008 -0.1515  0.1268  0.5869
 1308SOL    HW2 4058   0.066   1.431   0.058 -0.4532 -1.2431  2.4778
 1309SOL     OW 4059   1.234   1.571   3.646 -0.6240 -0.0222  0.2867
 1309SOL    HW1 4060   1.229   1.477   3.660 -3.3634  0.0677  0.4775
 1309SOL    HW2 4061   1.182   1.609   3.717 -0.1331  1.5927 -0.1651
 1310SOL     OW 4062   1.189   1.622   0.261 -0.4851  0.0523  0.5967
 1310SOL    HW1 4063   1.169   1.695   0.202  0.4535  0.5446  0.8790
 1310SOL    HW2 4064   1.244   1.660   0.329  1.0977 -1.1651  0.0589
 1311SOL     OW 4065   2.420   0.271   0.850  0.3466 -0.2589  0.1761
 1311SOL    HW1 4066   2.428   0.366   0.835  1.0060 -0.2266  0.7233
 1311SOL    HW2 4067   2.329   0.252   0.826  0.5012  0.3176 -0.9544
 1312SOL     OW 4068   1.718   0.879   1.212  0.1860  0.5677  0.4021
 1312SOL    HW1 4069   1.624   0.859   1.219  0.2141 -0.0060 -0.6555
 1312SOL    HW2 4070   1.729   0.911   1.122  0.4829  3.6415  1.3889
 1313SOL     OW 4071   2.785   0.677   2.692 -0.2657  0.2697  0.4695
 1313SOL    HW1 4072   2.800   0.770   2.702  2.0780  0.0300 -0.2096
 1313SOL    HW2 4073   2.694   0.670   2.663  0.2493  2.5758 -2.1328
 1314SOL     OW 4074   1.828   0.841   0.685  0.8755 -0.0887 -0.1998
 1314SOL    HW1 4075   1.869   0.780   0.623 -1.5652 -1.8705 -0.2095
 1314SOL    HW2 4076   1.842   0.802   0.771  1.8611  0.9341  0.1214
 1315SOL     OW 4077   2.231   0.055   1.629  0.3092  0.7223  0.1391
 1315SOL    HW1 4078   2.175  -0.015   1.597  0.7632  0.5535 -0.3093
 1315SOL    HW2 4079   2.259   0.101   1.550  0.3707  1.1307  0.3968
 1316SOL     OW 4080   0.192   0.708   1.575  0.0866  0.3786  0.5791
 1316SOL    HW1 4081   0.220   0.781   1.521 -2.6042  2.6941  2.0048
 1316SOL    HW2 4082   0.244   0.716   1.655  0.0438  0.5251  0.5928
 1317SOL     OW 4083   0.347   2.173   0.992  0.3674 -0.1887  0.0791
 1317SOL    HW1 4084   0.327   2.129   0.909  1.0788 -0.5564  0.0990
 1317SOL    HW2 4085   0.430   2.217   0.977  0.5056 -0.2640  0.5997
 1318SOL     OW 4086   1.160   2.365   3.388 -0.3358 -0.4177 -0.3506
 1318SOL    HW1 4087   1.095   2.332   3.450  0.0942 -0.9158 -0.1609
 1318SOL    HW2 4088   1.228   2.403   3.443 -1.5876  2.3672 -0.5592
 1319SOL     OW 4089   2.039   0.310   2.927 -0.1742 -0.2894 -0.4688
 1319SOL    HW1 4090   1.975   0.357   2.980  0.7583  1.1323 -0.5530
 1319SOL    HW2 4091   2.124   0.336   2.962  0.3928 -1.8833 -0.5695
 1320SOL     OW 4092   1.645   1.928   0.961 -0.4030  0.2967  0.5872
 1320SOL    HW1 4093   1.645   2.023   0.966  0.5382  0.4928 -1.6400
 1320SOL    HW2 4094   1.712   1.901   1.024  0.0050  1.1906  0.5540
 1321SOL     OW 4095   1.134   2.430   1.993  0.1666 -0.0109  0.1944
 1321SOL    HW1 4096   1.212   2.411   1.941 -0.1641 -1.2585  0.1124
 1321SOL    HW2 4097   1.092   2.345   2.004  0.8216 -0.0437  3.5036
 1322SOL     OW 4098   0.962   0.840   2.168 -0.2298 -0.6108 -0.0696
 1322SOL    HW1 4099   0.928   0.926   2.146 -2.2014 -1.5609 -0.8910
 1322SOL    HW2 4100   0.931   0.824   2.257  0.7395 -0.2210  0.3607
 1323SOL     OW 4101   0.772   1.706   2.339  0.0844  0.8434 -0.0511
 1323SOL    HW1 4102   0.795   1.773   2.403 -0.9561  0.9397  0.2432
 1323SOL    HW2 4103   0.834   1.635   2.356  0.8848  1.5239 -0.0471
 1324SOL     OW 4104   1.529   0.740   2.623  0.3108  0.0677 -0.3519
 1324SOL    HW1 4105   1.554   0.805   2.689 -1.3838 -0.4771  0.8702
 1324SOL    HW2 4106   1.568   0.658   2.654 -2.2301 -0.6530  1.2267
 1325SOL     OW 4107   2.877   2.282   1.626  0.2387  0.9535 -0.4171
 1325SOL    HW1 4108   2.920   2.211   1.674 -1.0134 -0.2455 -0.9768
 1325SOL    HW2 4109   2.787   2.281   1.659 -0.1000  1.4807 -1.3007
 1326SOL     OW 4110   3.126   3.267   0.933 -0.0603 -0.0962  0.2377
 1326SOL    HW1 4111   3.089   3.312   0.858  0.0326 -1.9885 -1.0039
 1326SOL    HW2 4112   3.119   3.330   1.005  0.5121  2.0385 -1.4908
 1327SOL     OW 4113   3.052   0.674   0.027  0.2495 -0.4610 -0.9451
 1327SOL    HW1 4114   3.092   0.751   0.068 -1.2884 -0.0256 -0.1735
 1327SOL    HW2 4115   2.981   0.710  -0.026  1.7041 -1.0696 -3.5021
 1328SOL     OW 4116   2.609   2.099   1.200  0.4992  0.8374 -0.3364
 1328SOL    HW1 4117   2.668   2.092   1.275  0.3963  1.4070 -0.1960
 1328SOL    HW2 4118   2.667   2.105   1.124  0.7251  3.3975 -0.0502
 1329SOL     OW 4119   3.674   0.484   1.791  0.0554  0.7438 -0.5569
 1329SOL    HW1 4120   3.696   0.529   1.873  0.8664  0.6970 -0.7494
 1329SOL    HW2 4121   3.651   0.555   1.731 -2.2876  0.7193  0.1832
 1330SOL     OW 4122   0.759   0.902   0.848 -0.0419 -0.4957 -0.6174
 1330SOL    HW1 4123   0.667   0.885   0.865 -0.5278  1.8516 -0.4925
 1330SOL    HW2 4124   0.779   0.981   0.899  1.8421 -0.5401 -1.1783
 1331SOL     OW 4125   1.462   0.490   0.985 -0.5365  0.6253 -0.7084
 1331SOL    HW1 4126   1.482   0.471   0.893 -0.6609 -0.1375 -0.5844
 1331SOL    HW2 4127   1.376   0.450   0.999  0.2748 -0.8699  0.2256
 1332SOL     OW 4128   2.293   3.181   2.519 -0.0484  0.1877 -0.0734
 1332SOL    HW1 4129   2.308   3.148   2.431  1.7746  0.4025  0.1300
 1332SOL    HW2 4130   2.251   3.108   2.565 -1.6255  0.2913 -1.2499
 1333SOL     OW 4131   1.858   3.732   2.307  0.7211  0.0645 -0.0785
 1333SOL    HW1 4132   1.830   3.642   2.294  0.4262  0.2142 -0.5129
 1333SOL    HW2 4133   1.952   3.726   2.326  0.8664 -0.2704 -0.8996
 1334SOL     OW 4134   1.899   3.537   0.394  0.8950 -0.1895 -0.2685
 1334SOL    HW1 4135   1.803   3.541   0.398  0.6638 -3.0292 -1.0180
 1334SOL    HW2 4136   1.923   3.483   0.469  1.8837  0.1352 -0.3444
 1335SOL     OW 4137   3.206   1.297   1.599 -0.1263 -0.1094 -0.1998
 1335SOL    HW1 4138   3.143   1.347   1.649 -1.9388 -2.6270  0.2576
 1335SOL    HW2 4139   3.203   1.334   1.511 -0.9483  0.9076  0.2462
 1336SOL     OW 4140   0.181   1.926   1.070 -0.0353  0.4990 -0.1067
 1336SOL    HW1 4141   0.107   1.867   1.084 -1.3616  2.4705  1.7821
 1336SOL    HW2 4142   0.180   1.944   0.976  0.7564 -2.7538 -0.8792
 1337SOL     OW 4143   0.053   1.258   1.357 -0.1022 -0.4130  0.4741
 1337SOL    HW1 4144   0.004   1.292   1.282 -2.5527  1.0033  2.5740
 1337SOL    HW2 4145   0.111   1.330   1.383  0.3188 -0.6938  0.3395
 1338SOL     OW 4146   1.091   0.249   0.521 -0.0142 -0.0172  1.1375
 1338SOL    HW1 4147   1.020   0.261   0.458  1.1721 -0.2095 -0.2710
 1338SOL    HW2 4148   1.073   0.163   0.560  0.0359 -0.5698 -0.0140
 1339SOL     OW 4149   2.168   2.837   3.565  0.0633 -0.1474  0.6029
 1339SOL    HW1 4150   2.178   2.812   3.657 -0.5047 -2.0515  0.2010
 1339SOL    HW2 4151   2.194   2.759   3.516  0.4004  0.8426 -0.8691
 1340SOL     OW 4152   1.937   0.651   3.579 -0.2787  0.2004  0.3336
 1340SOL    HW1 4153   1.887   0.571   3.592 -0.3076  0.2058  0.2537
 1340SOL    HW2 4154   1.878   0.721   3.606 -0.1425  0.1747  0.7089
 1341SOL     OW 4155   0.722   3.444   1.366  0.5212 -0.5256  0.1318
 1341SOL    HW1 4156   0.715   3.530   1.324 -0.0241  0.1859  1.6182
 1341SOL    HW2 4157   0.638   3.401   1.348  0.6165 -0.5684 -0.2182
 1342SOL     OW 4158   0.427   3.600   0.491 -0.7981  0.8711 -0.9086
 1342SOL    HW1 4159   0.365   3.592   0.563 -0.8760  2.3433 -0.7794
 1342SOL    HW2 4160   0.378   3.646   0.423 -0.5665 -0.0534 -1.7259
 1343SOL     OW 4161   0.457   2.377   2.896  0.4533 -0.3272 -0.3842
 1343SOL    HW1 4162   0.426   2.301   2.947 -0.8717  0.9899  0.8783
 1343SOL    HW2 4163   0.404   2.375   2.816  0.9400 -1.1232 -0.7001
 1344SOL     OW 4164   0.755   1.223   0.618  0.3316 -0.9654 -0.8316
 1344SOL    HW1 4165   0.838   1.266   0.636  0.0657  0.8035 -3.4242
 1344SOL    HW2 4166   0.776   1.129   0.619  2.3477 -0.5606 -1.4181
 1345SOL     OW 4167   1.385   2.696   2.568  0.2364  0.4641  0.3575
 1345SOL    HW1 4168   1.344   2.767   2.618  0.6500  1.2127 -0.3436
 1345SOL    HW2 4169   1.374   2.619   2.624 -1.1810  0.8499  0.6687
 1346SOL     OW 4170   1.222   0.481   1.225 -0.1301 -0.7789  0.1964
 1346SOL    HW1 4171   1.250   0.565   1.190  0.7649 -1.9781 -2.1369
 1346SOL    HW2 4172   1.259   0.478   1.313 -0.8283  1.5511  0.6269
 1347SOL     OW 4173   2.127   2.225   0.876 -0.0436  0.4533 -0.3753
 1347SOL    HW1 4174   2.067   2.177   0.820  0.3827 -0.4475 -0.0855
 1347SOL    HW2 4175   2.214   2.191   0.853  0.2376  0.8592  0.0614
 1348SOL     OW 4176   0.284   0.773   3.259  0.0742  0.0316 -0.1026
 1348SOL    HW1 4177   0.297   0.866   3.281 -1.6561  0.3388 -0.1913
 1348SOL    HW2 4178   0.190   0.759   3.271  0.4141 -1.9310  0.6644
 1349SOL     OW 4179   3.655   1.836   2.627  0.1660 -0.0159  0.2243
 1349SOL    HW1 4180   3.586   1.878   2.678 -0.3707 -1.4519  0.7333
 1349SOL    HW2 4181   3.626   1.843   2.536  0.6119  1.6165  0.1780
 1350SOL     OW 4182   1.200   3.346   0.063 -0.2292 -0.7823 -0.0542
 1350SOL    HW1 4183   1.229   3.333   0.153 -2.2051 -1.1906  0.5834
 1350SOL    HW2 4184   1.149   3.427   0.065 -3.0030 -2.3835  0.0019
 1351SOL     OW 4185   3.263   1.004   0.420  0.0312 -0.1531  0.2523
 1351SOL    HW1 4186   3.172   1.033   0.416  0.6542  1.8174 -3.1890
 1351SOL    HW2 4187   3.257   0.914   0.454 -2.9951  0.3519  1.4316
 1352SOL     OW 4188   3.286   0.788   1.449 -0.4743  0.5253 -0.0083
 1352SOL    HW1 4189   3.203   0.826   1.478 -0.2637  0.8572  0.1696
 1352SOL    HW2 4190   3.285   0.798   1.354  0.0238  1.9182  0.1107
 1353SOL     OW 4191   3.192   3.663   2.577  0.1978 -0.0662  0.0844
 1353SOL    HW1 4192   3.161   3.707   2.497  2.1591 -2.4317 -2.1705
 1353SOL    HW2 4193   3.173   3.725   2.647 -0.3073  2.8323 -2.3815
 1354SOL     OW 4194   2.407   3.447   1.434  0.6372  0.3606  0.3709
 1354SOL    HW1 4195   2.488   3.398   1.417  1.4554  1.5726  0.5818
 1354SOL    HW2 4196   2.382   3.482   1.348 -0.0213 -0.5307  0.1964
 1355SOL     OW 4197   3.498   2.494   0.494  0.9030 -0.5645  0.2797
 1355SOL    HW1 4198   3.417   2.451   0.465 -0.8248  1.9114  1.0481
 1355SOL    HW2 4199   3.511   2.462   0.583 -1.6587  1.9788  1.7048
 1356SOL     OW 4200   1.395   0.253   1.802 -0.1251  0.1203  1.0344
 1356SOL    HW1 4201   1.391   0.335   1.752  0.7828 -1.4956 -1.9757
 1356SOL    HW2 4202   1.312   0.210   1.784  0.0260 -0.2940  1.3136
 1357SOL     OW 4203   3.333   2.826   1.093  0.0320 -0.0520 -0.2911
 1357SOL    HW1 4204   3.265   2.879   1.050 -1.7030 -1.6782  0.2983
 1357SOL    HW2 4205   3.348   2.754   1.032  1.9102  0.7297 -0.8010
 1358SOL     OW 4206   1.229  -0.002   1.252  0.0298  0.4676  0.6118
 1358SOL    HW1 4207   1.297  -0.064   1.276  0.8788  0.4979 -1.5301
 1358SOL    HW2 4208   1.260   0.082   1.285  1.2077  0.5291 -0.5789
 1359SOL     OW 4209   2.470   0.339   3.445  0.0575  0.2318 -0.4111
 1359SOL    HW1 4210   2.420   0.418   3.424 -1.1639 -0.5706 -0.5755
 1359SOL    HW2 4211   2.490   0.300   3.360 -1.6030 -1.0018 -0.2689
 1360SOL     OW 4212   1.692   1.351   2.447 -0.0079  0.4843  0.3577
 1360SOL    HW1 4213   1.772   1.386   2.408 -0.3648  0.2826 -0.5892
 1360SOL    HW2 4214   1.709   1.351   2.541  1.4761 -0.4361  0.1308
 1361SOL     OW 4215   2.560   2.150   2.035  0.2343  0.2526 -0.1181
 1361SOL    HW1 4216   2.653   2.168   2.022  0.1503  0.0643 -1.0271
 1361SOL    HW2 4217   2.529   2.223   2.089  0.5960  1.1338 -1.0652
 1362SOL     OW 4218   0.090   2.628   0.591 -0.7417 -0.2652 -0.0128
 1362SOL    HW1 4219   0.023   2.682   0.548  0.7644  0.0643 -2.0857
 1362SOL    HW2 4220   0.054   2.612   0.679 -3.2218  0.4276 -0.8001
 1363SOL     OW 4221   1.265   0.792   2.939  0.2850  0.3278 -0.5294
 1363SOL    HW1 4222   1.330   0.727   2.965 -0.1603 -0.0599 -0.3617
 1363SOL    HW2 4223   1.230   0.759   2.856 -0.8392 -0.3283  0.1749
 1364SOL     OW 4224   2.400   3.545   0.732  0.7191 -0.9620 -0.3664
 1364SOL    HW1 4225   2.370   3.565   0.644 -0.8153 -0.0675  0.3231
 1364SOL    HW2 4226   2.468   3.479   0.720  0.0164 -1.4116 -2.1525
 1365SOL     OW 4227   0.266   1.710   1.771 -0.1830 -0.4984  0.5729
 1365SOL    HW1 4228   0.201   1.780   1.766  1.4581  1.0271 -0.6418
 1365SOL    HW2 4229   0.333   1.745   1.831  1.8949  0.1517 -1.9596
 1366SOL     OW 4230   1.610   2.214   3.299 -0.0861 -0.0459 -0.3905
 1366SOL    HW1 4231   1.594   2.270   3.375 -0.3401 -1.1937  0.4251
 1366SOL    HW2 4232   1.555   2.251   3.230  0.4263  1.2324 -0.1476
 1367SOL     OW 4233   0.142   2.222   0.547  0.0677  0.1146 -0.0114
 1367SOL    HW1 4234   0.105   2.152   0.494 -1.1628  1.1355 -0.5686
 1367SOL    HW2 4235   0.231   2.232   0.514  0.6770 -1.9476  0.8894
 1368SOL     OW 4236   0.905   3.248   2.265  0.1646 -0.1386 -0.0713
 1368SOL    HW1 4237   0.987   3.200   2.252 -0.2349 -0.6410 -0.8894
 1368SOL    HW2 4238   0.892   3.249   2.359  0.8753 -0.4690  0.0362
 1369SOL     OW 4239   2.214   3.567   3.112 -0.1414 -0.6581  0.3010
 1369SOL    HW1 4240   2.143   3.503   3.104 -0.2421 -0.6476  1.0030
 1369SOL    HW2 4241   2.193   3.636   3.049 -1.2000 -0.2464  1.0938
 1370SOL     OW 4242   0.613   3.442   3.591 -0.0323  0.5411  0.3424
 1370SOL    HW1 4243   0.624   3.347   3.602  0.2594  0.6065  0.6359
 1370SOL    HW2 4244   0.522   3.458   3.614 -0.2478  0.2553 -0.2679
 1371SOL     OW 4245   1.279   3.643   0.424 -0.0217  0.4069 -0.1328
 1371SOL    HW1 4246   1.293   3.681   0.338 -1.3871  0.5309 -0.3233
 1371SOL    HW2 4247   1.185   3.629   0.429  0.1586 -0.6173  0.9162
 1372SOL     OW 4248   0.425   2.707   0.699 -0.0570 -0.1567  0.2288
 1372SOL    HW1 4249   0.502   2.657   0.674  0.1870 -0.1927  1.0379
 1372SOL    HW2 4250   0.390   2.740   0.616  0.4742 -0.6436 -0.1968
 1373SOL     OW 4251   0.384   1.191   2.210  0.1063  0.2509  0.0129
 1373SOL    HW1 4252   0.293   1.168   2.192  1.1187 -1.8555 -3.4301
 1373SOL    HW2 4253   0.386   1.287   2.209 -2.1950  0.3688  1.2841
 1374SOL     OW 4254   0.864   0.833   0.442  0.2473 -0.4074 -0.0500
 1374SOL    HW1 4255   0.923   0.905   0.465  1.5700 -2.1495  2.5719
 1374SOL    HW2 4256   0.836   0.852   0.352  1.9464  2.3780 -0.1069
 1375SOL     OW 4257   1.432   0.659   3.578  0.1457 -0.8856 -0.7449
 1375SOL    HW1 4258   1.390   0.573   3.569 -2.1508 -0.1170  1.5237
 1375SOL    HW2 4259   1.373   0.720   3.534  1.6325 -0.3819 -2.1192
 1376SOL     OW 4260   1.066   1.483   2.703 -0.3783  0.2490  0.4845
 1376SOL    HW1 4261   0.983   1.448   2.671 -0.1408 -0.2986  0.4507
 1376SOL    HW2 4262   1.087   1.429   2.779 -0.5451  1.0292  1.1064
 1377SOL     OW 4263   0.077   2.725   2.729 -0.0710  0.0377 -0.1953
 1377SOL    HW1 4264   0.104   2.753   2.642 -1.4032  0.9144 -0.3593
 1377SOL    HW2 4265  -0.018   2.737   2.730  0.0696  1.6149  1.8919
 1378SOL     OW 4266   1.582   2.184   2.781 -0.3135 -0.3070  0.7588
 1378SOL    HW1 4267   1.621   2.195   2.867 -3.5561 -2.8656  2.7750
 1378SOL    HW2 4268   1.563   2.091   2.774 -1.3232  0.0019 -2.2366
 1379SOL     OW 4269   1.457   1.834   0.782 -0.3623  0.0372 -0.3167
 1379SOL    HW1 4270   1.535   1.882   0.809 -1.7514  2.2167  0.0266
 1379SOL    HW2 4271   1.401   1.833   0.860 -1.3596 -0.0527 -1.0128
 1380SOL     OW 4272   1.065   3.725   0.628 -0.0044  0.3205  0.2466
 1380SOL    HW1 4273   1.058   3.644   0.679  0.6027  0.8176  1.1610
 1380SOL    HW2 4274   1.027   3.704   0.543 -1.1823 -0.4952  0.9535
 1381SOL     OW 4275   1.737   1.951   0.386 -0.1922 -0.4194  0.1995
 1381SOL    HW1 4276   1.788   2.020   0.428  0.1685 -0.5243 -0.0618
 1381SOL    HW2 4277   1.696   1.994   0.310  0.1961 -0.5365 -0.0807
 1382SOL     OW 4278   3.139   2.551   2.557  0.0079 -0.1116 -0.3966
 1382SOL    HW1 4279   3.070   2.518   2.499  0.2978 -1.1779 -0.1560
 1382SOL    HW2 4280   3.113   2.523   2.645  0.0825  0.6225 -0.1344
 1383SOL     OW 4281   0.726   2.135   1.872  0.5809  0.0941 -0.6163
 1383SOL    HW1 4282   0.675   2.216   1.880 -0.6071 -0.7166  0.3519
 1383SOL    HW2 4283   0.692   2.094   1.793 -0.7785 -0.7521  0.3682
 1384SOL     OW 4284   1.613   2.322   3.558  0.7983  0.3697  0.3954
 1384SOL    HW1 4285   1.609   2.288   3.647  1.2006  0.8809  0.6183
 1384SOL    HW2 4286   1.537   2.380   3.551  0.0878 -0.5929  0.0009
 1385SOL     OW 4287   0.577   2.281   0.907 -0.5255  0.2726 -0.0721
 1385SOL    HW1 4288   0.642   2.213   0.892  0.5115  1.0852  0.5469
 1385SOL    HW2 4289   0.564   2.321   0.821  1.3703  1.4347  0.1353
 1386SOL     OW 4290  -0.004   3.003   0.886  0.1894  0.1864  0.4090
 1386SOL    HW1 4291   0.013   3.070   0.952  0.4938  0.7932 -0.2730
 1386SOL    HW2 4292   0.076   2.999   0.834 -1.0307  1.8661 -1.7766
 1387SOL     OW 4293   1.598   1.906   1.571  0.2119  0.1260  0.5667
 1387SOL    HW1 4294   1.670   1.880   1.628  0.8350 -0.3768 -0.4226
 1387SOL    HW2 4295   1.618   1.865   1.487 -2.0120 -1.3154  0.6720
 1388SOL     OW 4296   3.370   2.473   2.461 -0.1220 -0.0474  0.2619
 1388SOL    HW1 4297   3.384   2.529   2.385  1.0038  0.2454  0.6624
 1388SOL    HW2 4298   3.293   2.510   2.504  0.2892  0.8724  0.2303
 1389SOL     OW 4299   0.622   1.569   0.809  0.2523  0.2409  0.1912
 1389SOL    HW1 4300   0.665   1.509   0.871  2.5393 -0.1370 -1.6023
 1389SOL    HW2 4301   0.657   1.655   0.829  0.8494  0.1484 -0.4099
 1390SOL     OW 4302   0.570   2.687   2.621  0.0053  0.5032  0.3490
 1390SOL    HW1 4303   0.621   2.606   2.629  1.1733  1.2633  0.9029
 1390SOL    HW2 4304   0.521   2.676   2.540 -0.9344 -1.3344  1.1152
 1391SOL     OW 4305   2.334   1.098   2.522 -0.0298 -0.0120 -0.1878
 1391SOL    HW1 4306   2.248   1.119   2.558  0.7614  0.2357  1.6492
 1391SOL    HW2 4307   2.333   1.138   2.435 -1.8176 -0.1455 -0.2725
 1392SOL     OW 4308  -0.021   1.534   3.521  0.1955  0.0891 -0.4416
 1392SOL    HW1 4309   0.074   1.547   3.512  0.3525 -0.4579  0.3292
 1392SOL    HW2 4310  -0.039   1.548   3.614 -0.4355 -0.0798 -0.5332
 1393SOL     OW 4311   2.989   1.568   3.307  0.1634 -0.0884 -0.5922
 1393SOL    HW1 4312   2.904   1.577   3.350 -0.1018 -0.0960 -1.1023
 1393SOL    HW2 4313   2.984   1.483   3.262  1.1105 -0.9367  0.8379
 1394SOL     OW 4314   2.688   0.422   2.749  0.6560 -0.2504  0.2395
 1394SOL    HW1 4315   2.689   0.386   2.660 -1.8731 -0.3829  0.1727
 1394SOL    HW2 4316   2.729   0.508   2.740 -0.9913  0.4326 -1.4575
 1395SOL     OW 4317   0.288   2.373   1.547  0.6815 -0.8767  0.2328
 1395SOL    HW1 4318   0.286   2.453   1.494 -1.1356 -0.9833  0.0684
 1395SOL    HW2 4319   0.196   2.354   1.564  1.0971 -2.7420  0.5810
 1396SOL     OW 4320   3.523   1.859   2.405  0.0881 -0.0375 -0.2023
 1396SOL    HW1 4321   3.553   1.947   2.380 -1.4740  0.3071 -0.9674
 1396SOL    HW2 4322   3.460   1.835   2.338 -0.6137 -1.1387  0.8163
 1397SOL     OW 4323   2.644   0.311   1.009  0.2710  0.1397  0.1968
 1397SOL    HW1 4324   2.683   0.331   0.924 -0.3338 -0.1676 -0.1575
 1397SOL    HW2 4325   2.569   0.255   0.989 -0.2446  0.5667  0.8804
 1398SOL     OW 4326   0.951   1.495   2.253 -0.3702 -0.0963 -0.3209
 1398SOL    HW1 4327   0.972   1.412   2.295 -1.1964  1.0607  2.6710
 1398SOL    HW2 4328   1.016   1.556   2.288 -1.6115  1.1041 -0.0269
 1399SOL     OW 4329   0.884   1.819   0.888  0.3333 -0.0369 -0.2464
 1399SOL    HW1 4330   0.963   1.870   0.906  2.3491 -2.4931 -1.5526
 1399SOL    HW2 4331   0.854   1.790   0.975  1.6938 -0.2066  0.1820
 1400SOL     OW 4332   0.614   2.549   0.576 -0.1972  0.5258  0.1080
 1400SOL    HW1 4333   0.705   2.557   0.604  0.0256  1.0927 -0.7286
 1400SOL    HW2 4334   0.603   2.456   0.556  0.2382  0.4726  0.1092
 1401SOL     OW 4335   1.175   1.042   3.023 -0.0498  0.8404 -0.0908
 1401SOL    HW1 4336   1.094   1.042   2.972 -0.0894  1.7470 -0.0453
 1401SOL    HW2 4337   1.219   0.960   3.000  0.9134  2.0922 -3.1087
 1402SOL     OW 4338   3.317   2.355   1.000 -0.0363 -0.1541 -0.2395
 1402SOL    HW1 4339   3.360   2.404   1.070  1.5820 -0.8827 -0.6599
 1402SOL    HW2 4340   3.364   2.379   0.920 -2.0446  0.8895 -1.1742
 1403SOL     OW 4341   2.862   2.496   2.030 -0.5173 -0.1852 -0.5374
 1403SOL    HW1 4342   2.872   2.525   1.939  0.9276  1.4855  0.0788
 1403SOL    HW2 4343   2.792   2.551   2.065  0.2523  0.5955 -0.1570
 1404SOL     OW 4344   3.347   0.345   1.737  0.4889  0.6575 -0.4792
 1404SOL    HW1 4345   3.416   0.284   1.763  2.0323  2.4524 -0.1513
 1404SOL    HW2 4346   3.365   0.424   1.787 -1.6777  1.2967 -0.5979
 1405SOL     OW 4347   2.797   3.517   1.244 -0.7614  0.0797  0.2509
 1405SOL    HW1 4348   2.792   3.519   1.339 -0.4219  0.2882  0.2698
 1405SOL    HW2 4349   2.721   3.467   1.216 -0.2266 -1.0210  0.6892
 1406SOL     OW 4350   3.195   2.859   0.373  0.9728 -0.5474  0.0037
 1406SOL    HW1 4351   3.223   2.804   0.300  2.5735  1.8198 -1.3012
 1406SOL    HW2 4352   3.100   2.868   0.362  0.8342 -2.1492 -0.3309
 1407SOL     OW 4353   0.270   3.605   0.721 -0.0457  1.1855  0.1174
 1407SOL    HW1 4354   0.192   3.601   0.665  0.1866 -0.1758 -0.1285
 1407SOL    HW2 4355   0.239   3.649   0.800 -1.0508  0.7475 -0.0114
 1408SOL     OW 4356   0.115   0.674   3.562 -0.3700 -0.3612  0.1718
 1408SOL    HW1 4357   0.063   0.614   3.509 -0.7370 -0.7254  0.9278
 1408SOL    HW2 4358   0.053   0.711   3.625  0.2072 -0.5670  0.8829
 1409SOL     OW 4359   2.873   0.231   3.247 -0.3121  0.0554  0.0814
 1409SOL    HW1 4360   2.899   0.322   3.233  0.2212 -0.2055 -0.7041
 1409SOL    HW2 4361   2.789   0.223   3.201 -0.3354  0.1338  0.1104
 1410SOL     OW 4362   3.547   0.157   1.082  0.1003  0.1911  0.1297
 1410SOL    HW1 4363   3.464   0.181   1.122 -0.1908 -1.1283  0.3769
 1410SOL    HW2 4364   3.523   0.105   1.005  0.6705 -0.7888  0.5837
 1411SOL     OW 4365   2.965   2.268   3.314  0.1972 -0.1530  0.2019
 1411SOL    HW1 4366   2.877   2.293   3.284 -0.0017 -1.0803 -0.0000
 1411SOL    HW2 4367   3.018   2.346   3.298 -0.8857  0.9457  1.7000
 1412SOL     OW 4368   1.827   2.187   2.968 -0.4078 -0.1376 -0.5432
 1412SOL    HW1 4369   1.790   2.161   3.052 -2.9925  3.6380 -0.2582
 1412SOL    HW2 4370   1.922   2.176   2.979 -0.8262 -2.4175  1.7423
 1413SOL     OW 4371   0.201   2.899   1.929  0.2422 -0.2861  0.6776
 1413SOL    HW1 4372   0.215   2.985   1.968 -0.4350  0.3293 -0.3957
 1413SOL    HW2 4373   0.116   2.871   1.965  0.0655 -0.1356  0.3776
 1414SOL     OW 4374   0.870   0.029   3.736  0.4006  0.1777 -0.8005
 1414SOL    HW1 4375   0.957   0.059   3.762  1.1892 -1.4785 -1.4356
 1414SOL    HW2 4376   0.885  -0.054   3.691 -1.5017 -0.0783 -1.0462
 1415SOL     OW 4377   1.721   1.157   0.016 -0.1726 -0.3269  0.3163
 1415SOL    HW1 4378   1.814   1.175   0.024 -0.1800 -0.0543 -0.2207
 1415SOL    HW2 4379   1.687   1.170   0.105 -0.1615  2.1553  0.0246
 1416SOL     OW 4380   2.095   1.804   0.899  0.1682 -0.4143  0.2302
 1416SOL    HW1 4381   2.164   1.860   0.863  1.7633 -2.0799  0.5623
 1416SOL    HW2 4382   2.017   1.827   0.848  1.2396  0.6263 -1.0290
 1417SOL     OW 4383   1.006   2.375   2.353 -0.0870  0.4531  0.5349
 1417SOL    HW1 4384   1.098   2.350   2.361 -0.1392  0.1314  0.1831
 1417SOL    HW2 4385   0.960   2.314   2.412  0.0724  1.6444  1.9494
 1418SOL     OW 4386   1.451   3.538   1.286 -0.4777 -0.3163 -0.0894
 1418SOL    HW1 4387   1.416   3.514   1.372 -0.9693  0.0401 -0.1909
 1418SOL    HW2 4388   1.492   3.457   1.254 -1.2874 -0.7657 -0.0134
 1419SOL     OW 4389   2.751   2.340   3.162  0.1556  0.4938 -0.6206
 1419SOL    HW1 4390   2.681   2.323   3.099 -0.3577  0.5602 -0.0871
 1419SOL    HW2 4391   2.763   2.435   3.159  0.1791  0.4892 -0.6722
 1420SOL     OW 4392   3.435   2.062   0.881  0.0806  0.1454 -0.2975
 1420SOL    HW1 4393   3.494   2.080   0.808  0.8371 -0.6654  0.0873
 1420SOL    HW2 4394   3.366   2.006   0.843  0.5649 -0.4164 -0.3627
 1421SOL     OW 4395   1.772   1.404   0.245  0.5321  0.2885  0.0887
 1421SOL    HW1 4396   1.866   1.393   0.260  0.2816 -2.6710  0.2170
 1421SOL    HW2 4397   1.732   1.387   0.330 -0.1683 -0.7693 -0.4193
 1422SOL     OW 4398   3.132   0.093   2.777  0.2490 -0.4605  0.4086
 1422SOL    HW1 4399   3.121   0.187   2.761 -0.0778 -0.6566 -0.5369
 1422SOL    HW2 4400   3.063   0.072   2.840  1.3461  0.2418  1.9386
 1423SOL     OW 4401   1.790   1.468   3.660  0.5549 -0.1765 -0.5957
 1423SOL    HW1 4402   1.705   1.470   3.616  0.8027  3.3548 -1.2146
 1423SOL    HW2 4403   1.788   1.544   3.719  2.5541 -1.1991  0.9095
 1424SOL     OW 4404   1.330   0.267   2.068 -0.8640 -0.3292  0.0359
 1424SOL    HW1 4405   1.379   0.298   1.992 -1.3797 -0.3323 -0.3041
 1424SOL    HW2 4406   1.397   0.246   2.133 -0.4680  0.8071  0.0189
 1425SOL     OW 4407   0.542   1.405   2.511 -0.5165 -0.4842 -0.0931
 1425SOL    HW1 4408   0.496   1.437   2.433 -1.3497 -2.1498 -0.3287
 1425SOL    HW2 4409   0.483   1.425   2.583 -0.3605 -0.1640 -0.0528
 1426SOL     OW 4410   0.550   2.272   0.024 -0.0136 -0.0762 -0.4440
 1426SOL    HW1 4411   0.640   2.246   0.045  0.0061 -0.4178 -0.9149
 1426SOL    HW2 4412   0.500   2.190   0.029 -0.7763  0.4614  2.0725
 1427SOL     OW 4413   3.572   0.564   1.038 -0.2692  0.7778 -0.6604
 1427SOL    HW1 4414   3.565   0.544   0.944  0.8241 -2.4494 -0.1962
 1427SOL    HW2 4415   3.520   0.495   1.080  1.4868  0.5068  1.1763
 1428SOL     OW 4416   2.158   0.802   0.512 -0.5007 -0.1203 -0.7496
 1428SOL    HW1 4417   2.201   0.877   0.470 -0.5346  0.2700 -0.1050
 1428SOL    HW2 4418   2.094   0.842   0.572  0.4290 -0.6299  0.6160
 1429SOL     OW 4419   2.362   0.629   0.493 -0.2963 -0.3573 -0.2210
 1429SOL    HW1 4420   2.347   0.584   0.410 -0.4106 -3.1519  1.2028
 1429SOL    HW2 4421   2.283   0.681   0.507 -0.8326 -0.8783 -1.2470
 1430SOL     OW 4422   0.340   1.571   3.249 -0.0842  0.3751 -0.7622
 1430SOL    HW1 4423   0.381   1.593   3.166 -0.7777 -0.9379 -1.4946
 1430SOL    HW2 4424   0.246   1.567   3.229 -0.1312 -1.6459 -0.3855
 1431SOL     OW 4425   1.366   2.464   3.608 -0.5676 -0.2532 -0.2079
 1431SOL    HW1 4426   1.377   2.558   3.597 -3.1750  0.0446 -0.8262
 1431SOL    HW2 4427   1.376   2.450   3.702  0.5394  0.5001 -0.1918
 1432SOL     OW 4428   3.088   0.360   2.898  0.7228 -0.1892  0.3505
 1432SOL    HW1 4429   3.053   0.285   2.947  0.1442 -1.6125 -2.0570
 1432SOL    HW2 4430   3.021   0.427   2.906  0.7523 -0.2792  1.6521
 1433SOL     OW 4431   1.996   2.500   2.677 -0.0535  0.3273 -0.1837
 1433SOL    HW1 4432   1.931   2.499   2.607  1.7980 -1.4824 -2.0453
 1433SOL    HW2 4433   1.946   2.486   2.757 -1.9303 -1.2512 -1.5433
 1434SOL     OW 4434   1.085   0.391   2.097  0.1559 -0.3461 -0.0243
 1434SOL    HW1 4435   1.069   0.476   2.057 -1.4938 -0.5213  0.1761
 1434SOL    HW2 4436   1.177   0.373   2.081  0.9497  2.1695  1.3009
 1435SOL     OW 4437   1.462   0.668   1.376  0.4479 -0.2197 -0.0318
 1435SOL    HW1 4438   1.439   0.757   1.402  3.8248  1.1112 -1.0751
 1435SOL    HW2 4439   1.489   0.675   1.285  0.5102 -2.3991 -0.2478
 1436SOL     OW 4440   3.242   2.315   1.386  0.1812 -0.3323  0.1164
 1436SOL    HW1 4441   3.153   2.287   1.363 -0.1147  1.0100 -0.5399
 1436SOL    HW2 4442   3.241   2.410   1.371  1.7430 -0.2991  0.0537
 1437SOL     OW 4443   2.018   1.849   3.481  0.4536 -0.0088  0.2792
 1437SOL    HW1 4444   2.055   1.763   3.499  0.8252  0.3803  1.4963
 1437SOL    HW2 4445   1.924   1.835   3.479  0.5489 -0.7422 -1.3667
 1438SOL     OW 4446   0.161   2.166   3.330 -0.0441 -0.5995  0.4494
 1438SOL    HW1 4447   0.077   2.124   3.346 -0.0569  0.0983  2.5320
 1438SOL    HW2 4448   0.223   2.115   3.382  0.8008 -0.9268 -0.8273
 1439SOL     OW 4449   3.596   1.379   3.353 -0.1852  0.0889  0.4922
 1439SOL    HW1 4450   3.543   1.429   3.290  1.2535 -0.3190 -1.1382
 1439SOL    HW2 4451   3.619   1.443   3.420 -0.9116  0.8260  0.0648
 1440SOL     OW 4452   0.910   1.770   2.644  0.5908 -0.7151  0.7902
 1440SOL    HW1 4453   0.879   1.859   2.629  4.9903  1.0365  0.8908
 1440SOL    HW2 4454   0.830   1.721   2.667 -1.9113  3.3187  1.6705
 1441SOL     OW 4455   0.149   2.124   2.894  0.8718  0.2719  0.3442
 1441SOL    HW1 4456   0.117   2.137   2.805  2.0380  0.0988 -0.1104
 1441SOL    HW2 4457   0.077   2.079   2.939  0.4378 -0.0136 -0.6208
 1442SOL     OW 4458   3.630   0.733   3.712 -0.6965 -0.1968  0.2899
 1442SOL    HW1 4459   3.577   0.693   3.643 -2.1810  0.3650  1.0719
 1442SOL    HW2 4460   3.620   0.674   3.787  0.5793 -0.5858  0.1783
 1443SOL     OW 4461   3.567   3.330   1.194  0.6216  0.5260  0.3410
 1443SOL    HW1 4462   3.536   3.264   1.133  2.2875  1.3807 -1.5648
 1443SOL    HW2 4463   3.488   3.376   1.223 -0.3313 -0.7865 -0.0978
 1444SOL     OW 4464   3.228   2.743   3.065 -0.0691 -0.1195 -0.3671
 1444SOL    HW1 4465   3.152   2.801   3.058  0.9710  1.3512 -0.0856
 1444SOL    HW2 4466   3.289   2.777   3.000  1.3546  0.3863  1.1608
 1445SOL     OW 4467   2.423   3.343   0.012 -0.1672 -0.1910  0.0547
 1445SOL    HW1 4468   2.490   3.337   0.080  1.3217  1.5686 -1.1743
 1445SOL    HW2 4469   2.445   3.272  -0.048  0.0303 -0.1987  0.1333
 1446SOL     OW 4470   2.711   1.170   2.367  0.1657  0.1372 -0.2728
 1446SOL    HW1 4471   2.670   1.128   2.443 -0.7219  1.2169 -0.1302
 1446SOL    HW2 4472   2.735   1.258   2.398 -1.0960  0.9489 -1.4870
 1447SOL     OW 4473   3.582   2.269   3.327  0.6550 -0.0774  0.7171
 1447SOL    HW1 4474   3.652   2.289   3.390  0.1296 -0.1382  1.3371
 1447SOL    HW2 4475   3.522   2.213   3.377  2.1126 -3.4007 -0.9157
 1448SOL     OW 4476   2.447   0.696   1.026  0.3378  1.0124 -0.3771
 1448SOL    HW1 4477   2.465   0.775   1.077  2.4350 -0.1535  0.8094
 1448SOL    HW2 4478   2.382   0.649   1.078 -0.3389  1.5575 -0.7040
 1449SOL     OW 4479   0.560   0.613   3.411  0.3253 -0.0845 -0.2095
 1449SOL    HW1 4480   0.486   0.622   3.472 -1.6711  2.2848 -2.7120
 1449SOL    HW2 4481   0.637   0.634   3.464 -1.0980  0.3577  1.8342
 1450SOL     OW 4482   2.286   0.491   0.253 -0.4290 -0.2967  0.2658
 1450SOL    HW1 4483   2.378   0.478   0.232 -0.5545  2.4257 -2.7626
 1450SOL    HW2 4484   2.242   0.414   0.217  0.3618  0.2618 -2.1408
 1451SOL     OW 4485   1.458   2.378   2.429 -0.2357 -0.2130 -0.0633
 1451SOL    HW1 4486   1.459   2.407   2.520 -0.3248  1.1317 -0.4716
 1451SOL    HW2 4487   1.409   2.446   2.382 -1.7298 -1.7383 -0.8446
 1452SOL     OW 4488   3.251   2.680   0.169 -0.3017 -0.0790  0.6216
 1452SOL    HW1 4489   3.330   2.646   0.126 -0.9375 -0.2310 -0.4759
 1452SOL    HW2 4490   3.183   2.618   0.143 -0.8512  0.2484  1.2770
 1453SOL     OW 4491   3.442   3.182   0.978 -0.0062  0.1536  0.0243
 1453SOL    HW1 4492   3.484   3.207   0.896 -0.2829 -0.2655 -0.2477
 1453SOL    HW2 4493   3.349   3.172   0.956  0.3139 -2.9123 -0.3491
 1454SOL     OW 4494   0.796   3.638   2.982 -0.2625 -0.1398 -0.1636
 1454SOL    HW1 4495   0.757   3.717   2.944  2.0295  0.7957 -0.7636
 1454SOL    HW2 4496   0.741   3.567   2.950 -2.4914  1.1942  0.5291
 1455SOL     OW 4497   0.161   3.392   2.940 -0.6276 -0.3693 -0.1364
 1455SOL    HW1 4498   0.139   3.347   3.021  0.3885 -0.4195  0.1317
 1455SOL    HW2 4499   0.126   3.480   2.950  0.1413 -0.1439  0.6876
 1456SOL     OW 4500   1.076   1.572   0.539 -0.2862  0.3855 -0.7880
 1456SOL    HW1 4501   1.055   1.585   0.631  0.6333 -0.4143 -0.4430
 1456SOL    HW2 4502   1.166   1.603   0.531 -0.0550 -0.3815 -1.2095
 1457SOL     OW 4503   1.335   3.652   2.688 -0.3108  0.6449  0.2396
 1457SOL    HW1 4504   1.430   3.656   2.681 -0.3244  0.1436 -0.2700
 1457SOL    HW2 4505   1.308   3.741   2.709  0.2503  0.8403  0.1246
 1458SOL     OW 4506   3.361   3.263   0.598 -0.2698  0.0119  0.7923
 1458SOL    HW1 4507   3.343   3.356   0.587 -0.6419 -0.1381  0.0599
 1458SOL    HW2 4508   3.454   3.254   0.577 -0.7130 -0.0985 -1.4463
 1459SOL     OW 4509   2.910   1.015   2.042 -0.5824 -0.0988  0.5856
 1459SOL    HW1 4510   2.905   0.920   2.053 -0.7638 -0.0464  0.9832
 1459SOL    HW2 4511   3.004   1.032   2.030 -0.6167 -0.3883 -0.1246
 1460SOL     OW 4512   0.167   2.500   2.156  0.1762 -0.4972 -0.3282
 1460SOL    HW1 4513   0.177   2.480   2.249  0.2339  0.8488 -0.0307
 1460SOL    HW2 4514   0.253   2.482   2.118  0.5413  0.2424  0.1337
 1461SOL     OW 4515   2.667   2.657   2.150  0.5353 -0.2366 -0.6685
 1461SOL    HW1 4516   2.631   2.744   2.136  2.5556  0.6589 -0.7102
 1461SOL    HW2 4517   2.726   2.668   2.225  0.4733 -1.6871 -0.3767
 1462SOL     OW 4518   0.560   1.162   1.996  0.4733  0.3199 -0.4559
 1462SOL    HW1 4519   0.485   1.180   2.053  1.0299  2.4777 -0.3193
 1462SOL    HW2 4520   0.619   1.235   2.011  1.2354  0.2607 -2.8445
 1463SOL     OW 4521   0.344   3.571   1.231 -0.7337 -0.2060  0.2116
 1463SOL    HW1 4522   0.365   3.488   1.188  1.4368  0.0558  0.6366
 1463SOL    HW2 4523   0.254   3.561   1.261 -1.6439 -1.1390 -2.6076
 1464SOL     OW 4524   3.415   2.195   0.407 -0.2560 -0.7774 -0.2039
 1464SOL    HW1 4525   3.448   2.121   0.459  0.9788  0.3923  0.7595
 1464SOL    HW2 4526   3.424   2.166   0.316 -0.0785 -1.9292  0.1618
 1465SOL     OW 4527   1.292   1.334   0.593  0.3535 -0.2409  0.1451
 1465SOL    HW1 4528   1.302   1.326   0.499 -1.7583 -2.6265  0.0519
 1465SOL    HW2 4529   1.367   1.287   0.630  0.6078 -0.2134 -0.3389
 1466SOL     OW 4530   0.839   1.971   2.115  0.1291 -0.3377  0.7708
 1466SOL    HW1 4531   0.786   2.036   2.069 -0.3037 -1.1022  0.1620
 1466SOL    HW2 4532   0.896   1.934   2.047  0.7360 -0.2381  1.2179
 1467SOL     OW 4533   0.668   2.855   1.187 -0.1058  0.1027  0.1111
 1467SOL    HW1 4534   0.621   2.878   1.268  1.0113  0.9264  0.5395
 1467SOL    HW2 4535   0.604   2.805   1.136 -1.1704  0.4715  1.0498
 1468SOL     OW 4536   0.264   3.217   2.745 -0.1116  0.1078  0.4829
 1468SOL    HW1 4537   0.222   3.274   2.809 -1.9737  0.5182 -0.9961
 1468SOL    HW2 4538   0.331   3.271   2.704 -0.7179  0.6967  0.2621
 1469SOL     OW 4539   3.522   2.234   2.947 -0.0546 -0.0701  0.2564
 1469SOL    HW1 4540   3.450   2.284   2.985 -1.5832  0.4332 -2.9421
 1469SOL    HW2 4541   3.601   2.280   2.976 -1.2797  2.4220 -0.0902
 1470SOL     OW 4542   1.501   1.596   1.946 -0.0169 -0.0693 -0.2040
 1470SOL    HW1 4543   1.568   1.583   1.879 -0.0284  0.8775 -0.4237
 1470SOL    HW2 4544   1.549   1.594   2.029  0.0266 -1.0453 -0.2446
 1471SOL     OW 4545   2.793   0.925   2.722  0.4171  0.3788 -0.6161
 1471SOL    HW1 4546   2.831   0.970   2.797  0.9205 -3.2139  1.5164
 1471SOL    HW2 4547   2.709   0.969   2.708 -0.2950  0.4621  2.9460
 1472SOL     OW 4548   1.873   0.628   0.888  0.2929  0.3140 -0.6839
 1472SOL    HW1 4549   1.922   0.554   0.924  1.1291  0.3992 -1.6183
 1472SOL    HW2 4550   1.835   0.671   0.965  0.3391 -0.6928 -0.0790
 1473SOL     OW 4551   3.283   2.223   0.687  0.8264 -0.4123 -0.0044
 1473SOL    HW1 4552   3.251   2.313   0.693  1.0727 -0.3940  1.6274
 1473SOL    HW2 4553   3.338   2.212   0.765  1.5023 -1.7076 -0.6228
 1474SOL     OW 4554   1.358   3.353   3.186 -0.0429 -0.2184  0.2676
 1474SOL    HW1 4555   1.436   3.406   3.169 -1.1986  1.8562  0.9886
 1474SOL    HW2 4556   1.302   3.368   3.110 -1.0597  1.0195  1.2064
 1475SOL     OW 4557   0.166   1.949   1.616  0.0594  0.1455  0.0174
 1475SOL    HW1 4558   0.071   1.936   1.625 -0.1247  1.2294 -0.2562
 1475SOL    HW2 4559   0.182   1.944   1.522  0.6302 -2.1775  0.1671
 1476SOL     OW 4560   3.126   0.853   2.530  0.8925  0.2695  0.1333
 1476SOL    HW1 4561   3.044   0.903   2.531 -0.6234 -1.9522  2.9623
 1476SOL    HW2 4562   3.135   0.821   2.440 -1.7895 -0.0345 -0.0978
 1477SOL     OW 4563   2.488   2.282   2.290  0.1076  0.2386 -0.1974
 1477SOL    HW1 4564   2.548   2.314   2.358  0.8088  1.9152 -1.5357
 1477SOL    HW2 4565   2.400   2.300   2.325  0.4728  2.1731 -0.1713
 1478SOL     OW 4566   1.857   1.249   1.797  0.0319 -0.6072 -0.4695
 1478SOL    HW1 4567   1.936   1.217   1.754  0.7637  1.4258 -0.7680
 1478SOL    HW2 4568   1.809   1.170   1.822  3.4726 -2.0712  2.2911
 1479SOL     OW 4569   1.463   3.216   2.733  0.1712  0.5039  0.3322
 1479SOL    HW1 4570   1.384   3.270   2.737  0.9498  1.6936  0.0110
 1479SOL    HW2 4571   1.435   3.137   2.687 -0.8297  0.9203  0.1870
 1480SOL     OW 4572   1.203   3.172   2.436  0.4580 -0.3371  0.6273
 1480SOL    HW1 4573   1.183   3.124   2.356 -0.0398  1.0533 -0.1019
 1480SOL    HW2 4574   1.119   3.181   2.481  0.4645  0.2504  0.5273
 1481SOL     OW 4575   0.345   1.065   0.382  0.1441  0.0231  0.0372
 1481SOL    HW1 4576   0.268   1.099   0.337  0.1286 -0.4589 -0.3101
 1481SOL    HW2 4577   0.402   1.141   0.392  0.9340 -0.1582 -2.4163
 1482SOL     OW 4578   0.812   1.721   3.693  0.2256  0.0823 -0.1807
 1482SOL    HW1 4579   0.831   1.782   3.765  1.1899  0.6214 -0.8846
 1482SOL    HW2 4580   0.844   1.637   3.725  0.4189  0.2685  0.1301
 1483SOL     OW 4581   1.519   1.021   2.269 -0.9472 -0.1512 -0.2380
 1483SOL    HW1 4582   1.508   1.112   2.243 -4.1362 -0.6500 -1.0519
 1483SOL    HW2 4583   1.548   1.024   2.360 -0.6737  1.6234 -0.3583
 1484SOL     OW 4584   2.330   1.858   1.804 -0.5631 -0.2444  0.1212
 1484SOL    HW1 4585   2.407   1.879   1.857 -1.1999  0.3147  0.8498
 1484SOL    HW2 4586   2.287   1.786   1.850 -2.3212  1.6652  1.6577
 1485SOL     OW 4587   1.016   2.322   0.050 -0.1559  0.1061  0.0553
 1485SOL    HW1 4588   1.026   2.349   0.142 -0.8678  0.6897 -0.0248
 1485SOL    HW2 4589   0.950   2.252   0.053 -1.3804  1.2073 -0.1556
 1486SOL     OW 4590   1.033   3.460   2.592 -0.5308  0.2273  0.2951
 1486SOL    HW1 4591   1.072   3.516   2.525 -0.8302  0.1351  0.0403
 1486SOL    HW2 4592   0.953   3.506   2.618 -2.0184 -1.1406 -1.5601
 1487SOL     OW 4593   0.876   0.671   2.382 -0.2816  0.9398  0.5635
 1487SOL    HW1 4594   0.815   0.745   2.375  0.4285  1.5610  0.8562
 1487SOL    HW2 4595   0.880   0.651   2.475 -0.4086  0.5810  0.4945
 1488SOL     OW 4596   3.081   2.503   2.199 -0.0296  0.3028 -0.9739
 1488SOL    HW1 4597   3.037   2.451   2.267  0.0323  0.4641 -0.8101
 1488SOL    HW2 4598   3.021   2.502   2.125  0.3960 -0.8431 -1.3325
 1489SOL     OW 4599   1.895   0.382   0.699 -0.7168 -0.5188  0.2702
 1489SOL    HW1 4600   1.875   0.335   0.618 -0.5919 -1.4916  0.7830
 1489SOL    HW2 4601   1.814   0.429   0.720 -0.5403  0.2616 -0.7501
 1490SOL     OW 4602   2.318   1.070   1.562  0.0594  0.5234 -0.4219
 1490SOL    HW1 4603   2.382   1.027   1.619 -0.5338  1.2804  0.8671
 1490SOL    HW2 4604   2.297   1.004   1.496  1.3328 -0.1211 -0.2206
 1491SOL     OW 4605   0.132   3.622   2.625  0.0729 -0.2150 -0.4024
 1491SOL    HW1 4606   0.201   3.573   2.582 -0.7938 -0.5856 -1.4163
 1491SOL    HW2 4607   0.053   3.568   2.613 -1.0651  1.6840 -2.1620
 1492SOL     OW 4608   0.435   2.543   2.089 -0.3988 -0.0186 -0.0035
 1492SOL    HW1 4609   0.451   2.572   2.179  1.2622 -0.1982 -0.2091
 1492SOL    HW2 4610   0.441   2.622   2.036 -1.1447  0.0501  0.0012
 1493SOL     OW 4611   0.128   3.681   0.926 -0.1537 -0.3574 -0.1396
 1493SOL    HW1 4612   0.138   3.737   1.003  1.5766 -1.4374  0.4857
 1493SOL    HW2 4613   0.079   3.605   0.958 -1.5073  0.2283 -0.7181
 1494SOL     OW 4614   3.613   1.874   0.188  0.0927  0.5823  0.8897
 1494SOL    HW1 4615   3.528   1.865   0.230 -0.3599 -0.4161 -0.1781
 1494SOL    HW2 4616   3.606   1.955   0.136  1.1709  2.6903  3.7579
 1495SOL     OW 4617   2.227   3.684   2.791  0.2069  0.1623 -0.4795
 1495SOL    HW1 4618   2.192   3.757   2.740  1.0880  1.1298  0.2569
 1495SOL    HW2 4619   2.269   3.628   2.726 -0.8596  0.0739 -1.1100
 1496SOL     OW 4620   1.785   3.225   3.235  0.4005 -0.1779 -0.1686
 1496SOL    HW1 4621   1.708   3.207   3.290  0.0268 -0.5777 -0.8119
 1496SOL    HW2 4622   1.805   3.317   3.251  0.7815 -0.4785  1.2368
 1497SOL     OW 4623   1.413   0.785   2.370 -0.2748 -0.1824  0.7894
 1497SOL    HW1 4624   1.478   0.842   2.328  0.0878 -1.7225 -0.8475
 1497SOL    HW2 4625   1.436   0.787   2.463  1.2697  0.3845  0.4257
 1498SOL     OW 4626   3.582   3.237   3.338  0.7147  0.2384  0.0254
 1498SOL    HW1 4627   3.489   3.257   3.339  0.2342 -1.6171 -1.5536
 1498SOL    HW2 4628   3.610   3.248   3.429 -1.4031 -0.6932  0.8649
 1499SOL     OW 4629   1.656   1.388   0.515 -0.2730 -0.6032 -0.3130
 1499SOL    HW1 4630   1.570   1.350   0.532  0.5247 -2.3515  0.0911
 1499SOL    HW2 4631   1.716   1.337   0.569  0.7669  2.3025  1.5154
 1500SOL     OW 4632   2.080   0.744   1.591 -0.5926  0.5698  0.4654
 1500SOL    HW1 4633   2.156   0.782   1.547 -0.6684 -0.4224 -0.5660
 1500SOL    HW2 4634   2.006   0.763   1.533 -0.6559 -0.9735  0.0038
 1501SOL     OW 4635   2.679   3.213   1.962  0.3574  0.5836  0.4987
 1501SOL    HW1 4636   2.627   3.253   2.032  2.0290  1.8452  1.0933
 1501SOL    HW2 4637   2.764   3.196   2.003  0.9173  0.0424 -0.8512
 1502SOL     OW 4638   2.527   2.616   1.131 -0.1760  0.0620  0.3849
 1502SOL    HW1 4639   2.459   2.573   1.078 -0.6099 -0.6946  1.5150
 1502SOL    HW2 4640   2.582   2.544   1.162 -1.2571  0.1820  2.7969
 1503SOL     OW 4641   0.523   3.188   0.793 -0.0250 -0.8150 -0.1806
 1503SOL    HW1 4642   0.586   3.120   0.816 -1.7883 -2.1827  0.9010
 1503SOL    HW2 4643   0.549   3.217   0.706  1.3405 -2.1998 -0.2716
 1504SOL     OW 4644   1.077   3.041   1.384 -0.4679  0.5740  0.7081
 1504SOL    HW1 4645   1.014   3.102   1.345 -0.5634 -0.7496 -1.2941
 1504SOL    HW2 4646   1.060   3.047   1.478 -4.0044 -0.1445  0.2291
 1505SOL     OW 4647   3.168   3.545   3.217  0.0319 -0.3273 -0.2809
 1505SOL    HW1 4648   3.090   3.525   3.269  0.6483  1.7233  1.5823
 1505SOL    HW2 4649   3.229   3.474   3.237 -0.5220 -0.7046  0.0884
 1506SOL     OW 4650   3.598   3.469   1.941 -0.3393  0.4849  0.2742
 1506SOL    HW1 4651   3.592   3.492   1.848  1.0199 -1.3124 -0.3315
 1506SOL    HW2 4652   3.577   3.376   1.943  1.9530 -0.0867  1.3873
 1507SOL     OW 4653   2.869   1.244   2.871  0.1121  0.2391  0.3481
 1507SOL    HW1 4654   2.833   1.158   2.894 -1.8184  0.5660 -1.1248
 1507SOL    HW2 4655   2.831   1.303   2.936 -0.3069  0.2677  0.0840
 1508SOL     OW 4656   2.958   2.406   0.700  0.5296 -0.0671  0.4511
 1508SOL    HW1 4657   3.053   2.408   0.684  0.7011 -0.6334  1.3253
 1508SOL    HW2 4658   2.930   2.322   0.663  0.6382 -0.6004  1.5578
 1509SOL     OW 4659   0.589   1.433   3.319  0.2087 -0.5952  0.1708
 1509SOL    HW1 4660   0.507   1.464   3.280  0.4368  0.4203  0.4727
 1509SOL    HW2 4661   0.640   1.512   3.335  1.3839 -1.2284 -0.2792
 1510SOL     OW 4662   0.083   1.495   2.885  0.8235  0.5222  0.1541
 1510SOL    HW1 4663   0.092   1.412   2.931  0.8235 -0.1126 -0.9540
 1510SOL    HW2 4664  -0.010   1.516   2.892  0.4989 -0.4175 -0.9261
 1511SOL     OW 4665   3.219   2.784   2.484 -0.7367 -0.2719 -0.3493
 1511SOL    HW1 4666   3.260   2.792   2.571 -0.5051 -0.0769 -0.4754
 1511SOL    HW2 4667   3.186   2.695   2.482 -2.8747  0.4074  0.8737
 1512SOL     OW 4668   1.848   2.655   2.318 -0.1915 -1.0544  0.5352
 1512SOL    HW1 4669   1.822   2.613   2.400  0.1923  1.6901  2.2051
 1512SOL    HW2 4670   1.764   2.679   2.276 -0.4518  0.2170  1.6990
 1513SOL     OW 4671   2.815   2.916   1.476 -0.3130 -0.6448  0.0129
 1513SOL    HW1 4672   2.908   2.921   1.498 -0.2906  1.4273 -0.3263
 1513SOL    HW2 4673   2.813   2.918   1.380 -0.7187  1.8390  0.0015
 1514SOL     OW 4674   3.425   1.924   0.509  0.2472 -0.4217 -0.4029
 1514SOL    HW1 4675   3.424   1.866   0.585  1.3490 -0.0174 -0.0635
 1514SOL    HW2 4676   3.375   1.877   0.443  0.3858 -1.3695  0.1492
 1515SOL     OW 4677   3.549   1.425   0.695  0.2646 -0.3992  0.3358
 1515SOL    HW1 4678   3.644   1.409   0.696  0.2760 -0.6555 -1.3267
 1515SOL    HW2 4679   3.511   1.342   0.669 -0.3261 -0.0254 -0.0158
 1516SOL     OW 4680   2.583   1.461   2.217  0.3091  0.0663  0.2476
 1516SOL    HW1 4681   2.618   1.547   2.238  0.4838  0.7271 -2.3630
 1516SOL    HW2 4682   2.657   1.415   2.177 -0.7515  0.1629 -1.9558
 1517SOL     OW 4683   2.664   3.477   1.838  0.1792  0.2038  0.0300
 1517SOL    HW1 4684   2.584   3.497   1.789 -0.0053  1.7296  0.8833
 1517SOL    HW2 4685   2.663   3.381   1.847  0.9073 -0.3618 -3.9876
 1518SOL     OW 4686   1.162   3.667   3.747 -0.1842 -0.0875 -0.1324
 1518SOL    HW1 4687   1.157   3.678   3.652  0.7752  0.6264 -0.1194
 1518SOL    HW2 4688   1.253   3.687   3.768 -0.6061  0.6520  1.0449
 1519SOL     OW 4689   2.461   0.351   2.890 -1.3004 -0.5415  0.2644
 1519SOL    HW1 4690   2.473   0.380   2.980 -2.8722 -0.6764  0.5350
 1519SOL    HW2 4691   2.524   0.402   2.839 -1.3538  0.5237  1.2494
 1520SOL     OW 4692   2.074   1.890   2.594  0.0368  0.1190  0.0139
 1520SOL    HW1 4693   2.157   1.910   2.550 -0.4042 -0.0397 -0.9209
 1520SOL    HW2 4694   2.017   1.964   2.573 -0.6325 -0.6187 -0.9158
 1521SOL     OW 4695   0.953   2.591   3.350 -0.2265  0.3146  0.1582
 1521SOL    HW1 4696   1.027   2.565   3.294  1.9129  1.9075  2.0422
 1521SOL    HW2 4697   0.944   2.518   3.412  0.7288  0.7088  0.7800
 1522SOL     OW 4698   2.802   1.855   1.973  0.4923  0.0364  0.0073
 1522SOL    HW1 4699   2.781   1.939   1.933  0.3598 -0.6379 -1.4097
 1522SOL    HW2 4700   2.825   1.798   1.899  2.6171 -0.6067  1.0656
 1523SOL     OW 4701   3.523   1.081   3.657  0.0244 -0.0448  0.6549
 1523SOL    HW1 4702   3.494   1.169   3.682 -0.6533 -0.5856  1.8470
 1523SOL    HW2 4703   3.606   1.068   3.702 -0.1074 -0.1889  0.8584
 1524SOL     OW 4704   3.548   0.709   2.520  0.2887 -0.2900  0.7168
 1524SOL    HW1 4705   3.478   0.771   2.496  0.1542 -0.5971  0.3070
 1524SOL    HW2 4706   3.504   0.641   2.570  0.9099  1.5539  4.1059
 1525SOL     OW 4707   3.676   0.800   1.093 -0.3613  0.0547 -0.3095
 1525SOL    HW1 4708   3.677   0.784   1.187 -1.9477  1.4059 -0.0010
 1525SOL    HW2 4709   3.641   0.720   1.054  0.3578 -0.5300  0.2235
 1526SOL     OW 4710   0.274   3.549   2.005  0.8519 -0.0620  0.0439
 1526SOL    HW1 4711   0.358   3.503   2.004  2.2531  2.3269  0.1566
 1526SOL    HW2 4712   0.235   3.529   1.920  1.9891 -0.4661 -0.4054
 1527SOL     OW 4713   3.429   0.477   0.354 -0.0829 -0.6074 -0.6863
 1527SOL    HW1 4714   3.440   0.559   0.401 -1.8528 -1.1719  0.8056
 1527SOL    HW2 4715   3.500   0.477   0.289  1.8800  0.6348  1.3139
 1528SOL     OW 4716   2.100   3.435   1.751 -0.0465 -0.4691 -0.6425
 1528SOL    HW1 4717   2.127   3.498   1.818 -1.0382 -0.7183  0.0151
 1528SOL    HW2 4718   2.179   3.386   1.730  1.2218  2.0630 -2.4104
 1529SOL     OW 4719   1.286   0.334   0.789  0.5442 -0.4444 -0.1128
 1529SOL    HW1 4720   1.286   0.255   0.843 -0.3289  0.8958  1.9820
 1529SOL    HW2 4721   1.230   0.313   0.714  0.9292 -2.0181  0.0228
 1530SOL     OW 4722   3.516   0.264   3.624  0.5064  0.8078  0.2863
 1530SOL    HW1 4723   3.433   0.245   3.580  0.1387 -2.0794  1.9743
 1530SOL    HW2 4724   3.579   0.202   3.586  1.5797  2.0308 -0.0043
 1531SOL     OW 4725   2.482   0.900   1.974 -0.0561  0.1417 -0.1578
 1531SOL    HW1 4726   2.419   0.942   2.033  0.8321  0.4077  0.6234
 1531SOL    HW2 4727   2.560   0.888   2.028  0.6979  0.1859 -1.2227
 1532SOL     OW 4728   1.971   3.680   1.523 -0.3123 -0.7673 -0.4009
 1532SOL    HW1 4729   1.944   3.698   1.613 -1.2683  0.3072 -0.8814
 1532SOL    HW2 4730   1.983   3.585   1.519  1.9271 -0.6383  1.4492
 1533SOL     OW 4731   0.413   0.432   0.033  0.1148  0.2675 -0.3204
 1533SOL    HW1 4732   0.361   0.424   0.112 -0.0448  3.6094  0.0348
 1533SOL    HW2 4733   0.502   0.447   0.063  0.5079 -0.9028 -0.8475
 1534SOL     OW 4734   3.458   1.471   1.531 -0.1570 -0.2407  0.1267
 1534SOL    HW1 4735   3.433   1.515   1.613 -0.9827 -0.5524  0.0475
 1534SOL    HW2 4736   3.404   1.392   1.529 -0.1427 -0.2335 -0.7239
 1535SOL     OW 4737   3.007   2.666   1.609 -0.3219 -0.0014 -0.0391
 1535SOL    HW1 4738   2.977   2.605   1.676  0.7624 -0.8907 -0.3305
 1535SOL    HW2 4739   2.982   2.625   1.526 -2.9461  1.7650 -0.2279
 1536SOL     OW 4740   3.586   1.112   2.370  0.6252  0.2656  0.8437
 1536SOL    HW1 4741   3.495   1.083   2.370 -0.1906  2.5150  2.7670
 1536SOL    HW2 4742   3.627   1.062   2.441  1.3381 -1.7166 -0.8546
 1537SOL     OW 4743   2.118   3.128   1.800  0.3529 -0.7255  0.0358
 1537SOL    HW1 4744   2.188   3.185   1.768  0.9637 -1.6438 -0.3008
 1537SOL    HW2 4745   2.131   3.125   1.895  1.0942 -1.2850 -0.0710
 1538SOL     OW 4746   3.710   1.124   3.362 -1.0630  0.9908 -0.1607
 1538SOL    HW1 4747   3.796   1.140   3.401 -1.0787  3.6155 -0.9946
 1538SOL    HW2 4748   3.665   1.208   3.370 -3.9691 -0.5763  1.1333
 1539SOL     OW 4749   1.844   1.337   2.157  0.0694  0.3105 -0.4096
 1539SOL    HW1 4750   1.904   1.410   2.153  1.0258 -0.5026 -1.2053
 1539SOL    HW2 4751   1.896   1.264   2.191 -0.5764 -0.2933 -0.6756
 1540SOL     OW 4752   2.846   0.490   3.596 -0.4907 -0.0781 -0.2342
 1540SOL    HW1 4753   2.809   0.402   3.595 -0.5156 -0.1264  1.7373
 1540SOL    HW2 4754   2.916   0.488   3.531 -0.8545 -1.3794 -0.6031
 1541SOL     OW 4755   3.303   0.874   1.920 -0.3222 -0.2690 -0.4294
 1541SOL    HW1 4756   3.371   0.932   1.888 -1.6869  0.3671 -2.3111
 1541SOL    HW2 4757   3.285   0.905   2.009  2.0994 -0.7443  0.2773
 1542SOL     OW 4758   0.640   1.979   3.592 -0.0405 -0.2929 -0.5905
 1542SOL    HW1 4759   0.690   1.898   3.601 -0.8163 -0.9885 -2.1843
 1542SOL    HW2 4760   0.579   1.978   3.665  1.4525  0.0227  0.7329
 1543SOL     OW 4761   1.861   1.098   0.342  0.0378 -0.3766 -0.5987
 1543SOL    HW1 4762   1.843   1.010   0.308 -3.5968  0.6950 -1.9357
 1543SOL    HW2 4763   1.880   1.151   0.265 -1.5436  0.7035 -0.2990
 1544SOL     OW 4764   1.929   3.015   3.042  0.4241 -0.1639 -0.1741
 1544SOL    HW1 4765   1.960   2.940   3.093  0.7062 -0.2818 -0.5202
 1544SOL    HW2 4766   1.872   3.062   3.103 -1.3966 -1.7465 -0.5800
 1545SOL     OW 4767   2.094   2.823   2.368  0.1647 -0.0227  0.3288
 1545SOL    HW1 4768   2.041   2.896   2.335 -0.1134 -0.0928  0.6193
 1545SOL    HW2 4769   2.035   2.748   2.366 -0.2910  0.2394  2.2494
 1546SOL     OW 4770   1.985   0.398   1.120 -0.7799  0.5329 -0.3337
 1546SOL    HW1 4771   1.942   0.344   1.187 -0.2082 -0.3492 -0.6605
 1546SOL    HW2 4772   1.937   0.481   1.122 -0.1448  0.9345  1.9048
 1547SOL     OW 4773   1.442   1.469   1.252 -0.1665  0.0954  0.5534
 1547SOL    HW1 4774   1.364   1.479   1.197 -1.0356  1.7797  1.9815
 1547SOL    HW2 4775   1.439   1.544   1.312  0.7037 -1.6285  2.9154
 1548SOL     OW 4776   0.581   2.728   0.949  0.1467 -0.3684 -0.1339
 1548SOL    HW1 4777   0.539   2.698   0.868 -0.5899 -1.9770  0.7701
 1548SOL    HW2 4778   0.587   2.648   1.003  1.1368  0.5436  1.1677
 1549SOL     OW 4779   0.146   1.120   1.858 -0.1434  0.2198  0.6796
 1549SOL    HW1 4780   0.194   1.091   1.781 -2.3689  0.2528 -0.8332
 1549SOL    HW2 4781   0.119   1.038   1.901  2.4754  0.1830  2.4548
 1550SOL     OW 4782   0.089   0.405   2.468 -0.3098  0.5674 -0.7595
 1550SOL    HW1 4783   0.127   0.318   2.460 -0.5765  0.3192  0.5345
 1550SOL    HW2 4784   0.142   0.459   2.409  1.1043 -0.0737 -0.1164
 1551SOL     OW 4785   1.781   2.410   0.205  0.0187  0.5345  0.2095
 1551SOL    HW1 4786   1.859   2.428   0.152  0.4727  0.9631  1.0078
 1551SOL    HW2 4787   1.769   2.315   0.198 -0.6861  0.7194 -1.6892
 1552SOL     OW 4788   3.429   1.948   1.826  0.1324 -0.3792  0.1046
 1552SOL    HW1 4789   3.356   1.998   1.863 -0.6367 -1.2278 -0.2317
 1552SOL    HW2 4790   3.493   1.943   1.896 -0.0567  0.5265  0.3492
 1553SOL     OW 4791   1.247   0.477   2.440 -0.3131  0.4932 -0.6603
 1553SOL    HW1 4792   1.338   0.491   2.414 -0.0827  1.1910  0.4413
 1553SOL    HW2 4793   1.205   0.441   2.362  1.3986 -1.9475 -0.5626
 1554SOL     OW 4794   2.566   1.098   1.829  0.3912  0.2761  0.0295
 1554SOL    HW1 4795   2.659   1.076   1.833  0.5330  0.9097  0.4254
 1554SOL    HW2 4796   2.522   1.025   1.872  0.6326 -0.3934 -0.8261
 1555SOL     OW 4797   0.029   2.316   3.506 -0.7250  0.1246 -0.7134
 1555SOL    HW1 4798   0.051   2.261   3.582 -0.8805  0.5140 -0.3853
 1555SOL    HW2 4799   0.097   2.295   3.441  0.8264  1.4962  0.3724
 1556SOL     OW 4800   3.709   0.588   2.045  0.6621 -0.0980  0.0444
 1556SOL    HW1 4801   3.614   0.600   2.033  0.6007 -1.1129 -0.6124
 1556SOL    HW2 4802   3.725   0.616   2.135 -0.4264 -0.6940  0.4459
 1557SOL     OW 4803   3.400   3.337   3.614 -0.6446  0.4876 -0.6435
 1557SOL    HW1 4804   3.310   3.344   3.646 -1.7754 -0.9940 -3.1380
 1557SOL    HW2 4805   3.421   3.426   3.585 -0.1640  1.4932  2.4466
 1558SOL     OW 4806   0.505   3.284   1.326 -0.6471  0.6347  0.8525
 1558SOL    HW1 4807   0.493   3.245   1.239 -0.5528 -0.0434  1.1367
 1558SOL    HW2 4808   0.457   3.225   1.385  2.1440 -0.9416  1.7410
 1559SOL     OW 4809   1.188   2.824   1.249 -0.4102  0.2118  0.9231
 1559SOL    HW1 4810   1.144   2.892   1.301 -1.9819 -0.2240  0.2299
 1559SOL    HW2 4811   1.122   2.796   1.186  1.0288 -0.1852 -0.4678
 1560SOL     OW 4812   3.693   3.024   3.186  0.6976 -0.1098  0.2010
 1560SOL    HW1 4813   3.628   3.092   3.207 -3.3911 -2.8089 -2.4062
 1560SOL    HW2 4814   3.671   2.952   3.244  0.9289 -1.2956 -1.1423
 1561SOL     OW 4815   1.050   0.604   3.662  0.4522 -0.1891  0.1764
 1561SOL    HW1 4816   1.131   0.564   3.692  1.0586  1.4284  0.8245
 1561SOL    HW2 4817   1.046   0.584   3.569  1.3411 -0.6979  0.2414
 1562SOL     OW 4818   0.262   3.662   2.895  0.0556 -0.0620 -0.5352
 1562SOL    HW1 4819   0.311   3.741   2.874 -0.6513  0.6841  0.5245
 1562SOL    HW2 4820   0.314   3.618   2.962  0.3603 -0.4336 -0.9999
 1563SOL     OW 4821   0.949   2.047   0.270  0.3501  0.0974  0.8208
 1563SOL    HW1 4822   0.957   1.964   0.318  1.4433  1.1064  2.4649
 1563SOL    HW2 4823   1.024   2.099   0.299  0.8492  0.9301 -1.7396
 1564SOL     OW 4824   2.292   0.839   1.413 -0.7138 -0.4294  0.0927
 1564SOL    HW1 4825   2.251   0.805   1.333  0.8917  2.2266 -2.0336
 1564SOL    HW2 4826   2.384   0.817   1.404 -0.3455  0.7777  0.6758
 1565SOL     OW 4827   0.604   2.408   1.931 -0.5747  0.4170 -0.5096
 1565SOL    HW1 4828   0.571   2.410   1.841 -1.1503 -0.8202 -0.3565
 1565SOL    HW2 4829   0.534   2.447   1.984 -1.3144 -1.0519 -0.3386
 1566SOL     OW 4830   0.175   1.899   2.718  0.1934  0.0307  1.1321
 1566SOL    HW1 4831   0.098   1.864   2.673  1.2076 -0.8126  0.0115
 1566SOL    HW2 4832   0.229   1.936   2.648  1.5892 -0.8907  1.7014
 1567SOL     OW 4833   0.329   2.123   1.715  0.2577  0.4850  0.0978
 1567SOL    HW1 4834   0.279   2.056   1.669  1.8236  0.0364 -1.0661
 1567SOL    HW2 4835   0.290   2.206   1.685  0.4855  0.1654 -1.1625
 1568SOL     OW 4836   3.537   2.089   2.267 -0.4454  0.1721 -0.3145
 1568SOL    HW1 4837   3.583   2.161   2.223 -0.6063  1.3190  1.3093
 1568SOL    HW2 4838   3.490   2.131   2.338  0.1471 -1.6397  1.2319
 1569SOL     OW 4839   0.585   2.043   1.245 -0.5695  0.1800  0.1258
 1569SOL    HW1 4840   0.659   2.080   1.292 -0.6129  0.9171 -0.3517
 1569SOL    HW2 4841   0.614   2.040   1.153 -0.8093 -0.3615  0.0668
 1570SOL     OW 4842   1.003   0.661   1.378 -0.0689 -0.5909  0.6756
 1570SOL    HW1 4843   1.026   0.622   1.294 -3.4808 -2.0060  0.2194
 1570SOL    HW2 4844   1.012   0.755   1.365  0.5689 -0.8436 -0.8775
 1571SOL     OW 4845   3.375   0.164   0.376 -0.0010 -0.1361 -0.3969
 1571SOL    HW1 4846   3.428   0.171   0.456 -0.1066  2.0040 -0.4768
 1571SOL    HW2 4847   3.439   0.176   0.306  0.0410 -1.7282 -0.6732
 1572SOL     OW 4848   1.699   2.190   0.950  0.6916 -0.4469 -0.0127
 1572SOL    HW1 4849   1.748   2.263   0.989  0.7593 -0.7880  0.5576
 1572SOL    HW2 4850   1.609   2.203   0.981  0.8868 -1.1287  0.8797
 1573SOL     OW 4851   3.110   1.237   0.140 -0.2196 -0.2041 -0.0211
 1573SOL    HW1 4852   3.059   1.307   0.099 -0.0704  0.7021  1.3079
 1573SOL    HW2 4853   3.087   1.241   0.233  1.5927 -0.3691  0.4720
 1574SOL     OW 4854   1.739   3.307   0.156  0.0820  0.2964  0.1755
 1574SOL    HW1 4855   1.816   3.275   0.204  0.0781 -1.3110 -0.8134
 1574SOL    HW2 4856   1.669   3.309   0.221  0.6538  0.5104  0.7926
 1575SOL     OW 4857   0.278   0.042   0.338  0.1951  0.0681 -0.4509
 1575SOL    HW1 4858   0.357   0.083   0.303  0.8457 -0.2433  0.5902
 1575SOL    HW2 4859   0.242   0.107   0.399 -1.0425  0.6948 -1.7926
 1576SOL     OW 4860   0.429   1.078   3.704 -0.0382 -0.5601 -0.7056
 1576SOL    HW1 4861   0.472   1.125   3.775 -0.6760 -2.0355  0.7429
 1576SOL    HW2 4862   0.497   1.021   3.668  0.2462  0.0717 -1.1647
 1577SOL     OW 4863   3.229   1.632   3.397 -0.1265 -0.1040  0.5043
 1577SOL    HW1 4864   3.265   1.569   3.459 -0.2764 -1.4832 -0.7543
 1577SOL    HW2 4865   3.138   1.606   3.386  0.0732 -0.3275 -0.7954
 1578SOL     OW 4866   2.838   1.498   2.726  0.4720 -0.3212  0.4472
 1578SOL    HW1 4867   2.784   1.576   2.709  0.6276 -0.6148 -1.6346
 1578SOL    HW2 4868   2.922   1.533   2.757  1.1690  0.4990 -2.1700
 1579SOL     OW 4869   0.479   2.303   0.622 -0.3555 -0.0444  0.4371
 1579SOL    HW1 4870   0.454   2.240   0.555  0.6748 -0.2548  0.2360
 1579SOL    HW2 4871   0.417   2.375   0.612 -1.4224 -0.9116  0.5316
 1580SOL     OW 4872   0.889   0.052   3.197 -0.1852 -0.1354  0.2517
 1580SOL    HW1 4873   0.878  -0.019   3.133 -0.6170 -0.0453  0.2250
 1580SOL    HW2 4874   0.927   0.009   3.274  2.1304  0.0600 -0.6950
 1581SOL     OW 4875   1.280   3.164   3.370  0.0784  0.4665  0.6968
 1581SOL    HW1 4876   1.348   3.153   3.437  1.0287 -0.9272 -0.4410
 1581SOL    HW2 4877   1.315   3.230   3.311 -0.1837  0.7556  0.8619
 1582SOL     OW 4878   1.334   0.223   2.544  0.4859  0.2100  0.6598
 1582SOL    HW1 4879   1.251   0.175   2.543  1.2078 -1.1684 -1.3373
 1582SOL    HW2 4880   1.312   0.311   2.514 -0.3031 -0.1049  0.2891
 1583SOL     OW 4881   2.358   0.588   3.383  1.0456  0.0805  0.5924
 1583SOL    HW1 4882   2.329   0.672   3.348  1.3957 -0.2144 -0.4265
 1583SOL    HW2 4883   2.347   0.597   3.478  0.0184  0.8675  0.4177
 1584SOL     OW 4884   2.447   0.553   0.810  0.0918  0.4295 -0.1967
 1584SOL    HW1 4885   2.514   0.591   0.753  1.2769 -0.8527  0.3019
 1584SOL    HW2 4886   2.453   0.605   0.891  0.9225 -0.0430  0.0633
 1585SOL     OW 4887   0.065   2.132   3.708  0.9156  0.4015 -0.1315
 1585SOL    HW1 4888   0.079   2.109   3.800 -0.2054  0.5603  0.0817
 1585SOL    HW2 4889   0.061   2.047   3.663 -0.7156  0.2167  0.2982
 1586SOL     OW 4890   1.908   2.692   0.332  0.8059  0.7934 -0.2279
 1586SOL    HW1 4891   1.937   2.608   0.297  0.2079  0.2462  0.5600
 1586SOL    HW2 4892   1.813   2.692   0.319  0.4759  0.3405  1.8194
 1587SOL     OW 4893   2.150   0.521   3.714  0.1632 -1.2102 -0.7973
 1587SOL    HW1 4894   2.143   0.522   3.810  1.3052 -0.4353 -0.7037
 1587SOL    HW2 4895   2.103   0.599   3.686  0.0463 -1.3016 -0.8575
 1588SOL     OW 4896   2.717   0.511   1.394  0.1853 -0.1413 -0.1289
 1588SOL    HW1 4897   2.801   0.479   1.427  0.5027  2.0596  1.4368
 1588SOL    HW2 4898   2.685   0.441   1.337  1.8934 -2.1029  1.1724
 1589SOL     OW 4899   2.290   3.273   1.656 -0.0813  0.0631 -0.0385
 1589SOL    HW1 4900   2.346   3.196   1.657 -0.6680 -0.3859 -0.8073
 1589SOL    HW2 4901   2.317   3.323   1.579  0.6278  0.8949  0.7247
 1590SOL     OW 4902   1.106   2.594   1.517  0.2045  0.6462 -0.4197
 1590SOL    HW1 4903   1.096   2.622   1.608  0.1030  0.2104 -0.2958
 1590SOL    HW2 4904   1.017   2.570   1.489  0.2533  0.6644 -0.5959
 1591SOL     OW 4905   1.629   2.408   1.262 -0.6154  0.3083 -0.2110
 1591SOL    HW1 4906   1.536   2.415   1.282 -0.2407  0.7094  1.4843
 1591SOL    HW2 4907   1.673   2.441   1.339  0.9521  2.6982 -1.9817
 1592SOL     OW 4908   2.953   3.383   2.426 -0.3746  0.0821  0.5330
 1592SOL    HW1 4909   2.930   3.458   2.480 -1.3805 -0.6335  1.1305
 1592SOL    HW2 4910   2.957   3.310   2.488  0.8646 -0.3196  0.0088
 1593SOL     OW 4911   1.955   0.741   2.826  0.2949 -0.5296  0.6129
 1593SOL    HW1 4912   1.964   0.656   2.785  0.0016 -0.1176 -0.3394
 1593SOL    HW2 4913   2.040   0.784   2.813  0.4975 -0.7321  1.2367
 1594SOL     OW 4914   2.636   0.097   3.302 -0.2551 -0.1384  0.0288
 1594SOL    HW1 4915   2.702   0.044   3.347 -0.8735 -1.0879 -0.1569
 1594SOL    HW2 4916   2.552   0.061   3.330 -0.6643 -0.1833 -1.1872
 1595SOL     OW 4917   2.437   2.847   0.436  0.2502  0.6834 -0.0820
 1595SOL    HW1 4918   2.522   2.855   0.394  2.6465 -4.0078  3.0672
 1595SOL    HW2 4919   2.446   2.897   0.518  1.3435 -2.2073  1.7035
 1596SOL     OW 4920   0.852   2.803   1.426 -0.1189 -0.0727 -0.8616
 1596SOL    HW1 4921   0.860   2.743   1.353 -0.2488 -0.3874 -0.6208
 1596SOL    HW2 4922   0.814   2.883   1.388 -0.4150 -0.3213 -1.0882
 1597SOL     OW 4923   1.829   2.860   1.209 -0.2104 -0.5003  0.6039
 1597SOL    HW1 4924   1.757   2.868   1.272 -0.2722  0.0292  0.4711
 1597SOL    HW2 4925   1.841   2.766   1.199 -2.2428 -0.6752 -0.8955
 1598SOL     OW 4926   0.562   1.596   1.904  0.3296  0.0580  0.2510
 1598SOL    HW1 4927   0.575   1.581   1.810 -0.8883  1.3887 -0.1746
 1598SOL    HW2 4928   0.649   1.618   1.937  1.0870 -2.0237 -0.1957
 1599SOL     OW 4929   0.218   0.298   1.784 -0.1840 -0.4746  0.0674
 1599SOL    HW1 4930   0.271   0.370   1.751 -0.2298 -1.0775 -1.3883
 1599SOL    HW2 4931   0.174   0.334   1.861  1.6840  0.2720  0.8258
 1600SOL     OW 4932   3.130   3.190   2.878  0.0620 -0.0972 -0.2021
 1600SOL    HW1 4933   3.106   3.218   2.966 -0.4290 -1.2204  0.0353
 1600SOL    HW2 4934   3.117   3.267   2.823  0.8385  0.7598  0.7751
 1601SOL     OW 4935   3.059   1.293   0.418 -0.4847  0.0949  0.2504
 1601SOL    HW1 4936   3.107   1.281   0.500 -1.2607 -0.6766  0.6003
 1601SOL    HW2 4937   3.063   1.387   0.402 -0.4195  0.2712  1.2280
 1602SOL     OW 4938   3.438   0.681   1.773 -0.3396 -0.1809  0.2202
 1602SOL    HW1 4939   3.526   0.709   1.799 -0.4652  2.4588 -1.7337
 1602SOL    HW2 4940   3.381   0.718   1.841 -0.0866 -0.0983  0.3898
 1603SOL     OW 4941   2.149   2.173   1.561  0.3468 -0.1754 -0.4015
 1603SOL    HW1 4942   2.245   2.180   1.565  0.3454 -0.6356  1.7413
 1603SOL    HW2 4943   2.133   2.085   1.528  0.6394  0.1208 -1.3611
 1604SOL     OW 4944   0.696   0.694   1.194 -0.7954  0.3474  0.1073
 1604SOL    HW1 4945   0.728   0.615   1.237 -1.3457 -0.1513 -0.3827
 1604SOL    HW2 4946   0.600   0.685   1.195 -0.8797 -1.1879 -3.8812
 1605SOL     OW 4947   3.647   2.566   2.058 -0.2745 -0.3665 -0.0360
 1605SOL    HW1 4948   3.679   2.655   2.047 -0.9610 -0.2929 -1.8874
 1605SOL    HW2 4949   3.711   2.523   2.115 -0.2979  1.4677  1.4534
 1606SOL     OW 4950   2.244   2.520   2.090  0.0518 -0.2239  1.0775
 1606SOL    HW1 4951   2.247   2.553   2.180 -2.0406 -0.3964  1.2554
 1606SOL    HW2 4952   2.163   2.469   2.085  0.9498 -1.6208 -0.4600
 1607SOL     OW 4953   0.720   1.269   1.549  0.4656  0.2119 -1.0487
 1607SOL    HW1 4954   0.688   1.197   1.603 -1.2127  2.0993  0.6508
 1607SOL    HW2 4955   0.802   1.295   1.590  0.6756 -0.2310 -1.1859
 1608SOL     OW 4956   1.953   0.905   0.087  0.2090 -0.5101  0.4187
 1608SOL    HW1 4957   1.871   0.880   0.044 -0.6441 -1.7954  2.6311
 1608SOL    HW2 4958   1.980   0.825   0.133  2.8787 -0.1949 -0.4621
 1609SOL     OW 4959   0.504   1.161   0.785 -0.4577 -0.3102 -0.4145
 1609SOL    HW1 4960   0.519   1.073   0.820  1.0768  0.1408  0.1479
 1609SOL    HW2 4961   0.480   1.147   0.693 -0.1931 -1.3100 -0.3427
 1610SOL     OW 4962   1.536   0.462   2.385  0.0256 -0.4435 -0.2598
 1610SOL    HW1 4963   1.547   0.393   2.320 -0.3783 -0.2910 -0.4911
 1610SOL    HW2 4964   1.562   0.543   2.340  2.3636 -0.6530  0.5729
 1611SOL     OW 4965   3.707   1.624   1.509  0.2030  0.3422  0.6910
 1611SOL    HW1 4966   3.628   1.570   1.514  0.3751  0.0375  0.2044
 1611SOL    HW2 4967   3.690   1.698   1.567 -1.2775  1.3495 -0.9082
 1612SOL     OW 4968   2.163   1.934   2.884 -0.3423  0.1992 -0.1331
 1612SOL    HW1 4969   2.100   1.997   2.920  0.4134  0.6232  0.4797
 1612SOL    HW2 4970   2.197   1.977   2.806 -0.2353  0.3224 -0.0210
 1613SOL     OW 4971   1.570   3.357   1.534 -0.1723  0.1951  0.2074
 1613SOL    HW1 4972   1.585   3.263   1.549 -1.4230 -0.0865 -0.1744
 1613SOL    HW2 4973   1.581   3.369   1.440 -0.0007  0.4431  0.2574
 1614SOL     OW 4974   1.436   1.188   1.907  0.4232 -0.4383 -0.0208
 1614SOL    HW1 4975   1.393   1.254   1.962  1.1330  2.7842 -2.9706
 1614SOL    HW2 4976   1.524   1.181   1.942  0.3049  0.1368  0.4154
 1615SOL     OW 4977   0.399   3.013   2.229  0.5744 -0.4949 -0.5224
 1615SOL    HW1 4978   0.377   3.095   2.185  0.2541 -0.1767  0.2063
 1615SOL    HW2 4979   0.480   3.033   2.277 -0.3448 -0.1146  0.9198
 1616SOL     OW 4980   2.500   1.344   3.660  0.2645  0.2743 -0.0189
 1616SOL    HW1 4981   2.568   1.333   3.727  1.7251  0.0251 -1.4668
 1616SOL    HW2 4982   2.492   1.257   3.620  2.1694  1.1690 -2.6202
 1617SOL     OW 4983   1.318   2.134   1.281  0.3052  0.1911  0.4435
 1617SOL    HW1 4984   1.348   2.120   1.371 -1.3795  0.8197  1.1480
 1617SOL    HW2 4985   1.241   2.191   1.290  0.5021  0.8242 -1.4555
 1618SOL     OW 4986   1.345   0.930   0.571  0.0640  0.3657 -0.2021
 1618SOL    HW1 4987   1.286   0.910   0.498 -2.2601 -1.2947  1.9342
 1618SOL    HW2 4988   1.292   0.983   0.630  1.5822  0.9132  0.7198
 1619SOL     OW 4989   0.035   2.608   0.873  0.2452  0.2716  0.5073
 1619SOL    HW1 4990   0.114   2.658   0.893 -0.2027  0.8592  0.8234
 1619SOL    HW2 4991  -0.018   2.613   0.953 -0.8569  1.3197 -0.2482
 1620SOL     OW 4992   1.164   1.054   2.648 -0.5924  0.5934 -0.2574
 1620SOL    HW1 4993   1.152   0.993   2.575 -1.0524 -0.1296  0.4183
 1620SOL    HW2 4994   1.102   1.125   2.631 -0.3425  0.6832 -0.8239
 1621SOL     OW 4995   1.922   3.544   2.873  0.2423  0.0782 -0.5876
 1621SOL    HW1 4996   1.941   3.521   2.964  0.2637  1.5068 -0.2017
 1621SOL    HW2 4997   1.864   3.475   2.842  0.8256 -0.8229  0.2815
 1622SOL     OW 4998   2.676   0.204   0.284  0.5577 -0.1168 -1.0498
 1622SOL    HW1 4999   2.747   0.188   0.345 -0.2549  2.7113  0.8301
 1622SOL    HW2 5000   2.665   0.299   0.283 -1.4776 -0.2480 -3.3204
 1623SOL     OW 5001   0.150   0.454   3.275  0.9896 -0.1209 -0.5355
 1623SOL    HW1 5002   0.055   0.465   3.271  0.9246 -0.1870  0.5571
 1623SOL    HW2 5003   0.165   0.364   3.247  0.1297 -2.2936  4.8196
 1624SOL     OW 5004   0.365   1.888   3.126  0.7039  0.0931  0.4105
 1624SOL    HW1 5005   0.302   1.860   3.060 -1.9661 -0.7168  3.1162
 1624SOL    HW2 5006   0.360   1.984   3.126 -3.0776  0.0659  2.6550
 1625SOL     OW 5007   0.244   2.030   0.791 -0.4587 -0.7704  0.6304
 1625SOL    HW1 5008   0.275   2.065   0.707  0.3444  3.2717  2.3755
 1625SOL    HW2 5009   0.148   2.038   0.786 -0.3968 -0.1784  0.2082
 1626SOL     OW 5010   2.220   1.531   0.372 -0.0863 -0.6753  0.1531
 1626SOL    HW1 5011   2.240   1.542   0.465  0.0009  0.9740 -0.0433
 1626SOL    HW2 5012   2.302   1.499   0.333  0.2668 -0.1158  0.4278
 1627SOL     OW 5013   2.502   2.977   0.692 -0.2825 -0.3211  0.2042
 1627SOL    HW1 5014   2.580   2.943   0.648 -0.0484  0.8486 -0.3384
 1627SOL    HW2 5015   2.533   3.006   0.777 -0.5680 -1.8069  0.8429
 1628SOL     OW 5016   3.189   1.135   3.645  0.2025 -0.2342  0.4338
 1628SOL    HW1 5017   3.244   1.057   3.635  0.2988 -0.0156 -0.7719
 1628SOL    HW2 5018   3.165   1.134   3.738 -0.0713 -1.8959  0.3849
 1629SOL     OW 5019   1.310   1.196   1.661 -0.3654 -0.1476  0.4600
 1629SOL    HW1 5020   1.334   1.158   1.746 -0.0993  0.9626  0.9060
 1629SOL    HW2 5021   1.390   1.238   1.630 -0.3342 -0.9502 -0.5840
 1630SOL     OW 5022   1.084   0.226   3.646  0.1989 -0.0799 -0.0670
 1630SOL    HW1 5023   1.147   0.297   3.658 -0.4596  0.5433 -0.2041
 1630SOL    HW2 5024   1.107   0.188   3.561 -0.9242  1.5634 -1.1874
 1631SOL     OW 5025   3.381   1.732   2.836 -0.4494 -0.3337 -0.2134
 1631SOL    HW1 5026   3.364   1.736   2.742 -0.5439  1.5014 -0.1616
 1631SOL    HW2 5027   3.306   1.686   2.872 -0.4524 -0.9877 -1.0223
 1632SOL     OW 5028   3.366   1.416   2.270 -0.4735 -0.1726  0.2059
 1632SOL    HW1 5029   3.321   1.462   2.199 -1.2699 -1.5964 -0.2773
 1632SOL    HW2 5030   3.333   1.456   2.350  2.4746  3.3629 -0.1038
 1633SOL     OW 5031   2.918   1.085   3.162 -0.1264  0.1593  0.5981
 1633SOL    HW1 5032   2.952   1.025   3.095 -0.7726  0.8955 -0.4046
 1633SOL    HW2 5033   2.826   1.098   3.139 -0.0268  1.4495  0.8599
 1634SOL     OW 5034   3.419   0.754   0.230 -0.7053  0.1278  0.1217
 1634SOL    HW1 5035   3.401   0.757   0.324 -0.6458 -1.3249  0.2062
 1634SOL    HW2 5036   3.509   0.720   0.224 -0.7628  0.0655 -0.4596
 1635SOL     OW 5037   1.348   1.711   2.405  0.1973  0.0210 -0.7510
 1635SOL    HW1 5038   1.382   1.799   2.389  2.1135 -0.7114 -1.0072
 1635SOL    HW2 5039   1.419   1.653   2.377 -0.5939 -1.5805  0.4265
 1636SOL     OW 5040   2.676   2.628   1.470  0.6221 -0.5180  0.1932
 1636SOL    HW1 5041   2.716   2.681   1.539 -1.0730  0.5426  0.3985
 1636SOL    HW2 5042   2.583   2.646   1.476  0.2402 -1.8235 -1.2095
 1637SOL     OW 5043   2.272   3.521   1.184 -0.2222 -0.0152 -0.1957
 1637SOL    HW1 5044   2.289   3.607   1.146  2.1899  0.5930  1.9650
 1637SOL    HW2 5045   2.233   3.470   1.112  1.2212  1.9094 -2.5056
 1638SOL     OW 5046   2.733   0.330   3.019  0.0012 -0.0720 -0.2715
 1638SOL    HW1 5047   2.801   0.354   2.956  2.9838 -2.7166  1.6236
 1638SOL    HW2 5048   2.688   0.256   2.979 -1.5626  1.3958 -1.3330
 1639SOL     OW 5049   3.581   1.153   1.113  0.2550 -0.0232 -0.4232
 1639SOL    HW1 5050   3.653   1.208   1.082  1.0484 -1.3480 -0.9998
 1639SOL    HW2 5051   3.540   1.119   1.033 -2.4273  2.3639 -0.2326
 1640SOL     OW 5052   0.975   1.346   0.722  0.0276  0.0431 -0.7683
 1640SOL    HW1 5053   0.989   1.419   0.783 -0.3812  0.0188 -0.6428
 1640SOL    HW2 5054   1.061   1.331   0.683  0.0795  0.7012 -0.9144
 1641SOL     OW 5055   0.342   1.434   2.682  0.2461  0.2658  0.3850
 1641SOL    HW1 5056   0.334   1.524   2.713 -0.9868  0.1489  0.4426
 1641SOL    HW2 5057   0.383   1.387   2.755 -1.5296  0.2430  1.4311
 1642SOL     OW 5058   0.657   3.145   2.858 -0.4391  0.2194  0.0389
 1642SOL    HW1 5059   0.606   3.185   2.928  0.8460 -1.9606  2.4120
 1642SOL    HW2 5060   0.600   3.076   2.823  0.9361 -3.1132  3.5804
 1643SOL     OW 5061   2.836   3.206   3.520 -0.4681 -0.6060 -0.2071
 1643SOL    HW1 5062   2.890   3.199   3.599  0.3131  0.2827 -0.6375
 1643SOL    HW2 5063   2.824   3.300   3.508 -0.9608 -0.7509 -0.8925
 1644SOL     OW 5064   1.677   2.700   2.740 -0.1747  0.0856  0.7045
 1644SOL    HW1 5065   1.710   2.778   2.696 -0.3380 -0.5529 -0.5996
 1644SOL    HW2 5066   1.649   2.731   2.826 -1.3382  1.7075 -0.2025
 1645SOL     OW 5067   0.654   3.643   3.351  0.5618 -0.2710 -0.5815
 1645SOL    HW1 5068   0.596   3.626   3.425 -0.6049  1.0270 -1.1605
 1645SOL    HW2 5069   0.672   3.737   3.356  3.3191 -0.7332  0.0435
 1646SOL     OW 5070   3.062   1.250   3.430  0.3697 -0.1925  0.1505
 1646SOL    HW1 5071   3.132   1.259   3.366 -0.0410  0.9702 -0.1581
 1646SOL    HW2 5072   3.099   1.194   3.499  1.2126 -0.4854 -0.5262
 1647SOL     OW 5073   1.363   0.863   1.673  0.3730 -0.2699  0.4062
 1647SOL    HW1 5074   1.280   0.817   1.661  0.6772 -1.3288  2.0943
 1647SOL    HW2 5075   1.338   0.955   1.683 -0.4536 -0.3788 -0.4428
 1648SOL     OW 5076   1.260   1.240   2.144  0.1001 -0.4641  0.2742
 1648SOL    HW1 5077   1.218   1.160   2.175  0.8930 -0.4814  1.3619
 1648SOL    HW2 5078   1.264   1.297   2.220  0.6215  0.1494 -0.1936
 1649SOL     OW 5079   2.606   2.456   3.532 -0.5345 -0.2945  0.5249
 1649SOL    HW1 5080   2.551   2.378   3.536  0.1342 -0.8025  0.0415
 1649SOL    HW2 5081   2.570   2.506   3.459  0.7097 -1.4975 -0.9951
 1650SOL     OW 5082   1.860   2.005   1.177  0.0937 -0.6703 -0.1779
 1650SOL    HW1 5083   1.778   2.049   1.201  0.5847 -0.3798  0.9893
 1650SOL    HW2 5084   1.919   2.076   1.152 -0.0439 -0.8900 -1.1748
 1651SOL     OW 5085   2.940   0.491   1.668 -0.3099  0.3931  0.8128
 1651SOL    HW1 5086   2.973   0.469   1.755 -0.2676 -1.4507  0.3641
 1651SOL    HW2 5087   3.017   0.518   1.618  0.4035 -2.4877  0.1945
 1652SOL     OW 5088   0.561   3.050   2.492 -0.1931 -0.5036 -0.2054
 1652SOL    HW1 5089   0.587   3.117   2.429 -1.0803 -0.5226 -0.6128
 1652SOL    HW2 5090   0.636   2.991   2.497 -0.3658 -0.9207 -1.8316
 1653SOL     OW 5091   1.253   3.425   2.776 -0.1131  0.4503  0.2739
 1653SOL    HW1 5092   1.298   3.509   2.766 -0.1834  0.3469 -1.0176
 1653SOL    HW2 5093   1.191   3.422   2.703 -0.0455 -0.7725  0.2523
 1654SOL     OW 5094   3.714   2.015   0.753  0.0395 -0.4420 -0.5760
 1654SOL    HW1 5095   3.725   1.962   0.674  0.4884 -2.2102  0.6179
 1654SOL    HW2 5096   3.671   1.957   0.816 -0.0976  0.8460  0.5865
 1655SOL     OW 5097   3.571   3.193   1.985  0.8044  0.0741  0.2091
 1655SOL    HW1 5098   3.479   3.181   1.964  0.2827  0.6940  1.9647
 1655SOL    HW2 5099   3.615   3.192   1.900 -0.8379  0.0516 -0.6904
 1656SOL     OW 5100   2.749   3.189   1.694 -0.4130 -0.3397 -1.0206
 1656SOL    HW1 5101   2.694   3.119   1.731  1.1539 -2.0668 -1.7491
 1656SOL    HW2 5102   2.806   3.215   1.767 -0.8566  0.0140 -0.8020
 1657SOL     OW 5103   3.107   1.412   1.827  0.2795 -0.4112 -0.1332
 1657SOL    HW1 5104   3.021   1.381   1.856  0.3468  0.0863  0.6098
 1657SOL    HW2 5105   3.089   1.498   1.789  0.3273 -0.6729 -0.7574
 1658SOL     OW 5106   2.310   2.749   0.757 -0.7441 -0.0752 -0.1036
 1658SOL    HW1 5107   2.366   2.825   0.741  0.9379 -0.8282  1.8994
 1658SOL    HW2 5108   2.231   2.786   0.796  0.3920  0.6444  1.6297
 1659SOL     OW 5109   2.637   1.041   0.500  0.0724 -0.3410  0.6957
 1659SOL    HW1 5110   2.712   1.023   0.556 -0.4104 -0.9717  1.1463
 1659SOL    HW2 5111   2.632   0.965   0.442 -0.4963 -0.5198  0.9784
 1660SOL     OW 5112   1.896   1.590   3.313  0.1506 -0.1978 -0.1584
 1660SOL    HW1 5113   1.825   1.560   3.371 -0.2143  2.0376  0.6882
 1660SOL    HW2 5114   1.855   1.597   3.227 -0.0566 -0.9612 -0.1273
 1661SOL     OW 5115   1.963   2.131   2.645 -0.5726 -0.1267  0.5149
 1661SOL    HW1 5116   1.892   2.183   2.682 -0.0805  1.2181 -0.3685
 1661SOL    HW2 5117   2.026   2.121   2.716  0.7563  3.1303 -0.0643
 1662SOL     OW 5118   2.228   0.211   0.477 -0.3618  0.9813 -0.6436
 1662SOL    HW1 5119   2.213   0.134   0.532  0.6859  0.6813 -0.7559
 1662SOL    HW2 5120   2.251   0.280   0.539  1.0270  0.5894 -0.7026
 1663SOL     OW 5121   1.752   2.540   2.527  0.1977  0.0905  0.2891
 1663SOL    HW1 5122   1.700   2.462   2.507  2.8273 -1.6261 -0.3969
 1663SOL    HW2 5123   1.708   2.580   2.602 -2.8684 -0.3638 -1.1123
 1664SOL     OW 5124   1.708   0.850   2.865  0.1415 -0.3987  0.1666
 1664SOL    HW1 5125   1.662   0.771   2.894  1.5745 -1.1371  0.5435
 1664SOL    HW2 5126   1.797   0.820   2.848  0.2126  0.7378 -1.6780
 1665SOL     OW 5127   2.968   2.277   1.359  0.6857  0.3073  0.1155
 1665SOL    HW1 5128   2.892   2.325   1.325  1.4383  0.3928 -1.5497
 1665SOL    HW2 5129   2.973   2.301   1.452 -0.3465  1.5753 -0.1373
 1666SOL     OW 5130   1.541   1.142   1.387  0.0189  0.7570 -0.1050
 1666SOL    HW1 5131   1.552   1.182   1.300  1.7032  1.7788  0.5316
 1666SOL    HW2 5132   1.501   1.211   1.439 -1.0482  0.1222 -0.0556
 1667SOL     OW 5133   0.142   0.989   0.579 -0.0213 -0.2570  0.2552
 1667SOL    HW1 5134   0.190   0.923   0.628  0.0040  0.8094  1.7284
 1667SOL    HW2 5135   0.207   1.027   0.520 -0.0158 -1.4432 -0.5488
 1668SOL     OW 5136   3.304   0.250   1.169  0.3356 -0.0541  0.5591
 1668SOL    HW1 5137   3.307   0.344   1.153  0.0636 -0.1455 -0.0731
 1668SOL    HW2 5138   3.236   0.238   1.235  1.1923  0.3001  1.5175
 1669SOL     OW 5139   2.179   0.803   3.576 -0.2779  0.3526 -0.1198
 1669SOL    HW1 5140   2.149   0.889   3.545 -2.2350 -0.2127  0.1155
 1669SOL    HW2 5141   2.124   0.740   3.530  0.3875 -0.7384  0.5379
 1670SOL     OW 5142   3.436   0.989   2.567 -0.5262 -0.1103  0.4416
 1670SOL    HW1 5143   3.404   1.076   2.590 -0.3718 -0.0156  0.2962
 1670SOL    HW2 5144   3.374   0.929   2.609  0.7361  0.0134  2.6464
 1671SOL     OW 5145   1.335   2.392   0.143 -0.1520  0.3956 -0.7226
 1671SOL    HW1 5146   1.255   2.408   0.194  0.1885  1.3206 -0.4704
 1671SOL    HW2 5147   1.384   2.329   0.196 -0.9399 -0.6019 -1.1367
 1672SOL     OW 5148   1.249   2.104   2.873  0.5582 -0.2120 -0.2772
 1672SOL    HW1 5149   1.284   2.018   2.849  1.6598  0.9030 -3.1474
 1672SOL    HW2 5150   1.182   2.122   2.806  0.7269  1.3551 -0.0540
 1673SOL     OW 5151   3.747   0.559   0.581  0.6660 -0.1169  0.0774
 1673SOL    HW1 5152   3.805   0.633   0.600 -0.2515  0.7860 -0.5390
 1673SOL    HW2 5153   3.663   0.599   0.560  0.4920 -1.2510 -1.6348
 1674SOL     OW 5154   2.785   1.637   2.372  0.0091 -0.1238 -0.0079
 1674SOL    HW1 5155   2.741   1.675   2.449  0.8934  0.2361  0.3283
 1674SOL    HW2 5156   2.776   1.704   2.304 -0.6433 -0.3805 -0.1850
 1675SOL     OW 5157   1.624   1.472   2.151  0.0175  0.3626  0.0185
 1675SOL    HW1 5158   1.655   1.533   2.219 -1.2663 -0.9856  1.9083
 1675SOL    HW2 5159   1.688   1.401   2.152  0.6555  0.8966 -1.0837
 1676SOL     OW 5160   3.103   2.487   3.185  0.2656 -0.3573  0.2143
 1676SOL    HW1 5161   3.091   2.540   3.106  1.2198  0.1703  0.4023
 1676SOL    HW2 5162   3.090   2.547   3.258  2.0587 -0.1499  0.4301
 1677SOL     OW 5163   2.761   2.126   0.986 -0.0931 -0.5728 -0.0830
 1677SOL    HW1 5164   2.841   2.075   0.996  0.8797  0.5151 -1.8913
 1677SOL    HW2 5165   2.791   2.216   0.968 -1.7301  0.8047  3.1962
 1678SOL     OW 5166   2.666   2.958   0.349 -0.2161  0.4871  0.0720
 1678SOL    HW1 5167   2.673   3.041   0.397 -1.1390  1.0218 -0.6689
 1678SOL    HW2 5168   2.663   2.984   0.257  0.6126 -0.4538 -0.2341
 1679SOL     OW 5169   1.971   3.002   1.580  0.2131 -0.7381  0.1207
 1679SOL    HW1 5170   2.019   2.956   1.511  1.0367 -1.8432  1.3856
 1679SOL    HW2 5171   2.038   3.052   1.626 -0.3215 -0.0670  0.1842
 1680SOL     OW 5172   2.713   3.495   1.493 -0.1219 -0.1771  0.3179
 1680SOL    HW1 5173   2.692   3.404   1.471 -2.3894 -0.0666  1.7135
 1680SOL    HW2 5174   2.715   3.498   1.588 -0.2707  1.2764  0.3084
 1681SOL     OW 5175   0.362   1.411   0.883 -0.2669 -0.0573  0.3580
 1681SOL    HW1 5176   0.398   1.464   0.812 -1.9138  1.3153  0.4916
 1681SOL    HW2 5177   0.383   1.321   0.859  0.4731  0.4813 -1.1161
 1682SOL     OW 5178   2.244   1.994   1.233 -0.2303 -0.4876  0.1744
 1682SOL    HW1 5179   2.266   1.920   1.290 -0.9034 -0.5312  0.3842
 1682SOL    HW2 5180   2.152   1.982   1.213 -0.0295 -0.3953 -0.8248
 1683SOL     OW 5181   1.715   0.214   1.455 -1.0914 -0.2335  0.1294
 1683SOL    HW1 5182   1.649   0.146   1.468 -1.6698 -0.0506 -1.6332
 1683SOL    HW2 5183   1.715   0.263   1.537  0.7790 -3.4631  2.3333
 1684SOL     OW 5184   2.444   0.500   1.234  0.5758 -0.0158  0.0660
 1684SOL    HW1 5185   2.504   0.474   1.304  0.1072 -0.3411  0.3515
 1684SOL    HW2 5186   2.495   0.491   1.154  1.1352  0.4129  0.3693
 1685SOL     OW 5187   3.638   3.464   2.311  0.2321 -0.1571  0.8712
 1685SOL    HW1 5188   3.637   3.548   2.265 -0.4784 -1.4474 -1.6612
 1685SOL    HW2 5189   3.605   3.484   2.399  0.4322  2.2430  0.4636
 1686SOL     OW 5190   1.064   2.011   0.962  0.3555 -0.0264  0.2437
 1686SOL    HW1 5191   1.058   2.049   1.050  1.6210 -0.1822  0.4133
 1686SOL    HW2 5192   1.115   2.075   0.911  0.7144 -0.5158 -0.0246
 1687SOL     OW 5193   2.561   3.742   1.155 -0.4586 -0.1270  0.1572
 1687SOL    HW1 5194   2.556   3.754   1.060 -1.5104 -0.8810  0.0920
 1687SOL    HW2 5195   2.623   3.670   1.166 -2.2887 -1.8519 -0.1765
 1688SOL     OW 5196   1.321   2.585   2.263 -0.1041 -0.3068 -0.4794
 1688SOL    HW1 5197   1.281   2.593   2.177 -0.7128  0.4664 -0.1449
 1688SOL    HW2 5198   1.271   2.646   2.318  0.6829 -0.3119  0.2655
 1689SOL     OW 5199   0.777   1.686   2.057 -0.2136  0.0483  0.0560
 1689SOL    HW1 5200   0.764   1.713   2.149  1.8143  1.6993 -0.0555
 1689SOL    HW2 5201   0.862   1.723   2.034 -0.2449 -1.1693 -2.2266
 1690SOL     OW 5202   2.717   0.986   2.984 -0.7026  0.0368  0.5701
 1690SOL    HW1 5203   2.643   0.971   2.925  1.3859  0.2434 -2.3178
 1690SOL    HW2 5204   2.742   0.899   3.014 -1.1109 -0.2119  0.2007
 1691SOL     OW 5205   3.122   2.156   0.240 -1.0025  0.1176 -0.6278
 1691SOL    HW1 5206   3.047   2.184   0.292 -1.9131 -0.3326 -1.6725
 1691SOL    HW2 5207   3.180   2.113   0.303 -0.5844  2.3043  0.6133
 1692SOL     OW 5208   3.238   0.728   2.927  0.2072  0.5301  0.3636
 1692SOL    HW1 5209   3.303   0.730   2.997  1.2922 -0.6982 -0.5625
 1692SOL    HW2 5210   3.287   0.744   2.847 -0.7557  0.3400 -0.2902
 1693SOL     OW 5211   1.342   2.947   1.470 -0.6208 -0.4637  0.2263
 1693SOL    HW1 5212   1.255   2.986   1.464 -0.6186 -0.5495 -0.4115
 1693SOL    HW2 5213   1.334   2.862   1.427 -0.8624 -1.6073  2.3716
 1694SOL     OW 5214   0.520   2.908   2.784 -0.1585 -0.0281  0.5109
 1694SOL    HW1 5215   0.545   2.834   2.729  0.4550  1.2940 -1.0584
 1694SOL    HW2 5216   0.427   2.922   2.764  0.2696  0.9854 -0.8962
 1695SOL     OW 5217   0.068   0.871   1.936  0.0122 -0.1924  0.5290
 1695SOL    HW1 5218   0.060   0.819   1.856 -0.4670  0.1155  0.3714
 1695SOL    HW2 5219   0.044   0.811   2.006  0.4618 -0.4730  0.4508
 1696SOL     OW 5220   3.153   2.176   3.706 -0.0178 -0.1759 -0.7192
 1696SOL    HW1 5221   3.124   2.165   3.796  0.3020 -0.0138 -0.5941
 1696SOL    HW2 5222   3.169   2.270   3.697 -0.4299 -0.1355 -1.0629
 1697SOL     OW 5223   1.138   1.839   0.080  0.5574 -0.2666 -0.1486
 1697SOL    HW1 5224   1.052   1.880   0.082  1.1313  0.9641  0.0248
 1697SOL    HW2 5225   1.186   1.886   0.011  1.9165  0.8079  1.4637
 1698SOL     OW 5226   3.242   1.209   2.666  0.1914  0.3413 -0.9676
 1698SOL    HW1 5227   3.257   1.185   2.757 -0.3769  0.7493 -0.7599
 1698SOL    HW2 5228   3.152   1.181   2.649  0.5781 -0.5105 -1.6628
 1699SOL     OW 5229   3.082   0.273   0.967  0.0599  0.6362 -0.5527
 1699SOL    HW1 5230   3.022   0.265   1.042 -0.8878  0.0529 -1.3437
 1699SOL    HW2 5231   3.165   0.238   0.999 -0.5414 -0.3381  0.0176
 1700SOL     OW 5232   0.106   3.380   0.454 -0.0205 -0.7155  0.1753
 1700SOL    HW1 5233   0.095   3.366   0.360 -1.7918 -0.0506  0.2425
 1700SOL    HW2 5234   0.197   3.358   0.471  0.9330  1.1407 -2.0682
 1701SOL     OW 5235   1.662   3.171   0.948 -0.1888  0.1435  0.2254
 1701SOL    HW1 5236   1.605   3.119   1.005  1.2281  1.0066  2.5543
 1701SOL    HW2 5237   1.612   3.251   0.932  0.9943  1.8762  4.0587
 1702SOL     OW 5238   0.716   1.307   0.899 -0.2436 -0.6072 -0.1342
 1702SOL    HW1 5239   0.633   1.262   0.885 -0.4351 -0.9681  1.9020
 1702SOL    HW2 5240   0.747   1.328   0.811 -3.1397  0.7625 -0.9420
 1703SOL     OW 5241   1.036   2.740   0.618 -0.6067  0.3922 -0.0459
 1703SOL    HW1 5242   1.115   2.712   0.573 -2.9237 -2.5870 -2.7258
 1703SOL    HW2 5243   1.015   2.826   0.581  0.9088  0.9023  0.2157
 1704SOL     OW 5244   3.299   2.177   1.607 -0.3218 -0.0399 -0.9718
 1704SOL    HW1 5245   3.352   2.217   1.676  0.2562 -1.9162 -0.2556
 1704SOL    HW2 5246   3.298   2.242   1.537  1.5569  0.7301 -0.3504
 1705SOL     OW 5247   1.219   1.534   1.788  0.3886 -0.2622  0.6712
 1705SOL    HW1 5248   1.297   1.544   1.842 -0.4570 -0.7121  2.0159
 1705SOL    HW2 5249   1.146   1.538   1.850 -0.6950  0.5492 -0.5956
 1706SOL     OW 5250   1.100   0.836   2.456 -0.0290  0.2118 -0.0245
 1706SOL    HW1 5251   1.187   0.800   2.439  0.0800  0.6670 -0.4756
 1706SOL    HW2 5252   1.054   0.768   2.506  0.0248 -0.7240 -1.1948
 1707SOL     OW 5253   0.405   2.027   0.017 -0.0293  0.5070  0.2920
 1707SOL    HW1 5254   0.375   1.973  -0.057  1.6972  1.1415 -0.9303
 1707SOL    HW2 5255   0.331   2.026   0.078 -0.9980 -1.1715 -0.8108
 1708SOL     OW 5256   0.831   3.169   1.264 -0.2987 -0.1001 -0.1793
 1708SOL    HW1 5257   0.779   3.234   1.310  0.4007 -0.4886  1.2331
 1708SOL    HW2 5258   0.768   3.103   1.235 -0.9762  1.0596 -1.3946
 1709SOL     OW 5259   1.575   0.078   3.719  0.1531 -0.4451  0.5401
 1709SOL    HW1 5260   1.669   0.085   3.708 -0.0583 -0.2269 -1.6144
 1709SOL    HW2 5261   1.539   0.151   3.667 -1.2215 -0.9204  0.7701
 1710SOL     OW 5262   1.671   2.470   0.782 -0.0033 -0.3970 -0.1804
 1710SOL    HW1 5263   1.622   2.459   0.700  2.1279 -2.8923 -1.2689
 1710SOL    HW2 5264   1.739   2.534   0.761  0.5363 -1.0284 -0.3979
 1711SOL     OW 5265   2.591   0.566   1.699 -0.9483 -0.5117  0.1562
 1711SOL    HW1 5266   2.573   0.482   1.740 -1.2400 -0.6170 -0.1861
 1711SOL    HW2 5267   2.665   0.550   1.641  0.7961  0.0775  2.0884
 1712SOL     OW 5268   0.134   3.431   3.309  0.3256  0.0618  0.2254
 1712SOL    HW1 5269   0.049   3.473   3.293  0.6110  1.0562  1.2330
 1712SOL    HW2 5270   0.140   3.363   3.242 -1.6397 -0.5795  0.6247
 1713SOL     OW 5271   0.545   1.141   2.451  0.7692 -0.6287 -0.2733
 1713SOL    HW1 5272   0.463   1.151   2.403 -0.3103  0.4159  1.6452
 1713SOL    HW2 5273   0.560   1.227   2.491  2.3035 -1.0749  0.1993
 1714SOL     OW 5274   0.182   1.223   3.529  0.1911 -0.3434  0.1405
 1714SOL    HW1 5275   0.142   1.271   3.601  0.3199  1.3219 -0.8464
 1714SOL    HW2 5276   0.267   1.193   3.564  0.4801  0.8833  0.5392
 1715SOL     OW 5277   1.927   3.462   2.543  1.1575  0.2762  0.6578
 1715SOL    HW1 5278   1.943   3.440   2.635 -2.0581 -0.6619  1.1177
 1715SOL    HW2 5279   1.838   3.496   2.542  0.0652 -2.1940 -2.3747
 1716SOL     OW 5280   0.160   3.277   2.453 -0.1612 -0.2954 -1.0949
 1716SOL    HW1 5281   0.115   3.239   2.378 -1.2093  0.5404 -0.9001
 1716SOL    HW2 5282   0.105   3.255   2.528  0.1884  0.0250 -0.7377
 1717SOL     OW 5283   3.702   2.213   2.672  0.3100  0.0839  0.1605
 1717SOL    HW1 5284   3.661   2.296   2.647 -0.1073  0.1561  1.0310
 1717SOL    HW2 5285   3.739   2.179   2.591 -2.1017 -0.3378 -0.8436
 1718SOL     OW 5286   2.525   3.533   3.056  0.2014  0.2758 -0.5755
 1718SOL    HW1 5287   2.440   3.558   3.090  0.1932 -0.7168  0.1886
 1718SOL    HW2 5288   2.506   3.478   2.980  0.2107  1.8900 -1.7876
 1719SOL     OW 5289   3.434   1.247   1.397  0.1215  0.3205 -0.1490
 1719SOL    HW1 5290   3.431   1.159   1.359  0.4505 -1.0352  2.6620
 1719SOL    HW2 5291   3.521   1.279   1.374  0.7040 -0.8775  0.2689
 1720SOL     OW 5292   3.536   2.461   0.835  0.0011 -0.4010 -0.3801
 1720SOL    HW1 5293   3.551   2.378   0.791  1.6795 -1.3649  1.8167
 1720SOL    HW2 5294   3.622   2.504   0.836 -0.5622  0.7893 -0.3552
 1721SOL     OW 5295   0.445   3.027   0.516  0.1312  0.1159 -0.0726
 1721SOL    HW1 5296   0.507   3.090   0.552  1.4735 -1.6067  0.8266
 1721SOL    HW2 5297   0.401   3.074   0.445  2.6364  1.4156 -0.9083
 1722SOL     OW 5298   2.235   3.415   0.943  0.2991  0.2353  0.4033
 1722SOL    HW1 5299   2.232   3.336   0.889  1.4539 -0.1273  0.8292
 1722SOL    HW2 5300   2.285   3.478   0.891 -0.1485  0.5095  0.2962
 1723SOL     OW 5301   1.250   1.283   3.114 -0.1035 -0.0338 -0.3209
 1723SOL    HW1 5302   1.176   1.324   3.069 -0.4306  1.3333  1.3784
 1723SOL    HW2 5303   1.240   1.190   3.096 -1.6856  0.2195 -0.9080
 1724SOL     OW 5304   2.946   2.582   1.369  0.0041 -0.0399 -0.0122
 1724SOL    HW1 5305   3.020   2.610   1.315  0.0632 -0.2679 -0.0509
 1724SOL    HW2 5306   2.869   2.603   1.317  0.0867 -1.0633 -0.5751
 1725SOL     OW 5307   0.569   1.482   0.152  0.0195  0.0160  0.3921
 1725SOL    HW1 5308   0.574   1.529   0.069  0.4581 -1.1372 -0.2641
 1725SOL    HW2 5309   0.488   1.430   0.145  0.4522 -0.6657  0.3495
 1726SOL     OW 5310   1.403   2.762   1.926 -0.2579  0.4179 -0.2764
 1726SOL    HW1 5311   1.374   2.783   2.015  0.7262  0.5242  0.0208
 1726SOL    HW2 5312   1.391   2.844   1.877 -2.1519 -0.0048 -0.6318
 1727SOL     OW 5313   0.292   1.034   3.317  0.4549 -0.3774  0.9308
 1727SOL    HW1 5314   0.216   1.092   3.315  0.0218 -0.8876  1.7448
 1727SOL    HW2 5315   0.358   1.082   3.366  1.2868  0.7587 -1.1834
 1728SOL     OW 5316   1.438   2.795   0.635 -0.1800 -0.2772 -0.0815
 1728SOL    HW1 5317   1.511   2.848   0.668 -0.8188 -0.0417  0.9756
 1728SOL    HW2 5318   1.363   2.855   0.636 -1.1564 -1.4521  2.1334
 1729SOL     OW 5319   1.025   1.825   1.906 -0.1517 -0.3805  0.4888
 1729SOL    HW1 5320   1.003   1.849   1.815  0.0278  1.0590  0.8001
 1729SOL    HW2 5321   1.120   1.830   1.909 -0.2189  0.9931  1.0975
 1730SOL     OW 5322   2.202   1.828   2.265  0.1457  0.0835 -0.2008
 1730SOL    HW1 5323   2.272   1.829   2.200 -1.9965 -0.9421 -2.7087
 1730SOL    HW2 5324   2.212   1.744   2.310  0.6916  0.0671 -0.3506
 1731SOL     OW 5325   1.849   0.879   2.582 -0.0994 -0.2406 -0.3185
 1731SOL    HW1 5326   1.767   0.921   2.608 -0.2603  0.5549 -1.9602
 1731SOL    HW2 5327   1.914   0.910   2.645 -0.1984  2.5819 -1.4311
 1732SOL     OW 5328   1.395   2.509   1.872  0.3039 -0.1019  0.4473
 1732SOL    HW1 5329   1.389   2.598   1.909 -2.7163 -0.6856  1.5859
 1732SOL    HW2 5330   1.405   2.523   1.778 -1.7546  1.5391  0.3933
 1733SOL     OW 5331   1.113   3.084   2.194 -0.0299  0.4781  0.6737
 1733SOL    HW1 5332   1.101   2.989   2.195 -0.9310  0.5437 -0.7529
 1733SOL    HW2 5333   1.161   3.102   2.114  0.3602  1.2187  1.0620
 1734SOL     OW 5334   1.877   1.828   0.753  0.1309 -0.1123 -0.0709
 1734SOL    HW1 5335   1.807   1.762   0.751  1.6412 -1.8099 -0.3101
 1734SOL    HW2 5336   1.908   1.832   0.662  1.6584 -0.9655  0.3596
 1735SOL     OW 5337   0.529   2.802   2.009 -0.3760  0.3064  0.0468
 1735SOL    HW1 5338   0.450   2.846   2.041  0.3500  1.1423  0.7606
 1735SOL    HW2 5339   0.599   2.866   2.023  0.6745 -0.9664  0.8341
 1736SOL     OW 5340   1.248   0.719   0.884 -0.2460  0.5496  0.0310
 1736SOL    HW1 5341   1.243   0.730   0.979  0.8093  0.9918  0.0489
 1736SOL    HW2 5342   1.161   0.744   0.852 -0.2105  1.6395  0.7645
 1737SOL     OW 5343   3.461   1.672   0.612 -0.1202 -0.2791  0.1082
 1737SOL    HW1 5344   3.384   1.672   0.555  1.8914  0.7871 -2.8735
 1737SOL    HW2 5345   3.478   1.580   0.629 -0.8441 -0.6357 -0.9851
 1738SOL     OW 5346   2.527   0.536   3.739 -0.1236  0.0843 -0.0979
 1738SOL    HW1 5347   2.521   0.608   3.675 -0.1031  0.9610  0.8590
 1738SOL    HW2 5348   2.547   0.459   3.686 -2.6127  0.2661 -1.4686
 1739SOL     OW 5349   0.604   2.224   3.163 -0.5024 -0.1020  0.3309
 1739SOL    HW1 5350   0.612   2.320   3.162  0.5080 -0.0663 -3.1715
 1739SOL    HW2 5351   0.510   2.208   3.152 -0.5483  0.5391 -0.2835
 1740SOL     OW 5352   3.448   2.867   0.113 -0.2289  0.0965  0.0220
 1740SOL    HW1 5353   3.522   2.928   0.112  0.5491 -0.8009  1.0068
 1740SOL    HW2 5354   3.407   2.881   0.198  0.0954 -0.9056  0.3562
 1741SOL     OW 5355   2.131   2.964   2.652 -0.6402  0.7750 -0.1821
 1741SOL    HW1 5356   2.077   3.037   2.683 -0.1956  1.1822 -0.3391
 1741SOL    HW2 5357   2.069   2.896   2.627 -1.0977  1.3705 -0.6980
 1742SOL     OW 5358   2.236   2.111   0.363  1.0143  0.4748  0.2279
 1742SOL    HW1 5359   2.262   2.037   0.419 -0.7400 -0.0036  0.4658
 1742SOL    HW2 5360   2.199   2.174   0.424  0.1200  0.4315 -0.2643
 1743SOL     OW 5361   0.093   0.156   0.715 -0.6705 -0.1455 -0.2387
 1743SOL    HW1 5362   0.133   0.140   0.630  3.8044  0.3057  1.4592
 1743SOL    HW2 5363   0.071   0.069   0.749 -3.9378 -0.2546 -2.2422
 1744SOL     OW 5364   2.977   2.454   2.847  0.3201  0.7176  0.5713
 1744SOL    HW1 5365   2.989   2.546   2.821  1.5405 -0.0570 -1.9007
 1744SOL    HW2 5366   3.061   2.412   2.829 -0.3205 -0.9624  1.2933
 1745SOL     OW 5367   0.630   0.111   2.872 -0.3582  0.5731  0.3341
 1745SOL    HW1 5368   0.578   0.146   2.944 -0.0215  1.5297  0.1265
 1745SOL    HW2 5369   0.581   0.135   2.793 -0.4592 -0.0130  0.2097
 1746SOL     OW 5370   2.548   0.764   1.350  0.8025  0.4524  0.2277
 1746SOL    HW1 5371   2.619   0.700   1.356  0.8060  0.2614 -1.4061
 1746SOL    HW2 5372   2.575   0.824   1.281  0.2891  1.5887  0.9780
 1747SOL     OW 5373   3.538   3.191   0.049  0.4451  0.2753 -0.5879
 1747SOL    HW1 5374   3.489   3.237  -0.019  0.0218 -0.9252 -1.1181
 1747SOL    HW2 5375   3.478   3.188   0.124  0.9122  1.5968 -0.1299
 1748SOL     OW 5376   0.806   3.155   0.330  0.5722  0.4125  0.1682
 1748SOL    HW1 5377   0.859   3.233   0.311  0.6101  0.1363 -0.8858
 1748SOL    HW2 5378   0.771   3.128   0.245 -0.1747 -0.1989  0.6584
 1749SOL     OW 5379  -0.008   0.976   0.040 -0.2407 -0.2133  0.0128
 1749SOL    HW1 5380  -0.042   0.893   0.008  1.0714 -0.4532 -0.8611
 1749SOL    HW2 5381   0.087   0.971   0.024  0.1172  0.7174  1.6086
 1750SOL     OW 5382   2.602   2.532   2.406 -0.0596 -0.3352 -0.2242
 1750SOL    HW1 5383   2.677   2.590   2.419  1.1366 -2.0285  0.9490
 1750SOL    HW2 5384   2.590   2.529   2.311  0.5777  0.9074 -0.3601
 1751SOL     OW 5385   2.525   3.474   0.334 -0.3931 -0.2911 -0.4736
 1751SOL    HW1 5386   2.436   3.474   0.369  0.6197  1.1109  2.4148
 1751SOL    HW2 5387   2.530   3.553   0.280 -0.2627  1.0974  1.4590
 1752SOL     OW 5388   2.417   3.042   1.726  0.6885  0.2953 -0.0863
 1752SOL    HW1 5389   2.473   2.965   1.717  0.2974  0.0493 -0.4649
 1752SOL    HW2 5390   2.381   3.035   1.814 -0.3453 -0.6537 -0.5560
 1753SOL     OW 5391   1.266   3.705   3.075 -0.1394  0.2279  0.0749
 1753SOL    HW1 5392   1.294   3.685   3.164  0.2291 -1.2471 -0.3475
 1753SOL    HW2 5393   1.194   3.645   3.057  1.6286 -1.5508 -1.5686
 1754SOL     OW 5394   2.305   2.725   0.246  0.4250  0.1566 -0.2903
 1754SOL    HW1 5395   2.335   2.794   0.305 -3.2375  0.6879  1.2134
 1754SOL    HW2 5396   2.213   2.745   0.231 -0.2477 -3.2390 -1.5182
 1755SOL     OW 5397   2.237   2.395   2.763  0.0091 -0.1905 -0.6460
 1755SOL    HW1 5398   2.171   2.453   2.726  1.1860  2.6400  1.2736
 1755SOL    HW2 5399   2.318   2.419   2.717  0.6023  0.0387  0.4893
 1756SOL     OW 5400   0.072   2.214   1.304  0.6951 -0.9851  0.4761
 1756SOL    HW1 5401   0.165   2.196   1.320  1.1689  1.0429  0.4201
 1756SOL    HW2 5402   0.065   2.215   1.208 -0.2077 -4.5121  0.3917
 1757SOL     OW 5403   1.053   2.003   1.515  0.7229 -0.4234  1.0737
 1757SOL    HW1 5404   0.971   1.963   1.543  1.0199 -1.5410  0.4099
 1757SOL    HW2 5405   1.075   2.064   1.586 -0.1563 -0.8614  1.7430
 1758SOL     OW 5406   3.033   2.207   3.016  0.8520 -0.5696 -0.0039
 1758SOL    HW1 5407   2.958   2.211   2.957  0.9281 -3.2830 -0.3729
 1758SOL    HW2 5408   3.006   2.259   3.092 -0.5837  0.1256 -0.9404
 1759SOL     OW 5409   1.862   2.577   3.239  0.4761 -0.9130 -0.0149
 1759SOL    HW1 5410   1.805   2.653   3.250  0.0267 -1.1114 -0.8880
 1759SOL    HW2 5411   1.874   2.542   3.327  0.4665  0.0113  0.3557
 1760SOL     OW 5412   3.160   0.563   0.359 -0.0246  0.2939 -0.8418
 1760SOL    HW1 5413   3.243   0.595   0.321  0.3939  1.0646  0.6211
 1760SOL    HW2 5414   3.131   0.636   0.414 -1.1767 -0.3608 -0.5766
 1761SOL     OW 5415   1.707   2.105   1.798 -0.1351 -0.2334 -0.1109
 1761SOL    HW1 5416   1.653   2.027   1.812 -2.6994  1.3651 -0.3611
 1761SOL    HW2 5417   1.707   2.119   1.704  3.7512 -2.0666 -0.5785
 1762SOL     OW 5418   1.642   3.128   3.693  0.2293 -0.2286  0.1102
 1762SOL    HW1 5419   1.690   3.163   3.618 -1.0225  2.0288  0.2691
 1762SOL    HW2 5420   1.683   3.168   3.769 -0.2962 -0.2822  0.4296
 1763NA      NA 5421   2.964   0.035   0.603 -0.0898 -0.3112  0.2393
 1764NA      NA 5422   0.125   1.519   1.849 -0.0604 -0.3454 -0.1528
   3.73930   3.73930   3.73930
