Protein in water
 5445
    0TYR      N    1   1.190   2.533   1.233 -0.8576 -0.4070  0.3880
    0TYR     H1    2   1.251   2.484   1.164  1.3779 -0.5868  2.3501
    0TYR     H2    3   1.171   2.452   1.295 -0.1551 -1.0572 -0.2166
    0TYR     H3    4   1.256   2.603   1.273  0.4436 -1.1762 -0.3535
    0TYR     CA    5   1.067   2.590   1.168 -0.0085 -0.3538 -0.7499
    0TYR     HA    6   1.037   2.511   1.100  1.1822 -0.1229 -1.5774
    0TYR     CB    7   0.958   2.644   1.268  0.2870  0.4930  0.9392
    0TYR    HB1    8   0.869   2.670   1.207 -0.1034 -0.2014  1.2026
    0TYR    HB2    9   0.995   2.736   1.318 -1.7211  1.5884  0.5477
    0TYR     CG   10   0.904   2.543   1.376 -0.2102  0.6945  0.4532
    0TYR    CD1   11   0.974   2.518   1.497 -0.3488 -0.4554  0.2503
    0TYR    HD1   12   1.069   2.563   1.523 -1.4679  1.6902  0.9015
    0TYR    CE1   13   0.909   2.452   1.599 -0.4272 -0.5506  0.6559
    0TYR    HE1   14   0.973   2.435   1.684  2.0121  3.0064 -0.2322
    0TYR     CZ   15   0.779   2.400   1.582 -0.2970  0.2322 -0.3086
    0TYR     OH   16   0.728   2.327   1.688  0.1843 -0.2827 -0.0845
    0TYR     HH   17   0.644   2.306   1.647 -0.7528  3.4438 -0.4442
    0TYR    CD2   18   0.788   2.470   1.354  0.5692  0.2422  0.6395
    0TYR    HD2   19   0.736   2.483   1.260  0.7598 -1.2293  0.3111
    0TYR    CE2   20   0.713   2.414   1.455  0.3347  0.4433 -1.1114
    0TYR    HE2   21   0.622   2.361   1.433 -0.4906  1.4843 -0.3011
    0TYR      C   22   1.086   2.708   1.079  0.0104  0.1160  0.1837
    0TYR      O   23   1.187   2.770   1.099  0.2383  0.3512  1.4052
    1TYR      N   24   0.997   2.738   0.978  0.6128 -0.0294  0.3842
    1TYR     HN   25   0.916   2.682   0.965  0.1192  0.8109 -0.3024
    1TYR     CA   26   1.029   2.849   0.887 -0.6790  0.9548 -0.4827
    1TYR     HA   27   1.107   2.907   0.934  0.8336 -0.7112 -0.8323
    1TYR     CB   28   1.090   2.789   0.749 -0.1378 -0.8172 -0.1022
    1TYR    HB1   29   1.018   2.732   0.685  1.7091 -2.0611 -1.1523
    1TYR    HB2   30   1.170   2.713   0.761 -0.1373 -0.8168 -0.1009
    1TYR     CG   31   1.144   2.904   0.663 -0.0446 -0.5515 -0.6761
    1TYR    CD1   32   1.066   2.951   0.553 -0.7228  0.0700 -0.6604
    1TYR    HD1   33   0.971   2.903   0.536 -1.1834  0.0168  1.7280
    1TYR    CE1   34   1.116   3.051   0.473 -0.2767  0.0834  0.1664
    1TYR    HE1   35   1.045   3.081   0.398 -2.5848 -1.0395  1.7701
    1TYR     CZ   36   1.233   3.120   0.502 -0.7902 -0.3237  0.3517
    1TYR     OH   37   1.273   3.230   0.419  0.4528 -0.0796  0.0372
    1TYR     HH   38   1.367   3.243   0.433  0.7949 -1.7338 -0.5087
    1TYR    CD2   39   1.269   2.971   0.690  0.1004  0.2848  0.8555
    1TYR    HD2   40   1.330   2.937   0.773 -0.1236 -1.8944  0.1821
    1TYR    CE2   41   1.317   3.076   0.605  0.0860 -0.0840 -0.0412
    1TYR    HE2   42   1.403   3.128   0.644 -0.2286 -0.7213  1.5974
    1TYR      C   43   0.908   2.937   0.862 -0.7958  0.0611  0.5779
    1TYR      O   44   0.800   2.897   0.811  0.8381  0.1784  0.0753
    2ALA      N   45   0.923   3.065   0.903 -0.2592  0.0327  0.2239
    2ALA     HN   46   1.004   3.089   0.955 -0.7195  0.3743  0.7924
    2ALA     CA   47   0.829   3.165   0.855 -0.7457 -0.0360 -0.1995
    2ALA     HA   48   0.751   3.121   0.793 -1.4110 -0.8496  1.1570
    2ALA     CB   49   0.762   3.231   0.975 -0.2315  0.1692  1.2056
    2ALA    HB1   50   0.698   3.315   0.942  1.0019  0.9198  0.6822
    2ALA    HB2   51   0.699   3.153   1.023 -0.0825 -0.2867  0.6743
    2ALA    HB3   52   0.841   3.263   1.046 -0.7347  3.9766  0.2558
    2ALA      C   53   0.925   3.263   0.769  0.3295 -0.6362 -0.1630
    2ALA      O   54   1.042   3.279   0.803 -0.2061 -0.4362 -0.3538
    3PRO      N   55   0.878   3.326   0.657 -0.1709  0.9861  0.4261
    3PRO     CD   56   0.754   3.292   0.595  1.0034 -0.1949 -0.2538
    3PRO    HD1   57   0.748   3.187   0.561  0.3662 -0.4920  0.7221
    3PRO    HD2   58   0.668   3.314   0.663  1.0926  0.5513 -0.3725
    3PRO     CA   59   0.962   3.410   0.578 -0.3512  0.1765  0.4425
    3PRO     HA   60   1.061   3.369   0.567  0.5582  2.3904 -0.1873
    3PRO     CB   61   0.894   3.426   0.447 -0.6360  0.2392  0.1693
    3PRO    HB1   62   0.935   3.345   0.383  1.1099  0.6947  0.6815
    3PRO    HB2   63   0.897   3.521   0.391  2.1529 -1.2838 -2.5566
    3PRO     CG   64   0.744   3.391   0.481 -0.5808  0.0244  0.1309
    3PRO    HG1   65   0.697   3.364   0.385 -0.9003 -0.0971  0.3222
    3PRO    HG2   66   0.702   3.487   0.519 -0.7254 -0.1667  0.4614
    3PRO      C   67   0.976   3.538   0.655 -0.1911 -0.3208  0.2175
    3PRO      O   68   0.878   3.570   0.714  0.2424 -0.4799 -0.0346
    4GLU      N   69   1.089   3.602   0.654 -0.8798  0.2428  0.0363
    4GLU     HN   70   1.167   3.562   0.606  0.0257  1.0453  0.7857
    4GLU     CA   71   1.125   3.714   0.739  0.2366 -0.1097  0.3214
    4GLU     HA   72   1.096   3.694   0.841 -2.9230 -1.3877 -0.6782
    4GLU     CB   73   1.278   3.715   0.741  0.2958  0.3937  0.5534
    4GLU    HB1   74   1.309   3.755   0.642  1.0901  1.4959  1.2155
    4GLU    HB2   75   1.310   3.609   0.750  1.6775  0.9326  2.5866
    4GLU     CG   76   1.343   3.798   0.852 -0.7738  0.5339 -0.0213
    4GLU    HG1   77   1.329   3.757   0.954 -1.3191 -1.4970 -0.8564
    4GLU    HG2   78   1.293   3.897   0.846  0.1542  0.9468 -1.9028
    4GLU     CD   79   1.490   3.823   0.816 -0.2089  0.4156  0.0106
    4GLU    OE1   80   1.514   3.925   0.745  0.2980  0.2731 -0.2122
    4GLU    OE2   81   1.575   3.750   0.877  0.0844  0.1701  0.4921
    4GLU      C   82   1.073   3.855   0.706  0.5754  0.4152  1.0829
    4GLU      O   83   1.088   3.911   0.596 -0.3208  0.2014  0.9507
    5THR      N   84   1.010   3.925   0.801  0.1606  0.3689 -0.0558
    5THR     HN   85   1.003   3.890   0.895  0.8572  2.1394  0.7019
    5THR     CA   86   1.003   4.073   0.792  0.3748 -0.8566  0.3587
    5THR     HA   87   0.994   4.099   0.687  0.8661  0.0564  0.5358
    5THR     CB   88   0.878   4.135   0.841 -0.1265  0.7411 -0.1913
    5THR     HB   89   0.796   4.076   0.794  0.5950 -0.0438 -0.4789
    5THR    OG1   90   0.841   4.270   0.802  0.1769 -0.2155  0.6919
    5THR    HG1   91   0.755   4.285   0.840 -1.0190 -0.2226 -1.8026
    5THR    CG2   92   0.871   4.119   0.991 -0.4380 -0.1437 -0.2113
    5THR   HG21   93   0.916   4.213   1.029  1.8836 -1.0404 -0.6104
    5THR   HG22   94   0.927   4.032   1.033  2.1821  0.3009 -2.5646
    5THR   HG23   95   0.762   4.122   1.016 -0.3339 -1.6639  0.5815
    5THR      C   96   1.126   4.137   0.839 -0.9590 -0.4467 -0.5574
    5THR      O   97   1.181   4.098   0.948  0.4460 -0.3028  0.0692
    6GLY      N   98   1.170   4.243   0.775  0.1857 -0.2680  0.1231
    6GLY     HN   99   1.123   4.274   0.693  0.5513 -1.7839 -0.6917
    6GLY     CA  100   1.276   4.336   0.815 -0.7986  0.2918  0.4813
    6GLY    HA1  101   1.304   4.385   0.723 -1.1101  0.4955  0.4937
    6GLY    HA2  102   1.347   4.279   0.874 -0.8491  0.8331  1.0847
    6GLY      C  103   1.226   4.448   0.910 -0.5067  0.3024  0.2553
    6GLY      O  104   1.300   4.537   0.948 -0.1946 -0.6210  0.0489
    7THR      N  105   1.094   4.446   0.938  0.2376 -0.6146  0.2929
    7THR     HN  106   1.052   4.370   0.888  1.6180 -0.7743 -0.6724
    7THR     CA  107   1.030   4.548   1.023  0.1501  0.3934  0.0359
    7THR     HA  108   1.097   4.633   1.022  1.9733 -0.9592  1.0672
    7THR     CB  109   0.878   4.576   0.983 -0.4265 -0.2065 -0.6330
    7THR     HB  110   0.816   4.492   1.020 -0.5475  0.7586  1.5463
    7THR    OG1  111   0.861   4.589   0.839 -0.6490 -0.1956 -0.0673
    7THR    HG1  112   0.863   4.500   0.803  1.7613 -0.0901 -0.3698
    7THR    CG2  113   0.837   4.714   1.044 -0.5586  0.3216 -0.0679
    7THR   HG21  114   0.733   4.722   1.004 -0.1433 -0.3272 -1.3518
    7THR   HG22  115   0.908   4.795   1.016  1.3354 -0.6981  1.5347
    7THR   HG23  116   0.832   4.695   1.153 -1.1581 -1.8191 -0.4125
    7THR      C  117   1.026   4.507   1.168  0.1117  0.3777 -0.4039
    7THR      O  118   0.929   4.440   1.214 -0.3295  0.2962  0.2263
    8TRP      N  119   1.135   4.534   1.246  0.8270  0.1452  0.1218
    8TRP     HN  120   1.208   4.572   1.190  0.0772 -1.8983 -2.4359
    8TRP     CA  121   1.163   4.502   1.386 -0.3297  0.2522 -0.2004
    8TRP     HA  122   1.149   4.398   1.412  0.9092 -0.3832 -1.8787
    8TRP     CB  123   1.316   4.529   1.409  0.4845 -0.0248  0.0907
    8TRP    HB1  124   1.337   4.507   1.516  2.1878 -0.8544 -0.3806
    8TRP    HB2  125   1.331   4.639   1.402  0.8353 -0.0050  0.9981
    8TRP     CG  126   1.400   4.451   1.309 -0.1151 -0.0244  0.3996
    8TRP    CD1  127   1.391   4.320   1.259 -0.7812  0.3269  0.2534
    8TRP    HD1  128   1.310   4.257   1.293 -0.2070 -1.3214 -1.2558
    8TRP    NE1  129   1.482   4.303   1.157 -0.4316  0.3133 -0.7129
    8TRP    HE1  130   1.480   4.218   1.110 -2.1859 -1.0993  1.6764
    8TRP    CE2  131   1.549   4.420   1.139 -1.1316  0.0678 -0.2811
    8TRP    CD2  132   1.494   4.518   1.225  0.4661  0.1299 -0.3779
    8TRP    CE3  133   1.542   4.650   1.222 -0.2199  0.4002 -0.7944
    8TRP    HE3  134   1.486   4.729   1.270 -1.0605 -0.2151 -0.7189
    8TRP    CZ3  135   1.647   4.679   1.143 -0.1595 -0.0043  0.0700
    8TRP    HZ3  136   1.680   4.781   1.138  0.3344 -0.1983 -0.9963
    8TRP    CZ2  137   1.656   4.453   1.056  0.3078  0.4374 -0.2565
    8TRP    HZ2  138   1.697   4.384   0.984 -1.5322  1.4077 -2.3800
    8TRP    CH2  139   1.703   4.586   1.056  1.7065  0.2493  0.1327
    8TRP    HH2  140   1.778   4.614   0.983  0.6277 -0.7240 -1.4211
    8TRP      C  141   1.065   4.588   1.465 -0.2103  0.0718 -0.0827
    8TRP      O  142   1.064   4.714   1.447 -0.1632  0.4573  0.0727
    9TYR      N  143   0.987   4.521   1.551  0.6302  0.2254 -0.4744
    9TYR     HN  144   0.982   4.421   1.554  0.1619  0.1972  3.5297
    9TYR     CA  145   0.896   4.580   1.646 -0.0313  0.3532 -0.5050
    9TYR     HA  146   0.890   4.687   1.632 -1.7123  1.0134  3.7592
    9TYR     CB  147   0.753   4.523   1.637  0.4578 -0.1073  0.1263
    9TYR    HB1  148   0.692   4.567   1.720  1.9272  1.8422  0.2299
    9TYR    HB2  149   0.760   4.412   1.640 -2.5907 -0.3743  0.1568
    9TYR     CG  150   0.692   4.579   1.509 -0.0219  0.2895 -0.4062
    9TYR    CD1  151   0.671   4.495   1.398  0.3119 -0.2768  0.2188
    9TYR    HD1  152   0.705   4.393   1.406 -1.9859 -1.1123 -0.0435
    9TYR    CE1  153   0.615   4.549   1.284  0.2904 -0.0344  0.2217
    9TYR    HE1  154   0.597   4.491   1.195  1.9462  2.9060 -2.2082
    9TYR     CZ  155   0.569   4.686   1.278 -0.1945 -1.1521 -0.5403
    9TYR     OH  156   0.518   4.728   1.151  0.4496 -0.4357  0.5107
    9TYR     HH  157   0.542   4.820   1.138 -0.5550 -0.3410 -0.9201
    9TYR    CD2  158   0.650   4.709   1.506  0.1692  0.5514 -0.2869
    9TYR    HD2  159   0.668   4.766   1.596  0.0045 -2.5039  1.8400
    9TYR    CE2  160   0.578   4.760   1.396 -0.1140  0.1754 -1.1298
    9TYR    HE2  161   0.534   4.858   1.404 -0.2486  0.0175  0.3904
    9TYR      C  162   0.942   4.573   1.789 -0.5091 -0.4825 -0.6011
    9TYR    OT1  163   0.993   4.467   1.834  0.1315  0.1828  0.6399
    9TYR    OT2  164   0.918   4.673   1.866  0.5086 -0.1772 -0.1604
   10SOL     OW  165   1.890   3.602   2.676 -0.6305  0.5047 -0.8104
   10SOL    HW1  166   1.924   3.518   2.707 -2.6154 -0.5119 -1.1787
   10SOL    HW2  167   1.952   3.667   2.708 -0.5223 -0.8316  2.0291
   11SOL     OW  168   0.534   1.657   1.891  0.3301 -0.0764 -0.2869
   11SOL    HW1  169   0.537   1.682   1.983  2.0083  0.3986 -0.4396
   11SOL    HW2  170   0.443   1.674   1.865 -0.5817 -1.6096  1.6076
   12SOL     OW  171   0.257   2.056   2.698  0.1212 -0.5476 -0.0446
   12SOL    HW1  172   0.199   1.995   2.652 -1.5856  0.9729 -0.0572
   12SOL    HW2  173   0.294   2.110   2.628 -0.6638  0.2662  0.1408
   13SOL     OW  174   0.877   0.982   2.771 -0.5985 -0.0540  0.0926
   13SOL    HW1  175   0.891   0.914   2.705  4.7994 -0.1941  0.9939
   13SOL    HW2  176   0.921   0.950   2.849 -0.1038  3.3202  1.3674
   14SOL     OW  177   1.337   1.371   2.832  0.3687  0.4182 -0.0109
   14SOL    HW1  178   1.345   1.333   2.744 -0.0352 -0.4064  0.2958
   14SOL    HW2  179   1.313   1.297   2.887  0.2565  1.0051  0.7327
   15SOL     OW  180   0.973   1.576   3.671 -0.2501 -0.8624 -0.2571
   15SOL    HW1  181   0.907   1.532   3.724 -0.3943 -1.0533 -0.6019
   15SOL    HW2  182   0.936   1.663   3.655 -0.8098 -1.2698 -1.2001
   16SOL     OW  183   3.138   2.625   1.808 -0.2848  0.0511  0.0368
   16SOL    HW1  184   3.124   2.546   1.860 -0.2809  0.1394  0.1737
   16SOL    HW2  185   3.072   2.686   1.840 -3.1304 -1.2235 -2.8781
   17SOL     OW  186   0.339   0.438   2.960  0.7421  0.0919  0.3312
   17SOL    HW1  187   0.297   0.371   2.907  2.0539  0.4651 -1.2578
   17SOL    HW2  188   0.316   0.521   2.917 -0.6017  0.7126  2.0851
   18SOL     OW  189   0.265   0.724   2.515 -0.4821 -0.7396 -0.1491
   18SOL    HW1  190   0.252   0.713   2.421 -0.2904  1.8107 -0.5587
   18SOL    HW2  191   0.177   0.716   2.552 -0.3727 -3.2545 -0.2900
   19SOL     OW  192   2.182   1.043   0.632 -0.3935  0.1012 -0.6360
   19SOL    HW1  193   2.160   1.124   0.678 -0.5420 -1.7367  2.8817
   19SOL    HW2  194   2.132   1.047   0.550 -1.4911  2.8711  0.0588
   20SOL     OW  195   0.941   2.125   1.666  0.1000  0.4835  0.3798
   20SOL    HW1  196   1.020   2.138   1.614  0.1933  0.4074  0.5011
   20SOL    HW2  197   0.875   2.181   1.625  0.1427  0.3409  0.1135
   21SOL     OW  198   3.009   2.845   1.168 -0.3186  0.4410 -0.7348
   21SOL    HW1  199   2.931   2.832   1.221 -0.5172  0.7110 -0.9506
   21SOL    HW2  200   2.976   2.889   1.089  0.3017  2.3921  0.0212
   22SOL     OW  201   0.573   3.251   2.538  0.0074  0.1096 -0.0815
   22SOL    HW1  202   0.559   3.156   2.530 -0.9963  0.3341 -1.2132
   22SOL    HW2  203   0.487   3.287   2.558  0.1378  0.8962 -0.8739
   23SOL     OW  204   2.262   2.464   2.410  0.0637  0.2607 -0.9006
   23SOL    HW1  205   2.200   2.495   2.476 -0.0455  0.3445 -1.0421
   23SOL    HW2  206   2.294   2.380   2.444  0.7025  0.7407 -0.2997
   24SOL     OW  207   0.214   1.908   2.162 -0.8174 -0.6548  0.1753
   24SOL    HW1  208   0.123   1.937   2.161 -0.7400 -0.3522  1.1576
   24SOL    HW2  209   0.264   1.989   2.170 -0.4037 -0.7396 -1.2260
   25SOL     OW  210   2.469   0.651   0.028  0.4936  0.1609  0.4846
   25SOL    HW1  211   2.550   0.682   0.068  0.0228  0.2179  1.4223
   25SOL    HW2  212   2.401   0.707   0.066 -0.0115 -0.0486 -0.1001
   26SOL     OW  213   3.285   1.049   0.834  0.1466 -0.1126  0.3747
   26SOL    HW1  214   3.305   0.961   0.867 -0.7376 -0.1208  0.9054
   26SOL    HW2  215   3.279   1.038   0.739  1.0030 -0.4258  0.3417
   27SOL     OW  216  -0.001   0.532   1.757 -0.5586  0.2844 -0.2016
   27SOL    HW1  217  -0.071   0.535   1.692  0.5617  1.5665 -1.3911
   27SOL    HW2  218   0.080   0.534   1.706  0.3608  1.3023  1.2154
   28SOL     OW  219   0.123   1.642   2.667  0.8039 -0.0448 -0.7170
   28SOL    HW1  220   0.101   1.735   2.679 -0.4053 -0.2419 -1.3024
   28SOL    HW2  221   0.195   1.643   2.603  0.5590  0.4734 -0.9966
   29SOL     OW  222   1.793   0.686   0.574 -0.1651  0.1472  0.3892
   29SOL    HW1  223   1.888   0.679   0.570  0.1406  1.8132  2.7527
   29SOL    HW2  224   1.761   0.624   0.508  2.4971 -1.2953  0.3483
   30SOL     OW  225   1.321   0.175   2.974 -0.6820 -0.3089  0.2357
   30SOL    HW1  226   1.321   0.089   2.931  0.0412  1.2222 -3.1209
   30SOL    HW2  227   1.390   0.224   2.929 -0.7198  1.9162  2.3951
   31SOL     OW  228   2.599   2.806   0.987 -0.0443  0.4808 -0.0214
   31SOL    HW1  229   2.527   2.744   0.996  1.0089 -0.9520 -0.8890
   31SOL    HW2  230   2.597   2.858   1.067 -1.6951  0.1179  0.1936
   32SOL     OW  231   1.884   0.845   1.920 -0.2657 -0.2253  0.0428
   32SOL    HW1  232   1.879   0.763   1.970 -0.1760 -0.9492 -1.0998
   32SOL    HW2  233   1.959   0.891   1.958 -1.3890  0.1902  1.9061
   33SOL     OW  234   1.724   1.218   2.794 -0.0156  0.1516 -0.0276
   33SOL    HW1  235   1.800   1.276   2.785  0.5832 -0.2870  1.7363
   33SOL    HW2  236   1.700   1.195   2.704  2.7262 -0.6762 -0.6490
   34SOL     OW  237   0.443   2.679   0.506  0.1254 -0.7252  0.4018
   34SOL    HW1  238   0.432   2.642   0.594  2.5358 -0.3061  0.9521
   34SOL    HW2  239   0.399   2.617   0.448 -2.0080 -0.7154  1.9112
   35SOL     OW  240   1.818   0.030   1.503 -0.1670  0.1804  0.0340
   35SOL    HW1  241   1.823   0.021   1.408 -0.8444 -4.8426  0.2269
   35SOL    HW2  242   1.903   0.000   1.535 -1.1501 -1.8297  0.9766
   36SOL     OW  243   1.161   0.237   0.154 -0.1822  0.4075 -0.3886
   36SOL    HW1  244   1.252   0.225   0.181 -0.4662  1.1603  0.9938
   36SOL    HW2  245   1.159   0.325   0.116 -0.7752  1.4149  1.8148
   37SOL     OW  246   1.716   0.950   1.590 -0.4211  0.4697  0.1142
   37SOL    HW1  247   1.735   0.934   1.682  0.9718  1.7332  0.0858
   37SOL    HW2  248   1.774   0.892   1.542 -0.5874  0.3788  0.0202
   38SOL     OW  249   2.379   2.765   2.975 -0.5730  0.6871 -0.1871
   38SOL    HW1  250   2.419   2.685   3.008  1.2223  2.7755  3.1500
   38SOL    HW2  251   2.287   2.741   2.961 -0.0627 -1.9724  0.3813
   39SOL     OW  252   0.721   1.372   0.692 -0.0748 -1.0458  0.8162
   39SOL    HW1  253   0.741   1.301   0.631  2.9247  0.9350 -0.7332
   39SOL    HW2  254   0.656   1.426   0.647  2.6099  0.7779 -1.1611
   40SOL     OW  255   1.997   2.784   2.095  1.0864 -0.3427 -0.4809
   40SOL    HW1  256   1.940   2.860   2.103  2.0942  0.3141  1.1804
   40SOL    HW2  257   2.057   2.806   2.023 -0.4013 -0.8431 -1.9214
   41SOL     OW  258   3.296   1.382   2.478 -0.0464 -0.3857 -0.0398
   41SOL    HW1  259   3.344   1.353   2.399  1.9945 -0.4056  1.1356
   41SOL    HW2  260   3.304   1.477   2.477 -0.4047 -0.3563 -0.0856
   42SOL     OW  261   0.208   1.270   3.072  0.2121  0.1713 -0.6062
   42SOL    HW1  262   0.241   1.337   3.012 -2.0041  0.5719 -1.4634
   42SOL    HW2  263   0.215   1.311   3.159  2.4178  0.0019 -0.6451
   43SOL     OW  264   3.486   0.038   2.297 -0.0711 -0.2886 -0.3221
   43SOL    HW1  265   3.495  -0.053   2.271  0.2056 -0.7065  1.1444
   43SOL    HW2  266   3.417   0.073   2.240 -2.7034 -2.3621  1.3171
   44SOL     OW  267   0.768   3.613   2.972  0.6055  0.3610  0.2529
   44SOL    HW1  268   0.721   3.589   3.051  1.1887 -0.1248  0.4629
   44SOL    HW2  269   0.725   3.692   2.941  0.0315  0.2502  0.7574
   45SOL     OW  270   2.438   1.753   2.398  0.1558  0.3006  0.1664
   45SOL    HW1  271   2.518   1.783   2.355  1.9427 -0.1112  2.9228
   45SOL    HW2  272   2.444   1.658   2.396  0.0657  0.2714  0.8998
   46SOL     OW  273   0.370   1.788   2.757 -0.2913  0.0410  0.8250
   46SOL    HW1  274   0.389   1.722   2.691  1.7742 -0.3609  1.7501
   46SOL    HW2  275   0.345   1.865   2.707  1.2287 -0.2450 -0.4617
   47SOL     OW  276   2.009   1.346   2.130 -0.3256  0.5053 -0.4799
   47SOL    HW1  277   2.098   1.377   2.116 -0.2626 -0.1485 -1.6058
   47SOL    HW2  278   2.012   1.302   2.215  0.0622  1.7456  0.1804
   48SOL     OW  279   1.327   3.524   3.090  0.1470  0.1811 -0.2603
   48SOL    HW1  280   1.238   3.559   3.088 -0.2046 -0.6826 -0.4114
   48SOL    HW2  281   1.353   3.519   2.998 -0.0117 -0.4275 -0.2799
   49SOL     OW  282   3.006   2.987   0.375 -0.0848  0.4255  0.4071
   49SOL    HW1  283   3.008   3.031   0.289  3.4409 -0.8195 -0.2920
   49SOL    HW2  284   2.988   2.896   0.354 -0.9486  0.3870  1.2353
   50SOL     OW  285   0.342   3.403   0.349  0.5176  0.4609  0.4812
   50SOL    HW1  286   0.354   3.480   0.293  1.2688  0.6458  0.8733
   50SOL    HW2  287   0.251   3.377   0.336  0.7152  0.4197 -0.9171
   51SOL     OW  288   1.502   2.534   0.242  0.2218 -0.1972  0.5811
   51SOL    HW1  289   1.429   2.471   0.244  2.4483 -3.0660 -0.4965
   51SOL    HW2  290   1.546   2.523   0.327  0.4480  0.1589  0.5137
   52SOL     OW  291   2.829   0.094   1.991  0.3454 -0.4442 -1.1621
   52SOL    HW1  292   2.905   0.080   1.936 -0.2153 -1.3266 -1.7281
   52SOL    HW2  293   2.864   0.096   2.080  1.1972  0.5728 -1.4976
   53SOL     OW  294   3.615   1.047   0.737 -0.1861  0.3364  0.9722
   53SOL    HW1  295   3.628   0.958   0.707 -0.6559  0.8385 -0.8613
   53SOL    HW2  296   3.529   1.047   0.778 -0.1867 -0.0460  0.9681
   54SOL     OW  297   0.543   2.934   1.094 -0.2543  0.0311  0.6826
   54SOL    HW1  298   0.627   2.976   1.079 -0.2955 -0.3737 -0.7919
   54SOL    HW2  299   0.478   3.002   1.076 -0.2740 -0.1367  0.0946
   55SOL     OW  300   3.041   2.209   2.133  0.6088  0.0461 -0.4101
   55SOL    HW1  301   2.988   2.140   2.093  1.6144  0.0897 -1.8968
   55SOL    HW2  302   3.126   2.169   2.148  0.7289  0.5149  0.2171
   56SOL     OW  303   3.539   2.981   3.351  0.1306 -0.6440  0.2200
   56SOL    HW1  304   3.488   3.024   3.282 -1.2016 -1.3828  0.7163
   56SOL    HW2  305   3.525   2.887   3.335  0.8843 -0.8422  0.7121
   57SOL     OW  306   2.871   1.374   3.636 -0.2832  0.2055 -0.0609
   57SOL    HW1  307   2.908   1.316   3.701 -3.2126 -1.2047  0.4972
   57SOL    HW2  308   2.908   1.345   3.553  1.9219  0.7158  0.6896
   58SOL     OW  309   1.966   2.118   0.688  0.8499  0.6532 -0.1472
   58SOL    HW1  310   1.938   2.114   0.596  1.5518 -0.1873 -0.3296
   58SOL    HW2  311   2.034   2.052   0.696 -0.0039 -0.0956  1.2730
   59SOL     OW  312   2.974   0.436   3.497  0.2642  0.0135 -0.0389
   59SOL    HW1  313   3.054   0.479   3.465  0.7971 -0.6554  0.3847
   59SOL    HW2  314   2.956   0.479   3.580 -0.0615  0.4532 -0.3305
   60SOL     OW  315   2.569   0.998   0.171 -0.1729 -0.4483 -0.1630
   60SOL    HW1  316   2.583   0.919   0.223 -0.5457 -0.1562  0.4025
   60SOL    HW2  317   2.579   1.070   0.234 -2.8928 -0.1580  0.0925
   61SOL     OW  318   2.536   3.492   0.743 -0.2732 -0.0055  0.4820
   61SOL    HW1  319   2.618   3.495   0.692 -0.7843  0.1624 -0.3502
   61SOL    HW2  320   2.565   3.489   0.834  0.6740  1.2634  0.2649
   62SOL     OW  321   0.389   2.769   1.816  0.4915  0.6930 -0.4116
   62SOL    HW1  322   0.359   2.813   1.896  0.9370 -0.4002  0.3931
   62SOL    HW2  323   0.478   2.741   1.838  0.2627 -0.4698 -0.9512
   63SOL     OW  324   1.057   3.331   3.201 -0.0925 -0.3342 -0.2704
   63SOL    HW1  325   1.015   3.340   3.115  0.5245 -0.3153 -0.5752
   63SOL    HW2  326   1.027   3.408   3.250  0.4593  0.2729 -0.8613
   64SOL     OW  327   1.238   0.949   3.292 -0.8449 -0.0457  0.3240
   64SOL    HW1  328   1.225   1.044   3.283 -0.9063  0.2307  2.7122
   64SOL    HW2  329   1.170   0.910   3.236 -2.2056  1.3525  0.9228
   65SOL     OW  330   0.601   0.806   0.396 -0.3186 -0.2744 -0.5747
   65SOL    HW1  331   0.691   0.811   0.363 -0.5054  0.5334 -1.0093
   65SOL    HW2  332   0.607   0.838   0.486 -0.0873 -0.7682 -0.4098
   66SOL     OW  333   3.531   0.836   3.039  0.0862  0.2079  0.4266
   66SOL    HW1  334   3.564   0.751   3.010  1.2836  1.0563 -0.7910
   66SOL    HW2  335   3.545   0.837   3.133 -0.6310 -1.2259  0.5738
   67SOL     OW  336   3.096   1.832   3.035  0.4915 -0.1875 -0.0710
   67SOL    HW1  337   3.017   1.801   3.080  0.3029 -1.0968 -0.9782
   67SOL    HW2  338   3.102   1.776   2.958  2.8562 -1.1439  0.7274
   68SOL     OW  339   2.172   0.776   2.176 -0.4413 -0.0247  0.0050
   68SOL    HW1  340   2.164   0.706   2.111 -1.1472 -0.2136  0.2882
   68SOL    HW2  341   2.202   0.731   2.255 -0.0892  0.1225 -0.0453
   69SOL     OW  342   2.090   1.465   2.904 -0.0100 -0.1799  0.2273
   69SOL    HW1  343   2.044   1.520   2.968 -0.3271 -0.1933  0.0113
   69SOL    HW2  344   2.047   1.483   2.821 -1.1553 -1.9058  0.3983
   70SOL     OW  345   0.370   3.141   1.851 -0.1155  0.4152 -0.3089
   70SOL    HW1  346   0.390   3.228   1.816 -1.5752  1.8027  2.0442
   70SOL    HW2  347   0.448   3.115   1.899  0.1163  0.6522 -0.5558
   71SOL     OW  348   2.347   0.958   3.046 -0.5970  0.1543  0.0223
   71SOL    HW1  349   2.311   0.998   2.967 -0.2488  1.3711  0.4507
   71SOL    HW2  350   2.437   0.933   3.021  0.0372  1.9176  0.4401
   72SOL     OW  351   2.504   0.311   3.492 -0.2241  0.4978 -0.2522
   72SOL    HW1  352   2.486   0.265   3.574  1.3493  1.2782  0.5719
   72SOL    HW2  353   2.532   0.243   3.431 -0.4909  0.0308  0.1449
   73SOL     OW  354   2.280   0.728   2.856  0.2516 -0.1636 -0.3301
   73SOL    HW1  355   2.198   0.690   2.823 -0.7845  1.5165  0.1919
   73SOL    HW2  356   2.276   0.715   2.951  0.9525 -0.7260 -0.3720
   74SOL     OW  357   2.147   2.910   1.600 -0.1717  0.2210  0.9407
   74SOL    HW1  358   2.111   2.987   1.556 -0.9873  0.3282  1.7425
   74SOL    HW2  359   2.224   2.943   1.646 -0.9647  0.7815  1.9366
   75SOL     OW  360   2.113   0.115   2.195 -0.2782 -0.4976  0.6314
   75SOL    HW1  361   2.184   0.066   2.236  1.0537 -0.1983 -1.1885
   75SOL    HW2  362   2.146   0.135   2.107 -0.9848  3.0597  1.0302
   76SOL     OW  363   1.918   1.201   1.377 -0.5199 -0.6732 -0.1101
   76SOL    HW1  364   1.904   1.137   1.447  1.7136 -1.5991 -0.4376
   76SOL    HW2  365   1.975   1.267   1.416 -1.3920  0.2227 -0.3077
   77SOL     OW  366   1.169   3.034   2.538  0.3080 -0.6593 -0.6496
   77SOL    HW1  367   1.081   3.067   2.522  0.0936 -1.3701 -1.0053
   77SOL    HW2  368   1.156   2.950   2.582  0.8311 -0.4308 -0.0310
   78SOL     OW  369   1.829   0.137   1.180 -0.1603  0.2670 -0.0412
   78SOL    HW1  370   1.906   0.125   1.124  0.2910  0.1429  0.5982
   78SOL    HW2  371   1.777   0.058   1.167 -0.1497  0.3191 -0.4208
   79SOL     OW  372   0.889   3.114   1.615  0.3565  0.0859  0.4768
   79SOL    HW1  373   0.920   3.044   1.557  1.4243 -0.2668  1.4263
   79SOL    HW2  374   0.854   3.068   1.691  2.2962  0.5274  1.7266
   80SOL     OW  375   3.252   1.646   2.519  0.1856 -0.0474  0.3608
   80SOL    HW1  376   3.225   1.693   2.597 -0.5978 -1.1903  0.8078
   80SOL    HW2  377   3.193   1.678   2.450 -1.3052 -1.3250  0.9691
   81SOL     OW  378   1.174   2.429   2.083 -0.5070 -0.6496  0.7809
   81SOL    HW1  379   1.224   2.461   2.008 -0.9687  0.5630  0.9627
   81SOL    HW2  380   1.191   2.335   2.085 -0.0027 -0.6057 -0.4762
   82SOL     OW  381   1.040   2.149   0.640 -0.2586  0.0126 -0.4089
   82SOL    HW1  382   1.048   2.184   0.552  0.2736 -1.4559 -0.9777
   82SOL    HW2  383   1.092   2.068   0.639 -2.3971 -1.4702  0.4622
   83SOL     OW  384   0.349   1.626   1.563  0.3129  0.3944 -0.6177
   83SOL    HW1  385   0.443   1.616   1.577  0.3790  1.4286 -0.2907
   83SOL    HW2  386   0.311   1.613   1.650  0.1277 -0.1760 -0.7760
   84SOL     OW  387   0.607   3.024   2.336  0.2833 -0.4366  0.2285
   84SOL    HW1  388   0.698   2.999   2.317  0.1431 -0.2693 -0.6834
   84SOL    HW2  389   0.585   3.088   2.269 -0.5407 -0.5350  0.3954
   85SOL     OW  390   1.035   0.720   2.703 -0.6703 -0.2395  0.5269
   85SOL    HW1  391   1.041   0.641   2.649 -2.1372  0.7563 -1.2129
   85SOL    HW2  392   1.118   0.765   2.688 -1.3606  0.4405 -1.7315
   86SOL     OW  393   2.758   1.617   0.614 -0.2203 -0.3048  0.0018
   86SOL    HW1  394   2.803   1.658   0.540 -2.5039 -0.2063 -1.4385
   86SOL    HW2  395   2.713   1.689   0.658 -1.0744 -0.7230 -0.1720
   87SOL     OW  396   1.589   3.651   1.107  0.0147 -0.2789 -0.2870
   87SOL    HW1  397   1.552   3.723   1.158 -0.7695 -0.9645  0.1508
   87SOL    HW2  398   1.569   3.672   1.016 -0.1059  0.1149 -0.1701
   88SOL     OW  399   0.814   2.336   2.688  0.1235 -0.2508 -0.0612
   88SOL    HW1  400   0.906   2.321   2.670 -0.0363 -0.5803 -0.6286
   88SOL    HW2  401   0.788   2.265   2.747  0.5756  0.6653  1.3064
   89SOL     OW  402   2.647   0.443   0.226 -0.0237  0.1040 -0.0132
   89SOL    HW1  403   2.579   0.495   0.270 -2.1981 -1.0070 -1.8043
   89SOL    HW2  404   2.602   0.362   0.201  2.4028 -1.3398 -0.0267
   90SOL     OW  405   1.291   0.488   0.099 -0.0923 -0.3980 -0.0294
   90SOL    HW1  406   1.303   0.467   0.192 -1.2659  1.3917  0.5859
   90SOL    HW2  407   1.370   0.536   0.075  0.6835 -1.7394 -0.2856
   91SOL     OW  408   3.190   0.071   2.417  0.4734 -0.2925 -0.4142
   91SOL    HW1  409   3.207   0.106   2.329 -0.1686  1.5048  0.1404
   91SOL    HW2  410   3.273   0.084   2.464  0.5478 -0.4715 -0.4923
   92SOL     OW  411   2.674   1.848   0.823 -0.2188  0.0302 -0.4179
   92SOL    HW1  412   2.648   1.924   0.874  2.7535  0.3590  0.8288
   92SOL    HW2  413   2.688   1.779   0.887 -0.2314 -0.7546 -1.2359
   93SOL     OW  414   2.488   2.296   1.075  0.0794  0.2133  0.1558
   93SOL    HW1  415   2.452   2.287   1.163 -1.5884  0.9228 -0.4001
   93SOL    HW2  416   2.411   2.292   1.017  1.1050 -0.0585 -1.2570
   94SOL     OW  417   2.425   2.906   1.784 -0.2812  0.1778  0.3409
   94SOL    HW1  418   2.462   2.994   1.794 -0.7275  0.3841  0.2279
   94SOL    HW2  419   2.500   2.847   1.790  0.0396  0.5758  0.2808
   95SOL     OW  420   0.913   1.541   0.765  0.4948  0.5026  0.0527
   95SOL    HW1  421   0.994   1.512   0.723  0.7723 -2.9232  2.5666
   95SOL    HW2  422   0.847   1.477   0.738 -0.4697  1.0728  0.9764
   96SOL     OW  423   1.629   1.774   3.276  0.1066  0.1571 -0.3025
   96SOL    HW1  424   1.665   1.747   3.191  0.4462  1.1418 -0.4872
   96SOL    HW2  425   1.654   1.704   3.336  0.8963  0.0132 -0.7787
   97SOL     OW  426   1.304   0.693   2.223  0.0538 -0.1788 -0.2972
   97SOL    HW1  427   1.334   0.782   2.209  0.8901 -0.8800 -3.8477
   97SOL    HW2  428   1.379   0.638   2.201 -0.6347 -1.8338  1.1742
   98SOL     OW  429   3.081   0.616   1.111  0.1837 -0.0457 -0.6556
   98SOL    HW1  430   3.141   0.660   1.050  0.1417  0.3057 -0.4473
   98SOL    HW2  431   3.002   0.671   1.111  1.0086  1.2938  1.4554
   99SOL     OW  432   1.457   3.729   3.174 -0.0947 -0.0024 -0.0696
   99SOL    HW1  433   1.385   3.792   3.173  0.7572  1.0346  0.8165
   99SOL    HW2  434   1.421   3.650   3.135 -1.5977  0.6065  0.0347
  100SOL     OW  435   3.560   1.458   2.357  0.8704  0.2959  0.0720
  100SOL    HW1  436   3.554   1.527   2.291  2.6818 -0.0354 -0.4930
  100SOL    HW2  437   3.601   1.500   2.432  0.8757  0.1126  0.1720
  101SOL     OW  438   3.286   1.020   2.273 -0.5327 -0.3187 -0.1118
  101SOL    HW1  439   3.340   1.097   2.258 -0.2355 -0.3205  0.8992
  101SOL    HW2  440   3.346   0.953   2.306 -1.1002 -0.3637  0.8867
  102SOL     OW  441   3.137  -0.017   2.047  0.0774  0.2212 -0.2243
  102SOL    HW1  442   3.115   0.056   1.989 -0.2212 -0.0592 -0.4704
  102SOL    HW2  443   3.233  -0.016   2.051  0.1015  0.2117 -0.7633
  103SOL     OW  444   2.350   1.595   3.216  0.1579 -0.6499 -0.1042
  103SOL    HW1  445   2.290   1.653   3.168 -0.9164 -0.6573  1.1707
  103SOL    HW2  446   2.301   1.570   3.295  1.8345 -0.6840  0.9750
  104SOL     OW  447   3.552   2.748   3.194  0.9541  0.9361 -1.1849
  104SOL    HW1  448   3.572   2.709   3.109  0.3149 -1.5761 -0.2491
  104SOL    HW2  449   3.635   2.747   3.241  0.7434 -0.3348 -0.8028
  105SOL     OW  450   1.235   2.370   0.341  0.1630  0.1872  0.2006
  105SOL    HW1  451   1.161   2.428   0.363  1.8664  2.0977  1.2460
  105SOL    HW2  452   1.292   2.374   0.418  2.6340  0.8900 -1.5399
  106SOL     OW  453   3.256   0.245   2.168 -0.0566  0.1105 -0.2862
  106SOL    HW1  454   3.311   0.313   2.207 -0.6005  0.1379  0.4605
  106SOL    HW2  455   3.168   0.284   2.166 -0.6105 -0.9515  1.2255
  107SOL     OW  456   1.496   3.311   1.242  0.2850 -0.3121  0.8389
  107SOL    HW1  457   1.421   3.342   1.292  0.9266  0.2727  1.4624
  107SOL    HW2  458   1.560   3.284   1.308  0.2308 -1.8101  0.3118
  108SOL     OW  459   2.053   0.961   0.076  0.1611 -0.0755 -0.1988
  108SOL    HW1  460   2.131   0.939   0.128 -1.2205 -1.6094  1.3322
  108SOL    HW2  461   1.981   0.916   0.120 -1.5872  1.1122 -1.6952
  109SOL     OW  462   3.316   0.665   2.220  0.3453  0.9316  0.1448
  109SOL    HW1  463   3.359   0.606   2.159  0.9169  0.0310  1.3778
  109SOL    HW2  464   3.364   0.654   2.302 -2.0093  0.1111  1.5116
  110SOL     OW  465   3.378   3.583   3.636  0.0142 -0.2077 -0.5364
  110SOL    HW1  466   3.295   3.626   3.659  0.7671  0.2855  1.5182
  110SOL    HW2  467   3.352   3.498   3.602 -1.3437 -0.5466  1.1942
  111SOL     OW  468   2.187   1.774   3.104  0.2520  0.4932 -0.4265
  111SOL    HW1  469   2.097   1.747   3.089  0.4784 -0.4100 -0.2290
  111SOL    HW2  470   2.182   1.832   3.180 -0.2635  1.1487 -0.9497
  112SOL     OW  471   0.828   0.905   0.022 -0.7538  0.8323 -0.2542
  112SOL    HW1  472   0.840   0.988   0.068 -2.0663  1.8897 -1.7027
  112SOL    HW2  473   0.737   0.907  -0.007 -0.8500 -1.1855 -0.2365
  113SOL     OW  474   0.562   2.648   2.165  0.4836 -0.1748 -0.3484
  113SOL    HW1  475   0.574   2.603   2.082 -1.9258  0.6576 -1.2463
  113SOL    HW2  476   0.513   2.728   2.142 -0.9027 -0.2826  1.9212
  114SOL     OW  477   1.026   1.763   2.972  0.2240  0.8029  0.1584
  114SOL    HW1  478   0.991   1.846   2.941  0.4927  0.6719 -0.5052
  114SOL    HW2  479   1.120   1.768   2.953 -0.1952 -0.9899 -3.0489
  115SOL     OW  480   3.700   2.232   0.873 -0.0150  0.5432 -0.0438
  115SOL    HW1  481   3.619   2.268   0.908 -0.0582  0.8318 -0.4470
  115SOL    HW2  482   3.768   2.265   0.932  0.3047  3.5358 -1.8903
  116SOL     OW  483   2.363   0.373   3.204 -0.0327 -0.2014 -0.5327
  116SOL    HW1  484   2.344   0.356   3.112  1.0638  1.4660 -1.1051
  116SOL    HW2  485   2.459   0.375   3.209 -0.0403 -1.2898  0.8730
  117SOL     OW  486   2.600   0.628   1.598  0.3614  0.2820 -0.4701
  117SOL    HW1  487   2.636   0.595   1.680 -1.7109 -0.5545  0.1971
  117SOL    HW2  488   2.596   0.723   1.608 -0.6015  0.1364  0.7748
  118SOL     OW  489   2.675   1.331   2.780  0.1970 -0.2885 -0.4981
  118SOL    HW1  490   2.690   1.340   2.874 -2.5576  0.6068 -0.0777
  118SOL    HW2  491   2.591   1.287   2.772 -0.2427  0.7546 -2.5237
  119SOL     OW  492   2.252   2.269   0.944  0.4419 -0.0915  0.2975
  119SOL    HW1  493   2.229   2.309   0.860  0.8656 -0.6799 -0.1126
  119SOL    HW2  494   2.179   2.290   1.002  0.4032  0.7931 -0.0640
  120SOL     OW  495   3.008   1.283   1.889 -0.1329  0.5266 -0.8482
  120SOL    HW1  496   3.073   1.308   1.823 -0.1905  0.0700 -1.0819
  120SOL    HW2  497   3.054   1.218   1.943 -0.0566  0.9626 -0.3833
  121SOL     OW  498   1.419   2.013   1.030 -0.2237  0.4769  0.1045
  121SOL    HW1  499   1.357   1.975   1.092 -0.1915 -0.6712 -0.5516
  121SOL    HW2  500   1.366   2.070   0.974 -0.4645  0.4817  0.3386
  122SOL     OW  501   1.661   1.863   0.639  0.1996 -0.1532  0.0891
  122SOL    HW1  502   1.617   1.878   0.723  1.4055 -1.1141  0.9110
  122SOL    HW2  503   1.715   1.785   0.652 -1.3112 -1.7474 -2.2727
  123SOL     OW  504   3.681   1.423   0.490  0.4893  0.3974 -0.3227
  123SOL    HW1  505   3.745   1.367   0.535 -0.9770 -0.2802  0.9869
  123SOL    HW2  506   3.605   1.425   0.548 -1.5653 -0.6014 -2.7744
  124SOL     OW  507   2.289   1.221   1.397 -0.6906 -0.7180 -0.3140
  124SOL    HW1  508   2.301   1.312   1.369  1.1335 -1.1034 -0.9005
  124SOL    HW2  509   2.251   1.177   1.321  0.5668 -0.9169 -0.8443
  125SOL     OW  510   1.444   2.962   1.031  0.0457 -0.4272 -0.4469
  125SOL    HW1  511   1.383   3.033   1.011  0.9116  0.2069 -0.9112
  125SOL    HW2  512   1.388   2.889   1.058 -0.8509  0.4686  0.1772
  126SOL     OW  513   2.300   2.931   1.275  0.2587  0.2875  0.0908
  126SOL    HW1  514   2.355   2.951   1.351  1.2451 -0.7689 -0.3149
  126SOL    HW2  515   2.319   3.002   1.214  1.7985 -0.4342 -0.3387
  127SOL     OW  516   1.520   1.201   2.985  0.2288 -0.2864 -0.0214
  127SOL    HW1  517   1.559   1.158   3.062  0.5332 -4.6029 -2.2370
  127SOL    HW2  518   1.594   1.243   2.941  0.6731 -0.6474  0.3637
  128SOL     OW  519   0.267   1.005   3.702  0.5431 -0.1602  0.9032
  128SOL    HW1  520   0.231   0.936   3.758 -1.5013  0.6422  0.6704
  128SOL    HW2  521   0.231   0.987   3.615  0.6242  0.7410  0.6710
  129SOL     OW  522   3.336   1.990   0.334 -0.3238 -0.1935 -0.0335
  129SOL    HW1  523   3.289   2.069   0.306  0.3935 -0.4201 -2.0396
  129SOL    HW2  524   3.272   1.940   0.384 -2.3693 -0.6453 -2.8915
  130SOL     OW  525   0.607   3.251   2.187  0.6684 -0.2430 -0.1560
  130SOL    HW1  526   0.535   3.314   2.187  0.6220 -0.2615 -1.8044
  130SOL    HW2  527   0.642   3.255   2.277 -0.2103  1.0952  0.1589
  131SOL     OW  528   3.503   1.635   1.894  0.2766  0.8764  0.1366
  131SOL    HW1  529   3.592   1.662   1.916  0.1062 -0.2051  2.3758
  131SOL    HW2  530   3.466   1.709   1.846  3.2583  0.2594 -3.5868
  132SOL     OW  531   1.046   1.945   3.594  0.6382  0.8481 -0.4037
  132SOL    HW1  532   1.061   1.900   3.511 -1.2620 -0.9284  0.1404
  132SOL    HW2  533   1.064   1.879   3.660 -0.9082  1.2471  0.4666
  133SOL     OW  534   2.753   3.389  -0.035  0.1453 -0.8489  0.5799
  133SOL    HW1  535   2.796   3.423   0.043 -1.6290 -0.7376  1.5710
  133SOL    HW2  536   2.700   3.316  -0.004  1.0377 -2.2041 -0.9038
  134SOL     OW  537   1.101   0.781   2.387 -0.4303  0.5298  0.0380
  134SOL    HW1  538   1.134   0.739   2.307 -0.4081  1.0262 -0.2213
  134SOL    HW2  539   1.178   0.785   2.444 -0.8218 -1.3456  0.7631
  135SOL     OW  540   2.187   3.469   1.909  0.2016 -0.0597 -0.6950
  135SOL    HW1  541   2.150   3.485   1.996 -0.6161  0.6312 -1.1548
  135SOL    HW2  542   2.209   3.376   1.910  2.3832  0.3843  1.0534
  136SOL     OW  543   0.076   2.810   3.660  0.2225 -0.0631 -0.4746
  136SOL    HW1  544   0.109   2.800   3.571  1.1506  1.6371 -0.3641
  136SOL    HW2  545   0.012   2.740   3.670 -0.3345  0.0713 -2.6711
  137SOL     OW  546   0.364   0.702   2.260 -0.5675  0.3496 -0.5848
  137SOL    HW1  547   0.428   0.635   2.235 -0.2282  1.1113 -1.8855
  137SOL    HW2  548   0.417   0.779   2.280 -1.0130  0.6066 -0.3912
  138SOL     OW  549   3.617   3.298   2.943 -0.0726 -0.0467  0.1598
  138SOL    HW1  550   3.634   3.326   2.853 -0.3353  0.9785  0.4136
  138SOL    HW2  551   3.619   3.203   2.940 -1.0660 -0.0424 -1.1337
  139SOL     OW  552   3.436   2.956   3.658  0.4348 -0.1843 -0.6168
  139SOL    HW1  553   3.346   2.987   3.644 -0.0133 -0.9866  0.3626
  139SOL    HW2  554   3.485   2.989   3.582 -1.0649 -1.2324 -2.1272
  140SOL     OW  555   2.526   3.615   1.472  0.0298  0.7366  0.2409
  140SOL    HW1  556   2.571   3.682   1.420 -1.0115 -0.4548 -2.3559
  140SOL    HW2  557   2.437   3.614   1.438 -0.0746 -1.7076  0.4297
  141SOL     OW  558   1.374   3.561   1.300  0.0180  0.6991  0.0143
  141SOL    HW1  559   1.446   3.557   1.236  0.6833  0.1855  0.7697
  141SOL    HW2  560   1.416   3.542   1.384 -1.4874 -2.7795  0.1182
  142SOL     OW  561   3.272   2.892   0.314  0.1088  0.5543 -0.0715
  142SOL    HW1  562   3.333   2.965   0.314  0.2964  0.3997  0.0526
  142SOL    HW2  563   3.191   2.928   0.350  0.4296  0.5112  0.7198
  143SOL     OW  564  -0.034   3.227   0.531 -0.3443 -0.7323  0.2626
  143SOL    HW1  565   0.036   3.162   0.529 -0.7115 -1.1323  0.2152
  143SOL    HW2  566   0.011   3.311   0.539  0.0906 -1.0819  1.6232
  144SOL     OW  567   0.506   1.221   0.196  0.2130  0.5645 -0.0178
  144SOL    HW1  568   0.484   1.151   0.135 -0.9635 -0.1593  1.1726
  144SOL    HW2  569   0.422   1.249   0.232  0.6622  2.6207 -0.4565
  145SOL     OW  570   0.154   3.530   1.449  0.4106  0.4615  0.2091
  145SOL    HW1  571   0.167   3.436   1.436  1.1996  0.3596  1.5737
  145SOL    HW2  572   0.242   3.566   1.453  0.1966  1.7993 -3.4118
  146SOL     OW  573   0.678   2.497   0.362 -0.4699 -0.2758 -0.5696
  146SOL    HW1  574   0.643   2.584   0.345  0.4033  0.7684  2.3585
  146SOL    HW2  575   0.762   2.495   0.316  1.1971  1.9069  2.0585
  147SOL     OW  576   0.880   1.756   1.160  0.4500 -0.2594 -0.2768
  147SOL    HW1  577   0.931   1.790   1.234 -1.4690 -2.6258  2.3191
  147SOL    HW2  578   0.940   1.762   1.086  2.7262  1.6736  1.5336
  148SOL     OW  579   2.775   0.649   3.191 -0.6553 -0.2093  0.5503
  148SOL    HW1  580   2.706   0.607   3.242 -1.5271  0.8925  0.3064
  148SOL    HW2  581   2.735   0.667   3.106 -0.7073  2.1783  1.0265
  149SOL     OW  582   3.643   2.422   3.440 -0.2146  0.1997 -0.0340
  149SOL    HW1  583   3.604   2.338   3.413  1.5445 -0.8720  0.5688
  149SOL    HW2  584   3.625   2.427   3.534 -0.7929  0.7849 -0.1714
  150SOL     OW  585   3.414   2.423   2.605 -0.0577 -0.5094 -0.3335
  150SOL    HW1  586   3.459   2.342   2.628 -0.9078 -1.4978 -1.9899
  150SOL    HW2  587   3.384   2.409   2.515 -0.8986  1.3487 -0.3821
  151SOL     OW  588   0.302   1.839   0.181 -0.2158 -0.4800  0.2442
  151SOL    HW1  589   0.217   1.876   0.155 -0.0249  0.1519  0.5085
  151SOL    HW2  590   0.290   1.816   0.273  0.2119  0.5889  0.5897
  152SOL     OW  591   2.032   0.987   2.076 -0.4453  0.0468  0.8256
  152SOL    HW1  592   2.090   1.057   2.046 -0.4095 -0.4117 -0.1877
  152SOL    HW2  593   2.091   0.920   2.109 -0.4426  0.0622  0.8524
  153SOL     OW  594   3.105   3.132   0.583 -0.0919 -0.1319  0.1474
  153SOL    HW1  595   3.121   3.072   0.656 -2.4179 -0.7558  0.2108
  153SOL    HW2  596   3.072   3.076   0.513 -1.1584  0.8974 -0.1998
  154SOL     OW  597   0.443   1.694   3.473 -0.0358  0.2504  0.0640
  154SOL    HW1  598   0.412   1.781   3.497  0.9940  0.4417  0.7525
  154SOL    HW2  599   0.383   1.634   3.519 -0.0177  0.6067  0.5682
  155SOL     OW  600   1.894   1.113   0.878 -0.4259  0.4755  0.0801
  155SOL    HW1  601   1.952   1.119   0.953 -0.4993  1.7722  0.0476
  155SOL    HW2  602   1.921   1.033   0.833  0.5589  0.4445  0.7043
  156SOL     OW  603   2.958   3.322   2.212  0.5208  0.2276  0.1783
  156SOL    HW1  604   2.932   3.354   2.298  2.0139 -1.1291  1.2011
  156SOL    HW2  605   2.944   3.227   2.216  3.7958 -0.3676  0.2436
  157SOL     OW  606   1.898   2.535   0.922  0.0642  0.5670  0.5211
  157SOL    HW1  607   1.887   2.627   0.901  0.8242  1.2378  2.7062
  157SOL    HW2  608   1.976   2.533   0.978  0.7780 -1.5834 -0.4455
  158SOL     OW  609   3.422   0.844   1.963 -0.0252 -0.0449 -0.0785
  158SOL    HW1  610   3.452   0.754   1.957  0.1442 -0.0061  0.1917
  158SOL    HW2  611   3.471   0.882   2.036  2.1069  1.1046 -1.9784
  159SOL     OW  612   2.862   1.691   0.149 -0.6342  0.3825  0.4132
  159SOL    HW1  613   2.858   1.772   0.097  2.3215  1.9263  2.3058
  159SOL    HW2  614   2.914   1.631   0.095 -1.7071  0.1877 -0.4322
  160SOL     OW  615   1.296   0.603   3.352  0.0308 -0.0957  0.4268
  160SOL    HW1  616   1.256   0.524   3.390 -0.4113  0.2239  0.6345
  160SOL    HW2  617   1.230   0.671   3.363 -0.2693 -0.0603 -1.2316
  161SOL     OW  618   2.304   3.363   2.313 -0.7216 -0.5359 -0.4788
  161SOL    HW1  619   2.222   3.406   2.288 -1.5956 -0.7332  1.8291
  161SOL    HW2  620   2.368   3.398   2.251 -2.2217  0.7988 -1.3829
  162SOL     OW  621   2.298   2.953   2.206  0.5088  0.0122  0.3462
  162SOL    HW1  622   2.360   2.901   2.258  1.9097  1.0218 -0.2540
  162SOL    HW2  623   2.352   3.021   2.165 -1.3116  2.3631  1.5804
  163SOL     OW  624   0.675   1.441   1.857 -0.1268  0.2883  0.0584
  163SOL    HW1  625   0.700   1.421   1.767  1.0788 -2.1942  0.8751
  163SOL    HW2  626   0.633   1.527   1.851 -0.2899  0.1041 -2.8779
  164SOL     OW  627   2.834   0.148   0.173  0.2927  0.2105 -0.7904
  164SOL    HW1  628   2.803   0.058   0.179  0.4052  0.2547  1.3643
  164SOL    HW2  629   2.785   0.186   0.100 -0.0219 -1.4691 -1.4956
  165SOL     OW  630   1.829   2.188   0.210 -0.0348  0.1928 -1.0946
  165SOL    HW1  631   1.885   2.123   0.168  0.4572 -0.3358  0.3135
  165SOL    HW2  632   1.740   2.166   0.181  0.1911 -0.7364 -1.1118
  166SOL     OW  633   0.317   0.735   1.097 -0.3272 -0.1375 -0.0601
  166SOL    HW1  634   0.349   0.760   1.010 -0.0460 -2.6329 -0.7547
  166SOL    HW2  635   0.375   0.781   1.157  0.5665  0.3166 -1.2196
  167SOL     OW  636   3.268   1.426   0.027  0.3675 -0.3905 -0.5368
  167SOL    HW1  637   3.243   1.496  -0.033  2.0840 -0.2573 -1.1394
  167SOL    HW2  638   3.360   1.408   0.007  0.9404 -0.4949  1.8936
  168SOL     OW  639   0.824   1.017   2.111  0.8485  0.5739  0.0855
  168SOL    HW1  640   0.876   1.096   2.128 -0.2565  1.2657  0.3326
  168SOL    HW2  641   0.858   0.984   2.028  1.7941  0.9069  0.3191
  169SOL     OW  642   0.061   1.629   1.911  0.3076  0.0833 -0.2796
  169SOL    HW1  643   0.142   1.678   1.912  0.6038 -0.3878 -0.6229
  169SOL    HW2  644   0.074   1.562   1.843  0.1963 -0.9247  0.6658
  170SOL     OW  645   3.528   1.800   0.033 -0.5091 -0.6205  0.7875
  170SOL    HW1  646   3.533   1.774  -0.059  2.6733  0.3672  0.5536
  170SOL    HW2  647   3.539   1.895   0.031  3.6959 -0.8896  2.2341
  171SOL     OW  648   0.704   2.145   2.877  0.0820  0.0696  0.8625
  171SOL    HW1  649   0.711   2.080   2.947 -1.5000 -1.5716 -0.3973
  171SOL    HW2  650   0.610   2.161   2.868  0.2694  0.5456 -0.5924
  172SOL     OW  651   3.185   1.353   1.687  0.2237 -0.4219 -0.1532
  172SOL    HW1  652   3.280   1.363   1.689  0.1740 -0.0099  0.6606
  172SOL    HW2  653   3.164   1.340   1.594  1.0297 -0.1465 -0.3840
  173SOL     OW  654   0.594   0.660   0.804  0.0238  0.3371 -0.5622
  173SOL    HW1  655   0.566   0.646   0.714 -1.2175 -0.0416 -0.1389
  173SOL    HW2  656   0.555   0.744   0.828  0.5269  0.5384 -0.4383
  174SOL     OW  657   2.426   2.155   3.152  0.4415 -0.8329  0.5851
  174SOL    HW1  658   2.502   2.196   3.193 -0.3808  1.2461  0.1447
  174SOL    HW2  659   2.444   2.061   3.155  3.3574 -0.3712 -0.1634
  175SOL     OW  660   3.402   2.559   2.942 -0.4512 -0.2062 -0.0899
  175SOL    HW1  661   3.462   2.627   2.912  0.1704 -1.2878 -1.4798
  175SOL    HW2  662   3.443   2.477   2.914 -0.3563 -1.3108  2.9414
  176SOL     OW  663   0.557   2.869   3.474  0.7237 -0.6034  0.7735
  176SOL    HW1  664   0.634   2.850   3.421 -0.2506 -1.7499 -0.3098
  176SOL    HW2  665   0.537   2.787   3.518  0.7154 -0.0305  1.8554
  177SOL     OW  666   2.745   2.432   1.403 -0.1677 -0.8621  0.6127
  177SOL    HW1  667   2.783   2.370   1.465  0.9988 -1.3435 -0.5346
  177SOL    HW2  668   2.653   2.408   1.398  0.2993 -2.6639  0.0356
  178SOL     OW  669   2.172   3.170   1.879  0.0081 -0.1899  0.7870
  178SOL    HW1  670   2.244   3.163   1.816  0.0022  0.5501  0.6874
  178SOL    HW2  671   2.100   3.123   1.838  0.1871 -0.2329  0.5150
  179SOL     OW  672   1.649   2.383   2.689 -0.3024  0.1731  0.2879
  179SOL    HW1  673   1.649   2.476   2.666 -1.2052  0.2273  0.4607
  179SOL    HW2  674   1.690   2.380   2.776  2.7473  0.0125 -1.0220
  180SOL     OW  675   2.280   1.004   1.207 -0.0087 -0.2375  0.0712
  180SOL    HW1  676   2.205   0.945   1.204 -0.4397  0.3414 -0.6409
  180SOL    HW2  677   2.283   1.045   1.121  0.7035  0.2690  0.3236
  181SOL     OW  678   1.001   3.601   1.853 -0.7140 -0.4000 -0.2625
  181SOL    HW1  679   0.975   3.684   1.893  0.6744  0.2414 -0.6317
  181SOL    HW2  680   0.974   3.534   1.916 -2.5930  0.2345 -0.3256
  182SOL     OW  681   1.753   0.552   2.919  0.1821  0.0025 -0.5885
  182SOL    HW1  682   1.702   0.569   2.998  0.5162  0.2136 -0.4150
  182SOL    HW2  683   1.693   0.569   2.847  0.1083  0.5900 -0.3926
  183SOL     OW  684   2.094   1.785   1.971 -0.0429  0.1099  0.4340
  183SOL    HW1  685   2.111   1.691   1.969  3.7996  0.6533  1.1981
  183SOL    HW2  686   2.099   1.809   2.063 -4.3154  0.7294  0.7061
  184SOL     OW  687   1.459   2.118   0.618 -0.1583  0.2112 -0.2654
  184SOL    HW1  688   1.544   2.137   0.656  0.3870 -0.3591 -1.1716
  184SOL    HW2  689   1.428   2.040   0.663 -0.5889  0.8838  0.6389
  185SOL     OW  690   0.066   3.111   1.498 -0.2134  0.9667 -0.3703
  185SOL    HW1  691   0.135   3.070   1.551 -1.1717  0.4404  0.5017
  185SOL    HW2  692  -0.010   3.054   1.510 -0.4946  0.8936 -2.2516
  186SOL     OW  693   1.412   1.018   1.679  0.1387  0.2448  0.2365
  186SOL    HW1  694   1.507   1.022   1.688  0.0369 -0.1513  1.7402
  186SOL    HW2  695   1.395   1.049   1.590  1.8009 -1.4957 -0.7594
  187SOL     OW  696   0.212   2.977   0.262  0.3950 -0.5712  0.6731
  187SOL    HW1  697   0.140   3.019   0.215  1.0012  0.3923  0.5754
  187SOL    HW2  698   0.179   2.889   0.282  0.8271 -1.8339 -3.2984
  188SOL     OW  699   0.864   3.437   2.643 -0.2704 -0.6186 -0.1658
  188SOL    HW1  700   0.823   3.380   2.708  1.5282 -0.6522  1.0019
  188SOL    HW2  701   0.902   3.509   2.694  0.8912 -0.4604 -1.1983
  189SOL     OW  702   2.150   1.987   3.326 -0.2473 -0.0943  0.8720
  189SOL    HW1  703   2.161   2.071   3.370 -0.1962  0.1368  0.4224
  189SOL    HW2  704   2.060   1.988   3.294 -0.5026 -0.5438  1.5496
  190SOL     OW  705   2.412   3.167   2.078  0.0275 -0.7376  0.3871
  190SOL    HW1  706   2.323   3.160   2.044  0.1676 -0.2438 -0.1037
  190SOL    HW2  707   2.461   3.213   2.009  0.7509 -1.3275  0.4911
  191SOL     OW  708   2.411   1.657   3.682  0.0075 -0.1381 -0.0250
  191SOL    HW1  709   2.501   1.625   3.685  0.1270  0.1864 -0.1221
  191SOL    HW2  710   2.386   1.649   3.590  0.8269  2.1864 -0.5117
  192SOL     OW  711   0.059   1.179   3.501  0.3150  0.0883  0.8395
  192SOL    HW1  712  -0.018   1.139   3.541  0.0574  0.0330  0.2990
  192SOL    HW2  713   0.117   1.105   3.481 -0.2680 -0.0627 -0.3876
  193SOL     OW  714   0.238   2.531   3.103  0.0603  0.1004  0.2433
  193SOL    HW1  715   0.150   2.540   3.066 -0.0692 -0.9466  0.2803
  193SOL    HW2  716   0.284   2.475   3.041  0.7600  0.7675  0.1446
  194SOL     OW  717   1.883   0.235   0.232 -0.2377  0.2772  0.1891
  194SOL    HW1  718   1.966   0.199   0.201 -0.7011  0.6111 -1.5389
  194SOL    HW2  719   1.846   0.280   0.156 -1.9195  0.3150  0.9777
  195SOL     OW  720   0.148   3.513   0.841  0.1756 -0.0220 -0.9237
  195SOL    HW1  721   0.133   3.423   0.812 -0.5980 -0.4384  0.6693
  195SOL    HW2  722   0.070   3.561   0.813 -0.1101 -0.1958 -0.4313
  196SOL     OW  723   2.122   0.281   3.633 -0.0907 -0.2348  0.2040
  196SOL    HW1  724   2.140   0.328   3.552  2.3770 -1.3278  0.0215
  196SOL    HW2  725   2.188   0.313   3.695 -1.7965  0.4339  1.7742
  197SOL     OW  726   0.941   2.132   0.373  0.4314  0.2909 -0.3333
  197SOL    HW1  727   0.928   2.038   0.374  0.8242  0.2429  0.2687
  197SOL    HW2  728   1.001   2.148   0.300  0.3800  0.0769 -0.4219
  198SOL     OW  729   3.667   0.564   2.373 -0.2171  0.0126  0.0343
  198SOL    HW1  730   3.703   0.610   2.449  0.8403 -2.0979  0.8913
  198SOL    HW2  731   3.718   0.595   2.299 -1.0537  1.8712  0.1718
  199SOL     OW  732   1.483   0.419   0.582  0.3005  1.2128 -0.3391
  199SOL    HW1  733   1.498   0.355   0.652  1.4201  0.7905 -0.9447
  199SOL    HW2  734   1.389   0.414   0.565  0.2785  0.1347  0.0178
  200SOL     OW  735   1.751   2.697   1.987  0.0219  0.1878  0.3929
  200SOL    HW1  736   1.788   2.753   2.055  0.1195 -0.1460  0.6157
  200SOL    HW2  737   1.731   2.615   2.031  1.9094 -0.7498 -0.3693
  201SOL     OW  738   1.034   2.816   3.553  0.0301  0.3664 -0.1030
  201SOL    HW1  739   1.009   2.908   3.568 -2.7240 -0.4465  0.9648
  201SOL    HW2  740   1.005   2.771   3.632  1.0823 -1.4957 -0.7309
  202SOL     OW  741   0.051   0.734   1.312 -0.5228  0.4148  0.1786
  202SOL    HW1  742   0.047   0.772   1.224  2.2157  0.6807  0.0872
  202SOL    HW2  743   0.134   0.765   1.348 -1.2269 -0.3131  2.5863
  203SOL     OW  744   2.860   3.638   0.412 -0.1810 -0.4414  0.4478
  203SOL    HW1  745   2.862   3.583   0.334 -1.8315  0.7277 -0.4725
  203SOL    HW2  746   2.952   3.659   0.429  0.5272 -3.4300  0.8857
  204SOL     OW  747   2.154   1.260   0.758  0.4597  0.2807  0.1904
  204SOL    HW1  748   2.182   1.193   0.821  0.0137  0.1504  0.2578
  204SOL    HW2  749   2.220   1.329   0.765  1.1700 -0.3483 -0.1976
  205SOL     OW  750   2.339   0.405   0.056  0.0516  0.1455  0.6401
  205SOL    HW1  751   2.392   0.484   0.055 -0.7092  0.6767 -0.3373
  205SOL    HW2  752   2.389   0.342   0.107  1.2812  0.8519  0.3341
  206SOL     OW  753   0.922   3.376   2.981 -0.0960  0.0186  0.6195
  206SOL    HW1  754   0.929   3.456   2.928 -2.4412  0.1766  0.4729
  206SOL    HW2  755   0.838   3.338   2.956  1.0992 -2.6979  0.4720
  207SOL     OW  756   0.359   0.114   1.546  0.3127 -0.5627  0.5589
  207SOL    HW1  757   0.319   0.098   1.631  0.0147  0.0241  0.5337
  207SOL    HW2  758   0.348   0.031   1.498  0.6453 -0.9494  1.1474
  208SOL     OW  759   2.248   2.212   3.470  0.1219  0.1863  0.8016
  208SOL    HW1  760   2.322   2.268   3.444  0.0228  0.2999  0.7609
  208SOL    HW2  761   2.264   2.192   3.562  1.0849 -1.1655  0.3674
  209SOL     OW  762   0.454   1.343   0.503  0.3520  0.5485 -0.3620
  209SOL    HW1  763   0.396   1.268   0.488  1.0789  0.4639 -3.3412
  209SOL    HW2  764   0.396   1.411   0.537 -0.9774 -0.2988 -0.8492
  210SOL     OW  765   1.129   1.389   0.023 -0.2644  0.4058  0.1479
  210SOL    HW1  766   1.187   1.435   0.084 -0.3680  0.3858  0.2617
  210SOL    HW2  767   1.082   1.459  -0.023  0.2638  0.4356 -0.3486
  211SOL     OW  768   2.588   3.161   1.844  0.1245  0.1078  0.6685
  211SOL    HW1  769   2.665   3.205   1.881  0.1249 -0.1461  0.9779
  211SOL    HW2  770   2.563   3.214   1.768  0.4623  0.3227  0.7089
  212SOL     OW  771   1.653   2.827   0.490  0.1062 -0.2295 -0.6022
  212SOL    HW1  772   1.595   2.765   0.534  0.7880 -1.4861 -1.4248
  212SOL    HW2  773   1.596   2.872   0.427 -0.1098 -1.0142 -0.9767
  213SOL     OW  774   2.063   2.165   0.420  0.1344  0.6693 -0.6802
  213SOL    HW1  775   1.983   2.211   0.394 -0.4312 -0.7988 -1.7234
  213SOL    HW2  776   2.051   2.076   0.386  1.2592 -0.2108  1.0664
  214SOL     OW  777   0.966   2.574   3.403  0.3395  0.6073  0.4225
  214SOL    HW1  778   1.016   2.654   3.418  1.7341  0.4033 -2.5471
  214SOL    HW2  779   0.965   2.531   3.489  0.0115  3.4642  1.9957
  215SOL     OW  780   2.241   0.108   0.699 -0.4171  0.4341  0.3479
  215SOL    HW1  781   2.163   0.061   0.670  0.7714 -3.8346  3.1020
  215SOL    HW2  782   2.208   0.168   0.766 -1.6314  1.2306 -0.9018
  216SOL     OW  783   0.501   2.465   1.018  0.1867 -0.5500  0.1642
  216SOL    HW1  784   0.443   2.442   1.090 -0.0785  0.5366  0.3178
  216SOL    HW2  785   0.504   2.561   1.019  0.7923 -0.5419 -0.7854
  217SOL     OW  786   3.112   1.644   1.611 -0.3377  0.4716  0.4006
  217SOL    HW1  787   3.125   1.562   1.658 -0.5654  0.9872  1.3811
  217SOL    HW2  788   3.191   1.655   1.559 -0.0998 -0.1236  0.6321
  218SOL     OW  789   2.858   2.131   3.055  0.3269  0.1155  0.1409
  218SOL    HW1  790   2.811   2.082   3.123 -0.7485  1.9635  0.7925
  218SOL    HW2  791   2.941   2.084   3.045 -1.0023 -2.3974  0.0097
  219SOL     OW  792   2.230   1.345   1.688  0.1539  0.1729 -0.1769
  219SOL    HW1  793   2.309   1.383   1.727  0.1090 -0.2222  0.3043
  219SOL    HW2  794   2.263   1.283   1.624  0.3021 -1.7515  1.6584
  220SOL     OW  795   0.125   3.496   1.979 -0.3024  0.2934 -0.2568
  220SOL    HW1  796   0.075   3.479   1.899  1.5007 -0.4157 -1.2963
  220SOL    HW2  797   0.116   3.590   1.993 -3.6636 -0.0443  0.8816
  221SOL     OW  798   0.427   0.502   3.396  0.2610  0.2183 -0.3733
  221SOL    HW1  799   0.465   0.587   3.374  1.4062  0.0801  0.9477
  221SOL    HW2  800   0.417   0.504   3.491  0.5853 -1.2235 -0.2873
  222SOL     OW  801   1.519   0.793   0.570  0.3121  0.3176  0.3090
  222SOL    HW1  802   1.477   0.830   0.648 -0.8018  0.6322 -0.4053
  222SOL    HW2  803   1.611   0.784   0.594 -0.1249 -0.2807  1.9052
  223SOL     OW  804   1.863   0.992   3.337 -0.3330 -0.3171  0.1599
  223SOL    HW1  805   1.932   0.963   3.278 -0.2362  0.8534 -0.3337
  223SOL    HW2  806   1.818   1.061   3.289 -1.4678 -0.6496  0.7187
  224SOL     OW  807   3.334   1.531   2.119  0.6634  0.3249 -0.0236
  224SOL    HW1  808   3.373   1.567   2.039  1.0687  0.1115  0.0724
  224SOL    HW2  809   3.343   1.601   2.183 -0.6806  0.9173 -0.4516
  225SOL     OW  810   2.397   0.162   2.038 -0.1966 -0.0263  0.1961
  225SOL    HW1  811   2.382   0.069   2.052 -1.3091 -0.3467 -2.5858
  225SOL    HW2  812   2.476   0.166   1.985  1.7587  0.9061  2.9199
  226SOL     OW  813   1.729   3.092   0.622 -0.3302  0.2400 -0.6835
  226SOL    HW1  814   1.732   3.138   0.705 -3.8083  3.3463 -1.9952
  226SOL    HW2  815   1.696   3.004   0.644  1.9943 -0.1923  1.4310
  227SOL     OW  816   0.918   3.048   1.955 -0.5589 -0.0550  0.0180
  227SOL    HW1  817   0.982   3.082   1.892  1.8205 -0.4805  2.0410
  227SOL    HW2  818   0.940   3.093   2.037 -4.0144  1.0403  0.5031
  228SOL     OW  819   3.112   1.128   2.096  0.1102  0.3569  0.3442
  228SOL    HW1  820   3.170   1.119   2.021  0.1261  0.1484  0.3798
  228SOL    HW2  821   3.169   1.111   2.172 -0.0368 -0.0305  0.3685
  229SOL     OW  822   2.467   0.651   2.688  0.1405  0.5019  1.0836
  229SOL    HW1  823   2.411   0.680   2.759 -0.8189  0.5263  0.3435
  229SOL    HW2  824   2.427   0.571   2.656  1.2425 -0.1762  1.3398
  230SOL     OW  825   3.518   2.711   0.546 -0.6614 -0.6450  0.2737
  230SOL    HW1  826   3.533   2.630   0.496  0.9550 -0.3437  0.2083
  230SOL    HW2  827   3.583   2.708   0.616 -1.5034 -0.0381  1.1032
  231SOL     OW  828   1.698   1.734   3.011  0.6448  0.8019  0.0851
  231SOL    HW1  829   1.761   1.773   2.951  0.4617 -0.4366 -0.9685
  231SOL    HW2  830   1.621   1.718   2.957  1.1670 -2.1821  0.0654
  232SOL     OW  831   0.475   1.344   1.554  0.2393 -0.2401  0.0889
  232SOL    HW1  832   0.481   1.302   1.640  0.0355 -0.7929 -0.1607
  232SOL    HW2  833   0.384   1.332   1.528 -0.2794  1.8776  0.7635
  233SOL     OW  834   2.679   1.557   1.504  0.4030  0.4077  0.3088
  233SOL    HW1  835   2.623   1.503   1.448 -2.4901  1.9826  1.5242
  233SOL    HW2  836   2.736   1.494   1.548 -1.9924 -1.6110  0.7569
  234SOL     OW  837   1.475   3.178   3.122 -0.2660 -0.3141 -0.0498
  234SOL    HW1  838   1.519   3.164   3.206 -1.4198 -0.8879  0.4929
  234SOL    HW2  839   1.517   3.256   3.085  0.7409 -0.4671  0.7284
  235SOL     OW  840   2.389  -0.006   2.662  0.1600  0.1800  0.2293
  235SOL    HW1  841   2.398  -0.052   2.746 -3.1128  0.0459  0.6488
  235SOL    HW2  842   2.456   0.062   2.664 -0.5810  0.9768  3.5586
  236SOL     OW  843   1.802   1.896   1.979 -0.4148 -0.2108  0.8036
  236SOL    HW1  844   1.800   1.838   2.055 -0.5055 -0.9736  0.2252
  236SOL    HW2  845   1.893   1.892   1.948 -0.2835  0.3980  1.0890
  237SOL     OW  846   3.654   2.678   2.907 -0.2004 -0.3848 -0.0597
  237SOL    HW1  847   3.722   2.726   2.860  1.3621  2.3160  4.3618
  237SOL    HW2  848   3.697   2.597   2.937 -0.4146 -0.8786 -1.0578
  238SOL     OW  849   3.535   2.498   1.790  0.3609 -0.0686  0.1009
  238SOL    HW1  850   3.454   2.541   1.818  0.6589 -0.5314  1.7247
  238SOL    HW2  851   3.599   2.569   1.781  0.3209  0.0614  0.8278
  239SOL     OW  852   1.915   2.099   1.303 -0.3169  0.3760 -0.0274
  239SOL    HW1  853   1.931   2.028   1.365 -0.4181 -0.5659 -1.0500
  239SOL    HW2  854   1.940   2.063   1.218  2.1141  2.3752 -0.3198
  240SOL     OW  855   0.721   3.182   3.676 -0.5043 -0.0338 -0.0282
  240SOL    HW1  856   0.770   3.258   3.710 -1.6158  0.2910  0.9474
  240SOL    HW2  857   0.679   3.215   3.597 -0.8493  0.3436  0.3007
  241SOL     OW  858   0.089   2.640   2.568  0.6348  0.3914  0.1925
  241SOL    HW1  859   0.034   2.698   2.516 -0.5754  0.4224  1.4495
  241SOL    HW2  860   0.136   2.587   2.504 -0.3840  0.8087 -0.9279
  242SOL     OW  861   3.317   2.178   2.376 -0.1036  0.2790 -0.1851
  242SOL    HW1  862   3.317   2.274   2.365 -0.8478  0.2246 -0.7604
  242SOL    HW2  863   3.325   2.144   2.287  0.2624 -0.1972  0.0268
  243SOL     OW  864   3.641   0.983   1.455 -0.5410 -0.3428  0.6272
  243SOL    HW1  865   3.575   0.923   1.420 -2.1103  1.2457  0.6662
  243SOL    HW2  866   3.625   1.065   1.408  0.0914  0.6513  2.0811
  244SOL     OW  867   1.734   1.420   2.535 -0.4591  0.6861  0.2013
  244SOL    HW1  868   1.693   1.425   2.449  0.2338 -1.2590 -0.2868
  244SOL    HW2  869   1.713   1.503   2.577 -2.5988  0.8200 -1.0377
  245SOL     OW  870   3.512   0.914   2.451 -0.6665 -0.0567 -0.3941
  245SOL    HW1  871   3.492   0.834   2.500 -0.4150 -0.9079 -1.6422
  245SOL    HW2  872   3.578   0.958   2.505 -0.0154 -1.2274 -0.1971
  246SOL     OW  873   0.596   0.978   0.687  0.4171  0.7439 -0.4312
  246SOL    HW1  874   0.596   1.069   0.715  1.8185  0.6080  0.1209
  246SOL    HW2  875   0.674   0.940   0.729  0.0849 -0.5994 -0.9710
  247SOL     OW  876   0.343   0.309   3.196  0.8539 -0.3525  0.2657
  247SOL    HW1  877   0.358   0.348   3.282 -0.4860 -0.5422  0.6092
  247SOL    HW2  878   0.324   0.383   3.139  0.5452 -0.3066  0.4205
  248SOL     OW  879   0.984   0.453   3.710  0.3814  0.8211 -0.1640
  248SOL    HW1  880   0.960   0.530   3.761  0.0864  1.4764 -1.2460
  248SOL    HW2  881   0.901   0.419   3.677  0.5774  0.4962 -0.3314
  249SOL     OW  882   3.468   3.294   3.512 -0.8779  0.0199 -0.6715
  249SOL    HW1  883   3.391   3.337   3.472  0.1860 -0.5011 -3.5041
  249SOL    HW2  884   3.518   3.260   3.438  1.6996 -0.4030  1.1250
  250SOL     OW  885   0.657   1.549   2.785  0.6847  0.0017 -0.3201
  250SOL    HW1  886   0.659   1.501   2.702 -0.8791 -1.4043  0.3884
  250SOL    HW2  887   0.577   1.519   2.828 -0.0610  2.8383  0.4811
  251SOL     OW  888   0.260   2.969   0.927  0.0634  0.2923  0.3069
  251SOL    HW1  889   0.305   3.027   0.989  1.7339  0.8548 -1.3315
  251SOL    HW2  890   0.265   3.015   0.843  1.3753 -2.0980 -1.0523
  252SOL     OW  891   0.053   2.962   0.509 -0.4225 -0.0346 -0.1614
  252SOL    HW1  892   0.031   2.932   0.597  1.1705 -0.6737  0.0597
  252SOL    HW2  893  -0.024   2.942   0.456 -2.0008  1.6929  1.3354
  253SOL     OW  894   3.652   1.240   0.978 -0.1752 -0.0200  0.4710
  253SOL    HW1  895   3.592   1.278   0.914 -0.7677  2.9020  2.5538
  253SOL    HW2  896   3.597   1.182   1.031 -0.2035 -0.5932 -0.1752
  254SOL     OW  897   1.384   1.716   0.848  0.0308  0.1261  0.1180
  254SOL    HW1  898   1.427   1.647   0.797  0.7871 -0.5732  1.6212
  254SOL    HW2  899   1.439   1.725   0.927 -1.9738 -0.0351  1.6121
  255SOL     OW  900   2.593   3.385   2.293 -0.7834  0.3864 -0.8476
  255SOL    HW1  901   2.543   3.305   2.280  2.5624 -2.1491  0.2814
  255SOL    HW2  902   2.663   3.380   2.228  0.4351  1.5439  0.3099
  256SOL     OW  903   3.626   2.399   2.055  0.2154  0.0017  0.3752
  256SOL    HW1  904   3.615   2.413   1.961 -0.2522 -0.8622  0.2833
  256SOL    HW2  905   3.627   2.487   2.093 -1.4889  0.3364 -0.2453
  257SOL     OW  906   2.071   1.732   1.221  0.0669 -0.1400  0.3751
  257SOL    HW1  907   2.048   1.790   1.295 -0.7926  0.7808 -0.5831
  257SOL    HW2  908   1.996   1.673   1.213  0.4633 -0.6884  0.6602
  258SOL     OW  909   1.268   1.246   3.548 -0.8978  0.4458  0.5341
  258SOL    HW1  910   1.296   1.176   3.608 -0.1849  2.9262  3.3222
  258SOL    HW2  911   1.191   1.283   3.590 -2.1036  0.5585 -1.6166
  259SOL     OW  912   1.779   2.828   0.768 -0.7533  0.0731 -0.4207
  259SOL    HW1  913   1.867   2.867   0.775 -1.8283  3.3536 -2.8823
  259SOL    HW2  914   1.782   2.779   0.686 -1.1001 -0.2444 -0.2431
  260SOL     OW  915   2.144   1.318   3.589 -0.0129  0.0515 -0.2417
  260SOL    HW1  916   2.211   1.252   3.573  2.5162  1.5570  2.8801
  260SOL    HW2  917   2.121   1.308   3.681 -1.6573  1.7222 -0.4015
  261SOL     OW  918   1.470   1.414   1.831 -0.4195 -0.0690 -0.0885
  261SOL    HW1  919   1.523   1.359   1.888 -0.3532  0.0160 -0.0668
  261SOL    HW2  920   1.473   1.371   1.746 -0.5962 -0.2462 -0.0051
  262SOL     OW  921   3.306   1.617   1.154  0.0458 -0.1319  0.7062
  262SOL    HW1  922   3.328   1.538   1.203  3.4857 -1.1875 -2.0637
  262SOL    HW2  923   3.349   1.688   1.202  0.8773 -0.7102  0.8510
  263SOL     OW  924   0.361   0.867   0.242 -0.2080  0.1954 -0.4922
  263SOL    HW1  925   0.351   0.946   0.190  2.0414  0.7214 -0.2328
  263SOL    HW2  926   0.445   0.878   0.287  0.4737 -2.5589 -0.8699
  264SOL     OW  927   0.803   2.068   0.085 -0.8652  0.2991 -0.2050
  264SOL    HW1  928   0.791   1.974   0.073 -0.4679  0.2267 -0.0724
  264SOL    HW2  929   0.716   2.101   0.108 -0.7299 -0.2811  1.3022
  265SOL     OW  930   1.333   2.743   1.343  0.0178 -0.1276 -0.3294
  265SOL    HW1  931   1.343   2.837   1.330  1.4334 -0.5006 -2.3586
  265SOL    HW2  932   1.401   2.720   1.407  0.0390  0.1319 -0.2594
  266SOL     OW  933   0.286   2.731   2.880 -0.4413 -0.8839 -0.3517
  266SOL    HW1  934   0.357   2.668   2.893  0.3477  0.1528  0.6196
  266SOL    HW2  935   0.251   2.746   2.968  0.8130  1.5814 -0.1646
  267SOL     OW  936   2.988   0.361   1.145 -0.9022 -0.1238 -0.0677
  267SOL    HW1  937   2.992   0.454   1.124 -2.2465 -0.1663 -0.6691
  267SOL    HW2  938   2.924   0.326   1.083  0.1243 -1.5958 -0.3545
  268SOL     OW  939   1.358   1.918   2.283  0.1816  0.0913 -0.1157
  268SOL    HW1  940   1.383   1.958   2.366  0.1282  1.0366 -0.5337
  268SOL    HW2  941   1.380   1.825   2.292 -0.6911  0.0024  1.2822
  269SOL     OW  942   3.636   1.173   2.562  0.0735 -0.0567 -0.3092
  269SOL    HW1  943   3.669   1.260   2.584 -0.9181  0.9322 -2.4384
  269SOL    HW2  944   3.542   1.178   2.580  0.0140 -0.6990 -0.4196
  270SOL     OW  945   0.567   0.251   0.810  0.6339  0.7894  0.3994
  270SOL    HW1  946   0.590   0.300   0.889 -1.3732  0.2577  1.3754
  270SOL    HW2  947   0.559   0.160   0.839  1.4874  0.3008 -0.7844
  271SOL     OW  948   1.794   0.557   0.312  0.2398  0.0491 -0.4522
  271SOL    HW1  949   1.799   0.482   0.371  0.5739 -0.3224 -0.9400
  271SOL    HW2  950   1.802   0.519   0.225 -0.1094  0.6058 -0.7304
  272SOL     OW  951   3.468   2.115   1.544  0.1559 -0.3621 -0.7750
  272SOL    HW1  952   3.524   2.039   1.539  0.3871 -0.1722 -1.1320
  272SOL    HW2  953   3.509   2.179   1.486 -0.1575 -0.0475 -0.6556
  273SOL     OW  954   2.659   3.649   0.148 -0.7151  0.0871 -0.1961
  273SOL    HW1  955   2.721   3.585   0.181  1.2024  1.0614 -1.6626
  273SOL    HW2  956   2.603   3.670   0.222  1.6763  0.2561  1.6701
  274SOL     OW  957   2.903   3.532   0.178  0.1254 -0.0732  0.0498
  274SOL    HW1  958   2.936   3.572   0.098 -0.9650  2.4178  0.7604
  274SOL    HW2  959   2.978   3.484   0.213  0.5600 -1.4582 -2.5217
  275SOL     OW  960   1.897   2.665   0.387  0.8569 -0.1539 -0.7161
  275SOL    HW1  961   1.816   2.707   0.414  0.8103 -0.1044 -0.9304
  275SOL    HW2  962   1.914   2.600   0.455  0.0663 -0.9017 -1.2024
  276SOL     OW  963   0.553   2.996   0.712  0.2148 -0.5801  0.2900
  276SOL    HW1  964   0.465   2.967   0.688  0.1138 -0.5997  0.6772
  276SOL    HW2  965   0.600   2.916   0.736 -0.2351 -0.3985  1.9072
  277SOL     OW  966   1.164   0.742   0.536  0.5267 -0.0861 -1.0647
  277SOL    HW1  967   1.157   0.813   0.600 -3.7888 -2.7171  1.9231
  277SOL    HW2  968   1.121   0.777   0.458  0.0144  1.2111 -0.2418
  278SOL     OW  969   0.604   3.310   1.317 -0.1642 -0.3361 -0.2006
  278SOL    HW1  970   0.616   3.401   1.289  0.8154  0.6857  3.0922
  278SOL    HW2  971   0.693   3.279   1.336 -0.5974 -1.6042 -0.1363
  279SOL     OW  972   2.538   0.172   2.888  0.3430  0.7336  0.0034
  279SOL    HW1  973   2.552   0.171   2.793  0.6454  1.9725  0.0207
  279SOL    HW2  974   2.624   0.155   2.926  0.0942 -0.4812  0.0734
  280SOL     OW  975   3.281   3.083   1.420  0.3233 -0.1248  0.1901
  280SOL    HW1  976   3.309   3.086   1.512  1.1288 -1.8462  0.0335
  280SOL    HW2  977   3.308   3.167   1.384 -0.9041  1.0074  1.7480
  281SOL     OW  978   0.553   0.785   3.007  0.1830 -0.3130  0.2670
  281SOL    HW1  979   0.462   0.810   3.025  0.1843 -0.6325  0.7394
  281SOL    HW2  980   0.575   0.831   2.926  0.0763  0.9301  0.9206
  282SOL     OW  981   1.737   3.014   1.013  0.7531  0.0434 -0.0580
  282SOL    HW1  982   1.787   2.939   0.983 -0.7687 -0.6849 -0.9291
  282SOL    HW2  983   1.651   3.003   0.971 -0.6226  0.4269  2.4882
  283SOL     OW  984   0.182   3.083   3.526 -0.0895 -0.0728  0.4236
  283SOL    HW1  985   0.132   3.151   3.570  1.4963  1.6388 -0.2821
  283SOL    HW2  986   0.264   3.077   3.576  1.5076  1.5030 -1.7732
  284SOL     OW  987   2.174   0.582   2.378  0.5988 -0.2660 -0.1903
  284SOL    HW1  988   2.201   0.541   2.460 -0.7318 -1.3944 -0.2722
  284SOL    HW2  989   2.125   0.514   2.332 -2.5010  1.6304  0.0542
  285SOL     OW  990   2.920   1.193   3.268 -1.2222 -0.2185 -0.3484
  285SOL    HW1  991   2.948   1.116   3.218  0.8962 -1.3393  2.2974
  285SOL    HW2  992   2.857   1.159   3.331 -1.5690  0.5557 -0.2652
  286SOL     OW  993   1.221   2.108   1.497 -0.0450 -0.2284  0.3229
  286SOL    HW1  994   1.258   2.058   1.569  1.8677  1.0392  0.2653
  286SOL    HW2  995   1.295   2.129   1.440 -1.4578 -1.1143 -2.0334
  287SOL     OW  996   1.874   1.640   1.581  0.3107  0.7545 -0.3858
  287SOL    HW1  997   1.827   1.722   1.590 -1.0892 -0.2490  2.3745
  287SOL    HW2  998   1.963   1.660   1.609  0.6194  1.7947 -1.9731
  288SOL     OW  999   1.300   2.674   0.082 -0.7311  0.5270  1.3389
  288SOL    HW1 1000   1.303   2.764   0.116  2.0204  0.0421  2.6358
  288SOL    HW2 1001   1.380   2.633   0.115 -2.4056 -2.7664  1.6853
  289SOL     OW 1002   3.578   0.987   3.529 -0.8017  0.4081  0.7131
  289SOL    HW1 1003   3.491   0.986   3.569 -0.6261  0.3760  1.0926
  289SOL    HW2 1004   3.624   0.914   3.570 -0.2469  1.0733  1.2943
  290SOL     OW 1005   0.308   2.282   0.670 -0.4455 -0.1936  0.5296
  290SOL    HW1 1006   0.333   2.216   0.605 -1.2909 -0.0424  0.0428
  290SOL    HW2 1007   0.268   2.232   0.741  0.2589 -0.3366  0.8313
  291SOL     OW 1008   3.683   2.421   3.017  0.1099  0.4486 -0.1177
  291SOL    HW1 1009   3.616   2.363   2.982  0.2866 -0.0337  0.3314
  291SOL    HW2 1010   3.677   2.412   3.112  0.1403  1.1688 -0.0371
  292SOL     OW 1011   1.105   0.753   3.483 -0.0664 -0.4016 -0.4139
  292SOL    HW1 1012   1.011   0.739   3.490 -0.5113  1.8993 -0.8881
  292SOL    HW2 1013   1.114   0.831   3.428  2.0355  0.3548  0.8577
  293SOL     OW 1014   1.774   3.519   1.850  0.3584 -0.6140 -0.0026
  293SOL    HW1 1015   1.685   3.546   1.872 -0.4415 -1.9088 -1.3880
  293SOL    HW2 1016   1.773   3.510   1.754  1.4538 -2.3131  0.1007
  294SOL     OW 1017   0.221   1.631   3.209  0.6634  0.2130  0.1206
  294SOL    HW1 1018   0.141   1.683   3.203  1.0584  0.6112 -2.4972
  294SOL    HW2 1019   0.192   1.548   3.248 -0.6827  0.9412  0.7555
  295SOL     OW 1020   0.441   1.962   1.739  0.1188 -0.0873 -0.3065
  295SOL    HW1 1021   0.482   1.962   1.652  0.4487  1.5824 -0.1763
  295SOL    HW2 1022   0.484   2.033   1.786 -1.0372 -0.0660  0.7643
  296SOL     OW 1023   1.657   2.101   2.778  0.6168 -0.2735 -0.2937
  296SOL    HW1 1024   1.615   2.172   2.826  0.7597 -2.0259  2.6503
  296SOL    HW2 1025   1.716   2.145   2.717 -1.5768  2.1282 -0.8630
  297SOL     OW 1026   2.017   1.196   2.344  0.3531  0.8733 -0.5009
  297SOL    HW1 1027   1.976   1.121   2.388 -3.8498  4.0379  1.6186
  297SOL    HW2 1028   2.094   1.216   2.397  0.8215 -1.0250 -0.3744
  298SOL     OW 1029   1.341   0.932   3.620  0.1187  0.0146 -0.8030
  298SOL    HW1 1030   1.401   0.940   3.546 -0.1062 -3.0123 -1.4600
  298SOL    HW2 1031   1.282   0.860   3.595  0.3872 -1.5433  2.5224
  299SOL     OW 1032   0.793   1.324   2.070  0.4376  0.0497 -0.1333
  299SOL    HW1 1033   0.771   1.383   1.998 -2.2749 -0.8978 -0.1965
  299SOL    HW2 1034   0.844   1.378   2.130  2.0331  1.1046 -2.3150
  300SOL     OW 1035   2.020   2.429   2.559 -0.2084 -0.2100  0.3297
  300SOL    HW1 1036   1.953   2.492   2.587  1.7346  1.7754  0.7609
  300SOL    HW2 1037   2.038   2.377   2.637 -0.7893 -0.3548  0.3747
  301SOL     OW 1038   1.155   1.314   0.452 -0.0186  0.0918  0.1043
  301SOL    HW1 1039   1.203   1.262   0.516 -0.9192 -0.2298  0.5382
  301SOL    HW2 1040   1.186   1.283   0.367  1.0653  0.4058  0.3683
  302SOL     OW 1041   1.938   1.375   3.381  0.3234 -0.5480 -0.3747
  302SOL    HW1 1042   1.992   1.345   3.307  1.0253 -1.5528  0.5029
  302SOL    HW2 1043   2.000   1.382   3.454 -0.3414  0.5032  0.1048
  303SOL     OW 1044   2.648   1.556   2.200 -0.0387 -0.5958 -0.6990
  303SOL    HW1 1045   2.701   1.533   2.276 -0.0551 -2.3247 -1.1779
  303SOL    HW2 1046   2.706   1.610   2.146  1.1277 -2.0777 -1.0020
  304SOL     OW 1047   1.085   2.290   3.302 -0.0881  0.0868  0.2766
  304SOL    HW1 1048   1.037   2.363   3.261 -0.9012  0.3919  1.7018
  304SOL    HW2 1049   1.060   2.213   3.250  2.3058  1.0170 -2.4905
  305SOL     OW 1050   0.785   2.601   2.784  0.2351  0.0511 -0.5592
  305SOL    HW1 1051   0.824   2.522   2.823 -1.0293 -0.8882 -1.1254
  305SOL    HW2 1052   0.792   2.586   2.690  1.1879  1.2495 -0.6943
  306SOL     OW 1053   2.807   1.646   2.975 -0.1929 -0.6658 -0.1859
  306SOL    HW1 1054   2.877   1.613   3.031  0.3188  1.6363  0.6365
  306SOL    HW2 1055   2.727   1.627   3.023  0.0599 -0.9467  0.1257
  307SOL     OW 1056   0.295   2.632   1.625 -1.1176 -0.1773  0.3497
  307SOL    HW1 1057   0.332   2.697   1.685 -2.5782  0.3047  0.7627
  307SOL    HW2 1058   0.346   2.642   1.544 -0.6688  0.7795  0.7325
  308SOL     OW 1059   2.733   0.967   0.721  0.0368 -0.7214 -1.1217
  308SOL    HW1 1060   2.765   1.057   0.733  0.0743 -0.7963 -0.6527
  308SOL    HW2 1061   2.812   0.915   0.706  0.0874 -0.8090 -0.5635
  309SOL     OW 1062   3.625   0.877   2.170  0.3173 -0.8160 -0.4001
  309SOL    HW1 1063   3.576   0.872   2.252  0.7395 -2.3092 -0.2108
  309SOL    HW2 1064   3.710   0.912   2.195  0.0501 -0.1498 -0.4027
  310SOL     OW 1065   2.560   0.896   2.880 -0.3457 -0.1187 -0.0974
  310SOL    HW1 1066   2.636   0.908   2.937 -0.9765 -0.6215  0.8845
  310SOL    HW2 1067   2.581   0.947   2.802  0.6467  0.4140  0.4838
  311SOL     OW 1068   2.638   0.376   0.557 -0.0697 -0.0768 -0.1260
  311SOL    HW1 1069   2.710   0.437   0.572  1.0576 -1.4076  0.1621
  311SOL    HW2 1070   2.637   0.362   0.462  0.1352 -0.1343 -0.1202
  312SOL     OW 1071   2.771   0.043   0.978  0.0852 -0.2516  0.0507
  312SOL    HW1 1072   2.771   0.074   0.888 -0.5517 -0.0696  0.1116
  312SOL    HW2 1073   2.864   0.029   0.999  0.3117  0.7005 -0.2818
  313SOL     OW 1074   2.955   3.094   1.454 -0.1604  0.2890  0.4148
  313SOL    HW1 1075   3.030   3.151   1.469  0.2278 -0.1087  0.0161
  313SOL    HW2 1076   2.973   3.016   1.506 -0.0119 -0.0483 -0.1340
  314SOL     OW 1077   3.678   2.026   3.499  0.2512  0.6005 -0.2884
  314SOL    HW1 1078   3.625   2.052   3.574  0.3524 -0.6504  0.2462
  314SOL    HW2 1079   3.661   2.093   3.433  0.3247  1.8315  0.9066
  315SOL     OW 1080   2.711   3.571   3.486 -0.1319  0.3165 -0.2696
  315SOL    HW1 1081   2.620   3.601   3.485  0.1198  1.5627  2.6100
  315SOL    HW2 1082   2.714   3.506   3.556  1.1908  0.3559 -0.2607
  316SOL     OW 1083   1.205   2.503   2.668 -0.2431  0.8422  0.6453
  316SOL    HW1 1084   1.288   2.499   2.715 -0.6296  0.9590  1.3634
  316SOL    HW2 1085   1.182   2.596   2.669 -0.2762  0.8378  0.2605
  317SOL     OW 1086   1.255   2.045   1.808 -0.1910 -0.0545 -0.0629
  317SOL    HW1 1087   1.311   1.982   1.763  0.6137 -0.0096  0.8346
  317SOL    HW2 1088   1.248   2.012   1.897 -0.5271  0.6301  0.1763
  318SOL     OW 1089   2.902   1.739   1.908 -0.1349  0.6387 -0.6154
  318SOL    HW1 1090   2.864   1.658   1.875  1.8417  0.5500 -2.9272
  318SOL    HW2 1091   2.848   1.808   1.869  0.1331  0.4807 -1.2641
  319SOL     OW 1092   1.678   2.462   2.131  0.3277 -0.6419 -0.0640
  319SOL    HW1 1093   1.704   2.370   2.141 -0.8670 -0.8102  1.9727
  319SOL    HW2 1094   1.676   2.497   2.220 -0.6167  0.9790 -0.6749
  320SOL     OW 1095   2.385   0.649   3.146  0.5155 -0.2842 -0.2691
  320SOL    HW1 1096   2.336   0.710   3.201  3.3806  0.7037  1.3958
  320SOL    HW2 1097   2.417   0.582   3.206  0.9296 -1.0826 -1.3335
  321SOL     OW 1098   2.034   0.245   1.723  0.0908 -0.0681 -0.1402
  321SOL    HW1 1099   2.129   0.244   1.726  0.1022 -1.4455 -0.1120
  321SOL    HW2 1100   2.009   0.153   1.736 -1.2929  0.4907  1.4727
  322SOL     OW 1101   3.152   0.196   0.807 -0.2245 -0.0139  0.0334
  322SOL    HW1 1102   3.082   0.260   0.800  0.0143  0.3578  0.8882
  322SOL    HW2 1103   3.216   0.221   0.740 -0.7116 -0.1178 -0.4772
  323SOL     OW 1104   1.718   2.240   0.739  0.3366  0.0354  0.2816
  323SOL    HW1 1105   1.756   2.269   0.656 -0.0824  0.0329  0.0881
  323SOL    HW2 1106   1.775   2.169   0.768  1.4377  1.1057  0.8119
  324SOL     OW 1107   0.311   1.482   1.834  0.0014 -0.0882  1.3007
  324SOL    HW1 1108   0.301   1.510   1.925  0.3634  1.1495  0.9810
  324SOL    HW2 1109   0.383   1.419   1.837 -1.3846 -1.7254  2.1658
  325SOL     OW 1110   1.842   0.902   0.713 -0.4427 -0.5122  0.0927
  325SOL    HW1 1111   1.805   0.816   0.693  0.8137 -0.7656 -1.3446
  325SOL    HW2 1112   1.817   0.957   0.639  0.3639 -0.1695  0.0671
  326SOL     OW 1113   1.843   0.085   2.322  0.2573  0.2012  0.2145
  326SOL    HW1 1114   1.934   0.097   2.296  0.5966 -1.6060  0.4249
  326SOL    HW2 1115   1.846   0.078   2.417 -0.1903  0.8171  0.2744
  327SOL     OW 1116   0.526   3.181   3.507  0.2273 -0.7086  0.8798
  327SOL    HW1 1117   0.465   3.183   3.434  0.5983  1.1089  0.5744
  327SOL    HW2 1118   0.497   3.107   3.561 -0.6913 -1.4171 -0.5324
  328SOL     OW 1119   2.009   2.552   1.904 -0.3875 -0.3870  0.2126
  328SOL    HW1 1120   1.927   2.592   1.933 -1.2504 -2.7023  1.2508
  328SOL    HW2 1121   2.047   2.515   1.984  1.5527  0.3682 -0.3075
  329SOL     OW 1122   1.992   2.014   1.027 -0.1328  0.4372  0.5277
  329SOL    HW1 1123   2.087   2.011   1.016 -0.3278  0.5177 -1.4822
  329SOL    HW2 1124   1.964   2.088   0.974 -1.6094 -1.5344 -1.6412
  330SOL     OW 1125   0.608   0.433   3.028  0.4993  0.1151 -0.5770
  330SOL    HW1 1126   0.656   0.378   2.967  0.3324 -0.4845 -0.1740
  330SOL    HW2 1127   0.516   0.409   3.016  0.4571  0.0423 -0.1529
  331SOL     OW 1128   2.272   2.335   2.769  0.3308  0.0076 -0.2558
  331SOL    HW1 1129   2.186   2.311   2.733  0.8598 -0.2497 -1.4107
  331SOL    HW2 1130   2.260   2.424   2.802 -1.2561 -1.1323  2.6495
  332SOL     OW 1131   3.355   2.458   3.218 -0.6189  0.6915 -0.0539
  332SOL    HW1 1132   3.282   2.404   3.187  0.7204 -0.8213 -0.7394
  332SOL    HW2 1133   3.386   2.502   3.139 -0.0515  0.3839 -0.0045
  333SOL     OW 1134   2.278   1.903   1.459  0.2947 -0.5935  0.2124
  333SOL    HW1 1135   2.327   1.938   1.533  0.7051 -2.0702  0.6705
  333SOL    HW2 1136   2.320   1.819   1.439 -1.5117 -1.5406  0.1031
  334SOL     OW 1137   0.429   2.704   1.107  0.2223 -0.4869  0.0768
  334SOL    HW1 1138   0.342   2.713   1.069 -0.0336  1.5310  1.0018
  334SOL    HW2 1139   0.473   2.786   1.085  1.4048 -0.9030  0.8090
  335SOL     OW 1140   2.212   3.269   0.285  0.2195  0.2586 -0.5756
  335SOL    HW1 1141   2.266   3.274   0.363 -1.5516 -0.0644  0.7371
  335SOL    HW2 1142   2.150   3.342   0.294 -2.4477 -1.9562  0.3227
  336SOL     OW 1143   1.546   0.955   2.839 -0.1857  0.4865  0.3988
  336SOL    HW1 1144   1.573   0.979   2.750  0.4232  0.2062  0.4986
  336SOL    HW2 1145   1.498   1.031   2.871 -1.0655  0.3022 -0.4361
  337SOL     OW 1146   2.281   3.707   1.589  0.3644  0.2368  0.1627
  337SOL    HW1 1147   2.323   3.646   1.649  1.1865  1.1899  0.5920
  337SOL    HW2 1148   2.295   3.793   1.628  0.8909  0.8813 -1.3560
  338SOL     OW 1149   2.521   2.253   2.868  0.2521  0.3684 -0.1007
  338SOL    HW1 1150   2.490   2.182   2.924 -0.0440  0.8680  0.3869
  338SOL    HW2 1151   2.441   2.285   2.825  0.4250  0.2228 -0.5269
  339SOL     OW 1152   0.546   0.064   3.608 -0.1473  0.0153  0.3166
  339SOL    HW1 1153   0.530   0.145   3.657 -0.1839  0.4305 -0.3687
  339SOL    HW2 1154   0.490   0.072   3.531 -0.1425 -0.6650  0.2369
  340SOL     OW 1155   2.939   0.834   1.459 -0.0199  0.3636 -0.7498
  340SOL    HW1 1156   2.901   0.809   1.375 -3.5712 -1.7059  1.2383
  340SOL    HW2 1157   3.010   0.771   1.472 -1.8897 -1.8475 -0.6375
  341SOL     OW 1158   2.819   1.812   3.635  0.5233 -0.3060 -0.0921
  341SOL    HW1 1159   2.860   1.889   3.596 -0.9469  0.8079  0.4866
  341SOL    HW2 1160   2.725   1.826   3.623  0.1934 -1.5904  0.7988
  342SOL     OW 1161   3.459   0.564   1.982 -0.8164  0.4986  0.1765
  342SOL    HW1 1162   3.512   0.497   1.939 -0.1477 -0.3167  2.1608
  342SOL    HW2 1163   3.369   0.540   1.960 -0.5929 -1.0825  0.8549
  343SOL     OW 1164   1.505   3.001   0.253  0.5885 -0.0901 -0.2579
  343SOL    HW1 1165   1.473   3.043   0.332 -0.3706  0.5670 -0.9735
  343SOL    HW2 1166   1.446   3.031   0.184  1.3629 -0.6963 -1.2155
  344SOL     OW 1167   3.478   2.196   3.338  0.2727 -0.1299 -0.3979
  344SOL    HW1 1168   3.523   2.122   3.297  0.0396 -0.9488  0.7881
  344SOL    HW2 1169   3.406   2.216   3.277  0.5595 -0.6332 -0.9162
  345SOL     OW 1170   3.688   1.425   2.617  0.0467  0.3456  0.1180
  345SOL    HW1 1171   3.628   1.420   2.692  0.0204  1.1331  0.1551
  345SOL    HW2 1172   3.734   1.508   2.628  0.6874  0.0501 -0.2613
  346SOL     OW 1173   1.675   0.533   2.261 -0.3632 -0.0390 -0.0803
  346SOL    HW1 1174   1.681   0.439   2.245  0.1331 -0.2345  1.1311
  346SOL    HW2 1175   1.594   0.543   2.312 -0.4053  0.1860 -0.1912
  347SOL     OW 1176   1.417   3.375   0.964  0.3806  0.1734 -0.0862
  347SOL    HW1 1177   1.466   3.456   0.956 -0.0457  0.4753  0.3200
  347SOL    HW2 1178   1.406   3.362   1.058 -0.8098  0.4261 -0.1670
  348SOL     OW 1179   0.767   1.159   1.836 -0.6898 -0.0750  0.0856
  348SOL    HW1 1180   0.810   1.192   1.915  0.8717 -0.7193 -0.4562
  348SOL    HW2 1181   0.830   1.097   1.798 -1.0140  0.8397 -2.1198
  349SOL     OW 1182   2.005   0.305   1.440  0.5475  0.1411 -0.2549
  349SOL    HW1 1183   1.916   0.334   1.420  0.5205  0.0329 -0.2899
  349SOL    HW2 1184   1.997   0.261   1.525  0.8643  1.6525  0.6061
  350SOL     OW 1185   2.671   1.553   3.654  0.2322  0.1526 -0.0151
  350SOL    HW1 1186   2.726   1.630   3.669  0.5727 -0.2836  1.1166
  350SOL    HW2 1187   2.733   1.484   3.628  0.1688 -0.2006  0.7406
  351SOL     OW 1188   1.516   0.295   2.846  0.4957  0.0301  0.0988
  351SOL    HW1 1189   1.545   0.327   2.931 -0.0582 -1.9492  1.1116
  351SOL    HW2 1190   1.584   0.233   2.819  0.5349  0.4408 -0.7770
  352SOL     OW 1191   1.001   2.640   0.034  0.3385 -0.0878  0.1493
  352SOL    HW1 1192   0.981   2.550   0.010 -0.8494  0.2717 -0.2986
  352SOL    HW2 1193   1.096   2.647   0.025  1.1315 -2.4516  4.2643
  353SOL     OW 1194   0.050   0.692   3.431  0.1902  0.3518  0.1873
  353SOL    HW1 1195  -0.044   0.691   3.417  0.0343 -0.0221  1.2133
  353SOL    HW2 1196   0.084   0.625   3.372 -0.0760  1.0894 -0.8339
  354SOL     OW 1197   0.085   0.643   2.156  0.2147 -0.3479 -0.1969
  354SOL    HW1 1198   0.171   0.680   2.135  0.2447 -1.6239 -2.6927
  354SOL    HW2 1199   0.023   0.708   2.124  0.1766  0.5368  1.5347
  355SOL     OW 1200   1.721   0.297   1.581  0.4330 -0.1576  0.0101
  355SOL    HW1 1201   1.745   0.205   1.580  0.2754 -0.2617  1.7469
  355SOL    HW2 1202   1.773   0.335   1.652 -1.8154  0.3730  1.4688
  356SOL     OW 1203   2.679   0.740   0.216 -0.3960  0.1833  0.2283
  356SOL    HW1 1204   2.698   0.800   0.288 -1.1995  0.8396 -0.0978
  356SOL    HW2 1205   2.756   0.683   0.212 -0.0876  0.5108  1.2260
  357SOL     OW 1206   3.213   0.068   3.486  0.7602  0.1280 -0.2725
  357SOL    HW1 1207   3.165  -0.009   3.456 -0.8706  0.7767  0.4973
  357SOL    HW2 1208   3.144   0.133   3.503  1.8981  1.0138  1.1877
  358SOL     OW 1209   2.613   1.598   0.267  0.9460 -0.6601  0.0319
  358SOL    HW1 1210   2.691   1.607   0.213 -0.8737  1.4076 -2.5599
  358SOL    HW2 1211   2.576   1.686   0.270 -1.1833 -1.5219  1.3085
  359SOL     OW 1212   1.344   0.490   2.668  0.6298 -0.3147 -0.7487
  359SOL    HW1 1213   1.376   0.580   2.674  0.5492 -0.3597  0.8157
  359SOL    HW2 1214   1.391   0.443   2.737  0.5145 -1.4331 -1.4060
  360SOL     OW 1215   1.308   1.161   0.625 -0.0691  0.5651  0.0197
  360SOL    HW1 1216   1.376   1.110   0.669 -0.4680  0.0831  0.0963
  360SOL    HW2 1217   1.244   1.095   0.596 -0.6300  1.0281  0.1778
  361SOL     OW 1218   1.983   0.045   3.039 -0.5595 -0.4134 -0.2842
  361SOL    HW1 1219   1.890   0.061   3.054 -0.6619 -1.2542  0.0214
  361SOL    HW2 1220   1.994   0.052   2.944 -1.1445 -1.3242 -0.4355
  362SOL     OW 1221   2.243   1.672   1.006  0.5158 -0.7723  0.3406
  362SOL    HW1 1222   2.196   1.695   1.087  0.7232 -0.6416  0.4241
  362SOL    HW2 1223   2.273   1.756   0.971  0.5044 -0.8367  0.1748
  363SOL     OW 1224   3.490   2.681   2.593  0.1607  0.0917  0.6855
  363SOL    HW1 1225   3.572   2.678   2.643  1.0492 -0.2573 -0.7250
  363SOL    HW2 1226   3.458   2.591   2.594  0.0606  0.1299  0.8270
  364SOL     OW 1227   2.936   2.725   0.325  0.4433  0.1179  0.3745
  364SOL    HW1 1228   2.857   2.698   0.372  0.5714  1.1397  1.2231
  364SOL    HW2 1229   2.922   2.697   0.235  0.5063 -2.6138  1.1227
  365SOL     OW 1230   3.480   1.342   1.958  0.0005 -0.8134 -0.0982
  365SOL    HW1 1231   3.430   1.405   2.010 -1.5667 -0.7140 -1.6552
  365SOL    HW2 1232   3.553   1.394   1.924 -1.1827  0.1745 -1.2296
  366SOL     OW 1233   1.648   0.522   2.614 -0.0298 -0.1751  0.5442
  366SOL    HW1 1234   1.733   0.493   2.647 -0.1535 -1.3568 -0.1081
  366SOL    HW2 1235   1.619   0.589   2.676  0.6311 -0.9146  1.6875
  367SOL     OW 1236   1.155   0.309   2.185  0.0615  0.1411  0.0063
  367SOL    HW1 1237   1.199   0.386   2.151  0.7703 -0.4589 -0.4768
  367SOL    HW2 1238   1.223   0.262   2.234 -0.3404 -0.2139  0.2394
  368SOL     OW 1239   3.040   2.047   0.919 -0.1513  0.2310  0.0773
  368SOL    HW1 1240   3.068   2.139   0.919 -0.0324  0.1986 -0.7125
  368SOL    HW2 1241   3.120   1.998   0.939 -0.5222  0.3706  2.0720
  369SOL     OW 1242   3.061   0.115   1.813 -0.4607  0.6924 -0.1158
  369SOL    HW1 1243   2.990   0.131   1.751  0.1085  2.9922 -0.2830
  369SOL    HW2 1244   3.140   0.141   1.765  0.5638 -1.8661  0.0387
  370SOL     OW 1245   3.233   0.799   2.822 -0.8374 -0.0572  0.5001
  370SOL    HW1 1246   3.247   0.858   2.747 -2.3757 -0.8965 -0.5074
  370SOL    HW2 1247   3.309   0.740   2.820 -1.0625 -0.3535 -0.7231
  371SOL     OW 1248   0.077   2.849   2.745 -0.1290 -0.3544  0.0783
  371SOL    HW1 1249   0.091   2.784   2.676  2.1531  0.5939 -0.4465
  371SOL    HW2 1250   0.155   2.841   2.800 -1.2117 -0.0493  1.7147
  372SOL     OW 1251   1.474   0.205   2.449 -0.0806 -0.0000  0.3153
  372SOL    HW1 1252   1.500   0.115   2.470 -0.4933 -0.3907 -0.7587
  372SOL    HW2 1253   1.542   0.236   2.390 -1.0004 -0.3447 -0.9557
  373SOL     OW 1254   2.292   0.395   1.423 -0.1253 -0.5732 -0.3594
  373SOL    HW1 1255   2.206   0.356   1.439 -0.3867 -0.6269 -1.7602
  373SOL    HW2 1256   2.273   0.483   1.390  0.3060 -0.8106 -1.2975
  374SOL     OW 1257   1.873   1.181   0.148  0.0994 -0.1219 -0.1122
  374SOL    HW1 1258   1.917   1.116   0.094 -0.2438  0.0036 -0.5420
  374SOL    HW2 1259   1.929   1.258   0.143 -0.0408 -0.0445 -0.4487
  375SOL     OW 1260   0.337   3.724   0.741 -0.5477 -0.0545  0.2776
  375SOL    HW1 1261   0.254   3.678   0.737 -0.7493  0.1037  1.9488
  375SOL    HW2 1262   0.397   3.670   0.689 -1.4181 -0.7636 -0.0068
  376SOL     OW 1263   2.030   0.870   1.144  0.1815 -0.4423 -0.0045
  376SOL    HW1 1264   1.946   0.827   1.161  1.2838 -2.9309 -0.5043
  376SOL    HW2 1265   2.089   0.800   1.118  2.0279  1.4540 -1.2824
  377SOL     OW 1266   1.333   3.590   0.455 -0.2539 -0.4089 -0.3475
  377SOL    HW1 1267   1.381   3.549   0.383  1.5765  0.4040  0.3363
  377SOL    HW2 1268   1.378   3.674   0.469 -1.0009 -0.2404  1.2801
  378SOL     OW 1269   1.957   1.206   1.791 -0.5378 -0.3301 -0.4035
  378SOL    HW1 1270   2.038   1.163   1.821 -1.2000 -0.4055  1.4038
  378SOL    HW2 1271   1.935   1.160   1.710  1.3514 -0.1228 -1.0968
  379SOL     OW 1272   2.475   2.199   2.000  0.3959 -0.2070 -0.0115
  379SOL    HW1 1273   2.413   2.127   2.007 -0.6503  0.5897 -0.6700
  379SOL    HW2 1274   2.493   2.224   2.090  0.3657 -0.9481  0.2042
  380SOL     OW 1275   1.044   3.343   1.577 -0.1184 -0.2578 -0.1379
  380SOL    HW1 1276   0.992   3.415   1.612  0.3504  0.4093 -0.7884
  380SOL    HW2 1277   1.000   3.264   1.609  0.4648  0.2874  2.2518
  381SOL     OW 1278   3.472   1.491   0.663 -0.2425  0.8114 -0.6876
  381SOL    HW1 1279   3.471   1.472   0.757  1.4417 -2.3196 -1.1956
  381SOL    HW2 1280   3.380   1.507   0.641 -0.8099  0.4684  1.2788
  382SOL     OW 1281   3.507   3.390   1.571 -0.2845  0.1695 -0.5036
  382SOL    HW1 1282   3.536   3.326   1.635 -1.3156 -0.5387 -0.7263
  382SOL    HW2 1283   3.485   3.468   1.623 -0.4207 -0.1559 -0.0708
  383SOL     OW 1284   3.667   1.621   2.162  0.2581  0.0807  0.3645
  383SOL    HW1 1285   3.731   1.606   2.092  1.3041 -2.0921  1.6804
  383SOL    HW2 1286   3.721   1.639   2.239 -0.8166  0.7454  0.9770
  384SOL     OW 1287   0.258   0.114   2.747  0.3074  0.4714  0.6031
  384SOL    HW1 1288   0.240   0.104   2.841 -0.0343  0.7539  0.5696
  384SOL    HW2 1289   0.338   0.166   2.743 -0.5273  1.8289  0.7362
  385SOL     OW 1290   1.511   2.802   3.565 -0.2668 -0.1760 -0.3723
  385SOL    HW1 1291   1.515   2.708   3.582  1.8869 -0.3706 -1.5860
  385SOL    HW2 1292   1.429   2.814   3.516  0.0722 -1.6707 -1.3733
  386SOL     OW 1293   0.116   3.317   0.236  0.1088 -0.7772  0.2273
  386SOL    HW1 1294   0.030   3.292   0.201 -0.4994  0.5607  0.6807
  386SOL    HW2 1295   0.179   3.272   0.180 -0.8831 -1.9349 -0.0083
  387SOL     OW 1296   3.403   1.283   2.723 -0.5694  0.1880 -0.6180
  387SOL    HW1 1297   3.367   1.316   2.640  0.0310  0.9456 -0.5896
  387SOL    HW2 1298   3.381   1.351   2.787  1.5910  1.0861 -0.7581
  388SOL     OW 1299   1.954   2.614   3.176 -0.7981  0.1114  1.3278
  388SOL    HW1 1300   1.868   2.650   3.153 -0.8353 -0.6313  0.1862
  388SOL    HW2 1301   1.936   2.523   3.202 -0.2212 -0.6557 -0.7148
  389SOL     OW 1302   0.396   1.960   3.459 -0.2791  0.2794  0.4217
  389SOL    HW1 1303   0.461   2.031   3.464  1.1243 -0.8170 -1.0423
  389SOL    HW2 1304   0.331   1.993   3.397  0.4018  0.2869 -0.3080
  390SOL     OW 1305   1.031   2.515   3.124  0.0218  0.5422 -1.0472
  390SOL    HW1 1306   0.949   2.469   3.108  0.4379 -0.7616  0.3232
  390SOL    HW2 1307   1.016   2.566   3.203  0.2109  1.1567 -1.3984
  391SOL     OW 1308   3.254   1.881   0.993 -0.4677  0.3446  0.1735
  391SOL    HW1 1309   3.254   1.791   1.025  0.4472  0.1053 -0.4690
  391SOL    HW2 1310   3.215   1.932   1.064 -2.3762 -0.7435 -0.0297
  392SOL     OW 1311   3.107   1.242   3.482  0.0037 -0.3794 -0.2887
  392SOL    HW1 1312   3.067   1.249   3.395  1.4813 -0.6972 -1.0298
  392SOL    HW2 1313   3.200   1.252   3.466  0.3343 -0.7841  1.2351
  393SOL     OW 1314   2.947   0.881   1.037 -0.1129  0.2805  0.2559
  393SOL    HW1 1315   2.968   0.880   0.944 -0.6614  1.0716  0.1146
  393SOL    HW2 1316   2.868   0.934   1.044  2.8177  5.1682  1.6713
  394SOL     OW 1317   1.033   0.795   0.278 -0.5257 -0.2996 -0.4413
  394SOL    HW1 1318   1.067   0.775   0.191 -0.5303 -0.8224 -0.3241
  394SOL    HW2 1319   0.942   0.763   0.276 -0.4250 -0.6072 -0.1368
  395SOL     OW 1320   2.312   3.525   0.452 -0.4963  0.1685  0.2806
  395SOL    HW1 1321   2.248   3.595   0.440 -0.9981 -0.2579  0.4276
  395SOL    HW2 1322   2.342   3.535   0.543  1.0059  1.4784 -0.2966
  396SOL     OW 1323   2.572   1.331   0.144 -0.9545 -0.4081  0.1434
  396SOL    HW1 1324   2.603   1.397   0.206 -0.7758 -1.0205  0.7159
  396SOL    HW2 1325   2.594   1.368   0.058 -1.3535  0.5243  0.4255
  397SOL     OW 1326   3.094   3.125   2.405 -0.2117 -0.1414  0.1153
  397SOL    HW1 1327   3.077   3.082   2.489 -0.0596 -1.2360 -0.3949
  397SOL    HW2 1328   3.020   3.099   2.349  1.5878 -2.6695 -1.2797
  398SOL     OW 1329   2.986   3.589   2.563 -0.3869 -0.3712 -0.3955
  398SOL    HW1 1330   3.026   3.556   2.644  1.6162  2.4233 -0.1203
  398SOL    HW2 1331   3.058   3.589   2.499 -0.5122  2.3051 -0.6444
  399SOL     OW 1332   1.227   1.515   1.353 -0.2488 -0.0059  0.3125
  399SOL    HW1 1333   1.241   1.527   1.447  0.4655 -1.3351  0.4087
  399SOL    HW2 1334   1.265   1.429   1.334 -1.5048 -0.3298 -0.9542
  400SOL     OW 1335   3.459   1.757   2.379 -0.0300  0.3423  0.1358
  400SOL    HW1 1336   3.409   1.790   2.304  0.6691  1.0907 -0.0125
  400SOL    HW2 1337   3.395   1.708   2.431 -0.0633 -2.4195 -2.2187
  401SOL     OW 1338   1.200   0.746   2.986  0.1700 -0.2402  0.3239
  401SOL    HW1 1339   1.282   0.734   3.034  0.2266 -0.3399  0.2045
  401SOL    HW2 1340   1.218   0.821   2.928 -0.3555  0.7907  1.4445
  402SOL     OW 1341   3.352   1.151   1.549 -0.5288  0.7588 -0.1071
  402SOL    HW1 1342   3.444   1.168   1.571 -0.6633  1.9430 -0.3884
  402SOL    HW2 1343   3.311   1.125   1.631 -0.3051  1.9101  0.3892
  403SOL     OW 1344   0.194   3.136   3.075  0.5792  0.4394  0.0008
  403SOL    HW1 1345   0.141   3.184   3.011  0.9552  0.2391 -0.4690
  403SOL    HW2 1346   0.219   3.201   3.140 -1.5705  0.2314  1.1289
  404SOL     OW 1347   1.193   1.274   1.057 -0.8702  0.3835  0.2605
  404SOL    HW1 1348   1.251   1.279   0.981 -2.0520  0.9675 -0.6403
  404SOL    HW2 1349   1.114   1.320   1.029 -0.7517  2.0321  2.3930
  405SOL     OW 1350   2.540   1.224   1.736 -0.0483 -0.1116  0.0058
  405SOL    HW1 1351   2.619   1.182   1.768 -0.5358 -1.1255 -0.0930
  405SOL    HW2 1352   2.524   1.184   1.650 -0.3795  0.4621 -0.2117
  406SOL     OW 1353   0.816   0.579   0.513 -0.1477  0.0477 -0.7869
  406SOL    HW1 1354   0.834   0.577   0.607  1.1538  1.2880 -0.9619
  406SOL    HW2 1355   0.721   0.583   0.506 -0.3984 -2.2741  0.3855
  407SOL     OW 1356   1.156   3.047   1.807  0.1332  0.2625  0.0429
  407SOL    HW1 1357   1.217   3.020   1.876 -0.4073 -2.6987 -0.5106
  407SOL    HW2 1358   1.210   3.052   1.728  0.0359 -0.2697 -0.0567
  408SOL     OW 1359   0.165   0.891   1.533 -0.2239  0.5669 -0.2130
  408SOL    HW1 1360   0.168   0.927   1.621 -0.6663  0.7706 -0.2773
  408SOL    HW2 1361   0.073   0.897   1.508 -0.6835 -2.2536  0.4663
  409SOL     OW 1362   1.446   3.553   0.205  0.4217 -0.4221  0.1636
  409SOL    HW1 1363   1.513   3.578   0.141  0.5386 -1.1575 -0.0052
  409SOL    HW2 1364   1.363   3.583   0.167  0.7034  1.2192  0.7375
  410SOL     OW 1365   3.724   0.707   2.608 -0.6827  0.1299 -0.4500
  410SOL    HW1 1366   3.707   0.640   2.673  0.6299 -0.1547 -0.3641
  410SOL    HW2 1367   3.695   0.789   2.649  0.7473  0.0472  0.7923
  411SOL     OW 1368   2.759   1.021   3.691  0.0879 -0.0991  0.3874
  411SOL    HW1 1369   2.809   1.066   3.759 -1.1117 -1.5175  2.3178
  411SOL    HW2 1370   2.670   1.015   3.727 -0.7999 -0.1795 -1.6851
  412SOL     OW 1371   2.714   3.684   1.640 -0.0227  0.6028 -0.1519
  412SOL    HW1 1372   2.631   3.658   1.601 -0.2532  0.8429  0.1677
  412SOL    HW2 1373   2.761   3.602   1.656 -0.6193  0.3921  0.5857
  413SOL     OW 1374   1.270   1.508   1.616 -0.5541 -0.2390 -0.0551
  413SOL    HW1 1375   1.357   1.543   1.600 -1.4308  2.5520  0.7228
  413SOL    HW2 1376   1.230   1.569   1.678 -3.4121 -0.8210 -1.1465
  414SOL     OW 1377   1.457   2.565   2.005  0.0632 -0.2277  0.4047
  414SOL    HW1 1378   1.453   2.640   2.064  0.2218  1.4767 -1.6152
  414SOL    HW2 1379   1.544   2.527   2.020  0.5847  0.9263  0.3997
  415SOL     OW 1380   2.846   1.242   2.273 -1.0827  1.0514 -0.2719
  415SOL    HW1 1381   2.930   1.252   2.228 -0.6831 -0.2425  0.1699
  415SOL    HW2 1382   2.838   1.321   2.327  0.8699  0.2184  1.3329
  416SOL     OW 1383   2.091   0.251   0.868  0.2658  0.1369  0.1231
  416SOL    HW1 1384   2.092   0.243   0.963 -0.6662  0.5727  0.1850
  416SOL    HW2 1385   2.009   0.210   0.841  0.1518  0.6933 -0.4102
  417SOL     OW 1386   2.912   1.755   2.395 -0.4519 -0.4438 -0.0432
  417SOL    HW1 1387   2.911   1.714   2.309  0.0753 -0.1870 -0.1769
  417SOL    HW2 1388   2.983   1.819   2.390 -0.2135 -0.6397  0.6782
  418SOL     OW 1389   0.202   1.535   1.161  0.0573 -0.0847  0.1587
  418SOL    HW1 1390   0.261   1.608   1.181 -3.2936  2.2876  2.5033
  418SOL    HW2 1391   0.217   1.472   1.231 -0.2181  0.5470  0.7975
  419SOL     OW 1392   0.961   0.931   3.324  0.3102  0.1783 -0.3102
  419SOL    HW1 1393   0.872   0.955   3.296 -0.3763 -2.3168 -0.4764
  419SOL    HW2 1394   0.969   0.969   3.412 -0.8039  0.6957 -0.4125
  420SOL     OW 1395   2.475   3.324   1.661 -0.0961  0.4578 -0.4242
  420SOL    HW1 1396   2.468   3.416   1.687  2.3917  1.2666 -2.1380
  420SOL    HW2 1397   2.437   3.322   1.573 -0.1685 -0.1509 -0.3790
  421SOL     OW 1398   1.609   0.874   1.944  0.2803  0.3462 -0.3179
  421SOL    HW1 1399   1.701   0.872   1.918  0.5224  2.2845  0.2836
  421SOL    HW2 1400   1.599   0.798   2.002  1.3880 -0.0883 -0.6607
  422SOL     OW 1401   2.432   0.547   0.905  0.5002  0.1680  0.3880
  422SOL    HW1 1402   2.465   0.466   0.945 -0.3065 -1.2287 -1.6203
  422SOL    HW2 1403   2.504   0.576   0.848 -0.2595 -0.8124 -1.1332
  423SOL     OW 1404   0.846   0.639   0.114  0.1150  0.3128 -0.2103
  423SOL    HW1 1405   0.814   0.700   0.048 -0.5702 -1.6595 -1.8160
  423SOL    HW2 1406   0.782   0.568   0.115  0.3171  0.0660  2.3390
  424SOL     OW 1407   1.638   3.202   1.457  0.4684 -0.3783 -0.0281
  424SOL    HW1 1408   1.691   3.172   1.530  2.3573 -2.2694 -1.9989
  424SOL    HW2 1409   1.629   3.125   1.401  1.2247  1.4624 -2.9439
  425SOL     OW 1410   3.212   3.286   2.950 -0.5513  0.7929  0.0275
  425SOL    HW1 1411   3.184   3.367   2.992 -2.7869  0.5009 -0.7692
  425SOL    HW2 1412   3.144   3.268   2.885  0.0709 -1.5270 -0.0678
  426SOL     OW 1413   2.773   1.469   1.872  0.0608 -0.3509  1.0277
  426SOL    HW1 1414   2.753   1.435   1.785  0.2589  0.4823  0.6439
  426SOL    HW2 1415   2.844   1.413   1.904  1.3335  0.5167 -0.1617
  427SOL     OW 1416   2.765   2.052   2.090  1.0930  0.8890  0.4937
  427SOL    HW1 1417   2.741   2.109   2.164  0.6039  2.5379 -0.8738
  427SOL    HW2 1418   2.764   2.110   2.014 -0.2737 -1.1211 -1.1373
  428SOL     OW 1419   1.411   1.919   0.104  0.3836  0.2569 -0.2000
  428SOL    HW1 1420   1.377   1.961   0.183  1.0162 -0.9296  0.7496
  428SOL    HW2 1421   1.396   1.982   0.034 -1.7391  0.6543  0.5558
  429SOL     OW 1422   0.389   0.834   0.846  0.1600 -0.1708 -0.3613
  429SOL    HW1 1423   0.378   0.928   0.829  3.1748 -0.1495 -3.2681
  429SOL    HW2 1424   0.319   0.793   0.796 -0.8214  0.4569  0.4511
  430SOL     OW 1425   2.075   2.748   3.428  0.1874  1.0121  0.5354
  430SOL    HW1 1426   2.124   2.826   3.453 -1.6054  2.2090  0.5135
  430SOL    HW2 1427   2.040   2.768   3.341  0.9691 -0.4718 -0.1675
  431SOL     OW 1428   1.914   0.794   1.460  0.2827  0.3869  0.1837
  431SOL    HW1 1429   1.844   0.740   1.423  0.4494  1.0772 -1.2146
  431SOL    HW2 1430   1.961   0.735   1.519  0.7007 -1.1377 -1.5940
  432SOL     OW 1431   2.375   1.056   2.403 -0.1115 -0.2062 -0.0419
  432SOL    HW1 1432   2.399   1.095   2.319 -0.6149  0.3609  0.0678
  432SOL    HW2 1433   2.411   0.968   2.400  0.5446  0.0719 -0.5364
  433SOL     OW 1434   1.397   1.815   3.103 -0.2653  0.1815  0.2868
  433SOL    HW1 1435   1.339   1.870   3.155 -1.0380 -0.6190  0.3028
  433SOL    HW2 1436   1.474   1.802   3.158 -0.9490 -0.4206  1.1332
  434SOL     OW 1437   1.005   2.073   1.079 -0.2439 -0.1940  0.0419
  434SOL    HW1 1438   0.968   2.037   0.998  0.7930  1.5288 -1.2610
  434SOL    HW2 1439   0.929   2.099   1.131 -0.9925  1.9167 -1.9328
  435SOL     OW 1440   2.892   2.114   2.788 -0.3465  0.7612 -0.0143
  435SOL    HW1 1441   2.869   2.149   2.874 -1.0495  1.0938 -0.3394
  435SOL    HW2 1442   2.851   2.028   2.785 -2.8496  1.8894 -1.1328
  436SOL     OW 1443   3.191   0.791   0.030 -0.3994  0.1225  0.1397
  436SOL    HW1 1444   3.265   0.849   0.012  0.3063 -1.2323 -1.6444
  436SOL    HW2 1445   3.115   0.849   0.026  0.4895  1.5374  1.9627
  437SOL     OW 1446   3.621   1.096   3.281  0.9277 -0.2579 -0.4881
  437SOL    HW1 1447   3.634   1.023   3.220  0.7277 -1.2330  0.6040
  437SOL    HW2 1448   3.625   1.056   3.368  3.9472  1.4994  0.3223
  438SOL     OW 1449   3.034   3.550   1.108  0.5837 -0.4776  0.4064
  438SOL    HW1 1450   3.113   3.495   1.110  1.1828  0.2314 -1.6969
  438SOL    HW2 1451   2.985   3.524   1.186  1.6552 -2.7671  0.3923
  439SOL     OW 1452   2.434   0.676   1.378 -0.1003 -0.3897  0.3328
  439SOL    HW1 1453   2.495   0.735   1.335 -0.3321 -1.3251 -1.3908
  439SOL    HW2 1454   2.480   0.646   1.456  0.9491  0.2345 -0.0271
  440SOL     OW 1455   1.794   0.564   3.620  0.2765  0.4746 -0.3235
  440SOL    HW1 1456   1.726   0.595   3.679  0.9823 -0.9646  1.3474
  440SOL    HW2 1457   1.867   0.542   3.678  0.1890 -3.2553 -1.3810
  441SOL     OW 1458   1.337   2.081   0.309 -0.6623 -0.0495  0.3336
  441SOL    HW1 1459   1.368   2.171   0.304 -1.2835  0.1089 -1.7680
  441SOL    HW2 1460   1.323   2.065   0.402  0.3608  1.6886  0.8327
  442SOL     OW 1461   2.105   1.695   1.673 -0.5224 -0.1388 -0.6831
  442SOL    HW1 1462   2.083   1.729   1.760 -1.7950 -0.0376 -1.0178
  442SOL    HW2 1463   2.179   1.637   1.687  0.0170  0.7558  0.2936
  443SOL     OW 1464   1.414   0.668   3.128 -0.6451  0.0409  0.2649
  443SOL    HW1 1465   1.383   0.622   3.206  4.0610 -2.2152  1.1934
  443SOL    HW2 1466   1.472   0.737   3.161 -0.0210  0.2660 -1.1761
  444SOL     OW 1467   2.779   0.972   2.077  0.1776  0.4436  0.1299
  444SOL    HW1 1468   2.783   0.965   1.981 -0.1474 -0.1819  0.1573
  444SOL    HW2 1469   2.859   0.929   2.107 -0.5679 -0.9546  0.1963
  445SOL     OW 1470   1.949   3.371   2.847 -0.6631 -0.6510  0.1019
  445SOL    HW1 1471   1.978   3.402   2.932 -0.1240 -3.3074  0.9880
  445SOL    HW2 1472   1.854   3.363   2.855 -1.1677  2.7174 -0.9320
  446SOL     OW 1473   2.657   3.382   2.670 -0.6570  0.2603  0.7226
  446SOL    HW1 1474   2.687   3.337   2.749  0.5891 -2.0083 -0.9645
  446SOL    HW2 1475   2.567   3.351   2.657  0.0442 -1.4941 -0.1808
  447SOL     OW 1476   1.253   3.040   2.200 -0.6322  0.2281 -0.0184
  447SOL    HW1 1477   1.158   3.031   2.192 -0.7383 -1.1089  1.9809
  447SOL    HW2 1478   1.287   2.955   2.173 -0.1246  0.1868  0.7296
  448SOL     OW 1479   0.015   3.411   2.728 -0.3183 -0.1757 -0.4539
  448SOL    HW1 1480   0.069   3.479   2.689  0.9931 -0.5954  0.5461
  448SOL    HW2 1481   0.076   3.339   2.745 -0.7724 -0.0331  2.3127
  449SOL     OW 1482   1.121   2.419   0.749 -0.6117 -0.4281  0.5654
  449SOL    HW1 1483   1.210   2.416   0.713 -0.6626  0.7479  0.2973
  449SOL    HW2 1484   1.064   2.412   0.672 -0.7816 -1.7594  0.7836
  450SOL     OW 1485   1.264   3.683   0.059  0.0337  0.3752 -0.0088
  450SOL    HW1 1486   1.182   3.638   0.080  0.1151  0.1112 -0.2618
  450SOL    HW2 1487   1.247   3.726  -0.025  0.7725 -1.2750 -1.0615
  451SOL     OW 1488   1.128   2.269   2.823  0.2794 -0.4793  0.7640
  451SOL    HW1 1489   1.153   2.361   2.815 -0.3342 -0.2211  1.6317
  451SOL    HW2 1490   1.152   2.245   2.912  0.1232 -1.0618  0.6561
  452SOL     OW 1491   2.743   0.932   3.070  0.2576  0.4628 -0.1134
  452SOL    HW1 1492   2.719   0.883   3.148  0.9634 -0.6534 -0.5698
  452SOL    HW2 1493   2.831   0.965   3.088  0.9938 -0.9822 -0.9588
  453SOL     OW 1494   0.633   0.417   1.755 -0.1915  0.5072  0.3066
  453SOL    HW1 1495   0.713   0.463   1.781 -0.9737  2.3079 -0.2845
  453SOL    HW2 1496   0.568   0.444   1.819 -1.0236  1.4074 -0.8671
  454SOL     OW 1497   0.271   0.170   0.205  0.4174  0.0476 -0.0237
  454SOL    HW1 1498   0.196   0.228   0.213 -0.2026 -0.9664  2.1052
  454SOL    HW2 1499   0.269   0.140   0.114 -1.3663  0.5302 -0.1684
  455SOL     OW 1500   1.402   2.908   2.908  0.0040 -0.1453 -0.5246
  455SOL    HW1 1501   1.340   2.859   2.962  1.5170  0.7957  2.2513
  455SOL    HW2 1502   1.460   2.841   2.872  0.6549 -0.6546  1.3521
  456SOL     OW 1503   3.439   0.029   2.554  0.5051 -0.0480 -0.0685
  456SOL    HW1 1504   3.528   0.041   2.589  0.7844 -3.7875  0.8701
  456SOL    HW2 1505   3.451   0.024   2.460  1.0486  0.8293 -0.0624
  457SOL     OW 1506   1.567   2.234   0.056 -0.7850  0.0108  0.9546
  457SOL    HW1 1507   1.472   2.240   0.042 -0.5003  0.3547 -1.1929
  457SOL    HW2 1508   1.601   2.201  -0.026  1.2137  2.4341  0.6821
  458SOL     OW 1509   0.994   3.218   2.164 -0.2012  0.4414  0.2993
  458SOL    HW1 1510   1.069   3.276   2.157 -0.3665  0.6654  0.3622
  458SOL    HW2 1511   0.920   3.271   2.135 -0.1159 -0.2447 -1.2397
  459SOL     OW 1512   2.380   1.947   2.583  0.2115 -0.0881  0.0418
  459SOL    HW1 1513   2.403   1.881   2.517 -1.3503 -1.2370  0.5891
  459SOL    HW2 1514   2.286   1.937   2.595 -0.1522  2.5034 -0.0774
  460SOL     OW 1515   0.964   3.186   2.437  0.0841  0.2429 -0.0375
  460SOL    HW1 1516   1.003   3.260   2.391  0.9649  0.9222  1.6989
  460SOL    HW2 1517   0.915   3.139   2.370  0.5344  1.6884 -1.4466
  461SOL     OW 1518   1.040   0.514   3.018  0.0586 -0.6969 -0.2805
  461SOL    HW1 1519   1.085   0.596   3.041 -1.1891 -0.0238 -0.1749
  461SOL    HW2 1520   0.969   0.541   2.960 -0.3975 -1.7071 -0.2154
  462SOL     OW 1521   3.402   1.288   3.016  1.3941 -0.1342  0.2236
  462SOL    HW1 1522   3.388   1.203   2.975 -1.0523  0.3246 -0.0470
  462SOL    HW2 1523   3.444   1.268   3.099 -2.1649 -2.0545  1.7847
  463SOL     OW 1524   1.432   2.267   2.548 -0.4290 -0.0051  0.0857
  463SOL    HW1 1525   1.484   2.343   2.573 -1.0252  0.7584 -0.9200
  463SOL    HW2 1526   1.429   2.270   2.452  0.5842 -2.0107 -0.0696
  464SOL     OW 1527   3.132   1.291   0.825 -0.1839 -0.2521  0.4073
  464SOL    HW1 1528   3.152   1.198   0.831  2.2419  0.2476  1.0627
  464SOL    HW2 1529   3.075   1.308   0.900 -0.4620 -1.1368  0.4122
  465SOL     OW 1530   0.568   2.409   3.119 -0.7110  0.4426 -0.0586
  465SOL    HW1 1531   0.639   2.441   3.174  0.6206  0.2997 -1.6069
  465SOL    HW2 1532   0.515   2.487   3.102  0.4917  1.1211 -0.8766
  466SOL     OW 1533   3.008   0.959   2.810 -0.2435  0.1208 -0.4177
  466SOL    HW1 1534   3.093   0.917   2.823  0.6688  1.5800 -1.3664
  466SOL    HW2 1535   2.981   0.935   2.722 -0.5439  0.1448 -0.3359
  467SOL     OW 1536   1.378   2.106   3.572  0.0925 -0.2225 -0.5810
  467SOL    HW1 1537   1.358   2.193   3.539 -1.6577 -0.6301 -0.7028
  467SOL    HW2 1538   1.473   2.097   3.561  0.0660  1.0133 -2.1301
  468SOL     OW 1539   3.624   1.439   1.324 -0.1361  0.1235  0.6291
  468SOL    HW1 1540   3.665   1.482   1.399  0.3873 -0.0441  0.4449
  468SOL    HW2 1541   3.603   1.510   1.264 -0.4994  0.2521  0.9043
  469SOL     OW 1542   1.306   1.841   2.595  0.2866  0.5064  0.1467
  469SOL    HW1 1543   1.315   1.839   2.691  2.8884 -0.5331 -0.0346
  469SOL    HW2 1544   1.385   1.885   2.564  0.2958 -0.6368 -1.5852
  470SOL     OW 1545   2.938   1.245   2.894 -0.5933  0.5013 -0.3691
  470SOL    HW1 1546   2.852   1.230   2.934  0.2055  0.1701  1.3223
  470SOL    HW2 1547   2.957   1.163   2.849 -1.3948  0.7801 -1.2457
  471SOL     OW 1548   0.197   0.163   0.912  0.2580 -0.0574 -0.4319
  471SOL    HW1 1549   0.224   0.250   0.884  0.7311 -0.6377 -1.8974
  471SOL    HW2 1550   0.250   0.103   0.859 -0.4705 -1.2314  0.1173
  472SOL     OW 1551   2.463   2.090   0.707 -0.5030  0.1693 -0.3148
  472SOL    HW1 1552   2.549   2.085   0.747 -1.7021 -0.7310  2.4291
  472SOL    HW2 1553   2.438   2.182   0.714  0.0334  0.3404 -0.6449
  473SOL     OW 1554   0.743   2.018   3.524 -0.5835 -0.3480  0.1857
  473SOL    HW1 1555   0.788   2.055   3.600  1.7349 -0.2733 -1.1414
  473SOL    HW2 1556   0.787   2.056   3.448 -1.9205 -1.4635 -1.2264
  474SOL     OW 1557   3.376   2.709   1.637  0.3224 -0.3200  0.2928
  474SOL    HW1 1558   3.423   2.748   1.710 -0.8463  1.6148  0.0905
  474SOL    HW2 1559   3.284   2.709   1.665  0.1336 -1.8847 -0.2127
  475SOL     OW 1560   2.456   3.427   0.239 -0.1572 -0.0626  0.3762
  475SOL    HW1 1561   2.405   3.356   0.201 -1.1728  0.3477  0.9276
  475SOL    HW2 1562   2.397   3.468   0.303 -0.3039  2.4794 -1.2213
  476SOL     OW 1563   1.849   2.685   2.499 -0.6781 -0.4803 -0.1336
  476SOL    HW1 1564   1.862   2.756   2.563 -1.8277 -0.4537  0.0870
  476SOL    HW2 1565   1.914   2.702   2.431  0.2641 -0.2438  0.7916
  477SOL     OW 1566   3.138   3.468   1.547 -0.1650  0.3520 -0.6500
  477SOL    HW1 1567   3.202   3.409   1.509 -1.3586 -1.9360  0.6513
  477SOL    HW2 1568   3.096   3.416   1.617 -2.3089  2.2466 -0.4081
  478SOL     OW 1569   1.421   0.186   1.195 -0.9485 -0.7358 -0.2391
  478SOL    HW1 1570   1.354   0.242   1.233 -0.3744 -0.3243  0.1908
  478SOL    HW2 1571   1.471   0.244   1.138  0.8271 -0.2930  1.6292
  479SOL     OW 1572   0.669   1.426   2.551 -0.2218 -0.0866 -0.4278
  479SOL    HW1 1573   0.651   1.373   2.473 -1.1007  0.3438 -0.5316
  479SOL    HW2 1574   0.735   1.376   2.599  1.9415  0.6337 -2.4519
  480SOL     OW 1575   2.113   1.027   3.229 -0.2045 -0.1043 -0.1072
  480SOL    HW1 1576   2.134   1.119   3.243  1.1088 -0.3322 -0.4718
  480SOL    HW2 1577   2.184   0.994   3.174 -0.7366 -1.2979 -0.1068
  481SOL     OW 1578   1.736   1.360   3.102 -0.0275 -0.6718  0.1999
  481SOL    HW1 1579   1.716   1.450   3.076  2.4260  0.4605  1.9045
  481SOL    HW2 1580   1.660   1.332   3.152 -0.9565  0.3009 -0.6235
  482SOL     OW 1581   3.130   0.824   2.131  0.1945  0.9402  0.2049
  482SOL    HW1 1582   3.146   0.911   2.168  0.3695  0.4015  1.4584
  482SOL    HW2 1583   3.214   0.778   2.141  0.2395  0.7747 -0.8776
  483SOL     OW 1584   3.678   3.285   1.347  0.0739  0.1592  0.3538
  483SOL    HW1 1585   3.638   3.318   1.428  1.0219  0.0666  0.8727
  483SOL    HW2 1586   3.729   3.208   1.375  1.0691  0.6074 -0.1916
  484SOL     OW 1587   0.762   0.352   2.824  0.3199 -0.2916 -0.4958
  484SOL    HW1 1588   0.792   0.391   2.741 -0.7537 -1.2644 -1.3757
  484SOL    HW2 1589   0.842   0.318   2.864  0.7529 -0.6185 -1.5816
  485SOL     OW 1590   2.865   2.487   2.738 -0.6463 -0.4298 -0.5372
  485SOL    HW1 1591   2.783   2.440   2.726 -0.5951 -1.0388  1.2259
  485SOL    HW2 1592   2.929   2.418   2.760  0.2917  0.0617 -1.6033
  486SOL     OW 1593   0.383   0.286   2.017 -0.3720  0.5193  0.0789
  486SOL    HW1 1594   0.359   0.378   2.005 -2.1114  0.1985  0.7729
  486SOL    HW2 1595   0.376   0.248   1.929 -2.0516  0.5639  0.1512
  487SOL     OW 1596   3.034   2.257   1.250  0.4743 -0.0444 -0.5284
  487SOL    HW1 1597   2.946   2.248   1.214  0.5269  1.0982 -0.9842
  487SOL    HW2 1598   3.025   2.236   1.343 -0.5939  1.5450 -0.2409
  488SOL     OW 1599   1.527   3.576   1.987 -0.0636 -0.2691 -0.8867
  488SOL    HW1 1600   1.453   3.626   1.952  0.1670 -0.1519 -1.2162
  488SOL    HW2 1601   1.561   3.631   2.058 -1.9549 -1.5684  1.0946
  489SOL     OW 1602   0.177   1.263   2.668 -0.0544 -0.6987 -0.0224
  489SOL    HW1 1603   0.103   1.316   2.638 -1.5211 -1.9346  1.2331
  489SOL    HW2 1604   0.197   1.206   2.595  0.3709  0.3506 -0.7476
  490SOL     OW 1605   3.449   3.086   0.216 -0.0799 -0.6138 -0.4127
  490SOL    HW1 1606   3.533   3.106   0.257 -0.2987 -0.1894 -0.1652
  490SOL    HW2 1607   3.465   3.005   0.167  0.3876 -0.7055 -0.1141
  491SOL     OW 1608   1.910   3.062   0.417 -0.1701  0.2770  0.3012
  491SOL    HW1 1609   1.899   3.147   0.375  1.6619  0.1479 -0.4973
  491SOL    HW2 1610   1.826   3.047   0.461 -2.3390  0.3228 -3.3936
  492SOL     OW 1611   1.536   2.340   0.882  0.1015 -0.1452 -0.1413
  492SOL    HW1 1612   1.601   2.307   0.820  0.5647  0.0565  0.2286
  492SOL    HW2 1613   1.588   2.377   0.953 -0.4183 -1.1577  0.7939
  493SOL     OW 1614   3.551   0.722   3.605 -0.1016  0.5689  0.3180
  493SOL    HW1 1615   3.526   0.727   3.697 -0.5398  0.1991  0.2205
  493SOL    HW2 1616   3.503   0.647   3.571 -1.6477  1.9625 -0.7450
  494SOL     OW 1617   1.592   2.743   2.824  0.5975  0.3048  0.0885
  494SOL    HW1 1618   1.664   2.805   2.835  0.5117  0.4002  0.1115
  494SOL    HW2 1619   1.579   2.739   2.729  0.7205  0.1871  0.0763
  495SOL     OW 1620   3.239   1.780   2.187 -0.3822 -0.4321  0.2498
  495SOL    HW1 1621   3.228   1.778   2.092 -4.5528 -1.8218  0.5300
  495SOL    HW2 1622   3.175   1.844   2.217 -0.3961 -1.2739  2.1913
  496SOL     OW 1623   2.360   2.222   2.531 -0.3095  0.5276 -0.0613
  496SOL    HW1 1624   2.383   2.129   2.527 -2.8443 -0.1239 -1.3278
  496SOL    HW2 1625   2.368   2.244   2.624  0.4010 -0.9073  0.2584
  497SOL     OW 1626   1.569   2.621   0.650  0.6091  0.4539 -0.5315
  497SOL    HW1 1627   1.504   2.680   0.687 -1.9728 -1.6439 -1.4332
  497SOL    HW2 1628   1.609   2.579   0.727  0.4253  1.2532  0.0145
  498SOL     OW 1629   1.950   1.767   0.909  0.0207 -0.0208  0.5816
  498SOL    HW1 1630   1.946   1.855   0.946  0.2692  0.4254 -0.4010
  498SOL    HW2 1631   1.982   1.711   0.980 -1.2796  0.4575  1.5755
  499SOL     OW 1632   3.461   1.999   2.875  0.2338  0.6047 -0.4504
  499SOL    HW1 1633   3.446   1.904   2.882 -0.3456  0.8037  2.0228
  499SOL    HW2 1634   3.469   2.015   2.781 -0.1143 -1.8223 -0.9689
  500SOL     OW 1635   0.860   1.820   0.617  0.5028  0.4288  0.2411
  500SOL    HW1 1636   0.806   1.741   0.609 -0.5233  1.3208 -3.0568
  500SOL    HW2 1637   0.950   1.787   0.618  0.0712 -0.8281  0.7757
  501SOL     OW 1638   1.561   3.328   2.061  0.5106  0.3658 -0.1019
  501SOL    HW1 1639   1.652   3.301   2.049  1.2347  2.3397  0.5478
  501SOL    HW2 1640   1.556   3.414   2.020 -1.7025 -0.6379 -2.1443
  502SOL     OW 1641   1.142   0.246   1.174  0.1985 -0.7824 -0.3407
  502SOL    HW1 1642   1.162   0.160   1.138  2.2513 -0.3027 -0.4905
  502SOL    HW2 1643   1.120   0.299   1.097 -1.9552 -1.3179 -0.1728
  503SOL     OW 1644   1.907   1.736   2.466 -0.1648 -0.7781  0.4939
  503SOL    HW1 1645   1.846   1.770   2.400  0.5837  1.0982  0.6922
  503SOL    HW2 1646   1.970   1.684   2.415  0.6525  0.9882 -0.4162
  504SOL     OW 1647   1.677   2.194   2.280 -0.1074  0.0515  0.0317
  504SOL    HW1 1648   1.584   2.173   2.289 -0.2170  0.6456  0.3350
  504SOL    HW2 1649   1.714   2.180   2.367  0.3542 -1.3629 -0.3532
  505SOL     OW 1650   2.851   1.767   0.407  0.1028 -0.5069  0.2417
  505SOL    HW1 1651   2.789   1.833   0.377  0.4466 -0.6666 -0.8716
  505SOL    HW2 1652   2.887   1.730   0.327  3.4296  1.2246  0.7447
  506SOL     OW 1653   1.952   1.709   3.334 -0.1279 -0.2602  0.4094
  506SOL    HW1 1654   2.025   1.735   3.391 -0.3720 -0.9875  1.0792
  506SOL    HW2 1655   1.892   1.662   3.393 -0.4857 -0.8481 -0.4117
  507SOL     OW 1656   0.764   0.301   3.622 -0.1227  0.2357 -0.4532
  507SOL    HW1 1657   0.675   0.330   3.638 -0.7017 -0.3418 -2.4129
  507SOL    HW2 1658   0.755   0.213   3.584  1.4263 -1.1087  1.9679
  508SOL     OW 1659   3.593   3.296   1.816 -0.2827 -0.6086 -0.3068
  508SOL    HW1 1660   3.669   3.244   1.843  0.3174 -0.7061 -2.0978
  508SOL    HW2 1661   3.578   3.355   1.890  1.4790 -0.6471  0.1337
  509SOL     OW 1662   1.569   2.540   3.627 -0.1661  0.3427 -0.7056
  509SOL    HW1 1663   1.643   2.587   3.665 -1.0834 -0.8945  3.1405
  509SOL    HW2 1664   1.563   2.460   3.680 -1.9935 -1.4329 -3.3489
  510SOL     OW 1665   0.776   2.543   0.959 -0.0859 -0.1933  0.2594
  510SOL    HW1 1666   0.819   2.497   0.888 -0.9649 -1.9055  0.7906
  510SOL    HW2 1667   0.701   2.587   0.918 -0.6135 -1.2085  0.1169
  511SOL     OW 1668   2.052   2.343  -0.007  0.9431 -0.1610  0.1532
  511SOL    HW1 1669   2.082   2.420  -0.056  0.0717  0.1232  0.0561
  511SOL    HW2 1670   2.065   2.367   0.085 -0.5990  0.6728  0.1895
  512SOL     OW 1671   0.757   0.026   1.822 -0.6473 -0.4084 -0.8249
  512SOL    HW1 1672   0.722  -0.033   1.755  0.5378 -2.6911  0.4725
  512SOL    HW2 1673   0.679   0.066   1.862 -1.4303 -0.3451 -2.3403
  513SOL     OW 1674   3.413   2.767   0.894 -0.1907 -0.1934  0.3273
  513SOL    HW1 1675   3.346   2.761   0.963 -0.4785  0.1821  0.0853
  513SOL    HW2 1676   3.443   2.858   0.899 -0.4865 -0.0599 -0.2989
  514SOL     OW 1677   3.304   1.211   0.177 -0.2063  0.1415  0.5307
  514SOL    HW1 1678   3.286   1.288   0.124 -0.4907 -0.1981  0.1200
  514SOL    HW2 1679   3.388   1.229   0.219  1.0124 -0.3472 -1.5416
  515SOL     OW 1680   1.719   3.647   0.425  0.4541 -0.1113 -0.2445
  515SOL    HW1 1681   1.674   3.569   0.392  1.2093 -1.5354  1.8441
  515SOL    HW2 1682   1.804   3.647   0.381  0.7834 -0.9932  0.3611
  516SOL     OW 1683   0.310   1.096   0.785  0.1726  0.1874  0.1935
  516SOL    HW1 1684   0.254   1.116   0.860 -1.6630  0.5279 -1.1775
  516SOL    HW2 1685   0.390   1.146   0.801  0.7811 -1.4524  2.9437
  517SOL     OW 1686   1.838   2.286   3.547  0.4621 -0.3321  0.0627
  517SOL    HW1 1687   1.891   2.285   3.627 -0.4946  0.7163  0.7459
  517SOL    HW2 1688   1.827   2.378   3.527 -3.3993 -0.3091  1.5697
  518SOL     OW 1689   0.174   3.410   3.124 -0.1958  0.0168 -0.1204
  518SOL    HW1 1690   0.210   3.497   3.105  0.1299 -0.0825  0.0235
  518SOL    HW2 1691   0.107   3.396   3.058  0.6305 -0.1501 -0.9480
  519SOL     OW 1692   1.817   1.528   0.336 -0.6534 -0.4052 -0.1234
  519SOL    HW1 1693   1.832   1.451   0.389 -1.5906 -0.0000  0.7561
  519SOL    HW2 1694   1.742   1.572   0.376 -0.7797  0.4303 -1.1986
  520SOL     OW 1695   1.871   0.483   3.253  0.1672 -0.4690  0.0500
  520SOL    HW1 1696   1.818   0.553   3.291 -0.4191 -0.7312 -0.2770
  520SOL    HW2 1697   1.955   0.524   3.235 -0.3984  0.3451 -0.8155
  521SOL     OW 1698   2.256   2.932   3.224 -0.1817  0.2089  0.2387
  521SOL    HW1 1699   2.225   2.978   3.302 -3.0946 -2.9166  1.1945
  521SOL    HW2 1700   2.196   2.960   3.155  0.1945  0.3470 -0.0367
  522SOL     OW 1701   2.653  -0.004   1.266 -0.3234 -0.7677  0.1702
  522SOL    HW1 1702   2.749  -0.007   1.271 -0.3551 -0.6254  1.0322
  522SOL    HW2 1703   2.635   0.049   1.189  0.3041  0.0668  0.5805
  523SOL     OW 1704   1.024   2.214   0.090  0.8591 -0.5287 -0.4860
  523SOL    HW1 1705   1.059   2.223   0.001  0.8718  1.7970 -0.2984
  523SOL    HW2 1706   0.951   2.152   0.081  0.2343  0.3973 -2.3081
  524SOL     OW 1707   0.395   1.628   2.504  0.3332  0.0060 -0.3615
  524SOL    HW1 1708   0.397   1.533   2.493  0.6766  0.1666 -1.8275
  524SOL    HW2 1709   0.481   1.657   2.474  0.2569  0.7867  0.1450
  525SOL     OW 1710   3.046   3.058   3.354  0.1717 -0.2217  0.1066
  525SOL    HW1 1711   3.114   3.090   3.294  1.1946 -2.3904 -0.0055
  525SOL    HW2 1712   3.052   2.963   3.347 -3.3332 -0.5159 -0.3494
  526SOL     OW 1713   3.716   2.416   0.041  0.3597  0.2127 -0.2024
  526SOL    HW1 1714   3.660   2.435   0.116  0.2595  2.6192 -0.8194
  526SOL    HW2 1715   3.803   2.404   0.079  0.3614  1.6689  0.3146
  527SOL     OW 1716   1.188   0.420   0.490 -0.1493  0.0132  0.0442
  527SOL    HW1 1717   1.114   0.456   0.440 -0.0793 -1.2394 -1.0378
  527SOL    HW2 1718   1.154   0.339   0.528  0.5918 -0.4533 -0.2655
  528SOL     OW 1719   2.465   1.237   0.943 -0.0099  0.4993 -0.8308
  528SOL    HW1 1720   2.426   1.260   1.028 -1.2352  0.5665 -1.3942
  528SOL    HW2 1721   2.450   1.314   0.888  0.7383  0.4369 -1.1339
  529SOL     OW 1722   0.537   2.174   0.122 -0.1034  0.5409 -0.6585
  529SOL    HW1 1723   0.574   2.161   0.210  0.6118 -1.1811 -1.1762
  529SOL    HW2 1724   0.500   2.089   0.099 -2.0972  1.5096 -1.2503
  530SOL     OW 1725   1.741   1.321   1.897  0.2746  0.5172  0.2262
  530SOL    HW1 1726   1.821   1.305   1.847  0.0518 -1.2487  0.3790
  530SOL    HW2 1727   1.751   1.266   1.975 -0.6102  1.1295  0.7893
  531SOL     OW 1728   0.299   2.479   3.367 -0.2010  0.2691 -0.2952
  531SOL    HW1 1729   0.321   2.570   3.388 -1.3612  0.5021 -0.0336
  531SOL    HW2 1730   0.321   2.470   3.274  1.4308  0.3252  0.0529
  532SOL     OW 1731   2.864   3.013   0.995  0.0709  0.5470  0.1599
  532SOL    HW1 1732   2.781   2.991   1.036 -0.2302  0.6425 -0.3866
  532SOL    HW2 1733   2.840   3.063   0.917  0.6778  1.3544  0.4766
  533SOL     OW 1734   0.975   1.556   1.457  0.4588 -0.1615  0.3538
  533SOL    HW1 1735   1.067   1.535   1.444  0.5189 -0.0363  0.5690
  533SOL    HW2 1736   0.930   1.513   1.385  0.6888 -0.2034  0.2343
  534SOL     OW 1737   3.160   2.937   0.805  0.0515  0.0005 -0.0140
  534SOL    HW1 1738   3.184   2.894   0.723  0.9158  0.1141  0.1635
  534SOL    HW2 1739   3.149   2.866   0.868  0.7628 -0.0243  0.0999
  535SOL     OW 1740   2.698   2.708   0.435 -0.3161  0.2796  0.1105
  535SOL    HW1 1741   2.613   2.665   0.433 -0.1341 -0.0692 -0.2589
  535SOL    HW2 1742   2.703   2.746   0.523 -0.5094 -0.3969  0.4228
  536SOL     OW 1743   3.271   1.036   2.693  0.6721  0.3372  0.6905
  536SOL    HW1 1744   3.232   1.078   2.616  0.3865  0.5173  0.9269
  536SOL    HW2 1745   3.349   1.087   2.712  1.9713 -1.0278 -0.7824
  537SOL     OW 1746   3.247   3.410   3.392  0.1626  0.1013  0.0048
  537SOL    HW1 1747   3.231   3.407   3.298 -0.9159  0.3903  0.1606
  537SOL    HW2 1748   3.161   3.395   3.431  0.3965  1.0368  0.9318
  538SOL     OW 1749   3.157   3.440   2.405 -0.1080 -0.2972 -0.6452
  538SOL    HW1 1750   3.203   3.382   2.465  1.6955 -1.5536 -3.0420
  538SOL    HW2 1751   3.120   3.381   2.339 -0.9041  1.0846 -1.4720
  539SOL     OW 1752   1.293   1.219   3.251  0.4127 -0.8566  0.2796
  539SOL    HW1 1753   1.276   1.278   3.178 -1.2832 -1.6790 -0.0224
  539SOL    HW2 1754   1.280   1.274   3.329  0.1826 -0.4956 -0.0067
  540SOL     OW 1755   1.477   1.428   0.333  0.6193  0.2738 -0.1012
  540SOL    HW1 1756   1.544   1.452   0.269  1.4251 -0.6059  0.3912
  540SOL    HW2 1757   1.484   1.333   0.342  0.4610  0.3601  1.2031
  541SOL     OW 1758   2.457   1.501   2.372  0.0811 -0.2250  0.0577
  541SOL    HW1 1759   2.373   1.466   2.343 -0.4778  1.6334 -0.7174
  541SOL    HW2 1760   2.515   1.490   2.296 -0.1867  0.7683 -0.3036
  542SOL     OW 1761   1.576   3.721   1.677 -0.2102  0.2760 -0.7654
  542SOL    HW1 1762   1.653   3.734   1.621 -0.6063  1.6367 -1.0349
  542SOL    HW2 1763   1.523   3.657   1.631  0.3994 -0.0929 -0.9605
  543SOL     OW 1764   2.410   1.946   3.477  0.1534 -0.3965 -0.1215
  543SOL    HW1 1765   2.477   1.956   3.410 -0.8058  0.5811 -0.9801
  543SOL    HW2 1766   2.327   1.949   3.429 -0.5466 -0.1972  1.0522
  544SOL     OW 1767   0.873   2.433   2.035 -0.0256  0.1071 -0.4173
  544SOL    HW1 1768   0.967   2.416   2.042 -0.0454 -1.3529 -2.6788
  544SOL    HW2 1769   0.868   2.522   1.998  0.4593  0.1723 -0.3352
  545SOL     OW 1770   0.110   1.165   0.379 -0.4750  0.0468 -0.0707
  545SOL    HW1 1771   0.085   1.171   0.470 -0.8863 -3.4080  0.1857
  545SOL    HW2 1772   0.206   1.160   0.381 -0.5121 -0.8183  0.3094
  546SOL     OW 1773   0.883   0.138   1.298  0.2227  0.2541 -0.4573
  546SOL    HW1 1774   0.957   0.198   1.300  0.6847 -0.3237  0.6204
  546SOL    HW2 1775   0.806   0.194   1.302  0.6559  0.7830  1.9762
  547SOL     OW 1776   0.539   1.236   0.858 -0.2235 -0.2703  0.3503
  547SOL    HW1 1777   0.536   1.283   0.942  0.5613 -1.2659  0.9499
  547SOL    HW2 1778   0.603   1.284   0.806 -2.4318  1.8389 -0.6590
  548SOL     OW 1779   3.414   1.842   1.749  0.2840 -0.9544 -0.5494
  548SOL    HW1 1780   3.442   1.920   1.797 -0.2929 -0.9194 -0.2703
  548SOL    HW2 1781   3.449   1.854   1.661  0.7063 -0.6652 -0.3419
  549SOL     OW 1782   1.331   1.672   1.149 -0.6928  0.8506 -0.3459
  549SOL    HW1 1783   1.300   1.636   1.232 -0.2709  0.4161 -0.3770
  549SOL    HW2 1784   1.251   1.694   1.101 -1.0420 -1.8134 -1.1201
  550SOL     OW 1785   0.207   1.219   1.584 -0.3515  0.0987  0.1521
  550SOL    HW1 1786   0.216   1.137   1.631 -2.8901 -1.1977 -1.4090
  550SOL    HW2 1787   0.122   1.253   1.610 -0.9891  0.2872 -1.9733
  551SOL     OW 1788   1.969   1.445   0.084 -0.1184  0.3100 -0.6286
  551SOL    HW1 1789   1.897   1.457   0.022 -0.6609 -0.9626 -0.2926
  551SOL    HW2 1790   1.928   1.456   0.170  0.1541 -0.0703 -0.4473
  552SOL     OW 1791   1.307   2.360   3.444  0.5732  0.2971  0.6661
  552SOL    HW1 1792   1.284   2.439   3.493 -1.9629 -1.0208  1.8450
  552SOL    HW2 1793   1.226   2.338   3.397  0.8786 -2.0834  1.1515
  553SOL     OW 1794   1.636   0.839   3.194  0.2168 -0.3312  0.1339
  553SOL    HW1 1795   1.707   0.814   3.253  0.5192  0.1486 -0.0250
  553SOL    HW2 1796   1.672   0.910   3.142 -0.7942  0.7886  0.9110
  554SOL     OW 1797   1.742   0.150   3.677 -0.3200 -0.5791  0.7329
  554SOL    HW1 1798   1.740   0.192   3.591  1.3288 -1.4040  0.2401
  554SOL    HW2 1799   1.707   0.216   3.737 -0.3780  0.4593 -0.3931
  555SOL     OW 1800   2.719   1.961   0.244  0.3793 -1.0102 -0.2720
  555SOL    HW1 1801   2.665   1.973   0.166 -0.1082 -0.5866  0.1261
  555SOL    HW2 1802   2.766   2.044   0.255  1.6307 -1.5985 -0.9941
  556SOL     OW 1803   1.517   3.520   3.587  0.0795 -0.2509 -0.2117
  556SOL    HW1 1804   1.576   3.566   3.646  0.0030  0.0906 -0.4015
  556SOL    HW2 1805   1.447   3.582   3.569 -0.8365 -0.9755  0.7454
  557SOL     OW 1806   1.695   0.278   2.240 -0.1330  0.4498  0.2508
  557SOL    HW1 1807   1.719   0.297   2.149 -1.3216  1.1114  0.0699
  557SOL    HW2 1808   1.742   0.196   2.259 -0.7719 -0.3399 -1.3376
  558SOL     OW 1809   2.754   0.997   2.363  0.0457  0.4652  0.0985
  558SOL    HW1 1810   2.686   0.958   2.310  0.0729 -1.0492  1.1297
  558SOL    HW2 1811   2.792   1.066   2.308 -0.0159 -0.9405 -1.7660
  559SOL     OW 1812   0.313   3.085   2.220  0.5575 -0.1066  0.0246
  559SOL    HW1 1813   0.289   3.171   2.185  0.2925 -0.1727  0.0434
  559SOL    HW2 1814   0.314   3.097   2.315 -0.0474 -0.2692  0.0552
  560SOL     OW 1815   3.734   2.182   2.222  0.5048 -0.1142 -1.3115
  560SOL    HW1 1816   3.788   2.249   2.263 -0.3486 -1.7398  3.0959
  560SOL    HW2 1817   3.664   2.230   2.179  0.6640  1.9064  0.5250
  561SOL     OW 1818   0.179   1.571   3.584 -0.1605  0.2721 -0.1489
  561SOL    HW1 1819   0.154   1.663   3.572 -2.8276 -0.3912 -0.3072
  561SOL    HW2 1820   0.117   1.538   3.649 -0.6623 -1.9230 -1.6423
  562SOL     OW 1821   2.609   3.168   3.634  0.2512  0.1496  0.1770
  562SOL    HW1 1822   2.523   3.135   3.660  0.1822 -0.1478 -0.3885
  562SOL    HW2 1823   2.595   3.201   3.545  0.4814  1.0874  0.4779
  563SOL     OW 1824   1.784   0.299   1.977  0.3013  0.1374 -0.4267
  563SOL    HW1 1825   1.770   0.359   1.905  0.4432  1.8687  0.9303
  563SOL    HW2 1826   1.767   0.212   1.940 -2.5764  1.1702 -1.7962
  564SOL     OW 1827   3.676   2.634   1.256  0.4332  0.1428  0.2237
  564SOL    HW1 1828   3.662   2.614   1.348  2.9060  0.9480  0.8614
  564SOL    HW2 1829   3.610   2.700   1.235  0.4338  0.6724  1.7354
  565SOL     OW 1830   2.506   0.136   0.655  0.3832 -0.0295 -0.9206
  565SOL    HW1 1831   2.411   0.127   0.662  0.5534 -0.3793  1.7284
  565SOL    HW2 1832   2.520   0.228   0.633 -0.5250  0.4895  0.5780
  566SOL     OW 1833   2.921   0.781   0.412  0.4789  0.0565  0.0712
  566SOL    HW1 1834   2.963   0.861   0.442  1.0881 -0.2310 -0.0076
  566SOL    HW2 1835   2.987   0.737   0.359  0.3449 -0.7646  0.5705
  567SOL     OW 1836   3.224   3.103   2.131  0.1232  0.4332 -0.2805
  567SOL    HW1 1837   3.215   3.113   2.226  0.8240 -0.3744 -0.1189
  567SOL    HW2 1838   3.275   3.179   2.104  2.3350 -0.7101  0.4232
  568SOL     OW 1839   0.645   2.169   0.749 -0.0375  0.2297  0.1397
  568SOL    HW1 1840   0.728   2.154   0.794 -0.7625  0.9193  1.8011
  568SOL    HW2 1841   0.652   2.258   0.715 -0.9655  1.2964  2.4828
  569SOL     OW 1842   0.035   1.633   1.491 -0.2242  0.1373  0.6558
  569SOL    HW1 1843   0.112   1.671   1.533  0.8881 -1.8601  0.5758
  569SOL    HW2 1844   0.036   1.670   1.402  0.3275  0.5524  0.8258
  570SOL     OW 1845   1.258   0.951   2.164 -0.6938  0.3304 -0.4961
  570SOL    HW1 1846   1.211   0.973   2.084 -1.0515 -2.6409 -1.2445
  570SOL    HW2 1847   1.190   0.923   2.225 -0.5456  3.5667  1.3801
  571SOL     OW 1848   1.572   0.312   1.016  0.0219  0.0912  0.2444
  571SOL    HW1 1849   1.667   0.313   1.027  0.2534 -2.0497 -0.9472
  571SOL    HW2 1850   1.557   0.248   0.946 -2.3236  0.1500  0.6187
  572SOL     OW 1851   1.130   0.437   3.494 -0.1630  0.0347 -0.4121
  572SOL    HW1 1852   1.070   0.450   3.567 -0.1956 -2.0141 -0.0117
  572SOL    HW2 1853   1.075   0.437   3.416 -0.8103 -2.2081 -0.0171
  573SOL     OW 1854   2.203   2.862   1.947 -0.3643  0.4387 -0.2684
  573SOL    HW1 1855   2.228   2.881   2.037 -0.2322  0.9546 -0.4086
  573SOL    HW2 1856   2.274   2.899   1.894 -1.8015  2.7662 -0.7191
  574SOL     OW 1857   0.964   2.752   2.384 -0.7711  0.2077  0.1098
  574SOL    HW1 1858   0.933   2.770   2.472 -0.6550  1.2834 -0.0536
  574SOL    HW2 1859   0.921   2.670   2.358 -1.1616  0.1375  0.9767
  575SOL     OW 1860   1.185   1.265   2.145 -0.7412  0.2949 -0.2315
  575SOL    HW1 1861   1.166   1.219   2.063 -1.0916  0.9235 -0.5090
  575SOL    HW2 1862   1.278   1.287   2.139  0.0411 -2.3347  0.9000
  576SOL     OW 1863   2.908   0.757   3.406  0.0851  0.1803 -0.0676
  576SOL    HW1 1864   2.883   0.849   3.393 -2.6434 -0.4891 -0.0685
  576SOL    HW2 1865   2.861   0.709   3.338  2.0587 -1.1938 -0.5459
  577SOL     OW 1866   1.849   1.643   0.680  0.3764  0.0795  0.2697
  577SOL    HW1 1867   1.861   1.549   0.664 -0.6688 -0.0275  0.0104
  577SOL    HW2 1868   1.893   1.659   0.763  1.4244 -0.4344 -0.1714
  578SOL     OW 1869   0.439   1.613   0.119 -0.2684 -0.1396 -0.2121
  578SOL    HW1 1870   0.492   1.618   0.039 -1.5667 -1.2846 -1.1922
  578SOL    HW2 1871   0.386   1.692   0.119  0.5233  0.4072  0.1288
  579SOL     OW 1872   2.692   2.247   0.194  0.0511  0.2910  0.1455
  579SOL    HW1 1873   2.663   2.192   0.121  0.4992  1.1113 -0.6709
  579SOL    HW2 1874   2.681   2.337   0.162  2.6733  0.6580  0.0912
  580SOL     OW 1875   2.202   3.613   3.676 -0.2879 -0.4057 -0.5867
  580SOL    HW1 1876   2.116   3.653   3.687 -0.4191 -0.8110 -0.1282
  580SOL    HW2 1877   2.246   3.668   3.611 -0.3281  0.6846  0.2876
  581SOL     OW 1878   1.744   1.414   1.277 -0.1530  0.1346  0.1244
  581SOL    HW1 1879   1.782   1.331   1.308 -1.7737 -0.8232 -0.3641
  581SOL    HW2 1880   1.664   1.388   1.231 -0.5136  1.9595 -0.3336
  582SOL     OW 1881   1.456   0.515   2.422  0.5117 -0.0036 -0.1932
  582SOL    HW1 1882   1.375   0.464   2.420  0.4338  0.1471 -1.5553
  582SOL    HW2 1883   1.495   0.494   2.507 -0.6934 -0.4718  0.2687
  583SOL     OW 1884   3.120   1.467   0.306  0.1122 -0.1158 -0.4497
  583SOL    HW1 1885   3.173   1.424   0.239 -0.8667 -1.7087 -0.2639
  583SOL    HW2 1886   3.139   1.560   0.297 -0.1470 -0.2629 -3.0675
  584SOL     OW 1887   2.801   0.610   0.568 -0.2843 -0.7876  0.3672
  584SOL    HW1 1888   2.722   0.649   0.606 -0.2259 -0.8885  0.5893
  584SOL    HW2 1889   2.833   0.677   0.507  0.9560  0.3874  2.2203
  585SOL     OW 1890   0.247   3.112   1.276  0.5409  0.1840 -1.1529
  585SOL    HW1 1891   0.213   3.175   1.213 -1.6451 -0.5472 -0.7905
  585SOL    HW2 1892   0.171   3.085   1.327  1.8383 -0.9459  0.3164
  586SOL     OW 1893   3.406   0.325   0.306 -0.1120 -0.0087  0.5770
  586SOL    HW1 1894   3.313   0.317   0.286  0.3098 -0.5876 -1.3750
  586SOL    HW2 1895   3.442   0.239   0.285  1.3681  1.1231 -1.9039
  587SOL     OW 1896   1.659   2.510   2.415 -0.4938 -0.1375  0.0420
  587SOL    HW1 1897   1.740   2.560   2.427 -0.6913  0.0316  0.7453
  587SOL    HW2 1898   1.599   2.547   2.480 -1.7224  0.9606 -1.6241
  588SOL     OW 1899   0.321   0.681   2.808  0.1935 -0.7898 -0.8391
  588SOL    HW1 1900   0.410   0.712   2.821  0.5624 -2.3392  0.7069
  588SOL    HW2 1901   0.316   0.662   2.714  1.3089 -0.1632 -1.0403
  589SOL     OW 1902   1.721   3.277   0.236 -0.0265 -0.1787  0.4921
  589SOL    HW1 1903   1.648   3.252   0.180  1.1246 -0.5620 -0.8829
  589SOL    HW2 1904   1.775   3.335   0.182  1.1596 -0.6133  1.1684
  590SOL     OW 1905   0.879   2.149   1.974 -0.1587 -0.1103 -0.1074
  590SOL    HW1 1906   0.862   2.153   1.880  0.3760  0.1484 -0.1986
  590SOL    HW2 1907   0.870   2.240   2.003 -0.3459 -0.1933  0.0994
  591SOL     OW 1908   2.971   0.069   2.239  0.3496 -0.4902  0.1871
  591SOL    HW1 1909   2.996   0.064   2.331 -1.3458 -0.9644  0.6730
  591SOL    HW2 1910   3.035   0.015   2.193  0.8357 -0.7807  1.1850
  592SOL     OW 1911   0.820   1.747   0.308 -0.1588  0.0242 -0.0837
  592SOL    HW1 1912   0.855   1.669   0.351  0.9060  0.1380 -0.7289
  592SOL    HW2 1913   0.826   1.729   0.215  2.2316  1.7217 -0.3530
  593SOL     OW 1914   0.814   3.392   2.029 -0.0153  0.2647  0.5513
  593SOL    HW1 1915   0.791   3.401   1.936 -0.8764  1.3530  0.8467
  593SOL    HW2 1916   0.738   3.349   2.068  0.4229 -0.3615  0.7272
  594SOL     OW 1917   1.372   3.032   1.320 -0.0310 -0.8321 -0.0128
  594SOL    HW1 1918   1.447   3.049   1.264  0.0813 -2.0169 -0.2446
  594SOL    HW2 1919   1.341   3.119   1.346 -0.5985 -0.1759 -2.5529
  595SOL     OW 1920   1.302   2.300   0.083 -0.9700  0.3570 -0.0004
  595SOL    HW1 1921   1.238   2.244   0.040  0.1331 -2.4435  1.7440
  595SOL    HW2 1922   1.261   2.325   0.165 -0.1179 -0.9533  0.8537
  596SOL     OW 1923   3.641   3.028   2.965 -0.0338  0.2672 -0.3994
  596SOL    HW1 1924   3.605   2.961   3.024 -2.5927 -0.0324 -2.1026
  596SOL    HW2 1925   3.726   2.994   2.939 -1.1594 -2.3230 -1.0406
  597SOL     OW 1926   3.004   2.493   0.953 -0.3265  0.5837 -0.3531
  597SOL    HW1 1927   3.018   2.559   0.885  0.9425 -0.6864 -1.3688
  597SOL    HW2 1928   2.938   2.434   0.917  1.3653 -0.9034 -1.1551
  598SOL     OW 1929   1.437   1.315   2.131  0.5563  0.3163 -0.0815
  598SOL    HW1 1930   1.437   1.268   2.047  1.4800 -0.7111  0.4650
  598SOL    HW2 1931   1.519   1.363   2.131  0.8933 -0.2492  0.5235
  599SOL     OW 1932   2.706   3.096   1.551  0.1295 -0.0043 -0.2671
  599SOL    HW1 1933   2.794   3.105   1.516 -0.6757 -1.3287 -2.8680
  599SOL    HW2 1934   2.713   3.021   1.611  0.8022  0.0053 -0.3184
  600SOL     OW 1935   2.502   1.519   1.086  0.6554 -0.6469 -0.0925
  600SOL    HW1 1936   2.582   1.560   1.053  0.1828  0.6832  0.3610
  600SOL    HW2 1937   2.431   1.559   1.035  0.0166  0.5716  1.6780
  601SOL     OW 1938   3.248   3.584   0.637 -0.3246 -0.1147  0.4503
  601SOL    HW1 1939   3.197   3.525   0.581 -0.3025  0.4326 -0.1555
  601SOL    HW2 1940   3.267   3.532   0.715 -1.4926 -0.4563  0.5327
  602SOL     OW 1941   3.692   1.805   0.245 -0.3618  0.1525 -0.5752
  602SOL    HW1 1942   3.733   1.888   0.219 -0.2419  0.5255  0.7468
  602SOL    HW2 1943   3.618   1.796   0.185 -0.6559  1.4677 -0.4526
  603SOL     OW 1944   2.537   1.121   1.454 -0.2526  0.8047  0.2918
  603SOL    HW1 1945   2.586   1.189   1.408 -1.5461  1.9176  0.5102
  603SOL    HW2 1946   2.448   1.131   1.422 -0.8187  0.4165  1.7248
  604SOL     OW 1947   3.196   3.072   3.594  1.0513 -0.3129  0.1349
  604SOL    HW1 1948   3.133   3.064   3.521  0.4030 -1.6334  0.8153
  604SOL    HW2 1949   3.217   3.166   3.595 -3.3864  0.9628  1.8683
  605SOL     OW 1950   0.352   2.029   0.550  0.5377  0.3958  0.3196
  605SOL    HW1 1951   0.431   1.975   0.539 -0.8112 -1.2697 -2.1091
  605SOL    HW2 1952   0.304   1.986   0.621  0.0004 -1.0252 -0.8561
  606SOL     OW 1953   3.484   3.711   3.082  0.0851  0.3167  0.3489
  606SOL    HW1 1954   3.464   3.690   2.990  0.2214  1.0797  0.1381
  606SOL    HW2 1955   3.509   3.627   3.120  1.4865  0.2222 -0.6966
  607SOL     OW 1956   0.003   2.307   0.574 -0.6226  0.1259 -0.0077
  607SOL    HW1 1957   0.094   2.279   0.562 -0.7995 -0.0838 -0.9388
  607SOL    HW2 1958  -0.006   2.321   0.669  0.3783  0.1639  0.0895
  608SOL     OW 1959   1.327   3.307   1.748  0.0135  0.2592 -0.2460
  608SOL    HW1 1960   1.235   3.282   1.740 -0.4022  1.7265 -0.4284
  608SOL    HW2 1961   1.353   3.279   1.835 -1.2171  1.6107  0.5993
  609SOL     OW 1962   1.668   3.607   3.290  0.1195  0.0172  0.2514
  609SOL    HW1 1963   1.726   3.679   3.314  0.3203  0.8070 -2.2737
  609SOL    HW2 1964   1.583   3.649   3.276  0.0963 -0.2961 -0.6441
  610SOL     OW 1965   0.035   0.896   1.100  1.0344 -0.5948 -0.1841
  610SOL    HW1 1966  -0.013   0.838   1.040 -0.7481  1.1688 -0.5917
  610SOL    HW2 1967   0.076   0.961   1.043 -0.8040  1.1977  0.3962
  611SOL     OW 1968   3.434   3.316   3.149 -0.1432 -0.5210  1.2743
  611SOL    HW1 1969   3.478   3.379   3.206 -1.4659  0.2396  1.4748
  611SOL    HW2 1970   3.480   3.323   3.065  1.4489 -1.2407  2.0513
  612SOL     OW 1971   1.367   1.611   0.519 -1.4980 -0.1532  0.6696
  612SOL    HW1 1972   1.405   1.576   0.599 -2.7573 -0.9698  0.9371
  612SOL    HW2 1973   1.386   1.545   0.452 -1.4440 -0.0142  0.5468
  613SOL     OW 1974   1.214   2.705   3.005  0.8668  0.5412  0.3988
  613SOL    HW1 1975   1.147   2.636   3.007  0.4023  0.9953  0.9901
  613SOL    HW2 1976   1.257   2.699   3.091 -0.4032  2.1516  1.2067
  614SOL     OW 1977   1.920   2.897   2.675  0.7235 -0.4116 -0.3057
  614SOL    HW1 1978   1.887   2.870   2.760 -1.5466  0.0063 -0.9879
  614SOL    HW2 1979   2.004   2.939   2.694  0.1189 -0.0439  1.7473
  615SOL     OW 1980   2.308   0.275   2.973  0.0853  0.7076  0.1771
  615SOL    HW1 1981   2.278   0.221   3.046  0.0317  2.1385  1.2596
  615SOL    HW2 1982   2.382   0.227   2.935 -2.0639 -1.7891 -1.1297
  616SOL     OW 1983   2.396   3.585   2.898 -0.0435 -0.0814 -0.1775
  616SOL    HW1 1984   2.305   3.557   2.904  0.1451 -1.0725 -1.3766
  616SOL    HW2 1985   2.441   3.511   2.855  0.8914  1.2287 -1.5712
  617SOL     OW 1986   0.658   2.436   0.636 -0.5349 -0.6310 -0.3390
  617SOL    HW1 1987   0.641   2.464   0.546  0.2016  0.5411 -0.1256
  617SOL    HW2 1988   0.676   2.517   0.683  0.8917 -1.3947  0.4729
  618SOL     OW 1989   1.486   2.714   0.920  0.7279  0.6097  0.1791
  618SOL    HW1 1990   1.507   2.804   0.942  3.0125  0.4438 -1.0350
  618SOL    HW2 1991   1.526   2.662   0.990  2.4059  0.4186 -0.8649
  619SOL     OW 1992   3.302   3.348   2.025  0.4597  0.1034  0.0740
  619SOL    HW1 1993   3.220   3.313   1.990  1.9065 -2.7937 -0.7486
  619SOL    HW2 1994   3.323   3.423   1.969 -1.5693  0.8751  0.2932
  620SOL     OW 1995   0.377   1.886   0.823  0.0979 -0.0563 -0.8617
  620SOL    HW1 1996   0.347   1.806   0.780  1.8336 -0.2183 -1.8546
  620SOL    HW2 1997   0.298   1.941   0.828 -1.3381 -2.1036  0.6281
  621SOL     OW 1998   2.498   2.417   3.357  0.2262 -0.0370  0.5972
  621SOL    HW1 1999   2.532   2.489   3.410 -2.6791  1.5142  0.5477
  621SOL    HW2 2000   2.426   2.456   3.306  0.2840 -2.3796 -1.4936
  622SOL     OW 2001   3.032   0.403   2.190  0.2864 -0.3998 -0.4249
  622SOL    HW1 2002   2.964   0.432   2.250  0.7157 -1.9326  0.8882
  622SOL    HW2 2003   2.986   0.382   2.109 -0.9964 -2.2568  0.7163
  623SOL     OW 2004   1.508   0.683   2.802 -0.4770  0.5007  0.0472
  623SOL    HW1 2005   1.485   0.676   2.895  2.2789 -0.4926  0.7604
  623SOL    HW2 2006   1.539   0.773   2.792 -0.1529  0.4147  0.2642
  624SOL     OW 2007   0.557   0.299   0.557  0.2024 -0.4888  0.2958
  624SOL    HW1 2008   0.621   0.256   0.500  1.2536  0.1250  0.9718
  624SOL    HW2 2009   0.574   0.262   0.643  0.2966  0.3664  0.6548
  625SOL     OW 2010   3.109   0.509   3.146  0.2756 -0.0939 -0.4689
  625SOL    HW1 2011   3.114   0.416   3.169  1.2916 -0.3418 -1.5966
  625SOL    HW2 2012   3.019   0.534   3.167 -0.0654 -1.3835 -0.3384
  626SOL     OW 2013   1.005   1.491   1.011  0.7181 -0.4569 -0.3783
  626SOL    HW1 2014   1.072   1.558   1.021 -1.0542  1.2763  0.5907
  626SOL    HW2 2015   0.959   1.515   0.931 -0.0665 -0.3788  0.0876
  627SOL     OW 2016   0.305   2.140   1.427 -0.7176 -0.1313 -0.2290
  627SOL    HW1 2017   0.210   2.154   1.419 -0.3908  1.9110 -1.1752
  627SOL    HW2 2018   0.315   2.045   1.425 -2.5608 -0.3844 -2.6954
  628SOL     OW 2019   1.755   1.887   3.613 -0.4667 -0.0204 -0.2949
  628SOL    HW1 2020   1.682   1.826   3.600 -0.5489  0.1459 -0.6354
  628SOL    HW2 2021   1.821   1.836   3.659 -1.1469  0.0753  0.8216
  629SOL     OW 2022   3.656   3.546   0.298 -0.6385  0.1575 -0.2402
  629SOL    HW1 2023   3.728   3.540   0.236 -0.5625  1.5434 -0.3128
  629SOL    HW2 2024   3.578   3.556   0.244 -0.5517  1.5492 -0.1304
  630SOL     OW 2025   1.112   1.093   1.953 -0.5162  0.0853  0.0208
  630SOL    HW1 2026   1.040   1.036   1.925 -0.3451 -0.6662  1.0901
  630SOL    HW2 2027   1.143   1.133   1.871 -1.2825 -0.5889 -0.6202
  631SOL     OW 2028   1.101   0.366   2.712 -0.0646 -0.3115 -0.4819
  631SOL    HW1 2029   1.016   0.410   2.699 -0.3759 -0.4806  0.8065
  631SOL    HW2 2030   1.166   0.432   2.686 -0.5738 -0.1367 -1.3693
  632SOL     OW 2031   0.986   1.193   2.320 -0.1642 -0.4554  0.0123
  632SOL    HW1 2032   1.073   1.186   2.279  1.7995  1.7168  3.3359
  632SOL    HW2 2033   0.960   1.284   2.306 -1.2017 -0.6779  0.3850
  633SOL     OW 2034   2.094   2.679   2.929 -0.1783  0.2632  0.1721
  633SOL    HW1 2035   2.071   2.730   3.007 -1.4125 -0.9259  0.6491
  633SOL    HW2 2036   2.037   2.602   2.935 -0.5496  0.3012 -2.0896
  634SOL     OW 2037   0.459   2.885   2.063  0.3703  0.0840  0.3262
  634SOL    HW1 2038   0.528   2.942   2.028  0.5669  0.3925  1.1786
  634SOL    HW2 2039   0.419   2.937   2.133  0.4636 -0.7768  1.0238
  635SOL     OW 2040   2.070   0.440   2.005  0.1656 -0.2956 -0.3993
  635SOL    HW1 2041   2.154   0.474   1.975 -0.4528  0.1294 -1.7450
  635SOL    HW2 2042   2.036   0.390   1.930  0.1868 -2.3476  0.8639
  636SOL     OW 2043   0.660   1.628   0.543  0.4066 -0.5329  0.4334
  636SOL    HW1 2044   0.648   1.601   0.452 -1.0584 -0.9345  0.7204
  636SOL    HW2 2045   0.578   1.673   0.566  1.0146  0.1446  1.3554
  637SOL     OW 2046   3.092   2.770   3.368  0.4833  0.9043 -0.4206
  637SOL    HW1 2047   3.045   2.742   3.290  1.3389 -0.4759 -0.4785
  637SOL    HW2 2048   3.184   2.755   3.346  0.7261  0.3117  0.9045
  638SOL     OW 2049   1.378   1.639   3.424  0.4077 -0.8113 -0.0831
  638SOL    HW1 2050   1.453   1.685   3.387  0.2023 -1.2081 -1.0343
  638SOL    HW2 2051   1.325   1.615   3.348 -1.1526  0.2547  0.6083
  639SOL     OW 2052   2.252   0.810   3.325  0.8356 -0.8340  0.1231
  639SOL    HW1 2053   2.186   0.872   3.294  0.9391 -1.2241 -0.9272
  639SOL    HW2 2054   2.201   0.746   3.376  0.5929 -0.4342  0.3889
  640SOL     OW 2055   0.632   2.590   1.876 -0.3875  0.6746 -0.5446
  640SOL    HW1 2056   0.687   2.622   1.805 -2.0712  1.7732 -1.4244
  640SOL    HW2 2057   0.562   2.542   1.831 -0.0063 -0.9854  0.5569
  641SOL     OW 2058   1.488   2.686   2.558  0.1165 -0.1315 -0.4390
  641SOL    HW1 2059   1.499   2.774   2.522 -0.4079  0.2058  0.2079
  641SOL    HW2 2060   1.408   2.653   2.517 -0.1496  0.0208 -0.0451
  642SOL     OW 2061   2.018   3.560   3.321 -0.0908 -0.1424  0.5706
  642SOL    HW1 2062   2.010   3.478   3.370 -0.9658  0.2858  1.1768
  642SOL    HW2 2063   1.957   3.620   3.365  2.3146  1.5988  1.7179
  643SOL     OW 2064   2.476   0.610   0.340 -0.4367  0.0763 -0.1381
  643SOL    HW1 2065   2.539   0.678   0.315 -0.2677  0.0247  0.1382
  643SOL    HW2 2066   2.390   0.648   0.322 -0.3208 -0.0044 -0.9106
  644SOL     OW 2067   3.483   2.337   1.019  0.4111 -0.7005 -0.3313
  644SOL    HW1 2068   3.486   2.428   0.989  2.7696 -0.3887  0.6842
  644SOL    HW2 2069   3.389   2.319   1.030 -0.3654  0.4830 -3.7087
  645SOL     OW 2070   0.394   0.309   2.403  0.5063 -0.5339 -0.1659
  645SOL    HW1 2071   0.334   0.360   2.349 -0.4694 -2.0274 -0.5468
  645SOL    HW2 2072   0.463   0.372   2.428 -1.1952  1.2549  0.3316
  646SOL     OW 2073   1.333   1.255   1.337  0.2967 -0.6681  0.4943
  646SOL    HW1 2074   1.342   1.244   1.242 -0.3756 -1.3908  0.5087
  646SOL    HW2 2075   1.419   1.232   1.372  0.1354 -1.8272  0.1685
  647SOL     OW 2076   1.710   1.264   3.475  0.1255  0.0678  0.4199
  647SOL    HW1 2077   1.777   1.309   3.424 -1.0179  0.9352 -0.3530
  647SOL    HW2 2078   1.641   1.329   3.488 -0.3396 -0.6328  1.6853
  648SOL     OW 2079   2.875   0.339   2.876  0.0248 -0.6495 -0.3236
  648SOL    HW1 2080   2.883   0.414   2.817  0.2389  0.2583  0.8133
  648SOL    HW2 2081   2.960   0.295   2.870 -0.2882 -1.1341 -1.4035
  649SOL     OW 2082   2.072   0.588   1.276 -0.3339 -0.4924 -0.3813
  649SOL    HW1 2083   2.055   0.600   1.182 -2.1303 -1.3536 -0.2046
  649SOL    HW2 2084   1.992   0.616   1.319 -0.4116 -2.2315  0.7265
  650SOL     OW 2085   3.069   1.035   3.674  0.3252 -0.0792  0.2598
  650SOL    HW1 2086   2.980   1.000   3.663 -1.4586  2.6489  3.8921
  650SOL    HW2 2087   3.066   1.121   3.632  1.0597  0.2461  0.8545
  651SOL     OW 2088   0.990   0.247   2.962  0.7074 -0.2687  0.4035
  651SOL    HW1 2089   1.028   0.246   2.874 -0.2474 -0.2029 -0.0160
  651SOL    HW2 2090   1.023   0.329   3.001 -0.4112  0.6974 -0.5997
  652SOL     OW 2091   2.998   0.163   2.615  0.2151  0.1380 -0.4669
  652SOL    HW1 2092   3.079   0.169   2.563 -0.3829  0.0166 -1.4274
  652SOL    HW2 2093   2.968   0.073   2.601  0.9922 -0.5068  1.5601
  653SOL     OW 2094   0.364   0.084   3.424 -0.3242  0.4369  0.3379
  653SOL    HW1 2095   0.286   0.038   3.454 -0.8002  0.8861 -0.1893
  653SOL    HW2 2096   0.331   0.166   3.386  0.4102  0.6977  0.2409
  654SOL     OW 2097   2.351   2.255   1.314  0.2987  0.6037 -0.1568
  654SOL    HW1 2098   2.257   2.268   1.321  0.2370  0.1093 -0.0091
  654SOL    HW2 2099   2.376   2.216   1.398  0.8294  1.7834  0.2622
  655SOL     OW 2100   1.028   2.220   3.569 -0.6890  0.4373  0.1154
  655SOL    HW1 2101   1.030   2.126   3.585 -0.9962  0.4747  0.3909
  655SOL    HW2 2102   1.038   2.229   3.474 -0.3935  0.1396  0.1189
  656SOL     OW 2103   0.182   1.380   3.353 -0.4886  0.1093 -0.2741
  656SOL    HW1 2104   0.145   1.304   3.398  0.3814  0.4234  1.0349
  656SOL    HW2 2105   0.233   1.425   3.421  2.0637 -0.1615 -1.8612
  657SOL     OW 2106   2.688   0.317   2.119  0.0451  0.0647  0.0996
  657SOL    HW1 2107   2.673   0.400   2.073 -2.3689 -0.3566 -0.0007
  657SOL    HW2 2108   2.749   0.270   2.063 -0.1226  0.9704 -0.8870
  658SOL     OW 2109   2.814   2.050   0.710  0.0419  0.0733  0.2267
  658SOL    HW1 2110   2.780   1.964   0.736 -0.7398  0.0581 -0.7821
  658SOL    HW2 2111   2.875   2.074   0.780  0.1829 -1.2487  0.5787
  659SOL     OW 2112   1.959   1.368   0.521 -0.8003 -0.2598  0.0788
  659SOL    HW1 2113   2.018   1.353   0.595 -1.2607 -0.9327  0.3127
  659SOL    HW2 2114   2.017   1.394   0.449 -0.2726 -0.3696  0.4576
  660SOL     OW 2115   3.487   1.552   0.250  0.2367 -0.1159 -0.7661
  660SOL    HW1 2116   3.541   1.549   0.171 -1.0455 -1.7207 -1.6262
  660SOL    HW2 2117   3.412   1.606   0.226 -0.8146 -1.6893 -1.1098
  661SOL     OW 2118   2.299   3.563   1.263 -0.6813 -0.5852  0.3516
  661SOL    HW1 2119   2.341   3.549   1.178 -1.7474 -1.2119 -0.0836
  661SOL    HW2 2120   2.321   3.486   1.314 -1.0197 -0.7584  0.2376
  662SOL     OW 2121   1.540   1.579   2.818 -0.0270  1.1533  0.2032
  662SOL    HW1 2122   1.523   1.487   2.801  1.1836  0.8453  0.5643
  662SOL    HW2 2123   1.588   1.610   2.741 -0.8581  1.6343 -0.1473
  663SOL     OW 2124   3.660   1.364   3.217 -0.1358 -0.4314 -0.6831
  663SOL    HW1 2125   3.702   1.410   3.289 -3.1986 -0.0662  1.0610
  663SOL    HW2 2126   3.663   1.272   3.242 -0.2436 -0.4211 -0.6323
  664SOL     OW 2127   0.127   1.846   1.642 -0.1725  0.3351  0.2105
  664SOL    HW1 2128   0.150   1.913   1.707 -1.7696  2.4150 -1.2080
  664SOL    HW2 2129   0.198   1.852   1.577 -0.8843  1.5745 -0.5035
  665SOL     OW 2130   0.626   1.712   1.331 -0.2414  0.2798  0.2190
  665SOL    HW1 2131   0.614   1.619   1.352 -1.4790 -0.0537 -1.6540
  665SOL    HW2 2132   0.716   1.717   1.299 -0.9053 -0.9007 -2.1427
  666SOL     OW 2133   1.387   1.899   1.629  0.0215 -0.4973  0.0419
  666SOL    HW1 2134   1.463   1.956   1.620  1.5758 -2.3497  0.6042
  666SOL    HW2 2135   1.417   1.829   1.687 -2.4722 -0.7473  1.1582
  667SOL     OW 2136   3.712   0.248   0.361  0.1345 -0.9619 -0.8094
  667SOL    HW1 2137   3.725   0.226   0.453 -0.3333 -2.1912 -1.0203
  667SOL    HW2 2138   3.641   0.190   0.332 -0.3440  0.0342 -1.7135
  668SOL     OW 2139   2.678   2.300   2.629  0.4478  0.2344 -0.6033
  668SOL    HW1 2140   2.636   2.286   2.713 -3.5173 -3.0476 -2.7334
  668SOL    HW2 2141   2.631   2.374   2.590  3.1977  2.6736  0.3768
  669SOL     OW 2142   2.889   1.850   1.151 -0.5685 -0.0886  0.2827
  669SOL    HW1 2143   2.895   1.863   1.246 -1.0426  1.2112  0.1495
  669SOL    HW2 2144   2.911   1.935   1.114 -1.7693 -0.1941 -0.7349
  670SOL     OW 2145   3.241   0.887   3.257  0.9008 -0.1759 -0.1822
  670SOL    HW1 2146   3.253   0.931   3.341  2.1245 -0.1085 -0.3817
  670SOL    HW2 2147   3.294   0.938   3.196 -0.1064 -0.1201 -1.0503
  671SOL     OW 2148   0.493   0.076   0.326  0.1397  0.4978 -0.1295
  671SOL    HW1 2149   0.418   0.115   0.282 -0.1155  0.9154  0.6568
  671SOL    HW2 2150   0.562   0.143   0.321  0.1880  0.4502 -0.1050
  672SOL     OW 2151   1.575   1.158   1.450 -0.0319  0.3818  0.0917
  672SOL    HW1 2152   1.636   1.085   1.462 -0.0744  0.4196  0.5401
  672SOL    HW2 2153   1.597   1.219   1.520 -1.3493 -0.1297  0.9846
  673SOL     OW 2154   0.861   2.130   1.327  0.4961  0.1934 -0.2657
  673SOL    HW1 2155   0.769   2.118   1.305  0.8530  0.3458 -1.9410
  673SOL    HW2 2156   0.891   2.043   1.353  0.6922 -0.6468 -3.0435
  674SOL     OW 2157   2.892   2.437   3.539  0.0406 -0.3619 -0.0914
  674SOL    HW1 2158   2.923   2.361   3.588  0.3979 -1.2110 -1.5755
  674SOL    HW2 2159   2.965   2.498   3.540  0.7179 -1.1275 -1.0679
  675SOL     OW 2160   2.107   1.925   2.517  0.2706 -0.6939  0.0774
  675SOL    HW1 2161   2.140   1.907   2.430 -0.7692  1.3578 -0.8169
  675SOL    HW2 2162   2.022   1.881   2.520  0.1310 -0.4453 -0.1194
  676SOL     OW 2163   1.679   2.349   2.948  0.4037  0.7131 -0.0132
  676SOL    HW1 2164   1.599   2.401   2.935 -0.4494 -0.1815  1.3264
  676SOL    HW2 2165   1.659   2.294   3.025  2.4013  0.6319  0.4919
  677SOL     OW 2166   2.505   2.339   1.754  0.3035  0.8359 -0.1253
  677SOL    HW1 2167   2.434   2.402   1.766 -0.2987  0.5164 -1.6923
  677SOL    HW2 2168   2.506   2.288   1.835 -0.7535  1.3417  0.2309
  678SOL     OW 2169   2.673   3.337   3.292  0.4508  0.2533  0.4904
  678SOL    HW1 2170   2.749   3.299   3.249  0.9132  1.6982 -0.0296
  678SOL    HW2 2171   2.709   3.407   3.346 -0.5699  1.5898 -0.5046
  679SOL     OW 2172   2.765   1.978   3.249  0.2082  0.3189  0.4001
  679SOL    HW1 2173   2.722   2.031   3.317  0.5922  2.3229 -0.8365
  679SOL    HW2 2174   2.702   1.908   3.230 -1.7049  2.0702  0.0023
  680SOL     OW 2175   2.031   2.876   1.213 -0.4740  0.5678  0.4887
  680SOL    HW1 2176   2.014   2.962   1.174 -2.6586 -0.2149 -0.4544
  680SOL    HW2 2177   2.123   2.879   1.238  0.0704  2.4570 -1.3969
  681SOL     OW 2178   1.107   2.267   1.310  0.0958 -0.4359  0.3830
  681SOL    HW1 2179   1.020   2.236   1.285  0.4544 -2.2034  1.1306
  681SOL    HW2 2180   1.137   2.202   1.374  1.2151  1.1651  1.5434
  682SOL     OW 2181   2.739   1.289   0.642 -0.0530 -0.3376 -0.2212
  682SOL    HW1 2182   2.646   1.282   0.620 -0.8698 -0.0667  2.6952
  682SOL    HW2 2183   2.761   1.381   0.626 -0.7505 -0.0257  0.5491
  683SOL     OW 2184   3.574   1.736   0.487  0.1221 -0.1797 -0.6606
  683SOL    HW1 2185   3.624   1.750   0.407 -0.6035  0.1121 -1.0670
  683SOL    HW2 2186   3.520   1.659   0.469 -1.0425  0.6843 -0.9570
  684SOL     OW 2187   2.593   0.637   2.967 -0.1988 -0.3033  0.4446
  684SOL    HW1 2188   2.522   0.671   3.022  1.0881  1.5097  1.0822
  684SOL    HW2 2189   2.595   0.696   2.892 -2.1169 -2.9089 -1.8621
  685SOL     OW 2190   2.729   3.347   2.048 -0.5418  0.3313 -0.2362
  685SOL    HW1 2191   2.690   3.422   2.004  0.8877  0.5485 -1.1787
  685SOL    HW2 2192   2.821   3.369   2.058  0.0114 -1.4587 -0.9393
  686SOL     OW 2193   1.034   3.453   2.426 -0.1951  0.3791  0.6815
  686SOL    HW1 2194   1.003   3.543   2.419  0.0603  0.3384 -1.5779
  686SOL    HW2 2195   0.968   3.409   2.478 -2.1150  1.1009 -1.0335
  687SOL     OW 2196   1.929   1.358   2.709 -0.2781 -0.4626 -0.4506
  687SOL    HW1 2197   1.865   1.379   2.641 -0.6469 -1.2977 -0.3769
  687SOL    HW2 2198   1.992   1.300   2.667 -0.4337 -0.8750 -0.1289
  688SOL     OW 2199   0.208   3.710   0.423  0.1767 -0.1669  0.1409
  688SOL    HW1 2200   0.289   3.754   0.398 -1.2253  2.1992 -0.5227
  688SOL    HW2 2201   0.166   3.688   0.340 -0.6354  0.1541  0.4609
  689SOL     OW 2202   0.721   3.344   1.762  0.4613  0.0963 -0.1408
  689SOL    HW1 2203   0.653   3.411   1.751  0.4209  0.0645 -0.0837
  689SOL    HW2 2204   0.681   3.264   1.729  0.8199  0.2785 -1.0514
  690SOL     OW 2205   3.669   1.064   1.955  0.1400 -0.0763  0.1015
  690SOL    HW1 2206   3.625   0.984   1.984 -2.1773  1.1314  0.0981
  690SOL    HW2 2207   3.640   1.132   2.017  0.8791  1.0803 -0.7714
  691SOL     OW 2208   2.831   2.766   2.844 -0.1162  0.4508 -0.3920
  691SOL    HW1 2209   2.748   2.741   2.886  0.2387 -0.3395 -0.1310
  691SOL    HW2 2210   2.857   2.687   2.796  1.2008  0.1993  0.6945
  692SOL     OW 2211   2.906   1.637   2.152 -0.3151  0.0663 -0.3353
  692SOL    HW1 2212   2.922   1.678   2.067  2.5951  1.5274  0.7942
  692SOL    HW2 2213   2.957   1.556   2.149  1.1310  0.9142  0.5381
  693SOL     OW 2214   3.372   0.495   1.126  0.3622  0.0263  0.0448
  693SOL    HW1 2215   3.314   0.426   1.159 -1.2281  0.9314 -0.7265
  693SOL    HW2 2216   3.437   0.507   1.196  1.2112 -2.7873 -0.1458
  694SOL     OW 2217   0.155   0.784   2.985 -0.2936  0.0362 -0.2903
  694SOL    HW1 2218   0.087   0.716   2.987  1.0090 -1.3420  2.0345
  694SOL    HW2 2219   0.200   0.771   2.902 -1.2261 -0.7054 -0.7103
  695SOL     OW 2220   1.283   1.948   3.323  0.0054 -0.6209 -1.1923
  695SOL    HW1 2221   1.224   1.878   3.354 -0.8623 -0.2163 -1.8850
  695SOL    HW2 2222   1.299   2.001   3.401 -2.1752  0.3956 -1.3591
  696SOL     OW 2223   2.475   2.965   0.736  0.4534 -0.4376  0.5563
  696SOL    HW1 2224   2.518   3.020   0.802 -1.6031 -0.1982  1.7968
  696SOL    HW2 2225   2.435   3.027   0.675  0.0487 -0.6031  0.6523
  697SOL     OW 2226   2.594   0.115   1.851  0.7004  0.0980 -0.5159
  697SOL    HW1 2227   2.672   0.122   1.906  1.3182 -1.0077 -1.2193
  697SOL    HW2 2228   2.622   0.062   1.776 -0.7321 -0.3155 -0.7874
  698SOL     OW 2229   1.999   0.617   1.648 -0.0160  0.4803  0.1037
  698SOL    HW1 2230   1.945   0.607   1.726 -0.7671  0.1175 -0.4456
  698SOL    HW2 2231   2.053   0.538   1.645 -0.5330  0.1333 -0.1516
  699SOL     OW 2232   2.461   3.044   1.496 -0.1701 -0.6707  0.5873
  699SOL    HW1 2233   2.541   3.092   1.517  0.9314 -1.8246 -0.7752
  699SOL    HW2 2234   2.477   2.955   1.529  1.0309 -2.1542 -3.4143
  700SOL     OW 2235   2.067   0.632   3.117 -0.5450  0.2505  0.0173
  700SOL    HW1 2236   2.159   0.621   3.141 -0.9040 -2.2985  0.4508
  700SOL    HW2 2237   2.069   0.655   3.025  0.5402  1.3803  0.2894
  701SOL     OW 2238   1.761   2.886   2.197  0.0506 -0.2559 -0.1787
  701SOL    HW1 2239   1.795   2.882   2.286 -0.6693 -1.1134  0.0659
  701SOL    HW2 2240   1.738   2.979   2.185  2.0065  0.2682 -0.2078
  702SOL     OW 2241   3.227   2.165   1.867 -0.0576  0.4204 -0.3231
  702SOL    HW1 2242   3.199   2.101   1.802 -0.7048  0.3293  0.0441
  702SOL    HW2 2243   3.270   2.234   1.816  2.7817 -1.3693 -0.5730
  703SOL     OW 2244   0.324   2.358   2.904  0.6336 -0.0802  0.0162
  703SOL    HW1 2245   0.371   2.275   2.907  0.5237 -0.1073  1.1510
  703SOL    HW2 2246   0.370   2.409   2.837  2.0011 -0.2843  0.7671
  704SOL     OW 2247   3.262   2.953   1.900  0.3877  0.4565 -0.4243
  704SOL    HW1 2248   3.224   3.014   1.963 -1.6015  0.6607 -1.7137
  704SOL    HW2 2249   3.218   2.870   1.918  2.3131 -0.3826  0.6362
  705SOL     OW 2250   1.242   3.254   0.140 -0.2628  0.3976  0.0100
  705SOL    HW1 2251   1.206   3.254   0.229 -0.4611  0.3148 -0.0704
  705SOL    HW2 2252   1.192   3.321   0.094 -1.2805 -0.6778 -0.4898
  706SOL     OW 2253   2.780   3.062   3.032  0.2350  0.6227 -0.3607
  706SOL    HW1 2254   2.787   3.006   3.109 -0.5402  0.2934 -0.5277
  706SOL    HW2 2255   2.691   3.049   3.000 -0.1474  2.3667 -0.0816
  707SOL     OW 2256   1.600   1.702   0.409 -0.3576  0.5695 -0.6201
  707SOL    HW1 2257   1.529   1.666   0.462 -0.0781  1.0976  0.1280
  707SOL    HW2 2258   1.642   1.767   0.465  0.3110  0.7331 -1.2851
  708SOL     OW 2259   0.386   1.332   2.456  0.2125 -0.4240 -0.3161
  708SOL    HW1 2260   0.445   1.267   2.421  0.1172 -1.0272  0.6069
  708SOL    HW2 2261   0.375   1.308   2.548 -0.7613  0.1920 -0.2499
  709SOL     OW 2262   2.019   0.359   2.246  0.4777 -0.1388 -0.3904
  709SOL    HW1 2263   2.039   0.393   2.158  0.8704  0.9867  0.1099
  709SOL    HW2 2264   2.027   0.264   2.237 -0.5145 -0.1305 -1.8170
  710SOL     OW 2265   0.925   1.456   2.254  0.6030  0.3609  0.4294
  710SOL    HW1 2266   0.998   1.495   2.206  1.0228  0.7295  1.3428
  710SOL    HW2 2267   0.905   1.520   2.323 -0.9168  0.5046 -0.1030
  711SOL     OW 2268   0.051   1.141   2.871 -0.0475  0.3843  0.6367
  711SOL    HW1 2269   0.105   1.169   2.797 -0.0119  0.5913  0.7415
  711SOL    HW2 2270   0.076   1.200   2.942 -2.3281  2.2947 -0.0189
  712SOL     OW 2271   0.946   1.292   3.389 -0.1622  0.3097 -0.2922
  712SOL    HW1 2272   0.996   1.211   3.386 -0.8382 -0.1610  0.6603
  712SOL    HW2 2273   0.869   1.275   3.335  1.0150  1.2948 -2.4011
  713SOL     OW 2274   3.153   2.829   1.391 -0.3182  0.3365 -0.0620
  713SOL    HW1 2275   3.195   2.914   1.379  1.1313 -0.3200  0.1188
  713SOL    HW2 2276   3.112   2.810   1.307  0.9789  0.3756 -0.7314
  714SOL     OW 2277   1.672   1.206   0.343  0.7057  0.2297  0.1416
  714SOL    HW1 2278   1.714   1.198   0.258 -0.2488 -0.9239 -0.2440
  714SOL    HW2 2279   1.642   1.117   0.364  0.3946  0.6025  1.4027
  715SOL     OW 2280   3.003   3.327   3.547  0.1227  0.2984  0.4605
  715SOL    HW1 2281   3.003   3.363   3.636  1.4529 -0.9866  1.0299
  715SOL    HW2 2282   2.911   3.328   3.521 -0.3117  0.6013  1.8963
  716SOL     OW 2283   3.609   1.815   2.666  0.1553  0.0569  0.1607
  716SOL    HW1 2284   3.665   1.837   2.592  0.2028 -1.3231 -0.2578
  716SOL    HW2 2285   3.524   1.855   2.645  0.6613  1.1977  0.2519
  717SOL     OW 2286   1.186   1.265   2.506  0.1645  0.4222  0.7262
  717SOL    HW1 2287   1.213   1.353   2.534  1.2960  1.1564 -2.3425
  717SOL    HW2 2288   1.106   1.279   2.457 -1.0380 -0.6610  2.2748
  718SOL     OW 2289   0.658   1.426   1.355  0.0019  0.9154  0.2407
  718SOL    HW1 2290   0.650   1.384   1.441  0.3130 -1.8897 -0.9895
  718SOL    HW2 2291   0.752   1.435   1.342  0.4507 -3.9642 -1.9613
  719SOL     OW 2292   3.678   2.125   2.505 -0.2385 -0.4674  0.2702
  719SOL    HW1 2293   3.711   2.039   2.481  0.4487  0.1206 -0.9903
  719SOL    HW2 2294   3.693   2.179   2.427  0.6565  1.1533  1.5033
  720SOL     OW 2295   1.084   1.242   2.894  0.0268 -0.4627  0.1835
  720SOL    HW1 2296   1.020   1.236   2.966 -0.9223  1.2800 -0.4723
  720SOL    HW2 2297   1.073   1.330   2.859  1.6534 -0.7073 -1.0443
  721SOL     OW 2298   2.688   2.837   1.692  0.4993 -0.0294  1.0103
  721SOL    HW1 2299   2.675   2.764   1.753 -1.1506 -0.3941  0.3085
  721SOL    HW2 2300   2.744   2.801   1.624 -0.6924 -0.8576  0.4188
  722SOL     OW 2301   3.583   1.731   3.493 -0.0687 -0.6409  0.1868
  722SOL    HW1 2302   3.670   1.744   3.456  0.8880 -0.0381  2.5081
  722SOL    HW2 2303   3.523   1.753   3.421  1.6402 -1.4581 -1.5860
  723SOL     OW 2304   2.767   1.653   0.998  0.0425 -0.1737 -0.4532
  723SOL    HW1 2305   2.794   1.708   1.072 -2.5309  0.9765 -0.2366
  723SOL    HW2 2306   2.844   1.649   0.941  0.6649  2.9880 -0.0401
  724SOL     OW 2307   2.806   0.611   0.996 -0.2036 -0.1463 -0.2916
  724SOL    HW1 2308   2.798   0.521   0.964 -0.3326 -0.3812  0.3845
  724SOL    HW2 2309   2.862   0.655   0.932  0.5081 -0.9133 -0.2022
  725SOL     OW 2310   2.480   2.560   0.491  0.2643  0.6306  0.4850
  725SOL    HW1 2311   2.461   2.533   0.401  3.7537  1.0639 -0.5431
  725SOL    HW2 2312   2.416   2.629   0.509 -0.9449  0.0874 -1.3750
  726SOL     OW 2313   0.886   2.484   2.332  0.0356  0.0880  0.3804
  726SOL    HW1 2314   0.888   2.434   2.251 -0.2759  1.2397 -0.3559
  726SOL    HW2 2315   0.940   2.433   2.393 -2.0752 -2.3261  0.3854
  727SOL     OW 2316   3.344   1.697   1.488 -0.8789 -0.2902  0.5066
  727SOL    HW1 2317   3.382   1.749   1.417 -1.1339  1.0872  1.3431
  727SOL    HW2 2318   3.412   1.632   1.509 -0.8059 -0.7308 -0.9833
  728SOL     OW 2319   3.420   0.068   0.592  0.0630  0.2412  0.4936
  728SOL    HW1 2320   3.493   0.042   0.647  1.2741  2.1015 -0.1157
  728SOL    HW2 2321   3.350   0.007   0.614  0.5804  0.6642  3.8242
  729SOL     OW 2322   1.740   0.052   1.903  0.0069  0.3186 -0.0030
  729SOL    HW1 2323   1.780  -0.032   1.926  0.7540 -0.3940 -3.3214
  729SOL    HW2 2324   1.659   0.029   1.859 -0.7056  1.4658  0.6567
  730SOL     OW 2325   0.332   2.312   1.210  0.4964 -0.1663  0.2487
  730SOL    HW1 2326   0.365   2.260   1.283  0.4773  0.2958  0.5958
  730SOL    HW2 2327   0.288   2.250   1.154  0.4630 -0.5218  0.6617
  731SOL     OW 2328   2.122   0.053   1.071 -0.7344  0.2853  0.9725
  731SOL    HW1 2329   2.095   0.118   1.136 -0.5943  1.8747 -0.4705
  731SOL    HW2 2330   2.212   0.079   1.048 -1.3090  0.7462 -0.9509
  732SOL     OW 2331   3.237   1.983   1.502 -0.0541  0.3181 -0.1797
  732SOL    HW1 2332   3.303   2.043   1.537 -0.2885  0.9102 -0.7280
  732SOL    HW2 2333   3.264   1.897   1.533  0.4570  0.6682  0.3748
  733SOL     OW 2334   2.309   1.303   3.163 -0.7686  0.2887  0.0813
  733SOL    HW1 2335   2.337   1.287   3.073 -0.2375 -1.1821  0.4843
  733SOL    HW2 2336   2.302   1.398   3.169  0.4942  0.4934 -1.1335
  734SOL     OW 2337   3.463   2.245   0.538 -0.7660  0.4479  0.2605
  734SOL    HW1 2338   3.449   2.165   0.589  0.7138  0.4306  0.6942
  734SOL    HW2 2339   3.558   2.248   0.526 -0.9651  1.2600 -1.2062
  735SOL     OW 2340   2.767   3.332   1.206  0.5702 -0.4553 -0.3078
  735SOL    HW1 2341   2.857   3.337   1.237  0.5642  0.3264 -0.3903
  735SOL    HW2 2342   2.755   3.241   1.180  1.6384 -0.3622 -1.2064
  736SOL     OW 2343   1.866   2.007   2.950  0.7635 -0.0692  0.5335
  736SOL    HW1 2344   1.803   2.024   2.880 -0.7271 -0.3791  1.7453
  736SOL    HW2 2345   1.847   2.073   3.016 -0.5425 -2.0744  2.3162
  737SOL     OW 2346   0.054   0.254   1.544 -0.4806  0.6696 -0.2434
  737SOL    HW1 2347   0.066   0.349   1.546 -0.9843  0.7269  0.3409
  737SOL    HW2 2348   0.095   0.223   1.625 -2.3336  0.6481  0.7255
  738SOL     OW 2349   3.350   0.632   3.195 -0.5892  0.1380  0.6899
  738SOL    HW1 2350   3.266   0.587   3.192 -0.5405  0.0786 -2.5064
  738SOL    HW2 2351   3.360   0.672   3.109  2.9558 -0.4288  0.6825
  739SOL     OW 2352   2.118   0.011   0.411  0.2500  0.1845 -0.0077
  739SOL    HW1 2353   2.057   0.059   0.467  2.7233  1.2067  2.0256
  739SOL    HW2 2354   2.149   0.076   0.349  2.3706  0.9518  1.7115
  740SOL     OW 2355   3.216   0.854   1.750  0.0831  0.7674  0.0689
  740SOL    HW1 2356   3.155   0.927   1.738 -1.5475 -0.5770 -0.3258
  740SOL    HW2 2357   3.249   0.864   1.839  0.2370  2.2078 -0.1224
  741SOL     OW 2358   0.186   2.368   0.972  0.1073  0.4170  0.4668
  741SOL    HW1 2359   0.272   2.358   0.932  0.1814  0.4988  0.6044
  741SOL    HW2 2360   0.174   2.463   0.979 -0.4586  0.4319 -0.5518
  742SOL     OW 2361   0.045   2.031   2.907  0.4713  0.7707  0.1166
  742SOL    HW1 2362  -0.012   2.082   2.850  0.5932 -0.7921 -1.4864
  742SOL    HW2 2363   0.133   2.050   2.876  0.6186  0.8149  0.5587
  743SOL     OW 2364   0.060   1.439   1.692 -0.8212  0.4461  0.4892
  743SOL    HW1 2365   0.066   1.496   1.616 -0.8670 -0.7091 -0.4087
  743SOL    HW2 2366   0.146   1.396   1.697 -1.0771 -0.0657  0.6097
  744SOL     OW 2367   2.538   0.085   3.299  0.0278 -0.4086 -0.4962
  744SOL    HW1 2368   2.599   0.052   3.232 -1.6446 -0.9598 -1.8184
  744SOL    HW2 2369   2.506   0.006   3.343 -0.2711 -0.1855 -0.3132
  745SOL     OW 2370   0.089   3.695   3.471  0.1947  0.4899 -0.3538
  745SOL    HW1 2371  -0.005   3.685   3.456  0.4554 -0.7013 -1.4273
  745SOL    HW2 2372   0.121   3.605   3.481  1.3586  0.8033 -1.0515
  746SOL     OW 2373   3.258   2.680   2.336 -0.3531  0.2593 -0.3907
  746SOL    HW1 2374   3.293   2.751   2.282  2.5851 -1.4040 -0.8365
  746SOL    HW2 2375   3.259   2.715   2.425 -1.8388  1.7531 -0.8974
  747SOL     OW 2376   3.495   3.000   0.521 -0.0410 -0.3290 -0.0792
  747SOL    HW1 2377   3.516   2.915   0.560  0.3520 -0.8031 -1.2708
  747SOL    HW2 2378   3.508   3.062   0.592  0.9019 -1.1338  0.4857
  748SOL     OW 2379   0.177   2.339   3.535 -0.0846  0.4293  0.1983
  748SOL    HW1 2380   0.093   2.373   3.567 -0.0311  0.3741  0.3994
  748SOL    HW2 2381   0.200   2.396   3.462 -1.3519 -0.8387 -1.2741
  749SOL     OW 2382   2.017   1.411   1.526 -0.2626  0.1092  0.6300
  749SOL    HW1 2383   1.948   1.472   1.552 -0.6162 -0.7324  1.7302
  749SOL    HW2 2384   2.053   1.378   1.608  0.9491 -0.0462  0.0712
  750SOL     OW 2385   1.479   1.656   2.252  0.3256 -0.6164 -0.2378
  750SOL    HW1 2386   1.491   1.583   2.313 -0.7718 -1.6767 -1.2562
  750SOL    HW2 2387   1.476   1.615   2.165 -3.5210  0.1733 -0.6438
  751SOL     OW 2388   3.643   1.175   1.702  0.2993 -0.1773  0.0452
  751SOL    HW1 2389   3.660   1.142   1.791  1.8927  0.1497 -0.1069
  751SOL    HW2 2390   3.682   1.110   1.644  0.4546  0.2726 -0.3645
  752SOL     OW 2391   3.725   0.133   3.186  0.7614 -0.2555  0.5811
  752SOL    HW1 2392   3.632   0.132   3.163  0.6229 -1.9244  1.1039
  752SOL    HW2 2393   3.729   0.185   3.266  0.3919  0.4677  0.1366
  753SOL     OW 2394   2.721   2.902   3.256  0.5181  0.3394 -0.6520
  753SOL    HW1 2395   2.675   2.821   3.235 -0.8151  0.1881  2.3832
  753SOL    HW2 2396   2.786   2.877   3.321 -0.3851  1.7372  0.8605
  754SOL     OW 2397   2.226   0.770   1.519 -0.2307  0.9431 -0.0259
  754SOL    HW1 2398   2.182   0.692   1.553  1.5384  0.9959  2.6976
  754SOL    HW2 2399   2.286   0.737   1.453  0.6990 -0.0917  1.2914
  755SOL     OW 2400   3.224   3.300   0.786 -0.1460 -0.3748  0.0695
  755SOL    HW1 2401   3.182   3.244   0.721 -0.5322  0.8280 -0.7550
  755SOL    HW2 2402   3.152   3.351   0.824  0.3601  0.6611 -0.3128
  756SOL     OW 2403   1.914   2.594   0.653  0.3682  0.2566 -0.4231
  756SOL    HW1 2404   2.002   2.615   0.684  0.6625 -0.4106 -0.7852
  756SOL    HW2 2405   1.894   2.509   0.693  0.5815 -0.4154 -1.6741
  757SOL     OW 2406   1.646   2.122   3.542 -0.3635  0.7237  0.6571
  757SOL    HW1 2407   1.715   2.186   3.528  0.7315 -0.5157  0.2881
  757SOL    HW2 2408   1.691   2.040   3.562 -1.6844 -0.3056 -0.3369
  758SOL     OW 2409   3.465   1.644   0.943  0.0974  0.5651 -0.0311
  758SOL    HW1 2410   3.552   1.612   0.968 -0.4273 -0.6964  0.2688
  758SOL    HW2 2411   3.410   1.623   1.018 -0.6290  0.6020 -0.5513
  759SOL     OW 2412   0.184   2.358   2.321  0.1331 -0.1500 -0.0618
  759SOL    HW1 2413   0.228   2.415   2.258  0.8867  0.0480  0.6253
  759SOL    HW2 2414   0.255   2.305   2.358 -0.6158 -1.9347 -1.0668
  760SOL     OW 2415   2.004   2.074   3.720  0.4231  0.0655 -0.5514
  760SOL    HW1 2416   1.943   2.034   3.659  1.7419 -2.0185 -0.5966
  760SOL    HW2 2417   2.031   2.155   3.677  0.2948 -0.6909 -2.1262
  761SOL     OW 2418   1.792   1.999   0.455 -0.2138 -0.3973  0.1600
  761SOL    HW1 2419   1.826   1.927   0.401  2.2482  0.1380  0.8799
  761SOL    HW2 2420   1.736   1.956   0.519  1.5084 -1.8014  0.8128
  762SOL     OW 2421   0.177   1.055   1.827  0.0461 -0.2658 -0.8052
  762SOL    HW1 2422   0.097   1.018   1.864  0.4007 -0.0801  0.1566
  762SOL    HW2 2423   0.209   1.115   1.894  0.1919  0.8024 -1.7951
  763SOL     OW 2424   0.490   1.256   3.355 -0.4444  0.0343  0.1819
  763SOL    HW1 2425   0.481   1.168   3.320  1.7160 -0.1834  0.0232
  763SOL    HW2 2426   0.490   1.313   3.278  1.1048 -0.1413  0.0230
  764SOL     OW 2427   0.200   2.705   0.952  0.2184  0.2701 -0.1854
  764SOL    HW1 2428   0.244   2.680   0.871  0.3888  1.6303 -0.5280
  764SOL    HW2 2429   0.205   2.801   0.954 -0.6346  0.3103  0.9524
  765SOL     OW 2430   2.799   2.289   2.287  0.3992 -0.0305 -0.3512
  765SOL    HW1 2431   2.834   2.351   2.351  1.5054  0.7171 -1.6088
  765SOL    HW2 2432   2.875   2.265   2.234 -0.0153 -2.4665  0.0736
  766SOL     OW 2433   0.466   2.967   0.327 -0.5449  0.2804  0.1127
  766SOL    HW1 2434   0.384   2.971   0.278 -0.9427  1.5356  0.8333
  766SOL    HW2 2435   0.513   3.046   0.302 -1.3544  1.6952  2.6917
  767SOL     OW 2436   0.219   0.426   2.235  0.0897 -0.0836 -0.1910
  767SOL    HW1 2437   0.149   0.364   2.256 -0.0941  0.5877  1.2713
  767SOL    HW2 2438   0.174   0.510   2.226  0.7588  0.5032  1.5290
  768SOL     OW 2439   0.029   2.637   1.742  0.5697 -0.0256  0.2528
  768SOL    HW1 2440   0.119   2.631   1.711  1.1616 -0.7036  2.0045
  768SOL    HW2 2441   0.017   2.730   1.762  0.1763  0.4297 -1.8512
  769SOL     OW 2442   0.373   1.063   2.931  0.2796  0.6414 -0.0213
  769SOL    HW1 2443   0.306   1.129   2.915 -0.3279 -0.0255 -0.2435
  769SOL    HW2 2444   0.451   1.098   2.888  1.1789  3.2072  3.2609
  770SOL     OW 2445   2.009   0.655   2.841  0.0488 -0.0179 -0.6291
  770SOL    HW1 2446   1.946   0.615   2.901  1.5636 -1.3195  0.1600
  770SOL    HW2 2447   1.961   0.728   2.801 -1.3583  0.2111  1.3346
  771SOL     OW 2448   2.740   3.207   0.188  0.3998  0.3381 -0.7349
  771SOL    HW1 2449   2.678   3.218   0.260  0.1788 -0.7986 -0.7311
  771SOL    HW2 2450   2.764   3.115   0.192  0.8601  0.4086 -1.7428
  772SOL     OW 2451   1.646   1.666   0.978  0.0296  0.3068 -0.5845
  772SOL    HW1 2452   1.731   1.697   0.948 -0.6429  2.2011 -0.6727
  772SOL    HW2 2453   1.662   1.638   1.069  1.3441 -2.3041 -1.5223
  773SOL     OW 2454   1.837   1.587   2.092 -0.1577  0.4494 -0.8835
  773SOL    HW1 2455   1.806   1.617   2.007 -1.6638 -1.2418 -0.9848
  773SOL    HW2 2456   1.882   1.505   2.074  0.8238  0.8275 -0.2170
  774SOL     OW 2457   0.759   1.626   1.613 -0.6238  0.3861 -0.3338
  774SOL    HW1 2458   0.726   1.539   1.636 -0.4009  0.1881 -0.7521
  774SOL    HW2 2459   0.845   1.609   1.573 -0.0424  0.8861  0.6596
  775SOL     OW 2460   2.497   1.454   1.897  0.4484  0.3370  0.1324
  775SOL    HW1 2461   2.516   1.366   1.862 -0.0875 -0.0182  0.7205
  775SOL    HW2 2462   2.583   1.493   1.911  0.6866  0.3099 -1.1316
  776SOL     OW 2463   1.133   1.781   0.077 -0.0441  0.3505 -0.5584
  776SOL    HW1 2464   1.218   1.825   0.086  0.4854 -0.1905 -2.4706
  776SOL    HW2 2465   1.154   1.688   0.074 -0.8767  0.1133  0.4744
  777SOL     OW 2466   0.797   0.570   1.913 -0.0454  0.2470 -0.2521
  777SOL    HW1 2467   0.859   0.640   1.890  0.4901  0.4804  1.7277
  777SOL    HW2 2468   0.726   0.615   1.960 -1.2965 -0.1454 -1.6913
  778SOL     OW 2469   2.804   3.311   0.602  0.0205  0.1135  0.6490
  778SOL    HW1 2470   2.887   3.360   0.604 -1.1976  2.3276  2.7991
  778SOL    HW2 2471   2.764   3.336   0.519  0.6602  0.5503  0.4612
  779SOL     OW 2472   2.599   0.016   0.393 -0.1538 -0.1551  0.0705
  779SOL    HW1 2473   2.591   0.054   0.480 -0.4820 -2.3437  1.0718
  779SOL    HW2 2474   2.686  -0.024   0.391 -1.4496 -3.3503  0.8983
  780SOL     OW 2475   0.189   1.190   1.014 -0.0883 -0.2243 -0.2233
  780SOL    HW1 2476   0.190   1.203   1.108 -0.5903 -2.5359  0.1502
  780SOL    HW2 2477   0.098   1.205   0.989  0.1851  1.1516 -0.5182
  781SOL     OW 2478   2.777   0.624   2.723  0.3266 -0.4110 -0.1730
  781SOL    HW1 2479   2.702   0.670   2.685 -0.2904  0.1145  1.5807
  781SOL    HW2 2480   2.760   0.624   2.817  1.0054 -3.0260  0.0242
  782SOL     OW 2481   0.640   1.905   2.262 -0.5006  0.6166  0.1492
  782SOL    HW1 2482   0.653   1.918   2.356  0.4836 -0.2407  0.1510
  782SOL    HW2 2483   0.726   1.877   2.230 -1.4318 -1.6652 -0.5489
  783SOL     OW 2484   1.306   3.272   2.583  0.2891 -0.0193 -0.5680
  783SOL    HW1 2485   1.283   3.196   2.530  1.3265  0.2317 -1.4107
  783SOL    HW2 2486   1.275   3.249   2.671  0.5967 -1.4317 -0.7933
  784SOL     OW 2487   3.215   0.521   1.885 -0.2479 -0.5710 -0.0013
  784SOL    HW1 2488   3.137   0.577   1.887  0.4580  0.4368  0.3953
  784SOL    HW2 2489   3.217   0.486   1.796 -0.7515 -0.0044 -0.2452
  785SOL     OW 2490   1.549   2.468   1.713 -0.6575 -0.3274  0.4700
  785SOL    HW1 2491   1.526   2.479   1.805  0.4417 -2.9495  1.1510
  785SOL    HW2 2492   1.642   2.444   1.714 -0.2429  0.9965 -1.4593
  786SOL     OW 2493   2.731   0.286   3.679 -0.5207 -0.0885  0.3193
  786SOL    HW1 2494   2.681   0.363   3.652 -1.7821 -0.2105  2.1293
  786SOL    HW2 2495   2.674   0.212   3.660  0.7227 -0.6742 -1.5082
  787SOL     OW 2496   2.307   1.011   1.621 -0.2073 -0.6777  0.3111
  787SOL    HW1 2497   2.308   1.079   1.553  3.0229 -0.4758  0.3748
  787SOL    HW2 2498   2.295   0.929   1.573  1.8618 -0.5257 -0.6146
  788SOL     OW 2499   2.548   2.547   2.675  0.2369 -0.5556 -0.1132
  788SOL    HW1 2500   2.592   2.628   2.701  0.2319  0.7775 -3.7098
  788SOL    HW2 2501   2.457   2.559   2.702 -0.0170  1.2137 -1.5807
  789SOL     OW 2502   1.354   2.984   1.608 -0.0980  0.0317 -0.0541
  789SOL    HW1 2503   1.378   2.993   1.516  0.6760  1.7015  0.2789
  789SOL    HW2 2504   1.390   3.062   1.650 -2.3881  0.4628  1.2751
  790SOL     OW 2505   2.027   1.896   1.445 -0.1154 -0.1431  0.0240
  790SOL    HW1 2506   2.120   1.908   1.460 -0.5625  2.4827  1.2734
  790SOL    HW2 2507   1.993   1.858   1.526 -0.2210 -0.6607 -0.2566
  791SOL     OW 2508  -0.002   0.611   0.326  0.4024  0.4525 -0.2796
  791SOL    HW1 2509  -0.022   0.569   0.410  2.3047 -2.0846 -0.9845
  791SOL    HW2 2510   0.068   0.673   0.347  0.3880  0.3373  0.1207
  792SOL     OW 2511   1.559   3.204   0.436  0.2163 -0.2806  0.5387
  792SOL    HW1 2512   1.614   3.235   0.364 -0.1571  0.9013  0.7272
  792SOL    HW2 2513   1.621   3.166   0.499  0.6369 -0.4766  0.0110
  793SOL     OW 2514   1.464   3.502   1.556 -0.1422  0.0145 -1.1898
  793SOL    HW1 2515   1.398   3.465   1.615 -0.0614  0.7100 -0.6525
  793SOL    HW2 2516   1.536   3.439   1.559 -0.0953  0.0965 -0.4621
  794SOL     OW 2517   3.656   3.557   2.403 -0.5865  0.2895  0.1607
  794SOL    HW1 2518   3.746   3.586   2.415  0.0480 -0.9695 -1.2819
  794SOL    HW2 2519   3.616   3.625   2.348 -0.8465  1.3471  1.5939
  795SOL     OW 2520   0.602   1.137   2.817 -0.1989 -0.3106 -0.3931
  795SOL    HW1 2521   0.695   1.159   2.809  0.0546 -0.0541  2.2675
  795SOL    HW2 2522   0.557   1.221   2.814 -0.0118 -0.1080  1.2689
  796SOL     OW 2523   1.829   0.873   2.774  0.3113  0.0820  0.4241
  796SOL    HW1 2524   1.757   0.888   2.836  0.1587 -0.0509  0.2798
  796SOL    HW2 2525   1.788   0.879   2.688  0.2783 -0.9711  0.3570
  797SOL     OW 2526   3.079   2.139   3.356 -0.0237 -0.4190 -0.1625
  797SOL    HW1 2527   3.097   2.047   3.337  0.9609 -0.2053 -0.3024
  797SOL    HW2 2528   3.111   2.186   3.279  0.6146  0.1412  0.4390
  798SOL     OW 2529   0.465   0.295   2.716  0.4709 -0.6328  0.0627
  798SOL    HW1 2530   0.466   0.355   2.792 -1.1214  0.1717 -0.4840
  798SOL    HW2 2531   0.489   0.351   2.642  0.8207 -1.1279 -0.1959
  799SOL     OW 2532   2.303   0.075   3.161  0.9290 -0.1484  0.0592
  799SOL    HW1 2533   2.387   0.093   3.201  0.9733 -0.3022  0.0381
  799SOL    HW2 2534   2.310  -0.016   3.131  0.2451 -0.6552  1.3632
  800SOL     OW 2535   0.215   0.535   1.581 -0.2946 -0.1096 -0.0870
  800SOL    HW1 2536   0.220   0.503   1.490 -0.1795 -1.2577  0.3045
  800SOL    HW2 2537   0.276   0.608   1.584 -0.9322  0.5092 -1.1475
  801SOL     OW 2538   3.206   1.474   0.623  0.2135 -0.1001  0.2263
  801SOL    HW1 2539   3.173   1.413   0.689  0.5869 -0.9694 -0.3754
  801SOL    HW2 2540   3.179   1.437   0.540  1.1535  0.1221 -0.1898
  802SOL     OW 2541   1.159   3.432   3.547 -0.5707  0.0433 -1.0374
  802SOL    HW1 2542   1.229   3.441   3.484 -0.7703  0.0871 -1.2546
  802SOL    HW2 2543   1.080   3.420   3.494 -0.4463 -2.2715 -0.7897
  803SOL     OW 2544   2.827   1.062   1.505  0.8137  0.8939  0.0195
  803SOL    HW1 2545   2.737   1.069   1.474  0.2134 -0.5031  1.3052
  803SOL    HW2 2546   2.857   0.977   1.473  1.5878  1.2342 -0.1800
  804SOL     OW 2547   1.337   1.347   0.836  0.1737  0.3145 -0.0709
  804SOL    HW1 2548   1.293   1.419   0.791  0.4894  2.1643  2.3618
  804SOL    HW2 2549   1.350   1.281   0.768 -0.8260  2.2133 -2.2587
  805SOL     OW 2550   0.995   3.073   3.608  0.3402 -0.4573  0.7718
  805SOL    HW1 2551   1.011   3.095   3.700 -1.4460  0.0989  0.9870
  805SOL    HW2 2552   0.903   3.096   3.594 -0.1228 -2.8412 -0.4924
  806SOL     OW 2553   0.734   1.960   3.059 -0.3192 -0.2139 -0.6565
  806SOL    HW1 2554   0.684   1.939   3.137 -0.3350 -0.9158 -0.8521
  806SOL    HW2 2555   0.754   1.875   3.019  0.7772  0.0592 -0.7337
  807SOL     OW 2556   1.784   2.478   0.203  0.2985  0.0707  0.9835
  807SOL    HW1 2557   1.774   2.382   0.204 -1.0869  0.1994  1.5383
  807SOL    HW2 2558   1.716   2.509   0.144  0.9100  0.7165  0.5993
  808SOL     OW 2559   1.135   2.149   2.172  0.8664  0.6479  0.9256
  808SOL    HW1 2560   1.115   2.121   2.262 -0.1104  0.7378  0.7465
  808SOL    HW2 2561   1.104   2.077   2.117 -1.2553  1.8111  0.4887
  809SOL     OW 2562   2.836   2.607   1.219  0.4045 -0.1908 -0.0320
  809SOL    HW1 2563   2.788   2.536   1.262  0.4807 -1.3094 -1.7382
  809SOL    HW2 2564   2.880   2.566   1.145  1.0138  1.5180 -0.6657
  810SOL     OW 2565   3.408   1.525   3.438 -0.0178 -0.1485 -0.2866
  810SOL    HW1 2566   3.492   1.565   3.459  1.1014 -2.2558 -0.4579
  810SOL    HW2 2567   3.353   1.541   3.515  0.9962  0.0859  0.3997
  811SOL     OW 2568   2.179   1.502   1.325  0.3723 -0.5313  0.2889
  811SOL    HW1 2569   2.124   1.574   1.296 -1.2492 -2.6399 -2.2830
  811SOL    HW2 2570   2.121   1.448   1.380  1.1113 -0.7178  0.9102
  812SOL     OW 2571   3.606   3.655   1.985 -0.3279 -0.5810  0.3060
  812SOL    HW1 2572   3.529   3.711   1.985 -0.5394 -0.8480  1.4514
  812SOL    HW2 2573   3.680   3.716   1.975 -0.7052 -0.4422 -2.3274
  813SOL     OW 2574   2.141   1.444   0.337  0.3114  0.2050  0.5846
  813SOL    HW1 2575   2.180   1.528   0.359  0.1164  0.6999 -0.8674
  813SOL    HW2 2576   2.124   1.449   0.243  1.9121 -2.1053  0.0915
  814SOL     OW 2577   0.941   2.515   0.536 -0.3117 -0.1392 -0.0368
  814SOL    HW1 2578   0.904   2.602   0.519  1.4767  0.9280  1.1164
  814SOL    HW2 2579   0.919   2.463   0.459 -1.3059  1.3772 -0.8225
  815SOL     OW 2580   3.376   0.777   1.365  0.2308  0.7102  0.5039
  815SOL    HW1 2581   3.301   0.719   1.378  0.5489  0.6932  2.5167
  815SOL    HW2 2582   3.452   0.719   1.368  0.5618  1.1836  2.6793
  816SOL     OW 2583   0.156   2.045   0.791 -0.0952 -0.4211  0.4633
  816SOL    HW1 2584   0.097   2.121   0.793 -0.0766 -0.4053  0.4053
  816SOL    HW2 2585   0.099   1.971   0.772 -0.1564 -0.4617  0.7964
  817SOL     OW 2586   0.725   3.044   0.373 -0.3387 -0.1429  0.1346
  817SOL    HW1 2587   0.664   2.983   0.333 -1.4127  0.0656  1.3823
  817SOL    HW2 2588   0.714   3.031   0.467  0.4562  0.9635  0.4047
  818SOL     OW 2589   1.526   1.999   2.532 -0.2426  0.4354 -0.0530
  818SOL    HW1 2590   1.610   2.004   2.578  0.4650 -0.9885 -1.1034
  818SOL    HW2 2591   1.477   2.075   2.563  0.5127  0.0126  2.3825
  819SOL     OW 2592   0.899   0.102   3.229 -0.6197  0.5783  0.7874
  819SOL    HW1 2593   0.944   0.125   3.147 -0.0102 -2.1417  0.2811
  819SOL    HW2 2594   0.806   0.112   3.209 -0.4596  0.3404 -0.1153
  820SOL     OW 2595   2.249   2.777   2.541  0.0762  0.3980 -0.2898
  820SOL    HW1 2596   2.319   2.831   2.503 -1.1347  3.6290  1.6037
  820SOL    HW2 2597   2.188   2.763   2.470  1.4767 -0.4097 -1.3811
  821SOL     OW 2598   3.448   1.237   2.240  0.2896 -0.1768  0.0166
  821SOL    HW1 2599   3.482   1.235   2.150  1.1773  0.5364  0.3282
  821SOL    HW2 2600   3.488   1.313   2.280 -0.1183 -0.4696  1.0305
  822SOL     OW 2601   1.437   0.981   0.773 -0.3361  0.4819  0.1633
  822SOL    HW1 2602   1.502   1.041   0.810 -1.4449  0.8412  1.5959
  822SOL    HW2 2603   1.400   0.935   0.849 -0.9581 -0.5500 -0.7248
  823SOL     OW 2604   1.826   3.177   2.002 -0.7417  0.5051  0.2029
  823SOL    HW1 2605   1.913   3.157   1.968 -0.3993  3.3463 -0.8133
  823SOL    HW2 2606   1.772   3.103   1.974  1.2088 -1.0858  0.4433
  824SOL     OW 2607   2.063   0.372   0.366 -0.2311 -0.4032 -0.1521
  824SOL    HW1 2608   1.984   0.323   0.344 -1.7065  2.7000 -2.5592
  824SOL    HW2 2609   2.031   0.457   0.395  2.2550  0.5146  0.1498
  825SOL     OW 2610   1.259   0.220   3.602 -0.1273 -0.5418  0.2178
  825SOL    HW1 2611   1.219   0.304   3.583 -1.8381 -0.8599  2.0183
  825SOL    HW2 2612   1.224   0.196   3.688  1.7977 -2.2051  0.6170
  826SOL     OW 2613   0.714   2.780   0.501  0.1564  0.2252 -0.4890
  826SOL    HW1 2614   0.753   2.796   0.415  2.6206 -0.8693  0.3198
  826SOL    HW2 2615   0.619   2.780   0.485  0.5322  0.0669 -3.1832
  827SOL     OW 2616   2.368   1.819   0.761  0.0634 -0.7256  0.3617
  827SOL    HW1 2617   2.386   1.908   0.732 -0.7974 -1.2754 -2.1103
  827SOL    HW2 2618   2.426   1.764   0.708 -1.4000 -1.7802 -0.2141
  828SOL     OW 2619   2.300   0.862   0.116 -0.6266 -0.2449  0.1146
  828SOL    HW1 2620   2.264   0.851   0.028 -2.1596 -0.2391  0.7156
  828SOL    HW2 2621   2.364   0.933   0.108 -0.3032 -0.6527 -1.1042
  829SOL     OW 2622   0.074   3.511   0.533 -0.1367  0.6053  0.9362
  829SOL    HW1 2623   0.143   3.572   0.507 -0.4492  0.3238 -0.6080
  829SOL    HW2 2624   0.004   3.526   0.470  0.5636 -2.7749 -0.8370
  830SOL     OW 2625   1.780   3.445   1.602  0.5943 -0.6172  0.0378
  830SOL    HW1 2626   1.855   3.463   1.545 -0.4481 -1.4492 -1.6819
  830SOL    HW2 2627   1.781   3.350   1.613 -0.1265 -0.6236  0.0796
  831SOL     OW 2628   0.755   2.766   0.226  0.1796 -0.2133 -0.2045
  831SOL    HW1 2629   0.850   2.774   0.216  0.3933  0.4569  1.7824
  831SOL    HW2 2630   0.719   2.814   0.152  1.4218  0.6661 -0.2770
  832SOL     OW 2631   1.786   3.112   3.019 -0.1430 -0.4747  0.1185
  832SOL    HW1 2632   1.774   3.206   3.036 -0.6836 -0.2978 -1.1301
  832SOL    HW2 2633   1.787   3.072   3.106 -1.9606  0.4515  0.6101
  833SOL     OW 2634   3.396   3.521   0.220 -0.0318 -0.0557  0.6049
  833SOL    HW1 2635   3.368   3.461   0.151 -1.6593 -0.1351  1.2868
  833SOL    HW2 2636   3.425   3.463   0.291 -1.8409 -0.1082  1.3609
  834SOL     OW 2637   2.600   0.162   2.637 -0.1609 -0.1639  0.4562
  834SOL    HW1 2638   2.632   0.244   2.599 -0.3304 -0.3832 -0.1665
  834SOL    HW2 2639   2.641   0.094   2.585  2.3311 -0.6057  2.7549
  835SOL     OW 2640   0.166   0.528   0.965 -0.7123  0.0340 -0.1240
  835SOL    HW1 2641   0.224   0.490   0.899  1.6197  3.0604 -0.0353
  835SOL    HW2 2642   0.221   0.591   1.012 -3.2141  0.5425  2.3883
  836SOL     OW 2643   3.559   0.793   3.318 -0.2974  0.1812  0.6921
  836SOL    HW1 2644   3.552   0.825   3.408  4.2751 -1.0971  1.7843
  836SOL    HW2 2645   3.481   0.740   3.305 -1.8290  1.5518  3.3525
  837SOL     OW 2646   3.149   2.539   2.579 -0.2230  0.0058 -0.0729
  837SOL    HW1 2647   3.199   2.517   2.658  3.5534 -0.5568 -2.3837
  837SOL    HW2 2648   3.153   2.634   2.573  1.1640 -0.0520 -0.4801
  838SOL     OW 2649   0.578   3.162   1.578  0.2020  0.1977  0.2359
  838SOL    HW1 2650   0.656   3.168   1.524 -0.3509 -1.2655 -0.8052
  838SOL    HW2 2651   0.529   3.088   1.542 -1.3314  0.6315  1.2875
  839SOL     OW 2652   3.506   1.435   1.630 -0.4323 -0.1366 -0.7030
  839SOL    HW1 2653   3.568   1.363   1.646 -0.8287 -0.4273 -0.4360
  839SOL    HW2 2654   3.543   1.510   1.676 -0.0694 -0.2009 -0.8904
  840SOL     OW 2655   1.403   2.193   1.965 -0.5462  0.0082  0.3328
  840SOL    HW1 2656   1.342   2.202   1.892 -0.2393  0.5692  0.1374
  840SOL    HW2 2657   1.415   2.099   1.975 -1.7579 -0.1367  0.6470
  841SOL     OW 2658   1.940   2.461   2.897  0.6370  0.0005  0.0997
  841SOL    HW1 2659   1.961   2.368   2.905  1.0532  0.1263  0.4818
  841SOL    HW2 2660   1.862   2.472   2.952  0.4925 -0.1492 -0.0714
  842SOL     OW 2661   1.962   2.972   1.817 -0.1877  0.7915 -0.5419
  842SOL    HW1 2662   2.040   2.945   1.769 -0.0530  0.4124 -0.1156
  842SOL    HW2 2663   1.901   2.899   1.807  0.0851  0.4189  0.4055
  843SOL     OW 2664   1.746   2.192   3.186 -0.1753  0.2140 -0.3172
  843SOL    HW1 2665   1.786   2.123   3.239 -1.3742  0.1141  0.4962
  843SOL    HW2 2666   1.656   2.196   3.216 -1.3541 -0.8338 -3.3418
  844SOL     OW 2667   1.493   1.099   2.297 -0.5907 -0.2427  0.0558
  844SOL    HW1 2668   1.466   1.179   2.252  0.1163  0.2967  0.5577
  844SOL    HW2 2669   1.436   1.031   2.262 -2.1420  0.7210  0.6230
  845SOL     OW 2670   1.250   2.960   0.074  0.1258  0.0697 -0.4107
  845SOL    HW1 2671   1.281   2.997  -0.008  0.7026  0.6321  0.0483
  845SOL    HW2 2672   1.198   3.030   0.113  0.6584  0.1662  0.1446
  846SOL     OW 2673   1.569   2.530   3.364 -0.0297  0.2808 -0.0337
  846SOL    HW1 2674   1.548   2.522   3.457  0.1162 -0.9548 -0.0930
  846SOL    HW2 2675   1.661   2.558   3.363 -0.0352  0.3097  0.1946
  847SOL     OW 2676   3.136   0.629   1.375 -0.6635  0.4019  0.2570
  847SOL    HW1 2677   3.071   0.564   1.402  0.4925 -1.8007 -1.8463
  847SOL    HW2 2678   3.131   0.630   1.280  0.3374  2.4410  0.1698
  848SOL     OW 2679   3.723   3.290   3.687 -0.0451  0.2381  0.5209
  848SOL    HW1 2680   3.643   3.271   3.638  0.0897 -1.2356  0.8142
  848SOL    HW2 2681   3.777   3.341   3.627  0.2542 -1.7993 -1.0320
  849SOL     OW 2682   1.680   1.995   0.935  0.5109  0.2382 -0.3708
  849SOL    HW1 2683   1.606   1.985   0.995  1.7455 -1.6373  0.9815
  849SOL    HW2 2684   1.741   2.053   0.981  0.8945 -0.1567 -0.3652
  850SOL     OW 2685   3.062   2.604   2.182 -0.5508  0.5464 -0.5342
  850SOL    HW1 2686   3.127   2.645   2.240  0.7790  1.8493 -2.8108
  850SOL    HW2 2687   3.112   2.547   2.125 -1.6294  0.3715 -1.3465
  851SOL     OW 2688   2.233   3.376   2.822 -0.5942  0.0371  0.5887
  851SOL    HW1 2689   2.138   3.368   2.812 -0.5581  0.0841  0.1536
  851SOL    HW2 2690   2.258   3.300   2.874 -0.7941 -0.3228  0.1633
  852SOL     OW 2691   3.157   1.853   3.362  0.7000 -0.3279 -0.8143
  852SOL    HW1 2692   3.252   1.862   3.374  0.7182 -1.1938 -0.2403
  852SOL    HW2 2693   3.148   1.824   3.271  0.8849  1.1149 -1.3213
  853SOL     OW 2694   0.411   3.593   1.421 -0.2766 -0.5575 -0.2222
  853SOL    HW1 2695   0.400   3.585   1.326  0.0675  2.2798 -0.6016
  853SOL    HW2 2696   0.506   3.601   1.433 -0.4593  2.1136 -0.0459
  854SOL     OW 2697   2.956   1.604   0.844 -0.1970 -0.0268  0.3531
  854SOL    HW1 2698   2.929   1.549   0.771 -0.0236  1.1363 -0.6131
  854SOL    HW2 2699   3.022   1.663   0.807 -0.8982  1.3154  1.1590
  855SOL     OW 2700   0.391   3.614   3.068  0.2984 -0.0116 -0.1870
  855SOL    HW1 2701   0.390   3.698   3.022 -0.2368  0.0315 -0.1060
  855SOL    HW2 2702   0.482   3.585   3.064  0.7601  1.2122  0.9753
  856SOL     OW 2703   2.360   2.489   3.651 -0.6616 -0.2416 -0.0648
  856SOL    HW1 2704   2.393   2.498   3.562  0.1536 -0.3043  0.2193
  856SOL    HW2 2705   2.274   2.531   3.650 -3.2289 -4.8195 -2.2115
  857SOL     OW 2706   1.428   1.204   0.143 -0.1189 -1.3952 -0.7867
  857SOL    HW1 2707   1.443   1.123   0.192  0.0967  0.1522  1.8394
  857SOL    HW2 2708   1.513   1.222   0.101  2.3434  0.9732  4.2909
  858SOL     OW 2709   0.188   0.931   3.436  0.4915 -0.1912  0.4980
  858SOL    HW1 2710   0.188   0.966   3.347 -0.4098  0.4255  0.7224
  858SOL    HW2 2711   0.156   0.841   3.427 -1.4557  0.4632  0.3748
  859SOL     OW 2712   0.622   1.956   2.554  0.1410 -0.0051 -0.2058
  859SOL    HW1 2713   0.702   2.004   2.535  0.4871  0.3518  1.8704
  859SOL    HW2 2714   0.639   1.914   2.639 -1.4876 -0.7960 -0.2223
  860SOL     OW 2715   2.498   0.079   3.698 -0.0596 -0.1988  0.6721
  860SOL    HW1 2716   2.469   0.019   3.630 -2.7871 -2.0699  3.1867
  860SOL    HW2 2717   2.559   0.027   3.751  0.5152  0.5565  0.7595
  861SOL     OW 2718   2.038   3.726   1.835 -0.0404  0.9393 -0.3971
  861SOL    HW1 2719   2.097   3.653   1.851 -1.9415 -0.5925  0.0292
  861SOL    HW2 2720   1.956   3.700   1.876 -0.8372  3.2879 -0.3337
  862SOL     OW 2721   2.532   3.620   2.094  0.2256 -0.2702  0.1955
  862SOL    HW1 2722   2.526   3.555   2.163 -0.1038 -0.9318 -0.4411
  862SOL    HW2 2723   2.574   3.696   2.135  1.1812 -1.1010  0.7752
  863SOL     OW 2724   0.282   0.163   1.169  0.0393 -0.4002 -0.6429
  863SOL    HW1 2725   0.236   0.183   1.087 -1.4855  0.3796  0.3647
  863SOL    HW2 2726   0.222   0.106   1.217  0.9058 -0.8293 -0.0466
  864SOL     OW 2727   3.335   1.127   1.900  0.4311  0.6032  0.1942
  864SOL    HW1 2728   3.391   1.051   1.884  0.9442  1.1747 -0.8605
  864SOL    HW2 2729   3.397   1.197   1.923 -0.0378  0.7079  1.1860
  865SOL     OW 2730   1.101   2.958   1.373 -0.0702  0.4272  0.3904
  865SOL    HW1 2731   1.127   2.947   1.465  0.2324  2.8730  0.6721
  865SOL    HW2 2732   1.184   2.957   1.325 -0.2345 -0.9367  0.0974
  866SOL     OW 2733   1.135   0.064   3.332 -0.3812  0.1207  0.7938
  866SOL    HW1 2734   1.171   0.152   3.334  0.0720 -0.0699  1.1685
  866SOL    HW2 2735   1.043   0.076   3.307  0.4635  0.4223 -2.6447
  867SOL     OW 2736   2.581   1.912   1.495 -0.2309 -0.4361  0.0448
  867SOL    HW1 2737   2.541   1.903   1.409 -0.4953 -0.1673  0.1344
  867SOL    HW2 2738   2.647   1.843   1.499 -0.6889 -0.8932 -0.1101
  868SOL     OW 2739   3.108   0.177   2.926  0.0103 -0.7713 -0.4836
  868SOL    HW1 2740   3.136   0.262   2.891 -1.1031 -0.3320 -0.3673
  868SOL    HW2 2741   3.147   0.113   2.867 -1.0005 -0.0852 -1.9587
  869SOL     OW 2742   2.869   1.388   0.375  0.5328 -0.0638  0.0937
  869SOL    HW1 2743   2.960   1.416   0.361  0.3883 -0.4836 -2.1830
  869SOL    HW2 2744   2.818   1.469   0.372  0.7029  0.0336 -0.2721
  870SOL     OW 2745   2.931   2.219   1.521  0.4770 -0.0383 -0.4601
  870SOL    HW1 2746   2.938   2.132   1.559 -0.6408  0.4761  1.0157
  870SOL    HW2 2747   3.007   2.267   1.554  1.6034 -0.6710 -2.0108
  871SOL     OW 2748   0.644   0.202   3.175 -0.4211  0.2021  0.3136
  871SOL    HW1 2749   0.683   0.289   3.184  0.7058 -0.1097 -1.2801
  871SOL    HW2 2750   0.550   0.217   3.188 -0.4284  1.9083 -1.2770
  872SOL     OW 2751   0.631   0.701   3.659 -0.1153  0.1221 -0.1960
  872SOL    HW1 2752   0.626   0.723   3.566 -1.8889 -0.7031 -0.3411
  872SOL    HW2 2753   0.540   0.698   3.688  0.4046  0.8072  1.6959
  873SOL     OW 2754   2.513   1.289   2.518 -0.0963  0.4528 -0.4301
  873SOL    HW1 2755   2.493   1.369   2.470  0.6309  0.4114 -0.8208
  873SOL    HW2 2756   2.455   1.223   2.480  0.4626  0.4224 -1.2604
  874SOL     OW 2757   1.293   0.280   3.227  0.0769  0.0379  0.0284
  874SOL    HW1 2758   1.201   0.302   3.242  0.6051  1.3031  1.9246
  874SOL    HW2 2759   1.305   0.288   3.133 -1.6946  0.0568 -0.2328
  875SOL     OW 2760   3.599   2.036   3.155 -0.1525  0.1372  0.1249
  875SOL    HW1 2761   3.685   2.073   3.132  0.2735 -1.6531 -1.3908
  875SOL    HW2 2762   3.561   2.010   3.071 -1.6444 -0.2462  0.8985
  876SOL     OW 2763   0.342   1.967   3.104  0.3107 -0.6839 -0.0787
  876SOL    HW1 2764   0.377   2.045   3.147  0.6939 -0.8144 -0.1453
  876SOL    HW2 2765   0.309   1.912   3.175 -1.1385  0.0970 -0.1168
  877SOL     OW 2766   2.490   2.561   2.254  0.0091  0.3611 -0.5550
  877SOL    HW1 2767   2.519   2.480   2.213  0.8495  0.6411 -0.5248
  877SOL    HW2 2768   2.414   2.535   2.307  2.8049 -1.4007  3.0768
  878SOL     OW 2769   3.401   3.513   2.245  0.0632  0.0638 -0.5172
  878SOL    HW1 2770   3.338   3.473   2.305  0.7409  0.2944  0.3604
  878SOL    HW2 2771   3.419   3.443   2.181 -0.4419 -0.2813 -0.2963
  879SOL     OW 2772   3.214   2.670   0.138 -0.1081  0.2248  0.1870
  879SOL    HW1 2773   3.180   2.610   0.205  0.4613  0.1051  0.3710
  879SOL    HW2 2774   3.239   2.748   0.187  1.2747 -0.2458  0.2771
  880SOL     OW 2775   0.355   2.770   0.082  0.4003  0.3048 -0.2425
  880SOL    HW1 2776   0.269   2.810   0.092 -0.1708 -1.0552  0.5026
  880SOL    HW2 2777   0.373   2.730   0.167 -0.3912 -3.5273 -1.6589
  881SOL     OW 2778   3.235   0.278   1.574  0.0366 -0.2306 -0.2276
  881SOL    HW1 2779   3.153   0.284   1.524  0.6910  0.5810 -1.2375
  881SOL    HW2 2780   3.275   0.196   1.544 -0.6478 -0.9252  0.6861
  882SOL     OW 2781   2.039   1.032   1.590 -0.1558  0.4716  0.4114
  882SOL    HW1 2782   2.008   0.961   1.533  0.1729  1.0495 -0.5027
  882SOL    HW2 2783   2.134   1.024   1.589 -0.1138  0.9578  0.2486
  883SOL     OW 2784   1.663   3.277   0.856  0.1395  0.7857 -0.3055
  883SOL    HW1 2785   1.572   3.301   0.870  0.2835  0.3156  1.7535
  883SOL    HW2 2786   1.713   3.338   0.910  0.8074 -0.8952  1.0668
  884SOL     OW 2787   2.990   1.540   3.165  0.2671 -0.1212 -0.3905
  884SOL    HW1 2788   3.057   1.499   3.109  0.2035 -0.1185 -0.4697
  884SOL    HW2 2789   2.967   1.471   3.227  0.0097 -0.2777 -0.6554
  885SOL     OW 2790   0.713   0.375   1.314  0.3143  0.0926  0.0431
  885SOL    HW1 2791   0.644   0.438   1.295  0.2254 -0.2354 -0.7711
  885SOL    HW2 2792   0.675   0.316   1.379  0.4506  0.9541  0.9253
  886SOL     OW 2793   3.115   1.197   2.499 -0.4039 -0.4043  0.3349
  886SOL    HW1 2794   3.182   1.265   2.493  0.8683 -1.5462  1.0374
  886SOL    HW2 2795   3.033   1.245   2.512  0.2414  1.0321 -0.6609
  887SOL     OW 2796   3.078   1.419   2.153  0.1679 -0.6467 -0.0363
  887SOL    HW1 2797   3.072   1.345   2.092  0.6686 -1.9722  1.4455
  887SOL    HW2 2798   3.171   1.424   2.175 -0.1303 -0.8415  1.3420
  888SOL     OW 2799   1.792   2.737   1.307 -0.3529  0.2806 -0.4373
  888SOL    HW1 2800   1.813   2.741   1.401  0.6109 -2.1940 -0.4768
  888SOL    HW2 2801   1.877   2.733   1.263 -0.7839  1.9757 -1.5046
  889SOL     OW 2802   1.545   0.359   3.466 -0.3947 -0.1419  0.3387
  889SOL    HW1 2803   1.540   0.363   3.561  2.4039 -0.1982  0.5595
  889SOL    HW2 2804   1.454   0.348   3.438 -1.1580 -1.6015  3.0492
  890SOL     OW 2805   3.030   0.527   2.665  0.3144 -0.5809  0.7983
  890SOL    HW1 2806   3.031   0.513   2.570  1.9955  1.2215  0.4829
  890SOL    HW2 2807   2.945   0.567   2.682  0.0643 -0.7557  0.0342
  891SOL     OW 2808   2.079   3.506   2.150  0.1923  0.0939 -0.4077
  891SOL    HW1 2809   2.024   3.431   2.173  1.5190 -0.4275  1.2650
  891SOL    HW2 2810   2.078   3.561   2.228  2.9191 -0.5183  0.1614
  892SOL     OW 2811   0.757   0.087   2.359  0.0536  0.5543  0.0422
  892SOL    HW1 2812   0.828   0.151   2.359  1.1810 -0.6553  1.4570
  892SOL    HW2 2813   0.693   0.123   2.421  0.2485  0.7427  0.1347
  893SOL     OW 2814   0.482   1.185   1.763 -0.3083 -0.4098 -0.2705
  893SOL    HW1 2815   0.566   1.189   1.809 -0.1358  2.7909 -0.6594
  893SOL    HW2 2816   0.435   1.113   1.806  1.3353 -0.1012  2.2912
  894SOL     OW 2817   1.712   1.531  -0.004  0.2995 -0.0211  0.1091
  894SOL    HW1 2818   1.632   1.490  -0.036  0.9487 -0.2637 -1.2931
  894SOL    HW2 2819   1.682   1.608   0.043 -0.7492  0.1701 -0.8175
  895SOL     OW 2820   3.693   0.334   3.398 -0.0412 -0.1259 -0.2135
  895SOL    HW1 2821   3.668   0.350   3.489  1.3169 -0.9464  0.3451
  895SOL    HW2 2822   3.755   0.405   3.378  0.4082 -0.4962 -0.1568
  896SOL     OW 2823   2.911   0.646   3.675  0.4945  0.6263 -0.2641
  896SOL    HW1 2824   2.899   0.672   3.584 -0.0710  0.8244 -0.1383
  896SOL    HW2 2825   2.922   0.728   3.722 -3.1029  0.8852  0.4044
  897SOL     OW 2826   1.573   1.165   3.254 -0.4983  0.1732 -0.0812
  897SOL    HW1 2827   1.595   1.162   3.347  0.2085 -2.4049 -0.2677
  897SOL    HW2 2828   1.479   1.152   3.251 -0.5730  0.6097  0.2828
  898SOL     OW 2829   0.791   1.775   3.395  0.1277  0.0373  0.4802
  898SOL    HW1 2830   0.722   1.775   3.329  0.0028  1.3734  0.5970
  898SOL    HW2 2831   0.776   1.855   3.445  1.5632  0.1659  0.7247
  899SOL     OW 2832   1.615   3.400   2.811  0.6894 -0.4342 -0.2571
  899SOL    HW1 2833   1.577   3.314   2.792 -2.2572  0.9010 -1.0745
  899SOL    HW2 2834   1.622   3.443   2.726  1.5337  0.3657  0.1943
  900SOL     OW 2835   3.099   3.334   0.211 -0.6135  0.5240 -0.6479
  900SOL    HW1 2836   3.190   3.321   0.185 -0.7729 -0.4923 -0.7249
  900SOL    HW2 2837   3.055   3.252   0.189 -1.7139  1.2472 -1.2918
  901SOL     OW 2838   2.068   0.615   0.527  0.2842  0.6872 -0.2678
  901SOL    HW1 2839   2.131   0.580   0.589 -0.0715 -1.0200 -0.8191
  901SOL    HW2 2840   2.121   0.656   0.459  0.6885  1.8098  0.6816
  902SOL     OW 2841   3.153   1.789   0.438 -0.5477 -0.7099 -0.2757
  902SOL    HW1 2842   3.179   1.731   0.510  0.1036 -0.1873 -0.0838
  902SOL    HW2 2843   3.064   1.817   0.461  0.0773  0.3723  0.9286
  903SOL     OW 2844   0.166   0.809   0.411  0.2094 -0.6226 -0.4680
  903SOL    HW1 2845   0.088   0.861   0.391  0.2991 -0.2089  0.2335
  903SOL    HW2 2846   0.231   0.838   0.347  1.0930  2.0570  1.4590
  904SOL     OW 2847   3.715   0.499   0.593  0.4392 -0.1613 -0.4807
  904SOL    HW1 2848   3.645   0.435   0.580  2.0986 -2.1536 -0.2120
  904SOL    HW2 2849   3.795   0.447   0.592  1.7532  1.5975  2.1133
  905SOL     OW 2850   2.340   2.036   0.431  0.1902  0.3772 -0.2166
  905SOL    HW1 2851   2.262   2.091   0.439  0.2452  0.1580  2.6059
  905SOL    HW2 2852   2.405   2.080   0.485  1.0511 -1.0872 -0.0419
  906SOL     OW 2853   0.721   2.211   2.262  0.2186  0.3912  0.3082
  906SOL    HW1 2854   0.702   2.142   2.198 -0.5148 -0.5860  1.5470
  906SOL    HW2 2855   0.715   2.292   2.211 -2.3929 -0.1962 -0.4731
  907SOL     OW 2856   3.450   3.354   0.444 -0.0252  0.3503  0.1726
  907SOL    HW1 2857   3.398   3.275   0.427 -0.1709  0.7335 -1.2504
  907SOL    HW2 2858   3.540   3.322   0.453 -0.4245 -0.2872  2.4000
  908SOL     OW 2859   3.515   1.855   2.090  0.0452  0.2572 -0.5445
  908SOL    HW1 2860   3.555   1.774   2.121  1.0265  1.9140  2.9615
  908SOL    HW2 2861   3.580   1.892   2.030  0.1680 -0.8753 -1.1385
  909SOL     OW 2862   2.270   3.439   0.710 -0.1962  0.1663  0.1365
  909SOL    HW1 2863   2.180   3.461   0.732 -0.1175 -1.2151  2.1709
  909SOL    HW2 2864   2.320   3.517   0.732 -0.8254  0.7867 -0.5948
  910SOL     OW 2865   2.405   1.027   3.598 -0.1531 -0.1914  0.5479
  910SOL    HW1 2866   2.395   1.103   3.540 -1.0032 -0.5801  0.1774
  910SOL    HW2 2867   2.467   0.970   3.553 -0.5763 -0.3526  0.1722
  911SOL     OW 2868   3.657   3.053   2.220 -0.1506 -0.2054 -0.0750
  911SOL    HW1 2869   3.682   3.105   2.297 -1.4776  0.9503 -0.3791
  911SOL    HW2 2870   3.672   3.112   2.146  1.0127 -1.2693 -0.7269
  912SOL     OW 2871   0.632   1.261   2.301  0.3249 -0.0943  0.2730
  912SOL    HW1 2872   0.696   1.262   2.230  0.7769 -2.4537  0.5632
  912SOL    HW2 2873   0.557   1.213   2.265  0.9054 -2.1137  1.5797
  913SOL     OW 2874   1.709   3.105   2.614 -0.5446 -0.2536 -0.4016
  913SOL    HW1 2875   1.648   3.104   2.688 -0.2212  2.1930 -0.0274
  913SOL    HW2 2876   1.767   3.030   2.630 -1.7046 -0.9486  0.7375
  914SOL     OW 2877   0.260   2.832   3.449 -0.9056 -0.2319  0.4540
  914SOL    HW1 2878   0.217   2.918   3.451 -0.4695  0.1204 -2.0201
  914SOL    HW2 2879   0.353   2.852   3.440 -0.7651 -0.9632  0.2369
  915SOL     OW 2880   2.676   1.178   0.385 -0.0681 -0.2225  0.1160
  915SOL    HW1 2881   2.754   1.229   0.366 -0.8274  0.8372 -0.2480
  915SOL    HW2 2882   2.604   1.241   0.382 -0.8130 -0.9144  1.7233
  916SOL     OW 2883   0.558   0.504   2.482 -0.1764  0.0556  0.6084
  916SOL    HW1 2884   0.555   0.534   2.391  1.9858 -0.9413  0.1386
  916SOL    HW2 2885   0.578   0.582   2.533  0.7825  0.2622 -0.0565
  917SOL     OW 2886   0.877   3.116   3.346  0.1775 -0.0180  0.1667
  917SOL    HW1 2887   0.951   3.056   3.348  2.0156  2.1275  2.5202
  917SOL    HW2 2888   0.909   3.192   3.296 -0.8739  0.4457  0.1623
  918SOL     OW 2889   2.639   0.729   2.229  0.5401 -0.1964  0.1587
  918SOL    HW1 2890   2.554   0.685   2.239  0.0943  1.0127  2.1741
  918SOL    HW2 2891   2.620   0.802   2.170 -0.0716  0.5915  1.2914
  919SOL     OW 2892   0.334   2.570   0.745 -0.0373  0.0823 -0.0614
  919SOL    HW1 2893   0.406   2.584   0.807 -0.9393 -1.7078  1.4966
  919SOL    HW2 2894   0.353   2.485   0.706 -1.5023 -0.6417  0.7313
  920SOL     OW 2895   2.087   2.296   1.372  0.1514 -0.1029 -0.0848
  920SOL    HW1 2896   2.014   2.241   1.344  1.0809 -1.2787 -0.2765
  920SOL    HW2 2897   2.092   2.285   1.467  0.0704 -0.0068 -0.0693
  921SOL     OW 2898   0.048   1.019   2.386  0.1686  0.4796  0.1604
  921SOL    HW1 2899   0.014   1.073   2.457  1.1642  0.6518  0.5171
  921SOL    HW2 2900   0.135   0.993   2.415  0.0966 -0.5020 -0.4449
  922SOL     OW 2901   2.369   3.442   1.022  0.7554 -0.2821  0.3975
  922SOL    HW1 2902   2.369   3.381   0.949  0.4586 -0.4500  0.5353
  922SOL    HW2 2903   2.459   3.472   1.029  0.6506  0.2853 -0.4957
  923SOL     OW 2904   2.062   3.189   0.692 -0.2796 -0.4407 -0.3162
  923SOL    HW1 2905   2.044   3.271   0.645 -1.1926 -0.9494 -0.8817
  923SOL    HW2 2906   2.004   3.125   0.652 -0.0740 -1.2189  0.5861
  924SOL     OW 2907   0.534   3.189   3.034  0.2660  0.5790 -0.4977
  924SOL    HW1 2908   0.507   3.148   2.952  2.6358  0.7352 -1.4400
  924SOL    HW2 2909   0.629   3.183   3.033  0.4380  2.0571  1.5011
  925SOL     OW 2910   2.559   0.783   1.961 -0.6560 -0.5901  0.2247
  925SOL    HW1 2911   2.590   0.818   1.877  1.4507 -0.3082  1.0626
  925SOL    HW2 2912   2.586   0.692   1.961  0.9337 -0.1669  1.2549
  926SOL     OW 2913   2.001   1.289   3.109 -0.1699  0.0045 -0.1813
  926SOL    HW1 2914   1.915   1.327   3.093 -0.9662 -1.8533 -0.5640
  926SOL    HW2 2915   2.052   1.310   3.031  0.1935  2.1939  0.5630
  927SOL     OW 2916   2.222   2.065   1.940  0.1124  0.2106 -0.1935
  927SOL    HW1 2917   2.288   2.043   2.006  0.1501 -0.8318 -0.5556
  927SOL    HW2 2918   2.140   2.030   1.976  0.3158 -1.3672 -1.1642
  928SOL     OW 2919   2.357   1.182   2.153  0.2979  0.0744 -0.3114
  928SOL    HW1 2920   2.449   1.201   2.138  0.7472 -1.0400  0.8750
  928SOL    HW2 2921   2.351   1.086   2.150 -0.6973  0.0997  0.2564
  929SOL     OW 2922   1.203   1.670   1.825 -0.2432  0.4946 -0.0217
  929SOL    HW1 2923   1.119   1.651   1.866 -0.3558  0.1813 -0.3845
  929SOL    HW2 2924   1.184   1.740   1.763 -0.0113  1.1821  0.6687
  930SOL     OW 2925   2.259   0.672   1.075  0.6041  0.0317 -0.2293
  930SOL    HW1 2926   2.284   0.649   0.985  1.1687  0.9780 -0.3244
  930SOL    HW2 2927   2.340   0.661   1.125  0.3790 -0.1332  0.0978
  931SOL     OW 2928   1.422   2.805   1.810  0.4898 -0.4419 -0.2438
  931SOL    HW1 2929   1.379   2.721   1.823  1.6393 -0.9806  0.1481
  931SOL    HW2 2930   1.374   2.846   1.737 -0.4715 -1.1527 -0.0144
  932SOL     OW 2931   3.583   0.777   0.666 -0.1820 -0.0206 -0.4045
  932SOL    HW1 2932   3.558   0.754   0.756 -0.4555  0.5093 -0.3417
  932SOL    HW2 2933   3.616   0.695   0.629  1.5445  0.1107  0.7097
  933SOL     OW 2934   3.014   1.005   0.492  0.6724  0.0227  0.0502
  933SOL    HW1 2935   3.086   1.047   0.537  0.0544  1.0403  0.1233
  933SOL    HW2 2936   2.955   1.077   0.469 -0.3703 -0.7964  0.0972
  934SOL     OW 2937   1.754   0.498   1.813 -0.0245 -0.7314 -0.0389
  934SOL    HW1 2938   1.661   0.517   1.796  0.9651  4.9345 -1.1605
  934SOL    HW2 2939   1.773   0.545   1.894  1.7269 -2.7545  0.7970
  935SOL     OW 2940   3.622   2.469   0.384 -0.3865  0.5191  0.2597
  935SOL    HW1 2941   3.682   2.434   0.450  0.9185  0.6237 -0.8483
  935SOL    HW2 2942   3.553   2.403   0.377  0.9605 -0.8909 -0.3146
  936SOL     OW 2943   3.617   1.902   1.534  0.4780  0.0432 -0.0983
  936SOL    HW1 2944   3.687   1.896   1.598  1.2186  0.7345 -0.8224
  936SOL    HW2 2945   3.661   1.918   1.451 -0.5799  1.9514 -0.3708
  937SOL     OW 2946   1.641   2.953   1.902  0.0458  0.0106 -0.2920
  937SOL    HW1 2947   1.675   2.884   1.959 -1.3391  0.0098  0.5794
  937SOL    HW2 2948   1.559   2.918   1.868 -0.1288  0.8014 -0.7092
  938SOL     OW 2949   3.721   3.251   2.403 -0.4537  0.1187 -0.2727
  938SOL    HW1 2950   3.716   3.221   2.494 -0.5635  1.9422  0.3500
  938SOL    HW2 2951   3.748   3.342   2.409  0.7738 -0.0744 -2.1437
  939SOL     OW 2952   0.257   3.343   2.152  0.0380  0.3070 -0.4640
  939SOL    HW1 2953   0.316   3.402   2.198 -0.1984  0.2438 -0.0740
  939SOL    HW2 2954   0.215   3.398   2.086  0.1833  0.4620 -0.4273
  940SOL     OW 2955   0.436   0.530   1.258 -0.2701 -0.1345 -0.0268
  940SOL    HW1 2956   0.369   0.463   1.272 -0.3804 -0.1127 -0.4431
  940SOL    HW2 2957   0.396   0.611   1.289 -0.8615  0.0793 -1.2925
  941SOL     OW 2958   0.528   0.920   2.273 -0.0305  0.2442  0.1144
  941SOL    HW1 2959   0.603   0.914   2.214  0.2443 -2.1309  0.6086
  941SOL    HW2 2960   0.560   0.970   2.348  0.6617  0.3603 -0.2566
  942SOL     OW 2961   3.029   3.091   0.116 -0.2121  0.7131  0.0626
  942SOL    HW1 2962   2.978   3.138   0.049  1.8421  2.6252 -0.2750
  942SOL    HW2 2963   3.102   3.053   0.068  0.1609  0.3147  0.9288
  943SOL     OW 2964   3.406   0.137   1.942 -0.0948  0.1380  0.5315
  943SOL    HW1 2965   3.377   0.204   2.004 -1.5403 -0.4875  0.5477
  943SOL    HW2 2966   3.460   0.186   1.879 -1.1267  1.3317  0.5313
  944SOL     OW 2967   2.128   1.510   1.909 -0.4616  0.2679  0.0714
  944SOL    HW1 2968   2.181   1.496   1.831 -0.5509  2.2054 -0.3888
  944SOL    HW2 2969   2.068   1.435   1.911 -1.4454  0.8821 -2.5679
  945SOL     OW 2970   3.327   1.780   0.733 -0.3323  0.2696  0.5972
  945SOL    HW1 2971   3.387   1.762   0.661  0.4874  1.6579  0.8909
  945SOL    HW2 2972   3.369   1.739   0.809 -0.0635  0.7141  0.6898
  946SOL     OW 2973   2.040   3.149   1.485  0.0059  0.1297  0.1961
  946SOL    HW1 2974   1.982   3.211   1.530 -1.8441 -0.5238 -1.1686
  946SOL    HW2 2975   2.026   3.166   1.392 -0.0309 -1.8477 -0.1980
  947SOL     OW 2976   0.696   2.568   3.288  0.6923 -0.5116 -0.4547
  947SOL    HW1 2977   0.744   2.651   3.296  1.5666 -0.9944 -0.6619
  947SOL    HW2 2978   0.727   2.516   3.362  1.7144 -1.4324 -1.4985
  948SOL     OW 2979   0.187   2.311   1.988  0.0231 -0.3055  0.2857
  948SOL    HW1 2980   0.177   2.220   2.016  1.1354 -0.6574 -0.3964
  948SOL    HW2 2981   0.103   2.332   1.946 -0.2368 -1.0159  0.4320
  949SOL     OW 2982   3.676   1.881   2.314 -0.0933  0.0471 -0.3891
  949SOL    HW1 2983   3.636   1.935   2.246 -2.2014 -1.9698 -0.8847
  949SOL    HW2 2984   3.604   1.826   2.346  1.5897 -1.3806  1.1598
  950SOL     OW 2985   1.111   1.492   3.385  0.1622  0.6022 -0.5198
  950SOL    HW1 2986   1.118   1.490   3.480  1.3089 -2.0649 -0.5664
  950SOL    HW2 2987   1.060   1.414   3.364 -0.6105  1.4842 -2.0952
  951SOL     OW 2988   0.372   0.686   0.029 -0.0937 -0.3700  0.0100
  951SOL    HW1 2989   0.280   0.670   0.005 -0.5121  1.0764  0.4855
  951SOL    HW2 2990   0.369   0.700   0.124 -0.0533  3.3080 -0.3750
  952SOL     OW 2991   2.571   2.045   3.744  0.3881  0.0902 -0.3609
  952SOL    HW1 2992   2.485   2.086   3.754  0.3562  0.1888 -1.0007
  952SOL    HW2 2993   2.602   2.076   3.658  0.2406 -1.4417 -0.9865
  953SOL     OW 2994   1.262   3.099   3.574  0.2162  0.2134  0.9804
  953SOL    HW1 2995   1.293   3.178   3.531 -0.0336 -1.1780 -2.0337
  953SOL    HW2 2996   1.168   3.097   3.557  0.4239 -1.3461 -0.2067
  954SOL     OW 2997   1.556   0.626   0.074 -0.1299 -0.0252  0.6152
  954SOL    HW1 2998   1.530   0.650   0.163 -0.5501  2.1393 -0.0519
  954SOL    HW2 2999   1.571   0.709   0.029 -2.5852 -0.8876 -2.1174
  955SOL     OW 3000   1.335   0.472   2.002  0.4520  0.3546  0.0471
  955SOL    HW1 3001   1.372   0.388   2.030 -0.0206 -0.3371 -1.3312
  955SOL    HW2 3002   1.399   0.508   1.941 -0.2669  0.0366 -0.9065
  956SOL     OW 3003   0.338   3.300   1.487  0.0218  0.1690  0.0570
  956SOL    HW1 3004   0.433   3.295   1.479  0.0883  0.1918  0.7720
  956SOL    HW2 3005   0.305   3.227   1.433  0.4184  0.3857 -0.4905
  957SOL     OW 3006   3.456   2.765   1.873  0.3542  0.3617  0.2201
  957SOL    HW1 3007   3.431   2.849   1.911 -0.9095  0.3645 -0.5698
  957SOL    HW2 3008   3.525   2.732   1.930 -0.5329  0.9960  1.7045
  958SOL     OW 3009   0.297   1.440   0.912  0.1613 -0.1640  0.6253
  958SOL    HW1 3010   0.320   1.356   0.953  2.5480 -0.2700 -0.7145
  958SOL    HW2 3011   0.273   1.497   0.986 -0.3113 -1.6621  1.6792
  959SOL     OW 3012   2.690   1.076   1.075  0.0382 -0.3145  0.1537
  959SOL    HW1 3013   2.727   1.163   1.087 -1.5790  0.1311  2.8954
  959SOL    HW2 3014   2.615   1.089   1.016 -0.2199  0.1697  0.5881
  960SOL     OW 3015   2.050   2.769   0.114  0.0543 -0.5021  0.8150
  960SOL    HW1 3016   1.968   2.755   0.162 -1.1566 -0.8201 -1.1935
  960SOL    HW2 3017   2.097   2.835   0.164 -2.8205  1.9837  0.5387
  961SOL     OW 3018   2.282   0.793   0.645 -0.9932  0.4513  0.3514
  961SOL    HW1 3019   2.282   0.888   0.652 -1.1233  0.4385  0.5071
  961SOL    HW2 3020   2.257   0.776   0.554 -0.3685  0.5807  0.1507
  962SOL     OW 3021   3.385   0.318   3.650 -0.2006 -0.3173 -0.0840
  962SOL    HW1 3022   3.404   0.379   3.579 -1.0517  0.5367  0.4127
  962SOL    HW2 3023   3.397   0.368   3.730 -0.4367 -0.9316  0.3499
  963SOL     OW 3024   0.473   2.242   1.609 -0.3153 -0.0360 -0.3034
  963SOL    HW1 3025   0.399   2.191   1.575  0.1449 -0.2180 -1.0510
  963SOL    HW2 3026   0.433   2.306   1.668 -1.0051 -0.5643 -0.1863
  964SOL     OW 3027   2.540   0.647   0.662 -0.2165 -0.0066 -0.3215
  964SOL    HW1 3028   2.527   0.568   0.609 -1.6011  0.0027 -0.0242
  964SOL    HW2 3029   2.474   0.708   0.630 -1.3115 -0.1140  1.6299
  965SOL     OW 3030   1.732   0.157   2.746  0.6159 -0.3222  0.0782
  965SOL    HW1 3031   1.797   0.170   2.678  2.1884  0.3917  1.6419
  965SOL    HW2 3032   1.747   0.068   2.778 -2.1076 -1.8689 -2.3893
  966SOL     OW 3033   0.607   3.521   3.670  0.1047 -0.0884 -0.1376
  966SOL    HW1 3034   0.598   3.615   3.655  1.1066  0.0042 -0.1975
  966SOL    HW2 3035   0.666   3.492   3.601 -1.0040 -0.9551 -0.7597
  967SOL     OW 3036   2.325   1.472   0.814  0.0103  0.1435 -0.5301
  967SOL    HW1 3037   2.279   1.546   0.855 -1.3578 -0.3297 -1.1551
  967SOL    HW2 3038   2.403   1.512   0.775 -0.4898  1.1968 -0.5073
  968SOL     OW 3039   1.647   1.153   2.527 -0.2859  0.7857 -0.3493
  968SOL    HW1 3040   1.611   1.126   2.442  1.5988  0.1122 -0.9851
  968SOL    HW2 3041   1.675   1.243   2.514 -0.1691  0.7447 -0.3809
  969SOL     OW 3042   2.046   3.499   2.425  0.0184 -0.3011 -0.2932
  969SOL    HW1 3043   2.000   3.533   2.501 -1.9617 -0.1043 -1.5059
  969SOL    HW2 3044   2.066   3.408   2.448 -0.5277 -0.2379  0.4603
  970SOL     OW 3045   1.439   0.789   2.467 -0.6930 -0.0290 -1.0829
  970SOL    HW1 3046   1.409   0.705   2.432 -1.7974  0.0819 -0.4209
  970SOL    HW2 3047   1.532   0.774   2.486 -1.3280 -1.8241  1.0566
  971SOL     OW 3048   0.440   0.542   1.953  0.6404  0.4439  0.8658
  971SOL    HW1 3049   0.488   0.564   2.033  2.9377 -1.7748  0.2053
  971SOL    HW2 3050   0.375   0.612   1.944  0.8025  1.1917  4.2201
  972SOL     OW 3051   1.816   2.872   2.914  0.3307  0.0815 -0.5236
  972SOL    HW1 3052   1.802   2.816   2.991  0.1726 -0.7613 -1.1552
  972SOL    HW2 3053   1.824   2.960   2.950  1.9341 -0.4917  0.6237
  973SOL     OW 3054   0.338   3.403   1.734  0.2073 -0.3487 -0.2588
  973SOL    HW1 3055   0.253   3.439   1.761 -0.9634 -1.9732 -1.5967
  973SOL    HW2 3056   0.330   3.391   1.640  1.4140 -1.8604 -0.1955
  974SOL     OW 3057   3.185   2.019   1.213  0.0420  1.0041  0.0922
  974SOL    HW1 3058   3.188   2.025   1.309  2.0152  2.4722 -0.0169
  974SOL    HW2 3059   3.146   2.101   1.185  0.6248  1.1069 -0.4165
  975SOL     OW 3060   2.386   2.238   0.016 -0.5128  0.7159 -0.5585
  975SOL    HW1 3061   2.399   2.333   0.013  1.4745  0.5715  0.9056
  975SOL    HW2 3062   2.333   2.224   0.094  0.9724  0.5466  0.4709
  976SOL     OW 3063   2.639   3.495   1.008  0.1073 -0.1786 -0.0649
  976SOL    HW1 3064   2.709   3.432   1.026 -0.5599 -0.8959  0.0981
  976SOL    HW2 3065   2.682   3.580   1.012  0.8655 -0.5714  0.5571
  977SOL     OW 3066   2.437   1.961   1.202  0.1246  0.0769  0.3394
  977SOL    HW1 3067   2.374   2.005   1.258 -1.8138 -1.9657 -0.1041
  977SOL    HW2 3068   2.445   1.873   1.239  1.5645 -0.1811 -0.5130
  978SOL     OW 3069   2.142   1.750   3.540  0.5234 -0.0149  0.4898
  978SOL    HW1 3070   2.160   1.835   3.501 -0.3776  0.5532  1.2633
  978SOL    HW2 3071   2.110   1.770   3.628  1.3227 -1.2053  1.0896
  979SOL     OW 3072   0.052   0.026   1.375 -0.7453 -0.8806 -0.1016
  979SOL    HW1 3073   0.109  -0.050   1.384  4.3784  2.5382  0.7890
  979SOL    HW2 3074   0.054   0.067   1.462 -0.7436  1.7396 -1.2554
  980SOL     OW 3075   2.952   2.488   2.403 -0.0727  0.0912 -0.6865
  980SOL    HW1 3076   3.026   2.509   2.460  0.0148 -0.6137 -0.5368
  980SOL    HW2 3077   2.974   2.532   2.320 -0.5804  1.7912  0.0327
  981SOL     OW 3078   2.059   3.279   1.227  1.0008  0.0190 -0.4193
  981SOL    HW1 3079   2.107   3.247   1.150 -0.2365 -0.4095 -1.0528
  981SOL    HW2 3080   2.012   3.357   1.195 -0.3670 -0.7724 -0.4299
  982SOL     OW 3081   1.489   0.583   1.817  0.0054  0.2022 -0.0763
  982SOL    HW1 3082   1.479   0.562   1.724  0.0692  1.4810 -0.3918
  982SOL    HW2 3083   1.423   0.651   1.834 -0.7986 -0.8238  1.1100
  983SOL     OW 3084   1.311   2.409   1.552  0.1181 -0.2101  0.1235
  983SOL    HW1 3085   1.351   2.350   1.488  1.0400  0.4094  0.1147
  983SOL    HW2 3086   1.379   2.423   1.618  0.2935  1.6381 -0.3997
  984SOL     OW 3087   2.893   3.049   2.251  1.1964 -0.3243 -0.6219
  984SOL    HW1 3088   2.846   2.975   2.290 -1.3746  1.4784 -0.0866
  984SOL    HW2 3089   2.875   3.042   2.157 -0.6774  0.6216 -0.3741
  985SOL     OW 3090   0.991   0.416   3.260  0.2366  0.2342  0.1579
  985SOL    HW1 3091   0.994   0.458   3.174 -0.1385  0.0707  0.0628
  985SOL    HW2 3092   0.899   0.423   3.286 -0.3358 -2.4489 -0.8132
  986SOL     OW 3093   2.347   1.450   2.918  1.0174  0.4346 -0.6743
  986SOL    HW1 3094   2.351   1.511   2.844  1.8050  0.3436 -0.7163
  986SOL    HW2 3095   2.253   1.434   2.931  0.8621  0.5257 -1.5872
  987SOL     OW 3096   1.999   1.809   0.061 -0.2178 -0.1643 -0.0648
  987SOL    HW1 3097   1.971   1.800   0.152 -0.5463  2.8837  0.2533
  987SOL    HW2 3098   2.029   1.900   0.054  0.6969 -0.5801 -2.7788
  988SOL     OW 3099   3.088   2.646   3.626  0.5259 -0.1649  0.4156
  988SOL    HW1 3100   3.134   2.712   3.575 -0.7468  0.1491 -0.3575
  988SOL    HW2 3101   3.139   2.639   3.707  0.0564  2.6251  1.0448
  989SOL     OW 3102   3.689   3.216   3.361 -0.6865  0.5748 -0.0666
  989SOL    HW1 3103   3.697   3.223   3.266 -0.8940 -1.0420 -0.2392
  989SOL    HW2 3104   3.719   3.127   3.381  2.0474  1.7654  1.7276
  990SOL     OW 3105   2.732   1.253   3.068  0.1543 -0.1332  0.6923
  990SOL    HW1 3106   2.664   1.293   3.122  0.2307  1.2801 -0.2193
  990SOL    HW2 3107   2.808   1.248   3.125  0.5493  2.3239  0.4667
  991SOL     OW 3108   1.974   0.012   3.648  0.4716  0.0915 -0.4961
  991SOL    HW1 3109   1.992   0.085   3.588 -1.1330  0.1340 -0.9707
  991SOL    HW2 3110   1.881   0.019   3.667  0.6163 -0.9076  0.7325
  992SOL     OW 3111   0.935   2.276   0.857 -0.1234 -0.2650  0.0951
  992SOL    HW1 3112   0.987   2.342   0.813  0.6323  0.0106  1.3528
  992SOL    HW2 3113   0.944   2.198   0.803  3.4656 -0.9071  1.3248
  993SOL     OW 3114   3.574   2.934   1.592 -0.6410  0.5264 -0.0326
  993SOL    HW1 3115   3.525   3.012   1.616 -0.7275  0.2773  0.6173
  993SOL    HW2 3116   3.507   2.870   1.566 -0.5471  0.8105 -1.0224
  994SOL     OW 3117   1.049   2.350   2.508  0.4308  0.0257  0.2159
  994SOL    HW1 3118   1.084   2.269   2.472  0.7729 -0.1955  1.0151
  994SOL    HW2 3119   1.113   2.377   2.574 -1.2331 -0.8289  2.3161
  995SOL     OW 3120   1.370   0.224   1.580  0.0980  0.4751  0.8760
  995SOL    HW1 3121   1.451   0.246   1.626  1.4734  0.1437 -1.2700
  995SOL    HW2 3122   1.386   0.250   1.490 -2.0807  0.0655  0.3231
  996SOL     OW 3123   2.229   0.459   0.707 -0.5861  0.1892  0.3803
  996SOL    HW1 3124   2.281   0.494   0.779  1.9732 -1.8240 -0.3473
  996SOL    HW2 3125   2.174   0.393   0.747  0.3900 -0.5001  0.6138
  997SOL     OW 3126   0.557   1.350   1.100 -0.7094  0.2411 -0.6435
  997SOL    HW1 3127   0.485   1.367   1.160 -0.4865  1.0008 -0.5827
  997SOL    HW2 3128   0.636   1.375   1.149 -0.4493 -0.0133 -0.9211
  998SOL     OW 3129   2.132   2.957   0.290 -0.3647 -0.1803 -0.2744
  998SOL    HW1 3130   2.047   2.950   0.335 -1.9846 -0.9649 -3.2299
  998SOL    HW2 3131   2.155   3.050   0.298  0.3431 -0.4966  3.4755
  999SOL     OW 3132   3.146   1.947   2.428 -0.2014  0.2447 -0.1981
  999SOL    HW1 3133   3.106   1.931   2.514 -1.9781  0.1290 -1.0015
  999SOL    HW2 3134   3.137   2.041   2.414  1.9416  0.6133  0.5800
 1000SOL     OW 3135   2.111   3.708   1.372  0.5373 -0.3598 -0.2083
 1000SOL    HW1 3136   2.157   3.711   1.456 -0.7283 -0.8249  0.5268
 1000SOL    HW2 3137   2.148   3.632   1.327 -0.8527 -1.9725  1.2281
 1001SOL     OW 3138   0.420   3.617   0.134 -0.9185  0.5945  0.0778
 1001SOL    HW1 3139   0.487   3.666   0.182 -0.2063 -0.9527  0.7223
 1001SOL    HW2 3140   0.465   3.586   0.056 -0.1197 -2.3513  1.5708
 1002SOL     OW 3141   2.647   2.208   3.360 -0.5791 -0.3765 -0.3472
 1002SOL    HW1 3142   2.714   2.209   3.429  0.4051 -0.6475 -1.2589
 1002SOL    HW2 3143   2.598   2.289   3.372  0.1679  0.0198  0.1111
 1003SOL     OW 3144   3.502   3.207   0.814 -0.0128 -0.3728  0.2641
 1003SOL    HW1 3145   3.407   3.215   0.801 -0.1704  1.1863  1.9620
 1003SOL    HW2 3146   3.511   3.147   0.888  0.2783  0.2096  0.7038
 1004SOL     OW 3147   2.675   2.839   1.284 -0.3524  0.0304  0.4250
 1004SOL    HW1 3148   2.614   2.806   1.350 -1.8698 -0.8676 -1.3209
 1004SOL    HW2 3149   2.725   2.762   1.258  0.4365  0.4399  0.7032
 1005SOL     OW 3150   0.228   3.585   2.640 -0.3567 -0.5730  0.2650
 1005SOL    HW1 3151   0.208   3.662   2.694  1.0085 -0.1356  0.1863
 1005SOL    HW2 3152   0.241   3.620   2.552 -1.6715 -1.1685 -0.1954
 1006SOL     OW 3153   2.206   1.243   2.545  0.4081  0.4402  0.3934
 1006SOL    HW1 3154   2.236   1.320   2.593  1.4929  0.7076 -0.6471
 1006SOL    HW2 3155   2.251   1.170   2.587 -0.7774  0.3302  1.5098
 1007SOL     OW 3156   0.184   1.541   2.949  0.4397 -0.6508 -0.3300
 1007SOL    HW1 3157   0.133   1.571   3.024 -0.5973 -0.8761 -0.9194
 1007SOL    HW2 3158   0.149   1.591   2.875  0.7659 -1.1446 -0.8239
 1008SOL     OW 3159   2.686   0.105   2.284  0.7024 -0.1994  0.1206
 1008SOL    HW1 3160   2.781   0.095   2.290  0.5414 -1.4646  1.0573
 1008SOL    HW2 3161   2.673   0.172   2.217  2.2253 -0.5047 -0.5212
 1009SOL     OW 3162   2.392   3.288   2.597  0.1265 -0.7690 -0.0453
 1009SOL    HW1 3163   2.354   3.313   2.513 -1.4654 -1.3996  0.4401
 1009SOL    HW2 3164   2.354   3.349   2.660  1.7619  0.0754  0.1688
 1010SOL     OW 3165   0.432   2.218   3.261  0.2208 -0.0902 -0.4804
 1010SOL    HW1 3166   0.490   2.278   3.214  1.0966 -0.7602 -0.2853
 1010SOL    HW2 3167   0.393   2.271   3.330  1.9147 -0.0004  0.4664
 1011SOL     OW 3168   1.267   3.263   1.432  0.2888  0.5388 -0.2665
 1011SOL    HW1 3169   1.178   3.227   1.440  0.3911  0.2311 -0.4915
 1011SOL    HW2 3170   1.262   3.348   1.477  0.0999  0.1542  0.4618
 1012SOL     OW 3171   2.068   0.764   0.839 -0.4311  0.2894  0.2436
 1012SOL    HW1 3172   2.145   0.734   0.790 -0.3732 -0.5625  0.8274
 1012SOL    HW2 3173   2.020   0.819   0.777  0.8616  1.2016  0.0134
 1013SOL     OW 3174   3.303   2.456   0.539  0.0272 -0.2777  0.3129
 1013SOL    HW1 3175   3.349   2.377   0.511  2.0585  0.8491  0.2305
 1013SOL    HW2 3176   3.373   2.515   0.567 -1.4283  1.4817  0.3962
 1014SOL     OW 3177   0.824   0.662   2.977 -0.6526  0.0686  0.3872
 1014SOL    HW1 3178   0.806   0.665   2.883  1.1793  0.6945  0.0139
 1014SOL    HW2 3179   0.750   0.614   3.014 -1.8513  0.5632 -1.2488
 1015SOL     OW 3180   1.808   2.283   0.470 -0.5478  0.1766  0.3235
 1015SOL    HW1 3181   1.777   2.195   0.448 -2.2741  0.5724  1.0003
 1015SOL    HW2 3182   1.807   2.330   0.387 -2.0650  0.2296  0.3328
 1016SOL     OW 3183   2.764   2.934   3.671 -0.2372 -0.0922 -0.2370
 1016SOL    HW1 3184   2.693   2.878   3.639 -0.5066  0.5990 -0.8756
 1016SOL    HW2 3185   2.723   3.019   3.683  0.0998 -0.0883  1.0055
 1017SOL     OW 3186   0.865   0.445   2.611 -0.8400  0.3426  0.3950
 1017SOL    HW1 3187   0.862   0.524   2.558 -0.6928  0.6007  0.7615
 1017SOL    HW2 3188   0.893   0.376   2.551  1.6164  1.0594  0.5917
 1018SOL     OW 3189   1.848   0.048   3.385 -0.0880  0.2403  0.1583
 1018SOL    HW1 3190   1.869   0.075   3.295 -3.0304 -0.0666 -0.7376
 1018SOL    HW2 3191   1.836   0.131   3.432 -1.4109  0.4752 -0.5427
 1019SOL     OW 3192   0.004   2.285   1.750 -0.0392  0.3484 -0.4771
 1019SOL    HW1 3193  -0.055   2.360   1.760 -0.0655  0.1370  1.3092
 1019SOL    HW2 3194   0.069   2.314   1.686 -0.0030  1.9365  0.2297
 1020SOL     OW 3195   0.223   1.728   0.637 -0.4164  0.3762  0.5650
 1020SOL    HW1 3196   0.296   1.699   0.583 -0.3534 -0.0798  0.8961
 1020SOL    HW2 3197   0.189   1.649   0.678  0.6456  0.8911  2.5778
 1021SOL     OW 3198   0.286   1.789   1.911  0.4042  0.4704 -0.1475
 1021SOL    HW1 3199   0.320   1.853   1.849  1.5596 -0.3625 -0.4103
 1021SOL    HW2 3200   0.294   1.831   1.997  1.8192  0.4351 -0.2415
 1022SOL     OW 3201   3.608   3.014   1.010  0.0214  0.5936  0.0066
 1022SOL    HW1 3202   3.531   3.041   1.060 -0.7948  0.0400 -0.9093
 1022SOL    HW2 3203   3.669   2.979   1.076 -0.5301  0.9794  0.7337
 1023SOL     OW 3204   3.329   1.009   3.017  0.1233 -0.1119  0.2737
 1023SOL    HW1 3205   3.399   0.958   2.978  0.0870 -1.9497  2.4087
 1023SOL    HW2 3206   3.250   0.980   2.971  0.3536 -0.5476  0.1495
 1024SOL     OW 3207   2.033   3.335   3.485  0.0677 -0.6440  0.4992
 1024SOL    HW1 3208   2.071   3.344   3.572 -0.4779  0.2223  0.6708
 1024SOL    HW2 3209   1.946   3.297   3.501 -1.0928  1.8670  0.6402
 1025SOL     OW 3210   3.673   2.874   0.759  0.3763 -0.1000  0.3838
 1025SOL    HW1 3211   3.671   2.923   0.841  0.7688 -1.0959  1.0120
 1025SOL    HW2 3212   3.692   2.784   0.786 -1.1348 -0.7587 -0.6574
 1026SOL     OW 3213   2.792   1.267   2.545 -0.0395 -0.7934  0.0191
 1026SOL    HW1 3214   2.717   1.242   2.492 -1.9388  0.5674  1.8995
 1026SOL    HW2 3215   2.755   1.292   2.629  2.4989  0.3535  0.9060
 1027SOL     OW 3216   1.382   2.672   3.207  0.4411  0.1729  0.7333
 1027SOL    HW1 3217   1.352   2.729   3.277 -0.3945 -1.2350  1.5530
 1027SOL    HW2 3218   1.447   2.616   3.248  1.5035  0.7095 -0.1469
 1028SOL     OW 3219   0.484   1.904   3.729  1.0682 -0.2118 -0.0207
 1028SOL    HW1 3220   0.422   1.883   3.798  0.7758  0.4177 -0.0855
 1028SOL    HW2 3221   0.430   1.932   3.655  1.4074 -0.1319 -0.2464
 1029SOL     OW 3222   0.189   0.050   1.729 -0.2652 -0.0338 -0.0817
 1029SOL    HW1 3223   0.138  -0.031   1.733  0.0492 -0.1685  1.6788
 1029SOL    HW2 3224   0.146   0.109   1.790  0.6598  0.4555  0.1103
 1030SOL     OW 3225   0.956   0.461   0.328 -0.0414  0.0303  0.1660
 1030SOL    HW1 3226   0.936   0.540   0.277  0.3173  0.0939  0.1194
 1030SOL    HW2 3227   0.909   0.473   0.410  0.7755  0.7440  0.5443
 1031SOL     OW 3228   0.150   2.113   0.368  0.3727 -0.0418  0.0131
 1031SOL    HW1 3229   0.206   2.071   0.432 -0.3664 -0.5182  0.3685
 1031SOL    HW2 3230   0.066   2.125   0.414 -0.1874 -0.4550 -0.8718
 1032SOL     OW 3231   0.586   2.129   1.247 -0.0782 -0.4756  0.1871
 1032SOL    HW1 3232   0.544   2.060   1.196 -0.8038 -0.3886  0.6568
 1032SOL    HW2 3233   0.593   2.203   1.187 -3.3909  0.5677  0.8922
 1033SOL     OW 3234   0.979   1.510   2.762  0.1738  0.1779 -0.1692
 1033SOL    HW1 3235   1.023   1.551   2.836  0.5983 -0.3400 -0.1347
 1033SOL    HW2 3236   0.898   1.561   2.751  0.2941  0.4939  0.4027
 1034SOL     OW 3237   0.280   2.563   0.308 -0.6574 -0.1136 -0.1355
 1034SOL    HW1 3238   0.263   2.482   0.260  0.1581  0.7420 -1.9637
 1034SOL    HW2 3239   0.203   2.618   0.292  0.0211  0.5297 -1.2917
 1035SOL     OW 3240   0.696   3.606   1.440  0.4526 -0.8456 -0.2358
 1035SOL    HW1 3241   0.735   3.610   1.352  2.2849 -1.7170  0.4738
 1035SOL    HW2 3242   0.771   3.616   1.499 -0.7019 -0.6234  1.2422
 1036SOL     OW 3243   1.436   3.234   2.285  0.6838  0.0215 -0.5458
 1036SOL    HW1 3244   1.366   3.180   2.249  0.0300 -0.0591  0.7898
 1036SOL    HW2 3245   1.461   3.291   2.212 -2.6246  1.9273 -0.4150
 1037SOL     OW 3246   0.891   1.957   0.877 -0.8876  0.4463  0.2080
 1037SOL    HW1 3247   0.884   1.921   0.788 -1.4370  0.2720  0.3202
 1037SOL    HW2 3248   0.801   1.957   0.910 -0.8368  1.5499  0.3635
 1038SOL     OW 3249   2.941   3.521   1.358 -0.7230  0.3987  0.1570
 1038SOL    HW1 3250   2.860   3.503   1.405 -0.4477 -0.0462  0.4695
 1038SOL    HW2 3251   3.010   3.498   1.420 -0.3509 -0.9005 -0.7047
 1039SOL     OW 3252   0.233   2.935   2.470 -0.1099 -0.0544 -0.3069
 1039SOL    HW1 3253   0.173   2.996   2.513  0.7075 -0.0166  0.8390
 1039SOL    HW2 3254   0.176   2.875   2.422 -0.8953  2.2970 -2.5014
 1040SOL     OW 3255   2.892   0.880   1.850 -0.1615  0.1852  0.7193
 1040SOL    HW1 3256   2.886   0.862   1.756 -3.5044  2.3901  0.3299
 1040SOL    HW2 3257   2.910   0.795   1.890  0.3220 -0.9942 -1.8180
 1041SOL     OW 3258   2.320   2.645   1.077  0.4776  0.0973  0.3327
 1041SOL    HW1 3259   2.379   2.569   1.072  2.3900  1.4002  1.4665
 1041SOL    HW2 3260   2.292   2.647   1.168 -0.1913  0.3185  0.1234
 1042SOL     OW 3261   3.150   1.631   2.865 -0.1149 -0.1172  0.8091
 1042SOL    HW1 3262   3.102   1.598   2.789 -0.2345  1.7834 -0.0031
 1042SOL    HW2 3263   3.135   1.565   2.933 -1.0693 -1.2389 -0.4236
 1043SOL     OW 3264   0.252   0.747   1.958  0.0148 -0.2696  0.3394
 1043SOL    HW1 3265   0.192   0.781   1.892 -0.9516 -0.8593  0.8727
 1043SOL    HW2 3266   0.304   0.822   1.985  0.6492 -0.0851 -1.2975
 1044SOL     OW 3267   0.375   2.015   2.450 -0.1575 -0.5366  0.4683
 1044SOL    HW1 3268   0.380   2.109   2.429 -0.6986 -0.4488  0.7250
 1044SOL    HW2 3269   0.467   1.988   2.455  0.0688  0.3644  1.9940
 1045SOL     OW 3270   1.358   1.585   2.006 -0.5689  0.0375  0.5270
 1045SOL    HW1 3271   1.294   1.629   1.950 -1.2978  0.1140  1.3899
 1045SOL    HW2 3272   1.395   1.516   1.951  0.8187  1.8487 -0.9648
 1046SOL     OW 3273   0.562   2.446   0.087 -0.6886  0.1337  0.0957
 1046SOL    HW1 3274   0.572   2.352   0.073 -0.3197  0.1577  0.1762
 1046SOL    HW2 3275   0.518   2.453   0.172 -3.5477 -0.0246 -1.2767
 1047SOL     OW 3276  -0.013   1.911   1.924  0.6750  0.4064 -0.3965
 1047SOL    HW1 3277   0.043   1.988   1.912  1.7443 -0.3810 -0.6050
 1047SOL    HW2 3278   0.034   1.841   1.879  0.3864 -0.6649  0.9466
 1048SOL     OW 3279   2.404   0.041   0.914 -0.0347 -0.1794 -0.1897
 1048SOL    HW1 3280   2.466  -0.016   0.869 -1.6249 -1.0957 -1.3256
 1048SOL    HW2 3281   2.348   0.075   0.844 -1.0363  0.3414  0.8400
 1049SOL     OW 3282   0.747   2.272   1.080 -0.5198 -0.1942 -0.2075
 1049SOL    HW1 3283   0.822   2.273   1.021  0.9811  1.4123  1.6248
 1049SOL    HW2 3284   0.702   2.355   1.063 -1.3776 -0.7190 -0.6099
 1050SOL     OW 3285   3.660   1.852   0.772  0.6507  0.1450  0.1121
 1050SOL    HW1 3286   3.692   1.762   0.767  2.2322  0.6677  0.1207
 1050SOL    HW2 3287   3.617   1.868   0.689  0.8006 -0.4755 -0.0864
 1051SOL     OW 3288   0.006   3.040   0.115 -0.7969 -0.1889 -0.4002
 1051SOL    HW1 3289  -0.002   3.120   0.064  1.3156  1.5295  1.7347
 1051SOL    HW2 3290   0.012   2.970   0.050 -0.1481  1.6553 -2.4374
 1052SOL     OW 3291   3.428   1.100   1.059  0.3578 -1.0160  0.7020
 1052SOL    HW1 3292   3.402   1.123   0.969  2.0201  0.6032  0.5732
 1052SOL    HW2 3293   3.405   1.007   1.067 -1.1321 -0.8445 -0.8930
 1053SOL     OW 3294   3.397   1.193   3.424  0.7073 -0.0825 -0.2019
 1053SOL    HW1 3295   3.413   1.236   3.508 -0.5391 -1.6125  0.8736
 1053SOL    HW2 3296   3.480   1.202   3.377  1.8383 -0.2369  1.6703
 1054SOL     OW 3297   0.826   2.931   2.212  0.1613 -0.1945 -0.0576
 1054SOL    HW1 3298   0.860   2.886   2.289  0.1091  2.5261  1.6834
 1054SOL    HW2 3299   0.850   2.874   2.139  2.9771 -1.4268  1.6462
 1055SOL     OW 3300   1.834   0.728   2.328  0.1357 -0.1315  0.4244
 1055SOL    HW1 3301   1.765   0.667   2.303 -0.7726  0.6851  0.8980
 1055SOL    HW2 3302   1.912   0.696   2.283 -1.2682  0.9644 -3.0585
 1056SOL     OW 3303   2.971   3.637   3.448 -0.3323 -0.3370 -0.0759
 1056SOL    HW1 3304   2.979   3.591   3.365 -2.7136  0.7856 -1.0102
 1056SOL    HW2 3305   2.882   3.619   3.478  0.2025 -0.0557  1.8578
 1057SOL     OW 3306   3.340   2.495   1.431  0.7586  0.3953 -0.0996
 1057SOL    HW1 3307   3.326   2.586   1.457 -1.2579 -0.3938  1.8663
 1057SOL    HW2 3308   3.429   2.475   1.461  1.7779  2.0261 -1.7766
 1058SOL     OW 3309   0.089   3.187   1.945 -0.1646  0.1150  0.2949
 1058SOL    HW1 3310   0.094   3.233   2.029 -1.8703  1.6682 -0.3957
 1058SOL    HW2 3311   0.181   3.170   1.922  0.3966  0.8698  1.7994
 1059SOL     OW 3312   1.435   1.464   2.441  0.7052  0.7142  0.2710
 1059SOL    HW1 3313   1.346   1.491   2.462  0.4690  0.6873 -0.6931
 1059SOL    HW2 3314   1.425   1.392   2.379  1.3219 -1.3846  2.4281
 1060SOL     OW 3315   3.150   2.312   3.143 -0.2054  0.0660  0.6402
 1060SOL    HW1 3316   3.142   2.257   3.065  2.6049 -0.3249  0.5065
 1060SOL    HW2 3317   3.064   2.353   3.153 -0.7043  0.0618 -2.6096
 1061SOL     OW 3318   3.071   3.154   1.141  0.0265 -0.2972 -0.5795
 1061SOL    HW1 3319   3.079   3.109   1.225 -3.3095  1.8264  1.1223
 1061SOL    HW2 3320   2.996   3.112   1.099  1.3058 -0.9429 -2.3154
 1062SOL     OW 3321   2.941   1.267   0.151  0.8694 -0.0959  0.0629
 1062SOL    HW1 3322   2.918   1.310   0.233 -1.0090 -1.7053  0.4630
 1062SOL    HW2 3323   3.033   1.244   0.160  1.3830  1.9956  0.6297
 1063SOL     OW 3324   0.208   0.341   1.789  0.5575  0.1377  0.1735
 1063SOL    HW1 3325   0.236   0.399   1.718  0.6662  0.2698  0.3234
 1063SOL    HW2 3326   0.171   0.400   1.855  0.4478  0.0149  0.2204
 1064SOL     OW 3327   3.459   2.927   2.474 -0.0241 -0.3265 -0.0519
 1064SOL    HW1 3328   3.467   2.834   2.494 -0.4926 -0.5220 -0.7182
 1064SOL    HW2 3329   3.385   2.957   2.526 -0.3462 -0.5037 -0.4043
 1065SOL     OW 3330   2.488   1.892   3.111 -0.0495 -0.2148 -0.2436
 1065SOL    HW1 3331   2.502   1.893   3.017 -1.5870  0.8281 -0.4965
 1065SOL    HW2 3332   2.455   1.804   3.130 -2.9705  0.5482 -1.2719
 1066SOL     OW 3333   0.912   3.103   2.706 -0.3435  0.0025 -0.2231
 1066SOL    HW1 3334   0.944   3.136   2.622  0.2802 -2.5239 -1.0728
 1066SOL    HW2 3335   0.957   3.156   2.772  1.7842 -0.1481 -1.4659
 1067SOL     OW 3336   1.429   0.232   2.101  0.2122 -0.6289 -0.2004
 1067SOL    HW1 3337   1.416   0.146   2.059  2.1912 -1.2758  0.4208
 1067SOL    HW2 3338   1.513   0.225   2.145  0.8788  1.9657 -0.8877
 1068SOL     OW 3339   3.059   3.039   2.668  0.2224  0.6798 -0.3207
 1068SOL    HW1 3340   3.123   3.103   2.701  1.5851 -0.2437 -1.0684
 1068SOL    HW2 3341   3.038   2.985   2.744  1.3597  0.1812 -0.3361
 1069SOL     OW 3342   1.799   3.514   0.980  0.2993 -0.2497  0.0930
 1069SOL    HW1 3343   1.721   3.555   1.015  1.7286  2.5009  0.3762
 1069SOL    HW2 3344   1.860   3.510   1.054  1.5831  0.9399 -0.8338
 1070SOL     OW 3345   3.382   2.258   0.204  0.2606  0.2446 -0.1369
 1070SOL    HW1 3346   3.292   2.268   0.234  0.6651  2.1747  0.6051
 1070SOL    HW2 3347   3.405   2.344   0.167  2.3305  0.3747  1.2875
 1071SOL     OW 3348   2.491   3.066   3.332 -0.3746 -0.5559 -0.2146
 1071SOL    HW1 3349   2.579   3.034   3.315 -0.1503  0.5306 -1.2184
 1071SOL    HW2 3350   2.434   3.012   3.277 -0.1858 -0.4137 -0.5535
 1072SOL     OW 3351   0.118   2.823   2.154  0.3619 -0.4410 -0.5435
 1072SOL    HW1 3352   0.152   2.901   2.198 -2.1786  0.3746  0.1514
 1072SOL    HW2 3353   0.093   2.853   2.066 -2.5434  0.2017  0.3756
 1073SOL     OW 3354   1.519   1.610   1.532 -0.4070 -0.2234 -0.2013
 1073SOL    HW1 3355   1.519   1.641   1.442  0.9739 -2.4660 -1.0567
 1073SOL    HW2 3356   1.586   1.662   1.576 -1.9475  1.7671 -0.0390
 1074SOL     OW 3357   3.535   1.344   3.694  0.4688  0.1036 -0.2600
 1074SOL    HW1 3358   3.587   1.424   3.687 -1.8405  1.9248  1.5090
 1074SOL    HW2 3359   3.569   1.300   3.771  0.2375  0.6551  0.1686
 1075SOL     OW 3360   0.182   1.219   2.072  0.2305  0.2730  0.0153
 1075SOL    HW1 3361   0.128   1.235   2.150 -0.1564 -1.3602  0.1091
 1075SOL    HW2 3362   0.223   1.304   2.054 -0.8449  1.0621  1.0983
 1076SOL     OW 3363   3.526   0.069   3.686 -0.0648 -0.5363  0.3999
 1076SOL    HW1 3364   3.437   0.105   3.691 -0.4173 -1.2164 -0.6577
 1076SOL    HW2 3365   3.517  -0.011   3.634  1.1955 -0.5416  0.1512
 1077SOL     OW 3366   2.398   1.259   3.412 -0.8032  0.5921 -0.0402
 1077SOL    HW1 3367   2.396   1.351   3.385 -1.2741 -0.0497 -2.4481
 1077SOL    HW2 3368   2.370   1.211   3.334  1.2094 -1.7374  0.5601
 1078SOL     OW 3369   2.828   2.455   3.210  0.6394 -0.3300 -0.0294
 1078SOL    HW1 3370   2.789   2.464   3.297  0.8607  1.2904 -0.0516
 1078SOL    HW2 3371   2.787   2.378   3.172 -1.7079  0.6338  0.3721
 1079SOL     OW 3372   1.566   2.101   1.572 -0.5063  0.0367 -0.2059
 1079SOL    HW1 3373   1.601   2.162   1.636 -0.8901 -1.2299  1.2546
 1079SOL    HW2 3374   1.534   2.157   1.501 -0.0734  1.4702  0.6838
 1080SOL     OW 3375   1.644   0.822   3.663 -0.2290 -0.4345  0.0463
 1080SOL    HW1 3376   1.608   0.827   3.575  0.0745  0.1260 -0.0468
 1080SOL    HW2 3377   1.736   0.849   3.653 -0.5344  0.9470  0.7456
 1081SOL     OW 3378   1.724   0.101   3.114 -0.8965  0.3190  0.1564
 1081SOL    HW1 3379   1.640   0.055   3.116 -0.9403  0.3325 -0.8946
 1081SOL    HW2 3380   1.701   0.194   3.121 -0.9432  0.3045  0.1958
 1082SOL     OW 3381   2.667   3.091   1.193  0.5123 -0.1943  0.3315
 1082SOL    HW1 3382   2.691   3.032   1.265  2.7124 -0.2462 -0.3583
 1082SOL    HW2 3383   2.573   3.106   1.204  0.2126 -2.4880  1.5121
 1083SOL     OW 3384   2.407   0.051   2.350  0.0048  0.1087 -0.4987
 1083SOL    HW1 3385   2.502   0.061   2.344  0.0211 -0.1850 -0.7508
 1083SOL    HW2 3386   2.389   0.050   2.444  0.2578  0.0878 -0.4495
 1084SOL     OW 3387   3.571   0.404   3.157 -0.4284 -0.0161  0.0055
 1084SOL    HW1 3388   3.496   0.360   3.118  0.0370 -0.2411 -0.6599
 1084SOL    HW2 3389   3.579   0.366   3.244 -2.1575  1.2781  0.7920
 1085SOL     OW 3390   0.585   2.773   2.928  0.1488  0.5561  0.1482
 1085SOL    HW1 3391   0.582   2.728   3.012  1.4077  1.3192  0.6306
 1085SOL    HW2 3392   0.658   2.733   2.881 -0.0255  0.6950 -0.2500
 1086SOL     OW 3393   1.357   3.571   2.804  0.0051 -0.6324  0.0387
 1086SOL    HW1 3394   1.424   3.512   2.772  0.3483 -0.1158 -0.2190
 1086SOL    HW2 3395   1.350   3.638   2.736 -0.6030 -0.5527  0.1741
 1087SOL     OW 3396   3.409   2.986   2.791 -0.4591 -0.5006 -0.8673
 1087SOL    HW1 3397   3.476   2.998   2.859 -0.2711 -2.1894 -0.7180
 1087SOL    HW2 3398   3.409   3.069   2.744  0.9913 -0.0736 -0.1981
 1088SOL     OW 3399   2.576   0.900   1.708  0.6835 -0.7707  0.2985
 1088SOL    HW1 3400   2.496   0.936   1.668  0.7054 -2.9476 -1.9541
 1088SOL    HW2 3401   2.646   0.958   1.677  0.3694 -0.9257 -0.7578
 1089SOL     OW 3402   2.501   0.287   0.998  0.4260  0.4443  0.0835
 1089SOL    HW1 3403   2.476   0.281   1.091 -1.0646  2.0608 -0.1650
 1089SOL    HW2 3404   2.467   0.207   0.959  1.3992 -0.4369  0.9772
 1090SOL     OW 3405   2.744   2.828   0.736  0.5963 -0.0270 -0.0042
 1090SOL    HW1 3406   2.672   2.892   0.734  0.3946 -0.1488  1.8587
 1090SOL    HW2 3407   2.724   2.772   0.811  2.0923 -0.7358 -0.1075
 1091SOL     OW 3408   0.494   0.320   3.693 -0.9722 -0.4273  0.3272
 1091SOL    HW1 3409   0.402   0.345   3.684 -0.3056  1.8542 -0.8256
 1091SOL    HW2 3410   0.524   0.365   3.771 -1.3893 -3.2693  2.2820
 1092SOL     OW 3411   3.454   3.678   1.669  0.7492  0.1281 -0.4408
 1092SOL    HW1 3412   3.392   3.720   1.609  0.9803  1.1016 -0.0249
 1092SOL    HW2 3413   3.481   3.749   1.727  0.5806 -0.7809  0.7749
 1093SOL     OW 3414   1.240   1.982   1.240  0.6438 -0.0419 -0.2700
 1093SOL    HW1 3415   1.161   2.024   1.207  0.4776 -1.3507 -1.6607
 1093SOL    HW2 3416   1.216   1.950   1.327 -1.5446 -3.3480 -1.9041
 1094SOL     OW 3417   0.888   3.660   2.172 -0.8600  0.2638  0.3292
 1094SOL    HW1 3418   0.840   3.589   2.130 -1.4507  1.2595 -0.7707
 1094SOL    HW2 3419   0.821   3.709   2.220 -0.9488  1.5032 -0.9849
 1095SOL     OW 3420   0.654   3.606   0.864 -0.6922  0.0708  0.7218
 1095SOL    HW1 3421   0.738   3.591   0.821 -0.5221  3.3734 -0.3476
 1095SOL    HW2 3422   0.603   3.527   0.845  1.6480 -1.4325  0.2452
 1096SOL     OW 3423   2.089   0.654   3.460 -0.5942  0.4316 -0.2950
 1096SOL    HW1 3424   1.999   0.657   3.494 -0.1513  2.2167  0.8570
 1096SOL    HW2 3425   2.113   0.562   3.462 -2.4060 -0.0830 -0.6422
 1097SOL     OW 3426   2.423   3.616   3.465  0.5530  0.2059 -0.2221
 1097SOL    HW1 3427   2.415   3.526   3.434  1.9460 -0.5638  1.4744
 1097SOL    HW2 3428   2.336   3.653   3.451 -0.8005 -2.1441  1.0996
 1098SOL     OW 3429   0.090   0.668   3.705  0.1566 -0.1341 -0.0451
 1098SOL    HW1 3430   0.069   0.756   3.737 -2.2384 -1.8335  3.8236
 1098SOL    HW2 3431   0.037   0.658   3.626  0.4929  1.8365 -0.5808
 1099SOL     OW 3432   0.395   3.223   3.264  0.6264  0.0940  0.1489
 1099SOL    HW1 3433   0.388   3.315   3.289  2.7749 -0.0814  1.6830
 1099SOL    HW2 3434   0.462   3.222   3.195 -0.4663 -0.1917 -0.9412
 1100SOL     OW 3435   0.909   3.623   1.608 -0.3001  0.5962 -0.7332
 1100SOL    HW1 3436   0.946   3.593   1.691 -2.6076  0.2004  0.2512
 1100SOL    HW2 3437   0.894   3.717   1.620 -0.0135  0.6737 -0.9675
 1101SOL     OW 3438   0.795   2.897   2.603 -0.2009 -0.5372 -0.2535
 1101SOL    HW1 3439   0.842   2.966   2.650  1.2186 -2.1703  0.8748
 1101SOL    HW2 3440   0.711   2.889   2.648 -0.5304  0.6561 -0.6233
 1102SOL     OW 3441   2.052   1.601   2.265  0.4607 -0.3463  0.4341
 1102SOL    HW1 3442   2.118   1.533   2.276  0.0115 -0.6946  0.9927
 1102SOL    HW2 3443   1.989   1.564   2.204  0.0424 -0.5695  0.9915
 1103SOL     OW 3444   2.266   1.306   1.103 -0.1126  0.3173 -0.4730
 1103SOL    HW1 3445   2.239   1.384   1.151 -1.5019 -0.8146  0.6780
 1103SOL    HW2 3446   2.184   1.268   1.071  0.7037  0.6184 -3.1673
 1104SOL     OW 3447   1.827   0.434   1.211  0.6328  0.7816  0.2285
 1104SOL    HW1 3448   1.827   0.340   1.192 -1.7841  0.7952 -0.1816
 1104SOL    HW2 3449   1.860   0.474   1.131  0.1141  0.3444 -0.2129
 1105SOL     OW 3450   0.944   3.479   3.398 -0.0789  0.0542 -0.2440
 1105SOL    HW1 3451   0.906   3.559   3.434 -0.5215 -0.4712  0.4877
 1105SOL    HW2 3452   0.882   3.410   3.423  1.7582 -0.9925  1.7918
 1106SOL     OW 3453   0.671   2.938   0.053  0.3313  0.0583 -0.0720
 1106SOL    HW1 3454   0.664   3.031   0.029  0.6829 -0.2583 -1.4978
 1106SOL    HW2 3455   0.647   2.891  -0.027  0.5697 -1.0858  0.5080
 1107SOL     OW 3456   1.731   1.628   1.843 -0.3418 -0.5621  0.1964
 1107SOL    HW1 3457   1.735   1.537   1.815  1.3850 -0.7531  0.9645
 1107SOL    HW2 3458   1.774   1.677   1.773  1.2493 -0.6878  1.0565
 1108SOL     OW 3459   3.210   2.427   2.049  0.0751 -0.0719  0.1738
 1108SOL    HW1 3460   3.287   2.429   2.105 -0.8114  0.1794  1.4338
 1108SOL    HW2 3461   3.183   2.335   2.049  1.3309 -0.4976 -1.6883
 1109SOL     OW 3462   3.638   0.916   2.783 -0.2877  0.0705 -0.1198
 1109SOL    HW1 3463   3.676   1.002   2.800 -0.4005  0.0535  0.2260
 1109SOL    HW2 3464   3.616   0.882   2.869 -2.8790  0.9008 -0.3603
 1110SOL     OW 3465   2.196   1.917   0.253 -0.4418  0.5419 -0.1820
 1110SOL    HW1 3466   2.264   1.968   0.297 -0.9878  2.3951 -1.3895
 1110SOL    HW2 3467   2.216   1.924   0.160 -1.2944 -0.3502 -0.4522
 1111SOL     OW 3468   1.956   0.158   2.577 -0.1960 -0.2675  0.2972
 1111SOL    HW1 3469   1.935   0.249   2.558 -1.4962 -0.6135  0.0049
 1111SOL    HW2 3470   2.047   0.161   2.608 -0.2778  1.1407  0.4857
 1112SOL     OW 3471   0.345   2.585   2.461  0.1505 -0.2836 -0.1411
 1112SOL    HW1 3472   0.365   2.645   2.389 -2.4383 -0.2735 -0.9546
 1112SOL    HW2 3473   0.428   2.542   2.480  1.1537  0.4952 -2.4157
 1113SOL     OW 3474   0.651   2.346   3.487 -0.1593  0.1285  0.5921
 1113SOL    HW1 3475   0.718   2.399   3.531 -0.1491 -0.1107  0.8738
 1113SOL    HW2 3476   0.568   2.389   3.509 -0.0283  1.0353 -0.6322
 1114SOL     OW 3477   3.269   3.099   3.161  0.4476 -0.3018  0.0515
 1114SOL    HW1 3478   3.309   3.056   3.086 -0.3327 -1.3024  0.1856
 1114SOL    HW2 3479   3.272   3.192   3.140  3.2913 -0.2401  0.2919
 1115SOL     OW 3480   2.247   2.603   2.738 -0.6549 -0.2025  0.0250
 1115SOL    HW1 3481   2.194   2.641   2.808 -2.1090 -1.1582 -0.5019
 1115SOL    HW2 3482   2.225   2.654   2.660  1.3929  1.2387  0.3116
 1116SOL     OW 3483   2.536   2.987   2.966  0.3293 -0.0894  0.1730
 1116SOL    HW1 3484   2.479   2.912   2.982 -0.1765 -0.0424 -1.2512
 1116SOL    HW2 3485   2.549   2.987   2.871  1.5653  0.7348  0.3196
 1117SOL     OW 3486   3.317   2.052   0.777 -0.0372  0.2454  0.0431
 1117SOL    HW1 3487   3.309   1.964   0.742 -1.2204  0.4062 -0.1315
 1117SOL    HW2 3488   3.318   2.041   0.872 -1.2440  0.0935  0.0594
 1118SOL     OW 3489   2.309   1.225   0.335 -0.1373  0.2007 -0.4025
 1118SOL    HW1 3490   2.308   1.215   0.240 -0.3037 -0.3393 -0.3503
 1118SOL    HW2 3491   2.262   1.306   0.351  2.2298  1.7746 -0.9202
 1119SOL     OW 3492   0.331   3.496   1.162  0.0747 -0.3741  0.0823
 1119SOL    HW1 3493   0.272   3.520   1.089 -0.5592  0.0021  0.7046
 1119SOL    HW2 3494   0.419   3.501   1.124 -0.2010  0.5315 -0.4776
 1120SOL     OW 3495   2.439   1.418   0.459 -0.6611 -0.7480 -0.5193
 1120SOL    HW1 3496   2.397   1.354   0.401  0.6057 -0.4526 -1.8224
 1120SOL    HW2 3497   2.433   1.501   0.411  1.3551 -0.7028 -0.7669
 1121SOL     OW 3498   1.777   0.706   3.382  0.1839 -0.8575 -0.3306
 1121SOL    HW1 3499   1.828   0.778   3.419 -0.8983  1.7408 -3.4023
 1121SOL    HW2 3500   1.746   0.656   3.457  1.6669  1.3840  1.9067
 1122SOL     OW 3501   1.967   3.265   2.200  0.9724 -0.2317 -0.2006
 1122SOL    HW1 3502   1.900   3.239   2.137 -0.8030 -0.0316  1.5059
 1122SOL    HW2 3503   2.017   3.186   2.216  1.0591 -0.4328 -1.3895
 1123SOL     OW 3504   1.952   0.133   0.594 -0.1236 -0.4848 -0.8801
 1123SOL    HW1 3505   1.920   0.223   0.602 -0.5365 -0.7753  1.7909
 1123SOL    HW2 3506   1.887   0.081   0.642  2.0186 -1.6817  0.9229
 1124SOL     OW 3507   2.178   2.668   1.380 -0.4817 -0.4389  0.0437
 1124SOL    HW1 3508   2.176   2.763   1.386 -0.0024 -0.4107 -0.1848
 1124SOL    HW2 3509   2.198   2.638   1.469  0.4262 -0.2770 -0.0921
 1125SOL     OW 3510   2.455   3.044   2.694 -0.0055 -0.1902  0.2349
 1125SOL    HW1 3511   2.424   3.126   2.654 -1.5810 -0.7773  0.1718
 1125SOL    HW2 3512   2.524   3.014   2.635 -2.0747 -0.8934 -2.0453
 1126SOL     OW 3513   1.059   1.792   3.333  0.2751 -0.2480  0.5683
 1126SOL    HW1 3514   0.964   1.792   3.348  0.4178  0.2439  1.5751
 1126SOL    HW2 3515   1.077   1.703   3.301 -0.3886 -0.7081  1.3949
 1127SOL     OW 3516   1.342   1.517   3.118 -0.6067 -0.5746 -0.0952
 1127SOL    HW1 3517   1.357   1.461   3.041 -0.3281  1.6125 -1.7099
 1127SOL    HW2 3518   1.395   1.595   3.102 -2.1636  0.8436  1.3024
 1128SOL     OW 3519   2.279   2.007   0.990 -0.2125  0.6359  0.0571
 1128SOL    HW1 3520   2.300   2.094   0.956  2.0289  0.1018 -0.0969
 1128SOL    HW2 3521   2.331   2.000   1.070  1.2320 -1.2518 -0.9600
 1129SOL     OW 3522   3.517   0.818   1.674  0.2694 -0.6239  0.3609
 1129SOL    HW1 3523   3.483   0.730   1.654 -1.3798 -0.2808  1.4394
 1129SOL    HW2 3524   3.445   0.861   1.721  1.4323  0.9559  0.7661
 1130SOL     OW 3525   3.673   0.308   0.847 -0.3431  0.0346  0.6776
 1130SOL    HW1 3526   3.725   0.228   0.852 -0.6660 -0.1140  2.5076
 1130SOL    HW2 3527   3.736   0.379   0.864 -0.6471 -0.1501  2.9652
 1131SOL     OW 3528   3.292   3.753   0.338  0.2650  0.5498 -0.1744
 1131SOL    HW1 3529   3.272   3.669   0.296  0.8459  0.0458  0.5321
 1131SOL    HW2 3530   3.387   3.750   0.352  0.5691  1.9977 -1.5707
 1132SOL     OW 3531   1.084   3.684   3.048 -0.4907 -0.3454 -0.2133
 1132SOL    HW1 3532   1.050   3.666   3.136 -0.4311  0.0701 -0.1037
 1132SOL    HW2 3533   1.084   3.780   3.042 -2.5435 -0.3638 -1.4482
 1133SOL     OW 3534   1.973   2.352   3.216  0.2547 -0.1338 -0.1918
 1133SOL    HW1 3535   2.030   2.303   3.157  0.5906  0.3660 -0.2846
 1133SOL    HW2 3536   1.895   2.297   3.225  0.5497 -0.5964 -0.4429
 1134SOL     OW 3537   1.083   1.001   0.609 -0.0089  0.1466  0.2186
 1134SOL    HW1 3538   1.048   1.034   0.526 -1.2088 -2.3755 -0.4081
 1134SOL    HW2 3539   1.007   0.999   0.668  0.5231  0.5985  0.9368
 1135SOL     OW 3540   0.320   0.377   0.804  0.1079  0.5364  0.0548
 1135SOL    HW1 3541   0.414   0.360   0.811  0.0722  0.5799  0.7253
 1135SOL    HW2 3542   0.309   0.415   0.717  0.7342  0.7018  0.0418
 1136SOL     OW 3543   1.495   1.459   3.603 -0.3587  0.1816  0.4819
 1136SOL    HW1 3544   1.443   1.379   3.614 -0.7059  0.1324 -1.1883
 1136SOL    HW2 3545   1.435   1.521   3.561 -0.3766  1.6695  2.5775
 1137SOL     OW 3546   0.628   1.906   0.897 -0.7061 -0.1537 -0.5561
 1137SOL    HW1 3547   0.547   1.937   0.856 -1.0864 -1.0526 -0.5091
 1137SOL    HW2 3548   0.627   1.811   0.884  0.1357 -0.2254 -0.1830
 1138SOL     OW 3549   3.690   2.066   1.316  0.6319 -0.1197 -0.0102
 1138SOL    HW1 3550   3.660   2.150   1.284  0.4165 -0.5939 -1.0849
 1138SOL    HW2 3551   3.717   2.018   1.238 -0.8624 -1.6849  0.3695
 1139SOL     OW 3552   3.610   2.675   2.098  0.1372 -0.0948  0.6879
 1139SOL    HW1 3553   3.552   2.708   2.167 -1.9051  2.5239 -2.0607
 1139SOL    HW2 3554   3.698   2.704   2.125 -0.6809  1.4344  1.8837
 1140SOL     OW 3555   2.194   2.189   1.684 -0.3825 -0.1101 -0.1119
 1140SOL    HW1 3556   2.274   2.158   1.642  0.2090 -0.1011  0.9693
 1140SOL    HW2 3557   2.197   2.151   1.772 -0.0492  2.2721  0.9914
 1141SOL     OW 3558   1.806   0.232   0.864 -0.1459  0.4679  0.4841
 1141SOL    HW1 3559   1.738   0.171   0.835  0.0581 -0.0459  1.0541
 1141SOL    HW2 3560   1.774   0.318   0.838 -1.6503  0.3756  1.9046
 1142SOL     OW 3561   2.070   2.962   3.028  0.3718  0.1018  0.1867
 1142SOL    HW1 3562   2.116   2.917   2.957  0.9537  0.2580  0.4624
 1142SOL    HW2 3563   2.071   3.054   3.003  1.9060  0.3705  1.0995
 1143SOL     OW 3564   1.476   1.950   2.032 -0.0168 -0.1956  0.8302
 1143SOL    HW1 3565   1.422   1.950   2.111  1.5422 -0.7717  1.9381
 1143SOL    HW2 3566   1.566   1.938   2.064  0.6399 -0.5704 -1.0412
 1144SOL     OW 3567   0.667   3.545   2.395 -0.6168  0.3257 -0.0960
 1144SOL    HW1 3568   0.704   3.633   2.384  1.6258 -0.4700  0.5530
 1144SOL    HW2 3569   0.712   3.509   2.472 -2.5015 -0.8984  0.4911
 1145SOL     OW 3570   2.323   0.985   2.726 -0.6764  0.0007  0.4934
 1145SOL    HW1 3571   2.357   0.980   2.637 -1.5085 -1.7725  0.2214
 1145SOL    HW2 3572   2.318   0.893   2.754 -3.5293  0.2484  1.1195
 1146SOL     OW 3573   1.081   2.829   1.661 -0.3097 -0.4514  0.3596
 1146SOL    HW1 3574   1.083   2.893   1.732  0.7134  0.3311 -0.3426
 1146SOL    HW2 3575   1.128   2.753   1.697  0.3891  0.0169  0.4635
 1147SOL     OW 3576   1.939   0.556   0.993  0.1624 -0.1252  0.1222
 1147SOL    HW1 3577   1.924   0.498   0.918 -1.2771  1.1443 -0.6250
 1147SOL    HW2 3578   1.992   0.627   0.958  0.1889  0.0541  0.5245
 1148SOL     OW 3579   0.158   0.513   3.293 -0.1752  0.0668 -0.1922
 1148SOL    HW1 3580   0.238   0.549   3.331 -0.6674 -0.1544  1.0663
 1148SOL    HW2 3581   0.175   0.515   3.198  0.5543  1.8128 -0.0603
 1149SOL     OW 3582   2.240   1.370   2.309 -0.8503 -0.2697 -0.3407
 1149SOL    HW1 3583   2.268   1.300   2.250 -0.9970 -1.3660  0.8408
 1149SOL    HW2 3584   2.224   1.326   2.392 -3.4886  0.7102 -0.2179
 1150SOL     OW 3585   1.186   3.392   2.186  0.6378  0.5575 -0.6974
 1150SOL    HW1 3586   1.194   3.408   2.281 -0.1912 -1.0568 -0.3393
 1150SOL    HW2 3587   1.188   3.480   2.148 -4.1731  1.7990  1.1850
 1151SOL     OW 3588   2.024   2.131   2.692  0.3565 -0.3551 -0.2246
 1151SOL    HW1 3589   1.990   2.066   2.752  1.0931 -0.2671  0.3018
 1151SOL    HW2 3590   2.087   2.083   2.637 -0.1155 -0.3799 -0.7559
 1152SOL     OW 3591   0.614   0.547   2.201  0.3920 -0.2427 -0.0095
 1152SOL    HW1 3592   0.678   0.618   2.211  0.8054 -0.7844  1.5086
 1152SOL    HW2 3593   0.665   0.474   2.166  0.6812 -0.7151  1.3226
 1153SOL     OW 3594   0.332   0.742   3.242 -0.1032 -0.1841 -0.4491
 1153SOL    HW1 3595   0.378   0.825   3.255  0.7924 -0.4493 -1.6767
 1153SOL    HW2 3596   0.265   0.762   3.176 -0.7321 -0.1533  0.1934
 1154SOL     OW 3597   0.269   2.114   3.656  0.7125 -0.1680 -0.1713
 1154SOL    HW1 3598   0.247   2.203   3.628  0.9336  0.0571  0.3493
 1154SOL    HW2 3599   0.252   2.060   3.579  1.1870  0.4120 -0.7013
 1155SOL     OW 3600   2.937   0.404   1.931  0.0706 -0.2302  0.6239
 1155SOL    HW1 3601   2.877   0.423   1.859 -0.2413 -2.3849  0.2661
 1155SOL    HW2 3602   3.021   0.388   1.888  1.0607  2.8589  1.1253
 1156SOL     OW 3603   0.423   2.211   0.925 -0.8062 -0.3051  0.2990
 1156SOL    HW1 3604   0.467   2.249   1.002 -0.9986 -0.5968  0.5544
 1156SOL    HW2 3605   0.489   2.215   0.856 -1.5010  2.6099 -0.3396
 1157SOL     OW 3606   2.063   0.984   0.386  0.0447 -0.6766 -0.1940
 1157SOL    HW1 3607   2.054   1.055   0.323 -1.3298  0.1031  0.8231
 1157SOL    HW2 3608   1.975   0.948   0.394  0.4320 -1.5310  0.4055
 1158SOL     OW 3609   1.489   1.154   1.911 -0.7920 -0.4530 -0.0988
 1158SOL    HW1 3610   1.581   1.136   1.930 -0.7268 -2.3830 -1.8836
 1158SOL    HW2 3611   1.447   1.068   1.913 -2.3228  0.2583 -0.5056
 1159SOL     OW 3612   1.715   1.848   2.255 -0.2413  0.5408 -0.3540
 1159SOL    HW1 3613   1.648   1.780   2.246  1.2731 -1.0565 -0.0728
 1159SOL    HW2 3614   1.668   1.924   2.289 -1.9081 -0.5105 -0.2087
 1160SOL     OW 3615   1.853   1.964   3.297 -0.1827 -0.0619 -0.0262
 1160SOL    HW1 3616   1.875   1.872   3.288  2.0579  0.4606 -0.6220
 1160SOL    HW2 3617   1.781   1.966   3.360 -0.2175 -2.1831  0.0656
 1161SOL     OW 3618   1.548   1.694   0.142  0.1992 -0.4612  0.2694
 1161SOL    HW1 3619   1.514   1.781   0.118  3.4610  0.4153 -1.8282
 1161SOL    HW2 3620   1.584   1.706   0.230  0.1270  0.1466  0.2242
 1162SOL     OW 3621   2.504   2.255   2.284  0.2630  1.0256 -0.0480
 1162SOL    HW1 3622   2.594   2.270   2.312  0.0588  0.0123  1.2368
 1162SOL    HW2 3623   2.453   2.256   2.364 -0.8413  1.3060 -0.7304
 1163SOL     OW 3624   2.829   3.337   2.473  0.2147  0.2080  0.7428
 1163SOL    HW1 3625   2.754   3.344   2.414  0.0528 -0.5541  0.8542
 1163SOL    HW2 3626   2.791   3.324   2.560  0.4617  0.9168  0.9677
 1164SOL     OW 3627   2.313   3.210   3.008  0.9590  0.2999 -0.1884
 1164SOL    HW1 3628   2.347   3.123   3.029  1.0922  0.3781 -0.0836
 1164SOL    HW2 3629   2.251   3.230   3.079  0.5335  0.0689 -0.4883
 1165SOL     OW 3630   2.195   2.625   0.693 -0.3530  0.1222  0.3951
 1165SOL    HW1 3631   2.222   2.665   0.611  0.7184  2.3519  1.7386
 1165SOL    HW2 3632   2.217   2.690   0.760  0.4015 -2.2613  2.6479
 1166SOL     OW 3633   0.820   2.132   2.508  0.2566 -0.2505  0.0893
 1166SOL    HW1 3634   0.786   2.136   2.418 -1.4268  0.6965  0.7229
 1166SOL    HW2 3635   0.786   2.211   2.550 -1.3430 -2.0007  2.3205
 1167SOL     OW 3636   0.437   2.999   2.829  0.4868  0.3138 -0.1404
 1167SOL    HW1 3637   0.439   3.001   2.733 -0.6122  0.8155 -0.1718
 1167SOL    HW2 3638   0.449   2.907   2.852  0.7809  0.1946 -0.7594
 1168SOL     OW 3639   3.595   3.701   0.778 -0.0555 -0.3125 -0.2941
 1168SOL    HW1 3640   3.589   3.612   0.744 -1.6802 -0.5109  0.4220
 1168SOL    HW2 3641   3.593   3.691   0.873 -1.4031  0.5155 -0.2072
 1169SOL     OW 3642   2.593   2.889   0.213  0.0284  0.3396 -0.2640
 1169SOL    HW1 3643   2.541   2.944   0.271  2.2089  3.1781 -0.7673
 1169SOL    HW2 3644   2.634   2.825   0.271 -0.6130  0.8407  0.7756
 1170SOL     OW 3645   1.707   2.849   3.366 -0.0203  0.4571 -0.2896
 1170SOL    HW1 3646   1.625   2.861   3.413 -0.3688  1.1319 -1.0373
 1170SOL    HW2 3647   1.733   2.759   3.385 -0.9246  0.2419 -0.0239
 1171SOL     OW 3648   2.332   3.468   3.200  0.1712  0.3793  0.6930
 1171SOL    HW1 3649   2.237   3.460   3.187  0.3795 -2.7221  0.1939
 1171SOL    HW2 3650   2.369   3.455   3.113  1.0735  1.3975  0.9125
 1172SOL     OW 3651   2.540   3.370   1.338 -0.1536  0.1172 -0.0678
 1172SOL    HW1 3652   2.618   3.340   1.293  0.3895  3.1789 -1.4407
 1172SOL    HW2 3653   2.566   3.452   1.379 -2.4032  0.7886  0.1581
 1173SOL     OW 3654   3.089   1.892   2.714  0.0912 -0.0359 -0.3755
 1173SOL    HW1 3655   2.995   1.871   2.715 -0.1778  1.0842  0.6076
 1173SOL    HW2 3656   3.098   1.964   2.777  1.7830 -0.8246  0.3484
 1174SOL     OW 3657   2.775   3.006   1.995  0.1600  0.2679 -0.0868
 1174SOL    HW1 3658   2.693   3.043   2.028 -0.3593 -0.6316 -0.3417
 1174SOL    HW2 3659   2.755   2.981   1.905  0.4136 -0.8711  0.1622
 1175SOL     OW 3660   0.919   1.093   0.357 -0.1291  0.4842 -0.2759
 1175SOL    HW1 3661   0.993   1.149   0.335 -1.3536  1.7592 -1.3952
 1175SOL    HW2 3662   0.920   1.024   0.291 -1.8671  2.4569 -2.5893
 1176SOL     OW 3663   2.422   3.582   1.797 -0.2114 -0.4959  0.1906
 1176SOL    HW1 3664   2.480   3.618   1.864 -0.1435 -2.3280  1.1523
 1176SOL    HW2 3665   2.352   3.540   1.846 -1.8605  0.7909 -0.9529
 1177SOL     OW 3666   3.095   0.063   0.521 -0.1629  0.0640 -0.1229
 1177SOL    HW1 3667   3.122   0.004   0.592 -1.8717 -0.6658 -0.0236
 1177SOL    HW2 3668   3.172   0.070   0.464  0.9863  0.0230  1.3597
 1178SOL     OW 3669   1.366   2.756   2.200  0.4544  0.6775  0.2699
 1178SOL    HW1 3670   1.403   2.828   2.250  3.4659  0.5226 -1.5069
 1178SOL    HW2 3671   1.373   2.680   2.257 -2.5872  1.5978  2.0916
 1179SOL     OW 3672   2.866   2.074   3.552  0.2381  0.0858 -0.1179
 1179SOL    HW1 3673   2.940   2.088   3.493 -1.4638  1.7956 -1.9880
 1179SOL    HW2 3674   2.885   2.129   3.628  1.2416 -0.1388 -0.1929
 1180SOL     OW 3675   2.495   2.834   3.693  0.7440 -0.0396  0.1685
 1180SOL    HW1 3676   2.521   2.849   3.784 -1.4895  0.0394  0.8603
 1180SOL    HW2 3677   2.453   2.916   3.667  0.5219 -0.3999 -0.6110
 1181SOL     OW 3678   3.739   1.767   3.170 -0.4768 -0.2807  0.3404
 1181SOL    HW1 3679   3.725   1.861   3.176 -1.7270 -0.4418  0.2852
 1181SOL    HW2 3680   3.718   1.746   3.079  2.5708 -0.2296 -0.4902
 1182SOL     OW 3681   0.440   2.090   2.879 -0.0140 -0.0049 -0.8057
 1182SOL    HW1 3682   0.426   2.024   2.947 -0.3400  0.0299 -0.8382
 1182SOL    HW2 3683   0.368   2.078   2.818  0.9774 -0.8890 -1.8436
 1183SOL     OW 3684   0.041   0.123   0.623 -0.6011 -0.6578  0.2686
 1183SOL    HW1 3685   0.126   0.083   0.638 -0.7809 -1.6930 -1.2525
 1183SOL    HW2 3686  -0.022   0.063   0.665 -0.7457 -1.1401 -0.6206
 1184SOL     OW 3687   2.427   3.022   0.408 -0.4095 -0.3297 -0.2120
 1184SOL    HW1 3688   2.513   3.045   0.444 -0.5747  2.3322 -1.2849
 1184SOL    HW2 3689   2.366   3.082   0.450 -1.5533 -1.2551 -0.4901
 1185SOL     OW 3690   2.439   1.626   2.677  0.5670  0.0930 -0.4418
 1185SOL    HW1 3691   2.492   1.678   2.616  0.5773 -0.5974 -1.0241
 1185SOL    HW2 3692   2.497   1.556   2.706  0.1773 -0.2906 -0.5836
 1186SOL     OW 3693   0.641   1.398   3.549 -0.4443 -0.0111 -0.2437
 1186SOL    HW1 3694   0.563   1.349   3.524 -0.5131 -0.3690  0.6355
 1186SOL    HW2 3695   0.670   1.440   3.468 -0.4804 -1.3667 -0.9915
 1187SOL     OW 3696   1.709   3.360   3.445  0.7134  0.3780 -0.2130
 1187SOL    HW1 3697   1.708   3.422   3.372 -0.2978  1.1869  0.4771
 1187SOL    HW2 3698   1.669   3.406   3.518 -2.3671 -1.7933 -0.3105
 1188SOL     OW 3699   0.479   3.207   0.190 -0.4877  0.4496  0.4260
 1188SOL    HW1 3700   0.563   3.253   0.190 -0.9375  1.3186 -1.0131
 1188SOL    HW2 3701   0.421   3.263   0.242 -0.2718 -0.0062  1.1755
 1189SOL     OW 3702   0.003   0.409   2.011  0.2220  0.1181 -0.5754
 1189SOL    HW1 3703   0.005   0.469   1.937  1.4683  0.8366  0.0033
 1189SOL    HW2 3704   0.047   0.457   2.082  2.1803 -1.8384 -0.3748
 1190SOL     OW 3705   1.070   1.851   0.382 -0.5538  0.5981 -0.7226
 1190SOL    HW1 3706   1.097   1.823   0.294 -2.9396  0.6059 -1.5206
 1190SOL    HW2 3707   0.979   1.823   0.390 -0.2796  0.2034  1.9549
 1191SOL     OW 3708   2.031   2.395   1.677 -0.1966 -0.0088 -0.2929
 1191SOL    HW1 3709   2.003   2.424   1.764 -0.4879  0.0748 -0.4140
 1191SOL    HW2 3710   2.096   2.326   1.694  1.5754  1.6561  0.0275
 1192SOL     OW 3711   1.653   2.198   1.818 -0.7046 -0.1382 -0.2190
 1192SOL    HW1 3712   1.720   2.173   1.880 -1.0622 -0.1080  0.1827
 1192SOL    HW2 3713   1.571   2.193   1.867 -1.1549 -1.4881 -1.0606
 1193SOL     OW 3714   2.782   2.312   0.506 -0.8346  0.0111  0.3252
 1193SOL    HW1 3715   2.816   2.224   0.521  2.3932  1.3440  1.8503
 1193SOL    HW2 3716   2.786   2.322   0.411 -2.1301 -1.7387  0.0376
 1194SOL     OW 3717   2.971   3.460   0.843 -0.0478  0.0939 -0.0661
 1194SOL    HW1 3718   2.924   3.513   0.778  1.3865  2.7603  0.9195
 1194SOL    HW2 3719   2.977   3.517   0.920  0.1407 -2.1852  1.6969
 1195SOL     OW 3720   1.924   1.794   0.335 -0.5447 -0.2044  0.4311
 1195SOL    HW1 3721   2.006   1.785   0.383 -1.2768  0.5089  1.8916
 1195SOL    HW2 3722   1.890   1.705   0.329 -0.5491 -0.2836  1.4739
 1196SOL     OW 3723   1.670   1.390   2.239 -0.4038  0.2635 -0.0772
 1196SOL    HW1 3724   1.715   1.306   2.227  1.1827  1.0210  0.3082
 1196SOL    HW2 3725   1.738   1.456   2.224 -1.1328  1.4548  1.5338
 1197SOL     OW 3726   0.229   0.700   0.676 -0.2930  0.3081  0.2097
 1197SOL    HW1 3727   0.209   0.745   0.594 -0.2316 -0.0551 -0.0042
 1197SOL    HW2 3728   0.145   0.667   0.706 -0.1057 -0.7762 -0.4285
 1198SOL     OW 3729   0.395   3.473   3.311 -0.6721 -0.0832 -0.1415
 1198SOL    HW1 3730   0.420   3.553   3.357 -0.4953  0.6206 -1.4104
 1198SOL    HW2 3731   0.390   3.499   3.219 -0.8428 -1.4813 -0.5488
 1199SOL     OW 3732   0.257   0.424   3.697 -0.0873  0.4477 -0.3088
 1199SOL    HW1 3733   0.206   0.431   3.778 -0.0112  0.7902 -0.2915
 1199SOL    HW2 3734   0.195   0.445   3.627 -0.0098  0.7010 -0.2998
 1200SOL     OW 3735   2.580   0.931   0.452 -0.3433 -0.7646 -0.3957
 1200SOL    HW1 3736   2.609   1.022   0.439  2.3029 -1.4936 -0.1206
 1200SOL    HW2 3737   2.568   0.924   0.547  0.6684 -1.0015 -0.2729
 1201SOL     OW 3738   2.376   2.563   0.194  0.2541 -0.0091 -0.4936
 1201SOL    HW1 3739   2.359   2.587   0.103  0.3802 -1.6241 -0.9615
 1201SOL    HW2 3740   2.297   2.516   0.222  0.6795 -0.5053 -0.1199
 1202SOL     OW 3741   2.711   2.925   2.535  0.1851 -0.1032  0.3748
 1202SOL    HW1 3742   2.738   2.837   2.558 -1.8761 -0.4525  1.7631
 1202SOL    HW2 3743   2.783   2.981   2.563  1.6356 -1.3243 -0.7931
 1203SOL     OW 3744   0.330   1.343   1.285  0.2655  0.3413  0.1097
 1203SOL    HW1 3745   0.266   1.272   1.291  0.1044  0.5461  0.9530
 1203SOL    HW2 3746   0.382   1.336   1.365  0.6484  0.7925 -0.0922
 1204SOL     OW 3747   0.880   3.238   1.309  0.4898 -0.4260 -0.1044
 1204SOL    HW1 3748   0.887   3.329   1.279 -0.7532 -0.0240  0.7413
 1204SOL    HW2 3749   0.917   3.239   1.397  0.7178 -0.8094 -0.1927
 1205SOL     OW 3750   1.401   2.245   2.274 -0.3167  0.7875  0.5040
 1205SOL    HW1 3751   1.331   2.180   2.266  1.2931 -0.9317 -0.4763
 1205SOL    HW2 3752   1.382   2.308   2.205 -0.2596 -0.3538 -0.5990
 1206SOL     OW 3753   0.728   1.299   0.426  0.1633  0.4531  0.1723
 1206SOL    HW1 3754   0.791   1.227   0.415 -0.2818  0.0190  0.4128
 1206SOL    HW2 3755   0.653   1.273   0.374 -0.0920  0.6334  0.4465
 1207SOL     OW 3756   1.266   2.855   3.384 -0.4186  0.7465  0.0678
 1207SOL    HW1 3757   1.177   2.882   3.404 -0.8314  1.9126 -2.9621
 1207SOL    HW2 3758   1.302   2.926   3.331  1.7984 -0.4090 -0.1045
 1208SOL     OW 3759   0.638   3.107   1.967  0.2831  0.2375 -0.0737
 1208SOL    HW1 3760   0.639   3.171   2.038 -0.5351  0.2363 -0.0516
 1208SOL    HW2 3761   0.728   3.074   1.962  0.3408  0.2252  0.9703
 1209SOL     OW 3762   2.545   0.442   1.841 -0.4979  0.2892  0.2511
 1209SOL    HW1 3763   2.517   0.413   1.754 -1.6052  1.7816  0.0498
 1209SOL    HW2 3764   2.639   0.429   1.842 -0.5887 -0.5986 -0.8283
 1210SOL     OW 3765   1.803   1.419   0.877  0.6442 -0.5164 -0.3852
 1210SOL    HW1 3766   1.884   1.371   0.896  0.0107 -1.3896  0.2059
 1210SOL    HW2 3767   1.742   1.391   0.946 -0.8321 -1.4936 -2.0001
 1211SOL     OW 3768   0.502   2.899   2.544 -0.1511 -0.2569  0.6643
 1211SOL    HW1 3769   0.550   2.929   2.467  0.9963 -1.8269  0.7073
 1211SOL    HW2 3770   0.411   2.894   2.516  0.1640 -0.2204 -0.4091
 1212SOL     OW 3771   0.955   1.612   1.935  0.3276  0.1238 -0.2659
 1212SOL    HW1 3772   0.870   1.638   1.899 -0.2263 -0.7283  0.3837
 1212SOL    HW2 3773   0.974   1.527   1.894  0.4108 -0.1350  0.3013
 1213SOL     OW 3774   0.532   2.653   3.630 -0.1564 -0.7454 -0.1992
 1213SOL    HW1 3775   0.565   2.580   3.684 -1.2167 -1.1548 -0.0701
 1213SOL    HW2 3776   0.465   2.694   3.685  1.6550  1.4967  0.4604
 1214SOL     OW 3777   1.589   1.385   1.043  0.2815 -0.2693  0.4785
 1214SOL    HW1 3778   1.545   1.468   1.028  2.5363  0.6267 -2.0032
 1214SOL    HW2 3779   1.539   1.321   0.991 -0.6321 -0.1977  1.2546
 1215SOL     OW 3780   0.068   2.627   0.675 -0.2926 -0.3069 -0.0799
 1215SOL    HW1 3781   0.150   2.661   0.642 -0.1450 -0.3971  0.1850
 1215SOL    HW2 3782   0.093   2.570   0.748 -0.6453  0.3603  0.5784
 1216SOL     OW 3783   0.815   0.725   2.214  0.0915  0.5542  0.0099
 1216SOL    HW1 3784   0.902   0.684   2.210 -0.2309 -0.4105  1.8168
 1216SOL    HW2 3785   0.820   0.798   2.152  1.9161  0.0207 -0.5345
 1217SOL     OW 3786   0.601   3.570   2.728 -0.3523  0.1240  0.4912
 1217SOL    HW1 3787   0.580   3.525   2.647  3.6357  0.8587 -1.2003
 1217SOL    HW2 3788   0.634   3.502   2.786  0.7050  0.0951 -0.1146
 1218SOL     OW 3789   0.567   1.653   2.161  0.2740  0.1330  0.1758
 1218SOL    HW1 3790   0.543   1.724   2.221 -0.5180 -1.0655  1.3226
 1218SOL    HW2 3791   0.630   1.601   2.211  0.2738 -0.3887 -0.3676
 1219SOL     OW 3792  -0.011   1.570   0.068  0.1979  0.3627 -0.2232
 1219SOL    HW1 3793  -0.012   1.664   0.084  0.7376  0.8163 -2.4747
 1219SOL    HW2 3794   0.051   1.536   0.132  0.8012  1.7045 -0.0529
 1220SOL     OW 3795   2.787   3.276   2.867 -0.7448 -0.7560 -0.1096
 1220SOL    HW1 3796   2.796   3.189   2.907 -1.4775 -0.2117  1.3254
 1220SOL    HW2 3797   2.748   3.329   2.936  2.3165  1.4708  0.0788
 1221SOL     OW 3798   3.381   3.084   1.681  0.8294  0.0415 -0.5734
 1221SOL    HW1 3799   3.440   3.147   1.723  2.4073 -2.0196  0.5229
 1221SOL    HW2 3800   3.334   3.043   1.753 -2.1927  1.7040 -1.4367
 1222SOL     OW 3801   1.272   2.125   0.859 -0.3826 -0.1986  0.2045
 1222SOL    HW1 3802   1.209   2.060   0.827  1.8549 -0.8823 -3.3784
 1222SOL    HW2 3803   1.291   2.179   0.782  1.3093  1.7619  1.8898
 1223SOL     OW 3804   1.945   1.603   3.088 -0.4506  0.0886 -0.4606
 1223SOL    HW1 3805   1.943   1.583   3.182 -0.6383  0.8379 -0.3022
 1223SOL    HW2 3806   1.868   1.657   3.073  0.5995  1.5925 -0.6578
 1224SOL     OW 3807   1.921   3.458   0.080  0.6822  0.2954  0.5056
 1224SOL    HW1 3808   1.944   3.500   0.163  2.1261 -1.3054  0.9628
 1224SOL    HW2 3809   2.003   3.456   0.031  0.6360 -1.8057  0.4337
 1225SOL     OW 3810   0.744   2.745   1.668  0.2357  0.2824  0.1794
 1225SOL    HW1 3811   0.736   2.758   1.573 -0.0190 -0.7460  0.0559
 1225SOL    HW2 3812   0.838   2.751   1.685  0.1629  2.5157  0.1881
 1226SOL     OW 3813   1.339  -0.002   3.500 -0.6557 -0.4477 -0.4536
 1226SOL    HW1 3814   1.271  -0.008   3.432  0.5028  0.3700 -1.7443
 1226SOL    HW2 3815   1.321   0.081   3.544  0.5187  0.6716 -1.9921
 1227SOL     OW 3816   3.568   2.281   1.371  0.4610  0.1922 -0.2426
 1227SOL    HW1 3817   3.640   2.344   1.373  1.7807 -1.2745  0.4211
 1227SOL    HW2 3818   3.499   2.326   1.321  1.7434  1.7125 -0.7556
 1228SOL     OW 3819   0.607   1.935   0.557  0.3898 -0.5962 -0.3942
 1228SOL    HW1 3820   0.679   1.873   0.571  0.4659 -0.8058 -1.5892
 1228SOL    HW2 3821   0.622   2.004   0.622  2.1580 -0.2181 -1.1341
 1229SOL     OW 3822   2.537   0.342   1.588  1.0034 -0.3564  0.0866
 1229SOL    HW1 3823   2.622   0.354   1.545  0.2900  0.7433 -1.0868
 1229SOL    HW2 3824   2.473   0.364   1.520 -0.3046 -2.9911  0.3368
 1230SOL     OW 3825   1.146   0.701   0.047  0.1636 -0.4725  0.2563
 1230SOL    HW1 3826   1.189   0.711  -0.038  1.8627 -1.7795  0.9043
 1230SOL    HW2 3827   1.173   0.615   0.078 -2.8879 -1.3726  0.8035
 1231SOL     OW 3828   3.374   2.435   2.287  0.0841 -0.3316 -0.2310
 1231SOL    HW1 3829   3.356   2.529   2.297 -0.3209 -0.3579 -0.6852
 1231SOL    HW2 3830   3.469   2.429   2.279  0.0815  0.0730 -0.5728
 1232SOL     OW 3831   0.285   1.373   0.242 -0.0376 -0.1030  0.8476
 1232SOL    HW1 3832   0.361   1.427   0.221  0.0529 -0.6471 -0.2394
 1232SOL    HW2 3833   0.219   1.436   0.272 -0.4052  0.8137 -1.6941
 1233SOL     OW 3834   3.109   2.445   1.572  0.0341 -0.6263  0.2307
 1233SOL    HW1 3835   3.181   2.431   1.510 -0.0966  2.1132 -0.6463
 1233SOL    HW2 3836   3.151   2.479   1.651 -0.2787  1.4406 -0.4517
 1234SOL     OW 3837   2.007   3.585   0.783 -0.4871 -0.1347 -0.0084
 1234SOL    HW1 3838   1.946   3.612   0.714  0.3647 -0.4151 -0.8925
 1234SOL    HW2 3839   1.954   3.583   0.862 -1.6248 -0.3571 -0.7523
 1235SOL     OW 3840   0.435   3.528   2.247  0.1822  0.1041 -0.4483
 1235SOL    HW1 3841   0.513   3.538   2.302  0.0772  2.3474 -0.6311
 1235SOL    HW2 3842   0.465   3.550   2.159  0.2278 -2.9657 -1.3201
 1236SOL     OW 3843   0.450   1.588   0.736 -0.1876 -1.4286 -0.6188
 1236SOL    HW1 3844   0.393   1.533   0.790 -1.3691  0.1534 -0.1582
 1236SOL    HW2 3845   0.519   1.617   0.796 -1.2843  0.0169 -0.0036
 1237SOL     OW 3846   3.507   0.542   1.605  0.4161  0.1972  0.6607
 1237SOL    HW1 3847   3.512   0.565   1.513  2.4744  0.7927  0.8822
 1237SOL    HW2 3848   3.414   0.549   1.626  0.0424  1.0453 -1.1033
 1238SOL     OW 3849   2.816   3.229   0.855  0.0879  0.2777 -0.0772
 1238SOL    HW1 3850   2.789   3.254   0.766  0.9602  0.7656 -0.2124
 1238SOL    HW2 3851   2.887   3.289   0.877 -0.7866  0.8348  1.3555
 1239SOL     OW 3852   2.984   0.184   3.644  0.5715  0.0857  0.3817
 1239SOL    HW1 3853   2.925   0.259   3.644  1.3356  0.7926 -2.1826
 1239SOL    HW2 3854   2.971   0.143   3.729 -0.0792  2.9689  1.7920
 1240SOL     OW 3855   2.518   1.942   2.854 -0.3659 -0.2011 -0.1457
 1240SOL    HW1 3856   2.478   1.937   2.767  0.2988 -0.4558 -0.4389
 1240SOL    HW2 3857   2.612   1.946   2.837 -0.2832  1.6674  0.4818
 1241SOL     OW 3858   3.341   2.336   1.679  0.2507  0.1163  0.7033
 1241SOL    HW1 3859   3.421   2.384   1.701  0.1939  0.5316  0.0267
 1241SOL    HW2 3860   3.370   2.266   1.621  0.4193 -1.0607  2.1683
 1242SOL     OW 3861   1.253   0.755   1.845  0.0950 -0.3104  0.4024
 1242SOL    HW1 3862   1.288   0.832   1.801  0.3418  0.3006  1.6189
 1242SOL    HW2 3863   1.158   0.764   1.835  0.1379 -0.0905  0.1577
 1243SOL     OW 3864   2.236   0.793   0.375 -0.0825  0.1631 -0.5067
 1243SOL    HW1 3865   2.255   0.815   0.283 -0.5091 -1.5486 -1.0468
 1243SOL    HW2 3866   2.181   0.866   0.406  0.0164  0.7412 -1.6260
 1244SOL     OW 3867   2.295   0.548   1.930 -0.0457 -0.4000  0.6408
 1244SOL    HW1 3868   2.279   0.629   1.882 -1.2071 -2.4007 -2.6263
 1244SOL    HW2 3869   2.388   0.530   1.917 -0.1831 -0.5172 -0.2106
 1245SOL     OW 3870   0.812   0.987   2.426  0.1048  0.1218 -0.2324
 1245SOL    HW1 3871   0.817   1.053   2.357 -0.0001 -0.1038 -0.4604
 1245SOL    HW2 3872   0.899   0.948   2.428  0.8034  1.6658  1.3242
 1246SOL     OW 3873   3.065   3.628   3.699  0.1284 -0.3556 -0.3368
 1246SOL    HW1 3874   3.123   3.700   3.721  2.5336 -1.5396 -2.2546
 1246SOL    HW2 3875   3.015   3.658   3.623  0.1636 -0.2740 -0.3266
 1247SOL     OW 3876   3.518   0.257   1.737 -0.0594 -0.1030  0.1436
 1247SOL    HW1 3877   3.579   0.231   1.669 -0.6579 -0.9189 -0.0870
 1247SOL    HW2 3878   3.508   0.352   1.725  0.2212 -0.1610 -0.5784
 1248SOL     OW 3879   2.594   0.891   1.288 -0.4713 -0.6569  0.3047
 1248SOL    HW1 3880   2.604   0.927   1.201  2.2166  1.5368  1.3845
 1248SOL    HW2 3881   2.524   0.943   1.328 -1.5887 -1.5571 -0.4157
 1249SOL     OW 3882   2.337   1.198   0.077 -0.5941  0.0855 -0.8842
 1249SOL    HW1 3883   2.371   1.121   0.032 -1.7441 -0.0184 -1.6250
 1249SOL    HW2 3884   2.412   1.257   0.084 -0.3952  0.1714 -3.0919
 1250SOL     OW 3885   0.468   3.606   0.528  0.5257  0.1818 -0.5230
 1250SOL    HW1 3886   0.479   3.670   0.458 -1.7169  0.5853 -0.5822
 1250SOL    HW2 3887   0.424   3.532   0.486  1.0342 -0.4582  0.0412
 1251SOL     OW 3888   2.492   2.738   1.485  0.0967 -0.2781  0.3039
 1251SOL    HW1 3889   2.424   2.744   1.552 -1.9476  0.7665 -1.7200
 1251SOL    HW2 3890   2.502   2.644   1.469 -2.8383 -0.4385 -1.1487
 1252SOL     OW 3891   0.106   2.424   1.299  0.4996  0.0944 -0.2287
 1252SOL    HW1 3892   0.046   2.492   1.268 -0.8829 -0.7460  0.4916
 1252SOL    HW2 3893   0.150   2.392   1.220  0.3006  1.0113 -0.7204
 1253SOL     OW 3894   2.997   3.068   1.825  0.0273 -0.0718  0.1760
 1253SOL    HW1 3895   3.031   3.004   1.763 -1.0677  1.1273 -1.7770
 1253SOL    HW2 3896   2.954   3.016   1.892  2.3436 -1.4614  0.6753
 1254SOL     OW 3897   1.116   1.767   1.001 -0.3284 -0.8344  0.0004
 1254SOL    HW1 3898   1.064   1.848   0.998 -0.0908 -0.7046 -0.8953
 1254SOL    HW2 3899   1.200   1.791   0.963  0.1544 -1.2231  0.8062
 1255SOL     OW 3900   1.766   2.691  -0.013 -0.1214  0.1915  0.1679
 1255SOL    HW1 3901   1.759   2.787  -0.014 -0.0678  0.1979  0.3558
 1255SOL    HW2 3902   1.802   2.671   0.073  0.0519  0.0141  0.0548
 1256SOL     OW 3903   0.131   1.846   3.599  0.9178  1.2306 -0.2436
 1256SOL    HW1 3904   0.057   1.895   3.564  1.0350  0.2517 -1.9649
 1256SOL    HW2 3905   0.131   1.867   3.693 -0.5803  2.4539 -0.4735
 1257SOL     OW 3906   1.555   0.975   0.332  0.1089  0.4338 -0.3136
 1257SOL    HW1 3907   1.491   0.963   0.262  1.1299  1.5645 -1.4911
 1257SOL    HW2 3908   1.528   0.913   0.400 -0.6468 -1.0582 -1.8938
 1258SOL     OW 3909   2.992   0.397   0.688 -0.8981 -0.4569  0.0353
 1258SOL    HW1 3910   2.946   0.439   0.615  0.1707  0.8989  0.0912
 1258SOL    HW2 3911   3.079   0.437   0.688 -1.1393  0.2733  2.5911
 1259SOL     OW 3912   1.408   2.921   2.426 -0.3652 -0.1224  0.6042
 1259SOL    HW1 3913   1.316   2.941   2.443 -0.5653 -1.3457  1.0184
 1259SOL    HW2 3914   1.448   3.007   2.409 -1.8892  0.3051 -1.2004
 1260SOL     OW 3915   0.017   1.234   0.090  0.3559  0.6741 -0.2519
 1260SOL    HW1 3916   0.083   1.239   0.160  1.6134  0.6858 -1.3922
 1260SOL    HW2 3917   0.059   1.275   0.014  0.0431 -1.6135 -1.7807
 1261SOL     OW 3918   2.953   0.946   2.536  0.2920 -0.8056 -0.2129
 1261SOL    HW1 3919   3.025   0.999   2.501 -0.2261 -1.6811 -2.8105
 1261SOL    HW2 3920   2.878   0.968   2.481 -0.3071 -3.0776 -0.4020
 1262SOL     OW 3921   2.728   0.409   2.518  0.0681  0.7191  0.2716
 1262SOL    HW1 3922   2.737   0.469   2.592  1.3994 -0.9414  1.5462
 1262SOL    HW2 3923   2.751   0.461   2.442  1.6291  1.7459  1.3876
 1263SOL     OW 3924   0.915   1.509   0.401 -0.1563 -0.6610  0.5373
 1263SOL    HW1 3925   0.841   1.464   0.442 -0.8034 -1.4746 -1.4027
 1263SOL    HW2 3926   0.978   1.440   0.382  0.1062 -0.3191  0.1382
 1264SOL     OW 3927   2.712   3.612   3.086  0.3361 -0.4823 -0.4308
 1264SOL    HW1 3928   2.706   3.693   3.036 -1.5094  0.8299  1.7117
 1264SOL    HW2 3929   2.648   3.553   3.046  1.3952 -0.7848 -1.7431
 1265SOL     OW 3930   3.302   0.150   1.065  0.3779 -0.3007 -0.3841
 1265SOL    HW1 3931   3.256   0.152   0.982  0.5671 -1.8863 -0.5630
 1265SOL    HW2 3932   3.391   0.175   1.044  1.0497 -2.9959 -1.1712
 1266SOL     OW 3933   0.070   2.880   1.856 -0.0157 -0.2623  0.8181
 1266SOL    HW1 3934   0.130   2.894   1.782 -1.1069  0.2573 -0.0096
 1266SOL    HW2 3935   0.035   2.967   1.875  0.6193 -0.3152  2.2987
 1267SOL     OW 3936   2.433   2.152   1.552  0.0223  0.0636  0.9695
 1267SOL    HW1 3937   2.471   2.224   1.602 -0.9628  2.1749 -1.1275
 1267SOL    HW2 3938   2.506   2.095   1.531  1.0354  1.0612  1.7051
 1268SOL     OW 3939   2.676   3.060   0.529 -0.0366  0.6703 -0.2401
 1268SOL    HW1 3940   2.732   3.123   0.574  0.1103  0.2795  0.1339
 1268SOL    HW2 3941   2.736   2.998   0.489 -0.1794 -0.5910  1.3683
 1269SOL     OW 3942   0.913   1.413   1.261  0.0225  0.4258  0.4592
 1269SOL    HW1 3943   0.949   1.324   1.262  2.5994  1.3678  3.1976
 1269SOL    HW2 3944   0.938   1.447   1.175 -0.7589 -1.3109 -0.5309
 1270SOL     OW 3945   2.173   2.991   3.482  0.0824 -0.6037  0.2679
 1270SOL    HW1 3946   2.241   2.993   3.549 -0.0852 -2.0735  0.5004
 1270SOL    HW2 3947   2.110   3.058   3.510  0.5976 -0.3910  0.9401
 1271SOL     OW 3948   2.840   2.330   0.795 -0.3872  0.1814 -0.3513
 1271SOL    HW1 3949   2.856   2.247   0.751 -0.1390 -0.7127  1.3658
 1271SOL    HW2 3950   2.745   2.336   0.800 -0.5320  1.3264 -2.8086
 1272SOL     OW 3951   2.601   3.119   0.929  0.5017 -0.4487 -0.2501
 1272SOL    HW1 3952   2.595   3.126   1.024  1.1308 -0.9079 -0.1776
 1272SOL    HW2 3953   2.683   3.162   0.906  1.0805 -1.6215 -0.4394
 1273SOL     OW 3954   3.478   2.850   1.256 -0.1930 -0.4855 -0.8302
 1273SOL    HW1 3955   3.415   2.792   1.214  0.2735 -1.5629 -0.0788
 1273SOL    HW2 3956   3.427   2.926   1.283 -0.6606 -0.1341 -2.5652
 1274SOL     OW 3957   0.869   2.737   1.931 -0.0051 -0.6246  0.7370
 1274SOL    HW1 3958   0.903   2.826   1.925 -0.6690 -0.4658 -2.2202
 1274SOL    HW2 3959   0.774   2.747   1.925 -0.0336 -1.5187 -1.5591
 1275SOL     OW 3960   2.381   3.237   0.556 -0.5868 -0.1739  0.2024
 1275SOL    HW1 3961   2.473   3.235   0.532 -0.3555 -0.7034  1.0832
 1275SOL    HW2 3962   2.368   3.323   0.596 -0.6337  0.1446 -0.4828
 1276SOL     OW 3963   3.001   2.685   0.745 -0.3561  0.1679  0.3011
 1276SOL    HW1 3964   2.938   2.755   0.756 -0.7080  0.2166 -1.6972
 1276SOL    HW2 3965   3.051   2.709   0.667 -0.8636 -2.0291 -0.7944
 1277SOL     OW 3966   2.177   1.683   0.467 -0.6348  0.1649  0.2709
 1277SOL    HW1 3967   2.210   1.739   0.397 -0.8867 -0.5404 -0.4195
 1277SOL    HW2 3968   2.173   1.741   0.543  2.8588  0.1790  0.6165
 1278SOL     OW 3969   3.622   2.247   2.732  0.0162 -0.3901 -0.9191
 1278SOL    HW1 3970   3.702   2.298   2.720  0.1476 -0.0236  1.1911
 1278SOL    HW2 3971   3.618   2.191   2.654  1.4165  0.7484 -1.8794
 1279SOL     OW 3972   1.801   0.295   3.445  0.0322  0.3728  0.0945
 1279SOL    HW1 3973   1.711   0.325   3.458 -0.4167 -0.5003 -0.8723
 1279SOL    HW2 3974   1.836   0.353   3.377 -0.7871 -1.0881 -1.6646
 1280SOL     OW 3975   2.246   0.810   1.835  0.0920  0.5839  0.6866
 1280SOL    HW1 3976   2.161   0.811   1.790  1.8424 -1.9196 -3.2080
 1280SOL    HW2 3977   2.296   0.879   1.791  1.7456 -1.7052 -1.3241
 1281SOL     OW 3978   2.503   1.835   0.334 -0.7816  0.4447 -0.3903
 1281SOL    HW1 3979   2.447   1.898   0.377 -0.1041  0.6911  0.1566
 1281SOL    HW2 3980   2.585   1.882   0.317  0.1135 -0.5471  0.9504
 1282SOL     OW 3981   3.306   3.563   1.844 -0.8897  0.1624  0.6705
 1282SOL    HW1 3982   3.245   3.634   1.826 -1.4508 -0.9413 -2.3232
 1282SOL    HW2 3983   3.378   3.576   1.782 -0.0907 -0.8740  1.3392
 1283SOL     OW 3984   0.967   0.873   3.019  0.1441 -0.2573 -0.0669
 1283SOL    HW1 3985   1.056   0.839   3.012  0.5225  0.4018  1.2359
 1283SOL    HW2 3986   0.911   0.796   3.013  0.9255 -0.9955  1.5803
 1284SOL     OW 3987   2.793   0.177   0.700 -0.1640  1.1204  0.3676
 1284SOL    HW1 3988   2.712   0.221   0.674 -0.4818 -0.3436 -1.3464
 1284SOL    HW2 3989   2.860   0.218   0.646 -0.2442  0.4379 -0.2624
 1285SOL     OW 3990   1.490   2.448   1.273 -0.5428  0.1356  0.1266
 1285SOL    HW1 3991   1.531   2.483   1.193 -0.2801  0.4724  0.4045
 1285SOL    HW2 3992   1.502   2.518   1.338  2.2288 -1.3782  1.4349
 1286SOL     OW 3993   2.923   0.517   0.204 -0.3165 -0.0293  0.2542
 1286SOL    HW1 3994   2.838   0.479   0.227 -1.9089  1.7756 -2.1879
 1286SOL    HW2 3995   2.920   0.528   0.109  2.4990  0.5431  0.1422
 1287SOL     OW 3996   2.408   2.491   3.018  0.4981  0.0769  0.4123
 1287SOL    HW1 3997   2.426   2.397   3.010 -2.0391 -0.5302  0.9477
 1287SOL    HW2 3998   2.370   2.501   3.105 -1.7997  1.0813 -0.6349
 1288SOL     OW 3999   3.414   3.533   2.829 -0.3257  0.0484 -0.4912
 1288SOL    HW1 4000   3.465   3.509   2.751  2.5449  2.2434  0.5405
 1288SOL    HW2 4001   3.395   3.449   2.871  1.2416 -0.9891 -1.7069
 1289SOL     OW 4002   1.802   3.200   1.710  0.6373  0.7211  0.1614
 1289SOL    HW1 4003   1.744   3.254   1.764 -0.5918  0.0127 -0.4010
 1289SOL    HW2 4004   1.839   3.137   1.771  0.5918  0.9998  0.4824
 1290SOL     OW 4005   1.086   2.073   2.429  0.2557 -0.3728  0.1376
 1290SOL    HW1 4006   1.106   2.000   2.488  0.8402  1.2467  2.0481
 1290SOL    HW2 4007   0.991   2.083   2.436  0.1185 -1.1706 -0.4436
 1291SOL     OW 4008   3.356   3.239   2.686  0.3164  0.2245  0.7558
 1291SOL    HW1 4009   3.270   3.278   2.700 -1.1299 -2.2512 -0.5595
 1291SOL    HW2 4010   3.407   3.307   2.644 -2.4486  0.4883 -2.6143
 1292SOL     OW 4011   1.073   0.642   2.082 -0.1553 -0.1057  0.0394
 1292SOL    HW1 4012   1.166   0.621   2.095  0.0254  0.0694 -0.8791
 1292SOL    HW2 4013   1.069   0.680   1.994 -0.9559  0.7900  0.4474
 1293SOL     OW 4014   0.114   1.582   0.344  0.3003 -0.5695 -0.2566
 1293SOL    HW1 4015   0.102   1.672   0.377 -0.4627 -1.9652  3.9692
 1293SOL    HW2 4016   0.049   1.531   0.393 -0.2721 -3.3193 -3.5516
 1294SOL     OW 4017   0.858   3.001   1.198  0.7739  0.2120 -0.3146
 1294SOL    HW1 4018   0.927   2.964   1.253  1.2388  0.2460 -0.8685
 1294SOL    HW2 4019   0.863   3.095   1.211 -0.5056  0.1038  1.2093
 1295SOL     OW 4020   2.063   3.032   2.334 -0.0622 -0.1177 -0.2535
 1295SOL    HW1 4021   2.040   2.946   2.370 -1.3354 -0.2939 -1.3998
 1295SOL    HW2 4022   2.147   3.019   2.291 -1.1898 -1.3934 -2.2439
 1296SOL     OW 4023   0.476   2.257   2.384 -0.7416 -0.2684 -0.0459
 1296SOL    HW1 4024   0.509   2.346   2.373 -2.2341  0.0180 -4.5028
 1296SOL    HW2 4025   0.550   2.201   2.361 -0.3994 -0.0880  0.6126
 1297SOL     OW 4026   2.928   0.661   2.017 -0.7485  0.5287 -0.2701
 1297SOL    HW1 4027   3.001   0.709   2.058 -1.4016  2.7417 -1.4928
 1297SOL    HW2 4028   2.946   0.569   2.035  0.8457  1.1801  1.8586
 1298SOL     OW 4029   3.252   0.417   2.569  0.5253  0.3042 -0.1103
 1298SOL    HW1 4030   3.301   0.358   2.626 -0.7782 -0.6689  0.0408
 1298SOL    HW2 4031   3.187   0.458   2.626  3.1398  4.1851  0.4763
 1299SOL     OW 4032   0.768   1.506   3.324  0.3914 -1.0272 -0.3853
 1299SOL    HW1 4033   0.763   1.592   3.367  0.1011 -2.0031  1.6456
 1299SOL    HW2 4034   0.856   1.474   3.344  0.3685 -1.3672 -0.8184
 1300SOL     OW 4035   2.423   2.725   3.264 -0.8216  0.4959  0.6772
 1300SOL    HW1 4036   2.426   2.726   3.359 -0.7777  1.1996  0.6726
 1300SOL    HW2 4037   2.360   2.792   3.240 -2.0358 -0.7584  0.2350
 1301SOL     OW 4038   2.367   1.906   1.761 -0.0624 -0.0710 -0.2218
 1301SOL    HW1 4039   2.325   1.824   1.784  0.4165 -0.4225 -0.5888
 1301SOL    HW2 4040   2.330   1.970   1.822  0.2039 -0.7236  0.6460
 1302SOL     OW 4041   2.271   1.908   3.715  0.1454 -0.2516 -0.4983
 1302SOL    HW1 4042   2.327   1.948   3.649  1.3071  0.0960  0.6596
 1302SOL    HW2 4043   2.297   1.816   3.716  0.8506 -0.0599  0.1496
 1303SOL     OW 4044   1.316   2.334   1.057  0.0922 -0.0654  0.1983
 1303SOL    HW1 4045   1.270   2.257   1.023 -1.4424 -0.0402  2.0062
 1303SOL    HW2 4046   1.392   2.344   1.001 -0.1542 -2.3663 -0.6379
 1304SOL     OW 4047   2.825   1.490   2.409 -0.7956 -0.0040 -0.4646
 1304SOL    HW1 4048   2.900   1.530   2.453  0.2332  0.6590 -2.6415
 1304SOL    HW2 4049   2.793   1.424   2.471  1.2007  0.1227  0.8000
 1305SOL     OW 4050   2.790   1.851   2.795  0.2768  0.4021  0.4602
 1305SOL    HW1 4051   2.794   1.783   2.862 -0.4284  0.2787  0.3809
 1305SOL    HW2 4052   2.732   1.815   2.727  1.5637  0.2034 -0.5925
 1306SOL     OW 4053   3.413   2.884   2.159  0.5400  0.6555 -0.0704
 1306SOL    HW1 4054   3.490   2.936   2.184  1.5683 -0.8859  0.0593
 1306SOL    HW2 4055   3.346   2.950   2.139  2.0482  2.0554 -0.7598
 1307SOL     OW 4056   3.265   2.734   1.114 -0.3607  0.5146  0.0217
 1307SOL    HW1 4057   3.174   2.760   1.102 -0.4936 -0.5703 -1.6249
 1307SOL    HW2 4058   3.263   2.667   1.182 -0.7666  0.6275  0.1203
 1308SOL     OW 4059   3.638   3.515   3.239  0.4059  0.3888  0.0491
 1308SOL    HW1 4060   3.600   3.580   3.298  0.7186 -0.1680  0.8806
 1308SOL    HW2 4061   3.732   3.532   3.242  0.4937 -0.1339  0.3203
 1309SOL     OW 4062   3.669   0.127   2.717 -0.1921 -0.3963 -0.4826
 1309SOL    HW1 4063   3.695   0.149   2.807 -0.0127 -0.5417 -0.4990
 1309SOL    HW2 4064   3.739   0.163   2.662  0.7413 -2.0653 -0.4371
 1310SOL     OW 4065   1.070   3.454   0.067  0.1803 -0.1594  0.1103
 1310SOL    HW1 4066   0.980   3.422   0.068  0.8658 -2.2932  1.6911
 1310SOL    HW2 4067   1.088   3.473  -0.025 -1.9441  0.5631 -0.2023
 1311SOL     OW 4068   0.794   0.336   2.113 -0.0083 -0.1021 -0.3754
 1311SOL    HW1 4069   0.859   0.353   2.181  1.5440 -1.1792 -1.4943
 1311SOL    HW2 4070   0.804   0.407   2.051 -0.9779  0.5344  0.1700
 1312SOL     OW 4071   2.695   1.917   1.779  0.3663  0.5486  0.5445
 1312SOL    HW1 4072   2.669   1.920   1.871  0.9246  2.0916  0.6813
 1312SOL    HW2 4073   2.612   1.921   1.731 -0.1137 -2.5649  0.9067
 1313SOL     OW 4074   2.247   1.508   3.444  0.6135  0.3460  0.5661
 1313SOL    HW1 4075   2.224   1.453   3.519  1.0574 -0.1940  0.3144
 1313SOL    HW2 4076   2.199   1.590   3.458 -2.9972 -1.3218 -0.8416
 1314SOL     OW 4077   0.140   1.903   2.508 -0.3807  0.0205  0.6930
 1314SOL    HW1 4078   0.226   1.934   2.479  0.8814 -2.8705  1.1024
 1314SOL    HW2 4079   0.093   1.884   2.427 -1.3730  3.0525  0.3936
 1315SOL     OW 4080   0.122   1.004   3.142  0.0434  0.3358 -0.3565
 1315SOL    HW1 4081   0.158   1.082   3.099  2.3384 -0.4348  0.0363
 1315SOL    HW2 4082   0.121   0.937   3.073 -2.5997  0.7991 -0.8941
 1316SOL     OW 4083   1.325   1.529   0.137 -0.1500 -0.7134 -0.3527
 1316SOL    HW1 4084   1.375   1.610   0.124 -1.5758  0.5352  1.5407
 1316SOL    HW2 4085   1.381   1.475   0.192 -0.1792  0.0117  0.4096
 1317SOL     OW 4086   2.595   1.368   1.301  0.0890  0.6348  0.1018
 1317SOL    HW1 4087   2.556   1.426   1.235  4.0105  2.3599 -1.0375
 1317SOL    HW2 4088   2.686   1.358   1.272  0.7254 -2.6737  2.6759
 1318SOL     OW 4089   2.623   1.209   2.098 -0.0533  0.8947  0.4378
 1318SOL    HW1 4090   2.672   1.140   2.052  0.0401  2.0588 -1.3235
 1318SOL    HW2 4091   2.684   1.242   2.164  0.5774  0.5341  0.0419
 1319SOL     OW 4092   1.546   3.125   3.367 -0.1482 -0.1567 -0.5871
 1319SOL    HW1 4093   1.471   3.128   3.426  0.3766 -0.1431  0.0969
 1319SOL    HW2 4094   1.608   3.189   3.404  0.0452  0.1132 -1.3594
 1320SOL     OW 4095   1.174   1.154   0.205  0.5093  0.5965  0.1130
 1320SOL    HW1 4096   1.236   1.192   0.142 -1.0434 -0.6282 -2.3074
 1320SOL    HW2 4097   1.193   1.061   0.205 -0.4293  0.3930  0.4035
 1321SOL     OW 4098   0.266   1.019   2.544 -0.1605 -0.0610 -0.1991
 1321SOL    HW1 4099   0.358   1.000   2.528 -0.5831 -2.5709 -0.0780
 1321SOL    HW2 4100   0.230   0.937   2.579 -2.4639  0.7971 -0.3552
 1322SOL     OW 4101   1.010   2.096   3.140 -0.5724  0.1246  0.2840
 1322SOL    HW1 4102   1.038   2.005   3.155 -0.0378  0.4906  1.6749
 1322SOL    HW2 4103   0.914   2.092   3.140 -0.5511 -0.5539 -0.4793
 1323SOL     OW 4104   1.188   0.314   1.820  0.0105  0.0241 -0.1847
 1323SOL    HW1 4105   1.125   0.273   1.879 -1.2161 -1.3140 -2.3078
 1323SOL    HW2 4106   1.232   0.380   1.874 -1.7623 -0.3985  1.9084
 1324SOL     OW 4107   0.662   0.819   1.976  0.6584  0.7060 -0.5833
 1324SOL    HW1 4108   0.701   0.882   2.036  0.1512 -0.5742  1.1694
 1324SOL    HW2 4109   0.592   0.867   1.932 -0.3656  1.1450  1.4268
 1325SOL     OW 4110   0.148   2.834   1.252  0.2359  0.4166  0.0953
 1325SOL    HW1 4111   0.229   2.810   1.297  0.2544  1.8413  0.8715
 1325SOL    HW2 4112   0.091   2.758   1.264  2.0105 -1.4395 -2.0577
 1326SOL     OW 4113   0.082   2.032   0.138  0.2846 -0.1658  0.3335
 1326SOL    HW1 4114   0.137   2.084   0.079  1.1478 -1.5769 -0.1560
 1326SOL    HW2 4115   0.091   2.075   0.223  0.1401  1.0764 -0.2470
 1327SOL     OW 4116   2.371   1.637   1.757  0.0773 -0.5372 -0.2567
 1327SOL    HW1 4117   2.420   1.718   1.751 -1.0712  0.0871 -2.3081
 1327SOL    HW2 4118   2.424   1.580   1.812  1.3852  1.2474  0.4075
 1328SOL     OW 4119   0.480   2.658   3.145 -0.1023  0.0838 -0.4860
 1328SOL    HW1 4120   0.524   2.700   3.220 -0.2819 -0.1456 -0.2485
 1328SOL    HW2 4121   0.410   2.720   3.123 -0.0473  0.1544 -0.4657
 1329SOL     OW 4122   0.531   1.879   1.143  0.4836  0.5913 -0.1386
 1329SOL    HW1 4123   0.589   1.872   1.068 -0.7182 -2.3335 -0.9071
 1329SOL    HW2 4124   0.566   1.816   1.207 -0.5558  0.4193  0.2805
 1330SOL     OW 4125   1.513   3.272   0.045 -0.0260 -0.5744  0.3610
 1330SOL    HW1 4126   1.431   3.226   0.026 -1.4446  1.7161  0.5707
 1330SOL    HW2 4127   1.497   3.362   0.017  2.3612  0.0143  0.6605
 1331SOL     OW 4128   1.861   1.141   0.574  0.3632 -0.1584  0.3032
 1331SOL    HW1 4129   1.863   1.158   0.668  0.6493  0.6988  0.1505
 1331SOL    HW2 4130   1.859   1.228   0.534 -0.3031 -0.5128 -0.4735
 1332SOL     OW 4131   1.161   1.515   0.651  0.9318  0.3063 -0.4058
 1332SOL    HW1 4132   1.170   1.451   0.581 -1.0615  1.9094 -2.2819
 1332SOL    HW2 4133   1.181   1.599   0.609  0.7565  1.2043  1.2472
 1333SOL     OW 4134   2.525   2.270   0.425 -0.8807 -0.5564 -0.2995
 1333SOL    HW1 4135   2.570   2.285   0.342 -2.6526 -1.0805 -1.3894
 1333SOL    HW2 4136   2.588   2.300   0.492 -0.1935  1.7705 -1.8785
 1334SOL     OW 4137   3.527   0.523   0.152 -0.5188  0.2448 -0.3635
 1334SOL    HW1 4138   3.599   0.552   0.207  0.1704 -1.5193 -0.2478
 1334SOL    HW2 4139   3.486   0.452   0.201 -1.3202  0.1485 -1.1413
 1335SOL     OW 4140   0.080   0.274   2.562  0.1168  0.5454 -0.4739
 1335SOL    HW1 4141   0.171   0.245   2.559 -0.4436 -1.5238  0.5619
 1335SOL    HW2 4142   0.051   0.274   2.471  0.5128 -1.0844 -0.6298
 1336SOL     OW 4143   0.929   1.207   0.043 -0.0505 -0.1483 -0.2240
 1336SOL    HW1 4144   0.877   1.277   0.083 -0.3404 -0.8094  0.5798
 1336SOL    HW2 4145   1.020   1.238   0.052 -0.2581  0.8676 -1.3641
 1337SOL     OW 4146   1.289   0.127   2.679  0.5990  0.2484  0.0450
 1337SOL    HW1 4147   1.245   0.208   2.704 -1.0568  0.3286 -2.7155
 1337SOL    HW2 4148   1.369   0.156   2.635  1.4019  0.2382  1.4453
 1338SOL     OW 4149   3.286   3.110   0.995  0.5526 -0.5365 -0.0497
 1338SOL    HW1 4150   3.248   3.068   0.917  2.0860  0.1973 -1.2456
 1338SOL    HW2 4151   3.210   3.139   1.045 -0.4968 -0.9425 -1.3304
 1339SOL     OW 4152   1.115   2.793   2.738 -0.3469  0.7660 -0.3566
 1339SOL    HW1 4153   1.061   2.868   2.765 -0.5872  0.2218  0.7336
 1339SOL    HW2 4154   1.156   2.763   2.819 -0.1433 -0.1960 -0.8092
 1340SOL     OW 4155   0.353   0.577   0.354  0.8492  0.3526 -0.4628
 1340SOL    HW1 4156   0.309   0.494   0.337  0.8762 -0.0507  1.2675
 1340SOL    HW2 4157   0.284   0.633   0.390  0.7822  1.1842 -1.7979
 1341SOL     OW 4158   3.699   1.510   1.007  0.3666  0.3314 -0.1663
 1341SOL    HW1 4159   3.704   1.415   0.997  0.1464  0.0942  1.5713
 1341SOL    HW2 4160   3.785   1.536   1.040 -0.4499  0.2500  2.2745
 1342SOL     OW 4161   0.595   3.573   1.154 -0.2351 -0.1243 -0.0216
 1342SOL    HW1 4162   0.610   3.665   1.176 -0.6631  0.3416 -1.5678
 1342SOL    HW2 4163   0.649   3.557   1.077 -1.7805 -0.5392 -1.0676
 1343SOL     OW 4164   3.122   1.177   1.127 -0.2158  0.5853  0.3992
 1343SOL    HW1 4165   3.204   1.167   1.174  0.3592 -0.3706 -0.7416
 1343SOL    HW2 4166   3.088   1.087   1.120  2.5223 -0.4561 -5.7680
 1344SOL     OW 4167   3.188   2.322   1.038 -0.2423  0.0045 -0.4375
 1344SOL    HW1 4168   3.151   2.295   1.122  0.2365 -0.6189 -0.4181
 1344SOL    HW2 4169   3.127   2.388   1.005 -0.6966 -0.1012  0.1691
 1345SOL     OW 4170   1.625   3.723   2.216 -0.0892 -0.1782  0.4541
 1345SOL    HW1 4171   1.714   3.710   2.249  0.6274  4.0068  0.6872
 1345SOL    HW2 4172   1.571   3.733   2.295  0.0969  1.5448  0.4003
 1346SOL     OW 4173   1.295   0.023   1.939  0.0336 -0.2777  0.3260
 1346SOL    HW1 4174   1.218   0.045   1.886 -1.2236 -0.2317  2.0677
 1346SOL    HW2 4175   1.259  -0.025   2.014  1.5089  1.0967  1.9917
 1347SOL     OW 4176   2.849   2.202   1.885  0.4826 -0.4585  0.1818
 1347SOL    HW1 4177   2.849   2.291   1.850  0.2958 -0.8265 -0.7843
 1347SOL    HW2 4178   2.902   2.152   1.823  0.1952 -1.1126  0.4561
 1348SOL     OW 4179   3.689   1.686   2.911  0.6001  0.0460  0.0691
 1348SOL    HW1 4180   3.665   1.737   2.834 -2.8047  1.3809  1.7995
 1348SOL    HW2 4181   3.667   1.596   2.889  0.1814  0.3334 -0.7168
 1349SOL     OW 4182   3.264   0.472   0.573 -0.4874 -0.3253 -0.3613
 1349SOL    HW1 4183   3.347   0.437   0.604 -0.3683 -0.9823 -1.3918
 1349SOL    HW2 4184   3.267   0.461   0.478 -1.0175  1.2481 -0.5871
 1350SOL     OW 4185   1.250   3.144   3.259  0.0779  0.4156 -0.1853
 1350SOL    HW1 4186   1.331   3.166   3.214 -0.0152  1.0681 -0.0523
 1350SOL    HW2 4187   1.204   3.228   3.268 -0.1644  0.2115  0.6168
 1351SOL     OW 4188   2.474   0.336   2.333 -0.1330 -0.8480 -0.6691
 1351SOL    HW1 4189   2.409   0.298   2.274 -0.5453 -0.7322 -0.2953
 1351SOL    HW2 4190   2.546   0.273   2.333 -1.0295 -1.9146  0.3523
 1352SOL     OW 4191   0.869   0.666   2.465  0.0635 -0.1732 -0.7386
 1352SOL    HW1 4192   0.956   0.705   2.472 -1.0673  2.4677 -0.2377
 1352SOL    HW2 4193   0.830   0.707   2.388 -0.9374 -0.8802 -0.6367
 1353SOL     OW 4194   0.699   0.248   0.309 -0.0818  0.4086 -0.5171
 1353SOL    HW1 4195   0.767   0.203   0.358  0.7880  0.9191 -1.2110
 1353SOL    HW2 4196   0.732   0.338   0.298 -1.3993  1.0047  0.1295
 1354SOL     OW 4197   3.355   0.804   0.945 -0.2101 -0.1205 -0.5691
 1354SOL    HW1 4198   3.395   0.730   0.900  1.3211 -0.0898  0.6374
 1354SOL    HW2 4199   3.322   0.767   1.027  0.9460  0.5605  0.2358
 1355SOL     OW 4200   1.366   2.391   0.578  0.1285 -0.3112 -0.6183
 1355SOL    HW1 4201   1.410   2.306   0.586 -1.5743 -1.1863  0.1998
 1355SOL    HW2 4202   1.427   2.453   0.617  0.6280 -1.4734  0.5512
 1356SOL     OW 4203   2.793   3.404   1.614  0.2483  0.1620  0.2044
 1356SOL    HW1 4204   2.737   3.326   1.605  2.5641 -1.6746  0.6477
 1356SOL    HW2 4205   2.874   3.370   1.651  1.5160  2.7814  0.0122
 1357SOL     OW 4206   1.995   3.216   2.522  0.5126  0.0721  0.2090
 1357SOL    HW1 4207   1.990   3.151   2.452 -0.2426 -1.0709  1.2844
 1357SOL    HW2 4208   1.908   3.216   2.561  0.1614  2.5550 -0.4343
 1358SOL     OW 4209   3.715   2.825   2.399  0.3184 -0.0314 -0.2167
 1358SOL    HW1 4210   3.639   2.858   2.446 -0.4832 -1.9135 -0.0893
 1358SOL    HW2 4211   3.697   2.843   2.307  0.2712  0.5650 -0.0914
 1359SOL     OW 4212   1.245   2.598   3.558  0.5073  0.0692 -0.1928
 1359SOL    HW1 4213   1.230   2.683   3.517  4.0837  0.1272 -1.6877
 1359SOL    HW2 4214   1.266   2.618   3.649  1.7017  0.8522 -0.6301
 1360SOL     OW 4215   1.202   3.216   2.904 -0.4044 -0.9294 -0.2845
 1360SOL    HW1 4216   1.161   3.281   2.962  0.3954 -0.5023 -0.1932
 1360SOL    HW2 4217   1.278   3.185   2.953  1.6468  1.0932 -1.9640
 1361SOL     OW 4218   0.776   0.082   0.968 -0.2399  0.0281 -0.1982
 1361SOL    HW1 4219   0.748   0.083   1.060  1.2636  0.8758  0.2754
 1361SOL    HW2 4220   0.724   0.012   0.929 -0.1261 -1.0958  1.5485
 1362SOL     OW 4221   0.402   0.729   1.550 -0.5596  0.3008  0.7693
 1362SOL    HW1 4222   0.360   0.815   1.548 -0.1542  0.5076  0.9701
 1362SOL    HW2 4223   0.493   0.746   1.523 -0.6210 -0.1522  0.2572
 1363SOL     OW 4224   2.469   0.891   0.857  0.3530 -0.2622  0.9243
 1363SOL    HW1 4225   2.456   0.830   0.784  1.9249  0.0558  0.3294
 1363SOL    HW2 4226   2.543   0.945   0.830 -0.7989  1.7502  1.5588
 1364SOL     OW 4227   2.716   3.638   2.620  0.3486 -0.4644 -0.0850
 1364SOL    HW1 4228   2.691   3.546   2.629 -2.3839  0.1368 -0.6274
 1364SOL    HW2 4229   2.803   3.635   2.580  0.2622 -2.8018 -0.2477
 1365SOL     OW 4230   0.172   2.012   3.340 -0.3857  0.1280  0.0015
 1365SOL    HW1 4231   0.137   2.096   3.311  0.4938  0.4772 -0.1070
 1365SOL    HW2 4232   0.098   1.966   3.379 -1.3309  0.1625 -1.6436
 1366SOL     OW 4233   2.238   2.554   1.631 -0.2650 -0.0156 -0.3723
 1366SOL    HW1 4234   2.156   2.505   1.640  0.2319 -0.8491 -0.2688
 1366SOL    HW2 4235   2.262   2.576   1.721  0.4053 -1.1136 -0.2627
 1367SOL     OW 4236   1.209   2.303   1.781  0.6256  0.1371  0.1179
 1367SOL    HW1 4237   1.217   2.333   1.690 -1.4248  0.2840 -0.0664
 1367SOL    HW2 4238   1.192   2.209   1.774 -2.5375  0.6015  0.0848
 1368SOL     OW 4239   3.249   0.105   0.018 -0.3542  0.5053 -0.7115
 1368SOL    HW1 4240   3.231   0.139   0.106  2.2729 -2.7534  1.3776
 1368SOL    HW2 4241   3.283   0.180  -0.030  0.0084  2.0488  1.7476
 1369SOL     OW 4242   1.526   0.119   0.481  0.1438 -0.6558  1.0346
 1369SOL    HW1 4243   1.591   0.050   0.473  1.9802  0.9713  1.2359
 1369SOL    HW2 4244   1.520   0.136   0.575 -1.7634 -1.7974  1.1804
 1370SOL     OW 4245   2.332   0.183   1.737  0.0307 -0.1191 -0.0064
 1370SOL    HW1 4246   2.417   0.213   1.705  1.1641 -0.2176  2.6560
 1370SOL    HW2 4247   2.343   0.175   1.832 -3.7954  2.6292  0.9286
 1371SOL     OW 4248   1.965   2.269   0.918  0.3717 -0.3645  0.4112
 1371SOL    HW1 4249   1.958   2.257   0.823 -2.1781 -1.5993  0.6615
 1371SOL    HW2 4250   1.932   2.357   0.934 -1.4737 -0.9852  0.2787
 1372SOL     OW 4251   0.751   2.162   3.273  0.4741  0.3491  0.6884
 1372SOL    HW1 4252   0.677   2.159   3.212  0.6027  0.5049  0.5223
 1372SOL    HW2 4253   0.716   2.204   3.351  0.3995  0.4701  0.5908
 1373SOL     OW 4254   0.583   1.763   3.243 -0.2500 -0.4329  0.0810
 1373SOL    HW1 4255   0.532   1.744   3.163  0.8984 -2.2169 -0.2905
 1373SOL    HW2 4256   0.530   1.726   3.313 -1.5646  1.6906  0.2693
 1374SOL     OW 4257   2.074   2.482   1.135  0.0515  0.5509  0.3002
 1374SOL    HW1 4258   2.083   2.551   1.201 -0.8918  0.0960  0.9165
 1374SOL    HW2 4259   2.067   2.401   1.185  3.1166 -0.2992 -0.4320
 1375SOL     OW 4260   1.218   0.940   2.731  0.6823  0.2237 -0.0178
 1375SOL    HW1 4261   1.176   0.997   2.795 -1.6837  0.0456 -1.2897
 1375SOL    HW2 4262   1.283   0.995   2.689  1.6903  0.5815  1.9084
 1376SOL     OW 4263   0.761   2.841   3.265  0.2131 -0.1383  0.9434
 1376SOL    HW1 4264   0.735   2.932   3.247  1.3033 -0.3369 -2.4706
 1376SOL    HW2 4265   0.851   2.848   3.298  0.9877  0.0532 -1.0559
 1377SOL     OW 4266   3.441   1.824   1.283 -0.5347 -0.2002 -0.2449
 1377SOL    HW1 4267   3.527   1.845   1.318 -1.0552  0.6238  0.5892
 1377SOL    HW2 4268   3.420   1.897   1.226 -0.6661 -0.4268 -0.4904
 1378SOL     OW 4269   2.827   2.690   3.447  0.1677  0.5319  0.2702
 1378SOL    HW1 4270   2.914   2.716   3.417 -0.3559  2.1258  0.0705
 1378SOL    HW2 4271   2.843   2.613   3.502  1.5531  0.0180 -0.7979
 1379SOL     OW 4272   1.490   0.931   3.403  0.0270  0.0734  0.4124
 1379SOL    HW1 4273   1.554   0.904   3.338 -0.6686  0.4378 -0.4539
 1379SOL    HW2 4274   1.408   0.937   3.354 -0.4707  0.5683  1.2829
 1380SOL     OW 4275   0.373   1.085   0.503  0.4092  0.4381 -0.0940
 1380SOL    HW1 4276   0.450   1.029   0.507 -1.4382 -2.3874 -1.3394
 1380SOL    HW2 4277   0.337   1.085   0.591  0.9326  0.4831  0.1230
 1381SOL     OW 4278   2.534   0.838   3.392 -0.3646  0.0596 -0.0975
 1381SOL    HW1 4279   2.444   0.837   3.360 -0.5518 -0.7516  0.4128
 1381SOL    HW2 4280   2.546   0.752   3.432  1.0796 -0.3960 -1.3853
 1382SOL     OW 4281   1.939   0.956   2.438  0.2229 -0.3438  0.9087
 1382SOL    HW1 4282   2.003   0.927   2.502  0.6526 -1.6888 -0.0722
 1382SOL    HW2 4283   1.898   0.875   2.407  0.7735  0.1369 -1.2433
 1383SOL     OW 4284   0.847   1.316   3.123  0.4627 -0.0355  0.2415
 1383SOL    HW1 4285   0.914   1.381   3.105 -0.6935  1.1790  0.1862
 1383SOL    HW2 4286   0.769   1.367   3.148 -1.1524 -1.2227 -1.9414
 1384SOL     OW 4287   0.578   0.523   0.155 -0.0516  0.0648  0.7083
 1384SOL    HW1 4288   0.531   0.554   0.232 -1.4072 -0.8649  0.2847
 1384SOL    HW2 4289   0.549   0.581   0.084 -0.2358 -0.2339  0.5358
 1385SOL     OW 4290   2.092   2.600   3.647 -0.1490 -0.6450 -0.7749
 1385SOL    HW1 4291   2.092   2.652   3.566 -0.2574 -0.6624 -0.7863
 1385SOL    HW2 4292   2.081   2.664   3.717  1.8507 -0.4033 -0.6220
 1386SOL     OW 4293   0.583   2.307   2.032  0.1185  0.3396  0.0472
 1386SOL    HW1 4294   0.504   2.332   1.984 -0.1279 -3.0991 -1.6666
 1386SOL    HW2 4295   0.655   2.331   1.973  0.2646  1.5696  0.6936
 1387SOL     OW 4296   2.787   3.621   0.670 -1.1215 -0.4986 -0.1841
 1387SOL    HW1 4297   2.803   3.640   0.577 -0.0335  3.5343  0.6392
 1387SOL    HW2 4298   2.764   3.706   0.708 -0.2158 -1.7347  3.5129
 1388SOL     OW 4299   0.118   0.389   0.190 -0.5418  0.4891 -0.1633
 1388SOL    HW1 4300   0.077   0.337   0.260  0.2709 -0.2531 -0.2211
 1388SOL    HW2 4301   0.082   0.477   0.201 -1.6189  0.0196  0.2119
 1389SOL     OW 4302   0.829   2.389   2.976 -0.1706  0.0534  0.4991
 1389SOL    HW1 4303   0.885   2.333   2.922  0.1536 -1.7515  2.5641
 1389SOL    HW2 4304   0.742   2.350   2.968  0.2343 -1.5407  2.7379
 1390SOL     OW 4305   1.695   3.110   2.343  0.1597  0.1861 -0.3573
 1390SOL    HW1 4306   1.685   3.110   2.438 -1.2654  2.0537 -0.4516
 1390SOL    HW2 4307   1.631   3.173   2.312 -0.9922 -1.9712 -2.7650
 1391SOL     OW 4308   2.237   2.824   0.869 -0.1147 -0.6443 -0.3270
 1391SOL    HW1 4309   2.275   2.768   0.936  0.4857 -2.2133 -1.8852
 1391SOL    HW2 4310   2.311   2.877   0.838 -0.5690  0.6894  0.7790
 1392SOL     OW 4311   0.431   2.102   2.154  0.7760 -0.2141 -0.2428
 1392SOL    HW1 4312   0.475   2.185   2.138  0.2977 -0.3055 -2.5276
 1392SOL    HW2 4313   0.499   2.036   2.144  0.7554 -0.1884 -0.5796
 1393SOL     OW 4314   2.772   2.432   1.755 -0.3706 -0.2216 -0.5526
 1393SOL    HW1 4315   2.695   2.411   1.702 -0.5490  0.6989 -0.6660
 1393SOL    HW2 4316   2.788   2.525   1.740  1.0409 -0.4816 -0.8895
 1394SOL     OW 4317   0.405   3.053  -0.020  0.1691 -0.0627 -0.9061
 1394SOL    HW1 4318   0.418   2.961   0.002  0.2221  0.1311 -0.0958
 1394SOL    HW2 4319   0.428   3.101   0.060  0.3000  0.6668 -1.3677
 1395SOL     OW 4320   2.694   2.461   2.023  0.5667  0.2505  0.2099
 1395SOL    HW1 4321   2.738   2.434   1.943 -0.3852 -1.1199  0.1036
 1395SOL    HW2 4322   2.751   2.430   2.093  1.1491  1.0071  0.0897
 1396SOL     OW 4323   0.039   2.682   3.344 -0.5360 -0.2253 -0.1423
 1396SOL    HW1 4324   0.131   2.668   3.364 -0.1516  0.4661 -1.3286
 1396SOL    HW2 4325  -0.003   2.597   3.360  0.5078 -0.8509 -0.6396
 1397SOL     OW 4326   2.887   2.633   1.560 -0.1626  1.0462 -0.1473
 1397SOL    HW1 4327   2.840   2.586   1.492 -0.5289 -0.8598  1.3213
 1397SOL    HW2 4328   2.967   2.581   1.574 -0.8784  0.4255  1.9608
 1398SOL     OW 4329   3.384   0.544   2.857  0.1256 -0.2236 -0.1040
 1398SOL    HW1 4330   3.295   0.513   2.870  0.0454 -0.6555 -1.5783
 1398SOL    HW2 4331   3.439   0.467   2.871  0.2781  0.0196  0.7052
 1399SOL     OW 4332   0.543   0.465   0.966 -0.5551 -0.1564 -0.0515
 1399SOL    HW1 4333   0.571   0.531   0.903  0.6548 -0.6744 -0.0847
 1399SOL    HW2 4334   0.500   0.515   1.036  0.1547  0.6377 -0.1745
 1400SOL     OW 4335   2.409   3.180   1.134  0.5475  0.2337  0.0159
 1400SOL    HW1 4336   2.440   3.270   1.134 -1.4418  0.9761  1.2442
 1400SOL    HW2 4337   2.351   3.174   1.059  1.1783 -0.2347 -0.4458
 1401SOL     OW 4338   3.487   2.687   3.607  0.2458 -0.4004 -0.2687
 1401SOL    HW1 4339   3.429   2.644   3.544 -0.0823 -0.1585 -0.1339
 1401SOL    HW2 4340   3.438   2.764   3.636  0.3925 -0.5216  0.2981
 1402SOL     OW 4341   2.033   0.232   3.233  0.8667  1.0734 -0.3289
 1402SOL    HW1 4342   1.974   0.266   3.165 -0.8244 -1.8541 -0.5035
 1402SOL    HW2 4343   2.077   0.158   3.192  0.1671 -0.4644  1.5571
 1403SOL     OW 4344   3.088   2.246   0.259  0.1788  0.2619  0.3718
 1403SOL    HW1 4345   3.090   2.330   0.305  1.2628  1.1339 -1.1719
 1403SOL    HW2 4346   3.024   2.194   0.308 -0.3091  1.8645  1.5528
 1404SOL     OW 4347   3.508   3.679   3.411  0.2861  0.0091 -0.2516
 1404SOL    HW1 4348   3.465   3.652   3.493  0.1169  1.1542  0.0487
 1404SOL    HW2 4349   3.442   3.732   3.367 -0.1100 -1.6574 -1.7722
 1405SOL     OW 4350   0.822   3.701   3.532  0.1447  0.8464  0.3337
 1405SOL    HW1 4351   0.756   3.719   3.599 -2.1288  2.8016 -2.1660
 1405SOL    HW2 4352   0.901   3.745   3.563  0.7283 -2.1807  3.7895
 1406SOL     OW 4353   2.997   2.659   3.161  0.1384  0.2516 -0.1241
 1406SOL    HW1 4354   3.048   2.639   3.082  0.7740  0.5030  0.2099
 1406SOL    HW2 4355   2.939   2.584   3.172 -0.0914  0.3043 -0.9360
 1407SOL     OW 4356   1.080   2.005   2.836 -0.4947  0.0409  0.1724
 1407SOL    HW1 4357   1.088   2.100   2.831  1.2619  0.1652  3.0671
 1407SOL    HW2 4358   1.156   1.972   2.789  1.1157  0.3002  2.4158
 1408SOL     OW 4359   3.124   0.319   0.234 -0.8529  0.5615 -0.4296
 1408SOL    HW1 4360   3.056   0.384   0.221 -2.2584 -0.2282  2.2577
 1408SOL    HW2 4361   3.081   0.248   0.282  1.2590 -1.1513 -0.9049
 1409SOL     OW 4362   2.899   1.539   2.690 -0.6097 -0.4013  0.2934
 1409SOL    HW1 4363   2.876   1.450   2.713 -0.0156 -0.6798 -0.1449
 1409SOL    HW2 4364   2.870   1.592   2.764  1.5134 -1.2921  1.8788
 1410SOL     OW 4365   0.691   1.631   0.884  0.5154  0.1347  0.1613
 1410SOL    HW1 4366   0.744   1.565   0.839  2.3280  1.9149 -0.4501
 1410SOL    HW2 4367   0.746   1.660   0.957 -0.4148  0.6981  0.6525
 1411SOL     OW 4368   0.957   1.155   1.273  0.0788 -0.0728 -0.0525
 1411SOL    HW1 4369   0.981   1.109   1.354 -0.7979 -1.5231 -0.5839
 1411SOL    HW2 4370   1.001   1.105   1.204  0.3854  0.8385 -0.5286
 1412SOL     OW 4371   0.250   2.312   0.196  0.4032 -0.0074 -0.1759
 1412SOL    HW1 4372   0.233   2.260   0.274 -1.4130  1.5131  0.5239
 1412SOL    HW2 4373   0.329   2.274   0.158  1.4585 -0.6718  2.4882
 1413SOL     OW 4374   2.905   3.235   3.204 -0.2620 -0.3242  0.5225
 1413SOL    HW1 4375   2.859   3.175   3.146 -0.5535  0.0875  0.3194
 1413SOL    HW2 4376   2.932   3.181   3.279 -1.8146 -0.4099  1.0480
 1414SOL     OW 4377   3.523   3.463   0.698 -0.3456  0.1919 -0.2655
 1414SOL    HW1 4378   3.517   3.372   0.729  1.2359 -0.4262 -1.6521
 1414SOL    HW2 4379   3.500   3.459   0.606  2.3198  0.6794 -1.0551
 1415SOL     OW 4380   3.021   2.858   1.628 -0.4118 -0.4418  0.0831
 1415SOL    HW1 4381   2.949   2.795   1.635 -1.7273  0.9477 -0.4718
 1415SOL    HW2 4382   3.073   2.826   1.554 -0.3985 -1.4848  0.5179
 1416SOL     OW 4383   1.593   0.362   0.064  0.3703 -0.2518  0.2013
 1416SOL    HW1 4384   1.509   0.329   0.098  0.1375 -0.0333 -0.1575
 1416SOL    HW2 4385   1.592   0.456   0.086 -0.3062  0.1493 -1.4371
 1417SOL     OW 4386   3.585   1.174   1.278 -0.0915 -0.1835  0.3691
 1417SOL    HW1 4387   3.596   1.269   1.281  1.4310 -0.3319  0.1810
 1417SOL    HW2 4388   3.524   1.159   1.206  1.1034  0.5594 -0.8328
 1418SOL     OW 4389   0.737   1.026   3.123 -0.1619 -0.3757 -0.2934
 1418SOL    HW1 4390   0.792   0.960   3.081  1.2315  1.1770 -0.9891
 1418SOL    HW2 4391   0.764   1.109   3.085  0.2383  1.0038  2.6890
 1419SOL     OW 4392   2.155   0.126   0.169  0.2081  0.4858  0.0183
 1419SOL    HW1 4393   2.136   0.103   0.078 -0.0554 -0.5794  0.3344
 1419SOL    HW2 4394   2.250   0.128   0.174  0.2252  0.2255 -0.2018
 1420SOL     OW 4395   3.746   0.906   0.090 -0.2231 -0.1997  0.1355
 1420SOL    HW1 4396   3.743   0.999   0.112  1.3545 -0.1956  0.4263
 1420SOL    HW2 4397   3.664   0.870   0.125 -0.1837  0.8118  1.2934
 1421SOL     OW 4398   3.300   3.414   1.093 -0.2842  0.4685  0.2653
 1421SOL    HW1 4399   3.305   3.324   1.060 -0.1747  0.8290 -0.7461
 1421SOL    HW2 4400   3.356   3.464   1.033 -0.7760  1.3024  0.4924
 1422SOL     OW 4401   1.384   3.405   3.395  0.0272 -0.7261 -0.8714
 1422SOL    HW1 4402   1.434   3.436   3.471 -2.0090  0.2826  0.1151
 1422SOL    HW2 4403   1.406   3.467   3.325  2.1480 -1.8352 -1.2820
 1423SOL     OW 4404   1.849   2.212   2.034 -0.4525  0.1685  0.6419
 1423SOL    HW1 4405   1.917   2.271   2.069  0.1626 -0.8613  1.2243
 1423SOL    HW2 4406   1.859   2.132   2.085  0.1438 -1.2182 -1.5482
 1424SOL     OW 4407   2.286   3.318   1.435  0.6545  0.3747  0.0773
 1424SOL    HW1 4408   2.369   3.327   1.388  1.2785 -0.0194  1.0632
 1424SOL    HW2 4409   2.238   3.251   1.387  1.0527  0.3654 -0.3164
 1425SOL     OW 4410   3.496   2.081   3.715 -0.0653  0.1497  0.0174
 1425SOL    HW1 4411   3.470   2.126   3.796 -1.5280 -0.7385  0.0673
 1425SOL    HW2 4412   3.426   2.101   3.653 -0.5016 -1.6268 -0.1008
 1426SOL     OW 4413   2.271   3.161   0.907  0.3584 -0.7795  0.6868
 1426SOL    HW1 4414   2.270   3.246   0.864  1.2739  0.2339  2.5619
 1426SOL    HW2 4415   2.184   3.124   0.890 -0.4221  0.9796  0.6728
 1427SOL     OW 4416   2.622   2.068   0.997 -0.3388 -0.2406  0.4241
 1427SOL    HW1 4417   2.576   2.026   1.070 -1.7354  0.4128 -0.0532
 1427SOL    HW2 4418   2.594   2.159   1.000  3.0879  0.9666  1.8028
 1428SOL     OW 4419   1.268   3.154   0.911  0.2094  0.0251  0.3642
 1428SOL    HW1 4420   1.197   3.195   0.862 -0.5788 -0.9846  0.6338
 1428SOL    HW2 4421   1.325   3.226   0.936 -0.3733  0.7703 -0.4259
 1429SOL     OW 4422   0.427   3.471   0.851  0.9001 -0.0703 -0.1103
 1429SOL    HW1 4423   0.347   3.523   0.847  1.2032  0.5169  1.1537
 1429SOL    HW2 4424   0.401   3.385   0.818 -0.4140 -0.0767  0.8897
 1430SOL     OW 4425   1.728   0.352   0.468  0.0420 -0.8719 -0.4327
 1430SOL    HW1 4426   1.655   0.399   0.509  0.1657 -1.4748  0.5065
 1430SOL    HW2 4427   1.688   0.273   0.431 -0.2676  0.1694 -2.5072
 1431SOL     OW 4428   0.552   3.603   1.695 -0.0132 -0.0482 -0.3582
 1431SOL    HW1 4429   0.584   3.611   1.605 -0.7617 -0.6957 -0.6929
 1431SOL    HW2 4430   0.463   3.569   1.686  0.4571 -1.6947  0.6868
 1432SOL     OW 4431   1.642   0.355   3.173  0.6862 -0.2130  0.0607
 1432SOL    HW1 4432   1.573   0.343   3.238  0.3240 -0.9934 -0.4549
 1432SOL    HW2 4433   1.713   0.398   3.220  1.0579 -2.1617  1.3916
 1433SOL     OW 4434   2.323   0.327   0.458 -0.3509 -0.4876  0.1308
 1433SOL    HW1 4435   2.322   0.399   0.520 -0.4906  1.7332 -2.2741
 1433SOL    HW2 4436   2.231   0.311   0.437 -0.2338 -0.0777 -0.7170
 1434SOL     OW 4437   2.667   1.879   2.293  0.1564  0.2640 -0.0652
 1434SOL    HW1 4438   2.731   1.910   2.229 -1.1078 -1.0479 -2.0466
 1434SOL    HW2 4439   2.708   1.898   2.378  2.0620  1.7023 -1.2145
 1435SOL     OW 4440   0.476   1.042   3.192  0.1295 -0.0829 -0.2420
 1435SOL    HW1 4441   0.432   1.035   3.108 -0.1201 -0.3035 -0.0950
 1435SOL    HW2 4442   0.569   1.051   3.171  0.0884 -0.3562 -0.5319
 1436SOL     OW 4443   0.827   1.267   2.715 -0.0892  0.4114 -0.0301
 1436SOL    HW1 4444   0.884   1.341   2.734  0.8486  0.1237 -1.4931
 1436SOL    HW2 4445   0.884   1.191   2.720 -0.6470 -0.0288 -0.1953
 1437SOL     OW 4446   1.699   1.677   2.626  0.6340 -0.3778  0.1077
 1437SOL    HW1 4447   1.792   1.697   2.625  0.4918  1.0051  3.1582
 1437SOL    HW2 4448   1.661   1.733   2.559  1.7234  0.8579  0.4840
 1438SOL     OW 4449   2.494   0.829   2.434 -0.4216 -0.5244  0.0769
 1438SOL    HW1 4450   2.562   0.785   2.383 -0.5759  0.0429 -0.6305
 1438SOL    HW2 4451   2.484   0.775   2.513  2.2096  0.4104  1.1592
 1439SOL     OW 4452   1.022   1.864   1.677  0.6207 -0.1885 -0.0486
 1439SOL    HW1 4453   0.951   1.833   1.734  1.5134 -1.0366  0.6360
 1439SOL    HW2 4454   1.029   1.958   1.695 -0.1586 -0.1491  0.0584
 1440SOL     OW 4455   2.969   1.338   1.335  0.4188  0.4254  0.1747
 1440SOL    HW1 4456   3.028   1.282   1.285  1.4704  2.0790 -0.5209
 1440SOL    HW2 4457   2.976   1.424   1.294 -2.2594  0.7772  0.2710
 1441SOL     OW 4458   3.474   1.533   3.168 -0.0101 -0.4021  0.1944
 1441SOL    HW1 4459   3.440   1.528   3.258 -0.3180 -1.4389  0.0376
 1441SOL    HW2 4460   3.545   1.469   3.166  0.0140 -0.3596 -0.3017
 1442SOL     OW 4461   2.841   2.684   0.076  0.5090 -0.4881 -0.0469
 1442SOL    HW1 4462   2.805   2.772   0.067  0.2203 -0.6744 -0.7517
 1442SOL    HW2 4463   2.891   2.669  -0.004 -0.3827 -1.3886 -0.4622
 1443SOL     OW 4464   0.899   1.896   2.084  0.1934  0.0135 -0.6128
 1443SOL    HW1 4465   0.868   1.844   2.010 -1.2417 -1.1334  0.7235
 1443SOL    HW2 4466   0.900   1.986   2.051 -2.7119 -0.1389 -1.4124
 1444SOL     OW 4467   0.421   1.703   0.393 -0.0700 -1.0092  0.2289
 1444SOL    HW1 4468   0.404   1.652   0.313 -2.9111 -0.6466  0.5037
 1444SOL    HW2 4469   0.484   1.769   0.366  0.7204 -2.2418 -1.1214
 1445SOL     OW 4470   3.645   0.312   1.316  0.2203 -0.0827 -0.2998
 1445SOL    HW1 4471   3.630   0.241   1.254 -0.0931 -0.0629 -0.2490
 1445SOL    HW2 4472   3.699   0.274   1.385  0.6664 -0.0761 -0.6395
 1446SOL     OW 4473   2.412   0.600   2.265 -0.0538 -0.1403 -0.5073
 1446SOL    HW1 4474   2.457   0.518   2.285  1.1391  0.1312 -1.9268
 1446SOL    HW2 4475   2.322   0.587   2.295  0.8008 -0.8874  1.9723
 1447SOL     OW 4476   2.360   0.438   2.556  0.4626 -0.3397 -0.3257
 1447SOL    HW1 4477   2.417   0.424   2.481 -0.1271 -0.2701 -0.7958
 1447SOL    HW2 4478   2.340   0.350   2.588  3.3777 -0.3429  1.8383
 1448SOL     OW 4479   3.336   2.079   2.115 -0.3739 -0.2195 -0.5999
 1448SOL    HW1 4480   3.374   1.993   2.093 -1.8256 -0.8551 -0.7345
 1448SOL    HW2 4481   3.298   2.110   2.033 -1.1468 -0.1373 -0.2174
 1449SOL     OW 4482   0.525   0.989   3.742 -0.6409  0.2571 -0.2154
 1449SOL    HW1 4483   0.437   1.021   3.725 -0.3307  0.3579 -1.7005
 1449SOL    HW2 4484   0.566   0.981   3.656  0.4960 -0.6871  0.3772
 1450SOL     OW 4485   0.609   0.159   2.013 -0.5615  0.2414  0.6447
 1450SOL    HW1 4486   0.676   0.222   2.040  0.4372 -0.9933  1.1278
 1450SOL    HW2 4487   0.526   0.198   2.041 -0.0522  1.6862  0.2473
 1451SOL     OW 4488   1.785   3.398   2.375  0.5019  0.5856 -0.6129
 1451SOL    HW1 4489   1.845   3.438   2.437  0.3122 -0.2508  0.1412
 1451SOL    HW2 4490   1.841   3.362   2.307  0.6885  1.8307 -1.1412
 1452SOL     OW 4491   3.365   3.294   0.040  0.6065 -0.1969 -0.2413
 1452SOL    HW1 4492   3.411   3.279  -0.043  1.9940 -0.7247  0.5804
 1452SOL    HW2 4493   3.365   3.209   0.083 -2.8127 -0.6648 -0.9419
 1453SOL     OW 4494   0.755   3.671   0.235  0.3599  0.2194 -0.2675
 1453SOL    HW1 4495   0.737   3.719   0.316  1.7472 -0.4977  0.5089
 1453SOL    HW2 4496   0.849   3.685   0.219  1.2021 -3.3153  0.7982
 1454SOL     OW 4497   2.831   2.797   2.277  0.1856  0.0938 -0.1077
 1454SOL    HW1 4498   2.824   2.719   2.222 -0.1141  1.0572 -1.4968
 1454SOL    HW2 4499   2.842   2.763   2.366  1.4765 -1.5290 -0.8318
 1455SOL     OW 4500   2.926   2.076   0.442 -0.2017 -0.5853  0.5265
 1455SOL    HW1 4501   2.879   1.998   0.473 -0.8333 -0.6486 -0.5358
 1455SOL    HW2 4502   2.988   2.096   0.512 -2.3111 -0.0452  2.3528
 1456SOL     OW 4503   3.035   1.528   1.175  0.1873  0.3712  0.8426
 1456SOL    HW1 4504   3.007   1.575   1.096  1.7001 -1.1524 -0.6976
 1456SOL    HW2 4505   3.130   1.537   1.176  0.7834 -3.5995 -0.3580
 1457SOL     OW 4506   0.937   0.250   1.661 -0.2177 -0.0065 -0.0906
 1457SOL    HW1 4507   0.917   0.343   1.647  0.0626 -0.2081 -2.2787
 1457SOL    HW2 4508   0.855   0.212   1.690 -0.6769  0.7160 -0.3971
 1458SOL     OW 4509   1.151   3.661   2.164 -0.1089 -0.3348 -0.6785
 1458SOL    HW1 4510   1.057   3.671   2.153  0.1187  1.8378 -1.2993
 1458SOL    HW2 4511   1.173   3.720   2.236  1.0178  1.0241 -2.0531
 1459SOL     OW 4512   1.196   2.661   1.824  0.4410 -0.0301  0.5426
 1459SOL    HW1 4513   1.159   2.695   1.905 -2.2058  0.1436 -0.6492
 1459SOL    HW2 4514   1.194   2.566   1.835 -0.1407 -0.0161  0.6075
 1460SOL     OW 4515   1.173   3.668   1.151 -0.2812  0.1278 -0.1339
 1460SOL    HW1 4516   1.252   3.633   1.192  1.7398  2.0386 -2.2129
 1460SOL    HW2 4517   1.159   3.613   1.074  0.1045  0.9207 -0.7753
 1461SOL     OW 4518   0.207   1.648   2.304 -0.2666  0.5090  0.2165
 1461SOL    HW1 4519   0.205   1.739   2.274 -1.5743  0.8387  1.2236
 1461SOL    HW2 4520   0.278   1.645   2.368  1.6429  0.1168 -1.8010
 1462SOL     OW 4521   2.219   2.478   3.260  0.2907 -0.4844  0.4788
 1462SOL    HW1 4522   2.136   2.430   3.258  0.1859 -0.2953  0.2601
 1462SOL    HW2 4523   2.195   2.570   3.247  0.4371 -0.2906  1.4959
 1463SOL     OW 4524   2.403   1.713   1.319  0.0541  0.4356 -0.0724
 1463SOL    HW1 4525   2.455   1.653   1.267  0.4106 -0.2579  1.0428
 1463SOL    HW2 4526   2.318   1.670   1.328  0.4527 -0.1563  1.1107
 1464SOL     OW 4527   1.681   2.990   1.265  0.4834  0.2496  0.3308
 1464SOL    HW1 4528   1.695   2.999   1.171 -1.8479 -1.3690 -0.2404
 1464SOL    HW2 4529   1.739   2.918   1.291  0.9371  0.5264  0.0930
 1465SOL     OW 4530   0.008   1.765   1.244 -0.1411  1.2479  0.3321
 1465SOL    HW1 4531  -0.045   1.806   1.176 -0.8937 -0.4954 -0.1668
 1465SOL    HW2 4532   0.096   1.764   1.208 -0.4588  0.7197 -0.4534
 1466SOL     OW 4533   0.409   2.967   1.447 -0.3154  0.3676 -0.2031
 1466SOL    HW1 4534   0.492   2.931   1.416 -0.2432  0.7906 -0.5011
 1466SOL    HW2 4535   0.369   3.007   1.369 -1.7970 -1.6682 -0.5986
 1467SOL     OW 4536   1.962   3.156   3.673  0.2646 -0.4004 -0.8468
 1467SOL    HW1 4537   1.897   3.086   3.664 -0.4570  0.1994 -0.4159
 1467SOL    HW2 4538   1.930   3.209   3.746  1.2585 -0.1024 -0.6109
 1468SOL     OW 4539   1.289   3.523   2.507  0.2875  0.0293 -0.5109
 1468SOL    HW1 4540   1.200   3.509   2.475 -0.3609  0.3088  1.0797
 1468SOL    HW2 4541   1.319   3.436   2.533  0.0504  0.0871 -0.0266
 1469SOL     OW 4542   2.637   0.986   2.651  0.3504 -0.1212  0.6680
 1469SOL    HW1 4543   2.616   0.969   2.559  0.3223  0.2186  0.6084
 1469SOL    HW2 4544   2.723   1.028   2.649  0.3623 -0.1389  0.7979
 1470SOL     OW 4545   3.760   3.247   0.808  0.1663 -0.3021  0.2899
 1470SOL    HW1 4546   3.759   3.255   0.904 -2.0682  0.0190  0.2889
 1470SOL    HW2 4547   3.668   3.232   0.784  0.5148  0.6766 -1.8899
 1471SOL     OW 4548   3.288   1.009   1.291  0.2066  0.6739  0.1491
 1471SOL    HW1 4549   3.307   1.066   1.365 -0.4870  0.8931  0.1652
 1471SOL    HW2 4550   3.329   0.925   1.313 -1.7470  0.0688  1.7679
 1472SOL     OW 4551   0.556   0.577   0.538 -0.2638 -0.1733  0.7962
 1472SOL    HW1 4552   0.547   0.488   0.504  2.5791 -1.1286  2.1308
 1472SOL    HW2 4553   0.511   0.632   0.475 -1.7829 -2.5081 -0.3019
 1473SOL     OW 4554   3.157   1.825   1.938 -0.3345  0.3953  0.1069
 1473SOL    HW1 4555   3.184   1.823   1.846  0.1090  0.4909  0.2343
 1473SOL    HW2 4556   3.063   1.804   1.936 -0.4376  0.8617 -0.4134
 1474SOL     OW 4557   0.676   1.822   2.760 -0.3520  0.3562  0.7790
 1474SOL    HW1 4558   0.660   1.728   2.751 -1.5301  0.6242 -0.2233
 1474SOL    HW2 4559   0.623   1.848   2.835 -0.1461  0.2564  0.9609
 1475SOL     OW 4560   0.157   1.131   1.310  0.3486 -0.9096  0.5010
 1475SOL    HW1 4561   0.082   1.077   1.284 -0.1996 -0.3093  0.7877
 1475SOL    HW2 4562   0.170   1.112   1.403  1.0538 -1.5890  0.2712
 1476SOL     OW 4563   2.021   1.059   2.773 -0.3132 -0.5555  0.6370
 1476SOL    HW1 4564   2.095   1.010   2.809 -1.0495 -2.3458 -0.1256
 1476SOL    HW2 4565   1.945   1.004   2.791 -1.3195  0.7257  0.4541
 1477SOL     OW 4566   3.383   1.757   3.003 -0.2283 -0.1160  0.4697
 1477SOL    HW1 4567   3.448   1.691   3.031  1.3792  1.6159  1.0299
 1477SOL    HW2 4568   3.342   1.719   2.926  0.0579 -2.1231  1.2408
 1478SOL     OW 4569   2.557   3.362   3.036 -0.0274  0.0716 -0.2009
 1478SOL    HW1 4570   2.563   3.384   3.129  1.5017 -0.5326 -0.1281
 1478SOL    HW2 4571   2.497   3.287   3.033  3.3365 -2.9922  0.9623
 1479SOL     OW 4572   3.357   1.436   1.330 -0.2330  0.1128  0.3250
 1479SOL    HW1 4573   3.333   1.348   1.360 -1.0487  0.2175 -0.0076
 1479SOL    HW2 4574   3.447   1.448   1.361 -0.0265 -0.9323  0.1773
 1480SOL     OW 4575   2.594   2.658   1.867  0.1836  0.2405 -0.5294
 1480SOL    HW1 4576   2.621   2.592   1.932 -1.6297  0.0352  0.0636
 1480SOL    HW2 4577   2.501   2.642   1.853 -0.5247  3.0769  0.1528
 1481SOL     OW 4578   0.264   1.814   1.118  0.0378 -0.5374  0.2197
 1481SOL    HW1 4579   0.241   1.855   1.034  0.1196  0.3758  0.6305
 1481SOL    HW2 4580   0.352   1.846   1.137  0.5353 -1.7557  0.0481
 1482SOL     OW 4581   3.296   0.749   0.472  0.1649  0.4308 -0.0658
 1482SOL    HW1 4582   3.255   0.708   0.396 -0.3047  0.2967  0.2509
 1482SOL    HW2 4583   3.279   0.688   0.544  2.5196 -0.5637 -0.2508
 1483SOL     OW 4584   1.970   0.459   0.039  0.0771 -0.3459  1.0236
 1483SOL    HW1 4585   1.982   0.402  -0.037  0.4797 -1.4933  1.9143
 1483SOL    HW2 4586   2.032   0.426   0.103 -1.6377 -0.7225  2.5712
 1484SOL     OW 4587   1.034   1.404   1.727 -0.4494  0.4976 -0.2099
 1484SOL    HW1 4588   1.108   1.448   1.685 -0.4387  0.2756 -0.4271
 1484SOL    HW2 4589   1.060   1.311   1.730 -0.4445  0.5108  0.2998
 1485SOL     OW 4590   2.639   2.487   0.086 -0.0654  0.2060 -0.7918
 1485SOL    HW1 4591   2.700   2.551   0.123 -0.4903 -1.1533  2.5930
 1485SOL    HW2 4592   2.552   2.523   0.105 -0.3038 -1.0991  0.8026
 1486SOL     OW 4593   2.117   1.883   0.695 -0.2539 -0.6662  0.0501
 1486SOL    HW1 4594   2.051   1.862   0.761 -0.7585 -2.3390 -0.9283
 1486SOL    HW2 4595   2.198   1.845   0.730  0.0315  0.6065  0.8300
 1487SOL     OW 4596   1.834   3.085   3.286  0.0232  0.0446 -0.3862
 1487SOL    HW1 4597   1.779   3.160   3.311 -0.5807 -0.3311 -0.5557
 1487SOL    HW2 4598   1.786   3.009   3.320  0.5271 -0.2790 -0.3958
 1488SOL     OW 4599   3.456   3.606   1.005 -0.3965  0.4769  0.0533
 1488SOL    HW1 4600   3.499   3.584   1.087 -1.3668 -0.6470  0.2838
 1488SOL    HW2 4601   3.393   3.675   1.027 -2.6593 -1.7110  0.8924
 1489SOL     OW 4602   1.103   1.695   2.184 -0.2653 -0.1456 -0.6111
 1489SOL    HW1 4603   1.035   1.727   2.125 -0.3046  0.4831 -0.2305
 1489SOL    HW2 4604   1.183   1.699   2.133 -0.5712 -1.3939 -1.2445
 1490SOL     OW 4605   0.881   2.417   3.676 -0.3292  0.2849 -0.4353
 1490SOL    HW1 4606   0.936   2.347   3.640  0.0783  0.0277  0.6385
 1490SOL    HW2 4607   0.809   2.371   3.719 -0.7514  0.5817 -0.8223
 1491SOL     OW 4608   3.151   0.051   1.268 -0.1125  0.4539 -0.4032
 1491SOL    HW1 4609   3.177   0.104   1.192  0.7337 -1.3862 -1.4681
 1491SOL    HW2 4610   3.122  -0.032   1.230 -2.1877  0.3828  1.1604
 1492SOL     OW 4611   1.038   3.614   2.788  0.0620 -0.5355 -0.5739
 1492SOL    HW1 4612   1.057   3.667   2.866 -0.4114  0.3647 -1.0574
 1492SOL    HW2 4613   1.121   3.571   2.767  0.2542 -0.6137  0.2849
 1493SOL     OW 4614   3.163   3.495   3.097  0.2278 -0.1595  0.8785
 1493SOL    HW1 4615   3.075   3.528   3.116 -0.3801 -1.2765  0.1355
 1493SOL    HW2 4616   3.219   3.572   3.101 -1.3840  1.3627 -2.5565
 1494SOL     OW 4617   3.476   0.339   0.660 -0.4921  0.0168  0.2983
 1494SOL    HW1 4618   3.530   0.310   0.733 -0.5053  0.4955  0.5073
 1494SOL    HW2 4619   3.457   0.260   0.610 -0.2246 -0.2663  0.6429
 1495SOL     OW 4620   3.251   2.180   3.579 -0.0721 -0.3451  0.0106
 1495SOL    HW1 4621   3.190   2.166   3.506  0.6106 -1.2720 -0.4013
 1495SOL    HW2 4622   3.309   2.250   3.549 -1.9613  1.8460  1.0998
 1496SOL     OW 4623   3.026   2.814   2.011  0.2013 -0.1294 -0.3586
 1496SOL    HW1 4624   3.045   2.749   2.079  3.4004 -0.3335 -1.2763
 1496SOL    HW2 4625   2.970   2.878   2.054  1.7895 -0.4415  2.4073
 1497SOL     OW 4626   2.678   1.740   2.573  0.2656 -0.8386 -0.0773
 1497SOL    HW1 4627   2.733   1.812   2.544  0.5678 -0.9540  0.2040
 1497SOL    HW2 4628   2.731   1.662   2.558  0.7159 -0.8527  1.4136
 1498SOL     OW 4629   1.978   3.549   1.175  0.1462 -0.3433 -0.1452
 1498SOL    HW1 4630   1.966   3.593   1.259 -1.2769  0.5627 -0.7791
 1498SOL    HW2 4631   2.037   3.606   1.126  0.5794 -0.6135  0.0650
 1499SOL     OW 4632   1.957   2.315   2.296 -0.2308  0.3755  0.1738
 1499SOL    HW1 4633   1.986   2.343   2.383  0.7407 -0.7049  0.2200
 1499SOL    HW2 4634   1.863   2.300   2.307 -0.5182  2.1257  0.5044
 1500SOL     OW 4635   1.164   1.162   1.685 -0.0197 -0.1281  0.1358
 1500SOL    HW1 4636   1.251   1.126   1.702  1.7002  2.6412 -1.9843
 1500SOL    HW2 4637   1.118   1.093   1.637  2.7254 -0.1412 -2.8131
 1501SOL     OW 4638   2.387   3.328   3.427 -0.3127  0.1564  1.1839
 1501SOL    HW1 4639   2.403   3.238   3.398 -1.2260  0.3457  0.0232
 1501SOL    HW2 4640   2.376   3.378   3.346  0.2084  1.3316  1.8119
 1502SOL     OW 4641   0.394   2.418   1.848 -0.3377  0.5494 -0.2018
 1502SOL    HW1 4642   0.332   2.371   1.904  0.5803  0.5207  0.8271
 1502SOL    HW2 4643   0.342   2.486   1.807 -0.5329  2.5327  3.0020
 1503SOL     OW 4644   2.642   2.604   2.938 -0.5458 -0.3565 -0.6395
 1503SOL    HW1 4645   2.659   2.586   3.030  1.9529 -0.5189 -1.0690
 1503SOL    HW2 4646   2.571   2.545   2.914 -2.7193  1.1456  1.6329
 1504SOL     OW 4647   1.619   1.203   0.843 -0.0446 -0.3506  0.4933
 1504SOL    HW1 4648   1.630   1.260   0.767 -0.6214  0.0409  0.6965
 1504SOL    HW2 4649   1.708   1.176   0.866  0.0934 -0.8932 -0.6266
 1505SOL     OW 4650   2.553   2.425   0.740 -0.0199 -0.3092 -0.0518
 1505SOL    HW1 4651   2.594   2.465   0.663 -0.8041  1.3066  0.3389
 1505SOL    HW2 4652   2.463   2.408   0.712  0.1226 -1.2067  0.0087
 1506SOL     OW 4653   0.233   2.988   1.673  0.1442 -0.5485  0.5173
 1506SOL    HW1 4654   0.278   3.038   1.741 -1.6334  2.4322 -0.2848
 1506SOL    HW2 4655   0.301   2.966   1.610  1.7757 -3.0754  2.9343
 1507SOL     OW 4656   0.774   1.362   1.607 -0.1320  0.2762 -0.1422
 1507SOL    HW1 4657   0.756   1.270   1.626  1.6526 -0.0624  0.0583
 1507SOL    HW2 4658   0.865   1.375   1.632 -0.4358  2.2056  0.1822
 1508SOL     OW 4659   1.762   3.691   0.704  0.1397 -0.0271 -0.4152
 1508SOL    HW1 4660   1.720   3.660   0.623  0.3531  0.3895 -0.6864
 1508SOL    HW2 4661   1.688   3.714   0.761 -0.0115  0.3357 -0.7501
 1509SOL     OW 4662   3.243   1.974   0.061  0.9985  0.3866 -0.2155
 1509SOL    HW1 4663   3.205   2.026  -0.009  0.0140 -0.5461 -0.4050
 1509SOL    HW2 4664   3.265   2.038   0.129 -1.5843  0.9533  0.1976
 1510SOL     OW 4665   0.287   1.841   1.394 -0.0579 -0.0562 -0.2351
 1510SOL    HW1 4666   0.316   1.757   1.428  0.9067  0.8349  1.3086
 1510SOL    HW2 4667   0.305   1.838   1.300  1.1657 -1.0980  0.0117
 1511SOL     OW 4668   0.073   1.240   0.646 -0.1222  0.9159 -0.2842
 1511SOL    HW1 4669   0.162   1.224   0.676 -0.5018 -1.2519 -0.1576
 1511SOL    HW2 4670   0.020   1.173   0.689 -2.1014  3.0306  0.7831
 1512SOL     OW 4671   1.855   0.605   2.056  0.0915 -0.0353 -1.2521
 1512SOL    HW1 4672   1.796   0.564   2.119  0.9465  0.2690 -0.2250
 1512SOL    HW2 4673   1.928   0.543   2.047 -0.2771 -0.3326 -2.3810
 1513SOL     OW 4674   2.544   0.591   3.491 -0.4347  0.6846  0.5072
 1513SOL    HW1 4675   2.544   0.496   3.481  1.7371  0.7181 -0.3483
 1513SOL    HW2 4676   2.499   0.607   3.574 -5.0046 -0.7231 -1.3619
 1514SOL     OW 4677   3.322   1.024   3.711 -0.7003 -0.1907  0.5258
 1514SOL    HW1 4678   3.234   1.047   3.682  0.5994  2.8266 -1.5523
 1514SOL    HW2 4679   3.345   1.090   3.777 -0.0002 -0.9792  1.0995
 1515SOL     OW 4680   0.511   1.222   2.064 -0.4412 -0.4277  0.1567
 1515SOL    HW1 4681   0.460   1.299   2.040 -1.0702 -1.1393 -0.8871
 1515SOL    HW2 4682   0.600   1.241   2.032 -0.9565 -0.7773 -1.6145
 1516SOL     OW 4683   1.767   1.152   2.099 -0.3485 -0.0652 -0.5466
 1516SOL    HW1 4684   1.740   1.064   2.123 -0.2740 -0.3894 -1.5899
 1516SOL    HW2 4685   1.863   1.148   2.098 -0.3538 -0.1450 -1.1712
 1517SOL     OW 4686   2.711   0.333   1.338  0.2110 -0.2446 -0.2169
 1517SOL    HW1 4687   2.756   0.311   1.257  1.3807 -1.7914  0.7851
 1517SOL    HW2 4688   2.619   0.316   1.320  0.4535 -0.5570 -1.2230
 1518SOL     OW 4689   0.620   1.913   0.284  0.0221 -0.0413  0.1236
 1518SOL    HW1 4690   0.614   1.940   0.375 -0.7021 -0.9345  0.3614
 1518SOL    HW2 4691   0.689   1.846   0.283  1.2663  1.1870 -0.3226
 1519SOL     OW 4692   3.658   0.103   1.121  0.2286 -0.1498 -0.2671
 1519SOL    HW1 4693   3.644   0.056   1.203 -1.1058 -1.6777 -1.3100
 1519SOL    HW2 4694   3.727   0.054   1.076 -1.2825 -1.3327 -1.4304
 1520SOL     OW 4695   3.273   3.746   2.777 -0.0301 -0.3840 -0.3059
 1520SOL    HW1 4696   3.316   3.668   2.814  0.3397 -0.7674 -1.4866
 1520SOL    HW2 4697   3.323   3.764   2.697 -0.5873  0.6245 -0.4333
 1521SOL     OW 4698   3.059   1.801   0.705 -0.2018 -0.3490 -0.3605
 1521SOL    HW1 4699   3.152   1.806   0.680  0.0341  0.5562  0.6346
 1521SOL    HW2 4700   3.047   1.871   0.768 -1.2045 -1.4329  0.7132
 1522SOL     OW 4701   1.683   3.623   0.034 -0.1625 -0.0415 -0.2796
 1522SOL    HW1 4702   1.681   3.717   0.015 -1.3282  0.3860  1.6262
 1522SOL    HW2 4703   1.764   3.592  -0.005 -0.4482  1.4591 -2.1876
 1523SOL     OW 4704   2.252   2.328   0.666  0.1238  0.3705 -0.4558
 1523SOL    HW1 4705   2.229   2.420   0.650 -3.0257 -0.4790 -1.4636
 1523SOL    HW2 4706   2.172   2.280   0.646  0.8416 -2.3919  2.6124
 1524SOL     OW 4707   1.043   2.938   3.211 -0.6233 -0.1157  0.3800
 1524SOL    HW1 4708   1.050   2.863   3.153  2.0519  0.2485  0.0783
 1524SOL    HW2 4709   1.100   3.004   3.171 -0.8658  1.1155  1.9807
 1525SOL     OW 4710   1.883   0.889   3.610  0.3742 -0.4268 -0.3448
 1525SOL    HW1 4711   1.943   0.945   3.660  0.5585 -1.5532  0.7348
 1525SOL    HW2 4712   1.890   0.922   3.521 -0.3069  1.9527  0.3966
 1526SOL     OW 4713   2.051   3.434   1.557  0.1435  0.2779  0.0489
 1526SOL    HW1 4714   2.060   3.483   1.639  2.0588 -2.5460  1.7130
 1526SOL    HW2 4715   2.137   3.395   1.543 -0.3402  0.0980 -2.9913
 1527SOL     OW 4716   0.928   0.519   1.373  0.0321 -0.1385 -0.3147
 1527SOL    HW1 4717   0.856   0.462   1.347 -0.8350  0.4033  0.8346
 1527SOL    HW2 4718   0.925   0.593   1.312  1.6401 -1.6033 -2.3185
 1528SOL     OW 4719   2.754   0.997   3.427 -0.3269 -0.0204  0.0517
 1528SOL    HW1 4720   2.687   0.933   3.404  1.3412 -1.6402 -0.5194
 1528SOL    HW2 4721   2.729   1.026   3.515 -1.7528 -0.5801 -0.1341
 1529SOL     OW 4722   0.451   2.519   2.714  0.1744 -0.2963 -0.5393
 1529SOL    HW1 4723   0.516   2.588   2.698  0.5118 -0.4910 -0.0331
 1529SOL    HW2 4724   0.375   2.546   2.664 -0.8797  2.1329  2.1214
 1530SOL     OW 4725   2.065   3.521   3.065  0.2031  0.3843  0.2404
 1530SOL    HW1 4726   2.038   3.610   3.046 -1.3241  0.0113  0.5653
 1530SOL    HW2 4727   2.041   3.508   3.157  1.9214  0.1662  0.6944
 1531SOL     OW 4728   3.220   2.081   3.010 -0.5331  0.0347  0.0429
 1531SOL    HW1 4729   3.309   2.046   3.007 -0.3577  0.4028  0.7662
 1531SOL    HW2 4730   3.164   2.005   3.023 -0.3966 -0.2870 -1.1592
 1532SOL     OW 4731   2.413   0.919   2.146  0.3327 -0.1351  0.3944
 1532SOL    HW1 4732   2.340   0.858   2.155 -1.7811  1.9824 -1.0319
 1532SOL    HW2 4733   2.465   0.884   2.074 -1.4850  0.2484 -1.1754
 1533SOL     OW 4734   3.695   0.692   0.926  0.0955  0.0111 -0.0265
 1533SOL    HW1 4735   3.776   0.641   0.935 -1.2191 -2.1869  0.1414
 1533SOL    HW2 4736   3.627   0.626   0.912 -1.8436  1.7011  0.9579
 1534SOL     OW 4737   0.749   0.464   3.391  0.2488 -0.5417 -0.6709
 1534SOL    HW1 4738   0.773   0.420   3.472 -0.2711 -2.2328 -1.3820
 1534SOL    HW2 4739   0.733   0.555   3.416  1.8340 -0.6296  0.7729
 1535SOL     OW 4740   0.970   0.117   3.698 -0.2831 -0.4758  0.5038
 1535SOL    HW1 4741   0.995   0.133   3.789  2.9909  0.8094 -0.4879
 1535SOL    HW2 4742   0.960   0.204   3.660 -0.7799 -0.9867 -0.5895
 1536SOL     OW 4743   2.280   2.300   0.279 -0.3646 -0.3379  0.6559
 1536SOL    HW1 4744   2.209   2.247   0.314  0.4629 -3.5502 -2.0415
 1536SOL    HW2 4745   2.358   2.273   0.328 -0.3367  0.4214  1.0585
 1537SOL     OW 4746   3.616   1.953   1.039 -0.6909  0.0035 -0.3513
 1537SOL    HW1 4747   3.581   1.899   0.969 -0.3421  0.5426 -0.9536
 1537SOL    HW2 4748   3.602   2.043   1.009 -0.0875  0.2332  0.0427
 1538SOL     OW 4749   2.559   1.510   3.090 -0.8735 -0.3820  0.2201
 1538SOL    HW1 4750   2.493   1.546   3.149 -0.4775 -2.7232  2.3034
 1538SOL    HW2 4751   2.509   1.470   3.019 -1.7511 -1.5866  1.4501
 1539SOL     OW 4752   3.020   0.682   2.421 -0.0712  0.3651 -0.6709
 1539SOL    HW1 4753   2.983   0.764   2.455  2.5152  0.6359  1.8856
 1539SOL    HW2 4754   3.089   0.711   2.361  2.4572  0.3410  1.9851
 1540SOL     OW 4755   2.092   0.288   1.177  0.4582 -0.4938  0.0443
 1540SOL    HW1 4756   2.061   0.334   1.255  1.3819 -0.2146  0.2510
 1540SOL    HW2 4757   2.147   0.352   1.132  0.5108 -0.8923 -0.4675
 1541SOL     OW 4758   3.342   0.678   2.546 -0.3692  0.7458  0.1110
 1541SOL    HW1 4759   3.355   0.640   2.633  0.0126  0.9526  0.1453
 1541SOL    HW2 4760   3.266   0.631   2.510 -1.4924  1.6895  1.1467
 1542SOL     OW 4761   3.710   1.604   0.750 -0.0379 -0.4859 -0.0516
 1542SOL    HW1 4762   3.642   1.560   0.698  1.1461 -2.8510  0.2704
 1542SOL    HW2 4763   3.701   1.568   0.838  0.3888  0.6584  0.4833
 1543SOL     OW 4764   0.935   2.452   0.274 -0.0319 -0.1664 -0.1217
 1543SOL    HW1 4765   0.953   2.380   0.214 -0.1422  0.1979 -0.5964
 1543SOL    HW2 4766   1.000   2.519   0.251  0.5544 -0.3890  0.8027
 1544SOL     OW 4767   0.698   0.770   3.270 -0.5091  0.1407  0.2883
 1544SOL    HW1 4768   0.704   0.706   3.200  0.5629 -0.4634  0.9084
 1544SOL    HW2 4769   0.669   0.851   3.227 -0.6727 -0.4366 -0.6958
 1545SOL     OW 4770   3.347   2.681   3.351  0.2072 -0.2072  0.3598
 1545SOL    HW1 4771   3.422   2.721   3.307  0.0451 -0.6896 -0.3706
 1545SOL    HW2 4772   3.327   2.604   3.298 -1.6585  0.6459 -0.2564
 1546SOL     OW 4773   0.253   0.114   2.163  0.2096 -0.2200 -0.2308
 1546SOL    HW1 4774   0.300   0.197   2.159  0.5619 -0.3872  0.3457
 1546SOL    HW2 4775   0.321   0.048   2.150  0.2471 -0.4868  1.1285
 1547SOL     OW 4776   1.693   2.539   1.111  0.5115 -0.4036 -0.5348
 1547SOL    HW1 4777   1.742   2.553   1.192  1.2733 -2.3320 -0.6209
 1547SOL    HW2 4778   1.759   2.543   1.042 -0.0554  0.6910 -1.0451
 1548SOL     OW 4779   3.598   3.533   1.234  0.0986 -0.0887 -0.0775
 1548SOL    HW1 4780   3.617   3.440   1.228  2.0302  0.2602 -0.2114
 1548SOL    HW2 4781   3.624   3.557   1.323  0.0409  0.3896 -0.1854
 1549SOL     OW 4782   0.564   1.016   2.541  0.0030  0.5011 -0.5908
 1549SOL    HW1 4783   0.656   1.012   2.515  0.5295  0.7557  1.0800
 1549SOL    HW2 4784   0.566   1.040   2.634 -1.6722 -1.8049  0.1505
 1550SOL     OW 4785   0.037   0.813   1.781  0.0896  0.2898 -0.1623
 1550SOL    HW1 4786  -0.044   0.845   1.742  0.1187  1.6235  0.7956
 1550SOL    HW2 4787   0.036   0.719   1.764 -2.7715 -0.1620  1.7022
 1551SOL     OW 4788   2.468   0.240   0.249  0.5053 -0.0050 -0.2641
 1551SOL    HW1 4789   2.408   0.250   0.323  0.4888 -0.6711 -0.1801
 1551SOL    HW2 4790   2.507   0.154   0.262 -0.3258 -0.6180 -1.6480
 1552SOL     OW 4791   3.464   0.563   0.874 -0.2871  0.2536 -0.4332
 1552SOL    HW1 4792   3.451   0.492   0.811  1.6273 -0.3315 -0.2472
 1552SOL    HW2 4793   3.438   0.526   0.958 -0.2340  0.0987 -0.4841
 1553SOL     OW 4794   2.068   2.522   0.216  0.0516 -0.1419  0.6480
 1553SOL    HW1 4795   2.085   2.613   0.192 -1.0821  0.0188  0.3814
 1553SOL    HW2 4796   1.986   2.526   0.266 -0.0947 -1.0311  0.4864
 1554SOL     OW 4797   3.260   2.798   0.565 -0.2198  0.3158  0.2145
 1554SOL    HW1 4798   3.233   2.815   0.475  0.1306  2.0639  0.4008
 1554SOL    HW2 4799   3.347   2.760   0.557 -0.4750 -0.1936 -0.1975
 1555SOL     OW 4800   1.828   1.061   3.015  0.4967  0.3082 -0.0382
 1555SOL    HW1 4801   1.799   1.110   2.939  1.3925 -0.4897 -0.9149
 1555SOL    HW2 4802   1.908   1.106   3.044  0.1058  0.6686  0.5001
 1556SOL     OW 4803   2.130   2.188   3.072  0.8612 -0.1211  0.4704
 1556SOL    HW1 4804   2.212   2.167   3.116  0.6930 -0.5360  0.5971
 1556SOL    HW2 4805   2.152   2.192   2.979  0.5655 -2.8021  0.2105
 1557SOL     OW 4806   2.179   2.414   2.092  0.3662  0.0925 -0.2626
 1557SOL    HW1 4807   2.197   2.329   2.051 -1.9633 -1.0812  0.9157
 1557SOL    HW2 4808   2.174   2.394   2.185  0.7967  1.7626  0.1411
 1558SOL     OW 4809   0.975   0.265   2.399  0.3054 -0.4811  0.0195
 1558SOL    HW1 4810   1.035   0.263   2.324  0.3171  1.6540 -0.0949
 1558SOL    HW2 4811   1.007   0.197   2.458  1.1591 -1.2313 -1.2658
 1559SOL     OW 4812   0.564   1.460   3.149  0.0825 -0.0922  0.3530
 1559SOL    HW1 4813   0.538   1.546   3.118 -0.5764 -0.8974 -1.4694
 1559SOL    HW2 4814   0.640   1.476   3.205 -0.1808  1.6661  0.2557
 1560SOL     OW 4815   2.981   0.756   0.765 -0.4033  0.6529 -0.0865
 1560SOL    HW1 4816   2.920   0.695   0.723  1.7073 -1.9471  0.2921
 1560SOL    HW2 4817   3.052   0.766   0.701  1.0668 -0.3758  1.3020
 1561SOL     OW 4818   2.175   1.836   2.279  0.3882 -0.3507 -0.6479
 1561SOL    HW1 4819   2.266   1.813   2.293 -0.1906 -2.1472  0.5156
 1561SOL    HW2 4820   2.126   1.756   2.300 -1.5548  0.9926  0.2966
 1562SOL     OW 4821   1.221   0.129   2.369  0.1759  0.1867 -0.1130
 1562SOL    HW1 4822   1.175   0.112   2.450 -0.2965  0.2396 -0.3679
 1562SOL    HW2 4823   1.308   0.158   2.396  0.4848 -1.1173  0.3537
 1563SOL     OW 4824   2.820   1.317   1.616  0.1222  0.7730 -0.1794
 1563SOL    HW1 4825   2.832   1.231   1.656 -0.2789  1.6353  1.9358
 1563SOL    HW2 4826   2.853   1.307   1.527  1.9671 -1.0233  0.6304
 1564SOL     OW 4827   3.013   2.948   2.908 -0.4572 -0.3101 -0.1984
 1564SOL    HW1 4828   2.954   2.875   2.892 -1.5203  0.2157  1.1184
 1564SOL    HW2 4829   2.963   3.008   2.964  0.4786  1.2880 -0.9919
 1565SOL     OW 4830   1.706   0.862   2.531  0.5969  0.4417 -0.2229
 1565SOL    HW1 4831   1.733   0.952   2.511  0.6795  0.4402 -0.1204
 1565SOL    HW2 4832   1.743   0.809   2.460  0.8411  0.4430 -0.0974
 1566SOL     OW 4833   3.010   2.189   2.534 -0.1601  0.5365 -0.3468
 1566SOL    HW1 4834   2.988   2.278   2.508 -0.2572  0.8615  0.8027
 1566SOL    HW2 4835   2.990   2.186   2.628  0.2361 -0.5692 -0.2878
 1567SOL     OW 4836   2.196   1.775   2.801  0.2171  0.3247 -0.0310
 1567SOL    HW1 4837   2.210   1.778   2.896 -0.0791 -0.7831  0.0649
 1567SOL    HW2 4838   2.281   1.748   2.766  0.2467  0.4525 -0.0579
 1568SOL     OW 4839   0.677   3.299   2.772 -0.1151 -0.0650 -0.7452
 1568SOL    HW1 4840   0.654   3.264   2.686 -0.6596  0.5727 -0.8627
 1568SOL    HW2 4841   0.637   3.239   2.834  1.1633 -1.1420 -0.9016
 1569SOL     OW 4842   2.753   2.005   2.542  1.2165 -0.2092 -0.6255
 1569SOL    HW1 4843   2.843   2.039   2.538  1.4709 -0.5261  1.2230
 1569SOL    HW2 4844   2.703   2.075   2.584  0.8828 -0.5381 -0.4688
 1570SOL     OW 4845   1.666   1.992   1.330  0.3968 -0.0335  0.1828
 1570SOL    HW1 4846   1.606   2.058   1.364  1.2713  0.2638  1.1878
 1570SOL    HW2 4847   1.731   2.042   1.280  0.9791 -0.1297  0.8273
 1571SOL     OW 4848   2.791   0.329   0.950 -0.5702 -0.1930 -0.6116
 1571SOL    HW1 4849   2.816   0.314   0.859 -1.4930 -2.1614 -0.5744
 1571SOL    HW2 4850   2.704   0.290   0.959  0.3130 -1.8510  1.5969
 1572SOL     OW 4851   2.478   2.797   2.360  0.2792 -0.1591  0.7317
 1572SOL    HW1 4852   2.494   2.716   2.313  1.4422 -0.3657  1.4467
 1572SOL    HW2 4853   2.562   2.820   2.399 -0.3995  0.5225  1.8758
 1573SOL     OW 4854   3.141   0.638   0.271  0.0947  0.3589  0.2623
 1573SOL    HW1 4855   3.061   0.589   0.254  0.1620 -0.1220  1.2340
 1573SOL    HW2 4856   3.160   0.684   0.189 -0.7210 -0.1662 -0.2287
 1574SOL     OW 4857   3.511   3.436   2.588 -0.2384  0.0603  0.3489
 1574SOL    HW1 4858   3.537   3.498   2.520  0.5072 -1.8054 -1.1527
 1574SOL    HW2 4859   3.594   3.412   2.631 -0.6043  0.5812  1.3826
 1575SOL     OW 4860   0.598   0.794   2.723  0.2614  0.0978  0.0157
 1575SOL    HW1 4861   0.685   0.780   2.688  0.9095  1.4564  0.9959
 1575SOL    HW2 4862   0.550   0.838   2.653  0.9724  1.1061  0.1486
 1576SOL     OW 4863   3.059   3.318   1.748 -0.0872 -0.1358  0.1166
 1576SOL    HW1 4864   3.026   3.233   1.777 -2.0715  0.0117 -1.5849
 1576SOL    HW2 4865   3.054   3.373   1.827  0.2521 -1.2694  0.9691
 1577SOL     OW 4866   0.607   2.507   2.418  0.5075  0.3735 -0.1322
 1577SOL    HW1 4867   0.702   2.497   2.425  0.4749  0.0653 -0.0837
 1577SOL    HW2 4868   0.594   2.559   2.339  0.7288  0.6844  0.0374
 1578SOL     OW 4869   1.035   1.510   3.086 -0.7050  0.2517  0.4494
 1578SOL    HW1 4870   1.126   1.494   3.112 -0.9103 -1.4489  0.1928
 1578SOL    HW2 4871   1.032   1.604   3.069  0.2522  0.8779  3.2936
 1579SOL     OW 4872   1.043   3.486   0.968  0.1560 -0.4240  0.1007
 1579SOL    HW1 4873   1.068   3.396   0.950  0.6681 -0.0206 -1.3322
 1579SOL    HW2 4874   0.998   3.515   0.889 -0.3859  0.4426  0.7139
 1580SOL     OW 4875   2.540   2.640   3.512  0.6615 -0.8019 -0.0142
 1580SOL    HW1 4876   2.633   2.656   3.495  0.0524  1.0971 -2.1073
 1580SOL    HW2 4877   2.518   2.701   3.582  0.6026  0.2246 -0.8963
 1581SOL     OW 4878   0.169   2.093   1.811  0.1714 -0.5997 -0.3259
 1581SOL    HW1 4879   0.095   2.148   1.785 -1.1684 -0.7225  2.7953
 1581SOL    HW2 4880   0.237   2.155   1.837 -0.0509 -0.4376 -0.1271
 1582SOL     OW 4881   1.826   2.622   3.446  0.1975 -0.3646 -0.5566
 1582SOL    HW1 4882   1.821   2.665   3.531 -1.2579 -1.8161  0.1531
 1582SOL    HW2 4883   1.919   2.624   3.424  0.8835 -1.3425  1.8489
 1583SOL     OW 4884   1.828   0.848   0.307 -0.5969 -0.5465 -0.3347
 1583SOL    HW1 4885   1.815   0.754   0.319 -0.2455 -0.4929  0.5746
 1583SOL    HW2 4886   1.743   0.882   0.281 -1.0061 -0.9548  0.4515
 1584SOL     OW 4887   1.326   1.759   2.843  0.0602 -0.4610 -0.2192
 1584SOL    HW1 4888   1.371   1.790   2.922  2.3355 -0.8480 -1.2586
 1584SOL    HW2 4889   1.372   1.678   2.820 -2.0355 -1.5519 -0.7243
 1585SOL     OW 4890   0.788   1.827   1.818 -0.2686 -0.1595 -0.0611
 1585SOL    HW1 4891   0.735   1.894   1.775  0.1912 -0.5520 -1.3019
 1585SOL    HW2 4892   0.771   1.748   1.768  0.0271 -0.7251  0.7127
 1586SOL     OW 4893   0.799   0.031   0.510 -0.2505 -0.1752  0.6066
 1586SOL    HW1 4894   0.770  -0.031   0.577 -1.4517 -0.1482  0.1317
 1586SOL    HW2 4895   0.894   0.017   0.504 -0.2214 -0.6032  1.8713
 1587SOL     OW 4896   2.808   2.655   2.514 -0.5816 -0.3102  0.4067
 1587SOL    HW1 4897   2.787   2.603   2.592 -3.6013 -2.2418 -1.4720
 1587SOL    HW2 4898   2.831   2.589   2.448 -1.6260  0.9379 -1.2669
 1588SOL     OW 4899   3.405   2.492   0.074  0.3358  0.3895 -0.0109
 1588SOL    HW1 4900   3.350   2.562   0.109  0.7870  0.7235  0.0453
 1588SOL    HW2 4901   3.416   2.514  -0.018  0.4083  0.3461 -0.0130
 1589SOL     OW 4902   0.437   1.681   3.029 -0.4587  0.2243 -0.3839
 1589SOL    HW1 4903   0.404   1.726   2.952  0.3265  1.3368 -0.0996
 1589SOL    HW2 4904   0.359   1.660   3.080 -0.9540 -0.2262 -1.3153
 1590SOL     OW 4905   0.333   3.331   2.621 -0.3644 -0.1004  0.0094
 1590SOL    HW1 4906   0.305   3.420   2.642 -1.6052 -0.0161 -1.7799
 1590SOL    HW2 4907   0.270   3.274   2.665 -0.7894 -0.0287 -0.5010
 1591SOL     OW 4908   1.878   0.397   2.480  0.0457 -0.0560 -0.1557
 1591SOL    HW1 4909   1.801   0.452   2.466  0.5801  0.6290 -0.4503
 1591SOL    HW2 4910   1.920   0.391   2.394  1.1403  0.8199  0.2968
 1592SOL     OW 4911   3.687   3.083   2.647 -0.5357  0.5243  0.8048
 1592SOL    HW1 4912   3.606   3.057   2.603  1.1629 -0.2092 -2.1507
 1592SOL    HW2 4913   3.720   3.002   2.686 -0.7634  0.6283  1.2157
 1593SOL     OW 4914   3.398   0.228   3.036 -0.4094 -0.2007 -0.4305
 1593SOL    HW1 4915   3.305   0.230   3.056 -0.0094  1.2976  1.5469
 1593SOL    HW2 4916   3.425   0.139   3.059 -1.2228 -0.4502 -0.4206
 1594SOL     OW 4917   3.564   0.573   1.343  0.5002  0.0595  0.2789
 1594SOL    HW1 4918   3.629   0.642   1.333  0.4565  0.5927  2.9270
 1594SOL    HW2 4919   3.614   0.492   1.333  1.5816  0.4581  2.0453
 1595SOL     OW 4920   1.554   1.757   1.294 -0.1135 -0.1648 -0.1490
 1595SOL    HW1 4921   1.482   1.762   1.231 -0.4537  0.0681  0.2587
 1595SOL    HW2 4922   1.582   1.847   1.306 -2.5852  0.3760  2.9365
 1596SOL     OW 4923   1.445   2.209   1.334 -0.2371  0.2144 -0.1573
 1596SOL    HW1 4924   1.464   2.295   1.297  0.8761 -0.6370 -1.6599
 1596SOL    HW2 4925   1.402   2.161   1.264  1.6612 -1.3465 -0.3221
 1597SOL     OW 4926   0.470   3.659   2.009  0.0908 -0.9778 -0.2262
 1597SOL    HW1 4927   0.549   3.712   2.006  0.1569 -1.0372  0.2832
 1597SOL    HW2 4928   0.451   3.637   1.918 -1.3389  1.9715 -0.7508
 1598SOL     OW 4929   2.345   1.561   0.192  0.6648 -0.2462  0.4172
 1598SOL    HW1 4930   2.439   1.572   0.206  1.1047 -1.4658 -1.1886
 1598SOL    HW2 4931   2.329   1.600   0.106 -0.5743  1.0799  1.2119
 1599SOL     OW 4932   0.984   1.045   3.567  0.4306 -0.1975  0.1806
 1599SOL    HW1 4933   0.946   1.115   3.619  0.3984 -0.6277  0.7499
 1599SOL    HW2 4934   0.982   0.969   3.624  1.0218 -0.5194 -0.2118
 1600SOL     OW 4935   0.697   3.393   3.442  0.7937  0.4975 -0.6320
 1600SOL    HW1 4936   0.649   3.449   3.381  0.6769  1.1056 -0.0035
 1600SOL    HW2 4937   0.667   3.304   3.422 -1.0705  0.9052  0.1155
 1601SOL     OW 4938   3.426   0.399   2.345 -0.2980 -0.2553 -0.0395
 1601SOL    HW1 4939   3.359   0.401   2.413  1.3031 -0.3638  1.6373
 1601SOL    HW2 4940   3.497   0.452   2.381  0.5575 -0.2242 -1.7069
 1602SOL     OW 4941   2.330   2.602   1.887 -0.6740 -0.0980 -0.3373
 1602SOL    HW1 4942   2.292   2.684   1.918  1.7516  0.5318  1.2052
 1602SOL    HW2 4943   2.304   2.537   1.951  0.8816  0.3777  0.8453
 1603SOL     OW 4944   0.108   3.404   3.467 -0.0434  0.1695 -0.3230
 1603SOL    HW1 4945   0.041   3.340   3.439  0.9235 -1.4684  0.9246
 1603SOL    HW2 4946   0.174   3.400   3.398 -0.3967  0.4695 -0.6806
 1604SOL     OW 4947   2.889   0.238   0.436 -0.2701  0.2466  0.9608
 1604SOL    HW1 4948   2.944   0.168   0.470  0.3286  0.5899  0.7258
 1604SOL    HW2 4949   2.878   0.216   0.343 -0.0359  0.4808  0.8739
 1605SOL     OW 4950   1.567   3.408   2.535  0.3702 -0.5720  0.6936
 1605SOL    HW1 4951   1.634   3.379   2.473 -0.0679 -0.2029  0.0445
 1605SOL    HW2 4952   1.495   3.346   2.524 -0.0865  0.0434  0.1544
 1606SOL     OW 4953   2.455   0.247   1.252 -0.4013 -1.1923 -0.1533
 1606SOL    HW1 4954   2.380   0.297   1.285 -0.3693 -0.6535 -0.8732
 1606SOL    HW2 4955   2.439   0.157   1.280 -1.6599 -1.2055 -0.8714
 1607SOL     OW 4956   0.049   2.676   0.254  0.2728  0.3028  0.5456
 1607SOL    HW1 4957   0.007   2.604   0.301  1.3497  0.1763  1.3374
 1607SOL    HW2 4958  -0.023   2.736   0.232 -0.4214 -0.2853  1.1679
 1608SOL     OW 4959   1.471   2.313   3.246 -0.4079 -0.4042  0.2855
 1608SOL    HW1 4960   1.398   2.321   3.307 -0.0940 -3.0334  1.1605
 1608SOL    HW2 4961   1.521   2.393   3.256 -3.5198  1.8960 -0.9670
 1609SOL     OW 4962   1.553   1.543   0.702  0.1906  0.2602  0.2280
 1609SOL    HW1 4963   1.612   1.568   0.773 -2.2873  0.8202  2.2336
 1609SOL    HW2 4964   1.578   1.454   0.681  2.0062  0.6115  0.6910
 1610SOL     OW 4965   0.843   0.691   3.493  0.7449 -0.3532  0.2933
 1610SOL    HW1 4966   0.815   0.744   3.568 -0.6398 -0.3953 -0.1780
 1610SOL    HW2 4967   0.832   0.748   3.417  0.6020 -0.8447 -0.0596
 1611SOL     OW 4968   0.365   0.974   2.053  0.3863 -0.1568  0.3076
 1611SOL    HW1 4969   0.437   0.983   2.116  0.0144  0.2156  0.6865
 1611SOL    HW2 4970   0.318   1.058   2.058  0.5533  0.0161 -0.7181
 1612SOL     OW 4971   3.628   2.032   0.441 -0.0755 -0.2188  0.4245
 1612SOL    HW1 4972   3.615   1.938   0.435  0.9308 -0.5229  2.2510
 1612SOL    HW2 4973   3.548   2.070   0.404 -0.8649 -1.7955  0.4306
 1613SOL     OW 4974   1.146   0.362   1.416 -0.0198 -0.0102 -0.2139
 1613SOL    HW1 4975   1.072   0.423   1.409 -0.3276 -0.2227  1.0161
 1613SOL    HW2 4976   1.158   0.329   1.327 -0.8333  0.6957 -0.6023
 1614SOL     OW 4977   2.121   3.250   3.236  0.0529 -0.0047  0.3844
 1614SOL    HW1 4978   2.125   3.287   3.324 -1.7229  0.7064  0.2001
 1614SOL    HW2 4979   2.030   3.225   3.224  0.3514 -0.5064 -1.1001
 1615SOL     OW 4980   3.101   2.491   0.369  0.4338  0.3127 -0.0736
 1615SOL    HW1 4981   3.062   2.575   0.392  1.6125  0.7661  0.3651
 1615SOL    HW2 4982   3.174   2.481   0.430  2.3848  0.5477 -2.2251
 1616SOL     OW 4983   1.395   2.484   2.952  0.2574 -0.0421 -0.2853
 1616SOL    HW1 4984   1.334   2.426   2.997  0.1707  1.4406  1.6202
 1616SOL    HW2 4985   1.372   2.571   2.983  1.1771  0.9071 -2.1318
 1617SOL     OW 4986   1.575   3.114   2.844  0.3779  0.4437 -0.0876
 1617SOL    HW1 4987   1.493   3.073   2.873  1.3201 -1.2447  0.3255
 1617SOL    HW2 4988   1.635   3.101   2.917  1.2612  0.9449 -0.7111
 1618SOL     OW 4989   1.516   1.780   1.819 -1.0640  0.6360  0.6886
 1618SOL    HW1 4990   1.500   1.829   1.900 -1.1428  1.2174  0.3256
 1618SOL    HW2 4991   1.575   1.710   1.845 -0.4333  1.3011  1.0888
 1619SOL     OW 4992   2.192   1.517   2.627 -0.3522 -0.0812 -1.0315
 1619SOL    HW1 4993   2.267   1.570   2.600  2.1036 -1.3368  2.4743
 1619SOL    HW2 4994   2.145   1.572   2.689 -0.9340 -0.1470 -1.4104
 1620SOL     OW 4995   3.236   3.726   1.511 -0.2496  0.3888 -0.0342
 1620SOL    HW1 4996   3.187   3.645   1.524 -0.5274  0.7023  0.9500
 1620SOL    HW2 4997   3.212   3.755   1.423 -2.1031  0.7046  0.5329
 1621SOL     OW 4998   1.540   0.491   1.544  0.5732  0.1470 -0.1483
 1621SOL    HW1 4999   1.603   0.420   1.556  0.7292  0.2902 -0.1167
 1621SOL    HW2 5000   1.575   0.543   1.472 -0.1604 -0.4911 -0.9901
 1622SOL     OW 5001   0.085   1.328   2.293  0.1187  0.7392 -0.0036
 1622SOL    HW1 5002  -0.009   1.344   2.285  0.0610  1.2154  1.4893
 1622SOL    HW2 5003   0.107   1.355   2.382  1.3387 -1.0413  0.2783
 1623SOL     OW 5004   3.141   1.389   3.007 -0.1504 -0.4535  0.3189
 1623SOL    HW1 5005   3.074   1.341   2.958  0.2354  0.6835 -1.4378
 1623SOL    HW2 5006   3.220   1.336   2.999 -0.2079 -0.5090  0.1212
 1624SOL     OW 5007   2.864   0.203   1.647 -0.5255 -0.1302  0.0338
 1624SOL    HW1 5008   2.812   0.123   1.659 -1.5684  0.6957  1.3566
 1624SOL    HW2 5009   2.896   0.198   1.557  0.4135 -2.5871  0.4395
 1625SOL     OW 5010   0.244   3.689   2.393  0.3883  0.2914 -0.2542
 1625SOL    HW1 5011   0.311   3.622   2.376 -0.7756 -0.9950  0.0682
 1625SOL    HW2 5012   0.251   3.749   2.318  0.4758 -1.0155 -1.3291
 1626SOL     OW 5013   2.039   2.743   0.985 -0.4781 -0.5102 -0.4554
 1626SOL    HW1 5014   2.023   2.780   1.071 -0.3336 -0.7862 -0.3057
 1626SOL    HW2 5015   2.135   2.739   0.978 -0.4699 -1.9551  0.0297
 1627SOL     OW 5016   0.731   1.738   0.030 -0.1847  0.3629  0.0808
 1627SOL    HW1 5017   0.644   1.775   0.021  0.5337  1.7905 -1.8376
 1627SOL    HW2 5018   0.735   1.670  -0.037 -0.4662 -1.1607  1.5468
 1628SOL     OW 5019   2.235   1.109   1.909 -0.2091 -0.1115  0.0682
 1628SOL    HW1 5020   2.318   1.065   1.891 -0.3316 -1.1459  1.8073
 1628SOL    HW2 5021   2.259   1.184   1.962 -0.2607  0.5131 -0.7640
 1629SOL     OW 5022   0.682   2.218   0.373 -0.6436 -0.6062 -1.1070
 1629SOL    HW1 5023   0.690   2.312   0.382  0.5657 -0.8188  0.3272
 1629SOL    HW2 5024   0.771   2.186   0.358 -0.9093 -1.6087 -0.6641
 1630SOL     OW 5025   3.048   3.337   2.685  0.3203 -0.4189  0.8481
 1630SOL    HW1 5026   3.038   3.306   2.595 -0.5437  0.0157  0.7868
 1630SOL    HW2 5027   2.963   3.320   2.725 -0.1014  1.5711  0.8940
 1631SOL     OW 5028   1.187   1.545   2.547 -0.6046 -0.0818 -0.4733
 1631SOL    HW1 5029   1.107   1.538   2.599  0.6507  0.7347  1.6887
 1631SOL    HW2 5030   1.206   1.638   2.543  1.9578 -0.3550  2.0011
 1632SOL     OW 5031   3.601   2.597   0.908  0.2241  0.0442  0.2195
 1632SOL    HW1 5032   3.629   2.630   0.994  1.3286  0.9406 -0.4560
 1632SOL    HW2 5033   3.525   2.651   0.885  1.3059  1.4077 -0.3484
 1633SOL     OW 5034   3.513   1.248   0.345 -0.0962 -0.2105 -0.2792
 1633SOL    HW1 5035   3.563   1.309   0.399 -0.5523 -2.6839  3.2933
 1633SOL    HW2 5036   3.578   1.211   0.285  0.7115  1.8016 -0.7244
 1634SOL     OW 5037   1.011   0.048   0.295 -0.0234 -0.3948  0.0159
 1634SOL    HW1 5038   1.005   0.111   0.366 -2.0909  1.5603 -1.7288
 1634SOL    HW2 5039   1.072   0.088   0.233  0.3604 -1.1904 -0.1268
 1635SOL     OW 5040   2.073   2.683   2.337  0.7884  0.0707  0.0908
 1635SOL    HW1 5041   2.145   2.622   2.323  0.1130 -0.8187  0.3327
 1635SOL    HW2 5042   2.047   2.711   2.250  1.1276  0.0330 -0.0232
 1636SOL     OW 5043   1.416   1.157   2.626  0.0632 -0.6312 -0.1066
 1636SOL    HW1 5044   1.502   1.163   2.585  0.2962 -0.2671  0.4140
 1636SOL    HW2 5045   1.354   1.175   2.555  0.5111  1.6490 -0.0071
 1637SOL     OW 5046   0.175   2.355   2.661  0.1875 -0.3342 -0.7028
 1637SOL    HW1 5047   0.196   2.442   2.625  0.9048 -1.3031 -2.7688
 1637SOL    HW2 5048   0.240   2.342   2.730  0.0329  0.7830 -0.3175
 1638SOL     OW 5049   0.165   3.191   2.774 -0.0023  0.1091  0.1469
 1638SOL    HW1 5050   0.079   3.170   2.736 -0.6936  0.0074  1.7166
 1638SOL    HW2 5051   0.194   3.109   2.814  0.0428  0.5789  1.0916
 1639SOL     OW 5052   3.229   2.826   2.602 -0.0755  0.1654 -0.3213
 1639SOL    HW1 5053   3.179   2.902   2.631  0.7755 -0.1096  2.0357
 1639SOL    HW2 5054   3.297   2.814   2.669 -0.1475 -2.6460 -0.6319
 1640SOL     OW 5055   2.912   2.246   0.049 -0.0380  0.5765  0.1301
 1640SOL    HW1 5056   2.838   2.253   0.109  0.8780  2.4685  1.1037
 1640SOL    HW2 5057   2.989   2.269   0.102  0.9717  0.9039 -1.4097
 1641SOL     OW 5058   0.407   3.222   0.770 -0.2543 -0.2813 -0.0203
 1641SOL    HW1 5059   0.468   3.149   0.768  0.3960  0.1406  2.0447
 1641SOL    HW2 5060   0.351   3.208   0.694 -1.5040 -4.0719  1.3771
 1642SOL     OW 5061   2.324   3.088   3.688 -0.1175  0.4018  0.0716
 1642SOL    HW1 5062   2.309   3.183   3.683  1.5404  0.7312  0.5569
 1642SOL    HW2 5063   2.299   3.065   3.778 -1.4969  0.1530 -0.3485
 1643SOL     OW 5064   1.654   1.332   0.599  0.2541 -0.2352  0.4134
 1643SOL    HW1 5065   1.743   1.366   0.588 -0.5069  2.3674  1.5495
 1643SOL    HW2 5066   1.643   1.270   0.527  2.3354  0.8486 -0.9391
 1644SOL     OW 5067   2.903   0.519   1.462 -0.4938  0.3811  0.5401
 1644SOL    HW1 5068   2.869   0.587   1.404  0.8070 -0.0651 -0.7803
 1644SOL    HW2 5069   2.878   0.436   1.421  1.0080  0.0573  0.2064
 1645SOL     OW 5070   2.940   3.520   3.213 -0.3930 -0.3867  0.2716
 1645SOL    HW1 5071   2.934   3.429   3.183 -0.2486  0.4654 -2.7376
 1645SOL    HW2 5072   2.859   3.560   3.182 -0.3027  0.6115  1.2661
 1646SOL     OW 5073   0.605   0.264   1.541 -0.8830 -0.3303  0.8522
 1646SOL    HW1 5074   0.608   0.326   1.614  0.6809 -0.4970  0.9693
 1646SOL    HW2 5075   0.521   0.220   1.550 -0.5880 -0.5923  2.7932
 1647SOL     OW 5076   0.639   0.135   2.925  0.0384 -0.4066  0.5074
 1647SOL    HW1 5077   0.668   0.208   2.871  0.8490  0.7423  2.3737
 1647SOL    HW2 5078   0.636   0.171   3.014  0.3740 -2.6279  1.4868
 1648SOL     OW 5079   3.385   1.336   0.904  0.1142  0.3805 -0.4423
 1648SOL    HW1 5080   3.313   1.296   0.855 -1.4411  2.5236 -0.0365
 1648SOL    HW2 5081   3.342   1.394   0.966  2.1071 -0.8934  2.3152
 1649SOL     OW 5082   3.403   0.538   3.474  0.5850 -0.0860  0.0310
 1649SOL    HW1 5083   3.308   0.534   3.469  0.4292 -0.4002  2.1482
 1649SOL    HW2 5084   3.433   0.533   3.384 -1.4234  0.6994 -0.7253
 1650SOL     OW 5085   2.280   3.357   3.656 -0.3510  0.6951 -0.5887
 1650SOL    HW1 5086   2.325   3.358   3.572  0.0781  1.2524 -0.3596
 1650SOL    HW2 5087   2.269   3.449   3.679  0.9869  0.5703  0.7249
 1651SOL     OW 5088   1.118   2.767   2.091 -0.2680 -0.3302 -0.1575
 1651SOL    HW1 5089   1.208   2.758   2.123  0.8798 -1.1166 -3.2550
 1651SOL    HW2 5090   1.064   2.757   2.169  2.3242  1.2966  2.0212
 1652SOL     OW 5091   0.794   3.419   0.078  0.3387  0.2185  0.8139
 1652SOL    HW1 5092   0.812   3.482   0.148 -0.9360  0.9097  0.5644
 1652SOL    HW2 5093   0.719   3.456   0.031 -0.0312 -1.1707  0.2432
 1653SOL     OW 5094   1.396   0.622   0.337 -0.1169 -0.4550  0.3900
 1653SOL    HW1 5095   1.333   0.677   0.382  1.6618  1.2289  0.9626
 1653SOL    HW2 5096   1.425   0.559   0.403 -0.3266 -0.4628  0.4735
 1654SOL     OW 5097   2.359   1.669   2.110  0.2255 -0.2230  0.4600
 1654SOL    HW1 5098   2.282   1.617   2.083 -1.3497  1.2608  1.8700
 1654SOL    HW2 5099   2.429   1.604   2.119 -0.9056 -1.6825 -0.6041
 1655SOL     OW 5100   2.814   0.452   1.710 -0.4936 -0.0776 -0.1032
 1655SOL    HW1 5101   2.825   0.496   1.626 -2.0583  0.5875 -0.0086
 1655SOL    HW2 5102   2.826   0.359   1.691 -1.5847 -0.0121 -1.2307
 1656SOL     OW 5103   2.165   0.400   3.412 -0.0321 -0.3774  0.1695
 1656SOL    HW1 5104   2.105   0.355   3.353 -0.6982  2.1306 -1.1706
 1656SOL    HW2 5105   2.242   0.419   3.358  0.3734 -0.1636  0.8080
 1657SOL     OW 5106   0.681   1.018   3.531 -0.2255  0.9024  0.1564
 1657SOL    HW1 5107   0.726   1.097   3.561  3.8073 -1.1445  0.2099
 1657SOL    HW2 5108   0.640   1.043   3.448  1.0157  3.0204  0.1108
 1658SOL     OW 5109   0.987   0.140   1.980  0.2067  0.2243  0.1352
 1658SOL    HW1 5110   0.893   0.151   1.972 -0.4778 -4.0175 -0.1649
 1658SOL    HW2 5111   1.006   0.151   2.073 -0.6215  0.7828  0.2432
 1659SOL     OW 5112   3.005   3.458   1.985 -0.1352 -0.0650  0.0096
 1659SOL    HW1 5113   3.068   3.530   1.987  1.7349 -1.5882 -0.6983
 1659SOL    HW2 5114   2.998   3.429   2.076  1.5015 -0.9020 -0.0952
 1660SOL     OW 5115   0.321   1.472   2.116  0.3452  0.7255 -0.5117
 1660SOL    HW1 5116   0.259   1.499   2.184  1.9191  0.3277  1.1344
 1660SOL    HW2 5117   0.402   1.517   2.137  1.3204 -0.6534 -1.1758
 1661SOL     OW 5118   2.918   0.151   3.338  1.2005 -0.0357 -0.3385
 1661SOL    HW1 5119   2.917   0.064   3.378  0.9152  0.6191  1.1523
 1661SOL    HW2 5120   2.904   0.212   3.411 -0.2447  1.1961 -1.5470
 1662SOL     OW 5121   2.857   1.760   1.559 -0.0363 -0.1878 -0.7458
 1662SOL    HW1 5122   2.803   1.683   1.540  0.6130 -0.8060 -0.1236
 1662SOL    HW2 5123   2.947   1.728   1.554  0.2418 -0.2601  2.4684
 1663SOL     OW 5124   0.156   2.844   3.094 -0.1408  0.3904  0.0807
 1663SOL    HW1 5125   0.205   2.921   3.123 -1.4896  1.3072  0.0417
 1663SOL    HW2 5126   0.105   2.817   3.171  1.1912 -1.2249  0.4546
 1664SOL     OW 5127   3.159   0.660   3.397  0.3278 -0.2205  0.0986
 1664SOL    HW1 5128   3.075   0.704   3.404  0.8910  0.8232  0.4937
 1664SOL    HW2 5129   3.198   0.694   3.316  1.2996  0.9981  1.0395
 1665SOL     OW 5130   3.686   0.601   2.995 -0.1251 -0.1322 -0.2878
 1665SOL    HW1 5131   3.655   0.549   3.068 -0.4359  1.7010  0.9440
 1665SOL    HW2 5132   3.698   0.538   2.924  0.1909 -1.9643  1.3137
 1666SOL     OW 5133   3.142   0.436   2.883  0.1513 -0.1122 -0.1094
 1666SOL    HW1 5134   3.104   0.473   2.963 -0.1270  0.3488 -0.4427
 1666SOL    HW2 5135   3.093   0.479   2.812  0.7167 -0.1586 -0.5340
 1667SOL     OW 5136   3.121   2.190   0.604 -0.1503  0.1749  0.0053
 1667SOL    HW1 5137   3.192   2.187   0.667 -0.4656  0.6101  0.3934
 1667SOL    HW2 5138   3.106   2.284   0.589  1.1841  0.1099 -2.1801
 1668SOL     OW 5139   2.825   0.540   2.293 -0.6080  0.3718 -0.0251
 1668SOL    HW1 5140   2.886   0.580   2.355  1.9155 -0.3328 -1.8939
 1668SOL    HW2 5141   2.766   0.611   2.268 -0.7684  1.0248  2.0336
 1669SOL     OW 5142   1.892   1.821   2.771  0.6477  0.0970 -0.4856
 1669SOL    HW1 5143   1.900   1.883   2.844  0.1459 -1.6219  1.0943
 1669SOL    HW2 5144   1.982   1.800   2.748  0.8295 -0.4974  0.6919
 1670SOL     OW 5145   1.818   1.654   1.215 -0.2955  0.7835 -0.0261
 1670SOL    HW1 5146   1.742   1.699   1.251 -1.2648 -0.8962  0.1424
 1670SOL    HW2 5147   1.793   1.561   1.215  1.9829  0.0945  0.6393
 1671SOL     OW 5148   2.814   0.702   1.277  0.0344 -0.2768 -0.7566
 1671SOL    HW1 5149   2.737   0.758   1.283  1.2725  1.6796 -1.8027
 1671SOL    HW2 5150   2.805   0.658   1.192  0.1542  0.1190 -0.9783
 1672SOL     OW 5151   3.610   1.411   2.874 -0.2649  0.1442  0.2365
 1672SOL    HW1 5152   3.657   1.328   2.878 -1.2721 -0.5251 -1.0572
 1672SOL    HW2 5153   3.529   1.396   2.922  0.0320  0.7489  0.9578
 1673SOL     OW 5154   0.255   0.336   0.529 -0.0128 -0.3847  0.2317
 1673SOL    HW1 5155   0.349   0.317   0.521 -0.6024 -3.2730 -1.0179
 1673SOL    HW2 5156   0.214   0.250   0.539 -2.5672  0.8080  0.7302
 1674SOL     OW 5157   1.664   1.392   1.551 -0.2444 -0.5800 -0.0730
 1674SOL    HW1 5158   1.602   1.465   1.546 -0.7287 -1.0513 -1.3892
 1674SOL    HW2 5159   1.740   1.422   1.501  1.0261  0.3386  2.2376
 1675SOL     OW 5160   0.065   0.145   1.969 -0.7798 -0.4827 -0.0245
 1675SOL    HW1 5161   0.144   0.137   2.022 -0.8692  0.1713  0.2221
 1675SOL    HW2 5162   0.035   0.235   1.984 -3.0329 -1.4637  1.9927
 1676SOL     OW 5163   0.196   0.404   1.262  0.4991 -0.6765 -0.2755
 1676SOL    HW1 5164   0.112   0.411   1.217 -0.5017 -3.3929  0.9725
 1676SOL    HW2 5165   0.237   0.327   1.224  1.6967 -0.3437  0.2944
 1677SOL     OW 5166   1.883   3.411   0.592  1.2067  0.5549 -0.9198
 1677SOL    HW1 5167   1.887   3.441   0.682  0.5145  1.4408 -1.1661
 1677SOL    HW2 5168   1.809   3.350   0.590 -0.2359  2.2423 -1.3301
 1678SOL     OW 5169   0.207   0.160   3.018  0.8434 -0.8550 -0.8727
 1678SOL    HW1 5170   0.124   0.148   3.065  1.3481 -1.9017 -0.1940
 1678SOL    HW2 5171   0.268   0.192   3.085  0.6340  1.4815 -1.7101
 1679SOL     OW 5172   3.548   2.796   0.140 -0.5059 -0.3239  0.3909
 1679SOL    HW1 5173   3.494   2.729   0.182 -0.3203 -0.3818  0.5355
 1679SOL    HW2 5174   3.530   2.785   0.046 -0.5822 -0.4841  0.4229
 1680SOL     OW 5175   2.210   1.021   0.931 -0.2297 -0.2531 -0.1537
 1680SOL    HW1 5176   2.297   1.021   0.891 -0.1858 -1.1028 -0.0857
 1680SOL    HW2 5177   2.197   0.930   0.959  0.1536  0.4866  2.6961
 1681SOL     OW 5178   0.626   2.706   0.749 -0.4014  0.7029 -0.0052
 1681SOL    HW1 5179   0.696   2.759   0.788 -0.9715 -0.1883  2.4109
 1681SOL    HW2 5180   0.630   2.727   0.656  2.5164  1.3401  0.1488
 1682SOL     OW 5181   2.789   1.118   1.804 -0.0661  0.4874  0.0687
 1682SOL    HW1 5182   2.846   1.190   1.830  1.4298 -0.5198 -0.2890
 1682SOL    HW2 5183   2.841   1.039   1.819 -1.5496 -0.5105  0.1627
 1683SOL     OW 5184   0.143   3.612   0.132 -0.1688  0.0462  0.4507
 1683SOL    HW1 5185   0.236   3.588   0.131  0.7472  3.1403  1.1038
 1683SOL    HW2 5186   0.136   3.684   0.070 -2.2856 -0.4056  0.0744
 1684SOL     OW 5187   2.053   2.079   2.180 -0.7424 -0.1798  0.5116
 1684SOL    HW1 5188   2.069   2.148   2.245  0.1092  0.1090  0.0104
 1684SOL    HW2 5189   2.094   2.001   2.216 -0.9822 -0.2240  0.6929
 1685SOL     OW 5190   1.153   3.754   1.495 -0.3109  0.3736 -0.1246
 1685SOL    HW1 5191   1.100   3.681   1.461 -0.8367  0.9646 -0.5930
 1685SOL    HW2 5192   1.243   3.731   1.471 -0.3237 -0.6889  0.7686
 1686SOL     OW 5193   3.682   0.431   3.634  0.1855 -0.1403  0.3268
 1686SOL    HW1 5194   3.708   0.379   3.711  0.7688  1.3980  1.2188
 1686SOL    HW2 5195   3.629   0.502   3.671  3.0395  2.4397 -0.2159
 1687SOL     OW 5196   3.232   0.615   1.631  0.1090 -0.3127 -0.3476
 1687SOL    HW1 5197   3.239   0.700   1.673 -1.7814  0.0044 -0.5780
 1687SOL    HW2 5198   3.188   0.632   1.548 -0.6253 -1.5309 -0.2455
 1688SOL     OW 5199   0.673   3.619   3.242 -0.0022 -0.2373  0.6706
 1688SOL    HW1 5200   0.601   3.677   3.265 -1.2354 -1.1040 -0.7940
 1688SOL    HW2 5201   0.751   3.662   3.276 -0.8304  2.2941 -0.3732
 1689SOL     OW 5202   0.433   1.372   2.924  0.2365 -0.1781 -0.1641
 1689SOL    HW1 5203   0.358   1.431   2.921  0.8672  0.6588 -3.1981
 1689SOL    HW2 5204   0.468   1.382   3.013 -1.2752  1.9390  0.2735
 1690SOL     OW 5205   1.742   2.750   1.689 -0.1644 -0.0569 -0.2257
 1690SOL    HW1 5206   1.716   2.728   1.778  0.4425  0.4132  0.0716
 1690SOL    HW2 5207   1.659   2.765   1.643 -0.4775 -0.2282  0.2796
 1691SOL     OW 5208   0.589   1.986   1.508 -0.3290  0.1224 -0.2130
 1691SOL    HW1 5209   0.586   2.054   1.441  0.1716 -1.7864 -2.3019
 1691SOL    HW2 5210   0.620   1.908   1.461 -0.4134 -1.4306  2.1607
 1692SOL     OW 5211   3.422   0.203   3.336 -0.1575 -0.3328  0.0319
 1692SOL    HW1 5212   3.336   0.176   3.369  0.0409 -0.8142  0.1612
 1692SOL    HW2 5213   3.483   0.179   3.406  0.2667 -1.3448 -0.6690
 1693SOL     OW 5214   1.522   3.683   2.501  0.2898  0.3205  0.3001
 1693SOL    HW1 5215   1.570   3.601   2.501 -0.7948 -0.3567  1.4879
 1693SOL    HW2 5216   1.432   3.658   2.482  0.1338  1.3778 -0.4269
 1694SOL     OW 5217   3.239   1.718   0.198  0.0489 -0.2120  0.4507
 1694SOL    HW1 5218   3.203   1.743   0.283 -0.6645 -0.9380  0.3720
 1694SOL    HW2 5219   3.262   1.801   0.156  1.9989  0.1256  1.9993
 1695SOL     OW 5220   3.433   1.800   3.286 -0.4630 -0.0227 -0.1236
 1695SOL    HW1 5221   3.459   1.876   3.234  1.9452  0.4180  1.5316
 1695SOL    HW2 5222   3.399   1.737   3.223 -1.0933  1.8333 -1.7274
 1696SOL     OW 5223   3.136   2.301   2.780  0.3313  0.0201 -0.2233
 1696SOL    HW1 5224   3.215   2.348   2.753  1.3107 -0.5515  1.4635
 1696SOL    HW2 5225   3.169   2.228   2.833 -1.2590 -1.3586 -1.0700
 1697SOL     OW 5226   1.277   2.253   3.090 -0.4638 -0.3465  0.0841
 1697SOL    HW1 5227   1.351   2.213   3.137 -0.9145 -2.2473 -0.7119
 1697SOL    HW2 5228   1.201   2.233   3.144 -0.4999  0.9891  0.5444
 1698SOL     OW 5229   0.887   2.831   2.916 -0.4751 -0.0445 -1.0312
 1698SOL    HW1 5230   0.895   2.777   2.838  2.0995 -1.1912 -0.0915
 1698SOL    HW2 5231   0.851   2.771   2.983  0.0601  0.0839 -0.6198
 1699SOL     OW 5232   2.601   0.424   3.135 -0.0618  0.2604 -0.0500
 1699SOL    HW1 5233   2.665   0.365   3.095 -0.6625  0.0699 -0.7626
 1699SOL    HW2 5234   2.580   0.487   3.066 -0.3166  0.5804  0.3164
 1700SOL     OW 5235   2.213   2.924   2.790  0.2404  0.4726  0.5889
 1700SOL    HW1 5236   2.243   2.867   2.719  0.5095  0.0467  1.0384
 1700SOL    HW2 5237   2.272   2.999   2.786  2.0540 -0.7738  2.0559
 1701SOL     OW 5238   0.068   2.232   3.216  0.1801  0.2311 -0.2315
 1701SOL    HW1 5239   0.134   2.223   3.147 -0.0480  1.1678 -0.5853
 1701SOL    HW2 5240   0.096   2.309   3.265  1.1784 -1.2601  1.6761
 1702SOL     OW 5241   2.488   1.610   0.654  0.1492 -0.1892 -0.0358
 1702SOL    HW1 5242   2.570   1.595   0.606 -0.0525  0.5411 -0.6409
 1702SOL    HW2 5243   2.423   1.556   0.609  0.3743 -1.0629  0.6829
 1703SOL     OW 5244   0.076   3.501   1.701 -0.0254 -0.4070  0.1541
 1703SOL    HW1 5245   0.082   3.516   1.606 -0.6231  0.4787  0.2440
 1703SOL    HW2 5246  -0.009   3.457   1.712 -1.0595  1.5625  0.4860
 1704SOL     OW 5247   0.068   0.122   3.711  0.0697 -0.1895 -0.0431
 1704SOL    HW1 5248   0.092   0.108   3.619  1.1585 -0.4572  0.2678
 1704SOL    HW2 5249  -0.027   0.111   3.712 -0.4334  2.9329 -1.6947
 1705SOL     OW 5250   1.569   2.606   1.464  0.1754 -0.4342  0.1476
 1705SOL    HW1 5251   1.662   2.590   1.448  0.3383  0.0745  0.5508
 1705SOL    HW2 5252   1.551   2.561   1.547  0.0618 -0.5146  0.0811
 1706SOL     OW 5253   1.333   0.896   0.151 -0.1096 -0.6171 -0.1881
 1706SOL    HW1 5254   1.339   0.913   0.057  0.0613 -1.1403 -0.2802
 1706SOL    HW2 5255   1.315   0.802   0.157 -1.6868 -0.3059  0.2774
 1707SOL     OW 5256   3.712   0.280   2.327  0.3667  0.0765  0.0516
 1707SOL    HW1 5257   3.676   0.368   2.339  1.2133  0.9793 -3.0853
 1707SOL    HW2 5258   3.636   0.222   2.330 -0.7812  1.3934 -1.5111
 1708SOL     OW 5259   3.648   2.427   2.362 -0.1883 -0.5474 -0.5000
 1708SOL    HW1 5260   3.724   2.392   2.315  0.0326  0.0588 -0.6090
 1708SOL    HW2 5261   3.686   2.476   2.435 -0.2684  2.3359 -2.2452
 1709SOL     OW 5262   3.076   3.415   0.496  0.3154  0.2666 -0.2863
 1709SOL    HW1 5263   3.092   3.332   0.540 -3.1685 -0.1418  0.5228
 1709SOL    HW2 5264   3.093   3.397   0.403  0.9698 -0.9176  0.0495
 1710SOL     OW 5265   1.031   0.514   1.694  0.1460  0.5358 -0.5012
 1710SOL    HW1 5266   1.095   0.461   1.743  0.2163  0.6561 -0.4629
 1710SOL    HW2 5267   1.021   0.594   1.746 -0.2935  0.3714 -0.3349
 1711SOL     OW 5268   0.946   1.829   2.631  0.2128  0.1411  0.3684
 1711SOL    HW1 5269   0.851   1.836   2.642  0.2524 -0.6815  1.4790
 1711SOL    HW2 5270   0.982   1.868   2.711  0.8539  1.3907 -0.5142
 1712SOL     OW 5271   1.707   0.613   1.381 -0.4522 -0.2329 -0.3036
 1712SOL    HW1 5272   1.762   0.545   1.343  2.8592  3.6375 -3.2865
 1712SOL    HW2 5273   1.645   0.636   1.312 -1.1754  0.1244  0.4442
 1713SOL     OW 5274   1.722   0.487   0.783 -0.8615  0.1915 -0.0747
 1713SOL    HW1 5275   1.627   0.503   0.786 -0.8114  0.7349 -0.8978
 1713SOL    HW2 5276   1.753   0.544   0.712  0.2144  0.6552  0.7390
 1714SOL     OW 5277   2.434   1.926   2.120  0.0609 -0.7936 -0.2208
 1714SOL    HW1 5278   2.514   1.914   2.172 -0.4115 -0.4542  0.5930
 1714SOL    HW2 5279   2.410   1.838   2.092  0.7525 -0.8941 -0.5301
 1715SOL     OW 5280   1.782   1.871   1.661 -0.3384  0.4013  0.2793
 1715SOL    HW1 5281   1.712   1.919   1.617 -0.5681  0.9872  1.2795
 1715SOL    HW2 5282   1.785   1.906   1.749  1.1148  0.2715  0.3119
 1716SOL     OW 5283   3.677   0.431   2.745  0.0507 -0.4476  0.2232
 1716SOL    HW1 5284   3.722   0.373   2.683 -1.5169 -0.5022 -0.9257
 1716SOL    HW2 5285   3.590   0.393   2.753 -1.1657  1.9050 -0.8480
 1717SOL     OW 5286   1.385   3.122   1.979  0.0675 -0.1974  0.5911
 1717SOL    HW1 5287   1.454   3.186   1.995 -1.5100  1.7386  0.0951
 1717SOL    HW2 5288   1.331   3.125   2.058  0.6526 -1.9060  1.1009
 1718SOL     OW 5289   2.922   2.006   1.665  0.4244 -0.0172 -0.0439
 1718SOL    HW1 5290   2.924   1.930   1.606 -0.9572 -0.0597 -0.0621
 1718SOL    HW2 5291   2.846   1.992   1.721 -0.0657  1.5150 -0.2746
 1719SOL     OW 5292   3.053   0.261   1.394  0.1715 -0.5104 -0.5937
 1719SOL    HW1 5293   3.086   0.180   1.356 -2.6677 -1.3874 -1.4780
 1719SOL    HW2 5294   3.049   0.322   1.320 -1.1596 -0.8022 -0.7984
 1720SOL     OW 5295   3.305   3.342   1.359 -0.2888  0.2865 -0.0471
 1720SOL    HW1 5296   3.392   3.368   1.388 -1.5253  2.7166  1.8206
 1720SOL    HW2 5297   3.298   3.374   1.270  0.7813 -0.1558 -0.3006
 1721SOL     OW 5298   1.839   2.540   1.535  1.0452 -0.5203 -0.4238
 1721SOL    HW1 5299   1.901   2.481   1.576  0.5551 -1.8193 -1.4757
 1721SOL    HW2 5300   1.822   2.608   1.601  0.0902 -2.6328  1.6421
 1722SOL     OW 5301   3.065   1.062   1.662 -0.3762  0.3137  0.3069
 1722SOL    HW1 5302   3.083   1.156   1.659 -0.0174  0.2544  0.4663
 1722SOL    HW2 5303   3.020   1.043   1.580  0.5072  0.4316 -0.2193
 1723SOL     OW 5304   1.676   2.957  -0.001 -0.1989 -0.1728  0.3998
 1723SOL    HW1 5305   1.600   2.922  -0.048 -0.0673 -0.5427  0.4528
 1723SOL    HW2 5306   1.647   2.965   0.089 -0.1699 -0.3316  0.4234
 1724SOL     OW 5307   3.479   0.826   0.128  0.3906 -0.5249 -0.0373
 1724SOL    HW1 5308   3.412   0.888   0.100  0.9334  0.2348  0.3243
 1724SOL    HW2 5309   3.437   0.775   0.197  0.9830  1.7953  2.2085
 1725SOL     OW 5310   2.781   1.366   1.072  0.3052 -0.4947 -0.4761
 1725SOL    HW1 5311   2.791   1.460   1.057  0.5732 -0.5371 -0.5721
 1725SOL    HW2 5312   2.867   1.337   1.102  0.3243 -0.7723 -0.7830
 1726SOL     OW 5313   1.670   1.236   3.731  0.0113 -0.1528  0.6133
 1726SOL    HW1 5314   1.751   1.227   3.782  0.3394  0.1864  0.1588
 1726SOL    HW2 5315   1.700   1.236   3.639 -0.6987 -2.5006  0.3171
 1727SOL     OW 5316   2.629   3.443   0.413 -0.1714  0.3925  0.1981
 1727SOL    HW1 5317   2.600   3.440   0.322  0.6503 -0.1595 -0.0555
 1727SOL    HW2 5318   2.582   3.518   0.451 -2.0602 -0.5833 -0.1129
 1728SOL     OW 5319   1.261   2.532   2.345  0.4592 -0.3425  0.4741
 1728SOL    HW1 5320   1.203   2.510   2.272 -0.4618  2.7964  0.1111
 1728SOL    HW2 5321   1.241   2.467   2.412 -2.4018 -0.3221 -0.2124
 1729SOL     OW 5322   1.405   0.275   0.268 -0.0065 -0.0282 -0.2406
 1729SOL    HW1 5323   1.356   0.314   0.340 -1.5409 -0.9029 -0.7689
 1729SOL    HW2 5324   1.466   0.214   0.310 -1.7066 -1.4183  0.2956
 1730SOL     OW 5325   2.005   3.500   0.342 -0.0309 -0.4267  0.2830
 1730SOL    HW1 5326   2.054   3.579   0.366 -0.6658  0.0156  0.1583
 1730SOL    HW2 5327   1.984   3.458   0.425 -0.9272  0.3027  0.4403
 1731SOL     OW 5328   3.558   0.067   0.245  0.9729  0.2673  0.2900
 1731SOL    HW1 5329   3.607  -0.007   0.281  0.8907 -0.2078 -0.5535
 1731SOL    HW2 5330   3.526   0.036   0.161 -1.2295  0.3736  1.0159
 1732SOL     OW 5331   0.973   1.865   1.392 -0.1761  0.7050 -0.0266
 1732SOL    HW1 5332   0.960   1.875   1.487 -1.9458 -0.3028 -0.1104
 1732SOL    HW2 5333   1.035   1.792   1.384 -0.4962  0.3823  0.3651
 1733SOL     OW 5334   3.145   1.617   3.587  0.0303 -0.1904 -0.1390
 1733SOL    HW1 5335   3.133   1.631   3.493 -0.4403 -0.1970 -0.0817
 1733SOL    HW2 5336   3.161   1.704   3.622 -0.4532 -0.1019 -0.1323
 1734SOL     OW 5337   0.191   2.382   1.579 -0.5937 -0.3091 -0.3910
 1734SOL    HW1 5338   0.232   2.465   1.603 -1.2408 -0.3917  1.0612
 1734SOL    HW2 5339   0.189   2.383   1.483  1.5376  0.2907 -0.4862
 1735SOL     OW 5340   2.770   0.175   3.119 -0.5638 -0.2685 -0.9005
 1735SOL    HW1 5341   2.849   0.155   3.170 -0.0340  1.8169 -0.8009
 1735SOL    HW2 5342   2.803   0.219   3.041 -1.6397  2.0816 -0.1336
 1736SOL     OW 5343   2.191   0.017   3.430  0.1832  0.6561  0.0305
 1736SOL    HW1 5344   2.165   0.106   3.409 -0.7431  0.4389  0.2028
 1736SOL    HW2 5345   2.130  -0.039   3.381  1.9649  0.0688 -1.6157
 1737SOL     OW 5346   3.462   0.286   2.770 -0.8081  0.5180  0.2561
 1737SOL    HW1 5347   3.435   0.254   2.856 -0.8420 -0.0444  0.0391
 1737SOL    HW2 5348   3.526   0.222   2.739  0.8404  1.8334  0.7797
 1738SOL     OW 5349   2.456   2.456   1.423  0.4180 -0.5772  0.0359
 1738SOL    HW1 5350   2.373   2.497   1.446 -0.7919 -1.2957 -2.6192
 1738SOL    HW2 5351   2.430   2.375   1.378  2.4804 -0.1842 -2.0330
 1739SOL     OW 5352   2.138   0.030   2.773  0.7466  0.6749  0.1754
 1739SOL    HW1 5353   2.177  -0.057   2.771 -0.4087  0.0656  1.7619
 1739SOL    HW2 5354   2.202   0.087   2.732  2.9001 -0.4071  1.8441
 1740SOL     OW 5355   1.789   2.195   2.517 -0.8165  0.6653  0.1555
 1740SOL    HW1 5356   1.879   2.182   2.547 -0.3253  0.6948 -1.2488
 1740SOL    HW2 5357   1.760   2.274   2.563  0.7915  2.1833 -1.2791
 1741SOL     OW 5358   3.298   1.021   0.538 -0.4032  0.1381  0.1593
 1741SOL    HW1 5359   3.319   0.930   0.516 -1.9700 -0.6660  1.7078
 1741SOL    HW2 5360   3.317   1.070   0.458 -0.7678 -1.7437 -1.1575
 1742SOL     OW 5361   3.121   0.238   3.187  0.3298 -0.0230 -0.5767
 1742SOL    HW1 5362   3.055   0.197   3.243  2.1450 -1.9190  0.2753
 1742SOL    HW2 5363   3.111   0.195   3.102  1.0416 -1.0015 -0.1839
 1743SOL     OW 5364   1.721   2.742   3.119 -0.1482 -0.0656  0.5215
 1743SOL    HW1 5365   1.718   2.796   3.198 -1.0429 -0.2849  0.6440
 1743SOL    HW2 5366   1.632   2.745   3.084  0.6128  1.4849 -1.4765
 1744SOL     OW 5367   0.309   2.999   0.587 -0.2232 -0.1573  0.3620
 1744SOL    HW1 5368   0.367   2.980   0.513  0.4008  0.1192  0.7743
 1744SOL    HW2 5369   0.221   2.990   0.551  0.0418 -2.1838  0.1285
 1745SOL     OW 5370   0.959   0.065   2.575 -0.4877  0.0620 -0.3343
 1745SOL    HW1 5371   0.868   0.037   2.586 -0.0503 -0.9081  1.1208
 1745SOL    HW2 5372   0.998   0.051   2.661  0.8937  1.0351 -0.7876
 1746SOL     OW 5373   0.621   0.096   2.602  0.2261  0.4226  0.7440
 1746SOL    HW1 5374   0.600   0.012   2.644  0.5414  0.1087  0.2830
 1746SOL    HW2 5375   0.560   0.158   2.642 -0.0892 -0.0454  1.0090
 1747SOL     OW 5376   3.465   2.280   2.933  0.5462 -0.2813  0.8198
 1747SOL    HW1 5377   3.455   2.188   2.956 -0.8855 -0.1654  0.7290
 1747SOL    HW2 5378   3.503   2.278   2.845  1.7241 -0.7530  1.3137
 1748SOL     OW 5379   0.397   2.631   1.371  1.0089 -0.4872 -0.3907
 1748SOL    HW1 5380   0.467   2.642   1.306  0.0126 -0.6982 -1.5209
 1748SOL    HW2 5381   0.332   2.577   1.327  0.0972 -0.2439  0.6325
 1749SOL     OW 5382   0.410   2.938   3.186  0.3184 -0.1355  0.5758
 1749SOL    HW1 5383   0.443   2.934   3.096  0.2721 -0.5919  0.5764
 1749SOL    HW2 5384   0.390   3.030   3.200  3.4649  0.5765  1.2540
 1750SOL     OW 5385   0.659   2.855   1.346  0.3397 -0.1283  0.1292
 1750SOL    HW1 5386   0.703   2.914   1.283  1.8872 -2.1979 -0.8662
 1750SOL    HW2 5387   0.600   2.802   1.292  1.4132 -1.6834  0.4052
 1751SOL     OW 5388   1.750   1.568   3.469 -0.2897  0.2826 -0.5852
 1751SOL    HW1 5389   1.793   1.490   3.432 -0.7123  0.0827 -0.6656
 1751SOL    HW2 5390   1.713   1.538   3.552 -0.3909  0.4155 -0.5811
 1752SOL     OW 5391   0.793   3.086   3.055  0.2428 -0.0573 -0.6009
 1752SOL    HW1 5392   0.834   3.016   3.005  0.0370  0.6374 -1.7838
 1752SOL    HW2 5393   0.810   3.063   3.146  0.4507 -1.4674 -0.9688
 1753SOL     OW 5394   0.638   1.657   2.444  0.8916  0.3801 -0.1898
 1753SOL    HW1 5395   0.731   1.679   2.432  1.3220 -0.7357  0.8964
 1753SOL    HW2 5396   0.639   1.575   2.493 -0.6841  0.2634 -0.3043
 1754SOL     OW 5397   2.012   3.086   1.033  0.5924  0.0755  0.0558
 1754SOL    HW1 5398   1.925   3.121   1.049  0.6840  0.4228 -0.1871
 1754SOL    HW2 5399   2.000   3.016   0.969  0.7052  1.3243 -1.3671
 1755SOL     OW 5400   1.987   1.149   1.133 -0.7777 -0.0061 -0.2132
 1755SOL    HW1 5401   2.005   1.055   1.141  0.0890  0.0953 -0.8311
 1755SOL    HW2 5402   1.953   1.174   1.219  0.2206 -0.6270  0.3815
 1756SOL     OW 5403   2.296   2.774   0.469 -0.0327  0.5544  0.6029
 1756SOL    HW1 5404   2.335   2.856   0.440  1.9115 -0.7359 -0.6257
 1756SOL    HW2 5405   2.217   2.765   0.417  0.3260  1.1155 -0.0500
 1757SOL     OW 5406   0.427   3.187   1.042  0.0970 -0.1010  0.7602
 1757SOL    HW1 5407   0.438   3.269   1.090 -0.5849  0.0014  0.7483
 1757SOL    HW2 5408   0.427   3.212   0.950  0.5188 -0.1907  0.7352
 1758SOL     OW 5409   1.226   1.915   0.623  0.2693  0.4139  0.4779
 1758SOL    HW1 5410   1.185   1.893   0.539 -0.8594 -0.4942  1.2340
 1758SOL    HW2 5411   1.282   1.839   0.642  1.2338  1.0144  0.1496
 1759SOL     OW 5412   2.180   0.305   2.720  0.0872 -0.2072  0.2562
 1759SOL    HW1 5413   2.213   0.297   2.809 -0.4366  0.3676  0.5086
 1759SOL    HW2 5414   2.110   0.370   2.726  1.5102  1.5583 -0.9406
 1760SOL     OW 5415   0.921   3.097   0.156 -0.0356  0.3282 -0.0780
 1760SOL    HW1 5416   0.844   3.079   0.102  0.5467 -1.6539 -0.3364
 1760SOL    HW2 5417   0.895   3.072   0.244  0.9610 -2.8075 -0.5283
 1761SOL     OW 5418   1.702   3.362   3.068 -0.0674  0.0450  0.4080
 1761SOL    HW1 5419   1.686   3.439   3.122 -0.8477  0.2254 -0.0694
 1761SOL    HW2 5420   1.680   3.391   2.979 -1.2666 -0.9969  0.3472
 1762SOL     OW 5421   3.637   3.341   2.133 -0.1363 -0.8495  0.2335
 1762SOL    HW1 5422   3.655   3.332   2.227  4.7952 -1.7429 -0.5322
 1762SOL    HW2 5423   3.665   3.429   2.111 -1.8205 -0.4306 -0.4147
 1763SOL     OW 5424   0.896   1.732   2.382 -0.5926 -0.1452 -0.8232
 1763SOL    HW1 5425   0.915   1.742   2.475 -0.1073  0.0532 -0.9393
 1763SOL    HW2 5426   0.945   1.803   2.340 -1.6210  0.4062 -1.1350
 1764SOL     OW 5427   3.454   2.009   2.574  0.1359 -0.3488  0.3787
 1764SOL    HW1 5428   3.518   2.066   2.532  1.8406 -2.7049 -0.4858
 1764SOL    HW2 5429   3.373   2.023   2.526  0.6756  0.8337 -0.2274
 1765SOL     OW 5430   3.636   2.609   1.504 -0.8306  0.1045 -0.2082
 1765SOL    HW1 5431   3.693   2.577   1.573  0.2233  0.0303 -1.0947
 1765SOL    HW2 5432   3.579   2.673   1.547  0.5793  0.9217  0.4900
 1766SOL     OW 5433   0.596   0.135   1.167 -0.4116  0.4701 -0.1046
 1766SOL    HW1 5434   0.616   0.205   1.228 -0.4985  0.7113 -0.3476
 1766SOL    HW2 5435   0.500   0.133   1.163 -0.5591 -1.5579  2.0687
 1767SOL     OW 5436   0.918   3.546   1.213 -0.0105  0.4869  0.6266
 1767SOL    HW1 5437   0.937   3.639   1.225  1.0752  0.1950  1.3096
 1767SOL    HW2 5438   0.971   3.520   1.138  0.6308  0.1663  1.1752
 1768SOL     OW 5439   0.747   1.439   0.060 -0.5522  0.1837  0.7977
 1768SOL    HW1 5440   0.702   1.411  -0.020 -0.6291 -1.1504  1.2833
 1768SOL    HW2 5441   0.688   1.413   0.130 -0.1918  0.7579  1.3150
 1769SOL     OW 5442   2.986   0.987   3.111 -0.6975 -0.3071 -0.0613
 1769SOL    HW1 5443   3.070   0.957   3.145 -1.2135 -0.4987  1.0768
 1769SOL    HW2 5444   2.982   0.952   3.022  0.7300  0.3085 -0.3902
 1770NA      NA 5445   1.148   0.226   1.610 -0.1166 -0.4654 -0.4978
   3.73110   3.73110   3.73110
