Protein in water
 5446
    0TYR      N    1   1.764   3.395   2.607  0.5989 -0.0827 -0.3393
    0TYR     H1    2   1.818   3.367   2.691  0.2873  2.1921  0.6967
    0TYR     H2    3   1.663   3.400   2.632  0.0833  0.0293 -2.2560
    0TYR     H3    4   1.789   3.494   2.586  0.5245  0.4250  1.7241
    0TYR     CA    5   1.783   3.313   2.481  0.9380 -0.3180 -0.1227
    0TYR     HA    6   1.890   3.310   2.467  0.9526 -1.3820  0.1412
    0TYR     CB    7   1.737   3.168   2.491  0.3027  0.5479 -0.1677
    0TYR    HB1    8   1.784   3.116   2.405  3.2491  4.5100 -1.2207
    0TYR    HB2    9   1.626   3.163   2.493  0.3545 -2.3414  0.3792
    0TYR     CG   10   1.786   3.095   2.619  0.5649 -0.6743 -0.0720
    0TYR    CD1   11   1.707   3.086   2.731 -0.9619  0.0909  0.3384
    0TYR    HD1   12   1.604   3.119   2.735 -1.7785 -2.0458 -1.0742
    0TYR    CE1   13   1.766   3.021   2.844 -0.3336  0.4747  0.2163
    0TYR    HE1   14   1.707   3.021   2.934  1.8593  3.0433  1.8053
    0TYR     CZ   15   1.902   2.969   2.834  0.2233 -0.0021  0.2064
    0TYR     OH   16   1.946   2.893   2.941 -0.5751 -0.0806  0.2275
    0TYR     HH   17   2.041   2.884   2.950 -0.2864  2.0818 -0.0215
    0TYR    CD2   18   1.912   3.043   2.611  0.2837  0.8017  0.1293
    0TYR    HD2   19   1.977   3.052   2.525  0.5068  0.5152  0.2634
    0TYR    CE2   20   1.964   2.971   2.718 -0.2266  0.9585 -0.2422
    0TYR    HE2   21   2.061   2.928   2.701 -0.2606  1.0251 -0.6189
    0TYR      C   22   1.717   3.374   2.360 -0.3839  0.3060 -0.4181
    0TYR      O   23   1.648   3.474   2.364 -0.1298 -0.8202 -0.7296
    1TYR      N   24   1.757   3.330   2.234  0.0931 -0.8537 -0.0528
    1TYR     HN   25   1.823   3.258   2.217  1.6642  0.1396  1.5286
    1TYR     CA   26   1.710   3.390   2.114  0.0308  0.3597  0.2070
    1TYR     HA   27   1.637   3.468   2.127 -0.4931  0.0179 -0.6384
    1TYR     CB   28   1.833   3.438   2.033  0.3819 -0.0691  0.0504
    1TYR    HB1   29   1.904   3.355   2.013 -1.6246 -1.6353 -0.8931
    1TYR    HB2   30   1.889   3.510   2.096 -1.0009 -0.2640  1.5495
    1TYR     CG   31   1.798   3.512   1.904  0.2641  0.4223 -1.3255
    1TYR    CD1   32   1.748   3.638   1.898 -0.7971  0.1353 -0.3957
    1TYR    HD1   33   1.734   3.692   1.990 -1.0311 -1.8346  0.7777
    1TYR    CE1   34   1.734   3.706   1.778 -0.3096  0.2032  1.0889
    1TYR    HE1   35   1.699   3.808   1.777 -1.2349 -0.1065 -0.1650
    1TYR     CZ   36   1.765   3.634   1.654  0.6019 -0.2974 -0.2707
    1TYR     OH   37   1.761   3.710   1.536 -0.5389 -0.2750 -0.0025
    1TYR     HH   38   1.728   3.800   1.547  1.4711  0.9361 -2.6802
    1TYR    CD2   39   1.829   3.445   1.784 -0.8934  0.3869  0.8431
    1TYR    HD2   40   1.867   3.344   1.794  0.7959  1.1357  2.3637
    1TYR    CE2   41   1.816   3.508   1.650 -0.1704 -0.4911 -0.3174
    1TYR    HE2   42   1.847   3.460   1.559  1.0818  0.2000 -0.2722
    1TYR      C   43   1.640   3.286   2.026 -0.1653 -0.5474 -0.0242
    1TYR      O   44   1.671   3.170   2.010 -0.4702 -0.3592  0.0539
    2ASN      N   45   1.532   3.330   1.956  0.4232  0.0281 -0.7758
    2ASN     HN   46   1.498   3.423   1.969  0.3422 -0.1860  0.8126
    2ASN     CA   47   1.459   3.254   1.858 -0.0933 -0.1875  0.6037
    2ASN     HA   48   1.491   3.152   1.865 -1.0026 -0.6390 -1.1207
    2ASN     CB   49   1.303   3.250   1.876 -0.0474 -0.4506  0.0723
    2ASN    HB1   50   1.260   3.352   1.869  1.0302  0.2658  2.6376
    2ASN    HB2   51   1.286   3.220   1.982 -1.2391  5.0749  1.7485
    2ASN     CG   52   1.231   3.146   1.785 -0.3441 -0.1566  0.6979
    2ASN    OD1   53   1.294   3.046   1.743  0.4804 -0.2150  0.8240
    2ASN    ND2   54   1.101   3.168   1.755 -0.2134  0.4236  0.2702
    2ASN   HD21   55   1.047   3.239   1.801  1.1829  0.9392  1.1745
    2ASN   HD22   56   1.071   3.121   1.671  1.3574 -1.6951  0.8353
    2ASN      C   57   1.478   3.310   1.721  0.0614 -0.0527 -0.4611
    2ASN      O   58   1.429   3.423   1.687  0.1731  0.0069 -0.9277
    3PRO      N   59   1.561   3.249   1.634 -0.1736 -0.8221  0.2346
    3PRO     CD   60   1.650   3.137   1.670  0.0583  0.4018  0.3738
    3PRO    HD1   61   1.698   3.154   1.769 -2.8414  1.7844  1.6542
    3PRO    HD2   62   1.587   3.045   1.675 -0.7574  0.9994  1.7078
    3PRO     CA   63   1.598   3.308   1.506 -0.5873  0.2592  0.3419
    3PRO     HA   64   1.629   3.410   1.525  0.0220  0.1225  0.1336
    3PRO     CB   65   1.709   3.214   1.447  0.5424  0.4140  0.0736
    3PRO    HB1   66   1.783   3.277   1.391  0.4522  1.6043  1.2496
    3PRO    HB2   67   1.658   3.146   1.376 -0.2901  1.1468 -0.0521
    3PRO     CG   68   1.764   3.141   1.569  0.3087  0.5145 -0.0090
    3PRO    HG1   69   1.847   3.206   1.606  1.1100 -1.0786  1.0870
    3PRO    HG2   70   1.809   3.044   1.541 -0.0699  0.0847  0.8671
    3PRO      C   71   1.488   3.321   1.402  0.1944 -0.8605 -0.9779
    3PRO      O   72   1.472   3.430   1.336  0.1609 -0.3864 -0.5908
    4GLU      N   73   1.404   3.224   1.387 -0.3977  1.0385  0.2456
    4GLU     HN   74   1.404   3.138   1.438  1.0412 -0.4448 -2.0747
    4GLU     CA   75   1.287   3.224   1.299 -0.0123  0.3310  0.4398
    4GLU     HA   76   1.326   3.243   1.200 -1.7849  0.4820 -0.2723
    4GLU     CB   77   1.225   3.081   1.292  0.2449  0.2131 -0.0202
    4GLU    HB1   78   1.296   3.010   1.245 -1.3932 -0.7437 -1.1433
    4GLU    HB2   79   1.138   3.087   1.224 -1.0067 -0.5879  1.4499
    4GLU     CG   80   1.164   3.023   1.427  0.3088  0.3451 -0.3676
    4GLU    HG1   81   1.089   3.093   1.469  0.0342 -1.5360  2.6032
    4GLU    HG2   82   1.246   2.993   1.496 -1.5223 -1.4525  1.1446
    4GLU     CD   83   1.083   2.893   1.409  0.6722  0.1759  0.0848
    4GLU    OE1   84   0.958   2.902   1.422 -0.1854  0.3699 -0.0119
    4GLU    OE2   85   1.138   2.780   1.395  0.0963  0.0147  0.4074
    4GLU      C   86   1.178   3.334   1.317 -0.3840 -0.5803 -0.1555
    4GLU      O   87   1.093   3.351   1.230 -0.2371  0.1154 -0.0451
    5THR      N   88   1.188   3.401   1.431  0.6451  0.2193 -0.4337
    5THR     HN   89   1.260   3.369   1.493  0.8232 -1.2993 -1.3539
    5THR     CA   90   1.108   3.521   1.445  1.0451 -0.3690  0.2328
    5THR     HA   91   1.068   3.544   1.348 -0.8129  0.5559  1.1545
    5THR     CB   92   0.997   3.500   1.557  0.4652 -0.4833  0.6545
    5THR     HB   93   0.957   3.602   1.573  2.0249  0.4718 -1.0648
    5THR    OG1   94   1.059   3.451   1.678  0.2903  0.4032  0.4875
    5THR    HG1   95   0.989   3.433   1.741 -0.3954  0.9336 -0.1103
    5THR    CG2   96   0.891   3.407   1.507  0.1237 -0.6469 -0.3802
    5THR   HG21   97   0.923   3.300   1.505  2.9409  0.1060 -0.0408
    5THR   HG22   98   0.870   3.436   1.402 -1.6615 -1.3275 -0.2490
    5THR   HG23   99   0.799   3.412   1.568 -1.1110  0.4303 -2.2543
    5THR      C  100   1.187   3.640   1.481 -0.2152 -0.5086  0.0228
    5THR      O  101   1.140   3.752   1.461 -0.1490 -0.8581  0.2687
    6GLY      N  102   1.298   3.627   1.546 -0.0733  0.2797 -0.5247
    6GLY     HN  103   1.324   3.536   1.575 -0.6809  0.2604 -0.0028
    6GLY     CA  104   1.379   3.745   1.596  0.4869 -0.1239 -0.1034
    6GLY    HA1  105   1.364   3.832   1.534  2.4735 -0.0882 -0.5765
    6GLY    HA2  106   1.480   3.708   1.608  1.4700  2.5170  0.4017
    6GLY      C  107   1.342   3.788   1.735  0.9370  0.7514 -0.6750
    6GLY      O  108   1.379   3.895   1.779 -0.2233  0.0360  0.3848
    7THR      N  109   1.258   3.707   1.801 -0.1822  0.0493 -0.0168
    7THR     HN  110   1.252   3.614   1.765  0.3812 -0.4171  1.0489
    7THR     CA  111   1.218   3.733   1.936  0.6145  0.1095 -0.2823
    7THR     HA  112   1.188   3.835   1.951 -0.9077 -0.6554  2.4560
    7THR     CB  113   1.100   3.656   1.967  0.2328  0.3754  0.4837
    7THR     HB  114   1.122   3.549   1.943 -2.6002  0.0460 -1.0400
    7THR    OG1  115   0.986   3.692   1.898  1.0870  0.3085 -0.5280
    7THR    HG1  116   0.921   3.665   1.964  3.5538 -0.3205  1.8184
    7THR    CG2  117   1.053   3.648   2.114 -0.3533  0.0387  0.6242
    7THR   HG21  118   0.970   3.579   2.141 -1.2337  0.1677 -1.5487
    7THR   HG22  119   1.032   3.754   2.139  0.6605  0.7400 -1.3175
    7THR   HG23  120   1.141   3.617   2.174  0.0936 -1.0382 -0.5323
    7THR      C  121   1.328   3.691   2.034  0.0972 -0.6839 -0.1938
    7THR      O  122   1.371   3.576   2.032  0.0865 -1.0845 -0.5164
    8TRP      N  123   1.363   3.768   2.134 -0.0614 -0.6712  0.4969
    8TRP     HN  124   1.330   3.860   2.155 -1.1098  0.2573 -4.0764
    8TRP     CA  125   1.442   3.720   2.249  0.3124  0.2091  0.0552
    8TRP     HA  126   1.508   3.643   2.214  0.9476  0.0655  1.4703
    8TRP     CB  127   1.537   3.832   2.309 -0.7697  0.6888 -0.8648
    8TRP    HB1  128   1.587   3.788   2.398 -1.8352 -0.5084 -0.8379
    8TRP    HB2  129   1.464   3.908   2.344  0.3630  1.6448 -0.5282
    8TRP     CG  130   1.623   3.890   2.202  0.7111 -0.4584  0.0629
    8TRP    CD1  131   1.595   3.990   2.111  0.3271  0.6335 -0.2881
    8TRP    HD1  132   1.496   4.033   2.111 -0.3379 -0.8380  0.4185
    8TRP    NE1  133   1.700   4.008   2.027 -0.0365 -0.9850  0.0871
    8TRP    HE1  134   1.706   4.064   1.947  1.2186 -3.4691 -1.7023
    8TRP    CE2  135   1.808   3.940   2.079 -0.0531  0.7491 -0.0949
    8TRP    CD2  136   1.760   3.860   2.190  0.6348 -0.4781  0.2688
    8TRP    CE3  137   1.845   3.769   2.250 -0.4171  0.1363  0.2138
    8TRP    HE3  138   1.824   3.714   2.340  3.8114 -0.8655  0.8174
    8TRP    CZ3  139   1.979   3.763   2.204 -0.2775  0.0747 -0.1230
    8TRP    HZ3  140   2.050   3.710   2.266 -1.0008  0.6559  1.2657
    8TRP    CZ2  141   1.941   3.932   2.035  0.3909  0.1137 -0.0374
    8TRP    HZ2  142   1.973   3.989   1.949 -1.6337  2.6742  0.7554
    8TRP    CH2  143   2.026   3.844   2.105  0.2888  0.5724 -0.5202
    8TRP    HH2  144   2.127   3.842   2.067 -0.1123  0.8514 -1.6375
    8TRP      C  145   1.352   3.658   2.356 -0.6215 -0.0108  0.3137
    8TRP      O  146   1.245   3.708   2.388 -0.3740 -0.0871 -0.3254
    9TYR      N  147   1.390   3.534   2.404 -0.2059 -0.0168  0.6555
    9TYR     HN  148   1.485   3.517   2.382 -0.9171 -1.0205 -1.9413
    9TYR     CA  149   1.324   3.464   2.508 -0.2499 -0.0165 -0.2725
    9TYR     HA  150   1.235   3.520   2.534 -0.2849 -1.4899  3.2681
    9TYR     CB  151   1.294   3.315   2.473  0.5247  0.2682 -0.4998
    9TYR    HB1  152   1.240   3.267   2.557  0.5106 -0.6291 -1.0088
    9TYR    HB2  153   1.393   3.264   2.466  0.3527 -0.5377  1.8871
    9TYR     CG  154   1.190   3.288   2.363 -0.0767 -0.4010  0.0169
    9TYR    CD1  155   1.212   3.211   2.250  0.4684  0.6863  0.3233
    9TYR    HD1  156   1.315   3.184   2.229  1.7189  2.9634  2.7820
    9TYR    CE1  157   1.101   3.180   2.156 -0.3954  0.7449 -1.1342
    9TYR    HE1  158   1.120   3.110   2.076  0.2540  0.9079 -1.1316
    9TYR     CZ  159   0.975   3.225   2.187  0.0827 -0.2026  0.3592
    9TYR     OH  160   0.859   3.194   2.116 -0.6736 -0.5811  0.0023
    9TYR     HH  161   0.891   3.126   2.056  0.5337  0.7878 -0.9714
    9TYR    CD2  162   1.065   3.338   2.393  0.1948  0.1545 -0.1124
    9TYR    HD2  163   1.055   3.388   2.489  0.2265 -0.8542  0.4273
    9TYR    CE2  164   0.953   3.306   2.305 -0.1096  0.5737  0.8975
    9TYR    HE2  165   0.852   3.330   2.334 -1.1307  1.1377 -2.6740
    9TYR      C  166   1.398   3.485   2.641  0.4821  0.1412 -0.1225
    9TYR    OT1  167   1.350   3.557   2.731 -0.6920 -0.2058  0.6062
    9TYR    OT2  168   1.511   3.435   2.664 -0.2392  0.2921 -0.3822
   10SOL     OW  169   2.013   3.548   0.391  0.4545 -0.3217  0.6002
   10SOL    HW1  170   2.054   3.499   0.320  0.8269 -3.3012  2.7006
   10SOL    HW2  171   1.949   3.488   0.429 -2.0154  2.2695  0.9130
   11SOL     OW  172   3.340   1.042   3.189  0.2652  0.0815  0.1352
   11SOL    HW1  173   3.344   0.953   3.223 -0.4185  0.2964  0.7850
   11SOL    HW2  174   3.343   1.098   3.266 -0.0389  0.6077 -0.2273
   12SOL     OW  175   1.639   0.804   3.709  0.1898 -0.0766 -1.3394
   12SOL    HW1  176   1.565   0.753   3.744 -0.7433  2.3029  0.4677
   12SOL    HW2  177   1.602   0.850   3.634  0.6918 -1.0238 -2.1993
   13SOL     OW  178   1.624   2.137   1.472  0.5505 -0.4086  0.7777
   13SOL    HW1  179   1.529   2.149   1.477  0.3933  0.1497 -1.9184
   13SOL    HW2  180   1.653   2.137   1.563 -2.0492 -0.8784  1.6997
   14SOL     OW  181   3.366   1.053   2.731 -0.8315  0.4023  0.1876
   14SOL    HW1  182   3.387   1.035   2.823  1.0501 -2.2766 -0.6738
   14SOL    HW2  183   3.274   1.027   2.722 -1.8995  3.1205  1.7827
   15SOL     OW  184   0.522   0.864   0.010  0.3275  0.4204  0.3979
   15SOL    HW1  185   0.491   0.773   0.014  1.5587 -0.1415 -1.5208
   15SOL    HW2  186   0.517   0.895   0.101 -0.2646 -1.5034  1.0689
   16SOL     OW  187   2.054   0.169   3.673  0.1562  0.4811 -0.1041
   16SOL    HW1  188   1.976   0.133   3.631  1.3708 -2.1764 -0.2820
   16SOL    HW2  189   2.022   0.205   3.756 -1.1798 -1.5113  0.3214
   17SOL     OW  190   3.044   0.745   2.441  0.8407  0.3043 -0.5429
   17SOL    HW1  191   3.015   0.745   2.350 -0.8924 -2.4705 -0.1141
   17SOL    HW2  192   3.100   0.668   2.448  1.2165  0.6651  0.6696
   18SOL     OW  193   2.059   1.323   1.828  0.5482  0.1306  0.0523
   18SOL    HW1  194   2.067   1.318   1.924  0.1321  0.5330  0.1091
   18SOL    HW2  195   2.081   1.413   1.807  2.3944 -0.3923 -0.4189
   19SOL     OW  196   1.752   2.109   2.276 -0.1818 -0.2811 -0.7842
   19SOL    HW1  197   1.744   2.144   2.365  0.0651  0.4206 -1.0321
   19SOL    HW2  198   1.840   2.071   2.273  0.3405  0.9305 -1.1501
   20SOL     OW  199   0.056   3.269   0.546 -0.0047 -0.0712 -0.0465
   20SOL    HW1  200   0.007   3.322   0.484  0.0615 -1.2838 -1.1579
   20SOL    HW2  201   0.022   3.181   0.535  2.2150 -0.9122 -0.6792
   21SOL     OW  202   3.402   2.597   1.055 -0.0138  0.0021 -0.4203
   21SOL    HW1  203   3.490   2.616   1.089 -0.0967  0.3213 -0.3785
   21SOL    HW2  204   3.414   2.589   0.960 -0.0586  0.7698 -0.4964
   22SOL     OW  205   3.638   0.020   0.748  0.3983 -0.6908 -0.1351
   22SOL    HW1  206   3.547   0.041   0.771  0.4832 -0.6330  0.1530
   22SOL    HW2  207   3.682   0.105   0.743  0.7042 -0.7819  0.8751
   23SOL     OW  208   3.179   2.239   1.180 -0.3418 -0.1225  0.2636
   23SOL    HW1  209   3.140   2.324   1.157  2.2876  0.9320 -0.7196
   23SOL    HW2  210   3.172   2.188   1.099  0.1465  0.0344  0.1153
   24SOL     OW  211   1.836   0.663   0.455 -0.2947  0.0344  0.4131
   24SOL    HW1  212   1.791   0.630   0.378 -1.4793 -0.4289  1.2733
   24SOL    HW2  213   1.782   0.633   0.529 -0.1012  1.8394  1.3426
   25SOL     OW  214   3.371   3.084   1.522 -0.4260 -0.5541  0.4145
   25SOL    HW1  215   3.445   3.099   1.464 -0.0897  3.7463  1.6065
   25SOL    HW2  216   3.294   3.095   1.467 -0.1341 -0.2012  0.0728
   26SOL     OW  217   0.515   3.109   0.798 -0.2375 -0.3042 -0.4712
   26SOL    HW1  218   0.569   3.165   0.742  1.7921 -1.8751 -0.2090
   26SOL    HW2  219   0.510   3.026   0.751 -0.9295 -0.7524  0.3690
   27SOL     OW  220   0.176   0.617   0.137 -0.1609 -0.2327 -0.8472
   27SOL    HW1  221   0.271   0.610   0.129 -0.1140 -0.5138 -0.0913
   27SOL    HW2  222   0.144   0.603   0.048  0.5322  0.4259 -1.2212
   28SOL     OW  223   0.327   0.531   0.466  0.0635 -0.2729  0.1119
   28SOL    HW1  224   0.412   0.530   0.510  0.6944 -0.7878 -1.0470
   28SOL    HW2  225   0.346   0.496   0.378 -1.3853 -0.5966 -0.0945
   29SOL     OW  226   3.264   2.401   0.118 -0.2169  0.0661  0.1221
   29SOL    HW1  227   3.207   2.329   0.145 -1.3742  0.5492 -0.9078
   29SOL    HW2  228   3.260   2.399   0.022 -0.2259  1.4453  0.0795
   30SOL     OW  229   2.397   0.440   2.505  0.5406  0.5317  0.4819
   30SOL    HW1  230   2.344   0.483   2.438 -0.2818  0.4300  1.0568
   30SOL    HW2  231   2.409   0.507   2.573 -0.3353  0.0178  1.1568
   31SOL     OW  232   3.036   3.541   2.739 -1.0846 -0.4263  0.2640
   31SOL    HW1  233   2.990   3.470   2.784  0.0990 -0.4806  1.4776
   31SOL    HW2  234   2.970   3.611   2.731 -2.0218 -1.3378 -0.1886
   32SOL     OW  235   2.526   3.212   0.036 -0.1873 -0.4857  0.1467
   32SOL    HW1  236   2.514   3.170   0.121  0.5534  0.6052  0.8218
   32SOL    HW2  237   2.552   3.141  -0.023  1.2196 -0.9598  1.2835
   33SOL     OW  238   0.306   0.773   1.944 -0.1031  0.5475 -0.0983
   33SOL    HW1  239   0.355   0.790   1.864 -3.0222  2.2278 -1.6459
   33SOL    HW2  240   0.242   0.706   1.920  0.4951 -0.7217  1.5695
   34SOL     OW  241   1.797   2.717   0.449  0.5881  0.3914 -0.1848
   34SOL    HW1  242   1.756   2.663   0.516  0.0124 -0.1401 -0.9583
   34SOL    HW2  243   1.776   2.807   0.475 -2.0535  0.1273 -1.1241
   35SOL     OW  244   0.905   2.549   2.088  0.2986 -0.3866  0.7214
   35SOL    HW1  245   0.854   2.468   2.080  0.1694 -0.2255 -0.1467
   35SOL    HW2  246   0.842   2.613   2.122 -1.2000  0.7632 -3.5946
   36SOL     OW  247   0.687   2.231   1.358  0.2522 -0.7128 -0.0138
   36SOL    HW1  248   0.592   2.219   1.351 -0.0188  1.6639 -1.4805
   36SOL    HW2  249   0.699   2.275   1.443  0.3794 -3.1719  1.3324
   37SOL     OW  250   2.978   0.794   0.165 -0.4439  0.0728  0.4231
   37SOL    HW1  251   2.935   0.750   0.092  1.8011 -1.3216 -0.1749
   37SOL    HW2  252   3.071   0.793   0.142  0.6560 -2.1281  4.0155
   38SOL     OW  253   2.704   0.353   2.687 -0.2559  0.4208 -0.3939
   38SOL    HW1  254   2.748   0.437   2.700  0.7684  0.1197 -1.5752
   38SOL    HW2  255   2.773   0.296   2.651 -0.7911 -1.0793  0.8619
   39SOL     OW  256   0.575   2.875   0.531 -0.2959 -0.3001 -0.1639
   39SOL    HW1  257   0.642   2.841   0.591  1.6481  0.1633 -1.9896
   39SOL    HW2  258   0.499   2.817   0.546  0.6465 -1.1714  1.5774
   40SOL     OW  259   3.504   1.762   0.198  0.0509  0.2964 -0.3293
   40SOL    HW1  260   3.486   1.733   0.109  3.1694 -1.6815 -0.4552
   40SOL    HW2  261   3.546   1.848   0.188  1.1389 -0.2859 -0.8484
   41SOL     OW  262   1.452   0.064   3.552  0.3582  0.2192 -0.3529
   41SOL    HW1  263   1.407   0.037   3.472 -1.8444  2.0210  0.1712
   41SOL    HW2  264   1.471  -0.018   3.597  0.3709 -0.7580 -2.0343
   42SOL     OW  265   3.320   0.148   2.603 -0.1094 -0.1535  0.6769
   42SOL    HW1  266   3.358   0.108   2.525 -1.2540 -2.0189  1.0118
   42SOL    HW2  267   3.284   0.231   2.573 -0.1192 -0.6312 -0.6677
   43SOL     OW  268   3.629   3.044   1.999  0.3427 -0.0790  0.1575
   43SOL    HW1  269   3.580   3.097   2.062 -0.3007  0.4430 -0.7458
   43SOL    HW2  270   3.706   3.014   2.047 -1.3663 -1.8610  1.9981
   44SOL     OW  271   2.045   3.555   2.690 -0.5028  0.0951  0.2230
   44SOL    HW1  272   1.993   3.631   2.662 -0.5267 -0.5288 -1.5159
   44SOL    HW2  273   2.091   3.527   2.611  1.3349 -0.2905  1.3758
   45SOL     OW  274   3.679   0.539   0.245  0.7508 -0.2428 -0.0655
   45SOL    HW1  275   3.761   0.554   0.197  1.4718  0.7658  1.4329
   45SOL    HW2  276   3.630   0.620   0.235  1.0056  0.0623  1.0680
   46SOL     OW  277   3.648   2.633   1.117  0.4084  0.0822  0.2364
   46SOL    HW1  278   3.678   2.651   1.206  0.9742 -1.3423  0.3533
   46SOL    HW2  279   3.704   2.688   1.062  0.3846  0.6025  0.7227
   47SOL     OW  280   3.651   0.276   0.387 -0.1949 -0.1358 -0.6660
   47SOL    HW1  281   3.602   0.354   0.363  0.3670  0.7892  1.0896
   47SOL    HW2  282   3.701   0.301   0.464  0.0548 -2.2067 -0.0932
   48SOL     OW  283   0.088   1.413   0.488 -0.1208 -0.4981  0.0300
   48SOL    HW1  284   0.060   1.322   0.497  0.7744 -0.7118  0.9935
   48SOL    HW2  285   0.007   1.464   0.482 -0.8344 -1.0039  3.3552
   49SOL     OW  286   0.794   2.625   3.309  0.6089 -0.2887  0.4023
   49SOL    HW1  287   0.883   2.621   3.274  0.8780 -1.5329  1.1764
   49SOL    HW2  288   0.794   2.566   3.384 -1.4440 -2.1747 -0.9166
   50SOL     OW  289   0.001   0.092   2.999  0.1656  0.2437 -0.7577
   50SOL    HW1  290   0.059   0.168   2.994 -1.1425  1.2302 -1.8666
   50SOL    HW2  291   0.018   0.044   2.918  0.9519 -0.6587 -0.0841
   51SOL     OW  292   1.067   1.354   1.375  0.0187 -0.3814 -0.3650
   51SOL    HW1  293   1.135   1.293   1.348  0.3338 -0.2041  0.0273
   51SOL    HW2  294   1.051   1.407   1.297 -0.0199 -0.7411 -0.6057
   52SOL     OW  295   0.005   2.034   0.692  0.5795  0.1539 -0.5820
   52SOL    HW1  296   0.075   1.989   0.644 -0.6581  2.0578 -4.6175
   52SOL    HW2  297   0.038   2.123   0.702 -0.6419  0.6922 -1.2286
   53SOL     OW  298   1.890   1.572   2.019 -0.0541  0.6882  0.2341
   53SOL    HW1  299   1.956   1.614   1.964 -0.1959  0.7818  0.1353
   53SOL    HW2  300   1.832   1.643   2.046 -0.0711  0.6186  0.3842
   54SOL     OW  301   2.122   1.686   2.355  0.7161 -0.4810  0.4284
   54SOL    HW1  302   2.055   1.729   2.409 -1.3138 -1.8400 -0.8337
   54SOL    HW2  303   2.155   1.755   2.298 -0.7770 -0.0587  0.0308
   55SOL     OW  304   3.491   3.327   3.272  0.0595 -0.2746 -0.5148
   55SOL    HW1  305   3.426   3.394   3.293 -0.6863 -1.1325 -0.0698
   55SOL    HW2  306   3.453   3.277   3.201  0.0896 -0.9853 -0.0360
   56SOL     OW  307   3.073   0.180   2.386 -0.0133  0.7152 -0.2889
   56SOL    HW1  308   3.116   0.188   2.471  1.7829 -0.4955 -1.0274
   56SOL    HW2  309   3.012   0.254   2.383  0.4306  1.2302  1.7145
   57SOL     OW  310   2.330   2.696   2.100 -0.2034  0.3952  0.0281
   57SOL    HW1  311   2.271   2.766   2.125  0.8761  1.2971  0.1248
   57SOL    HW2  312   2.417   2.726   2.127  0.2819 -1.0005  0.1249
   58SOL     OW  313   1.530   2.159   3.452 -0.4870 -0.1501 -0.0853
   58SOL    HW1  314   1.605   2.217   3.465 -0.2897 -0.4411  0.0886
   58SOL    HW2  315   1.540   2.092   3.519 -0.7399 -0.3587 -0.2547
   59SOL     OW  316   2.654   3.299   0.788  0.1604  0.2935 -0.1191
   59SOL    HW1  317   2.711   3.366   0.826 -1.7841  2.4771 -0.7720
   59SOL    HW2  318   2.580   3.349   0.753 -0.9388 -2.1624 -1.5143
   60SOL     OW  319   0.837   1.274   0.256  0.2663  0.3222  0.3619
   60SOL    HW1  320   0.758   1.259   0.205  0.9526 -0.5755 -0.4796
   60SOL    HW2  321   0.830   1.213   0.330 -0.2417  0.8876  0.7872
   61SOL     OW  322   1.233   2.505   2.161  0.4496 -0.4040 -0.7238
   61SOL    HW1  323   1.138   2.503   2.157  0.4761 -0.2515 -2.0116
   61SOL    HW2  324   1.257   2.427   2.211 -0.3503 -0.4734 -0.4408
   62SOL     OW  325   0.727   1.361   1.070  0.4939  0.4917  0.0166
   62SOL    HW1  326   0.731   1.348   1.165 -0.2390  0.2454  0.0189
   62SOL    HW2  327   0.723   1.456   1.059 -0.9619  0.4908  0.3152
   63SOL     OW  328   1.308   1.748   1.792  0.3061  0.3650  0.1649
   63SOL    HW1  329   1.304   1.687   1.718 -2.1547 -0.5788  0.9662
   63SOL    HW2  330   1.219   1.750   1.826  1.1719  1.4345  2.5987
   64SOL     OW  331   0.269   2.922   0.837  0.1025  0.6893  0.5773
   64SOL    HW1  332   0.251   2.990   0.773 -1.3129 -1.4624 -1.4716
   64SOL    HW2  333   0.363   2.907   0.830 -0.0399  0.4494 -1.0832
   65SOL     OW  334   0.761   3.537   2.580  1.0312 -0.2617 -0.3074
   65SOL    HW1  335   0.839   3.591   2.570  1.8393 -1.1221  1.0582
   65SOL    HW2  336   0.793   3.454   2.616 -0.4219 -0.9270 -0.4484
   66SOL     OW  337   1.611   2.125   3.140  0.5217 -0.1384 -0.4290
   66SOL    HW1  338   1.676   2.067   3.099  2.7775  0.2900  2.2359
   66SOL    HW2  339   1.656   2.208   3.150 -0.4263  0.1915  1.4788
   67SOL     OW  340   2.909   1.654   0.321  0.2018 -0.1683 -0.1578
   67SOL    HW1  341   2.948   1.690   0.401  1.2992 -0.5300 -0.5103
   67SOL    HW2  342   2.893   1.562   0.342  0.9917 -0.3944 -0.5217
   68SOL     OW  343   2.879   2.785   2.408 -0.7879 -0.0430  0.0897
   68SOL    HW1  344   2.890   2.749   2.319 -0.8958  0.1619 -0.0069
   68SOL    HW2  345   2.964   2.768   2.450 -0.2789  1.0083 -0.4715
   69SOL     OW  346   2.704   0.694   1.724  0.6148 -0.1329 -0.1438
   69SOL    HW1  347   2.734   0.745   1.800  0.2932 -0.8032  0.4441
   69SOL    HW2  348   2.780   0.692   1.666  0.5534  1.2337 -0.3027
   70SOL     OW  349   1.089   1.171   0.596  0.4340  0.4956  0.3324
   70SOL    HW1  350   1.137   1.122   0.663  1.5951  1.8290  0.5238
   70SOL    HW2  351   1.066   1.254   0.637 -0.9390  0.3978 -0.1871
   71SOL     OW  352   0.476   1.034   2.303 -0.2375  0.2697 -0.2209
   71SOL    HW1  353   0.543   1.017   2.237 -1.2063 -0.8842 -0.9308
   71SOL    HW2  354   0.427   0.952   2.311 -0.2243  0.4044  1.8624
   72SOL     OW  355   2.088   2.924   1.965 -0.3575 -0.2407  0.1952
   72SOL    HW1  356   2.090   2.996   1.901 -2.1558  0.8756  1.2965
   72SOL    HW2  357   2.110   2.846   1.914 -2.4070  0.4844 -1.9984
   73SOL     OW  358   0.733   1.289   1.347 -0.1127  0.3974 -0.6867
   73SOL    HW1  359   0.660   1.295   1.408  0.5368  0.4593  0.0968
   73SOL    HW2  360   0.809   1.267   1.401  0.1973 -1.0841 -1.6585
   74SOL     OW  361   1.217   0.268   1.343 -0.4825  0.2306 -0.2688
   74SOL    HW1  362   1.191   0.182   1.375  2.4814 -1.4152 -1.9180
   74SOL    HW2  363   1.209   0.262   1.247  1.7947  0.9587 -0.5732
   75SOL     OW  364   0.420   1.091   3.333  0.2685  0.1284 -0.0838
   75SOL    HW1  365   0.419   1.003   3.370  1.1081 -0.1290 -0.6466
   75SOL    HW2  366   0.331   1.104   3.301 -0.2802  0.0774  1.3330
   76SOL     OW  367   1.607   3.656   0.544 -0.0717  0.0847 -0.6327
   76SOL    HW1  368   1.621   3.579   0.599  2.0062  0.1987 -0.9249
   76SOL    HW2  369   1.556   3.624   0.470 -3.1465 -0.0304  1.3464
   77SOL     OW  370   1.733   0.785   1.089 -0.5072  0.0573 -0.0271
   77SOL    HW1  371   1.730   0.689   1.085 -2.5420  0.1149 -1.7890
   77SOL    HW2  372   1.643   0.811   1.108 -0.4703  1.6283 -1.6796
   78SOL     OW  373   2.039   0.802   2.729  0.4805  0.2485  0.1806
   78SOL    HW1  374   2.032   0.778   2.821 -0.5959 -1.0081 -0.2007
   78SOL    HW2  375   1.949   0.822   2.703  0.8385  1.0593 -0.4945
   79SOL     OW  376   2.103   1.104   0.262  0.5826  0.4606  0.0811
   79SOL    HW1  377   2.072   1.022   0.301  1.5601 -1.1243 -2.2640
   79SOL    HW2  378   2.040   1.122   0.192  1.8472  0.1887 -1.1669
   80SOL     OW  379   3.351   0.059   0.507  0.2016  0.2622  0.3984
   80SOL    HW1  380   3.288  -0.007   0.479  0.9402  0.2699 -1.4346
   80SOL    HW2  381   3.377   0.032   0.595 -1.4935 -0.3651  0.7399
   81SOL     OW  382   3.461   3.497   0.096  0.0221 -0.1495  1.0159
   81SOL    HW1  383   3.550   3.520   0.120  0.8142  0.7632 -2.2891
   81SOL    HW2  384   3.413   3.580   0.099  0.4047  0.2257 -1.2005
   82SOL     OW  385   2.353   2.416   2.853  0.0660  0.0570 -0.3251
   82SOL    HW1  386   2.353   2.321   2.841 -1.0231  0.3938 -4.3436
   82SOL    HW2  387   2.443   2.443   2.833  1.4413 -0.1872  4.2726
   83SOL     OW  388   2.063   1.173   3.535 -0.4915  0.3868 -0.0928
   83SOL    HW1  389   2.116   1.165   3.456  0.8487  0.7279  0.7356
   83SOL    HW2  390   2.035   1.265   3.536  0.9113  0.8453  0.6526
   84SOL     OW  391   3.013   3.490   0.175 -0.2878  0.0379 -0.2285
   84SOL    HW1  392   3.012   3.582   0.148  0.2530 -0.0865 -0.7065
   84SOL    HW2  393   2.921   3.464   0.178 -0.5277  0.9396  1.1516
   85SOL     OW  394   3.112   3.714   2.056 -0.1609  0.3244 -0.0679
   85SOL    HW1  395   3.119   3.662   2.136  0.8051  0.2962 -0.1663
   85SOL    HW2  396   3.020   3.705   2.030 -0.2971 -0.3078  0.6045
   86SOL     OW  397   3.064   3.326   3.287 -0.1386 -0.2733 -0.3422
   86SOL    HW1  398   2.992   3.377   3.326  0.6775  0.3715  0.3663
   86SOL    HW2  399   3.128   3.392   3.261  0.6610 -0.9071 -0.0058
   87SOL     OW  400   2.392   1.632   2.772  0.4650 -0.0065 -0.1124
   87SOL    HW1  401   2.463   1.696   2.777 -0.3885  0.9672 -0.2133
   87SOL    HW2  402   2.383   1.613   2.679  0.8410 -0.4239 -0.0666
   88SOL     OW  403   2.043   2.219   1.438  0.2234  0.3177 -0.2314
   88SOL    HW1  404   1.989   2.247   1.365 -1.1665 -0.1949  0.5617
   88SOL    HW2  405   2.028   2.125   1.445  1.7285  0.0382 -0.3743
   89SOL     OW  406   2.803   3.662   2.822 -0.8614 -0.1981 -0.2334
   89SOL    HW1  407   2.719   3.707   2.825  0.4045  2.3359  0.8928
   89SOL    HW2  408   2.841   3.677   2.909  0.9400 -0.8764 -0.8467
   90SOL     OW  409   2.661   1.194   1.303 -0.2135 -0.0771  0.0752
   90SOL    HW1  410   2.569   1.220   1.301 -0.1267  0.2156 -1.0666
   90SOL    HW2  411   2.703   1.258   1.359 -0.1918  1.7273 -1.8764
   91SOL     OW  412   3.516   2.989   3.494  0.6742 -0.2739 -0.0604
   91SOL    HW1  413   3.427   2.959   3.473  0.0397  1.8292 -0.6641
   91SOL    HW2  414   3.574   2.928   3.449 -0.5140 -0.8302 -0.8824
   92SOL     OW  415   3.580   0.667   0.536 -0.6471  0.0169 -0.0233
   92SOL    HW1  416   3.546   0.727   0.602 -0.7373 -0.0493 -0.0089
   92SOL    HW2  417   3.509   0.660   0.472 -2.0993 -2.8131  1.7156
   93SOL     OW  418   1.679   2.454   1.749  0.3198  0.2528  0.7274
   93SOL    HW1  419   1.642   2.400   1.819  1.3875 -0.2023  0.9734
   93SOL    HW2  420   1.721   2.391   1.690  1.3358  0.7643  0.8666
   94SOL     OW  421   3.502   1.969   0.480 -0.6054 -0.0348  1.0599
   94SOL    HW1  422   3.437   2.033   0.508 -0.3296  1.3912 -1.3040
   94SOL    HW2  423   3.566   2.019   0.430 -1.3267 -2.3152 -2.4653
   95SOL     OW  424   3.174   2.848   0.494  0.5113  0.0374 -0.4227
   95SOL    HW1  425   3.184   2.885   0.582  0.9741 -0.4633 -0.2579
   95SOL    HW2  426   3.080   2.856   0.476  0.4374  0.3008  0.0498
   96SOL     OW  427   3.253   3.502   3.213  0.1406  0.1508 -0.0975
   96SOL    HW1  428   3.260   3.456   3.129  2.5116  0.7775 -0.3062
   96SOL    HW2  429   3.253   3.595   3.189  4.2874  0.5241  0.5731
   97SOL     OW  430   3.402   0.470   0.375  0.2431  0.7893 -0.3317
   97SOL    HW1  431   3.469   0.499   0.313 -0.1050  0.2499 -0.9740
   97SOL    HW2  432   3.374   0.384   0.342 -1.0211  1.1629 -0.2921
   98SOL     OW  433   2.284   0.352   2.065  0.1266 -0.3329  0.4423
   98SOL    HW1  434   2.315   0.307   1.988 -0.4538 -1.9935  1.1361
   98SOL    HW2  435   2.223   0.418   2.031  0.9907 -0.0331 -0.5849
   99SOL     OW  436   1.100   0.259   1.109  0.6657 -0.3071 -0.5295
   99SOL    HW1  437   1.115   0.344   1.069  1.3867 -0.4012 -0.4797
   99SOL    HW2  438   1.120   0.196   1.040  1.1380 -0.4527 -0.2644
  100SOL     OW  439   0.954   2.966   1.976  0.2693 -0.4665  0.3657
  100SOL    HW1  440   1.016   2.898   2.004  1.0643 -0.3271 -0.9495
  100SOL    HW2  441   0.937   2.946   1.884  1.0179  1.4484 -0.2487
  101SOL     OW  442   1.656   0.418   0.455 -0.4519 -0.0086 -0.8928
  101SOL    HW1  443   1.709   0.339   0.459 -0.9302 -0.3683 -1.6698
  101SOL    HW2  444   1.670   0.453   0.367 -2.4122 -0.7510 -1.5484
  102SOL     OW  445   3.548   2.772   0.083  0.5366 -0.2064  0.0668
  102SOL    HW1  446   3.496   2.732   0.153 -0.1691 -0.1119 -0.3904
  102SOL    HW2  447   3.483   2.796   0.016  1.1168  0.3728 -0.2958
  103SOL     OW  448   2.714   3.362   2.670  0.3849  0.3832 -0.0238
  103SOL    HW1  449   2.743   3.433   2.726 -1.7695  0.9604  0.4569
  103SOL    HW2  450   2.659   3.308   2.727 -0.1710 -0.1669 -1.0524
  104SOL     OW  451   2.851   2.304   2.844 -0.2293  0.3370 -0.2604
  104SOL    HW1  452   2.779   2.247   2.870  0.2358  0.2483  0.8955
  104SOL    HW2  453   2.827   2.391   2.877  0.7230  0.0710  1.2425
  105SOL     OW  454   1.119   1.698   3.346  0.1209  0.4559 -0.1628
  105SOL    HW1  455   1.119   1.690   3.250 -0.2411  0.9093 -0.2049
  105SOL    HW2  456   1.081   1.616   3.377  0.7365  0.0828 -0.3865
  106SOL     OW  457   0.215   2.899   3.512 -0.3820 -0.1933  0.0054
  106SOL    HW1  458   0.176   2.875   3.596 -2.3825  0.1155 -0.7997
  106SOL    HW2  459   0.249   2.816   3.478  0.2887 -0.3547  1.0056
  107SOL     OW  460   1.749   1.504   0.055  0.2927 -0.3413  0.3161
  107SOL    HW1  461   1.740   1.421   0.009 -0.3547  0.3245 -0.7899
  107SOL    HW2  462   1.692   1.495   0.132  0.7357 -1.1424  0.5691
  108SOL     OW  463   1.079   0.713   1.848  0.2444  0.2080  0.5901
  108SOL    HW1  464   1.143   0.643   1.832  0.8577  0.4610  1.8239
  108SOL    HW2  465   0.996   0.678   1.815  1.0156 -0.0805 -1.1566
  109SOL     OW  466   0.436   3.035   2.121  0.1129  0.3301  0.8399
  109SOL    HW1  467   0.457   3.012   2.031 -1.7707  0.0994  0.4091
  109SOL    HW2  468   0.454   2.955   2.171 -0.4027 -0.0780  0.3843
  110SOL     OW  469   1.931   0.532   1.206  0.6076  0.0224  0.5900
  110SOL    HW1  470   1.842   0.547   1.239  0.1358 -1.0705 -0.1217
  110SOL    HW2  471   1.956   0.615   1.166 -1.0303 -0.2917 -1.2530
  111SOL     OW  472   0.571   2.808   2.600  0.9411  0.0209 -0.3916
  111SOL    HW1  473   0.534   2.839   2.683  1.1465 -0.7152 -0.0204
  111SOL    HW2  474   0.638   2.873   2.579  1.6704 -0.3738  0.6043
  112SOL     OW  475   1.740   2.772   3.662 -0.2980 -0.1850  0.2156
  112SOL    HW1  476   1.667   2.817   3.704 -1.5132 -1.4545 -0.4417
  112SOL    HW2  477   1.717   2.679   3.667  0.1397 -0.4777 -2.0160
  113SOL     OW  478   0.408   1.145   3.684  0.0423 -0.0690  0.2204
  113SOL    HW1  479   0.394   1.051   3.672  0.6157 -0.2666  1.0738
  113SOL    HW2  480   0.408   1.180   3.595  1.0419 -1.0518 -0.1915
  114SOL     OW  481   1.830   1.612   3.371 -0.2302 -0.2965  0.5506
  114SOL    HW1  482   1.783   1.565   3.302  1.2890 -1.1220  0.0400
  114SOL    HW2  483   1.766   1.676   3.404 -0.7173  0.7945 -2.2400
  115SOL     OW  484   3.591   1.302   3.552  0.2393 -0.6196  0.7655
  115SOL    HW1  485   3.673   1.335   3.588  1.3151 -1.1360 -1.0917
  115SOL    HW2  486   3.616   1.225   3.501 -1.2779 -0.3445 -0.4852
  116SOL     OW  487   0.419   2.558   2.868  0.4000 -0.4859  0.3741
  116SOL    HW1  488   0.419   2.592   2.779 -1.1575  2.1005  1.2420
  116SOL    HW2  489   0.335   2.513   2.876  1.1388 -1.9651  0.1730
  117SOL     OW  490   2.032   0.103   1.612 -0.3821 -0.6891 -0.4039
  117SOL    HW1  491   1.961   0.148   1.657  0.8371 -0.2134  1.1381
  117SOL    HW2  492   1.991   0.025   1.575 -1.5831 -0.8256  1.0922
  118SOL     OW  493   2.049   1.339   2.110  0.2286  0.0480 -0.0946
  118SOL    HW1  494   2.004   1.423   2.117 -1.3208 -0.8379  1.8433
  118SOL    HW2  495   2.135   1.355   2.149 -0.3558  0.5805  1.0424
  119SOL     OW  496   0.185   2.047   3.039 -0.5459 -0.1490 -0.2870
  119SOL    HW1  497   0.189   1.983   3.110  1.8120  0.8597  0.5965
  119SOL    HW2  498   0.137   2.122   3.076  0.4584  0.2735  0.1978
  120SOL     OW  499   0.976   2.883   0.312  0.0857  0.0179 -0.2102
  120SOL    HW1  500   0.897   2.836   0.283 -0.1212  1.2476 -1.7452
  120SOL    HW2  501   0.948   2.931   0.390  0.0796 -1.6589  0.8872
  121SOL     OW  502   2.737   1.854   0.247 -0.0153 -0.4660  0.4364
  121SOL    HW1  503   2.747   1.940   0.286  0.1887 -0.4580  0.3678
  121SOL    HW2  504   2.797   1.798   0.296  1.3556 -0.1514 -0.8021
  122SOL     OW  505   3.114   2.354   2.916 -0.2339 -0.2475 -0.5884
  122SOL    HW1  506   3.143   2.269   2.947  1.5530  1.1752  2.0116
  122SOL    HW2  507   3.028   2.367   2.955  0.1889 -0.2371  0.3689
  123SOL     OW  508   1.260   2.233   1.126 -0.1275 -0.2650  0.6830
  123SOL    HW1  509   1.325   2.183   1.076 -0.1614 -1.4258  1.7399
  123SOL    HW2  510   1.185   2.174   1.133 -1.7789  1.4156 -1.3904
  124SOL     OW  511   1.964   2.020   0.936  0.6925  0.0123  0.4585
  124SOL    HW1  512   2.020   2.040   1.011  1.8814  0.2897 -0.4719
  124SOL    HW2  513   1.892   2.083   0.942  1.2989  0.6824  0.8161
  125SOL     OW  514   2.874   0.858   1.882  0.3221  0.0417  0.4512
  125SOL    HW1  515   2.885   0.931   1.943  1.2018  1.0941 -0.9149
  125SOL    HW2  516   2.959   0.814   1.882 -0.2586 -1.1496  1.4149
  126SOL     OW  517   2.521   1.802   1.638 -0.4257 -0.5501  0.1449
  126SOL    HW1  518   2.519   1.897   1.628  0.3351 -0.3738  1.3922
  126SOL    HW2  519   2.601   1.774   1.594  0.6593 -0.2869  1.8569
  127SOL     OW  520   2.754   3.096   0.571 -0.1217 -0.2463 -0.4312
  127SOL    HW1  521   2.674   3.054   0.539 -0.1833 -1.8846  1.6508
  127SOL    HW2  522   2.725   3.148   0.646  0.0671  3.2048 -2.5575
  128SOL     OW  523   1.175   3.134   3.127  0.0020  0.0907 -0.6129
  128SOL    HW1  524   1.087   3.107   3.100 -0.2557  0.1873  0.1132
  128SOL    HW2  525   1.234   3.082   3.071 -0.4606 -2.6609  1.2569
  129SOL     OW  526   2.734   0.866   0.438 -0.4406  0.2928 -0.3960
  129SOL    HW1  527   2.749   0.871   0.533 -2.0944  0.2707 -0.1162
  129SOL    HW2  528   2.783   0.940   0.402  0.5549  0.0539  0.4172
  130SOL     OW  529   2.351   2.059   1.144  0.1018 -0.1982 -0.4209
  130SOL    HW1  530   2.398   1.986   1.103 -0.3281  0.7219 -2.7001
  130SOL    HW2  531   2.420   2.111   1.186  0.4213 -1.8041  1.1366
  131SOL     OW  532   2.264   2.166   1.888 -0.9093  0.0162 -0.1102
  131SOL    HW1  533   2.254   2.151   1.794 -1.2633 -1.2089  0.1126
  131SOL    HW2  534   2.177   2.155   1.924 -1.0065  1.6240  0.2498
  132SOL     OW  535   0.417   2.584   2.096 -0.4888 -0.4152 -0.2186
  132SOL    HW1  536   0.324   2.567   2.084 -0.4693 -0.5621 -0.1633
  132SOL    HW2  537   0.438   2.654   2.034 -0.2126 -1.6729 -1.5959
  133SOL     OW  538   0.851   2.925   1.717 -0.6338  0.0393 -0.1633
  133SOL    HW1  539   0.818   2.980   1.646 -0.0233  0.8944  0.2067
  133SOL    HW2  540   0.913   2.865   1.674 -0.1463  0.6590 -0.3345
  134SOL     OW  541   2.133   0.238   2.994  0.5632 -0.4040  0.5652
  134SOL    HW1  542   2.228   0.247   3.006  0.5903 -1.3079  1.1468
  134SOL    HW2  543   2.122   0.224   2.900  0.7023  2.8632 -0.0532
  135SOL     OW  544   3.317   2.787   3.440 -0.4038  0.0094 -0.0137
  135SOL    HW1  545   3.271   2.704   3.427  2.1937 -1.6209  0.3973
  135SOL    HW2  546   3.299   2.810   3.531 -1.2876  0.0186 -0.1827
  136SOL     OW  547   1.497   1.209   0.656  0.2384 -0.2683  0.1380
  136SOL    HW1  548   1.569   1.272   0.660 -0.0260 -0.0077  1.0200
  136SOL    HW2  549   1.442   1.240   0.583 -0.9185  1.6847  1.7194
  137SOL     OW  550   0.126   0.087   1.628  0.5239  0.3117 -0.3502
  137SOL    HW1  551   0.078   0.012   1.592  0.7837 -1.0842  1.9507
  137SOL    HW2  552   0.182   0.048   1.696  1.0536  2.5436  0.5680
  138SOL     OW  553   1.025   1.461   1.119 -0.1067 -0.0017 -0.2304
  138SOL    HW1  554   1.046   1.372   1.092 -2.2991 -0.6333 -0.0485
  138SOL    HW2  555   1.018   1.510   1.036  0.2404 -0.2025 -0.3798
  139SOL     OW  556   1.543   3.391   1.071  0.1869 -0.1360  0.3055
  139SOL    HW1  557   1.525   3.402   1.165 -0.1937 -1.7144  0.4544
  139SOL    HW2  558   1.457   3.382   1.031  0.2232  2.4358 -0.5350
  140SOL     OW  559   2.301   1.018   2.907 -0.2406 -0.1532  0.3174
  140SOL    HW1  560   2.321   0.951   2.971  1.2025  1.8504  2.0937
  140SOL    HW2  561   2.311   0.974   2.822  0.9780 -2.0681  1.3881
  141SOL     OW  562   2.401   1.057   2.563  0.4796  0.2361 -0.7502
  141SOL    HW1  563   2.332   1.004   2.603  0.7193  0.8303  0.5160
  141SOL    HW2  564   2.380   1.057   2.470 -1.1101  0.2102 -0.4295
  142SOL     OW  565   0.117   1.863   3.503  0.5781 -0.1563  0.4837
  142SOL    HW1  566   0.202   1.907   3.511  0.2923  0.5845 -0.3584
  142SOL    HW2  567   0.054   1.934   3.489 -0.3216 -0.6220  1.8964
  143SOL     OW  568   2.314   0.848   2.717 -0.4303  0.1697  0.5795
  143SOL    HW1  569   2.222   0.821   2.716  0.2129 -2.4022  1.5978
  143SOL    HW2  570   2.349   0.814   2.634  0.0982 -1.0847  1.2833
  144SOL     OW  571   0.817   1.127   0.484 -0.3610  0.6347  1.3952
  144SOL    HW1  572   0.909   1.103   0.491  0.0154  1.6650  0.4057
  144SOL    HW2  573   0.788   1.141   0.574  0.7175  1.2147  1.6651
  145SOL     OW  574   1.539   0.940   3.136 -0.3143 -0.7679  0.3933
  145SOL    HW1  575   1.580   1.027   3.143 -0.3766 -0.7599  0.7000
  145SOL    HW2  576   1.593   0.893   3.073  2.1709 -1.8455  3.0627
  146SOL     OW  577   0.927   0.469   2.036  0.0996  1.0174  0.1030
  146SOL    HW1  578   1.013   0.452   1.997 -0.7096 -1.1109 -0.9380
  146SOL    HW2  579   0.873   0.395   2.007 -2.8072  3.4927 -1.4456
  147SOL     OW  580   1.733   0.758   2.610 -0.7390  0.2833  0.1450
  147SOL    HW1  581   1.768   0.681   2.653 -0.4806 -0.0500 -0.6356
  147SOL    HW2  582   1.638   0.744   2.607 -0.5785 -0.7297 -1.3109
  148SOL     OW  583   2.057   1.965   0.660  0.4393 -0.1116 -0.2242
  148SOL    HW1  584   2.034   1.952   0.752  2.1241 -0.0077  0.2469
  148SOL    HW2  585   2.089   2.055   0.656 -2.9277  1.1826 -1.6836
  149SOL     OW  586   3.290   2.509   1.958  0.0823 -0.2325  0.2306
  149SOL    HW1  587   3.295   2.587   2.013 -3.3123 -1.8070  3.1132
  149SOL    HW2  588   3.197   2.490   1.950  0.7158 -4.6201  0.7305
  150SOL     OW  589   3.099   2.761   1.662  0.3442 -0.2404 -0.3032
  150SOL    HW1  590   3.161   2.779   1.732 -0.2202  2.2574 -0.3323
  150SOL    HW2  591   3.143   2.793   1.583  1.3373 -3.7927 -1.3578
  151SOL     OW  592   2.011   2.723   1.088 -0.0520  0.2199  0.4040
  151SOL    HW1  593   1.918   2.714   1.110 -0.5731 -0.3402 -1.7499
  151SOL    HW2  594   2.047   2.635   1.101  0.3305  0.5687  1.7904
  152SOL     OW  595   2.483   0.536   1.648  0.1600 -0.3244  0.0161
  152SOL    HW1  596   2.434   0.568   1.572 -0.5918  2.9254  1.6983
  152SOL    HW2  597   2.557   0.596   1.655  1.1413 -1.5870  0.9437
  153SOL     OW  598   0.963   3.594   0.246  0.2265  0.1129 -0.4406
  153SOL    HW1  599   0.937   3.675   0.290  1.0443 -0.3688  1.0051
  153SOL    HW2  600   0.922   3.599   0.160 -0.7939  1.4646  0.0888
  154SOL     OW  601   0.733   2.247   0.825 -0.2511 -0.6359  0.1610
  154SOL    HW1  602   0.676   2.217   0.895  1.6482  1.7682  2.9801
  154SOL    HW2  603   0.812   2.193   0.833  0.1378 -0.0742  0.1911
  155SOL     OW  604   3.615   3.323   2.048 -0.2643 -0.1847 -0.1613
  155SOL    HW1  605   3.598   3.417   2.040 -0.3805 -0.0373  1.5347
  155SOL    HW2  606   3.578   3.298   2.133  0.1079 -1.6884 -0.4026
  156SOL     OW  607   0.873   3.041   0.493 -0.4041 -0.2796 -0.0168
  156SOL    HW1  608   0.819   2.968   0.524  0.8947 -1.5206 -0.5527
  156SOL    HW2  609   0.821   3.081   0.424 -1.2823 -0.4765  0.5068
  157SOL     OW  610   0.472   2.570   2.581 -0.1866 -0.6360  0.0352
  157SOL    HW1  611   0.520   2.653   2.577 -0.2212 -0.6157  0.0447
  157SOL    HW2  612   0.525   2.510   2.529 -2.2370  0.3969 -3.6401
  158SOL     OW  613   2.006   0.046   3.386 -0.2110 -0.6579 -0.0590
  158SOL    HW1  614   2.032   0.126   3.341  3.5206 -1.2239  0.7379
  158SOL    HW2  615   2.032  -0.025   3.327  2.2404 -1.3232  1.6471
  159SOL     OW  616   1.203   0.535   2.319  0.0340  0.4107  0.4767
  159SOL    HW1  617   1.212   0.446   2.284  0.0845  0.8054 -0.5460
  159SOL    HW2  618   1.222   0.526   2.412  0.1594 -0.6304  0.3621
  160SOL     OW  619   1.760   1.593   2.341  0.9923 -0.3345  0.5073
  160SOL    HW1  620   1.768   1.687   2.353  0.6804 -0.3235  0.6504
  160SOL    HW2  621   1.760   1.580   2.246  0.6343 -0.1517  0.4795
  161SOL     OW  622   2.945   0.721   2.183  0.3544  0.0661 -0.3106
  161SOL    HW1  623   3.003   0.714   2.108  1.5665  0.2831  0.5754
  161SOL    HW2  624   2.857   0.717   2.146  0.8817 -2.2145 -1.5377
  162SOL     OW  625   2.317   0.997   0.535  0.1130  0.2046 -0.1384
  162SOL    HW1  626   2.375   1.009   0.460 -0.1935 -0.8649 -0.5770
  162SOL    HW2  627   2.318   0.902   0.550 -0.1220  0.3680  0.9780
  163SOL     OW  628   0.076   1.853   1.429 -1.2864  0.5541  0.2394
  163SOL    HW1  629   0.151   1.831   1.485 -2.2483 -1.2245  0.9237
  163SOL    HW2  630   0.114   1.900   1.355  1.1793 -3.5900 -1.4864
  164SOL     OW  631   1.592   1.494   2.549 -0.2241 -0.3608 -0.3519
  164SOL    HW1  632   1.507   1.510   2.508 -0.3578 -1.6847 -0.6421
  164SOL    HW2  633   1.656   1.521   2.483 -0.4150  0.1953 -0.3155
  165SOL     OW  634   2.238   0.691   1.718 -0.2133  0.4711  0.3612
  165SOL    HW1  635   2.188   0.609   1.723 -0.0189  0.2538 -0.9667
  165SOL    HW2  636   2.292   0.682   1.639  0.0115  1.7727  0.3420
  166SOL     OW  637   1.782   2.849   2.119  0.2350 -0.0620  0.4417
  166SOL    HW1  638   1.716   2.780   2.111 -0.2558  0.4796 -0.2906
  166SOL    HW2  639   1.733   2.930   2.109  0.9693  0.3599  0.2242
  167SOL     OW  640   2.590   0.136   0.754 -0.0449  0.0965 -0.1753
  167SOL    HW1  641   2.506   0.181   0.762 -0.9841 -1.3927 -1.1050
  167SOL    HW2  642   2.655   0.204   0.771 -1.4194  1.3148  0.4821
  168SOL     OW  643   3.265   2.020   3.683 -0.0907 -0.2125 -0.6295
  168SOL    HW1  644   3.210   2.093   3.713 -0.0623 -0.4006 -0.1072
  168SOL    HW2  645   3.337   2.018   3.746  1.1456  0.7537 -1.9600
  169SOL     OW  646   2.751   3.467   1.286  0.2643 -0.0820  0.0991
  169SOL    HW1  647   2.794   3.382   1.277 -2.1196 -1.3641 -0.1146
  169SOL    HW2  648   2.658   3.445   1.301 -0.4810  2.4849 -0.3182
  170SOL     OW  649   2.113   3.135   1.812  0.6148 -0.4273  0.3005
  170SOL    HW1  650   2.148   3.195   1.878  0.7535  0.3990 -0.4981
  170SOL    HW2  651   2.189   3.088   1.779  1.0763  1.4101 -1.4776
  171SOL     OW  652   1.929   3.367   3.587  0.0407 -0.0167 -0.1268
  171SOL    HW1  653   1.835   3.361   3.573 -0.4179  1.3751  1.8386
  171SOL    HW2  654   1.938   3.406   3.675  2.4388  0.5759 -0.5459
  172SOL     OW  655   1.545   1.668   0.457 -0.2275 -0.1972 -1.0438
  172SOL    HW1  656   1.617   1.671   0.394 -0.5261  0.4486 -1.3643
  172SOL    HW2  657   1.477   1.616   0.413 -1.1968  1.8201 -2.1145
  173SOL     OW  658   1.816   1.638   0.363  0.4635  0.0460  0.3426
  173SOL    HW1  659   1.842   1.609   0.275  0.8807 -0.2526  0.5630
  173SOL    HW2  660   1.880   1.705   0.386 -1.9113  3.1139 -1.2008
  174SOL     OW  661   1.422   0.493   2.498 -0.1342  0.3632  0.1745
  174SOL    HW1  662   1.409   0.535   2.583 -1.4817  1.9857 -0.7662
  174SOL    HW2  663   1.490   0.427   2.513  0.1208  1.0616  2.3356
  175SOL     OW  664   1.646   1.442   2.817  0.0304  0.4661  0.5108
  175SOL    HW1  665   1.612   1.449   2.728 -0.3110  1.4696  0.6962
  175SOL    HW2  666   1.740   1.432   2.806 -0.0093  0.5915  0.0295
  176SOL     OW  667   0.947   2.377   1.086  0.1362  0.4717 -0.1152
  176SOL    HW1  668   1.021   2.360   1.145 -0.6992  2.1526  1.5419
  176SOL    HW2  669   0.987   2.400   1.003  1.3876 -1.0880  0.0112
  177SOL     OW  670   3.308   1.363   3.576  0.5903  0.4774 -0.4127
  177SOL    HW1  671   3.256   1.305   3.632 -1.0433  0.8101 -1.5158
  177SOL    HW2  672   3.371   1.305   3.534  0.5427 -0.1002  0.2865
  178SOL     OW  673   1.429   2.007   2.699 -0.6481 -0.2530  0.1156
  178SOL    HW1  674   1.399   1.942   2.636 -2.3406  1.1774 -0.6371
  178SOL    HW2  675   1.360   2.008   2.766  0.2862 -0.5301  1.1075
  179SOL     OW  676   0.657   2.508   0.785 -0.3436  0.7244 -0.0604
  179SOL    HW1  677   0.700   2.426   0.811  0.6221  0.2770 -2.7589
  179SOL    HW2  678   0.728   2.563   0.752 -1.4688  0.7844 -2.6565
  180SOL     OW  679   1.868   0.881   0.799 -0.4994  0.2890  0.1084
  180SOL    HW1  680   1.942   0.940   0.789 -1.7719  2.1491  1.1669
  180SOL    HW2  681   1.825   0.909   0.880 -1.2246 -2.0471  0.6126
  181SOL     OW  682   2.869   3.422   3.536  0.0237 -0.7616  0.1131
  181SOL    HW1  683   2.909   3.349   3.581  1.5968 -1.3515 -2.0759
  181SOL    HW2  684   2.782   3.390   3.511 -1.3668 -0.0199  3.5227
  182SOL     OW  685   2.026   0.905   3.594  0.1749  0.0369 -0.4436
  182SOL    HW1  686   2.005   0.995   3.570 -0.7228 -0.5793 -2.2537
  182SOL    HW2  687   2.119   0.905   3.614  0.3820  1.2123 -1.3262
  183SOL     OW  688   2.338   2.631   3.118  0.5533  0.2954  0.0563
  183SOL    HW1  689   2.284   2.691   3.068  2.7622  0.8629 -1.8047
  183SOL    HW2  690   2.294   2.546   3.110 -1.2367  1.1220  0.5818
  184SOL     OW  691   3.456   1.881   3.036  0.0110 -0.6433  0.2650
  184SOL    HW1  692   3.470   1.857   3.128 -0.2392 -0.8697  0.2451
  184SOL    HW2  693   3.388   1.821   3.006 -1.0153  0.4404  0.3534
  185SOL     OW  694   2.825   3.683   2.036 -0.4462  0.1115 -0.0659
  185SOL    HW1  695   2.858   3.712   2.122  1.8475  0.0473 -0.8595
  185SOL    HW2  696   2.775   3.603   2.055  2.1131 -1.3527  1.0075
  186SOL     OW  697   2.013   0.084   1.036  0.2560  0.6936 -0.1199
  186SOL    HW1  698   1.974   0.026   1.101  1.6947 -0.7091 -0.4402
  186SOL    HW2  699   2.046   0.158   1.086  0.2878  0.2077  0.5883
  187SOL     OW  700   1.157   1.304   3.116 -0.5684  0.0088 -0.0781
  187SOL    HW1  701   1.170   1.393   3.084  0.1152 -0.1416 -0.2370
  187SOL    HW2  702   1.073   1.277   3.079 -0.6539  0.4920 -0.2459
  188SOL     OW  703   3.268   0.770   2.868 -0.0760 -0.5080  0.2888
  188SOL    HW1  704   3.241   0.852   2.909  0.4287  0.7860 -1.7980
  188SOL    HW2  705   3.199   0.750   2.805 -0.2405 -1.7681  0.8423
  189SOL     OW  706   0.511   1.770   0.376 -0.4513 -0.4215  0.2192
  189SOL    HW1  707   0.518   1.786   0.470  0.9838 -0.9331  0.2382
  189SOL    HW2  708   0.521   1.675   0.368  1.7426 -0.1997 -0.5614
  190SOL     OW  709   3.635   3.388   0.359 -0.1639 -0.1734  0.8402
  190SOL    HW1  710   3.586   3.306   0.361  0.1108 -0.4752 -1.7897
  190SOL    HW2  711   3.568   3.456   0.364 -0.4432 -0.5116  2.2588
  191SOL     OW  712   2.864   2.904   2.960 -0.0182 -0.2536 -0.2373
  191SOL    HW1  713   2.828   2.951   2.884  0.4210 -1.7921 -1.4516
  191SOL    HW2  714   2.821   2.944   3.035 -0.6053  1.2187 -1.2953
  192SOL     OW  715   1.905   1.621   1.246 -0.0853  0.0431  0.3878
  192SOL    HW1  716   1.999   1.621   1.261 -0.0428  2.6688  0.6909
  192SOL    HW2  717   1.867   1.627   1.334 -0.4167  0.9023  0.2027
  193SOL     OW  718   1.650   0.241   1.545  0.0762  0.2505 -0.3731
  193SOL    HW1  719   1.579   0.282   1.594  1.6397 -0.5522  2.8766
  193SOL    HW2  720   1.613   0.223   1.459 -3.0159  1.5341  0.5439
  194SOL     OW  721   0.536   2.233   2.413 -0.7714  0.6379 -0.6360
  194SOL    HW1  722   0.556   2.289   2.338 -2.0049 -0.1901 -1.6138
  194SOL    HW2  723   0.456   2.186   2.388  0.2725 -1.6627  0.0653
  195SOL     OW  724   1.215   3.165   0.328 -0.3798 -0.2562 -0.2209
  195SOL    HW1  725   1.215   3.258   0.304  0.8338 -0.4664 -1.1560
  195SOL    HW2  726   1.149   3.125   0.272  1.2511 -0.4479 -2.1043
  196SOL     OW  727   0.401   0.753   0.818  0.5327 -0.2041  0.1563
  196SOL    HW1  728   0.322   0.740   0.871 -1.0735 -2.2958 -2.5037
  196SOL    HW2  729   0.411   0.672   0.768  2.2850  1.3385 -2.2488
  197SOL     OW  730   0.073   1.211   1.894  0.3493  0.5391 -0.4109
  197SOL    HW1  731   0.151   1.157   1.909 -0.7216 -1.0524 -0.3694
  197SOL    HW2  732   0.048   1.241   1.981 -0.2849 -0.7128 -0.1375
  198SOL     OW  733   1.205   0.887   3.371  0.7230 -0.3658 -0.6588
  198SOL    HW1  734   1.237   0.799   3.392 -0.3421 -0.6264 -0.0260
  198SOL    HW2  735   1.144   0.907   3.442  1.4146  1.1531 -0.4581
  199SOL     OW  736   0.716   0.270   0.069 -0.0032  0.2815 -0.1605
  199SOL    HW1  737   0.629   0.280   0.030  0.1591 -1.1334 -0.9522
  199SOL    HW2  738   0.777   0.287  -0.002  0.3584  0.3227  0.1535
  200SOL     OW  739   2.573   3.324   3.421 -0.3288 -0.4260  0.1048
  200SOL    HW1  740   2.564   3.418   3.440 -0.0357 -0.1469 -1.0878
  200SOL    HW2  741   2.489   3.287   3.445 -1.3169  0.5513 -1.6482
  201SOL     OW  742   2.978   1.661   0.784 -0.3493  0.9055 -0.4395
  201SOL    HW1  743   2.924   1.588   0.755 -0.7435  0.4752  1.2573
  201SOL    HW2  744   3.065   1.644   0.748 -0.0511 -1.2193  1.1497
  202SOL     OW  745   1.642   2.148   1.828 -0.0291 -0.4936 -0.2680
  202SOL    HW1  746   1.605   2.134   1.915 -0.8937 -0.6260 -0.6366
  202SOL    HW2  747   1.643   2.060   1.789 -0.0924 -0.3697 -0.5522
  203SOL     OW  748   0.063   3.083   1.672  0.1045  0.5392 -0.1911
  203SOL    HW1  749   0.089   3.139   1.745  1.9294 -0.5359  0.0393
  203SOL    HW2  750   0.075   3.137   1.594  2.9257  0.2011 -0.0673
  204SOL     OW  751   0.964   1.057   1.846  0.5637  0.1718  0.2654
  204SOL    HW1  752   0.906   0.982   1.834 -1.7473  1.5509  1.8291
  204SOL    HW2  753   1.025   1.031   1.915  2.5064 -1.5979 -1.9677
  205SOL     OW  754   3.452   3.500   1.263  0.2038  0.0160 -0.1634
  205SOL    HW1  755   3.519   3.554   1.305  0.5976 -2.2144  2.3622
  205SOL    HW2  756   3.414   3.450   1.335 -1.2835 -1.8179 -2.1220
  206SOL     OW  757   1.427   1.567   1.586  0.1246  0.4251  0.1811
  206SOL    HW1  758   1.480   1.515   1.646 -0.8624  0.8447  1.4618
  206SOL    HW2  759   1.490   1.622   1.540  0.8080  1.3737  2.1277
  207SOL     OW  760   0.035   0.904   1.923 -0.9378  0.1271  0.1642
  207SOL    HW1  761   0.031   0.905   2.018 -1.8629 -1.2145  0.1724
  207SOL    HW2  762  -0.036   0.963   1.896  0.1352  1.5252  0.2679
  208SOL     OW  763   2.276   3.637   2.400  0.0159 -0.7301  0.1329
  208SOL    HW1  764   2.366   3.617   2.425  0.2875  0.1782 -0.0605
  208SOL    HW2  765   2.266   3.730   2.420 -1.3376 -1.1286  1.4730
  209SOL     OW  766   1.004   1.478   2.014 -0.0196 -0.3253  0.1947
  209SOL    HW1  767   0.946   1.529   2.071  0.6657 -0.1365  0.7286
  209SOL    HW2  768   1.071   1.442   2.072 -0.6984 -2.1916 -0.0961
  210SOL     OW  769   0.053   0.539   3.634 -0.0285 -0.0434 -0.1156
  210SOL    HW1  770  -0.033   0.497   3.642 -0.3079 -0.1902 -2.7831
  210SOL    HW2  771   0.116   0.468   3.643 -0.2731 -0.2175  0.2328
  211SOL     OW  772   2.894   3.120   3.165  0.3355 -0.1886 -0.0687
  211SOL    HW1  773   2.923   3.199   3.210  1.0056  0.7850 -2.1179
  211SOL    HW2  774   2.817   3.147   3.115 -2.1513 -1.9058  2.4874
  212SOL     OW  775   0.724   2.186   1.105 -0.6689 -0.7561  0.8120
  212SOL    HW1  776   0.788   2.252   1.079 -0.7614 -0.9317  0.1246
  212SOL    HW2  777   0.722   2.191   1.201 -0.9587  0.5053  0.7575
  213SOL     OW  778   3.544   1.899   3.541 -0.3482 -0.2309 -0.5833
  213SOL    HW1  779   3.504   1.940   3.617  0.2436 -0.0283 -0.3812
  213SOL    HW2  780   3.570   1.812   3.571 -0.3961 -0.2647 -0.6396
  214SOL     OW  781   1.010   2.413   0.764  0.0293 -0.0925  0.2195
  214SOL    HW1  782   1.077   2.482   0.758 -0.0919  0.0262  0.2444
  214SOL    HW2  783   0.982   2.399   0.674 -0.4190  0.3533  0.2866
  215SOL     OW  784   3.509   1.095   0.389 -0.2412  0.1725 -0.2314
  215SOL    HW1  785   3.595   1.132   0.405 -1.0856  1.5015  1.5590
  215SOL    HW2  786   3.465   1.097   0.474 -1.8112 -1.0892 -0.9561
  216SOL     OW  787   2.848   3.582   1.069  0.5314 -0.2844 -0.1851
  216SOL    HW1  788   2.814   3.576   1.158  1.9291  2.8171  0.6915
  216SOL    HW2  789   2.923   3.522   1.067  2.8893  2.2993  2.1088
  217SOL     OW  790   0.285   3.203   2.991 -0.6431 -0.0486  0.7045
  217SOL    HW1  791   0.269   3.122   3.041 -1.2040  0.2917  1.0839
  217SOL    HW2  792   0.229   3.268   3.033 -1.2194  0.2174 -0.4557
  218SOL     OW  793   2.906   2.483   2.450  0.0082  0.0998  0.0651
  218SOL    HW1  794   2.887   2.541   2.524  0.0410 -2.1779  1.9589
  218SOL    HW2  795   2.976   2.426   2.481 -3.4756 -4.5476  0.4829
  219SOL     OW  796   3.364   0.882   2.361 -0.2416  0.0821 -0.8901
  219SOL    HW1  797   3.414   0.801   2.353 -2.4826 -1.1821 -3.6143
  219SOL    HW2  798   3.289   0.859   2.416  0.6327  1.2578  0.9278
  220SOL     OW  799   0.693   3.118   0.301  0.4647 -0.4902  0.2994
  220SOL    HW1  800   0.598   3.124   0.299  0.4471 -0.9414 -0.7176
  220SOL    HW2  801   0.719   3.117   0.209  1.6430  2.3376  0.4920
  221SOL     OW  802   3.331   2.628   2.413 -0.6511 -0.4607  0.1853
  221SOL    HW1  803   3.419   2.610   2.380 -1.2154 -1.3286 -0.9133
  221SOL    HW2  804   3.345   2.652   2.505  1.0763  3.1499 -0.8258
  222SOL     OW  805   0.105   2.387   0.999  0.5230  0.1137  0.2156
  222SOL    HW1  806   0.037   2.440   1.041  0.6574  0.1422  0.3970
  222SOL    HW2  807   0.103   2.414   0.907  0.0425 -0.1443  0.1509
  223SOL     OW  808   2.513   0.520   0.894 -0.2469 -0.1223  0.8238
  223SOL    HW1  809   2.502   0.476   0.978  0.4574  0.6883  1.3616
  223SOL    HW2  810   2.457   0.472   0.834  0.9116 -2.0935  1.2450
  224SOL     OW  811   2.777   3.366   3.247 -0.2454 -0.1336  0.8134
  224SOL    HW1  812   2.781   3.461   3.237 -0.6218 -0.2438 -0.5141
  224SOL    HW2  813   2.720   3.353   3.324  0.9480  0.7147  1.8838
  225SOL     OW  814   2.697   2.935   0.291  0.3490  0.5376  0.9609
  225SOL    HW1  815   2.661   3.024   0.282  1.8735  0.9885 -1.2346
  225SOL    HW2  816   2.621   2.878   0.279 -0.0234  1.4910 -2.0164
  226SOL     OW  817   2.914   2.790   0.493  0.0904  0.2148 -0.2498
  226SOL    HW1  818   2.860   2.731   0.440  0.2907  1.1016 -1.5068
  226SOL    HW2  819   2.854   2.824   0.560 -0.6142  0.2834 -0.9005
  227SOL     OW  820   3.626   2.070   2.948  0.0124  0.6738  0.6182
  227SOL    HW1  821   3.537   2.035   2.952 -0.9547  2.9636  0.4649
  227SOL    HW2  822   3.681   1.993   2.935 -1.8261 -0.9320  1.7332
  228SOL     OW  823   0.794   0.779   0.561 -0.2657 -0.5726 -0.3676
  228SOL    HW1  824   0.725   0.754   0.499  0.1056 -0.0733 -1.0024
  228SOL    HW2  825   0.765   0.861   0.598  1.1729  1.1119 -2.6642
  229SOL     OW  826   0.926   2.845   2.355 -0.8305 -0.7822  0.0617
  229SOL    HW1  827   0.880   2.854   2.272 -0.8183  0.3789  0.1598
  229SOL    HW2  828   0.881   2.905   2.414  1.0093  0.7345  0.0446
  230SOL     OW  829   0.220   0.033   3.645  0.6586  0.4955  0.0839
  230SOL    HW1  830   0.263   0.020   3.729  1.4853 -0.0634 -0.4049
  230SOL    HW2  831   0.293   0.039   3.582  0.0367 -1.9030 -0.9847
  231SOL     OW  832   3.241   3.331   0.185 -0.1729 -0.3260  1.0598
  231SOL    HW1  833   3.312   3.377   0.141 -0.4134 -2.7644 -2.2024
  231SOL    HW2  834   3.166   3.389   0.176  0.4285  0.4307  0.7585
  232SOL     OW  835   2.608   2.487   2.733  0.1371  0.0566 -0.2863
  232SOL    HW1  836   2.701   2.472   2.716 -0.0464 -1.1300 -0.3291
  232SOL    HW2  837   2.581   2.549   2.666  0.1588 -2.1107 -2.4276
  233SOL     OW  838   2.696   1.061   1.629  0.3148 -0.0658  0.3506
  233SOL    HW1  839   2.677   1.155   1.631  0.5566  0.0192 -0.8975
  233SOL    HW2  840   2.729   1.042   1.717  0.4261  1.0509  0.5699
  234SOL     OW  841   3.675   1.652   1.160 -0.1723 -0.1124  0.6957
  234SOL    HW1  842   3.597   1.704   1.139 -0.6457 -0.7276  0.8979
  234SOL    HW2  843   3.667   1.635   1.254 -0.4991 -1.3005  0.4672
  235SOL     OW  844   3.573   2.105   1.065 -0.9371 -0.1110  0.1226
  235SOL    HW1  845   3.491   2.078   1.106 -1.1974 -1.4291 -1.1451
  235SOL    HW2  846   3.552   2.186   1.019 -2.0008 -1.2307 -1.4709
  236SOL     OW  847   3.111   1.807   2.521 -0.0538 -0.0870  0.1803
  236SOL    HW1  848   3.158   1.843   2.447 -0.3880 -0.5231 -0.2540
  236SOL    HW2  849   3.177   1.760   2.572  0.1942  0.2983  0.2156
  237SOL     OW  850   3.647   3.161   3.660  0.4327 -0.2685  0.4170
  237SOL    HW1  851   3.640   3.143   3.753 -0.4434  0.7420  0.5646
  237SOL    HW2  852   3.595   3.093   3.618  1.6587 -1.3465  0.5671
  238SOL     OW  853   2.612   2.179   2.977  0.2891 -0.3839  0.3177
  238SOL    HW1  854   2.610   2.103   3.035 -0.2040 -1.4645 -1.0673
  238SOL    HW2  855   2.524   2.182   2.938  0.9946 -0.5406 -1.3996
  239SOL     OW  856   1.058   3.709   2.566  0.3834 -0.1632 -0.1445
  239SOL    HW1  857   1.100   3.739   2.646 -0.1486  2.9434 -0.9129
  239SOL    HW2  858   1.130   3.698   2.504  0.8048 -2.6355  0.6341
  240SOL     OW  859   1.178   1.030   2.015  0.2517  0.2566  0.3990
  240SOL    HW1  860   1.233   0.957   1.989 -0.1296  0.1127 -0.0201
  240SOL    HW2  861   1.236   1.089   2.063  1.2882  1.1356 -1.8186
  241SOL     OW  862   0.885   2.886   2.662  0.3746  0.2748 -0.5630
  241SOL    HW1  863   0.869   2.960   2.605  1.8521 -0.6375 -2.2642
  241SOL    HW2  864   0.957   2.913   2.719 -0.3316  0.7728  0.1150
  242SOL     OW  865   0.816   0.932   0.219 -0.0309 -0.4161  0.4325
  242SOL    HW1  866   0.765   0.907   0.296  0.3256  2.2591  1.6270
  242SOL    HW2  867   0.907   0.913   0.243  0.1989  1.5240  1.1804
  243SOL     OW  868   0.248   2.498   0.055  0.4274 -0.2955  0.1413
  243SOL    HW1  869   0.329   2.468   0.097 -0.7037 -2.7660  0.7477
  243SOL    HW2  870   0.243   2.446  -0.025 -1.7326 -2.1163  1.3444
  244SOL     OW  871   1.844   0.457   3.728  0.2025  0.0415  0.3997
  244SOL    HW1  872   1.832   0.546   3.695  0.4488 -0.0191  0.1492
  244SOL    HW2  873   1.869   0.406   3.651 -1.5130 -0.5802  0.2079
  245SOL     OW  874   0.757   2.439   2.522 -0.1520 -0.0497  0.2813
  245SOL    HW1  875   0.838   2.489   2.511 -0.7285  0.4542 -2.5597
  245SOL    HW2  876   0.753   2.420   2.616  3.6546 -0.8193  0.4552
  246SOL     OW  877   2.517   2.419   0.297 -0.4958 -0.2830 -0.1772
  246SOL    HW1  878   2.422   2.417   0.306 -0.5818  0.8787 -0.6110
  246SOL    HW2  879   2.533   2.414   0.203 -0.2759  2.0643 -0.3293
  247SOL     OW  880   2.389   1.455   2.969  0.0102  0.2571 -0.0158
  247SOL    HW1  881   2.320   1.414   2.917 -0.3556 -0.1477  0.7806
  247SOL    HW2  882   2.439   1.507   2.905 -0.6942  0.1243 -0.6919
  248SOL     OW  883   0.274   2.125   2.457  0.5703  0.0574 -0.1203
  248SOL    HW1  884   0.237   2.074   2.385 -0.1468  0.4728 -0.0457
  248SOL    HW2  885   0.251   2.075   2.536 -0.7908  0.8713  0.0157
  249SOL     OW  886   3.509   2.136   1.770 -0.3343  0.1883  0.4594
  249SOL    HW1  887   3.539   2.071   1.706 -0.1528 -0.5332  1.2582
  249SOL    HW2  888   3.586   2.152   1.825 -0.1698  1.5959 -0.1127
  250SOL     OW  889   2.885   0.892   2.973 -0.3325 -1.0028 -0.2296
  250SOL    HW1  890   2.852   0.971   2.931  2.6402  0.2812 -0.4461
  250SOL    HW2  891   2.971   0.878   2.933  1.0922 -1.8273  2.8083
  251SOL     OW  892   0.092   0.926   0.612  0.1894  0.0234 -0.3206
  251SOL    HW1  893   0.121   0.869   0.541 -1.2454 -0.3583 -0.6400
  251SOL    HW2  894   0.039   0.870   0.668  0.7458  0.4887  0.6994
  252SOL     OW  895   2.456   1.826   0.258 -0.1851 -0.5721 -0.2787
  252SOL    HW1  896   2.546   1.849   0.236 -0.2669 -1.1702 -1.3297
  252SOL    HW2  897   2.440   1.869   0.342  0.1895  1.8849 -1.3529
  253SOL     OW  898   0.290   1.176   2.190 -0.0188 -0.0435 -0.1850
  253SOL    HW1  899   0.270   1.112   2.122 -0.5690 -0.4933  0.3869
  253SOL    HW2  900   0.373   1.147   2.227  0.7529  0.7305 -1.2757
  254SOL     OW  901   1.189   0.957   3.112 -1.0548 -0.6333 -0.5439
  254SOL    HW1  902   1.115   1.013   3.089 -0.7583 -0.1736 -0.3972
  254SOL    HW2  903   1.177   0.937   3.205 -0.3186  0.5041 -0.1839
  255SOL     OW  904   3.537   3.577   2.513 -0.0259 -0.2612 -0.0216
  255SOL    HW1  905   3.446   3.567   2.540 -0.1120 -1.1273 -0.5782
  255SOL    HW2  906   3.587   3.576   2.594 -0.4456 -0.6807  0.2346
  256SOL     OW  907   0.254   2.533   1.459  0.2733  0.1652 -0.3261
  256SOL    HW1  908   0.199   2.454   1.458  1.0358 -0.4458  1.5520
  256SOL    HW2  909   0.237   2.572   1.545  1.8922  0.5935 -0.1734
  257SOL     OW  910   0.514   1.662   1.516  0.3333  0.4087 -0.2961
  257SOL    HW1  911   0.459   1.686   1.442  0.9385  1.1141 -0.5278
  257SOL    HW2  912   0.548   1.746   1.549 -0.0549  0.1225  0.8799
  258SOL     OW  913   3.380   2.795   1.614 -0.2490  0.4736  0.0713
  258SOL    HW1  914   3.380   2.883   1.577  1.1705  0.0234 -1.1124
  258SOL    HW2  915   3.460   2.790   1.666 -0.9518  0.2642  1.1638
  259SOL     OW  916   3.252   0.884   0.345 -0.4083  0.2113 -0.1188
  259SOL    HW1  917   3.347   0.875   0.358 -0.4189  1.0148  0.6248
  259SOL    HW2  918   3.215   0.806   0.386 -0.2015  1.0480  1.7865
  260SOL     OW  919   2.928   1.414   0.085 -0.3243  0.5258  0.1646
  260SOL    HW1  920   2.895   1.394   0.172  1.6181 -1.1035  0.6010
  260SOL    HW2  921   2.863   1.376   0.026 -0.7203 -0.0381  0.9372
  261SOL     OW  922   1.208   0.000   0.293 -0.5271  0.2898  0.1537
  261SOL    HW1  923   1.193   0.093   0.312 -2.0371  0.0526  0.2125
  261SOL    HW2  924   1.121  -0.039   0.295  0.1708 -1.3077  1.0067
  262SOL     OW  925   3.339   2.123   2.276  0.1534 -0.4161 -0.2151
  262SOL    HW1  926   3.431   2.096   2.271  0.3368  0.0772  0.3586
  262SOL    HW2  927   3.341   2.217   2.259 -0.0363 -0.0870  1.3959
  263SOL     OW  928   3.630   2.248   2.422 -0.0154 -0.1084  0.0332
  263SOL    HW1  929   3.655   2.203   2.503 -0.7085 -0.6737 -0.0580
  263SOL    HW2  930   3.567   2.315   2.450  1.3726  1.1679  0.2335
  264SOL     OW  931   1.362   2.785   1.731 -0.1064 -0.1351  0.2436
  264SOL    HW1  932   1.347   2.774   1.825  1.3338 -0.3565  0.4824
  264SOL    HW2  933   1.319   2.867   1.709 -2.3443 -1.1412  0.6064
  265SOL     OW  934   0.709   3.320   0.738  0.1542  0.0495  0.0904
  265SOL    HW1  935   0.640   3.374   0.776 -0.5537 -0.2640 -0.7465
  265SOL    HW2  936   0.697   3.327   0.643  0.4529 -1.0620 -0.0458
  266SOL     OW  937   1.920   1.967   1.418  0.6748 -0.3404  0.4288
  266SOL    HW1  938   1.990   1.928   1.366  0.0581  0.7096 -1.2765
  266SOL    HW2  939   1.844   1.968   1.360 -0.6912 -1.1306  2.1208
  267SOL     OW  940   2.844   0.464   0.153 -0.1751  0.9761 -0.0085
  267SOL    HW1  941   2.831   0.520   0.229 -2.5341 -0.4224  0.7284
  267SOL    HW2  942   2.760   0.465   0.108  0.3352 -0.4012 -1.0498
  268SOL     OW  943   1.331   2.033   1.885  0.2026  0.1623 -0.0067
  268SOL    HW1  944   1.425   2.017   1.883  0.7912  3.0625 -0.7337
  268SOL    HW2  945   1.299   2.003   1.800  1.1650  2.2118 -1.1710
  269SOL     OW  946   0.222   0.291   1.469  0.1540  0.1047 -0.4405
  269SOL    HW1  947   0.182   0.225   1.525  1.3466 -0.2916 -0.0323
  269SOL    HW2  948   0.153   0.313   1.406 -0.6518 -0.6542  0.1456
  270SOL     OW  949   0.549   0.770   2.503 -0.5248  0.3279  0.0326
  270SOL    HW1  950   0.599   0.811   2.433 -0.3979 -2.5055 -1.7213
  270SOL    HW2  951   0.614   0.741   2.566 -0.3543  0.4375 -0.0936
  271SOL     OW  952   0.479   3.155   1.066  0.1221 -0.3746  0.6630
  271SOL    HW1  953   0.514   3.151   0.977  1.3755  0.0483  1.1086
  271SOL    HW2  954   0.418   3.082   1.072  0.6721 -0.9212 -0.2692
  272SOL     OW  955   3.377   1.095   3.507  0.2685  0.5673 -0.8971
  272SOL    HW1  956   3.460   1.076   3.464  0.2433 -0.2925 -0.5921
  272SOL    HW2  957   3.338   1.009   3.523 -1.1756  0.9835 -1.9642
  273SOL     OW  958   3.165   1.794   3.311  0.5788  0.3199 -0.2739
  273SOL    HW1  959   3.175   1.728   3.243  2.7587  0.7536 -0.4815
  273SOL    HW2  960   3.202   1.753   3.389  0.4676  0.7329 -0.0035
  274SOL     OW  961   0.431   1.731   3.679 -0.2613 -0.6555  0.4655
  274SOL    HW1  962   0.340   1.708   3.700 -0.0633  0.0772  2.3249
  274SOL    HW2  963   0.483   1.666   3.725  0.1935 -1.3763 -0.9988
  275SOL     OW  964   1.126   2.516   1.305  0.1421 -0.2074 -0.2123
  275SOL    HW1  965   1.132   2.602   1.346 -0.8789 -0.1486 -0.1615
  275SOL    HW2  966   1.127   2.533   1.211  0.0649 -0.1547 -0.2030
  276SOL     OW  967   1.663   0.569   1.458 -0.1743 -0.2673 -0.6528
  276SOL    HW1  968   1.602   0.526   1.518 -0.4944 -0.1578 -0.8941
  276SOL    HW2  969   1.749   0.553   1.495 -0.4463  0.8106  0.4833
  277SOL     OW  970   2.486   1.262   3.156  0.3466  0.9722 -0.8299
  277SOL    HW1  971   2.559   1.307   3.197  1.0100  0.0944 -1.0247
  277SOL    HW2  972   2.463   1.317   3.081 -0.2110  2.0515  0.1082
  278SOL     OW  973   2.374   1.177   1.210 -0.5081 -0.3269 -1.0623
  278SOL    HW1  974   2.390   1.093   1.253  2.6435  0.4256 -0.4569
  278SOL    HW2  975   2.412   1.166   1.123  1.7702  0.9395 -0.3251
  279SOL     OW  976   1.301   2.449   2.889 -0.6458 -0.1528 -0.8393
  279SOL    HW1  977   1.273   2.368   2.846  0.4861 -0.8315 -0.3624
  279SOL    HW2  978   1.393   2.458   2.865 -0.4771  0.4195 -0.0275
  280SOL     OW  979   1.777   0.948   2.228  0.3953  0.3514  0.3120
  280SOL    HW1  980   1.797   1.036   2.259 -1.2103  1.5238 -1.7468
  280SOL    HW2  981   1.859   0.915   2.192  1.0845  0.8547  1.3869
  281SOL     OW  982   2.131   1.299   1.014  0.9829 -0.1737  0.0533
  281SOL    HW1  983   2.148   1.391   0.992 -0.0714 -0.1601 -0.7382
  281SOL    HW2  984   2.196   1.279   1.082  0.4622  1.4960  1.1024
  282SOL     OW  985   2.392   3.086   0.828  0.5745  0.5025  1.1007
  282SOL    HW1  986   2.451   3.155   0.800  0.7171  0.8604  2.2386
  282SOL    HW2  987   2.304   3.120   0.812  0.6392  1.0788  1.9317
  283SOL     OW  988   0.107   2.215   0.149 -0.2165  0.2858 -0.0724
  283SOL    HW1  989   0.092   2.249   0.061 -1.8100 -1.8373 -0.7175
  283SOL    HW2  990   0.187   2.257   0.179 -0.8414  2.7340 -1.6358
  284SOL     OW  991   0.314   1.662   1.317 -0.0595  0.3959 -0.3829
  284SOL    HW1  992   0.301   1.721   1.243 -0.7821  0.0750 -0.5293
  284SOL    HW2  993   0.243   1.598   1.309  0.7716 -0.5632 -0.2986
  285SOL     OW  994   2.894   0.346   2.314  0.0079  0.0304 -0.3757
  285SOL    HW1  995   2.814   0.391   2.341  0.4093  0.9679 -0.6975
  285SOL    HW2  996   2.901   0.363   2.220 -0.0814 -1.1264 -0.6058
  286SOL     OW  997   2.027   1.456   0.216 -0.0726  0.9596 -0.0580
  286SOL    HW1  998   2.050   1.416   0.132 -0.4285  0.8317 -0.0922
  286SOL    HW2  999   1.948   1.410   0.245  0.3562  0.6163  0.6173
  287SOL     OW 1000   2.555   0.043   3.037  0.4376 -0.1081 -0.5596
  287SOL    HW1 1001   2.569   0.124   2.988 -0.9505  0.3035 -0.3203
  287SOL    HW2 1002   2.554   0.070   3.129 -0.0090 -0.4044 -0.4754
  288SOL     OW 1003   1.374   0.141   1.090  0.3625 -0.1054 -0.6469
  288SOL    HW1 1004   1.310   0.104   1.029 -1.4148 -1.0319  1.5838
  288SOL    HW2 1005   1.455   0.094   1.072 -0.2993 -0.8422 -1.8095
  289SOL     OW 1006   1.033   2.239   1.407 -0.2551  0.2408 -0.7054
  289SOL    HW1 1007   1.008   2.205   1.322  1.3783  1.5217 -1.7551
  289SOL    HW2 1008   1.067   2.326   1.389 -0.4954  0.8109  1.3593
  290SOL     OW 1009   2.706   0.805   2.363 -0.2543  0.1397  0.3261
  290SOL    HW1 1010   2.790   0.847   2.346 -0.3004  0.2425  0.3549
  290SOL    HW2 1011   2.672   0.782   2.277  0.0183 -0.3186  0.3371
  291SOL     OW 1012   1.784   2.584   1.130 -0.4425 -0.3701 -0.2180
  291SOL    HW1 1013   1.835   2.503   1.125  0.3412  0.1453 -0.8423
  291SOL    HW2 1014   1.693   2.556   1.118 -0.4376 -1.4193  1.8349
  292SOL     OW 1015   1.363   3.178   0.062  0.0496 -0.1811  0.6461
  292SOL    HW1 1016   1.375   3.154  -0.030 -0.0322  1.4138  0.1918
  292SOL    HW2 1017   1.277   3.141   0.085 -0.7243  0.8379 -0.4452
  293SOL     OW 1018   2.832   1.943   2.219  0.3818  0.0674  0.6096
  293SOL    HW1 1019   2.871   1.899   2.144 -0.8132 -0.6957  0.4126
  293SOL    HW2 1020   2.906   1.984   2.264  1.2403 -0.3312 -0.4027
  294SOL     OW 1021   2.651   0.315   2.962 -0.1147  0.8292 -0.0557
  294SOL    HW1 1022   2.702   0.359   3.030  1.8561  1.0182 -1.5734
  294SOL    HW2 1023   2.692   0.342   2.880 -1.3792 -0.6826 -1.2529
  295SOL     OW 1024   1.747   1.822   2.105 -0.1312 -0.4463  0.2172
  295SOL    HW1 1025   1.815   1.876   2.145 -1.2522  0.0056  1.5909
  295SOL    HW2 1026   1.667   1.873   2.113 -0.7936 -1.2924 -0.6617
  296SOL     OW 1027   2.834   2.547   2.971  0.1714 -0.1231 -0.2508
  296SOL    HW1 1028   2.755   2.578   3.014 -0.5373 -2.2555  0.1117
  296SOL    HW2 1029   2.903   2.604   3.004 -1.1021  1.4322 -0.1418
  297SOL     OW 1030   3.580   0.883   3.275  0.9874 -0.4300 -1.0580
  297SOL    HW1 1031   3.534   0.807   3.312  0.8678 -0.2221 -0.7754
  297SOL    HW2 1032   3.669   0.852   3.260  2.2959  0.5697  3.2794
  298SOL     OW 1033   2.671   0.713   2.081  0.4402  0.1951  0.7664
  298SOL    HW1 1034   2.630   0.639   2.125  1.8795 -1.1137 -0.0429
  298SOL    HW2 1035   2.610   0.736   2.011 -0.4221  0.3760  1.5503
  299SOL     OW 1036   0.164   3.704   0.917 -0.6931  0.5757 -0.4251
  299SOL    HW1 1037   0.216   3.784   0.908 -0.1283  0.2864  0.1876
  299SOL    HW2 1038   0.206   3.642   0.858 -0.7892  0.5682 -0.4845
  300SOL     OW 1039   3.531   0.673   3.412  0.2449 -0.0485 -0.0276
  300SOL    HW1 1040   3.536   0.581   3.439  0.2734  0.1864  0.7845
  300SOL    HW2 1041   3.463   0.711   3.467 -0.8622  0.0772 -1.4197
  301SOL     OW 1042   0.362   0.179   0.959 -1.0996  0.5416  0.2527
  301SOL    HW1 1043   0.387   0.267   0.988 -0.2525  0.4212 -0.1063
  301SOL    HW2 1044   0.439   0.145   0.915 -0.7799 -1.0873  1.9175
  302SOL     OW 1045   2.671   1.349   2.164  0.2605 -0.0096  0.7794
  302SOL    HW1 1046   2.727   1.426   2.175  0.0744  0.2680 -0.1464
  302SOL    HW2 1047   2.616   1.370   2.088 -0.0838 -0.8799  0.7786
  303SOL     OW 1048   2.752   3.641   3.214 -0.1790 -0.0967 -0.1962
  303SOL    HW1 1049   2.720   3.712   3.268 -0.1309 -0.0652 -0.2091
  303SOL    HW2 1050   2.797   3.684   3.141 -1.3039 -0.1002 -0.9305
  304SOL     OW 1051   3.576   2.543   1.933 -0.0724 -0.6362 -0.2828
  304SOL    HW1 1052   3.491   2.517   1.967 -0.0137  0.6453  0.9288
  304SOL    HW2 1053   3.559   2.565   1.841 -1.8064  2.5812  0.6285
  305SOL     OW 1054   0.681   3.030   1.184  0.2180 -0.2775 -0.1403
  305SOL    HW1 1055   0.628   2.959   1.222 -0.7109  0.2893 -0.3391
  305SOL    HW2 1056   0.617   3.095   1.156  1.0605  0.7052  0.1490
  306SOL     OW 1057   2.422   2.858   0.350 -0.1670 -0.0319  0.5105
  306SOL    HW1 1058   2.378   2.911   0.284  1.4327  1.8005  0.8222
  306SOL    HW2 1059   2.385   2.887   0.433  1.4338  1.4542  0.7676
  307SOL     OW 1060   0.101   2.791   0.311  0.9143 -0.2829 -0.2903
  307SOL    HW1 1061   0.078   2.841   0.389 -1.2551  0.1304 -1.1340
  307SOL    HW2 1062   0.117   2.858   0.244 -0.8540 -0.6535 -1.1211
  308SOL     OW 1063   3.157   2.617   0.673  0.3744 -1.2704  0.1954
  308SOL    HW1 1064   3.169   2.541   0.615  0.7272 -0.3107 -1.0143
  308SOL    HW2 1065   3.161   2.693   0.615  2.5991 -0.1412  1.7115
  309SOL     OW 1066   0.473   3.446   0.788  0.3892  0.3055  0.2078
  309SOL    HW1 1067   0.383   3.414   0.782 -0.3816  2.2770  0.5208
  309SOL    HW2 1068   0.475   3.522   0.731  1.8613  0.3103  0.2446
  310SOL     OW 1069   1.502   2.361   2.226  0.0426 -0.2213 -0.4335
  310SOL    HW1 1070   1.481   2.291   2.288 -0.1298  0.5117  0.3428
  310SOL    HW2 1071   1.494   2.442   2.276 -0.1959  0.3975 -1.4363
  311SOL     OW 1072   1.519   1.724   0.056  0.0818  0.0736  0.2597
  311SOL    HW1 1073   1.607   1.733   0.091  0.3265 -0.2939 -0.2492
  311SOL    HW2 1074   1.488   1.640   0.091 -0.3870  0.5789  1.1055
  312SOL     OW 1075   1.116   2.376   1.697  0.5831 -0.1741  0.1556
  312SOL    HW1 1076   1.072   2.312   1.752 -0.0062 -0.9027 -1.1024
  312SOL    HW2 1077   1.202   2.388   1.737 -0.0845 -0.0953  1.6269
  313SOL     OW 1078   0.402   2.104   0.132  0.6275 -0.3092 -0.2209
  313SOL    HW1 1079   0.325   2.055   0.101  0.8555 -1.0248  0.3343
  313SOL    HW2 1080   0.433   2.151   0.054  0.3306 -0.9483 -0.7318
  314SOL     OW 1081   1.124   3.734   3.562 -0.2982  0.2386 -0.2243
  314SOL    HW1 1082   1.200   3.688   3.597 -0.8980 -1.4438 -1.0530
  314SOL    HW2 1083   1.101   3.686   3.483 -1.0579  1.9014 -1.0716
  315SOL     OW 1084   1.450   2.173   0.341  0.5297 -0.7269 -0.5616
  315SOL    HW1 1085   1.456   2.081   0.315 -0.1797 -0.8733 -0.2498
  315SOL    HW2 1086   1.405   2.170   0.426  0.5827 -0.1010 -0.5113
  316SOL     OW 1087   1.748   1.617   1.785  0.5499  0.0971  0.0389
  316SOL    HW1 1088   1.814   1.581   1.844  0.1129  1.4562  1.4314
  316SOL    HW2 1089   1.668   1.568   1.807  0.8027 -0.7415 -0.8315
  317SOL     OW 1090   0.437   3.024   0.339  0.4231 -0.3457 -0.5890
  317SOL    HW1 1091   0.377   3.027   0.413 -1.0314 -1.0274 -1.6808
  317SOL    HW2 1092   0.499   2.954   0.361  0.2819 -0.2344  0.1804
  318SOL     OW 1093   0.554   0.639   3.048  0.5687 -0.8448  0.3258
  318SOL    HW1 1094   0.626   0.692   3.012 -0.8611  0.6062 -0.5632
  318SOL    HW2 1095   0.493   0.704   3.083  0.5188 -2.1148  2.8222
  319SOL     OW 1096   0.561   0.360   0.534 -0.1302  0.3887 -0.7085
  319SOL    HW1 1097   0.502   0.284   0.542  2.4767 -1.6811  0.3219
  319SOL    HW2 1098   0.595   0.354   0.445 -0.9486  1.1955 -1.0847
  320SOL     OW 1099   0.003   1.391   1.686 -0.8030  0.0096 -0.3626
  320SOL    HW1 1100   0.037   1.326   1.749  0.1271  0.3671 -0.4831
  320SOL    HW2 1101   0.023   1.475   1.727 -2.5999  0.2504  0.1091
  321SOL     OW 1102   0.700   1.124   2.495  0.0259 -0.1754  1.0715
  321SOL    HW1 1103   0.756   1.056   2.457  1.7639  1.2610  0.9478
  321SOL    HW2 1104   0.611   1.090   2.484  0.7908 -2.1062  0.4000
  322SOL     OW 1105   1.805   2.315   0.911  0.0743 -0.5511  0.2652
  322SOL    HW1 1106   1.763   2.254   0.849  2.1368 -0.7952 -1.0044
  322SOL    HW2 1107   1.799   2.400   0.868 -0.5444 -0.2860  0.8551
  323SOL     OW 1108   0.084   2.516   2.708  0.0797 -0.0106  0.5398
  323SOL    HW1 1109   0.041   2.434   2.682 -1.1786  0.8826 -0.3749
  323SOL    HW2 1110   0.177   2.499   2.697 -0.2160 -0.9771 -0.7466
  324SOL     OW 1111   0.333   2.006   3.580  0.5246 -0.1014 -0.2692
  324SOL    HW1 1112   0.384   1.928   3.603  0.9946  0.4325  0.5373
  324SOL    HW2 1113   0.384   2.047   3.510 -0.3774 -1.1744 -1.6151
  325SOL     OW 1114   2.812   3.353   1.579 -0.1765 -0.2890 -0.2840
  325SOL    HW1 1115   2.738   3.322   1.632 -0.3355 -1.2096 -1.0292
  325SOL    HW2 1116   2.878   3.284   1.588  0.6013  0.5145  0.3573
  326SOL     OW 1117   2.772   2.318   3.201  0.6869  0.0334  0.3394
  326SOL    HW1 1118   2.730   2.268   3.131  0.6452 -0.7886  0.9317
  326SOL    HW2 1119   2.700   2.365   3.243  0.9021  1.7043 -1.0694
  327SOL     OW 1120   0.498   2.822   2.293 -0.0341 -0.2262 -0.1997
  327SOL    HW1 1121   0.488   2.734   2.257 -1.3306 -0.3814  0.4577
  327SOL    HW2 1122   0.593   2.834   2.302  0.1550 -2.5640  2.0543
  328SOL     OW 1123   2.505   3.016   1.402  0.1709 -0.3682  0.5483
  328SOL    HW1 1124   2.441   2.980   1.464  0.8497 -2.0124  0.3395
  328SOL    HW2 1125   2.518   2.947   1.338  0.5686  0.7612 -0.6395
  329SOL     OW 1126   1.431   1.118   3.350  0.0348 -0.0042 -0.4629
  329SOL    HW1 1127   1.376   1.167   3.411 -0.6063 -0.0350 -1.0047
  329SOL    HW2 1128   1.375   1.045   3.322  0.8738 -0.8916  0.1162
  330SOL     OW 1129   0.397   1.503   2.872 -0.3487  0.0365 -0.0063
  330SOL    HW1 1130   0.302   1.506   2.864 -0.3200  2.0659 -0.2350
  330SOL    HW2 1131   0.424   1.595   2.871  1.6961 -0.5149 -0.8286
  331SOL     OW 1132   0.696   0.263   1.725  0.0295 -0.0946  0.7280
  331SOL    HW1 1133   0.789   0.252   1.704  0.3610 -0.2981  2.1894
  331SOL    HW2 1134   0.683   0.358   1.726 -0.0958 -0.0723 -0.6775
  332SOL     OW 1135   2.382   1.124   0.914 -0.5072 -0.3702 -0.6676
  332SOL    HW1 1136   2.298   1.078   0.916 -0.1205 -1.3276 -2.7261
  332SOL    HW2 1137   2.378   1.177   0.835 -0.3173  2.0305  0.8467
  333SOL     OW 1138   0.271   3.067   2.757  0.3775 -0.0968 -0.4294
  333SOL    HW1 1139   0.286   3.132   2.826 -0.7400 -0.8288  0.5477
  333SOL    HW2 1140   0.177   3.074   2.738  0.6973  0.2337 -2.0606
  334SOL     OW 1141   2.340   1.628   0.042  0.6644 -0.3992  0.2271
  334SOL    HW1 1142   2.342   1.691  -0.030 -1.5728  1.3956  1.6311
  334SOL    HW2 1143   2.405   1.661   0.104 -0.7552  0.7908  1.1212
  335SOL     OW 1144   3.467   0.100   1.772  0.1221 -0.6161  0.3650
  335SOL    HW1 1145   3.527   0.059   1.834 -0.0690 -2.6966 -0.7434
  335SOL    HW2 1146   3.508   0.087   1.687 -0.8114 -0.0452 -0.1828
  336SOL     OW 1147   1.013   0.176   2.847  0.4109 -0.0130 -0.6217
  336SOL    HW1 1148   0.977   0.259   2.815 -0.2129 -1.0605 -2.8207
  336SOL    HW2 1149   1.100   0.171   2.808  1.6368  0.8047  1.7536
  337SOL     OW 1150   0.351   0.798   3.096  0.3466  0.8733  0.3317
  337SOL    HW1 1151   0.319   0.719   3.054  2.1303  0.6343 -0.6699
  337SOL    HW2 1152   0.368   0.859   3.023 -0.3470  1.9457  1.0312
  338SOL     OW 1153   2.425   1.608   1.775 -0.1824 -0.1006 -0.4734
  338SOL    HW1 1154   2.461   1.684   1.729 -1.1149 -0.1632 -1.3384
  338SOL    HW2 1155   2.381   1.557   1.707  0.5710 -1.5240  0.0563
  339SOL     OW 1156   0.174   0.767   0.403 -0.4090 -0.6633  0.4044
  339SOL    HW1 1157   0.205   0.677   0.418 -2.8784 -1.5943  0.3281
  339SOL    HW2 1158   0.151   0.769   0.310 -0.3784  0.0678  0.4103
  340SOL     OW 1159   2.572   1.103   2.243  0.0486 -0.0786  0.4421
  340SOL    HW1 1160   2.596   1.162   2.171 -0.3719  1.0795  1.2326
  340SOL    HW2 1161   2.488   1.067   2.217 -0.9976  1.7224  1.1184
  341SOL     OW 1162   2.849   2.581   1.538  0.1378 -0.0618 -0.2597
  341SOL    HW1 1163   2.886   2.666   1.561  0.7402 -0.0854 -1.0793
  341SOL    HW2 1164   2.838   2.585   1.443  0.6720 -1.0841 -0.3801
  342SOL     OW 1165   2.396   3.056   1.893  0.2829  0.3736  0.1201
  342SOL    HW1 1166   2.486   3.044   1.923  0.2574 -1.1735 -0.3334
  342SOL    HW2 1167   2.356   3.113   1.959  1.1553 -0.2040  1.1735
  343SOL     OW 1168   3.162   2.111   3.067  0.0723  0.5778 -0.8681
  343SOL    HW1 1169   3.138   2.029   3.112 -1.1224  0.8208 -1.0261
  343SOL    HW2 1170   3.209   2.161   3.133 -0.8696  0.5487 -0.1473
  344SOL     OW 1171   3.274   0.258   1.666  0.4550  0.3050 -0.5193
  344SOL    HW1 1172   3.357   0.212   1.682 -0.1577 -0.4261  0.7000
  344SOL    HW2 1173   3.215   0.190   1.631  0.0858  0.5987 -0.4699
  345SOL     OW 1174   0.313   1.548   1.984 -0.0609  0.2451 -0.5619
  345SOL    HW1 1175   0.271   1.479   2.036 -0.7860  1.8345  1.0853
  345SOL    HW2 1176   0.248   1.573   1.919  0.7388 -1.5530 -2.1231
  346SOL     OW 1177   2.151   1.704   3.579 -0.2516 -0.2120 -0.1959
  346SOL    HW1 1178   2.154   1.756   3.660 -0.1237 -2.0069  1.0063
  346SOL    HW2 1179   2.241   1.705   3.547 -0.0415 -0.5034  0.3681
  347SOL     OW 1180   3.286   1.963   1.629  0.1257  0.7113 -0.5206
  347SOL    HW1 1181   3.371   1.922   1.613 -0.3875 -1.1220  1.0177
  347SOL    HW2 1182   3.298   2.017   1.707 -0.2001  0.1002 -0.0369
  348SOL     OW 1183   0.123   0.168   2.727 -0.0417  0.1157  0.2365
  348SOL    HW1 1184   0.138   0.227   2.801 -2.7416  2.0687 -0.6078
  348SOL    HW2 1185   0.193   0.190   2.665 -0.2857  1.6146  0.4564
  349SOL     OW 1186   0.699   0.991   2.148 -0.5216  0.4405 -0.4812
  349SOL    HW1 1187   0.745   1.064   2.107 -0.0198 -0.1994 -1.0867
  349SOL    HW2 1188   0.681   0.931   2.076  1.9293 -1.5392  0.4155
  350SOL     OW 1189   3.651   1.671   2.214  0.2060  0.6205  0.1750
  350SOL    HW1 1190   3.719   1.639   2.273 -0.6265 -0.5160  0.5434
  350SOL    HW2 1191   3.691   1.667   2.127  1.5297  2.5300  0.6186
  351SOL     OW 1192   3.720   0.002   3.415 -0.1679 -0.3825 -0.0402
  351SOL    HW1 1193   3.753  -0.031   3.498 -0.2267  0.5121  0.3423
  351SOL    HW2 1194   3.695   0.093   3.433 -0.3098 -0.2243 -0.9956
  352SOL     OW 1195   1.374   2.430   0.786  0.2969 -0.1159  0.2799
  352SOL    HW1 1196   1.302   2.477   0.827  0.3895  1.9299 -1.7265
  352SOL    HW2 1197   1.428   2.400   0.859 -1.6793 -0.2683  1.7496
  353SOL     OW 1198   1.567   1.161   0.279 -0.3797 -0.3711  0.4834
  353SOL    HW1 1199   1.499   1.190   0.339  0.5547  1.3879  0.7520
  353SOL    HW2 1200   1.624   1.105   0.332  0.2755  0.9337  1.2049
  354SOL     OW 1201   2.626   2.113   1.209 -0.8008 -0.0851  0.7837
  354SOL    HW1 1202   2.612   2.019   1.197 -0.5126 -0.0149 -0.2014
  354SOL    HW2 1203   2.715   2.128   1.178 -0.9483  0.5546  0.6655
  355SOL     OW 1204   3.355   1.315   3.186 -0.3905 -0.1970  0.0083
  355SOL    HW1 1205   3.380   1.407   3.178 -2.0047  0.3713  1.0410
  355SOL    HW2 1206   3.351   1.283   3.096  0.2385  0.7043 -0.3614
  356SOL     OW 1207   1.462   2.605   2.363  0.9814 -0.5887 -0.1608
  356SOL    HW1 1208   1.372   2.639   2.363  1.2257  0.1514 -1.6713
  356SOL    HW2 1209   1.511   2.669   2.415  0.3827 -1.8487  2.0511
  357SOL     OW 1210   1.845   1.534   0.623  0.0072 -0.5753 -0.2419
  357SOL    HW1 1211   1.775   1.469   0.634 -0.4180 -0.0602  0.1688
  357SOL    HW2 1212   1.824   1.579   0.542  0.5261 -1.2148 -0.7377
  358SOL     OW 1213   3.327   1.466   1.245 -0.1559  0.3244  0.4517
  358SOL    HW1 1214   3.300   1.428   1.162  2.4536 -0.0308 -0.3168
  358SOL    HW2 1215   3.410   1.423   1.266 -0.0868  1.3517  2.5814
  359SOL     OW 1216   3.597   3.714   1.980  0.1398  0.4049  0.6991
  359SOL    HW1 1217   3.543   3.648   2.024  2.5829 -2.9597 -0.8855
  359SOL    HW2 1218   3.629   3.769   2.052  0.1805 -1.8991  2.5952
  360SOL     OW 1219   3.323   1.665   2.769  0.4276  0.2315 -0.3235
  360SOL    HW1 1220   3.291   1.604   2.704  0.8073  0.2196 -0.5005
  360SOL    HW2 1221   3.266   1.651   2.845  1.7352 -1.7626  0.3715
  361SOL     OW 1222   2.929   3.329   2.884 -0.1483 -0.1315  0.0597
  361SOL    HW1 1223   2.855   3.308   2.941  0.5964  1.3663  1.6577
  361SOL    HW2 1224   2.932   3.256   2.822 -0.8077 -2.0396  2.1254
  362SOL     OW 1225   1.692   1.866   0.619  0.1071 -0.0724  0.0832
  362SOL    HW1 1226   1.632   1.792   0.609  1.7232 -1.5113  0.5469
  362SOL    HW2 1227   1.731   1.877   0.532 -0.9612  1.0264 -0.2836
  363SOL     OW 1228   3.262   2.172   2.540 -0.5882 -0.5264  0.1859
  363SOL    HW1 1229   3.272   2.152   2.447  1.7620 -1.5379  0.5962
  363SOL    HW2 1230   3.274   2.088   2.584 -0.7906  0.0901  1.4695
  364SOL     OW 1231   2.646   2.128   0.240  0.0324 -0.1991  0.4876
  364SOL    HW1 1232   2.611   2.217   0.248  0.7551  0.1817 -0.3813
  364SOL    HW2 1233   2.588   2.085   0.177 -0.7594 -0.5845  1.4714
  365SOL     OW 1234   2.870   1.530   2.797  0.2080  0.4711 -0.3658
  365SOL    HW1 1235   2.839   1.620   2.808 -0.0578  0.2051  1.4881
  365SOL    HW2 1236   2.813   1.492   2.730 -0.9532  1.1298  0.2213
  366SOL     OW 1237   3.126   1.090   1.295 -0.2758  0.5246 -0.2797
  366SOL    HW1 1238   3.181   1.053   1.363 -1.5531  0.8791  1.0029
  366SOL    HW2 1239   3.043   1.043   1.302 -0.4252  0.5324 -1.6389
  367SOL     OW 1240   1.606   0.905   3.452 -0.2644  0.0979 -0.3708
  367SOL    HW1 1241   1.549   0.976   3.425  0.5611  1.4168  1.1943
  367SOL    HW2 1242   1.683   0.913   3.396 -0.9137 -0.7372 -1.4324
  368SOL     OW 1243   0.299   3.693   2.553 -0.4944  0.0005 -0.6721
  368SOL    HW1 1244   0.271   3.750   2.624 -0.9816  0.0919 -0.9368
  368SOL    HW2 1245   0.392   3.678   2.569 -0.5592  0.1830 -0.1292
  369SOL     OW 1246   3.224   2.411   3.531 -0.0921  0.1493 -0.0768
  369SOL    HW1 1247   3.149   2.354   3.514 -1.3843  1.4773  0.9032
  369SOL    HW2 1248   3.253   2.440   3.444  1.1762 -2.6201 -0.6689
  370SOL     OW 1249   2.499   0.598   2.703  0.2984  0.1141 -0.2034
  370SOL    HW1 1250   2.542   0.664   2.648  0.2872 -0.2575 -0.6673
  370SOL    HW2 1251   2.521   0.624   2.792  0.2143  0.7985 -0.3727
  371SOL     OW 1252   0.154   1.214   0.084 -0.5583 -0.5740 -0.7210
  371SOL    HW1 1253   0.122   1.303   0.070 -2.1115 -0.9297  0.3458
  371SOL    HW2 1254   0.239   1.212   0.040  0.9671  2.3555  1.7109
  372SOL     OW 1255   1.067   0.741   0.541  0.0439  0.4275  0.1414
  372SOL    HW1 1256   0.975   0.746   0.567  0.1407  1.2756  0.3666
  372SOL    HW2 1257   1.080   0.817   0.485  0.3916 -0.1951 -0.6385
  373SOL     OW 1258   2.864   2.914   1.363  0.9378 -0.0480 -0.4591
  373SOL    HW1 1259   2.841   2.919   1.271  1.6723 -0.6784 -0.6809
  373SOL    HW2 1260   2.958   2.898   1.364  1.4670  2.6248  0.4315
  374SOL     OW 1261   0.391   1.009   2.903 -0.0028  0.4601 -0.0782
  374SOL    HW1 1262   0.432   1.095   2.918 -0.2689  1.0298 -2.1999
  374SOL    HW2 1263   0.399   0.996   2.808 -2.1680 -0.7408 -0.1461
  375SOL     OW 1264   1.007   0.878   1.393 -0.7006 -0.0712  0.5113
  375SOL    HW1 1265   1.060   0.825   1.453  0.4029  0.2290 -0.1626
  375SOL    HW2 1266   0.916   0.860   1.418 -0.3103  1.9312  3.9092
  376SOL     OW 1267   1.576   0.937   0.652 -0.4716  0.2445  0.0244
  376SOL    HW1 1268   1.665   0.944   0.686 -0.8954  0.6338  1.0814
  376SOL    HW2 1269   1.536   1.021   0.672 -1.5328 -0.4455  0.9170
  377SOL     OW 1270   2.304   0.828   2.411  0.0113  0.3646  0.4216
  377SOL    HW1 1271   2.313   0.788   2.324  0.7256  0.2248  0.5525
  377SOL    HW2 1272   2.249   0.905   2.396 -0.8595 -0.3125  0.0574
  378SOL     OW 1273   3.116   1.965   2.270 -0.5022 -0.2888 -0.3696
  378SOL    HW1 1274   3.206   1.991   2.250 -0.7995 -0.0791 -1.5094
  378SOL    HW2 1275   3.103   1.883   2.222 -0.5643 -0.9315  0.7131
  379SOL     OW 1276   3.599   0.119   2.473 -0.3216  0.3940  0.7687
  379SOL    HW1 1277   3.534   0.132   2.404  0.5642  0.2283 -0.1209
  379SOL    HW2 1278   3.593   0.027   2.496 -1.3240  0.6560  1.6701
  380SOL     OW 1279   0.153   3.471   0.293  0.0322  0.4606 -0.0703
  380SOL    HW1 1280   0.133   3.454   0.201 -0.2188 -0.6247  0.1647
  380SOL    HW2 1281   0.075   3.441   0.340  0.1619  0.9965  0.4948
  381SOL     OW 1282   3.350   0.058   0.071  0.4132  0.0342  0.6384
  381SOL    HW1 1283   3.387   0.038  -0.014  0.8426 -1.2776  1.1168
  381SOL    HW2 1284   3.289   0.130   0.054  1.0306  0.2813 -0.6390
  382SOL     OW 1285   3.073   0.424   0.975 -0.0766  0.1908 -0.2820
  382SOL    HW1 1286   2.986   0.464   0.980  0.2146  1.2675 -2.6989
  382SOL    HW2 1287   3.057   0.336   0.941 -0.2362  0.4202 -0.8154
  383SOL     OW 1288   1.649   2.528   3.652  0.2893  0.8513  0.6070
  383SOL    HW1 1289   1.600   2.521   3.571  1.2002  2.5164 -0.1377
  383SOL    HW2 1290   1.596   2.482   3.717 -0.2333 -0.8796 -1.0011
  384SOL     OW 1291   2.426   2.486   2.240 -1.0239  0.4176  0.5403
  384SOL    HW1 1292   2.474   2.419   2.191  1.3434  1.3290  1.4664
  384SOL    HW2 1293   2.374   2.531   2.174 -1.2459 -1.1313 -0.3893
  385SOL     OW 1294   1.743   1.745   2.666  0.0691 -0.0137  0.2804
  385SOL    HW1 1295   1.699   1.660   2.671  0.1491 -0.0621  0.1578
  385SOL    HW2 1296   1.819   1.736   2.724  1.9294 -1.1285 -2.1836
  386SOL     OW 1297   0.527   1.525   3.319 -0.0160 -0.4212  0.3446
  386SOL    HW1 1298   0.556   1.611   3.351  1.9455 -0.5296 -0.9872
  386SOL    HW2 1299   0.597   1.496   3.260 -1.6267 -1.9891 -0.9165
  387SOL     OW 1300   0.838   0.864   1.119  0.0005 -0.0854  0.0386
  387SOL    HW1 1301   0.752   0.824   1.103 -0.5823  0.6952  1.1730
  387SOL    HW2 1302   0.828   0.954   1.089  0.6341 -0.1567 -0.4061
  388SOL     OW 1303   0.119   2.395   1.968  1.0599  0.3624 -0.4120
  388SOL    HW1 1304   0.025   2.407   1.961  1.0596 -0.0694 -1.3368
  388SOL    HW2 1305   0.132   2.339   2.044  0.6881  1.7190  0.6784
  389SOL     OW 1306   3.630   2.563   3.169  0.5692  0.4950  0.1613
  389SOL    HW1 1307   3.595   2.575   3.081  3.3864  0.8568 -1.0268
  389SOL    HW2 1308   3.618   2.469   3.186  0.4187  0.3201 -0.8219
  390SOL     OW 1309   2.316   1.254   0.286 -0.2844 -0.0234  0.7027
  390SOL    HW1 1310   2.240   1.200   0.265 -0.3474 -0.0735  1.0517
  390SOL    HW2 1311   2.280   1.330   0.330 -0.2984  0.8286 -0.7189
  391SOL     OW 1312   1.714   1.574   3.131  0.0241 -0.0109  0.0438
  391SOL    HW1 1313   1.772   1.585   3.056  0.0474 -0.4876 -0.0119
  391SOL    HW2 1314   1.674   1.488   3.117 -1.3969  0.7036 -0.4003
  392SOL     OW 1315   1.601   2.653   2.085 -0.3492  0.3572 -0.0994
  392SOL    HW1 1316   1.552   2.640   2.166 -0.0582 -1.4476 -0.1603
  392SOL    HW2 1317   1.559   2.593   2.022  1.3061 -0.5577 -0.4062
  393SOL     OW 1318   3.487   2.860   1.882 -0.1792  0.2374 -0.4776
  393SOL    HW1 1319   3.510   2.931   1.942 -1.0155 -0.8653  1.2271
  393SOL    HW2 1320   3.570   2.835   1.842 -0.0407  3.0969 -2.3072
  394SOL     OW 1321   1.247   1.377   0.138  0.4914  0.4400  0.1578
  394SOL    HW1 1322   1.178   1.316   0.112 -1.3715  1.8102  1.6113
  394SOL    HW2 1323   1.264   1.430   0.060  0.0401 -0.0319 -0.2655
  395SOL     OW 1324   0.402   3.394   2.695  0.0389  0.5442  0.6640
  395SOL    HW1 1325   0.422   3.351   2.612  0.5667  1.2784  0.4016
  395SOL    HW2 1326   0.394   3.486   2.673  0.1124  0.7368  1.4212
  396SOL     OW 1327   0.554   3.215   2.924  0.5181  0.1508 -0.2146
  396SOL    HW1 1328   0.464   3.238   2.948  0.0328 -0.3431 -1.4564
  396SOL    HW2 1329   0.559   3.120   2.941 -0.8714 -0.9721 -4.6913
  397SOL     OW 1330   0.923   2.213   3.610 -0.0356 -0.4326 -0.2372
  397SOL    HW1 1331   0.914   2.304   3.639  2.2062 -0.1062 -0.3862
  397SOL    HW2 1332   0.962   2.167   3.684  0.1721 -0.9434 -0.6542
  398SOL     OW 1333   1.967   1.251   0.531 -0.4106  0.0818  0.1521
  398SOL    HW1 1334   2.045   1.265   0.477 -1.2443 -0.5128 -1.2751
  398SOL    HW2 1335   1.911   1.326   0.510 -0.4070  0.2805  0.8407
  399SOL     OW 1336   2.708   0.157   0.312  0.5692 -0.0645  0.3462
  399SOL    HW1 1337   2.779   0.143   0.374  1.3451 -4.0639 -1.1331
  399SOL    HW2 1338   2.749   0.203   0.239  1.3891 -1.1441  0.0915
  400SOL     OW 1339   0.532   3.329   1.902 -0.4585  0.1205 -0.3428
  400SOL    HW1 1340   0.535   3.268   1.829 -0.3625 -0.0063 -0.2341
  400SOL    HW2 1341   0.527   3.416   1.862 -3.1906 -0.0357 -0.5414
  401SOL     OW 1342   0.176   3.048   0.124 -0.1221  0.8619 -0.4253
  401SOL    HW1 1343   0.262   3.021   0.157 -0.3600 -0.1717 -0.6223
  401SOL    HW2 1344   0.192   3.132   0.081  0.8636  0.4966 -0.7942
  402SOL     OW 1345   3.122   2.857   1.330  0.1716 -0.1272  0.9628
  402SOL    HW1 1346   3.140   2.832   1.239 -2.9436  1.4313 -0.2340
  402SOL    HW2 1347   3.172   2.938   1.343 -1.3685  1.0931 -0.3424
  403SOL     OW 1348   2.704   1.337   1.068  0.4527  0.2747 -0.3856
  403SOL    HW1 1349   2.676   1.304   1.153 -2.6290  2.1823 -0.5120
  403SOL    HW2 1350   2.749   1.263   1.028  0.1304 -1.3593  2.0511
  404SOL     OW 1351   2.267   1.193   3.327 -0.3047 -0.7683  0.4622
  404SOL    HW1 1352   2.296   1.134   3.397  0.0713  0.4636  1.3966
  404SOL    HW2 1353   2.336   1.188   3.261 -0.9046 -2.3217 -0.0861
  405SOL     OW 1354   1.566   2.828   3.455 -0.3581 -0.4407  0.7914
  405SOL    HW1 1355   1.658   2.819   3.428 -0.7563 -1.2637 -0.3396
  405SOL    HW2 1356   1.571   2.870   3.541  0.9780  2.5483 -0.5870
  406SOL     OW 1357   1.768   0.796   1.934  0.2043  0.7729  0.2245
  406SOL    HW1 1358   1.702   0.838   1.879  1.6008  0.0210 -2.1788
  406SOL    HW2 1359   1.818   0.868   1.972  0.5231  1.3385 -1.2212
  407SOL     OW 1360   3.376   0.773   3.628  0.2207 -0.0289  0.0296
  407SOL    HW1 1361   3.305   0.745   3.570  0.3542  0.5268 -0.4185
  407SOL    HW2 1362   3.334   0.830   3.692  0.2497  0.2470 -0.1956
  408SOL     OW 1363   1.333   1.820   2.519 -0.3693  0.1437  0.3874
  408SOL    HW1 1364   1.356   1.728   2.527  1.5001  0.3785 -1.5872
  408SOL    HW2 1365   1.257   1.822   2.460 -0.2736 -0.1120  0.2580
  409SOL     OW 1366   1.506   3.600   2.988  0.2092 -0.1472 -0.3015
  409SOL    HW1 1367   1.494   3.673   2.926 -0.1304  0.2134  0.1861
  409SOL    HW2 1368   1.571   3.633   3.051 -2.3920  1.0686  1.9277
  410SOL     OW 1369   0.073   0.552   3.179 -0.6070  0.4985  0.2868
  410SOL    HW1 1370   0.155   0.549   3.130  0.9742 -0.2193  2.7940
  410SOL    HW2 1371   0.016   0.609   3.128  2.4548  3.5116 -0.1111
  411SOL     OW 1372   1.491   3.027   2.166  0.1587 -0.0102 -0.1462
  411SOL    HW1 1373   1.442   2.966   2.110 -0.2967 -0.8100  1.0719
  411SOL    HW2 1374   1.514   3.100   2.108 -0.5005 -0.6859 -1.3037
  412SOL     OW 1375   2.345   1.967   3.056  0.0064  0.3130 -1.3196
  412SOL    HW1 1376   2.373   2.017   3.133  1.6635  0.1038 -1.7577
  412SOL    HW2 1377   2.426   1.929   3.021 -0.8796 -0.5740 -2.4822
  413SOL     OW 1378   3.072   3.675   1.302  0.3765 -0.3118  0.4671
  413SOL    HW1 1379   2.990   3.719   1.325 -0.7204 -1.7614 -0.4163
  413SOL    HW2 1380   3.124   3.742   1.257  0.0201  0.8451  1.7230
  414SOL     OW 1381   0.051   2.684   0.723 -0.2534 -0.2345  0.0984
  414SOL    HW1 1382   0.085   2.693   0.812 -0.1978  0.7954 -0.0128
  414SOL    HW2 1383   0.068   2.769   0.682 -0.3742 -0.6611 -0.8627
  415SOL     OW 1384   2.167   0.614   2.419  0.0949  0.2085 -0.1022
  415SOL    HW1 1385   2.077   0.646   2.423 -0.8238 -2.3444  1.3094
  415SOL    HW2 1386   2.219   0.693   2.403 -2.3682  1.7236 -1.2526
  416SOL     OW 1387   3.022   2.282   3.345 -0.2584 -0.2387  0.3444
  416SOL    HW1 1388   3.059   2.196   3.365  0.3236 -0.1094 -0.1559
  416SOL    HW2 1389   2.979   2.270   3.260  0.6936  0.2119 -0.2177
  417SOL     OW 1390   0.606   2.741   3.716 -0.0815  0.1529  0.2636
  417SOL    HW1 1391   0.616   2.651   3.687  2.1524 -0.7089  3.2038
  417SOL    HW2 1392   0.519   2.744   3.756  0.6143 -1.4482  2.0949
  418SOL     OW 1393   2.180   1.918   1.659  0.0007 -0.3127 -0.3531
  418SOL    HW1 1394   2.101   1.963   1.689  1.4098  0.6030  2.2563
  418SOL    HW2 1395   2.204   1.964   1.579 -2.3249 -0.9357 -1.5089
  419SOL     OW 1396   1.517   1.091   0.032 -0.0262  0.0613  0.2475
  419SOL    HW1 1397   1.534   1.168  -0.022  0.5401 -1.8241 -2.4582
  419SOL    HW2 1398   1.546   1.116   0.119  1.3935  2.4586 -0.8158
  420SOL     OW 1399   2.634   1.973   0.564 -0.2200  0.0895  0.4040
  420SOL    HW1 1400   2.539   1.980   0.553 -0.0033 -0.8837 -2.8343
  420SOL    HW2 1401   2.666   2.062   0.550 -0.6350  0.6349  2.5001
  421SOL     OW 1402   2.433   1.819   3.583 -0.3098  0.4923 -0.2600
  421SOL    HW1 1403   2.468   1.792   3.498  1.0920 -2.3307  1.0687
  421SOL    HW2 1404   2.507   1.863   3.626 -0.9411  1.6970 -0.3543
  422SOL     OW 1405   1.363   1.316   1.482 -0.6319  0.1011 -0.6036
  422SOL    HW1 1406   1.289   1.356   1.527  0.9294  0.3389  1.9509
  422SOL    HW2 1407   1.401   1.387   1.430 -0.8575  0.5584 -0.1474
  423SOL     OW 1408   0.854   1.170   1.607  0.0957 -0.3559  0.1509
  423SOL    HW1 1409   0.861   1.141   1.698 -1.9693 -1.0191  0.1480
  423SOL    HW2 1410   0.944   1.186   1.580  0.7670 -0.2732  2.2635
  424SOL     OW 1411   0.081   1.947   1.875 -0.0522 -0.2047  0.2634
  424SOL    HW1 1412   0.113   2.012   1.813 -0.8808  0.8202  0.8800
  424SOL    HW2 1413   0.152   1.938   1.939  0.2255 -0.2059 -0.0407
  425SOL     OW 1414   3.114   2.040   3.442 -0.8234  0.2223  0.3157
  425SOL    HW1 1415   3.187   2.062   3.500 -0.6587  1.6529 -0.3924
  425SOL    HW2 1416   3.141   1.958   3.399  0.5420  0.8997 -0.1847
  426SOL     OW 1417   2.348   2.441   2.509 -0.3970 -0.2315 -0.0770
  426SOL    HW1 1418   2.396   2.447   2.427  0.2549 -2.0336  0.1265
  426SOL    HW2 1419   2.374   2.357   2.546 -1.2400  0.2077  1.6268
  427SOL     OW 1420   1.226   1.888   0.128 -0.1612 -0.1302 -0.1812
  427SOL    HW1 1421   1.265   1.882   0.215 -0.5880  0.2835  0.0409
  427SOL    HW2 1422   1.138   1.850   0.138  0.2409 -1.2463 -0.7252
  428SOL     OW 1423   3.232   3.475   0.840 -0.3414 -0.3906  0.7485
  428SOL    HW1 1424   3.152   3.494   0.790  0.9163 -1.3861 -1.8610
  428SOL    HW2 1425   3.296   3.537   0.805  1.5926 -3.5302 -1.8618
  429SOL     OW 1426   1.956   2.489   3.694 -0.1479 -0.9584 -0.0255
  429SOL    HW1 1427   1.973   2.401   3.725 -2.8206 -1.0714  1.3949
  429SOL    HW2 1428   1.905   2.530   3.764 -1.5225  0.7095 -1.8855
  430SOL     OW 1429   0.944   2.607   2.688 -0.0520  0.1012  0.5147
  430SOL    HW1 1430   0.872   2.587   2.748 -0.1348 -1.0069  0.0784
  430SOL    HW2 1431   0.934   2.700   2.668  2.1914  1.6290  5.1210
  431SOL     OW 1432   1.669   0.146   1.015 -0.0084  0.2940  0.4528
  431SOL    HW1 1433   1.757   0.109   1.019 -0.6663 -1.2405  1.5786
  431SOL    HW2 1434   1.634   0.116   0.931  0.2869  0.3639  0.3016
  432SOL     OW 1435   3.392   2.648   0.260  0.1356 -0.5303 -0.5952
  432SOL    HW1 1436   3.364   2.564   0.222  0.2255 -1.8204  1.9899
  432SOL    HW2 1437   3.311   2.688   0.292  0.1877  0.0317 -1.1542
  433SOL     OW 1438   1.307   1.379   3.378 -0.3987  0.2766  0.0028
  433SOL    HW1 1439   1.243   1.417   3.438 -1.2518 -0.0653 -0.6778
  433SOL    HW2 1440   1.262   1.304   3.339  0.2507  0.3117 -0.8383
  434SOL     OW 1441   2.561   0.236   1.170 -0.1793  0.8906  0.0169
  434SOL    HW1 1442   2.603   0.166   1.121  0.6534  2.0496 -0.9639
  434SOL    HW2 1443   2.472   0.240   1.134 -0.3022  0.2299  0.2222
  435SOL     OW 1444   0.176   1.234   3.312 -0.3681  0.3126  0.7938
  435SOL    HW1 1445   0.098   1.182   3.330 -1.3943  1.6193  0.3067
  435SOL    HW2 1446   0.199   1.273   3.397  0.3199 -0.7885  1.1287
  436SOL     OW 1447   1.308   3.378   3.070  0.4086  0.2193  0.5181
  436SOL    HW1 1448   1.256   3.454   3.096 -0.3227  0.0298 -0.3240
  436SOL    HW2 1449   1.243   3.314   3.041  1.0481 -0.5356  0.7323
  437SOL     OW 1450   3.585   3.108   0.741 -0.3288 -0.0430  0.2205
  437SOL    HW1 1451   3.551   3.191   0.773 -0.3273 -0.2601  0.8000
  437SOL    HW2 1452   3.648   3.080   0.808  0.7118  0.1633 -0.6419
  438SOL     OW 1453   3.184   0.241   2.137  0.0068  0.5981  0.1324
  438SOL    HW1 1454   3.185   0.161   2.085  0.1916  0.9983 -0.4953
  438SOL    HW2 1455   3.130   0.219   2.213 -1.7694  0.5029 -1.0679
  439SOL     OW 1456   3.561   0.821   2.771 -0.5961  0.0866 -0.2557
  439SOL    HW1 1457   3.610   0.822   2.689  3.1261 -1.5509  1.7107
  439SOL    HW2 1458   3.542   0.914   2.788  1.1176  0.7475 -1.5764
  440SOL     OW 1459   3.121   0.553   1.645  0.5021 -0.1798 -0.0933
  440SOL    HW1 1460   3.099   0.461   1.637  3.0085 -0.8422 -0.0373
  440SOL    HW2 1461   3.137   0.582   1.556 -0.8421  0.4043 -0.1750
  441SOL     OW 1462   2.270   1.719   3.283 -0.4530  0.3034  0.6112
  441SOL    HW1 1463   2.297   1.636   3.323  0.3411  0.0403 -0.4072
  441SOL    HW2 1464   2.329   1.729   3.207 -1.5108  1.0672 -0.1386
  442SOL     OW 1465   0.546   3.655   2.680  0.1685 -1.2954  0.1749
  442SOL    HW1 1466   0.566   3.669   2.773 -0.4112 -1.1528  0.2791
  442SOL    HW2 1467   0.618   3.600   2.648  1.4622  0.2870  0.2246
  443SOL     OW 1468   0.818   1.945   1.356 -0.0629  0.4783 -0.0321
  443SOL    HW1 1469   0.728   1.940   1.323  0.7121  1.7970 -2.6655
  443SOL    HW2 1470   0.856   1.860   1.334  0.8038  1.7156 -4.1794
  444SOL     OW 1471   0.747   1.359   3.101 -0.2180 -0.0508  0.0547
  444SOL    HW1 1472   0.765   1.433   3.043 -1.9749  0.3853  0.0132
  444SOL    HW2 1473   0.825   1.304   3.094  0.1466  0.6210 -1.7425
  445SOL     OW 1474   2.615   1.186   2.646  0.5208  0.1789  0.2691
  445SOL    HW1 1475   2.634   1.246   2.574  1.4478  0.9293  1.1101
  445SOL    HW2 1476   2.528   1.153   2.626 -0.2669  2.2188  0.0441
  446SOL     OW 1477   2.565   1.397   3.618 -0.6531 -0.4319  0.5301
  446SOL    HW1 1478   2.551   1.453   3.694 -1.2963 -0.9471  0.8082
  446SOL    HW2 1479   2.481   1.351   3.606 -0.6563 -0.1552 -0.6662
  447SOL     OW 1480   3.515   0.676   1.997 -0.2000 -0.0464  0.0819
  447SOL    HW1 1481   3.538   0.586   2.018  0.0336 -0.1370 -0.5351
  447SOL    HW2 1482   3.460   0.670   1.919  1.7960  0.4657 -1.4422
  448SOL     OW 1483   2.001   2.247   2.672 -0.3281  0.5418 -0.0351
  448SOL    HW1 1484   1.997   2.343   2.680 -0.5717  0.4491  1.0308
  448SOL    HW2 1485   2.044   2.233   2.587 -2.1537  1.5860 -1.2120
  449SOL     OW 1486   2.519   3.469   3.155 -0.3925  0.6208  0.3167
  449SOL    HW1 1487   2.482   3.522   3.226 -0.0096  2.7967 -1.0370
  449SOL    HW2 1488   2.610   3.497   3.147  0.6603 -2.1462  1.2359
  450SOL     OW 1489   3.085   0.453   3.155  0.5410 -0.1129 -0.2505
  450SOL    HW1 1490   3.115   0.383   3.212  1.7846  0.4480 -0.1705
  450SOL    HW2 1491   3.160   0.473   3.099  0.3992  1.4943  0.0820
  451SOL     OW 1492   3.423   2.031   1.336  0.4203 -0.2569 -0.4179
  451SOL    HW1 1493   3.401   2.112   1.382 -1.4516 -1.1076  0.2815
  451SOL    HW2 1494   3.461   1.974   1.402 -0.7123 -0.8735 -0.2705
  452SOL     OW 1495   3.720   0.292   0.762  0.2007  0.4514  0.7349
  452SOL    HW1 1496   3.683   0.305   0.849 -1.9296 -1.0348  0.1368
  452SOL    HW2 1497   3.691   0.368   0.712 -0.3425  0.3044  0.8150
  453SOL     OW 1498   2.307   1.400   1.342  0.2196 -0.3976 -0.1311
  453SOL    HW1 1499   2.333   1.311   1.317  0.8603 -0.2778  0.0805
  453SOL    HW2 1500   2.386   1.437   1.381 -0.6168 -0.4217  1.6623
  454SOL     OW 1501   1.412   2.528   1.643  0.2745  0.2162 -0.0265
  454SOL    HW1 1502   1.491   2.513   1.696  1.4151  0.3199 -1.6357
  454SOL    HW2 1503   1.396   2.622   1.650  1.2283  0.4641 -0.9235
  455SOL     OW 1504   1.014   1.431   2.438  1.0316 -0.5741 -0.5112
  455SOL    HW1 1505   1.006   1.341   2.407 -0.7943 -0.5935 -0.0574
  455SOL    HW2 1506   1.075   1.472   2.376  0.5116 -1.6470 -1.7857
  456SOL     OW 1507   2.465   0.131   2.663 -0.2862  0.0788  0.9666
  456SOL    HW1 1508   2.553   0.148   2.630 -0.1309  0.3969  1.5250
  456SOL    HW2 1509   2.472   0.045   2.704 -0.8715 -1.0456 -1.1560
  457SOL     OW 1510   0.581   2.192   3.009  0.1062 -0.1976  0.6925
  457SOL    HW1 1511   0.593   2.105   3.047  3.0301 -0.8441 -1.4322
  457SOL    HW2 1512   0.639   2.249   3.060 -0.3765  0.1451  0.8688
  458SOL     OW 1513   3.260   1.611   0.720 -0.1297  0.1911  1.0305
  458SOL    HW1 1514   3.296   1.698   0.733  0.3950  0.1180  0.1635
  458SOL    HW2 1515   3.276   1.592   0.628  0.6371 -1.2033  1.4167
  459SOL     OW 1516   3.580  -0.014   0.336 -0.3203 -0.6551 -0.0848
  459SOL    HW1 1517   3.571  -0.061   0.419 -1.7398  0.7261  0.5857
  459SOL    HW2 1518   3.567   0.078   0.359  1.0742 -0.0408 -1.5693
  460SOL     OW 1519   2.451   3.244   2.480  0.2456  0.0778  0.1597
  460SOL    HW1 1520   2.441   3.149   2.488 -1.8535  0.2358 -0.1168
  460SOL    HW2 1521   2.526   3.255   2.420  0.6829 -1.3819  0.4019
  461SOL     OW 1522   2.567   0.561   0.474 -0.5079 -0.2632 -0.5444
  461SOL    HW1 1523   2.659   0.558   0.450  0.3702  0.8547  2.2948
  461SOL    HW2 1524   2.527   0.490   0.425  1.3627  0.5945 -3.5795
  462SOL     OW 1525   3.305   3.547   2.676  0.0777  0.9265  0.7665
  462SOL    HW1 1526   3.336   3.574   2.762 -1.6404  1.3123  1.3036
  462SOL    HW2 1527   3.222   3.593   2.665  0.8971  2.0058 -1.7031
  463SOL     OW 1528   3.519   2.901   2.223  0.1389 -0.2507  0.5500
  463SOL    HW1 1529   3.527   2.868   2.312  1.3666 -1.2170  0.1070
  463SOL    HW2 1530   3.510   2.996   2.233  1.9352 -0.1493  1.6566
  464SOL     OW 1531   1.503   0.654   0.843  0.0620  0.0408 -0.4181
  464SOL    HW1 1532   1.463   0.638   0.928  3.1838 -2.0031  0.8514
  464SOL    HW2 1533   1.434   0.636   0.779 -2.3186  1.4355  1.5772
  465SOL     OW 1534   2.561   2.992   3.611 -0.3780  0.2724  0.2135
  465SOL    HW1 1535   2.569   2.906   3.653  1.6523  0.1183 -0.3941
  465SOL    HW2 1536   2.610   2.983   3.529 -0.8693  1.7626 -0.2651
  466SOL     OW 1537   3.011   1.967   0.343  0.1911 -0.3567 -0.2872
  466SOL    HW1 1538   3.023   1.906   0.271  2.5391 -0.8333  0.4392
  466SOL    HW2 1539   3.055   2.047   0.315 -0.1349 -0.0519  0.0572
  467SOL     OW 1540   2.562   0.221   3.666 -0.1583 -0.2447  0.0056
  467SOL    HW1 1541   2.477   0.188   3.694  0.1805 -0.1777  1.1716
  467SOL    HW2 1542   2.544   0.268   3.585 -1.8048  2.3738  1.7171
  468SOL     OW 1543   1.133   3.391   0.214 -0.3604  0.1181 -0.1022
  468SOL    HW1 1544   1.098   3.469   0.257  0.6842  0.1630  0.7168
  468SOL    HW2 1545   1.057   3.345   0.180 -1.3066 -0.1649  2.2095
  469SOL     OW 1546   1.315   3.496   0.569 -0.6057 -0.3115 -0.2991
  469SOL    HW1 1547   1.380   3.426   0.566  1.3004  1.4098 -1.8297
  469SOL    HW2 1548   1.236   3.458   0.530 -0.0198 -1.9234  0.0347
  470SOL     OW 1549   3.508   1.517   0.468  0.0244  0.2033 -0.0281
  470SOL    HW1 1550   3.550   1.594   0.506 -1.5774  0.7493  0.7120
  470SOL    HW2 1551   3.456   1.551   0.396 -0.0182 -0.3189 -0.2515
  471SOL     OW 1552   3.297   0.263   0.646 -0.3596  0.1110 -0.1537
  471SOL    HW1 1553   3.336   0.220   0.721 -2.8865 -2.3844 -0.1156
  471SOL    HW2 1554   3.296   0.196   0.577  0.0591  1.7102 -1.8077
  472SOL     OW 1555   2.876   0.046   2.271  0.3927 -0.3633 -0.1016
  472SOL    HW1 1556   2.788   0.058   2.307  0.3700 -0.6265 -0.0648
  472SOL    HW2 1557   2.934   0.083   2.336  0.3519 -0.8507  0.2143
  473SOL     OW 1558   3.090   1.965   2.846  0.1520  0.4230 -0.2268
  473SOL    HW1 1559   3.095   2.023   2.922 -1.4332  0.8371 -0.3974
  473SOL    HW2 1560   3.178   1.967   2.809  0.6755  1.0502  0.9902
  474SOL     OW 1561   2.893   0.418   1.564 -0.2987 -0.2109 -0.6729
  474SOL    HW1 1562   2.934   0.377   1.488  1.3623  0.0626  0.0210
  474SOL    HW2 1563   2.854   0.345   1.612  1.6390 -0.8972 -0.0407
  475SOL     OW 1564   2.167   1.585   1.851  0.0715 -0.2213  0.5869
  475SOL    HW1 1565   2.111   1.659   1.877 -1.3341 -1.0386  0.0106
  475SOL    HW2 1566   2.256   1.619   1.856 -0.6054  2.3383 -2.0612
  476SOL     OW 1567   2.426   3.483   0.082  0.3398  0.7710  0.3453
  476SOL    HW1 1568   2.478   3.408   0.053 -0.6325  0.3440 -0.3323
  476SOL    HW2 1569   2.491   3.552   0.098  1.1078  0.3074 -0.6487
  477SOL     OW 1570   0.954   2.639   1.675 -0.2091 -0.0269  0.0564
  477SOL    HW1 1571   1.028   2.584   1.700  0.8002  1.2357 -0.0905
  477SOL    HW2 1572   0.984   2.686   1.597 -1.1043  0.6415  0.1037
  478SOL     OW 1573   1.668   0.813   2.940  0.0109  0.0662  0.3463
  478SOL    HW1 1574   1.660   0.721   2.964 -1.1589 -0.0787 -0.5013
  478SOL    HW2 1575   1.751   0.818   2.892 -0.0448 -0.6075  0.1675
  479SOL     OW 1576   0.281   1.801   2.626 -0.5111 -0.0464 -0.1239
  479SOL    HW1 1577   0.308   1.820   2.716 -1.3764 -1.1686  0.3875
  479SOL    HW2 1578   0.362   1.809   2.575  0.6166 -2.1412  1.1767
  480SOL     OW 1579   1.777   0.507   2.172 -0.0791 -0.2118 -0.5981
  480SOL    HW1 1580   1.774   0.420   2.132 -1.3720  0.3578 -1.8273
  480SOL    HW2 1581   1.686   0.532   2.184  0.2682  0.8958 -0.0927
  481SOL     OW 1582   2.456   2.452   0.676 -0.4040 -0.0358  0.5071
  481SOL    HW1 1583   2.387   2.449   0.743 -1.1076 -0.5952 -0.2144
  481SOL    HW2 1584   2.422   2.513   0.610 -0.6766 -1.0717 -0.3354
  482SOL     OW 1585   0.751   2.043   2.239  0.1048  0.5314 -0.1838
  482SOL    HW1 1586   0.757   2.115   2.301 -0.4474  1.1562 -0.8293
  482SOL    HW2 1587   0.657   2.038   2.218  0.5521  2.1377 -2.9985
  483SOL     OW 1588   0.759   1.731   0.731  0.4779 -0.1296 -0.4604
  483SOL    HW1 1589   0.798   1.656   0.776  1.8363  0.8550  0.0512
  483SOL    HW2 1590   0.664   1.716   0.737  0.7026 -2.4012 -1.4285
  484SOL     OW 1591   0.813   3.290   2.680  0.2220 -0.1897  0.2632
  484SOL    HW1 1592   0.742   3.226   2.687  0.0820 -0.2816 -1.5933
  484SOL    HW2 1593   0.893   3.239   2.689  0.0892 -0.4941 -0.2370
  485SOL     OW 1594   1.778   1.247   2.565  0.5390 -0.0040  0.1383
  485SOL    HW1 1595   1.838   1.271   2.494 -0.5353  0.9405 -0.4788
  485SOL    HW2 1596   1.713   1.317   2.567  0.0229 -0.4813  1.4683
  486SOL     OW 1597   2.201   2.398   3.168  0.2116  0.0843 -0.0008
  486SOL    HW1 1598   2.147   2.396   3.248  0.3461 -0.7709  0.0772
  486SOL    HW2 1599   2.154   2.342   3.106  0.7417 -0.2512 -0.1033
  487SOL     OW 1600   1.808   0.021   3.559  0.0123  0.0403  0.5480
  487SOL    HW1 1601   1.879   0.032   3.495  0.2675 -0.7234  0.6838
  487SOL    HW2 1602   1.764   0.105   3.561  1.6775  0.9471  1.3746
  488SOL     OW 1603   3.214   2.115   1.961 -0.2807 -0.0718  0.4313
  488SOL    HW1 1604   3.242   2.176   1.893  1.2808 -0.4561  0.6706
  488SOL    HW2 1605   3.170   2.170   2.026  1.5335  0.9492  0.8915
  489SOL     OW 1606   1.396   3.418   0.177 -0.8336 -0.6649  0.7299
  489SOL    HW1 1607   1.306   3.413   0.208 -1.2193  0.5061 -0.0996
  489SOL    HW2 1608   1.411   3.334   0.133 -1.4978 -0.8860  0.9101
  490SOL     OW 1609   0.433   2.893   2.837  0.2642 -0.4647 -0.2515
  490SOL    HW1 1610   0.386   2.848   2.907  0.0754  0.5732  0.3166
  490SOL    HW2 1611   0.368   2.953   2.799 -0.1376 -2.1719 -2.4623
  491SOL     OW 1612   2.088   2.755   2.429 -0.1301 -0.3414  0.4384
  491SOL    HW1 1613   2.111   2.805   2.350 -0.4703 -0.1896  0.4332
  491SOL    HW2 1614   2.171   2.745   2.476 -0.2538  1.4072  1.1100
  492SOL     OW 1615   3.488   1.108   2.424 -0.4045  0.0281 -0.6797
  492SOL    HW1 1616   3.440   1.138   2.501  1.7935 -0.0716  0.8300
  492SOL    HW2 1617   3.465   1.016   2.415  1.4800 -0.8026  1.7591
  493SOL     OW 1618   2.805   2.881   1.604  0.1133 -0.4159 -0.5430
  493SOL    HW1 1619   2.830   2.880   1.512  1.6371 -1.9114 -0.1829
  493SOL    HW2 1620   2.710   2.869   1.604  0.1730 -1.0380 -1.9046
  494SOL     OW 1621   3.363   0.624   1.757  0.1965 -0.5361  0.2217
  494SOL    HW1 1622   3.426   0.628   1.685 -1.1438  2.5233 -0.9553
  494SOL    HW2 1623   3.282   0.593   1.716 -0.4162  0.6394  0.5049
  495SOL     OW 1624   1.111   0.660   3.097 -0.0437 -0.2847  0.0395
  495SOL    HW1 1625   1.120   0.752   3.122 -2.5033 -0.0033  0.1384
  495SOL    HW2 1626   1.148   0.611   3.170 -1.2108  0.6327  1.3028
  496SOL     OW 1627   2.941   2.620   1.281 -1.2392 -0.0278 -0.5084
  496SOL    HW1 1628   3.013   2.681   1.295 -2.4044  0.8023  2.6902
  496SOL    HW2 1629   2.978   2.553   1.223  2.0076  0.5219  0.6944
  497SOL     OW 1630   0.820   1.509   2.610 -0.8023  0.2729 -0.2682
  497SOL    HW1 1631   0.736   1.466   2.592 -1.6280  1.4660  0.5091
  497SOL    HW2 1632   0.878   1.479   2.540 -1.5073 -1.5449 -0.1209
  498SOL     OW 1633   0.542   1.256   2.919  0.7601 -0.3932  0.6822
  498SOL    HW1 1634   0.478   1.324   2.899  1.0394  0.2578  1.8887
  498SOL    HW2 1635   0.608   1.300   2.972  1.6155 -1.3229  0.4216
  499SOL     OW 1636   2.995   1.400   1.019 -0.1524 -0.3275 -0.1384
  499SOL    HW1 1637   3.017   1.436   1.104 -2.4203  0.6996  0.0715
  499SOL    HW2 1638   3.044   1.454   0.957 -1.1066  1.1584  0.3533
  500SOL     OW 1639   2.960   0.037   3.048 -0.3114  0.2121  0.4334
  500SOL    HW1 1640   3.026  -0.031   3.062 -0.3624  0.3190  1.2368
  500SOL    HW2 1641   3.010   0.118   3.041 -0.3248  0.2337  0.5846
  501SOL     OW 1642   0.187   0.905   1.690 -0.1542 -0.4597 -0.0390
  501SOL    HW1 1643   0.201   0.815   1.662  1.9050  0.1402 -1.2294
  501SOL    HW2 1644   0.146   0.899   1.776 -0.7577 -2.4970 -0.4326
  502SOL     OW 1645   1.771   2.509   0.200 -0.2109  0.2260 -0.7961
  502SOL    HW1 1646   1.688   2.492   0.156 -1.5061  2.2134  0.6689
  502SOL    HW2 1647   1.751   2.582   0.259  1.8144 -1.1558  1.7798
  503SOL     OW 1648   0.040   1.393   2.578 -1.2368 -0.1569 -0.2915
  503SOL    HW1 1649   0.065   1.453   2.648 -1.8180  1.1374 -1.1684
  503SOL    HW2 1650   0.103   1.321   2.585 -0.5364  0.5276  0.7845
  504SOL     OW 1651   1.329   0.093   3.014  0.0223  0.5696  0.3680
  504SOL    HW1 1652   1.296   0.076   2.926  0.5406  1.4964 -0.0130
  504SOL    HW2 1653   1.274   0.039   3.071  1.0272 -1.6900 -0.6927
  505SOL     OW 1654   0.750   2.824   2.116  0.2623 -0.1998  0.1414
  505SOL    HW1 1655   0.793   2.875   2.047  2.1463 -2.6257 -0.6156
  505SOL    HW2 1656   0.676   2.781   2.072 -0.5678  0.8112  0.4911
  506SOL     OW 1657   2.768   2.007   1.468 -0.0534 -0.3187 -0.5733
  506SOL    HW1 1658   2.820   2.061   1.408 -1.7085  0.5517 -1.3146
  506SOL    HW2 1659   2.746   2.066   1.540  0.2738 -0.7790 -0.0936
  507SOL     OW 1660   3.338   1.929   1.093 -0.3944  0.5749 -0.0369
  507SOL    HW1 1661   3.381   1.962   1.173  0.6398  1.5498 -0.9674
  507SOL    HW2 1662   3.357   1.836   1.093 -1.1081  0.3976  1.2691
  508SOL     OW 1663   3.201   0.468   2.292  0.0126 -0.0176 -0.3194
  508SOL    HW1 1664   3.200   0.378   2.258 -2.8823 -0.3644  0.3982
  508SOL    HW2 1665   3.161   0.520   2.223  1.3250  0.7067 -0.5670
  509SOL     OW 1666   0.435   1.200   0.377  0.9170 -0.7641 -0.0190
  509SOL    HW1 1667   0.358   1.182   0.322  1.6876  1.2557 -1.9056
  509SOL    HW2 1668   0.428   1.137   0.449 -2.0011 -1.2601 -0.5982
  510SOL     OW 1669   3.511   1.020   2.974 -0.2501 -0.0532 -0.3856
  510SOL    HW1 1670   3.453   1.048   3.045 -1.1324  0.7360 -1.3980
  510SOL    HW2 1671   3.577   0.967   3.018 -0.7001  0.5170  1.0560
  511SOL     OW 1672   1.407   2.175   1.607 -0.0034  0.5464  0.6919
  511SOL    HW1 1673   1.375   2.255   1.564  0.0641  0.1427 -0.1401
  511SOL    HW2 1674   1.334   2.114   1.602  0.6606 -0.1912 -0.7162
  512SOL     OW 1675   1.340   0.470   2.932  0.7749 -0.1430  0.3070
  512SOL    HW1 1676   1.363   0.435   2.846 -0.3507 -2.0330  0.7188
  512SOL    HW2 1677   1.270   0.533   2.914 -0.1588 -1.2657 -0.1064
  513SOL     OW 1678   0.358   2.720   0.540  0.4237 -0.4187  0.0033
  513SOL    HW1 1679   0.345   2.685   0.627  0.9567 -1.9929 -0.5193
  513SOL    HW2 1680   0.283   2.778   0.525 -0.2331 -0.9746  1.0736
  514SOL     OW 1681   3.308   1.456   2.563  0.4735 -0.3851  0.6989
  514SOL    HW1 1682   3.264   1.427   2.483  1.2344 -0.3884  0.2600
  514SOL    HW2 1683   3.396   1.480   2.533 -0.0858  2.4143  0.9932
  515SOL     OW 1684   0.141   0.889   3.254  0.0694  0.6640 -0.4164
  515SOL    HW1 1685   0.152   0.901   3.348 -1.9690 -0.1373 -0.0210
  515SOL    HW2 1686   0.224   0.851   3.225  1.3565  2.4616  0.7092
  516SOL     OW 1687   1.167   1.556   0.865 -0.6135 -0.3026  0.0818
  516SOL    HW1 1688   1.262   1.551   0.866 -0.6671 -2.1349  0.7908
  516SOL    HW2 1689   1.147   1.647   0.845  1.2914  0.5545  1.7711
  517SOL     OW 1690   1.672   3.499   0.742  0.2738  0.4558 -0.0648
  517SOL    HW1 1691   1.636   3.412   0.760  0.5590  0.5370  1.0118
  517SOL    HW2 1692   1.709   3.527   0.826  0.1765  1.6227 -0.3891
  518SOL     OW 1693   3.676   3.521   0.928 -0.5862  0.2507  0.0809
  518SOL    HW1 1694   3.770   3.516   0.945 -0.7633  1.5798  1.6687
  518SOL    HW2 1695   3.667   3.592   0.865 -0.5922  0.6388  0.5196
  519SOL     OW 1696   0.232   3.113   1.259  0.5134  0.0973 -0.6796
  519SOL    HW1 1697   0.273   3.192   1.294 -0.3992  0.2548  0.0412
  519SOL    HW2 1698   0.298   3.044   1.273  0.7966  0.4744 -0.1285
  520SOL     OW 1699   2.137   0.567  -0.001 -0.0956 -0.0598 -0.0861
  520SOL    HW1 1700   2.049   0.530   0.005 -0.5325  0.9391 -0.1377
  520SOL    HW2 1701   2.171   0.563   0.088 -0.1461 -0.5542 -0.0867
  521SOL     OW 1702   1.571   0.087   0.772 -0.4058  0.4631 -0.1731
  521SOL    HW1 1703   1.576   0.054   0.683 -1.2213  2.1212 -0.8732
  521SOL    HW2 1704   1.527   0.172   0.764  0.5946  1.2054  1.6591
  522SOL     OW 1705   2.859   1.819   2.820 -0.0223 -0.4760  0.4422
  522SOL    HW1 1706   2.941   1.861   2.846 -0.8693  1.6167 -0.0674
  522SOL    HW2 1707   2.855   1.829   2.725 -0.1921 -1.8984  0.2771
  523SOL     OW 1708   2.680   2.596   3.522  0.0940  0.2272 -0.3532
  523SOL    HW1 1709   2.630   2.547   3.456 -1.4258  0.1081  0.8219
  523SOL    HW2 1710   2.768   2.559   3.517 -0.9773 -2.7937  0.5541
  524SOL     OW 1711   1.291   0.686   2.691  0.2880 -0.1603  0.3152
  524SOL    HW1 1712   1.326   0.746   2.757 -0.2247  1.2236 -0.6154
  524SOL    HW2 1713   1.313   0.727   2.607 -0.3110 -1.1464 -0.3462
  525SOL     OW 1714   3.316   0.049   3.393  0.2775 -0.0602  0.1360
  525SOL    HW1 1715   3.379   0.009   3.452 -0.4363  0.7566  1.4956
  525SOL    HW2 1716   3.312  -0.011   3.318  2.1310 -0.4668  0.3258
  526SOL     OW 1717   3.163   0.998   2.980 -0.0919 -0.3777 -0.0658
  526SOL    HW1 1718   3.156   1.070   2.917  0.0537 -0.5219 -0.2460
  526SOL    HW2 1719   3.191   1.041   3.062  0.4138 -0.2852 -0.2811
  527SOL     OW 1720   0.368   1.321   3.490  0.1173 -0.1051 -0.1550
  527SOL    HW1 1721   0.378   1.299   3.397  0.8636 -0.6665  0.0461
  527SOL    HW2 1722   0.412   1.405   3.501  0.0538 -0.0529 -0.3014
  528SOL     OW 1723   1.839   0.694   3.590  0.2967  0.0019  0.1628
  528SOL    HW1 1724   1.762   0.739   3.623 -1.0890 -2.1898  0.1024
  528SOL    HW2 1725   1.908   0.761   3.589 -1.4797  1.9123  0.5890
  529SOL     OW 1726   3.557   1.314   2.030 -0.0235 -0.7811 -0.5223
  529SOL    HW1 1727   3.593   1.271   2.107 -0.5925 -1.1543 -0.4546
  529SOL    HW2 1728   3.465   1.329   2.052 -0.4316 -1.7355 -1.4662
  530SOL     OW 1729   0.199   3.542   2.066 -0.4035  0.6328 -0.0497
  530SOL    HW1 1730   0.170   3.457   2.099 -0.0905  0.9100  0.9865
  530SOL    HW2 1731   0.186   3.602   2.140 -0.1470  1.3770 -0.5978
  531SOL     OW 1732   2.931   1.054   0.304  0.0689  0.2396  0.2106
  531SOL    HW1 1733   2.980   0.982   0.265 -0.9503  0.0750 -0.8238
  531SOL    HW2 1734   2.997   1.109   0.346  0.9646 -0.7461  0.1356
  532SOL     OW 1735   1.497   2.359   0.098  0.2238 -0.0907 -0.4009
  532SOL    HW1 1736   1.442   2.323   0.029  1.0340  1.4917 -1.9431
  532SOL    HW2 1737   1.498   2.291   0.166 -2.7498 -0.5956 -0.7403
  533SOL     OW 1738   0.280   1.229   1.521  0.0541 -0.1198 -0.4443
  533SOL    HW1 1739   0.282   1.319   1.554 -3.5644  0.5542 -1.6058
  533SOL    HW2 1740   0.277   1.238   1.426 -0.2105 -1.4678 -0.5853
  534SOL     OW 1741   2.377   0.496   1.119 -0.2504 -0.0210 -0.3946
  534SOL    HW1 1742   2.422   0.509   1.203  1.1347 -0.2251 -1.0663
  534SOL    HW2 1743   2.367   0.585   1.084  1.2126 -0.0515 -0.9921
  535SOL     OW 1744   1.065   3.159   2.703  0.1083  0.3686 -0.9800
  535SOL    HW1 1745   1.062   3.247   2.740 -1.4989 -0.7782  2.0424
  535SOL    HW2 1746   1.154   3.150   2.668  0.7109  2.7356 -0.2371
  536SOL     OW 1747   1.442   1.562   0.846  0.0866 -0.7840  0.6663
  536SOL    HW1 1748   1.428   1.585   0.755 -0.6667 -0.1410  0.9313
  536SOL    HW2 1749   1.537   1.554   0.855  0.3168  1.1282  0.2885
  537SOL     OW 1750   2.791   3.609   1.534 -0.2527 -0.0082 -0.0757
  537SOL    HW1 1751   2.811   3.516   1.547 -0.3018 -0.3444 -2.0806
  537SOL    HW2 1752   2.768   3.615   1.441 -0.3915  1.9889  0.0634
  538SOL     OW 1753   1.710   0.231   2.870 -0.2427 -0.1790 -0.3132
  538SOL    HW1 1754   1.780   0.166   2.857 -0.4686 -0.0961 -2.1651
  538SOL    HW2 1755   1.750   0.298   2.926  0.2252 -1.5333  1.0380
  539SOL     OW 1756   0.164   1.614   0.993 -1.0819  0.0864 -0.1287
  539SOL    HW1 1757   0.117   1.646   0.916 -0.1008 -0.9553 -1.2099
  539SOL    HW2 1758   0.096   1.603   1.060 -2.1696 -0.1756 -1.2404
  540SOL     OW 1759   2.348   3.024   0.559 -0.1622 -0.2676 -0.0162
  540SOL    HW1 1760   2.264   3.047   0.598 -0.2947  0.4731 -0.7212
  540SOL    HW2 1761   2.409   3.025   0.633 -0.6209 -0.0138  0.3646
  541SOL     OW 1762   2.110   2.999   3.592  0.1466  0.0814 -0.0425
  541SOL    HW1 1763   2.038   3.009   3.529  0.7959  0.0074 -0.8126
  541SOL    HW2 1764   2.096   2.912   3.630 -0.9093  0.5901  0.7762
  542SOL     OW 1765   1.034   3.626   3.329  0.3340  0.0869  0.5686
  542SOL    HW1 1766   1.034   3.593   3.239  0.6962  0.1741  0.5362
  542SOL    HW2 1767   0.941   3.630   3.353  0.2836 -2.7065  1.2270
  543SOL     OW 1768   2.543   3.565   3.483 -0.1498  0.5959  0.1665
  543SOL    HW1 1769   2.597   3.644   3.480  0.4270  0.1879 -2.6572
  543SOL    HW2 1770   2.454   3.598   3.496  0.3541  1.4987  1.5397
  544SOL     OW 1771   0.811   1.269   2.171  0.6494  0.0935 -0.0774
  544SOL    HW1 1772   0.723   1.254   2.206  0.2103 -1.5865 -1.7422
  544SOL    HW2 1773   0.796   1.314   2.088  1.4226  0.3516 -0.0887
  545SOL     OW 1774   2.850   2.324   1.425 -0.1523  0.8430  0.2286
  545SOL    HW1 1775   2.894   2.399   1.464  0.2209  0.2114  1.0494
  545SOL    HW2 1776   2.770   2.360   1.388  0.3674  1.7669 -0.0435
  546SOL     OW 1777   1.273   1.950   0.590  0.8451 -0.0412 -0.0149
  546SOL    HW1 1778   1.191   1.971   0.545  0.0948 -0.4399  1.1154
  546SOL    HW2 1779   1.319   2.033   0.596 -0.3936  0.6086  1.1069
  547SOL     OW 1780   1.708   2.477   2.635 -0.6408  0.7564  0.2622
  547SOL    HW1 1781   1.787   2.446   2.591 -0.8781  2.1427 -1.1986
  547SOL    HW2 1782   1.737   2.553   2.686 -0.7129  0.2081  1.1455
  548SOL     OW 1783   3.067   1.350   2.416  0.0059  0.2020  0.2849
  548SOL    HW1 1784   3.114   1.277   2.376  0.4653 -1.1195  3.0185
  548SOL    HW2 1785   2.980   1.315   2.435 -0.0628  0.6506  0.8100
  549SOL     OW 1786   0.691   2.470   2.820  0.9126  0.2565 -0.3163
  549SOL    HW1 1787   0.606   2.426   2.816  1.0317  0.0744 -0.8063
  549SOL    HW2 1788   0.672   2.553   2.864  0.5968 -0.0514  0.1466
  550SOL     OW 1789   0.749   3.555   1.988 -0.1300  0.1069  0.0149
  550SOL    HW1 1790   0.718   3.544   2.078  0.8611  1.2656  0.5233
  550SOL    HW2 1791   0.672   3.586   1.940 -0.4312  0.3709  0.6598
  551SOL     OW 1792   3.599   1.974   2.323 -0.1582  0.1854 -0.2243
  551SOL    HW1 1793   3.692   1.984   2.340 -0.0423  0.4492 -0.9950
  551SOL    HW2 1794   3.594   1.928   2.239 -0.7072  1.7581 -1.1003
  552SOL     OW 1795   3.030   2.590   1.876  0.2959  0.3116 -0.8266
  552SOL    HW1 1796   2.985   2.523   1.825  1.7901 -1.0963 -0.3810
  552SOL    HW2 1797   2.996   2.673   1.842 -1.2871 -0.6432 -1.6849
  553SOL     OW 1798   1.458   2.623   0.539 -0.4826  0.2843 -0.5630
  553SOL    HW1 1799   1.439   2.603   0.447 -0.2376 -1.6567 -0.2287
  553SOL    HW2 1800   1.472   2.537   0.580  0.1222  1.1518  1.1365
  554SOL     OW 1801   2.179   0.552   2.885 -1.0289  0.4125 -0.4313
  554SOL    HW1 1802   2.136   0.515   2.962 -1.0075  1.3420  0.0446
  554SOL    HW2 1803   2.234   0.482   2.852 -0.6198  0.1608  0.7288
  555SOL     OW 1804   1.855   1.214   2.263 -0.3055 -0.7232 -0.0560
  555SOL    HW1 1805   1.793   1.283   2.242  0.0483 -0.8780 -1.7513
  555SOL    HW2 1806   1.929   1.230   2.204  1.0879 -0.8133  1.5824
  556SOL     OW 1807   0.857   1.718   0.283  0.6327  0.0847 -0.6601
  556SOL    HW1 1808   0.770   1.758   0.290 -0.4199 -2.0065 -0.7837
  556SOL    HW2 1809   0.916   1.782   0.321 -0.9100  1.7354 -0.8881
  557SOL     OW 1810   3.560   3.057   0.147  0.0195  0.3213 -0.4292
  557SOL    HW1 1811   3.473   3.064   0.186  0.5151 -0.3371  0.8393
  557SOL    HW2 1812   3.555   2.979   0.092 -0.6076  1.1152 -1.5514
  558SOL     OW 1813   0.179   3.302   3.761 -0.0192  0.2460 -0.0455
  558SOL    HW1 1814   0.232   3.355   3.702  0.5896  0.3096  0.5514
  558SOL    HW2 1815   0.097   3.288   3.713  0.6289 -0.0928 -1.1082
  559SOL     OW 1816   2.391   2.082   2.119 -0.6498 -0.1616  0.5771
  559SOL    HW1 1817   2.470   2.135   2.132  0.7367 -1.8610 -0.4330
  559SOL    HW2 1818   2.350   2.119   2.040  1.3565 -1.6590 -1.2874
  560SOL     OW 1819   2.604   2.891   3.144  0.0953  0.1855  0.2035
  560SOL    HW1 1820   2.570   2.819   3.091 -2.8875  1.7714 -0.2806
  560SOL    HW2 1821   2.535   2.957   3.141  1.9027  2.3298  2.1340
  561SOL     OW 1822   3.569   2.227   2.021 -0.5673  0.0932 -0.0803
  561SOL    HW1 1823   3.496   2.289   2.021 -1.6329 -1.0719 -1.1037
  561SOL    HW2 1824   3.601   2.227   2.111  0.2452  2.9250 -0.2724
  562SOL     OW 1825   2.784   0.995   3.511 -0.9278  0.3300  0.0522
  562SOL    HW1 1826   2.689   1.009   3.514 -1.4956 -2.8162  0.4054
  562SOL    HW2 1827   2.799   0.949   3.428 -0.3154 -2.2502  1.4868
  563SOL     OW 1828   0.342   0.969   1.071 -0.0373  0.2369 -0.2685
  563SOL    HW1 1829   0.339   0.875   1.090  0.1234  0.3644  0.4400
  563SOL    HW2 1830   0.434   0.993   1.083 -0.1688  0.5833  0.0733
  564SOL     OW 1831   1.284   3.549   3.666  0.3501 -0.0208 -0.2268
  564SOL    HW1 1832   1.208   3.491   3.658  0.5026 -0.0698 -1.5162
  564SOL    HW2 1833   1.329   3.519   3.745 -0.8280 -0.1486  0.4233
  565SOL     OW 1834   0.972   2.527   2.377 -0.5787 -0.4945 -0.6941
  565SOL    HW1 1835   1.065   2.541   2.394 -1.2644  1.0007  2.8423
  565SOL    HW2 1836   0.937   2.614   2.357 -1.5321 -0.6152  0.3171
  566SOL     OW 1837   0.790   0.165   0.580 -0.6380  0.8267  0.1725
  566SOL    HW1 1838   0.841   0.149   0.659 -0.8491  1.7375  0.5051
  566SOL    HW2 1839   0.743   0.247   0.598 -1.5098  0.4771 -0.4830
  567SOL     OW 1840   3.290   1.337   2.892 -0.2082 -0.4359 -1.0968
  567SOL    HW1 1841   3.370   1.319   2.842 -0.2954  0.3165 -1.5231
  567SOL    HW2 1842   3.220   1.297   2.840 -0.3603  0.7668 -1.8659
  568SOL     OW 1843   1.851   2.257   1.663  0.6844 -0.4407  0.3501
  568SOL    HW1 1844   1.831   2.211   1.744  0.7977 -0.2466  0.4882
  568SOL    HW2 1845   1.921   2.205   1.622  1.4136  0.0757  0.9206
  569SOL     OW 1846   2.476   2.041   1.476  0.3258  0.6547 -0.6818
  569SOL    HW1 1847   2.548   2.071   1.532 -1.1973 -0.0845  1.8829
  569SOL    HW2 1848   2.475   2.102   1.403  2.8024  1.3780 -0.2145
  570SOL     OW 1849   2.839   1.026   2.259 -0.2498  0.3591 -0.2218
  570SOL    HW1 1850   2.751   1.048   2.230  0.2971  0.7332 -1.7356
  570SOL    HW2 1851   2.871   0.965   2.192  0.4633 -0.1587  0.5765
  571SOL     OW 1852   0.306   1.846   2.031  0.0071 -0.4711 -0.3207
  571SOL    HW1 1853   0.357   1.860   1.951  1.8613 -0.3279  0.8490
  571SOL    HW2 1854   0.316   1.752   2.049 -0.2719 -0.4694 -0.1475
  572SOL     OW 1855   3.325   1.935   2.712  0.2088 -0.3270 -0.1891
  572SOL    HW1 1856   3.416   1.960   2.698  1.0884 -1.2917  2.9993
  572SOL    HW2 1857   3.328   1.845   2.743 -1.8759 -0.4762 -0.2318
  573SOL     OW 1858   3.348   3.265   2.642  0.1045 -0.0668  0.6536
  573SOL    HW1 1859   3.314   3.317   2.569 -2.3031 -1.4081  0.7375
  573SOL    HW2 1860   3.384   3.331   2.703  2.0454  1.0804 -1.5750
  574SOL     OW 1861   2.121   1.240   2.467  0.0348 -0.4041  0.0986
  574SOL    HW1 1862   2.096   1.207   2.554  0.0813 -1.4010 -0.2548
  574SOL    HW2 1863   2.037   1.260   2.424 -0.0413 -1.0427 -0.0545
  575SOL     OW 1864   0.413   0.603   3.661  0.5032  0.0481 -0.2168
  575SOL    HW1 1865   0.503   0.573   3.661  0.9174  1.2375  0.0132
  575SOL    HW2 1866   0.380   0.582   3.574  0.7660 -1.0355 -0.0667
  576SOL     OW 1867   2.908   2.278   0.264 -0.3565  0.0819  0.2403
  576SOL    HW1 1868   2.861   2.195   0.262  0.6690 -0.5171 -1.6369
  576SOL    HW2 1869   2.850   2.338   0.310 -1.3335 -1.5319  1.2065
  577SOL     OW 1870   1.938   3.081   2.216  0.1712 -0.1737  1.3260
  577SOL    HW1 1871   2.020   3.075   2.266  0.3061  0.1763  1.1518
  577SOL    HW2 1872   1.922   2.991   2.186  0.7882 -0.1534  0.9075
  578SOL     OW 1873   2.096   3.219   0.095 -0.1590  0.2172  0.2679
  578SOL    HW1 1874   2.069   3.184   0.180 -0.7902 -0.4829 -0.2113
  578SOL    HW2 1875   2.051   3.165   0.031  0.4552  0.6204 -0.5274
  579SOL     OW 1876   1.607   3.612   3.702 -0.3120  0.3386 -0.7075
  579SOL    HW1 1877   1.581   3.652   3.785 -1.4851  0.0617 -0.9226
  579SOL    HW2 1878   1.690   3.654   3.680 -0.1227  0.6118  0.4637
  580SOL     OW 1879   3.602   0.548   1.093 -0.0253 -0.3386  0.2395
  580SOL    HW1 1880   3.541   0.614   1.126 -0.3694 -0.3493 -0.3635
  580SOL    HW2 1881   3.613   0.569   1.000  1.3427  0.0123  0.4538
  581SOL     OW 1882   0.041   3.055   0.936 -0.4509  0.4856  0.1021
  581SOL    HW1 1883   0.065   3.139   0.976  0.1397 -0.0626  0.9078
  581SOL    HW2 1884   0.124   3.018   0.906 -0.4913 -0.5638  1.2374
  582SOL     OW 1885   1.446   2.742   3.186 -0.7180 -0.2371 -0.0340
  582SOL    HW1 1886   1.528   2.693   3.180 -0.7015 -0.2528  0.2647
  582SOL    HW2 1887   1.451   2.786   3.271 -0.7204  0.3078 -0.3111
  583SOL     OW 1888   0.910   1.796   2.399  0.3229 -0.2187 -0.2094
  583SOL    HW1 1889   0.840   1.733   2.384  2.0172 -2.8862  2.0572
  583SOL    HW2 1890   0.880   1.848   2.474  0.7714 -1.5384  0.9346
  584SOL     OW 1891   2.235   0.064   1.434 -0.3183 -0.1071 -0.5239
  584SOL    HW1 1892   2.217   0.048   1.341  0.3050  1.1831 -0.8860
  584SOL    HW2 1893   2.170   0.128   1.461  3.0680  4.4294 -1.7868
  585SOL     OW 1894   0.040   0.439   1.291 -0.1633 -0.0217  0.5196
  585SOL    HW1 1895  -0.013   0.469   1.217 -0.9472 -0.0671  1.0547
  585SOL    HW2 1896   0.077   0.519   1.328  3.6410 -0.1546 -2.3280
  586SOL     OW 1897   2.102   3.431   2.447  0.9261  0.4412 -0.2483
  586SOL    HW1 1898   2.173   3.493   2.427  0.7822  1.1891  1.3778
  586SOL    HW2 1899   2.140   3.372   2.513 -0.4369  2.0133  2.1104
  587SOL     OW 1900   3.391   1.583   2.000 -0.3432 -0.0510  0.1726
  587SOL    HW1 1901   3.354   1.661   2.044  1.3316  0.8290  0.0815
  587SOL    HW2 1902   3.346   1.580   1.916  0.0879  1.2724 -0.1285
  588SOL     OW 1903   3.038   2.201   0.052  0.0580 -0.1680  0.5224
  588SOL    HW1 1904   3.031   2.108   0.075 -1.3440  0.0227  0.9383
  588SOL    HW2 1905   2.993   2.247   0.122  0.1341  0.7889 -0.0406
  589SOL     OW 1906   3.694   0.453   2.800  0.0940  0.2235 -0.2743
  589SOL    HW1 1907   3.726   0.479   2.714  0.9204 -0.9264 -0.3371
  589SOL    HW2 1908   3.610   0.411   2.783  0.4049 -0.2874 -0.5548
  590SOL     OW 1909   0.515   1.865   2.520 -0.0568  0.9152  0.7249
  590SOL    HW1 1910   0.600   1.849   2.561  0.0508 -0.9612 -0.1281
  590SOL    HW2 1911   0.537   1.900   2.433 -0.0144 -1.5640 -0.3384
  591SOL     OW 1912   1.895   1.369   1.133  0.3130  0.0286  0.4710
  591SOL    HW1 1913   1.968   1.360   1.071 -0.6754  0.2439 -0.7470
  591SOL    HW2 1914   1.888   1.463   1.148 -0.0111  0.0453  0.2203
  592SOL     OW 1915   1.464   2.555   2.681  0.0863  0.0205 -0.4135
  592SOL    HW1 1916   1.422   2.470   2.665 -0.2217  0.4186 -1.7533
  592SOL    HW2 1917   1.555   2.542   2.654  0.9009 -0.7940  2.3398
  593SOL     OW 1918   1.445   0.611   1.942 -0.3837  0.4844  0.9207
  593SOL    HW1 1919   1.409   0.691   1.904 -0.7065  0.0286  0.2455
  593SOL    HW2 1920   1.449   0.629   2.036 -0.4387  1.2955  0.7788
  594SOL     OW 1921   0.095   0.611   2.356  0.3551 -0.7340  0.8822
  594SOL    HW1 1922   0.030   0.602   2.286  2.5425  2.4163 -1.8693
  594SOL    HW2 1923   0.145   0.530   2.352 -0.2177 -1.0494 -0.5316
  595SOL     OW 1924   1.889   0.021   2.589  0.3024  0.1107  0.4161
  595SOL    HW1 1925   1.798  -0.008   2.592  0.2805  0.2420  2.0207
  595SOL    HW2 1926   1.884   0.115   2.570  0.1357  0.0010 -0.0876
  596SOL     OW 1927   2.992   3.675   1.717 -0.1196  0.0166  0.5978
  596SOL    HW1 1928   2.925   3.699   1.653  1.9301  0.9364 -1.4003
  596SOL    HW2 1929   3.006   3.754   1.768 -1.1289 -0.4407  1.6016
  597SOL     OW 1930   1.817   2.315   3.055 -0.1055 -0.0562  0.0805
  597SOL    HW1 1931   1.898   2.285   3.013  0.2212 -0.0775  0.7149
  597SOL    HW2 1932   1.835   2.406   3.080  0.1955 -0.4538  1.3771
  598SOL     OW 1933   0.614   0.504   2.169  0.6313 -0.2382 -0.6178
  598SOL    HW1 1934   0.657   0.587   2.151 -1.2239  0.9332  0.0853
  598SOL    HW2 1935   0.583   0.474   2.083  0.9022  0.0079 -0.8061
  599SOL     OW 1936   3.143   2.392   0.507  0.0478 -0.1871 -0.9633
  599SOL    HW1 1937   3.094   2.391   0.424  0.3610 -2.1704 -1.1717
  599SOL    HW2 1938   3.197   2.314   0.504  1.4907  0.7040  0.3208
  600SOL     OW 1939   2.532   0.902   3.048  0.1544 -0.4153 -0.2328
  600SOL    HW1 1940   2.482   0.976   3.015 -0.3570 -0.2354  0.8684
  600SOL    HW2 1941   2.468   0.850   3.097  0.8698 -0.6330  0.4988
  601SOL     OW 1942   2.383   3.356   0.688  0.2765 -0.0376  0.0491
  601SOL    HW1 1943   2.398   3.355   0.593  0.0435  2.7210 -0.1037
  601SOL    HW2 1944   2.294   3.390   0.697  0.8263  1.1633  1.2568
  602SOL     OW 1945   1.175   2.778   3.393  0.5876  0.8390 -0.1533
  602SOL    HW1 1946   1.134   2.862   3.370 -3.0992  0.1911  3.0141
  602SOL    HW2 1947   1.140   2.716   3.330  2.8179  1.3724 -2.0918
  603SOL     OW 1948   1.619   3.490   3.425  0.0802  0.8762  0.5982
  603SOL    HW1 1949   1.587   3.480   3.515  2.3777 -1.3401  1.2768
  603SOL    HW2 1950   1.708   3.523   3.435 -0.3740  2.8062 -1.0437
  604SOL     OW 1951   2.428   2.844   2.768 -0.9534 -0.3276  0.1422
  604SOL    HW1 1952   2.479   2.791   2.829 -0.7133 -1.2600 -0.8573
  604SOL    HW2 1953   2.471   2.930   2.770  1.4506 -1.3937 -1.5566
  605SOL     OW 1954   0.256   0.534   3.408  0.6925  0.1827 -0.0421
  605SOL    HW1 1955   0.210   0.550   3.326  0.8625 -1.7701 -0.5705
  605SOL    HW2 1956   0.189   0.542   3.476  0.6158  2.1192 -0.2826
  606SOL     OW 1957   0.693   0.953   3.441 -0.3409  0.0538  0.1696
  606SOL    HW1 1958   0.640   0.874   3.445 -1.2736  0.4818 -2.1267
  606SOL    HW2 1959   0.675   0.990   3.354  0.1701  2.7063  1.0854
  607SOL     OW 1960   1.047   3.535   0.794 -0.2533  0.2237 -0.3193
  607SOL    HW1 1961   0.996   3.490   0.861 -1.2092  0.9323 -0.5479
  607SOL    HW2 1962   1.028   3.487   0.713  0.1225 -0.0345 -0.2544
  608SOL     OW 1963   3.064   1.778   0.525  0.8124 -0.2434  0.1004
  608SOL    HW1 1964   2.987   1.786   0.580  1.3204  0.9958  0.6794
  608SOL    HW2 1965   3.063   1.857   0.471  1.7715 -0.1094  0.2559
  609SOL     OW 1966   0.176   0.338   2.378  0.5565 -0.7630 -0.0845
  609SOL    HW1 1967   0.239   0.399   2.340 -1.1330  1.5620  0.5547
  609SOL    HW2 1968   0.221   0.299   2.453  1.8543 -0.6831 -0.8043
  610SOL     OW 1969   0.456   0.493   0.769 -0.2755 -0.3382  0.7470
  610SOL    HW1 1970   0.397   0.424   0.798  0.8179 -1.1178  1.1538
  610SOL    HW2 1971   0.511   0.452   0.703  0.7367 -0.0099  1.3721
  611SOL     OW 1972   0.680   0.561   0.937 -0.2658 -0.1853  0.0006
  611SOL    HW1 1973   0.675   0.478   0.984  0.5425 -0.1136  0.2388
  611SOL    HW2 1974   0.611   0.556   0.871  0.0866 -1.2572 -0.3113
  612SOL     OW 1975   2.197   0.061   2.762  0.1743 -0.1885 -0.1015
  612SOL    HW1 1976   2.138  -0.011   2.742  1.1168 -0.2139 -3.3139
  612SOL    HW2 1977   2.281   0.019   2.782  0.1410 -0.0521  0.3239
  613SOL     OW 1978   3.186   1.434   0.396 -0.0065  0.1727 -0.4239
  613SOL    HW1 1979   3.195   1.515   0.447  1.0094 -0.2573  0.1137
  613SOL    HW2 1980   3.192   1.463   0.305  0.9084  0.6600 -0.2273
  614SOL     OW 1981   2.996   3.113   1.604 -0.1720  0.7806  0.1857
  614SOL    HW1 1982   2.925   3.051   1.595  1.8762 -1.8737  0.8913
  614SOL    HW2 1983   3.011   3.119   1.699  1.4431  0.0795  0.0174
  615SOL     OW 1984  -0.015   2.936   1.156 -0.5063 -0.3741 -0.4751
  615SOL    HW1 1985   0.070   2.965   1.190 -0.1381 -0.6986 -1.1025
  615SOL    HW2 1986  -0.020   2.973   1.068 -1.1055 -0.1939 -0.3677
  616SOL     OW 1987   0.605   0.148   1.964  1.1987  0.4556 -0.3636
  616SOL    HW1 1988   0.640   0.171   1.878 -0.5952  1.1810 -0.9274
  616SOL    HW2 1989   0.552   0.070   1.948  1.9488 -0.2148  0.3504
  617SOL     OW 1990   2.595   1.766   3.331  0.3857  0.1203  0.1932
  617SOL    HW1 1991   2.546   1.747   3.251  0.2398 -0.4629  0.4130
  617SOL    HW2 1992   2.620   1.858   3.323  0.2561  0.1034 -0.4581
  618SOL     OW 1993   2.018   0.611   3.145  0.4861 -0.8779 -0.1524
  618SOL    HW1 1994   2.053   0.665   3.075 -0.7779  0.7955  0.4460
  618SOL    HW2 1995   1.950   0.665   3.186  0.7746 -2.0107  1.9902
  619SOL     OW 1996   1.382   3.144   2.884  0.2899 -0.6136 -0.3452
  619SOL    HW1 1997   1.459   3.114   2.933  1.2739 -0.0578 -1.5160
  619SOL    HW2 1998   1.345   3.063   2.847 -0.0897 -0.9593  0.7371
  620SOL     OW 1999   2.009   2.489   2.544  0.3912 -0.4181 -0.3084
  620SOL    HW1 2000   1.999   2.463   2.452  2.5913 -0.4867 -0.5925
  620SOL    HW2 2001   2.054   2.573   2.540  0.5606 -0.4532  0.7134
  621SOL     OW 2002   3.597   2.387   1.387  0.0987 -0.1653  0.6847
  621SOL    HW1 2003   3.524   2.329   1.410  0.8387 -0.9134  1.2166
  621SOL    HW2 2004   3.594   2.392   1.291 -0.1607 -0.8531  0.6504
  622SOL     OW 2005   2.302   2.721   2.581 -0.8588 -0.2101 -0.3516
  622SOL    HW1 2006   2.343   2.648   2.536  0.1508  0.1628 -0.0582
  622SOL    HW2 2007   2.353   2.731   2.661 -0.9286  0.8693 -0.4315
  623SOL     OW 2008   1.103   1.643   3.031  0.1299  0.0390  0.2184
  623SOL    HW1 2009   1.010   1.664   3.043 -0.1850 -1.4368  0.5754
  623SOL    HW2 2010   1.115   1.637   2.936  0.4912  2.7368  0.0227
  624SOL     OW 2011   0.828   0.554   0.169  0.0870 -0.6801  0.2394
  624SOL    HW1 2012   0.781   0.487   0.120  0.9277 -0.5463 -0.7822
  624SOL    HW2 2013   0.856   0.618   0.103 -1.0401  0.9101  1.2389
  625SOL     OW 2014   2.364   2.153   2.849  0.0382  0.0636  0.1110
  625SOL    HW1 2015   2.344   2.098   2.773 -1.1594  1.9044 -0.9756
  625SOL    HW2 2016   2.344   2.098   2.924  1.6359 -1.9580 -0.8385
  626SOL     OW 2017   2.012   0.570   0.706  0.7574 -0.3764 -0.0847
  626SOL    HW1 2018   1.995   0.486   0.748  1.4405 -0.4587  0.0354
  626SOL    HW2 2019   1.930   0.619   0.715  0.3866 -0.9944 -0.0758
  627SOL     OW 2020   0.786   3.287   3.466 -0.7305  0.3081 -0.1596
  627SOL    HW1 2021   0.868   3.261   3.507  0.5256 -0.5631 -2.9441
  627SOL    HW2 2022   0.731   3.209   3.470 -0.4272  0.0696 -0.4765
  628SOL     OW 2023   2.230   1.078   2.013  0.5583  0.1041 -0.7415
  628SOL    HW1 2024   2.212   1.065   1.920  1.8195  3.8335 -1.6758
  628SOL    HW2 2025   2.318   1.042   2.025  0.6446  0.1762 -1.1401
  629SOL     OW 2026   2.816   1.267   2.403 -0.5211  0.1773  0.2630
  629SOL    HW1 2027   2.834   1.187   2.353  2.1433  1.7553 -1.5429
  629SOL    HW2 2028   2.742   1.307   2.357 -0.0094  0.1360 -0.6250
  630SOL     OW 2029   2.538   1.133   0.389 -0.4909  0.7336 -0.0621
  630SOL    HW1 2030   2.584   1.132   0.305  0.6833  0.4999  0.5629
  630SOL    HW2 2031   2.463   1.191   0.374 -1.6697 -1.1370 -1.9335
  631SOL     OW 2032   3.498   0.644   2.410  0.5534 -0.6363  0.1392
  631SOL    HW1 2033   3.591   0.623   2.399 -0.0218 -2.1883 -3.5239
  631SOL    HW2 2034   3.452   0.568   2.374 -2.0300  1.3442 -1.1296
  632SOL     OW 2035   1.688   2.734   1.725 -0.0341 -0.4738 -0.0016
  632SOL    HW1 2036   1.606   2.782   1.733 -0.8007 -1.5336 -1.1827
  632SOL    HW2 2037   1.669   2.649   1.764  1.4079  0.2191  2.3831
  633SOL     OW 2038   1.145   1.747   2.303 -0.2775 -0.1685 -0.4579
  633SOL    HW1 2039   1.076   1.800   2.341 -0.7676  0.6633 -2.3538
  633SOL    HW2 2040   1.100   1.670   2.269 -0.0335 -0.3623 -0.3441
  634SOL     OW 2041   3.101   1.347   1.353 -0.2692  0.2269  0.2728
  634SOL    HW1 2042   3.182   1.392   1.329  0.2325  0.0269  1.5153
  634SOL    HW2 2043   3.104   1.265   1.304  1.0779 -0.5008  1.5193
  635SOL     OW 2044   0.071   1.212   0.951  0.0585  0.0598 -0.0144
  635SOL    HW1 2045   0.098   1.186   1.039 -0.8352  0.3209  0.3488
  635SOL    HW2 2046   0.037   1.301   0.961  1.4030  0.7089 -0.9245
  636SOL     OW 2047   0.272   2.151   1.948 -0.0201  0.2133  0.6896
  636SOL    HW1 2048   0.206   2.214   1.918  1.2971  0.8372 -1.0882
  636SOL    HW2 2049   0.294   2.180   2.036 -0.5032  1.3381  0.4558
  637SOL     OW 2050   2.060   1.565   0.963 -0.4407 -0.0055  0.0066
  637SOL    HW1 2051   2.013   1.630   0.912  0.3801  0.2298 -0.4694
  637SOL    HW2 2052   2.111   1.616   1.026 -2.8776 -0.3266  2.4315
  638SOL     OW 2053   1.111   2.184   2.214  1.0410 -0.4496  0.2640
  638SOL    HW1 2054   1.096   2.214   2.304  0.2172 -0.9453  0.2988
  638SOL    HW2 2055   1.183   2.122   2.221  2.1213  0.7707  0.3307
  639SOL     OW 2056   2.093   1.022   0.677  0.0976  0.2794  0.2568
  639SOL    HW1 2057   2.043   1.091   0.633 -1.9634 -2.1407 -1.4092
  639SOL    HW2 2058   2.166   1.003   0.618 -0.4624 -0.3031 -0.2559
  640SOL     OW 2059   3.112   0.008   3.594  0.3634  0.0800 -0.1469
  640SOL    HW1 2060   3.126   0.101   3.611  0.2202  0.7234 -3.0642
  640SOL    HW2 2061   3.182  -0.017   3.533 -0.2320 -1.4543 -0.2635
  641SOL     OW 2062   1.644   2.391   1.410  0.0263  0.3305  0.4717
  641SOL    HW1 2063   1.649   2.301   1.441 -1.0005 -0.4996 -1.5486
  641SOL    HW2 2064   1.552   2.403   1.387  0.3924  1.4492 -0.5104
  642SOL     OW 2065   3.617   3.677   1.409 -0.4250  0.2931  0.7903
  642SOL    HW1 2066   3.693   3.688   1.351 -2.6147  0.6467 -2.2425
  642SOL    HW2 2067   3.612   3.760   1.457  1.1903  0.1842  1.1945
  643SOL     OW 2068   3.715   1.699   2.925  0.6736  0.0507 -0.0200
  643SOL    HW1 2069   3.738   1.707   3.017  0.1693 -1.3031  0.2520
  643SOL    HW2 2070   3.632   1.652   2.925  0.2472  0.7669 -1.1418
  644SOL     OW 2071   1.163   0.444   1.700 -0.8812 -0.3102  0.6293
  644SOL    HW1 2072   1.227   0.393   1.651 -0.8430 -0.5133  0.8876
  644SOL    HW2 2073   1.086   0.388   1.705 -1.2589  0.1297 -0.1090
  645SOL     OW 2074   1.952   1.469   2.447 -0.1524 -0.2804  0.5981
  645SOL    HW1 2075   1.872   1.499   2.402  0.8153  0.4730 -0.6903
  645SOL    HW2 2076   2.008   1.547   2.449 -0.4854  0.0477  4.0660
  646SOL     OW 2077   0.103   1.877   0.099  0.6046 -0.3767 -0.0812
  646SOL    HW1 2078   0.068   1.913   0.017 -1.7912  0.5926  1.2627
  646SOL    HW2 2079   0.141   1.793   0.074  2.1249  0.9148 -2.5548
  647SOL     OW 2080   1.204   1.637   1.180  0.2964 -0.4275 -0.6024
  647SOL    HW1 2081   1.285   1.589   1.197  2.4840  1.9352 -3.4086
  647SOL    HW2 2082   1.143   1.571   1.148  1.2069 -2.1930  1.1086
  648SOL     OW 2083   2.046   3.250   1.362 -0.6110  0.0489  0.1400
  648SOL    HW1 2084   2.121   3.205   1.323 -0.7557 -0.6551  0.6469
  648SOL    HW2 2085   1.973   3.190   1.347 -0.7403 -0.0593  1.1418
  649SOL     OW 2086   0.721   3.694   1.416 -0.1344 -0.0514 -0.4611
  649SOL    HW1 2087   0.782   3.746   1.364  1.0129 -1.2050 -0.2939
  649SOL    HW2 2088   0.677   3.637   1.353 -1.0244  0.7371 -0.5735
  650SOL     OW 2089   3.131   1.743   0.193 -0.9100 -0.1596 -0.2505
  650SOL    HW1 2090   3.070   1.688   0.241 -0.0460 -0.8526  0.0890
  650SOL    HW2 2091   3.200   1.684   0.164 -1.1904  0.3040 -2.0396
  651SOL     OW 2092   2.276   0.770   3.068 -0.1558  0.3497 -0.5957
  651SOL    HW1 2093   2.284   0.722   2.986 -0.4476 -0.3385 -0.2245
  651SOL    HW2 2094   2.194   0.818   3.060  0.8543  2.0384 -1.5970
  652SOL     OW 2095   0.415   1.018   2.627  0.4403  0.1851  0.1458
  652SOL    HW1 2096   0.386   1.102   2.592  2.6883  1.1297  0.3916
  652SOL    HW2 2097   0.351   0.955   2.594  0.3453  1.5500 -2.5599
  653SOL     OW 2098   2.122   3.108   1.124  0.0195 -0.2999 -0.2146
  653SOL    HW1 2099   2.158   3.059   1.049 -1.4757  1.4512 -2.1933
  653SOL    HW2 2100   2.072   3.042   1.173  1.7651 -1.6826 -0.2060
  654SOL     OW 2101   3.611   3.371   2.368 -0.0793 -0.1858 -0.4594
  654SOL    HW1 2102   3.588   3.444   2.426 -1.9697 -0.9206 -0.2070
  654SOL    HW2 2103   3.676   3.321   2.418 -0.9505 -0.2684  0.6557
  655SOL     OW 2104   1.684   3.232   0.400  0.1669  0.1451 -0.0383
  655SOL    HW1 2105   1.683   3.306   0.340  0.9352 -0.1718 -0.4489
  655SOL    HW2 2106   1.646   3.160   0.349  0.3447  0.0071  0.0239
  656SOL     OW 2107   1.252   0.287   2.217  0.4170 -0.3000  0.1841
  656SOL    HW1 2108   1.184   0.226   2.246  1.5143 -1.2767  0.7551
  656SOL    HW2 2109   1.212   0.335   2.145 -0.9485 -0.7060  0.6420
  657SOL     OW 2110   1.905   3.728   1.267  0.6551  0.3167 -0.0951
  657SOL    HW1 2111   1.955   3.657   1.308  0.0112 -0.2047 -0.1928
  657SOL    HW2 2112   1.841   3.754   1.333  1.0506  0.9903  0.0327
  658SOL     OW 2113   0.139   1.822   0.371  0.1823  0.0813  0.1247
  658SOL    HW1 2114   0.157   1.729   0.357 -1.9985 -0.4418  0.3950
  658SOL    HW2 2115   0.119   1.856   0.283  0.5663  0.1970  0.0817
  659SOL     OW 2116   0.831   0.714   1.692  0.4683  0.2857 -0.5429
  659SOL    HW1 2117   0.786   0.638   1.654 -1.1182  1.5010 -1.2247
  659SOL    HW2 2118   0.818   0.783   1.627  2.1596  1.0780 -0.0775
  660SOL     OW 2119   0.504   0.257   1.404 -0.0130 -0.0429  0.5360
  660SOL    HW1 2120   0.414   0.247   1.435 -0.3319 -0.7489 -0.5494
  660SOL    HW2 2121   0.558   0.229   1.478 -0.6011  1.8987  1.7854
  661SOL     OW 2122   3.482   1.638   3.682  0.3718 -0.3727  0.3849
  661SOL    HW1 2123   3.403   1.674   3.644  0.0263 -0.4355  1.0215
  661SOL    HW2 2124   3.511   1.570   3.621  1.8355  1.8832 -1.5864
  662SOL     OW 2125   2.020   0.481   0.394  0.0460  0.0365  0.0164
  662SOL    HW1 2126   2.076   0.492   0.471 -0.1782 -0.5589  0.2716
  662SOL    HW2 2127   1.957   0.553   0.400  1.7088  1.6885 -1.1283
  663SOL     OW 2128   0.211   1.814   0.661 -0.5174 -0.0514 -0.3117
  663SOL    HW1 2129   0.168   1.817   0.576  1.5920 -1.0871 -1.4782
  663SOL    HW2 2130   0.221   1.721   0.680 -0.7389  0.1668  0.9832
  664SOL     OW 2131   0.774   1.816   3.466  0.0958  0.6027 -0.2470
  664SOL    HW1 2132   0.841   1.868   3.510 -0.9214 -0.0988  2.3331
  664SOL    HW2 2133   0.761   1.741   3.524 -2.0059  0.0562 -1.3271
  665SOL     OW 2134   1.827   2.701   2.378 -0.5071 -0.1802  0.3074
  665SOL    HW1 2135   1.808   2.741   2.293 -1.8419 -0.5324  0.4096
  665SOL    HW2 2136   1.922   2.697   2.383 -0.4189 -0.8271 -1.4919
  666SOL     OW 2137   0.674   1.327   3.541 -0.7889 -0.0483  0.2014
  666SOL    HW1 2138   0.659   1.275   3.463 -0.8631 -2.0432  1.4930
  666SOL    HW2 2139   0.676   1.264   3.613  1.2552  1.4731  1.6051
  667SOL     OW 2140   0.916   2.895   1.139 -0.1904  0.1154  0.0381
  667SOL    HW1 2141   0.847   2.960   1.129 -0.4703 -0.0794  0.6104
  667SOL    HW2 2142   0.931   2.891   1.233  1.0292  0.5869 -0.1309
  668SOL     OW 2143   3.703   2.425   0.640  0.2004 -0.5759  0.1313
  668SOL    HW1 2144   3.692   2.493   0.706 -2.2892 -0.9106  0.1712
  668SOL    HW2 2145   3.693   2.471   0.556 -0.7927 -0.7506  0.1400
  669SOL     OW 2146   2.513   1.027   3.506 -0.8442 -0.3146 -0.9289
  669SOL    HW1 2147   2.461   1.068   3.575  0.9202 -0.1354  0.3453
  669SOL    HW2 2148   2.452   0.966   3.464 -1.7354 -1.1531  1.4197
  670SOL     OW 2149   0.070   0.808   0.877 -0.2270 -0.3466  0.5257
  670SOL    HW1 2150   0.031   0.895   0.866 -1.0208 -0.7266  0.2201
  670SOL    HW2 2151   0.117   0.813   0.961 -0.8278  0.1786  0.8415
  671SOL     OW 2152   0.545   0.443   0.207  0.1866  0.1074 -0.8549
  671SOL    HW1 2153   0.480   0.399   0.153 -0.9205  1.6139 -0.8106
  671SOL    HW2 2154   0.628   0.426   0.163 -0.1984 -1.7860 -0.9630
  672SOL     OW 2155   2.762   2.183   0.656 -0.2738 -0.0599 -0.1394
  672SOL    HW1 2156   2.851   2.152   0.669  0.2664  0.9712 -1.2188
  672SOL    HW2 2157   2.770   2.278   0.650 -1.7239  0.2500  1.8259
  673SOL     OW 2158   1.504   0.779   0.441  0.0749  0.4239  0.1918
  673SOL    HW1 2159   1.552   0.835   0.501  0.7591 -0.0667  0.1022
  673SOL    HW2 2160   1.461   0.714   0.497 -0.6169  0.9548  0.2848
  674SOL     OW 2161   0.589   1.345   2.610 -0.7758  0.0115 -0.6308
  674SOL    HW1 2162   0.623   1.268   2.564  0.0533  1.7080 -3.0835
  674SOL    HW2 2163   0.536   1.309   2.681  0.4624 -2.7877 -0.9789
  675SOL     OW 2164   3.676   3.312   2.761 -0.6263 -0.2401  0.1310
  675SOL    HW1 2165   3.745   3.357   2.712 -1.8793  2.0784  0.3585
  675SOL    HW2 2166   3.686   3.342   2.851 -2.7526  1.3816 -0.0755
  676SOL     OW 2167   0.955   1.483   3.391 -0.1072 -0.7451 -0.4918
  676SOL    HW1 2168   0.908   1.491   3.474 -1.1245 -0.1891 -1.1024
  676SOL    HW2 2169   1.013   1.408   3.404  0.0759 -0.4071  0.8647
  677SOL     OW 2170   3.682   0.301   3.195 -0.4038  0.0759 -0.0408
  677SOL    HW1 2171   3.761   0.254   3.168 -2.1052 -2.1556 -1.4295
  677SOL    HW2 2172   3.713   0.390   3.214  2.5292 -0.8868  0.1918
  678SOL     OW 2173   2.255   3.545   3.353  0.0480  0.0861 -0.1536
  678SOL    HW1 2174   2.241   3.452   3.373  1.7931 -0.1240  0.1818
  678SOL    HW2 2175   2.275   3.585   3.438 -0.6935  0.7849 -0.2965
  679SOL     OW 2176   1.647   0.422   3.384  0.4091  0.1585  0.3219
  679SOL    HW1 2177   1.630   0.360   3.313 -0.4077 -0.9162  1.3974
  679SOL    HW2 2178   1.586   0.494   3.369  1.4089  0.7759 -0.9773
  680SOL     OW 2179   2.001   1.808   1.925 -0.2494 -0.3777 -0.6061
  680SOL    HW1 2180   1.932   1.832   1.863 -0.5461 -0.1513 -0.1944
  680SOL    HW2 2181   2.008   1.884   1.983 -1.3130 -1.3123  0.8293
  681SOL     OW 2182   3.619   2.759   2.499  0.0995  0.0293  1.0262
  681SOL    HW1 2183   3.709   2.766   2.530  0.7944  2.2373 -1.2046
  681SOL    HW2 2184   3.575   2.837   2.532 -1.5943 -1.8006  3.4916
  682SOL     OW 2185   0.343   1.080   1.919 -1.0436 -0.5224 -0.0134
  682SOL    HW1 2186   0.336   1.076   1.824 -0.8949 -3.1042  0.0138
  682SOL    HW2 2187   0.437   1.071   1.936 -1.0536  0.0888  0.3758
  683SOL     OW 2188   1.652   2.529   0.830 -0.0629 -0.0248 -0.5901
  683SOL    HW1 2189   1.596   2.518   0.907  1.3370 -0.3919  0.4259
  683SOL    HW2 2190   1.610   2.598   0.780 -0.3867  1.1206  1.1453
  684SOL     OW 2191   2.594   1.436   0.458  0.0005  0.7051  0.6391
  684SOL    HW1 2192   2.570   1.517   0.502 -0.1216  2.2286 -2.0066
  684SOL    HW2 2193   2.511   1.392   0.440  0.0318  0.2346  1.5974
  685SOL     OW 2194   1.208   0.791   1.185 -0.0795  0.2443 -0.0962
  685SOL    HW1 2195   1.133   0.800   1.245 -0.1988  0.9853 -0.3377
  685SOL    HW2 2196   1.173   0.816   1.100  0.3499  0.2090 -0.2849
  686SOL     OW 2197   0.113   2.304   1.437 -0.1168  0.0647 -0.5261
  686SOL    HW1 2198   0.143   2.321   1.348 -1.5109 -1.3388 -1.3030
  686SOL    HW2 2199   0.023   2.337   1.439 -0.0966  0.1133  0.3982
  687SOL     OW 2200   0.794   0.193   2.550 -0.6305  0.2132  0.3314
  687SOL    HW1 2201   0.847   0.203   2.629 -0.7034  0.5014  0.3444
  687SOL    HW2 2202   0.854   0.214   2.478 -0.7700  0.6926  0.3556
  688SOL     OW 2203   0.714   2.129   3.410 -0.2749  0.0819  0.6865
  688SOL    HW1 2204   0.719   2.191   3.337  0.7585 -1.9651 -1.0701
  688SOL    HW2 2205   0.799   2.138   3.455 -0.5002  0.6011  1.0127
  689SOL     OW 2206   0.080   2.903   0.567 -0.2159  0.4058 -0.5760
  689SOL    HW1 2207   0.126   2.982   0.595  0.6536 -0.1640 -0.3446
  689SOL    HW2 2208   0.002   2.935   0.523 -0.2144  1.3802  0.0963
  690SOL     OW 2209   3.536   2.133   3.398 -0.1382  0.0253  0.2823
  690SOL    HW1 2210   3.548   2.175   3.483 -3.0328 -1.4349  1.5828
  690SOL    HW2 2211   3.557   2.041   3.413  0.2105 -0.1091 -0.8739
  691SOL     OW 2212   3.379   2.365   2.187  0.2728  0.6260 -0.5044
  691SOL    HW1 2213   3.301   2.420   2.179 -0.3216 -0.2131 -0.6967
  691SOL    HW2 2214   3.443   2.420   2.231 -1.0262  0.7624  1.3362
  692SOL     OW 2215   2.081   1.897   0.024  0.1587  0.1684  0.2433
  692SOL    HW1 2216   2.067   1.841   0.100 -2.2698  1.2225  0.6630
  692SOL    HW2 2217   2.140   1.965   0.055 -0.9319  0.6792  1.2784
  693SOL     OW 2218   0.108   2.545   1.717  0.0687  0.0048 -0.3330
  693SOL    HW1 2219   0.114   2.519   1.809  1.1567 -0.0128 -0.3894
  693SOL    HW2 2220   0.015   2.537   1.696  0.0069 -1.4425  0.3462
  694SOL     OW 2221   1.560   3.668   1.176 -0.2014  0.4826 -0.1983
  694SOL    HW1 2222   1.524   3.581   1.196 -4.8766  1.2587 -3.4583
  694SOL    HW2 2223   1.634   3.650   1.118  0.3088 -1.2838  0.9099
  695SOL     OW 2224   0.748   2.349   3.187  0.2783  0.2656 -0.0564
  695SOL    HW1 2225   0.698   2.430   3.195  0.3969  0.2108  1.5651
  695SOL    HW2 2226   0.839   2.378   3.178 -0.0010  0.4216 -4.4367
  696SOL     OW 2227   2.006   0.877   2.128 -0.2390  0.4844 -0.0539
  696SOL    HW1 2228   2.021   0.782   2.132 -2.8842  0.0275  0.9335
  696SOL    HW2 2229   2.088   0.915   2.160  0.2374 -1.5344  1.3518
  697SOL     OW 2230   0.839   1.655   3.216 -0.1356 -0.6161  0.0433
  697SOL    HW1 2231   0.889   1.584   3.256 -2.4075 -1.5038  1.4611
  697SOL    HW2 2232   0.839   1.725   3.281  2.6128  1.1179 -1.5729
  698SOL     OW 2233   1.982   1.461   3.530 -0.2308 -0.4051  0.2819
  698SOL    HW1 2234   1.937   1.507   3.459 -0.4571  0.3023  0.8680
  698SOL    HW2 2235   2.050   1.522   3.559  0.6182 -1.1641 -0.0951
  699SOL     OW 2236   1.256   2.749   2.988  0.4036 -0.1013 -0.0561
  699SOL    HW1 2237   1.314   2.777   3.058  0.4804 -1.8219  0.6039
  699SOL    HW2 2238   1.256   2.653   2.993  0.1248 -0.2562 -2.1755
  700SOL     OW 2239   0.787   2.752   0.948 -0.7917  0.5202 -0.6718
  700SOL    HW1 2240   0.842   2.783   1.020 -0.6005  1.9976 -1.4072
  700SOL    HW2 2241   0.753   2.668   0.978  0.5418  0.3550  0.4797
  701SOL     OW 2242   0.796   0.893   2.382  0.7762  0.0598  0.6718
  701SOL    HW1 2243   0.823   0.804   2.360 -2.1769 -0.9963  0.9913
  701SOL    HW2 2244   0.765   0.930   2.299  0.8327  0.3475  0.7778
  702SOL     OW 2245   2.742   1.743   1.444 -0.5392  0.0739 -0.4207
  702SOL    HW1 2246   2.782   1.662   1.413 -1.5697 -0.9000  0.6987
  702SOL    HW2 2247   2.804   1.812   1.419  1.8905 -1.3480  1.3090
  703SOL     OW 2248   0.151   2.723   2.870 -0.6929  0.2051  0.5603
  703SOL    HW1 2249   0.134   2.633   2.841  0.3155 -0.4657  1.9216
  703SOL    HW2 2250   0.083   2.740   2.936  0.5901 -0.5496  2.1663
  704SOL     OW 2251   3.483   0.302   0.961  0.2759  0.4779 -0.0020
  704SOL    HW1 2252   3.517   0.384   0.996  0.5743  0.5189 -0.3749
  704SOL    HW2 2253   3.496   0.238   1.031 -1.8447  1.1620  1.0991
  705SOL     OW 2254   0.636   2.545   2.323  0.2560 -0.5919 -0.2322
  705SOL    HW1 2255   0.585   2.611   2.372  0.1854 -0.8854  0.0934
  705SOL    HW2 2256   0.663   2.482   2.390  0.4671 -0.8030 -0.5176
  706SOL     OW 2257   2.307   1.852   1.903 -0.1833 -0.6726  0.5322
  706SOL    HW1 2258   2.273   1.900   1.827  1.4195  0.2539  0.3633
  706SOL    HW2 2259   2.382   1.803   1.869  0.8760  0.1628  1.5890
  707SOL     OW 2260   0.329   1.483   1.611  0.1185  0.2459  0.5767
  707SOL    HW1 2261   0.263   1.520   1.670  1.7689  3.3639  0.6796
  707SOL    HW2 2262   0.388   1.556   1.592  1.1036 -1.2534 -2.9806
  708SOL     OW 2263   0.834   1.919   0.558  0.2569  0.9595  0.6618
  708SOL    HW1 2264   0.806   1.859   0.627  0.9020 -0.7943 -0.5343
  708SOL    HW2 2265   0.766   1.986   0.556 -0.6608  0.1178  1.8600
  709SOL     OW 2266   3.183   3.076   0.234 -1.0243  0.5536 -0.1336
  709SOL    HW1 2267   3.216   3.166   0.231  2.9332 -0.6366  1.4065
  709SOL    HW2 2268   3.098   3.083   0.278 -1.4407  3.6170 -1.2000
  710SOL     OW 2269   3.605   2.413   0.162 -0.6035  0.4452 -0.6553
  710SOL    HW1 2270   3.565   2.500   0.159  0.2046  0.8733  0.2557
  710SOL    HW2 2271   3.674   2.421   0.229  1.1740 -0.1741 -2.3280
  711SOL     OW 2272   1.550   2.926   1.103  0.0785  0.5715  0.9821
  711SOL    HW1 2273   1.472   2.886   1.063  1.0483 -0.1157 -0.3086
  711SOL    HW2 2274   1.539   2.912   1.197 -0.5115 -1.1078  0.6893
  712SOL     OW 2275   0.241   1.514   0.681 -0.7096 -0.4350  0.8806
  712SOL    HW1 2276   0.210   1.489   0.768 -0.3466 -2.3915  0.4944
  712SOL    HW2 2277   0.180   1.473   0.620 -0.9818  0.9371  0.1855
  713SOL     OW 2278   2.905   0.487   2.856  0.1098  0.8328 -0.2097
  713SOL    HW1 2279   2.853   0.540   2.916 -0.7040  0.4337 -0.5384
  713SOL    HW2 2280   2.990   0.529   2.853 -0.5131  2.1160 -0.4619
  714SOL     OW 2281   3.070   1.636   1.530 -0.2775  0.0260 -0.3710
  714SOL    HW1 2282   3.123   1.695   1.477 -0.4864 -0.5393 -1.2432
  714SOL    HW2 2283   3.017   1.693   1.585 -0.8934  0.6663 -1.6070
  715SOL     OW 2284   3.446   1.132   0.667 -0.0169  0.1379 -0.0192
  715SOL    HW1 2285   3.397   1.203   0.710  0.4301  2.3704 -2.8436
  715SOL    HW2 2286   3.538   1.153   0.685  0.1220  0.4315 -1.0061
  716SOL     OW 2287   3.695   0.672   2.951 -0.2478 -0.4652  0.0652
  716SOL    HW1 2288   3.652   0.730   2.888 -3.3683 -1.2099  1.3190
  716SOL    HW2 2289   3.686   0.585   2.914  2.7395 -0.4753 -0.8967
  717SOL     OW 2290   2.978   1.906   0.039 -0.1190 -0.2190 -0.0019
  717SOL    HW1 2291   3.041   1.851   0.085 -1.2508 -1.4813  0.1205
  717SOL    HW2 2292   2.920   1.843  -0.005 -1.3161  0.8854 -0.0606
  718SOL     OW 2293   1.459   2.822   2.772  0.5957  0.0541 -0.0383
  718SOL    HW1 2294   1.477   2.771   2.693 -0.0379 -0.2602  0.0161
  718SOL    HW2 2295   1.424   2.759   2.834  0.9513  0.3295  0.4519
  719SOL     OW 2296   1.542   1.543   3.524  0.5957  0.1946  0.0188
  719SOL    HW1 2297   1.464   1.539   3.469  0.4489  1.5180  0.0973
  719SOL    HW2 2298   1.554   1.636   3.542  0.9997 -0.1433  1.7196
  720SOL     OW 2299   3.609   1.713   0.750 -0.3812  0.4315  0.0373
  720SOL    HW1 2300   3.614   1.723   0.655  1.0575 -0.5683 -0.0274
  720SOL    HW2 2301   3.624   1.801   0.784 -0.6674  0.7550 -0.6506
  721SOL     OW 2302   1.063   2.915   2.859 -0.1588 -0.0883  0.3031
  721SOL    HW1 2303   1.125   2.964   2.806 -0.5387  1.0065  0.8399
  721SOL    HW2 2304   1.112   2.838   2.888  1.4399  1.4319  1.8828
  722SOL     OW 2305   1.590   0.219   1.283 -0.0635 -0.6034 -0.0190
  722SOL    HW1 2306   1.623   0.148   1.227  0.1959 -0.7018  0.2545
  722SOL    HW2 2307   1.495   0.210   1.280 -0.1092  0.0972 -1.3623
  723SOL     OW 2308   3.464   0.246   3.022 -0.0990  0.0891 -0.3959
  723SOL    HW1 2309   3.547   0.255   3.070  0.2451  1.6080 -1.2011
  723SOL    HW2 2310   3.490   0.222   2.933 -0.3868  1.8386 -0.9998
  724SOL     OW 2311   0.729   1.581   3.643  0.1015 -0.0520 -0.2899
  724SOL    HW1 2312   0.690   1.576   3.730  0.8903  1.8168  0.2196
  724SOL    HW2 2313   0.723   1.492   3.608  0.3203 -0.9730  1.9068
  725SOL     OW 2314   0.345   0.268   2.616  0.0419 -0.1427  0.1652
  725SOL    HW1 2315   0.377   0.356   2.635  2.3568 -1.0452  0.7597
  725SOL    HW2 2316   0.415   0.226   2.567 -1.0535 -1.6441 -0.2017
  726SOL     OW 2317   3.530   0.370   1.954  0.6912  0.5718 -0.0889
  726SOL    HW1 2318   3.455   0.318   1.926  0.6160  1.2465 -1.2147
  726SOL    HW2 2319   3.600   0.349   1.892  1.2059  0.5243  0.4846
  727SOL     OW 2320   0.346   0.235   2.047 -0.0469 -0.5615 -0.2196
  727SOL    HW1 2321   0.419   0.191   2.004 -0.4244 -0.4983 -0.9351
  727SOL    HW2 2322   0.360   0.219   2.140  1.6051  0.5612 -0.2476
  728SOL     OW 2323   2.592  -0.010   0.525  1.0135  0.0058 -0.0410
  728SOL    HW1 2324   2.570   0.016   0.615 -2.7685 -1.9885 -0.1854
  728SOL    HW2 2325   2.551   0.055   0.470 -2.2541 -2.0200 -0.2639
  729SOL     OW 2326   1.281   2.989   2.652 -0.4799  0.8851  0.2473
  729SOL    HW1 2327   1.336   2.925   2.698 -0.8915 -0.1134 -0.6156
  729SOL    HW2 2328   1.328   3.008   2.571 -0.8640  0.8791  0.0200
  730SOL     OW 2329   2.331   0.335   1.786  0.0713 -0.2918  0.5162
  730SOL    HW1 2330   2.253   0.362   1.737  1.1847  0.1079 -1.1359
  730SOL    HW2 2331   2.403   0.385   1.747  1.3649 -1.5996  1.0984
  731SOL     OW 2332   2.622   0.506   1.269  0.3015  0.6328  0.3551
  731SOL    HW1 2333   2.602   0.422   1.227 -1.7445  1.0127  0.4478
  731SOL    HW2 2334   2.682   0.549   1.209 -1.0561  0.3599 -1.2944
  732SOL     OW 2335   2.890   2.828   0.142  0.3553  0.2777 -0.0718
  732SOL    HW1 2336   2.875   2.872   0.058 -1.2603  2.2189  1.1620
  732SOL    HW2 2337   2.822   2.862   0.200  1.0614 -1.4469  1.9085
  733SOL     OW 2338   2.300   1.336   2.249  0.0037 -0.3628  0.1876
  733SOL    HW1 2339   2.242   1.315   2.322 -1.4671  1.4603 -0.3914
  733SOL    HW2 2340   2.384   1.356   2.290 -0.5893 -0.1034  1.3035
  734SOL     OW 2341   1.796   3.031   1.070  0.0773  0.1925 -0.6847
  734SOL    HW1 2342   1.704   3.007   1.079  0.1377  0.2857  0.2845
  734SOL    HW2 2343   1.840   2.984   1.141  0.5217  1.4138 -0.1183
  735SOL     OW 2344   2.867   0.753   3.647  0.2624 -0.1431  0.4010
  735SOL    HW1 2345   2.823   0.720   3.569 -1.1231  2.0704  0.1425
  735SOL    HW2 2346   2.869   0.848   3.635 -2.3689  0.6316  4.1336
  736SOL     OW 2347   0.243   0.271   3.332 -0.4420  0.1392  1.2535
  736SOL    HW1 2348   0.245   0.352   3.384 -0.2886  2.0831 -1.5912
  736SOL    HW2 2349   0.331   0.265   3.295 -0.3224 -1.6336  1.7428
  737SOL     OW 2350   2.035   3.323   3.330  0.1906 -0.5894 -0.1562
  737SOL    HW1 2351   2.086   3.245   3.351  2.9950  0.8231 -1.1155
  737SOL    HW2 2352   2.000   3.352   3.414  2.6764 -0.5803  0.9714
  738SOL     OW 2353   0.488   0.748   3.400  0.0709 -0.1632 -0.5448
  738SOL    HW1 2354   0.414   0.749   3.339  0.2776  0.4505 -0.7890
  738SOL    HW2 2355   0.532   0.664   3.383  0.1946  0.0493 -1.3301
  739SOL     OW 2356   3.449   2.385   2.544 -0.1828 -0.4046 -0.5538
  739SOL    HW1 2357   3.402   2.461   2.510  0.2088 -0.6873 -1.7748
  739SOL    HW2 2358   3.380   2.321   2.563 -0.7420  0.8623  2.3751
  740SOL     OW 2359   1.120   3.114   0.622  0.9780 -0.0994  0.2446
  740SOL    HW1 2360   1.132   3.162   0.540  2.9224 -0.8034  0.0500
  740SOL    HW2 2361   1.038   3.067   0.611  1.4851 -0.6410 -1.5706
  741SOL     OW 2362   2.848   0.799   0.905  0.0749 -0.2023  0.6277
  741SOL    HW1 2363   2.779   0.815   0.842  1.0410  0.8718 -0.1966
  741SOL    HW2 2364   2.833   0.863   0.974 -1.5034 -1.9396  2.0203
  742SOL     OW 2365   3.264   3.124   1.826 -0.2457 -0.6468 -0.3452
  742SOL    HW1 2366   3.235   3.033   1.837 -0.1364 -0.5417  0.9091
  742SOL    HW2 2367   3.319   3.122   1.748  0.9056 -1.9505  0.4509
  743SOL     OW 2368   1.794   3.102   0.094 -0.2676  0.3890 -0.0054
  743SOL    HW1 2369   1.774   3.153   0.016 -0.2917  0.7209  0.2145
  743SOL    HW2 2370   1.709   3.086   0.135 -0.3954 -0.8869 -0.7137
  744SOL     OW 2371   1.884   1.941   1.679  0.2078  0.5399 -0.5310
  744SOL    HW1 2372   1.796   1.906   1.693  0.3351 -0.4694 -1.9800
  744SOL    HW2 2373   1.894   1.943   1.583  1.3500  1.7064 -0.4202
  745SOL     OW 2374   1.012   1.964   3.387 -0.3848  0.6271 -0.0161
  745SOL    HW1 2375   1.022   1.985   3.480  1.2948  2.6942 -0.5822
  745SOL    HW2 2376   1.069   1.888   3.374  0.7546  1.3903  0.3407
  746SOL     OW 2377   2.622   0.769   0.733  0.4316 -0.2237 -0.0978
  746SOL    HW1 2378   2.553   0.740   0.793 -0.0534 -1.2726 -1.1040
  746SOL    HW2 2379   2.640   0.691   0.679 -0.6694  1.1729 -2.6958
  747SOL     OW 2380   1.979   0.391   1.459 -0.0039  0.1625  0.4374
  747SOL    HW1 2381   2.007   0.455   1.394  0.2099 -0.0233  0.3462
  747SOL    HW2 2382   1.905   0.346   1.419 -0.6025  0.8188  0.7742
  748SOL     OW 2383   3.419   0.306   3.319  0.8853  0.3206 -0.5518
  748SOL    HW1 2384   3.505   0.290   3.281  0.4195  1.1339 -2.0253
  748SOL    HW2 2385   3.360   0.247   3.271  0.4181  0.7349 -0.4924
  749SOL     OW 2386   2.304   0.329   1.462  0.1052  0.9188 -0.1167
  749SOL    HW1 2387   2.393   0.317   1.494 -0.1416  0.5824  0.4566
  749SOL    HW2 2388   2.271   0.240   1.449 -1.1811  0.8999  2.5862
  750SOL     OW 2389   1.424   1.041   0.946 -0.7754 -0.5028  0.0380
  750SOL    HW1 2390   1.394   1.002   0.863  1.5453 -0.4773 -0.9021
  750SOL    HW2 2391   1.398   1.133   0.940 -2.5999 -0.9641  0.3874
  751SOL     OW 2392   1.827   0.316   1.719  0.0707  0.5705 -0.1778
  751SOL    HW1 2393   1.787   0.390   1.765  1.2920  1.3986 -0.3938
  751SOL    HW2 2394   1.782   0.313   1.635 -1.0374  0.0813  0.4043
  752SOL     OW 2395   3.262   0.039   3.113  0.2446 -0.2525  0.5409
  752SOL    HW1 2396   3.231   0.068   3.027  0.0114 -0.4676  0.5502
  752SOL    HW2 2397   3.352   0.073   3.119  0.8915 -1.6645 -0.5036
  753SOL     OW 2398   1.356   2.826   2.008  0.4261 -0.0517 -0.5606
  753SOL    HW1 2399   1.263   2.803   2.011 -0.1540  1.9950 -0.9322
  753SOL    HW2 2400   1.402   2.745   2.029 -1.4520 -1.0094  0.0753
  754SOL     OW 2401   2.914   2.110   2.659  0.3667  0.0808  0.2981
  754SOL    HW1 2402   2.954   2.039   2.710 -0.4515  0.0265  0.8687
  754SOL    HW2 2403   2.912   2.185   2.718  1.8472  0.8131 -0.5116
  755SOL     OW 2404   0.449   1.966   2.227 -0.1248  0.0452 -0.8321
  755SOL    HW1 2405   0.459   2.052   2.187 -3.1227  0.8622 -0.0926
  755SOL    HW2 2406   0.388   1.920   2.170 -0.5079 -0.6321  0.0876
  756SOL     OW 2407   0.300   2.118   0.831  0.0967 -0.1211  0.0902
  756SOL    HW1 2408   0.377   2.143   0.883  1.5638 -2.3791 -0.7958
  756SOL    HW2 2409   0.274   2.033   0.868 -0.7412 -0.3059 -0.9037
  757SOL     OW 2410   0.860   2.646   1.405  0.1093 -0.3906 -0.3475
  757SOL    HW1 2411   0.927   2.580   1.386  0.5109 -0.3688  0.9192
  757SOL    HW2 2412   0.909   2.728   1.413 -0.1979 -0.1998 -0.4299
  758SOL     OW 2413   2.589   2.630   2.479 -0.0606  0.5062  0.1303
  758SOL    HW1 2414   2.636   2.712   2.496 -0.3094  0.8662 -0.8189
  758SOL    HW2 2415   2.536   2.649   2.402 -2.2464  0.3049  1.5019
  759SOL     OW 2416   0.991   2.300   3.299 -0.7663 -0.0786  0.4107
  759SOL    HW1 2417   1.085   2.292   3.317  0.0628  1.3254 -2.6869
  759SOL    HW2 2418   0.949   2.282   3.383  2.2228 -1.3634  1.7615
  760SOL     OW 2419   1.497   3.314   0.580 -0.2397 -0.4214 -0.0987
  760SOL    HW1 2420   1.541   3.274   0.655 -0.9973 -0.6428  0.2413
  760SOL    HW2 2421   1.558   3.303   0.507  0.8299  0.4728  0.6372
  761SOL     OW 2422   2.555   0.639   3.220 -0.6722  0.5142 -0.1247
  761SOL    HW1 2423   2.471   0.597   3.235  0.0535 -0.8297  0.4010
  761SOL    HW2 2424   2.580   0.611   3.132  1.3359 -3.1142  1.3909
  762SOL     OW 2425   0.103   2.263   2.208  0.0074 -0.1781 -0.1178
  762SOL    HW1 2426   0.115   2.358   2.219 -1.5894  0.1596 -0.9941
  762SOL    HW2 2427   0.040   2.239   2.276  0.2956 -0.6034  0.0050
  763SOL     OW 2428   1.719   0.546   0.214 -0.6922 -0.1893  0.8252
  763SOL    HW1 2429   1.735   0.494   0.135  0.9005  1.4024  0.0442
  763SOL    HW2 2430   1.630   0.580   0.203  0.5152  2.5157 -1.8833
  764SOL     OW 2431   0.994   0.709   2.851  0.0692  0.3025 -0.4880
  764SOL    HW1 2432   1.043   0.681   2.928 -0.4329 -0.6795 -0.5072
  764SOL    HW2 2433   1.035   0.792   2.825 -0.7078  1.4327  1.6799
  765SOL     OW 2434   2.797   0.498   3.140  0.0639  0.8007 -0.5492
  765SOL    HW1 2435   2.779   0.550   3.218  1.0354  2.2487 -1.2449
  765SOL    HW2 2436   2.893   0.493   3.136  0.0827  1.6517 -2.1807
  766SOL     OW 2437   3.441   3.191   2.250 -0.5637  0.0928  0.3039
  766SOL    HW1 2438   3.352   3.180   2.285 -1.0044 -1.2103 -1.0936
  766SOL    HW2 2439   3.476   3.266   2.297 -2.2535  0.3728  1.2081
  767SOL     OW 2440   3.416   0.395   1.396 -0.1893  0.0347 -0.4357
  767SOL    HW1 2441   3.370   0.405   1.313 -1.3107  1.9228  0.3508
  767SOL    HW2 2442   3.394   0.474   1.446  0.8809 -0.7837  1.4558
  768SOL     OW 2443   0.565   3.300   0.499 -0.5411 -0.0081  0.0282
  768SOL    HW1 2444   0.600   3.230   0.445 -0.0364  0.9341 -0.8848
  768SOL    HW2 2445   0.501   3.344   0.443  0.8978  1.7717 -0.3113
  769SOL     OW 2446   3.595   2.348   2.812 -0.3553 -0.6435  0.0988
  769SOL    HW1 2447   3.544   2.372   2.735 -0.0686 -1.1557 -0.2597
  769SOL    HW2 2448   3.597   2.252   2.811  0.3887 -0.6348  0.2493
  770SOL     OW 2449   3.334   2.576   2.713 -0.5282 -0.4620  0.5636
  770SOL    HW1 2450   3.279   2.653   2.696 -1.2425 -0.9996  0.4162
  770SOL    HW2 2451   3.275   2.514   2.756 -0.1806 -1.2486 -0.0752
  771SOL     OW 2452   0.772   3.577   3.328 -0.4613 -0.0355 -0.1377
  771SOL    HW1 2453   0.706   3.559   3.261  0.8937 -0.6510 -1.3686
  771SOL    HW2 2454   0.786   3.493   3.371 -0.3936  0.0654  0.0388
  772SOL     OW 2455   1.135   2.282   2.464  0.3654 -0.1644  0.4742
  772SOL    HW1 2456   1.148   2.367   2.506 -1.2602  0.6375 -0.5103
  772SOL    HW2 2457   1.086   2.231   2.529  2.7018 -0.9820  1.7019
  773SOL     OW 2458   0.398   0.537   1.503  0.5014 -0.2232 -0.7534
  773SOL    HW1 2459   0.358   0.462   1.458  0.1202 -0.6864  0.3336
  773SOL    HW2 2460   0.339   0.555   1.576 -0.8312  2.7911 -2.4148
  774SOL     OW 2461   3.087   0.326   1.879 -0.1450 -0.4257  0.3474
  774SOL    HW1 2462   3.121   0.314   1.790 -0.6170 -0.3443  0.1509
  774SOL    HW2 2463   3.164   0.319   1.935 -0.1056 -2.4980  0.1225
  775SOL     OW 2464   1.046   0.649   3.456  0.4937  0.5697  0.1904
  775SOL    HW1 2465   1.057   0.585   3.526 -0.3779  0.7323  0.4877
  775SOL    HW2 2466   0.955   0.640   3.429  0.6583  0.9231 -0.5214
  776SOL     OW 2467   1.704   0.436   0.896 -0.8985  0.3413  0.2164
  776SOL    HW1 2468   1.654   0.515   0.915  0.8179  0.8619  3.2206
  776SOL    HW2 2469   1.707   0.388   0.979 -1.2170 -2.5718 -1.2940
  777SOL     OW 2470   0.667   0.517   3.626 -0.2158  0.0041  0.3432
  777SOL    HW1 2471   0.655   0.501   3.533 -3.2978  1.7203  0.3059
  777SOL    HW2 2472   0.723   0.595   3.630 -0.1877  0.0073 -0.0967
  778SOL     OW 2473   2.375   0.692   2.148 -0.0912  0.4405  0.0066
  778SOL    HW1 2474   2.416   0.605   2.152 -0.2423  0.4136  1.2364
  778SOL    HW2 2475   2.414   0.733   2.070  0.3353 -0.5449 -0.3178
  779SOL     OW 2476   2.215   1.305   2.842  0.5743  0.2087  0.2144
  779SOL    HW1 2477   2.218   1.212   2.863  0.6329  0.4927  1.5742
  779SOL    HW2 2478   2.161   1.310   2.763  0.0028 -0.9158  0.5073
  780SOL     OW 2479   3.530   1.885   1.530  0.6712 -0.9641  0.2758
  780SOL    HW1 2480   3.500   1.798   1.505  2.4596 -0.9664 -2.3410
  780SOL    HW2 2481   3.624   1.883   1.514  0.6708  1.6066 -0.5054
  781SOL     OW 2482   2.442   2.802   0.816  0.3145 -0.0273 -0.0490
  781SOL    HW1 2483   2.494   2.788   0.737 -0.2703  1.5275 -0.7371
  781SOL    HW2 2484   2.423   2.896   0.817  0.0366 -0.0520  1.7764
  782SOL     OW 2485   2.614   0.938   0.996 -0.1501 -0.1362 -0.0120
  782SOL    HW1 2486   2.578   1.014   0.950 -1.0874 -2.5596 -3.6358
  782SOL    HW2 2487   2.537   0.890   1.027  0.4398  0.4344  2.5691
  783SOL     OW 2488   2.245   2.396   0.095 -0.3432 -0.5586 -0.3554
  783SOL    HW1 2489   2.277   2.473   0.143  1.4189 -1.5850  0.2209
  783SOL    HW2 2490   2.162   2.424   0.057 -0.5510  1.1028  1.1885
  784SOL     OW 2491   1.890   0.648   1.605  0.3807 -0.7157  0.7424
  784SOL    HW1 2492   1.946   0.612   1.673  0.4367 -1.3569  0.3677
  784SOL    HW2 2493   1.950   0.681   1.538  0.3636  1.1397  1.5806
  785SOL     OW 2494   2.784   2.315   0.985  0.0251  0.2230  0.2469
  785SOL    HW1 2495   2.717   2.357   0.931 -0.2787 -1.0524 -0.3874
  785SOL    HW2 2496   2.787   2.224   0.955  2.0535  0.2307  0.2465
  786SOL     OW 2497   1.654   1.293   3.568 -0.1310 -0.3222 -0.1608
  786SOL    HW1 2498   1.628   1.384   3.554  0.1087 -0.2358 -0.0383
  786SOL    HW2 2499   1.654   1.255   3.480 -3.2906 -1.0499  0.0416
  787SOL     OW 2500   2.158   0.307   0.617  0.2907  0.1638 -0.2165
  787SOL    HW1 2501   2.091   0.318   0.684  2.3366 -1.8602  2.3958
  787SOL    HW2 2502   2.128   0.232   0.566  0.7641 -1.1506  1.3437
  788SOL     OW 2503   2.069   1.354   3.177  0.5318  0.1837 -0.0845
  788SOL    HW1 2504   2.039   1.445   3.167  1.0111  0.4028  0.4158
  788SOL    HW2 2505   2.121   1.355   3.258  0.9968 -0.4161 -0.3733
  789SOL     OW 2506   1.957   3.674   0.762 -0.2884 -0.3850 -0.0538
  789SOL    HW1 2507   1.965   3.723   0.844  0.5030 -0.1178 -0.2823
  789SOL    HW2 2508   1.872   3.631   0.768 -1.0231  1.0483  0.1460
  790SOL     OW 2509   2.125   3.434   0.710  0.1026 -0.3098 -0.0666
  790SOL    HW1 2510   2.092   3.514   0.751  0.3205 -0.2091 -0.0856
  790SOL    HW2 2511   2.088   3.436   0.621 -0.4056 -0.5515  0.1329
  791SOL     OW 2512   0.002   0.294   1.765  0.3572  0.1073 -0.1315
  791SOL    HW1 2513   0.076   0.338   1.805 -0.0030  0.7913 -0.1858
  791SOL    HW2 2514   0.040   0.221   1.716  0.8523 -0.3694  0.9448
  792SOL     OW 2515   0.166   0.121   0.384  0.4674  0.6473 -0.0909
  792SOL    HW1 2516   0.140   0.034   0.415  1.7095 -0.6759 -2.4670
  792SOL    HW2 2517   0.084   0.167   0.366 -0.2488  0.7264  2.9275
  793SOL     OW 2518   2.578   0.433   0.117  0.2970 -0.1969  0.2759
  793SOL    HW1 2519   2.573   0.355   0.061 -1.6450  0.6626 -0.8834
  793SOL    HW2 2520   2.507   0.421   0.180 -0.7260  1.0507 -0.5811
  794SOL     OW 2521   2.318   0.834   1.105 -0.1843  0.5975  0.6129
  794SOL    HW1 2522   2.288   0.767   1.044 -0.4210  1.6711 -0.4946
  794SOL    HW2 2523   2.296   0.917   1.062 -0.2574  1.3938  2.1111
  795SOL     OW 2524   0.165   3.488   1.542 -0.2584  1.2587  0.5259
  795SOL    HW1 2525   0.122   3.458   1.462  0.4256 -0.8416  0.9035
  795SOL    HW2 2526   0.251   3.518   1.513  1.0291 -1.9334  0.6986
  796SOL     OW 2527   0.401   2.563   0.784 -0.7054 -0.3216  0.1025
  796SOL    HW1 2528   0.351   2.492   0.743 -1.1842 -0.8176  1.5003
  796SOL    HW2 2529   0.492   2.542   0.765 -0.9202 -0.3183 -1.0262
  797SOL     OW 2530   2.976   3.448   0.661  0.2158  0.3354  0.0191
  797SOL    HW1 2531   2.924   3.510   0.609  0.5527  0.3699 -0.2830
  797SOL    HW2 2532   2.932   3.445   0.746  0.1527  0.9303  0.0088
  798SOL     OW 2533   3.385   3.325   0.470 -0.0498 -0.0969 -0.2543
  798SOL    HW1 2534   3.322   3.260   0.503 -0.2829  0.9031  1.3428
  798SOL    HW2 2535   3.346   3.356   0.388 -1.0955 -0.2883  0.1534
  799SOL     OW 2536   0.262   0.250   0.676 -0.2500  1.3360  0.2440
  799SOL    HW1 2537   0.272   0.158   0.701  0.6473  1.3427 -0.0460
  799SOL    HW2 2538   0.168   0.267   0.681 -0.3447  0.6157  1.0477
  800SOL     OW 2539   1.627   2.375   0.622 -0.0742  0.1555 -0.0694
  800SOL    HW1 2540   1.632   2.408   0.712 -1.6785  0.9442 -0.2267
  800SOL    HW2 2541   1.718   2.374   0.591  0.5379 -0.4182  1.6414
  801SOL     OW 2542   1.604   2.436   2.941 -0.0182 -0.2799 -0.2060
  801SOL    HW1 2543   1.662   2.361   2.947 -0.1557 -0.3283  0.5179
  801SOL    HW2 2544   1.659   2.507   2.907  1.6180  0.8201  4.0755
  802SOL     OW 2545   0.973   1.964   2.948 -0.4831  0.0814 -0.1326
  802SOL    HW1 2546   0.930   1.988   3.030 -0.0454 -1.2493  0.5128
  802SOL    HW2 2547   0.966   2.043   2.893 -1.7512  0.6245  0.7671
  803SOL     OW 2548   3.670   1.887   0.946  0.2756  0.6245 -0.2200
  803SOL    HW1 2549   3.637   1.946   1.014 -0.9327 -0.5075  0.2295
  803SOL    HW2 2550   3.685   1.943   0.870 -2.3200  1.3306 -0.3052
  804SOL     OW 2551   0.168   2.407   2.957  0.0719  0.2326  0.0226
  804SOL    HW1 2552   0.103   2.456   2.907  1.7316  1.8801 -0.6361
  804SOL    HW2 2553   0.200   2.341   2.896 -0.1934  0.1386 -0.0149
  805SOL     OW 2554   0.047   1.134   0.358 -0.9739  0.5433 -0.1304
  805SOL    HW1 2555   0.100   1.185   0.297 -0.6762 -0.7474 -0.9865
  805SOL    HW2 2556   0.049   1.045   0.324 -2.0150  0.0625  0.9636
  806SOL     OW 2557   1.549   2.895   1.362  0.1153  0.7174 -0.1529
  806SOL    HW1 2558   1.497   2.817   1.343 -0.4909  0.8853  0.7138
  806SOL    HW2 2559   1.626   2.862   1.407  0.8373  0.4564 -1.5327
  807SOL     OW 2560   2.136   2.763   1.344  0.3665  0.2232 -0.0882
  807SOL    HW1 2561   2.105   2.710   1.271 -0.2221  1.1694 -0.5414
  807SOL    HW2 2562   2.210   2.714   1.379  2.0280  0.7143 -2.6177
  808SOL     OW 2563   1.545   1.855   0.929 -0.1029  0.5130 -0.1249
  808SOL    HW1 2564   1.601   1.791   0.885 -0.0722  1.2323 -1.1672
  808SOL    HW2 2565   1.475   1.804   0.968 -0.4678 -0.1041 -1.5378
  809SOL     OW 2566   3.012   2.680   0.895  0.9450 -0.6415  0.1654
  809SOL    HW1 2567   3.057   2.662   0.812 -0.4507  0.0990 -0.8032
  809SOL    HW2 2568   3.074   2.733   0.945  1.6893 -0.8356 -0.5277
  810SOL     OW 2569   3.150   3.307   2.435 -0.7183 -0.2855  0.9752
  810SOL    HW1 2570   3.166   3.236   2.374  0.3791  1.1850 -0.5290
  810SOL    HW2 2571   3.061   3.336   2.416 -0.0901  0.7097 -0.5487
  811SOL     OW 2572   0.647   3.528   0.161  0.2305  0.2519  0.7583
  811SOL    HW1 2573   0.698   3.524   0.080  0.5982  0.1979  0.9901
  811SOL    HW2 2574   0.578   3.463   0.150  2.1845 -2.1635  1.7923
  812SOL     OW 2575   3.044   3.153   1.080  0.0722 -0.1092 -0.6999
  812SOL    HW1 2576   3.078   3.235   1.046  1.9818  0.2579  1.8238
  812SOL    HW2 2577   3.114   3.118   1.135 -1.9640 -1.6606  1.0960
  813SOL     OW 2578   1.692   3.122   3.537  0.0217 -0.7283  0.2897
  813SOL    HW1 2579   1.604   3.085   3.527  0.7415 -2.2740 -0.6107
  813SOL    HW2 2580   1.678   3.202   3.589 -1.7559 -1.5976  1.2476
  814SOL     OW 2581   3.044   3.021   3.445  0.1072  0.0589  0.3514
  814SOL    HW1 2582   3.045   3.115   3.458  1.0015 -0.0758  1.4492
  814SOL    HW2 2583   3.077   2.985   3.528  0.7883 -1.1727 -0.4260
  815SOL     OW 2584   0.060   0.492   0.552  0.1951  0.0098  0.8815
  815SOL    HW1 2585   0.006   0.560   0.511 -0.5704 -1.2560 -0.3085
  815SOL    HW2 2586   0.150   0.523   0.542 -0.0840  0.4721 -0.3437
  816SOL     OW 2587   2.018   2.936   0.161 -0.1723  0.1111  0.1520
  816SOL    HW1 2588   1.927   2.957   0.139 -0.5232 -0.2090  1.2227
  816SOL    HW2 2589   2.039   2.995   0.233 -0.4376 -1.6234  1.7177
  817SOL     OW 2590   0.478   1.904   1.828 -0.0916  0.5019 -0.4127
  817SOL    HW1 2591   0.560   1.856   1.828  0.9231  2.1606  0.3541
  817SOL    HW2 2592   0.502   1.994   1.851 -1.9442  1.3340 -1.4612
  818SOL     OW 2593   1.104   3.370   3.467  0.3079  0.2756  0.0735
  818SOL    HW1 2594   1.191   3.401   3.442 -0.6086  1.3402 -2.0385
  818SOL    HW2 2595   1.054   3.369   3.385 -2.3796  2.0405  1.5504
  819SOL     OW 2596   0.403   1.385   1.039  0.1101  0.5224  0.0821
  819SOL    HW1 2597   0.362   1.468   1.015  0.3139  0.5642 -0.1295
  819SOL    HW2 2598   0.415   1.391   1.134 -1.1286  0.1638  0.2716
  820SOL     OW 2599   0.513   1.800   3.433  0.6832  0.6018 -0.4034
  820SOL    HW1 2600   0.607   1.798   3.451  0.6457  1.9303  0.0453
  820SOL    HW2 2601   0.473   1.763   3.512  0.7844  1.2522 -0.0369
  821SOL     OW 2602   3.198   0.705   2.037 -0.0345  0.1701 -0.0951
  821SOL    HW1 2603   3.217   0.782   1.984  0.8197  1.5104  2.0089
  821SOL    HW2 2604   3.247   0.634   1.996 -0.9720  0.6669 -2.1752
  822SOL     OW 2605   3.176   2.093   0.933  0.1355  0.0950 -0.5732
  822SOL    HW1 2606   3.230   2.025   0.973  0.4025  0.2903 -0.5979
  822SOL    HW2 2607   3.236   2.139   0.873  0.2880  1.1462  0.3483
  823SOL     OW 2608   1.884   0.254   0.184  0.0230 -0.6617  0.2147
  823SOL    HW1 2609   1.825   0.301   0.125  0.3941 -0.2964  0.1252
  823SOL    HW2 2610   1.919   0.322   0.241 -0.2871 -1.0040  0.8238
  824SOL     OW 2611   3.374   1.235   1.506  0.0252 -0.3014  0.4503
  824SOL    HW1 2612   3.398   1.284   1.584 -0.1766  0.4304  0.0706
  824SOL    HW2 2613   3.319   1.164   1.537 -0.7683  0.4907  0.8948
  825SOL     OW 2614   2.211   2.673   1.604  0.0239 -0.0731 -0.2962
  825SOL    HW1 2615   2.270   2.694   1.677  1.4037 -3.2866 -0.3407
  825SOL    HW2 2616   2.126   2.659   1.646  0.2726  0.3511  0.3687
  826SOL     OW 2617   1.960   0.300   0.817 -1.1345 -0.3510 -0.8108
  826SOL    HW1 2618   1.876   0.333   0.851 -0.6364 -0.0796  0.2108
  826SOL    HW2 2619   1.974   0.218   0.864 -1.2523 -0.8561 -1.6466
  827SOL     OW 2620   0.134   1.397   1.283 -0.5011  0.1685 -0.0416
  827SOL    HW1 2621   0.043   1.400   1.312 -0.2835 -0.4062  0.7181
  827SOL    HW2 2622   0.144   1.310   1.245 -0.7374  0.8414 -1.7885
  828SOL     OW 2623   0.445   0.216   3.189 -0.6550  0.5846  0.3255
  828SOL    HW1 2624   0.534   0.184   3.208 -0.7579 -0.9166 -1.4093
  828SOL    HW2 2625   0.458   0.289   3.129 -0.5836  0.9834  0.8153
  829SOL     OW 2626   1.567   0.820   1.431  0.6138  0.0740 -0.2099
  829SOL    HW1 2627   1.588   0.729   1.409  0.9915  0.4366 -1.4581
  829SOL    HW2 2628   1.487   0.839   1.381 -0.7576 -0.2075  1.7490
  830SOL     OW 2629   3.480   2.860   0.624  0.1877  0.3074  0.8294
  830SOL    HW1 2630   3.533   2.783   0.645 -0.1778  0.0542  0.8319
  830SOL    HW2 2631   3.521   2.932   0.672  2.9747  0.9982 -2.1873
  831SOL     OW 2632   1.164   1.099   1.303 -0.0571  0.4670 -0.4212
  831SOL    HW1 2633   1.233   1.098   1.370 -0.8705  2.3439  0.4941
  831SOL    HW2 2634   1.109   1.024   1.325  0.0179  0.7099  0.6722
  832SOL     OW 2635   1.210   1.729   1.530  0.2617  0.2320  0.0523
  832SOL    HW1 2636   1.292   1.688   1.503 -0.1801 -0.2276 -0.6212
  832SOL    HW2 2637   1.149   1.656   1.538 -0.2784  0.6529 -0.2017
  833SOL     OW 2638   0.490   2.539   1.280 -0.3694 -0.4992  0.4905
  833SOL    HW1 2639   0.535   2.565   1.360  0.0554 -1.6636  0.6587
  833SOL    HW2 2640   0.397   2.541   1.302 -0.3301  0.5375  0.5801
  834SOL     OW 2641   3.228   2.033   0.575 -0.4384  0.2555 -0.3366
  834SOL    HW1 2642   3.149   2.023   0.628  0.1106 -0.2154  0.4050
  834SOL    HW2 2643   3.300   2.009   0.633  0.2532  0.6050 -1.0238
  835SOL     OW 2644   3.572   1.929   2.008  0.0507 -0.1013  0.1521
  835SOL    HW1 2645   3.544   2.018   1.986  0.7827  0.6683  2.1091
  835SOL    HW2 2646   3.656   1.919   1.963  0.7250  0.8164  1.1505
  836SOL     OW 2647   0.013   3.312   3.020  0.0516  0.4936 -0.7837
  836SOL    HW1 2648   0.030   3.374   3.091 -1.7314  0.9945 -0.7441
  836SOL    HW2 2649  -0.025   3.236   3.065  0.1852  0.2577 -1.0708
  837SOL     OW 2650   0.953   1.685   1.293  0.6178  0.5807 -0.0552
  837SOL    HW1 2651   1.047   1.678   1.276  0.5240 -1.3064 -0.0079
  837SOL    HW2 2652   0.912   1.641   1.218 -0.1341 -0.3620  0.8886
  838SOL     OW 2653   2.621   1.328   1.720 -0.0777 -0.1042  0.1446
  838SOL    HW1 2654   2.529   1.346   1.700 -0.5320 -3.3886 -1.4670
  838SOL    HW2 2655   2.662   1.415   1.725 -3.0437  1.4408  0.0368
  839SOL     OW 2656   0.050   1.551   3.494  0.8512  0.0969 -0.0299
  839SOL    HW1 2657   0.067   1.642   3.469  2.9812 -0.3313 -0.3039
  839SOL    HW2 2658   0.078   1.500   3.418 -4.2078 -0.7613 -1.7189
  840SOL     OW 2659   1.622   2.141   1.167 -0.7858  0.7440 -0.1168
  840SOL    HW1 2660   1.563   2.066   1.174  2.0591 -1.7088 -0.4724
  840SOL    HW2 2661   1.648   2.159   1.258  0.3801 -0.3413 -0.2184
  841SOL     OW 2662   2.813   1.274   3.647  0.1090 -0.7358 -0.4718
  841SOL    HW1 2663   2.724   1.307   3.647  0.9478  1.7081  0.6746
  841SOL    HW2 2664   2.842   1.282   3.556  0.3622  2.1323 -0.2163
  842SOL     OW 2665   3.086   2.576   3.293  0.5936 -0.1206  0.5667
  842SOL    HW1 2666   3.046   2.659   3.267  0.8959  0.0356  0.5855
  842SOL    HW2 2667   3.013   2.520   3.319  0.1450 -0.7514 -1.8231
  843SOL     OW 2668   0.173   0.311   2.940 -0.0053  0.7614 -0.2202
  843SOL    HW1 2669   0.247   0.350   2.988  0.6976 -0.3149 -0.4057
  843SOL    HW2 2670   0.111   0.384   2.929 -0.2796  1.0443  2.4420
  844SOL     OW 2671   1.592   1.171   2.834  0.4677  0.1970 -0.2051
  844SOL    HW1 2672   1.503   1.158   2.868  0.7545  0.7273  0.7673
  844SOL    HW2 2673   1.609   1.265   2.846  1.5717 -0.0921  0.6749
  845SOL     OW 2674   1.034   2.667   3.131 -0.4047  0.4420 -0.0285
  845SOL    HW1 2675   1.013   2.585   3.087 -1.0728  1.7207 -2.2169
  845SOL    HW2 2676   1.099   2.709   3.075  0.7096  0.9822  1.5886
  846SOL     OW 2677   2.413   0.193   2.240  0.3235 -0.0140 -0.3230
  846SOL    HW1 2678   2.358   0.172   2.315 -1.1147  1.0784 -1.0344
  846SOL    HW2 2679   2.353   0.233   2.177  1.5423 -0.6776 -1.9571
  847SOL     OW 2680   3.608   1.402   1.452  0.4162 -0.4548  0.4674
  847SOL    HW1 2681   3.674   1.386   1.520  1.9960 -1.4316 -1.1915
  847SOL    HW2 2682   3.542   1.334   1.467  1.2311 -1.2671  0.4992
  848SOL     OW 2683   1.657   0.807   1.684 -0.0803 -0.2293 -0.0397
  848SOL    HW1 2684   1.615   0.803   1.598 -1.6828  1.7676  0.5881
  848SOL    HW2 2685   1.742   0.764   1.671 -0.7261 -0.9338 -2.3287
  849SOL     OW 2686   0.750   1.900   2.674 -0.1609 -0.1522 -0.0017
  849SOL    HW1 2687   0.844   1.888   2.688 -0.5304 -1.3454  1.7651
  849SOL    HW2 2688   0.742   1.992   2.649  1.5079 -0.1381 -0.6370
  850SOL     OW 2689   3.240   0.783   3.197 -0.9976 -1.0461 -0.5136
  850SOL    HW1 2690   3.197   0.821   3.120 -1.5439 -2.0410 -0.7309
  850SOL    HW2 2691   3.312   0.732   3.161  0.0026  0.1019 -0.1943
  851SOL     OW 2692   1.578   1.900   3.324 -0.0743 -0.0922  0.3940
  851SOL    HW1 2693   1.590   1.983   3.278 -3.8629  1.9837  2.5796
  851SOL    HW2 2694   1.603   1.920   3.415  1.0994 -2.0995  0.5582
  852SOL     OW 2695   3.108   0.812   1.742  0.0588 -0.0832  0.0041
  852SOL    HW1 2696   3.040   0.828   1.676 -0.9135 -0.3198  0.9107
  852SOL    HW2 2697   3.124   0.718   1.737 -2.3370 -0.7177  2.1955
  853SOL     OW 2698   0.828   3.080   2.454 -0.0784 -0.7068  0.3275
  853SOL    HW1 2699   0.894   3.149   2.463  0.0890 -0.6585 -1.0957
  853SOL    HW2 2700   0.763   3.116   2.395 -0.2980 -1.5383  0.0500
  854SOL     OW 2701   2.265   0.200   3.446 -0.3330  0.1325 -1.2402
  854SOL    HW1 2702   2.218   0.220   3.365  0.0127  1.4558 -1.1450
  854SOL    HW2 2703   2.198   0.206   3.514 -1.3026 -3.8150 -1.5972
  855SOL     OW 2704   1.851   0.291   2.513 -0.4581 -0.0515 -0.7657
  855SOL    HW1 2705   1.918   0.353   2.541 -1.1012  0.6230 -0.6972
  855SOL    HW2 2706   1.872   0.274   2.421 -0.6453  0.7499 -0.9605
  856SOL     OW 2707   3.119   1.055   2.287 -0.2419 -0.4180  0.1848
  856SOL    HW1 2708   3.024   1.057   2.301 -0.2574  4.5483  1.4405
  856SOL    HW2 2709   3.130   1.069   2.193 -0.6542 -2.2533 -0.1687
  857SOL     OW 2710   3.709   1.181   0.697  0.0419  0.3194  0.3416
  857SOL    HW1 2711   3.733   1.176   0.790 -1.4873 -0.5059  0.7315
  857SOL    HW2 2712   3.748   1.102   0.658  0.7964  0.7340  0.2409
  858SOL     OW 2713   1.112   3.107   3.585  0.5178 -0.6958  0.7821
  858SOL    HW1 2714   1.082   3.057   3.509  0.4865  0.6101 -0.1021
  858SOL    HW2 2715   1.105   3.199   3.557 -0.1919 -0.1460  2.6214
  859SOL     OW 2716   2.605   3.215   0.313  0.1617  0.7506 -0.3871
  859SOL    HW1 2717   2.633   3.277   0.245  3.5676  1.1616  1.2294
  859SOL    HW2 2718   2.588   3.270   0.389  0.5742 -0.0784  0.3095
  860SOL     OW 2719   3.492   1.295   0.192 -0.3366  0.0491  0.5411
  860SOL    HW1 2720   3.515   1.236   0.264 -2.2849 -0.3264  0.9105
  860SOL    HW2 2721   3.420   1.348   0.227 -0.3067  0.9136 -0.6508
  861SOL     OW 2722   2.853   0.296   3.624  0.2752  0.5206  0.0604
  861SOL    HW1 2723   2.764   0.331   3.627  0.3604  0.6923  0.7808
  861SOL    HW2 2724   2.897   0.347   3.557 -1.1857 -2.0453 -3.1287
  862SOL     OW 2725   3.653   1.755   0.496  0.0095 -0.4515  0.3042
  862SOL    HW1 2726   3.741   1.774   0.463  0.3637  0.9619  1.8929
  862SOL    HW2 2727   3.609   1.840   0.496 -1.2773 -1.0972 -0.1921
  863SOL     OW 2728   0.482   3.641   3.420  0.4128  0.1726  0.2068
  863SOL    HW1 2729   0.576   3.651   3.404  0.0612  0.6038 -1.7749
  863SOL    HW2 2730   0.444   3.626   3.334 -1.2677 -0.7806  1.0717
  864SOL     OW 2731   0.879   2.058   3.176  0.2506  0.1335 -0.3144
  864SOL    HW1 2732   0.929   1.995   3.228  2.0330  1.3989 -0.3981
  864SOL    HW2 2733   0.889   2.141   3.222  0.0354  0.8503 -1.4970
  865SOL     OW 2734   1.863   1.106   0.969 -0.1119 -0.0020  0.2746
  865SOL    HW1 2735   1.844   1.079   1.058 -3.5957 -1.4649 -0.7326
  865SOL    HW2 2736   1.873   1.201   0.974  0.0358 -0.0843  2.2207
  866SOL     OW 2737   1.272   0.346   0.673  0.3997  0.5532 -0.5591
  866SOL    HW1 2738   1.365   0.359   0.691  0.2084 -0.1003  1.1624
  866SOL    HW2 2739   1.265   0.254   0.647  0.0601  0.0174  1.2187
  867SOL     OW 2740   3.155   2.766   0.199  1.1233 -0.2246  0.4763
  867SOL    HW1 2741   3.061   2.750   0.201  1.4384 -2.7183 -0.3397
  867SOL    HW2 2742   3.166   2.853   0.237 -1.8057  1.9039 -2.8742
  868SOL     OW 2743   1.907   3.515   0.103 -0.0430 -0.0960 -0.2616
  868SOL    HW1 2744   1.881   3.604   0.126 -1.3041 -0.7135  0.8335
  868SOL    HW2 2745   2.002   3.514   0.114 -0.0710  0.9842  0.1621
  869SOL     OW 2746   2.548   1.632   3.114  0.4344 -0.0521 -0.3971
  869SOL    HW1 2747   2.622   1.597   3.164 -2.2346 -0.1573  4.0214
  869SOL    HW2 2748   2.484   1.561   3.113 -0.6304  0.8785 -1.7691
  870SOL     OW 2749   3.306   0.492   0.770  0.1219  0.3160 -0.0551
  870SOL    HW1 2750   3.299   0.405   0.732 -0.6614  0.0826  0.6112
  870SOL    HW2 2751   3.225   0.504   0.819  0.2947  1.3523  0.0064
  871SOL     OW 2752   3.101   1.519   2.912 -0.1889  0.1357  0.6036
  871SOL    HW1 2753   3.151   1.437   2.907  0.3416  0.5240 -2.5006
  871SOL    HW2 2754   3.034   1.510   2.844 -2.8079  0.6932  2.9522
  872SOL     OW 2755   1.374   0.835   2.904  0.5659  0.0453  0.3807
  872SOL    HW1 2756   1.469   0.838   2.915  0.5343  0.7085  0.4690
  872SOL    HW2 2757   1.339   0.877   2.981  0.2499  1.2296 -0.3849
  873SOL     OW 2758   3.054   2.736   2.917  0.3648  0.5141 -0.8939
  873SOL    HW1 2759   3.106   2.740   2.998 -1.3982 -2.5338  0.5484
  873SOL    HW2 2760   2.980   2.794   2.934 -0.0869 -0.2399 -0.1967
  874SOL     OW 2761   2.507   2.211   2.592  0.0815 -0.5967 -0.0032
  874SOL    HW1 2762   2.552   2.295   2.594 -0.2390 -0.3875 -0.9873
  874SOL    HW2 2763   2.511   2.179   2.682  1.0460  0.0209  0.1839
  875SOL     OW 2764   3.485   0.156   1.502  0.7340  0.6355 -0.2443
  875SOL    HW1 2765   3.431   0.235   1.497 -2.1754 -1.2042 -0.4579
  875SOL    HW2 2766   3.423   0.084   1.487  2.9694 -1.7881  1.3623
  876SOL     OW 2767   1.392   1.042   1.506  0.1721 -0.2936  0.1108
  876SOL    HW1 2768   1.389   1.137   1.489 -1.3614 -0.1198  1.1505
  876SOL    HW2 2769   1.482   1.017   1.486  1.1961  1.7644  1.7208
  877SOL     OW 2770   1.638   1.902   2.431  0.0978 -0.0294  0.3714
  877SOL    HW1 2771   1.659   1.992   2.408 -0.3652  0.4466  1.7723
  877SOL    HW2 2772   1.635   1.900   2.526 -0.2803 -1.4428  0.3637
  878SOL     OW 2773   1.582   1.842   1.737  0.4900 -0.3655  0.0145
  878SOL    HW1 2774   1.609   1.752   1.751 -1.0779 -1.3267 -2.4107
  878SOL    HW2 2775   1.487   1.840   1.741  0.4558  1.4763  1.2330
  879SOL     OW 2776   2.440   2.364   1.721 -0.4134  0.3554 -0.3345
  879SOL    HW1 2777   2.365   2.313   1.691 -0.7154 -0.1255  1.1256
  879SOL    HW2 2778   2.463   2.420   1.647 -1.3182 -0.5008 -1.2914
  880SOL     OW 2779   2.356   2.278   1.325 -0.1510  0.2390 -1.0201
  880SOL    HW1 2780   2.364   2.321   1.240  2.2579  1.8755 -0.0873
  880SOL    HW2 2781   2.287   2.325   1.370 -1.0813 -0.2972 -1.8513
  881SOL     OW 2782   1.368   2.170   3.014  0.6766  0.5183 -0.5852
  881SOL    HW1 2783   1.461   2.184   3.033  1.2466  0.1647 -2.8438
  881SOL    HW2 2784   1.359   2.075   3.008 -0.3766  0.3917  1.8336
  882SOL     OW 2785   3.399   1.689   0.997 -0.1069  0.0398  0.1039
  882SOL    HW1 2786   3.480   1.690   0.945 -0.5123  1.1296 -0.5465
  882SOL    HW2 2787   3.349   1.615   0.963 -0.4043  0.7890 -1.1600
  883SOL     OW 2788   0.071   0.233   2.076 -0.8991 -0.9475  0.5833
  883SOL    HW1 2789   0.126   0.155   2.075 -0.2774 -0.5464 -2.1660
  883SOL    HW2 2790   0.130   0.304   2.103 -0.3875 -0.7576 -0.9800
  884SOL     OW 2791   1.589   3.245   0.831  0.4958 -0.5529  0.3092
  884SOL    HW1 2792   1.653   3.188   0.872 -1.7274 -3.0302  0.6034
  884SOL    HW2 2793   1.527   3.265   0.902 -1.0706 -1.3534 -0.7860
  885SOL     OW 2794   1.799   0.549   2.780  0.2421 -0.1887  0.3675
  885SOL    HW1 2795   1.792   0.508   2.867 -1.0947 -1.6945 -0.4192
  885SOL    HW2 2796   1.887   0.525   2.750 -0.4967 -2.5690 -0.0693
  886SOL     OW 2797   2.269   0.604   0.253 -0.0602  0.1217  0.0121
  886SOL    HW1 2798   2.244   0.538   0.318  2.9884 -0.6841  0.5517
  886SOL    HW2 2799   2.313   0.672   0.304  1.7227 -0.1593 -1.0593
  887SOL     OW 2800   0.869   1.933   1.025  0.7748  0.3064  0.2503
  887SOL    HW1 2801   0.795   1.970   1.073 -1.0302 -2.4499 -0.2057
  887SOL    HW2 2802   0.875   1.987   0.946 -3.0601 -1.2672 -1.3943
  888SOL     OW 2803   3.666   1.214   2.255 -0.2322 -0.1422 -0.4442
  888SOL    HW1 2804   3.751   1.173   2.273 -0.6298 -0.5687  0.5622
  888SOL    HW2 2805   3.608   1.177   2.321 -2.0492 -2.4882 -3.0884
  889SOL     OW 2806   3.259   1.737   3.613  0.4974 -0.2151 -0.0388
  889SOL    HW1 2807   3.179   1.710   3.657  1.1501 -1.1609  0.6288
  889SOL    HW2 2808   3.265   1.831   3.630 -0.6832 -0.0465 -0.4846
  890SOL     OW 2809   1.007   0.217   3.328 -0.0636 -0.1999  0.0829
  890SOL    HW1 2810   1.050   0.150   3.381  2.0695  0.3749 -0.8347
  890SOL    HW2 2811   1.075   0.250   3.270 -2.0030  0.0213 -2.2277
  891SOL     OW 2812   0.567   2.966   1.898 -0.2266 -0.0912 -0.6548
  891SOL    HW1 2813   0.607   2.896   1.847  0.8250  0.7119 -0.9764
  891SOL    HW2 2814   0.590   3.046   1.851  0.5281  0.6533  0.8915
  892SOL     OW 2815   2.119   0.559   3.450 -0.3555 -0.2126 -0.0687
  892SOL    HW1 2816   2.025   0.544   3.443 -0.2906 -0.9181  0.4535
  892SOL    HW2 2817   2.135   0.572   3.543  0.1182 -0.4690 -0.1088
  893SOL     OW 2818   2.166   3.036   3.145 -0.1235  0.2112 -0.3450
  893SOL    HW1 2819   2.151   2.952   3.190 -1.1822  0.6715  0.2040
  893SOL    HW2 2820   2.252   3.064   3.176  0.1464 -0.5617 -0.3609
  894SOL     OW 2821   3.313   1.080   1.845  0.2892 -0.3414 -0.1668
  894SOL    HW1 2822   3.356   1.162   1.820 -0.6455 -0.5311 -2.6774
  894SOL    HW2 2823   3.374   1.039   1.906  0.2058  2.7560  2.2345
  895SOL     OW 2824   2.268   3.335   0.969 -0.2157 -0.0968  0.0864
  895SOL    HW1 2825   2.245   3.265   1.030  0.5427 -0.3026  0.1377
  895SOL    HW2 2826   2.263   3.294   0.883  1.4081 -0.5598  0.1850
  896SOL     OW 2827   2.828   2.962   1.093  0.0143  0.4305  0.3973
  896SOL    HW1 2828   2.915   2.991   1.064  0.0625 -0.4846 -0.4301
  896SOL    HW2 2829   2.767   3.004   1.032  0.1156 -1.5052 -1.1304
  897SOL     OW 2830   1.735   1.001   0.396 -0.0472 -0.2491  0.3426
  897SOL    HW1 2831   1.680   0.928   0.422 -0.4408  0.4417  1.5314
  897SOL    HW2 2832   1.824   0.972   0.417 -0.3420  0.2847  2.6409
  898SOL     OW 2833   0.613   2.837   3.278  0.1603 -0.1005  0.1836
  898SOL    HW1 2834   0.689   2.785   3.306  1.0624  1.6046  1.0925
  898SOL    HW2 2835   0.539   2.798   3.324  0.7819 -0.6658  0.7311
  899SOL     OW 2836   0.236   3.588   1.786 -0.0477 -0.3378 -0.3243
  899SOL    HW1 2837   0.205   3.550   1.868 -0.5870 -1.0637 -0.8579
  899SOL    HW2 2838   0.179   3.551   1.719  0.1116  0.5751 -0.9835
  900SOL     OW 2839   0.971   2.052   0.816  0.3479  0.3030  0.6785
  900SOL    HW1 2840   1.031   1.983   0.789 -0.4638 -0.1068 -0.1353
  900SOL    HW2 2841   1.012   2.133   0.783  0.8904  0.1334  0.9175
  901SOL     OW 2842   3.535   0.218   2.765  0.2671  0.2764  0.1726
  901SOL    HW1 2843   3.464   0.233   2.703 -0.6578  0.3038  1.2116
  901SOL    HW2 2844   3.610   0.193   2.711 -0.3938  0.7449 -0.9752
  902SOL     OW 2845   0.527   3.133   2.658  0.5013  0.0631  0.9950
  902SOL    HW1 2846   0.495   3.197   2.721  1.1558 -0.5634  2.0074
  902SOL    HW2 2847   0.449   3.082   2.634  0.3879 -0.2372  1.9664
  903SOL     OW 2848   1.220   1.926   2.856  0.0281 -0.7334  0.3757
  903SOL    HW1 2849   1.138   1.967   2.886 -0.9525 -2.2897 -0.0101
  903SOL    HW2 2850   1.239   1.861   2.924  1.9273  0.7276  1.3342
  904SOL     OW 2851   1.071   1.798   1.938  0.0241  1.0093  0.0769
  904SOL    HW1 2852   1.043   1.715   1.900 -1.7631  0.7695  1.7972
  904SOL    HW2 2853   1.002   1.822   1.999  1.2922  2.9485  0.8638
  905SOL     OW 2854   2.319   3.442   1.802  0.2560  0.8900 -0.3144
  905SOL    HW1 2855   2.395   3.495   1.776 -1.5125  4.2830  0.8350
  905SOL    HW2 2856   2.243   3.495   1.778 -1.7365 -1.4315  0.4384
  906SOL     OW 2857   3.187   0.611   0.329 -0.1120  0.4039 -0.4919
  906SOL    HW1 2858   3.181   0.589   0.236 -0.3733 -2.2286  0.0785
  906SOL    HW2 2859   3.261   0.559   0.361 -1.5155 -0.6223  1.2374
  907SOL     OW 2860   0.170   1.403   2.155 -0.2489  0.2273  0.0825
  907SOL    HW1 2861   0.099   1.402   2.220  0.3810 -1.2111  0.8083
  907SOL    HW2 2862   0.214   1.319   2.167 -0.5132 -0.4104 -2.6745
  908SOL     OW 2863   1.396   1.302   0.949 -0.2053  0.4170  0.2981
  908SOL    HW1 2864   1.470   1.303   1.010  0.3539  0.2431 -0.3676
  908SOL    HW2 2865   1.405   1.384   0.901 -0.6858  0.5851  0.4923
  909SOL     OW 2866   2.639  -0.024   0.133 -0.2307  0.4346 -0.1233
  909SOL    HW1 2867   2.668   0.043   0.194 -2.7068  1.4379  0.0418
  909SOL    HW2 2868   2.631   0.021   0.049  1.3935 -0.5176 -0.8473
  910SOL     OW 2869   1.145   0.044   0.957  0.2605 -0.3009 -0.7950
  910SOL    HW1 2870   1.188  -0.035   0.925  1.1054  0.1356 -0.7903
  910SOL    HW2 2871   1.096   0.077   0.882  0.1339 -0.6753 -0.8771
  911SOL     OW 2872   2.330   3.129   3.452  0.1584  0.1783  0.5641
  911SOL    HW1 2873   2.279   3.181   3.514 -2.5612 -2.8156  1.1666
  911SOL    HW2 2874   2.343   3.045   3.497  0.6790 -1.0996 -1.8016
  912SOL     OW 2875   3.728   3.387   1.223  0.3259  1.2203  0.5123
  912SOL    HW1 2876   3.710   3.338   1.303 -1.8125 -0.7471 -1.0238
  912SOL    HW2 2877   3.653   3.445   1.213 -0.7869 -0.3818 -1.2565
  913SOL     OW 2878   3.585   0.312   0.062 -0.0047  0.3632 -0.1773
  913SOL    HW1 2879   3.529   0.384   0.091 -0.1896  0.6648 -1.2528
  913SOL    HW2 2880   3.561   0.239   0.120  1.1315  1.4857  1.8195
  914SOL     OW 2881   1.819   1.266   0.240 -0.2443 -0.0073  0.1116
  914SOL    HW1 2882   1.831   1.211   0.163 -3.3706  1.7831 -1.8718
  914SOL    HW2 2883   1.755   1.220   0.294  0.0911 -0.0867  0.4553
  915SOL     OW 2884   2.074   1.088   3.105 -0.1018  0.0893 -0.0550
  915SOL    HW1 2885   2.139   1.089   3.176 -0.3069  0.2802  0.1300
  915SOL    HW2 2886   2.033   1.174   3.109 -1.3884 -0.5331  0.7860
  916SOL     OW 2887   1.386   3.047   0.511 -0.2088 -0.0069 -0.6316
  916SOL    HW1 2888   1.348   3.090   0.435 -0.0955 -0.8457 -1.1734
  916SOL    HW2 2889   1.335   3.079   0.585 -0.7212  0.3389 -1.1312
  917SOL     OW 2890   3.214   1.201   0.272 -0.3399  0.8721  0.1938
  917SOL    HW1 2891   3.292   1.161   0.309 -0.5967 -1.0330 -1.1755
  917SOL    HW2 2892   3.200   1.279   0.325  1.6947  0.5381  1.3315
  918SOL     OW 2893   0.873   0.022   0.802  0.2928 -0.1994 -0.7149
  918SOL    HW1 2894   0.849   0.055   0.889  0.1282  1.8604 -1.4950
  918SOL    HW2 2895   0.943  -0.041   0.820 -1.6223 -1.9794  1.1120
  919SOL     OW 2896   2.375   0.295   0.802 -0.2251 -0.8302  0.0746
  919SOL    HW1 2897   2.311   0.285   0.732 -0.3767 -0.1213  0.1124
  919SOL    HW2 2898   2.325   0.282   0.883  0.0031 -1.9384  0.0616
  920SOL     OW 2899   0.895   2.228   1.792  0.2250  0.0396 -0.8424
  920SOL    HW1 2900   0.913   2.173   1.716  0.5671 -0.6272 -0.2959
  920SOL    HW2 2901   0.925   2.176   1.867  0.8362  1.0983 -0.3274
  921SOL     OW 2902   2.640   1.499   3.352  0.2078  0.0377  0.1250
  921SOL    HW1 2903   2.648   1.583   3.398  0.5601  0.8184 -1.3160
  921SOL    HW2 2904   2.675   1.434   3.414 -2.6047  0.5092  2.3908
  922SOL     OW 2905   3.119   0.994   2.568 -0.3613  0.2966  0.1738
  922SOL    HW1 2906   3.084   0.910   2.536  2.4462 -0.5060 -1.1470
  922SOL    HW2 2907   3.152   1.037   2.489  1.1821  1.1313  1.2245
  923SOL     OW 2908   2.388   0.295   3.058  0.1223 -0.1240  0.0065
  923SOL    HW1 2909   2.388   0.322   3.150  1.3638 -0.6722  0.1881
  923SOL    HW2 2910   2.459   0.345   3.018 -1.2186  1.0868 -0.9920
  924SOL     OW 2911   0.105   2.531   0.285  0.0714 -0.2657  0.2049
  924SOL    HW1 2912   0.127   2.521   0.193  2.9670 -0.7226  0.8557
  924SOL    HW2 2913   0.133   2.620   0.306  0.1456 -0.4305  0.8161
  925SOL     OW 2914   3.555   1.040   1.349 -0.6756 -0.3616 -0.2818
  925SOL    HW1 2915   3.627   1.053   1.409 -1.9593 -1.5501  1.6271
  925SOL    HW2 2916   3.489   1.104   1.375 -2.0099 -2.1375  0.9418
  926SOL     OW 2917   2.276   2.194   1.598 -0.1831  0.0548  0.1115
  926SOL    HW1 2918   2.205   2.227   1.543 -1.5393 -2.1104  0.4348
  926SOL    HW2 2919   2.343   2.166   1.536  0.0072  1.2237 -0.2395
  927SOL     OW 2920   1.010   2.161   2.668  0.0408  0.3856  0.1253
  927SOL    HW1 2921   1.075   2.182   2.735 -1.2606  0.3762  1.4632
  927SOL    HW2 2922   1.019   2.067   2.653 -0.6440  0.0772  1.4570
  928SOL     OW 2923   0.952   1.180   2.970 -0.1973 -0.1082  0.0506
  928SOL    HW1 2924   0.944   1.215   2.881 -1.0500  0.9025  0.4932
  928SOL    HW2 2925   0.902   1.098   2.968 -1.5261  0.6673 -0.0421
  929SOL     OW 2926   0.382   3.587   1.443 -0.0320  0.6232  0.1095
  929SOL    HW1 2927   0.360   3.654   1.378  0.6749  0.3287 -0.4555
  929SOL    HW2 2928   0.469   3.612   1.474  0.5383 -0.3819 -0.6047
  930SOL     OW 2929   0.159  -0.010   2.278  0.1488 -0.0934  0.1463
  930SOL    HW1 2930   0.229   0.000   2.342  0.2544 -1.0843  0.1966
  930SOL    HW2 2931   0.082   0.027   2.322  0.8157  1.9436 -0.2993
  931SOL     OW 2932   0.129   1.052   3.033  0.1288  0.4853  0.8401
  931SOL    HW1 2933   0.124   0.979   3.095  0.6021  0.1242  0.4691
  931SOL    HW2 2934   0.216   1.043   2.994 -0.2852  0.4924 -0.1177
  932SOL     OW 2935   2.877   0.583   0.659 -0.5667  0.1708  0.4731
  932SOL    HW1 2936   2.878   0.672   0.695 -0.2867  0.1799  0.4454
  932SOL    HW2 2937   2.912   0.593   0.570  1.5148 -0.2770  1.2074
  933SOL     OW 2938   3.455   3.552   2.150  0.6235  0.7325 -0.3771
  933SOL    HW1 2939   3.474   3.523   2.239  1.8096 -0.2294 -0.9064
  933SOL    HW2 2940   3.397   3.485   2.114  2.2614 -0.3470 -1.1508
  934SOL     OW 2941   0.584   0.035   0.260 -0.2287 -0.4135 -0.1354
  934SOL    HW1 2942   0.627  -0.046   0.232  0.3361 -0.7268  1.5171
  934SOL    HW2 2943   0.640   0.105   0.228  0.0840 -0.7389 -0.3049
  935SOL     OW 2944   3.737   3.485   3.228  0.3226 -0.2049  0.1355
  935SOL    HW1 2945   3.661   3.544   3.226  1.3667  1.2308  1.0561
  935SOL    HW2 2946   3.726   3.434   3.308  0.8914  0.8234  0.8898
  936SOL     OW 2947   3.149   3.141   1.370  0.1876 -0.0501 -0.2465
  936SOL    HW1 2948   3.133   3.224   1.325 -0.5325 -0.3311 -0.5306
  936SOL    HW2 2949   3.084   3.138   1.439  0.1348 -0.4282 -0.3106
  937SOL     OW 2950   3.337   3.392   1.536 -0.3333 -0.0029  0.6770
  937SOL    HW1 2951   3.250   3.386   1.498 -0.1248 -0.0323  0.2014
  937SOL    HW2 2952   3.321   3.415   1.628 -0.8258  0.5351  0.4685
  938SOL     OW 2953   3.655   0.384   2.498  0.1042  0.2651 -0.1116
  938SOL    HW1 2954   3.630   0.292   2.500 -0.1912  0.3546  0.9002
  938SOL    HW2 2955   3.747   0.383   2.472 -0.0367 -0.2703 -0.6287
  939SOL     OW 2956   1.151   0.769   2.137 -0.2326  0.1951 -0.1429
  939SOL    HW1 2957   1.184   0.684   2.166 -0.8226 -0.1630 -0.5147
  939SOL    HW2 2958   1.126   0.756   2.046 -0.9669  0.5820 -0.0075
  940SOL     OW 2959   1.249   2.193   3.355 -0.0557 -0.2513 -0.1306
  940SOL    HW1 2960   1.276   2.182   3.264  0.5334 -0.8470  0.1076
  940SOL    HW2 2961   1.288   2.118   3.400  1.2035  1.0196  0.9576
  941SOL     OW 2962   0.557   2.194   1.639 -0.0458  0.4239 -0.1934
  941SOL    HW1 2963   0.574   2.128   1.706  1.1503  0.5711 -0.3274
  941SOL    HW2 2964   0.516   2.267   1.686 -1.9465 -0.6015 -0.1392
  942SOL     OW 2965   2.665   0.493   2.399  0.1442 -0.3420 -0.1412
  942SOL    HW1 2966   2.721   0.566   2.423 -1.4543  1.4108 -1.4468
  942SOL    HW2 2967   2.596   0.492   2.466  0.4447 -1.0252  0.1722
  943SOL     OW 2968   2.592   0.213   1.457 -0.0327 -0.3221 -0.0217
  943SOL    HW1 2969   2.593   0.237   1.364  0.0564 -2.5914 -0.6654
  943SOL    HW2 2970   2.517   0.155   1.465 -1.7778  2.0245  2.0044
  944SOL     OW 2971   2.907   2.136   1.242 -0.1146 -0.3102 -0.0617
  944SOL    HW1 2972   2.896   2.213   1.298 -0.1298 -0.5101  0.2082
  944SOL    HW2 2973   2.986   2.155   1.191 -0.3548  0.0709 -0.2996
  945SOL     OW 2974   3.291   3.021   2.748  0.3428 -0.1418 -0.1655
  945SOL    HW1 2975   3.298   3.116   2.746  2.8955 -0.2734 -1.5195
  945SOL    HW2 2976   3.277   2.999   2.840 -0.3506  1.4997  0.1587
  946SOL     OW 2977   1.389   0.866   2.513 -0.1677 -0.3863  0.4033
  946SOL    HW1 2978   1.447   0.941   2.530  0.9844 -1.0704 -0.3444
  946SOL    HW2 2979   1.366   0.873   2.421 -0.0007 -0.9812  0.3119
  947SOL     OW 2980   1.072   0.937  -0.011  0.0294 -0.3201  0.7045
  947SOL    HW1 2981   1.133   0.945   0.062 -1.9315 -0.0008  2.4265
  947SOL    HW2 2982   1.024   1.021  -0.011 -0.8647 -0.8080 -0.1298
  948SOL     OW 2983   3.067   3.430   1.447  0.2148 -0.2576  0.7303
  948SOL    HW1 2984   3.064   3.509   1.394 -1.2447 -1.7737 -1.6508
  948SOL    HW2 2985   2.999   3.442   1.513  0.1400  0.5080  0.5211
  949SOL     OW 2986   2.267   0.187   2.468 -0.1775  0.0659 -0.5892
  949SOL    HW1 2987   2.218   0.260   2.506 -2.7871 -2.0657  0.4673
  949SOL    HW2 2988   2.336   0.169   2.532  0.5368  1.5960 -0.9000
  950SOL     OW 2989   1.086   2.748   2.117 -0.5161 -0.3925 -0.3740
  950SOL    HW1 2990   1.017   2.683   2.101 -0.6772  0.0732 -1.7206
  950SOL    HW2 2991   1.133   2.715   2.193 -1.6210 -1.2304 -0.0296
  951SOL     OW 2992   2.659   1.666   1.912  0.0997 -0.6268  0.2041
  951SOL    HW1 2993   2.579   1.614   1.904  0.0135 -0.7954  1.8885
  951SOL    HW2 2994   2.630   1.752   1.941  0.4154 -0.2287 -0.6346
  952SOL     OW 2995   2.190   2.892   2.226  0.3690  0.1358  0.0717
  952SOL    HW1 2996   2.238   2.971   2.249  0.2082  0.5440 -0.9180
  952SOL    HW2 2997   2.146   2.914   2.143  0.7700 -1.1567 -0.5147
  953SOL     OW 2998   1.010   2.235   0.313  0.1383 -0.3090 -1.0144
  953SOL    HW1 2999   0.993   2.291   0.389 -0.0496 -2.3560  0.5657
  953SOL    HW2 3000   1.071   2.285   0.259 -0.0934  1.4290  0.2462
  954SOL     OW 3001   0.721   3.501   3.628  0.0811  0.5019 -0.7794
  954SOL    HW1 3002   0.778   3.577   3.615  1.1462  0.0353  0.7580
  954SOL    HW2 3003   0.759   3.433   3.572  0.4613  0.4883 -0.5150
  955SOL     OW 3004   0.181   2.135   1.666 -0.3378  0.2532 -0.0902
  955SOL    HW1 3005   0.269   2.161   1.693  0.3053 -0.1082 -1.7097
  955SOL    HW2 3006   0.155   2.203   1.604 -0.7911 -0.1684 -0.3604
  956SOL     OW 3007   3.478   2.269   0.409 -0.3669  0.0006 -0.2331
  956SOL    HW1 3008   3.569   2.247   0.389 -0.2439  1.1928 -1.0973
  956SOL    HW2 3009   3.479   2.364   0.421 -1.8127  0.3073 -2.1710
  957SOL     OW 3010   1.935   1.299   2.939 -0.1133  0.0860 -0.0989
  957SOL    HW1 3011   2.027   1.302   2.966 -0.1380 -0.3442  0.0410
  957SOL    HW2 3012   1.938   1.302   2.844  0.0449  0.1031 -0.0941
  958SOL     OW 3013   2.695   3.221   3.030 -0.1050  0.1957  0.8163
  958SOL    HW1 3014   2.701   3.294   3.092 -0.8542  2.0192 -1.1665
  958SOL    HW2 3015   2.608   3.184   3.045  0.5204 -0.7781  2.2761
  959SOL     OW 3016   1.332   3.621   3.352 -0.3605 -0.4638  0.2731
  959SOL    HW1 3017   1.377   3.558   3.409 -0.1803 -0.7834 -0.2183
  959SOL    HW2 3018   1.395   3.640   3.283 -0.9483 -0.8484 -0.3750
  960SOL     OW 3019   3.307   3.355   2.028 -0.4917  0.3035  0.2544
  960SOL    HW1 3020   3.215   3.347   2.051 -1.2950 -0.4494 -2.7573
  960SOL    HW2 3021   3.312   3.325   1.938  2.9647 -0.9822  0.7124
  961SOL     OW 3022   0.542   1.918   1.259  0.2084 -0.1049  0.0145
  961SOL    HW1 3023   0.521   1.996   1.311  0.3812  0.1709 -0.3203
  961SOL    HW2 3024   0.463   1.902   1.207 -0.4066 -1.0938  1.2196
  962SOL     OW 3025   3.196   1.577   1.804 -0.1677  0.2373  0.0658
  962SOL    HW1 3026   3.161   1.488   1.795  0.0072  0.3084 -1.7005
  962SOL    HW2 3027   3.137   1.620   1.866 -0.1386 -1.1433  1.1060
  963SOL     OW 3028   2.678   2.683   1.050  0.0597  0.2834 -0.0327
  963SOL    HW1 3029   2.664   2.632   1.130  1.3039 -0.3980 -0.2233
  963SOL    HW2 3030   2.687   2.774   1.081 -1.8812  0.4106  0.3317
  964SOL     OW 3031   2.113   0.445   1.691 -0.0887 -0.1397 -0.5759
  964SOL    HW1 3032   2.043   0.458   1.755 -0.4939  1.6559 -1.3238
  964SOL    HW2 3033   2.070   0.408   1.614 -0.1050  0.2668 -0.7679
  965SOL     OW 3034   3.208   1.364   2.041 -0.2769  0.3578 -0.3481
  965SOL    HW1 3035   3.267   1.326   2.106 -0.0440 -0.3211 -0.9426
  965SOL    HW2 3036   3.237   1.455   2.033  0.4210  0.1430 -0.3273
  966SOL     OW 3037   3.679   0.862   1.164 -0.1728  0.1976 -0.9239
  966SOL    HW1 3038   3.677   0.932   1.099 -0.1586  1.4784  0.4091
  966SOL    HW2 3039   3.657   0.905   1.246 -0.9351 -1.5306 -0.1862
  967SOL     OW 3040   0.545   2.564   0.395  0.3080  0.1680  0.0629
  967SOL    HW1 3041   0.549   2.493   0.459  2.1734 -1.0561 -1.2922
  967SOL    HW2 3042   0.477   2.622   0.427  1.2063 -0.3261  3.1968
  968SOL     OW 3043   3.028   2.385   2.189  0.1625  0.6026 -0.0629
  968SOL    HW1 3044   3.035   2.331   2.267 -1.9906 -0.3770 -0.4738
  968SOL    HW2 3045   2.935   2.384   2.167  0.2603  3.3024 -0.9602
  969SOL     OW 3046   0.974   0.247   1.821  0.2728  0.5126  1.0674
  969SOL    HW1 3047   0.958   0.229   1.729 -0.8158  1.4705  1.0405
  969SOL    HW2 3048   0.992   0.162   1.860 -3.2956 -0.5843  0.7070
  970SOL     OW 3049   0.870   1.137   1.039 -0.2370 -0.3722 -0.2147
  970SOL    HW1 3050   0.824   1.220   1.037 -2.4046 -1.5039 -1.4194
  970SOL    HW2 3051   0.958   1.158   1.070 -0.7930  2.2941 -0.2600
  971SOL     OW 3052   1.596   1.282   1.164 -0.0275  0.2683  0.3199
  971SOL    HW1 3053   1.637   1.297   1.250 -1.8058 -2.8353  1.8951
  971SOL    HW2 3054   1.650   1.216   1.123  1.2038  2.2216 -1.3813
  972SOL     OW 3055   2.925   2.470   3.521  0.1884  0.0242 -0.1219
  972SOL    HW1 3056   3.005   2.505   3.560  0.0573 -2.6450  2.9671
  972SOL    HW2 3057   2.955   2.411   3.451  0.8310  0.1178  0.0757
  973SOL     OW 3058   2.479   0.718   1.880  0.2002 -1.1051  0.2519
  973SOL    HW1 3059   2.391   0.706   1.844 -0.2950  0.1178  0.9735
  973SOL    HW2 3060   2.538   0.684   1.813 -0.8257 -2.1601 -0.1391
  974SOL     OW 3061   0.475   3.431   1.081 -1.0640  0.2235 -0.5778
  974SOL    HW1 3062   0.459   3.454   0.990  1.4548  0.1000 -1.1231
  974SOL    HW2 3063   0.505   3.340   1.079 -0.5141  0.3669  0.3200
  975SOL     OW 3064   1.023   0.177   2.308 -0.3955 -0.3853 -0.6714
  975SOL    HW1 3065   1.019   0.083   2.328 -0.8004  0.0279  1.4163
  975SOL    HW2 3066   0.939   0.195   2.266 -1.1691 -0.6315  0.6851
  976SOL     OW 3067   1.944   1.822   2.508  0.3674 -0.2372  0.3599
  976SOL    HW1 3068   1.995   1.830   2.588  0.9338 -0.5772  0.0413
  976SOL    HW2 3069   1.854   1.841   2.535  0.7306  0.9540  0.8193
  977SOL     OW 3070   2.361   3.554   0.352 -0.0846 -0.2859 -0.1752
  977SOL    HW1 3071   2.304   3.483   0.382  0.7889 -0.7054  0.5596
  977SOL    HW2 3072   2.427   3.511   0.298 -1.2441  0.3843 -2.2076
  978SOL     OW 3073   3.145   1.090   0.730 -0.0766 -0.1659  0.4918
  978SOL    HW1 3074   3.157   1.175   0.688  0.4269 -0.2622  0.4368
  978SOL    HW2 3075   3.097   1.109   0.810  1.2548  0.3501  1.1874
  979SOL     OW 3076   3.651   3.063   0.409 -0.1993 -0.0711  0.0307
  979SOL    HW1 3077   3.558   3.059   0.431 -0.1707 -0.8835  0.0164
  979SOL    HW2 3078   3.654   3.078   0.315 -0.3127  0.6872  0.1423
  980SOL     OW 3079   2.203   1.061   2.288 -0.3965 -0.0907 -0.2151
  980SOL    HW1 3080   2.219   1.089   2.198 -0.1488 -0.9244 -0.4317
  980SOL    HW2 3081   2.157   1.135   2.328 -2.8832 -0.7067 -1.7443
  981SOL     OW 3082   1.361   2.674   3.577 -0.5174 -0.0942 -0.3373
  981SOL    HW1 3083   1.295   2.710   3.517 -0.0603 -0.3186 -0.9765
  981SOL    HW2 3084   1.441   2.669   3.525 -0.1735 -0.5223  0.2233
  982SOL     OW 3085   2.433   0.334   0.336  0.3011 -0.5202  0.0955
  982SOL    HW1 3086   2.483   0.273   0.390  0.2804  1.1278  2.1064
  982SOL    HW2 3087   2.357   0.283   0.306  0.7054 -1.6973  1.0013
  983SOL     OW 3088   1.058   2.083   1.193  0.6307 -0.2625 -0.6006
  983SOL    HW1 3089   1.011   2.016   1.143  0.8305  0.3306 -1.6054
  983SOL    HW2 3090   1.097   2.036   1.266  0.2785 -1.1368 -0.9664
  984SOL     OW 3091   0.402   1.519   2.470 -0.1075  0.7506 -0.2560
  984SOL    HW1 3092   0.441   1.463   2.538  0.0221 -1.1000 -1.7675
  984SOL    HW2 3093   0.368   1.594   2.518  1.5435  0.3816  1.6290
  985SOL     OW 3094   0.693   0.876   1.861  0.1566 -0.4174 -0.1191
  985SOL    HW1 3095   0.610   0.839   1.830  0.9193 -1.3227 -1.1592
  985SOL    HW2 3096   0.760   0.817   1.828  1.1253 -1.0798  2.7347
  986SOL     OW 3097   2.923   3.351   0.915 -0.3366 -0.1805 -0.0263
  986SOL    HW1 3098   2.894   3.332   1.004  0.3104 -2.1905 -0.1740
  986SOL    HW2 3099   2.918   3.266   0.870  0.8827  0.4510 -1.4441
  987SOL     OW 3100   0.728   2.570   1.142  0.3485  0.0198 -0.6822
  987SOL    HW1 3101   0.652   2.541   1.192 -0.1467 -0.0521 -1.4521
  987SOL    HW2 3102   0.789   2.496   1.143  0.1014 -0.1825 -0.6581
  988SOL     OW 3103   2.815   2.128   3.571  0.9290  0.3428 -0.1139
  988SOL    HW1 3104   2.859   2.206   3.540  1.7099 -0.7678 -1.9490
  988SOL    HW2 3105   2.885   2.075   3.609  0.4194  0.4749  1.0441
  989SOL     OW 3106   2.308   0.865   3.384 -0.1571 -0.2710 -0.6545
  989SOL    HW1 3107   2.283   0.803   3.453  0.1428  0.2005 -0.1078
  989SOL    HW2 3108   2.334   0.810   3.311  0.3160 -0.7988 -0.1036
  990SOL     OW 3109   1.607   1.329   3.223  0.0508 -0.2205  0.3442
  990SOL    HW1 3110   1.549   1.267   3.267 -0.0687 -1.2835 -1.2395
  990SOL    HW2 3111   1.661   1.275   3.166  1.8740  0.8641  0.9707
  991SOL     OW 3112   3.582   0.210   3.534  0.4474  0.0021 -0.9620
  991SOL    HW1 3113   3.582   0.245   3.623 -0.8501 -1.5304 -0.3231
  991SOL    HW2 3114   3.498   0.238   3.497  1.1299  0.9404 -1.8661
  992SOL     OW 3115   2.501   1.823   1.142  0.2498 -0.0035 -1.2006
  992SOL    HW1 3116   2.564   1.755   1.118 -0.6398 -1.3761  0.1900
  992SOL    HW2 3117   2.453   1.840   1.060  1.0499 -0.4197 -1.7741
  993SOL     OW 3118   2.814   3.167   2.279  0.3664  0.0833 -0.9058
  993SOL    HW1 3119   2.783   3.110   2.350  3.0671  0.4273  0.7096
  993SOL    HW2 3120   2.865   3.108   2.223 -0.9878  0.0039 -2.1133
  994SOL     OW 3121   2.010   0.808   1.167  0.1255  0.1511 -0.6358
  994SOL    HW1 3122   2.083   0.860   1.133  0.1089 -0.6234 -1.9016
  994SOL    HW2 3123   1.936   0.834   1.113 -0.2496 -0.0359 -0.2134
  995SOL     OW 3124   0.315   1.894   3.230  0.7710 -0.4438 -0.3554
  995SOL    HW1 3125   0.397   1.942   3.225 -0.9021  3.0043  1.7933
  995SOL    HW2 3126   0.309   1.866   3.321 -0.7461  0.0568 -0.2730
  996SOL     OW 3127   1.342   2.546   0.294  0.4053 -0.0909  0.2360
  996SOL    HW1 3128   1.283   2.594   0.236 -1.3599 -2.3776  0.0117
  996SOL    HW2 3129   1.381   2.478   0.240 -0.8681 -1.9404  1.5276
  997SOL     OW 3130   1.459   1.515   1.283  0.1898 -0.3520 -0.1290
  997SOL    HW1 3131   1.487   1.439   1.231  0.6459  0.3288 -0.9007
  997SOL    HW2 3132   1.532   1.532   1.342  0.3132 -0.1782 -0.3324
  998SOL     OW 3133   1.000   2.548   3.452 -0.3414  0.6273  0.0598
  998SOL    HW1 3134   1.087   2.517   3.425 -0.7863  1.1121 -2.0587
  998SOL    HW2 3135   0.966   2.477   3.507  1.6281  0.7307  1.5547
  999SOL     OW 3136   1.662   1.366   2.162 -0.3208 -0.0702  0.2654
  999SOL    HW1 3137   1.687   1.321   2.081 -0.6633  0.6942 -0.2809
  999SOL    HW2 3138   1.572   1.395   2.146 -0.1454  0.7038  0.6408
 1000SOL     OW 3139   2.289   2.771   1.839 -0.4554  0.0861 -0.1709
 1000SOL    HW1 3140   2.321   2.860   1.826  2.0037 -0.4770  1.3508
 1000SOL    HW2 3141   2.348   2.733   1.905 -1.6527 -2.5514 -0.4614
 1001SOL     OW 3142   3.702   1.452   0.094 -0.2283  0.3121 -0.4033
 1001SOL    HW1 3143   3.650   1.382   0.132 -1.2293  1.4304  0.3654
 1001SOL    HW2 3144   3.638   1.521   0.075  0.7234  1.0121 -1.1717
 1002SOL     OW 3145   2.590   2.614   1.915  0.8618  0.1528  0.0161
 1002SOL    HW1 3146   2.660   2.550   1.903  1.8735  0.9459  1.4532
 1002SOL    HW2 3147   2.520   2.564   1.958  1.5846 -0.0335  0.9955
 1003SOL     OW 3148   1.827   0.943   3.307  0.0168  0.1492 -0.0966
 1003SOL    HW1 3149   1.893   0.875   3.318 -0.1234 -0.4011 -2.3300
 1003SOL    HW2 3150   1.858   0.995   3.233 -2.4244 -0.6713 -1.8247
 1004SOL     OW 3151   1.556   1.806   1.461  0.2130 -0.0849  0.2790
 1004SOL    HW1 3152   1.634   1.835   1.414  0.9924 -1.7823  0.4583
 1004SOL    HW2 3153   1.548   1.867   1.534  0.7268  0.7620 -0.3584
 1005SOL     OW 3154   0.757   2.691   2.990 -0.7042 -0.1023  0.1694
 1005SOL    HW1 3155   0.736   2.784   2.984 -1.4705 -0.3583 -1.3477
 1005SOL    HW2 3156   0.846   2.689   3.028 -1.5134  1.1347  2.3289
 1006SOL     OW 3157   0.247   2.632   2.455 -0.5180  0.2802 -0.9453
 1006SOL    HW1 3158   0.200   2.668   2.529  1.8879  1.5702  0.0763
 1006SOL    HW2 3159   0.331   2.604   2.491  0.5419  0.5030 -3.0670
 1007SOL     OW 3160   1.878   0.394   3.004  0.6952  0.2074  0.2198
 1007SOL    HW1 3161   1.907   0.463   3.064  2.0513  1.8562 -2.1836
 1007SOL    HW2 3162   1.917   0.314   3.040  1.3622  1.0971  1.5712
 1008SOL     OW 3163   1.050   0.794   0.937 -0.5436 -0.3080  0.2535
 1008SOL    HW1 3164   1.067   0.857   0.867 -0.1586 -0.6054  0.0737
 1008SOL    HW2 3165   0.962   0.815   0.968 -1.1952 -0.9270 -1.1128
 1009SOL     OW 3166   2.996   1.129   0.957  0.1448 -0.0254  0.3879
 1009SOL    HW1 3167   3.028   1.218   0.972  2.1530 -0.8849  1.5920
 1009SOL    HW2 3168   2.981   1.093   1.044  1.8684 -1.6858  0.0751
 1010SOL     OW 3169   0.248   2.776   2.003  0.2427  0.5478 -0.0924
 1010SOL    HW1 3170   0.156   2.752   2.018 -0.4873  1.7950 -2.0869
 1010SOL    HW2 3171   0.253   2.868   2.031  0.7964  0.5833 -0.2980
 1011SOL     OW 3172   0.426   3.091   3.596 -0.0377  0.0925  0.5227
 1011SOL    HW1 3173   0.477   3.140   3.532 -2.0286  3.2877  1.1267
 1011SOL    HW2 3174   0.370   3.034   3.544  0.7223  0.1366 -0.3600
 1012SOL     OW 3175   3.274   1.866   2.020  0.0608 -0.0667  0.2385
 1012SOL    HW1 3176   3.251   1.952   1.985  1.2210 -0.4293 -1.5645
 1012SOL    HW2 3177   3.370   1.866   2.023  0.1196 -1.6165 -0.7012
 1013SOL     OW 3178   1.194   1.431   2.201  0.2452 -0.1353 -0.6729
 1013SOL    HW1 3179   1.258   1.466   2.139 -0.0998 -0.0454 -0.9777
 1013SOL    HW2 3180   1.247   1.383   2.265  0.9681  2.6174  0.9568
 1014SOL     OW 3181   1.995   3.398   1.035 -0.2604 -0.3162  0.5231
 1014SOL    HW1 3182   2.000   3.306   1.062 -1.0265 -0.1561  1.2429
 1014SOL    HW2 3183   2.084   3.419   1.006  0.5771 -0.5911  2.6897
 1015SOL     OW 3184   0.135   1.916   2.235 -0.2169  0.2962 -0.1070
 1015SOL    HW1 3185   0.155   1.897   2.143 -0.6234  1.7011 -0.5088
 1015SOL    HW2 3186   0.097   1.834   2.268  2.5802 -1.2393 -0.3241
 1016SOL     OW 3187   1.391   2.429   3.174  0.6056 -0.0826 -0.1894
 1016SOL    HW1 3188   1.463   2.437   3.112 -0.2924  0.1949 -1.2431
 1016SOL    HW2 3189   1.325   2.378   3.128 -0.9187  1.8336 -0.2995
 1017SOL     OW 3190   1.858   3.394   0.564  0.2620 -0.4605  0.1940
 1017SOL    HW1 3191   1.824   3.331   0.501 -0.7310 -0.1109  0.3758
 1017SOL    HW2 3192   1.781   3.427   0.611  1.0411 -1.7897  2.6209
 1018SOL     OW 3193   1.588   0.554   3.051  0.0626 -0.4272  0.3159
 1018SOL    HW1 3194   1.499   0.533   3.023 -0.5655  1.0177  1.1466
 1018SOL    HW2 3195   1.578   0.595   3.136  1.5828 -0.7078  0.6723
 1019SOL     OW 3196   1.641   0.454   1.182 -0.4422  0.4470  0.2441
 1019SOL    HW1 3197   1.565   0.510   1.200 -1.3519 -0.3536 -0.9619
 1019SOL    HW2 3198   1.629   0.377   1.238 -1.5001 -0.4962 -1.2072
 1020SOL     OW 3199   1.232   1.366   1.748 -0.3919  0.4027 -0.7519
 1020SOL    HW1 3200   1.150   1.414   1.742  0.1376  1.3831 -0.4158
 1020SOL    HW2 3201   1.213   1.280   1.710 -0.4662  2.0091 -4.9159
 1021SOL     OW 3202   2.997   2.838   3.254 -0.1003  0.4634  0.6173
 1021SOL    HW1 3203   2.949   2.909   3.214  2.1875  1.3094 -0.8128
 1021SOL    HW2 3204   3.051   2.880   3.321  0.3716 -0.1029  0.6017
 1022SOL     OW 3205   0.307   3.470   3.227  0.5007  0.2376  0.6072
 1022SOL    HW1 3206   0.218   3.435   3.232  0.6157 -0.0777  0.4573
 1022SOL    HW2 3207   0.295   3.563   3.208  0.2315 -0.1523 -1.3296
 1023SOL     OW 3208   0.811   1.372   1.839  0.1701  0.1211  0.7375
 1023SOL    HW1 3209   0.786   1.461   1.813 -0.0313  0.2126  1.2397
 1023SOL    HW2 3210   0.899   1.382   1.875  0.3074  0.0519  0.4218
 1024SOL     OW 3211   3.591   2.567   1.617 -0.1422 -0.1112 -0.2974
 1024SOL    HW1 3212   3.592   2.508   1.541 -0.1886 -0.4136 -0.0659
 1024SOL    HW2 3213   3.597   2.655   1.579 -0.3832 -0.2492 -0.6607
 1025SOL     OW 3214   0.346   2.762   0.086  0.2696 -0.2610  0.0374
 1025SOL    HW1 3215   0.278   2.716   0.036 -2.3300  1.1223  2.0747
 1025SOL    HW2 3216   0.317   2.757   0.177  3.4076 -0.3147  1.1608
 1026SOL     OW 3217   0.582   1.528   2.005  0.0668  0.4365  0.8140
 1026SOL    HW1 3218   0.487   1.535   2.001  0.1832  2.7137  0.6745
 1026SOL    HW2 3219   0.611   1.548   1.916  0.7288  1.7148  1.2901
 1027SOL     OW 3220   0.152   3.301   1.022 -0.0699 -0.2640 -0.0889
 1027SOL    HW1 3221   0.104   3.345   1.091  0.1576 -2.3611  1.5116
 1027SOL    HW2 3222   0.235   3.276   1.063  0.4073 -0.8562 -1.3589
 1028SOL     OW 3223   0.931   0.177   1.569  0.1860  0.6016 -0.7670
 1028SOL    HW1 3224   0.967   0.095   1.534  0.5790  0.1530  0.6193
 1028SOL    HW2 3225   0.874   0.210   1.500  1.0592 -0.1529 -1.8800
 1029SOL     OW 3226   1.350   1.866   3.115  0.3188  1.0644  0.0352
 1029SOL    HW1 3227   1.351   1.777   3.151 -0.3466  1.2004  0.3991
 1029SOL    HW2 3228   1.412   1.914   3.169  0.3117  0.9429  0.1523
 1030SOL     OW 3229   0.759   3.080   1.457  0.0488  0.4294 -0.6308
 1030SOL    HW1 3230   0.828   3.020   1.429 -0.4824 -0.6473  0.2408
 1030SOL    HW2 3231   0.723   3.116   1.376 -1.1307 -2.1921 -1.4129
 1031SOL     OW 3232   3.315   0.011   0.790  0.0942  0.4003  0.5739
 1031SOL    HW1 3233   3.364  -0.006   0.870 -0.3891  0.4578  0.8881
 1031SOL    HW2 3234   3.238   0.062   0.819  0.3786  1.2116 -0.0449
 1032SOL     OW 3235   1.584   2.065   2.075 -0.0336 -0.3508 -0.6975
 1032SOL    HW1 3236   1.502   2.035   2.113  0.3012 -1.1521 -0.5823
 1032SOL    HW2 3237   1.630   2.106   2.147  0.1683 -0.9679 -0.4648
 1033SOL     OW 3238   1.155   1.819   0.798  0.3607  1.0008  0.3248
 1033SOL    HW1 3239   1.198   1.859   0.874  0.8053  2.2616 -0.5520
 1033SOL    HW2 3240   1.210   1.843   0.724  1.4407 -2.4962 -0.1547
 1034SOL     OW 3241   3.489   1.787   3.282 -0.1631  0.1422 -0.3003
 1034SOL    HW1 3242   3.494   1.833   3.366 -2.2951 -0.2033  0.0904
 1034SOL    HW2 3243   3.447   1.704   3.303  1.3366 -0.9369 -1.3938
 1035SOL     OW 3244   2.850   3.241   1.880  0.2122  0.3898  0.1197
 1035SOL    HW1 3245   2.922   3.295   1.846  1.5121 -2.3855 -1.9222
 1035SOL    HW2 3246   2.771   3.285   1.851  1.1726  1.7952 -0.4686
 1036SOL     OW 3247   1.867   2.390   0.420  0.5988 -0.2368  0.1100
 1036SOL    HW1 3248   1.857   2.417   0.329  1.9664  3.3313  0.8639
 1036SOL    HW2 3249   1.827   2.302   0.423 -0.5363 -0.0360 -3.6038
 1037SOL     OW 3250   0.109   1.997   2.694 -0.0144 -0.2366 -0.3294
 1037SOL    HW1 3251   0.149   1.916   2.662  0.3271 -0.1032 -0.2485
 1037SOL    HW2 3252   0.118   1.992   2.789 -0.6684 -0.4471 -0.2742
 1038SOL     OW 3253   1.913   0.359   3.468 -0.3404  0.0850  0.2499
 1038SOL    HW1 3254   1.866   0.402   3.396 -0.6687 -1.0629 -0.2424
 1038SOL    HW2 3255   1.989   0.318   3.426 -0.3957 -0.3759  0.5893
 1039SOL     OW 3256   0.337   2.768   1.746  0.4689 -0.4781 -0.1789
 1039SOL    HW1 3257   0.378   2.827   1.809  1.7066 -1.7035  0.2059
 1039SOL    HW2 3258   0.258   2.736   1.791 -1.3218  2.2885 -1.1201
 1040SOL     OW 3259   0.859   2.299   2.268  0.1856 -0.1769 -1.0060
 1040SOL    HW1 3260   0.905   2.368   2.317 -1.1506  0.6469 -0.8610
 1040SOL    HW2 3261   0.929   2.250   2.224  1.2719  0.3301  0.0885
 1041SOL     OW 3262   3.477   3.597   2.904  0.4889  0.1364 -0.2716
 1041SOL    HW1 3263   3.532   3.641   2.840 -1.7778  1.2564 -1.5743
 1041SOL    HW2 3264   3.489   3.647   2.985  0.0041  1.5498 -1.0362
 1042SOL     OW 3265   1.322   0.595   3.681 -0.8328 -0.9201  0.1169
 1042SOL    HW1 3266   1.235   0.586   3.720 -0.0528 -1.7207  1.7837
 1042SOL    HW2 3267   1.380   0.612   3.755  0.1539  2.2028 -1.1995
 1043SOL     OW 3268   1.412   3.069   3.539 -0.0489 -0.1104  0.1185
 1043SOL    HW1 3269   1.376   2.981   3.548  0.4075 -0.1557  1.6732
 1043SOL    HW2 3270   1.370   3.103   3.460 -1.4982 -1.1068  0.4112
 1044SOL     OW 3271   3.443   0.684   3.057  0.2798  0.4224 -0.1696
 1044SOL    HW1 3272   3.537   0.690   3.073  0.2956 -1.2859  0.6151
 1044SOL    HW2 3273   3.432   0.708   2.965  1.6107 -0.3184 -0.5448
 1045SOL     OW 3274   0.974   2.967   3.392 -0.1191  0.1055 -0.7887
 1045SOL    HW1 3275   0.904   2.941   3.451  1.8325  0.1140  1.7086
 1045SOL    HW2 3276   0.929   3.002   3.315 -2.7961 -1.0624  0.1270
 1046SOL     OW 3277   0.957   2.708   3.735 -0.2540  0.4987  0.4489
 1046SOL    HW1 3278   0.870   2.713   3.774 -0.1954 -0.2871  0.7155
 1046SOL    HW2 3279   0.942   2.686   3.643 -0.3826  2.0281  0.0834
 1047SOL     OW 3280   1.970   1.803   0.483 -0.4795 -0.3209  0.0686
 1047SOL    HW1 3281   2.039   1.821   0.419  0.8140 -2.2609  0.8292
 1047SOL    HW2 3282   1.980   1.872   0.549 -0.6094  0.5864 -0.8275
 1048SOL     OW 3283   3.149   0.203   2.888 -0.1414  0.6143 -0.5420
 1048SOL    HW1 3284   3.187   0.183   2.802 -0.9590  1.0928 -1.0212
 1048SOL    HW2 3285   3.167   0.296   2.901 -0.1961  0.5887 -0.2858
 1049SOL     OW 3286   0.365   2.711   3.373 -0.4575  0.3417  0.0807
 1049SOL    HW1 3287   0.431   2.642   3.366 -0.6170 -0.1634  2.7018
 1049SOL    HW2 3288   0.288   2.676   3.329 -0.2095 -0.7162  0.4753
 1050SOL     OW 3289   0.226   2.925   2.376 -0.5958  0.1968 -0.2183
 1050SOL    HW1 3290   0.312   2.883   2.376 -1.1309 -0.9523 -0.1164
 1050SOL    HW2 3291   0.203   2.932   2.469 -1.1456 -0.6721 -0.2782
 1051SOL     OW 3292   2.761   0.065   3.474 -0.0326 -0.4925  0.7319
 1051SOL    HW1 3293   2.839   0.010   3.481  1.2156  1.1326  0.3231
 1051SOL    HW2 3294   2.781   0.141   3.528 -0.6365  0.7025 -0.6627
 1052SOL     OW 3295   2.839   1.026   1.402  0.1067 -0.0751 -0.2420
 1052SOL    HW1 3296   2.825   1.018   1.496 -0.0102 -2.0340 -0.3831
 1052SOL    HW2 3297   2.778   1.095   1.374 -0.8589 -0.4332  0.8965
 1053SOL     OW 3298   0.272   2.327   1.182 -0.3822  0.0322 -0.1011
 1053SOL    HW1 3299   0.199   2.344   1.123 -2.1615  0.3189  2.0376
 1053SOL    HW2 3300   0.349   2.326   1.125 -1.8766  0.9352 -2.2939
 1054SOL     OW 3301   2.313   0.191   1.044  0.3065 -0.1859 -0.3516
 1054SOL    HW1 3302   2.291   0.103   1.013 -0.9611  0.1186 -0.3836
 1054SOL    HW2 3303   2.230   0.227   1.075  0.5624  1.4102 -1.3582
 1055SOL     OW 3304   3.588   0.563   0.813 -0.5668  0.0722 -0.0071
 1055SOL    HW1 3305   3.497   0.533   0.808 -2.0193  3.9501 -0.9386
 1055SOL    HW2 3306   3.605   0.602   0.727  1.4951  0.6172  0.5909
 1056SOL     OW 3307   2.586   3.674   1.723  0.0587  0.3569 -0.5704
 1056SOL    HW1 3308   2.649   3.703   1.790  0.9321 -0.3915 -1.0395
 1056SOL    HW2 3309   2.641   3.639   1.653 -0.8154 -3.6078  0.4320
 1057SOL     OW 3310   1.273   1.483   2.526  0.0542  0.0335  0.0468
 1057SOL    HW1 3311   1.179   1.467   2.524  0.0002 -0.2190  2.0791
 1057SOL    HW2 3312   1.303   1.439   2.606  1.7574  0.8076 -0.1128
 1058SOL     OW 3313   0.623   2.955   3.047  0.1927 -0.3411 -0.1766
 1058SOL    HW1 3314   0.611   2.895   3.121  0.5205 -1.1015 -0.7287
 1058SOL    HW2 3315   0.554   2.931   2.985 -1.4400  1.6769  0.7232
 1059SOL     OW 3316   0.332   0.014   0.174 -0.4198 -0.6826 -0.0610
 1059SOL    HW1 3317   0.421   0.046   0.186 -0.0517 -0.5995 -2.5173
 1059SOL    HW2 3318   0.286   0.039   0.254  1.8691 -1.2370  1.5295
 1060SOL     OW 3319   2.781   1.434   1.429  0.2915 -0.0150  0.2500
 1060SOL    HW1 3320   2.836   1.403   1.501 -0.0346  0.1976  0.5929
 1060SOL    HW2 3321   2.841   1.444   1.356  0.0859 -3.7994 -0.6451
 1061SOL     OW 3322   2.904   0.411   2.061  0.2764 -0.1034 -0.2578
 1061SOL    HW1 3323   2.958   0.360   2.001 -0.4397 -0.1294 -0.9052
 1061SOL    HW2 3324   2.866   0.480   2.006  0.2435  0.3667  0.3390
 1062SOL     OW 3325   1.640   3.353   3.671 -0.8153  0.0041  0.6915
 1062SOL    HW1 3326   1.588   3.317   3.743 -0.3074  1.6096  1.9515
 1062SOL    HW2 3327   1.649   3.446   3.693 -2.0388  0.9583 -2.3405
 1063SOL     OW 3328   2.414   1.873   0.895  0.0202 -0.2311 -0.2615
 1063SOL    HW1 3329   2.501   1.876   0.855  0.2502 -1.7595  0.0584
 1063SOL    HW2 3330   2.388   1.781   0.888 -0.7192 -0.1895  1.4501
 1064SOL     OW 3331   1.345   1.773   3.476  0.6781  0.1745  0.4183
 1064SOL    HW1 3332   1.260   1.750   3.438  0.7295  2.0512 -0.9302
 1064SOL    HW2 3333   1.402   1.785   3.401  1.9012 -0.0770  1.2805
 1065SOL     OW 3334   2.371   1.473   3.361  0.5786 -0.4818  0.0420
 1065SOL    HW1 3335   2.356   1.379   3.352 -0.3900 -0.5177  1.7197
 1065SOL    HW2 3336   2.466   1.481   3.369  0.6583 -1.3390  0.0572
 1066SOL     OW 3337   1.393   2.001   1.251 -0.0804 -0.4350 -0.1409
 1066SOL    HW1 3338   1.303   1.996   1.285  0.0895  1.4583  0.7051
 1066SOL    HW2 3339   1.437   1.927   1.293 -1.3818 -1.8645 -1.1609
 1067SOL     OW 3340   1.745   2.787   1.481  0.7733 -0.4856 -0.0760
 1067SOL    HW1 3341   1.734   2.771   1.575  0.3779  1.1418  0.1974
 1067SOL    HW2 3342   1.799   2.714   1.450  0.1490 -1.5420  1.2223
 1068SOL     OW 3343   1.371   1.255   2.329 -0.5464 -0.9085  0.3810
 1068SOL    HW1 3344   1.421   1.265   2.410 -2.9064  0.5022  1.7726
 1068SOL    HW2 3345   1.343   1.164   2.329  0.6597 -1.2937  0.3754
 1069SOL     OW 3346   0.549   0.033   2.957  0.3765 -0.3727 -0.2309
 1069SOL    HW1 3347   0.577   0.061   3.045  0.0750 -0.9820  0.0680
 1069SOL    HW2 3348   0.591   0.095   2.898  0.9354 -0.2124  0.3173
 1070SOL     OW 3349   1.457   1.111   2.106  0.1041  0.7826 -0.7393
 1070SOL    HW1 3350   1.535   1.131   2.055  0.6079 -0.0524 -0.3289
 1070SOL    HW2 3351   1.446   1.187   2.164  0.3507  1.0995 -1.1048
 1071SOL     OW 3352   0.865   3.709   2.942  0.2047 -0.7934 -0.6518
 1071SOL    HW1 3353   0.908   3.771   2.882 -1.3892  1.8593  0.7813
 1071SOL    HW2 3354   0.776   3.700   2.908 -0.9827  1.3702  1.5605
 1072SOL     OW 3355   3.515   3.326   1.803 -0.8461  0.3514 -0.3624
 1072SOL    HW1 3356   3.517   3.306   1.897 -4.0623 -2.2133 -0.6585
 1072SOL    HW2 3357   3.595   3.287   1.769 -0.9651 -1.2133  0.9876
 1073SOL     OW 3358   0.271   0.888   3.519 -0.2017 -0.0570 -0.4723
 1073SOL    HW1 3359   0.309   0.808   3.555 -0.3325 -0.1962 -0.6400
 1073SOL    HW2 3360   0.193   0.904   3.573 -2.2264 -2.0261 -2.6081
 1074SOL     OW 3361   3.054   0.738   2.716 -0.4405 -0.0217  0.3184
 1074SOL    HW1 3362   2.964   0.763   2.738  0.1156  1.7991  0.7458
 1074SOL    HW2 3363   3.061   0.757   2.622 -0.0957  1.3210  0.5897
 1075SOL     OW 3364   1.343   0.565   1.327  0.1857  0.2924 -0.1366
 1075SOL    HW1 3365   1.318   0.589   1.237  0.4212 -0.5026 -0.4215
 1075SOL    HW2 3366   1.324   0.471   1.333 -1.0779  0.5983  1.0715
 1076SOL     OW 3367   3.388   1.771   2.317  0.2890  0.2223 -0.1658
 1076SOL    HW1 3368   3.443   1.844   2.345 -0.4768  0.5711  0.4705
 1076SOL    HW2 3369   3.445   1.694   2.323  1.0748  0.7415 -0.7497
 1077SOL     OW 3370   2.157   3.484   0.163  0.3628 -0.2148  0.3316
 1077SOL    HW1 3371   2.253   3.491   0.166  0.5536 -2.3850  1.8701
 1077SOL    HW2 3372   2.141   3.392   0.144 -1.3902 -0.2866  1.9060
 1078SOL     OW 3373   1.529   0.575   2.222  0.1676 -0.2360  0.0416
 1078SOL    HW1 3374   1.536   0.671   2.227  0.9399 -0.3173  0.7593
 1078SOL    HW2 3375   1.498   0.549   2.309  1.6859 -0.7627  0.4533
 1079SOL     OW 3376   1.225   2.667   0.095 -0.6786  0.2634 -0.0216
 1079SOL    HW1 3377   1.138   2.699   0.070 -0.3098  0.5382 -0.9871
 1079SOL    HW2 3378   1.268   2.647   0.012 -0.1765 -0.8484  0.4898
 1080SOL     OW 3379   0.878   3.343   1.852 -0.5900 -0.2665 -0.1749
 1080SOL    HW1 3380   0.804   3.289   1.824 -1.0078  0.2643 -0.0936
 1080SOL    HW2 3381   0.846   3.392   1.927  0.5587 -1.7686  1.3931
 1081SOL     OW 3382   1.743   1.911   3.035 -0.0045  0.4606  0.4720
 1081SOL    HW1 3383   1.820   1.859   3.010  0.0364  0.8811 -0.3054
 1081SOL    HW2 3384   1.694   1.855   3.095  1.2499  0.4334  1.5254
 1082SOL     OW 3385   0.230   1.861   1.144  0.1860  0.0361 -0.6632
 1082SOL    HW1 3386   0.201   1.952   1.147  1.1007  0.3432 -0.6631
 1082SOL    HW2 3387   0.152   1.811   1.120 -0.4941  0.7370  0.0235
 1083SOL     OW 3388   2.880   3.056   0.797 -0.3386  0.3196 -0.6492
 1083SOL    HW1 3389   2.795   3.035   0.837 -0.5877  0.4611 -1.1019
 1083SOL    HW2 3390   2.874   3.023   0.708  0.8931 -1.6319 -0.0560
 1084SOL     OW 3391   0.463   0.285   3.729  0.0431  0.0512 -0.2991
 1084SOL    HW1 3392   0.457   0.193   3.700  0.2884 -0.0917  0.1059
 1084SOL    HW2 3393   0.372   0.314   3.732 -0.1506 -0.6322  1.0246
 1085SOL     OW 3394   3.399   0.571   2.717 -1.0316  0.4313  0.6998
 1085SOL    HW1 3395   3.478   0.589   2.667  0.2888 -0.1498  2.4741
 1085SOL    HW2 3396   3.385   0.650   2.769 -1.7139  0.5896  0.2848
 1086SOL     OW 3397   0.607   1.096   1.150  0.0751 -0.1891  0.0939
 1086SOL    HW1 3398   0.672   1.134   1.091  0.1754  0.6358  0.7236
 1086SOL    HW2 3399   0.622   1.139   1.234  0.0884 -1.5282  0.7992
 1087SOL     OW 3400   0.915   0.116   0.332 -0.4949 -0.1268 -0.2943
 1087SOL    HW1 3401   0.863   0.139   0.409 -1.0565  3.1379 -1.4720
 1087SOL    HW2 3402   0.998   0.162   0.346  3.0612 -6.1037  2.1292
 1088SOL     OW 3403   1.644   3.672   2.622  0.2167 -0.1100 -0.3021
 1088SOL    HW1 3404   1.586   3.744   2.648  1.7446  0.9026  0.4505
 1088SOL    HW2 3405   1.586   3.596   2.616 -1.4057  1.0987 -0.8522
 1089SOL     OW 3406   0.560   3.487   3.170 -0.3399 -0.7491 -0.0294
 1089SOL    HW1 3407   0.551   3.479   3.075 -0.2976  0.0185 -0.1027
 1089SOL    HW2 3408   0.477   3.455   3.204 -0.6719 -0.2689 -0.3692
 1090SOL     OW 3409   0.281   1.886   1.622  0.0691  0.0290  0.3815
 1090SOL    HW1 3410   0.342   1.876   1.695  0.3866 -1.3753 -0.0576
 1090SOL    HW2 3411   0.232   1.966   1.644  1.3209  0.6053  1.2596
 1091SOL     OW 3412   0.609   2.620   1.504 -0.3193 -0.2755 -1.3357
 1091SOL    HW1 3413   0.628   2.644   1.595 -1.8859 -1.2062 -0.7065
 1091SOL    HW2 3414   0.691   2.633   1.458  1.2960 -2.2012  0.7455
 1092SOL     OW 3415   2.102   1.942   1.222 -0.0001  0.2535  0.7208
 1092SOL    HW1 3416   2.134   1.852   1.215 -1.0426 -0.0205 -4.2832
 1092SOL    HW2 3417   2.181   1.996   1.214  0.3292 -0.2410  0.5709
 1093SOL     OW 3418   2.734   3.000   2.460  0.3691  0.2515  0.3517
 1093SOL    HW1 3419   2.773   2.913   2.450  2.7135  1.1628  0.9491
 1093SOL    HW2 3420   2.639   2.984   2.463  0.6443 -2.0857 -1.2139
 1094SOL     OW 3421   1.791   1.722   3.614  0.2564 -0.3756  0.2691
 1094SOL    HW1 3422   1.784   1.630   3.641 -1.2719 -0.6312 -0.8335
 1094SOL    HW2 3423   1.885   1.737   3.604  0.5215 -1.9840 -0.0441
 1095SOL     OW 3424   2.752   3.398   2.393  0.5484  0.5129 -0.4342
 1095SOL    HW1 3425   2.784   3.366   2.477 -1.3964 -2.3305 -0.6206
 1095SOL    HW2 3426   2.793   3.339   2.329  0.9595  1.8007 -1.3971
 1096SOL     OW 3427   0.913   1.474   0.821 -0.1124 -0.3153  0.7215
 1096SOL    HW1 3428   0.883   1.539   0.884 -1.2171 -1.5103  1.4644
 1096SOL    HW2 3429   1.008   1.476   0.829 -0.1272  1.0953  0.8247
 1097SOL     OW 3430   0.987   3.403   0.489  0.7190 -0.2200 -0.3475
 1097SOL    HW1 3431   0.949   3.475   0.439 -1.5786 -0.2737  1.1552
 1097SOL    HW2 3432   0.920   3.335   0.488  0.6973 -0.3464  2.4588
 1098SOL     OW 3433   1.872   2.937   3.479  0.1924  0.1293 -0.7214
 1098SOL    HW1 3434   1.854   2.866   3.541  0.3406  0.2644 -0.5252
 1098SOL    HW2 3435   1.813   3.007   3.505 -0.1383 -0.0131 -1.0749
 1099SOL     OW 3436   2.525   2.885   2.247 -0.2726  0.2495 -0.3528
 1099SOL    HW1 3437   2.593   2.842   2.194 -1.5138 -1.2389 -0.8221
 1099SOL    HW2 3438   2.548   2.978   2.244  2.4311 -0.2983  0.5276
 1100SOL     OW 3439   3.757   0.858   3.654  0.0147 -0.0320 -0.5638
 1100SOL    HW1 3440   3.674   0.896   3.682 -0.8263 -0.9501 -1.6946
 1100SOL    HW2 3441   3.737   0.766   3.636  1.7242 -0.7733  0.9761
 1101SOL     OW 3442   1.692   1.540   0.893  0.7037 -0.5652  0.2329
 1101SOL    HW1 3443   1.768   1.598   0.892  1.1046 -1.1026 -0.6043
 1101SOL    HW2 3444   1.728   1.453   0.907  0.3530 -0.9722 -1.2441
 1102SOL     OW 3445   2.078   1.942   3.085  0.3147  0.0128  0.3692
 1102SOL    HW1 3446   2.173   1.938   3.073  0.3689  1.9992 -0.2681
 1102SOL    HW2 3447   2.043   1.888   3.014  0.9673 -1.0270  0.8271
 1103SOL     OW 3448   2.475   1.409   1.980 -0.9041 -0.1444 -0.1466
 1103SOL    HW1 3449   2.435   1.450   1.904 -1.5711  0.1575  0.3544
 1103SOL    HW2 3450   2.402   1.390   2.039 -0.1656  3.1032  2.1112
 1104SOL     OW 3451   1.953   2.959   1.314 -0.0524 -0.4141  0.5035
 1104SOL    HW1 3452   1.885   2.945   1.380 -2.0198 -2.9988 -1.8343
 1104SOL    HW2 3453   2.021   2.895   1.336 -0.2272 -0.5735  0.5758
 1105SOL     OW 3454   0.640   0.240   2.817  0.4197 -0.4061 -0.4365
 1105SOL    HW1 3455   0.699   0.279   2.753 -1.3191  1.4494 -1.0321
 1105SOL    HW2 3456   0.553   0.248   2.777 -0.8323  1.2844  2.2863
 1106SOL     OW 3457   3.333   2.207   3.251  0.0088  0.0469  0.3304
 1106SOL    HW1 3458   3.320   2.302   3.253  0.7086  0.3360 -2.9217
 1106SOL    HW2 3459   3.385   2.188   3.329 -2.6882  1.7878  2.7454
 1107SOL     OW 3460   3.651   3.560   1.739  0.0055  0.3180  0.6916
 1107SOL    HW1 3461   3.658   3.613   1.819 -1.2373 -1.0843  1.7871
 1107SOL    HW2 3462   3.581   3.498   1.758  1.4216 -1.7590 -0.5136
 1108SOL     OW 3463   1.945   2.410   2.281  0.1041  0.3721 -0.2813
 1108SOL    HW1 3464   1.963   2.469   2.207 -0.9637 -0.6889 -1.4274
 1108SOL    HW2 3465   1.850   2.404   2.284  0.1728 -0.5184  0.4626
 1109SOL     OW 3466   2.967   1.855   1.673  0.5497 -0.8620  0.3510
 1109SOL    HW1 3467   3.024   1.911   1.620 -0.8952 -0.5482 -0.9519
 1109SOL    HW2 3468   2.881   1.898   1.668 -0.1234 -2.0766  1.0873
 1110SOL     OW 3469   0.628   2.123   3.681  0.1053  0.6178  0.1548
 1110SOL    HW1 3470   0.709   2.086   3.715 -0.5321 -2.1601 -1.0878
 1110SOL    HW2 3471   0.633   2.109   3.587 -0.5671  3.1198 -0.3224
 1111SOL     OW 3472   2.832   0.928   1.146 -0.5406 -0.5830  0.1754
 1111SOL    HW1 3473   2.746   0.952   1.112  0.2305  4.2463  0.9881
 1111SOL    HW2 3474   2.830   0.954   1.238  2.3662  1.9188 -0.3104
 1112SOL     OW 3475   2.860   0.642   0.378  0.5613 -0.3850  0.8063
 1112SOL    HW1 3476   2.939   0.658   0.327  0.6695 -1.2241  0.6989
 1112SOL    HW2 3477   2.821   0.728   0.390 -0.0398 -0.2525 -1.6420
 1113SOL     OW 3478   1.858   1.644   1.524 -0.5316 -0.0991  0.3872
 1113SOL    HW1 3479   1.949   1.671   1.519 -0.9726  1.6920  1.3613
 1113SOL    HW2 3480   1.838   1.645   1.618 -1.2901 -1.5011  0.2760
 1114SOL     OW 3481   1.744   3.464   0.298 -0.2248 -0.6899  0.1806
 1114SOL    HW1 3482   1.802   3.461   0.222  0.3684  0.5497  0.5526
 1114SOL    HW2 3483   1.709   3.554   0.299 -2.0854 -1.3667  0.0350
 1115SOL     OW 3484   0.506   1.474   0.423  0.0969  0.4828  0.4663
 1115SOL    HW1 3485   0.600   1.460   0.434 -0.1354  0.5739  3.8611
 1115SOL    HW2 3486   0.466   1.391   0.449 -0.7682  1.0592  1.0422
 1116SOL     OW 3487   2.017   3.490   3.079 -0.1221  0.2164  0.2135
 1116SOL    HW1 3488   2.095   3.484   3.024  0.3202  1.5554  0.6314
 1116SOL    HW2 3489   2.045   3.455   3.164 -0.6206 -1.2755 -0.2237
 1117SOL     OW 3490   2.520   1.704   2.281 -0.6466  0.1866 -1.3340
 1117SOL    HW1 3491   2.544   1.737   2.195  1.3487  0.7710 -0.6268
 1117SOL    HW2 3492   2.502   1.783   2.332  0.4068  0.0163 -0.6527
 1118SOL     OW 3493   2.272   0.106   0.339  0.5565 -0.3965  0.4626
 1118SOL    HW1 3494   2.193   0.107   0.393  1.0499 -0.1810  1.1909
 1118SOL    HW2 3495   2.310   0.019   0.354  1.0007 -0.1321  0.9376
 1119SOL     OW 3496   0.606   1.337   0.730 -0.4480 -0.1196  0.8540
 1119SOL    HW1 3497   0.526   1.285   0.725 -0.0065 -0.7807  0.4970
 1119SOL    HW2 3498   0.672   1.276   0.763  0.1784  0.0688  0.0010
 1120SOL     OW 3499   1.404   0.323   0.337  0.0164  0.2559 -0.0398
 1120SOL    HW1 3500   1.464   0.315   0.263  1.5125 -0.6106  1.2043
 1120SOL    HW2 3501   1.455   0.369   0.404 -1.8661  2.5760 -0.0728
 1121SOL     OW 3502   3.119   0.269   3.659  0.7560  0.2930  0.1923
 1121SOL    HW1 3503   3.128   0.346   3.714  0.2553 -1.4962  2.9908
 1121SOL    HW2 3504   3.025   0.259   3.646  0.7214 -0.4519  0.8858
 1122SOL     OW 3505   2.049   2.225   2.967  0.2247 -0.1108 -0.3390
 1122SOL    HW1 3506   2.076   2.215   2.875 -4.4581  2.4936 -2.3599
 1122SOL    HW2 3507   2.057   2.138   3.004  1.4216 -1.4965 -3.5056
 1123SOL     OW 3508   3.406   2.997   0.404  0.3417 -0.1207 -0.3461
 1123SOL    HW1 3509   3.408   2.940   0.481  2.8740 -1.8382 -1.5207
 1123SOL    HW2 3510   3.326   2.971   0.357 -0.3567 -0.2042  0.8496
 1124SOL     OW 3511   1.891   3.334   2.872  0.0241  0.4394  0.0357
 1124SOL    HW1 3512   1.902   3.246   2.909 -0.9629  0.8490  1.3563
 1124SOL    HW2 3513   1.916   3.393   2.942  0.1509  1.2315 -0.6676
 1125SOL     OW 3514   1.305   2.008   3.643  0.6138 -0.5881  0.0514
 1125SOL    HW1 3515   1.279   1.941   3.580 -1.9031 -0.0062  0.3528
 1125SOL    HW2 3516   1.289   1.967   3.729 -1.7424  0.5486  0.2458
 1126SOL     OW 3517   2.515   3.078   2.862 -0.0023  0.0677  0.0246
 1126SOL    HW1 3518   2.502   3.172   2.852 -1.2952 -0.0653  0.3223
 1126SOL    HW2 3519   2.610   3.067   2.863  0.1623  1.2784 -0.7797
 1127SOL     OW 3520   0.667   1.537   0.170  0.8957  0.4798  0.0213
 1127SOL    HW1 3521   0.649   1.448   0.200 -0.8058  1.0709  0.8771
 1127SOL    HW2 3522   0.729   1.571   0.234  0.4612  0.3664  0.5123
 1128SOL     OW 3523   1.488   0.414   1.665  0.1842 -0.5279 -0.4918
 1128SOL    HW1 3524   1.462   0.336   1.713 -1.4421  0.7231  0.7694
 1128SOL    HW2 3525   1.519   0.474   1.733  2.6089 -0.4665 -1.5551
 1129SOL     OW 3526   1.655   1.186   1.950  0.3391  0.1643  0.0282
 1129SOL    HW1 3527   1.621   1.142   1.872 -0.8008  1.0531  0.0048
 1129SOL    HW2 3528   1.750   1.169   1.948  0.1730 -0.7519 -0.9378
 1130SOL     OW 3529   1.181   1.976   1.391 -0.4556 -0.4770 -0.1272
 1130SOL    HW1 3530   1.181   2.041   1.461  0.7173 -0.4515 -0.1351
 1130SOL    HW2 3531   1.185   1.892   1.437 -0.3984 -0.4868 -0.1502
 1131SOL     OW 3532   1.369   3.204   3.313  0.0157  0.0692 -0.0306
 1131SOL    HW1 3533   1.308   3.175   3.245  1.4754 -0.7496 -1.0579
 1131SOL    HW2 3534   1.432   3.258   3.267 -0.1413  1.2410  1.0877
 1132SOL     OW 3535   2.736   1.523   2.553  0.3494 -0.8673  0.1881
 1132SOL    HW1 3536   2.776   1.449   2.508 -0.4021  0.1810 -2.3862
 1132SOL    HW2 3537   2.752   1.598   2.495 -2.7626  0.1294  0.3981
 1133SOL     OW 3538   1.114   3.019   0.118 -0.4062 -0.2721 -0.2073
 1133SOL    HW1 3539   1.086   2.934   0.150 -0.5669 -0.1837 -0.1165
 1133SOL    HW2 3540   1.073   3.027   0.032 -1.7635  0.4305  0.4736
 1134SOL     OW 3541   0.959   0.994   3.411 -0.6643 -0.3486 -0.3263
 1134SOL    HW1 3542   0.946   0.987   3.317  0.4559  0.4199 -0.5553
 1134SOL    HW2 3543   0.874   0.972   3.449 -0.8333 -1.7686 -1.4570
 1135SOL     OW 3544   1.755  -0.000   0.190  0.2661 -0.1037 -0.0266
 1135SOL    HW1 3545   1.671   0.022   0.230  0.3287 -0.1964  0.1581
 1135SOL    HW2 3546   1.813   0.071   0.216 -0.1587  0.8291 -1.5070
 1136SOL     OW 3547   1.161   1.451   0.531 -0.4833 -0.5180  0.6066
 1136SOL    HW1 3548   1.104   1.450   0.454 -0.0592  1.2961  0.2015
 1136SOL    HW2 3549   1.162   1.543   0.558  2.7974 -0.3003  0.1409
 1137SOL     OW 3550   0.734   1.794   3.020 -0.6226  1.0889 -0.4305
 1137SOL    HW1 3551   0.780   1.745   3.089  0.6528 -1.1518 -2.7018
 1137SOL    HW2 3552   0.804   1.839   2.973 -1.2386  1.1130 -1.3370
 1138SOL     OW 3553   2.015   0.070   0.516 -0.3330  0.1667 -0.5318
 1138SOL    HW1 3554   2.000  -0.006   0.460 -0.5824 -0.9964  1.0544
 1138SOL    HW2 3555   2.010   0.036   0.605  3.6857  1.2111  0.2872
 1139SOL     OW 3556   3.021   0.381   1.344  0.4295  0.3356  0.3711
 1139SOL    HW1 3557   3.035   0.412   1.254  0.3568 -1.0554 -0.1368
 1139SOL    HW2 3558   3.093   0.419   1.394  1.9385 -0.8925 -0.7781
 1140SOL     OW 3559   3.131   0.887   0.945 -0.0649 -0.1960 -0.5532
 1140SOL    HW1 3560   3.158   0.949   0.878  0.3219  0.1141 -0.1171
 1140SOL    HW2 3561   3.045   0.858   0.917  0.1511 -0.1825 -1.2623
 1141SOL     OW 3562   2.840   0.217   0.587 -0.3081 -0.3881  0.8182
 1141SOL    HW1 3563   2.915   0.273   0.567 -0.6791 -0.4718 -0.9917
 1141SOL    HW2 3564   2.776   0.275   0.626 -0.3525  0.2970 -0.2302
 1142SOL     OW 3565   2.155   2.488   1.995 -0.2887  0.7070  0.0156
 1142SOL    HW1 3566   2.080   2.546   2.009 -0.7255 -0.3129  2.6222
 1142SOL    HW2 3567   2.228   2.533   2.037 -0.9068 -0.9894  3.3013
 1143SOL     OW 3568   2.960   3.123   0.390 -0.1805 -0.1372  0.6593
 1143SOL    HW1 3569   2.879   3.104   0.437 -0.2846 -1.0797  0.1370
 1143SOL    HW2 3570   3.015   3.167   0.454 -0.7467 -0.3634  1.3177
 1144SOL     OW 3571   2.860   0.676   1.499 -0.1365  0.3873 -0.2595
 1144SOL    HW1 3572   2.912   0.686   1.419  1.0687  0.8465  0.5516
 1144SOL    HW2 3573   2.887   0.592   1.535 -0.3240  0.4001 -0.0901
 1145SOL     OW 3574   0.734   1.510   2.865 -0.3571  0.1140 -0.3363
 1145SOL    HW1 3575   0.709   1.597   2.896 -0.5833  0.0006 -0.2010
 1145SOL    HW2 3576   0.765   1.524   2.776 -2.1410  0.0737 -0.9991
 1146SOL     OW 3577   3.343   2.490   3.286  0.3333  0.0833 -0.5769
 1146SOL    HW1 3578   3.261   2.530   3.258  0.0694 -1.5339 -2.3288
 1146SOL    HW2 3579   3.411   2.533   3.233  0.5440  0.8281  0.2700
 1147SOL     OW 3580   2.238   0.643   0.925  0.1308 -0.3195  0.0895
 1147SOL    HW1 3581   2.273   0.652   0.837  1.8010 -1.0757  0.6278
 1147SOL    HW2 3582   2.144   0.632   0.913 -0.0313  1.9628 -1.4270
 1148SOL     OW 3583   0.612   0.328   1.045 -0.3693 -0.1032 -0.4399
 1148SOL    HW1 3584   0.649   0.240   1.036  0.7311  0.3012 -0.1261
 1148SOL    HW2 3585   0.582   0.332   1.136 -0.7318 -0.2658 -0.5517
 1149SOL     OW 3586   2.774   0.965   3.214 -0.6990 -0.0753  0.3253
 1149SOL    HW1 3587   2.685   0.960   3.178 -0.0178 -1.4918 -1.3028
 1149SOL    HW2 3588   2.831   0.950   3.139  0.9390  0.7110  1.3536
 1150SOL     OW 3589   0.665   1.884   1.587 -0.3246  0.0682  0.0387
 1150SOL    HW1 3590   0.608   1.961   1.591 -0.8525 -0.3721  1.2227
 1150SOL    HW2 3591   0.714   1.885   1.669  0.9801  0.1091 -0.7027
 1151SOL     OW 3592   3.387   0.745   1.235 -0.1095  0.2073  0.6996
 1151SOL    HW1 3593   3.412   0.741   1.143  1.5546 -0.4319  1.1437
 1151SOL    HW2 3594   3.367   0.837   1.251 -0.7576  0.2694 -0.3556
 1152SOL     OW 3595   0.644   2.097   0.469 -0.4966  0.0266  0.1656
 1152SOL    HW1 3596   0.555   2.066   0.489  0.7003 -2.7212  1.7222
 1152SOL    HW2 3597   0.662   2.062   0.382 -0.7093  0.0601  0.1068
 1153SOL     OW 3598   2.998   1.635   3.677  0.0750  0.0961  0.6762
 1153SOL    HW1 3599   2.971   1.612   3.588 -0.4872 -0.7207  1.0530
 1153SOL    HW2 3600   2.994   1.553   3.726  1.7797  0.2518  1.1190
 1154SOL     OW 3601   0.381   3.327   1.608 -0.3878  0.2102 -0.1096
 1154SOL    HW1 3602   0.296   3.365   1.630 -0.5762 -0.5385  0.5105
 1154SOL    HW2 3603   0.382   3.323   1.513 -0.9654  0.4123 -0.1272
 1155SOL     OW 3604   0.509   1.613   0.744  0.5726  0.2033  0.5707
 1155SOL    HW1 3605   0.554   1.528   0.741  2.0940  0.9465 -2.7065
 1155SOL    HW2 3606   0.431   1.599   0.690 -0.3941  0.3442  1.8899
 1156SOL     OW 3607   0.280  -0.008   2.924 -0.2067  0.5092  0.0497
 1156SOL    HW1 3608   0.247  -0.006   3.013 -1.7773 -0.9662 -0.4376
 1156SOL    HW2 3609   0.372   0.020   2.931 -0.3751  0.6682  2.0619
 1157SOL     OW 3610   2.834   1.268   3.364  0.5474 -0.1203  0.2931
 1157SOL    HW1 3611   2.883   1.277   3.283 -2.8057  0.5050 -1.8914
 1157SOL    HW2 3612   2.841   1.176   3.387  2.5175 -0.0776  0.0345
 1158SOL     OW 3613   3.326   1.732   0.458  0.1789  0.7229  0.1613
 1158SOL    HW1 3614   3.234   1.756   0.463  0.0484  0.2933 -0.0799
 1158SOL    HW2 3615   3.372   1.815   0.443 -0.0915  1.0345  1.0123
 1159SOL     OW 3616   0.158   1.138   1.204 -0.0018  0.2524  0.1068
 1159SOL    HW1 3617   0.226   1.093   1.154 -0.3401 -0.9593  0.7197
 1159SOL    HW2 3618   0.153   1.091   1.287  0.3749  2.0658  1.2312
 1160SOL     OW 3619   0.142   2.836   2.635 -0.5453 -0.3446 -0.2747
 1160SOL    HW1 3620   0.099   2.919   2.657  0.2438  0.6548 -2.2369
 1160SOL    HW2 3621   0.160   2.795   2.720  0.5019  2.2592  0.8654
 1161SOL     OW 3622   2.619   2.155   1.669 -0.5389  0.2952  0.6311
 1161SOL    HW1 3623   2.556   2.212   1.713 -0.5611 -0.8341  2.1539
 1161SOL    HW2 3624   2.694   2.151   1.729 -0.0418 -0.3407 -0.0126
 1162SOL     OW 3625   1.648   0.266   3.597 -0.1774 -0.0256  0.4196
 1162SOL    HW1 3626   1.575   0.209   3.574 -1.8697  1.9669  0.5506
 1162SOL    HW2 3627   1.649   0.333   3.528  0.6226  0.7453  1.1586
 1163SOL     OW 3628   0.578   0.762   1.102 -0.6984 -0.9486  0.2614
 1163SOL    HW1 3629   0.488   0.746   1.074 -1.0517 -0.9785  1.3603
 1163SOL    HW2 3630   0.631   0.702   1.049 -0.9942  0.9187 -2.3443
 1164SOL     OW 3631   1.500   2.828   0.029 -0.0823  0.2302  0.4990
 1164SOL    HW1 3632   1.439   2.765  -0.009  1.7958 -0.7655 -1.0757
 1164SOL    HW2 3633   1.495   2.813   0.123 -0.0540 -1.9525  0.1927
 1165SOL     OW 3634   2.982   1.297   3.102 -0.4985 -0.0472  0.2885
 1165SOL    HW1 3635   3.036   1.243   3.159  3.4104  2.1372 -0.9306
 1165SOL    HW2 3636   3.015   1.386   3.116 -1.0687  0.9138 -3.4302
 1166SOL     OW 3637   3.659   1.238   3.079 -0.3372 -0.0489  0.5363
 1166SOL    HW1 3638   3.738   1.192   3.049 -0.5471 -1.4962  2.0489
 1166SOL    HW2 3639   3.588   1.196   3.030 -0.3477 -0.0106  0.5189
 1167SOL     OW 3640   3.363   0.109   2.295  0.2000 -0.2309 -0.0598
 1167SOL    HW1 3641   3.350   0.195   2.254  1.4993  0.8103  1.6216
 1167SOL    HW2 3642   3.321   0.048   2.234  0.1963  1.4524 -1.8554
 1168SOL     OW 3643   2.638   2.058   3.330  0.0319 -0.3453 -0.0784
 1168SOL    HW1 3644   2.575   2.115   3.286 -0.7939 -0.2923  1.1141
 1168SOL    HW2 3645   2.684   2.115   3.391  1.6086 -0.2860 -1.2544
 1169SOL     OW 3646   0.451   1.415   1.311  0.1084  0.2117 -0.4682
 1169SOL    HW1 3647   0.405   1.499   1.318  1.0360  0.8580 -1.6749
 1169SOL    HW2 3648   0.494   1.404   1.395 -0.5879  0.5895 -0.0505
 1170SOL     OW 3649   0.728   3.453   2.896  0.6704  0.1831 -0.6895
 1170SOL    HW1 3650   0.786   3.422   2.827 -0.9395 -1.5255 -1.3550
 1170SOL    HW2 3651   0.663   3.383   2.907  0.9015  0.3286  2.6613
 1171SOL     OW 3652   2.537   2.760   1.677  0.1192  0.2910  0.5035
 1171SOL    HW1 3653   2.552   2.738   1.769 -2.6943 -0.8012  0.7857
 1171SOL    HW2 3654   2.498   2.681   1.639 -0.2338  1.2470 -1.2416
 1172SOL     OW 3655   0.715   3.582   2.302  0.3426  0.0020  0.3178
 1172SOL    HW1 3656   0.651   3.515   2.277 -0.9393  1.1920  0.2759
 1172SOL    HW2 3657   0.749   3.552   2.386 -1.6935  0.2541  1.2889
 1173SOL     OW 3658   0.559   3.724   0.850 -0.3997 -0.5261  0.3201
 1173SOL    HW1 3659   0.652   3.742   0.868 -0.6519 -0.7698  2.0929
 1173SOL    HW2 3660   0.560   3.660   0.780  0.8408 -1.3868  1.0761
 1174SOL     OW 3661   0.099   3.211   1.910  0.6638 -0.9044 -0.2025
 1174SOL    HW1 3662   0.035   3.141   1.904 -0.7721  0.4494 -1.6080
 1174SOL    HW2 3663   0.078   3.256   1.993  1.5424 -2.0357  0.6619
 1175SOL     OW 3664   0.589   2.323   2.142  0.4076  0.1122  0.1671
 1175SOL    HW1 3665   0.541   2.403   2.122  1.3464  1.0365  1.4254
 1175SOL    HW2 3666   0.671   2.354   2.182  0.8404 -1.4754  0.5760
 1176SOL     OW 3667   1.516   1.406   0.191 -0.3006 -0.8125  0.2259
 1176SOL    HW1 3668   1.556   1.326   0.227 -0.8486 -0.3411  1.9673
 1176SOL    HW2 3669   1.422   1.390   0.198 -0.4278  0.2737  1.3369
 1177SOL     OW 3670   3.518   2.061   0.060  0.3563  0.1003  0.6546
 1177SOL    HW1 3671   3.503   2.094   0.149  0.2554 -0.6223  0.9175
 1177SOL    HW2 3672   3.558   2.134   0.014  0.9659  0.2992  1.4662
 1178SOL     OW 3673   1.695   2.948   0.542  0.2099 -0.0256 -0.3111
 1178SOL    HW1 3674   1.630   3.018   0.550 -0.9346 -1.1307  0.6115
 1178SOL    HW2 3675   1.774   2.992   0.511 -1.0619  1.3302 -1.8522
 1179SOL     OW 3676   3.505   3.332   0.992  0.0886 -0.3372 -0.2181
 1179SOL    HW1 3677   3.457   3.370   1.066 -0.1552  4.3661 -2.4481
 1179SOL    HW2 3678   3.578   3.393   0.977  2.6342 -3.3773 -1.4160
 1180SOL     OW 3679   3.234   0.679   0.598  0.0877 -0.3038  0.1997
 1180SOL    HW1 3680   3.262   0.619   0.667  0.9084 -1.1295 -0.8229
 1180SOL    HW2 3681   3.204   0.622   0.527  0.9544  0.4737 -0.8187
 1181SOL     OW 3682   1.555   2.493   3.391 -0.2669  0.0095  0.2302
 1181SOL    HW1 3683   1.640   2.519   3.355 -0.4003 -0.3853 -0.3917
 1181SOL    HW2 3684   1.508   2.458   3.316 -1.2341  0.8539  0.4131
 1182SOL     OW 3685   2.434   2.354   3.527  0.2354  0.0669 -0.3298
 1182SOL    HW1 3686   2.427   2.259   3.536 -1.8470 -0.0465 -2.0834
 1182SOL    HW2 3687   2.343   2.384   3.523  0.8460  2.1372  0.0688
 1183SOL     OW 3688   3.360   1.296   2.261 -0.0021  0.1084 -0.1416
 1183SOL    HW1 3689   3.434   1.334   2.308  0.9025 -0.1699 -1.2924
 1183SOL    HW2 3690   3.361   1.203   2.285 -0.5747  0.2749  0.5747
 1184SOL     OW 3691   0.777   1.452   0.512 -0.3984  0.5710  0.3584
 1184SOL    HW1 3692   0.863   1.475   0.548 -0.2074  0.4115  0.0073
 1184SOL    HW2 3693   0.730   1.415   0.587  0.5925 -1.3515  0.1136
 1185SOL     OW 3694   1.165   1.119   1.639 -0.2155 -0.4470 -0.0008
 1185SOL    HW1 3695   1.124   1.055   1.698  0.1442 -0.6417  0.0402
 1185SOL    HW2 3696   1.238   1.071   1.599 -0.1929 -0.1840 -0.2779
 1186SOL     OW 3697   3.520   0.177   1.200  0.2506  0.2099 -0.0998
 1186SOL    HW1 3698   3.550   0.229   1.274  1.8276 -1.1656  0.2804
 1186SOL    HW2 3699   3.595   0.122   1.177 -0.7798 -0.6486 -1.6002
 1187SOL     OW 3700   2.452   1.957   2.387  0.0188 -0.0002  0.2544
 1187SOL    HW1 3701   2.543   1.957   2.416  0.4178  1.5506 -0.8614
 1187SOL    HW2 3702   2.451   2.013   2.309 -1.5552 -1.4989 -0.8906
 1188SOL     OW 3703   0.519   2.162   2.725  0.0859  0.4122 -0.3264
 1188SOL    HW1 3704   0.544   2.176   2.816 -0.0660  0.1571 -0.2458
 1188SOL    HW2 3705   0.602   2.152   2.678  0.2459  2.1174 -0.4792
 1189SOL     OW 3706   2.235   1.861   2.171  0.2478 -0.4981 -0.0889
 1189SOL    HW1 3707   2.311   1.914   2.150  1.4814 -2.0165  0.3448
 1189SOL    HW2 3708   2.212   1.818   2.089  2.1229 -2.7598  0.4561
 1190SOL     OW 3709   2.114   2.735   3.606 -0.0465 -0.5950 -0.7400
 1190SOL    HW1 3710   2.186   2.730   3.669  0.1363  0.1472 -0.8771
 1190SOL    HW2 3711   2.045   2.681   3.644  0.0060 -0.0499  0.1764
 1191SOL     OW 3712   2.589   1.873   2.086 -0.1463  0.1509 -0.1782
 1191SOL    HW1 3713   2.534   1.948   2.105  0.2737  0.6794 -1.0213
 1191SOL    HW2 3714   2.677   1.901   2.110 -0.0838 -0.3360  0.1973
 1192SOL     OW 3715   1.342   0.841   1.867 -0.0606 -0.3413 -0.2339
 1192SOL    HW1 3716   1.409   0.909   1.869 -2.7011  2.4756  1.5674
 1192SOL    HW2 3717   1.288   0.864   1.791 -0.6510 -0.7648  0.0516
 1193SOL     OW 3718   1.728   2.692   2.823 -0.1061  0.0390  0.2204
 1193SOL    HW1 3719   1.662   2.747   2.865 -0.7800 -0.0060 -0.7597
 1193SOL    HW2 3720   1.810   2.719   2.864 -0.8471 -0.7379  2.3111
 1194SOL     OW 3721   1.032   1.532   1.635  0.4007  0.0163  0.5552
 1194SOL    HW1 3722   1.033   1.456   1.577  0.0083 -0.9320  1.7361
 1194SOL    HW2 3723   0.972   1.594   1.592  0.3722 -0.5230 -0.2016
 1195SOL     OW 3724   0.257   1.575   0.324 -0.3158  0.7567  0.4213
 1195SOL    HW1 3725   0.348   1.560   0.351  0.4645  2.2938 -1.1496
 1195SOL    HW2 3726   0.209   1.502   0.364  1.8301 -0.9847  0.0910
 1196SOL     OW 3727   3.085   2.350   2.655  0.5912  0.4481  0.8120
 1196SOL    HW1 3728   3.084   2.332   2.749  1.1241 -0.7127  0.6147
 1196SOL    HW2 3729   3.152   2.291   2.620  2.3175  2.6869  0.0576
 1197SOL     OW 3730   0.908   0.634   1.248  0.0947 -0.0659  0.6178
 1197SOL    HW1 3731   0.984   0.617   1.192 -0.9967  1.3631 -1.3880
 1197SOL    HW2 3732   0.882   0.723   1.227 -1.3320 -0.0308  2.3079
 1198SOL     OW 3733   3.083   3.024  -0.010  0.0756 -0.4798  0.6815
 1198SOL    HW1 3734   3.111   3.054   0.077  0.4548 -0.8242  0.6775
 1198SOL    HW2 3735   3.009   3.081  -0.032 -2.1115 -2.3833  2.5934
 1199SOL     OW 3736   0.139   1.639   1.807 -0.6214  0.0294 -0.1516
 1199SOL    HW1 3737   0.127   1.724   1.764 -1.1439  0.7595  1.3679
 1199SOL    HW2 3738   0.054   1.618   1.845  0.2452  0.4379  2.2383
 1200SOL     OW 3739   2.728   2.974   3.383 -0.2812  0.5646 -0.4294
 1200SOL    HW1 3740   2.807   3.023   3.359  0.3263  0.3704  1.0398
 1200SOL    HW2 3741   2.704   2.927   3.304  0.8584  0.9362 -1.0223
 1201SOL     OW 3742   2.224   3.121   2.903  0.1533 -0.7369 -0.4733
 1201SOL    HW1 3743   2.193   3.062   2.971  0.4308 -1.8832 -1.3038
 1201SOL    HW2 3744   2.311   3.089   2.881  0.0848 -0.3649 -1.3271
 1202SOL     OW 3745   0.999   0.355   0.799 -0.2744 -0.2203 -0.1058
 1202SOL    HW1 3746   1.060   0.339   0.727 -1.0000  1.2568 -1.1259
 1202SOL    HW2 3747   0.913   0.361   0.756 -1.3964 -3.3056  1.3982
 1203SOL     OW 3748   1.138   0.293   0.369 -0.3868  0.1541 -0.8074
 1203SOL    HW1 3749   1.233   0.280   0.372 -0.4655 -0.5650  2.7516
 1203SOL    HW2 3750   1.126   0.386   0.388 -0.4132  0.2863 -1.4500
 1204SOL     OW 3751   0.669   0.910   0.810  0.1915  0.2537  0.0406
 1204SOL    HW1 3752   0.593   0.852   0.807  0.1131  0.4191 -2.0226
 1204SOL    HW2 3753   0.649   0.971   0.881 -1.5459  0.2382 -0.3901
 1205SOL     OW 3754   1.882   1.761   0.865 -0.5964 -0.1154  0.0256
 1205SOL    HW1 3755   1.861   1.768   0.772 -1.0369 -1.1098  0.0475
 1205SOL    HW2 3756   1.886   1.852   0.895  1.2302  0.3064 -1.3119
 1206SOL     OW 3757   1.450   2.500   1.923  0.2085 -0.2785 -0.0348
 1206SOL    HW1 3758   1.394   2.482   1.847  0.0306  1.9107 -0.4709
 1206SOL    HW2 3759   1.400   2.469   1.998 -1.5115  1.3429 -0.4446
 1207SOL     OW 3760   1.040   3.535   3.055  0.0517 -0.7664 -0.0187
 1207SOL    HW1 3761   0.983   3.460   3.067  1.6510 -2.4617 -2.1752
 1207SOL    HW2 3762   0.988   3.598   3.005 -0.9655 -0.8028  0.9478
 1208SOL     OW 3763   3.462   0.717   1.511  0.3858 -0.3872  0.0366
 1208SOL    HW1 3764   3.460   0.813   1.520  0.5649 -0.3325 -0.4780
 1208SOL    HW2 3765   3.488   0.702   1.420  0.9334 -0.9267  0.2706
 1209SOL     OW 3766   2.185   1.623   1.256 -0.0076 -0.0458  0.2542
 1209SOL    HW1 3767   2.263   1.670   1.285  0.1814 -0.6717  0.7849
 1209SOL    HW2 3768   2.202   1.532   1.279 -0.7005 -0.2586 -0.0499
 1210SOL     OW 3769   0.424   2.131   1.347 -0.0326 -0.1190 -0.2564
 1210SOL    HW1 3770   0.372   2.204   1.313  1.0199  1.1831  0.8032
 1210SOL    HW2 3771   0.428   2.146   1.441 -0.1655 -1.8315  0.0540
 1211SOL     OW 3772   2.763   1.552   1.695 -0.1375  0.0943 -0.0651
 1211SOL    HW1 3773   2.767   1.617   1.625 -0.0105 -0.0621 -0.2052
 1211SOL    HW2 3774   2.737   1.601   1.773 -0.0233  0.3145 -0.1661
 1212SOL     OW 3775   3.154   3.116   2.243 -0.5882 -0.1667  0.1050
 1212SOL    HW1 3776   3.104   3.048   2.197 -1.6086  0.4224  0.3137
 1212SOL    HW2 3777   3.210   3.155   2.176 -0.6339 -0.6249 -0.2023
 1213SOL     OW 3778   0.379   3.334   0.299 -0.1414  0.3960 -0.1813
 1213SOL    HW1 3779   0.289   3.366   0.295 -0.4947 -0.2279  1.6870
 1213SOL    HW2 3780   0.398   3.304   0.210 -2.0818 -0.2221 -0.4341
 1214SOL     OW 3781   0.862   2.069   0.127 -0.2647 -0.3015 -0.1861
 1214SOL    HW1 3782   0.790   2.041   0.184 -2.5919  2.7097 -1.3394
 1214SOL    HW2 3783   0.918   2.122   0.184  0.2589 -1.4239  0.3744
 1215SOL     OW 3784   2.357   2.673   1.041  0.2254  0.0256 -0.0265
 1215SOL    HW1 3785   2.427   2.688   1.104  0.9971 -4.2377  0.4045
 1215SOL    HW2 3786   2.394   2.699   0.957  1.1102  0.7849  0.5793
 1216SOL     OW 3787   0.496   2.407   0.133  0.2919  0.4305  0.0286
 1216SOL    HW1 3788   0.517   2.458   0.211  1.1953 -0.8327  0.6413
 1216SOL    HW2 3789   0.507   2.316   0.160 -4.0213 -0.3440 -0.1998
 1217SOL     OW 3790   0.925   0.290   3.588 -0.1969  0.6189  0.3136
 1217SOL    HW1 3791   0.949   0.311   3.497  0.8572 -0.3603  0.3404
 1217SOL    HW2 3792   0.992   0.334   3.641  0.1305 -0.1133  0.5237
 1218SOL     OW 3793   2.235   1.487   0.434 -0.4646 -0.2380 -0.1941
 1218SOL    HW1 3794   2.183   1.552   0.387 -0.5724 -1.3954 -1.7188
 1218SOL    HW2 3795   2.209   1.499   0.526 -2.8447 -0.2318 -0.7883
 1219SOL     OW 3796   3.099   0.355   0.474 -0.2978  0.3549  0.1132
 1219SOL    HW1 3797   3.123   0.408   0.398 -0.2928  0.1928  0.0032
 1219SOL    HW2 3798   3.173   0.366   0.534  0.5939 -1.0487 -0.6880
 1220SOL     OW 3799   2.631   0.062   2.374 -0.0301  0.2015 -0.0056
 1220SOL    HW1 3800   2.568   0.132   2.361 -1.3856 -1.1648 -1.2731
 1220SOL    HW2 3801   2.582  -0.007   2.420  0.7242 -0.6139 -0.3774
 1221SOL     OW 3802   1.648   2.078   0.819  0.3290  0.2882 -0.3970
 1221SOL    HW1 3803   1.609   2.021   0.885 -1.1982  1.7911  0.0703
 1221SOL    HW2 3804   1.666   2.020   0.745 -1.2363 -0.7948  0.0182
 1222SOL     OW 3805   2.987   0.910   0.590  0.0913 -0.1890  0.3004
 1222SOL    HW1 3806   3.057   0.865   0.542  0.3418 -0.8647  1.2706
 1222SOL    HW2 3807   3.033   0.962   0.656 -0.3060 -0.4869  0.8198
 1223SOL     OW 3808   1.720   1.872   1.251 -0.3137 -0.3140 -0.5530
 1223SOL    HW1 3809   1.742   1.934   1.182 -0.1853  0.2963  0.0264
 1223SOL    HW2 3810   1.730   1.786   1.210 -3.4181  0.0115 -2.2648
 1224SOL     OW 3811   3.035   3.215   2.656 -0.3168 -0.6197 -0.7007
 1224SOL    HW1 3812   3.081   3.298   2.675  0.3914 -0.9433 -0.9512
 1224SOL    HW2 3813   3.074   3.185   2.574  0.4477 -1.8952  0.0838
 1225SOL     OW 3814   2.317   0.540   3.268  0.3614 -0.2375 -0.6838
 1225SOL    HW1 3815   2.285   0.605   3.205  1.9723  0.6732 -0.6107
 1225SOL    HW2 3816   2.247   0.533   3.333 -0.1803  0.8207 -1.1229
 1226SOL     OW 3817   0.695   3.568   1.145 -0.1985  0.1289  0.5139
 1226SOL    HW1 3818   0.756   3.502   1.113 -2.4900 -0.7946 -2.3416
 1226SOL    HW2 3819   0.608   3.537   1.118 -1.6973  2.7326  1.8869
 1227SOL     OW 3820   0.193   2.671   1.221  0.7591  0.2948 -0.1626
 1227SOL    HW1 3821   0.179   2.727   1.297 -0.8948 -1.3647  0.8323
 1227SOL    HW2 3822   0.226   2.588   1.257 -1.0278 -0.8910 -1.0715
 1228SOL     OW 3823   1.115   0.540   0.968 -0.0808 -0.2031  0.6245
 1228SOL    HW1 3824   1.083   0.491   0.892  2.2508 -1.3785  0.3005
 1228SOL    HW2 3825   1.100   0.632   0.946  0.0570 -0.5479 -1.0435
 1229SOL     OW 3826   3.684   3.681   0.081  0.0639  0.1716  0.5955
 1229SOL    HW1 3827   3.780   3.670   0.083  0.2833  1.0105 -1.6082
 1229SOL    HW2 3828   3.662   3.713   0.168  1.9556  1.0330  0.8209
 1230SOL     OW 3829   0.755   2.144   2.553  0.3914 -0.1397 -0.7634
 1230SOL    HW1 3830   0.680   2.171   2.500  0.6247 -0.9059 -1.5039
 1230SOL    HW2 3831   0.818   2.216   2.544 -0.3442  0.6324  0.0845
 1231SOL     OW 3832   1.720   2.937   3.186 -0.4030 -0.2636 -0.4799
 1231SOL    HW1 3833   1.762   3.019   3.160  0.0488 -0.8058 -1.4872
 1231SOL    HW2 3834   1.788   2.871   3.173 -0.7351 -0.7959  0.4165
 1232SOL     OW 3835   1.425   2.737   0.786 -0.3240 -0.6009  0.0693
 1232SOL    HW1 3836   1.339   2.778   0.794 -0.0458 -0.0304  0.1297
 1232SOL    HW2 3837   1.425   2.697   0.699  0.0560  1.0339 -0.7012
 1233SOL     OW 3838   2.155   3.177   0.767  0.0382  0.0086  0.1545
 1233SOL    HW1 3839   2.081   3.145   0.818  0.9682 -0.4106  1.2735
 1233SOL    HW2 3840   2.123   3.256   0.725 -0.8787  0.1295  1.0478
 1234SOL     OW 3841   2.982   0.456   3.426  0.0902  0.6423 -0.2147
 1234SOL    HW1 3842   3.035   0.532   3.403  1.9126 -0.6004 -0.3308
 1234SOL    HW2 3843   3.037   0.381   3.405 -2.0002 -0.7722 -0.9869
 1235SOL     OW 3844   0.273   0.847   2.245  0.1863 -0.7779  0.0557
 1235SOL    HW1 3845   0.179   0.862   2.254  0.4885  0.5766  1.3451
 1235SOL    HW2 3846   0.285   0.819   2.154 -1.2423  0.9049 -0.7023
 1236SOL     OW 3847   2.952   1.296   1.909 -0.0943  0.1972 -0.3462
 1236SOL    HW1 3848   2.954   1.345   1.827 -2.9646 -1.4393 -1.5293
 1236SOL    HW2 3849   2.954   1.364   1.977  2.2207  1.5922 -1.6902
 1237SOL     OW 3850   1.594   1.946   3.611 -0.3075 -0.3514 -0.5845
 1237SOL    HW1 3851   1.503   1.930   3.633  0.3896 -1.9770  1.4530
 1237SOL    HW2 3852   1.637   1.861   3.622  1.5432  0.4698 -0.9731
 1238SOL     OW 3853   2.148   2.215   0.594  0.5181  0.0185  0.4644
 1238SOL    HW1 3854   2.080   2.282   0.603  1.2791  0.9738 -0.6099
 1238SOL    HW2 3855   2.227   2.264   0.573  1.1271 -1.2087 -0.2071
 1239SOL     OW 3856   3.232   0.151   1.207  0.2157 -0.2814 -0.1862
 1239SOL    HW1 3857   3.230   0.245   1.220  1.7282  0.0065 -1.7178
 1239SOL    HW2 3858   3.324   0.128   1.207  0.1081 -1.1888 -3.0532
 1240SOL     OW 3859   2.146   2.882   0.882  0.1470 -0.0227 -0.4292
 1240SOL    HW1 3860   2.227   2.832   0.875 -0.2050 -0.7267  0.3063
 1240SOL    HW2 3861   2.092   2.831   0.943  0.7447  2.4942  2.4737
 1241SOL     OW 3862   3.445   3.618   3.561  0.5927 -0.2018 -0.1362
 1241SOL    HW1 3863   3.536   3.648   3.567  0.8443 -1.1975  1.8854
 1241SOL    HW2 3864   3.443   3.539   3.615 -2.0570  1.2725  2.1512
 1242SOL     OW 3865   0.030   0.021   1.157 -0.2717  0.1956 -0.0514
 1242SOL    HW1 3866   0.114   0.043   1.197  0.9780 -0.8670 -1.9213
 1242SOL    HW2 3867   0.052  -0.000   1.066 -1.9861 -3.4867  0.2124
 1243SOL     OW 3868   0.274   3.016   3.190 -1.1025 -0.3141 -0.7132
 1243SOL    HW1 3869   0.254   2.941   3.246 -1.8714 -0.0827 -0.6656
 1243SOL    HW2 3870   0.268   3.092   3.248 -0.0616 -0.2348 -0.7000
 1244SOL     OW 3871   1.106   2.225   2.897 -0.0401  0.0357 -0.2407
 1244SOL    HW1 3872   1.034   2.242   2.958  0.3830  3.1824 -0.4892
 1244SOL    HW2 3873   1.184   2.220   2.952 -0.0714 -0.5365 -0.2403
 1245SOL     OW 3874   0.535   0.155   2.455  0.4404  0.3289  0.1094
 1245SOL    HW1 3875   0.545   0.134   2.363 -1.6824  0.2390 -0.1598
 1245SOL    HW2 3876   0.619   0.134   2.494  0.9130 -1.0725 -1.5479
 1246SOL     OW 3877   3.675   3.343   3.468 -0.0155 -0.3113  0.5978
 1246SOL    HW1 3878   3.641   3.297   3.544 -2.8361 -4.0965 -2.5405
 1246SOL    HW2 3879   3.608   3.332   3.400  1.9521  3.3489 -2.3710
 1247SOL     OW 3880   1.755   1.246   0.698 -0.5055  0.0490  0.0601
 1247SOL    HW1 3881   1.763   1.197   0.780  0.1879  1.9838  1.2282
 1247SOL    HW2 3882   1.844   1.251   0.664 -0.6813 -0.1051 -0.4269
 1248SOL     OW 3883   1.526   2.540   1.127 -0.2330 -0.0687  0.4314
 1248SOL    HW1 3884   1.517   2.447   1.146 -0.4703  0.0242  0.7852
 1248SOL    HW2 3885   1.515   2.583   1.212  0.2854  0.2554  0.3419
 1249SOL     OW 3886   1.551   0.296   0.113 -0.5721 -0.3310  0.3653
 1249SOL    HW1 3887   1.461   0.270   0.091 -0.8672  1.2798 -0.4657
 1249SOL    HW2 3888   1.599   0.285   0.031 -0.6245  1.2891  0.0904
 1250SOL     OW 3889   0.361   1.973   2.814 -0.6995  0.5364 -0.1640
 1250SOL    HW1 3890   0.375   2.051   2.760 -1.6657 -0.1831 -1.5046
 1250SOL    HW2 3891   0.338   2.008   2.900 -1.6596  1.7616 -0.8801
 1251SOL     OW 3892   2.072   0.299   3.257 -0.3634 -0.4186  0.4462
 1251SOL    HW1 3893   2.082   0.393   3.246 -0.5039 -0.5864 -1.4928
 1251SOL    HW2 3894   2.085   0.263   3.169  0.5921 -2.3010  1.2934
 1252SOL     OW 3895   1.236   2.758   2.362 -0.1193  0.0740 -0.1222
 1252SOL    HW1 3896   1.285   2.836   2.388  0.0254  0.2132 -0.8014
 1252SOL    HW2 3897   1.150   2.770   2.404 -0.3493  0.9658 -0.8015
 1253SOL     OW 3898   3.113   0.228   3.332  0.0832 -0.3302  0.4996
 1253SOL    HW1 3899   3.186   0.178   3.367  0.4544 -0.8264 -0.9218
 1253SOL    HW2 3900   3.044   0.163   3.319  0.5899 -0.5403 -1.4103
 1254SOL     OW 3901   2.191   0.973   1.768  0.2185 -0.0703 -0.6031
 1254SOL    HW1 3902   2.188   0.878   1.779  0.9553  0.2045  4.2007
 1254SOL    HW2 3903   2.282   0.991   1.743  0.7726 -0.5684  0.9376
 1255SOL     OW 3904   1.474   2.977   2.416 -0.2793  0.3974  0.3142
 1255SOL    HW1 3905   1.497   3.012   2.330 -3.7153  0.2737 -0.8252
 1255SOL    HW2 3906   1.546   2.919   2.439  2.8383  3.7055 -0.3778
 1256SOL     OW 3907   2.631   0.784   1.375  0.0788 -0.4387 -0.0636
 1256SOL    HW1 3908   2.595   0.696   1.381 -1.5710  0.2748  1.7284
 1256SOL    HW2 3909   2.705   0.784   1.436  0.6112 -0.8145 -0.7093
 1257SOL     OW 3910   2.255   3.335   1.551  0.1159 -0.0263 -0.0319
 1257SOL    HW1 3911   2.279   3.376   1.634 -1.1229  1.0992 -0.1850
 1257SOL    HW2 3912   2.180   3.279   1.573  1.1752 -1.4979 -0.0114
 1258SOL     OW 3913   1.643   0.249   3.191 -0.7998  0.3772 -0.1990
 1258SOL    HW1 3914   1.589   0.246   3.112 -0.3899  1.1727 -0.5193
 1258SOL    HW2 3915   1.657   0.157   3.213 -1.7170  0.1517 -0.4935
 1259SOL     OW 3916   1.304   3.362   0.965 -0.5957  0.1145  0.2911
 1259SOL    HW1 3917   1.280   3.439   0.914 -1.2173  0.6419  1.3564
 1259SOL    HW2 3918   1.238   3.296   0.943 -0.0119 -0.1729 -0.6893
 1260SOL     OW 3919   1.513   1.126   2.565  0.1716 -0.1563 -0.3145
 1260SOL    HW1 3920   1.543   1.146   2.654 -0.4810 -1.6674  0.2691
 1260SOL    HW2 3921   1.593   1.123   2.513  0.8166 -1.5080  0.6946
 1261SOL     OW 3922   1.364   1.165   2.983  0.1025  0.3831  0.4350
 1261SOL    HW1 3923   1.325   1.087   3.023  1.3498  0.3590  1.6581
 1261SOL    HW2 3924   1.316   1.238   3.019 -1.2226  0.2084 -0.8840
 1262SOL     OW 3925   0.321   3.410   3.545 -0.1131  0.2028 -0.5179
 1262SOL    HW1 3926   0.334   3.495   3.502  0.5171  0.2334 -0.2702
 1262SOL    HW2 3927   0.267   3.360   3.483 -2.5891  1.6204  0.3642
 1263SOL     OW 3928   2.745   1.201   0.823  0.1212 -0.8484  0.1129
 1263SOL    HW1 3929   2.694   1.145   0.764 -0.7207 -0.9876  0.9575
 1263SOL    HW2 3930   2.808   1.141   0.863 -1.5125 -1.5033  1.8739
 1264SOL     OW 3931   0.641   1.605   1.154 -0.7346 -0.0638 -0.2714
 1264SOL    HW1 3932   0.559   1.653   1.141 -0.3285  0.6255 -0.3257
 1264SOL    HW2 3933   0.637   1.574   1.244 -1.4738 -0.8430 -0.5658
 1265SOL     OW 3934   3.011   2.191   2.399 -0.0950  0.2039 -0.1762
 1265SOL    HW1 3935   3.070   2.120   2.376 -0.9115 -0.5029 -0.1518
 1265SOL    HW2 3936   2.985   2.171   2.489 -0.3310  0.5337 -0.1709
 1266SOL     OW 3937   2.835   2.561   0.085  0.0091  0.1497 -0.1696
 1266SOL    HW1 3938   2.860   2.647   0.117 -0.4560 -0.2791  1.4315
 1266SOL    HW2 3939   2.894   2.545   0.011 -1.1379  2.6096 -1.7707
 1267SOL     OW 3940   2.306   1.927   2.628  0.2378  0.1951  0.4519
 1267SOL    HW1 3941   2.344   1.849   2.669 -0.0290 -1.2779 -1.8906
 1267SOL    HW2 3942   2.354   1.935   2.546 -0.3881  1.9776  0.2355
 1268SOL     OW 3943   2.035   1.244   1.355 -0.2271  0.1778 -0.4639
 1268SOL    HW1 3944   1.952   1.277   1.320 -0.7312 -0.4249  0.1346
 1268SOL    HW2 3945   2.102   1.283   1.298 -0.7886  2.1267  0.1123
 1269SOL     OW 3946   3.615   2.600   0.434 -0.1108  0.1474 -0.1236
 1269SOL    HW1 3947   3.541   2.626   0.380 -0.8550 -0.0496  0.7621
 1269SOL    HW2 3948   3.691   2.605   0.376 -0.6233  1.6210 -0.7002
 1270SOL     OW 3949   3.281   3.591   1.789 -0.3125  0.8983 -0.7333
 1270SOL    HW1 3950   3.229   3.628   1.861 -0.4533  0.6939 -0.7294
 1270SOL    HW2 3951   3.358   3.648   1.784  0.0899  0.4410  0.1091
 1271SOL     OW 3952   2.995   1.867   1.973 -0.4165  0.4593  0.3444
 1271SOL    HW1 3953   3.088   1.861   1.996 -0.2687  0.3428 -0.2654
 1271SOL    HW2 3954   2.993   1.854   1.878 -1.0743  0.2800  0.3789
 1272SOL     OW 3955   1.790   1.010   1.261 -0.1874 -0.7111 -0.1762
 1272SOL    HW1 3956   1.697   0.997   1.282 -0.4319 -0.0536 -0.8013
 1272SOL    HW2 3957   1.836   0.953   1.322 -0.9602 -0.4153  0.7090
 1273SOL     OW 3958   1.873   1.294   1.606  1.1521  0.4401  0.4807
 1273SOL    HW1 3959   1.919   1.293   1.689  0.4970  3.5016  0.9872
 1273SOL    HW2 3960   1.940   1.310   1.540  2.0144 -3.9614 -0.0489
 1274SOL     OW 3961   2.071   3.531   1.386  0.7038 -0.6581  0.1761
 1274SOL    HW1 3962   2.043   3.440   1.379 -1.0506 -0.0401 -2.2021
 1274SOL    HW2 3963   2.147   3.537   1.328 -0.0458 -0.3500 -0.8046
 1275SOL     OW 3964   3.019   2.444   1.078  0.3371  0.3772 -0.6011
 1275SOL    HW1 3965   3.017   2.510   1.009 -0.6099 -0.2932 -1.2592
 1275SOL    HW2 3966   2.937   2.395   1.066  0.1761  0.1927  0.9620
 1276SOL     OW 3967   3.397   0.452   3.554  0.0667  0.2182 -0.3438
 1276SOL    HW1 3968   3.303   0.445   3.574  0.1263 -0.9357 -0.4191
 1276SOL    HW2 3969   3.406   0.412   3.468  0.3547  2.0491 -1.2126
 1277SOL     OW 3970   0.768   0.914   1.521 -0.4277 -0.2511 -0.2898
 1277SOL    HW1 3971   0.793   1.006   1.532 -0.1235 -0.2151 -1.1826
 1277SOL    HW2 3972   0.685   0.918   1.473  0.0229 -0.4465 -1.1111
 1278SOL     OW 3973   1.905   3.162   3.125  0.0305  0.4702 -0.4212
 1278SOL    HW1 3974   1.928   3.226   3.192 -0.6007 -1.6731  1.9671
 1278SOL    HW2 3975   1.986   3.112   3.111 -0.7757 -1.5902  1.7247
 1279SOL     OW 3976   3.590   1.048   0.951 -0.2985 -0.5981  0.2614
 1279SOL    HW1 3977   3.646   1.124   0.969  0.3007 -1.2914  1.4746
 1279SOL    HW2 3978   3.504   1.074   0.986 -0.7205  0.3785 -1.3996
 1280SOL     OW 3979   0.892   3.302   0.148  0.3990  0.1584 -0.3977
 1280SOL    HW1 3980   0.870   3.231   0.087 -0.0996  0.1328 -0.1889
 1280SOL    HW2 3981   0.808   3.329   0.185  0.5585  1.0159 -0.6372
 1281SOL     OW 3982   0.437   2.847   1.487  0.4485  0.3295 -0.2460
 1281SOL    HW1 3983   0.445   2.816   1.578  0.5028 -0.5068 -0.5228
 1281SOL    HW2 3984   0.501   2.794   1.439 -0.0969  0.2484 -0.8934
 1282SOL     OW 3985   3.203   3.381   2.993 -0.3502  0.5563  0.4479
 1282SOL    HW1 3986   3.120   3.354   2.954  0.6333 -1.1025 -0.6136
 1282SOL    HW2 3987   3.240   3.444   2.930 -0.5992  0.9909  0.7279
 1283SOL     OW 3988   1.128   2.004   1.728 -0.3055  0.1202  0.1673
 1283SOL    HW1 3989   1.080   1.966   1.802  0.4112  1.7808  1.5497
 1283SOL    HW2 3990   1.061   2.015   1.660 -0.7982 -2.2808  0.1702
 1284SOL     OW 3991   2.961   1.921   3.154 -0.6933 -0.1748 -0.2091
 1284SOL    HW1 3992   2.891   1.981   3.183 -0.9685  0.6212 -2.3683
 1284SOL    HW2 3993   3.021   1.918   3.228 -3.1448 -1.2025  1.9268
 1285SOL     OW 3994   0.263   0.938   1.394 -0.0378  0.0663  0.5867
 1285SOL    HW1 3995   0.357   0.945   1.379  0.0131 -0.8057  0.4117
 1285SOL    HW2 3996   0.253   0.949   1.489  0.0962  1.3731  0.4628
 1286SOL     OW 3997   0.503   3.637   1.855  0.2056 -0.0128 -0.8016
 1286SOL    HW1 3998   0.530   3.670   1.769  0.8780  0.0475 -0.5699
 1286SOL    HW2 3999   0.412   3.609   1.842  0.8720 -1.8213 -2.0661
 1287SOL     OW 4000   0.702   0.126   3.174 -0.2313 -0.3296 -0.5651
 1287SOL    HW1 4001   0.705   0.100   3.266 -0.7345 -0.8382 -0.6910
 1287SOL    HW2 4002   0.788   0.102   3.140  0.4488  1.0309  0.0685
 1288SOL     OW 4003   2.103   0.770   1.421  0.0156 -0.1718  0.2530
 1288SOL    HW1 4004   2.096   0.862   1.448  1.4318  0.2788 -0.7919
 1288SOL    HW2 4005   2.076   0.770   1.329 -0.1858 -0.8487  0.3071
 1289SOL     OW 4006   1.435   1.574   3.207 -0.4708 -0.2792  0.1151
 1289SOL    HW1 4007   1.526   1.547   3.194  0.0907  0.1847  2.6520
 1289SOL    HW2 4008   1.392   1.498   3.246 -0.5958  0.1996  0.9382
 1290SOL     OW 4009   0.888   3.062   3.042  0.1816  0.1016 -0.1093
 1290SOL    HW1 4010   0.797   3.036   3.058  0.7176 -0.7523  1.7910
 1290SOL    HW2 4011   0.905   3.035   2.952 -0.8482 -1.5745  0.1557
 1291SOL     OW 4012   2.106   0.312   1.117 -0.3163  0.5564 -0.8769
 1291SOL    HW1 4013   2.033   0.360   1.157  1.0197  1.6050  0.4052
 1291SOL    HW2 4014   2.171   0.379   1.098  2.6065 -0.7832  3.1019
 1292SOL     OW 4015   2.766   3.242   1.174 -0.3392  0.9832  0.5248
 1292SOL    HW1 4016   2.829   3.171   1.164  1.2119  2.1757  1.4442
 1292SOL    HW2 4017   2.681   3.200   1.161  0.5181 -1.0343  1.0572
 1293SOL     OW 4018   3.024   1.370   1.611 -0.5820  0.4044 -0.3269
 1293SOL    HW1 4019   3.073   1.341   1.534  2.1231 -0.7784  1.6584
 1293SOL    HW2 4020   3.052   1.461   1.623 -0.8951  0.5454 -0.6495
 1294SOL     OW 4021   2.818   0.574   1.039 -0.8152  0.7276 -0.0527
 1294SOL    HW1 4022   2.754   0.537   0.978 -0.7366  2.4975 -1.2830
 1294SOL    HW2 4023   2.864   0.640   0.988  0.4840  1.0387  1.4491
 1295SOL     OW 4024   0.053   1.466   3.134 -0.5748  0.4084 -0.2116
 1295SOL    HW1 4025   0.147   1.462   3.149 -0.7357  0.8848  1.0576
 1295SOL    HW2 4026   0.024   1.375   3.145 -0.3322  0.3412 -0.1114
 1296SOL     OW 4027   2.507   2.507   1.502  0.7712 -0.1435 -0.3628
 1296SOL    HW1 4028   2.467   2.466   1.425 -0.4946 -0.4139  0.4051
 1296SOL    HW2 4029   2.573   2.566   1.466  0.5632 -0.6483 -1.6289
 1297SOL     OW 4030   2.279   3.602   1.201 -0.2638 -0.7507 -0.3179
 1297SOL    HW1 4031   2.341   3.531   1.216  1.4186  0.6740 -0.1477
 1297SOL    HW2 4032   2.282   3.618   1.107  0.3214 -0.1207 -0.2043
 1298SOL     OW 4033   2.531   3.538   2.487  0.5524  0.1416  0.0643
 1298SOL    HW1 4034   2.624   3.525   2.470  0.7750  1.4154  0.2243
 1298SOL    HW2 4035   2.491   3.452   2.470  1.5440 -0.0658 -1.3774
 1299SOL     OW 4036   0.814   2.840   0.681 -0.3051  0.4403 -0.2877
 1299SOL    HW1 4037   0.850   2.765   0.633  0.3554  0.3362  0.3445
 1299SOL    HW2 4038   0.812   2.812   0.773 -3.4122 -0.0874 -0.4196
 1300SOL     OW 4039   3.416   2.515   0.778 -0.3931  0.5701 -0.1897
 1300SOL    HW1 4040   3.343   2.571   0.752 -2.0299 -1.0857  0.5400
 1300SOL    HW2 4041   3.455   2.486   0.695 -2.0428 -0.2845 -0.7229
 1301SOL     OW 4042   2.535   3.151   2.198  0.4274 -0.0823  0.0143
 1301SOL    HW1 4043   2.623   3.181   2.174  0.0608  1.3477  0.4035
 1301SOL    HW2 4044   2.484   3.158   2.117  0.0320  1.5768  0.3799
 1302SOL     OW 4045   2.556   1.711   0.557  0.5469 -0.2133 -0.0078
 1302SOL    HW1 4046   2.580   1.804   0.554  0.9366 -0.3375 -0.9208
 1302SOL    HW2 4047   2.463   1.710   0.533  0.6506 -0.0952 -0.4258
 1303SOL     OW 4048   0.299   0.721   2.568  0.4500 -0.1174 -0.6165
 1303SOL    HW1 4049   0.267   0.690   2.483  1.1896 -1.3415 -0.4691
 1303SOL    HW2 4050   0.394   0.724   2.558  0.5069  0.2246  0.0089
 1304SOL     OW 4051   3.595   2.280   3.145 -0.1893 -0.1515  0.3368
 1304SOL    HW1 4052   3.613   2.229   3.066 -0.1974  0.6728 -0.2081
 1304SOL    HW2 4053   3.535   2.225   3.196 -0.6203 -0.4526 -0.4865
 1305SOL     OW 4054   2.384   1.239   0.661  0.8958 -0.5462 -0.3817
 1305SOL    HW1 4055   2.310   1.220   0.604  1.4122 -0.8175 -0.9820
 1305SOL    HW2 4056   2.449   1.171   0.640  1.3111 -0.3180  0.1318
 1306SOL     OW 4057   2.641   0.197   1.898  0.1783  0.4331 -0.3221
 1306SOL    HW1 4058   2.653   0.134   1.968 -0.0983  0.0187 -0.6416
 1306SOL    HW2 4059   2.645   0.282   1.941  0.2637  0.1893  0.1557
 1307SOL     OW 4060   1.351   1.483   2.959 -0.4642 -0.0030 -0.1781
 1307SOL    HW1 4061   1.430   1.451   2.917 -0.0710  2.4524 -1.5107
 1307SOL    HW2 4062   1.382   1.517   3.044 -0.2883 -0.0129 -0.2376
 1308SOL     OW 4063   2.901   2.575   2.698 -0.0546 -0.3074 -0.1268
 1308SOL    HW1 4064   2.970   2.509   2.687 -0.6632 -1.2931  1.5851
 1308SOL    HW2 4065   2.907   2.601   2.790 -2.0682 -0.5529  0.1145
 1309SOL     OW 4066   0.161   2.850   1.423 -0.7860  0.1124  0.3669
 1309SOL    HW1 4067   0.254   2.849   1.443 -1.1862 -1.5252  2.4715
 1309SOL    HW2 4068   0.118   2.865   1.507 -2.4863 -2.3313  0.0278
 1310SOL     OW 4069   0.835   1.691   1.531 -0.2435  0.2882  0.3552
 1310SOL    HW1 4070   0.871   1.657   1.449 -1.4825  0.3356 -0.2332
 1310SOL    HW2 4071   0.787   1.769   1.505 -1.6785 -0.3750  0.9356
 1311SOL     OW 4072   1.355   3.625   0.819 -0.5649 -0.1960  0.1807
 1311SOL    HW1 4073   1.344   3.592   0.730  2.0054 -1.4896  0.2513
 1311SOL    HW2 4074   1.425   3.690   0.811 -0.6148 -0.0088  1.2056
 1312SOL     OW 4075   3.516   3.575   0.566 -0.2807 -0.6143 -0.0769
 1312SOL    HW1 4076   3.491   3.483   0.562 -0.1867 -0.6349 -0.1765
 1312SOL    HW2 4077   3.563   3.583   0.650 -1.5633 -0.3431  0.6429
 1313SOL     OW 4078   3.684   2.849   1.708  0.1721 -0.1825 -0.1625
 1313SOL    HW1 4079   3.764   2.814   1.746 -1.1823 -0.6798  2.5055
 1313SOL    HW2 4080   3.703   2.942   1.691  1.4300 -0.4097 -0.0327
 1314SOL     OW 4081   2.951   2.969   2.108  0.0814  0.5889 -0.2577
 1314SOL    HW1 4082   2.910   2.974   2.021 -0.7289 -0.9802 -0.0030
 1314SOL    HW2 4083   2.958   2.875   2.126  1.1307  0.8787  0.9726
 1315SOL     OW 4084   0.306   0.694   1.098 -0.4818  0.0069 -0.0022
 1315SOL    HW1 4085   0.286   0.610   1.057 -0.4800 -1.4432  2.7416
 1315SOL    HW2 4086   0.265   0.689   1.185 -0.5876  2.9161  0.2199
 1316SOL     OW 4087   2.718   1.762   0.880 -0.8685 -0.3414  0.2345
 1316SOL    HW1 4088   2.755   1.703   0.815  1.9795  0.1963  1.2166
 1316SOL    HW2 4089   2.737   1.720   0.964  1.8002  2.0758  0.9975
 1317SOL     OW 4090   1.318   0.145   0.051 -0.1079  0.0834  0.2762
 1317SOL    HW1 4091   1.259   0.071   0.064 -1.2333  1.0449  0.8687
 1317SOL    HW2 4092   1.345   0.138  -0.040  0.2671 -1.3668  0.4693
 1318SOL     OW 4093   2.506   0.194   3.320 -1.0312  0.0277 -0.5029
 1318SOL    HW1 4094   2.545   0.277   3.348  0.2926 -1.7239  3.5698
 1318SOL    HW2 4095   2.423   0.189   3.368 -0.3563 -1.6188  0.5767
 1319SOL     OW 4096   2.337   0.872   0.089 -0.3894 -0.5806  0.6099
 1319SOL    HW1 4097   2.404   0.900   0.152 -2.1649  1.2634  1.8192
 1319SOL    HW2 4098   2.301   0.792   0.127  0.0028 -0.6505  0.8397
 1320SOL     OW 4099   2.199   2.801   3.302  0.6016 -0.3008  0.4652
 1320SOL    HW1 4100   2.168   2.749   3.376 -2.6473 -1.7346 -1.6931
 1320SOL    HW2 4101   2.252   2.740   3.251 -1.9199 -1.2022 -1.2512
 1321SOL     OW 4102   0.927   2.465   2.992  0.6130  0.0780 -0.4723
 1321SOL    HW1 4103   0.961   2.433   2.909  0.7390 -0.1896 -0.3182
 1321SOL    HW2 4104   0.836   2.488   2.973  1.1280  1.7160 -1.1256
 1322SOL     OW 4105   0.693   0.517   1.580 -0.2650  0.5921 -0.3593
 1322SOL    HW1 4106   0.611   0.563   1.563 -0.2306  0.1152 -1.8862
 1322SOL    HW2 4107   0.716   0.476   1.497  1.3820  0.4769  0.1208
 1323SOL     OW 4108   1.732   2.377   2.071  0.0033 -0.0671 -0.4051
 1323SOL    HW1 4109   1.654   2.372   2.126 -0.0126  0.8272 -0.3253
 1323SOL    HW2 4110   1.712   2.321   1.996 -1.8780  2.1705 -1.7306
 1324SOL     OW 4111   0.904   3.399   1.037  0.3893  0.4505 -0.0819
 1324SOL    HW1 4112   0.901   3.318   0.985 -1.5995  0.3871  0.0688
 1324SOL    HW2 4113   0.978   3.387   1.096 -1.3377 -2.4189  1.7184
 1325SOL     OW 4114   0.811   0.703   2.096 -0.1647  0.1614  0.2726
 1325SOL    HW1 4115   0.880   0.762   2.128  0.4251  0.4288 -1.4094
 1325SOL    HW2 4116   0.859   0.630   2.058 -0.7342  0.6875 -1.5774
 1326SOL     OW 4117   2.923   3.695   0.045  0.0051 -0.6034  0.2664
 1326SOL    HW1 4118   3.000   3.692  -0.013 -1.4620  0.6486 -1.9309
 1326SOL    HW2 4119   2.929   3.781   0.087  0.5223 -1.0851  1.1940
 1327SOL     OW 4120   0.566   0.760   1.402  0.4401 -0.1660  0.7835
 1327SOL    HW1 4121   0.521   0.680   1.431  1.6102 -0.6433  1.3567
 1327SOL    HW2 4122   0.574   0.750   1.307 -1.0459  0.1472  0.6016
 1328SOL     OW 4123   3.537   0.991   0.043 -0.4401  0.0705  0.0795
 1328SOL    HW1 4124   3.471   1.029  -0.014  1.7482 -0.2455 -2.9135
 1328SOL    HW2 4125   3.577   1.067   0.086  0.7665  0.8544 -2.2604
 1329SOL     OW 4126   2.787   0.169   1.648 -0.1935  0.1780  0.4212
 1329SOL    HW1 4127   2.760   0.173   1.740 -0.8314 -0.0186  0.2469
 1329SOL    HW2 4128   2.705   0.174   1.599  0.2619  3.9350 -0.2619
 1330SOL     OW 4129   0.479   0.399   2.984 -0.1797  0.0554 -0.3668
 1330SOL    HW1 4130   0.534   0.364   2.915 -0.9986  0.0102 -1.0092
 1330SOL    HW2 4131   0.512   0.487   2.999  0.3294 -0.1161 -0.4418
 1331SOL     OW 4132   2.128   3.588   1.667 -0.0320 -0.6162 -0.3751
 1331SOL    HW1 4133   2.151   3.676   1.638  2.7963 -0.3427  2.2366
 1331SOL    HW2 4134   2.084   3.549   1.592  0.2033  2.4017 -2.2424
 1332SOL     OW 4135   0.178   2.301   3.563  0.2574  0.7442 -0.4436
 1332SOL    HW1 4136   0.235   2.225   3.555  0.2524  0.4514  1.8612
 1332SOL    HW2 4137   0.137   2.309   3.476  0.6010 -1.5825 -0.8821
 1333SOL     OW 4138   1.261   0.074   2.756 -0.3272  0.0160  0.5110
 1333SOL    HW1 4139   1.284   0.130   2.682 -0.1408  1.1737  1.4048
 1333SOL    HW2 4140   1.316  -0.003   2.746  0.2779  0.5164 -0.1298
 1334SOL     OW 4141   1.782   2.128   0.354  0.3513  0.4688 -1.1914
 1334SOL    HW1 4142   1.701   2.092   0.389  0.9111  0.2212 -0.0949
 1334SOL    HW2 4143   1.765   2.141   0.260 -1.5078  2.0762 -0.6766
 1335SOL     OW 4144   0.130   0.959   0.165 -0.0478  0.2275  0.0499
 1335SOL    HW1 4145   0.067   0.921   0.103 -2.4963  1.6789  1.4892
 1335SOL    HW2 4146   0.175   1.027   0.114 -1.3571  0.7831 -0.4105
 1336SOL     OW 4147   1.107   3.187   0.892 -0.1098 -0.6211 -0.3720
 1336SOL    HW1 4148   1.111   3.178   0.796  1.1298 -3.2784 -0.1679
 1336SOL    HW2 4149   1.015   3.173   0.914 -0.2215 -1.1526 -1.1297
 1337SOL     OW 4150   2.347   0.004   1.876  0.2322  0.3992  0.4337
 1337SOL    HW1 4151   2.424   0.038   1.831  0.3357 -1.7860 -1.1705
 1337SOL    HW2 4152   2.274   0.024   1.817 -0.4226  1.9507  1.6834
 1338SOL     OW 4153   2.541   2.453   3.276  0.2366  0.1977 -0.4716
 1338SOL    HW1 4154   2.505   2.431   3.362  1.4923  1.6882  0.5000
 1338SOL    HW2 4155   2.464   2.468   3.221 -0.5973 -0.3822  0.4998
 1339SOL     OW 4156   0.635   1.966   0.234  0.3557 -0.7192  0.3746
 1339SOL    HW1 4157   0.582   1.892   0.264 -0.5604 -1.2419 -2.2897
 1339SOL    HW2 4158   0.573   2.027   0.194  1.3664  0.4158  0.4590
 1340SOL     OW 4159   2.301   1.095   3.657  0.2199  0.0480 -0.2567
 1340SOL    HW1 4160   2.294   1.028   3.725  0.8980  1.2822  1.0769
 1340SOL    HW2 4161   2.217   1.141   3.660 -0.1579 -0.5797 -1.0122
 1341SOL     OW 4162   1.207   2.928   0.835  0.0200  0.1593  0.2143
 1341SOL    HW1 4163   1.134   2.988   0.845  0.1820  0.3830  0.0408
 1341SOL    HW2 4164   1.243   2.947   0.748  1.7722  1.7088  1.2147
 1342SOL     OW 4165   2.854   0.123   1.076 -0.0145 -0.5799 -0.7866
 1342SOL    HW1 4166   2.848   0.028   1.065  1.9525 -0.8238 -0.1501
 1342SOL    HW2 4167   2.861   0.135   1.171 -1.3614  0.3202 -0.7697
 1343SOL     OW 4168   2.756   2.401   2.036 -0.6752  0.2456 -0.3896
 1343SOL    HW1 4169   2.770   2.399   1.941  1.2444 -1.6812 -0.1434
 1343SOL    HW2 4170   2.707   2.322   2.055  0.1935 -0.1329  0.3572
 1344SOL     OW 4171   0.900   0.336   3.063  0.0939 -0.0378  0.1777
 1344SOL    HW1 4172   0.866   0.270   3.123  0.5892 -0.3873  0.0741
 1344SOL    HW2 4173   0.959   0.288   3.005  0.1882  0.4315 -0.1192
 1345SOL     OW 4174   2.573   1.431   0.803  1.1325 -0.5712  0.0539
 1345SOL    HW1 4175   2.640   1.370   0.833 -1.7493 -3.0350  2.1182
 1345SOL    HW2 4176   2.506   1.376   0.763  0.3075  1.7598 -2.0318
 1346SOL     OW 4177   1.247   0.988   2.285  0.2712  0.1106  0.2359
 1346SOL    HW1 4178   1.213   0.921   2.226 -0.4265  1.4277 -0.9328
 1346SOL    HW2 4179   1.171   1.041   2.307  0.8599  0.7141  0.8779
 1347SOL     OW 4180   0.774   2.459   1.753 -0.0825  0.4348 -0.3738
 1347SOL    HW1 4181   0.808   2.370   1.739 -1.5590 -0.0790 -0.8181
 1347SOL    HW2 4182   0.842   2.516   1.718  0.3552 -0.5659 -1.2095
 1348SOL     OW 4183   1.962   0.514   1.905  0.1070 -0.1057  0.5261
 1348SOL    HW1 4184   1.996   0.524   1.993 -1.6032  1.5022  1.0732
 1348SOL    HW2 4185   1.877   0.558   1.907  0.9148  1.8593 -2.4769
 1349SOL     OW 4186   2.115   1.715   0.238 -0.7976 -0.5424 -0.3975
 1349SOL    HW1 4187   2.199   1.714   0.192 -1.6995 -1.0488 -2.1473
 1349SOL    HW2 4188   2.080   1.627   0.224 -1.5701 -0.3719  0.4148
 1350SOL     OW 4189   1.192   2.815   0.481  0.1919 -0.1591  0.9363
 1350SOL    HW1 4190   1.146   2.860   0.411  1.2220 -1.1183 -0.4035
 1350SOL    HW2 4191   1.271   2.869   0.496  1.7444 -1.7366 -1.0981
 1351SOL     OW 4192   0.257   2.354   0.671  0.1299  0.0090 -0.1279
 1351SOL    HW1 4193   0.163   2.369   0.668  0.3242  1.1280 -1.2432
 1351SOL    HW2 4194   0.266   2.261   0.693 -1.2459 -0.4497 -1.3578
 1352SOL     OW 4195   0.796   1.899   1.847  0.6672  0.1314  0.7999
 1352SOL    HW1 4196   0.821   1.991   1.859  0.6255 -0.0751  2.8315
 1352SOL    HW2 4197   0.813   1.858   1.931 -2.8327 -0.8877  1.1816
 1353SOL     OW 4198   1.599   0.300   2.628 -0.0340  0.3909  0.6071
 1353SOL    HW1 4199   1.600   0.286   2.723 -1.2272 -2.1557  0.3315
 1353SOL    HW2 4200   1.689   0.281   2.601  0.7695  2.8273  1.3604
 1354SOL     OW 4201   0.435   1.805   0.941 -0.1193  0.0141 -0.2026
 1354SOL    HW1 4202   0.356   1.778   0.988 -0.4078  0.9703 -0.1136
 1354SOL    HW2 4203   0.443   1.743   0.869 -0.1585 -0.9500  0.5996
 1355SOL     OW 4204   3.463   0.935   2.054 -0.1611  0.3164 -0.1869
 1355SOL    HW1 4205   3.470   0.840   2.046  2.9233  0.2148  1.8081
 1355SOL    HW2 4206   3.393   0.948   2.118 -1.2757 -0.5102 -1.1931
 1356SOL     OW 4207   3.420   0.765   0.968 -0.4086 -0.0312  0.2718
 1356SOL    HW1 4208   3.485   0.749   0.900 -0.2942 -0.6857  0.5325
 1356SOL    HW2 4209   3.339   0.782   0.919 -0.1814  0.1730 -0.0405
 1357SOL     OW 4210   1.002   1.465   0.300 -0.1620  0.4938 -0.7944
 1357SOL    HW1 4211   0.958   1.542   0.335  2.6082  1.4421  0.9725
 1357SOL    HW2 4212   0.936   1.396   0.300 -1.9519  2.1382  0.3187
 1358SOL     OW 4213   0.858   2.252   0.567 -0.2849 -0.1718  0.4659
 1358SOL    HW1 4214   0.849   2.230   0.659 -1.4519  0.0099  0.4040
 1358SOL    HW2 4215   0.790   2.202   0.523 -0.0981  0.1720 -0.2273
 1359SOL     OW 4216   0.115   0.713   1.312  0.4094  0.1751  0.7279
 1359SOL    HW1 4217   0.146   0.801   1.335 -0.5502  0.2486  1.8288
 1359SOL    HW2 4218   0.032   0.728   1.267  0.0314 -0.1861  1.2971
 1360SOL     OW 4219   2.959   1.580   1.238 -0.1718  0.0307 -0.0328
 1360SOL    HW1 4220   2.966   1.675   1.239 -0.0158  0.0173  0.3675
 1360SOL    HW2 4221   3.032   1.550   1.293  1.1758 -0.4119 -1.9571
 1361SOL     OW 4222   1.757   1.145   3.059  0.0781  0.1244  0.5049
 1361SOL    HW1 4223   1.828   1.202   3.032  0.5102 -0.4911  0.3380
 1361SOL    HW2 4224   1.704   1.133   2.980 -0.7072  1.2669  0.8256
 1362SOL     OW 4225   3.042   1.046   2.003  0.3926  0.2100  0.0913
 1362SOL    HW1 4226   3.003   1.130   1.981 -0.9326 -0.1037  1.1071
 1362SOL    HW2 4227   3.128   1.048   1.961  0.2340  1.8993 -0.2363
 1363SOL     OW 4228   1.071   0.956   0.372  0.1864 -0.1447  0.5204
 1363SOL    HW1 4229   1.095   1.030   0.429  0.7709 -0.5437  0.8125
 1363SOL    HW2 4230   1.154   0.930   0.331 -0.4923  1.2760 -1.9430
 1364SOL     OW 4231   3.428   2.322   1.002  0.0301  0.6798 -0.3229
 1364SOL    HW1 4232   3.417   2.360   0.915  1.7528  1.0656 -0.4095
 1364SOL    HW2 4233   3.423   2.396   1.062  0.6656  0.6876 -0.2668
 1365SOL     OW 4234   3.321   1.048   1.069  0.4316 -0.0421  0.1892
 1365SOL    HW1 4235   3.289   0.964   1.035  1.3768 -0.0218 -0.8272
 1365SOL    HW2 4236   3.251   1.080   1.124 -0.8848 -0.4622 -1.1711
 1366SOL     OW 4237   2.466   2.241   0.514  0.1686 -0.9395 -0.1491
 1366SOL    HW1 4238   2.521   2.289   0.452  1.9880 -2.7106 -0.0119
 1366SOL    HW2 4239   2.465   2.297   0.592 -1.7251  1.0650 -1.4962
 1367SOL     OW 4240   1.535   0.842   2.217 -0.2705  0.4815  0.8359
 1367SOL    HW1 4241   1.625   0.869   2.198 -0.0251 -0.7413  0.1334
 1367SOL    HW2 4242   1.482   0.917   2.190  0.4847  0.9211  0.5168
 1368SOL     OW 4243   1.990   3.133   0.339  0.1200  0.2227 -0.0593
 1368SOL    HW1 4244   1.897   3.150   0.354 -0.1058 -0.5091 -0.6141
 1368SOL    HW2 4245   2.019   3.091   0.420 -0.1491 -0.0086 -0.0812
 1369SOL     OW 4246   2.410   0.932   1.344  0.7514 -0.2287 -0.0980
 1369SOL    HW1 4247   2.367   0.875   1.281 -1.1416 -0.8992  1.6979
 1369SOL    HW2 4248   2.492   0.888   1.364 -0.8354 -2.6776  1.5531
 1370SOL     OW 4249   1.816   0.637   3.327  0.4862 -0.1700 -0.7463
 1370SOL    HW1 4250   1.727   0.668   3.313  0.4601  0.8798  1.3159
 1370SOL    HW2 4251   1.829   0.642   3.422  2.8656  0.1348 -1.0120
 1371SOL     OW 4252   0.431   1.930   0.594  0.1571 -0.4215  0.0435
 1371SOL    HW1 4253   0.353   1.878   0.611 -0.7079  0.9586  0.4903
 1371SOL    HW2 4254   0.412   2.015   0.633  2.0305 -0.1530  0.4670
 1372SOL     OW 4255   0.623   3.161   2.286  0.2770  0.3678  0.8477
 1372SOL    HW1 4256   0.558   3.112   2.234  0.1764  0.1364  1.1861
 1372SOL    HW2 4257   0.681   3.200   2.220  0.2590 -0.0701  0.5632
 1373SOL     OW 4258   3.282   1.512   0.145  0.0169  0.1798 -0.2181
 1373SOL    HW1 4259   3.355   1.557   0.102  0.6491 -0.2517  0.3701
 1373SOL    HW2 4260   3.251   1.450   0.080  0.5011  0.0243 -0.3089
 1374SOL     OW 4261   1.975   3.733   2.979 -0.1094  0.4829  0.1609
 1374SOL    HW1 4262   2.054   3.787   2.977 -0.0965  0.4386 -0.7330
 1374SOL    HW2 4263   2.000   3.655   3.028  0.5151  0.2866 -0.4705
 1375SOL     OW 4264   1.049   1.887   2.664  0.2933 -0.3705 -0.3284
 1375SOL    HW1 4265   1.136   1.888   2.701  0.1120  0.5381  0.1126
 1375SOL    HW2 4266   1.034   1.796   2.639  1.6880 -0.3904 -1.1951
 1376SOL     OW 4267   2.369   3.682   2.122  0.1874 -0.3110 -0.2429
 1376SOL    HW1 4268   2.421   3.758   2.148 -0.5727  0.4042 -0.7692
 1376SOL    HW2 4269   2.342   3.702   2.032  1.0367 -1.7904 -0.8674
 1377SOL     OW 4270   1.523   0.673   3.279 -0.2666  0.2993 -0.0882
 1377SOL    HW1 4271   1.535   0.767   3.287  0.2587  0.4164 -1.9095
 1377SOL    HW2 4272   1.462   0.650   3.350  3.5787  1.1185  3.8841
 1378SOL     OW 4273   0.668   1.582   1.727 -0.0368  0.4000 -0.0037
 1378SOL    HW1 4274   0.607   1.599   1.654 -0.2827 -1.4717 -0.2899
 1378SOL    HW2 4275   0.747   1.630   1.704  0.1455 -0.7120 -1.9190
 1379SOL     OW 4276   2.037   2.468   0.600 -0.3103  0.5088 -0.5253
 1379SOL    HW1 4277   2.018   2.561   0.610  1.8520  1.2702 -2.6628
 1379SOL    HW2 4278   1.977   2.438   0.532 -0.3652  0.5546 -0.4970
 1380SOL     OW 4279   2.484   0.993   1.952  0.5703  0.7898 -0.4270
 1380SOL    HW1 4280   2.564   1.033   1.918  1.6080 -1.5684 -0.9655
 1380SOL    HW2 4281   2.491   0.900   1.927 -2.5691  0.5866 -0.9167
 1381SOL     OW 4282   1.617   3.303   2.948 -0.1403  0.1388  0.0296
 1381SOL    HW1 4283   1.705   3.316   2.914 -0.2666  2.2759  0.3578
 1381SOL    HW2 4284   1.629   3.292   3.042 -0.1128 -1.3651 -0.1364
 1382SOL     OW 4285   0.156   3.082   2.164  0.8954 -0.8591  0.0168
 1382SOL    HW1 4286   0.249   3.084   2.141  1.3670  1.5715  1.7786
 1382SOL    HW2 4287   0.154   3.043   2.251  0.4991  0.4951  0.6462
 1383SOL     OW 4288   2.633   2.438   1.176 -0.0881  0.4524 -0.3848
 1383SOL    HW1 4289   2.543   2.406   1.185  0.3820 -0.8241  0.0741
 1383SOL    HW2 4290   2.681   2.363   1.142  1.6882 -0.4946  3.6357
 1384SOL     OW 4291   1.292   1.974   2.160 -0.0203  0.5564  0.3171
 1384SOL    HW1 4292   1.284   1.986   2.066 -1.8845  0.5214  0.4409
 1384SOL    HW2 4293   1.245   1.893   2.178  0.0381  0.7318  1.3120
 1385SOL     OW 4294   2.800   3.052   2.749  0.5404 -0.2464  0.1614
 1385SOL    HW1 4295   2.870   3.112   2.725  0.0524 -0.2799 -1.4975
 1385SOL    HW2 4296   2.776   3.009   2.666 -0.6920 -1.0130  0.8862
 1386SOL     OW 4297   2.884   0.127   1.349 -0.0925 -0.5715  0.5282
 1386SOL    HW1 4298   2.918   0.216   1.356 -0.8268 -0.1874 -0.5643
 1386SOL    HW2 4299   2.843   0.110   1.434 -0.3219  0.2907  0.5930
 1387SOL     OW 4300   2.926   2.907   1.847  0.4075 -0.6289  0.3474
 1387SOL    HW1 4301   3.019   2.897   1.827  0.0629 -3.2038 -0.4104
 1387SOL    HW2 4302   2.883   2.906   1.761 -0.2358  4.9089  0.2365
 1388SOL     OW 4303   1.290   2.298   3.665 -0.1209 -0.2024 -0.2413
 1388SOL    HW1 4304   1.304   2.348   3.584  3.1025  0.2070  0.4345
 1388SOL    HW2 4305   1.294   2.206   3.637 -4.3784 -0.2926 -1.2220
 1389SOL     OW 4306   3.150   3.631   0.385 -0.7832  0.5593 -0.2690
 1389SOL    HW1 4307   3.069   3.678   0.403 -1.4283 -1.3541  2.4495
 1389SOL    HW2 4308   3.125   3.566   0.318 -1.3033  0.4694  0.0098
 1390SOL     OW 4309   3.135   3.445   1.124  0.1123  0.2375  0.0841
 1390SOL    HW1 4310   3.138   3.502   1.201  1.4138  1.5934 -0.9292
 1390SOL    HW2 4311   3.199   3.482   1.063 -0.4007 -1.1888 -1.4064
 1391SOL     OW 4312   0.393   3.354   1.327  0.2042 -0.3602 -0.1375
 1391SOL    HW1 4313   0.436   3.369   1.243 -0.0661 -0.9042 -0.3796
 1391SOL    HW2 4314   0.385   3.441   1.366  1.8669 -0.2753  0.1003
 1392SOL     OW 4315   3.235   3.753   1.541 -0.4593 -0.0384 -0.1319
 1392SOL    HW1 4316   3.189   3.704   1.473  0.5568  0.8479 -1.5154
 1392SOL    HW2 4317   3.256   3.688   1.608 -2.5909 -0.6856 -0.0296
 1393SOL     OW 4318   0.745   0.798   2.888 -0.6129 -0.0826 -0.2556
 1393SOL    HW1 4319   0.828   0.752   2.879 -0.8003 -0.5635  0.4219
 1393SOL    HW2 4320   0.755   0.878   2.835 -0.2070 -0.7864 -1.2706
 1394SOL     OW 4321   3.614   1.406   1.093 -0.1489  0.5733  0.4887
 1394SOL    HW1 4322   3.620   1.498   1.119 -0.7063  0.7457  0.0348
 1394SOL    HW2 4323   3.598   1.409   0.999  0.4451 -0.0072  0.3601
 1395SOL     OW 4324   2.262   3.373   3.594  0.3771  0.8913  0.0332
 1395SOL    HW1 4325   2.318   3.439   3.636  0.3475  1.2233 -0.4447
 1395SOL    HW2 4326   2.188   3.364   3.653  1.1374  0.1118  0.9126
 1396SOL     OW 4327   2.704   2.044   0.900 -0.3825  0.0123 -0.4168
 1396SOL    HW1 4328   2.701   2.085   0.814 -1.0359  1.2663  0.1767
 1396SOL    HW2 4329   2.721   1.951   0.882  0.8753  0.4801 -1.8112
 1397SOL     OW 4330   1.330   0.950   0.275  0.0242 -0.4407 -0.0293
 1397SOL    HW1 4331   1.378   0.872   0.304  0.3094 -0.1964  0.1567
 1397SOL    HW2 4332   1.387   0.991   0.211  0.4198  0.2723  0.7575
 1398SOL     OW 4333   2.246   3.305   0.436 -0.0367 -0.2062 -0.0250
 1398SOL    HW1 4334   2.311   3.242   0.468 -1.0972 -1.1352  0.3808
 1398SOL    HW2 4335   2.176   3.251   0.401 -0.3398  0.7838 -1.0134
 1399SOL     OW 4336   0.491   2.473   3.364  0.0912 -0.2567  0.2925
 1399SOL    HW1 4337   0.464   2.381   3.356  2.0589 -1.0243  1.6748
 1399SOL    HW2 4338   0.515   2.500   3.276  0.4724 -1.4028  0.0381
 1400SOL     OW 4339   1.296   1.603   0.281  0.5198 -0.1548  0.0207
 1400SOL    HW1 4340   1.238   1.640   0.348  1.4061  1.6963 -0.1709
 1400SOL    HW2 4341   1.262   1.515   0.267 -0.5520 -0.1013  1.8815
 1401SOL     OW 4342   2.762   1.556   0.666 -0.0209 -0.9052 -0.0032
 1401SOL    HW1 4343   2.724   1.616   0.602  0.6504 -1.8838 -1.3468
 1401SOL    HW2 4344   2.687   1.528   0.719 -1.0146 -1.7473 -1.7421
 1402SOL     OW 4345   0.830   0.505   0.653 -0.4158 -0.0471  0.2311
 1402SOL    HW1 4346   0.810   0.549   0.736  0.8871 -1.1446  1.1716
 1402SOL    HW2 4347   0.831   0.576   0.588  0.3825  1.1433  1.4806
 1403SOL     OW 4348   0.725   2.940   3.548 -0.2591 -0.5956 -0.4662
 1403SOL    HW1 4349   0.681   2.925   3.465 -1.1152 -1.2938  0.1064
 1403SOL    HW2 4350   0.683   2.881   3.610  0.2926 -0.0145  0.5004
 1404SOL     OW 4351   1.051   1.205   2.272  0.5199 -0.1089 -0.5790
 1404SOL    HW1 4352   1.092   1.212   2.186 -0.1600 -0.9073 -0.9835
 1404SOL    HW2 4353   0.958   1.220   2.256  0.2784 -1.0171 -0.1099
 1405SOL     OW 4354   0.184   3.436   0.750  0.1824 -0.2421 -0.1397
 1405SOL    HW1 4355   0.153   3.405   0.836 -1.5366 -0.7240 -0.8802
 1405SOL    HW2 4356   0.142   3.377   0.687  0.7403  0.6183 -1.3481
 1406SOL     OW 4357   3.660   0.458   2.204  0.2826  0.3204  0.3927
 1406SOL    HW1 4358   3.619   0.411   2.132 -3.2252 -1.5524  3.2977
 1406SOL    HW2 4359   3.692   0.390   2.263  1.3028  1.7320  1.5490
 1407SOL     OW 4360   0.193   2.579   3.186  0.1745 -0.5791 -0.6663
 1407SOL    HW1 4361   0.249   2.574   3.109 -0.4747  2.2491 -1.4456
 1407SOL    HW2 4362   0.106   2.554   3.155  0.5012 -2.7134  0.0033
 1408SOL     OW 4363   3.034   3.420   1.811 -0.1259 -0.3792 -0.1006
 1408SOL    HW1 4364   3.008   3.507   1.782  2.2489 -0.0572 -1.5312
 1408SOL    HW2 4365   3.129   3.419   1.801 -0.1490 -3.4634 -1.1301
 1409SOL     OW 4366   2.836   0.917   2.702  0.1425  0.4388  0.4171
 1409SOL    HW1 4367   2.812   1.010   2.711 -1.0008  0.0248  2.2239
 1409SOL    HW2 4368   2.760   0.877   2.660 -0.4439 -0.0659  1.8852
 1410SOL     OW 4369   1.222   2.250   1.939  0.3184 -0.1755  0.4949
 1410SOL    HW1 4370   1.203   2.235   2.031 -0.1342 -0.2557  0.3895
 1410SOL    HW2 4371   1.252   2.165   1.906 -0.4865 -0.4104  0.3347
 1411SOL     OW 4372   2.559   2.677   2.923  0.1687  0.1798  0.1937
 1411SOL    HW1 4373   2.584   2.611   2.857  0.2235  1.7144 -1.4056
 1411SOL    HW2 4374   2.516   2.627   2.992  1.3726 -1.6866 -0.3250
 1412SOL     OW 4375   1.444   1.538   2.088 -0.1906 -0.3399 -0.6934
 1412SOL    HW1 4376   1.476   1.596   2.157 -0.3131  0.6608 -1.4579
 1412SOL    HW2 4377   1.437   1.594   2.011  0.3303 -1.5242 -1.6324
 1413SOL     OW 4378   2.458   3.109   3.199 -0.7683  0.5840  0.2710
 1413SOL    HW1 4379   2.465   3.072   3.287  3.5964  0.7115  0.2058
 1413SOL    HW2 4380   2.428   3.198   3.213  0.3178  0.7597  1.7461
 1414SOL     OW 4381   3.437   3.687   1.051  0.4993 -0.4982  0.2059
 1414SOL    HW1 4382   3.385   3.694   1.132 -1.3972 -2.1307 -0.7756
 1414SOL    HW2 4383   3.524   3.660   1.081  1.0751  2.7351  1.9523
 1415SOL     OW 4384   0.281   3.132   0.592  0.7211  0.0258 -0.1467
 1415SOL    HW1 4385   0.216   3.202   0.589 -0.3711 -0.9360  0.3593
 1415SOL    HW2 4386   0.358   3.169   0.548 -0.7072  0.6033 -2.3053
 1416SOL     OW 4387   2.107   2.566   2.826  0.2310  0.5988 -0.4571
 1416SOL    HW1 4388   2.179   2.508   2.852 -2.0212 -2.0458  0.4373
 1416SOL    HW2 4389   2.067   2.522   2.751  0.3272  2.7692 -1.8621
 1417SOL     OW 4390   0.835   0.752   3.653  0.1940 -0.0445  1.2118
 1417SOL    HW1 4391   0.910   0.804   3.625 -0.9409  0.0707 -2.0079
 1417SOL    HW2 4392   0.773   0.816   3.686 -0.1206  0.3917 -0.1595
 1418SOL     OW 4393   0.472   3.272   0.056 -0.3394  0.0327 -0.1753
 1418SOL    HW1 4394   0.444   3.183   0.035  0.0083  0.0771 -0.8416
 1418SOL    HW2 4395   0.442   3.325  -0.017  0.2136  0.3205 -0.1972
 1419SOL     OW 4396   0.850   1.805   2.112 -0.2658 -0.2836 -0.1164
 1419SOL    HW1 4397   0.815   1.738   2.171  2.8671 -0.8176  1.3554
 1419SOL    HW2 4398   0.829   1.888   2.155  2.4690 -0.6775  2.2605
 1420SOL     OW 4399   3.215   2.784   1.062 -0.1118 -0.5132  0.1794
 1420SOL    HW1 4400   3.273   2.848   1.020 -0.7913  0.1127  0.1810
 1420SOL    HW2 4401   3.269   2.705   1.069  1.4390  0.6068  1.9913
 1421SOL     OW 4402   2.200   1.384   0.039 -0.2921 -0.3582 -0.1547
 1421SOL    HW1 4403   2.247   1.328   0.101 -0.7133 -0.4333  0.1021
 1421SOL    HW2 4404   2.244   1.469   0.045 -0.0710 -0.4783 -0.0582
 1422SOL     OW 4405   2.315   2.996   0.130 -0.4567 -0.0387 -0.4629
 1422SOL    HW1 4406   2.353   3.000   0.042 -2.1294  2.4009 -1.2123
 1422SOL    HW2 4407   2.221   2.983   0.115 -0.8953  1.2497  0.8734
 1423SOL     OW 4408   3.165   2.994   0.780  0.4034  0.1637 -0.6201
 1423SOL    HW1 4409   3.074   3.020   0.773  0.4864  0.3827 -0.8942
 1423SOL    HW2 4410   3.203   3.055   0.844  1.0023  1.8556 -2.4804
 1424SOL     OW 4411   2.878   3.679   0.461  0.4646 -0.2821 -0.4077
 1424SOL    HW1 4412   2.887   3.747   0.527 -0.8867  0.9804 -1.4589
 1424SOL    HW2 4413   2.799   3.702   0.412 -0.7992 -3.2774 -0.0549
 1425SOL     OW 4414   0.923   0.467   2.330  0.1237 -0.2591  0.4726
 1425SOL    HW1 4415   0.889   0.469   2.240  0.4721 -2.8281  0.2017
 1425SOL    HW2 4416   1.003   0.519   2.326 -1.4528  2.3413  0.1316
 1426SOL     OW 4417   0.550   2.818   0.832 -0.6785 -0.0932  0.2083
 1426SOL    HW1 4418   0.518   2.728   0.843 -1.9153  0.2855 -0.1390
 1426SOL    HW2 4419   0.637   2.817   0.872 -0.8034 -1.3633  0.5059
 1427SOL     OW 4420   2.195   3.390   2.896  0.7605 -0.4425 -0.6114
 1427SOL    HW1 4421   2.143   3.411   2.819  0.4072 -1.4601 -0.6672
 1427SOL    HW2 4422   2.195   3.294   2.900  0.2520 -0.4058  1.0071
 1428SOL     OW 4423   0.116   3.617   0.547 -0.2775  0.1056  0.5685
 1428SOL    HW1 4424   0.128   3.565   0.468 -0.5023  0.0320  0.5833
 1428SOL    HW2 4425   0.121   3.554   0.619 -2.0811 -0.1469  0.5197
 1429SOL     OW 4426   0.597   0.701   0.406  0.7851 -0.1470  0.0421
 1429SOL    HW1 4427   0.541   0.768   0.368  0.2588 -1.0791 -0.8698
 1429SOL    HW2 4428   0.617   0.642   0.333  0.1644 -1.7111  1.0754
 1430SOL     OW 4429   1.810   0.985   2.768 -0.4691  0.0063 -0.5644
 1430SOL    HW1 4430   1.766   1.069   2.773 -0.6845 -0.1202 -0.3343
 1430SOL    HW2 4431   1.752   0.930   2.714  0.1355  0.2918 -1.5414
 1431SOL     OW 4432   3.011   2.162   1.639 -0.1947  0.0231 -0.1492
 1431SOL    HW1 4433   3.013   2.133   1.548 -0.2860 -0.8480  0.1225
 1431SOL    HW2 4434   3.097   2.202   1.653 -0.0991 -0.0405 -0.5484
 1432SOL     OW 4435   1.480   1.756   2.226 -0.3316 -0.0305 -0.1978
 1432SOL    HW1 4436   1.405   1.815   2.232  0.3027  0.7016  0.7630
 1432SOL    HW2 4437   1.537   1.781   2.298 -0.1971 -2.0467  0.4819
 1433SOL     OW 4438   3.276   2.967   3.018  0.1153 -0.3817  0.0554
 1433SOL    HW1 4439   3.239   3.022   3.087  0.3606  1.8386 -1.4868
 1433SOL    HW2 4440   3.368   2.957   3.043 -0.2170 -1.2288  1.0089
 1434SOL     OW 4441   1.466   1.893   0.309  0.3719 -0.2432  0.3338
 1434SOL    HW1 4442   1.454   1.833   0.235 -0.4818 -1.0954  1.1346
 1434SOL    HW2 4443   1.475   1.836   0.385  2.3903  0.5840  0.7727
 1435SOL     OW 4444   1.155   2.508   2.602  0.1156 -0.0460  0.3639
 1435SOL    HW1 4445   1.073   2.553   2.619 -0.3421 -0.5913 -0.3347
 1435SOL    HW2 4446   1.207   2.521   2.681 -0.3651  0.8991  0.5344
 1436SOL     OW 4447   3.616   0.470   1.587 -0.1705  0.3778 -0.6381
 1436SOL    HW1 4448   3.636   0.396   1.644 -1.5777  1.4618  1.3846
 1436SOL    HW2 4449   3.616   0.433   1.499 -1.5708 -2.1907  0.3398
 1437SOL     OW 4450   2.218   2.181   0.923  0.3973 -0.2451  0.3140
 1437SOL    HW1 4451   2.262   2.181   1.009  1.5246 -0.1918 -0.2432
 1437SOL    HW2 4452   2.144   2.122   0.934 -0.5760  1.1686  1.8553
 1438SOL     OW 4453   2.701   1.609   1.107 -0.5177 -0.6662 -0.4644
 1438SOL    HW1 4454   2.792   1.603   1.138 -0.8764  1.4518  1.2550
 1438SOL    HW2 4455   2.677   1.519   1.085  1.4162 -1.5610  0.8089
 1439SOL     OW 4456   3.065   1.206   2.801  0.0885 -0.1269 -0.0967
 1439SOL    HW1 4457   2.987   1.209   2.856  0.2374 -1.3550  0.2173
 1439SOL    HW2 4458   3.039   1.153   2.725  0.0626  1.0575 -0.9401
 1440SOL     OW 4459   2.165   2.383   3.476 -0.7600 -0.2231 -0.1207
 1440SOL    HW1 4460   2.112   2.461   3.487  0.8440  0.8398  0.4297
 1440SOL    HW2 4461   2.102   2.313   3.459 -2.3980  0.7362  1.7183
 1441SOL     OW 4462   3.335   2.309   1.406 -0.0476  0.0941 -0.0157
 1441SOL    HW1 4463   3.278   2.290   1.332 -0.1135  0.6899 -0.1201
 1441SOL    HW2 4464   3.309   2.396   1.435  0.1742 -0.0140  0.5273
 1442SOL     OW 4465   3.475   1.305   1.751 -0.1864  0.1548 -0.1399
 1442SOL    HW1 4466   3.491   1.344   1.837 -1.2519  0.9927 -0.3062
 1442SOL    HW2 4467   3.553   1.251   1.734 -0.1903 -0.4297  1.5696
 1443SOL     OW 4468   3.137   0.701   3.450 -0.0177  0.2749  0.4634
 1443SOL    HW1 4469   3.190   0.730   3.376  0.0903  1.1658  0.8729
 1443SOL    HW2 4470   3.072   0.770   3.462 -0.7594 -0.4088  0.4920
 1444SOL     OW 4471   2.265   2.667   0.178  0.5293  0.0721 -0.6634
 1444SOL    HW1 4472   2.321   2.723   0.232 -0.9192  0.3654  0.5954
 1444SOL    HW2 4473   2.183   2.661   0.227 -0.2837 -0.9592 -2.0929
 1445SOL     OW 4474   3.044   3.318   2.078  0.5481 -0.0526  0.0176
 1445SOL    HW1 4475   2.996   3.315   1.995  0.2447  3.3961 -0.0651
 1445SOL    HW2 4476   2.991   3.267   2.139 -0.8695 -0.0476 -1.1559
 1446SOL     OW 4477   1.914   1.089   1.952 -0.3385 -0.1189  0.1049
 1446SOL    HW1 4478   1.985   1.105   1.890  0.5163  0.1436  1.1248
 1446SOL    HW2 4479   1.954   1.037   2.021 -0.7238  1.2603  1.4320
 1447SOL     OW 4480   1.906   0.806   0.138  0.3475  0.5227 -0.3724
 1447SOL    HW1 4481   1.904   0.877   0.074  1.7903  0.8130 -0.1444
 1447SOL    HW2 4482   1.859   0.734   0.096 -0.3080  1.2892 -0.9971
 1448SOL     OW 4483   1.638   3.257   3.243 -0.7977 -0.5494  0.0601
 1448SOL    HW1 4484   1.649   3.183   3.302  2.3384 -0.2733 -0.0056
 1448SOL    HW2 4485   1.626   3.332   3.301 -0.9216 -0.7027  0.2350
 1449SOL     OW 4486   2.679   2.689   1.347  0.2599  0.1605 -0.3674
 1449SOL    HW1 4487   2.742   2.761   1.354  0.7744 -0.1342 -1.6540
 1449SOL    HW2 4488   2.723   2.623   1.295 -0.8227 -0.3929 -0.6200
 1450SOL     OW 4489   0.247   0.623   2.900 -0.4788 -0.0436  0.0824
 1450SOL    HW1 4490   0.264   0.553   2.836 -0.2976  0.0129  0.0683
 1450SOL    HW2 4491   0.176   0.674   2.862  0.0036  0.3216 -0.3383
 1451SOL     OW 4492   1.147   1.237   1.047 -0.8466  0.1347  0.1787
 1451SOL    HW1 4493   1.222   1.256   0.992 -0.9937  1.3444  0.3750
 1451SOL    HW2 4494   1.174   1.162   1.100  0.3310  0.7327  0.4504
 1452SOL     OW 4495   3.175   1.374   0.753  0.2421  0.1852 -0.0249
 1452SOL    HW1 4496   3.092   1.363   0.707  0.6546 -0.1653 -0.7117
 1452SOL    HW2 4497   3.201   1.465   0.733 -0.8821  0.9533  1.7693
 1453SOL     OW 4498   2.112   1.689   1.526 -0.2705 -0.6260  0.0752
 1453SOL    HW1 4499   2.138   1.732   1.608  1.1474 -1.1243 -0.0798
 1453SOL    HW2 4500   2.188   1.700   1.469 -0.9198 -1.0231 -0.8798
 1454SOL     OW 4501   1.063   0.775   2.525 -0.1427 -0.3319 -0.0415
 1454SOL    HW1 4502   1.124   0.785   2.452  0.4573 -0.4466  0.4374
 1454SOL    HW2 4503   1.117   0.743   2.597 -0.2234  1.9221  1.1307
 1455SOL     OW 4504   2.848   1.387   0.346  0.0307 -0.3843  0.2313
 1455SOL    HW1 4505   2.756   1.379   0.374 -0.3332 -1.8272 -1.2248
 1455SOL    HW2 4506   2.892   1.314   0.390 -0.2480 -1.7497 -1.6090
 1456SOL     OW 4507   2.129   1.576   0.667 -0.1784  0.5553  0.1061
 1456SOL    HW1 4508   2.045   1.575   0.620 -0.0274 -1.7319 -0.2017
 1456SOL    HW2 4509   2.106   1.603   0.756 -0.8931  2.0888 -0.5084
 1457SOL     OW 4510   3.565   1.494   2.444  0.3068  0.6053 -0.4025
 1457SOL    HW1 4511   3.645   1.464   2.486  0.0105 -1.9674 -1.4515
 1457SOL    HW2 4512   3.594   1.558   2.379  1.3776  0.4741 -0.0663
 1458SOL     OW 4513   2.107   2.138   2.460 -0.1604 -0.2176 -0.3276
 1458SOL    HW1 4514   2.183   2.094   2.421  1.1589  1.8744 -0.2876
 1458SOL    HW2 4515   2.073   2.193   2.389  0.1892  1.0564  0.4583
 1459SOL     OW 4516   1.309   0.569   3.426 -0.3559  0.5084 -0.0017
 1459SOL    HW1 4517   1.341   0.553   3.514 -0.0932  2.0082  0.2070
 1459SOL    HW2 4518   1.214   0.576   3.435 -0.2894  1.1440  0.2588
 1460SOL     OW 4519   0.905   0.424   2.787 -0.0678 -0.0840 -0.6234
 1460SOL    HW1 4520   0.894   0.418   2.881 -1.9521  0.7711 -0.7560
 1460SOL    HW2 4521   0.921   0.517   2.770  0.3262 -0.2387 -1.1539
 1461SOL     OW 4522   2.129   1.627   2.854 -0.1683  0.6796  0.2802
 1461SOL    HW1 4523   2.220   1.607   2.835 -0.3507 -0.9821  0.9853
 1461SOL    HW2 4524   2.117   1.600   2.945 -1.2617  1.2633  0.3256
 1462SOL     OW 4525   0.361   0.510   2.298 -0.0468  0.2697 -0.3205
 1462SOL    HW1 4526   0.379   0.598   2.263  1.5243 -0.8980 -2.7390
 1462SOL    HW2 4527   0.443   0.462   2.285 -1.8689 -2.5818 -2.5878
 1463SOL     OW 4528   3.586   2.796   3.296 -0.3833 -0.5082  0.0781
 1463SOL    HW1 4529   3.511   2.767   3.347  2.4192 -3.6120  2.8321
 1463SOL    HW2 4530   3.602   2.724   3.234 -1.8315  1.8491 -3.3718
 1464SOL     OW 4531   0.718   3.107   0.035 -0.3684 -0.4047  0.1642
 1464SOL    HW1 4532   0.725   3.043  -0.036 -2.1775  0.1330 -0.5673
 1464SOL    HW2 4533   0.653   3.171   0.004  1.1163  1.6363  0.9865
 1465SOL     OW 4534   2.010   2.711   0.285  0.1401 -0.4748 -0.0854
 1465SOL    HW1 4535   2.006   2.792   0.234  0.1130 -0.6622 -0.3838
 1465SOL    HW2 4536   1.921   2.699   0.319 -0.0652 -0.8115 -0.7226
 1466SOL     OW 4537   2.648   0.783   0.106 -0.0300 -0.0345  0.3338
 1466SOL    HW1 4538   2.614   0.867   0.077  1.3398  0.5147  0.2262
 1466SOL    HW2 4539   2.730   0.772   0.058  0.0218 -1.2429  0.6524
 1467SOL     OW 4540   3.414   1.984   0.785 -0.1486 -0.0695  0.5306
 1467SOL    HW1 4541   3.506   1.999   0.763 -0.0191  1.9286  2.1813
 1467SOL    HW2 4542   3.417   1.915   0.852  0.1677  0.0794  0.6741
 1468SOL     OW 4543   2.006   2.983   0.550 -0.2112  0.1285  0.4628
 1468SOL    HW1 4544   1.989   2.997   0.643 -2.9373 -2.1018  0.4370
 1468SOL    HW2 4545   2.052   2.899   0.547  2.3734  1.4610 -0.1474
 1469SOL     OW 4546   0.911   2.082   1.568  0.0265  0.4102  0.3389
 1469SOL    HW1 4547   0.965   2.129   1.504 -0.1432  0.7883  0.4778
 1469SOL    HW2 4548   0.854   2.027   1.514  0.0138  0.5870  0.1694
 1470SOL     OW 4549  -0.008   2.131   0.390 -0.0296 -0.9551  0.2937
 1470SOL    HW1 4550  -0.006   2.122   0.294 -2.1905 -4.2250  0.4207
 1470SOL    HW2 4551   0.077   2.098   0.419 -0.1911 -2.0290 -0.4171
 1471SOL     OW 4552   0.563   1.416   2.254  0.5574 -0.3008  0.2959
 1471SOL    HW1 4553   0.481   1.450   2.290  0.7007 -1.0311  1.3366
 1471SOL    HW2 4554   0.567   1.453   2.166 -0.3904  0.5587  0.5957
 1472SOL     OW 4555   2.158   1.006   0.973  0.0303 -0.2273  0.1146
 1472SOL    HW1 4556   2.142   1.026   0.881  2.4353  0.9431 -0.1279
 1472SOL    HW2 4557   2.078   1.035   1.018 -0.7901  0.0775 -1.4675
 1473SOL     OW 4558   0.707   0.125   3.432 -0.2891  0.1061  0.7200
 1473SOL    HW1 4559   0.761   0.202   3.447 -3.0338  2.1315  0.9970
 1473SOL    HW2 4560   0.678   0.099   3.519  0.2221 -0.9813  0.5799
 1474SOL     OW 4561   0.676   1.100   3.186 -0.3498  0.7217  0.3848
 1474SOL    HW1 4562   0.684   1.187   3.147 -2.7726  1.6415  1.6820
 1474SOL    HW2 4563   0.591   1.102   3.231 -0.2750 -2.1779  0.8435
 1475SOL     OW 4564   1.683   0.544   1.826 -0.3229 -0.1635  0.2121
 1475SOL    HW1 4565   1.613   0.551   1.890  0.1049  1.4525  0.5341
 1475SOL    HW2 4566   1.732   0.626   1.833  0.6071 -0.5506 -1.1660
 1476SOL     OW 4567   0.551   2.589   3.116  0.2342 -0.0057  0.2724
 1476SOL    HW1 4568   0.636   2.618   3.081 -0.2784  0.3647 -0.7086
 1476SOL    HW2 4569   0.493   2.587   3.039 -0.4282 -1.1010  0.7779
 1477SOL     OW 4570   2.174   3.461   2.171 -0.0569  0.0877 -0.9307
 1477SOL    HW1 4571   2.093   3.473   2.219 -0.8876  1.3555 -2.5421
 1477SOL    HW2 4572   2.223   3.542   2.185  1.7283 -1.2466  1.3064
 1478SOL     OW 4573   1.465   0.824   1.130 -0.3346  0.2418  0.0448
 1478SOL    HW1 4574   1.375   0.817   1.164  0.2532 -0.0501  1.6400
 1478SOL    HW2 4575   1.466   0.907   1.082 -1.2119  0.7174  0.8112
 1479SOL     OW 4576   1.071   3.432   2.765  0.3691  0.0616  0.9610
 1479SOL    HW1 4577   1.053   3.469   2.851  0.3395  1.2445  0.4757
 1479SOL    HW2 4578   1.134   3.494   2.726 -1.1247  0.6570 -0.6154
 1480SOL     OW 4579   0.650   3.181   1.675  0.5424 -0.4928  0.0808
 1480SOL    HW1 4580   0.558   3.205   1.669  0.3277 -0.6971  1.8542
 1480SOL    HW2 4581   0.669   3.137   1.592 -0.5347  0.8398 -0.9180
 1481SOL     OW 4582   2.207   2.807   2.918 -0.0884 -1.1519 -0.4278
 1481SOL    HW1 4583   2.172   2.734   2.868 -0.6664 -1.1685 -0.0162
 1481SOL    HW2 4584   2.281   2.839   2.867  2.4067 -4.1428  0.9878
 1482SOL     OW 4585   2.385   1.611   2.508 -0.0390 -0.2952 -0.2771
 1482SOL    HW1 4586   2.324   1.645   2.443 -1.8078 -0.0211  1.4251
 1482SOL    HW2 4587   2.470   1.614   2.465 -0.8952  1.3443 -2.0095
 1483SOL     OW 4588   2.650   2.376   2.355 -0.3077  0.6918  0.3540
 1483SOL    HW1 4589   2.583   2.434   2.319 -0.8301  1.1534  1.9649
 1483SOL    HW2 4590   2.722   2.434   2.379  0.8416  0.1727 -1.5894
 1484SOL     OW 4591   3.214   0.938   0.064  0.9493 -0.0011  0.1175
 1484SOL    HW1 4592   3.174   1.022   0.045  1.9336  0.4173 -0.1687
 1484SOL    HW2 4593   3.236   0.942   0.157 -0.9281 -0.7940  0.6482
 1485SOL     OW 4594   3.590   2.662   2.820  0.0508 -0.0984 -0.2512
 1485SOL    HW1 4595   3.517   2.612   2.784 -1.6507  3.6591 -2.6084
 1485SOL    HW2 4596   3.666   2.633   2.770 -0.8023 -0.5690 -1.3096
 1486SOL     OW 4597   1.780   3.554   1.018 -0.2748 -0.4678  0.3850
 1486SOL    HW1 4598   1.724   3.491   1.062  0.4977 -1.3351  0.1524
 1486SOL    HW2 4599   1.869   3.518   1.027  0.0325 -0.0579 -0.8486
 1487SOL     OW 4600   1.716   1.063   1.557  0.1732 -0.2059  0.3451
 1487SOL    HW1 4601   1.765   1.144   1.571 -1.4370  0.6755  1.1142
 1487SOL    HW2 4602   1.761   0.999   1.612 -0.3555  0.9364  2.2046
 1488SOL     OW 4603   1.380   0.512   1.043 -0.1279  0.0685  0.0165
 1488SOL    HW1 4604   1.286   0.530   1.043 -0.0584  0.4532  0.2802
 1488SOL    HW2 4605   1.387   0.417   1.041 -0.5252  0.0309  0.4190
 1489SOL     OW 4606   0.463   0.502   2.664 -0.0935 -0.5689 -0.7264
 1489SOL    HW1 4607   0.555   0.524   2.649 -0.1094 -0.4757 -0.6861
 1489SOL    HW2 4608   0.414   0.577   2.628 -0.1203 -0.1914  0.0808
 1490SOL     OW 4609   0.842   3.150   0.891 -0.1028 -0.1093  0.2207
 1490SOL    HW1 4610   0.789   3.203   0.831 -1.6623  0.5026  2.0223
 1490SOL    HW2 4611   0.809   3.061   0.880  0.7469 -0.2929 -0.9688
 1491SOL     OW 4612   2.634   3.079   0.954  0.4181  0.9244  0.2710
 1491SOL    HW1 4613   2.655   3.163   0.914  0.1180  0.9134  0.0810
 1491SOL    HW2 4614   2.542   3.064   0.931  0.1786  1.0147  1.1443
 1492SOL     OW 4615   1.364   2.392   1.326  0.0556 -0.3988 -0.1697
 1492SOL    HW1 4616   1.326   2.338   1.258  0.4513 -3.4561  1.8534
 1492SOL    HW2 4617   1.289   2.436   1.367 -0.8560 -2.6816  0.7510
 1493SOL     OW 4618   2.529   2.732   3.733  0.1604  0.0697 -0.1995
 1493SOL    HW1 4619   2.574   2.686   3.662 -1.8209 -0.8681 -0.9573
 1493SOL    HW2 4620   2.486   2.662   3.782 -1.8149  0.9596 -0.5524
 1494SOL     OW 4621   2.698   1.095   0.170 -0.3412  0.5650  0.4351
 1494SOL    HW1 4622   2.729   1.126   0.085 -1.0637  0.2113  0.0347
 1494SOL    HW2 4623   2.776   1.060   0.213  0.1253  1.2232  0.1337
 1495SOL     OW 4624   3.132   1.207   0.017  0.1755  0.2684 -0.1060
 1495SOL    HW1 4625   3.149   1.214   0.111  1.2186  1.5443 -0.3511
 1495SOL    HW2 4626   3.037   1.216   0.009  0.0303 -0.2475  0.8387
 1496SOL     OW 4627   2.545   3.222   1.592  0.1868  0.5907  0.9018
 1496SOL    HW1 4628   2.472   3.194   1.647  1.9019 -0.9363  2.5287
 1496SOL    HW2 4629   2.542   3.162   1.517 -0.8327  1.2253  0.4220
 1497SOL     OW 4630   3.283   2.741   2.143 -0.2600  0.1592 -0.4293
 1497SOL    HW1 4631   3.373   2.769   2.160 -0.1322  0.0925 -0.9724
 1497SOL    HW2 4632   3.256   2.695   2.222  1.1278 -2.2217 -1.2347
 1498SOL     OW 4633   0.612   0.016   1.643 -0.2940  0.3332 -0.0892
 1498SOL    HW1 4634   0.645   0.102   1.666  1.8667 -0.9581  2.0266
 1498SOL    HW2 4635   0.659  -0.008   1.563  2.8067 -0.7290  1.9004
 1499SOL     OW 4636   2.590   0.840   2.591  0.5120  0.2942  0.2479
 1499SOL    HW1 4637   2.555   0.927   2.610  2.0225  1.0771 -0.3946
 1499SOL    HW2 4638   2.619   0.845   2.500 -1.4123 -1.6121 -0.5604
 1500SOL     OW 4639   2.965   1.852   1.282  0.3235 -0.2932  0.2964
 1500SOL    HW1 4640   3.032   1.906   1.324  1.4702 -0.7204 -0.9219
 1500SOL    HW2 4641   2.910   1.914   1.234  1.1996 -0.1365 -0.5121
 1501SOL     OW 4642   3.748   1.744   3.185 -0.3441  0.4063  0.5013
 1501SOL    HW1 4643   3.747   1.648   3.195  0.3162  0.4963  1.5518
 1501SOL    HW2 4644   3.659   1.771   3.206 -0.8657 -0.0710 -0.9732
 1502SOL     OW 4645   1.247   0.275   2.554 -0.0756  0.3273 -0.0710
 1502SOL    HW1 4646   1.214   0.222   2.482 -0.5145 -1.0952  1.1320
 1502SOL    HW2 4647   1.312   0.332   2.513  0.9657 -1.6206 -1.3256
 1503SOL     OW 4648   3.196   0.608   1.378 -0.5474 -0.4183 -0.0958
 1503SOL    HW1 4649   3.130   0.657   1.329  0.8912  1.2497 -0.5022
 1503SOL    HW2 4650   3.277   0.657   1.364  0.6854 -2.0636  0.8295
 1504SOL     OW 4651   2.451   2.365   1.980  0.4498 -0.3355 -0.3484
 1504SOL    HW1 4652   2.355   2.360   1.985  0.4796 -1.2539 -0.5341
 1504SOL    HW2 4653   2.471   2.351   1.888  0.8366 -1.7291 -0.0658
 1505SOL     OW 4654   0.851   1.657   1.011  0.0219  0.1577  0.4550
 1505SOL    HW1 4655   0.760   1.653   1.041 -0.4149  1.1516 -0.6220
 1505SOL    HW2 4656   0.871   1.751   1.007  0.7224 -0.0070 -0.3558
 1506SOL     OW 4657   0.486   1.763   2.908  0.3122 -0.5056 -0.6165
 1506SOL    HW1 4658   0.466   1.843   2.859 -1.1333 -0.1411  0.5029
 1506SOL    HW2 4659   0.562   1.786   2.962 -0.5548  0.3709  0.2545
 1507SOL     OW 4660   0.065   2.818   0.011 -0.6613 -0.0697  0.1968
 1507SOL    HW1 4661   0.047   2.903   0.050 -1.3787 -1.0546  2.1221
 1507SOL    HW2 4662  -0.009   2.763   0.038 -0.0973 -1.3766 -0.7982
 1508SOL     OW 4663   2.401   2.378   1.052  0.2411  0.9254 -0.1251
 1508SOL    HW1 4664   2.404   2.470   1.028  2.1967  1.2804  1.2976
 1508SOL    HW2 4665   2.411   2.331   0.969  0.2701  1.9900 -0.7398
 1509SOL     OW 4666   1.743   0.143   0.442 -0.3102 -0.0170  0.3825
 1509SOL    HW1 4667   1.680   0.093   0.493 -1.0277  0.4443 -0.0352
 1509SOL    HW2 4668   1.829   0.112   0.471 -0.7192 -0.1378  1.4690
 1510SOL     OW 4669   1.113   0.941   2.788 -0.2081 -0.5137 -0.1475
 1510SOL    HW1 4670   1.117   0.941   2.692 -0.2759 -2.7566 -0.1966
 1510SOL    HW2 4671   1.205   0.945   2.815 -0.2298  1.3961 -0.2459
 1511SOL     OW 4672   0.301   2.350   0.352 -0.4131  0.8057  0.5072
 1511SOL    HW1 4673   0.318   2.346   0.446 -1.9646  2.9826  0.9733
 1511SOL    HW2 4674   0.233   2.417   0.343 -3.1981 -2.0341 -1.8123
 1512SOL     OW 4675   0.133   2.728   0.970 -0.0551  0.1351 -0.5041
 1512SOL    HW1 4676   0.214   2.764   0.934 -0.5521  2.2461  0.2961
 1512SOL    HW2 4677   0.150   2.720   1.064 -0.9886  1.4005 -0.1936
 1513SOL     OW 4678   0.119   1.615   2.410 -0.3935  0.1873 -0.0665
 1513SOL    HW1 4679   0.150   1.544   2.466  0.7912  0.1366 -0.7542
 1513SOL    HW2 4680   0.199   1.661   2.384 -0.9068  0.2059 -1.7171
 1514SOL     OW 4681   0.881   0.557   3.201  0.3329  0.3009  0.3833
 1514SOL    HW1 4682   0.957   0.611   3.181  0.3027  0.3480  0.3958
 1514SOL    HW2 4683   0.895   0.477   3.151 -0.1847  0.7758 -0.5452
 1515SOL     OW 4684   0.265   1.263   2.472  0.3899 -0.1875  0.1020
 1515SOL    HW1 4685   0.246   1.197   2.406 -0.4507  0.4403 -0.3026
 1515SOL    HW2 4686   0.343   1.307   2.440 -1.5436  1.9950 -2.0204
 1516SOL     OW 4687   0.113   2.272   3.295  0.2913  0.0131 -0.0203
 1516SOL    HW1 4688   0.019   2.275   3.278  0.5403 -0.3870 -1.5576
 1516SOL    HW2 4689   0.145   2.356   3.262  0.4133  0.3959  1.0285
 1517SOL     OW 4690   0.734   0.487   2.556  0.7903  0.8252 -0.1612
 1517SOL    HW1 4691   0.797   0.536   2.608  0.6354 -0.7628  1.6417
 1517SOL    HW2 4692   0.786   0.447   2.487  1.4757  0.8671  0.3210
 1518SOL     OW 4693   0.760   1.600   2.253 -0.0440 -0.2840 -0.2470
 1518SOL    HW1 4694   0.694   1.536   2.226 -0.1709 -0.7055  0.9961
 1518SOL    HW2 4695   0.827   1.549   2.297  0.6678  0.2544 -0.6907
 1519SOL     OW 4696   1.727   2.041   2.748 -0.1203 -0.0128  0.3718
 1519SOL    HW1 4697   1.789   2.068   2.816  0.4312 -0.2832 -0.0134
 1519SOL    HW2 4698   1.647   2.017   2.796  0.1606  0.0886  0.8948
 1520SOL     OW 4699   3.338   0.203   0.285 -0.0142 -0.2432  0.2873
 1520SOL    HW1 4700   3.353   0.134   0.221 -1.3301  0.5373 -0.9341
 1520SOL    HW2 4701   3.337   0.158   0.369  1.6378 -1.3196 -0.2224
 1521SOL     OW 4702   3.137   3.226   0.587 -0.2047 -0.5669 -1.2127
 1521SOL    HW1 4703   3.076   3.293   0.617  1.2305  1.0922 -1.8682
 1521SOL    HW2 4704   3.187   3.202   0.665  0.5872  0.5674 -1.3566
 1522SOL     OW 4705   2.521   0.436   3.464  0.0585  0.2185  0.3667
 1522SOL    HW1 4706   2.486   0.475   3.384 -0.2528 -1.3631 -0.3138
 1522SOL    HW2 4707   2.478   0.482   3.535 -0.0332  1.3145 -0.3799
 1523SOL     OW 4708   2.581   2.408   0.039  0.0984 -0.1556  0.3628
 1523SOL    HW1 4709   2.547   2.398  -0.050  0.1033 -0.3085  0.3792
 1523SOL    HW2 4710   2.665   2.452   0.027  0.6985 -1.3096  0.1932
 1524SOL     OW 4711   3.251   0.466   2.946 -0.1936  0.0463  0.4871
 1524SOL    HW1 4712   3.336   0.427   2.966 -0.8077 -1.8237 -0.3590
 1524SOL    HW2 4713   3.272   0.550   2.906  1.2398 -0.1673  0.7351
 1525SOL     OW 4714   2.100   1.959   3.351  0.2222  0.0498 -0.1662
 1525SOL    HW1 4715   2.080   1.939   3.260 -0.3888  2.0938 -0.5311
 1525SOL    HW2 4716   2.149   1.883   3.382 -2.1200 -2.0851 -1.2918
 1526SOL     OW 4717   2.662   0.680   2.966  0.4518  0.2688  0.1042
 1526SOL    HW1 4718   2.628   0.767   2.947  0.8540 -0.0259 -2.3820
 1526SOL    HW2 4719   2.719   0.692   3.041 -0.9047  1.7809  0.9553
 1527SOL     OW 4720   2.409   2.995   2.475  0.7727  0.3695 -0.8255
 1527SOL    HW1 4721   2.336   3.031   2.426  0.7741  1.9778  0.2762
 1527SOL    HW2 4722   2.376   2.913   2.511 -1.6666  2.4486  2.1862
 1528SOL     OW 4723   1.140   2.479   0.518 -0.7361  0.1414  0.4787
 1528SOL    HW1 4724   1.186   2.510   0.441 -2.0330  0.3278 -0.2452
 1528SOL    HW2 4725   1.138   2.554   0.578  1.5228 -0.4089  1.3487
 1529SOL     OW 4726   3.373   2.995   1.005  0.2069 -0.4737  0.4337
 1529SOL    HW1 4727   3.449   3.035   1.046 -0.1271 -1.1004  1.7509
 1529SOL    HW2 4728   3.368   3.033   0.918  1.8456 -0.2065  0.4360
 1530SOL     OW 4729   3.284   3.207   0.881  0.5132  0.4010 -0.3335
 1530SOL    HW1 4730   3.367   3.226   0.924  0.7226  2.6260 -1.5770
 1530SOL    HW2 4731   3.244   3.293   0.865 -1.5654 -0.5484 -0.6809
 1531SOL     OW 4732   1.309   0.646   0.629 -0.1457  0.0541  0.9427
 1531SOL    HW1 4733   1.223   0.685   0.612 -0.2096  0.2310  1.6359
 1531SOL    HW2 4734   1.292   0.552   0.636 -0.1765  0.0198  0.4178
 1532SOL     OW 4735   3.062   2.695   3.608  0.6037 -0.1736  0.2827
 1532SOL    HW1 4736   3.082   2.698   3.701  2.4062  0.6702 -0.0989
 1532SOL    HW2 4737   2.994   2.762   3.596  1.5319  0.8797  0.7491
 1533SOL     OW 4738   0.862   1.222   0.752  0.2070  0.0348  0.0742
 1533SOL    HW1 4739   0.898   1.170   0.824  0.1560  1.2840  1.0347
 1533SOL    HW2 4740   0.886   1.312   0.773 -1.2490  0.6157 -0.5976
 1534SOL     OW 4741   2.373   1.606   0.844 -0.2055 -0.2408 -0.0237
 1534SOL    HW1 4742   2.317   1.580   0.770 -1.5312 -0.8365  1.1444
 1534SOL    HW2 4743   2.453   1.554   0.833 -0.0835  0.1886 -1.3985
 1535SOL     OW 4744   1.929   2.045   3.584 -0.0747  0.3105 -0.1567
 1535SOL    HW1 4745   1.911   1.970   3.641 -1.7663  0.8699  0.0973
 1535SOL    HW2 4746   2.017   2.028   3.549 -1.0895 -2.7377 -1.5825
 1536SOL     OW 4747   2.676   1.585   0.099 -0.2377  0.3916  0.0807
 1536SOL    HW1 4748   2.756   1.533   0.085 -0.9891 -0.9907  0.7459
 1536SOL    HW2 4749   2.709   1.669   0.131  0.9498 -0.6440  1.8000
 1537SOL     OW 4750  -0.021   3.669   2.739 -0.0169 -0.4818  0.5009
 1537SOL    HW1 4751   0.025   3.738   2.691 -0.1541  0.2108  1.3606
 1537SOL    HW2 4752   0.045   3.601   2.751  0.4870  0.0467  0.7685
 1538SOL     OW 4753   1.985   0.867   0.375 -0.1803 -0.0411  0.0448
 1538SOL    HW1 4754   1.952   0.795   0.428 -2.5352  0.9942  0.1288
 1538SOL    HW2 4755   1.960   0.844   0.285  1.2439 -0.4517 -0.2595
 1539SOL     OW 4756   0.801   0.405   1.335 -0.4109 -0.3099 -0.2052
 1539SOL    HW1 4757   0.877   0.462   1.350  0.5771 -1.3697 -1.0781
 1539SOL    HW2 4758   0.779   0.417   1.243  0.1470 -1.7197 -0.5458
 1540SOL     OW 4759   0.280   0.002   3.248  0.5460 -0.5363 -0.0033
 1540SOL    HW1 4760   0.213   0.019   3.314  0.6054 -1.3002  0.2622
 1540SOL    HW2 4761   0.298   0.088   3.210  0.0001 -0.1978  0.4790
 1541SOL     OW 4762   0.585   1.252   0.167 -0.0494 -0.5248  0.1593
 1541SOL    HW1 4763   0.517   1.218   0.109 -0.5419 -0.8338  0.9055
 1541SOL    HW2 4764   0.546   1.249   0.254 -0.1228  1.9178  0.2971
 1542SOL     OW 4765   2.815   1.154   2.936 -0.5092  0.2274 -0.0895
 1542SOL    HW1 4766   2.845   1.216   3.003 -0.8846 -0.4072  0.6863
 1542SOL    HW2 4767   2.731   1.189   2.906 -0.3586  0.4938 -0.2073
 1543SOL     OW 4768   1.955   2.658   2.031  0.6090  0.2968  0.0038
 1543SOL    HW1 4769   1.935   2.751   2.026 -1.0689 -0.0527 -0.7232
 1543SOL    HW2 4770   1.871   2.617   2.051  1.4261 -1.0246  0.8782
 1544SOL     OW 4771   2.959   0.196   0.198  0.4276 -0.0590 -0.2403
 1544SOL    HW1 4772   3.040   0.201   0.249  1.3074 -2.0648 -1.3305
 1544SOL    HW2 4773   2.937   0.288   0.180  2.7386  0.5405 -0.3548
 1545SOL     OW 4774   2.311   0.598   1.429  0.4284 -0.1771 -1.3315
 1545SOL    HW1 4775   2.230   0.639   1.399  1.4657  1.4362 -2.1062
 1545SOL    HW2 4776   2.298   0.504   1.416 -0.2257  0.2318 -4.2828
 1546SOL     OW 4777   1.935   1.454   2.724  0.2751  0.1003  0.1621
 1546SOL    HW1 4778   2.015   1.500   2.749  1.5590 -2.1086  0.4436
 1546SOL    HW2 4779   1.937   1.454   2.628 -0.3642  1.5605  0.1194
 1547SOL     OW 4780   1.894   2.678   0.779  0.0934  0.1214 -0.1661
 1547SOL    HW1 4781   1.810   2.690   0.822 -1.3300  1.8347 -3.0529
 1547SOL    HW2 4782   1.943   2.758   0.799  1.5402 -1.2493  2.2481
 1548SOL     OW 4783   2.402   1.065   1.608 -0.4178  0.7610 -0.4923
 1548SOL    HW1 4784   2.488   1.023   1.605  0.6327  2.8311 -1.2402
 1548SOL    HW2 4785   2.355   1.031   1.532 -0.8744 -1.4709  0.6983
 1549SOL     OW 4786   1.901   1.093   0.051 -0.0188 -0.0978  0.4199
 1549SOL    HW1 4787   1.957   1.139  -0.012  0.1473 -0.2266  0.4730
 1549SOL    HW2 4788   1.823   1.069   0.000  0.4250 -0.8413  0.0621
 1550SOL     OW 4789   2.559   0.484   2.131 -0.0053 -0.3324  0.6691
 1550SOL    HW1 4790   2.599   0.460   2.214 -1.6419 -0.9741  1.3024
 1550SOL    HW2 4791   2.502   0.410   2.109 -0.6802  0.4503 -0.3020
 1551SOL     OW 4792   3.582   2.543   2.345  0.8445  0.3063 -0.0177
 1551SOL    HW1 4793   3.605   2.602   2.417 -2.2859  0.2994  1.1558
 1551SOL    HW2 4794   3.645   2.563   2.276  2.4060  2.1092  1.8017
 1552SOL     OW 4795   2.721   2.588   0.347  0.3833  0.0687  0.2517
 1552SOL    HW1 4796   2.655   2.522   0.327  1.3978 -1.0285  0.3517
 1552SOL    HW2 4797   2.765   2.604   0.263  1.4675 -0.9377  0.5881
 1553SOL     OW 4798   3.296   2.874   3.712 -0.2548  0.0329  0.4504
 1553SOL    HW1 4799   3.249   2.957   3.706  0.2035  0.1918 -2.6035
 1553SOL    HW2 4800   3.231   2.811   3.741  0.0105  1.7343  5.9305
 1554SOL     OW 4801   2.812   2.442   1.773  0.9489 -0.0127 -0.2905
 1554SOL    HW1 4802   2.785   2.496   1.699  1.0965 -1.3220 -1.3230
 1554SOL    HW2 4803   2.831   2.356   1.735  1.5092 -0.5734  1.1911
 1555SOL     OW 4804   2.475   0.771   0.322  0.2890  0.8645 -0.3535
 1555SOL    HW1 4805   2.522   0.727   0.393  2.2491  3.0668 -0.1724
 1555SOL    HW2 4806   2.539   0.777   0.251 -0.3256  2.2420 -0.8251
 1556SOL     OW 4807   0.178   3.220   3.403 -0.3621  0.2509  0.3793
 1556SOL    HW1 4808   0.173   3.130   3.435 -0.9024 -0.2360 -1.0059
 1556SOL    HW2 4809   0.088   3.251   3.401 -0.1455  0.9999  1.2611
 1557SOL     OW 4810   1.387   2.285   2.666 -0.0836 -0.1079 -0.4939
 1557SOL    HW1 4811   1.431   2.211   2.707 -0.6708 -0.3410 -0.2802
 1557SOL    HW2 4812   1.392   2.267   2.572 -1.4886 -1.1660 -0.3987
 1558SOL     OW 4813   1.470   3.023   3.098  0.0906 -0.2648 -0.2191
 1558SOL    HW1 4814   1.509   2.938   3.119 -0.6871 -0.0571  2.3759
 1558SOL    HW2 4815   1.519   3.086   3.152 -1.0553  0.5564 -0.0903
 1559SOL     OW 4816   2.438   3.609   1.477 -0.0720  0.0792 -0.3458
 1559SOL    HW1 4817   2.477   3.651   1.554 -0.6471 -0.4146  0.2278
 1559SOL    HW2 4818   2.354   3.654   1.465  0.8089  1.4176 -1.8213
 1560SOL     OW 4819   1.701   2.177   2.525  0.5873  0.2030  0.5406
 1560SOL    HW1 4820   1.734   2.155   2.612  0.2409  1.2638  0.9585
 1560SOL    HW2 4821   1.688   2.272   2.527  2.5644  0.6095 -1.3477
 1561SOL     OW 4822   2.306   3.262   2.037  0.0176 -0.5298  0.0803
 1561SOL    HW1 4823   2.351   3.314   1.971  1.9301 -0.9700  0.9784
 1561SOL    HW2 4824   2.239   3.321   2.072  1.1986  0.8815  0.0873
 1562SOL     OW 4825   1.940   2.272   1.162 -0.0757  0.3397 -0.2100
 1562SOL    HW1 4826   1.867   2.304   1.109  0.4841 -0.5486 -1.5536
 1562SOL    HW2 4827   2.003   2.344   1.162  0.0637  0.2240 -1.0414
 1563SOL     OW 4828   0.757   1.087   2.775 -0.2094  0.0023 -0.0287
 1563SOL    HW1 4829   0.700   1.142   2.828 -0.4823 -1.1415  0.8924
 1563SOL    HW2 4830   0.746   1.120   2.686  0.5633  2.2328  0.6198
 1564SOL     OW 4831   3.043   1.680   2.218 -0.0623 -0.5402  0.3582
 1564SOL    HW1 4832   3.027   1.636   2.302  1.1613  0.6961  1.2734
 1564SOL    HW2 4833   3.137   1.672   2.203 -0.0747  0.3146 -0.2844
 1565SOL     OW 4834   0.514   3.760   2.207 -0.0630 -0.1149 -0.0487
 1565SOL    HW1 4835   0.592   3.708   2.223 -0.1900  0.0927  1.3583
 1565SOL    HW2 4836   0.466   3.711   2.139  0.0617 -1.5722  0.8734
 1566SOL     OW 4837   0.579   2.342   0.543  0.3482  0.6651 -0.0144
 1566SOL    HW1 4838   0.604   2.346   0.635  1.2813  3.2265 -0.3129
 1566SOL    HW2 4839   0.615   2.259   0.512  0.9517  0.2706  1.6548
 1567SOL     OW 4840   1.125   1.303   2.744 -0.2184 -0.0882 -0.2937
 1567SOL    HW1 4841   1.112   1.231   2.683 -1.3832  0.5429 -0.8046
 1567SOL    HW2 4842   1.196   1.273   2.802 -1.1500 -1.9267 -0.0423
 1568SOL     OW 4843   0.621   1.173   1.909  0.3688 -0.1011 -0.7233
 1568SOL    HW1 4844   0.669   1.094   1.884 -0.4658  0.0314 -3.0005
 1568SOL    HW2 4845   0.683   1.244   1.894  0.6240 -0.2047 -0.1618
 1569SOL     OW 4846   2.427   3.663   2.837 -0.8895 -0.4822 -0.5488
 1569SOL    HW1 4847   2.475   3.687   2.916 -0.4258  0.6700 -1.1654
 1569SOL    HW2 4848   2.465   3.579   2.810  0.2147 -0.0001 -0.5537
 1570SOL     OW 4849   2.859   1.723   2.442 -0.4026  0.3728  0.2957
 1570SOL    HW1 4850   2.842   1.773   2.363  0.3954 -1.5022 -1.1597
 1570SOL    HW2 4851   2.947   1.751   2.470  0.0830 -0.2460 -0.5661
 1571SOL     OW 4852   1.215   2.469   0.986  0.4068  0.7195 -0.2593
 1571SOL    HW1 4853   1.226   2.546   1.042 -3.3926 -0.2734  2.2894
 1571SOL    HW2 4854   1.277   2.405   1.021 -1.3063  0.4106  2.5508
 1572SOL     OW 4855   0.188   0.504   0.870 -0.2348  0.4433 -0.1905
 1572SOL    HW1 4856   0.174   0.453   0.791  1.6465  2.2356 -1.8071
 1572SOL    HW2 4857   0.122   0.574   0.866  0.6179  1.2339 -0.8593
 1573SOL     OW 4858   2.724   3.583   0.832 -0.4984 -0.6444 -0.7553
 1573SOL    HW1 4859   2.705   3.677   0.827 -2.5641 -0.8969  0.5962
 1573SOL    HW2 4860   2.779   3.574   0.910  0.8573 -0.4347 -1.6736
 1574SOL     OW 4861   1.965   2.240   0.093  0.3118 -0.1167  0.8903
 1574SOL    HW1 4862   1.886   2.185   0.091  0.3993 -0.2318 -0.7450
 1574SOL    HW2 4863   2.034   2.181   0.122  0.5844 -1.2113 -1.7040
 1575SOL     OW 4864   1.208   0.422   1.963  0.5736 -0.2832 -0.1441
 1575SOL    HW1 4865   1.299   0.446   1.981  0.5276 -0.5660  0.4848
 1575SOL    HW2 4866   1.198   0.438   1.869  1.2672 -0.2313 -0.2190
 1576SOL     OW 4867   0.144   0.605   1.666  0.5660 -0.2508  0.1546
 1576SOL    HW1 4868   0.088   0.552   1.609 -2.4628  2.9136 -0.1422
 1576SOL    HW2 4869   0.103   0.600   1.752  0.7883  0.7867  0.3396
 1577SOL     OW 4870   2.963   2.672   2.141  0.7851 -0.6055 -0.4741
 1577SOL    HW1 4871   2.960   2.589   2.188 -1.4325 -1.5795 -2.1667
 1577SOL    HW2 4872   2.992   2.648   2.053  0.1387  0.4183 -0.9794
 1578SOL     OW 4873   2.331   1.327   1.672 -0.5305 -0.1447  0.2939
 1578SOL    HW1 4874   2.369   1.242   1.647  1.1378 -0.3029  2.9387
 1578SOL    HW2 4875   2.238   1.308   1.688 -0.8087 -0.8041 -1.8403
 1579SOL     OW 4876   2.038   0.472   2.632 -0.0329  0.3197  0.8153
 1579SOL    HW1 4877   2.086   0.475   2.714 -1.2477  2.0890  1.5213
 1579SOL    HW2 4878   2.094   0.518   2.570  0.4254 -0.1214  0.8906
 1580SOL     OW 4879   2.808   3.193  -0.011 -0.4034 -0.0384 -0.1123
 1580SOL    HW1 4880   2.715   3.172  -0.019 -0.1004 -1.1793 -0.8880
 1580SOL    HW2 4881   2.818   3.224   0.079 -2.2483  4.0800 -1.0798
 1581SOL     OW 4882   1.680   2.828   0.877  0.0420 -0.0717 -0.1301
 1581SOL    HW1 4883   1.629   2.827   0.958  1.3615  1.2883  0.7575
 1581SOL    HW2 4884   1.614   2.817   0.808 -1.2110 -0.3586  1.0576
 1582SOL     OW 4885   3.435   0.608   0.098 -0.3561 -0.0240  0.3113
 1582SOL    HW1 4886   3.455   0.702   0.094 -0.0093  0.0515  2.4446
 1582SOL    HW2 4887   3.414   0.584   0.008 -0.9806  2.2054 -0.2071
 1583SOL     OW 4888   1.715   2.107   0.086 -0.4981 -0.1192  0.7056
 1583SOL    HW1 4889   1.685   2.036   0.030  0.5439  1.2257 -1.7332
 1583SOL    HW2 4890   1.665   2.183   0.058  2.4328  1.3766 -1.0160
 1584SOL     OW 4891   2.697   2.036   2.489 -0.8260 -0.0646 -0.0525
 1584SOL    HW1 4892   2.643   2.111   2.517 -1.0943 -0.0855 -0.5165
 1584SOL    HW2 4893   2.779   2.047   2.538 -0.8110  0.6094 -0.2132
 1585SOL     OW 4894   0.082   2.077   1.184  0.1434 -0.0583  0.2879
 1585SOL    HW1 4895   0.156   2.132   1.158  0.3616 -0.3762  0.2225
 1585SOL    HW2 4896   0.007   2.111   1.135 -0.5390  2.4292  2.7718
 1586SOL     OW 4897   2.196   3.165   2.289  0.0149  0.3277 -0.1590
 1586SOL    HW1 4898   2.178   3.230   2.357  1.2051 -0.6667  1.1663
 1586SOL    HW2 4899   2.255   3.209   2.228 -0.2636  0.9083 -0.0187
 1587SOL     OW 4900   0.466   1.038   1.640  0.1825 -0.4451  0.4520
 1587SOL    HW1 4901   0.516   1.119   1.643 -0.2977 -0.1309  3.6977
 1587SOL    HW2 4902   0.375   1.066   1.631 -0.0487 -0.5026  2.2255
 1588SOL     OW 4903   3.730   0.891   2.202 -0.4220 -0.1088  0.3243
 1588SOL    HW1 4904   3.691   0.803   2.204  0.7158 -0.6168  0.4951
 1588SOL    HW2 4905   3.655   0.950   2.215 -0.8588 -1.1427  3.2562
 1589SOL     OW 4906   1.988   2.541   1.750  0.0211  0.9823 -0.1065
 1589SOL    HW1 4907   1.899   2.505   1.751  1.1222 -2.0145 -0.5838
 1589SOL    HW2 4908   2.017   2.535   1.841 -0.1090  1.6560 -0.0110
 1590SOL     OW 4909   1.471   3.630   0.321  0.3267 -0.0610 -0.2824
 1590SOL    HW1 4910   1.462   3.548   0.272 -0.2110 -0.2287  0.0865
 1590SOL    HW2 4911   1.381   3.662   0.330  0.2892 -0.5584  1.4743
 1591SOL     OW 4912   3.321   1.587   3.113  0.5077  0.6725 -0.3346
 1591SOL    HW1 4913   3.391   1.559   3.054  0.8311 -0.0737  0.3735
 1591SOL    HW2 4914   3.241   1.577   3.062  0.7250 -0.5499 -0.4787
 1592SOL     OW 4915   2.836   2.122   1.831 -0.5400 -0.4848 -0.6611
 1592SOL    HW1 4916   2.847   2.039   1.878 -1.0404 -0.9518 -1.3378
 1592SOL    HW2 4917   2.915   2.130   1.777  1.7701  1.7771  2.7052
 1593SOL     OW 4918   1.927   2.786   3.252 -0.4980 -0.6947  0.4368
 1593SOL    HW1 4919   2.022   2.784   3.262 -0.4025 -1.0834 -0.3995
 1593SOL    HW2 4920   1.895   2.835   3.328  0.2714 -1.5928  1.3602
 1594SOL     OW 4921   0.392   2.204   3.331 -0.5452  0.5044 -0.1031
 1594SOL    HW1 4922   0.298   2.185   3.332 -0.0639 -2.3257  1.4496
 1594SOL    HW2 4923   0.426   2.153   3.257  0.1171 -0.8601  1.0977
 1595SOL     OW 4924   0.144   3.280   2.458 -0.1849  0.0198  0.3562
 1595SOL    HW1 4925   0.218   3.336   2.480 -0.0821 -0.7862  2.3282
 1595SOL    HW2 4926   0.181   3.212   2.402  0.5261 -0.1907  1.0550
 1596SOL     OW 4927   3.627   1.445   0.816  0.4673  0.3482 -0.2338
 1596SOL    HW1 4928   3.665   1.390   0.748  5.1585  1.7070  0.9241
 1596SOL    HW2 4929   3.628   1.533   0.778 -0.6585  0.5836  0.2508
 1597SOL     OW 4930   3.562  -0.013   3.187 -0.0606  0.0890 -0.7576
 1597SOL    HW1 4931   3.578   0.058   3.125  0.7183  0.5893  0.0017
 1597SOL    HW2 4932   3.628  -0.001   3.255 -0.1857 -1.1223 -0.4049
 1598SOL     OW 4933   1.419   2.674   1.359 -0.0043  0.4386  0.3659
 1598SOL    HW1 4934   1.341   2.709   1.401  0.6706  3.1787 -0.4230
 1598SOL    HW2 4935   1.445   2.600   1.413 -1.9274  0.7954  1.8590
 1599SOL     OW 4936   0.445   0.910   0.270  0.5750  0.0992 -0.0593
 1599SOL    HW1 4937   0.439   0.969   0.345 -0.0289 -2.7051  2.2680
 1599SOL    HW2 4938   0.354   0.887   0.251  0.8377 -0.8193 -0.2666
 1600SOL     OW 4939   0.603   1.289   1.580 -0.1003 -0.4162 -0.7552
 1600SOL    HW1 4940   0.584   1.370   1.627 -0.1010 -1.3711  0.9960
 1600SOL    HW2 4941   0.691   1.264   1.609  0.1479 -0.7549 -1.7330
 1601SOL     OW 4942   0.563   1.979   3.188 -0.1751  0.4486  0.5763
 1601SOL    HW1 4943   0.592   1.893   3.157 -2.1350 -0.4128  0.9924
 1601SOL    HW2 4944   0.637   2.011   3.240  0.6081 -0.9632  0.3939
 1602SOL     OW 4945   2.673   3.056   1.943  0.2924 -0.3560 -0.0278
 1602SOL    HW1 4946   2.737   3.113   1.900  0.7583 -1.1323 -0.3907
 1602SOL    HW2 4947   2.716   2.970   1.945 -0.3317 -0.6602  0.6504
 1603SOL     OW 4948   0.792   1.086   3.704 -0.3591  0.0037 -0.7326
 1603SOL    HW1 4949   0.762   1.017   3.645  1.3499 -1.4497 -0.0048
 1603SOL    HW2 4950   0.770   1.053   3.792  0.8274  0.1861 -0.3520
 1604SOL     OW 4951   2.046   1.988   2.727 -0.7910 -0.1057 -0.3255
 1604SOL    HW1 4952   2.011   2.074   2.703 -1.0879 -0.0008  0.4542
 1604SOL    HW2 4953   2.137   1.990   2.698  0.3577  1.8730  2.8204
 1605SOL     OW 4954   2.742   2.734   0.768  0.3514  0.2693 -0.1091
 1605SOL    HW1 4955   2.698   2.748   0.852 -3.2556 -2.6353 -1.2533
 1605SOL    HW2 4956   2.831   2.707   0.792  0.4468  2.4964  2.5640
 1606SOL     OW 4957   1.392   2.218   0.608  0.2313  0.0258  0.0294
 1606SOL    HW1 4958   1.468   2.273   0.588  0.7789  0.4653  2.8657
 1606SOL    HW2 4959   1.342   2.268   0.672 -1.4709 -1.0687 -0.3831
 1607SOL     OW 4960   2.713   0.386   0.771 -0.3716 -0.1605  0.0241
 1607SOL    HW1 4961   2.784   0.443   0.742 -0.8917  1.0370  1.0320
 1607SOL    HW2 4962   2.643   0.446   0.798 -2.0435 -1.3030 -1.5607
 1608SOL     OW 4963   1.705   3.705   3.181  0.2526 -0.4309 -0.0785
 1608SOL    HW1 4964   1.777   3.697   3.119  0.8592 -1.2194  0.7033
 1608SOL    HW2 4965   1.727   3.644   3.252 -2.0317 -2.1199 -0.6658
 1609SOL     OW 4966   3.229   2.175   0.299  0.0338  0.4249 -0.8962
 1609SOL    HW1 4967   3.309   2.227   0.296 -0.3341  1.0203 -0.7278
 1609SOL    HW2 4968   3.237   2.123   0.378  0.7158 -0.2943 -1.4297
 1610SOL     OW 4969   2.829   2.842   3.595  0.3701 -0.4211  0.5236
 1610SOL    HW1 4970   2.789   2.895   3.526  0.0438 -1.2236  0.0788
 1610SOL    HW2 4971   2.775   2.763   3.599 -0.7297  0.3558  2.9456
 1611SOL     OW 4972   2.024   2.229   2.019 -0.3603 -0.3253  0.0841
 1611SOL    HW1 4973   1.939   2.254   2.054  0.2275  0.0799  1.2688
 1611SOL    HW2 4974   2.074   2.311   2.014  1.6271 -1.0652  4.1116
 1612SOL     OW 4975   2.636   1.778   2.641  0.4579  0.3596 -0.2868
 1612SOL    HW1 4976   2.701   1.813   2.580  2.7821  0.5471  2.1325
 1612SOL    HW2 4977   2.640   1.683   2.629 -1.3906  0.4495 -2.4834
 1613SOL     OW 4978   3.012   1.582   3.384 -0.3314 -0.0244  0.7406
 1613SOL    HW1 4979   2.980   1.672   3.389  0.6739  0.3321  1.1545
 1613SOL    HW2 4980   3.025   1.567   3.290  1.0118  0.8518  0.7495
 1614SOL     OW 4981   1.060   1.591   2.740 -0.6939  0.3278  0.8537
 1614SOL    HW1 4982   0.978   1.580   2.693 -1.3665 -0.1027  2.0885
 1614SOL    HW2 4983   1.090   1.502   2.758  0.0130  0.4805  0.4812
 1615SOL     OW 4984   2.969   1.949   0.735  0.3034 -0.2696  0.3364
 1615SOL    HW1 4985   2.955   1.860   0.769  1.2276  0.5188  3.0435
 1615SOL    HW2 4986   3.009   1.996   0.808  4.8837  1.0331 -2.6059
 1616SOL     OW 4987   2.649   2.163   2.191  0.4173 -0.6199  0.5420
 1616SOL    HW1 4988   2.716   2.095   2.195  0.9756 -0.1258 -0.1086
 1616SOL    HW2 4989   2.667   2.220   2.266 -0.4144 -1.4942  1.4348
 1617SOL     OW 4990   1.117   0.365   0.060  0.0368  0.1113 -0.7392
 1617SOL    HW1 4991   1.196   0.317   0.086 -0.4237 -0.3895 -0.2343
 1617SOL    HW2 4992   1.065   0.371   0.141 -0.7212 -0.1172 -1.2001
 1618SOL     OW 4993   0.141   1.575   2.738 -0.1132  0.1463  0.2332
 1618SOL    HW1 4994   0.181   1.652   2.698  0.7052 -0.4282 -0.0940
 1618SOL    HW2 4995   0.095   1.608   2.814 -1.6884  1.2652 -1.1498
 1619SOL     OW 4996   3.086   0.983   3.419  0.8621  0.2428 -0.0764
 1619SOL    HW1 4997   3.025   0.975   3.346 -0.0923  0.0086  0.7351
 1619SOL    HW2 4998   3.105   1.077   3.425 -0.6586  0.5381  0.6399
 1620SOL     OW 4999   1.238   0.309   3.142  0.3151 -0.7343  0.2100
 1620SOL    HW1 5000   1.295   0.235   3.123  1.1155 -0.2710  0.7709
 1620SOL    HW2 5001   1.271   0.380   3.087  1.1068 -0.0996  1.4487
 1621SOL     OW 5002   2.243   2.117   0.092 -0.0658 -0.0921 -0.4992
 1621SOL    HW1 5003   2.279   2.204   0.075 -0.1015 -0.3105 -1.7964
 1621SOL    HW2 5004   2.219   2.118   0.185  1.3761  0.7507 -0.1052
 1622SOL     OW 5005   2.462   3.391   1.342 -0.0011 -0.0686  0.8375
 1622SOL    HW1 5006   2.452   3.472   1.392  1.3107  0.3283  0.4878
 1622SOL    HW2 5007   2.403   3.329   1.385 -0.3059  0.7968  1.7003
 1623SOL     OW 5008   0.989   1.564   3.702  0.6215  0.4921 -0.7498
 1623SOL    HW1 5009   0.993   1.566   3.798  0.4456  0.3232 -0.7378
 1623SOL    HW2 5010   0.905   1.606   3.681  1.2457  1.6926 -0.8843
 1624SOL     OW 5011   0.359   0.045   1.225 -0.6207 -0.0870 -0.7815
 1624SOL    HW1 5012   0.430   0.103   1.254 -0.0416 -0.8684 -0.5833
 1624SOL    HW2 5013   0.378   0.028   1.133  0.2592 -1.3899 -0.3907
 1625SOL     OW 5014   2.359   1.988   0.503 -0.0116  0.3531  0.4480
 1625SOL    HW1 5015   2.276   1.991   0.550 -0.1568  2.7152  0.1720
 1625SOL    HW2 5016   2.383   2.080   0.491  2.5174 -0.2511  0.2641
 1626SOL     OW 5017   3.646   1.551   1.943  0.0452 -0.0185 -0.3194
 1626SOL    HW1 5018   3.558   1.587   1.954  0.1285 -0.0210  0.4136
 1626SOL    HW2 5019   3.640   1.462   1.977  0.2082 -0.1985 -0.7526
 1627SOL     OW 5020   2.329   0.153   0.074  0.2738 -1.1238  0.6917
 1627SOL    HW1 5021   2.235   0.157   0.054  0.4416 -0.3433 -0.0003
 1627SOL    HW2 5022   2.332   0.125   0.166 -0.7257  0.6810  1.3416
 1628SOL     OW 5023   0.137   0.294  -0.011  0.3707  0.3088 -0.0781
 1628SOL    HW1 5024   0.174   0.206  -0.015  1.5041  0.7393  0.4389
 1628SOL    HW2 5025   0.056   0.284   0.040 -0.0632 -0.5870 -0.9195
 1629SOL     OW 5026   1.862   2.990   0.799 -0.0643  0.2624 -0.2679
 1629SOL    HW1 5027   1.863   3.008   0.893  0.3271 -0.3223 -0.1564
 1629SOL    HW2 5028   1.787   2.932   0.785 -0.9738  1.4596 -0.5407
 1630SOL     OW 5029   1.950   1.819   2.892 -0.3075  0.9106  0.1626
 1630SOL    HW1 5030   2.007   1.750   2.857  0.2177  1.0731  0.6838
 1630SOL    HW2 5031   1.952   1.888   2.826  0.7595  1.2573  0.5448
 1631SOL     OW 5032   2.032   1.650   3.152 -0.4605  0.6113 -0.1636
 1631SOL    HW1 5033   2.096   1.707   3.194  1.8698 -2.0642  0.1225
 1631SOL    HW2 5034   1.961   1.643   3.216  1.1144 -0.0740  1.5894
 1632SOL     OW 5035   0.877   3.330   3.138  0.1370  0.1790 -0.3464
 1632SOL    HW1 5036   0.791   3.358   3.110  0.2726  0.1700 -0.7700
 1632SOL    HW2 5037   0.881   3.237   3.116  0.4884  0.3239 -0.9055
 1633SOL     OW 5038   2.698   2.799   2.075  1.3865  0.0363 -0.2626
 1633SOL    HW1 5039   2.663   2.748   2.001  0.0453  0.1920  0.2264
 1633SOL    HW2 5040   2.764   2.742   2.115  0.0623 -1.2759  0.1567
 1634SOL     OW 5041   0.937   2.104   2.019  0.0603  0.3190  0.0710
 1634SOL    HW1 5042   1.022   2.110   2.063  0.1883 -2.7991  0.4667
 1634SOL    HW2 5043   0.873   2.110   2.089  0.2099 -2.6982  0.5906
 1635SOL     OW 5044   2.015   0.864   3.013 -0.3940 -0.3151 -0.0910
 1635SOL    HW1 5045   2.060   0.947   3.027  0.2194 -0.4251 -1.2933
 1635SOL    HW2 5046   1.923   0.889   2.999 -0.4329  0.0473  0.7814
 1636SOL     OW 5047   1.516   1.044   1.776  0.9506  0.1213 -0.0099
 1636SOL    HW1 5048   1.564   0.997   1.708  0.9525  1.4861 -0.9738
 1636SOL    HW2 5049   1.460   1.105   1.729  0.1582  0.3585  1.1840
 1637SOL     OW 5050   3.127   1.243   3.357  0.5427 -0.1068 -0.0409
 1637SOL    HW1 5051   3.061   1.293   3.405  0.5758  0.1977 -0.3083
 1637SOL    HW2 5052   3.207   1.293   3.367  0.1332  1.0538 -2.0912
 1638SOL     OW 5053   3.724   3.047   2.694 -0.3901 -0.0657 -0.0351
 1638SOL    HW1 5054   3.647   3.028   2.640  0.0032 -0.2721 -0.5434
 1638SOL    HW2 5055   3.714   3.138   2.719 -0.4490  0.1179 -0.6991
 1639SOL     OW 5056   0.882  -0.013   3.702  0.1567  0.2244  0.7631
 1639SOL    HW1 5057   0.872   0.062   3.760  1.4719 -0.4395  1.9081
 1639SOL    HW2 5058   0.945   0.016   3.636 -0.5648  0.6426  0.2459
 1640SOL     OW 5059   3.467   1.540   3.395  0.4821  0.0719 -0.0424
 1640SOL    HW1 5060   3.533   1.478   3.362  0.8550  0.3964  0.0857
 1640SOL    HW2 5061   3.401   1.484   3.437  0.0181 -0.3446 -1.2825
 1641SOL     OW 5062   1.189   0.676   1.528 -0.2387  0.4284  0.2459
 1641SOL    HW1 5063   1.244   0.659   1.452 -1.5586 -0.6312 -0.5074
 1641SOL    HW2 5064   1.211   0.605   1.589 -1.2828 -0.4459 -0.3669
 1642SOL     OW 5065   1.016   1.671   0.585  0.1082 -0.1253  0.0798
 1642SOL    HW1 5066   0.931   1.676   0.542  0.4821 -1.6522 -0.9157
 1642SOL    HW2 5067   1.002   1.710   0.671 -1.5569 -0.2251 -0.1165
 1643SOL     OW 5068   0.784   0.094   1.040 -0.0730 -0.5513 -0.3694
 1643SOL    HW1 5069   0.853   0.108   1.106 -0.7059  0.8238  0.0286
 1643SOL    HW2 5070   0.728   0.026   1.078 -0.7450  0.6097  0.8094
 1644SOL     OW 5071   1.491   2.787   0.308  0.2661 -0.2801 -0.4936
 1644SOL    HW1 5072   1.507   2.814   0.399  0.0768  0.7708 -0.7625
 1644SOL    HW2 5073   1.420   2.723   0.315 -0.4660  0.5634  0.0192
 1645SOL     OW 5074   0.035   0.759   2.585 -0.2226 -0.2158 -0.2439
 1645SOL    HW1 5075   0.046   0.723   2.497 -0.7574  2.9846 -1.7528
 1645SOL    HW2 5076   0.121   0.796   2.607 -1.2020  3.1757 -1.5755
 1646SOL     OW 5077   1.873   2.554   1.417 -0.0534  0.2480  0.1040
 1646SOL    HW1 5078   1.847   2.571   1.326  1.3471 -1.8675 -0.7635
 1646SOL    HW2 5079   1.803   2.500   1.452  0.2060 -0.3433 -0.2756
 1647SOL     OW 5080   2.529   1.520   1.489 -0.6806 -0.9549 -0.1923
 1647SOL    HW1 5081   2.547   1.609   1.458  1.2057 -0.7484  1.2945
 1647SOL    HW2 5082   2.614   1.477   1.489 -1.4437 -2.5345 -0.1488
 1648SOL     OW 5083   1.082   1.264   3.485  0.0332  0.0493  0.1873
 1648SOL    HW1 5084   1.088   1.266   3.581 -0.1959 -1.1401  0.2374
 1648SOL    HW2 5085   1.052   1.176   3.465 -0.9068  0.5992 -0.9419
 1649SOL     OW 5086   3.652   2.729   1.388  0.3188  0.0138  0.0223
 1649SOL    HW1 5087   3.570   2.776   1.378 -0.0328 -0.4795  0.5681
 1649SOL    HW2 5088   3.719   2.798   1.389 -0.1155  0.4395 -0.0288
 1650SOL     OW 5089   3.190   3.597   2.330 -0.0018  0.0453  0.3606
 1650SOL    HW1 5090   3.191   3.513   2.375 -0.4584 -0.4991 -0.6187
 1650SOL    HW2 5091   3.203   3.662   2.399  1.0419 -0.8605  1.0342
 1651SOL     OW 5092   2.521   2.711   0.565 -0.0676  0.0763  0.4273
 1651SOL    HW1 5093   2.536   2.743   0.476  0.3952  0.6597  0.7084
 1651SOL    HW2 5094   2.601   2.663   0.587 -0.1025  0.0980  0.6011
 1652SOL     OW 5095   3.238   2.516   1.605  0.7910  0.8602 -0.3239
 1652SOL    HW1 5096   3.293   2.595   1.596  0.8162  0.7420 -1.2481
 1652SOL    HW2 5097   3.154   2.549   1.637  1.0196  1.1787 -0.0420
 1653SOL     OW 5098   2.010   1.162   2.703  0.2530 -0.1936  0.0178
 1653SOL    HW1 5099   1.928   1.203   2.674  0.2498  2.1491  2.9460
 1653SOL    HW2 5100   1.988   1.069   2.709 -1.2132 -0.0824 -2.1768
 1654SOL     OW 5101   0.399   2.869   1.158 -0.5517  0.5171  0.4337
 1654SOL    HW1 5102   0.329   2.808   1.181 -0.7424  0.7869  0.5735
 1654SOL    HW2 5103   0.472   2.813   1.134 -0.2659  0.2101  1.9079
 1655SOL     OW 5104   0.300   1.627   3.153  0.2165  0.2621 -0.1335
 1655SOL    HW1 5105   0.376   1.606   3.209  0.1622 -1.3726 -0.6146
 1655SOL    HW2 5106   0.302   1.722   3.145  2.1797  0.2780 -0.0647
 1656SOL     OW 5107   2.952   1.658   3.125  0.4153 -0.6594  0.1037
 1656SOL    HW1 5108   2.959   1.752   3.110 -0.3599 -0.3498  1.4902
 1656SOL    HW2 5109   2.988   1.618   3.046  1.9302  0.7887  0.0200
 1657SOL     OW 5110   2.006   2.219   3.338  0.1335  0.0249 -0.0737
 1657SOL    HW1 5111   1.919   2.180   3.333  0.2300 -0.4586  1.4162
 1657SOL    HW2 5112   2.065   2.144   3.346  0.7186  0.3440 -1.1469
 1658SOL     OW 5113   0.736   2.724   0.254 -0.0290 -0.3037 -0.3309
 1658SOL    HW1 5114   0.671   2.662   0.287 -1.6045  0.2308 -2.2779
 1658SOL    HW2 5115   0.686   2.788   0.204  1.5075  2.6124  1.5361
 1659SOL     OW 5116   1.985   2.007   2.180  0.3997  0.2803  0.3953
 1659SOL    HW1 5117   2.025   2.088   2.148 -0.5960 -0.2873 -2.6942
 1659SOL    HW2 5118   2.059   1.952   2.204  1.1867  1.3304  0.4751
 1660SOL     OW 5119   2.354   2.129   3.268  0.1523  0.1964 -0.2547
 1660SOL    HW1 5120   2.357   2.096   3.358 -1.6067 -0.2315 -0.3164
 1660SOL    HW2 5121   2.300   2.208   3.274 -0.9473 -0.4702 -1.0879
 1661SOL     OW 5122   2.322   2.104   3.561  0.9992  0.4019 -0.5126
 1661SOL    HW1 5123   2.251   2.156   3.599 -1.0580 -1.3477 -1.6859
 1661SOL    HW2 5124   2.346   2.042   3.630  1.1603  0.7967 -0.2153
 1662SOL     OW 5125   1.667   1.459   1.446 -0.8291 -0.4187 -0.3499
 1662SOL    HW1 5126   1.685   1.404   1.522 -0.9222 -0.7887 -0.5938
 1662SOL    HW2 5127   1.738   1.524   1.447  0.4627 -1.7616 -1.1962
 1663SOL     OW 5128   2.641   1.957   3.719  0.0984 -0.8912 -1.0816
 1663SOL    HW1 5129   2.708   1.938   3.785  0.7025  1.9249 -0.7398
 1663SOL    HW2 5130   2.691   1.981   3.641 -0.6148 -3.3158 -2.3980
 1664SOL     OW 5131   3.540   1.268   2.751  0.0588 -0.0736 -1.0537
 1664SOL    HW1 5132   3.469   1.208   2.729 -0.6342  0.8331 -1.3621
 1664SOL    HW2 5133   3.589   1.278   2.670  0.8320 -1.0514 -0.7280
 1665SOL     OW 5134   0.500   3.618   0.588 -0.0793 -0.0668  0.0620
 1665SOL    HW1 5135   0.502   3.571   0.504  0.1140 -1.2737  0.7227
 1665SOL    HW2 5136   0.472   3.706   0.565  0.0231 -0.3617 -1.2847
 1666SOL     OW 5137   0.349   0.991   0.584  1.0434 -0.4801 -0.2266
 1666SOL    HW1 5138   0.267   0.942   0.591  0.8266 -0.1943 -0.6747
 1666SOL    HW2 5139   0.393   0.976   0.667  0.4240 -0.4451  0.1189
 1667SOL     OW 5140   3.646   3.338   1.477 -0.2266 -0.3600  0.2609
 1667SOL    HW1 5141   3.688   3.384   1.550 -0.4373 -0.6116  0.5399
 1667SOL    HW2 5142   3.553   3.358   1.486 -0.2332 -0.2433 -0.0458
 1668SOL     OW 5143   3.163   2.795   2.672  0.1380 -0.0647  0.0521
 1668SOL    HW1 5144   3.100   2.794   2.743  2.5409 -1.9430  2.3825
 1668SOL    HW2 5145   3.207   2.880   2.679 -0.7111  0.4111 -0.2803
 1669SOL     OW 5146   0.287   2.102   0.451 -0.2679  0.4362  0.2738
 1669SOL    HW1 5147   0.315   2.018   0.414 -0.1155  0.4161  0.4333
 1669SOL    HW2 5148   0.304   2.166   0.382 -0.4834  0.3207  0.1126
 1670SOL     OW 5149   2.851   1.540   2.075  0.4029  0.5885 -0.0340
 1670SOL    HW1 5150   2.908   1.608   2.111  0.9116  1.6784 -2.6953
 1670SOL    HW2 5151   2.779   1.587   2.034  0.0569 -0.5289 -0.7678
 1671SOL     OW 5152   0.281   2.292   2.686 -0.8981 -0.0880 -0.4727
 1671SOL    HW1 5153   0.255   2.251   2.604 -0.5759 -3.2659  0.8660
 1671SOL    HW2 5154   0.367   2.254   2.706 -0.7406  0.9801  1.1063
 1672SOL     OW 5155   3.211   0.429   2.576 -0.4903  0.2479 -0.9242
 1672SOL    HW1 5156   3.219   0.470   2.490  0.8542  0.4015 -0.7431
 1672SOL    HW2 5157   3.284   0.464   2.627  0.4957 -2.0444 -0.6309
 1673SOL     OW 5158   1.162   2.740   1.133 -0.1714 -0.6044  0.6451
 1673SOL    HW1 5159   1.095   2.795   1.092 -0.9335 -2.9727 -1.5545
 1673SOL    HW2 5160   1.164   2.768   1.225 -2.1498  1.4208  0.1472
 1674SOL     OW 5161   3.099   0.535   0.010 -0.6829 -0.5858  0.1709
 1674SOL    HW1 5162   3.089   0.613  -0.045 -1.2488  0.1614  1.2963
 1674SOL    HW2 5163   3.011   0.515   0.041 -0.3508 -0.8454  0.9908
 1675SOL     OW 5164   1.790   2.268   3.564 -0.5881 -0.0970 -0.1304
 1675SOL    HW1 5165   1.852   2.199   3.587 -0.8013 -0.3747 -0.3724
 1675SOL    HW2 5166   1.823   2.346   3.609  0.7737  0.1222 -1.4131
 1676SOL     OW 5167   2.585   1.052   0.651 -0.1714  0.4628  0.1112
 1676SOL    HW1 5168   2.591   0.957   0.661  0.0362  0.4836  0.1903
 1676SOL    HW2 5169   2.560   1.065   0.559 -1.2843  0.2992  0.3766
 1677SOL     OW 5170   3.399   2.673   3.082 -0.3968  0.2045  0.2106
 1677SOL    HW1 5171   3.364   2.748   3.130  0.4765  0.4474  0.4902
 1677SOL    HW2 5172   3.341   2.663   3.006  1.0785  2.9420 -1.3985
 1678SOL     OW 5173   1.060   0.564   0.317 -0.0972  0.0653 -0.0242
 1678SOL    HW1 5174   1.062   0.613   0.399  0.4972 -0.5477  0.3379
 1678SOL    HW2 5175   0.972   0.580   0.281 -0.8168 -0.6356  1.3390
 1679SOL     OW 5176   1.265   0.933   0.759  0.4184 -0.0215  0.1864
 1679SOL    HW1 5177   1.290   0.850   0.799 -1.7838 -0.9686 -0.2240
 1679SOL    HW2 5178   1.309   0.934   0.675  1.7596  0.0326  0.8612
 1680SOL     OW 5179   2.345   3.618   0.928  0.3171 -0.9365  0.1807
 1680SOL    HW1 5180   2.439   3.614   0.910  0.2753  0.1134 -0.3257
 1680SOL    HW2 5181   2.314   3.529   0.910  0.8332 -0.7495 -1.8673
 1681SOL     OW 5182   1.541   0.346   0.695 -0.0393 -0.4610  0.3238
 1681SOL    HW1 5183   1.606   0.379   0.757 -1.6185  0.0486  1.7573
 1681SOL    HW2 5184   1.573   0.377   0.610  1.8503 -0.6654  0.9037
 1682SOL     OW 5185   0.037   1.101   1.547  0.1312 -0.3796 -0.3373
 1682SOL    HW1 5186   0.068   1.032   1.606  0.2813 -0.1424 -0.1366
 1682SOL    HW2 5187   0.115   1.152   1.528  0.1695 -0.6999 -1.0809
 1683SOL     OW 5188   3.264   2.272   1.725  0.9359 -0.3721 -0.0749
 1683SOL    HW1 5189   3.276   2.361   1.692  1.2814 -0.8633 -1.3381
 1683SOL    HW2 5190   3.352   2.233   1.721  0.9113 -0.5838  1.0744
 1684SOL     OW 5191   0.894   0.143   1.288  0.0697  0.0385 -0.1521
 1684SOL    HW1 5192   0.977   0.142   1.239 -0.0650  0.2163 -0.3880
 1684SOL    HW2 5193   0.868   0.235   1.288 -0.7018 -0.1634 -1.0720
 1685SOL     OW 5194   1.887   2.500   3.416  0.6938  0.6437 -0.0341
 1685SOL    HW1 5195   1.863   2.408   3.412  0.1256  0.7983 -0.2818
 1685SOL    HW2 5196   1.911   2.515   3.507 -1.1729  0.7240  0.4889
 1686SOL     OW 5197   2.573   3.539   2.006 -0.2956  0.3549 -0.1950
 1686SOL    HW1 5198   2.532   3.567   1.924 -2.2622 -0.8579  0.3038
 1686SOL    HW2 5199   2.521   3.581   2.075 -0.6119 -1.0590  0.4664
 1687SOL     OW 5200   2.299   0.347   2.764 -0.1232  0.1092  0.3826
 1687SOL    HW1 5201   2.301   0.253   2.784  1.9410  0.3764  1.7088
 1687SOL    HW2 5202   2.383   0.365   2.723 -0.0166  1.5778  1.1791
 1688SOL     OW 5203   0.106   2.558   2.260 -0.4489  0.0796 -0.0673
 1688SOL    HW1 5204   0.113   2.634   2.202  2.2562 -0.5737 -0.7776
 1688SOL    HW2 5205   0.160   2.581   2.336  0.5981 -1.1558 -0.3974
 1689SOL     OW 5206   1.915   0.726   2.384  0.0735  0.6158  0.0426
 1689SOL    HW1 5207   1.851   0.759   2.321 -1.3218 -1.6576  0.1619
 1689SOL    HW2 5208   1.866   0.709   2.463  0.7013 -1.4236  0.0632
 1690SOL     OW 5209   2.094   0.627   2.120  0.0325 -0.0830  0.4927
 1690SOL    HW1 5210   2.182   0.639   2.153 -0.1117  4.0545 -0.1374
 1690SOL    HW2 5211   2.046   0.585   2.192  1.4201  1.9614  2.7298
 1691SOL     OW 5212   3.213   2.846   1.886 -0.0802  0.1134 -0.3561
 1691SOL    HW1 5213   3.217   2.799   1.969 -2.0070 -1.1505 -0.9117
 1691SOL    HW2 5214   3.302   2.843   1.852  0.6819  0.4112  1.4965
 1692SOL     OW 5215   3.481   2.928   1.304 -0.4279 -0.7009  0.5586
 1692SOL    HW1 5216   3.429   2.898   1.229  0.5819  0.4245 -0.6694
 1692SOL    HW2 5217   3.562   2.961   1.264 -0.1813  0.6583  2.0812
 1693SOL     OW 5218   2.706   3.433   0.152 -0.1784  0.0528  0.2569
 1693SOL    HW1 5219   2.746   3.434   0.065 -1.3212  0.0659 -0.2933
 1693SOL    HW2 5220   2.685   3.524   0.170 -1.2351 -0.1048 -0.0963
 1694SOL     OW 5221   2.027   0.988   1.510 -0.6162  0.1231 -0.1053
 1694SOL    HW1 5222   2.090   1.015   1.577  0.3515 -0.3449 -0.7887
 1694SOL    HW2 5223   2.003   1.068   1.465  0.2426  0.1916 -0.4556
 1695SOL     OW 5224   2.242   0.011   3.151 -0.1609 -0.3426  0.9146
 1695SOL    HW1 5225   2.263  -0.032   3.234  1.3685  0.4565  0.9552
 1695SOL    HW2 5226   2.318   0.064   3.130  0.0589 -1.4996 -1.6762
 1696SOL     OW 5227   3.602   0.800   0.240  0.4080  0.2460  0.3403
 1696SOL    HW1 5228   3.653   0.830   0.316 -1.0571  1.6377  0.8118
 1696SOL    HW2 5229   3.567   0.880   0.201 -1.4229 -0.6587  0.0427
 1697SOL     OW 5230   0.873   2.596   0.559 -0.2158 -0.6717 -0.1081
 1697SOL    HW1 5231   0.823   2.560   0.486  0.3498  1.7199 -1.8218
 1697SOL    HW2 5232   0.953   2.544   0.562 -1.0832 -2.0430  0.1363
 1698SOL     OW 5233   1.633   2.793   2.549 -0.0178  0.2705 -0.3470
 1698SOL    HW1 5234   1.698   2.738   2.505 -1.7985 -1.7222 -0.6368
 1698SOL    HW2 5235   1.656   2.787   2.642  1.5336  1.4832 -0.6027
 1699SOL     OW 5236   2.321   3.693   3.590  0.5332 -0.1373  0.3498
 1699SOL    HW1 5237   2.282   3.771   3.550 -1.5089 -0.3412  1.7506
 1699SOL    HW2 5238   2.333   3.716   3.682  2.4519 -0.6078  0.2492
 1700SOL     OW 5239   1.753   0.655   0.717  0.0499  0.2224  0.4347
 1700SOL    HW1 5240   1.662   0.665   0.746  0.5352  0.5960  1.9244
 1700SOL    HW2 5241   1.799   0.727   0.759  0.7899  0.9457 -1.5487
 1701SOL     OW 5242   0.391   1.176   0.873 -0.5064 -0.2566 -0.0165
 1701SOL    HW1 5243   0.328   1.121   0.919 -1.2347  0.6144  0.0541
 1701SOL    HW2 5244   0.411   1.246   0.935 -0.8142  0.4315 -0.6789
 1702SOL     OW 5245   0.682   2.704   1.822  0.1763 -0.2262 -0.4871
 1702SOL    HW1 5246   0.742   2.762   1.774 -0.4752  1.2133  0.3650
 1702SOL    HW2 5247   0.725   2.619   1.822  1.0202  0.1623 -2.0670
 1703SOL     OW 5248   3.672   3.078   3.147  0.2773  0.1252  0.8950
 1703SOL    HW1 5249   3.629   3.085   3.232  1.7513  0.5971  1.6410
 1703SOL    HW2 5250   3.641   2.995   3.111  0.9595 -0.9598  2.6974
 1704SOL     OW 5251   1.523   1.402   1.813 -0.8931 -0.0614  0.1440
 1704SOL    HW1 5252   1.433   1.371   1.801 -0.5041 -2.7300  2.9237
 1704SOL    HW2 5253   1.562   1.340   1.875  2.7332  1.3084 -0.5214
 1705SOL     OW 5254   0.539   3.747   3.674  0.0259 -0.5452 -0.2240
 1705SOL    HW1 5255   0.540   3.688   3.598  1.6387 -0.1514 -0.5569
 1705SOL    HW2 5256   0.566   3.691   3.747  1.1127 -0.3609 -0.4591
 1706SOL     OW 5257   0.648   0.533   3.321  0.1543  0.2738  0.0967
 1706SOL    HW1 5258   0.597   0.482   3.258  0.3641 -1.1198  1.0028
 1706SOL    HW2 5259   0.732   0.548   3.278  0.3664 -0.8354  0.0855
 1707SOL     OW 5260   1.032   2.417   0.049  0.5812 -0.4232 -0.3570
 1707SOL    HW1 5261   1.020   2.511   0.062  0.4941 -0.3624 -0.8582
 1707SOL    HW2 5262   1.125   2.407   0.028  0.3864 -0.3227 -1.3225
 1708SOL     OW 5263   3.123   2.027   1.432  0.3763  0.3821  0.6720
 1708SOL    HW1 5264   3.163   2.072   1.358 -0.6277  1.0656  0.5264
 1708SOL    HW2 5265   3.196   2.004   1.489  1.1615 -0.1123 -0.4961
 1709SOL     OW 5266   3.613   2.283   3.650  0.1994  0.1592 -0.4509
 1709SOL    HW1 5267   3.609   2.334   3.731 -1.0420  0.2195 -0.5331
 1709SOL    HW2 5268   3.589   2.345   3.582  0.9421  0.0298 -0.8400
 1710SOL     OW 5269   2.415   0.578   3.661 -0.5974 -0.1177 -0.3572
 1710SOL    HW1 5270   2.464   0.595   3.742 -1.6091  0.9177  0.0642
 1710SOL    HW2 5271   2.330   0.546   3.691 -0.8572 -0.0612 -1.0189
 1711SOL     OW 5272   0.493   0.767   1.710 -0.2586 -0.5658 -0.1817
 1711SOL    HW1 5273   0.463   0.714   1.635 -3.3168  0.9181 -0.1824
 1711SOL    HW2 5274   0.484   0.857   1.680  1.2208  0.0318  1.0726
 1712SOL     OW 5275   2.922   1.337   0.645 -0.5888  0.1427 -0.7323
 1712SOL    HW1 5276   2.883   1.419   0.616  0.1557  0.3325 -1.2164
 1712SOL    HW2 5277   2.851   1.292   0.691 -0.8247  1.3296  0.1009
 1713SOL     OW 5278   0.057   0.591   1.923  0.1111 -0.2167  0.2521
 1713SOL    HW1 5279  -0.001   0.667   1.920 -2.8931 -2.3332  0.2630
 1713SOL    HW2 5280   0.064   0.569   2.016 -0.1346 -0.7275  0.1523
 1714SOL     OW 5281   0.633   3.123   3.330  0.4966 -0.4294  0.2808
 1714SOL    HW1 5282   0.618   3.044   3.279  3.9452 -0.1127 -1.5562
 1714SOL    HW2 5283   0.601   3.194   3.275  0.2525 -0.3438  0.5297
 1715SOL     OW 5284   1.320   0.094   0.564  1.2039 -0.0690 -0.6830
 1715SOL    HW1 5285   1.405   0.066   0.530  1.6240 -1.6299  1.4779
 1715SOL    HW2 5286   1.259   0.028   0.533  1.4630 -1.0767  0.8611
 1716SOL     OW 5287   2.712   1.118   1.907  0.4549 -0.6520 -0.4754
 1716SOL    HW1 5288   2.796   1.158   1.930 -0.3688 -1.0231  4.0795
 1716SOL    HW2 5289   2.662   1.189   1.866  1.7307  0.6844  0.1791
 1717SOL     OW 5290   3.301   1.346   1.007 -0.5664  0.1453 -0.2122
 1717SOL    HW1 5291   3.297   1.257   1.040 -1.3744  0.6884  1.2335
 1717SOL    HW2 5292   3.242   1.347   0.932 -1.8318 -0.1517  0.7482
 1718SOL     OW 5293   1.450   0.657   0.200  0.6155 -0.0228 -0.4032
 1718SOL    HW1 5294   1.476   0.704   0.279 -1.6905  0.7067 -0.0232
 1718SOL    HW2 5295   1.378   0.600   0.228 -0.6377  0.6726 -2.0585
 1719SOL     OW 5296   3.633   1.137   3.350  0.4347  0.7692 -0.0941
 1719SOL    HW1 5297   3.619   1.049   3.315  1.8833 -0.3375  1.9046
 1719SOL    HW2 5298   3.619   1.195   3.275 -2.6701 -0.9391 -1.0065
 1720SOL     OW 5299   3.536   1.478   2.971 -0.1688 -0.7447  0.1401
 1720SOL    HW1 5300   3.622   1.446   2.997  0.9946  0.3064 -2.1622
 1720SOL    HW2 5301   3.509   1.420   2.900 -0.7316 -0.2254 -0.0752
 1721SOL     OW 5302   3.518   0.860   0.712  0.0750 -0.3156  0.7482
 1721SOL    HW1 5303   3.443   0.914   0.686  0.5463 -0.0777 -0.1520
 1721SOL    HW2 5304   3.566   0.913   0.775  1.1107  0.7974 -0.8960
 1722SOL     OW 5305   1.447   2.142   2.414  0.3202 -0.0504  0.2063
 1722SOL    HW1 5306   1.487   2.084   2.479  1.2411 -0.7994 -0.9887
 1722SOL    HW2 5307   1.377   2.090   2.374  0.9403 -0.2531 -0.6477
 1723SOL     OW 5308   2.128   2.456   1.144 -0.1837  0.1746  0.0595
 1723SOL    HW1 5309   2.140   2.492   1.232 -0.3205 -1.6839  0.8943
 1723SOL    HW2 5310   2.213   2.465   1.102  0.7088 -1.4017  1.4013
 1724SOL     OW 5311   2.275   0.627   0.622 -0.2357 -0.2631  0.5357
 1724SOL    HW1 5312   2.317   0.546   0.593 -0.2079 -0.0499 -0.0331
 1724SOL    HW2 5313   2.184   0.603   0.639 -0.1466 -0.4853  0.7075
 1725SOL     OW 5314   0.979   1.901   3.685 -0.5168 -0.1707  0.3824
 1725SOL    HW1 5315   0.926   1.931   3.758 -2.3643 -2.7869  0.2511
 1725SOL    HW2 5316   1.067   1.935   3.704 -1.4407  1.2549  2.5164
 1726SOL     OW 5317   2.170   2.469   1.415  0.3108  0.1731  0.3163
 1726SOL    HW1 5318   2.086   2.429   1.440 -0.3708  0.1125 -1.9126
 1726SOL    HW2 5319   2.196   2.519   1.493  0.5684 -3.4438  2.8286
 1727SOL     OW 5320   2.226   2.985   1.583 -1.5020 -0.1454 -0.3570
 1727SOL    HW1 5321   2.132   2.998   1.569 -1.7107 -1.1030  0.0342
 1727SOL    HW2 5322   2.239   2.891   1.570 -1.6460 -1.2267  5.0138
 1728SOL     OW 5323   2.623   3.456   0.490 -0.2599 -0.0146  0.2446
 1728SOL    HW1 5324   2.606   3.545   0.521 -0.0308 -0.5068  1.9347
 1728SOL    HW2 5325   2.718   3.445   0.498 -0.1622 -0.0999 -0.8920
 1729SOL     OW 5326   2.096   2.112   0.343 -0.2789 -0.2363 -0.0581
 1729SOL    HW1 5327   2.001   2.123   0.352 -0.3971 -0.9710 -0.2513
 1729SOL    HW2 5328   2.130   2.121   0.432 -0.3684  1.3041 -0.1606
 1730SOL     OW 5329   2.982   0.283   2.666  0.2087  0.2431 -0.6445
 1730SOL    HW1 5330   2.956   0.326   2.748  0.3997 -1.8409  0.5860
 1730SOL    HW2 5331   3.052   0.338   2.632 -0.5970  1.7480  0.0076
 1731SOL     OW 5332   1.042   1.984   0.428 -0.2979 -0.1527  0.4789
 1731SOL    HW1 5333   1.032   2.078   0.411  0.0493  0.0750  1.4784
 1731SOL    HW2 5334   0.968   1.962   0.484 -0.0397 -0.3446  0.7454
 1732SOL     OW 5335   2.213   2.437   0.836  0.5579  0.1102  0.4675
 1732SOL    HW1 5336   2.196   2.346   0.858  1.7639 -0.0388  0.8619
 1732SOL    HW2 5337   2.133   2.467   0.794 -0.3065 -0.7773  1.4347
 1733SOL     OW 5338   1.257   1.559   3.671  0.1472 -0.0608 -0.1339
 1733SOL    HW1 5339   1.299   1.635   3.630  0.1214 -0.8266 -1.6648
 1733SOL    HW2 5340   1.170   1.590   3.697  1.1007  1.1763  1.8621
 1734SOL     OW 5341   0.358   2.382   1.743  0.2206 -0.1005 -0.1955
 1734SOL    HW1 5342   0.340   2.432   1.823 -0.6436  0.0220 -0.4586
 1734SOL    HW2 5343   0.319   2.435   1.673  0.6653 -0.3812 -0.6536
 1735SOL     OW 5344   1.085   2.702   0.728  0.2888 -0.4060  0.0598
 1735SOL    HW1 5345   1.091   2.759   0.805 -0.4704 -0.3391  0.0783
 1735SOL    HW2 5346   1.098   2.761   0.654  0.7893 -0.4318  0.1211
 1736SOL     OW 5347   0.184   3.501   2.787  0.1808 -0.3616  0.2150
 1736SOL    HW1 5348   0.261   3.453   2.759  0.8582  0.1518  1.1382
 1736SOL    HW2 5349   0.213   3.552   2.863 -1.2937 -0.9074  1.2047
 1737SOL     OW 5350   2.362   1.789   1.363  0.2965 -0.2966  0.1092
 1737SOL    HW1 5351   2.411   1.854   1.414 -0.4038  0.4239 -0.1153
 1737SOL    HW2 5352   2.399   1.794   1.275  1.5583 -1.5949  0.5205
 1738SOL     OW 5353   1.332   1.222   0.431 -0.1041 -0.2811  0.0009
 1738SOL    HW1 5354   1.285   1.205   0.349 -0.1265 -1.8674  0.3133
 1738SOL    HW2 5355   1.268   1.269   0.485  0.0467  1.1628 -1.0045
 1739SOL     OW 5356   2.748   0.649   3.429  0.2610 -0.3743  0.5535
 1739SOL    HW1 5357   2.659   0.624   3.404  0.7703 -0.8962 -0.7828
 1739SOL    HW2 5358   2.790   0.567   3.453  0.8032 -0.3267 -0.1985
 1740SOL     OW 5359   0.612   2.125   1.933 -0.4306 -0.3158 -0.4556
 1740SOL    HW1 5360   0.594   2.157   2.021  1.0723 -0.7658  0.0394
 1740SOL    HW2 5361   0.664   2.195   1.892 -0.1759 -0.5833 -0.5961
 1741SOL     OW 5362   2.962   0.704   1.243 -0.0621 -0.6508  0.0282
 1741SOL    HW1 5363   2.888   0.659   1.202 -0.7074 -0.8308  1.3383
 1741SOL    HW2 5364   2.948   0.796   1.221 -0.0857 -0.8020 -0.6128
 1742SOL     OW 5365   1.256   2.461   3.428 -0.1798 -0.2178 -0.0916
 1742SOL    HW1 5366   1.284   2.424   3.344 -1.5345  1.6213 -1.4527
 1742SOL    HW2 5367   1.327   2.522   3.452 -0.6683  0.7325 -0.9720
 1743SOL     OW 5368   0.446   0.145   0.444 -0.4464  0.1638  0.7223
 1743SOL    HW1 5369   0.497   0.099   0.378 -0.9036 -1.0402  1.1873
 1743SOL    HW2 5370   0.355   0.136   0.415 -0.5538  0.6984  0.8712
 1744SOL     OW 5371   1.033   1.133   2.563 -0.0126 -0.1330  0.0970
 1744SOL    HW1 5372   1.023   1.126   2.468  2.6088 -1.2803 -0.2074
 1744SOL    HW2 5373   0.946   1.117   2.598 -1.8113  3.5373 -2.1144
 1745SOL     OW 5374   0.412   3.308   2.419  0.4119  0.2187 -0.3933
 1745SOL    HW1 5375   0.424   3.355   2.337  2.5605 -1.3220 -1.0556
 1745SOL    HW2 5376   0.441   3.219   2.399 -1.0033 -0.7383  1.5079
 1746SOL     OW 5377   1.493   2.249   0.958  0.7439 -0.5270  0.0660
 1746SOL    HW1 5378   1.523   2.198   0.882 -0.0920 -0.2676 -0.4587
 1746SOL    HW2 5379   1.553   2.225   1.028  0.3994 -2.2179 -0.1670
 1747SOL     OW 5380   0.482   3.440   2.161 -0.4493  0.1261  0.1924
 1747SOL    HW1 5381   0.435   3.491   2.095 -0.1301 -0.1423 -0.2495
 1747SOL    HW2 5382   0.506   3.359   2.116  0.5920  0.3332  0.3483
 1748SOL     OW 5383   0.185   1.601   3.730 -0.2888  0.1511 -0.1507
 1748SOL    HW1 5384   0.164   1.573   3.640  0.4996 -0.5652 -0.1329
 1748SOL    HW2 5385   0.140   1.538   3.786  0.2032 -0.1390 -0.0750
 1749SOL     OW 5386   1.035   1.204   0.076  0.0291  0.5487 -0.5091
 1749SOL    HW1 5387   1.015   1.245   0.161  2.5698  2.3702 -0.6590
 1749SOL    HW2 5388   0.949   1.186   0.038 -1.2160  1.4703  1.6242
 1750SOL     OW 5389   3.580   2.886   2.950  0.1315  0.2668 -0.4981
 1750SOL    HW1 5390   3.580   2.939   2.870 -0.5558 -0.9941 -1.3678
 1750SOL    HW2 5391   3.581   2.795   2.919 -0.9378 -0.2617  0.9045
 1751SOL     OW 5392   3.079   0.162   0.876 -0.0458 -0.2556  0.0273
 1751SOL    HW1 5393   3.055   0.136   0.965  0.9057  1.3540  0.7908
 1751SOL    HW2 5394   2.996   0.163   0.828 -0.8972  0.9232  1.4545
 1752SOL     OW 5395   0.765   0.199   2.212 -0.6342 -0.2135 -0.1388
 1752SOL    HW1 5396   0.682   0.180   2.168 -1.2970  0.8316  0.6261
 1752SOL    HW2 5397   0.744   0.269   2.273  0.8323  0.0952  0.0324
 1753SOL     OW 5398   0.884   0.925   3.151 -0.0849  0.3341 -0.5471
 1753SOL    HW1 5399   0.876   0.849   3.094 -0.0538 -0.9268  1.0728
 1753SOL    HW2 5400   0.802   0.972   3.140  0.5548  1.0643 -2.8570
 1754SOL     OW 5401   2.614   1.879   2.994  0.3999  0.5120 -0.2772
 1754SOL    HW1 5402   2.666   1.876   2.913 -0.0483 -1.0300 -0.5312
 1754SOL    HW2 5403   2.611   1.789   3.024  0.0214  0.9787  1.1386
 1755SOL     OW 5404   3.573   2.038   2.622  0.2429  0.3487  0.7592
 1755SOL    HW1 5405   3.663   2.047   2.654  0.5176  0.5393 -0.0453
 1755SOL    HW2 5406   3.578   2.058   2.528 -0.3843 -1.1408  0.3779
 1756SOL     OW 5407   3.166   1.049   1.596 -0.7247 -0.6521  0.2019
 1756SOL    HW1 5408   3.190   1.020   1.684 -0.3765  0.4239  0.4798
 1756SOL    HW2 5409   3.078   1.085   1.605  0.9498  3.8764  1.2618
 1757SOL     OW 5410   2.187   3.239   2.643  0.4205  0.2377  0.4429
 1757SOL    HW1 5411   2.282   3.234   2.637  0.4953  0.4200  1.3761
 1757SOL    HW2 5412   2.163   3.170   2.704 -0.3608 -1.9707 -2.1375
 1758SOL     OW 5413   3.225   3.099   3.235 -0.6389  0.4212 -0.2000
 1758SOL    HW1 5414   3.149   3.087   3.291 -0.0975  3.1479  1.2916
 1758SOL    HW2 5415   3.211   3.184   3.193  0.9492  0.3423 -0.9785
 1759SOL     OW 5416   0.563   2.039   0.909  0.3510  0.7515  0.5051
 1759SOL    HW1 5417   0.616   2.061   0.985  1.8194  0.3109 -0.3444
 1759SOL    HW2 5418   0.521   1.957   0.932 -0.5003  1.4381  1.4450
 1760SOL     OW 5419   0.668   2.488   3.599 -0.1189 -0.2575 -0.5690
 1760SOL    HW1 5420   0.641   2.427   3.667 -1.4502 -0.4432 -1.2324
 1760SOL    HW2 5421   0.600   2.482   3.532  0.9197  0.2526 -1.7187
 1761SOL     OW 5422   3.722   2.742   2.038  0.5270  0.2287 -0.1615
 1761SOL    HW1 5423   3.673   2.813   2.081 -1.6360 -1.4585  0.2878
 1761SOL    HW2 5424   3.656   2.682   2.006  2.2339 -0.4979 -2.6000
 1762SOL     OW 5425   2.732   2.462   0.734 -0.3202 -0.1376 -0.1044
 1762SOL    HW1 5426   2.639   2.457   0.710 -1.3566  0.0399  3.3173
 1762SOL    HW2 5427   2.748   2.555   0.749  0.8768  0.0097 -2.0757
 1763SOL     OW 5428   3.476   3.020   2.575  0.0960  0.0737 -0.0649
 1763SOL    HW1 5429   3.404   2.976   2.618  0.6420 -0.8945 -0.1247
 1763SOL    HW2 5430   3.461   3.113   2.592 -1.0889 -0.1233  0.0178
 1764SOL     OW 5431   2.475   3.387   2.905  0.2022 -0.0507 -0.1081
 1764SOL    HW1 5432   2.381   3.407   2.898  0.0176 -0.5843  0.7227
 1764SOL    HW2 5433   2.496   3.404   2.996  1.3435  1.7798 -0.6589
 1765SOL     OW 5434   1.262   1.875   1.049  0.4302 -0.0272 -0.2975
 1765SOL    HW1 5435   1.260   1.790   1.094  1.4803  0.0669 -0.0684
 1765SOL    HW2 5436   1.302   1.935   1.111  0.0156  0.5695 -0.5971
 1766SOL     OW 5437   1.564   3.062   0.230  0.1533 -0.2531 -0.0612
 1766SOL    HW1 5438   1.485   3.102   0.196  0.3985 -0.5496 -1.0203
 1766SOL    HW2 5439   1.537   2.976   0.259 -0.3019  0.4450  1.6654
 1767SOL     OW 5440   1.773   2.564   3.180  0.1830  0.3906 -0.2448
 1767SOL    HW1 5441   1.800   2.550   3.271  2.0499  0.2119 -0.8031
 1767SOL    HW2 5442   1.821   2.641   3.152 -2.1167  1.8425 -0.4332
 1768SOL     OW 5443   3.467   1.654   1.400  0.6740  0.0094 -0.0678
 1768SOL    HW1 5444   3.399   1.616   1.345  1.1627 -2.1317  0.7072
 1768SOL    HW2 5445   3.507   1.579   1.444  2.1991  1.3892  1.0245
 1769NA      NA 5446   1.429   3.423   2.891  0.0484 -0.1827 -0.0956
   3.72990   3.72990   3.72990
