Converted from md.pdb
5444
    0  TYR    N    1   0.865   0.314   1.589
    0  TYR   H1    2   0.912   0.304   1.496
    0  TYR   H2    3   0.762   0.321   1.577
    0  TYR   H3    4   0.890   0.227   1.641
    0  TYR   CA    5   0.902   0.437   1.664
    0  TYR   HA    6   0.854   0.516   1.607
    0  TYR   CB    7   0.819   0.403   1.796
    0  TYR  HB1    8   0.859   0.307   1.836
    0  TYR  HB2    9   0.711   0.387   1.773
    0  TYR   CG   10   0.831   0.501   1.903
    0  TYR  CD1   11   0.910   0.474   2.016
    0  TYR  HD1   12   0.963   0.382   2.037
    0  TYR  CE1   13   0.945   0.579   2.109
    0  TYR  HE1   14   1.002   0.567   2.200
    0  TYR   CZ   15   0.890   0.702   2.094
    0  TYR   OH   16   0.908   0.796   2.195
    0  TYR   HH   17   0.920   0.879   2.150
    0  TYR  CD2   18   0.778   0.628   1.885
    0  TYR  HD2   19   0.728   0.653   1.792
    0  TYR  CE2   20   0.817   0.731   1.977
    0  TYR  HE2   21   0.773   0.825   1.948
    0  TYR    C   22   1.052   0.459   1.676
    0  TYR    O   23   1.127   0.362   1.655
    1  TYR    N   24   1.096   0.582   1.726
    1  TYR   HN   25   1.035   0.660   1.742
    1  TYR   CA   26   1.236   0.613   1.761
    1  TYR   HA   27   1.288   0.529   1.804
    1  TYR   CB   28   1.314   0.688   1.653
    1  TYR  HB1   29   1.296   0.797   1.657
    1  TYR  HB2   30   1.277   0.643   1.558
    1  TYR   CG   31   1.464   0.664   1.671
    1  TYR  CD1   32   1.517   0.529   1.671
    1  TYR  HD1   33   1.460   0.445   1.635
    1  TYR  CE1   34   1.655   0.510   1.702
    1  TYR  HE1   35   1.694   0.411   1.718
    1  TYR   CZ   36   1.732   0.615   1.742
    1  TYR   OH   37   1.862   0.593   1.793
    1  TYR   HH   38   1.889   0.507   1.759
    1  TYR  CD2   39   1.548   0.767   1.702
    1  TYR  HD2   40   1.504   0.865   1.700
    1  TYR  CE2   41   1.681   0.745   1.736
    1  TYR  HE2   42   1.741   0.831   1.763
    1  TYR    C   43   1.234   0.706   1.890
    1  TYR    O   44   1.152   0.791   1.908
    2  TYR    N   45   1.326   0.691   1.981
    2  TYR   HN   46   1.404   0.637   1.951
    2  TYR   CA   47   1.346   0.755   2.102
    2  TYR   HA   48   1.245   0.774   2.134
    2  TYR   CB   49   1.395   0.658   2.212
    2  TYR  HB1   50   1.501   0.635   2.192
    2  TYR  HB2   51   1.334   0.566   2.219
    2  TYR   CG   52   1.372   0.718   2.349
    2  TYR  CD1   53   1.240   0.725   2.404
    2  TYR  HD1   54   1.155   0.698   2.342
    2  TYR  CE1   55   1.228   0.778   2.527
    2  TYR  HE1   56   1.132   0.775   2.577
    2  TYR   CZ   57   1.338   0.819   2.607
    2  TYR   OH   58   1.322   0.882   2.732
    2  TYR   HH   59   1.406   0.925   2.749
    2  TYR  CD2   60   1.485   0.762   2.423
    2  TYR  HD2   61   1.588   0.761   2.390
    2  TYR  CE2   62   1.466   0.809   2.554
    2  TYR  HE2   63   1.550   0.855   2.606
    2  TYR    C   64   1.446   0.868   2.084
    2  TYR    O   65   1.567   0.845   2.068
    3  PRO    N   66   1.410   0.995   2.085
    3  PRO   CD   67   1.275   1.044   2.102
    3  PRO  HD1   68   1.206   0.973   2.051
    3  PRO  HD2   69   1.236   1.060   2.205
    3  PRO   CA   70   1.499   1.098   2.019
    3  PRO   HA   71   1.578   1.056   1.959
    3  PRO   CB   72   1.386   1.169   1.941
    3  PRO  HB1   73   1.366   1.104   1.853
    3  PRO  HB2   74   1.413   1.260   1.883
    3  PRO   CG   75   1.271   1.185   2.035
    3  PRO  HG1   76   1.170   1.211   1.996
    3  PRO  HG2   77   1.290   1.260   2.114
    3  PRO    C   78   1.571   1.184   2.121
    3  PRO    O   79   1.644   1.276   2.076
    4  GLU    N   80   1.559   1.150   2.248
    4  GLU   HN   81   1.500   1.073   2.270
    4  GLU   CA   82   1.609   1.223   2.359
    4  GLU   HA   83   1.594   1.327   2.333
    4  GLU   CB   84   1.525   1.171   2.479
    4  GLU  HB1   85   1.564   1.212   2.575
    4  GLU  HB2   86   1.537   1.061   2.475
    4  GLU   CG   87   1.375   1.197   2.474
    4  GLU  HG1   88   1.328   1.142   2.559
    4  GLU  HG2   89   1.326   1.159   2.382
    4  GLU   CD   90   1.340   1.341   2.480
    4  GLU  OE1   91   1.379   1.404   2.585
    4  GLU  OE2   92   1.270   1.393   2.387
    4  GLU    C   93   1.757   1.216   2.386
    4  GLU    O   94   1.822   1.110   2.361
    5  THR    N   95   1.812   1.321   2.447
    5  THR   HN   96   1.751   1.395   2.471
    5  THR   CA   97   1.960   1.334   2.462
    5  THR   HA   98   2.002   1.244   2.420
    5  THR   CB   99   2.020   1.446   2.375
    5  THR   HB  100   2.129   1.448   2.398
    5  THR  OG1  101   1.950   1.575   2.399
    5  THR  HG1  102   1.856   1.562   2.388
    5  THR  CG2  103   1.997   1.412   2.232
    5  THR 1HG2  104   1.890   1.407   2.204
    5  THR 2HG2  105   2.047   1.314   2.217
    5  THR 3HG2  106   2.045   1.488   2.167
    5  THR    C  107   1.989   1.358   2.611
    5  THR    O  108   1.914   1.421   2.687
    6  GLY    N  109   2.096   1.306   2.675
    6  GLY   HN  110   2.158   1.245   2.626
    6  GLY   CA  111   2.142   1.359   2.808
    6  GLY  HA1  112   2.219   1.288   2.832
    6  GLY  HA2  113   2.071   1.341   2.887
    6  GLY    C  114   2.186   1.498   2.812
    6  GLY    O  115   2.188   1.572   2.715
    7  THR    N  116   2.224   1.552   2.930
    7  THR   HN  117   2.223   1.495   3.012
    7  THR   CA  118   2.294   1.672   2.934
    7  THR   HA  119   2.378   1.667   2.866
    7  THR   CB  120   2.212   1.795   2.913
    7  THR   HB  121   2.151   1.781   2.821
    7  THR  OG1  122   2.301   1.897   2.888
    7  THR  HG1  123   2.248   1.969   2.923
    7  THR  CG2  124   2.114   1.833   3.027
    7  THR 1HG2  125   2.172   1.845   3.121
    7  THR 2HG2  126   2.038   1.753   3.041
    7  THR 3HG2  127   2.057   1.926   3.006
    7  THR    C  128   2.364   1.682   3.077
    7  THR    O  129   2.326   1.641   3.186
    8  TRP    N  130   2.486   1.746   3.073
    8  TRP   HN  131   2.517   1.758   2.979
    8  TRP   CA  132   2.583   1.766   3.180
    8  TRP   HA  133   2.537   1.766   3.278
    8  TRP   CB  134   2.696   1.667   3.170
    8  TRP  HB1  135   2.770   1.674   3.252
    8  TRP  HB2  136   2.753   1.667   3.075
    8  TRP   CG  137   2.659   1.522   3.202
    8  TRP  CD1  138   2.641   1.460   3.316
    8  TRP  HD1  139   2.649   1.504   3.414
    8  TRP  NE1  140   2.607   1.328   3.294
    8  TRP  HE1  141   2.563   1.276   3.364
    8  TRP  CE2  142   2.576   1.310   3.167
    8  TRP  CD2  143   2.617   1.430   3.100
    8  TRP  CE3  144   2.603   1.439   2.960
    8  TRP  HE3  145   2.637   1.527   2.907
    8  TRP  CZ3  146   2.519   1.346   2.891
    8  TRP  HZ3  147   2.483   1.359   2.790
    8  TRP  CZ2  148   2.494   1.218   3.107
    8  TRP  HZ2  149   2.456   1.131   3.158
    8  TRP  CH2  150   2.470   1.236   2.969
    8  TRP  HH2  151   2.407   1.169   2.913
    8  TRP    C  152   2.649   1.902   3.179
    8  TRP    O  153   2.674   1.955   3.072
    9  TYR    N  154   2.680   1.953   3.301
    9  TYR   HN  155   2.643   1.926   3.390
    9  TYR   CA  156   2.749   2.080   3.323
    9  TYR   HA  157   2.786   2.115   3.227
    9  TYR   CB  158   2.641   2.181   3.376
    9  TYR  HB1  159   2.683   2.280   3.401
    9  TYR  HB2  160   2.587   2.145   3.466
    9  TYR   CG  161   2.540   2.209   3.269
    9  TYR  CD1  162   2.415   2.129   3.272
    9  TYR  HD1  163   2.404   2.057   3.351
    9  TYR  CE1  164   2.312   2.172   3.184
    9  TYR  HE1  165   2.219   2.117   3.180
    9  TYR   CZ  166   2.334   2.274   3.090
    9  TYR   OH  167   2.226   2.295   3.006
    9  TYR   HH  168   2.242   2.373   2.953
    9  TYR  CD2  169   2.559   2.300   3.164
    9  TYR  HD2  170   2.655   2.350   3.162
    9  TYR  CE2  171   2.458   2.330   3.071
    9  TYR  HE2  172   2.481   2.395   2.988
    9  TYR    C  173   2.881   2.062   3.407
    9  TYR  OT1  174   2.966   2.149   3.404
    9  TYR  OT2  175   2.887   1.954   3.476
   10  SOL   OW  176   3.659   1.063   1.451
   10  SOL  HW1  177   3.746   1.041   1.417
   10  SOL  HW2  178   3.615   0.979   1.460
   11  SOL   OW  179   2.794   0.788   2.318
   11  SOL  HW1  180   2.765   0.762   2.405
   11  SOL  HW2  181   2.886   0.812   2.330
   12  SOL   OW  182   1.643   1.821   1.504
   12  SOL  HW1  183   1.708   1.831   1.434
   12  SOL  HW2  184   1.647   1.903   1.552
   13  SOL   OW  185   1.982   3.359   3.262
   13  SOL  HW1  186   1.928   3.395   3.192
   13  SOL  HW2  187   2.068   3.346   3.223
   14  SOL   OW  188   0.791   0.080  -0.012
   14  SOL  HW1  189   0.732   0.015   0.025
   14  SOL  HW2  190   0.853   0.100   0.058
   15  SOL   OW  191   2.023   1.619   1.008
   15  SOL  HW1  192   2.092   1.573   0.960
   15  SOL  HW2  193   2.071   1.675   1.070
   16  SOL   OW  194   1.202   0.759   0.786
   16  SOL  HW1  195   1.159   0.806   0.713
   16  SOL  HW2  196   1.291   0.793   0.787
   17  SOL   OW  197   0.345   1.460   3.573
   17  SOL  HW1  198   0.274   1.491   3.516
   17  SOL  HW2  199   0.420   1.452   3.515
   18  SOL   OW  200   1.573   1.032   3.465
   18  SOL  HW1  201   1.604   1.082   3.540
   18  SOL  HW2  202   1.637   0.962   3.453
   19  SOL   OW  203   1.829   2.198   0.305
   19  SOL  HW1  204   1.866   2.204   0.217
   19  SOL  HW2  205   1.734   2.201   0.291
   20  SOL   OW  206   2.917   0.852   2.760
   20  SOL  HW1  207   3.002   0.841   2.802
   20  SOL  HW2  208   2.856   0.864   2.833
   21  SOL   OW  209   3.015   0.189   2.193
   21  SOL  HW1  210   3.089   0.237   2.231
   21  SOL  HW2  211   2.960   0.166   2.268
   22  SOL   OW  212   1.773   2.022   2.889
   22  SOL  HW1  213   1.807   1.995   2.804
   22  SOL  HW2  214   1.689   2.063   2.869
   23  SOL   OW  215   1.284   0.936   3.036
   23  SOL  HW1  216   1.257   0.850   3.067
   23  SOL  HW2  217   1.244   0.997   3.098
   24  SOL   OW  218   1.433   2.270   0.528
   24  SOL  HW1  219   1.443   2.319   0.611
   24  SOL  HW2  220   1.496   2.312   0.469
   25  SOL   OW  221   2.730   3.184   1.985
   25  SOL  HW1  222   2.744   3.092   1.962
   25  SOL  HW2  223   2.814   3.212   2.021
   26  SOL   OW  224   1.882   2.032   0.615
   26  SOL  HW1  225   1.968   2.064   0.587
   26  SOL  HW2  226   1.902   1.961   0.676
   27  SOL   OW  227   1.099   1.169   2.810
   27  SOL  HW1  228   1.161   1.116   2.861
   27  SOL  HW2  229   1.019   1.170   2.862
   28  SOL   OW  230   0.397   0.751   1.972
   28  SOL  HW1  231   0.342   0.749   1.893
   28  SOL  HW2  232   0.386   0.839   2.007
   29  SOL   OW  233   1.833   0.277   0.206
   29  SOL  HW1  234   1.899   0.304   0.269
   29  SOL  HW2  235   1.868   0.302   0.121
   30  SOL   OW  236   1.980   1.699   3.533
   30  SOL  HW1  237   1.888   1.687   3.509
   30  SOL  HW2  238   2.028   1.638   3.476
   31  SOL   OW  239   2.073   0.230   2.694
   31  SOL  HW1  240   2.022   0.161   2.650
   31  SOL  HW2  241   2.135   0.182   2.750
   32  SOL   OW  242   0.061   2.271   0.847
   32  SOL  HW1  243  -0.027   2.243   0.823
   32  SOL  HW2  244   0.048   2.325   0.926
   33  SOL   OW  245   0.604   2.270   3.422
   33  SOL  HW1  246   0.542   2.216   3.471
   33  SOL  HW2  247   0.688   2.256   3.464
   34  SOL   OW  248   3.429   1.669   1.586
   34  SOL  HW1  249   3.394   1.669   1.497
   34  SOL  HW2  250   3.517   1.632   1.577
   35  SOL   OW  251   0.368   0.970   0.128
   35  SOL  HW1  252   0.344   1.004   0.214
   35  SOL  HW2  253   0.286   0.969   0.079
   36  SOL   OW  254   1.814   0.787   2.205
   36  SOL  HW1  255   1.884   0.789   2.140
   36  SOL  HW2  256   1.735   0.807   2.156
   37  SOL   OW  257   0.908   2.900   1.386
   37  SOL  HW1  258   0.869   2.884   1.472
   37  SOL  HW2  259   0.916   2.812   1.347
   38  SOL   OW  260   0.089   3.134   2.380
   38  SOL  HW1  261   0.097   3.081   2.459
   38  SOL  HW2  262   0.179   3.153   2.354
   39  SOL   OW  263   0.595   3.477   0.991
   39  SOL  HW1  264   0.661   3.477   0.922
   39  SOL  HW2  265   0.645   3.474   1.073
   40  SOL   OW  266   3.140   3.513   0.033
   40  SOL  HW1  267   3.094   3.518  -0.050
   40  SOL  HW2  268   3.139   3.420   0.056
   41  SOL   OW  269   1.759   2.904   2.773
   41  SOL  HW1  270   1.784   2.932   2.861
   41  SOL  HW2  271   1.822   2.836   2.750
   42  SOL   OW  272   0.865   2.530   1.067
   42  SOL  HW1  273   0.814   2.519   1.147
   42  SOL  HW2  274   0.874   2.625   1.057
   43  SOL   OW  275   1.884   2.011   2.626
   43  SOL  HW1  276   1.850   2.041   2.542
   43  SOL  HW2  277   1.924   1.926   2.607
   44  SOL   OW  278   2.855   0.387   0.820
   44  SOL  HW1  279   2.828   0.408   0.731
   44  SOL  HW2  280   2.823   0.459   0.873
   45  SOL   OW  281   3.638   2.047   0.706
   45  SOL  HW1  282   3.573   1.995   0.658
   45  SOL  HW2  283   3.645   2.003   0.791
   46  SOL   OW  284   3.626   0.030   1.435
   46  SOL  HW1  285   3.595   0.077   1.357
   46  SOL  HW2  286   3.547  -0.007   1.474
   47  SOL   OW  287   2.504   0.396   2.955
   47  SOL  HW1  288   2.507   0.320   2.898
   47  SOL  HW2  289   2.589   0.440   2.942
   48  SOL   OW  290   0.293   3.245   0.768
   48  SOL  HW1  291   0.336   3.244   0.854
   48  SOL  HW2  292   0.207   3.282   0.785
   49  SOL   OW  293   0.661   1.558   2.116
   49  SOL  HW1  294   0.697   1.616   2.049
   49  SOL  HW2  295   0.641   1.615   2.190
   50  SOL   OW  296   1.131   3.630   2.757
   50  SOL  HW1  297   1.155   3.552   2.707
   50  SOL  HW2  298   1.126   3.699   2.692
   51  SOL   OW  299   0.247   3.408   0.522
   51  SOL  HW1  300   0.201   3.470   0.578
   51  SOL  HW2  301   0.280   3.341   0.581
   52  SOL   OW  302   2.349   1.129   3.509
   52  SOL  HW1  303   2.293   1.084   3.572
   52  SOL  HW2  304   2.412   1.176   3.563
   53  SOL   OW  305   1.402   1.849   1.352
   53  SOL  HW1  306   1.480   1.868   1.404
   53  SOL  HW2  307   1.409   1.756   1.331
   54  SOL   OW  308   0.648   0.392   0.679
   54  SOL  HW1  309   0.622   0.301   0.662
   54  SOL  HW2  310   0.634   0.404   0.773
   55  SOL   OW  311   3.542   3.473   0.802
   55  SOL  HW1  312   3.477   3.543   0.798
   55  SOL  HW2  313   3.513   3.409   0.738
   56  SOL   OW  314   0.600   0.202   3.367
   56  SOL  HW1  315   0.689   0.236   3.350
   56  SOL  HW2  316   0.584   0.223   3.459
   57  SOL   OW  317   0.679   3.461   3.472
   57  SOL  HW1  318   0.674   3.546   3.428
   57  SOL  HW2  319   0.704   3.482   3.562
   58  SOL   OW  320   2.561   1.191   0.513
   58  SOL  HW1  321   2.488   1.159   0.461
   58  SOL  HW2  322   2.521   1.225   0.593
   59  SOL   OW  323   2.465   2.876   0.389
   59  SOL  HW1  324   2.500   2.955   0.349
   59  SOL  HW2  325   2.399   2.907   0.451
   60  SOL   OW  326   1.382   3.348   2.985
   60  SOL  HW1  327   1.372   3.333   2.891
   60  SOL  HW2  328   1.460   3.296   3.009
   61  SOL   OW  329   1.032   2.308   0.773
   61  SOL  HW1  330   1.071   2.317   0.686
   61  SOL  HW2  331   1.105   2.322   0.833
   62  SOL   OW  332   1.403   3.093   0.152
   62  SOL  HW1  333   1.323   3.046   0.128
   62  SOL  HW2  334   1.374   3.158   0.216
   63  SOL   OW  335   0.553   2.859   1.194
   63  SOL  HW1  336   0.621   2.843   1.130
   63  SOL  HW2  337   0.474   2.877   1.142
   64  SOL   OW  338   1.793   2.711   3.065
   64  SOL  HW1  339   1.701   2.690   3.049
   64  SOL  HW2  340   1.820   2.652   3.135
   65  SOL   OW  341   1.377   1.877   0.516
   65  SOL  HW1  342   1.315   1.933   0.562
   65  SOL  HW2  343   1.451   1.935   0.495
   66  SOL   OW  344   2.134   1.009   0.939
   66  SOL  HW1  345   2.090   0.975   1.017
   66  SOL  HW2  346   2.125   1.104   0.946
   67  SOL   OW  347   3.724   1.918   2.660
   67  SOL  HW1  348   3.766   2.000   2.633
   67  SOL  HW2  349   3.631   1.934   2.648
   68  SOL   OW  350   3.293   0.815   2.291
   68  SOL  HW1  351   3.332   0.878   2.352
   68  SOL  HW2  352   3.217   0.861   2.255
   69  SOL   OW  353   0.372   2.987   0.414
   69  SOL  HW1  354   0.319   3.044   0.358
   69  SOL  HW2  355   0.309   2.928   0.455
   70  SOL   OW  356   0.408   1.393   1.299
   70  SOL  HW1  357   0.326   1.432   1.271
   70  SOL  HW2  358   0.461   1.389   1.219
   71  SOL   OW  359   2.733   0.224   0.527
   71  SOL  HW1  360   2.744   0.138   0.568
   71  SOL  HW2  361   2.814   0.237   0.476
   72  SOL   OW  362   2.101   1.012   1.820
   72  SOL  HW1  363   2.038   1.073   1.860
   72  SOL  HW2  364   2.085   1.019   1.726
   73  SOL   OW  365   2.447   1.890   0.590
   73  SOL  HW1  366   2.409   1.905   0.676
   73  SOL  HW2  367   2.542   1.895   0.604
   74  SOL   OW  368   0.260   3.055   2.045
   74  SOL  HW1  369   0.257   2.984   1.981
   74  SOL  HW2  370   0.272   3.011   2.129
   75  SOL   OW  371   3.440   2.969   0.226
   75  SOL  HW1  372   3.373   2.946   0.290
   75  SOL  HW2  373   3.467   3.057   0.251
   76  SOL   OW  374   1.757   2.556   0.785
   76  SOL  HW1  375   1.766   2.651   0.795
   76  SOL  HW2  376   1.823   2.532   0.720
   77  SOL   OW  377  -0.031   1.783   1.730
   77  SOL  HW1  378   0.019   1.702   1.720
   77  SOL  HW2  379   0.028   1.851   1.700
   78  SOL   OW  380   2.368   1.221   2.553
   78  SOL  HW1  381   2.354   1.196   2.462
   78  SOL  HW2  382   2.401   1.311   2.548
   79  SOL   OW  383   0.207   1.980   0.684
   79  SOL  HW1  384   0.160   1.917   0.739
   79  SOL  HW2  385   0.228   2.052   0.744
   80  SOL   OW  386   2.586   3.755   3.413
   80  SOL  HW1  387   2.548   3.688   3.358
   80  SOL  HW2  388   2.541   3.747   3.497
   81  SOL   OW  389   3.562   2.846   2.654
   81  SOL  HW1  390   3.488   2.841   2.594
   81  SOL  HW2  391   3.561   2.763   2.701
   82  SOL   OW  392   2.882   0.777   1.372
   82  SOL  HW1  393   2.933   0.703   1.405
   82  SOL  HW2  394   2.852   0.748   1.285
   83  SOL   OW  395   0.188   1.103   2.377
   83  SOL  HW1  396   0.191   1.008   2.370
   83  SOL  HW2  397   0.100   1.122   2.409
   84  SOL   OW  398   1.276   0.808   1.377
   84  SOL  HW1  399   1.370   0.814   1.365
   84  SOL  HW2  400   1.254   0.718   1.353
   85  SOL   OW  401   0.318   3.692   1.952
   85  SOL  HW1  402   0.298   3.731   1.867
   85  SOL  HW2  403   0.364   3.611   1.932
   86  SOL   OW  404   3.741   3.063   1.583
   86  SOL  HW1  405   3.786   3.147   1.575
   86  SOL  HW2  406   3.656   3.077   1.539
   87  SOL   OW  407   0.867   2.099   3.209
   87  SOL  HW1  408   0.952   2.054   3.210
   87  SOL  HW2  409   0.855   2.130   3.298
   88  SOL   OW  410   0.264   0.504   3.726
   88  SOL  HW1  411   0.241   0.422   3.682
   88  SOL  HW2  412   0.358   0.514   3.709
   89  SOL   OW  413   2.379   0.887   0.616
   89  SOL  HW1  414   2.450   0.840   0.659
   89  SOL  HW2  415   2.361   0.962   0.674
   90  SOL   OW  416   3.052   0.895   1.193
   90  SOL  HW1  417   3.076   0.987   1.185
   90  SOL  HW2  418   3.007   0.888   1.277
   91  SOL   OW  419   2.684   0.208   1.472
   91  SOL  HW1  420   2.628   0.282   1.498
   91  SOL  HW2  421   2.773   0.239   1.485
   92  SOL   OW  422   0.923   0.287   0.922
   92  SOL  HW1  423   0.948   0.362   0.868
   92  SOL  HW2  424   0.988   0.220   0.900
   93  SOL   OW  425   0.027   3.468   1.179
   93  SOL  HW1  426   0.106   3.502   1.220
   93  SOL  HW2  427   0.053   3.384   1.142
   94  SOL   OW  428   1.792   0.578   0.291
   94  SOL  HW1  429   1.828   0.661   0.322
   94  SOL  HW2  430   1.734   0.550   0.363
   95  SOL   OW  431   1.095   0.334   3.107
   95  SOL  HW1  432   1.010   0.303   3.075
   95  SOL  HW2  433   1.156   0.263   3.086
   96  SOL   OW  434   0.918   0.047   1.744
   96  SOL  HW1  435   0.841   0.035   1.688
   96  SOL  HW2  436   0.891   0.014   1.829
   97  SOL   OW  437   2.313   2.514   2.317
   97  SOL  HW1  438   2.334   2.548   2.404
   97  SOL  HW2  439   2.240   2.453   2.331
   98  SOL   OW  440   3.512   2.380   2.845
   98  SOL  HW1  441   3.584   2.317   2.845
   98  SOL  HW2  442   3.545   2.454   2.895
   99  SOL   OW  443   3.683   2.885   2.307
   99  SOL  HW1  444   3.660   2.939   2.231
   99  SOL  HW2  445   3.743   2.940   2.359
  100  SOL   OW  446   1.652   0.436   0.468
  100  SOL  HW1  447   1.631   0.349   0.433
  100  SOL  HW2  448   1.644   0.426   0.563
  101  SOL   OW  449   3.049   3.060   2.568
  101  SOL  HW1  450   3.128   3.007   2.579
  101  SOL  HW2  451   3.058   3.129   2.634
  102  SOL   OW  452   2.344   2.643   1.842
  102  SOL  HW1  453   2.348   2.718   1.901
  102  SOL  HW2  454   2.356   2.567   1.899
  103  SOL   OW  455   1.164   1.454   0.532
  103  SOL  HW1  456   1.241   1.474   0.585
  103  SOL  HW2  457   1.091   1.495   0.577
  104  SOL   OW  458   1.068   2.068   1.963
  104  SOL  HW1  459   1.071   2.155   2.003
  104  SOL  HW2  460   0.975   2.050   1.951
  105  SOL   OW  461   0.508   1.660   1.129
  105  SOL  HW1  462   0.578   1.669   1.065
  105  SOL  HW2  463   0.545   1.695   1.211
  106  SOL   OW  464   2.793   3.320   0.948
  106  SOL  HW1  465   2.766   3.289   0.862
  106  SOL  HW2  466   2.850   3.251   0.981
  107  SOL   OW  467   0.227   1.410   3.200
  107  SOL  HW1  468   0.211   1.472   3.271
  107  SOL  HW2  469   0.145   1.409   3.151
  108  SOL   OW  470   2.724   0.533   1.353
  108  SOL  HW1  471   2.711   0.627   1.361
  108  SOL  HW2  472   2.653   0.495   1.405
  109  SOL   OW  473   0.700   1.016   2.941
  109  SOL  HW1  474   0.763   0.960   2.895
  109  SOL  HW2  475   0.742   1.102   2.944
  110  SOL   OW  476   1.901   2.772   2.051
  110  SOL  HW1  477   1.886   2.677   2.047
  110  SOL  HW2  478   1.961   2.784   2.124
  111  SOL   OW  479   1.947   0.871   0.747
  111  SOL  HW1  480   1.966   0.860   0.840
  111  SOL  HW2  481   2.005   0.943   0.719
  112  SOL   OW  482   0.057   0.597   3.294
  112  SOL  HW1  483   0.102   0.681   3.285
  112  SOL  HW2  484   0.125   0.531   3.284
  113  SOL   OW  485   1.681   1.296   1.795
  113  SOL  HW1  486   1.630   1.316   1.874
  113  SOL  HW2  487   1.698   1.382   1.756
  114  SOL   OW  488   2.211   2.958   2.820
  114  SOL  HW1  489   2.192   2.915   2.736
  114  SOL  HW2  490   2.125   2.975   2.858
  115  SOL   OW  491   0.047   2.172   2.617
  115  SOL  HW1  492  -0.034   2.213   2.587
  115  SOL  HW2  493   0.116   2.222   2.574
  116  SOL   OW  494   2.710   1.006   0.665
  116  SOL  HW1  495   2.644   1.069   0.636
  116  SOL  HW2  496   2.659   0.931   0.697
  117  SOL   OW  497   1.773   2.115   1.911
  117  SOL  HW1  498   1.689   2.126   1.865
  117  SOL  HW2  499   1.797   2.023   1.894
  118  SOL   OW  500   0.886   3.705   1.991
  118  SOL  HW1  501   0.874   3.732   2.082
  118  SOL  HW2  502   0.978   3.679   1.986
  119  SOL   OW  503   0.410   2.116   1.437
  119  SOL  HW1  504   0.487   2.171   1.423
  119  SOL  HW2  505   0.445   2.026   1.435
  120  SOL   OW  506   0.244   2.382   1.089
  120  SOL  HW1  507   0.265   2.466   1.048
  120  SOL  HW2  508   0.328   2.336   1.092
  121  SOL   OW  509   0.310   1.956   1.104
  121  SOL  HW1  510   0.304   2.009   1.024
  121  SOL  HW2  511   0.297   1.866   1.074
  122  SOL   OW  512   0.317   2.178   2.472
  122  SOL  HW1  513   0.240   2.168   2.417
  122  SOL  HW2  514   0.383   2.121   2.432
  123  SOL   OW  515   2.823   2.059   0.153
  123  SOL  HW1  516   2.907   2.070   0.108
  123  SOL  HW2  517   2.812   2.140   0.203
  124  SOL   OW  518   0.438   3.672   3.491
  124  SOL  HW1  519   0.436   3.767   3.503
  124  SOL  HW2  520   0.417   3.637   3.578
  125  SOL   OW  521   3.005   0.555   2.681
  125  SOL  HW1  522   3.029   0.647   2.696
  125  SOL  HW2  523   3.062   0.506   2.740
  126  SOL   OW  524   3.234   2.446   3.299
  126  SOL  HW1  525   3.281   2.526   3.323
  126  SOL  HW2  526   3.301   2.389   3.263
  127  SOL   OW  527   3.589   1.747   0.774
  127  SOL  HW1  528   3.684   1.738   0.769
  127  SOL  HW2  529   3.566   1.709   0.859
  128  SOL   OW  530  -0.005   2.566   0.106
  128  SOL  HW1  531  -0.016   2.473   0.086
  128  SOL  HW2  532   0.071   2.592   0.054
  129  SOL   OW  533   0.938   3.334   0.766
  129  SOL  HW1  534   0.852   3.373   0.754
  129  SOL  HW2  535   0.943   3.266   0.698
  130  SOL   OW  536   0.890   2.170   3.471
  130  SOL  HW1  537   0.973   2.209   3.498
  130  SOL  HW2  538   0.879   2.093   3.527
  131  SOL   OW  539   1.441   2.579   1.720
  131  SOL  HW1  540   1.467   2.552   1.808
  131  SOL  HW2  541   1.353   2.614   1.731
  132  SOL   OW  542   0.030   3.241   1.944
  132  SOL  HW1  543  -0.024   3.168   1.914
  132  SOL  HW2  544   0.106   3.200   1.984
  133  SOL   OW  545   2.982   3.070   1.355
  133  SOL  HW1  546   2.919   3.040   1.290
  133  SOL  HW2  547   2.980   3.165   1.350
  134  SOL   OW  548   1.733   2.872   0.063
  134  SOL  HW1  549   1.708   2.950   0.012
  134  SOL  HW2  550   1.778   2.907   0.139
  135  SOL   OW  551   1.379   1.444   3.597
  135  SOL  HW1  552   1.407   1.460   3.507
  135  SOL  HW2  553   1.382   1.349   3.606
  136  SOL   OW  554   3.063   1.324  -0.016
  136  SOL  HW1  555   3.092   1.325   0.075
  136  SOL  HW2  556   3.081   1.412  -0.048
  137  SOL   OW  557   0.869   2.482   3.512
  137  SOL  HW1  558   0.902   2.407   3.561
  137  SOL  HW2  559   0.935   2.498   3.445
  138  SOL   OW  560   1.508   1.956   2.063
  138  SOL  HW1  561   1.424   1.930   2.025
  138  SOL  HW2  562   1.486   2.024   2.127
  139  SOL   OW  563   2.477   1.350   0.923
  139  SOL  HW1  564   2.558   1.302   0.942
  139  SOL  HW2  565   2.440   1.368   1.010
  140  SOL   OW  566   1.678   0.221   1.328
  140  SOL  HW1  567   1.632   0.162   1.268
  140  SOL  HW2  568   1.677   0.306   1.284
  141  SOL   OW  569   0.807   2.126   2.235
  141  SOL  HW1  570   0.771   2.214   2.244
  141  SOL  HW2  571   0.901   2.137   2.250
  142  SOL   OW  572   2.271   0.683   1.421
  142  SOL  HW1  573   2.235   0.709   1.336
  142  SOL  HW2  574   2.359   0.651   1.401
  143  SOL   OW  575   1.829   1.037   0.515
  143  SOL  HW1  576   1.763   0.967   0.517
  143  SOL  HW2  577   1.909   0.994   0.486
  144  SOL   OW  578   3.412   2.912   1.774
  144  SOL  HW1  579   3.431   2.994   1.820
  144  SOL  HW2  580   3.495   2.865   1.775
  145  SOL   OW  581   1.662   1.791   2.608
  145  SOL  HW1  582   1.618   1.869   2.643
  145  SOL  HW2  583   1.726   1.767   2.675
  146  SOL   OW  584   1.438   0.383   0.935
  146  SOL  HW1  585   1.423   0.463   0.986
  146  SOL  HW2  586   1.351   0.346   0.923
  147  SOL   OW  587   3.608   2.448   0.966
  147  SOL  HW1  588   3.550   2.399   1.024
  147  SOL  HW2  589   3.549   2.501   0.912
  148  SOL   OW  590   0.818   0.510   3.617
  148  SOL  HW1  591   0.903   0.467   3.604
  148  SOL  HW2  592   0.817   0.536   3.709
  149  SOL   OW  593   2.014   2.853   2.481
  149  SOL  HW1  594   1.964   2.925   2.518
  149  SOL  HW2  595   2.019   2.872   2.388
  150  SOL   OW  596   2.112   0.511   2.693
  150  SOL  HW1  597   2.132   0.548   2.607
  150  SOL  HW2  598   2.090   0.419   2.675
  151  SOL   OW  599   2.565   2.051   1.900
  151  SOL  HW1  600   2.580   2.027   1.991
  151  SOL  HW2  601   2.601   1.978   1.850
  152  SOL   OW  602   3.479   1.627   1.001
  152  SOL  HW1  603   3.394   1.631   1.046
  152  SOL  HW2  604   3.540   1.597   1.069
  153  SOL   OW  605   2.692   1.220   1.740
  153  SOL  HW1  606   2.633   1.242   1.812
  153  SOL  HW2  607   2.769   1.274   1.755
  154  SOL   OW  608   1.289   1.017   3.535
  154  SOL  HW1  609   1.234   0.968   3.474
  154  SOL  HW2  610   1.375   1.017   3.495
  155  SOL   OW  611   2.764   1.453   2.605
  155  SOL  HW1  612   2.808   1.496   2.678
  155  SOL  HW2  613   2.830   1.452   2.535
  156  SOL   OW  614   3.077   3.631   2.831
  156  SOL  HW1  615   3.138   3.666   2.897
  156  SOL  HW2  616   3.129   3.567   2.782
  157  SOL   OW  617   2.619   0.522   1.783
  157  SOL  HW1  618   2.662   0.437   1.782
  157  SOL  HW2  619   2.685   0.584   1.751
  158  SOL   OW  620   0.680   2.219   1.658
  158  SOL  HW1  621   0.768   2.201   1.623
  158  SOL  HW2  622   0.652   2.297   1.611
  159  SOL   OW  623   1.952   0.532   2.094
  159  SOL  HW1  624   1.930   0.593   2.023
  159  SOL  HW2  625   2.006   0.583   2.154
  160  SOL   OW  626   0.782   1.143   3.668
  160  SOL  HW1  627   0.851   1.174   3.728
  160  SOL  HW2  628   0.817   1.160   3.581
  161  SOL   OW  629   1.621   3.345   3.164
  161  SOL  HW1  630   1.716   3.361   3.161
  161  SOL  HW2  631   1.613   3.250   3.163
  162  SOL   OW  632   0.703   1.127   1.701
  162  SOL  HW1  633   0.726   1.169   1.784
  162  SOL  HW2  634   0.608   1.119   1.704
  163  SOL   OW  635   1.976   3.688   0.834
  163  SOL  HW1  636   1.948   3.766   0.786
  163  SOL  HW2  637   2.046   3.719   0.891
  164  SOL   OW  638   1.448   0.464   2.625
  164  SOL  HW1  639   1.538   0.496   2.615
  164  SOL  HW2  640   1.394   0.542   2.622
  165  SOL   OW  641   0.415   3.082   2.762
  165  SOL  HW1  642   0.505   3.111   2.746
  165  SOL  HW2  643   0.396   3.110   2.852
  166  SOL   OW  644   2.125   0.615   0.207
  166  SOL  HW1  645   2.134   0.520   0.215
  166  SOL  HW2  646   2.194   0.650   0.264
  167  SOL   OW  647   1.989   1.007   2.600
  167  SOL  HW1  648   1.932   1.056   2.541
  167  SOL  HW2  649   1.936   0.994   2.679
  168  SOL   OW  650   2.743   1.566   1.618
  168  SOL  HW1  651   2.795   1.512   1.677
  168  SOL  HW2  652   2.768   1.537   1.531
  169  SOL   OW  653   2.203   2.522   0.462
  169  SOL  HW1  654   2.121   2.495   0.419
  169  SOL  HW2  655   2.270   2.465   0.423
  170  SOL   OW  656   1.203   3.134   2.994
  170  SOL  HW1  657   1.260   3.203   2.960
  170  SOL  HW2  658   1.170   3.168   3.076
  171  SOL   OW  659   3.240   1.327   3.048
  171  SOL  HW1  660   3.219   1.321   3.141
  171  SOL  HW2  661   3.292   1.248   3.030
  172  SOL   OW  662   3.083   0.585   2.258
  172  SOL  HW1  663   3.068   0.678   2.276
  172  SOL  HW2  664   3.034   0.568   2.178
  173  SOL   OW  665   1.210   1.361   1.715
  173  SOL  HW1  666   1.248   1.284   1.671
  173  SOL  HW2  667   1.239   1.435   1.662
  174  SOL   OW  668   1.650   0.382   3.587
  174  SOL  HW1  669   1.609   0.301   3.556
  174  SOL  HW2  670   1.734   0.384   3.543
  175  SOL   OW  671   0.978   3.521   0.423
  175  SOL  HW1  672   1.056   3.472   0.451
  175  SOL  HW2  673   0.961   3.581   0.495
  176  SOL   OW  674   0.920   1.588   2.545
  176  SOL  HW1  675   0.951   1.509   2.589
  176  SOL  HW2  676   0.973   1.594   2.465
  177  SOL   OW  677   2.422   3.329   2.580
  177  SOL  HW1  678   2.497   3.298   2.529
  177  SOL  HW2  679   2.397   3.254   2.634
  178  SOL   OW  680   2.572   3.036   0.695
  178  SOL  HW1  681   2.634   3.075   0.633
  178  SOL  HW2  682   2.607   3.059   0.781
  179  SOL   OW  683   3.183   1.605   0.380
  179  SOL  HW1  684   3.143   1.657   0.310
  179  SOL  HW2  685   3.147   1.642   0.461
  180  SOL   OW  686   0.814   0.963   1.289
  180  SOL  HW1  687   0.884   0.972   1.354
  180  SOL  HW2  688   0.830   0.878   1.248
  181  SOL   OW  689   1.661   2.657   2.632
  181  SOL  HW1  690   1.626   2.587   2.688
  181  SOL  HW2  691   1.745   2.680   2.673
  182  SOL   OW  692   3.542   0.976   0.551
  182  SOL  HW1  693   3.481   1.050   0.541
  182  SOL  HW2  694   3.515   0.914   0.483
  183  SOL   OW  695   2.639   3.480   1.324
  183  SOL  HW1  696   2.711   3.423   1.297
  183  SOL  HW2  697   2.601   3.437   1.401
  184  SOL   OW  698   0.142   1.483   1.603
  184  SOL  HW1  699   0.116   1.397   1.638
  184  SOL  HW2  700   0.072   1.505   1.541
  185  SOL   OW  701   2.792   0.042   0.017
  185  SOL  HW1  702   2.827   0.004  -0.063
  185  SOL  HW2  703   2.852   0.013   0.086
  186  SOL   OW  704   3.194   2.042   3.274
  186  SOL  HW1  705   3.108   2.062   3.312
  186  SOL  HW2  706   3.256   2.090   3.330
  187  SOL   OW  707   3.542   2.801   0.050
  187  SOL  HW1  708   3.503   2.856   0.118
  187  SOL  HW2  709   3.613   2.755   0.093
  188  SOL   OW  710   2.784   1.549   0.095
  188  SOL  HW1  711   2.855   1.613   0.098
  188  SOL  HW2  712   2.816   1.475   0.145
  189  SOL   OW  713   3.548   1.594   0.543
  189  SOL  HW1  714   3.558   1.608   0.449
  189  SOL  HW2  715   3.568   1.678   0.583
  190  SOL   OW  716   1.267   3.077   1.012
  190  SOL  HW1  717   1.271   3.169   1.037
  190  SOL  HW2  718   1.312   3.031   1.082
  191  SOL   OW  719   1.721   0.484   2.387
  191  SOL  HW1  720   1.814   0.467   2.402
  191  SOL  HW2  721   1.718   0.575   2.356
  192  SOL   OW  722   0.267   0.749   0.262
  192  SOL  HW1  723   0.316   0.794   0.194
  192  SOL  HW2  724   0.327   0.743   0.336
  193  SOL   OW  725   3.513   0.159   1.228
  193  SOL  HW1  726   3.564   0.159   1.148
  193  SOL  HW2  727   3.492   0.252   1.243
  194  SOL   OW  728   2.012   0.223   1.004
  194  SOL  HW1  729   2.073   0.241   0.933
  194  SOL  HW2  730   2.068   0.200   1.078
  195  SOL   OW  731   1.847   1.882   1.805
  195  SOL  HW1  732   1.876   1.892   1.714
  195  SOL  HW2  733   1.830   1.788   1.814
  196  SOL   OW  734   3.524   2.409   1.794
  196  SOL  HW1  735   3.572   2.388   1.714
  196  SOL  HW2  736   3.589   2.401   1.864
  197  SOL   OW  737   3.151   0.586   0.891
  197  SOL  HW1  738   3.074   0.611   0.942
  197  SOL  HW2  739   3.223   0.589   0.954
  198  SOL   OW  740   1.718   1.689   0.150
  198  SOL  HW1  741   1.746   1.661   0.063
  198  SOL  HW2  742   1.793   1.737   0.185
  199  SOL   OW  743   0.904   3.392   1.613
  199  SOL  HW1  744   0.953   3.310   1.618
  199  SOL  HW2  745   0.970   3.460   1.599
  200  SOL   OW  746   0.663   3.124   1.332
  200  SOL  HW1  747   0.617   3.169   1.261
  200  SOL  HW2  748   0.648   3.031   1.317
  201  SOL   OW  749   1.175   1.841   2.568
  201  SOL  HW1  750   1.129   1.810   2.645
  201  SOL  HW2  751   1.265   1.811   2.580
  202  SOL   OW  752   0.819   0.481   0.439
  202  SOL  HW1  753   0.743   0.493   0.496
  202  SOL  HW2  754   0.883   0.545   0.471
  203  SOL   OW  755   1.747   0.567   2.690
  203  SOL  HW1  756   1.799   0.575   2.770
  203  SOL  HW2  757   1.796   0.616   2.625
  204  SOL   OW  758   3.306   0.338   0.554
  204  SOL  HW1  759   3.314   0.315   0.462
  204  SOL  HW2  760   3.386   0.304   0.594
  205  SOL   OW  761   0.535   3.225   3.468
  205  SOL  HW1  762   0.515   3.205   3.559
  205  SOL  HW2  763   0.591   3.303   3.472
  206  SOL   OW  764   1.178   3.567   1.985
  206  SOL  HW1  765   1.249   3.513   1.952
  206  SOL  HW2  766   1.203   3.587   2.075
  207  SOL   OW  767   1.789   0.073   1.975
  207  SOL  HW1  768   1.880   0.059   1.952
  207  SOL  HW2  769   1.783   0.167   1.991
  208  SOL   OW  770   0.512   0.562   2.113
  208  SOL  HW1  771   0.569   0.631   2.147
  208  SOL  HW2  772   0.459   0.605   2.046
  209  SOL   OW  773   1.851   0.558   0.755
  209  SOL  HW1  774   1.913   0.495   0.791
  209  SOL  HW2  775   1.902   0.638   0.745
  210  SOL   OW  776   3.480   0.845   0.316
  210  SOL  HW1  777   3.559   0.799   0.286
  210  SOL  HW2  778   3.443   0.884   0.236
  211  SOL   OW  779   0.955  -0.001   0.601
  211  SOL  HW1  780   0.934   0.075   0.547
  211  SOL  HW2  781   0.984   0.036   0.684
  212  SOL   OW  782   1.335   2.160   0.311
  212  SOL  HW1  783   1.272   2.229   0.291
  212  SOL  HW2  784   1.372   2.186   0.395
  213  SOL   OW  785   0.322   3.107   3.306
  213  SOL  HW1  786   0.272   3.145   3.379
  213  SOL  HW2  787   0.413   3.114   3.333
  214  SOL   OW  788   2.329   2.674   0.235
  214  SOL  HW1  789   2.390   2.707   0.301
  214  SOL  HW2  790   2.348   2.580   0.229
  215  SOL   OW  791   2.126   3.647   1.092
  215  SOL  HW1  792   2.182   3.586   1.043
  215  SOL  HW2  793   2.044   3.600   1.106
  216  SOL   OW  794   3.465   0.420   0.018
  216  SOL  HW1  795   3.408   0.492   0.045
  216  SOL  HW2  796   3.446   0.350   0.080
  217  SOL   OW  797   3.526   3.559   2.406
  217  SOL  HW1  798   3.516   3.558   2.311
  217  SOL  HW2  799   3.511   3.650   2.430
  218  SOL   OW  800   1.112   0.897   0.092
  218  SOL  HW1  801   1.110   0.929   0.182
  218  SOL  HW2  802   1.139   0.805   0.100
  219  SOL   OW  803   2.370   2.388   2.048
  219  SOL  HW1  804   2.330   2.460   2.097
  219  SOL  HW2  805   2.332   2.309   2.087
  220  SOL   OW  806   1.528   3.056   0.460
  220  SOL  HW1  807   1.448   3.004   0.460
  220  SOL  HW2  808   1.515   3.121   0.392
  221  SOL   OW  809   3.176   3.695   2.314
  221  SOL  HW1  810   3.141   3.757   2.250
  221  SOL  HW2  811   3.270   3.699   2.302
  222  SOL   OW  812   0.861   0.368   3.379
  222  SOL  HW1  813   0.841   0.439   3.441
  222  SOL  HW2  814   0.914   0.410   3.311
  223  SOL   OW  815   3.515   0.967   1.709
  223  SOL  HW1  816   3.598   0.980   1.755
  223  SOL  HW2  817   3.459   1.039   1.738
  224  SOL   OW  818   2.709   1.942   3.667
  224  SOL  HW1  819   2.758   1.973   3.743
  224  SOL  HW2  820   2.773   1.935   3.597
  225  SOL   OW  821   1.060   2.401   1.340
  225  SOL  HW1  822   1.098   2.471   1.394
  225  SOL  HW2  823   1.111   2.323   1.363
  226  SOL   OW  824   1.331   2.019   1.145
  226  SOL  HW1  825   1.345   1.988   1.056
  226  SOL  HW2  826   1.336   1.940   1.199
  227  SOL   OW  827   0.480   2.463   0.302
  227  SOL  HW1  828   0.493   2.529   0.233
  227  SOL  HW2  829   0.413   2.405   0.267
  228  SOL   OW  830   3.247   1.416   2.425
  228  SOL  HW1  831   3.211   1.417   2.337
  228  SOL  HW2  832   3.195   1.481   2.473
  229  SOL   OW  833   3.715   3.333   2.243
  229  SOL  HW1  834   3.759   3.260   2.285
  229  SOL  HW2  835   3.682   3.386   2.316
  230  SOL   OW  836   0.371   3.060   2.453
  230  SOL  HW1  837   0.458   3.099   2.445
  230  SOL  HW2  838   0.354   3.059   2.547
  231  SOL   OW  839   0.186   3.594   0.719
  231  SOL  HW1  840   0.259   3.558   0.770
  231  SOL  HW2  841   0.189   3.688   0.737
  232  SOL   OW  842   0.309   2.809   1.376
  232  SOL  HW1  843   0.248   2.817   1.449
  232  SOL  HW2  844   0.381   2.868   1.399
  233  SOL   OW  845   2.974   0.623   1.107
  233  SOL  HW1  846   3.006   0.711   1.126
  233  SOL  HW2  847   2.883   0.635   1.079
  234  SOL   OW  848   2.755   2.175   2.254
  234  SOL  HW1  849   2.702   2.097   2.240
  234  SOL  HW2  850   2.845   2.147   2.238
  235  SOL   OW  851   3.390   1.862   3.181
  235  SOL  HW1  852   3.399   1.791   3.244
  235  SOL  HW2  853   3.312   1.910   3.209
  236  SOL   OW  854   1.166   3.321   3.737
  236  SOL  HW1  855   1.184   3.329   3.644
  236  SOL  HW2  856   1.240   3.364   3.780
  237  SOL   OW  857   1.724   1.297   0.489
  237  SOL  HW1  858   1.763   1.210   0.496
  237  SOL  HW2  859   1.791   1.350   0.447
  238  SOL   OW  860   1.136   2.146   1.341
  238  SOL  HW1  861   1.137   2.102   1.256
  238  SOL  HW2  862   1.221   2.124   1.380
  239  SOL   OW  863   0.475   2.050   0.147
  239  SOL  HW1  864   0.509   1.961   0.135
  239  SOL  HW2  865   0.508   2.076   0.233
  240  SOL   OW  866   1.192   0.530   1.290
  240  SOL  HW1  867   1.109   0.549   1.333
  240  SOL  HW2  868   1.168   0.475   1.215
  241  SOL   OW  869   1.833   3.165   0.890
  241  SOL  HW1  870   1.768   3.147   0.823
  241  SOL  HW2  871   1.908   3.202   0.843
  242  SOL   OW  872   3.456   1.999   2.942
  242  SOL  HW1  873   3.449   1.953   3.025
  242  SOL  HW2  874   3.455   2.092   2.965
  243  SOL   OW  875   2.141   3.301   0.511
  243  SOL  HW1  876   2.200   3.338   0.577
  243  SOL  HW2  877   2.156   3.206   0.518
  244  SOL   OW  878   3.474   1.365   1.886
  244  SOL  HW1  879   3.434   1.434   1.833
  244  SOL  HW2  880   3.530   1.412   1.948
  245  SOL   OW  881   2.985   1.157   2.522
  245  SOL  HW1  882   2.901   1.189   2.555
  245  SOL  HW2  883   2.997   1.072   2.565
  246  SOL   OW  884   0.787   2.051   1.968
  246  SOL  HW1  885   0.737   2.050   2.050
  246  SOL  HW2  886   0.772   2.139   1.932
  247  SOL   OW  887   3.371   1.077   3.534
  247  SOL  HW1  888   3.337   1.110   3.451
  247  SOL  HW2  889   3.293   1.057   3.585
  248  SOL   OW  890   3.297   3.327   2.417
  248  SOL  HW1  891   3.336   3.240   2.424
  248  SOL  HW2  892   3.357   3.376   2.361
  249  SOL   OW  893   3.030   2.804   1.282
  249  SOL  HW1  894   3.013   2.880   1.339
  249  SOL  HW2  895   2.957   2.745   1.298
  250  SOL   OW  896   2.661   0.508   2.552
  250  SOL  HW1  897   2.584   0.468   2.512
  250  SOL  HW2  898   2.735   0.468   2.506
  251  SOL   OW  899   2.680   0.576   2.892
  251  SOL  HW1  900   2.654   0.641   2.826
  251  SOL  HW2  901   2.773   0.562   2.877
  252  SOL   OW  902   3.323   0.024   1.922
  252  SOL  HW1  903   3.246   0.053   1.873
  252  SOL  HW2  904   3.370   0.105   1.942
  253  SOL   OW  905   1.848   2.106   0.031
  253  SOL  HW1  906   1.828   2.103  -0.063
  253  SOL  HW2  907   1.935   2.067   0.038
  254  SOL   OW  908   2.497   1.461   2.544
  254  SOL  HW1  909   2.480   1.542   2.591
  254  SOL  HW2  910   2.592   1.456   2.537
  255  SOL   OW  911   2.883   0.125   1.971
  255  SOL  HW1  912   2.965   0.132   2.021
  255  SOL  HW2  913   2.817   0.163   2.029
  256  SOL   OW  914   1.612   1.494   2.720
  256  SOL  HW1  915   1.556   1.451   2.655
  256  SOL  HW2  916   1.557   1.565   2.755
  257  SOL   OW  917   0.586   1.236   0.384
  257  SOL  HW1  918   0.598   1.234   0.289
  257  SOL  HW2  919   0.610   1.325   0.409
  258  SOL   OW  920   2.217   0.693   1.019
  258  SOL  HW1  921   2.215   0.788   1.031
  258  SOL  HW2  922   2.173   0.658   1.096
  259  SOL   OW  923   1.183   0.589   3.022
  259  SOL  HW1  924   1.170   0.499   3.050
  259  SOL  HW2  925   1.265   0.587   2.972
  260  SOL   OW  926   3.416   3.595   2.686
  260  SOL  HW1  927   3.381   3.506   2.694
  260  SOL  HW2  928   3.509   3.587   2.709
  261  SOL   OW  929   3.534   1.759   3.589
  261  SOL  HW1  930   3.541   1.853   3.571
  261  SOL  HW2  931   3.624   1.727   3.583
  262  SOL   OW  932   2.260   2.925   1.901
  262  SOL  HW1  933   2.170   2.933   1.932
  262  SOL  HW2  934   2.304   3.004   1.934
  263  SOL   OW  935   3.032   1.094   1.832
  263  SOL  HW1  936   3.125   1.111   1.845
  263  SOL  HW2  937   3.013   1.018   1.886
  264  SOL   OW  938   0.353   2.313   2.222
  264  SOL  HW1  939   0.338   2.334   2.314
  264  SOL  HW2  940   0.274   2.265   2.195
  265  SOL   OW  941   3.237   1.577   1.337
  265  SOL  HW1  942   3.181   1.548   1.266
  265  SOL  HW2  943   3.273   1.660   1.307
  266  SOL   OW  944   3.095   3.417   1.058
  266  SOL  HW1  945   3.122   3.493   1.110
  266  SOL  HW2  946   3.166   3.354   1.069
  267  SOL   OW  947   3.020   1.953   0.884
  267  SOL  HW1  948   2.974   1.869   0.884
  267  SOL  HW2  949   3.113   1.930   0.884
  268  SOL   OW  950   0.277   1.211   3.697
  268  SOL  HW1  951   0.313   1.285   3.648
  268  SOL  HW2  952   0.230   1.251   3.770
  269  SOL   OW  953   0.783   2.842   1.048
  269  SOL  HW1  954   0.857   2.794   1.085
  269  SOL  HW2  955   0.823   2.910   0.994
  270  SOL   OW  956   1.585   3.243   1.055
  270  SOL  HW1  957   1.678   3.237   1.034
  270  SOL  HW2  958   1.574   3.189   1.134
  271  SOL   OW  959   3.275   2.056   0.407
  271  SOL  HW1  960   3.289   2.091   0.319
  271  SOL  HW2  961   3.268   2.133   0.463
  272  SOL   OW  962   2.534   2.802   3.561
  272  SOL  HW1  963   2.547   2.761   3.476
  272  SOL  HW2  964   2.450   2.848   3.553
  273  SOL   OW  965   1.496   1.836   0.194
  273  SOL  HW1  966   1.582   1.794   0.198
  273  SOL  HW2  967   1.458   1.819   0.280
  274  SOL   OW  968   2.195   0.141   1.218
  274  SOL  HW1  969   2.275   0.122   1.266
  274  SOL  HW2  970   2.172   0.058   1.176
  275  SOL   OW  971   2.124   0.483   3.239
  275  SOL  HW1  972   2.177   0.410   3.206
  275  SOL  HW2  973   2.129   0.549   3.170
  276  SOL   OW  974   2.961   1.578   0.617
  276  SOL  HW1  975   2.905   1.625   0.556
  276  SOL  HW2  976   2.917   1.494   0.631
  277  SOL   OW  977   0.082   0.263   1.865
  277  SOL  HW1  978   0.039   0.304   1.790
  277  SOL  HW2  979   0.063   0.169   1.855
  278  SOL   OW  980   2.989   1.143   2.120
  278  SOL  HW1  981   3.009   1.190   2.039
  278  SOL  HW2  982   2.928   1.201   2.166
  279  SOL   OW  983   0.840   1.219   2.352
  279  SOL  HW1  984   0.854   1.288   2.288
  279  SOL  HW2  985   0.894   1.244   2.427
  280  SOL   OW  986   3.502   0.183   2.541
  280  SOL  HW1  987   3.412   0.155   2.552
  280  SOL  HW2  988   3.512   0.198   2.447
  281  SOL   OW  989   0.248   1.530   0.154
  281  SOL  HW1  990   0.158   1.523   0.188
  281  SOL  HW2  991   0.290   1.592   0.213
  282  SOL   OW  992   3.720   3.530   2.042
  282  SOL  HW1  993   3.724   3.460   1.976
  282  SOL  HW2  994   3.704   3.484   2.125
  283  SOL   OW  995   0.433   1.041   0.847
  283  SOL  HW1  996   0.492   1.111   0.820
  283  SOL  HW2  997   0.425   1.050   0.942
  284  SOL   OW  998   0.559   3.215   1.918
  284  SOL  HW1  999   0.546   3.255   2.004
  284  SOL  HW2 1000   0.635   3.261   1.882
  285  SOL   OW 1001   0.915   3.279   2.930
  285  SOL  HW1 1002   1.003   3.278   2.968
  285  SOL  HW2 1003   0.889   3.371   2.933
  286  SOL   OW 1004   2.857   1.752   0.429
  286  SOL  HW1 1005   2.794   1.721   0.365
  286  SOL  HW2 1006   2.815   1.829   0.468
  287  SOL   OW 1007   0.484   2.750   2.312
  287  SOL  HW1 1008   0.470   2.780   2.402
  287  SOL  HW2 1009   0.574   2.774   2.292
  288  SOL   OW 1010   2.409   1.401   2.182
  288  SOL  HW1 1011   2.340   1.336   2.167
  288  SOL  HW2 1012   2.369   1.467   2.238
  289  SOL   OW 1013   0.438   0.967   3.045
  289  SOL  HW1 1014   0.380   1.042   3.054
  289  SOL  HW2 1015   0.522   1.005   3.020
  290  SOL   OW 1016   2.977   1.499   2.031
  290  SOL  HW1 1017   2.947   1.484   2.120
  290  SOL  HW2 1018   3.069   1.473   2.032
  291  SOL   OW 1019   0.083   3.136   0.545
  291  SOL  HW1 1020   0.107   3.053   0.504
  291  SOL  HW2 1021   0.144   3.145   0.619
  292  SOL   OW 1022   3.673   0.775   1.424
  292  SOL  HW1 1023   3.699   0.767   1.516
  292  SOL  HW2 1024   3.750   0.747   1.375
  293  SOL   OW 1025   1.254   3.426   2.569
  293  SOL  HW1 1026   1.347   3.406   2.573
  293  SOL  HW2 1027   1.224   3.384   2.489
  294  SOL   OW 1028   0.628   3.000   3.323
  294  SOL  HW1 1029   0.596   3.055   3.394
  294  SOL  HW2 1030   0.638   3.060   3.249
  295  SOL   OW 1031   0.061   0.789   1.651
  295  SOL  HW1 1032   0.133   0.842   1.617
  295  SOL  HW2 1033   0.094   0.753   1.733
  296  SOL   OW 1034   3.150   2.076   2.542
  296  SOL  HW1 1035   3.153   2.151   2.602
  296  SOL  HW2 1036   3.056   2.061   2.529
  297  SOL   OW 1037   0.609   2.547   3.481
  297  SOL  HW1 1038   0.692   2.510   3.512
  297  SOL  HW2 1039   0.589   2.499   3.401
  298  SOL   OW 1040   1.691   1.165   0.747
  298  SOL  HW1 1041   1.626   1.220   0.704
  298  SOL  HW2 1042   1.716   1.101   0.681
  299  SOL   OW 1043   1.757   1.871   2.083
  299  SOL  HW1 1044   1.806   1.871   2.000
  299  SOL  HW2 1045   1.673   1.911   2.061
  300  SOL   OW 1046   1.520   2.114   2.815
  300  SOL  HW1 1047   1.424   2.110   2.815
  300  SOL  HW2 1048   1.544   2.130   2.724
  301  SOL   OW 1049   1.692   2.494   2.409
  301  SOL  HW1 1050   1.774   2.500   2.360
  301  SOL  HW2 1051   1.711   2.537   2.493
  302  SOL   OW 1052   3.445   1.682   0.288
  302  SOL  HW1 1053   3.361   1.671   0.334
  302  SOL  HW2 1054   3.427   1.653   0.199
  303  SOL   OW 1055   2.520   1.729   3.522
  303  SOL  HW1 1056   2.614   1.739   3.508
  303  SOL  HW2 1057   2.513   1.670   3.597
  304  SOL   OW 1058   1.507   1.022   2.866
  304  SOL  HW1 1059   1.473   1.008   2.955
  304  SOL  HW2 1060   1.488   1.114   2.847
  305  SOL   OW 1061   1.477   0.830   3.691
  305  SOL  HW1 1062   1.412   0.897   3.666
  305  SOL  HW2 1063   1.426   0.763   3.737
  306  SOL   OW 1064   3.073   0.613   3.614
  306  SOL  HW1 1065   2.997   0.655   3.655
  306  SOL  HW2 1066   3.077   0.526   3.653
  307  SOL   OW 1067   3.717   2.939   0.332
  307  SOL  HW1 1068   3.640   2.993   0.315
  307  SOL  HW2 1069   3.699   2.897   0.416
  308  SOL   OW 1070   0.600   0.429   2.745
  308  SOL  HW1 1071   0.604   0.498   2.678
  308  SOL  HW2 1072   0.572   0.351   2.697
  309  SOL   OW 1073   1.112   2.788   0.172
  309  SOL  HW1 1074   1.041   2.768   0.110
  309  SOL  HW2 1075   1.190   2.752   0.131
  310  SOL   OW 1076   1.906   2.619   1.526
  310  SOL  HW1 1077   1.839   2.593   1.590
  310  SOL  HW2 1078   1.989   2.610   1.573
  311  SOL   OW 1079   3.377   2.862   0.707
  311  SOL  HW1 1080   3.465   2.899   0.718
  311  SOL  HW2 1081   3.349   2.895   0.621
  312  SOL   OW 1082   3.040   1.674   2.379
  312  SOL  HW1 1083   3.010   1.585   2.359
  312  SOL  HW2 1084   3.061   1.711   2.293
  313  SOL   OW 1085   1.875   2.405   0.554
  313  SOL  HW1 1086   1.884   2.403   0.459
  313  SOL  HW2 1087   1.803   2.346   0.574
  314  SOL   OW 1088   0.608   1.367   1.926
  314  SOL  HW1 1089   0.622   1.409   2.011
  314  SOL  HW2 1090   0.636   1.432   1.862
  315  SOL   OW 1091   1.991   2.272   2.689
  315  SOL  HW1 1092   1.974   2.182   2.661
  315  SOL  HW2 1093   2.086   2.278   2.696
  316  SOL   OW 1094   1.959   3.654   2.153
  316  SOL  HW1 1095   1.988   3.585   2.094
  316  SOL  HW2 1096   1.883   3.692   2.110
  317  SOL   OW 1097   2.617   0.533   0.433
  317  SOL  HW1 1098   2.587   0.475   0.504
  317  SOL  HW2 1099   2.712   0.531   0.439
  318  SOL   OW 1100   2.365   1.703   1.473
  318  SOL  HW1 1101   2.443   1.739   1.430
  318  SOL  HW2 1102   2.374   1.609   1.464
  319  SOL   OW 1103   3.260   0.725   1.359
  319  SOL  HW1 1104   3.179   0.676   1.365
  319  SOL  HW2 1105   3.233   0.816   1.345
  320  SOL   OW 1106   2.058   0.412   2.939
  320  SOL  HW1 1107   2.080   0.492   2.891
  320  SOL  HW2 1108   2.140   0.363   2.945
  321  SOL   OW 1109   2.370   1.809   0.194
  321  SOL  HW1 1110   2.400   1.751   0.264
  321  SOL  HW2 1111   2.314   1.755   0.139
  322  SOL   OW 1112   0.713   1.449   0.449
  322  SOL  HW1 1113   0.689   1.542   0.451
  322  SOL  HW2 1114   0.802   1.448   0.415
  323  SOL   OW 1115   2.335   2.754   0.930
  323  SOL  HW1 1116   2.303   2.770   1.019
  323  SOL  HW2 1117   2.270   2.694   0.893
  324  SOL   OW 1118   3.594   0.785   0.764
  324  SOL  HW1 1119   3.587   0.719   0.696
  324  SOL  HW2 1120   3.550   0.862   0.727
  325  SOL   OW 1121   3.269   2.145   3.670
  325  SOL  HW1 1122   3.252   2.178   3.759
  325  SOL  HW2 1123   3.363   2.128   3.669
  326  SOL   OW 1124   3.222   0.792   1.856
  326  SOL  HW1 1125   3.275   0.747   1.791
  326  SOL  HW2 1126   3.264   0.773   1.939
  327  SOL   OW 1127   1.813   1.113   3.247
  327  SOL  HW1 1128   1.908   1.110   3.258
  327  SOL  HW2 1129   1.785   1.182   3.308
  328  SOL   OW 1130   0.622   0.634   2.557
  328  SOL  HW1 1131   0.701   0.642   2.504
  328  SOL  HW2 1132   0.599   0.724   2.580
  329  SOL   OW 1133   3.444   2.319   3.150
  329  SOL  HW1 1134   3.501   2.346   3.078
  329  SOL  HW2 1135   3.504   2.286   3.217
  330  SOL   OW 1136   2.808   1.842   2.449
  330  SOL  HW1 1137   2.889   1.799   2.423
  330  SOL  HW2 1138   2.741   1.775   2.439
  331  SOL   OW 1139   1.159   0.280   2.357
  331  SOL  HW1 1140   1.093   0.327   2.408
  331  SOL  HW2 1141   1.222   0.250   2.423
  332  SOL   OW 1142   2.644   2.946   0.144
  332  SOL  HW1 1143   2.611   3.028   0.178
  332  SOL  HW2 1144   2.578   2.917   0.081
  333  SOL   OW 1145   2.564   1.603   0.493
  333  SOL  HW1 1146   2.582   1.629   0.584
  333  SOL  HW2 1147   2.544   1.685   0.448
  334  SOL   OW 1148   1.327   2.318   2.662
  334  SOL  HW1 1149   1.300   2.239   2.615
  334  SOL  HW2 1150   1.299   2.390   2.605
  335  SOL   OW 1151   0.217   0.255   1.217
  335  SOL  HW1 1152   0.170   0.338   1.217
  335  SOL  HW2 1153   0.149   0.189   1.201
  336  SOL   OW 1154   1.943   1.394   0.351
  336  SOL  HW1 1155   1.961   1.479   0.391
  336  SOL  HW2 1156   1.961   1.408   0.258
  337  SOL   OW 1157   0.068   1.580   3.691
  337  SOL  HW1 1158   0.015   1.522   3.746
  337  SOL  HW2 1159   0.153   1.583   3.735
  338  SOL   OW 1160   2.362   0.130   1.627
  338  SOL  HW1 1161   2.375   0.053   1.682
  338  SOL  HW2 1162   2.376   0.098   1.537
  339  SOL   OW 1163   3.446   2.626   2.031
  339  SOL  HW1 1164   3.540   2.642   2.025
  339  SOL  HW2 1165   3.417   2.619   1.940
  340  SOL   OW 1166   2.090   0.920   2.282
  340  SOL  HW1 1167   2.055   0.960   2.202
  340  SOL  HW2 1168   2.024   0.939   2.349
  341  SOL   OW 1169   0.379   2.698   3.535
  341  SOL  HW1 1170   0.447   2.632   3.518
  341  SOL  HW2 1171   0.428   2.780   3.548
  342  SOL   OW 1172   1.685   1.551   1.922
  342  SOL  HW1 1173   1.734   1.525   2.000
  342  SOL  HW2 1174   1.594   1.554   1.951
  343  SOL   OW 1175   3.639   1.107   0.294
  343  SOL  HW1 1176   3.557   1.105   0.244
  343  SOL  HW2 1177   3.612   1.132   0.382
  344  SOL   OW 1178   3.115   1.596   3.707
  344  SOL  HW1 1179   3.070   1.629   3.784
  344  SOL  HW2 1180   3.111   1.667   3.644
  345  SOL   OW 1181   0.173   2.087   1.324
  345  SOL  HW1 1182   0.197   2.056   1.237
  345  SOL  HW2 1183   0.256   2.105   1.368
  346  SOL   OW 1184   2.270   0.979   2.680
  346  SOL  HW1 1185   2.306   1.058   2.639
  346  SOL  HW2 1186   2.192   0.959   2.628
  347  SOL   OW 1187   2.213   0.219   0.576
  347  SOL  HW1 1188   2.296   0.224   0.530
  347  SOL  HW2 1189   2.231   0.252   0.664
  348  SOL   OW 1190   3.024   0.782   3.234
  348  SOL  HW1 1191   3.113   0.789   3.267
  348  SOL  HW2 1192   3.027   0.714   3.168
  349  SOL   OW 1193   1.077   2.684   1.416
  349  SOL  HW1 1194   1.091   2.766   1.464
  349  SOL  HW2 1195   1.150   2.628   1.443
  350  SOL   OW 1196   2.839   1.135   3.436
  350  SOL  HW1 1197   2.784   1.062   3.406
  350  SOL  HW2 1198   2.801   1.160   3.520
  351  SOL   OW 1199   1.958   0.830   1.028
  351  SOL  HW1 1200   1.901   0.903   1.051
  351  SOL  HW2 1201   1.898   0.755   1.020
  352  SOL   OW 1202   0.757   2.847   2.322
  352  SOL  HW1 1203   0.782   2.852   2.230
  352  SOL  HW2 1204   0.730   2.936   2.344
  353  SOL   OW 1205   2.964   0.239   1.591
  353  SOL  HW1 1206   3.052   0.271   1.610
  353  SOL  HW2 1207   2.973   0.144   1.588
  354  SOL   OW 1208   0.451   1.178   1.819
  354  SOL  HW1 1209   0.470   1.110   1.884
  354  SOL  HW2 1210   0.502   1.254   1.849
  355  SOL   OW 1211   0.201   1.440   1.865
  355  SOL  HW1 1212   0.150   1.426   1.785
  355  SOL  HW2 1213   0.293   1.437   1.836
  356  SOL   OW 1214   1.220   2.477   1.538
  356  SOL  HW1 1215   1.209   2.436   1.624
  356  SOL  HW2 1216   1.301   2.528   1.546
  357  SOL   OW 1217   1.514   3.646   2.023
  357  SOL  HW1 1218   1.563   3.632   2.104
  357  SOL  HW2 1219   1.449   3.713   2.046
  358  SOL   OW 1220   0.629   0.386   3.087
  358  SOL  HW1 1221   0.660   0.468   3.125
  358  SOL  HW2 1222   0.586   0.411   3.006
  359  SOL   OW 1223   0.299   1.790   2.731
  359  SOL  HW1 1224   0.304   1.884   2.747
  359  SOL  HW2 1225   0.262   1.753   2.812
  360  SOL   OW 1226   1.909   1.475   3.110
  360  SOL  HW1 1227   1.886   1.397   3.059
  360  SOL  HW2 1228   1.884   1.548   3.055
  361  SOL   OW 1229   1.941   2.583   2.281
  361  SOL  HW1 1230   1.973   2.550   2.364
  361  SOL  HW2 1231   2.017   2.580   2.223
  362  SOL   OW 1232   2.118   2.387   0.718
  362  SOL  HW1 1233   2.030   2.383   0.679
  362  SOL  HW2 1234   2.175   2.415   0.646
  363  SOL   OW 1235   0.822   3.302   1.880
  363  SOL  HW1 1236   0.815   3.384   1.831
  363  SOL  HW2 1237   0.879   3.324   1.954
  364  SOL   OW 1238   3.261   1.639   1.914
  364  SOL  HW1 1239   3.344   1.678   1.941
  364  SOL  HW2 1240   3.237   1.686   1.835
  365  SOL   OW 1241   0.537   2.765   0.459
  365  SOL  HW1 1242   0.616   2.756   0.407
  365  SOL  HW2 1243   0.505   2.853   0.439
  366  SOL   OW 1244   1.034   3.155   1.251
  366  SOL  HW1 1245   0.989   3.073   1.272
  366  SOL  HW2 1246   0.973   3.201   1.193
  367  SOL   OW 1247   0.849   0.578   2.407
  367  SOL  HW1 1248   0.893   0.619   2.332
  367  SOL  HW2 1249   0.838   0.487   2.380
  368  SOL   OW 1250   0.201   0.456   0.985
  368  SOL  HW1 1251   0.259   0.396   1.032
  368  SOL  HW2 1252   0.212   0.432   0.893
  369  SOL   OW 1253   2.357   1.364   1.180
  369  SOL  HW1 1254   2.267   1.357   1.214
  369  SOL  HW2 1255   2.407   1.402   1.252
  370  SOL   OW 1256   1.505   1.085   1.052
  370  SOL  HW1 1257   1.499   1.169   1.006
  370  SOL  HW2 1258   1.418   1.046   1.042
  371  SOL   OW 1259   3.467   2.310   1.137
  371  SOL  HW1 1260   3.559   2.294   1.160
  371  SOL  HW2 1261   3.431   2.353   1.215
  372  SOL   OW 1262   0.085   1.625   2.046
  372  SOL  HW1 1263   0.156   1.673   2.088
  372  SOL  HW2 1264   0.126   1.546   2.012
  373  SOL   OW 1265   3.560   3.701   3.480
  373  SOL  HW1 1266   3.489   3.643   3.507
  373  SOL  HW2 1267   3.546   3.713   3.386
  374  SOL   OW 1268   2.622   1.672   2.384
  374  SOL  HW1 1269   2.642   1.634   2.299
  374  SOL  HW2 1270   2.538   1.634   2.409
  375  SOL   OW 1271   1.896   1.689   2.760
  375  SOL  HW1 1272   1.980   1.704   2.715
  375  SOL  HW2 1273   1.881   1.595   2.750
  376  SOL   OW 1274   0.487   2.243   1.029
  376  SOL  HW1 1275   0.535   2.232   0.947
  376  SOL  HW2 1276   0.546   2.208   1.096
  377  SOL   OW 1277   2.746   1.204   2.680
  377  SOL  HW1 1278   2.773   1.195   2.771
  377  SOL  HW2 1279   2.708   1.291   2.675
  378  SOL   OW 1280   2.673   1.027   2.217
  378  SOL  HW1 1281   2.665   1.035   2.312
  378  SOL  HW2 1282   2.731   0.951   2.205
  379  SOL   OW 1283   3.166   1.944   1.473
  379  SOL  HW1 1284   3.112   1.867   1.456
  379  SOL  HW2 1285   3.105   2.006   1.514
  380  SOL   OW 1286   1.115   2.304   3.540
  380  SOL  HW1 1287   1.118   2.391   3.501
  380  SOL  HW2 1288   1.194   2.299   3.594
  381  SOL   OW 1289   3.679   1.181   2.491
  381  SOL  HW1 1290   3.675   1.230   2.573
  381  SOL  HW2 1291   3.592   1.189   2.453
  382  SOL   OW 1292   1.894   0.431   1.105
  382  SOL  HW1 1293   1.824   0.466   1.161
  382  SOL  HW2 1294   1.856   0.351   1.068
  383  SOL   OW 1295   0.671   2.237   1.310
  383  SOL  HW1 1296   0.748   2.204   1.262
  383  SOL  HW2 1297   0.671   2.331   1.293
  384  SOL   OW 1298   3.108   2.398   3.050
  384  SOL  HW1 1299   3.131   2.409   3.143
  384  SOL  HW2 1300   3.144   2.313   3.027
  385  SOL   OW 1301   0.755   1.752   0.724
  385  SOL  HW1 1302   0.665   1.784   0.709
  385  SOL  HW2 1303   0.788   1.805   0.796
  386  SOL   OW 1304   0.665   1.841   1.705
  386  SOL  HW1 1305   0.624   1.846   1.791
  386  SOL  HW2 1306   0.627   1.914   1.656
  387  SOL   OW 1307   1.801   0.294   2.724
  387  SOL  HW1 1308   1.781   0.381   2.692
  387  SOL  HW2 1309   1.897   0.291   2.728
  388  SOL   OW 1310   0.863   0.927   1.635
  388  SOL  HW1 1311   0.808   1.001   1.663
  388  SOL  HW2 1312   0.932   0.966   1.583
  389  SOL   OW 1313   0.811   2.729   0.321
  389  SOL  HW1 1314   0.827   2.637   0.340
  389  SOL  HW2 1315   0.801   2.732   0.226
  390  SOL   OW 1316   2.791   2.236   0.621
  390  SOL  HW1 1317   2.878   2.244   0.580
  390  SOL  HW2 1318   2.734   2.287   0.563
  391  SOL   OW 1319   1.405   1.488   2.186
  391  SOL  HW1 1320   1.361   1.458   2.266
  391  SOL  HW2 1321   1.361   1.440   2.116
  392  SOL   OW 1322   0.350   3.368   2.502
  392  SOL  HW1 1323   0.339   3.315   2.424
  392  SOL  HW2 1324   0.445   3.378   2.511
  393  SOL   OW 1325   2.501   1.260   3.701
  393  SOL  HW1 1326   2.588   1.284   3.669
  393  SOL  HW2 1327   2.516   1.228   3.789
  394  SOL   OW 1328   2.653   2.093   0.799
  394  SOL  HW1 1329   2.575   2.149   0.796
  394  SOL  HW2 1330   2.719   2.141   0.750
  395  SOL   OW 1331   1.446   0.764   0.293
  395  SOL  HW1 1332   1.530   0.790   0.255
  395  SOL  HW2 1333   1.415   0.843   0.337
  396  SOL   OW 1334   0.196   1.061   1.849
  396  SOL  HW1 1335   0.205   1.112   1.929
  396  SOL  HW2 1336   0.272   1.087   1.796
  397  SOL   OW 1337   2.917   0.404   2.450
  397  SOL  HW1 1338   2.947   0.483   2.494
  397  SOL  HW2 1339   2.931   0.422   2.357
  398  SOL   OW 1340   0.702   0.887   3.229
  398  SOL  HW1 1341   0.644   0.963   3.236
  398  SOL  HW2 1342   0.718   0.861   3.319
  399  SOL   OW 1343   0.034   1.312   3.515
  399  SOL  HW1 1344   0.026   1.262   3.596
  399  SOL  HW2 1345   0.056   1.401   3.543
  400  SOL   OW 1346   3.180   0.380   1.142
  400  SOL  HW1 1347   3.208   0.439   1.072
  400  SOL  HW2 1348   3.087   0.399   1.153
  401  SOL   OW 1349   0.853   0.277   0.222
  401  SOL  HW1 1350   0.878   0.365   0.251
  401  SOL  HW2 1351   0.759   0.283   0.208
  402  SOL   OW 1352   1.897   3.374   1.122
  402  SOL  HW1 1353   1.846   3.415   1.053
  402  SOL  HW2 1354   1.926   3.291   1.085
  403  SOL   OW 1355   0.216   0.857   2.559
  403  SOL  HW1 1356   0.256   0.853   2.646
  403  SOL  HW2 1357   0.127   0.824   2.573
  404  SOL   OW 1358   0.306   2.315   1.935
  404  SOL  HW1 1359   0.391   2.318   1.980
  404  SOL  HW2 1360   0.267   2.232   1.963
  405  SOL   OW 1361   2.594   2.659   0.449
  405  SOL  HW1 1362   2.543   2.734   0.419
  405  SOL  HW2 1363   2.656   2.696   0.512
  406  SOL   OW 1364   1.321   1.753   2.170
  406  SOL  HW1 1365   1.263   1.764   2.095
  406  SOL  HW2 1366   1.351   1.663   2.165
  407  SOL   OW 1367   1.995   2.506   2.524
  407  SOL  HW1 1368   1.967   2.421   2.559
  407  SOL  HW2 1369   2.071   2.530   2.577
  408  SOL   OW 1370   0.441   1.966   2.983
  408  SOL  HW1 1371   0.405   2.021   2.913
  408  SOL  HW2 1372   0.528   2.003   3.000
  409  SOL   OW 1373   0.009   0.036   3.707
  409  SOL  HW1 1374   0.046  -0.050   3.730
  409  SOL  HW2 1375  -0.034   0.021   3.623
  410  SOL   OW 1376   0.437   3.592   2.216
  410  SOL  HW1 1377   0.511   3.642   2.249
  410  SOL  HW2 1378   0.438   3.608   2.121
  411  SOL   OW 1379   0.999   0.044   2.495
  411  SOL  HW1 1380   0.955  -0.009   2.428
  411  SOL  HW2 1381   0.996   0.133   2.460
  412  SOL   OW 1382   0.807   2.856   1.621
  412  SOL  HW1 1383   0.855   2.796   1.678
  412  SOL  HW2 1384   0.827   2.943   1.655
  413  SOL   OW 1385   3.183   3.346   1.424
  413  SOL  HW1 1386   3.111   3.406   1.405
  413  SOL  HW2 1387   3.227   3.334   1.339
  414  SOL   OW 1388   2.318   1.921   0.823
  414  SOL  HW1 1389   2.290   2.003   0.863
  414  SOL  HW2 1390   2.279   1.853   0.878
  415  SOL   OW 1391   0.385   3.047   3.051
  415  SOL  HW1 1392   0.359   3.083   3.136
  415  SOL  HW2 1393   0.471   3.007   3.066
  416  SOL   OW 1394   1.433   0.401   1.288
  416  SOL  HW1 1395   1.453   0.359   1.371
  416  SOL  HW2 1396   1.354   0.451   1.304
  417  SOL   OW 1397   3.271   0.655   2.536
  417  SOL  HW1 1398   3.279   0.679   2.444
  417  SOL  HW2 1399   3.322   0.574   2.543
  418  SOL   OW 1400   3.381   0.744   1.609
  418  SOL  HW1 1401   3.441   0.817   1.621
  418  SOL  HW2 1402   3.343   0.759   1.522
  419  SOL   OW 1403   3.514   2.373   0.588
  419  SOL  HW1 1404   3.541   2.448   0.641
  419  SOL  HW2 1405   3.587   2.360   0.527
  420  SOL   OW 1406   0.301   3.253   2.247
  420  SOL  HW1 1407   0.389   3.285   2.229
  420  SOL  HW2 1408   0.272   3.215   2.163
  421  SOL   OW 1409   2.164   3.214   2.515
  421  SOL  HW1 1410   2.170   3.287   2.453
  421  SOL  HW2 1411   2.210   3.142   2.472
  422  SOL   OW 1412   1.721   0.172   1.599
  422  SOL  HW1 1413   1.801   0.123   1.579
  422  SOL  HW2 1414   1.678   0.183   1.514
  423  SOL   OW 1415   1.322   0.067   1.278
  423  SOL  HW1 1416   1.357   0.146   1.235
  423  SOL  HW2 1417   1.359   0.070   1.366
  424  SOL   OW 1418   1.469   2.943   0.885
  424  SOL  HW1 1419   1.543   3.002   0.871
  424  SOL  HW2 1420   1.392   3.000   0.887
  425  SOL   OW 1421   3.368   1.801   1.233
  425  SOL  HW1 1422   3.332   1.823   1.147
  425  SOL  HW2 1423   3.425   1.875   1.256
  426  SOL   OW 1424   2.092   2.744   0.570
  426  SOL  HW1 1425   2.142   2.769   0.647
  426  SOL  HW2 1426   2.150   2.684   0.522
  427  SOL   OW 1427   0.269   2.263   3.038
  427  SOL  HW1 1428   0.344   2.292   3.090
  427  SOL  HW2 1429   0.240   2.342   2.992
  428  SOL   OW 1430   1.564   3.556   2.802
  428  SOL  HW1 1431   1.616   3.631   2.831
  428  SOL  HW2 1432   1.485   3.595   2.765
  429  SOL   OW 1433   0.029   0.956   3.129
  429  SOL  HW1 1434   0.047   1.047   3.104
  429  SOL  HW2 1435  -0.002   0.915   3.049
  430  SOL   OW 1436   1.404   3.445   1.850
  430  SOL  HW1 1437   1.458   3.497   1.910
  430  SOL  HW2 1438   1.466   3.416   1.782
  431  SOL   OW 1439   0.134   1.178   1.032
  431  SOL  HW1 1440   0.056   1.124   1.022
  431  SOL  HW2 1441   0.106   1.250   1.089
  432  SOL   OW 1442   3.090   0.767   1.632
  432  SOL  HW1 1443   3.041   0.844   1.603
  432  SOL  HW2 1444   3.127   0.792   1.716
  433  SOL   OW 1445   0.113   2.939   2.588
  433  SOL  HW1 1446   0.175   2.922   2.658
  433  SOL  HW2 1447   0.046   2.872   2.598
  434  SOL   OW 1448   3.106   2.517   0.573
  434  SOL  HW1 1449   3.058   2.540   0.493
  434  SOL  HW2 1450   3.039   2.488   0.634
  435  SOL   OW 1451   3.196   0.110   1.436
  435  SOL  HW1 1452   3.255   0.037   1.418
  435  SOL  HW2 1453   3.110   0.080   1.409
  436  SOL   OW 1454   1.057   3.140   1.562
  436  SOL  HW1 1455   1.046   3.071   1.496
  436  SOL  HW2 1456   1.151   3.159   1.562
  437  SOL   OW 1457   3.443   0.954   2.591
  437  SOL  HW1 1458   3.535   0.950   2.564
  437  SOL  HW2 1459   3.421   1.047   2.585
  438  SOL   OW 1460   3.042   3.545   0.673
  438  SOL  HW1 1461   3.072   3.617   0.728
  438  SOL  HW2 1462   3.070   3.466   0.719
  439  SOL   OW 1463   3.060   3.587   1.306
  439  SOL  HW1 1464   3.154   3.602   1.299
  439  SOL  HW2 1465   3.024   3.671   1.335
  440  SOL   OW 1466   2.066   3.375   2.728
  440  SOL  HW1 1467   2.089   3.301   2.672
  440  SOL  HW2 1468   1.990   3.414   2.685
  441  SOL   OW 1469   3.035   2.698   1.661
  441  SOL  HW1 1470   3.106   2.681   1.599
  441  SOL  HW2 1471   2.971   2.628   1.645
  442  SOL   OW 1472   3.082   2.891   3.630
  442  SOL  HW1 1473   2.990   2.917   3.628
  442  SOL  HW2 1474   3.088   2.818   3.569
  443  SOL   OW 1475   2.111   2.590   0.884
  443  SOL  HW1 1476   2.096   2.521   0.820
  443  SOL  HW2 1477   2.055   2.567   0.958
  444  SOL   OW 1478   1.426   3.330   1.400
  444  SOL  HW1 1479   1.518   3.346   1.422
  444  SOL  HW2 1480   1.423   3.337   1.305
  445  SOL   OW 1481   0.324   1.693   2.178
  445  SOL  HW1 1482   0.348   1.602   2.165
  445  SOL  HW2 1483   0.330   1.706   2.273
  446  SOL   OW 1484   3.539   3.144   1.353
  446  SOL  HW1 1485   3.494   3.084   1.412
  446  SOL  HW2 1486   3.552   3.094   1.273
  447  SOL   OW 1487   1.986   3.068   2.914
  447  SOL  HW1 1488   1.940   3.068   2.998
  447  SOL  HW2 1489   1.941   3.135   2.862
  448  SOL   OW 1490   2.002   2.464   0.279
  448  SOL  HW1 1491   1.953   2.528   0.228
  448  SOL  HW2 1492   2.033   2.400   0.214
  449  SOL   OW 1493   1.489   3.626   2.483
  449  SOL  HW1 1494   1.543   3.690   2.437
  449  SOL  HW2 1495   1.413   3.676   2.514
  450  SOL   OW 1496   3.622   1.217   1.205
  450  SOL  HW1 1497   3.542   1.198   1.155
  450  SOL  HW2 1498   3.618   1.156   1.279
  451  SOL   OW 1499   2.059   2.243   1.766
  451  SOL  HW1 1500   2.022   2.281   1.686
  451  SOL  HW2 1501   2.105   2.164   1.736
  452  SOL   OW 1502   0.862   1.238   2.944
  452  SOL  HW1 1503   0.824   1.309   2.892
  452  SOL  HW2 1504   0.854   1.268   3.034
  453  SOL   OW 1505   0.711   0.726   0.090
  453  SOL  HW1 1506   0.780   0.768   0.040
  453  SOL  HW2 1507   0.632   0.738   0.037
  454  SOL   OW 1508   1.149   3.065   0.126
  454  SOL  HW1 1509   1.122   3.088   0.037
  454  SOL  HW2 1510   1.124   2.973   0.135
  455  SOL   OW 1511   1.183   3.507   0.597
  455  SOL  HW1 1512   1.177   3.473   0.687
  455  SOL  HW2 1513   1.158   3.599   0.605
  456  SOL   OW 1514   1.559   0.644   2.869
  456  SOL  HW1 1515   1.639   0.626   2.818
  456  SOL  HW2 1516   1.572   0.732   2.903
  457  SOL   OW 1517   1.278   2.665   3.097
  457  SOL  HW1 1518   1.190   2.667   3.058
  457  SOL  HW2 1519   1.308   2.756   3.093
  458  SOL   OW 1520   2.536   0.040   0.086
  458  SOL  HW1 1521   2.526  -0.006   0.002
  458  SOL  HW2 1522   2.631   0.048   0.098
  459  SOL   OW 1523   0.331   0.515   1.371
  459  SOL  HW1 1524   0.379   0.510   1.288
  459  SOL  HW2 1525   0.243   0.545   1.346
  460  SOL   OW 1526   2.710   3.203   3.604
  460  SOL  HW1 1527   2.740   3.116   3.632
  460  SOL  HW2 1528   2.749   3.214   3.517
  461  SOL   OW 1529   1.238   3.666   2.269
  461  SOL  HW1 1530   1.249   3.730   2.339
  461  SOL  HW2 1531   1.250   3.717   2.189
  462  SOL   OW 1532   3.375   0.612   0.602
  462  SOL  HW1 1533   3.395   0.642   0.513
  462  SOL  HW2 1534   3.367   0.517   0.593
  463  SOL   OW 1535   1.338   0.341   0.286
  463  SOL  HW1 1536   1.391   0.265   0.312
  463  SOL  HW2 1537   1.368   0.362   0.198
  464  SOL   OW 1538   1.768   2.615   1.754
  464  SOL  HW1 1539   1.701   2.635   1.820
  464  SOL  HW2 1540   1.805   2.531   1.782
  465  SOL   OW 1541   3.275   2.212   1.558
  465  SOL  HW1 1542   3.183   2.186   1.570
  465  SOL  HW2 1543   3.307   2.226   1.647
  466  SOL   OW 1544   2.552   2.175   3.721
  466  SOL  HW1 1545   2.626   2.124   3.688
  466  SOL  HW2 1546   2.485   2.109   3.741
  467  SOL   OW 1547   3.248   3.020   1.416
  467  SOL  HW1 1548   3.155   3.035   1.398
  467  SOL  HW2 1549   3.258   3.041   1.509
  468  SOL   OW 1550   0.705   0.625   3.143
  468  SOL  HW1 1551   0.767   0.644   3.072
  468  SOL  HW2 1552   0.686   0.711   3.181
  469  SOL   OW 1553   0.685   2.050   2.985
  469  SOL  HW1 1554   0.759   2.088   3.032
  469  SOL  HW2 1555   0.718   2.034   2.897
  470  SOL   OW 1556   0.003   2.214   2.884
  470  SOL  HW1 1557   0.082   2.249   2.925
  470  SOL  HW2 1558   0.034   2.174   2.802
  471  SOL   OW 1559   1.689   2.258   3.183
  471  SOL  HW1 1560   1.772   2.223   3.150
  471  SOL  HW2 1561   1.652   2.187   3.236
  472  SOL   OW 1562   0.722   2.056   0.539
  472  SOL  HW1 1563   0.795   2.057   0.601
  472  SOL  HW2 1564   0.647   2.026   0.592
  473  SOL   OW 1565   0.696   3.095   2.459
  473  SOL  HW1 1566   0.772   3.046   2.490
  473  SOL  HW2 1567   0.667   3.146   2.535
  474  SOL   OW 1568   3.268   0.106   3.661
  474  SOL  HW1 1569   3.254   0.033   3.600
  474  SOL  HW2 1570   3.312   0.066   3.736
  475  SOL   OW 1571   2.343   1.747   1.037
  475  SOL  HW1 1572   2.436   1.739   1.056
  475  SOL  HW2 1573   2.315   1.825   1.085
  476  SOL   OW 1574   0.413   2.677   0.109
  476  SOL  HW1 1575   0.337   2.711   0.156
  476  SOL  HW2 1576   0.416   2.728   0.028
  477  SOL   OW 1577   3.661   1.016   0.917
  477  SOL  HW1 1578   3.591   1.067   0.956
  477  SOL  HW2 1579   3.621   0.932   0.895
  478  SOL   OW 1580   2.354   0.165   2.473
  478  SOL  HW1 1581   2.345   0.125   2.559
  478  SOL  HW2 1582   2.325   0.098   2.412
  479  SOL   OW 1583   3.499   0.444   1.273
  479  SOL  HW1 1584   3.499   0.467   1.366
  479  SOL  HW2 1585   3.443   0.511   1.233
  480  SOL   OW 1586   2.809   1.994   1.345
  480  SOL  HW1 1587   2.895   2.011   1.305
  480  SOL  HW2 1588   2.773   2.080   1.362
  481  SOL   OW 1589   0.502   0.802   3.661
  481  SOL  HW1 1590   0.477   0.868   3.725
  481  SOL  HW2 1591   0.439   0.812   3.590
  482  SOL   OW 1592   0.633   2.762   2.951
  482  SOL  HW1 1593   0.707   2.740   3.008
  482  SOL  HW2 1594   0.650   2.712   2.871
  483  SOL   OW 1595   2.002   2.046   2.220
  483  SOL  HW1 1596   2.039   1.959   2.211
  483  SOL  HW2 1597   1.932   2.037   2.285
  484  SOL   OW 1598   0.327   2.578   2.165
  484  SOL  HW1 1599   0.302   2.507   2.224
  484  SOL  HW2 1600   0.384   2.635   2.217
  485  SOL   OW 1601   0.516   0.611   3.374
  485  SOL  HW1 1602   0.475   0.680   3.322
  485  SOL  HW2 1603   0.609   0.618   3.356
  486  SOL   OW 1604   1.074   2.559   3.334
  486  SOL  HW1 1605   1.103   2.502   3.262
  486  SOL  HW2 1606   1.028   2.631   3.291
  487  SOL   OW 1607   0.871   1.954   3.636
  487  SOL  HW1 1608   0.961   1.951   3.669
  487  SOL  HW2 1609   0.853   1.864   3.609
  488  SOL   OW 1610   0.814   1.301   1.442
  488  SOL  HW1 1611   0.788   1.252   1.364
  488  SOL  HW2 1612   0.772   1.254   1.514
  489  SOL   OW 1613   3.642   1.593   3.314
  489  SOL  HW1 1614   3.613   1.568   3.226
  489  SOL  HW2 1615   3.665   1.685   3.306
  490  SOL   OW 1616   1.123   3.235   0.334
  490  SOL  HW1 1617   1.155   3.177   0.264
  490  SOL  HW2 1618   1.194   3.298   0.347
  491  SOL   OW 1619   3.262   0.372   1.403
  491  SOL  HW1 1620   3.274   0.277   1.413
  491  SOL  HW2 1621   3.238   0.383   1.311
  492  SOL   OW 1622   3.062   3.151   2.307
  492  SOL  HW1 1623   3.022   3.134   2.392
  492  SOL  HW2 1624   3.117   3.228   2.321
  493  SOL   OW 1625   3.329   0.657   1.106
  493  SOL  HW1 1626   3.386   0.732   1.091
  493  SOL  HW2 1627   3.306   0.662   1.199
  494  SOL   OW 1628   1.623   1.237   3.659
  494  SOL  HW1 1629   1.675   1.310   3.694
  494  SOL  HW2 1630   1.574   1.205   3.734
  495  SOL   OW 1631   2.887   1.582   2.797
  495  SOL  HW1 1632   2.848   1.669   2.787
  495  SOL  HW2 1633   2.955   1.594   2.864
  496  SOL   OW 1634   2.746   2.957   2.410
  496  SOL  HW1 1635   2.763   2.899   2.335
  496  SOL  HW2 1636   2.831   2.965   2.453
  497  SOL   OW 1637   2.349   3.014   1.364
  497  SOL  HW1 1638   2.295   3.091   1.344
  497  SOL  HW2 1639   2.323   2.991   1.453
  498  SOL   OW 1640   2.031   1.879   3.726
  498  SOL  HW1 1641   1.997   1.835   3.648
  498  SOL  HW2 1642   2.111   1.923   3.697
  499  SOL   OW 1643   1.153   0.940   3.319
  499  SOL  HW1 1644   1.181   0.854   3.289
  499  SOL  HW2 1645   1.071   0.956   3.273
  500  SOL   OW 1646   0.078   2.646   2.160
  500  SOL  HW1 1647   0.085   2.730   2.205
  500  SOL  HW2 1648   0.169   2.618   2.147
  501  SOL   OW 1649   2.311   2.922   0.024
  501  SOL  HW1 1650   2.216   2.936   0.015
  501  SOL  HW2 1651   2.319   2.863   0.099
  502  SOL   OW 1652   1.461   1.747   3.281
  502  SOL  HW1 1653   1.370   1.734   3.310
  502  SOL  HW2 1654   1.506   1.667   3.307
  503  SOL   OW 1655   3.237   2.252   0.213
  503  SOL  HW1 1656   3.149   2.259   0.176
  503  SOL  HW2 1657   3.269   2.342   0.216
  504  SOL   OW 1658   3.243   0.754   3.373
  504  SOL  HW1 1659   3.211   0.759   3.463
  504  SOL  HW2 1660   3.317   0.693   3.377
  505  SOL   OW 1661   2.845   1.191   2.942
  505  SOL  HW1 1662   2.843   1.214   3.035
  505  SOL  HW2 1663   2.827   1.097   2.941
  506  SOL   OW 1664   0.019   0.052   2.136
  506  SOL  HW1 1665   0.028  -0.032   2.091
  506  SOL  HW2 1666   0.109   0.085   2.142
  507  SOL   OW 1667   1.338   0.088   2.555
  507  SOL  HW1 1668   1.275   0.132   2.612
  507  SOL  HW2 1669   1.423   0.107   2.593
  508  SOL   OW 1670   3.281   2.649   1.407
  508  SOL  HW1 1671   3.298   2.728   1.356
  508  SOL  HW2 1672   3.209   2.606   1.362
  509  SOL   OW 1673   0.792   3.583   0.837
  509  SOL  HW1 1674   0.774   3.593   0.744
  509  SOL  HW2 1675   0.884   3.609   0.847
  510  SOL   OW 1676   2.807   2.985   1.183
  510  SOL  HW1 1677   2.723   2.943   1.162
  510  SOL  HW2 1678   2.846   3.002   1.097
  511  SOL   OW 1679   3.346   2.896   2.126
  511  SOL  HW1 1680   3.399   2.826   2.089
  511  SOL  HW2 1681   3.314   2.860   2.209
  512  SOL   OW 1682   0.075   3.030   3.517
  512  SOL  HW1 1683   0.042   2.940   3.509
  512  SOL  HW2 1684   0.062   3.051   3.610
  513  SOL   OW 1685   1.445   2.273   1.182
  513  SOL  HW1 1686   1.396   2.326   1.119
  513  SOL  HW2 1687   1.408   2.185   1.173
  514  SOL   OW 1688   0.018   0.234   1.579
  514  SOL  HW1 1689   0.093   0.224   1.520
  514  SOL  HW2 1690  -0.038   0.159   1.558
  515  SOL   OW 1691   2.491   3.556   3.655
  515  SOL  HW1 1692   2.406   3.595   3.634
  515  SOL  HW2 1693   2.477   3.511   3.739
  516  SOL   OW 1694   0.702   1.757   1.337
  516  SOL  HW1 1695   0.722   1.851   1.339
  516  SOL  HW2 1696   0.774   1.717   1.289
  517  SOL   OW 1697   2.045   1.589   1.866
  517  SOL  HW1 1698   2.111   1.652   1.896
  517  SOL  HW2 1699   2.034   1.609   1.773
  518  SOL   OW 1700   3.634   2.584   0.733
  518  SOL  HW1 1701   3.720   2.542   0.738
  518  SOL  HW2 1702   3.636   2.651   0.801
  519  SOL   OW 1703   2.697   1.462   1.138
  519  SOL  HW1 1704   2.792   1.461   1.135
  519  SOL  HW2 1705   2.674   1.382   1.185
  520  SOL   OW 1706   1.995   0.828   0.479
  520  SOL  HW1 1707   1.950   0.817   0.563
  520  SOL  HW2 1708   2.086   0.808   0.498
  521  SOL   OW 1709   0.050   0.241   3.109
  521  SOL  HW1 1710   0.104   0.175   3.152
  521  SOL  HW2 1711  -0.018   0.262   3.174
  522  SOL   OW 1712   0.365   1.433   2.249
  522  SOL  HW1 1713   0.315   1.425   2.330
  522  SOL  HW2 1714   0.408   1.348   2.240
  523  SOL   OW 1715   3.388   2.606   3.719
  523  SOL  HW1 1716   3.422   2.574   3.636
  523  SOL  HW2 1717   3.428   2.692   3.731
  524  SOL   OW 1718   1.865   2.270   1.454
  524  SOL  HW1 1719   1.815   2.251   1.375
  524  SOL  HW2 1720   1.815   2.339   1.499
  525  SOL   OW 1721   1.134   2.309   1.784
  525  SOL  HW1 1722   1.098   2.376   1.842
  525  SOL  HW2 1723   1.174   2.245   1.844
  526  SOL   OW 1724   2.194   0.674   2.481
  526  SOL  HW1 1725   2.186   0.667   2.386
  526  SOL  HW2 1726   2.288   0.678   2.497
  527  SOL   OW 1727   1.455   3.454   1.120
  527  SOL  HW1 1728   1.421   3.490   1.038
  527  SOL  HW2 1729   1.504   3.376   1.094
  528  SOL   OW 1730   1.591   0.127   0.771
  528  SOL  HW1 1731   1.636   0.210   0.755
  528  SOL  HW2 1732   1.655   0.060   0.743
  529  SOL   OW 1733   1.950   1.309   1.925
  529  SOL  HW1 1734   1.898   1.318   1.845
  529  SOL  HW2 1735   1.983   1.397   1.942
  530  SOL   OW 1736   3.469   2.003   1.379
  530  SOL  HW1 1737   3.533   2.041   1.440
  530  SOL  HW2 1738   3.384   2.021   1.419
  531  SOL   OW 1739   1.302   0.375   3.676
  531  SOL  HW1 1740   1.339   0.288   3.692
  531  SOL  HW2 1741   1.337   0.400   3.591
  532  SOL   OW 1742   3.643   2.350   1.546
  532  SOL  HW1 1743   3.559   2.353   1.500
  532  SOL  HW2 1744   3.671   2.259   1.538
  533  SOL   OW 1745   3.407   1.119   3.010
  533  SOL  HW1 1746   3.485   1.143   3.060
  533  SOL  HW2 1747   3.382   1.032   3.044
  534  SOL   OW 1748   3.639   2.001   2.309
  534  SOL  HW1 1749   3.565   1.963   2.357
  534  SOL  HW2 1750   3.707   1.935   2.314
  535  SOL   OW 1751   0.589   1.487   0.069
  535  SOL  HW1 1752   0.581   1.393   0.083
  535  SOL  HW2 1753   0.507   1.512   0.026
  536  SOL   OW 1754   2.449   3.335   1.498
  536  SOL  HW1 1755   2.367   3.310   1.456
  536  SOL  HW2 1756   2.435   3.319   1.591
  537  SOL   OW 1757   0.147   0.276   3.645
  537  SOL  HW1 1758   0.204   0.240   3.576
  537  SOL  HW2 1759   0.107   0.200   3.686
  538  SOL   OW 1760   0.852   1.390   3.241
  538  SOL  HW1 1761   0.928   1.448   3.239
  538  SOL  HW2 1762   0.777   1.447   3.224
  539  SOL   OW 1763   1.241   1.440   2.806
  539  SOL  HW1 1764   1.289   1.429   2.724
  539  SOL  HW2 1765   1.241   1.352   2.845
  540  SOL   OW 1766   2.604   1.583   2.134
  540  SOL  HW1 1767   2.567   1.642   2.068
  540  SOL  HW2 1768   2.530   1.526   2.159
  541  SOL   OW 1769   2.384   0.471   0.967
  541  SOL  HW1 1770   2.359   0.441   1.055
  541  SOL  HW2 1771   2.336   0.552   0.955
  542  SOL   OW 1772   0.306   1.784   1.867
  542  SOL  HW1 1773   0.349   1.712   1.821
  542  SOL  HW2 1774   0.253   1.741   1.935
  543  SOL   OW 1775   2.304   3.749   1.938
  543  SOL  HW1 1776   2.333   3.672   1.890
  543  SOL  HW2 1777   2.330   3.732   2.029
  544  SOL   OW 1778   0.356   3.460   3.334
  544  SOL  HW1 1779   0.391   3.385   3.382
  544  SOL  HW2 1780   0.389   3.537   3.382
  545  SOL   OW 1781   0.629   3.221   3.146
  545  SOL  HW1 1782   0.694   3.292   3.154
  545  SOL  HW2 1783   0.546   3.266   3.130
  546  SOL   OW 1784   0.484   2.051   1.797
  546  SOL  HW1 1785   0.524   2.052   1.884
  546  SOL  HW2 1786   0.536   2.112   1.746
  547  SOL   OW 1787   2.264   1.542   0.320
  547  SOL  HW1 1788   2.181   1.506   0.350
  547  SOL  HW2 1789   2.243   1.587   0.238
  548  SOL   OW 1790   0.084   3.506   3.579
  548  SOL  HW1 1791   0.048   3.567   3.515
  548  SOL  HW2 1792   0.147   3.453   3.530
  549  SOL   OW 1793   0.872   2.986   3.564
  549  SOL  HW1 1794   0.950   3.042   3.560
  549  SOL  HW2 1795   0.838   2.987   3.474
  550  SOL   OW 1796   3.296   1.774   2.475
  550  SOL  HW1 1797   3.332   1.791   2.388
  550  SOL  HW2 1798   3.212   1.730   2.459
  551  SOL   OW 1799   2.133   0.704   3.066
  551  SOL  HW1 1800   2.082   0.769   3.018
  551  SOL  HW2 1801   2.180   0.656   2.998
  552  SOL   OW 1802   0.728   3.465   3.127
  552  SOL  HW1 1803   0.785   3.508   3.063
  552  SOL  HW2 1804   0.674   3.536   3.162
  553  SOL   OW 1805   3.039   2.030   1.218
  553  SOL  HW1 1806   3.100   2.068   1.155
  553  SOL  HW2 1807   3.095   2.006   1.293
  554  SOL   OW 1808   2.592   1.987   2.183
  554  SOL  HW1 1809   2.665   1.925   2.181
  554  SOL  HW2 1810   2.514   1.932   2.192
  555  SOL   OW 1811   3.145   1.538   1.597
  555  SOL  HW1 1812   3.177   1.560   1.509
  555  SOL  HW2 1813   3.145   1.621   1.644
  556  SOL   OW 1814   2.294   1.624   2.296
  556  SOL  HW1 1815   2.284   1.660   2.385
  556  SOL  HW2 1816   2.214   1.651   2.251
  557  SOL   OW 1817   0.563   0.603   0.279
  557  SOL  HW1 1818   0.601   0.658   0.210
  557  SOL  HW2 1819   0.565   0.514   0.242
  558  SOL   OW 1820   1.539   0.995   1.386
  558  SOL  HW1 1821   1.514   1.063   1.323
  558  SOL  HW2 1822   1.576   1.043   1.460
  559  SOL   OW 1823   3.079   1.309   2.827
  559  SOL  HW1 1824   2.990   1.281   2.848
  559  SOL  HW2 1825   3.116   1.334   2.911
  560  SOL   OW 1826   0.306   0.044   1.677
  560  SOL  HW1 1827   0.287   0.126   1.631
  560  SOL  HW2 1828   0.285  -0.025   1.614
  561  SOL   OW 1829   1.359   1.069   0.447
  561  SOL  HW1 1830   1.360   1.113   0.532
  561  SOL  HW2 1831   1.292   1.114   0.397
  562  SOL   OW 1832   2.159   3.503   0.724
  562  SOL  HW1 1833   2.083   3.556   0.747
  562  SOL  HW2 1834   2.229   3.567   0.710
  563  SOL   OW 1835   3.581   2.651   2.863
  563  SOL  HW1 1836   3.518   2.699   2.917
  563  SOL  HW2 1837   3.528   2.611   2.794
  564  SOL   OW 1838   1.319   2.090   2.339
  564  SOL  HW1 1839   1.297   2.164   2.282
  564  SOL  HW2 1840   1.239   2.038   2.343
  565  SOL   OW 1841   3.529   0.198   1.974
  565  SOL  HW1 1842   3.596   0.134   1.950
  565  SOL  HW2 1843   3.534   0.264   1.905
  566  SOL   OW 1844   2.873   2.245   2.988
  566  SOL  HW1 1845   2.946   2.308   2.995
  566  SOL  HW2 1846   2.911   2.162   3.014
  567  SOL   OW 1847   1.711   2.812   1.127
  567  SOL  HW1 1848   1.752   2.790   1.211
  567  SOL  HW2 1849   1.671   2.730   1.098
  568  SOL   OW 1850   3.673   2.083   1.643
  568  SOL  HW1 1851   3.756   2.035   1.655
  568  SOL  HW2 1852   3.616   2.049   1.712
  569  SOL   OW 1853   1.441   3.422   2.263
  569  SOL  HW1 1854   1.480   3.449   2.346
  569  SOL  HW2 1855   1.515   3.414   2.203
  570  SOL   OW 1856   1.919   1.865   0.239
  570  SOL  HW1 1857   1.972   1.875   0.161
  570  SOL  HW2 1858   1.910   1.954   0.274
  571  SOL   OW 1859   3.350   1.113   0.880
  571  SOL  HW1 1860   3.303   1.171   0.820
  571  SOL  HW2 1861   3.343   1.026   0.840
  572  SOL   OW 1862   0.603   1.108   2.471
  572  SOL  HW1 1863   0.538   1.162   2.517
  572  SOL  HW2 1864   0.673   1.169   2.449
  573  SOL   OW 1865   2.596   3.571   1.865
  573  SOL  HW1 1866   2.592   3.502   1.799
  573  SOL  HW2 1867   2.674   3.549   1.917
  574  SOL   OW 1868   1.741   3.578   0.132
  574  SOL  HW1 1869   1.739   3.544   0.043
  574  SOL  HW2 1870   1.801   3.520   0.179
  575  SOL   OW 1871   2.647   1.009   2.488
  575  SOL  HW1 1872   2.673   1.071   2.557
  575  SOL  HW2 1873   2.687   0.926   2.514
  576  SOL   OW 1874   1.329   0.118   2.101
  576  SOL  HW1 1875   1.404   0.178   2.105
  576  SOL  HW2 1876   1.267   0.161   2.042
  577  SOL   OW 1877   0.127   3.701   3.196
  577  SOL  HW1 1878   0.073   3.624   3.216
  577  SOL  HW2 1879   0.166   3.680   3.111
  578  SOL   OW 1880   1.226   0.837   0.510
  578  SOL  HW1 1881   1.299   0.897   0.495
  578  SOL  HW2 1882   1.267   0.750   0.513
  579  SOL   OW 1883   0.864   2.580   1.752
  579  SOL  HW1 1884   0.913   2.605   1.830
  579  SOL  HW2 1885   0.777   2.557   1.786
  580  SOL   OW 1886   2.259   2.926   3.183
  580  SOL  HW1 1887   2.212   2.882   3.253
  580  SOL  HW2 1888   2.230   3.017   3.187
  581  SOL   OW 1889   1.620   0.746   1.360
  581  SOL  HW1 1890   1.713   0.762   1.376
  581  SOL  HW2 1891   1.578   0.831   1.372
  582  SOL   OW 1892   1.072   2.772   2.915
  582  SOL  HW1 1893   1.057   2.866   2.906
  582  SOL  HW2 1894   1.004   2.743   2.975
  583  SOL   OW 1895   2.428   1.078   1.123
  583  SOL  HW1 1896   2.394   1.163   1.149
  583  SOL  HW2 1897   2.519   1.079   1.152
  584  SOL   OW 1898   2.629   2.738   0.859
  584  SOL  HW1 1899   2.606   2.830   0.872
  584  SOL  HW2 1900   2.551   2.689   0.885
  585  SOL   OW 1901   2.080   2.165   0.457
  585  SOL  HW1 1902   2.004   2.168   0.399
  585  SOL  HW2 1903   2.134   2.240   0.431
  586  SOL   OW 1904   1.802   1.304   2.914
  586  SOL  HW1 1905   1.798   1.359   2.836
  586  SOL  HW2 1906   1.711   1.279   2.931
  587  SOL   OW 1907   0.648   1.737   0.392
  587  SOL  HW1 1908   0.694   1.809   0.349
  587  SOL  HW2 1909   0.571   1.778   0.432
  588  SOL   OW 1910   0.005   1.251   1.722
  588  SOL  HW1 1911   0.010   1.215   1.811
  588  SOL  HW2 1912   0.004   1.174   1.665
  589  SOL   OW 1913   1.262   2.435   0.290
  589  SOL  HW1 1914   1.343   2.471   0.255
  589  SOL  HW2 1915   1.217   2.510   0.329
  590  SOL   OW 1916   2.115   1.114   3.348
  590  SOL  HW1 1917   2.144   1.121   3.258
  590  SOL  HW2 1918   2.190   1.142   3.400
  591  SOL   OW 1919   1.398   0.424   2.938
  591  SOL  HW1 1920   1.461   0.487   2.902
  591  SOL  HW2 1921   1.407   0.347   2.884
  592  SOL   OW 1922   0.669   2.582   0.085
  592  SOL  HW1 1923   0.630   2.545   0.006
  592  SOL  HW2 1924   0.599   2.632   0.126
  593  SOL   OW 1925   0.219   2.426   0.678
  593  SOL  HW1 1926   0.181   2.346   0.714
  593  SOL  HW2 1927   0.201   2.493   0.744
  594  SOL   OW 1928   3.699   0.470   3.621
  594  SOL  HW1 1929   3.759   0.395   3.631
  594  SOL  HW2 1930   3.622   0.447   3.673
  595  SOL   OW 1931   1.759   2.207   0.843
  595  SOL  HW1 1932   1.821   2.174   0.777
  595  SOL  HW2 1933   1.731   2.129   0.890
  596  SOL   OW 1934   2.601   2.407   0.528
  596  SOL  HW1 1935   2.584   2.485   0.475
  596  SOL  HW2 1936   2.526   2.400   0.586
  597  SOL   OW 1937   1.107   3.497   0.881
  597  SOL  HW1 1938   1.125   3.446   0.960
  597  SOL  HW2 1939   1.048   3.442   0.829
  598  SOL   OW 1940   3.089   0.693   0.603
  598  SOL  HW1 1941   3.159   0.641   0.643
  598  SOL  HW2 1942   3.131   0.776   0.581
  599  SOL   OW 1943   1.326   3.185   1.606
  599  SOL  HW1 1944   1.352   3.244   1.535
  599  SOL  HW2 1945   1.408   3.158   1.646
  600  SOL   OW 1946   0.696   0.214   0.999
  600  SOL  HW1 1947   0.772   0.248   0.951
  600  SOL  HW2 1948   0.636   0.183   0.930
  601  SOL   OW 1949   0.304   2.780   1.840
  601  SOL  HW1 1950   0.261   2.695   1.846
  601  SOL  HW2 1951   0.393   2.759   1.810
  602  SOL   OW 1952   1.617   1.965   0.914
  602  SOL  HW1 1953   1.537   2.007   0.885
  602  SOL  HW2 1954   1.629   1.891   0.854
  603  SOL   OW 1955   1.340   1.992   0.880
  603  SOL  HW1 1956   1.322   1.937   0.804
  603  SOL  HW2 1957   1.297   2.075   0.860
  604  SOL   OW 1958   1.265   0.711   3.283
  604  SOL  HW1 1959   1.264   0.693   3.377
  604  SOL  HW2 1960   1.256   0.625   3.242
  605  SOL   OW 1961   2.774   3.644   3.093
  605  SOL  HW1 1962   2.783   3.666   3.000
  605  SOL  HW2 1963   2.830   3.708   3.138
  606  SOL   OW 1964   1.510   0.217   3.367
  606  SOL  HW1 1965   1.428   0.261   3.391
  606  SOL  HW2 1966   1.523   0.240   3.275
  607  SOL   OW 1967   3.409   2.979   3.306
  607  SOL  HW1 1968   3.497   3.018   3.310
  607  SOL  HW2 1969   3.353   3.050   3.276
  608  SOL   OW 1970   2.740   2.667   3.154
  608  SOL  HW1 1971   2.814   2.648   3.211
  608  SOL  HW2 1972   2.780   2.683   3.068
  609  SOL   OW 1973   1.500   0.814   0.779
  609  SOL  HW1 1974   1.465   0.885   0.832
  609  SOL  HW2 1975   1.501   0.738   0.837
  610  SOL   OW 1976   0.285   2.244   0.293
  610  SOL  HW1 1977   0.351   2.174   0.286
  610  SOL  HW2 1978   0.225   2.227   0.221
  611  SOL   OW 1979   3.643   0.951   3.372
  611  SOL  HW1 1980   3.606   0.863   3.384
  611  SOL  HW2 1981   3.685   0.948   3.286
  612  SOL   OW 1982   0.113   1.708   1.216
  612  SOL  HW1 1983   0.067   1.756   1.285
  612  SOL  HW2 1984   0.075   1.620   1.218
  613  SOL   OW 1985   0.082   3.567   1.517
  613  SOL  HW1 1986   0.020   3.632   1.483
  613  SOL  HW2 1987   0.057   3.557   1.609
  614  SOL   OW 1988   2.077   3.105   1.575
  614  SOL  HW1 1989   2.029   3.043   1.520
  614  SOL  HW2 1990   2.149   3.055   1.611
  615  SOL   OW 1991   1.305   1.103   0.712
  615  SOL  HW1 1992   1.363   1.171   0.745
  615  SOL  HW2 1993   1.245   1.085   0.784
  616  SOL   OW 1994   1.594   3.379   0.499
  616  SOL  HW1 1995   1.680   3.420   0.494
  616  SOL  HW2 1996   1.567   3.391   0.591
  617  SOL   OW 1997   3.340   1.924   0.748
  617  SOL  HW1 1998   3.409   1.878   0.701
  617  SOL  HW2 1999   3.267   1.927   0.685
  618  SOL   OW 2000   1.172   3.004   2.057
  618  SOL  HW1 2001   1.252   2.958   2.082
  618  SOL  HW2 2002   1.185   3.025   1.965
  619  SOL   OW 2003   0.051   0.854   2.291
  619  SOL  HW1 2004   0.125   0.801   2.322
  619  SOL  HW2 2005  -0.025   0.797   2.297
  620  SOL   OW 2006   2.883   2.619   3.674
  620  SOL  HW1 2007   2.972   2.583   3.673
  620  SOL  HW2 2008   2.883   2.684   3.604
  621  SOL   OW 2009   0.838   0.736   1.108
  621  SOL  HW1 2010   0.792   0.652   1.108
  621  SOL  HW2 2011   0.771   0.800   1.081
  622  SOL   OW 2012   1.780   1.032   2.764
  622  SOL  HW1 2013   1.810   1.064   2.848
  622  SOL  HW2 2014   1.684   1.038   2.768
  623  SOL   OW 2015   3.156   3.491   3.217
  623  SOL  HW1 2016   3.139   3.567   3.272
  623  SOL  HW2 2017   3.248   3.499   3.192
  624  SOL   OW 2018   3.490   0.220   2.255
  624  SOL  HW1 2019   3.502   0.230   2.161
  624  SOL  HW2 2020   3.408   0.265   2.274
  625  SOL   OW 2021   0.117   2.613   1.686
  625  SOL  HW1 2022   0.091   2.537   1.633
  625  SOL  HW2 2023   0.105   2.688   1.628
  626  SOL   OW 2024   1.841   2.912   3.378
  626  SOL  HW1 2025   1.826   2.972   3.451
  626  SOL  HW2 2026   1.817   2.826   3.412
  627  SOL   OW 2027   2.459   0.143   0.456
  627  SOL  HW1 2028   2.534   0.145   0.397
  627  SOL  HW2 2029   2.422   0.055   0.446
  628  SOL   OW 2030   0.206   2.627   2.438
  628  SOL  HW1 2031   0.215   2.722   2.440
  628  SOL  HW2 2032   0.118   2.610   2.470
  629  SOL   OW 2033   0.959   0.618   0.664
  629  SOL  HW1 2034   1.042   0.596   0.705
  629  SOL  HW2 2035   0.953   0.713   0.671
  630  SOL   OW 2036   3.520   2.063   3.549
  630  SOL  HW1 2037   3.591   2.097   3.602
  630  SOL  HW2 2038   3.532   2.103   3.463
  631  SOL   OW 2039   3.539   0.696   2.787
  631  SOL  HW1 2040   3.484   0.669   2.860
  631  SOL  HW2 2041   3.628   0.674   2.815
  632  SOL   OW 2042   3.655   1.020   1.960
  632  SOL  HW1 2043   3.619   0.932   1.952
  632  SOL  HW2 2044   3.749   1.010   1.948
  633  SOL   OW 2045   0.940   1.617   0.592
  633  SOL  HW1 2046   0.868   1.663   0.635
  633  SOL  HW2 2047   0.935   1.644   0.501
  634  SOL   OW 2048   2.104   2.619   3.000
  634  SOL  HW1 2049   2.043   2.691   2.986
  634  SOL  HW2 2050   2.052   2.540   2.983
  635  SOL   OW 2051   1.241   2.039   2.826
  635  SOL  HW1 2052   1.211   2.108   2.885
  635  SOL  HW2 2053   1.170   2.030   2.762
  636  SOL   OW 2054   2.164   1.316   3.127
  636  SOL  HW1 2055   2.188   1.228   3.096
  636  SOL  HW2 2056   2.080   1.304   3.171
  637  SOL   OW 2057   3.664   0.472   0.828
  637  SOL  HW1 2058   3.702   0.542   0.775
  637  SOL  HW2 2059   3.613   0.517   0.895
  638  SOL   OW 2060   3.339   1.501   2.870
  638  SOL  HW1 2061   3.276   1.515   2.799
  638  SOL  HW2 2062   3.285   1.473   2.944
  639  SOL   OW 2063   2.547   2.898   1.211
  639  SOL  HW1 2064   2.495   2.936   1.282
  639  SOL  HW2 2065   2.513   2.808   1.202
  640  SOL   OW 2066   2.830   2.500   0.201
  640  SOL  HW1 2067   2.882   2.470   0.127
  640  SOL  HW2 2068   2.756   2.547   0.161
  641  SOL   OW 2069   1.580   3.160   1.757
  641  SOL  HW1 2070   1.633   3.218   1.703
  641  SOL  HW2 2071   1.622   3.162   1.843
  642  SOL   OW 2072   3.548   2.715   0.980
  642  SOL  HW1 2073   3.550   2.710   1.076
  642  SOL  HW2 2074   3.568   2.807   0.961
  643  SOL   OW 2075   1.409   1.313   0.889
  643  SOL  HW1 2076   1.417   1.389   0.947
  643  SOL  HW2 2077   1.429   1.348   0.802
  644  SOL   OW 2078   2.762   3.462   3.679
  644  SOL  HW1 2079   2.752   3.367   3.672
  644  SOL  HW2 2080   2.674   3.496   3.663
  645  SOL   OW 2081   1.871   1.115   1.307
  645  SOL  HW1 2082   1.911   1.055   1.370
  645  SOL  HW2 2083   1.833   1.057   1.240
  646  SOL   OW 2084   2.992   1.205   0.983
  646  SOL  HW1 2085   3.071   1.235   1.028
  646  SOL  HW2 2086   2.986   1.260   0.906
  647  SOL   OW 2087   2.071   0.420   0.684
  647  SOL  HW1 2088   2.111   0.359   0.622
  647  SOL  HW2 2089   2.088   0.507   0.647
  648  SOL   OW 2090   2.387   2.384   0.231
  648  SOL  HW1 2091   2.345   2.301   0.209
  648  SOL  HW2 2092   2.470   2.383   0.182
  649  SOL   OW 2093   1.825   3.707   3.205
  649  SOL  HW1 2094   1.816   3.796   3.172
  649  SOL  HW2 2095   1.835   3.653   3.126
  650  SOL   OW 2096   1.143   3.399   2.318
  650  SOL  HW1 2097   1.213   3.463   2.306
  650  SOL  HW2 2098   1.076   3.445   2.368
  651  SOL   OW 2099   1.185   2.514   2.460
  651  SOL  HW1 2100   1.136   2.433   2.457
  651  SOL  HW2 2101   1.135   2.570   2.520
  652  SOL   OW 2102   0.848   3.017   2.980
  652  SOL  HW1 2103   0.869   3.110   2.972
  652  SOL  HW2 2104   0.758   3.016   3.013
  653  SOL   OW 2105   1.372   2.034  -0.009
  653  SOL  HW1 2106   1.316   2.095   0.039
  653  SOL  HW2 2107   1.372   1.955   0.045
  654  SOL   OW 2108   3.234   0.072   2.593
  654  SOL  HW1 2109   3.281   0.007   2.644
  654  SOL  HW2 2110   3.188   0.021   2.525
  655  SOL   OW 2111   2.983   2.355   2.437
  655  SOL  HW1 2112   2.941   2.269   2.438
  655  SOL  HW2 2113   2.950   2.398   2.517
  656  SOL   OW 2114   0.649   3.022   0.268
  656  SOL  HW1 2115   0.719   3.040   0.205
  656  SOL  HW2 2116   0.573   3.068   0.234
  657  SOL   OW 2117   0.511   1.919   0.727
  657  SOL  HW1 2118   0.537   2.011   0.733
  657  SOL  HW2 2119   0.417   1.920   0.743
  658  SOL   OW 2120   0.275   2.846   2.790
  658  SOL  HW1 2121   0.264   2.809   2.877
  658  SOL  HW2 2122   0.336   2.919   2.802
  659  SOL   OW 2123   1.138   2.312   0.511
  659  SOL  HW1 2124   1.051   2.338   0.480
  659  SOL  HW2 2125   1.198   2.339   0.442
  660  SOL   OW 2126   1.425   1.691   3.667
  660  SOL  HW1 2127   1.397   1.601   3.681
  660  SOL  HW2 2128   1.452   1.722   3.754
  661  SOL   OW 2129   3.208   2.388   0.875
  661  SOL  HW1 2130   3.132   2.395   0.818
  661  SOL  HW2 2131   3.247   2.476   0.876
  662  SOL   OW 2132   0.544   1.679   2.595
  662  SOL  HW1 2133   0.480   1.707   2.661
  662  SOL  HW2 2134   0.628   1.679   2.641
  663  SOL   OW 2135   0.181   3.626   2.341
  663  SOL  HW1 2136   0.193   3.718   2.320
  663  SOL  HW2 2137   0.240   3.580   2.281
  664  SOL   OW 2138   2.881   3.231   1.624
  664  SOL  HW1 2139   2.884   3.162   1.557
  664  SOL  HW2 2140   2.966   3.275   1.617
  665  SOL   OW 2141   2.768   1.884   1.781
  665  SOL  HW1 2142   2.705   1.835   1.728
  665  SOL  HW2 2143   2.843   1.825   1.788
  666  SOL   OW 2144   2.110   3.584   3.377
  666  SOL  HW1 2145   2.043   3.652   3.375
  666  SOL  HW2 2146   2.072   3.511   3.327
  667  SOL   OW 2147   3.370   3.304   0.640
  667  SOL  HW1 2148   3.321   3.323   0.720
  667  SOL  HW2 2149   3.305   3.269   0.579
  668  SOL   OW 2150   3.651   1.480   1.453
  668  SOL  HW1 2151   3.559   1.458   1.439
  668  SOL  HW2 2152   3.696   1.452   1.373
  669  SOL   OW 2153   2.187   1.824   1.913
  669  SOL  HW1 2154   2.154   1.899   1.964
  669  SOL  HW2 2155   2.216   1.862   1.830
  670  SOL   OW 2156   0.765   1.109   1.077
  670  SOL  HW1 2157   0.703   1.046   1.039
  670  SOL  HW2 2158   0.775   1.081   1.168
  671  SOL   OW 2159   3.257   0.042   0.840
  671  SOL  HW1 2160   3.252   0.034   0.935
  671  SOL  HW2 2161   3.213   0.125   0.821
  672  SOL   OW 2162   2.277   2.665   1.372
  672  SOL  HW1 2163   2.241   2.593   1.424
  672  SOL  HW2 2164   2.355   2.628   1.329
  673  SOL   OW 2165   0.227   2.389   2.784
  673  SOL  HW1 2166   0.196   2.476   2.757
  673  SOL  HW2 2167   0.290   2.364   2.716
  674  SOL   OW 2168   0.738   2.332   1.918
  674  SOL  HW1 2169   0.670   2.392   1.948
  674  SOL  HW2 2170   0.703   2.294   1.838
  675  SOL   OW 2171   1.542   1.138   3.222
  675  SOL  HW1 2172   1.634   1.121   3.203
  675  SOL  HW2 2173   1.526   1.097   3.307
  676  SOL   OW 2174   0.307   1.834   3.399
  676  SOL  HW1 2175   0.256   1.754   3.404
  676  SOL  HW2 2176   0.243   1.903   3.383
  677  SOL   OW 2177   3.206   2.083   1.827
  677  SOL  HW1 2178   3.244   2.159   1.872
  677  SOL  HW2 2179   3.123   2.068   1.872
  678  SOL   OW 2180   0.257   0.456   2.186
  678  SOL  HW1 2181   0.231   0.496   2.269
  678  SOL  HW2 2182   0.338   0.500   2.162
  679  SOL   OW 2183   2.015   1.652   0.368
  679  SOL  HW1 2184   2.088   1.684   0.420
  679  SOL  HW2 2185   1.997   1.723   0.306
  680  SOL   OW 2186   0.052   0.263   2.346
  680  SOL  HW1 2187  -0.028   0.253   2.293
  680  SOL  HW2 2188   0.123   0.260   2.283
  681  SOL   OW 2189   2.746   0.309   2.736
  681  SOL  HW1 2190   2.722   0.398   2.710
  681  SOL  HW2 2191   2.837   0.299   2.708
  682  SOL   OW 2192   2.959   1.697   0.868
  682  SOL  HW1 2193   2.953   1.663   0.778
  682  SOL  HW2 2194   2.869   1.722   0.890
  683  SOL   OW 2195   2.294   1.833   3.385
  683  SOL  HW1 2196   2.279   1.784   3.304
  683  SOL  HW2 2197   2.364   1.785   3.429
  684  SOL   OW 2198   2.449   2.405   3.663
  684  SOL  HW1 2199   2.502   2.473   3.705
  684  SOL  HW2 2200   2.503   2.327   3.666
  685  SOL   OW 2201   2.847   3.530   2.011
  685  SOL  HW1 2202   2.899   3.608   1.989
  685  SOL  HW2 2203   2.898   3.457   1.976
  686  SOL   OW 2204   2.954   1.130   1.326
  686  SOL  HW1 2205   2.956   1.069   1.399
  686  SOL  HW2 2206   3.024   1.193   1.346
  687  SOL   OW 2207   0.801   1.914   1.003
  687  SOL  HW1 2208   0.860   1.969   1.056
  687  SOL  HW2 2209   0.715   1.926   1.044
  688  SOL   OW 2210   3.205   0.881   0.424
  688  SOL  HW1 2211   3.292   0.894   0.387
  688  SOL  HW2 2212   3.159   0.829   0.358
  689  SOL   OW 2213   2.124   2.109   1.985
  689  SOL  HW1 2214   2.081   2.161   1.917
  689  SOL  HW2 2215   2.057   2.099   2.053
  690  SOL   OW 2216   1.800   1.726   3.012
  690  SOL  HW1 2217   1.748   1.799   2.976
  690  SOL  HW2 2218   1.886   1.736   2.971
  691  SOL   OW 2219   2.617   0.960   3.724
  691  SOL  HW1 2220   2.619   1.040   3.776
  691  SOL  HW2 2221   2.604   0.991   3.634
  692  SOL   OW 2222   3.477   0.018   0.677
  692  SOL  HW1 2223   3.510   0.107   0.690
  692  SOL  HW2 2224   3.383   0.025   0.694
  693  SOL   OW 2225   0.986   1.217   0.974
  693  SOL  HW1 2226   0.904   1.175   1.001
  693  SOL  HW2 2227   1.003   1.283   1.042
  694  SOL   OW 2228   2.344   3.289   0.714
  694  SOL  HW1 2229   2.314   3.226   0.779
  694  SOL  HW2 2230   2.346   3.373   0.762
  695  SOL   OW 2231   0.956   3.080   1.794
  695  SOL  HW1 2232   0.904   3.150   1.832
  695  SOL  HW2 2233   0.985   3.115   1.709
  696  SOL   OW 2234   2.661   1.722   1.001
  696  SOL  HW1 2235   2.683   1.810   1.032
  696  SOL  HW2 2236   2.680   1.665   1.075
  697  SOL   OW 2237   0.432   2.487   2.569
  697  SOL  HW1 2238   0.479   2.566   2.598
  697  SOL  HW2 2239   0.363   2.520   2.512
  698  SOL   OW 2240   2.500   2.111   1.484
  698  SOL  HW1 2241   2.525   2.030   1.529
  698  SOL  HW2 2242   2.557   2.177   1.522
  699  SOL   OW 2243   3.645   3.397   2.799
  699  SOL  HW1 2244   3.681   3.449   2.727
  699  SOL  HW2 2245   3.633   3.310   2.762
  700  SOL   OW 2246   0.835   2.412   0.196
  700  SOL  HW1 2247   0.780   2.488   0.173
  700  SOL  HW2 2248   0.846   2.365   0.113
  701  SOL   OW 2249   1.186   0.071   2.970
  701  SOL  HW1 2250   1.235   0.017   3.032
  701  SOL  HW2 2251   1.176   0.016   2.892
  702  SOL   OW 2252   2.189   2.331   3.663
  702  SOL  HW1 2253   2.195   2.245   3.622
  702  SOL  HW2 2254   2.278   2.365   3.663
  703  SOL   OW 2255   3.464   1.339   3.666
  703  SOL  HW1 2256   3.447   1.426   3.703
  703  SOL  HW2 2257   3.459   1.352   3.571
  704  SOL   OW 2258   3.657   1.344   0.758
  704  SOL  HW1 2259   3.566   1.348   0.729
  704  SOL  HW2 2260   3.691   1.263   0.721
  705  SOL   OW 2261   2.386   0.832   3.108
  705  SOL  HW1 2262   2.419   0.824   3.018
  705  SOL  HW2 2263   2.302   0.786   3.107
  706  SOL   OW 2264   2.821   0.291   0.154
  706  SOL  HW1 2265   2.732   0.292   0.190
  706  SOL  HW2 2266   2.818   0.225   0.085
  707  SOL   OW 2267   3.594   3.374  -0.003
  707  SOL  HW1 2268   3.620   3.445  -0.062
  707  SOL  HW2 2269   3.606   3.411   0.085
  708  SOL   OW 2270   1.056   2.797   1.106
  708  SOL  HW1 2271   1.099   2.789   1.191
  708  SOL  HW2 2272   1.116   2.851   1.054
  709  SOL   OW 2273   3.116   1.841   0.572
  709  SOL  HW1 2274   3.121   1.918   0.515
  709  SOL  HW2 2275   3.022   1.824   0.579
  710  SOL   OW 2276   0.489   2.928   3.663
  710  SOL  HW1 2277   0.572   2.975   3.674
  710  SOL  HW2 2278   0.431   2.966   3.729
  711  SOL   OW 2279   2.426   3.538   2.325
  711  SOL  HW1 2280   2.460   3.611   2.274
  711  SOL  HW2 2281   2.480   3.535   2.404
  712  SOL   OW 2282   2.654   0.507   1.008
  712  SOL  HW1 2283   2.578   0.478   0.956
  712  SOL  HW2 2284   2.701   0.425   1.027
  713  SOL   OW 2285   0.688   1.091   2.012
  713  SOL  HW1 2286   0.694   1.179   2.050
  713  SOL  HW2 2287   0.610   1.053   2.051
  714  SOL   OW 2288   0.413   1.114   1.101
  714  SOL  HW1 2289   0.321   1.139   1.096
  714  SOL  HW2 2290   0.461   1.193   1.075
  715  SOL   OW 2291   1.180   3.461   1.516
  715  SOL  HW1 2292   1.173   3.552   1.543
  715  SOL  HW2 2293   1.273   3.448   1.496
  716  SOL   OW 2294   0.707   2.379   2.234
  716  SOL  HW1 2295   0.617   2.349   2.247
  716  SOL  HW2 2296   0.708   2.414   2.144
  717  SOL   OW 2297   3.412   2.581   2.649
  717  SOL  HW1 2298   3.343   2.553   2.709
  717  SOL  HW2 2299   3.378   2.559   2.562
  718  SOL   OW 2300   0.371   2.226   0.556
  718  SOL  HW1 2301   0.314   2.149   0.553
  718  SOL  HW2 2302   0.314   2.299   0.532
  719  SOL   OW 2303   1.625   2.527   3.628
  719  SOL  HW1 2304   1.694   2.465   3.651
  719  SOL  HW2 2305   1.656   2.569   3.547
  720  SOL   OW 2306   0.211   1.645   2.954
  720  SOL  HW1 2307   0.131   1.694   2.936
  720  SOL  HW2 2308   0.200   1.563   2.907
  721  SOL   OW 2309   1.315   0.060   0.740
  721  SOL  HW1 2310   1.313   0.049   0.645
  721  SOL  HW2 2311   1.400   0.099   0.758
  722  SOL   OW 2312   0.905   1.733   1.550
  722  SOL  HW1 2313   0.813   1.752   1.532
  722  SOL  HW2 2314   0.940   1.814   1.587
  723  SOL   OW 2315   2.802   1.881   2.789
  723  SOL  HW1 2316   2.779   1.945   2.856
  723  SOL  HW2 2317   2.896   1.893   2.775
  724  SOL   OW 2318   0.069   0.099   3.430
  724  SOL  HW1 2319   0.088   0.052   3.349
  724  SOL  HW2 2320  -0.015   0.142   3.413
  725  SOL   OW 2321   1.316   2.148   1.917
  725  SOL  HW1 2322   1.348   2.189   1.997
  725  SOL  HW2 2323   1.240   2.096   1.946
  726  SOL   OW 2324   1.165   1.877   1.569
  726  SOL  HW1 2325   1.190   1.969   1.559
  726  SOL  HW2 2326   1.172   1.841   1.480
  727  SOL   OW 2327   2.886   0.534   0.106
  727  SOL  HW1 2328   2.877   0.440   0.124
  727  SOL  HW2 2329   2.816   0.554   0.045
  728  SOL   OW 2330   2.650   1.824   0.263
  728  SOL  HW1 2331   2.570   1.816   0.212
  728  SOL  HW2 2332   2.693   1.902   0.229
  729  SOL   OW 2333   1.730   1.707   0.477
  729  SOL  HW1 2334   1.810   1.710   0.425
  729  SOL  HW2 2335   1.733   1.786   0.531
  730  SOL   OW 2336   2.121   3.193   2.189
  730  SOL  HW1 2337   2.114   3.207   2.095
  730  SOL  HW2 2338   2.036   3.220   2.224
  731  SOL   OW 2339   3.178   3.441   2.021
  731  SOL  HW1 2340   3.256   3.491   1.996
  731  SOL  HW2 2341   3.165   3.380   1.949
  732  SOL   OW 2342   1.782   3.069   3.600
  732  SOL  HW1 2343   1.827   3.153   3.598
  732  SOL  HW2 2344   1.695   3.088   3.567
  733  SOL   OW 2345   2.919   2.227   0.880
  733  SOL  HW1 2346   2.949   2.137   0.894
  733  SOL  HW2 2347   2.877   2.225   0.793
  734  SOL   OW 2348   1.490   3.409   3.470
  734  SOL  HW1 2349   1.513   3.471   3.401
  734  SOL  HW2 2350   1.446   3.338   3.425
  735  SOL   OW 2351   0.104   1.464   0.933
  735  SOL  HW1 2352   0.037   1.434   0.872
  735  SOL  HW2 2353   0.181   1.478   0.878
  736  SOL   OW 2354   1.275   0.324   3.362
  736  SOL  HW1 2355   1.238   0.325   3.273
  736  SOL  HW2 2356   1.206   0.284   3.416
  737  SOL   OW 2357   1.372   3.591   3.101
  737  SOL  HW1 2358   1.443   3.592   3.165
  737  SOL  HW2 2359   1.364   3.499   3.075
  738  SOL   OW 2360   3.156   0.238   1.838
  738  SOL  HW1 2361   3.167   0.333   1.828
  738  SOL  HW2 2362   3.065   0.227   1.865
  739  SOL   OW 2363   0.058   1.086   0.592
  739  SOL  HW1 2364  -0.033   1.056   0.589
  739  SOL  HW2 2365   0.103   1.029   0.529
  740  SOL   OW 2366   1.991   1.096   2.101
  740  SOL  HW1 2367   1.985   1.165   2.035
  740  SOL  HW2 2368   1.905   1.097   2.144
  741  SOL   OW 2369   3.480   3.143   2.959
  741  SOL  HW1 2370   3.547   3.143   3.027
  741  SOL  HW2 2371   3.525   3.115   2.879
  742  SOL   OW 2372   1.682   1.129   1.567
  742  SOL  HW1 2373   1.671   1.160   1.657
  742  SOL  HW2 2374   1.752   1.064   1.571
  743  SOL   OW 2375   0.243   1.796   2.432
  743  SOL  HW1 2376   0.162   1.755   2.404
  743  SOL  HW2 2377   0.247   1.782   2.526
  744  SOL   OW 2378   2.662   0.214   1.048
  744  SOL  HW1 2379   2.711   0.186   0.971
  744  SOL  HW2 2380   2.649   0.133   1.098
  745  SOL   OW 2381   3.695   2.786   3.518
  745  SOL  HW1 2382   3.713   2.700   3.481
  745  SOL  HW2 2383   3.652   2.769   3.602
  746  SOL   OW 2384   0.873   0.934   2.504
  746  SOL  HW1 2385   0.908   0.986   2.432
  746  SOL  HW2 2386   0.827   0.997   2.560
  747  SOL   OW 2387   1.696   3.601   1.811
  747  SOL  HW1 2388   1.649   3.596   1.895
  747  SOL  HW2 2389   1.749   3.680   1.818
  748  SOL   OW 2390   3.202   1.184   3.305
  748  SOL  HW1 2391   3.249   1.106   3.274
  748  SOL  HW2 2392   3.114   1.175   3.267
  749  SOL   OW 2393   1.507   1.363   0.614
  749  SOL  HW1 2394   1.587   1.352   0.563
  749  SOL  HW2 2395   1.487   1.457   0.607
  750  SOL   OW 2396   1.004   3.376   2.075
  750  SOL  HW1 2397   1.051   3.446   2.029
  750  SOL  HW2 2398   1.050   3.368   2.159
  751  SOL   OW 2399   3.276   2.744   3.369
  751  SOL  HW1 2400   3.238   2.798   3.300
  751  SOL  HW2 2401   3.331   2.805   3.419
  752  SOL   OW 2402   2.233   2.112   1.559
  752  SOL  HW1 2403   2.304   2.139   1.500
  752  SOL  HW2 2404   2.253   2.157   1.642
  753  SOL   OW 2405   0.562   1.313   1.047
  753  SOL  HW1 2406   0.572   1.361   0.965
  753  SOL  HW2 2407   0.649   1.279   1.065
  754  SOL   OW 2408   0.566   0.269   2.101
  754  SOL  HW1 2409   0.526   0.282   2.015
  754  SOL  HW2 2410   0.532   0.340   2.154
  755  SOL   OW 2411   0.340   2.091   2.743
  755  SOL  HW1 2412   0.297   2.086   2.658
  755  SOL  HW2 2413   0.321   2.180   2.774
  756  SOL   OW 2414   0.372   1.064   0.382
  756  SOL  HW1 2415   0.458   1.106   0.387
  756  SOL  HW2 2416   0.386   0.975   0.412
  757  SOL   OW 2417   0.561   0.313   0.226
  757  SOL  HW1 2418   0.533   0.270   0.307
  757  SOL  HW2 2419   0.526   0.258   0.156
  758  SOL   OW 2420   0.679   2.520   1.283
  758  SOL  HW1 2421   0.724   2.534   1.366
  758  SOL  HW2 2422   0.586   2.528   1.305
  759  SOL   OW 2423   3.465   0.202   3.026
  759  SOL  HW1 2424   3.557   0.177   3.029
  759  SOL  HW2 2425   3.464   0.289   2.986
  760  SOL   OW 2426   3.501   2.044   1.854
  760  SOL  HW1 2427   3.411   2.059   1.824
  760  SOL  HW2 2428   3.494   2.045   1.950
  761  SOL   OW 2429   0.604   0.374   1.518
  761  SOL  HW1 2430   0.541   0.446   1.527
  761  SOL  HW2 2431   0.597   0.347   1.427
  762  SOL   OW 2432   0.070   3.742   1.146
  762  SOL  HW1 2433   0.046   3.649   1.138
  762  SOL  HW2 2434  -0.009   3.789   1.118
  763  SOL   OW 2435   2.614   1.607   0.761
  763  SOL  HW1 2436   2.630   1.662   0.838
  763  SOL  HW2 2437   2.689   1.547   0.758
  764  SOL   OW 2438   0.046   1.921   0.114
  764  SOL  HW1 2439   0.014   1.841   0.155
  764  SOL  HW2 2440   0.114   1.891   0.054
  765  SOL   OW 2441   0.083   2.803   1.508
  765  SOL  HW1 2442   0.025   2.782   1.435
  765  SOL  HW2 2443   0.057   2.892   1.534
  766  SOL   OW 2444   0.069   0.701   1.017
  766  SOL  HW1 2445   0.126   0.631   0.987
  766  SOL  HW2 2446   0.064   0.762   0.943
  767  SOL   OW 2447   0.835   0.182   3.035
  767  SOL  HW1 2448   0.812   0.194   2.943
  767  SOL  HW2 2449   0.764   0.225   3.083
  768  SOL   OW 2450   3.605   3.089   2.124
  768  SOL  HW1 2451   3.621   3.067   2.032
  768  SOL  HW2 2452   3.620   3.183   2.129
  769  SOL   OW 2453   1.110   1.861  -0.002
  769  SOL  HW1 2454   1.102   1.768   0.024
  769  SOL  HW2 2455   1.124   1.907   0.081
  770  SOL   OW 2456   2.390   2.404   1.657
  770  SOL  HW1 2457   2.310   2.441   1.619
  770  SOL  HW2 2458   2.359   2.334   1.714
  771  SOL   OW 2459   2.981   1.094   0.653
  771  SOL  HW1 2460   2.907   1.045   0.691
  771  SOL  HW2 2461   3.041   1.026   0.623
  772  SOL   OW 2462   0.352   0.198   3.230
  772  SOL  HW1 2463   0.437   0.170   3.265
  772  SOL  HW2 2464   0.292   0.126   3.252
  773  SOL   OW 2465   0.932   3.575   0.158
  773  SOL  HW1 2466   1.006   3.614   0.111
  773  SOL  HW2 2467   0.954   3.588   0.250
  774  SOL   OW 2468   1.841   1.737   3.292
  774  SOL  HW1 2469   1.823   1.658   3.343
  774  SOL  HW2 2470   1.795   1.722   3.209
  775  SOL   OW 2471   0.455   1.291   2.662
  775  SOL  HW1 2472   0.391   1.246   2.718
  775  SOL  HW2 2473   0.402   1.336   2.596
  776  SOL   OW 2474   0.607   0.069   1.695
  776  SOL  HW1 2475   0.516   0.084   1.718
  776  SOL  HW2 2476   0.648   0.155   1.701
  777  SOL   OW 2477   0.681   1.393   2.787
  777  SOL  HW1 2478   0.594   1.373   2.752
  777  SOL  HW2 2479   0.701   1.480   2.754
  778  SOL   OW 2480   0.477   0.807   0.443
  778  SOL  HW1 2481   0.525   0.746   0.388
  778  SOL  HW2 2482   0.540   0.836   0.509
  779  SOL   OW 2483   0.049   1.895   3.492
  779  SOL  HW1 2484  -0.009   1.907   3.417
  779  SOL  HW2 2485   0.068   1.983   3.523
  780  SOL   OW 2486   0.510   2.477   1.972
  780  SOL  HW1 2487   0.544   2.546   1.915
  780  SOL  HW2 2488   0.422   2.505   1.994
  781  SOL   OW 2489   3.251   2.795   2.857
  781  SOL  HW1 2490   3.291   2.854   2.793
  781  SOL  HW2 2491   3.216   2.853   2.925
  782  SOL   OW 2492   3.341   0.516   1.854
  782  SOL  HW1 2493   3.351   0.562   1.937
  782  SOL  HW2 2494   3.417   0.458   1.850
  783  SOL   OW 2495   0.798   3.332   0.370
  783  SOL  HW1 2496   0.857   3.407   0.370
  783  SOL  HW2 2497   0.848   3.262   0.412
  784  SOL   OW 2498   1.886   2.870   1.804
  784  SOL  HW1 2499   1.898   2.830   1.890
  784  SOL  HW2 2500   1.829   2.809   1.757
  785  SOL   OW 2501   3.287   3.590   3.520
  785  SOL  HW1 2502   3.194   3.584   3.497
  785  SOL  HW2 2503   3.314   3.500   3.537
  786  SOL   OW 2504   0.886   0.314   2.449
  786  SOL  HW1 2505   0.812   0.261   2.477
  786  SOL  HW2 2506   0.933   0.334   2.530
  787  SOL   OW 2507   3.682   2.981   1.848
  787  SOL  HW1 2508   3.709   3.003   1.759
  787  SOL  HW2 2509   3.721   2.895   1.865
  788  SOL   OW 2510   0.618   3.685   3.274
  788  SOL  HW1 2511   0.534   3.645   3.296
  788  SOL  HW2 2512   0.612   3.774   3.307
  789  SOL   OW 2513   0.204   2.465   3.659
  789  SOL  HW1 2514   0.254   2.431   3.734
  789  SOL  HW2 2515   0.267   2.522   3.614
  790  SOL   OW 2516   2.531   0.681   3.442
  790  SOL  HW1 2517   2.595   0.621   3.404
  790  SOL  HW2 2518   2.582   0.756   3.472
  791  SOL   OW 2519   1.170   1.621   1.204
  791  SOL  HW1 2520   1.089   1.595   1.248
  791  SOL  HW2 2521   1.236   1.619   1.273
  792  SOL   OW 2522   2.017   1.403   0.079
  792  SOL  HW1 2523   1.995   1.318   0.039
  792  SOL  HW2 2524   2.097   1.430   0.035
  793  SOL   OW 2525   2.547   1.760   1.688
  793  SOL  HW1 2526   2.454   1.743   1.672
  793  SOL  HW2 2527   2.589   1.675   1.674
  794  SOL   OW 2528   3.016   2.057   3.689
  794  SOL  HW1 2529   3.108   2.069   3.664
  794  SOL  HW2 2530   2.971   2.041   3.606
  795  SOL   OW 2531   2.778   3.274   0.664
  795  SOL  HW1 2532   2.799   3.354   0.615
  795  SOL  HW2 2533   2.852   3.215   0.646
  796  SOL   OW 2534   2.839   2.769   2.254
  796  SOL  HW1 2535   2.910   2.712   2.225
  796  SOL  HW2 2536   2.766   2.749   2.194
  797  SOL   OW 2537   0.202   0.836   3.349
  797  SOL  HW1 2538   0.158   0.897   3.289
  797  SOL  HW2 2539   0.233   0.891   3.420
  798  SOL   OW 2540   1.117   1.035   1.795
  798  SOL  HW1 2541   1.032   1.065   1.829
  798  SOL  HW2 2542   1.138   0.958   1.847
  799  SOL   OW 2543   2.750   0.924   2.952
  799  SOL  HW1 2544   2.747   0.871   3.031
  799  SOL  HW2 2545   2.658   0.937   2.928
  800  SOL   OW 2546   3.530   3.224   0.327
  800  SOL  HW1 2547   3.612   3.251   0.287
  800  SOL  HW2 2548   3.512   3.293   0.392
  801  SOL   OW 2549   0.332   1.982   2.240
  801  SOL  HW1 2550   0.321   1.899   2.287
  801  SOL  HW2 2551   0.290   1.967   2.155
  802  SOL   OW 2552   0.228   0.467   0.667
  802  SOL  HW1 2553   0.187   0.554   0.665
  802  SOL  HW2 2554   0.316   0.481   0.632
  803  SOL   OW 2555   3.035   2.453   1.951
  803  SOL  HW1 2556   2.972   2.381   1.952
  803  SOL  HW2 2557   3.011   2.507   2.027
  804  SOL   OW 2558   2.303   2.926   1.634
  804  SOL  HW1 2559   2.301   2.945   1.728
  804  SOL  HW2 2560   2.273   2.835   1.628
  805  SOL   OW 2561   3.745   1.637   0.292
  805  SOL  HW1 2562   3.688   1.677   0.358
  805  SOL  HW2 2563   3.686   1.583   0.240
  806  SOL   OW 2564   3.403   3.449   3.115
  806  SOL  HW1 2565   3.461   3.446   3.191
  806  SOL  HW2 2566   3.444   3.391   3.051
  807  SOL   OW 2567   0.218   3.347   2.933
  807  SOL  HW1 2568   0.202   3.352   2.839
  807  SOL  HW2 2569   0.184   3.261   2.959
  808  SOL   OW 2570   1.474   1.751   1.855
  808  SOL  HW1 2571   1.380   1.769   1.862
  808  SOL  HW2 2572   1.515   1.813   1.915
  809  SOL   OW 2573   1.143   0.541   0.321
  809  SOL  HW1 2574   1.209   0.471   0.324
  809  SOL  HW2 2575   1.113   0.549   0.412
  810  SOL   OW 2576   2.328   1.440   3.409
  810  SOL  HW1 2577   2.366   1.361   3.371
  810  SOL  HW2 2578   2.341   1.507   3.341
  811  SOL   OW 2579   0.894   1.204   3.436
  811  SOL  HW1 2580   0.863   1.243   3.354
  811  SOL  HW2 2581   0.973   1.157   3.412
  812  SOL   OW 2582   0.031   0.094   2.568
  812  SOL  HW1 2583  -0.065   0.097   2.564
  812  SOL  HW2 2584   0.060   0.133   2.486
  813  SOL   OW 2585   3.127   0.143   0.211
  813  SOL  HW1 2586   3.090   0.059   0.239
  813  SOL  HW2 2587   3.106   0.149   0.118
  814  SOL   OW 2588   3.654   1.360   2.134
  814  SOL  HW1 2589   3.637   1.270   2.162
  814  SOL  HW2 2590   3.666   1.409   2.215
  815  SOL   OW 2591   2.001   0.257   1.377
  815  SOL  HW1 2592   2.066   0.212   1.323
  815  SOL  HW2 2593   1.925   0.268   1.320
  816  SOL   OW 2594   0.378   1.816   0.483
  816  SOL  HW1 2595   0.338   1.736   0.516
  816  SOL  HW2 2596   0.322   1.886   0.513
  817  SOL   OW 2597   2.465   3.360   0.133
  817  SOL  HW1 2598   2.462   3.290   0.067
  817  SOL  HW2 2599   2.430   3.320   0.212
  818  SOL   OW 2600   1.575   0.412   0.126
  818  SOL  HW1 2601   1.650   0.366   0.162
  818  SOL  HW2 2602   1.587   0.406   0.031
  819  SOL   OW 2603   2.744   3.644   1.633
  819  SOL  HW1 2604   2.718   3.664   1.723
  819  SOL  HW2 2605   2.679   3.688   1.578
  820  SOL   OW 2606   1.967   1.774   0.780
  820  SOL  HW1 2607   2.042   1.749   0.726
  820  SOL  HW2 2608   1.935   1.691   0.816
  821  SOL   OW 2609   1.402   0.644   1.049
  821  SOL  HW1 2610   1.308   0.654   1.058
  821  SOL  HW2 2611   1.437   0.667   1.135
  822  SOL   OW 2612   0.960   1.528   1.356
  822  SOL  HW1 2613   0.972   1.438   1.387
  822  SOL  HW2 2614   0.925   1.575   1.431
  823  SOL   OW 2615   0.485   0.876   1.237
  823  SOL  HW1 2616   0.540   0.881   1.315
  823  SOL  HW2 2617   0.476   0.967   1.208
  824  SOL   OW 2618   2.869   1.275   3.210
  824  SOL  HW1 2619   2.854   1.236   3.297
  824  SOL  HW2 2620   2.795   1.335   3.198
  825  SOL   OW 2621   2.412   3.011   2.977
  825  SOL  HW1 2622   2.378   2.989   3.064
  825  SOL  HW2 2623   2.346   2.978   2.916
  826  SOL   OW 2624   2.437   2.051   2.588
  826  SOL  HW1 2625   2.444   2.003   2.670
  826  SOL  HW2 2626   2.528   2.058   2.557
  827  SOL   OW 2627   2.773   0.721   1.651
  827  SOL  HW1 2628   2.780   0.797   1.593
  827  SOL  HW2 2629   2.840   0.736   1.718
  828  SOL   OW 2630   3.699   2.464   3.105
  828  SOL  HW1 2631   3.661   2.552   3.098
  828  SOL  HW2 2632   3.793   2.478   3.097
  829  SOL   OW 2633   0.738   2.196   3.726
  829  SOL  HW1 2634   0.792   2.146   3.664
  829  SOL  HW2 2635   0.664   2.138   3.745
  830  SOL   OW 2636   3.637   0.281   0.443
  830  SOL  HW1 2637   3.688   0.330   0.379
  830  SOL  HW2 2638   3.595   0.211   0.393
  831  SOL   OW 2639   1.055   0.972   1.394
  831  SOL  HW1 2640   1.133   0.919   1.411
  831  SOL  HW2 2641   1.089   1.057   1.367
  832  SOL   OW 2642   1.041   2.798   2.352
  832  SOL  HW1 2643   0.970   2.862   2.359
  832  SOL  HW2 2644   1.119   2.850   2.331
  833  SOL   OW 2645   1.640   0.057   2.328
  833  SOL  HW1 2646   1.722   0.106   2.330
  833  SOL  HW2 2647   1.573   0.124   2.314
  834  SOL   OW 2648   0.492   2.383   3.198
  834  SOL  HW1 2649   0.570   2.415   3.152
  834  SOL  HW2 2650   0.525   2.319   3.260
  835  SOL   OW 2651   2.895   0.356   1.180
  835  SOL  HW1 2652   2.839   0.326   1.109
  835  SOL  HW2 2653   2.850   0.432   1.217
  836  SOL   OW 2654   1.508   2.073   3.304
  836  SOL  HW1 2655   1.479   1.987   3.274
  836  SOL  HW2 2656   1.428   2.126   3.305
  837  SOL   OW 2657   3.189   1.854   0.216
  837  SOL  HW1 2658   3.184   1.911   0.139
  837  SOL  HW2 2659   3.228   1.909   0.284
  838  SOL   OW 2660   2.239   0.647   0.703
  838  SOL  HW1 2661   2.281   0.724   0.664
  838  SOL  HW2 2662   2.225   0.671   0.795
  839  SOL   OW 2663   3.273   2.236   0.601
  839  SOL  HW1 2664   3.227   2.293   0.662
  839  SOL  HW2 2665   3.359   2.278   0.590
  840  SOL   OW 2666   2.797   1.304   3.659
  840  SOL  HW1 2667   2.890   1.287   3.649
  840  SOL  HW2 2668   2.790   1.400   3.661
  841  SOL   OW 2669   3.506   2.652   1.558
  841  SOL  HW1 2670   3.426   2.655   1.506
  841  SOL  HW2 2671   3.476   2.637   1.647
  842  SOL   OW 2672   2.656   0.213   2.441
  842  SOL  HW1 2673   2.701   0.232   2.523
  842  SOL  HW2 2674   2.573   0.173   2.467
  843  SOL   OW 2675   1.092   1.163   3.690
  843  SOL  HW1 2676   1.119   1.086   3.641
  843  SOL  HW2 2677   1.124   1.148   3.779
  844  SOL   OW 2678   2.747   2.927   1.913
  844  SOL  HW1 2679   2.719   2.912   1.823
  844  SOL  HW2 2680   2.841   2.913   1.912
  845  SOL   OW 2681   0.533   2.135   2.123
  845  SOL  HW1 2682   0.508   2.052   2.082
  845  SOL  HW2 2683   0.458   2.158   2.178
  846  SOL   OW 2684   2.895   0.520   2.039
  846  SOL  HW1 2685   2.881   0.458   1.968
  846  SOL  HW2 2686   2.808   0.555   2.059
  847  SOL   OW 2687   1.326   2.968   1.266
  847  SOL  HW1 2688   1.253   3.007   1.314
  847  SOL  HW2 2689   1.401   2.978   1.324
  848  SOL   OW 2690   0.404   3.277   0.008
  848  SOL  HW1 2691   0.468   3.268   0.079
  848  SOL  HW2 2692   0.322   3.244   0.045
  849  SOL   OW 2693   0.602   1.729   2.326
  849  SOL  HW1 2694   0.600   1.824   2.325
  849  SOL  HW2 2695   0.584   1.705   2.417
  850  SOL   OW 2696   3.080   0.294   3.645
  850  SOL  HW1 2697   3.137   0.219   3.660
  850  SOL  HW2 2698   3.010   0.260   3.589
  851  SOL   OW 2699   2.173   2.812   1.140
  851  SOL  HW1 2700   2.150   2.754   1.213
  851  SOL  HW2 2701   2.177   2.900   1.180
  852  SOL   OW 2702   0.994   1.839   1.256
  852  SOL  HW1 2703   1.066   1.842   1.193
  852  SOL  HW2 2704   1.003   1.753   1.297
  853  SOL   OW 2705   0.424   1.706   3.122
  853  SOL  HW1 2706   0.433   1.793   3.083
  853  SOL  HW2 2707   0.346   1.668   3.082
  854  SOL   OW 2708   1.515   3.051   2.384
  854  SOL  HW1 2709   1.514   3.108   2.307
  854  SOL  HW2 2710   1.426   3.017   2.390
  855  SOL   OW 2711   3.330   3.579   1.323
  855  SOL  HW1 2712   3.390   3.528   1.379
  855  SOL  HW2 2713   3.367   3.571   1.235
  856  SOL   OW 2714   1.902   0.496   3.419
  856  SOL  HW1 2715   1.932   0.544   3.496
  856  SOL  HW2 2716   1.925   0.552   3.345
  857  SOL   OW 2717   0.410   2.104   3.572
  857  SOL  HW1 2718   0.319   2.075   3.572
  857  SOL  HW2 2719   0.459   2.030   3.606
  858  SOL   OW 2720   3.368   2.698   0.426
  858  SOL  HW1 2721   3.336   2.633   0.363
  858  SOL  HW2 2722   3.326   2.673   0.509
  859  SOL   OW 2723   3.127   2.136   2.981
  859  SOL  HW1 2724   3.131   2.090   3.064
  859  SOL  HW2 2725   3.097   2.070   2.918
  860  SOL   OW 2726   1.369   0.111   3.705
  860  SOL  HW1 2727   1.455   0.114   3.748
  860  SOL  HW2 2728   1.368   0.026   3.661
  861  SOL   OW 2729   1.156   2.637   0.842
  861  SOL  HW1 2730   1.086   2.610   0.782
  861  SOL  HW2 2731   1.124   2.613   0.929
  862  SOL   OW 2732   2.129   2.424   1.454
  862  SOL  HW1 2733   2.034   2.425   1.460
  862  SOL  HW2 2734   2.149   2.355   1.391
  863  SOL   OW 2735   3.116   3.212   3.481
  863  SOL  HW1 2736   3.061   3.140   3.451
  863  SOL  HW2 2737   3.151   3.181   3.565
  864  SOL   OW 2738   2.802   2.685   1.365
  864  SOL  HW1 2739   2.802   2.644   1.451
  864  SOL  HW2 2740   2.733   2.751   1.369
  865  SOL   OW 2741   0.771   3.566   1.223
  865  SOL  HW1 2742   0.800   3.649   1.186
  865  SOL  HW2 2743   0.750   3.585   1.314
  866  SOL   OW 2744   0.571   1.147   3.454
  866  SOL  HW1 2745   0.586   1.225   3.401
  866  SOL  HW2 2746   0.658   1.111   3.468
  867  SOL   OW 2747   3.282   2.418   2.136
  867  SOL  HW1 2748   3.320   2.493   2.090
  867  SOL  HW2 2749   3.233   2.371   2.068
  868  SOL   OW 2750   0.212   2.564   0.402
  868  SOL  HW1 2751   0.168   2.486   0.434
  868  SOL  HW2 2752   0.303   2.552   0.428
  869  SOL   OW 2753   3.599   1.227   3.325
  869  SOL  HW1 2754   3.653   1.282   3.381
  869  SOL  HW2 2755   3.619   1.137   3.351
  870  SOL   OW 2756   0.571   0.875   2.638
  870  SOL  HW1 2757   0.530   0.887   2.724
  870  SOL  HW2 2758   0.576   0.964   2.602
  871  SOL   OW 2759   3.023   2.125   1.593
  871  SOL  HW1 2760   2.932   2.140   1.567
  871  SOL  HW2 2761   3.022   2.130   1.688
  872  SOL   OW 2762   1.204   1.257   1.240
  872  SOL  HW1 2763   1.259   1.265   1.317
  872  SOL  HW2 2764   1.264   1.228   1.171
  873  SOL   OW 2765   0.935   1.767   0.284
  873  SOL  HW1 2766   0.907   1.849   0.244
  873  SOL  HW2 2767   0.904   1.699   0.224
  874  SOL   OW 2768   2.560   2.891   2.146
  874  SOL  HW1 2769   2.490   2.839   2.107
  874  SOL  HW2 2770   2.609   2.927   2.072
  875  SOL   OW 2771   1.556   2.124   2.542
  875  SOL  HW1 2772   1.556   2.047   2.485
  875  SOL  HW2 2773   1.539   2.197   2.482
  876  SOL   OW 2774   3.234   2.271   2.736
  876  SOL  HW1 2775   3.212   2.215   2.810
  876  SOL  HW2 2776   3.322   2.303   2.754
  877  SOL   OW 2777   0.234   0.944   1.509
  877  SOL  HW1 2778   0.306   1.005   1.525
  877  SOL  HW2 2779   0.247   0.913   1.419
  878  SOL   OW 2780   0.272   0.104   0.871
  878  SOL  HW1 2781   0.203   0.128   0.808
  878  SOL  HW2 2782   0.229   0.042   0.930
  879  SOL   OW 2783   3.285   3.361   2.677
  879  SOL  HW1 2784   3.281   3.411   2.595
  879  SOL  HW2 2785   3.229   3.284   2.660
  880  SOL   OW 2786   1.349   3.412   0.382
  880  SOL  HW1 2787   1.429   3.388   0.428
  880  SOL  HW2 2788   1.307   3.476   0.440
  881  SOL   OW 2789   2.700   1.182   0.916
  881  SOL  HW1 2790   2.769   1.215   0.973
  881  SOL  HW2 2791   2.741   1.111   0.866
  882  SOL   OW 2792   2.378   0.651   0.315
  882  SOL  HW1 2793   2.452   0.620   0.367
  882  SOL  HW2 2794   2.419   0.692   0.239
  883  SOL   OW 2795   0.584   2.180   0.753
  883  SOL  HW1 2796   0.645   2.253   0.764
  883  SOL  HW2 2797   0.519   2.212   0.691
  884  SOL   OW 2798   2.816   3.471   0.504
  884  SOL  HW1 2799   2.902   3.511   0.519
  884  SOL  HW2 2800   2.776   3.526   0.437
  885  SOL   OW 2801   1.594   1.652   0.812
  885  SOL  HW1 2802   1.539   1.648   0.733
  885  SOL  HW2 2803   1.536   1.625   0.883
  886  SOL   OW 2804   3.686   1.396   0.112
  886  SOL  HW1 2805   3.614   1.344   0.076
  886  SOL  HW2 2806   3.745   1.332   0.151
  887  SOL   OW 2807   2.891   1.396   2.363
  887  SOL  HW1 2808   2.918   1.313   2.402
  887  SOL  HW2 2809   2.834   1.371   2.290
  888  SOL   OW 2810   0.893   2.227   1.157
  888  SOL  HW1 2811   0.981   2.240   1.191
  888  SOL  HW2 2812   0.877   2.305   1.103
  889  SOL   OW 2813   0.501   2.379   1.540
  889  SOL  HW1 2814   0.477   2.443   1.474
  889  SOL  HW2 2815   0.424   2.371   1.596
  890  SOL   OW 2816   0.922   2.567   0.618
  890  SOL  HW1 2817   0.950   2.477   0.602
  890  SOL  HW2 2818   0.828   2.566   0.602
  891  SOL   OW 2819   0.263   3.682   2.658
  891  SOL  HW1 2820   0.178   3.722   2.644
  891  SOL  HW2 2821   0.272   3.618   2.587
  892  SOL   OW 2822   3.109   0.233   0.709
  892  SOL  HW1 2823   3.033   0.292   0.715
  892  SOL  HW2 2824   3.175   0.284   0.661
  893  SOL   OW 2825   0.314   0.236   1.504
  893  SOL  HW1 2826   0.338   0.219   1.413
  893  SOL  HW2 2827   0.313   0.331   1.511
  894  SOL   OW 2828   0.364   3.276   1.098
  894  SOL  HW1 2829   0.369   3.225   1.179
  894  SOL  HW2 2830   0.454   3.308   1.084
  895  SOL   OW 2831   2.414   3.188   3.647
  895  SOL  HW1 2832   2.509   3.185   3.636
  895  SOL  HW2 2833   2.391   3.097   3.668
  896  SOL   OW 2834   0.603   2.720   0.820
  896  SOL  HW1 2835   0.679   2.754   0.866
  896  SOL  HW2 2836   0.637   2.684   0.738
  897  SOL   OW 2837   0.077   2.157   3.576
  897  SOL  HW1 2838   0.124   2.190   3.652
  897  SOL  HW2 2839   0.114   2.205   3.502
  898  SOL   OW 2840   2.045   0.054   1.887
  898  SOL  HW1 2841   2.034   0.081   1.795
  898  SOL  HW2 2842   2.128   0.008   1.888
  899  SOL   OW 2843   2.263   0.225   0.848
  899  SOL  HW1 2844   2.350   0.187   0.847
  899  SOL  HW2 2845   2.275   0.313   0.885
  900  SOL   OW 2846   2.944   2.687   3.418
  900  SOL  HW1 2847   2.917   2.596   3.406
  900  SOL  HW2 2848   3.006   2.702   3.347
  901  SOL   OW 2849   1.775   0.923   3.052
  901  SOL  HW1 2850   1.691   0.884   3.076
  901  SOL  HW2 2851   1.787   0.994   3.115
  902  SOL   OW 2852   3.047   3.473   3.513
  902  SOL  HW1 2853   3.087   3.392   3.481
  902  SOL  HW2 2854   2.962   3.445   3.546
  903  SOL   OW 2855   0.796   1.998   0.276
  903  SOL  HW1 2856   0.771   2.019   0.366
  903  SOL  HW2 2857   0.792   2.082   0.230
  904  SOL   OW 2858   0.112   0.489   0.223
  904  SOL  HW1 2859   0.137   0.470   0.133
  904  SOL  HW2 2860   0.160   0.568   0.246
  905  SOL   OW 2861   0.393   1.591   1.712
  905  SOL  HW1 2862   0.318   1.573   1.655
  905  SOL  HW2 2863   0.466   1.604   1.652
  906  SOL   OW 2864   1.525   0.820   3.135
  906  SOL  HW1 2865   1.517   0.819   3.230
  906  SOL  HW2 2866   1.450   0.872   3.105
  907  SOL   OW 2867   3.734   3.481   2.548
  907  SOL  HW1 2868   3.799   3.522   2.492
  907  SOL  HW2 2869   3.650   3.504   2.510
  908  SOL   OW 2870   0.530   0.098   0.818
  908  SOL  HW1 2871   0.440   0.099   0.851
  908  SOL  HW2 2872   0.557   0.007   0.821
  909  SOL   OW 2873   2.421   3.175   1.929
  909  SOL  HW1 2874   2.418   3.226   2.009
  909  SOL  HW2 2875   2.490   3.217   1.876
  910  SOL   OW 2876   1.933   1.419   1.584
  910  SOL  HW1 2877   1.845   1.455   1.595
  910  SOL  HW2 2878   1.956   1.440   1.494
  911  SOL   OW 2879   2.007   1.944   3.336
  911  SOL  HW1 2880   2.091   1.902   3.351
  911  SOL  HW2 2881   1.943   1.873   3.344
  912  SOL   OW 2882   0.693   2.342   2.857
  912  SOL  HW1 2883   0.673   2.300   2.774
  912  SOL  HW2 2884   0.706   2.434   2.835
  913  SOL   OW 2885   3.657   1.861   3.252
  913  SOL  HW1 2886   3.571   1.899   3.234
  913  SOL  HW2 2887   3.717   1.910   3.196
  914  SOL   OW 2888   0.905   1.275   2.616
  914  SOL  HW1 2889   0.979   1.265   2.676
  914  SOL  HW2 2890   0.833   1.306   2.672
  915  SOL   OW 2891   3.308   0.628   0.090
  915  SOL  HW1 2892   3.231   0.630   0.033
  915  SOL  HW2 2893   3.322   0.720   0.115
  916  SOL   OW 2894   2.590   2.469   1.496
  916  SOL  HW1 2895   2.507   2.462   1.544
  916  SOL  HW2 2896   2.655   2.489   1.563
  917  SOL   OW 2897   0.693   3.114   0.005
  917  SOL  HW1 2898   0.762   3.081  -0.053
  917  SOL  HW2 2899   0.734   3.186   0.053
  918  SOL   OW 2900   3.599   3.527   0.242
  918  SOL  HW1 2901   3.621   3.587   0.314
  918  SOL  HW2 2902   3.505   3.541   0.227
  919  SOL   OW 2903   1.251   2.082   3.432
  919  SOL  HW1 2904   1.197   2.161   3.436
  919  SOL  HW2 2905   1.258   2.054   3.523
  920  SOL   OW 2906   1.763   0.339   1.966
  920  SOL  HW1 2907   1.779   0.419   2.015
  920  SOL  HW2 2908   1.747   0.368   1.876
  921  SOL   OW 2909   0.374   3.383   1.791
  921  SOL  HW1 2910   0.459   3.427   1.801
  921  SOL  HW2 2911   0.374   3.315   1.858
  922  SOL   OW 2912   2.526   1.580   0.014
  922  SOL  HW1 2913   2.617   1.589   0.041
  922  SOL  HW2 2914   2.491   1.512   0.073
  923  SOL   OW 2915   1.030   2.221   3.018
  923  SOL  HW1 2916   1.075   2.293   3.062
  923  SOL  HW2 2917   0.961   2.194   3.080
  924  SOL   OW 2918   1.705   0.734   0.530
  924  SOL  HW1 2919   1.674   0.646   0.508
  924  SOL  HW2 2920   1.646   0.764   0.600
  925  SOL   OW 2921   3.119   2.465   1.568
  925  SOL  HW1 2922   3.036   2.422   1.591
  925  SOL  HW2 2923   3.186   2.398   1.585
  926  SOL   OW 2924   3.627   2.210   3.305
  926  SOL  HW1 2925   3.675   2.278   3.352
  926  SOL  HW2 2926   3.691   2.169   3.248
  927  SOL   OW 2927   1.274   3.230   1.895
  927  SOL  HW1 2928   1.302   3.322   1.897
  927  SOL  HW2 2929   1.296   3.201   1.806
  928  SOL   OW 2930   1.126   3.133   2.687
  928  SOL  HW1 2931   1.106   3.222   2.661
  928  SOL  HW2 2932   1.166   3.141   2.774
  929  SOL   OW 2933   2.100   1.300   1.247
  929  SOL  HW1 2934   2.047   1.243   1.304
  929  SOL  HW2 2935   2.053   1.299   1.163
  930  SOL   OW 2936   2.509   1.346   1.896
  930  SOL  HW1 2937   2.515   1.409   1.968
  930  SOL  HW2 2938   2.417   1.320   1.894
  931  SOL   OW 2939   0.608   3.459   2.617
  931  SOL  HW1 2940   0.620   3.535   2.561
  931  SOL  HW2 2941   0.569   3.493   2.697
  932  SOL   OW 2942   0.007   2.285   0.465
  932  SOL  HW1 2943   0.079   2.245   0.416
  932  SOL  HW2 2944   0.026   2.263   0.557
  933  SOL   OW 2945   3.712   2.933   2.869
  933  SOL  HW1 2946   3.705   2.853   2.921
  933  SOL  HW2 2947   3.665   2.914   2.788
  934  SOL   OW 2948   0.193   0.828   1.248
  934  SOL  HW1 2949   0.164   0.801   1.161
  934  SOL  HW2 2950   0.286   0.805   1.252
  935  SOL   OW 2951   1.645   2.340   1.657
  935  SOL  HW1 2952   1.582   2.412   1.665
  935  SOL  HW2 2953   1.697   2.345   1.737
  936  SOL   OW 2954   3.386   1.587   0.032
  936  SOL  HW1 2955   3.441   1.648  -0.017
  936  SOL  HW2 2956   3.297   1.605   0.002
  937  SOL   OW 2957   2.918   2.903   0.193
  937  SOL  HW1 2958   2.825   2.917   0.181
  937  SOL  HW2 2959   2.927   2.807   0.198
  938  SOL   OW 2960   1.962   0.530   1.467
  938  SOL  HW1 2961   1.987   0.438   1.473
  938  SOL  HW2 2962   2.005   0.571   1.542
  939  SOL   OW 2963   1.089   1.962   3.220
  939  SOL  HW1 2964   1.126   2.007   3.296
  939  SOL  HW2 2965   1.166   1.931   3.171
  940  SOL   OW 2966   3.723   3.430   1.737
  940  SOL  HW1 2967   3.755   3.385   1.815
  940  SOL  HW2 2968   3.636   3.394   1.722
  941  SOL   OW 2969   3.582   3.137   2.670
  941  SOL  HW1 2970   3.579   3.136   2.574
  941  SOL  HW2 2971   3.664   3.094   2.692
  942  SOL   OW 2972   1.505   0.186   1.800
  942  SOL  HW1 2973   1.567   0.202   1.728
  942  SOL  HW2 2974   1.561   0.171   1.876
  943  SOL   OW 2975   2.244   0.903   3.695
  943  SOL  HW1 2976   2.264   0.810   3.695
  943  SOL  HW2 2977   2.266   0.932   3.783
  944  SOL   OW 2978   0.015   0.266   2.771
  944  SOL  HW1 2979   0.047   0.206   2.703
  944  SOL  HW2 2980   0.094   0.301   2.811
  945  SOL   OW 2981   1.572   2.149   3.602
  945  SOL  HW1 2982   1.612   2.079   3.550
  945  SOL  HW2 2983   1.501   2.107   3.649
  946  SOL   OW 2984   2.236   2.262   2.649
  946  SOL  HW1 2985   2.296   2.188   2.639
  946  SOL  HW2 2986   2.285   2.326   2.701
  947  SOL   OW 2987   2.444   0.786   1.709
  947  SOL  HW1 2988   2.520   0.829   1.669
  947  SOL  HW2 2989   2.392   0.755   1.635
  948  SOL   OW 2990   0.769   3.279   2.264
  948  SOL  HW1 2991   0.852   3.279   2.215
  948  SOL  HW2 2992   0.769   3.195   2.309
  949  SOL   OW 2993   2.030   1.982   0.937
  949  SOL  HW1 2994   2.007   1.901   0.891
  949  SOL  HW2 2995   2.009   1.964   1.029
  950  SOL   OW 2996   2.260   3.587   1.704
  950  SOL  HW1 2997   2.218   3.564   1.621
  950  SOL  HW2 2998   2.275   3.503   1.747
  951  SOL   OW 2999   2.167   3.033   0.537
  951  SOL  HW1 3000   2.092   2.978   0.561
  951  SOL  HW2 3001   2.241   2.997   0.585
  952  SOL   OW 3002   2.553   3.578   2.880
  952  SOL  HW1 3003   2.462   3.559   2.860
  952  SOL  HW2 3004   2.600   3.497   2.858
  953  SOL   OW 3005   2.831   2.273   1.418
  953  SOL  HW1 3006   2.783   2.356   1.429
  953  SOL  HW2 3007   2.895   2.292   1.350
  954  SOL   OW 3008   0.319   1.018   3.510
  954  SOL  HW1 3009   0.404   1.057   3.488
  954  SOL  HW2 3010   0.283   1.074   3.578
  955  SOL   OW 3011   1.789   1.389   1.313
  955  SOL  HW1 3012   1.719   1.402   1.377
  955  SOL  HW2 3013   1.810   1.296   1.319
  956  SOL   OW 3014   0.966   1.268   1.844
  956  SOL  HW1 3015   1.060   1.250   1.835
  956  SOL  HW2 3016   0.944   1.320   1.767
  957  SOL   OW 3017   3.262   3.102   1.677
  957  SOL  HW1 3018   3.322   3.029   1.696
  957  SOL  HW2 3019   3.235   3.133   1.764
  958  SOL   OW 3020   2.889   2.096   2.510
  958  SOL  HW1 3021   2.838   2.088   2.591
  958  SOL  HW2 3022   2.863   2.020   2.458
  959  SOL   OW 3023   0.259   0.379   2.948
  959  SOL  HW1 3024   0.225   0.428   3.023
  959  SOL  HW2 3025   0.309   0.307   2.987
  960  SOL   OW 3026   1.253   0.027   0.463
  960  SOL  HW1 3027   1.178   0.038   0.404
  960  SOL  HW2 3028   1.326   0.069   0.417
  961  SOL   OW 3029   2.606   2.431   1.958
  961  SOL  HW1 3030   2.523   2.392   1.986
  961  SOL  HW2 3031   2.583   2.521   1.934
  962  SOL   OW 3032   0.721   2.746   3.290
  962  SOL  HW1 3033   0.674   2.691   3.353
  962  SOL  HW2 3034   0.676   2.831   3.295
  963  SOL   OW 3035   2.073   2.909   0.870
  963  SOL  HW1 3036   2.046   2.827   0.911
  963  SOL  HW2 3037   2.017   2.917   0.793
  964  SOL   OW 3038   2.530   1.127   0.194
  964  SOL  HW1 3039   2.448   1.079   0.183
  964  SOL  HW2 3040   2.504   1.212   0.227
  965  SOL   OW 3041   0.739   1.551   1.763
  965  SOL  HW1 3042   0.675   1.522   1.698
  965  SOL  HW2 3043   0.720   1.644   1.775
  966  SOL   OW 3044   1.241   2.920   2.509
  966  SOL  HW1 3045   1.208   2.988   2.568
  966  SOL  HW2 3046   1.169   2.856   2.504
  967  SOL   OW 3047   2.611   0.852   1.954
  967  SOL  HW1 3048   2.547   0.814   1.894
  967  SOL  HW2 3049   2.603   0.947   1.941
  968  SOL   OW 3050   1.901   0.211   2.994
  968  SOL  HW1 3051   1.913   0.219   3.089
  968  SOL  HW2 3052   1.941   0.289   2.958
  969  SOL   OW 3053   2.989   0.546   3.094
  969  SOL  HW1 3054   3.024   0.469   3.049
  969  SOL  HW2 3055   2.957   0.513   3.178
  970  SOL   OW 3056   3.710   0.938   2.856
  970  SOL  HW1 3057   3.745   0.942   2.767
  970  SOL  HW2 3058   3.659   1.019   2.865
  971  SOL   OW 3059   0.699   3.512   0.583
  971  SOL  HW1 3060   0.681   3.436   0.638
  971  SOL  HW2 3061   0.654   3.493   0.501
  972  SOL   OW 3062   2.182   3.220   1.318
  972  SOL  HW1 3063   2.120   3.238   1.388
  972  SOL  HW2 3064   2.139   3.253   1.239
  973  SOL   OW 3065   0.053   2.526   3.433
  973  SOL  HW1 3066   0.118   2.491   3.372
  973  SOL  HW2 3067   0.078   2.489   3.518
  974  SOL   OW 3068   2.815  -0.028   2.343
  974  SOL  HW1 3069   2.760   0.034   2.295
  974  SOL  HW2 3070   2.800  -0.006   2.435
  975  SOL   OW 3071   1.849   2.377  -0.032
  975  SOL  HW1 3072   1.864   2.283  -0.023
  975  SOL  HW2 3073   1.843   2.410   0.057
  976  SOL   OW 3074   1.189   2.886   1.585
  976  SOL  HW1 3075   1.188   2.812   1.645
  976  SOL  HW2 3076   1.267   2.936   1.609
  977  SOL   OW 3077   2.746   0.759   1.114
  977  SOL  HW1 3078   2.674   0.789   1.057
  977  SOL  HW2 3079   2.724   0.668   1.135
  978  SOL   OW 3080   2.502   3.150   0.312
  978  SOL  HW1 3081   2.408   3.162   0.296
  978  SOL  HW2 3082   2.523   3.212   0.382
  979  SOL   OW 3083   2.327   3.435   2.075
  979  SOL  HW1 3084   2.366   3.453   2.161
  979  SOL  HW2 3085   2.389   3.471   2.012
  980  SOL   OW 3086   2.567   1.786   2.694
  980  SOL  HW1 3087   2.587   1.788   2.600
  980  SOL  HW2 3088   2.640   1.833   2.735
  981  SOL   OW 3089   3.436   3.598   2.140
  981  SOL  HW1 3090   3.400   3.665   2.081
  981  SOL  HW2 3091   3.519   3.572   2.098
  982  SOL   OW 3092   0.123   2.590   0.902
  982  SOL  HW1 3093   0.059   2.585   0.974
  982  SOL  HW2 3094   0.205   2.612   0.945
  983  SOL   OW 3095   3.623   2.941   0.852
  983  SOL  HW1 3096   3.717   2.927   0.863
  983  SOL  HW2 3097   3.617   3.016   0.793
  984  SOL   OW 3098   2.617   2.528   2.677
  984  SOL  HW1 3099   2.644   2.451   2.727
  984  SOL  HW2 3100   2.557   2.574   2.736
  985  SOL   OW 3101   0.009   1.463   1.190
  985  SOL  HW1 3102   0.030   1.491   1.101
  985  SOL  HW2 3103  -0.023   1.373   1.181
  986  SOL   OW 3104   2.258   1.526   0.890
  986  SOL  HW1 3105   2.304   1.510   0.808
  986  SOL  HW2 3106   2.293   1.610   0.921
  987  SOL   OW 3107   1.025   1.599   3.307
  987  SOL  HW1 3108   0.998   1.552   3.386
  987  SOL  HW2 3109   1.081   1.670   3.340
  988  SOL   OW 3110   0.147   3.281   2.660
  988  SOL  HW1 3111   0.095   3.352   2.621
  988  SOL  HW2 3112   0.230   3.282   2.612
  989  SOL   OW 3113   0.936   0.886   0.715
  989  SOL  HW1 3114   0.931   0.928   0.801
  989  SOL  HW2 3115   0.909   0.954   0.654
  990  SOL   OW 3116   0.799   1.731   3.476
  990  SOL  HW1 3117   0.824   1.752   3.386
  990  SOL  HW2 3118   0.706   1.707   3.470
  991  SOL   OW 3119   3.480   3.409   1.054
  991  SOL  HW1 3120   3.510   3.441   0.969
  991  SOL  HW2 3121   3.511   3.318   1.058
  992  SOL   OW 3122   3.020   0.539   1.420
  992  SOL  HW1 3123   3.091   0.500   1.470
  992  SOL  HW2 3124   2.993   0.471   1.359
  993  SOL   OW 3125   2.625   2.599   3.740
  993  SOL  HW1 3126   2.716   2.609   3.712
  993  SOL  HW2 3127   2.580   2.672   3.698
  994  SOL   OW 3128   2.371   3.648   0.718
  994  SOL  HW1 3129   2.377   3.731   0.766
  994  SOL  HW2 3130   2.459   3.634   0.683
  995  SOL   OW 3131   2.167   3.444   2.349
  995  SOL  HW1 3132   2.259   3.466   2.365
  995  SOL  HW2 3133   2.169   3.381   2.277
  996  SOL   OW 3134   3.162   1.139   2.334
  996  SOL  HW1 3135   3.099   1.134   2.262
  996  SOL  HW2 3136   3.108   1.137   2.413
  997  SOL   OW 3137   1.508   2.469   0.137
  997  SOL  HW1 3138   1.501   2.382   0.096
  997  SOL  HW2 3139   1.549   2.523   0.069
  998  SOL   OW 3140   1.930   1.994   1.548
  998  SOL  HW1 3141   1.917   2.088   1.535
  998  SOL  HW2 3142   1.985   1.968   1.475
  999  SOL   OW 3143   0.274   0.008   0.298
  999  SOL  HW1 3144   0.325   0.035   0.221
  999  SOL  HW2 3145   0.250   0.089   0.341
 1000  SOL   OW 3146   2.216   0.889   1.232
 1000  SOL  HW1 3147   2.218   0.908   1.326
 1000  SOL  HW2 3148   2.258   0.965   1.191
 1001  SOL   OW 3149   0.654   2.554   0.608
 1001  SOL  HW1 3150   0.598   2.625   0.578
 1001  SOL  HW2 3151   0.619   2.476   0.565
 1002  SOL   OW 3152   0.779   3.004   0.797
 1002  SOL  HW1 3153   0.864   3.024   0.836
 1002  SOL  HW2 3154   0.794   3.007   0.703
 1003  SOL   OW 3155   1.798   3.465   2.641
 1003  SOL  HW1 3156   1.725   3.516   2.676
 1003  SOL  HW2 3157   1.826   3.513   2.564
 1004  SOL   OW 3158   1.133   2.576   2.175
 1004  SOL  HW1 3159   1.110   2.566   2.267
 1004  SOL  HW2 3160   1.222   2.612   2.176
 1005  SOL   OW 3161   2.460   1.740   1.989
 1005  SOL  HW1 3162   2.416   1.767   1.908
 1005  SOL  HW2 3163   2.419   1.793   2.057
 1006  SOL   OW 3164   1.976   0.811   1.990
 1006  SOL  HW1 3165   1.976   0.906   1.992
 1006  SOL  HW2 3166   2.045   0.788   1.928
 1007  SOL   OW 3167   0.268   2.821   3.270
 1007  SOL  HW1 3168   0.295   2.744   3.320
 1007  SOL  HW2 3169   0.279   2.894   3.331
 1008  SOL   OW 3170   2.106   0.325   0.273
 1008  SOL  HW1 3171   2.144   0.284   0.195
 1008  SOL  HW2 3172   2.163   0.298   0.345
 1009  SOL   OW 3173   2.682   0.206   2.143
 1009  SOL  HW1 3174   2.679   0.244   2.231
 1009  SOL  HW2 3175   2.600   0.234   2.102
 1010  SOL   OW 3176   2.828   1.696   3.493
 1010  SOL  HW1 3177   2.860   1.782   3.463
 1010  SOL  HW2 3178   2.845   1.695   3.587
 1011  SOL   OW 3179   1.896   0.169   0.701
 1011  SOL  HW1 3180   1.929   0.139   0.616
 1011  SOL  HW2 3181   1.924   0.261   0.706
 1012  SOL   OW 3182   3.541   1.665   1.913
 1012  SOL  HW1 3183   3.569   1.735   1.855
 1012  SOL  HW2 3184   3.603   1.667   1.986
 1013  SOL   OW 3185   0.796   0.026   1.476
 1013  SOL  HW1 3186   0.738   0.055   1.405
 1013  SOL  HW2 3187   0.758  -0.057   1.505
 1014  SOL   OW 3188   3.348   0.463   3.512
 1014  SOL  HW1 3189   3.321   0.389   3.567
 1014  SOL  HW2 3190   3.395   0.521   3.572
 1015  SOL   OW 3191   0.968   2.688   1.999
 1015  SOL  HW1 3192   1.003   2.669   2.085
 1015  SOL  HW2 3193   0.930   2.776   2.007
 1016  SOL   OW 3194   2.014   0.824   3.376
 1016  SOL  HW1 3195   2.022   0.919   3.369
 1016  SOL  HW2 3196   2.100   0.790   3.351
 1017  SOL   OW 3197   2.335   2.882   0.680
 1017  SOL  HW1 3198   2.425   2.912   0.667
 1017  SOL  HW2 3199   2.333   2.847   0.768
 1018  SOL   OW 3200   1.570   0.124   2.714
 1018  SOL  HW1 3201   1.618   0.206   2.708
 1018  SOL  HW2 3202   1.559   0.109   2.808
 1019  SOL   OW 3203   2.548   0.168   0.754
 1019  SOL  HW1 3204   2.635   0.131   0.768
 1019  SOL  HW2 3205   2.545   0.189   0.661
 1020  SOL   OW 3206   3.267   0.112   1.096
 1020  SOL  HW1 3207   3.221   0.185   1.137
 1020  SOL  HW2 3208   3.358   0.122   1.123
 1021  SOL   OW 3209   1.122   0.397   1.049
 1021  SOL  HW1 3210   1.138   0.423   0.959
 1021  SOL  HW2 3211   1.030   0.371   1.051
 1022  SOL   OW 3212   1.153   0.019   3.349
 1022  SOL  HW1 3213   1.124   0.071   3.424
 1022  SOL  HW2 3214   1.073  -0.002   3.302
 1023  SOL   OW 3215   2.738   3.146   2.876
 1023  SOL  HW1 3216   2.785   3.088   2.817
 1023  SOL  HW2 3217   2.742   3.232   2.834
 1024  SOL   OW 3218   1.954   0.939   3.676
 1024  SOL  HW1 3219   1.948   1.031   3.653
 1024  SOL  HW2 3220   2.048   0.922   3.682
 1025  SOL   OW 3221   1.487   2.889   2.802
 1025  SOL  HW1 3222   1.582   2.889   2.790
 1025  SOL  HW2 3223   1.456   2.820   2.743
 1026  SOL   OW 3224   1.266   0.307   1.888
 1026  SOL  HW1 3225   1.207   0.293   1.814
 1026  SOL  HW2 3226   1.351   0.274   1.858
 1027  SOL   OW 3227   1.210   1.041   1.032
 1027  SOL  HW1 3228   1.129   1.091   1.029
 1027  SOL  HW2 3229   1.184   0.955   1.064
 1028  SOL   OW 3230   2.395   3.758   3.077
 1028  SOL  HW1 3231   2.400   3.691   3.146
 1028  SOL  HW2 3232   2.470   3.740   3.020
 1029  SOL   OW 3233   3.268   2.329   1.839
 1029  SOL  HW1 3234   3.354   2.363   1.814
 1029  SOL  HW2 3235   3.209   2.404   1.828
 1030  SOL   OW 3236   2.753   0.793   0.399
 1030  SOL  HW1 3237   2.676   0.781   0.344
 1030  SOL  HW2 3238   2.733   0.746   0.480
 1031  SOL   OW 3239   1.182   3.643   1.117
 1031  SOL  HW1 3240   1.153   3.572   1.174
 1031  SOL  HW2 3241   1.233   3.700   1.173
 1032  SOL   OW 3242   3.395   1.505   0.747
 1032  SOL  HW1 3243   3.446   1.539   0.673
 1032  SOL  HW2 3244   3.437   1.543   0.824
 1033  SOL   OW 3245   0.825   2.511   1.507
 1033  SOL  HW1 3246   0.829   2.552   1.594
 1033  SOL  HW2 3247   0.915   2.513   1.475
 1034  SOL   OW 3248   1.602   2.468   3.304
 1034  SOL  HW1 3249   1.663   2.535   3.275
 1034  SOL  HW2 3250   1.635   2.387   3.265
 1035  SOL   OW 3251   1.333   1.587   0.962
 1035  SOL  HW1 3252   1.276   1.647   0.913
 1035  SOL  HW2 3253   1.300   1.590   1.052
 1036  SOL   OW 3254   2.670   3.374   3.143
 1036  SOL  HW1 3255   2.628   3.354   3.060
 1036  SOL  HW2 3256   2.723   3.452   3.125
 1037  SOL   OW 3257   1.220   2.357   3.199
 1037  SOL  HW1 3258   1.297   2.344   3.144
 1037  SOL  HW2 3259   1.251   2.343   3.288
 1038  SOL   OW 3260   1.810   2.694   3.552
 1038  SOL  HW1 3261   1.754   2.734   3.619
 1038  SOL  HW2 3262   1.885   2.660   3.601
 1039  SOL   OW 3263   2.194   3.351   2.966
 1039  SOL  HW1 3264   2.142   3.323   2.891
 1039  SOL  HW2 3265   2.170   3.442   2.980
 1040  SOL   OW 3266   2.796   2.987   3.090
 1040  SOL  HW1 3267   2.763   3.048   3.024
 1040  SOL  HW2 3268   2.764   2.901   3.062
 1041  SOL   OW 3269   1.565   0.314   3.120
 1041  SOL  HW1 3270   1.638   0.376   3.129
 1041  SOL  HW2 3271   1.498   0.363   3.072
 1042  SOL   OW 3272   2.661   1.036   1.245
 1042  SOL  HW1 3273   2.723   1.015   1.176
 1042  SOL  HW2 3274   2.714   1.072   1.316
 1043  SOL   OW 3275   3.444   3.089   2.389
 1043  SOL  HW1 3276   3.418   3.004   2.426
 1043  SOL  HW2 3277   3.533   3.074   2.356
 1044  SOL   OW 3278   0.598   2.661   1.790
 1044  SOL  HW1 3279   0.585   2.667   1.695
 1044  SOL  HW2 3280   0.620   2.750   1.817
 1045  SOL   OW 3281   0.132   3.532   0.188
 1045  SOL  HW1 3282   0.164   3.604   0.242
 1045  SOL  HW2 3283   0.037   3.534   0.199
 1046  SOL   OW 3284   2.640   0.687   3.157
 1046  SOL  HW1 3285   2.556   0.732   3.147
 1046  SOL  HW2 3286   2.643   0.625   3.084
 1047  SOL   OW 3287   3.441   1.963   2.643
 1047  SOL  HW1 3288   3.401   1.882   2.611
 1047  SOL  HW2 3289   3.418   1.965   2.736
 1048  SOL   OW 3290   0.943   1.376   0.223
 1048  SOL  HW1 3291   1.013   1.391   0.159
 1048  SOL  HW2 3292   0.864   1.412   0.182
 1049  SOL   OW 3293   0.991   1.683   3.009
 1049  SOL  HW1 3294   1.012   1.699   3.101
 1049  SOL  HW2 3295   0.902   1.647   3.011
 1050  SOL   OW 3296   1.699   3.169   0.671
 1050  SOL  HW1 3297   1.622   3.224   0.688
 1050  SOL  HW2 3298   1.672   3.114   0.597
 1051  SOL   OW 3299   1.891   0.037   2.593
 1051  SOL  HW1 3300   1.876   0.015   2.502
 1051  SOL  HW2 3301   1.827   0.106   2.613
 1052  SOL   OW 3302   3.353   2.836   2.448
 1052  SOL  HW1 3303   3.381   2.745   2.439
 1052  SOL  HW2 3304   3.266   2.839   2.409
 1053  SOL   OW 3305   0.385   0.738   3.182
 1053  SOL  HW1 3306   0.317   0.761   3.245
 1053  SOL  HW2 3307   0.421   0.821   3.153
 1054  SOL   OW 3308   2.766   0.888   3.266
 1054  SOL  HW1 3309   2.857   0.860   3.254
 1054  SOL  HW2 3310   2.714   0.811   3.245
 1055  SOL   OW 3311   2.546   2.675   3.332
 1055  SOL  HW1 3312   2.616   2.673   3.267
 1055  SOL  HW2 3313   2.470   2.639   3.287
 1056  SOL   OW 3314   3.602   0.614   2.255
 1056  SOL  HW1 3315   3.643   0.548   2.199
 1056  SOL  HW2 3316   3.616   0.582   2.344
 1057  SOL   OW 3317   3.498   2.501   3.485
 1057  SOL  HW1 3318   3.481   2.538   3.398
 1057  SOL  HW2 3319   3.593   2.491   3.489
 1058  SOL   OW 3320   0.296   0.556   2.714
 1058  SOL  HW1 3321   0.240   0.532   2.788
 1058  SOL  HW2 3322   0.385   0.552   2.748
 1059  SOL   OW 3323   2.306   2.116   0.227
 1059  SOL  HW1 3324   2.339   2.027   0.223
 1059  SOL  HW2 3325   2.345   2.152   0.307
 1060  SOL   OW 3326   2.454   3.730   1.090
 1060  SOL  HW1 3327   2.432   3.640   1.067
 1060  SOL  HW2 3328   2.518   3.757   1.025
 1061  SOL   OW 3329   1.700   0.082   3.520
 1061  SOL  HW1 3330   1.695  -0.014   3.524
 1061  SOL  HW2 3331   1.639   0.106   3.450
 1062  SOL   OW 3332   1.022   1.662   1.811
 1062  SOL  HW1 3333   0.989   1.649   1.722
 1062  SOL  HW2 3334   0.945   1.691   1.860
 1063  SOL   OW 3335   2.138   1.821   1.368
 1063  SOL  HW1 3336   2.221   1.799   1.409
 1063  SOL  HW2 3337   2.082   1.745   1.383
 1064  SOL   OW 3338   0.469   3.540   0.379
 1064  SOL  HW1 3339   0.422   3.624   0.372
 1064  SOL  HW2 3340   0.402   3.478   0.409
 1065  SOL   OW 3341   1.062   2.275   2.431
 1065  SOL  HW1 3342   1.016   2.216   2.491
 1065  SOL  HW2 3343   1.106   2.216   2.369
 1066  SOL   OW 3344   1.842   0.030   1.132
 1066  SOL  HW1 3345   1.772   0.094   1.132
 1066  SOL  HW2 3346   1.913   0.072   1.084
 1067  SOL   OW 3347   0.058   3.361   0.805
 1067  SOL  HW1 3348  -0.033   3.391   0.815
 1067  SOL  HW2 3349   0.107   3.441   0.788
 1068  SOL   OW 3350   0.113   2.191   2.221
 1068  SOL  HW1 3351   0.052   2.141   2.276
 1068  SOL  HW2 3352   0.056   2.238   2.159
 1069  SOL   OW 3353   0.955   0.601   1.342
 1069  SOL  HW1 3354   0.932   0.624   1.252
 1069  SOL  HW2 3355   0.882   0.636   1.394
 1070  SOL   OW 3356   3.658   1.976   1.070
 1070  SOL  HW1 3357   3.656   1.925   1.151
 1070  SOL  HW2 3358   3.566   1.983   1.044
 1071  SOL   OW 3359   1.906   3.307   3.510
 1071  SOL  HW1 3360   1.918   3.298   3.416
 1071  SOL  HW2 3361   1.993   3.297   3.547
 1072  SOL   OW 3362   2.374   0.436   2.645
 1072  SOL  HW1 3363   2.290   0.394   2.664
 1072  SOL  HW2 3364   2.380   0.438   2.550
 1073  SOL   OW 3365   1.914   1.184   3.562
 1073  SOL  HW1 3366   1.863   1.252   3.519
 1073  SOL  HW2 3367   1.987   1.166   3.502
 1074  SOL   OW 3368   3.022   2.897   1.880
 1074  SOL  HW1 3369   3.042   2.828   1.816
 1074  SOL  HW2 3370   3.107   2.921   1.916
 1075  SOL   OW 3371   3.252   3.012   0.924
 1075  SOL  HW1 3372   3.293   2.985   0.842
 1075  SOL  HW2 3373   3.295   2.960   0.991
 1076  SOL   OW 3374   0.264   3.539   1.316
 1076  SOL  HW1 3375   0.331   3.484   1.356
 1076  SOL  HW2 3376   0.201   3.555   1.387
 1077  SOL   OW 3377   3.233   0.981   1.454
 1077  SOL  HW1 3378   3.221   1.073   1.478
 1077  SOL  HW2 3379   3.256   0.937   1.536
 1078  SOL   OW 3380   2.467   0.881   2.852
 1078  SOL  HW1 3381   2.482   0.819   2.781
 1078  SOL  HW2 3382   2.393   0.935   2.821
 1079  SOL   OW 3383   0.524   0.040   0.144
 1079  SOL  HW1 3384   0.489  -0.048   0.129
 1079  SOL  HW2 3385   0.576   0.032   0.224
 1080  SOL   OW 3386   2.290   1.181   1.917
 1080  SOL  HW1 3387   2.221   1.123   1.885
 1080  SOL  HW2 3388   2.328   1.134   1.991
 1081  SOL   OW 3389   1.665   2.134   1.281
 1081  SOL  HW1 3390   1.604   2.190   1.233
 1081  SOL  HW2 3391   1.652   2.046   1.244
 1082  SOL   OW 3392   2.266   0.876   0.387
 1082  SOL  HW1 3393   2.309   0.897   0.470
 1082  SOL  HW2 3394   2.305   0.792   0.361
 1083  SOL   OW 3395   2.828   2.269   1.991
 1083  SOL  HW1 3396   2.755   2.330   1.984
 1083  SOL  HW2 3397   2.822   2.235   2.080
 1084  SOL   OW 3398   3.058   1.655   2.984
 1084  SOL  HW1 3399   3.134   1.712   2.973
 1084  SOL  HW2 3400   3.068   1.620   3.073
 1085  SOL   OW 3401   2.557   0.314   0.240
 1085  SOL  HW1 3402   2.570   0.386   0.301
 1085  SOL  HW2 3403   2.470   0.330   0.202
 1086  SOL   OW 3404   1.189   3.689   1.710
 1086  SOL  HW1 3405   1.097   3.708   1.729
 1086  SOL  HW2 3406   1.221   3.644   1.789
 1087  SOL   OW 3407   1.245   1.621   1.607
 1087  SOL  HW1 3408   1.309   1.680   1.647
 1087  SOL  HW2 3409   1.173   1.679   1.581
 1088  SOL   OW 3410   1.834   2.771   0.470
 1088  SOL  HW1 3411   1.916   2.731   0.499
 1088  SOL  HW2 3412   1.771   2.751   0.540
 1089  SOL   OW 3413   1.648   2.474   0.384
 1089  SOL  HW1 3414   1.611   2.457   0.297
 1089  SOL  HW2 3415   1.572   2.500   0.436
 1090  SOL   OW 3416   1.427   2.694   0.775
 1090  SOL  HW1 3417   1.446   2.779   0.816
 1090  SOL  HW2 3418   1.337   2.674   0.802
 1091  SOL   OW 3419   1.645   2.776   0.658
 1091  SOL  HW1 3420   1.587   2.708   0.690
 1091  SOL  HW2 3421   1.600   2.858   0.678
 1092  SOL   OW 3422   0.367   3.569   0.024
 1092  SOL  HW1 3423   0.280   3.569   0.063
 1092  SOL  HW2 3424   0.376   3.481  -0.013
 1093  SOL   OW 3425   3.491   0.383   2.821
 1093  SOL  HW1 3426   3.558   0.318   2.796
 1093  SOL  HW2 3427   3.540   0.465   2.827
 1094  SOL   OW 3428   2.415   3.280   3.384
 1094  SOL  HW1 3429   2.396   3.269   3.477
 1094  SOL  HW2 3430   2.498   3.234   3.370
 1095  SOL   OW 3431   3.526   0.267   0.699
 1095  SOL  HW1 3432   3.552   0.342   0.752
 1095  SOL  HW2 3433   3.580   0.273   0.620
 1096  SOL   OW 3434   2.072   0.757   1.588
 1096  SOL  HW1 3435   2.097   0.712   1.668
 1096  SOL  HW2 3436   2.146   0.743   1.528
 1097  SOL   OW 3437   1.955   0.340   1.726
 1097  SOL  HW1 3438   1.932   0.257   1.684
 1097  SOL  HW2 3439   2.050   0.338   1.733
 1098  SOL   OW 3440   1.712   2.947   2.127
 1098  SOL  HW1 3441   1.683   2.913   2.211
 1098  SOL  HW2 3442   1.764   2.876   2.089
 1099  SOL   OW 3443   3.305   1.142   1.895
 1099  SOL  HW1 3444   3.374   1.208   1.898
 1099  SOL  HW2 3445   3.310   1.098   1.980
 1100  SOL   OW 3446   0.350   0.784   2.325
 1100  SOL  HW1 3447   0.445   0.774   2.323
 1100  SOL  HW2 3448   0.335   0.858   2.383
 1101  SOL   OW 3449   0.098   1.835   0.879
 1101  SOL  HW1 3450   0.064   1.879   0.957
 1101  SOL  HW2 3451   0.166   1.777   0.912
 1102  SOL   OW 3452   0.558   2.801   1.527
 1102  SOL  HW1 3453   0.650   2.823   1.546
 1102  SOL  HW2 3454   0.560   2.768   1.437
 1103  SOL   OW 3455   2.230   3.046   0.276
 1103  SOL  HW1 3456   2.196   2.963   0.242
 1103  SOL  HW2 3457   2.198   3.050   0.366
 1104  SOL   OW 3458   1.224   1.512   1.951
 1104  SOL  HW1 3459   1.139   1.556   1.950
 1104  SOL  HW2 3460   1.230   1.470   1.865
 1105  SOL   OW 3461   0.079   3.249   0.274
 1105  SOL  HW1 3462   0.113   3.325   0.227
 1105  SOL  HW2 3463   0.115   3.257   0.362
 1106  SOL   OW 3464   3.403   1.424   3.403
 1106  SOL  HW1 3465   3.480   1.414   3.346
 1106  SOL  HW2 3466   3.354   1.343   3.391
 1107  SOL   OW 3467   0.695   3.502   1.484
 1107  SOL  HW1 3468   0.605   3.479   1.508
 1107  SOL  HW2 3469   0.749   3.439   1.532
 1108  SOL   OW 3470   0.318   1.859   1.391
 1108  SOL  HW1 3471   0.222   1.865   1.396
 1108  SOL  HW2 3472   0.337   1.869   1.297
 1109  SOL   OW 3473   2.971   3.353   2.545
 1109  SOL  HW1 3474   2.997   3.369   2.454
 1109  SOL  HW2 3475   2.877   3.339   2.541
 1110  SOL   OW 3476   2.969   0.283   0.376
 1110  SOL  HW1 3477   3.038   0.228   0.339
 1110  SOL  HW2 3478   2.910   0.300   0.303
 1111  SOL   OW 3479   0.766   2.013   1.405
 1111  SOL  HW1 3480   0.746   2.105   1.391
 1111  SOL  HW2 3481   0.818   2.011   1.485
 1112  SOL   OW 3482   1.768   3.041   2.532
 1112  SOL  HW1 3483   1.683   3.038   2.488
 1112  SOL  HW2 3484   1.750   3.009   2.621
 1113  SOL   OW 3485   2.520   2.345   0.958
 1113  SOL  HW1 3486   2.592   2.365   1.018
 1113  SOL  HW2 3487   2.445   2.327   1.015
 1114  SOL   OW 3488   1.618   0.411   0.728
 1114  SOL  HW1 3489   1.566   0.402   0.808
 1114  SOL  HW2 3490   1.698   0.456   0.756
 1115  SOL   OW 3491   0.549   0.078   2.965
 1115  SOL  HW1 3492   0.522   0.083   3.057
 1115  SOL  HW2 3493   0.622   0.017   2.965
 1116  SOL   OW 3494   1.012   1.192   0.716
 1116  SOL  HW1 3495   1.012   1.235   0.802
 1116  SOL  HW2 3496   1.093   1.222   0.674
 1117  SOL   OW 3497   3.096   1.801   3.539
 1117  SOL  HW1 3498   3.166   1.819   3.477
 1117  SOL  HW2 3499   3.021   1.851   3.507
 1118  SOL   OW 3500   3.540   1.466   2.362
 1118  SOL  HW1 3501   3.470   1.407   2.332
 1118  SOL  HW2 3502   3.517   1.485   2.453
 1119  SOL   OW 3503   3.453   3.618   1.678
 1119  SOL  HW1 3504   3.408   3.534   1.672
 1119  SOL  HW2 3505   3.413   3.662   1.753
 1120  SOL   OW 3506   3.299   2.646   1.782
 1120  SOL  HW1 3507   3.320   2.738   1.765
 1120  SOL  HW2 3508   3.211   2.635   1.747
 1121  SOL   OW 3509   3.121   1.037   3.638
 1121  SOL  HW1 3510   3.109   1.129   3.661
 1121  SOL  HW2 3511   3.042   1.014   3.589
 1122  SOL   OW 3512   2.591   2.924   1.666
 1122  SOL  HW1 3513   2.497   2.933   1.652
 1122  SOL  HW2 3514   2.631   2.981   1.600
 1123  SOL   OW 3515   0.264   1.148   3.224
 1123  SOL  HW1 3516   0.278   1.119   3.314
 1123  SOL  HW2 3517   0.239   1.240   3.233
 1124  SOL   OW 3518   1.734   0.607   0.025
 1124  SOL  HW1 3519   1.709   0.583   0.115
 1124  SOL  HW2 3520   1.659   0.580  -0.028
 1125  SOL   OW 3521   2.049   0.674   3.611
 1125  SOL  HW1 3522   2.141   0.665   3.586
 1125  SOL  HW2 3523   2.012   0.732   3.545
 1126  SOL   OW 3524   1.425   2.583   0.503
 1126  SOL  HW1 3525   1.383   2.642   0.441
 1126  SOL  HW2 3526   1.400   2.617   0.589
 1127  SOL   OW 3527   3.653   2.762   0.504
 1127  SOL  HW1 3528   3.579   2.736   0.449
 1127  SOL  HW2 3529   3.652   2.701   0.578
 1128  SOL   OW 3530   1.035   1.453   3.520
 1128  SOL  HW1 3531   0.971   1.384   3.543
 1128  SOL  HW2 3532   1.062   1.489   3.604
 1129  SOL   OW 3533   3.145   2.918   0.334
 1129  SOL  HW1 3534   3.140   2.825   0.358
 1129  SOL  HW2 3535   3.095   2.925   0.253
 1130  SOL   OW 3536   2.382   3.454   1.085
 1130  SOL  HW1 3537   2.349   3.455   1.175
 1130  SOL  HW2 3538   2.416   3.366   1.073
 1131  SOL   OW 3539   2.589   0.750   0.747
 1131  SOL  HW1 3540   2.673   0.708   0.765
 1131  SOL  HW2 3541   2.547   0.756   0.832
 1132  SOL   OW 3542   2.980   0.461   3.368
 1132  SOL  HW1 3543   3.073   0.484   3.374
 1132  SOL  HW2 3544   2.942   0.497   3.448
 1133  SOL   OW 3545   1.859   3.449   0.556
 1133  SOL  HW1 3546   1.942   3.497   0.559
 1133  SOL  HW2 3547   1.884   3.358   0.541
 1134  SOL   OW 3548   3.008   2.366   1.207
 1134  SOL  HW1 3549   3.059   2.447   1.207
 1134  SOL  HW2 3550   3.066   2.301   1.166
 1135  SOL   OW 3551   3.356   0.292   0.274
 1135  SOL  HW1 3552   3.282   0.248   0.234
 1135  SOL  HW2 3553   3.432   0.241   0.246
 1136  SOL   OW 3554   0.608   1.992   2.358
 1136  SOL  HW1 3555   0.685   2.040   2.327
 1136  SOL  HW2 3556   0.538   2.015   2.297
 1137  SOL   OW 3557   0.006   0.447   2.072
 1137  SOL  HW1 3558   0.017   0.379   2.007
 1137  SOL  HW2 3559   0.080   0.437   2.131
 1138  SOL   OW 3560   2.041   1.515   3.340
 1138  SOL  HW1 3561   2.110   1.450   3.356
 1138  SOL  HW2 3562   2.011   1.496   3.251
 1139  SOL   OW 3563   0.725   3.144   1.608
 1139  SOL  HW1 3564   0.758   3.230   1.636
 1139  SOL  HW2 3565   0.736   3.144   1.513
 1140  SOL   OW 3566   1.785   3.509   0.941
 1140  SOL  HW1 3567   1.735   3.573   0.992
 1140  SOL  HW2 3568   1.856   3.560   0.902
 1141  SOL   OW 3569   0.429   2.937   0.963
 1141  SOL  HW1 3570   0.457   2.898   0.880
 1141  SOL  HW2 3571   0.481   3.017   0.971
 1142  SOL   OW 3572   0.288   2.129   0.891
 1142  SOL  HW1 3573   0.349   2.195   0.926
 1142  SOL  HW2 3574   0.204   2.175   0.885
 1143  SOL   OW 3575   1.398   1.575   1.339
 1143  SOL  HW1 3576   1.402   1.488   1.299
 1143  SOL  HW2 3577   1.383   1.557   1.432
 1144  SOL   OW 3578   3.206   1.565   0.948
 1144  SOL  HW1 3579   3.242   1.520   0.872
 1144  SOL  HW2 3580   3.140   1.624   0.912
 1145  SOL   OW 3581   2.221   1.724   0.604
 1145  SOL  HW1 3582   2.294   1.784   0.619
 1145  SOL  HW2 3583   2.263   1.640   0.587
 1146  SOL   OW 3584   0.627   0.193   1.308
 1146  SOL  HW1 3585   0.625   0.221   1.217
 1146  SOL  HW2 3586   0.549   0.138   1.318
 1147  SOL   OW 3587   1.603   0.204   1.045
 1147  SOL  HW1 3588   1.599   0.151   0.965
 1147  SOL  HW2 3589   1.558   0.285   1.022
 1148  SOL   OW 3590   3.502   1.404   2.649
 1148  SOL  HW1 3591   3.427   1.439   2.698
 1148  SOL  HW2 3592   3.546   1.346   2.711
 1149  SOL   OW 3593   2.716   3.263   2.522
 1149  SOL  HW1 3594   2.722   3.168   2.521
 1149  SOL  HW2 3595   2.672   3.285   2.439
 1150  SOL   OW 3596   2.860   0.701   0.761
 1150  SOL  HW1 3597   2.924   0.697   0.690
 1150  SOL  HW2 3598   2.885   0.779   0.810
 1151  SOL   OW 3599   1.979   3.073   1.116
 1151  SOL  HW1 3600   2.043   3.003   1.104
 1151  SOL  HW2 3601   1.935   3.080   1.032
 1152  SOL   OW 3602   1.276   2.262   2.155
 1152  SOL  HW1 3603   1.323   2.337   2.190
 1152  SOL  HW2 3604   1.188   2.296   2.135
 1153  SOL   OW 3605   3.197   0.483   2.859
 1153  SOL  HW1 3606   3.185   0.560   2.915
 1153  SOL  HW2 3607   3.283   0.450   2.881
 1154  SOL   OW 3608   2.704   0.263   3.261
 1154  SOL  HW1 3609   2.659   0.181   3.280
 1154  SOL  HW2 3610   2.797   0.240   3.262
 1155  SOL   OW 3611   0.124   2.173   0.096
 1155  SOL  HW1 3612   0.041   2.222   0.093
 1155  SOL  HW2 3613   0.098   2.084   0.122
 1156  SOL   OW 3614   1.552   3.061   3.195
 1156  SOL  HW1 3615   1.482   2.997   3.182
 1156  SOL  HW2 3616   1.629   3.021   3.155
 1157  SOL   OW 3617   1.966   2.410   1.077
 1157  SOL  HW1 3618   1.882   2.435   1.115
 1157  SOL  HW2 3619   1.945   2.384   0.987
 1158  SOL   OW 3620   1.382   2.645   3.353
 1158  SOL  HW1 3621   1.334   2.636   3.271
 1158  SOL  HW2 3622   1.454   2.583   3.346
 1159  SOL   OW 3623   1.252   1.740   3.477
 1159  SOL  HW1 3624   1.316   1.728   3.547
 1159  SOL  HW2 3625   1.176   1.780   3.519
 1160  SOL   OW 3626   1.722   1.602   3.503
 1160  SOL  HW1 3627   1.689   1.685   3.537
 1160  SOL  HW2 3628   1.709   1.540   3.575
 1161  SOL   OW 3629   2.554   3.697   2.117
 1161  SOL  HW1 3630   2.569   3.665   2.028
 1161  SOL  HW2 3631   2.616   3.770   2.126
 1162  SOL   OW 3632   2.203   2.158   0.891
 1162  SOL  HW1 3633   2.162   2.230   0.844
 1162  SOL  HW2 3634   2.130   2.101   0.917
 1163  SOL   OW 3635   0.699   2.904   2.692
 1163  SOL  HW1 3636   0.722   2.871   2.779
 1163  SOL  HW2 3637   0.782   2.931   2.654
 1164  SOL   OW 3638   0.936   3.179   0.540
 1164  SOL  HW1 3639   1.007   3.175   0.476
 1164  SOL  HW2 3640   0.901   3.090   0.542
 1165  SOL   OW 3641   2.435   1.467   1.652
 1165  SOL  HW1 3642   2.491   1.446   1.726
 1165  SOL  HW2 3643   2.348   1.435   1.676
 1166  SOL   OW 3644   0.955   2.942   2.586
 1166  SOL  HW1 3645   1.004   3.004   2.640
 1166  SOL  HW2 3646   0.981   2.856   2.618
 1167  SOL   OW 3647   2.444   0.104   1.343
 1167  SOL  HW1 3648   2.516   0.155   1.381
 1167  SOL  HW2 3649   2.480   0.070   1.261
 1168  SOL   OW 3650   2.260   0.306   2.240
 1168  SOL  HW1 3651   2.263   0.273   2.330
 1168  SOL  HW2 3652   2.182   0.266   2.202
 1169  SOL   OW 3653   3.007   0.239   2.656
 1169  SOL  HW1 3654   3.092   0.204   2.631
 1169  SOL  HW2 3655   2.988   0.306   2.590
 1170  SOL   OW 3656   0.684   1.164   0.775
 1170  SOL  HW1 3657   0.651   1.249   0.746
 1170  SOL  HW2 3658   0.754   1.187   0.838
 1171  SOL   OW 3659   1.197   0.450   0.774
 1171  SOL  HW1 3660   1.188   0.403   0.691
 1171  SOL  HW2 3661   1.259   0.520   0.755
 1172  SOL   OW 3662   2.398   2.180   2.232
 1172  SOL  HW1 3663   2.478   2.138   2.201
 1172  SOL  HW2 3664   2.426   2.234   2.306
 1173  SOL   OW 3665   2.000   2.390   3.444
 1173  SOL  HW1 3666   1.970   2.395   3.534
 1173  SOL  HW2 3667   2.085   2.434   3.445
 1174  SOL   OW 3668   0.305   3.139   1.344
 1174  SOL  HW1 3669   0.219   3.165   1.376
 1174  SOL  HW2 3670   0.349   3.100   1.419
 1175  SOL   OW 3671   0.856   1.832   3.222
 1175  SOL  HW1 3672   0.945   1.865   3.207
 1175  SOL  HW2 3673   0.800   1.892   3.171
 1176  SOL   OW 3674   3.275   3.272   1.175
 1176  SOL  HW1 3675   3.351   3.328   1.160
 1176  SOL  HW2 3676   3.304   3.185   1.148
 1177  SOL   OW 3677   1.752   2.551   2.078
 1177  SOL  HW1 3678   1.796   2.593   2.152
 1177  SOL  HW2 3679   1.801   2.470   2.064
 1178  SOL   OW 3680   2.459   3.283   2.968
 1178  SOL  HW1 3681   2.369   3.313   2.970
 1178  SOL  HW2 3682   2.453   3.188   2.978
 1179  SOL   OW 3683   2.326   3.636   0.409
 1179  SOL  HW1 3684   2.270   3.648   0.333
 1179  SOL  HW2 3685   2.305   3.548   0.441
 1180  SOL   OW 3686   1.360   3.581   0.899
 1180  SOL  HW1 3687   1.339   3.652   0.838
 1180  SOL  HW2 3688   1.293   3.585   0.967
 1181  SOL   OW 3689   1.409   1.178   0.142
 1181  SOL  HW1 3690   1.422   1.083   0.144
 1181  SOL  HW2 3691   1.347   1.195   0.213
 1182  SOL   OW 3692   0.536   0.424   3.583
 1182  SOL  HW1 3693   0.500   0.487   3.521
 1182  SOL  HW2 3694   0.628   0.450   3.592
 1183  SOL   OW 3695   2.998   2.799   0.966
 1183  SOL  HW1 3696   2.944   2.726   0.997
 1183  SOL  HW2 3697   3.028   2.842   1.046
 1184  SOL   OW 3698   1.058   3.472   3.146
 1184  SOL  HW1 3699   1.153   3.484   3.144
 1184  SOL  HW2 3700   1.039   3.444   3.235
 1185  SOL   OW 3701   2.253   3.639   3.589
 1185  SOL  HW1 3702   2.176   3.661   3.642
 1185  SOL  HW2 3703   2.218   3.611   3.505
 1186  SOL   OW 3704   1.929   3.195   0.219
 1186  SOL  HW1 3705   1.837   3.183   0.196
 1186  SOL  HW2 3706   1.954   3.112   0.259
 1187  SOL   OW 3707   0.259   1.848   3.701
 1187  SOL  HW1 3708   0.329   1.869   3.639
 1187  SOL  HW2 3709   0.305   1.828   3.783
 1188  SOL   OW 3710   2.944   2.639   0.404
 1188  SOL  HW1 3711   2.920   2.594   0.323
 1188  SOL  HW2 3712   2.882   2.712   0.409
 1189  SOL   OW 3713   2.423   1.060   2.108
 1189  SOL  HW1 3714   2.400   0.979   2.062
 1189  SOL  HW2 3715   2.513   1.047   2.136
 1190  SOL   OW 3716   2.558   0.140   2.809
 1190  SOL  HW1 3717   2.600   0.054   2.814
 1190  SOL  HW2 3718   2.630   0.200   2.786
 1191  SOL   OW 3719   2.949   2.421   3.352
 1191  SOL  HW1 3720   3.034   2.418   3.307
 1191  SOL  HW2 3721   2.929   2.329   3.371
 1192  SOL   OW 3722   2.139   2.923   2.231
 1192  SOL  HW1 3723   2.120   3.006   2.186
 1192  SOL  HW2 3724   2.195   2.947   2.304
 1193  SOL   OW 3725   3.034   2.345   3.767
 1193  SOL  HW1 3726   3.055   2.403   3.695
 1193  SOL  HW2 3727   3.002   2.265   3.726
 1194  SOL   OW 3728   0.537   3.354   2.147
 1194  SOL  HW1 3729   0.505   3.441   2.171
 1194  SOL  HW2 3730   0.627   3.352   2.178
 1195  SOL   OW 3731   2.971   3.034   0.612
 1195  SOL  HW1 3732   2.899   3.025   0.549
 1195  SOL  HW2 3733   3.005   2.945   0.623
 1196  SOL   OW 3734   2.305   0.088   2.725
 1196  SOL  HW1 3735   2.385   0.136   2.745
 1196  SOL  HW2 3736   2.330  -0.004   2.728
 1197  SOL   OW 3737   1.694   2.446   1.048
 1197  SOL  HW1 3738   1.696   2.350   1.041
 1197  SOL  HW2 3739   1.674   2.475   0.959
 1198  SOL   OW 3740   3.348   1.099   2.155
 1198  SOL  HW1 3741   3.444   1.090   2.158
 1198  SOL  HW2 3742   3.324   1.127   2.243
 1199  SOL   OW 3743   2.444   0.842   2.342
 1199  SOL  HW1 3744   2.369   0.890   2.378
 1199  SOL  HW2 3745   2.510   0.909   2.325
 1200  SOL   OW 3746   3.557   3.107   0.645
 1200  SOL  HW1 3747   3.632   3.136   0.594
 1200  SOL  HW2 3748   3.488   3.171   0.624
 1201  SOL   OW 3749   0.509   3.128   0.634
 1201  SOL  HW1 3750   0.430   3.158   0.678
 1201  SOL  HW2 3751   0.477   3.070   0.565
 1202  SOL   OW 3752   1.001   2.876   0.463
 1202  SOL  HW1 3753   0.914   2.891   0.500
 1202  SOL  HW2 3754   0.985   2.826   0.383
 1203  SOL   OW 3755   2.991   3.231   0.112
 1203  SOL  HW1 3756   3.013   3.137   0.110
 1203  SOL  HW2 3757   2.902   3.234   0.147
 1204  SOL   OW 3758   2.214   1.656   0.056
 1204  SOL  HW1 3759   2.225   1.564   0.030
 1204  SOL  HW2 3760   2.160   1.694  -0.013
 1205  SOL   OW 3761   0.444   0.627   1.141
 1205  SOL  HW1 3762   0.465   0.705   1.193
 1205  SOL  HW2 3763   0.404   0.662   1.061
 1206  SOL   OW 3764   2.195   3.747   2.261
 1206  SOL  HW1 3765   2.107   3.752   2.223
 1206  SOL  HW2 3766   2.207   3.655   2.282
 1207  SOL   OW 3767   0.246   0.267   0.356
 1207  SOL  HW1 3768   0.228   0.331   0.288
 1207  SOL  HW2 3769   0.293   0.316   0.424
 1208  SOL   OW 3770   2.970   3.510   1.543
 1208  SOL  HW1 3771   2.885   3.545   1.569
 1208  SOL  HW2 3772   2.976   3.529   1.449
 1209  SOL   OW 3773   1.912   2.702   2.784
 1209  SOL  HW1 3774   1.896   2.620   2.830
 1209  SOL  HW2 3775   2.005   2.698   2.760
 1210  SOL   OW 3776   2.790   0.306   1.800
 1210  SOL  HW1 3777   2.820   0.245   1.867
 1210  SOL  HW2 3778   2.856   0.298   1.730
 1211  SOL   OW 3779   1.603   1.356   0.219
 1211  SOL  HW1 3780   1.624   1.348   0.312
 1211  SOL  HW2 3781   1.510   1.335   0.213
 1212  SOL   OW 3782   0.278   0.449   3.317
 1212  SOL  HW1 3783   0.361   0.493   3.332
 1212  SOL  HW2 3784   0.302   0.358   3.301
 1213  SOL   OW 3785   2.398   2.640   2.548
 1213  SOL  HW1 3786   2.426   2.730   2.528
 1213  SOL  HW2 3787   2.478   2.597   2.579
 1214  SOL   OW 3788   2.106   1.075   0.638
 1214  SOL  HW1 3789   2.179   1.098   0.694
 1214  SOL  HW2 3790   2.033   1.129   0.670
 1215  SOL   OW 3791   0.571   1.973   1.136
 1215  SOL  HW1 3792   0.481   1.964   1.105
 1215  SOL  HW2 3793   0.565   2.032   1.211
 1216  SOL   OW 3794   3.634   1.047   3.626
 1216  SOL  HW1 3795   3.659   0.983   3.559
 1216  SOL  HW2 3796   3.546   1.075   3.600
 1217  SOL   OW 3797   1.068   1.991   2.364
 1217  SOL  HW1 3798   1.093   1.931   2.435
 1217  SOL  HW2 3799   0.973   1.981   2.358
 1218  SOL   OW 3800   0.120   0.705   0.609
 1218  SOL  HW1 3801   0.128   0.740   0.520
 1218  SOL  HW2 3802   0.147   0.778   0.666
 1219  SOL   OW 3803   2.112   0.529   1.215
 1219  SOL  HW1 3804   2.085   0.539   1.306
 1219  SOL  HW2 3805   2.040   0.483   1.173
 1220  SOL   OW 3806   2.979   0.784   0.230
 1220  SOL  HW1 3807   2.973   0.690   0.212
 1220  SOL  HW2 3808   2.915   0.800   0.299
 1221  SOL   OW 3809   3.683   3.660   0.513
 1221  SOL  HW1 3810   3.625   3.677   0.586
 1221  SOL  HW2 3811   3.735   3.585   0.540
 1222  SOL   OW 3812   3.458   0.489   1.529
 1222  SOL  HW1 3813   3.373   0.459   1.495
 1222  SOL  HW2 3814   3.439   0.576   1.565
 1223  SOL   OW 3815   2.529   2.867   2.543
 1223  SOL  HW1 3816   2.549   2.895   2.632
 1223  SOL  HW2 3817   2.600   2.902   2.490
 1224  SOL   OW 3818   3.044   3.363   0.345
 1224  SOL  HW1 3819   3.021   3.299   0.277
 1224  SOL  HW2 3820   3.078   3.310   0.417
 1225  SOL   OW 3821   3.352   2.515   0.230
 1225  SOL  HW1 3822   3.335   2.550   0.143
 1225  SOL  HW2 3823   3.447   2.525   0.241
 1226  SOL   OW 3824   0.613   1.389   3.050
 1226  SOL  HW1 3825   0.663   1.379   2.970
 1226  SOL  HW2 3826   0.638   1.476   3.083
 1227  SOL   OW 3827   3.454   1.264   1.598
 1227  SOL  HW1 3828   3.477   1.292   1.687
 1227  SOL  HW2 3829   3.526   1.207   1.571
 1228  SOL   OW 3830   2.895   1.030   1.591
 1228  SOL  HW1 3831   2.814   1.075   1.614
 1228  SOL  HW2 3832   2.952   1.043   1.668
 1229  SOL   OW 3833   1.457   2.902   1.759
 1229  SOL  HW1 3834   1.479   2.988   1.795
 1229  SOL  HW2 3835   1.419   2.854   1.832
 1230  SOL   OW 3836   0.069   0.878   0.413
 1230  SOL  HW1 3837   0.001   0.917   0.358
 1230  SOL  HW2 3838   0.120   0.823   0.353
 1231  SOL   OW 3839   2.310   0.187   0.123
 1231  SOL  HW1 3840   2.393   0.140   0.132
 1231  SOL  HW2 3841   2.242   0.121   0.136
 1232  SOL   OW 3842   3.473   2.216   2.509
 1232  SOL  HW1 3843   3.448   2.133   2.550
 1232  SOL  HW2 3844   3.405   2.278   2.535
 1233  SOL   OW 3845   1.543   0.279   2.101
 1233  SOL  HW1 3846   1.542   0.317   2.189
 1233  SOL  HW2 3847   1.628   0.303   2.065
 1234  SOL   OW 3848   2.260   0.699   3.347
 1234  SOL  HW1 3849   2.346   0.701   3.388
 1234  SOL  HW2 3850   2.252   0.609   3.314
 1235  SOL   OW 3851   3.141   2.599   1.160
 1235  SOL  HW1 3852   3.105   2.686   1.176
 1235  SOL  HW2 3853   3.175   2.603   1.070
 1236  SOL   OW 3854   1.910   2.125   3.109
 1236  SOL  HW1 3855   1.878   2.060   3.047
 1236  SOL  HW2 3856   1.956   2.074   3.176
 1237  SOL   OW 3857   0.418   2.551   1.332
 1237  SOL  HW1 3858   0.411   2.645   1.350
 1237  SOL  HW2 3859   0.334   2.527   1.293
 1238  SOL   OW 3860   1.145   3.061   3.506
 1238  SOL  HW1 3861   1.201   2.985   3.517
 1238  SOL  HW2 3862   1.171   3.099   3.422
 1239  SOL   OW 3863   2.758   1.995   0.510
 1239  SOL  HW1 3864   2.718   2.042   0.437
 1239  SOL  HW2 3865   2.791   2.064   0.568
 1240  SOL   OW 3866   1.136   3.423   3.479
 1240  SOL  HW1 3867   1.121   3.487   3.548
 1240  SOL  HW2 3868   1.049   3.402   3.445
 1241  SOL   OW 3869   0.770   2.349   0.861
 1241  SOL  HW1 3870   0.855   2.348   0.818
 1241  SOL  HW2 3871   0.778   2.417   0.928
 1242  SOL   OW 3872   1.573   2.206   0.195
 1242  SOL  HW1 3873   1.503   2.160   0.241
 1242  SOL  HW2 3874   1.610   2.141   0.136
 1243  SOL   OW 3875   3.394   2.383   1.392
 1243  SOL  HW1 3876   3.354   2.315   1.446
 1243  SOL  HW2 3877   3.329   2.453   1.389
 1244  SOL   OW 3878   3.349   2.611   3.019
 1244  SOL  HW1 3879   3.300   2.531   3.002
 1244  SOL  HW2 3880   3.303   2.678   2.968
 1245  SOL   OW 3881   2.471   0.347   1.211
 1245  SOL  HW1 3882   2.421   0.273   1.244
 1245  SOL  HW2 3883   2.541   0.308   1.159
 1246  SOL   OW 3884   2.717   1.294   2.126
 1246  SOL  HW1 3885   2.632   1.318   2.089
 1246  SOL  HW2 3886   2.712   1.199   2.138
 1247  SOL   OW 3887   2.567   1.438   1.410
 1247  SOL  HW1 3888   2.558   1.474   1.499
 1247  SOL  HW2 3889   2.646   1.479   1.376
 1248  SOL   OW 3890   1.244   0.651   0.098
 1248  SOL  HW1 3891   1.292   0.575   0.067
 1248  SOL  HW2 3892   1.223   0.631   0.190
 1249  SOL   OW 3893   2.597   1.011   3.429
 1249  SOL  HW1 3894   2.651   0.970   3.361
 1249  SOL  HW2 3895   2.507   1.001   3.398
 1250  SOL   OW 3896   3.081   1.607   3.249
 1250  SOL  HW1 3897   2.995   1.583   3.284
 1250  SOL  HW2 3898   3.128   1.643   3.324
 1251  SOL   OW 3899   0.557   1.224   0.087
 1251  SOL  HW1 3900   0.474   1.178   0.072
 1251  SOL  HW2 3901   0.614   1.195   0.017
 1252  SOL   OW 3902   3.244   1.409   2.101
 1252  SOL  HW1 3903   3.286   1.328   2.072
 1252  SOL  HW2 3904   3.306   1.478   2.080
 1253  SOL   OW 3905   3.506   0.018   3.229
 1253  SOL  HW1 3906   3.556  -0.033   3.166
 1253  SOL  HW2 3907   3.473   0.093   3.179
 1254  SOL   OW 3908   3.035   0.858   2.168
 1254  SOL  HW1 3909   3.016   0.952   2.176
 1254  SOL  HW2 3910   3.009   0.835   2.079
 1255  SOL   OW 3911   0.282   0.155   2.164
 1255  SOL  HW1 3912   0.306   0.118   2.079
 1255  SOL  HW2 3913   0.295   0.249   2.154
 1256  SOL   OW 3914   1.842   0.608   2.947
 1256  SOL  HW1 3915   1.795   0.665   3.008
 1256  SOL  HW2 3916   1.879   0.538   3.002
 1257  SOL   OW 3917   1.018   3.056   0.919
 1257  SOL  HW1 3918   1.067   3.043   1.001
 1257  SOL  HW2 3919   1.081   3.099   0.861
 1258  SOL   OW 3920   2.279   1.252   0.422
 1258  SOL  HW1 3921   2.300   1.341   0.452
 1258  SOL  HW2 3922   2.193   1.233   0.459
 1259  SOL   OW 3923   2.814   1.095   0.323
 1259  SOL  HW1 3924   2.722   1.114   0.303
 1259  SOL  HW2 3925   2.818   0.999   0.324
 1260  SOL   OW 3926   0.399   1.007   2.066
 1260  SOL  HW1 3927   0.363   1.001   2.154
 1260  SOL  HW2 3928   0.340   1.067   2.019
 1261  SOL   OW 3929   3.113   1.812   2.145
 1261  SOL  HW1 3930   3.186   1.800   2.085
 1261  SOL  HW2 3931   3.123   1.902   2.176
 1262  SOL   OW 3932   2.528   2.558   1.222
 1262  SOL  HW1 3933   2.503   2.473   1.258
 1262  SOL  HW2 3934   2.606   2.583   1.272
 1263  SOL   OW 3935   2.915   0.105   1.327
 1263  SOL  HW1 3936   2.829   0.068   1.310
 1263  SOL  HW2 3937   2.911   0.193   1.289
 1264  SOL   OW 3938   0.889   0.710   2.655
 1264  SOL  HW1 3939   0.885   0.643   2.586
 1264  SOL  HW2 3940   0.890   0.793   2.608
 1265  SOL   OW 3941   1.975   0.082   1.572
 1265  SOL  HW1 3942   1.995   0.000   1.526
 1265  SOL  HW2 3943   1.992   0.151   1.508
 1266  SOL   OW 3944   3.715   1.284   3.058
 1266  SOL  HW1 3945   3.667   1.364   3.040
 1266  SOL  HW2 3946   3.691   1.260   3.147
 1267  SOL   OW 3947   3.654   0.474   2.490
 1267  SOL  HW1 3948   3.745   0.474   2.520
 1267  SOL  HW2 3949   3.628   0.382   2.490
 1268  SOL   OW 3950   0.604   2.193   0.330
 1268  SOL  HW1 3951   0.604   2.285   0.301
 1268  SOL  HW2 3952   0.567   2.196   0.419
 1269  SOL   OW 3953   2.883   0.531   0.495
 1269  SOL  HW1 3954   2.938   0.591   0.544
 1269  SOL  HW2 3955   2.945   0.471   0.452
 1270  SOL   OW 3956   2.965   3.647   0.200
 1270  SOL  HW1 3957   2.998   3.590   0.131
 1270  SOL  HW2 3958   2.927   3.588   0.265
 1271  SOL   OW 3959   0.262   2.874   2.267
 1271  SOL  HW1 3960   0.269   2.939   2.337
 1271  SOL  HW2 3961   0.342   2.823   2.274
 1272  SOL   OW 3962   3.234   3.596   0.417
 1272  SOL  HW1 3963   3.155   3.649   0.426
 1272  SOL  HW2 3964   3.205   3.506   0.431
 1273  SOL   OW 3965   2.342   2.180   1.818
 1273  SOL  HW1 3966   2.286   2.150   1.889
 1273  SOL  HW2 3967   2.417   2.121   1.819
 1274  SOL   OW 3968   2.636   3.568   0.288
 1274  SOL  HW1 3969   2.552   3.544   0.328
 1274  SOL  HW2 3970   2.612   3.601   0.202
 1275  SOL   OW 3971   2.145   2.685   1.684
 1275  SOL  HW1 3972   2.230   2.662   1.722
 1275  SOL  HW2 3973   2.112   2.755   1.741
 1276  SOL   OW 3974   1.423   2.771   2.320
 1276  SOL  HW1 3975   1.510   2.758   2.358
 1276  SOL  HW2 3976   1.372   2.812   2.390
 1277  SOL   OW 3977   1.129   0.322   0.527
 1277  SOL  HW1 3978   1.139   0.287   0.439
 1277  SOL  HW2 3979   1.035   0.338   0.536
 1278  SOL   OW 3980   3.616   0.314   3.348
 1278  SOL  HW1 3981   3.658   0.387   3.393
 1278  SOL  HW2 3982   3.545   0.288   3.406
 1279  SOL   OW 3983   1.771   1.310   3.403
 1279  SOL  HW1 3984   1.679   1.326   3.424
 1279  SOL  HW2 3985   1.807   1.397   3.384
 1280  SOL   OW 3986   1.915   3.535   2.413
 1280  SOL  HW1 3987   1.994   3.483   2.422
 1280  SOL  HW2 3988   1.927   3.585   2.332
 1281  SOL   OW 3989   2.776   3.294   0.288
 1281  SOL  HW1 3990   2.702   3.340   0.249
 1281  SOL  HW2 3991   2.814   3.357   0.350
 1282  SOL   OW 3992   2.381   1.113   0.802
 1282  SOL  HW1 3993   2.331   1.051   0.855
 1282  SOL  HW2 3994   2.397   1.187   0.860
 1283  SOL   OW 3995   2.594   1.818   1.299
 1283  SOL  HW1 3996   2.656   1.877   1.343
 1283  SOL  HW2 3997   2.550   1.874   1.236
 1284  SOL   OW 3998   2.200   1.051   3.070
 1284  SOL  HW1 3999   2.256   0.974   3.068
 1284  SOL  HW2 4000   2.122   1.026   3.019
 1285  SOL   OW 4001   3.334   3.111   1.993
 1285  SOL  HW1 4002   3.323   3.033   2.048
 1285  SOL  HW2 4003   3.338   3.183   2.055
 1286  SOL   OW 4004   3.289   3.715   3.006
 1286  SOL  HW1 4005   3.348   3.639   3.003
 1286  SOL  HW2 4006   3.348   3.791   2.998
 1287  SOL   OW 4007   2.192   2.767   3.395
 1287  SOL  HW1 4008   2.122   2.769   3.461
 1287  SOL  HW2 4009   2.231   2.680   3.404
 1288  SOL   OW 4010   0.095   0.715   3.598
 1288  SOL  HW1 4011   0.114   0.715   3.504
 1288  SOL  HW2 4012   0.099   0.623   3.624
 1289  SOL   OW 4013   2.073   0.888   2.892
 1289  SOL  HW1 4014   2.000   0.851   2.843
 1289  SOL  HW2 4015   2.138   0.910   2.826
 1290  SOL   OW 4016   1.668   1.588   2.394
 1290  SOL  HW1 4017   1.580   1.593   2.357
 1290  SOL  HW2 4018   1.664   1.645   2.471
 1291  SOL   OW 4019   1.587   2.443   2.793
 1291  SOL  HW1 4020   1.659   2.389   2.824
 1291  SOL  HW2 4021   1.511   2.385   2.795
 1292  SOL   OW 4022   3.238   0.392   3.245
 1292  SOL  HW1 4023   3.206   0.303   3.259
 1292  SOL  HW2 4024   3.281   0.415   3.327
 1293  SOL   OW 4025   0.351   1.272   2.973
 1293  SOL  HW1 4026   0.312   1.240   3.054
 1293  SOL  HW2 4027   0.437   1.306   2.998
 1294  SOL   OW 4028   0.436   0.481   0.486
 1294  SOL  HW1 4029   0.507   0.456   0.547
 1294  SOL  HW2 4030   0.478   0.542   0.425
 1295  SOL   OW 4031   3.299   0.388   2.596
 1295  SOL  HW1 4032   3.272   0.432   2.676
 1295  SOL  HW2 4033   3.356   0.316   2.625
 1296  SOL   OW 4034   3.349   3.327   3.642
 1296  SOL  HW1 4035   3.429   3.335   3.694
 1296  SOL  HW2 4036   3.301   3.254   3.682
 1297  SOL   OW 4037   1.571   3.018   1.503
 1297  SOL  HW1 4038   1.540   2.939   1.548
 1297  SOL  HW2 4039   1.610   3.070   1.573
 1298  SOL   OW 4040   1.025   3.130   2.231
 1298  SOL  HW1 4041   1.071   3.192   2.288
 1298  SOL  HW2 4042   1.093   3.096   2.173
 1299  SOL   OW 4043   0.962   0.205   1.333
 1299  SOL  HW1 4044   0.919   0.124   1.361
 1299  SOL  HW2 4045   0.982   0.190   1.241
 1300  SOL   OW 4046   2.939   0.095   3.197
 1300  SOL  HW1 4047   2.942   0.161   3.127
 1300  SOL  HW2 4048   3.026   0.055   3.196
 1301  SOL   OW 4049   0.858   0.226   0.497
 1301  SOL  HW1 4050   0.871   0.234   0.402
 1301  SOL  HW2 4051   0.772   0.266   0.512
 1302  SOL   OW 4052   1.609   1.531   3.070
 1302  SOL  HW1 4053   1.527   1.579   3.055
 1302  SOL  HW2 4054   1.672   1.573   3.012
 1303  SOL   OW 4055   2.500   0.438   3.221
 1303  SOL  HW1 4056   2.498   0.435   3.125
 1303  SOL  HW2 4057   2.579   0.389   3.245
 1304  SOL   OW 4058   1.128   3.722   0.043
 1304  SOL  HW1 4059   1.093   3.718  -0.046
 1304  SOL  HW2 4060   1.222   3.735   0.031
 1305  SOL   OW 4061   2.182   0.597   1.773
 1305  SOL  HW1 4062   2.157   0.505   1.786
 1305  SOL  HW2 4063   2.213   0.625   1.859
 1306  SOL   OW 4064   3.354   1.940   1.010
 1306  SOL  HW1 4065   3.358   2.035   1.009
 1306  SOL  HW2 4066   3.337   1.916   0.919
 1307  SOL   OW 4067   1.467   2.538   2.011
 1307  SOL  HW1 4068   1.434   2.539   2.101
 1307  SOL  HW2 4069   1.560   2.518   2.019
 1308  SOL   OW 4070   1.598   3.590   3.304
 1308  SOL  HW1 4071   1.666   3.654   3.285
 1308  SOL  HW2 4072   1.632   3.507   3.269
 1309  SOL   OW 4073   0.477   1.302   0.618
 1309  SOL  HW1 4074   0.392   1.301   0.662
 1309  SOL  HW2 4075   0.460   1.260   0.533
 1310  SOL   OW 4076   0.449   3.031   1.564
 1310  SOL  HW1 4077   0.459   2.936   1.567
 1310  SOL  HW2 4078   0.532   3.065   1.596
 1311  SOL   OW 4079   3.179   2.147   2.270
 1311  SOL  HW1 4080   3.162   2.123   2.361
 1311  SOL  HW2 4081   3.135   2.231   2.258
 1312  SOL   OW 4082   0.576   0.145   0.520
 1312  SOL  HW1 4083   0.632   0.075   0.487
 1312  SOL  HW2 4084   0.493   0.102   0.543
 1313  SOL   OW 4085   2.868   3.584   2.654
 1313  SOL  HW1 4086   2.924   3.602   2.730
 1313  SOL  HW2 4087   2.922   3.527   2.598
 1314  SOL   OW 4088   2.766   2.323   1.088
 1314  SOL  HW1 4089   2.829   2.319   1.016
 1314  SOL  HW2 4090   2.820   2.317   1.167
 1315  SOL   OW 4091   2.394   2.285   1.206
 1315  SOL  HW1 4092   2.410   2.247   1.292
 1315  SOL  HW2 4093   2.299   2.298   1.203
 1316  SOL   OW 4094   1.129   1.721   0.787
 1316  SOL  HW1 4095   1.122   1.814   0.811
 1316  SOL  HW2 4096   1.071   1.712   0.711
 1317  SOL   OW 4097   2.012   0.031   0.499
 1317  SOL  HW1 4098   2.025   0.024   0.404
 1317  SOL  HW2 4099   2.092   0.073   0.531
 1318  SOL   OW 4100   1.446   3.391   0.062
 1318  SOL  HW1 4101   1.460   3.426  -0.025
 1318  SOL  HW2 4102   1.468   3.463   0.121
 1319  SOL   OW 4103   2.596   3.595   2.545
 1319  SOL  HW1 4104   2.687   3.573   2.566
 1319  SOL  HW2 4105   2.547   3.572   2.623
 1320  SOL   OW 4106   3.166   1.299   0.650
 1320  SOL  HW1 4107   3.156   1.389   0.619
 1320  SOL  HW2 4108   3.087   1.254   0.621
 1321  SOL   OW 4109   2.804   0.079   0.829
 1321  SOL  HW1 4110   2.869   0.134   0.785
 1321  SOL  HW2 4111   2.855   0.005   0.863
 1322  SOL   OW 4112   0.813   2.604   2.420
 1322  SOL  HW1 4113   0.825   2.692   2.385
 1322  SOL  HW2 4114   0.782   2.552   2.346
 1323  SOL   OW 4115   2.490   1.190   1.526
 1323  SOL  HW1 4116   2.506   1.271   1.477
 1323  SOL  HW2 4117   2.537   1.201   1.608
 1324  SOL   OW 4118   0.725   3.697   0.393
 1324  SOL  HW1 4119   0.758   3.656   0.473
 1324  SOL  HW2 4120   0.803   3.735   0.352
 1325  SOL   OW 4121   2.648   3.332   1.749
 1325  SOL  HW1 4122   2.692   3.321   1.664
 1325  SOL  HW2 4123   2.692   3.269   1.806
 1326  SOL   OW 4124   3.572   2.639   2.337
 1326  SOL  HW1 4125   3.618   2.581   2.277
 1326  SOL  HW2 4126   3.619   2.723   2.331
 1327  SOL   OW 4127   1.367   1.623   0.641
 1327  SOL  HW1 4128   1.371   1.672   0.558
 1327  SOL  HW2 4129   1.293   1.663   0.688
 1328  SOL   OW 4130   3.217   1.319   1.140
 1328  SOL  HW1 4131   3.261   1.236   1.118
 1328  SOL  HW2 4132   3.289   1.381   1.152
 1329  SOL   OW 4133   0.843   1.948   2.703
 1329  SOL  HW1 4134   0.815   1.926   2.615
 1329  SOL  HW2 4135   0.920   2.003   2.691
 1330  SOL   OW 4136   2.497   0.825   1.014
 1330  SOL  HW1 4137   2.419   0.773   1.034
 1330  SOL  HW2 4138   2.482   0.909   1.057
 1331  SOL   OW 4139   2.966   3.271   2.073
 1331  SOL  HW1 4140   3.014   3.191   2.096
 1331  SOL  HW2 4141   3.010   3.341   2.122
 1332  SOL   OW 4142   0.505   0.177   2.737
 1332  SOL  HW1 4143   0.509   0.171   2.832
 1332  SOL  HW2 4144   0.429   0.124   2.712
 1333  SOL   OW 4145   3.544   2.300   2.271
 1333  SOL  HW1 4146   3.463   2.319   2.224
 1333  SOL  HW2 4147   3.515   2.269   2.357
 1334  SOL   OW 4148   0.043   3.120   3.057
 1334  SOL  HW1 4149   0.017   3.062   2.985
 1334  SOL  HW2 4150   0.110   3.071   3.105
 1335  SOL   OW 4151   2.465   0.620   1.209
 1335  SOL  HW1 4152   2.524   0.605   1.135
 1335  SOL  HW2 4153   2.452   0.533   1.247
 1336  SOL   OW 4154   1.602   2.469   1.320
 1336  SOL  HW1 4155   1.629   2.455   1.229
 1336  SOL  HW2 4156   1.529   2.409   1.333
 1337  SOL   OW 4157   0.032   2.849   3.136
 1337  SOL  HW1 4158  -0.029   2.789   3.179
 1337  SOL  HW2 4159   0.119   2.820   3.165
 1338  SOL   OW 4160   2.042   1.815   2.545
 1338  SOL  HW1 4161   2.117   1.838   2.490
 1338  SOL  HW2 4162   2.008   1.734   2.507
 1339  SOL   OW 4163   2.331   1.916   2.149
 1339  SOL  HW1 4164   2.260   1.877   2.098
 1339  SOL  HW2 4165   2.291   1.991   2.193
 1340  SOL   OW 4166   3.219   2.199   1.073
 1340  SOL  HW1 4167   3.193   2.262   1.006
 1340  SOL  HW2 4168   3.292   2.242   1.119
 1341  SOL   OW 4169   0.234   2.276   1.657
 1341  SOL  HW1 4170   0.265   2.186   1.670
 1341  SOL  HW2 4171   0.254   2.320   1.740
 1342  SOL   OW 4172   2.959   1.505   1.085
 1342  SOL  HW1 4173   3.044   1.463   1.075
 1342  SOL  HW2 4174   2.969   1.589   1.040
 1343  SOL   OW 4175   3.379   1.211   0.499
 1343  SOL  HW1 4176   3.321   1.245   0.566
 1343  SOL  HW2 4177   3.334   1.230   0.416
 1344  SOL   OW 4178   1.270   3.203   0.623
 1344  SOL  HW1 4179   1.338   3.264   0.594
 1344  SOL  HW2 4180   1.198   3.217   0.562
 1345  SOL   OW 4181   0.468   0.417   2.475
 1345  SOL  HW1 4182   0.501   0.507   2.476
 1345  SOL  HW2 4183   0.383   0.422   2.518
 1346  SOL   OW 4184   2.703   2.255   0.319
 1346  SOL  HW1 4185   2.752   2.321   0.269
 1346  SOL  HW2 4186   2.646   2.305   0.377
 1347  SOL   OW 4187   3.536   0.125   0.149
 1347  SOL  HW1 4188   3.510   0.040   0.184
 1347  SOL  HW2 4189   3.582   0.104   0.068
 1348  SOL   OW 4190   1.513   0.302   2.413
 1348  SOL  HW1 4191   1.453   0.325   2.484
 1348  SOL  HW2 4192   1.582   0.368   2.419
 1349  SOL   OW 4193   2.222   0.333   1.705
 1349  SOL  HW1 4194   2.298   0.391   1.710
 1349  SOL  HW2 4195   2.256   0.251   1.671
 1350  SOL   OW 4196   0.845   1.073   0.512
 1350  SOL  HW1 4197   0.888   1.139   0.567
 1350  SOL  HW2 4198   0.775   1.121   0.468
 1351  SOL   OW 4199   0.495   0.622   2.928
 1351  SOL  HW1 4200   0.472   0.661   3.013
 1351  SOL  HW2 4201   0.591   0.617   2.929
 1352  SOL   OW 4202   0.906   3.264   0.094
 1352  SOL  HW1 4203   0.909   3.320   0.172
 1352  SOL  HW2 4204   0.998   3.245   0.075
 1353  SOL   OW 4205   1.722   3.175   1.994
 1353  SOL  HW1 4206   1.711   3.093   2.042
 1353  SOL  HW2 4207   1.722   3.243   2.061
 1354  SOL   OW 4208   2.092   2.614   3.621
 1354  SOL  HW1 4209   2.184   2.590   3.614
 1354  SOL  HW2 4210   2.051   2.541   3.667
 1355  SOL   OW 4211   1.156   0.753   1.054
 1355  SOL  HW1 4212   1.178   0.737   0.962
 1355  SOL  HW2 4213   1.061   0.741   1.058
 1356  SOL   OW 4214   1.835   1.533   0.725
 1356  SOL  HW1 4215   1.771   1.568   0.788
 1356  SOL  HW2 4216   1.804   1.563   0.640
 1357  SOL   OW 4217   1.905   0.837   0.196
 1357  SOL  HW1 4218   1.943   0.875   0.275
 1357  SOL  HW2 4219   1.904   0.909   0.132
 1358  SOL   OW 4220   3.719   1.744   2.884
 1358  SOL  HW1 4221   3.718   1.735   2.788
 1358  SOL  HW2 4222   3.699   1.836   2.899
 1359  SOL   OW 4223   2.457   0.730   2.604
 1359  SOL  HW1 4224   2.458   0.753   2.511
 1359  SOL  HW2 4225   2.486   0.639   2.607
 1360  SOL   OW 4226   1.033   0.205   3.529
 1360  SOL  HW1 4227   0.955   0.234   3.482
 1360  SOL  HW2 4228   1.036   0.259   3.608
 1361  SOL   OW 4229   3.484   1.892   0.522
 1361  SOL  HW1 4230   3.454   1.815   0.473
 1361  SOL  HW2 4231   3.421   1.960   0.500
 1362  SOL   OW 4232   3.535   3.405   1.389
 1362  SOL  HW1 4233   3.600   3.430   1.323
 1362  SOL  HW2 4234   3.517   3.313   1.372
 1363  SOL   OW 4235   1.818   2.968   3.110
 1363  SOL  HW1 4236   1.838   2.974   3.203
 1363  SOL  HW2 4237   1.799   2.875   3.095
 1364  SOL   OW 4238   2.750   3.379   2.769
 1364  SOL  HW1 4239   2.715   3.352   2.684
 1364  SOL  HW2 4240   2.812   3.450   2.748
 1365  SOL   OW 4241   0.360   0.841   2.804
 1365  SOL  HW1 4242   0.401   0.755   2.806
 1365  SOL  HW2 4243   0.387   0.883   2.886
 1366  SOL   OW 4244   1.543   2.656   2.993
 1366  SOL  HW1 4245   1.529   2.597   2.919
 1366  SOL  HW2 4246   1.454   2.680   3.021
 1367  SOL   OW 4247   2.644   0.610   2.131
 1367  SOL  HW1 4248   2.623   0.689   2.081
 1367  SOL  HW2 4249   2.706   0.640   2.198
 1368  SOL   OW 4250   1.633   1.851   3.565
 1368  SOL  HW1 4251   1.548   1.853   3.609
 1368  SOL  HW2 4252   1.615   1.881   3.476
 1369  SOL   OW 4253   3.270   1.792   2.899
 1369  SOL  HW1 4254   3.327   1.865   2.922
 1369  SOL  HW2 4255   3.326   1.714   2.909
 1370  SOL   OW 4256   2.593   2.881   2.827
 1370  SOL  HW1 4257   2.671   2.934   2.813
 1370  SOL  HW2 4258   2.531   2.940   2.870
 1371  SOL   OW 4259   0.525   1.404   3.304
 1371  SOL  HW1 4260   0.575   1.392   3.224
 1371  SOL  HW2 4261   0.434   1.390   3.278
 1372  SOL   OW 4262   2.325   2.724   2.126
 1372  SOL  HW1 4263   2.343   2.690   2.214
 1372  SOL  HW2 4264   2.276   2.804   2.141
 1373  SOL   OW 4265   1.667   3.186   0.140
 1373  SOL  HW1 4266   1.581   3.144   0.141
 1373  SOL  HW2 4267   1.658   3.260   0.080
 1374  SOL   OW 4268   1.978   0.401   3.726
 1374  SOL  HW1 4269   1.950   0.354   3.647
 1374  SOL  HW2 4270   2.072   0.414   3.713
 1375  SOL   OW 4271   2.102   3.270   3.687
 1375  SOL  HW1 4272   2.197   3.276   3.680
 1375  SOL  HW2 4273   2.086   3.181   3.719
 1376  SOL   OW 4274   2.320   1.792   2.530
 1376  SOL  HW1 4275   2.322   1.887   2.529
 1376  SOL  HW2 4276   2.354   1.768   2.617
 1377  SOL   OW 4277   0.715   2.632   2.722
 1377  SOL  HW1 4278   0.736   2.547   2.684
 1377  SOL  HW2 4279   0.687   2.686   2.648
 1378  SOL   OW 4280   2.598   0.753   0.191
 1378  SOL  HW1 4281   2.585   0.804   0.111
 1378  SOL  HW2 4282   2.626   0.667   0.160
 1379  SOL   OW 4283   2.083   3.719   0.216
 1379  SOL  HW1 4284   2.070   3.626   0.230
 1379  SOL  HW2 4285   2.030   3.740   0.139
 1380  SOL   OW 4286   3.143   2.553   3.613
 1380  SOL  HW1 4287   3.220   2.595   3.651
 1380  SOL  HW2 4288   3.168   2.533   3.523
 1381  SOL   OW 4289   0.751   2.971   0.530
 1381  SOL  HW1 4290   0.717   2.953   0.443
 1381  SOL  HW2 4291   0.680   3.016   0.575
 1382  SOL   OW 4292   1.465   1.429   3.332
 1382  SOL  HW1 4293   1.386   1.457   3.284
 1382  SOL  HW2 4294   1.502   1.360   3.278
 1383  SOL   OW 4295   0.202   1.430   2.803
 1383  SOL  HW1 4296   0.236   1.427   2.714
 1383  SOL  HW2 4297   0.255   1.366   2.851
 1384  SOL   OW 4298   0.947   2.051   0.780
 1384  SOL  HW1 4299   0.971   2.143   0.783
 1384  SOL  HW2 4300   0.900   2.036   0.862
 1385  SOL   OW 4301   0.833   3.591   2.350
 1385  SOL  HW1 4302   0.773   3.645   2.299
 1385  SOL  HW2 4303   0.829   3.505   2.308
 1386  SOL   OW 4304   3.186   3.143   0.504
 1386  SOL  HW1 4305   3.110   3.109   0.551
 1386  SOL  HW2 4306   3.195   3.085   0.428
 1387  SOL   OW 4307   2.970   1.720   1.849
 1387  SOL  HW1 4308   2.976   1.633   1.888
 1387  SOL  HW2 4309   3.061   1.751   1.845
 1388  SOL   OW 4310   2.260   0.372   3.684
 1388  SOL  HW1 4311   2.272   0.303   3.750
 1388  SOL  HW2 4312   2.290   0.332   3.602
 1389  SOL   OW 4313   2.290   2.492   2.823
 1389  SOL  HW1 4314   2.376   2.523   2.853
 1389  SOL  HW2 4315   2.239   2.571   2.809
 1390  SOL   OW 4316   1.046   0.416  -0.027
 1390  SOL  HW1 4317   1.141   0.409  -0.025
 1390  SOL  HW2 4318   1.022   0.450   0.060
 1391  SOL   OW 4319   1.932   1.267   0.759
 1391  SOL  HW1 4320   1.849   1.219   0.758
 1391  SOL  HW2 4321   1.906   1.359   0.752
 1392  SOL   OW 4322   1.310   1.906   3.081
 1392  SOL  HW1 4323   1.384   1.845   3.088
 1392  SOL  HW2 4324   1.314   1.939   2.991
 1393  SOL   OW 4325   1.214   2.497   1.070
 1393  SOL  HW1 4326   1.156   2.481   1.145
 1393  SOL  HW2 4327   1.265   2.574   1.096
 1394  SOL   OW 4328   1.708   3.251   2.872
 1394  SOL  HW1 4329   1.622   3.281   2.842
 1394  SOL  HW2 4330   1.768   3.276   2.801
 1395  SOL   OW 4331   0.245   1.576   0.513
 1395  SOL  HW1 4332   0.178   1.590   0.447
 1395  SOL  HW2 4333   0.239   1.483   0.534
 1396  SOL   OW 4334   2.417   0.613   1.978
 1396  SOL  HW1 4335   2.423   0.631   1.884
 1396  SOL  HW2 4336   2.486   0.549   1.995
 1397  SOL   OW 4337   0.810   1.619   0.103
 1397  SOL  HW1 4338   0.726   1.579   0.083
 1397  SOL  HW2 4339   0.842   1.652   0.019
 1398  SOL   OW 4340   2.429   0.488   2.385
 1398  SOL  HW1 4341   2.407   0.404   2.346
 1398  SOL  HW2 4342   2.479   0.534   2.317
 1399  SOL   OW 4343   3.701   3.732   1.835
 1399  SOL  HW1 4344   3.732   3.669   1.900
 1399  SOL  HW2 4345   3.636   3.684   1.784
 1400  SOL   OW 4346   0.859   1.377   1.154
 1400  SOL  HW1 4347   0.871   1.394   1.248
 1400  SOL  HW2 4348   0.816   1.456   1.120
 1401  SOL   OW 4349   0.901   3.319   3.401
 1401  SOL  HW1 4350   0.845   3.273   3.339
 1401  SOL  HW2 4351   0.843   3.381   3.445
 1402  SOL   OW 4352   3.537   0.351   1.748
 1402  SOL  HW1 4353   3.490   0.399   1.679
 1402  SOL  HW2 4354   3.592   0.288   1.701
 1403  SOL   OW 4355   0.137   0.170   0.655
 1403  SOL  HW1 4356   0.145   0.123   0.572
 1403  SOL  HW2 4357   0.114   0.260   0.631
 1404  SOL   OW 4358   0.028   1.933   0.461
 1404  SOL  HW1 4359   0.074   1.968   0.537
 1404  SOL  HW2 4360  -0.064   1.933   0.487
 1405  SOL   OW 4361   2.552   3.165   2.305
 1405  SOL  HW1 4362   2.590   3.079   2.286
 1405  SOL  HW2 4363   2.600   3.225   2.248
 1406  SOL   OW 4364   3.388   1.101   1.141
 1406  SOL  HW1 4365   3.370   1.029   1.201
 1406  SOL  HW2 4366   3.370   1.065   1.054
 1407  SOL   OW 4367   2.375   2.148   0.483
 1407  SOL  HW1 4368   2.379   2.058   0.516
 1407  SOL  HW2 4369   2.389   2.202   0.560
 1408  SOL   OW 4370   0.579   0.655   0.738
 1408  SOL  HW1 4371   0.619   0.736   0.708
 1408  SOL  HW2 4372   0.604   0.590   0.673
 1409  SOL   OW 4373   1.948   0.257   3.237
 1409  SOL  HW1 4374   2.033   0.297   3.255
 1409  SOL  HW2 4375   1.885   0.316   3.277
 1410  SOL   OW 4376   2.877   0.839   3.686
 1410  SOL  HW1 4377   2.928   0.836   3.767
 1410  SOL  HW2 4378   2.789   0.864   3.715
 1411  SOL   OW 4379   0.590   3.355   0.203
 1411  SOL  HW1 4380   0.534   3.425   0.237
 1411  SOL  HW2 4381   0.653   3.339   0.273
 1412  SOL   OW 4382   1.623   2.048   0.537
 1412  SOL  HW1 4383   1.715   2.061   0.561
 1412  SOL  HW2 4384   1.593   2.135   0.511
 1413  SOL   OW 4385   1.028   0.937   0.358
 1413  SOL  HW1 4386   0.973   0.978   0.425
 1413  SOL  HW2 4387   1.094   0.888   0.407
 1414  SOL   OW 4388   3.603   2.290   0.079
 1414  SOL  HW1 4389   3.525   2.346   0.081
 1414  SOL  HW2 4390   3.597   2.239   0.160
 1415  SOL   OW 4391   0.504   0.662   1.595
 1415  SOL  HW1 4392   0.469   0.642   1.682
 1415  SOL  HW2 4393   0.428   0.682   1.541
 1416  SOL   OW 4394   0.617   3.333   0.752
 1416  SOL  HW1 4395   0.595   3.303   0.840
 1416  SOL  HW2 4396   0.586   3.265   0.693
 1417  SOL   OW 4397   2.790   1.813   2.145
 1417  SOL  HW1 4398   2.860   1.815   2.080
 1417  SOL  HW2 4399   2.745   1.730   2.129
 1418  SOL   OW 4400   0.231   2.031   1.978
 1418  SOL  HW1 4401   0.137   2.019   1.962
 1418  SOL  HW2 4402   0.273   1.962   1.927
 1419  SOL   OW 4403   1.899   0.756   2.495
 1419  SOL  HW1 4404   1.952   0.831   2.523
 1419  SOL  HW2 4405   1.887   0.770   2.401
 1420  SOL   OW 4406   2.057   3.579   1.456
 1420  SOL  HW1 4407   2.145   3.555   1.426
 1420  SOL  HW2 4408   1.999   3.523   1.405
 1421  SOL   OW 4409   0.671   3.215   2.745
 1421  SOL  HW1 4410   0.672   3.298   2.698
 1421  SOL  HW2 4411   0.684   3.239   2.837
 1422  SOL   OW 4412   1.979   3.070   1.950
 1422  SOL  HW1 4413   1.914   3.140   1.946
 1422  SOL  HW2 4414   1.966   3.021   1.868
 1423  SOL   OW 4415   3.529   0.855   1.165
 1423  SOL  HW1 4416   3.568   0.873   1.250
 1423  SOL  HW2 4417   3.592   0.799   1.120
 1424  SOL   OW 4418   0.611   2.284   2.591
 1424  SOL  HW1 4419   0.556   2.211   2.565
 1424  SOL  HW2 4420   0.556   2.361   2.579
 1425  SOL   OW 4421   2.813   2.976   2.680
 1425  SOL  HW1 4422   2.834   2.883   2.677
 1425  SOL  HW2 4423   2.882   3.017   2.627
 1426  SOL   OW 4424   2.915   0.050   3.494
 1426  SOL  HW1 4425   2.834   0.004   3.472
 1426  SOL  HW2 4426   2.961   0.060   3.411
 1427  SOL   OW 4427   2.457   1.994   1.151
 1427  SOL  HW1 4428   2.401   2.058   1.108
 1427  SOL  HW2 4429   2.541   2.000   1.105
 1428  SOL   OW 4430   1.754   1.462   0.007
 1428  SOL  HW1 4431   1.713   1.430   0.087
 1428  SOL  HW2 4432   1.848   1.460   0.026
 1429  SOL   OW 4433   0.016   2.289   1.189
 1429  SOL  HW1 4434   0.026   2.212   1.244
 1429  SOL  HW2 4435   0.106   2.315   1.167
 1430  SOL   OW 4436   0.993   2.207   2.749
 1430  SOL  HW1 4437   0.921   2.268   2.740
 1430  SOL  HW2 4438   1.023   2.218   2.840
 1431  SOL   OW 4439   1.210   1.235   3.377
 1431  SOL  HW1 4440   1.199   1.321   3.417
 1431  SOL  HW2 4441   1.245   1.180   3.446
 1432  SOL   OW 4442   1.892   2.981   0.652
 1432  SOL  HW1 4443   1.823   3.040   0.681
 1432  SOL  HW2 4444   1.849   2.925   0.587
 1433  SOL   OW 4445   2.201   2.077   3.566
 1433  SOL  HW1 4446   2.155   2.055   3.485
 1433  SOL  HW2 4447   2.275   2.015   3.569
 1434  SOL   OW 4448   2.103   2.746   0.124
 1434  SOL  HW1 4449   2.175   2.705   0.171
 1434  SOL  HW2 4450   2.110   2.712   0.035
 1435  SOL   OW 4451   2.540   0.443   1.523
 1435  SOL  HW1 4452   2.444   0.449   1.517
 1435  SOL  HW2 4453   2.561   0.486   1.606
 1436  SOL   OW 4454   0.881   3.322   1.065
 1436  SOL  HW1 4455   0.921   3.310   0.979
 1436  SOL  HW2 4456   0.887   3.416   1.082
 1437  SOL   OW 4457   3.441   1.799   2.227
 1437  SOL  HW1 4458   3.508   1.749   2.180
 1437  SOL  HW2 4459   3.440   1.884   2.183
 1438  SOL   OW 4460   3.170   1.266   1.548
 1438  SOL  HW1 4461   3.266   1.265   1.553
 1438  SOL  HW2 4462   3.146   1.356   1.567
 1439  SOL   OW 4463   1.292   2.152   1.572
 1439  SOL  HW1 4464   1.260   2.169   1.661
 1439  SOL  HW2 4465   1.386   2.139   1.581
 1440  SOL   OW 4466   3.715   1.675   2.289
 1440  SOL  HW1 4467   3.732   1.660   2.196
 1440  SOL  HW2 4468   3.649   1.609   2.312
 1441  SOL   OW 4469   1.143   3.207   3.264
 1441  SOL  HW1 4470   1.237   3.218   3.279
 1441  SOL  HW2 4471   1.102   3.271   3.322
 1442  SOL   OW 4472   2.246   1.189   2.272
 1442  SOL  HW1 4473   2.306   1.139   2.217
 1442  SOL  HW2 4474   2.164   1.139   2.271
 1443  SOL   OW 4475   3.709   0.722   2.570
 1443  SOL  HW1 4476   3.675   0.640   2.535
 1443  SOL  HW2 4477   3.651   0.744   2.642
 1444  SOL   OW 4478   1.189   3.328   1.111
 1444  SOL  HW1 4479   1.140   3.283   1.180
 1444  SOL  HW2 4480   1.262   3.370   1.157
 1445  SOL   OW 4481   0.444   3.381   1.475
 1445  SOL  HW1 4482   0.473   3.292   1.455
 1445  SOL  HW2 4483   0.390   3.372   1.553
 1446  SOL   OW 4484   1.559   0.041   2.976
 1446  SOL  HW1 4485   1.546   0.129   3.010
 1446  SOL  HW2 4486   1.491  -0.012   3.018
 1447  SOL   OW 4487   2.790   2.941   3.545
 1447  SOL  HW1 4488   2.722   2.874   3.543
 1447  SOL  HW2 4489   2.803   2.966   3.454
 1448  SOL   OW 4490   3.466   0.737   3.608
 1448  SOL  HW1 4491   3.452   0.820   3.653
 1448  SOL  HW2 4492   3.509   0.682   3.673
 1449  SOL   OW 4493   3.296   2.638   0.888
 1449  SOL  HW1 4494   3.385   2.635   0.922
 1449  SOL  HW2 4495   3.299   2.703   0.818
 1450  SOL   OW 4496   0.058   2.057   3.107
 1450  SOL  HW1 4497   0.025   2.094   3.026
 1450  SOL  HW2 4498   0.134   2.110   3.130
 1451  SOL   OW 4499   0.901   1.361   2.111
 1451  SOL  HW1 4500   0.851   1.442   2.112
 1451  SOL  HW2 4501   0.923   1.348   2.018
 1452  SOL   OW 4502   0.290   1.494   2.547
 1452  SOL  HW1 4503   0.346   1.569   2.567
 1452  SOL  HW2 4504   0.202   1.530   2.543
 1453  SOL   OW 4505   1.335   1.088   1.621
 1453  SOL  HW1 4506   1.264   1.070   1.682
 1453  SOL  HW2 4507   1.354   1.004   1.579
 1454  SOL   OW 4508   0.882   0.042   1.110
 1454  SOL  HW1 4509   0.806   0.056   1.053
 1454  SOL  HW2 4510   0.958   0.050   1.052
 1455  SOL   OW 4511   3.335   0.920   0.075
 1455  SOL  HW1 4512   3.353   1.011   0.100
 1455  SOL  HW2 4513   3.294   0.927  -0.011
 1456  SOL   OW 4514   1.847   2.374   1.890
 1456  SOL  HW1 4515   1.842   2.280   1.907
 1456  SOL  HW2 4516   1.919   2.404   1.946
 1457  SOL   OW 4517   3.217   1.820   1.723
 1457  SOL  HW1 4518   3.296   1.804   1.671
 1457  SOL  HW2 4519   3.210   1.915   1.729
 1458  SOL   OW 4520   2.521   3.321   0.526
 1458  SOL  HW1 4521   2.603   3.330   0.575
 1458  SOL  HW2 4522   2.460   3.281   0.588
 1459  SOL   OW 4523   3.003   2.524   2.238
 1459  SOL  HW1 4524   3.099   2.530   2.240
 1459  SOL  HW2 4525   2.981   2.468   2.312
 1460  SOL   OW 4526   0.206   3.647   2.945
 1460  SOL  HW1 4527   0.195   3.552   2.936
 1460  SOL  HW2 4528   0.222   3.677   2.856
 1461  SOL   OW 4529   0.499   3.565   2.843
 1461  SOL  HW1 4530   0.425   3.618   2.872
 1461  SOL  HW2 4531   0.489   3.482   2.889
 1462  SOL   OW 4532   0.943   1.052   2.124
 1462  SOL  HW1 4533   0.878   1.065   2.055
 1462  SOL  HW2 4534   0.905   1.094   2.201
 1463  SOL   OW 4535   2.654   0.507   3.686
 1463  SOL  HW1 4536   2.719   0.447   3.649
 1463  SOL  HW2 4537   2.571   0.479   3.647
 1464  SOL   OW 4538   1.506   3.054   3.570
 1464  SOL  HW1 4539   1.466   2.970   3.549
 1464  SOL  HW2 4540   1.452   3.089   3.641
 1465  SOL   OW 4541   0.222   1.105   2.717
 1465  SOL  HW1 4542   0.215   1.095   2.622
 1465  SOL  HW2 4543   0.244   1.017   2.748
 1466  SOL   OW 4544   1.689   3.692   0.493
 1466  SOL  HW1 4545   1.719   3.601   0.500
 1466  SOL  HW2 4546   1.759   3.744   0.532
 1467  SOL   OW 4547   1.149   2.650   0.391
 1467  SOL  HW1 4548   1.068   2.654   0.441
 1467  SOL  HW2 4549   1.143   2.723   0.329
 1468  SOL   OW 4550   1.755   2.767   1.385
 1468  SOL  HW1 4551   1.822   2.703   1.411
 1468  SOL  HW2 4552   1.672   2.726   1.411
 1469  SOL   OW 4553   3.425   2.057   2.123
 1469  SOL  HW1 4554   3.490   2.080   2.189
 1469  SOL  HW2 4555   3.346   2.103   2.150
 1470  SOL   OW 4556   3.186   3.421   1.696
 1470  SOL  HW1 4557   3.106   3.469   1.673
 1470  SOL  HW2 4558   3.208   3.371   1.617
 1471  SOL   OW 4559   2.541   2.063   2.879
 1471  SOL  HW1 4560   2.591   2.035   2.955
 1471  SOL  HW2 4561   2.463   2.008   2.880
 1472  SOL   OW 4562   0.637   0.182   2.501
 1472  SOL  HW1 4563   0.581   0.258   2.482
 1472  SOL  HW2 4564   0.596   0.139   2.576
 1473  SOL   OW 4565   2.807   2.739   2.897
 1473  SOL  HW1 4566   2.728   2.762   2.849
 1473  SOL  HW2 4567   2.853   2.678   2.840
 1474  SOL   OW 4568   0.127   2.847   1.165
 1474  SOL  HW1 4569   0.195   2.887   1.219
 1474  SOL  HW2 4570   0.125   2.755   1.192
 1475  SOL   OW 4571   1.696   2.808   2.390
 1475  SOL  HW1 4572   1.694   2.734   2.450
 1475  SOL  HW2 4573   1.716   2.883   2.446
 1476  SOL   OW 4574   1.506   1.268   2.975
 1476  SOL  HW1 4575   1.501   1.238   3.065
 1476  SOL  HW2 4576   1.516   1.363   2.982
 1477  SOL   OW 4577   0.100   3.224   1.053
 1477  SOL  HW1 4578   0.085   3.262   0.967
 1477  SOL  HW2 4579   0.191   3.243   1.073
 1478  SOL   OW 4580   3.642   3.723   2.978
 1478  SOL  HW1 4581   3.734   3.748   2.968
 1478  SOL  HW2 4582   3.631   3.647   2.921
 1479  SOL   OW 4583   1.623   3.060   1.238
 1479  SOL  HW1 4584   1.642   2.980   1.190
 1479  SOL  HW2 4585   1.614   3.033   1.329
 1480  SOL   OW 4586   0.566   2.927   1.834
 1480  SOL  HW1 4587   0.596   3.009   1.873
 1480  SOL  HW2 4588   0.478   2.947   1.802
 1481  SOL   OW 4589   3.216   3.016   3.043
 1481  SOL  HW1 4590   3.298   3.058   3.015
 1481  SOL  HW2 4591   3.199   3.051   3.130
 1482  SOL   OW 4592   2.051   3.019  -0.001
 1482  SOL  HW1 4593   1.987   3.010  -0.071
 1482  SOL  HW2 4594   2.000   3.012   0.079
 1483  SOL   OW 4595   1.435   0.090   1.513
 1483  SOL  HW1 4596   1.458   0.159   1.575
 1483  SOL  HW2 4597   1.400   0.020   1.568
 1484  SOL   OW 4598   0.979   0.135   2.212
 1484  SOL  HW1 4599   1.055   0.180   2.246
 1484  SOL  HW2 4600   0.911   0.202   2.209
 1485  SOL   OW 4601   2.152   2.702   2.652
 1485  SOL  HW1 4602   2.108   2.754   2.584
 1485  SOL  HW2 4603   2.237   2.680   2.615
 1486  SOL   OW 4604   1.417   0.625   0.528
 1486  SOL  HW1 4605   1.451   0.656   0.445
 1486  SOL  HW2 4606   1.460   0.541   0.543
 1487  SOL   OW 4607   1.724   3.500   3.588
 1487  SOL  HW1 4608   1.793   3.435   3.582
 1487  SOL  HW2 4609   1.647   3.457   3.552
 1488  SOL   OW 4610   3.592   1.552   3.042
 1488  SOL  HW1 4611   3.531   1.530   2.972
 1488  SOL  HW2 4612   3.641   1.627   3.007
 1489  SOL   OW 4613   0.880   0.864   3.666
 1489  SOL  HW1 4614   0.967   0.869   3.705
 1489  SOL  HW2 4615   0.844   0.953   3.676
 1490  SOL   OW 4616   2.769   0.291   3.535
 1490  SOL  HW1 4617   2.780   0.196   3.539
 1490  SOL  HW2 4618   2.743   0.309   3.445
 1491  SOL   OW 4619   0.561   1.864   2.031
 1491  SOL  HW1 4620   0.586   1.827   2.116
 1491  SOL  HW2 4621   0.500   1.801   1.994
 1492  SOL   OW 4622   1.217   2.666   1.849
 1492  SOL  HW1 4623   1.133   2.659   1.895
 1492  SOL  HW2 4624   1.283   2.657   1.918
 1493  SOL   OW 4625   2.936   2.497   0.766
 1493  SOL  HW1 4626   2.879   2.423   0.786
 1493  SOL  HW2 4627   2.929   2.555   0.842
 1494  SOL   OW 4628   0.720   0.779   3.470
 1494  SOL  HW1 4629   0.654   0.737   3.526
 1494  SOL  HW2 4630   0.795   0.793   3.527
 1495  SOL   OW 4631   2.394   2.303   0.697
 1495  SOL  HW1 4632   2.449   2.336   0.769
 1495  SOL  HW2 4633   2.330   2.246   0.740
 1496  SOL   OW 4634   1.259   1.518   0.269
 1496  SOL  HW1 4635   1.346   1.544   0.299
 1496  SOL  HW2 4636   1.214   1.490   0.349
 1497  SOL   OW 4637   1.014   3.493   1.307
 1497  SOL  HW1 4638   1.073   3.474   1.381
 1497  SOL  HW2 4639   0.927   3.493   1.346
 1498  SOL   OW 4640   2.941   1.762   0.120
 1498  SOL  HW1 4641   2.907   1.805   0.199
 1498  SOL  HW2 4642   3.022   1.809   0.100
 1499  SOL   OW 4643   2.279   1.417   3.684
 1499  SOL  HW1 4644   2.355   1.362   3.705
 1499  SOL  HW2 4645   2.286   1.432   3.590
 1500  SOL   OW 4646   2.244   1.064   0.217
 1500  SOL  HW1 4647   2.238   0.989   0.276
 1500  SOL  HW2 4648   2.246   1.140   0.275
 1501  SOL   OW 4649   3.123   3.294   0.786
 1501  SOL  HW1 4650   3.115   3.277   0.880
 1501  SOL  HW2 4651   3.070   3.226   0.745
 1502  SOL   OW 4652   0.961   2.129   1.568
 1502  SOL  HW1 4653   1.002   2.147   1.483
 1502  SOL  HW2 4654   1.020   2.170   1.631
 1503  SOL   OW 4655   1.763   0.859   3.488
 1503  SOL  HW1 4656   1.825   0.880   3.559
 1503  SOL  HW2 4657   1.818   0.820   3.420
 1504  SOL   OW 4658   3.233   1.108   2.762
 1504  SOL  HW1 4659   3.285   1.127   2.840
 1504  SOL  HW2 4660   3.170   1.180   2.756
 1505  SOL   OW 4661   3.333   0.594   3.102
 1505  SOL  HW1 4662   3.306   0.514   3.148
 1505  SOL  HW2 4663   3.307   0.665   3.161
 1506  SOL   OW 4664   2.752   0.753   2.575
 1506  SOL  HW1 4665   2.728   0.661   2.582
 1506  SOL  HW2 4666   2.791   0.774   2.660
 1507  SOL   OW 4667   3.051   3.148   2.841
 1507  SOL  HW1 4668   3.063   3.064   2.885
 1507  SOL  HW2 4669   3.034   3.210   2.912
 1508  SOL   OW 4670   0.409   0.285   1.818
 1508  SOL  HW1 4671   0.381   0.200   1.784
 1508  SOL  HW2 4672   0.357   0.349   1.769
 1509  SOL   OW 4673   2.344   2.652   3.140
 1509  SOL  HW1 4674   2.308   2.728   3.185
 1509  SOL  HW2 4675   2.268   2.610   3.100
 1510  SOL   OW 4676   0.312   3.554   0.958
 1510  SOL  HW1 4677   0.400   3.519   0.963
 1510  SOL  HW2 4678   0.286   3.568   1.049
 1511  SOL   OW 4679   0.200   2.791   0.248
 1511  SOL  HW1 4680   0.216   2.704   0.284
 1511  SOL  HW2 4681   0.129   2.826   0.300
 1512  SOL   OW 4682   2.990   3.339   3.018
 1512  SOL  HW1 4683   2.928   3.410   3.000
 1512  SOL  HW2 4684   3.026   3.359   3.105
 1513  SOL   OW 4685   3.073   1.936   2.776
 1513  SOL  HW1 4686   3.142   1.880   2.811
 1513  SOL  HW2 4687   3.075   1.919   2.681
 1514  SOL   OW 4688   0.208   0.572   2.441
 1514  SOL  HW1 4689   0.262   0.639   2.397
 1514  SOL  HW2 4690   0.230   0.581   2.533
 1515  SOL   OW 4691   2.251   1.097   1.579
 1515  SOL  HW1 4692   2.232   1.173   1.633
 1515  SOL  HW2 4693   2.345   1.102   1.562
 1516  SOL   OW 4694   1.960   2.933   0.290
 1516  SOL  HW1 4695   1.900   2.894   0.355
 1516  SOL  HW2 4696   1.987   2.858   0.236
 1517  SOL   OW 4697   0.181   2.437   1.400
 1517  SOL  HW1 4698   0.205   2.407   1.487
 1517  SOL  HW2 4699   0.173   2.357   1.348
 1518  SOL   OW 4700   3.423   1.208   0.142
 1518  SOL  HW1 4701   3.423   1.245   0.053
 1518  SOL  HW2 4702   3.379   1.274   0.195
 1519  SOL   OW 4703   2.209   3.217   3.208
 1519  SOL  HW1 4704   2.254   3.267   3.277
 1519  SOL  HW2 4705   2.238   3.258   3.127
 1520  SOL   OW 4706   1.339   2.720   0.056
 1520  SOL  HW1 4707   1.366   2.628   0.058
 1520  SOL  HW2 4708   1.417   2.768   0.084
 1521  SOL   OW 4709   0.898   3.653   2.961
 1521  SOL  HW1 4710   0.991   3.654   2.940
 1521  SOL  HW2 4711   0.877   3.743   2.984
 1522  SOL   OW 4712   0.655   0.920   0.644
 1522  SOL  HW1 4713   0.653   0.998   0.700
 1522  SOL  HW2 4714   0.733   0.931   0.590
 1523  SOL   OW 4715   0.587   1.548   1.519
 1523  SOL  HW1 4716   0.622   1.633   1.491
 1523  SOL  HW2 4717   0.575   1.499   1.438
 1524  SOL   OW 4718   1.400   2.364   3.602
 1524  SOL  HW1 4719   1.447   2.281   3.611
 1524  SOL  HW2 4720   1.470   2.429   3.594
 1525  SOL   OW 4721   0.543   1.648   3.442
 1525  SOL  HW1 4722   0.482   1.711   3.404
 1525  SOL  HW2 4723   0.557   1.583   3.374
 1526  SOL   OW 4724   1.015   0.463   2.709
 1526  SOL  HW1 4725   0.981   0.553   2.713
 1526  SOL  HW2 4726   0.969   0.417   2.779
 1527  SOL   OW 4727   3.299   3.052   2.712
 1527  SOL  HW1 4728   3.378   3.095   2.679
 1527  SOL  HW2 4729   3.275   3.103   2.789
 1528  SOL   OW 4730   0.034   2.291   1.920
 1528  SOL  HW1 4731   0.125   2.319   1.931
 1528  SOL  HW2 4732   0.038   2.220   1.856
 1529  SOL   OW 4733   1.091   0.076   0.880
 1529  SOL  HW1 4734   1.172   0.076   0.829
 1529  SOL  HW2 4735   1.099   0.001   0.938
 1530  SOL   OW 4736   2.764   3.561   3.378
 1530  SOL  HW1 4737   2.725   3.492   3.433
 1530  SOL  HW2 4738   2.727   3.545   3.291
 1531  SOL   OW 4739   3.184   0.797   2.747
 1531  SOL  HW1 4740   3.235   0.878   2.749
 1531  SOL  HW2 4741   3.229   0.742   2.682
 1532  SOL   OW 4742   1.517   1.913   2.376
 1532  SOL  HW1 4743   1.489   1.824   2.397
 1532  SOL  HW2 4744   1.435   1.961   2.360
 1533  SOL   OW 4745   2.999   0.524   1.749
 1533  SOL  HW1 4746   3.061   0.595   1.730
 1533  SOL  HW2 4747   2.946   0.517   1.669
 1534  SOL   OW 4748   3.752   1.574   2.574
 1534  SOL  HW1 4749   3.693   1.637   2.533
 1534  SOL  HW2 4750   3.694   1.514   2.621
 1535  SOL   OW 4751   1.051   0.828   2.932
 1535  SOL  HW1 4752   1.129   0.872   2.898
 1535  SOL  HW2 4753   1.082   0.742   2.961
 1536  SOL   OW 4754   3.556   3.155   1.012
 1536  SOL  HW1 4755   3.558   3.065   0.980
 1536  SOL  HW2 4756   3.648   3.176   1.031
 1537  SOL   OW 4757   1.605   2.096   1.551
 1537  SOL  HW1 4758   1.633   2.120   1.462
 1537  SOL  HW2 4759   1.619   2.175   1.602
 1538  SOL   OW 4760   0.389   0.744   0.918
 1538  SOL  HW1 4761   0.373   0.827   0.874
 1538  SOL  HW2 4762   0.443   0.694   0.856
 1539  SOL   OW 4763   2.122   2.315   2.221
 1539  SOL  HW1 4764   2.032   2.294   2.245
 1539  SOL  HW2 4765   2.168   2.231   2.224
 1540  SOL   OW 4766   2.293   3.552   2.769
 1540  SOL  HW1 4767   2.289   3.478   2.709
 1540  SOL  HW2 4768   2.207   3.555   2.810
 1541  SOL   OW 4769   3.656   2.626   1.307
 1541  SOL  HW1 4770   3.593   2.624   1.380
 1541  SOL  HW2 4771   3.642   2.544   1.261
 1542  SOL   OW 4772   1.487   2.665   1.442
 1542  SOL  HW1 4773   1.523   2.585   1.403
 1542  SOL  HW2 4774   1.486   2.647   1.536
 1543  SOL   OW 4775   1.510   3.308   2.542
 1543  SOL  HW1 4776   1.560   3.383   2.511
 1543  SOL  HW2 4777   1.551   3.232   2.500
 1544  SOL   OW 4778   2.775   3.050   0.439
 1544  SOL  HW1 4779   2.777   3.127   0.383
 1544  SOL  HW2 4780   2.754   2.978   0.379
 1545  SOL   OW 4781   2.093   1.270   0.979
 1545  SOL  HW1 4782   2.155   1.340   0.959
 1545  SOL  HW2 4783   2.036   1.266   0.902
 1546  SOL   OW 4784   0.465   1.778   0.191
 1546  SOL  HW1 4785   0.416   1.801   0.270
 1546  SOL  HW2 4786   0.538   1.725   0.223
 1547  SOL   OW 4787   0.434   3.412   3.071
 1547  SOL  HW1 4788   0.413   3.444   3.159
 1547  SOL  HW2 4789   0.353   3.370   3.041
 1548  SOL   OW 4790   1.505   1.596   0.356
 1548  SOL  HW1 4791   1.536   1.528   0.297
 1548  SOL  HW2 4792   1.581   1.618   0.410
 1549  SOL   OW 4793   1.704   1.594   1.659
 1549  SOL  HW1 4794   1.667   1.613   1.745
 1549  SOL  HW2 4795   1.680   1.669   1.605
 1550  SOL   OW 4796   1.219   1.840   1.880
 1550  SOL  HW1 4797   1.148   1.789   1.841
 1550  SOL  HW2 4798   1.192   1.932   1.869
 1551  SOL   OW 4799   2.181   1.369   1.719
 1551  SOL  HW1 4800   2.094   1.400   1.692
 1551  SOL  HW2 4801   2.169   1.345   1.811
 1552  SOL   OW 4802   1.394   2.477   2.282
 1552  SOL  HW1 4803   1.338   2.517   2.349
 1552  SOL  HW2 4804   1.478   2.466   2.326
 1553  SOL   OW 4805   0.220   2.834   0.561
 1553  SOL  HW1 4806   0.161   2.767   0.526
 1553  SOL  HW2 4807   0.231   2.812   0.653
 1554  SOL   OW 4808   0.907   2.762   3.713
 1554  SOL  HW1 4809   0.882   2.839   3.661
 1554  SOL  HW2 4810   0.884   2.687   3.658
 1555  SOL   OW 4811   2.072   2.240   0.134
 1555  SOL  HW1 4812   2.125   2.290   0.072
 1555  SOL  HW2 4813   2.131   2.171   0.166
 1556  SOL   OW 4814   0.838   2.954   2.077
 1556  SOL  HW1 4815   0.919   3.004   2.089
 1556  SOL  HW2 4816   0.797   2.994   2.001
 1557  SOL   OW 4817   2.304   3.319   1.697
 1557  SOL  HW1 4818   2.328   3.250   1.759
 1557  SOL  HW2 4819   2.210   3.311   1.687
 1558  SOL   OW 4820   3.077   1.150   0.381
 1558  SOL  HW1 4821   3.120   1.073   0.417
 1558  SOL  HW2 4822   2.985   1.126   0.377
 1559  SOL   OW 4823   1.806   2.599   0.162
 1559  SOL  HW1 4824   1.788   2.693   0.164
 1559  SOL  HW2 4825   1.743   2.561   0.223
 1560  SOL   OW 4826   2.863   3.373   1.225
 1560  SOL  HW1 4827   2.946   3.418   1.239
 1560  SOL  HW2 4828   2.853   3.370   1.130
 1561  SOL   OW 4829   0.195   1.955   1.648
 1561  SOL  HW1 4830   0.251   1.978   1.574
 1561  SOL  HW2 4831   0.251   1.900   1.704
 1562  SOL   OW 4832   0.644   0.867   0.980
 1562  SOL  HW1 4833   0.644   0.888   0.887
 1562  SOL  HW2 4834   0.561   0.821   0.994
 1563  SOL   OW 4835   0.369   2.744   3.035
 1563  SOL  HW1 4836   0.344   2.820   3.087
 1563  SOL  HW2 4837   0.454   2.767   2.998
 1564  SOL   OW 4838   2.598   2.652   1.732
 1564  SOL  HW1 4839   2.612   2.746   1.718
 1564  SOL  HW2 4840   2.503   2.641   1.726
 1565  SOL   OW 4841   3.712   2.422   2.502
 1565  SOL  HW1 4842   3.636   2.468   2.539
 1565  SOL  HW2 4843   3.678   2.380   2.423
 1566  SOL   OW 4844   1.612   1.394   1.506
 1566  SOL  HW1 4845   1.652   1.460   1.562
 1566  SOL  HW2 4846   1.618   1.313   1.557
 1567  SOL   OW 4847   0.361   2.068   3.264
 1567  SOL  HW1 4848   0.365   2.075   3.169
 1567  SOL  HW2 4849   0.385   1.978   3.283
 1568  SOL   OW 4850   0.717   0.480   1.150
 1568  SOL  HW1 4851   0.629   0.518   1.154
 1568  SOL  HW2 4852   0.707   0.404   1.093
 1569  SOL   OW 4853   3.549   0.762   1.933
 1569  SOL  HW1 4854   3.493   0.801   1.865
 1569  SOL  HW2 4855   3.489   0.709   1.985
 1570  SOL   OW 4856   3.342   2.534   2.386
 1570  SOL  HW1 4857   3.312   2.509   2.298
 1570  SOL  HW2 4858   3.432   2.562   2.373
 1571  SOL   OW 4859   2.499   2.631   2.898
 1571  SOL  HW1 4860   2.530   2.720   2.885
 1571  SOL  HW2 4861   2.442   2.635   2.975
 1572  SOL   OW 4862   2.716   3.377   2.276
 1572  SOL  HW1 4863   2.694   3.462   2.238
 1572  SOL  HW2 4864   2.808   3.363   2.252
 1573  SOL   OW 4865   3.253   1.354   0.291
 1573  SOL  HW1 4866   3.171   1.306   0.296
 1573  SOL  HW2 4867   3.233   1.441   0.326
 1574  SOL   OW 4868   1.037   1.730   2.183
 1574  SOL  HW1 4869   1.037   1.652   2.239
 1574  SOL  HW2 4870   1.121   1.772   2.199
 1575  SOL   OW 4871   2.536   0.913   1.470
 1575  SOL  HW1 4872   2.564   0.920   1.379
 1575  SOL  HW2 4873   2.504   1.001   1.492
 1576  SOL   OW 4874   2.206   1.871   1.659
 1576  SOL  HW1 4875   2.182   1.955   1.619
 1576  SOL  HW2 4876   2.276   1.837   1.604
 1577  SOL   OW 4877   3.012   0.929   0.917
 1577  SOL  HW1 4878   3.009   0.913   1.011
 1577  SOL  HW2 4879   3.019   1.025   0.909
 1578  SOL   OW 4880   2.377   0.296   3.440
 1578  SOL  HW1 4881   2.419   0.346   3.369
 1578  SOL  HW2 4882   2.378   0.205   3.410
 1579  SOL   OW 4883   1.135   1.684   2.781
 1579  SOL  HW1 4884   1.071   1.703   2.850
 1579  SOL  HW2 4885   1.164   1.595   2.799
 1580  SOL   OW 4886   0.645   3.180   0.996
 1580  SOL  HW1 4887   0.728   3.210   1.033
 1580  SOL  HW2 4888   0.670   3.116   0.930
 1581  SOL   OW 4889   1.854   3.685   2.897
 1581  SOL  HW1 4890   1.849   3.777   2.924
 1581  SOL  HW2 4891   1.859   3.689   2.801
 1582  SOL   OW 4892   2.706   1.999   1.046
 1582  SOL  HW1 4893   2.719   2.049   0.965
 1582  SOL  HW2 4894   2.743   2.054   1.115
 1583  SOL   OW 4895   3.532   0.689   3.357
 1583  SOL  HW1 4896   3.521   0.691   3.452
 1583  SOL  HW2 4897   3.620   0.653   3.344
 1584  SOL   OW 4898   2.997   3.486   2.295
 1584  SOL  HW1 4899   3.092   3.479   2.292
 1584  SOL  HW2 4900   2.980   3.580   2.300
 1585  SOL   OW 4901   3.156   1.530   2.682
 1585  SOL  HW1 4902   3.130   1.443   2.712
 1585  SOL  HW2 4903   3.083   1.587   2.707
 1586  SOL   OW 4904   3.350   3.641   0.160
 1586  SOL  HW1 4905   3.284   3.603   0.102
 1586  SOL  HW2 4906   3.317   3.623   0.248
 1587  SOL   OW 4907   0.395   1.155   1.462
 1587  SOL  HW1 4908   0.384   1.196   1.376
 1587  SOL  HW2 4909   0.435   1.224   1.516
 1588  SOL   OW 4910   3.646   0.176   0.984
 1588  SOL  HW1 4911   3.640   0.147   0.893
 1588  SOL  HW2 4912   3.679   0.266   0.978
 1589  SOL   OW 4913   0.757   2.386   3.127
 1589  SOL  HW1 4914   0.727   2.372   3.037
 1589  SOL  HW2 4915   0.775   2.299   3.161
 1590  SOL   OW 4916   3.347   0.637   2.087
 1590  SOL  HW1 4917   3.261   0.630   2.129
 1590  SOL  HW2 4918   3.407   0.661   2.158
 1591  SOL   OW 4919   2.058   2.496   2.040
 1591  SOL  HW1 4920   2.064   2.442   2.119
 1591  SOL  HW2 4921   2.147   2.502   2.007
 1592  SOL   OW 4922   2.482   1.408   0.250
 1592  SOL  HW1 4923   2.541   1.439   0.319
 1592  SOL  HW2 4924   2.395   1.438   0.277
 1593  SOL   OW 4925   0.476   2.779   2.594
 1593  SOL  HW1 4926   0.548   2.835   2.621
 1593  SOL  HW2 4927   0.402   2.807   2.648
 1594  SOL   OW 4928   2.262   0.270   3.123
 1594  SOL  HW1 4929   2.336   0.318   3.087
 1594  SOL  HW2 4930   2.280   0.178   3.102
 1595  SOL   OW 4931   1.169   1.205   3.121
 1595  SOL  HW1 4932   1.077   1.178   3.115
 1595  SOL  HW2 4933   1.189   1.204   3.214
 1596  SOL   OW 4934   3.485   3.331   3.404
 1596  SOL  HW1 4935   3.450   3.319   3.492
 1596  SOL  HW2 4936   3.545   3.257   3.391
 1597  SOL   OW 4937   0.781   0.176   2.756
 1597  SOL  HW1 4938   0.821   0.100   2.712
 1597  SOL  HW2 4939   0.687   0.159   2.751
 1598  SOL   OW 4940   2.357   0.660   3.698
 1598  SOL  HW1 4941   2.342   0.566   3.689
 1598  SOL  HW2 4942   2.420   0.681   3.630
 1599  SOL   OW 4943   2.309   3.536   1.365
 1599  SOL  HW1 4944   2.387   3.498   1.406
 1599  SOL  HW2 4945   2.327   3.630   1.363
 1600  SOL   OW 4946   2.297   0.895   1.955
 1600  SOL  HW1 4947   2.336   0.847   1.882
 1600  SOL  HW2 4948   2.220   0.938   1.917
 1601  SOL   OW 4949   1.865   3.168   2.282
 1601  SOL  HW1 4950   1.855   3.163   2.377
 1601  SOL  HW2 4951   1.831   3.084   2.249
 1602  SOL   OW 4952   1.019   2.374   2.015
 1602  SOL  HW1 4953   0.925   2.377   1.996
 1602  SOL  HW2 4954   1.038   2.456   2.060
 1603  SOL   OW 4955   1.172   1.919   0.268
 1603  SOL  HW1 4956   1.124   1.921   0.351
 1603  SOL  HW2 4957   1.260   1.948   0.290
 1604  SOL   OW 4958   2.081   3.455   1.986
 1604  SOL  HW1 4959   2.083   3.443   1.891
 1604  SOL  HW2 4960   2.167   3.425   2.016
 1605  SOL   OW 4961   2.330   2.523   3.424
 1605  SOL  HW1 4962   2.399   2.505   3.488
 1605  SOL  HW2 4963   2.338   2.452   3.360
 1606  SOL   OW 4964   0.262   2.538   3.188
 1606  SOL  HW1 4965   0.273   2.623   3.145
 1606  SOL  HW2 4966   0.339   2.488   3.163
 1607  SOL   OW 4967   2.284   0.589   2.886
 1607  SOL  HW1 4968   2.243   0.589   2.800
 1607  SOL  HW2 4969   2.361   0.532   2.877
 1608  SOL   OW 4970   1.546   0.658   3.413
 1608  SOL  HW1 4971   1.616   0.720   3.432
 1608  SOL  HW2 4972   1.487   0.666   3.489
 1609  SOL   OW 4973   2.929   1.363   0.233
 1609  SOL  HW1 4974   2.915   1.400   0.320
 1609  SOL  HW2 4975   2.898   1.273   0.240
 1610  SOL   OW 4976   3.264   3.188   3.253
 1610  SOL  HW1 4977   3.224   3.195   3.340
 1610  SOL  HW2 4978   3.266   3.278   3.221
 1611  SOL   OW 4979   0.070   0.657   1.894
 1611  SOL  HW1 4980  -0.002   0.717   1.914
 1611  SOL  HW2 4981   0.068   0.592   1.964
 1612  SOL   OW 4982   1.370   2.713   1.135
 1612  SOL  HW1 4983   1.408   2.717   1.222
 1612  SOL  HW2 4984   1.389   2.799   1.097
 1613  SOL   OW 4985   2.118   2.234   1.242
 1613  SOL  HW1 4986   2.063   2.159   1.266
 1613  SOL  HW2 4987   2.067   2.281   1.176
 1614  SOL   OW 4988   1.047   1.505   2.334
 1614  SOL  HW1 4989   0.980   1.446   2.301
 1614  SOL  HW2 4990   1.119   1.448   2.360
 1615  SOL   OW 4991   0.880   2.657   3.098
 1615  SOL  HW1 4992   0.847   2.570   3.115
 1615  SOL  HW2 4993   0.833   2.714   3.159
 1616  SOL   OW 4994   1.845   2.109   3.480
 1616  SOL  HW1 4995   1.871   2.197   3.453
 1616  SOL  HW2 4996   1.887   2.051   3.417
 1617  SOL   OW 4997   3.663   0.686   0.148
 1617  SOL  HW1 4998   3.729   0.715   0.084
 1617  SOL  HW2 4999   3.678   0.592   0.155
 1618  SOL   OW 5000   1.592   3.414   1.617
 1618  SOL  HW1 5001   1.632   3.478   1.676
 1618  SOL  HW2 5002   1.606   3.451   1.529
 1619  SOL   OW 5003   2.671   2.271   1.716
 1619  SOL  HW1 5004   2.705   2.231   1.797
 1619  SOL  HW2 5005   2.579   2.288   1.735
 1620  SOL   OW 5006   2.776   2.744   0.628
 1620  SOL  HW1 5007   2.739   2.753   0.715
 1620  SOL  HW2 5008   2.825   2.661   0.630
 1621  SOL   OW 5009   1.089   0.133   0.260
 1621  SOL  HW1 5010   1.021   0.183   0.215
 1621  SOL  HW2 5011   1.135   0.087   0.190
 1622  SOL   OW 5012   2.861   1.476   1.397
 1622  SOL  HW1 5013   2.898   1.525   1.324
 1622  SOL  HW2 5014   2.929   1.478   1.465
 1623  SOL   OW 5015   2.825   2.597   1.003
 1623  SOL  HW1 5016   2.744   2.648   0.996
 1623  SOL  HW2 5017   2.804   2.526   1.063
 1624  SOL   OW 5018   1.650   0.566   3.187
 1624  SOL  HW1 5019   1.632   0.615   3.267
 1624  SOL  HW2 5020   1.591   0.604   3.122
 1625  SOL   OW 5021   1.183   2.052   0.644
 1625  SOL  HW1 5022   1.101   2.057   0.693
 1625  SOL  HW2 5023   1.181   2.129   0.586
 1626  SOL   OW 5024   1.438   1.650   2.876
 1626  SOL  HW1 5025   1.358   1.599   2.893
 1626  SOL  HW2 5026   1.412   1.715   2.811
 1627  SOL   OW 5027   1.195   2.239   0.083
 1627  SOL  HW1 5028   1.224   2.316   0.132
 1627  SOL  HW2 5029   1.135   2.194   0.144
 1628  SOL   OW 5030   0.906   3.632   3.306
 1628  SOL  HW1 5031   0.823   3.678   3.303
 1628  SOL  HW2 5032   0.909   3.581   3.225
 1629  SOL   OW 5033   0.154   1.208   0.208
 1629  SOL  HW1 5034   0.206   1.191   0.287
 1629  SOL  HW2 5035   0.068   1.170   0.227
 1630  SOL   OW 5036   1.679   0.516   1.239
 1630  SOL  HW1 5037   1.653   0.606   1.258
 1630  SOL  HW2 5038   1.596   0.468   1.233
 1631  SOL   OW 5039   1.994  -0.006   3.686
 1631  SOL  HW1 5040   1.906  -0.042   3.674
 1631  SOL  HW2 5041   2.002   0.061   3.618
 1632  SOL   OW 5042   2.687   2.276   2.800
 1632  SOL  HW1 5043   2.620   2.211   2.817
 1632  SOL  HW2 5044   2.737   2.282   2.881
 1633  SOL   OW 5045   1.322   3.631   3.548
 1633  SOL  HW1 5046   1.354   3.548   3.512
 1633  SOL  HW2 5047   1.307   3.686   3.472
 1634  SOL   OW 5048   2.351   1.463   0.646
 1634  SOL  HW1 5049   2.425   1.490   0.591
 1634  SOL  HW2 5050   2.390   1.405   0.711
 1635  SOL   OW 5051   3.544   2.699   3.189
 1635  SOL  HW1 5052   3.466   2.669   3.142
 1635  SOL  HW2 5053   3.511   2.755   3.259
 1636  SOL   OW 5054   3.244   0.329   2.321
 1636  SOL  HW1 5055   3.209   0.413   2.291
 1636  SOL  HW2 5056   3.249   0.338   2.416
 1637  SOL   OW 5057   0.772   1.669   2.756
 1637  SOL  HW1 5058   0.848   1.642   2.704
 1637  SOL  HW2 5059   0.795   1.756   2.788
 1638  SOL   OW 5060   2.906   2.434   2.715
 1638  SOL  HW1 5061   2.975   2.394   2.768
 1638  SOL  HW2 5062   2.829   2.380   2.732
 1639  SOL   OW 5063   1.996   0.449   2.418
 1639  SOL  HW1 5064   2.044   0.464   2.337
 1639  SOL  HW2 5065   2.002   0.531   2.466
 1640  SOL   OW 5066   2.333   3.023   2.418
 1640  SOL  HW1 5067   2.400   3.084   2.385
 1640  SOL  HW2 5068   2.376   2.976   2.489
 1641  SOL   OW 5069   2.442   3.547   3.246
 1641  SOL  HW1 5070   2.371   3.522   3.305
 1641  SOL  HW2 5071   2.478   3.463   3.216
 1642  SOL   OW 5072   3.079   2.778   3.164
 1642  SOL  HW1 5073   3.039   2.702   3.123
 1642  SOL  HW2 5074   3.039   2.853   3.119
 1643  SOL   OW 5075   0.178   0.894   0.789
 1643  SOL  HW1 5076   0.097   0.940   0.811
 1643  SOL  HW2 5077   0.247   0.955   0.812
 1644  SOL   OW 5078   1.327   2.844   3.545
 1644  SOL  HW1 5079   1.351   2.773   3.486
 1644  SOL  HW2 5080   1.319   2.803   3.631
 1645  SOL   OW 5081   0.856   2.304   0.429
 1645  SOL  HW1 5082   0.789   2.237   0.435
 1645  SOL  HW2 5083   0.837   2.351   0.348
 1646  SOL   OW 5084   0.484   2.354   3.732
 1646  SOL  HW1 5085   0.547   2.309   3.676
 1646  SOL  HW2 5086   0.415   2.289   3.746
 1647  SOL   OW 5087   2.842   1.344   0.543
 1647  SOL  HW1 5088   2.754   1.352   0.507
 1647  SOL  HW2 5089   2.852   1.250   0.561
 1648  SOL   OW 5090   0.128   0.931   3.747
 1648  SOL  HW1 5091   0.127   0.863   3.679
 1648  SOL  HW2 5092   0.053   0.987   3.726
 1649  SOL   OW 5093   0.758   0.716   1.487
 1649  SOL  HW1 5094   0.668   0.688   1.503
 1649  SOL  HW2 5095   0.772   0.789   1.547
 1650  SOL   OW 5096   0.698   1.441   0.792
 1650  SOL  HW1 5097   0.619   1.441   0.737
 1650  SOL  HW2 5098   0.770   1.447   0.729
 1651  SOL   OW 5099   3.398   1.196   2.490
 1651  SOL  HW1 5100   3.323   1.207   2.431
 1651  SOL  HW2 5101   3.387   1.264   2.557
 1652  SOL   OW 5102   2.065   1.760   2.169
 1652  SOL  HW1 5103   2.007   1.716   2.231
 1652  SOL  HW2 5104   2.048   1.716   2.085
 1653  SOL   OW 5105   1.176   1.266   0.336
 1653  SOL  HW1 5106   1.152   1.328   0.405
 1653  SOL  HW2 5107   1.107   1.275   0.270
 1654  SOL   OW 5108   2.016   0.246   2.123
 1654  SOL  HW1 5109   2.017   0.190   2.046
 1654  SOL  HW2 5110   1.986   0.331   2.091
 1655  SOL   OW 5111   0.256   0.534   1.720
 1655  SOL  HW1 5112   0.209   0.539   1.803
 1655  SOL  HW2 5113   0.186   0.534   1.653
 1656  SOL   OW 5114   1.803   1.952   2.387
 1656  SOL  HW1 5115   1.709   1.959   2.371
 1656  SOL  HW2 5116   1.820   1.858   2.390
 1657  SOL   OW 5117   1.398   3.191   3.372
 1657  SOL  HW1 5118   1.462   3.151   3.314
 1657  SOL  HW2 5119   1.415   3.151   3.458
 1658  SOL   OW 5120   3.087   2.786   0.695
 1658  SOL  HW1 5121   3.064   2.790   0.787
 1658  SOL  HW2 5122   3.069   2.695   0.670
 1659  SOL   OW 5123   1.135   1.551   0.030
 1659  SOL  HW1 5124   1.207   1.507  -0.015
 1659  SOL  HW2 5125   1.168   1.566   0.119
 1660  SOL   OW 5126   1.292   2.911   0.460
 1660  SOL  HW1 5127   1.202   2.879   0.452
 1660  SOL  HW2 5128   1.291   2.968   0.537
 1661  SOL   OW 5129   1.517   0.133   0.367
 1661  SOL  HW1 5130   1.553   0.114   0.280
 1661  SOL  HW2 5131   1.566   0.076   0.426
 1662  SOL   OW 5132   3.117   2.850   2.338
 1662  SOL  HW1 5133   3.110   2.944   2.355
 1662  SOL  HW2 5134   3.027   2.818   2.336
 1663  SOL   OW 5135   0.796   0.713   2.916
 1663  SOL  HW1 5136   0.882   0.749   2.937
 1663  SOL  HW2 5137   0.795   0.711   2.820
 1664  SOL   OW 5138  -0.021   1.233   2.788
 1664  SOL  HW1 5139   0.068   1.203   2.768
 1664  SOL  HW2 5140  -0.024   1.238   2.883
 1665  SOL   OW 5141   1.850   2.280   2.211
 1665  SOL  HW1 5142   1.790   2.256   2.283
 1665  SOL  HW2 5143   1.856   2.200   2.158
 1666  SOL   OW 5144   0.523   1.869   3.619
 1666  SOL  HW1 5145   0.509   1.784   3.578
 1666  SOL  HW2 5146   0.618   1.875   3.630
 1667  SOL   OW 5147   1.356   2.910   3.031
 1667  SOL  HW1 5148   1.303   2.988   3.012
 1667  SOL  HW2 5149   1.406   2.896   2.950
 1668  SOL   OW 5150   1.446   2.863   2.028
 1668  SOL  HW1 5151   1.438   2.813   2.110
 1668  SOL  HW2 5152   1.523   2.917   2.040
 1669  SOL   OW 5153   2.902   1.357   1.811
 1669  SOL  HW1 5154   2.917   1.395   1.898
 1669  SOL  HW2 5155   2.984   1.312   1.791
 1670  SOL   OW 5156   3.303   2.922   1.167
 1670  SOL  HW1 5157   3.311   2.972   1.249
 1670  SOL  HW2 5158   3.236   2.857   1.186
 1671  SOL   OW 5159   0.227   2.305   3.373
 1671  SOL  HW1 5160   0.245   2.378   3.315
 1671  SOL  HW2 5161   0.299   2.244   3.358
 1672  SOL   OW 5162   0.626   0.047   2.264
 1672  SOL  HW1 5163   0.645   0.071   2.355
 1672  SOL  HW2 5164   0.614   0.131   2.219
 1673  SOL   OW 5165   1.039   2.671   2.673
 1673  SOL  HW1 5166   0.966   2.610   2.679
 1673  SOL  HW2 5167   1.061   2.690   2.765
 1674  SOL   OW 5168   2.928   1.765   1.468
 1674  SOL  HW1 5169   2.891   1.735   1.551
 1674  SOL  HW2 5170   2.860   1.820   1.430
 1675  SOL   OW 5171   2.431   0.260   2.052
 1675  SOL  HW1 5172   2.361   0.285   2.112
 1675  SOL  HW2 5173   2.407   0.174   2.020
 1676  SOL   OW 5174   0.063   0.483   1.237
 1676  SOL  HW1 5175   0.089   0.545   1.169
 1676  SOL  HW2 5176  -0.032   0.487   1.238
 1677  SOL   OW 5177   2.264   3.093   0.890
 1677  SOL  HW1 5178   2.300   3.047   0.814
 1677  SOL  HW2 5179   2.186   3.043   0.914
 1678  SOL   OW 5180   2.953   2.077   1.870
 1678  SOL  HW1 5181   2.898   2.004   1.844
 1678  SOL  HW2 5182   2.892   2.142   1.905
 1679  SOL   OW 5183   1.761   1.006   1.019
 1679  SOL  HW1 5184   1.760   1.046   0.932
 1679  SOL  HW2 5185   1.675   1.026   1.055
 1680  SOL   OW 5186   3.040   2.269   0.480
 1680  SOL  HW1 5187   3.059   2.328   0.408
 1680  SOL  HW2 5188   3.127   2.241   0.512
 1681  SOL   OW 5189   2.025   1.569   1.367
 1681  SOL  HW1 5190   1.939   1.602   1.342
 1681  SOL  HW2 5191   2.038   1.492   1.311
 1682  SOL   OW 5192   1.601   2.264   2.317
 1682  SOL  HW1 5193   1.559   2.291   2.235
 1682  SOL  HW2 5194   1.618   2.347   2.363
 1683  SOL   OW 5195   0.847   2.422   2.600
 1683  SOL  HW1 5196   0.777   2.361   2.575
 1683  SOL  HW2 5197   0.860   2.477   2.523
 1684  SOL   OW 5198   0.979   3.629   3.563
 1684  SOL  HW1 5199   0.965   3.636   3.469
 1684  SOL  HW2 5200   0.926   3.699   3.601
 1685  SOL   OW 5201   1.945   2.980   1.390
 1685  SOL  HW1 5202   1.928   3.000   1.298
 1685  SOL  HW2 5203   1.901   2.897   1.405
 1686  SOL   OW 5204   3.051   0.875   2.509
 1686  SOL  HW1 5205   3.131   0.822   2.509
 1686  SOL  HW2 5206   3.013   0.863   2.596
 1687  SOL   OW 5207   2.994   3.089   3.254
 1687  SOL  HW1 5208   3.007   3.182   3.234
 1687  SOL  HW2 5209   2.922   3.063   3.196
 1688  SOL   OW 5210   3.696   0.537   2.961
 1688  SOL  HW1 5211   3.678   0.531   3.055
 1688  SOL  HW2 5212   3.745   0.457   2.941
 1689  SOL   OW 5213   1.342   3.173   2.180
 1689  SOL  HW1 5214   1.342   3.263   2.211
 1689  SOL  HW2 5215   1.301   3.177   2.094
 1690  SOL   OW 5216   2.721   3.675   1.153
 1690  SOL  HW1 5217   2.772   3.621   1.093
 1690  SOL  HW2 5218   2.697   3.616   1.225
 1691  SOL   OW 5219   0.265   3.041   0.155
 1691  SOL  HW1 5220   0.258   2.948   0.176
 1691  SOL  HW2 5221   0.179   3.065   0.121
 1692  SOL   OW 5222   1.678   1.871   1.191
 1692  SOL  HW1 5223   1.633   1.898   1.111
 1692  SOL  HW2 5224   1.700   1.779   1.175
 1693  SOL   OW 5225   2.414   3.135   1.110
 1693  SOL  HW1 5226   2.392   3.091   1.192
 1693  SOL  HW2 5227   2.349   3.103   1.047
 1694  SOL   OW 5228   2.419   1.941   3.694
 1694  SOL  HW1 5229   2.479   1.885   3.645
 1694  SOL  HW2 5230   2.402   1.894   3.775
 1695  SOL   OW 5231   1.695   3.516   2.271
 1695  SOL  HW1 5232   1.786   3.497   2.293
 1695  SOL  HW2 5233   1.683   3.608   2.296
 1696  SOL   OW 5234   1.369   1.296   1.445
 1696  SOL  HW1 5235   1.450   1.338   1.476
 1696  SOL  HW2 5236   1.361   1.218   1.500
 1697  SOL   OW 5237   0.664   3.552   1.850
 1697  SOL  HW1 5238   0.656   3.603   1.770
 1697  SOL  HW2 5239   0.721   3.605   1.907
 1698  SOL   OW 5240   0.192   1.203   2.077
 1698  SOL  HW1 5241   0.179   1.207   2.172
 1698  SOL  HW2 5242   0.182   1.294   2.048
 1699  SOL   OW 5243   2.625   3.061   1.428
 1699  SOL  HW1 5244   2.581   3.145   1.437
 1699  SOL  HW2 5245   2.663   3.063   1.341
 1700  SOL   OW 5246   2.039   3.359   1.667
 1700  SOL  HW1 5247   1.990   3.277   1.665
 1700  SOL  HW2 5248   1.975   3.425   1.641
 1701  SOL   OW 5249   2.981   3.094   1.005
 1701  SOL  HW1 5250   2.953   3.050   0.924
 1701  SOL  HW2 5251   3.073   3.068   1.016
 1702  SOL   OW 5252   0.200   3.303   1.618
 1702  SOL  HW1 5253   0.264   3.321   1.687
 1702  SOL  HW2 5254   0.132   3.369   1.631
 1703  SOL   OW 5255   3.726   1.863   1.422
 1703  SOL  HW1 5256   3.667   1.809   1.475
 1703  SOL  HW2 5257   3.687   1.951   1.426
 1704  SOL   OW 5258   2.050   3.466   0.242
 1704  SOL  HW1 5259   2.035   3.457   0.336
 1704  SOL  HW2 5260   2.028   3.380   0.206
 1705  SOL   OW 5261   1.958   1.010   1.584
 1705  SOL  HW1 5262   2.023   1.068   1.544
 1705  SOL  HW2 5263   1.994   0.922   1.571
 1706  SOL   OW 5264   1.643   0.098   0.129
 1706  SOL  HW1 5265   1.719   0.149   0.155
 1706  SOL  HW2 5266   1.673   0.007   0.127
 1707  SOL   OW 5267   2.633   3.099   0.951
 1707  SOL  HW1 5268   2.671   3.186   0.963
 1707  SOL  HW2 5269   2.550   3.102   0.999
 1708  SOL   OW 5270   0.623   0.913   2.277
 1708  SOL  HW1 5271   0.606   0.981   2.343
 1708  SOL  HW2 5272   0.709   0.879   2.300
 1709  SOL   OW 5273   3.288   0.834   0.828
 1709  SOL  HW1 5274   3.206   0.786   0.843
 1709  SOL  HW2 5275   3.349   0.767   0.798
 1710  SOL   OW 5276   1.375   1.667   2.488
 1710  SOL  HW1 5277   1.397   1.575   2.499
 1710  SOL  HW2 5278   1.280   1.668   2.474
 1711  SOL   OW 5279   1.898   2.523   3.239
 1711  SOL  HW1 5280   1.909   2.443   3.290
 1711  SOL  HW2 5281   1.979   2.571   3.252
 1712  SOL   OW 5282   3.224   0.021   3.248
 1712  SOL  HW1 5283   3.241   0.008   3.154
 1712  SOL  HW2 5284   3.309   0.009   3.290
 1713  SOL   OW 5285   1.806   3.192   1.568
 1713  SOL  HW1 5286   1.824   3.099   1.554
 1713  SOL  HW2 5287   1.859   3.237   1.502
 1714  SOL   OW 5288   1.960   0.163   3.513
 1714  SOL  HW1 5289   1.966   0.186   3.421
 1714  SOL  HW2 5290   1.871   0.128   3.524
 1715  SOL   OW 5291   2.893   0.801   1.935
 1715  SOL  HW1 5292   2.918   0.714   1.968
 1715  SOL  HW2 5293   2.799   0.806   1.951
 1716  SOL   OW 5294   1.284   2.290   0.896
 1716  SOL  HW1 5295   1.365   2.321   0.858
 1716  SOL  HW2 5296   1.249   2.365   0.944
 1717  SOL   OW 5297   1.589   3.567   1.379
 1717  SOL  HW1 5298   1.574   3.657   1.408
 1717  SOL  HW2 5299   1.542   3.560   1.296
 1718  SOL   OW 5300   1.422   2.349   3.059
 1718  SOL  HW1 5301   1.465   2.434   3.071
 1718  SOL  HW2 5302   1.494   2.286   3.060
 1719  SOL   OW 5303   0.716   3.510   0.002
 1719  SOL  HW1 5304   0.802   3.523   0.042
 1719  SOL  HW2 5305   0.669   3.456   0.064
 1720  SOL   OW 5306   2.873   3.581   0.960
 1720  SOL  HW1 5307   2.846   3.492   0.933
 1720  SOL  HW2 5308   2.967   3.574   0.973
 1721  SOL   OW 5309   0.394   2.634   0.999
 1721  SOL  HW1 5310   0.471   2.584   0.973
 1721  SOL  HW2 5311   0.413   2.723   0.970
 1722  SOL   OW 5312   0.908   0.554   0.176
 1722  SOL  HW1 5313   0.833   0.614   0.181
 1722  SOL  HW2 5314   0.973   0.591   0.235
 1723  SOL   OW 5315   0.396   0.046   1.277
 1723  SOL  HW1 5316   0.313   0.089   1.256
 1723  SOL  HW2 5317   0.374  -0.047   1.280
 1724  SOL   OW 5318   1.184   0.254   2.718
 1724  SOL  HW1 5319   1.129   0.331   2.705
 1724  SOL  HW2 5320   1.176   0.234   2.811
 1725  SOL   OW 5321   0.282   1.709   1.000
 1725  SOL  HW1 5322   0.226   1.688   1.075
 1725  SOL  HW2 5323   0.370   1.689   1.029
 1726  SOL   OW 5324   0.698   1.612   3.164
 1726  SOL  HW1 5325   0.607   1.639   3.154
 1726  SOL  HW2 5326   0.746   1.693   3.180
 1727  SOL   OW 5327   2.822   0.675   3.476
 1727  SOL  HW1 5328   2.865   0.699   3.394
 1727  SOL  HW2 5329   2.845   0.746   3.537
 1728  SOL   OW 5330   0.161   1.599   3.422
 1728  SOL  HW1 5331   0.139   1.620   3.512
 1728  SOL  HW2 5332   0.077   1.587   3.378
 1729  SOL   OW 5333   1.400   3.195   2.763
 1729  SOL  HW1 5334   1.432   3.237   2.683
 1729  SOL  HW2 5335   1.468   3.131   2.785
 1730  SOL   OW 5336   1.887   0.810   1.334
 1730  SOL  HW1 5337   1.930   0.763   1.263
 1730  SOL  HW2 5338   1.937   0.789   1.412
 1731  SOL   OW 5339   3.731   3.096   0.042
 1731  SOL  HW1 5340   3.727   3.102   0.137
 1731  SOL  HW2 5341   3.667   3.161   0.011
 1732  SOL   OW 5342   1.233   1.460   3.182
 1732  SOL  HW1 5343   1.214   1.376   3.139
 1732  SOL  HW2 5344   1.149   1.489   3.216
 1733  SOL   OW 5345   3.335   1.711   3.404
 1733  SOL  HW1 5346   3.387   1.728   3.483
 1733  SOL  HW2 5347   3.344   1.617   3.389
 1734  SOL   OW 5348   3.230   3.109  -0.007
 1734  SOL  HW1 5349   3.291   3.067   0.054
 1734  SOL  HW2 5350   3.165   3.041  -0.027
 1735  SOL   OW 5351   1.232   0.645   3.535
 1735  SOL  HW1 5352   1.158   0.585   3.541
 1735  SOL  HW2 5353   1.233   0.692   3.618
 1736  SOL   OW 5354   0.928   0.987   3.149
 1736  SOL  HW1 5355   0.846   0.939   3.165
 1736  SOL  HW2 5356   0.954   0.961   3.060
 1737  SOL   OW 5357  -0.028   2.724   1.922
 1737  SOL  HW1 5358   0.014   2.713   2.008
 1737  SOL  HW2 5359   0.029   2.677   1.861
 1738  SOL   OW 5360   3.642   1.084   2.208
 1738  SOL  HW1 5361   3.655   1.074   2.114
 1738  SOL  HW2 5362   3.685   1.008   2.246
 1739  SOL   OW 5363   3.562   2.129   0.303
 1739  SOL  HW1 5364   3.612   2.049   0.318
 1739  SOL  HW2 5365   3.546   2.164   0.390
 1740  SOL   OW 5366   2.837   2.701   2.613
 1740  SOL  HW1 5367   2.885   2.619   2.624
 1740  SOL  HW2 5368   2.746   2.675   2.605
 1741  SOL   OW 5369   1.779   1.593   1.143
 1741  SOL  HW1 5370   1.857   1.593   1.088
 1741  SOL  HW2 5371   1.771   1.503   1.174
 1742  SOL   OW 5372   1.975   1.947   1.209
 1742  SOL  HW1 5373   2.031   1.898   1.269
 1742  SOL  HW2 5374   1.886   1.926   1.237
 1743  SOL   OW 5375   1.857   3.451   3.034
 1743  SOL  HW1 5376   1.806   3.385   2.987
 1743  SOL  HW2 5377   1.872   3.520   2.970
 1744  SOL   OW 5378   3.365   0.960   3.253
 1744  SOL  HW1 5379   3.449   0.954   3.299
 1744  SOL  HW2 5380   3.313   0.887   3.287
 1745  SOL   OW 5381   0.840   1.739   2.023
 1745  SOL  HW1 5382   0.925   1.730   2.067
 1745  SOL  HW2 5383   0.832   1.833   2.006
 1746  SOL   OW 5384   0.773   1.597   1.014
 1746  SOL  HW1 5385   0.781   1.546   0.933
 1746  SOL  HW2 5386   0.800   1.685   0.989
 1747  SOL   OW 5387   0.155   2.950   0.925
 1747  SOL  HW1 5388   0.250   2.954   0.927
 1747  SOL  HW2 5389   0.130   2.923   1.014
 1748  SOL   OW 5390   1.887   3.369   1.379
 1748  SOL  HW1 5391   1.893   3.367   1.283
 1748  SOL  HW2 5392   1.805   3.415   1.397
 1749  SOL   OW 5393   3.506   3.302   1.645
 1749  SOL  HW1 5394   3.414   3.280   1.659
 1749  SOL  HW2 5395   3.508   3.343   1.558
 1750  SOL   OW 5396   2.171   0.661   2.209
 1750  SOL  HW1 5397   2.180   0.756   2.214
 1750  SOL  HW2 5398   2.228   0.636   2.136
 1751  SOL   OW 5399   0.425   0.181   3.639
 1751  SOL  HW1 5400   0.475   0.263   3.643
 1751  SOL  HW2 5401   0.445   0.136   3.721
 1752  SOL   OW 5402   3.644   3.102   3.299
 1752  SOL  HW1 5403   3.683   3.104   3.212
 1752  SOL  HW2 5404   3.718   3.082   3.357
 1753  SOL   OW 5405   1.917   2.412   2.910
 1753  SOL  HW1 5406   1.919   2.381   2.820
 1753  SOL  HW2 5407   1.945   2.337   2.963
 1754  SOL   OW 5408   1.531   3.417   0.750
 1754  SOL  HW1 5409   1.615   3.435   0.792
 1754  SOL  HW2 5410   1.466   3.457   0.809
 1755  SOL   OW 5411   2.434   0.440   0.620
 1755  SOL  HW1 5412   2.368   0.494   0.664
 1755  SOL  HW2 5413   2.448   0.366   0.679
 1756  SOL   OW 5414   0.224   1.244   0.762
 1756  SOL  HW1 5415   0.169   1.222   0.837
 1756  SOL  HW2 5416   0.181   1.203   0.687
 1757  SOL   OW 5417   0.821   1.847   2.461
 1757  SOL  HW1 5418   0.861   1.768   2.499
 1757  SOL  HW2 5419   0.750   1.814   2.406
 1758  SOL   OW 5420   2.699   3.164   3.307
 1758  SOL  HW1 5421   2.685   3.249   3.266
 1758  SOL  HW2 5422   2.694   3.101   3.234
 1759  SOL   OW 5423   1.520   2.418   0.771
 1759  SOL  HW1 5424   1.611   2.426   0.798
 1759  SOL  HW2 5425   1.484   2.506   0.778
 1760  SOL   OW 5426   2.962   0.152   2.918
 1760  SOL  HW1 5427   2.908   0.154   2.839
 1760  SOL  HW2 5428   3.051   0.167   2.886
 1761  SOL   OW 5429   0.046   3.415   3.171
 1761  SOL  HW1 5430   0.102   3.417   3.094
 1761  SOL  HW2 5431   0.009   3.326   3.171
 1762  SOL   OW 5432   2.802   2.510   1.696
 1762  SOL  HW1 5433   2.728   2.568   1.716
 1762  SOL  HW2 5434   2.776   2.426   1.734
 1763  SOL   OW 5435   2.127   3.649   2.981
 1763  SOL  HW1 5436   2.066   3.722   2.968
 1763  SOL  HW2 5437   2.193   3.683   3.040
 1764  SOL   OW 5438   2.591   2.313   2.396
 1764  SOL  HW1 5439   2.667   2.267   2.363
 1764  SOL  HW2 5440   2.593   2.398   2.353
 1765  SOL   OW 5441   1.891   0.191   2.367
 1765  SOL  HW1 5442   1.913   0.253   2.436
 1765  SOL  HW2 5443   1.955   0.209   2.298
 1766   NA   NA 5444   1.945   0.643   0.084
   3.73100   3.73100   3.73100
