Protein in water
 5433
    0TYR      N    1   1.816   3.548   2.128  0.8581 -0.0950 -0.1779
    0TYR     H1    2   1.804   3.629   2.192 -2.4863 -0.3956 -0.2833
    0TYR     H2    3   1.765   3.465   2.162  0.5189  0.3768  0.4746
    0TYR     H3    4   1.769   3.569   2.038  0.1244 -0.8948  0.0112
    0TYR     CA    5   1.965   3.545   2.103  0.0637 -1.2788  0.1328
    0TYR     HA    6   2.010   3.547   2.201  3.2236  0.6967 -1.1997
    0TYR     CB    7   1.985   3.401   2.054  0.4748  0.8911  0.5653
    0TYR    HB1    8   1.915   3.391   1.968 -1.1482 -0.1512  1.9513
    0TYR    HB2    9   1.950   3.322   2.124  0.7675  0.4598  0.2363
    0TYR     CG   10   2.131   3.381   2.015 -0.1624 -0.5279 -1.4961
    0TYR    CD1   11   2.178   3.410   1.892  0.0972  0.0080 -0.4762
    0TYR    HD1   12   2.105   3.450   1.823 -1.3984 -1.3429  0.2487
    0TYR    CE1   13   2.310   3.393   1.851  0.0424  0.5803 -0.3483
    0TYR    HE1   14   2.338   3.434   1.755  1.4974 -1.0753 -0.6940
    0TYR     CZ   15   2.401   3.334   1.941 -0.2535  0.4860 -0.6157
    0TYR     OH   16   2.544   3.321   1.917 -0.4039 -0.5203 -0.4640
    0TYR     HH   17   2.559   3.313   1.822  4.2105  0.5651 -0.0476
    0TYR    CD2   18   2.221   3.338   2.109 -0.0616  0.1556 -0.3995
    0TYR    HD2   19   2.194   3.308   2.210  4.2182 -1.8256  0.3606
    0TYR    CE2   20   2.358   3.312   2.075 -0.1980 -0.0470  0.3189
    0TYR    HE2   21   2.422   3.270   2.151  0.0828 -0.4609 -0.1365
    0TYR      C   22   2.035   3.661   2.028  0.5710 -0.6482 -0.0684
    0TYR      O   23   1.977   3.732   1.944  0.0685  0.6092 -1.0001
    1TYR      N   24   2.164   3.692   2.061  0.1078  0.6665  0.2271
    1TYR     HN   25   2.219   3.636   2.122 -0.2544  1.5742  1.4133
    1TYR     CA   26   2.239   3.797   1.991 -0.5750 -0.0503 -0.0311
    1TYR     HA   27   2.180   3.847   1.915 -0.5419  1.4427  0.9040
    1TYR     CB   28   2.289   3.907   2.092 -0.2183  0.3334 -0.4262
    1TYR    HB1   29   2.355   3.865   2.171  0.2418  2.2553  0.2694
    1TYR    HB2   30   2.192   3.942   2.134  0.1046 -2.3746  3.0548
    1TYR     CG   31   2.369   4.023   2.023  0.5214 -0.0293  0.0416
    1TYR    CD1   32   2.484   4.071   2.094  0.0763 -0.2008 -0.2188
    1TYR    HD1   33   2.512   4.025   2.187 -1.1965 -2.0530 -0.6696
    1TYR    CE1   34   2.564   4.164   2.033  0.0186 -0.2133 -0.6036
    1TYR    HE1   35   2.657   4.199   2.077  0.4258 -1.4640 -0.4191
    1TYR     CZ   36   2.530   4.229   1.918  0.2378 -0.0321  0.2597
    1TYR     OH   37   2.607   4.334   1.865  0.2340 -0.1431 -0.4073
    1TYR     HH   38   2.546   4.397   1.827  0.7873  2.1894  2.2397
    1TYR    CD2   39   2.340   4.076   1.894  0.4839 -0.3052 -0.8594
    1TYR    HD2   40   2.254   4.047   1.835 -0.6010 -0.9028  0.9284
    1TYR    CE2   41   2.420   4.181   1.847  0.3041 -0.4151 -0.0465
    1TYR    HE2   42   2.392   4.231   1.756  1.6919 -0.1089 -0.3244
    1TYR      C   43   2.363   3.745   1.922  0.4161  0.5294 -0.0544
    1TYR      O   44   2.431   3.671   1.986 -0.5011  0.0861  0.1266
    2ASP      N   45   2.381   3.768   1.789 -0.9436  0.2028  0.3039
    2ASP     HN   46   2.317   3.805   1.722  0.4630  0.4905 -0.9439
    2ASP     CA   47   2.511   3.733   1.738 -0.0825 -0.2854 -0.0730
    2ASP     HA   48   2.553   3.650   1.793 -1.4106  0.1541  1.6967
    2ASP     CB   49   2.505   3.682   1.591  0.1345 -0.6249 -0.1537
    2ASP    HB1   50   2.475   3.765   1.523  0.9583 -0.7894 -0.7202
    2ASP    HB2   51   2.425   3.605   1.585  0.7577 -1.2002 -1.2258
    2ASP     CG   52   2.624   3.606   1.541  0.1582 -1.1218  0.5572
    2ASP    OD1   53   2.741   3.636   1.585  0.1818 -0.5621  0.5195
    2ASP    OD2   54   2.613   3.526   1.446 -0.1969 -0.2353  0.0783
    2ASP      C   55   2.606   3.854   1.750 -0.1974  0.1962  0.5250
    2ASP      O   56   2.585   3.948   1.679 -0.1335 -0.1888 -0.2191
    3CYS      N   57   2.711   3.858   1.839 -0.0044 -0.0248 -0.1724
    3CYS     HN   58   2.717   3.776   1.896  0.6080 -1.4319 -2.1681
    3CYS     CA   59   2.797   3.972   1.881 -1.0140 -0.1708 -0.4582
    3CYS     HA   60   2.729   4.055   1.888  1.9283  2.2096  3.0040
    3CYS     CB   61   2.850   3.962   2.031  0.2441  0.3858  0.2664
    3CYS    HB1   62   2.762   3.953   2.098 -1.5266 -1.1683 -2.0855
    3CYS    HB2   63   2.911   4.052   2.056  3.2906 -1.4876  0.1117
    3CYS     SG   64   2.959   3.814   2.063  0.3951 -0.0770 -0.0661
    3CYS    HG1   65   3.019   3.853   2.174  1.8491  0.0868 -0.8894
    3CYS      C   66   2.906   4.005   1.783  0.2295  0.0020  0.7993
    3CYS      O   67   2.936   4.119   1.757  0.5325  0.1292  0.1840
    4GLU      N   68   2.951   3.894   1.718  0.2194 -1.1656 -0.9046
    4GLU     HN   69   2.909   3.807   1.741 -0.5854 -0.5859 -0.1151
    4GLU     CA   70   3.046   3.893   1.604 -0.0318  0.0211 -0.2564
    4GLU     HA   71   3.113   3.974   1.628 -1.4499  0.2312  3.6756
    4GLU     CB   72   3.118   3.750   1.611  0.1843  0.3075 -0.3801
    4GLU    HB1   73   3.047   3.666   1.601 -0.4671  0.5992  1.4198
    4GLU    HB2   74   3.162   3.743   1.713 -0.7085  1.6119  0.1257
    4GLU     CG   75   3.233   3.730   1.511  0.7644 -0.0240 -0.4720
    4GLU    HG1   76   3.194   3.747   1.408 -0.4207 -1.8782 -0.3946
    4GLU    HG2   77   3.266   3.624   1.513  0.1320 -0.2197  0.0166
    4GLU     CD   78   3.355   3.818   1.530  0.2617 -0.0718 -0.7132
    4GLU    OE1   79   3.368   3.890   1.628 -0.8959  0.1224 -0.5689
    4GLU    OE2   80   3.449   3.797   1.453 -0.0044  0.2025 -0.2993
    4GLU      C   81   2.991   3.937   1.467 -0.2025 -0.3217 -0.3540
    4GLU      O   82   3.052   4.022   1.405  0.3757 -0.2217 -0.9171
    5THR      N   83   2.868   3.894   1.428 -0.1724  0.8151 -0.5047
    5THR     HN   84   2.828   3.814   1.471 -0.8444  1.6378  0.4320
    5THR     CA   85   2.805   3.936   1.303 -0.3392 -0.5929  0.0308
    5THR     HA   86   2.882   3.953   1.229  1.9683 -0.8247  2.2672
    5THR     CB   87   2.695   3.837   1.269 -0.1175  0.2636  0.8475
    5THR     HB   88   2.607   3.845   1.337 -1.8854 -1.9598 -1.0257
    5THR    OG1   89   2.747   3.703   1.273  0.3230  0.2061  0.5327
    5THR    HG1   90   2.693   3.651   1.332 -0.3281  0.8210  0.4996
    5THR    CG2   91   2.640   3.863   1.125 -0.6129  0.2989 -0.2678
    5THR   HG21   92   2.555   3.794   1.105 -0.1053 -0.3216 -0.3244
    5THR   HG22   93   2.721   3.855   1.049 -1.5689  0.9923 -1.3916
    5THR   HG23   94   2.609   3.967   1.100 -1.2390 -0.2160 -1.7065
    5THR      C   95   2.720   4.067   1.328 -0.7101  0.3034 -0.0570
    5THR      O   96   2.721   4.157   1.248 -0.1065 -0.1475  0.4116
    6GLY      N   97   2.656   4.091   1.441 -0.8271 -0.0865 -0.3245
    6GLY     HN   98   2.660   4.022   1.512  1.1585  1.9490  1.7094
    6GLY     CA   99   2.578   4.207   1.469 -0.4833 -0.4049  0.3225
    6GLY    HA1  100   2.617   4.284   1.405  0.0434 -0.2911  0.7732
    6GLY    HA2  101   2.594   4.223   1.575  1.2573 -2.8941  0.5453
    6GLY      C  102   2.434   4.199   1.447 -1.1644  0.2015  0.5098
    6GLY      O  103   2.367   4.294   1.415 -0.0400  0.5783  0.1756
    7THR      N  104   2.386   4.073   1.448  0.8137  0.1885  0.0860
    7THR     HN  105   2.447   3.998   1.471  0.1924 -0.3780 -0.0826
    7THR     CA  106   2.245   4.041   1.421 -0.0943 -0.0672  0.1909
    7THR     HA  107   2.195   4.127   1.379 -1.4877 -1.9025 -2.1197
    7THR     CB  108   2.242   3.921   1.321 -0.5252 -1.1723 -0.5429
    7THR     HB  109   2.268   3.830   1.379  0.7197 -0.3117  0.2880
    7THR    OG1  110   2.348   3.950   1.233  0.6343  0.2029  0.5179
    7THR    HG1  111   2.332   4.038   1.197  2.8024  0.4618  0.0536
    7THR    CG2  112   2.109   3.917   1.244  0.0958  0.7333 -0.3273
    7THR   HG21  113   2.109   3.852   1.154  3.6616  1.1510 -0.7376
    7THR   HG22  114   2.082   4.022   1.220  1.9397  1.0666 -1.1118
    7THR   HG23  115   2.030   3.883   1.315  1.8838 -1.7188  0.6141
    7THR      C  116   2.169   3.989   1.545  1.4463  0.0605  0.1360
    7THR      O  117   2.229   3.910   1.619 -0.0448  0.1142 -0.1656
    8TRP      N  118   2.035   4.025   1.565 -0.9701 -0.3286 -0.2643
    8TRP     HN  119   1.980   4.089   1.511  1.9926  1.8207 -0.9902
    8TRP     CA  120   1.959   3.978   1.679  0.1549 -0.3275 -0.3656
    8TRP     HA  121   2.021   3.937   1.757 -0.1947  0.0136  0.0938
    8TRP     CB  122   1.881   4.090   1.747 -0.5322 -0.6101  0.3025
    8TRP    HB1  123   1.832   4.032   1.828  0.5893 -1.3071  0.5090
    8TRP    HB2  124   1.815   4.135   1.670  1.3054  1.0927 -0.3573
    8TRP     CG  125   1.973   4.190   1.813 -0.4649  0.4052 -0.3173
    8TRP    CD1  126   2.047   4.290   1.761  0.4352  0.7537 -0.7808
    8TRP    HD1  127   2.043   4.310   1.655  0.1915 -2.5941 -1.4848
    8TRP    NE1  128   2.119   4.352   1.856 -0.1284  0.2950 -0.7989
    8TRP    HE1  129   2.180   4.427   1.847 -0.8890  0.9701 -0.4503
    8TRP    CE2  130   2.100   4.287   1.971 -0.0688  0.6333  0.5299
    8TRP    CD2  131   2.010   4.177   1.951 -0.1566 -0.5980 -0.3368
    8TRP    CE3  132   1.982   4.080   2.049  0.0999 -0.3265  0.1310
    8TRP    HE3  133   1.910   4.002   2.036  0.1840 -0.2311 -1.0142
    8TRP    CZ3  134   2.016   4.117   2.182  0.1383  0.5465  0.8871
    8TRP    HZ3  135   1.987   4.059   2.269  1.3709 -0.7887  0.4417
    8TRP    CZ2  136   2.146   4.311   2.098 -0.6034  0.4241  0.0953
    8TRP    HZ2  137   2.201   4.399   2.126  0.6725  0.2415 -1.6925
    8TRP    CH2  138   2.099   4.226   2.203 -0.1768  0.0374  0.2002
    8TRP    HH2  139   2.126   4.255   2.303 -0.8594  1.2990  0.0472
    8TRP      C  140   1.840   3.880   1.649 -0.4693  0.1259 -0.6939
    8TRP      O  141   1.768   3.903   1.550 -0.0103  0.4182 -0.0780
    9TYR      N  142   1.820   3.774   1.732  0.5160  0.5649 -0.6334
    9TYR     HN  143   1.886   3.754   1.804  1.5409  0.9912 -1.4214
    9TYR     CA  144   1.736   3.662   1.694 -0.7985  0.0547 -0.1417
    9TYR     HA  145   1.675   3.690   1.610 -1.2351  3.2760  1.0938
    9TYR     CB  146   1.814   3.536   1.677 -0.0074 -0.5184 -0.0258
    9TYR    HB1  147   1.740   3.456   1.655 -1.3275 -0.2069  2.9206
    9TYR    HB2  148   1.855   3.509   1.777 -1.8545 -0.2854  0.8277
    9TYR     CG  149   1.917   3.529   1.566  0.2571 -0.9825  0.0156
    9TYR    CD1  150   1.889   3.489   1.433 -0.7397 -0.2679 -0.1478
    9TYR    HD1  151   1.794   3.444   1.413  0.8008 -2.8192 -2.3778
    9TYR    CE1  152   1.984   3.496   1.336 -0.0311 -0.3223  0.5721
    9TYR    HE1  153   1.953   3.474   1.235 -0.7168  1.1499  0.4330
    9TYR     CZ  154   2.110   3.562   1.368  0.2109  0.1175  0.2089
    9TYR     OH  155   2.200   3.595   1.274  0.6798 -0.1644  0.1476
    9TYR     HH  156   2.167   3.553   1.194  1.2033  1.0679 -0.7487
    9TYR    CD2  157   2.044   3.586   1.598  1.0528  0.0217 -0.4096
    9TYR    HD2  158   2.055   3.619   1.700 -0.9381 -0.6820  0.0815
    9TYR    CE2  159   2.133   3.608   1.495  0.0018 -0.4258 -0.3143
    9TYR    HE2  160   2.224   3.659   1.521 -0.9817  0.6398  1.2014
    9TYR      C  161   1.638   3.635   1.804 -0.4123  0.2446 -0.0099
    9TYR    OT1  162   1.681   3.574   1.907  0.1549  0.1849  0.2878
    9TYR    OT2  163   1.515   3.673   1.795 -0.5027 -0.3647 -0.2859
   10SOL     OW  164   0.491   1.817   1.049 -0.1343  0.7941  0.0464
   10SOL    HW1  165   0.485   1.889   1.113 -0.8033 -0.2015  1.1539
   10SOL    HW2  166   0.533   1.746   1.097 -1.1895 -0.1760 -0.4200
   11SOL     OW  167   0.515   0.766   2.586 -0.2511  0.4614 -0.4632
   11SOL    HW1  168   0.491   0.796   2.673  0.6739  1.1230 -0.4260
   11SOL    HW2  169   0.443   0.794   2.530 -1.4013 -0.9465  0.2412
   12SOL     OW  170   0.103   0.637   2.189 -0.5216  0.7290  0.3547
   12SOL    HW1  171   0.073   0.705   2.250  0.5401  1.3746  0.1842
   12SOL    HW2  172   0.022   0.600   2.154 -1.1978  3.1456 -0.9082
   13SOL     OW  173   1.216   0.082   0.114 -0.0728  0.3231  0.3287
   13SOL    HW1  174   1.224   0.113   0.023 -1.2306  0.8563  0.3811
   13SOL    HW2  175   1.124   0.058   0.122 -0.5615  2.4317  1.9874
   14SOL     OW  176   1.305   3.123   1.816  0.4138  0.3412 -0.3555
   14SOL    HW1  177   1.357   3.142   1.738 -0.2652  2.1244 -0.4109
   14SOL    HW2  178   1.330   3.033   1.840 -0.6663 -0.9546 -3.6071
   15SOL     OW  179   2.151   0.943   2.084 -0.7799  0.1531  0.3976
   15SOL    HW1  180   2.139   0.900   1.999 -3.1567  1.0790  0.2039
   15SOL    HW2  181   2.135   0.873   2.148  0.2887 -0.3730  0.1104
   16SOL     OW  182   0.192   2.478   2.964  0.0967 -0.2578  0.6811
   16SOL    HW1  183   0.133   2.430   3.022  1.3258 -1.6177  0.8633
   16SOL    HW2  184   0.224   2.412   2.902  0.9023  0.5928  0.1573
   17SOL     OW  185   2.928   1.052   2.423  0.2390  0.2866 -0.1873
   17SOL    HW1  186   2.963   0.975   2.379 -0.4675 -0.6255  0.7972
   17SOL    HW2  187   2.856   1.082   2.367 -1.2013 -1.3599  0.6742
   18SOL     OW  188   0.550   3.385   0.565 -0.3341  0.0343  0.4511
   18SOL    HW1  189   0.462   3.401   0.598  0.5019  1.0902  2.2809
   18SOL    HW2  190   0.569   3.294   0.588 -0.6614  0.0362  0.7260
   19SOL     OW  191   1.319   1.519   3.531 -0.2320 -0.4310 -0.3669
   19SOL    HW1  192   1.381   1.496   3.600  1.8145 -1.8527 -2.5484
   19SOL    HW2  193   1.337   1.612   3.513 -0.5493 -0.1430  0.7363
   20SOL     OW  194   2.512   2.140   0.039  0.0461  0.1868  0.1298
   20SOL    HW1  195   2.588   2.121   0.093  0.6324  2.3448  0.1212
   20SOL    HW2  196   2.540   2.209  -0.020 -1.7615  0.6503 -0.2613
   21SOL     OW  197   2.882   0.532   0.902  0.0000 -0.0585 -0.2211
   21SOL    HW1  198   2.893   0.441   0.874 -0.8976  0.4002 -2.1513
   21SOL    HW2  199   2.798   0.559   0.866  1.5692  2.4439 -2.2973
   22SOL     OW  200   1.134   3.304   0.866 -0.7010 -0.3490  0.3826
   22SOL    HW1  201   1.124   3.304   0.771  1.5445 -0.8617  0.0693
   22SOL    HW2  202   1.168   3.392   0.886 -2.4652  0.2387  0.9245
   23SOL     OW  203   1.456   0.764   1.683 -0.4373 -0.1485 -0.2469
   23SOL    HW1  204   1.547   0.735   1.689  0.6988  2.9069 -0.5800
   23SOL    HW2  205   1.414   0.730   1.762  1.3373 -0.5667  0.5539
   24SOL     OW  206   2.712   1.156   3.676  0.1389  1.2519 -0.2367
   24SOL    HW1  207   2.710   1.151   3.772 -1.9341 -1.0796 -0.3051
   24SOL    HW2  208   2.804   1.142   3.653  0.1513 -2.6816  1.3940
   25SOL     OW  209   2.624   1.392   2.905 -0.0048  0.4465  0.1302
   25SOL    HW1  210   2.675   1.473   2.897 -0.4215  0.6676 -0.2881
   25SOL    HW2  211   2.557   1.412   2.970 -0.2748  0.5200 -0.1727
   26SOL     OW  212   1.641   1.129   2.737  0.3376 -0.0105  1.0314
   26SOL    HW1  213   1.684   1.171   2.662  2.0912 -2.3186  0.5979
   26SOL    HW2  214   1.711   1.080   2.780 -1.2755 -1.4354  2.1925
   27SOL     OW  215   0.369   0.480   2.765  0.3573 -0.0392  0.0182
   27SOL    HW1  216   0.342   0.566   2.798  1.0915  0.3005 -0.2308
   27SOL    HW2  217   0.465   0.481   2.772  0.4080 -0.6411 -0.4749
   28SOL     OW  218   1.024   1.373   1.202 -0.2535 -0.0451 -0.5174
   28SOL    HW1  219   0.991   1.329   1.123 -2.1714 -0.7917  0.6232
   28SOL    HW2  220   1.114   1.343   1.210 -0.4809 -1.1164 -1.6100
   29SOL     OW  221   0.361   3.226   1.014 -0.0382 -0.5635  0.2860
   29SOL    HW1  222   0.336   3.134   1.011  0.3750 -0.6544 -0.6383
   29SOL    HW2  223   0.310   3.262   1.086 -1.5198 -1.1160 -0.4441
   30SOL     OW  224   3.460   3.344   0.314  0.0318 -0.4929 -1.2181
   30SOL    HW1  225   3.537   3.386   0.276  2.0310 -2.3203  0.5229
   30SOL    HW2  226   3.429   3.284   0.246  1.2645 -1.0220 -1.3372
   31SOL     OW  227   1.960   1.777   3.338  0.0673  0.0253 -0.0088
   31SOL    HW1  228   1.982   1.686   3.317  0.8248  0.0882  0.4449
   31SOL    HW2  229   2.034   1.827   3.303  0.1230  0.3661  0.5848
   32SOL     OW  230   1.123   2.421   0.693  0.0135  0.7993 -0.1492
   32SOL    HW1  231   1.205   2.470   0.697  0.4112  0.0816  2.8995
   32SOL    HW2  232   1.146   2.333   0.721 -1.8571  0.7450  1.4223
   33SOL     OW  233   1.028   0.389   2.531  0.3418  0.4906  0.1111
   33SOL    HW1  234   1.010   0.460   2.594 -0.4652  1.3306 -1.0278
   33SOL    HW2  235   0.947   0.379   2.482 -0.1637 -2.4233  1.3234
   34SOL     OW  236   2.615   0.952   2.719 -0.1589 -0.1771  0.4242
   34SOL    HW1  237   2.692   0.946   2.776  0.6673  0.2570 -0.6090
   34SOL    HW2  238   2.629   0.884   2.652 -0.8366 -0.3087  0.4094
   35SOL     OW  239   0.345   1.034   1.548  0.3306  0.1903 -0.3591
   35SOL    HW1  240   0.353   1.054   1.641 -0.9640 -1.6203  0.1936
   35SOL    HW2  241   0.350   0.939   1.544 -1.4324  0.1221 -1.9351
   36SOL     OW  242   0.951   0.571   3.220 -0.6566 -0.4137  0.8245
   36SOL    HW1  243   1.020   0.585   3.284 -0.0989 -0.3233  0.2145
   36SOL    HW2  244   0.997   0.555   3.138 -1.3534 -0.7762  0.4912
   37SOL     OW  245   3.009   1.131   1.187  0.8108 -0.2371 -0.4557
   37SOL    HW1  246   3.050   1.217   1.191  2.7452 -1.1243  0.0145
   37SOL    HW2  247   3.065   1.082   1.126 -1.1510 -0.7296 -1.9414
   38SOL     OW  248   0.300   0.714   3.507  0.4540 -0.1037 -0.0898
   38SOL    HW1  249   0.356   0.775   3.459  0.1160 -0.4409 -0.9301
   38SOL    HW2  250   0.275   0.761   3.587 -0.3188  1.1009 -1.0136
   39SOL     OW  251   0.450   1.510   1.421 -0.0123  0.0114  0.1785
   39SOL    HW1  252   0.486   1.468   1.343 -0.2687  0.5199 -0.2193
   39SOL    HW2  253   0.476   1.453   1.493  1.1564  0.0961 -0.1520
   40SOL     OW  254   0.429   0.017   2.009 -0.4357 -0.1128  0.2772
   40SOL    HW1  255   0.511  -0.030   1.995  0.5808  1.7943 -0.4893
   40SOL    HW2  256   0.391   0.026   1.921 -0.1242  1.2942  0.2613
   41SOL     OW  257   0.932   0.529   1.271 -0.8886 -0.5662 -0.5599
   41SOL    HW1  258   0.873   0.587   1.319 -0.2700 -0.0372 -0.4255
   41SOL    HW2  259   0.972   0.475   1.339  0.5677  0.7048 -0.3538
   42SOL     OW  260   2.067   0.440   3.558  0.3235  0.7833  0.0032
   42SOL    HW1  261   2.034   0.351   3.570  2.4340  0.0742  0.9975
   42SOL    HW2  262   2.000   0.483   3.505 -1.1021 -1.1648  0.1099
   43SOL     OW  263   3.207   2.657   3.061  0.2520 -0.3075 -0.1904
   43SOL    HW1  264   3.287   2.642   3.011  0.6467 -0.5509  0.5077
   43SOL    HW2  265   3.223   2.739   3.108  0.5135 -0.8863  0.7566
   44SOL     OW  266   2.988   0.104   2.963 -0.7362 -0.4726  0.1829
   44SOL    HW1  267   3.069   0.113   2.912 -1.3511  0.4980 -0.6708
   44SOL    HW2  268   2.919   0.095   2.897 -1.5680  0.8632  0.8085
   45SOL     OW  269   1.731   1.880   2.993  0.3706  0.0989 -0.3463
   45SOL    HW1  270   1.686   1.959   2.964 -0.1816 -0.4156 -0.9090
   45SOL    HW2  271   1.662   1.815   3.002  0.6829 -0.0874  1.0004
   46SOL     OW  272   2.488   3.123   3.305 -0.1000  0.3916 -0.2734
   46SOL    HW1  273   2.575   3.138   3.268  0.3548 -0.2616  0.5010
   46SOL    HW2  274   2.488   3.171   3.388  1.0805 -2.9190  1.8203
   47SOL     OW  275   3.035   0.902   0.757 -1.0011 -0.2288 -0.3370
   47SOL    HW1  276   3.010   0.983   0.712  0.8876  1.0919  0.8632
   47SOL    HW2  277   3.093   0.857   0.696  0.5290  0.9315  0.2293
   48SOL     OW  278   1.735   2.112   0.496 -0.4743 -0.3287  0.0692
   48SOL    HW1  279   1.646   2.091   0.524 -0.0121  0.1336  2.1066
   48SOL    HW2  280   1.789   2.091   0.572  0.9720  0.7157 -0.6233
   49SOL     OW  281   3.475   3.541   3.560 -0.2049  0.6064  0.8453
   49SOL    HW1  282   3.519   3.622   3.584  1.4027 -0.5770  2.1318
   49SOL    HW2  283   3.524   3.509   3.484 -0.5045  0.5614  0.6678
   50SOL     OW  284   1.808   0.960   2.145  0.6336  0.5244 -0.8144
   50SOL    HW1  285   1.849   0.879   2.113  1.2790  0.9481 -1.0949
   50SOL    HW2  286   1.720   0.959   2.107  1.0634  0.5570 -1.8542
   51SOL     OW  287   2.695   2.074   3.180  0.0851  0.0381  0.9000
   51SOL    HW1  288   2.678   2.096   3.272 -0.9109  0.1458  0.7050
   51SOL    HW2  289   2.748   2.146   3.147 -0.8301  0.7864  0.9988
   52SOL     OW  290   2.007   2.174   2.198  0.4116  0.5650 -0.6203
   52SOL    HW1  291   2.094   2.136   2.202  0.8662  1.3105 -2.2937
   52SOL    HW2  292   1.954   2.111   2.149  0.5619  1.0033 -1.3694
   53SOL     OW  293   1.510   0.618   2.556  0.0554  0.4916 -0.5333
   53SOL    HW1  294   1.554   0.634   2.472 -2.6798  1.0190 -2.0258
   53SOL    HW2  295   1.508   0.704   2.598  1.6775  0.1723  0.2546
   54SOL     OW  296   3.489   2.459   1.349  0.3112 -0.0649 -0.0857
   54SOL    HW1  297   3.472   2.552   1.331 -1.3017 -0.2666  0.2390
   54SOL    HW2  298   3.581   2.446   1.323  0.6391  1.6619  0.0717
   55SOL     OW  299   1.422   0.326   2.153 -0.0761  0.1362 -0.3460
   55SOL    HW1  300   1.443   0.238   2.122 -1.3743 -0.1772 -0.3982
   55SOL    HW2  301   1.392   0.373   2.075  0.9633  0.7572 -0.3908
   56SOL     OW  302   0.349   1.121   1.143  0.2941  0.4264 -0.3662
   56SOL    HW1  303   0.425   1.073   1.175 -0.3120  0.6393  1.4930
   56SOL    HW2  304   0.319   1.172   1.218 -0.0391  2.5103 -1.8309
   57SOL     OW  305   3.387   1.293   0.939 -0.0825 -0.2713 -0.4875
   57SOL    HW1  306   3.463   1.237   0.922 -0.2888 -0.7441  0.1022
   57SOL    HW2  307   3.317   1.233   0.961 -0.7307  0.1507 -1.3544
   58SOL     OW  308   0.761   1.944   3.594  0.7188 -0.3627  0.2160
   58SOL    HW1  309   0.811   1.867   3.566 -1.0292 -1.3167 -0.3867
   58SOL    HW2  310   0.694   1.910   3.653 -0.8450  0.4886 -0.9800
   59SOL     OW  311   3.050   0.287   2.348 -0.6003 -0.4888  0.7196
   59SOL    HW1  312   3.133   0.287   2.395  0.2215 -0.0967 -0.6574
   59SOL    HW2  313   3.049   0.371   2.302 -0.2223 -1.7495 -1.7979
   60SOL     OW  314   0.729   0.285   1.222 -0.4308 -0.5310 -0.3237
   60SOL    HW1  315   0.700   0.202   1.184 -1.9029 -0.5337  0.6957
   60SOL    HW2  316   0.731   0.346   1.149  0.2578 -1.3670 -1.0129
   61SOL     OW  317   0.469   0.092   1.225  0.3331 -0.4891  0.8087
   61SOL    HW1  318   0.556   0.065   1.197  0.6155 -0.4161  1.5775
   61SOL    HW2  319   0.425   0.010   1.247 -0.2303 -0.6310 -0.7391
   62SOL     OW  320   1.282   2.287   2.300 -0.1347  0.0810  0.4086
   62SOL    HW1  321   1.225   2.219   2.336  0.6424 -1.1405 -0.5393
   62SOL    HW2  322   1.296   2.260   2.209 -2.7212  3.4782 -1.2248
   63SOL     OW  323   2.993   1.645   2.685  0.2498 -0.1355 -0.4701
   63SOL    HW1  324   2.989   1.707   2.612 -1.2393  0.0783 -0.2471
   63SOL    HW2  325   3.033   1.694   2.756  0.8678 -0.0512 -0.8746
   64SOL     OW  326   1.056   3.229   1.298 -0.6670  0.0838 -0.6443
   64SOL    HW1  327   1.035   3.295   1.231  3.1931  1.7845 -0.4436
   64SOL    HW2  328   1.045   3.275   1.381 -0.7843 -0.4936 -0.3376
   65SOL     OW  329   3.605   3.733   3.170 -0.1465  0.2212  0.6802
   65SOL    HW1  330   3.694   3.706   3.191 -0.0043  0.4455  0.3755
   65SOL    HW2  331   3.562   3.653   3.138  0.0184  0.1667  0.5968
   66SOL     OW  332   3.596   2.279   0.223 -0.4982  0.7183  0.4517
   66SOL    HW1  333   3.531   2.211   0.241  1.3702 -0.9050  1.3802
   66SOL    HW2  334   3.594   2.288   0.127 -0.4225 -1.0569  0.2489
   67SOL     OW  335   0.937   2.743   3.363  0.6136 -0.0380 -0.6344
   67SOL    HW1  336   0.895   2.686   3.299 -0.4447  0.0128  0.0028
   67SOL    HW2  337   0.865   2.781   3.412  1.4018  0.1693  0.3841
   68SOL     OW  338   2.992   1.164   3.696  0.0260 -0.2085 -0.2298
   68SOL    HW1  339   2.990   1.249   3.741  0.7501 -0.0189 -0.5437
   68SOL    HW2  340   3.070   1.121   3.732 -0.3258 -0.7291 -0.0936
   69SOL     OW  341   3.254   1.834   2.153 -0.8166 -0.6897 -0.0103
   69SOL    HW1  342   3.288   1.821   2.065  0.6490  1.7135  0.1233
   69SOL    HW2  343   3.180   1.773   2.159  0.5139 -2.6560 -2.0061
   70SOL     OW  344   2.672   0.491   0.317 -0.1829 -0.0011  0.2940
   70SOL    HW1  345   2.662   0.477   0.411 -1.0213 -0.2119  0.1772
   70SOL    HW2  346   2.677   0.586   0.307  0.5628  0.0039  0.6029
   71SOL     OW  347   1.294   1.862   0.416 -1.1193  0.4568  1.1550
   71SOL    HW1  348   1.340   1.912   0.483  0.2324  1.7182 -0.6328
   71SOL    HW2  349   1.364   1.818   0.367 -2.0078  0.2793  0.0193
   72SOL     OW  350   0.491   2.365   3.605 -0.5971  0.2527  0.8818
   72SOL    HW1  351   0.463   2.301   3.540  1.1518 -1.7065  1.9068
   72SOL    HW2  352   0.580   2.389   3.578  0.2826 -0.8390  2.6248
   73SOL     OW  353   1.311   3.372   1.570  0.1079 -0.1466 -0.1958
   73SOL    HW1  354   1.346   3.420   1.646 -0.6265 -1.0386  0.7281
   73SOL    HW2  355   1.388   3.356   1.515  1.1058 -1.6127  1.5305
   74SOL     OW  356   0.645   0.329   3.472  0.1405  0.4809 -0.2471
   74SOL    HW1  357   0.597   0.246   3.477  1.2424 -0.1942 -0.4589
   74SOL    HW2  358   0.584   0.390   3.431  0.0778 -0.8260 -2.2027
   75SOL     OW  359   0.424   3.546   1.290 -0.2396 -0.5729  0.6097
   75SOL    HW1  360   0.360   3.498   1.238  0.3875 -2.0694  1.1599
   75SOL    HW2  361   0.507   3.502   1.273  0.6975  1.3723 -0.1518
   76SOL     OW  362   1.753   3.549   2.460  0.5324  0.1161  0.1224
   76SOL    HW1  363   1.757   3.610   2.534 -0.5024 -0.2627  0.5121
   76SOL    HW2  364   1.665   3.560   2.425  1.1495  0.5945 -1.3346
   77SOL     OW  365   3.600   2.248   0.792 -0.2647  0.5213  0.5848
   77SOL    HW1  366   3.510   2.236   0.822  0.2337 -1.5133  1.4556
   77SOL    HW2  367   3.591   2.295   0.709 -2.1371  0.3389  0.6347
   78SOL     OW  368   3.049   1.759   0.810 -0.1727 -0.2714  0.1192
   78SOL    HW1  369   3.026   1.842   0.770 -0.0542  1.0756  2.6213
   78SOL    HW2  370   3.003   1.693   0.758 -1.2429  1.4507 -1.2147
   79SOL     OW  371   1.050   1.271   0.951 -0.6673 -0.6267  0.0219
   79SOL    HW1  372   1.136   1.307   0.932 -1.1776  0.6209 -0.0638
   79SOL    HW2  373   1.059   1.177   0.938  1.0166 -0.6939  1.3112
   80SOL     OW  374   2.533   0.443   0.088  0.1587  0.8521  0.0205
   80SOL    HW1  375   2.591   0.464   0.162 -0.5641  1.2499  0.4883
   80SOL    HW2  376   2.457   0.401   0.128 -0.8043  2.1738 -0.3399
   81SOL     OW  377   1.876   3.325   3.505 -0.4038 -0.5297 -0.2028
   81SOL    HW1  378   1.916   3.288   3.427  1.9709 -0.4806  0.9190
   81SOL    HW2  379   1.939   3.389   3.537 -1.6006 -0.0883  1.4207
   82SOL     OW  380   0.379   1.593   0.397 -0.0472  0.2987  0.1299
   82SOL    HW1  381   0.402   1.583   0.489 -2.6671 -2.8338  0.6779
   82SOL    HW2  382   0.362   1.503   0.367 -2.5636  1.4385 -2.3941
   83SOL     OW  383   2.350   3.175   0.536 -0.2232 -0.6660 -0.0138
   83SOL    HW1  384   2.418   3.160   0.602  1.4694 -0.4751 -1.6348
   83SOL    HW2  385   2.336   3.270   0.538 -0.1306 -0.6529  0.0399
   84SOL     OW  386   1.354   1.677   0.729  0.0930  0.2788 -0.4613
   84SOL    HW1  387   1.345   1.688   0.824 -2.0048  0.9792 -0.6705
   84SOL    HW2  388   1.446   1.697   0.711  1.1150 -2.0419  1.6501
   85SOL     OW  389   1.706   1.474   0.827 -0.2634 -0.3109  0.1525
   85SOL    HW1  390   1.671   1.506   0.910 -0.9680 -1.2023  0.2176
   85SOL    HW2  391   1.664   1.389   0.815  1.8388 -1.4270  0.2037
   86SOL     OW  392   3.369   2.999   0.671 -0.3473  0.2346  0.5185
   86SOL    HW1  393   3.360   2.941   0.747 -2.5614 -1.7610 -1.1266
   86SOL    HW2  394   3.319   3.077   0.695 -1.5792 -0.6419  0.9044
   87SOL     OW  395   0.587   1.599   1.158  0.2610  0.1436  0.9613
   87SOL    HW1  396   0.536   1.529   1.118 -1.2492  0.8696  1.5691
   87SOL    HW2  397   0.626   1.559   1.236  1.7099 -0.7588 -0.1716
   88SOL     OW  398   0.585   3.020   3.409  0.6517 -0.2606 -0.3987
   88SOL    HW1  399   0.601   2.928   3.432 -0.4723 -0.9975 -2.2699
   88SOL    HW2  400   0.525   3.015   3.334  0.0762  2.0283 -0.1612
   89SOL     OW  401   1.432   2.237   1.274 -0.0545  0.5205  0.5167
   89SOL    HW1  402   1.435   2.311   1.214  0.4665 -0.3346 -0.5405
   89SOL    HW2  403   1.514   2.190   1.258  0.3035  0.5096  2.2239
   90SOL     OW  404   0.777   2.641   1.938  0.4683 -0.8344  0.6061
   90SOL    HW1  405   0.736   2.556   1.953 -1.3833 -0.7496 -3.0141
   90SOL    HW2  406   0.865   2.620   1.906 -0.7747 -1.6548 -2.6088
   91SOL     OW  407   0.289   1.529   2.468  0.2901 -0.3201 -0.2259
   91SOL    HW1  408   0.196   1.520   2.448  0.7998  0.0003 -3.2868
   91SOL    HW2  409   0.333   1.504   2.387  3.0458 -2.9123  1.8484
   92SOL     OW  410   0.004   0.897   3.110 -0.4494 -0.0115 -0.0240
   92SOL    HW1  411  -0.059   0.967   3.095  1.2493  1.6169  0.1371
   92SOL    HW2  412   0.089   0.939   3.101  0.6867 -1.3391  3.1171
   93SOL     OW  413   2.130   0.487   0.767  0.5887 -0.0431  0.8348
   93SOL    HW1  414   2.107   0.409   0.818  1.6151 -0.6759  0.3562
   93SOL    HW2  415   2.184   0.540   0.826  2.5696 -1.2155  0.1598
   94SOL     OW  416   1.163   1.020   3.418 -0.3847  0.0415 -0.1688
   94SOL    HW1  417   1.141   0.934   3.454 -0.5997  0.0480 -0.2798
   94SOL    HW2  418   1.125   1.019   3.330 -2.7262  1.2018  0.7388
   95SOL     OW  419   3.562   0.370   2.326 -0.6764 -0.4143 -0.3858
   95SOL    HW1  420   3.620   0.423   2.381 -1.7724 -1.6695  2.1046
   95SOL    HW2  421   3.564   0.283   2.365 -4.3824 -0.4675  0.0416
   96SOL     OW  422   0.882   0.420   3.535  0.5010  0.6549 -0.6717
   96SOL    HW1  423   0.802   0.384   3.499  1.3005 -0.6049 -1.2356
   96SOL    HW2  424   0.947   0.410   3.466  1.3128  1.0444  0.0065
   97SOL     OW  425   3.546   3.116   1.838  1.0160  0.0298  0.5031
   97SOL    HW1  426   3.501   3.090   1.919 -1.1760 -0.3401 -0.7352
   97SOL    HW2  427   3.483   3.174   1.794  0.9803 -1.8029 -2.1065
   98SOL     OW  428   3.418   0.252   2.746  0.4697  0.6098 -0.3594
   98SOL    HW1  429   3.478   0.205   2.688 -0.8399 -0.1831 -1.1195
   98SOL    HW2  430   3.444   0.344   2.739  1.2493  0.3388 -1.0824
   99SOL     OW  431   1.606   3.141   0.382 -0.1089  0.3942  0.2337
   99SOL    HW1  432   1.688   3.190   0.385  0.8418 -1.1168  0.0329
   99SOL    HW2  433   1.631   3.055   0.349 -1.8369 -0.0094 -0.1276
  100SOL     OW  434   2.951   0.224   3.492  0.1269 -0.1630  0.2177
  100SOL    HW1  435   2.942   0.130   3.507 -2.2075  0.0340  0.4153
  100SOL    HW2  436   2.938   0.236   3.398  0.8220 -0.0755  0.1315
  101SOL     OW  437   2.603   1.945   0.357  0.0319  0.1241  0.1445
  101SOL    HW1  438   2.651   1.990   0.288 -0.5661  2.0261  0.9139
  101SOL    HW2  439   2.516   1.930   0.320  0.0536  0.1261  0.0925
  102SOL     OW  440   3.668   1.143   1.277  0.0577  0.2140 -0.1413
  102SOL    HW1  441   3.759   1.166   1.260  0.3278 -0.8266 -0.1977
  102SOL    HW2  442   3.646   1.080   1.208  0.0881 -1.4178  1.2674
  103SOL     OW  443   3.364   2.937   1.054 -0.1743  0.0025  0.5596
  103SOL    HW1  444   3.357   2.969   1.144  0.9944  4.1384 -0.6161
  103SOL    HW2  445   3.320   3.003   1.001  1.5789 -0.8346 -2.1272
  104SOL     OW  446   1.733   1.430   1.533  0.3936 -0.7106 -0.4334
  104SOL    HW1  447   1.713   1.490   1.461 -2.7427 -1.3192 -0.2296
  104SOL    HW2  448   1.756   1.347   1.490  2.0586 -0.1670 -0.6806
  105SOL     OW  449   0.742   0.034   2.009 -0.5066 -0.4700  0.1452
  105SOL    HW1  450   0.736   0.128   1.994 -2.6169 -0.5099  0.3179
  105SOL    HW2  451   0.743   0.025   2.104 -0.7249 -0.6245  0.1344
  106SOL     OW  452   2.752   1.702   0.299 -0.3708 -0.1475 -0.3225
  106SOL    HW1  453   2.734   1.611   0.276  0.0970 -0.5095  0.7061
  106SOL    HW2  454   2.669   1.747   0.282 -1.3474 -1.2076  1.3499
  107SOL     OW  455   3.657   3.140   3.676  0.0201  0.2374  1.0274
  107SOL    HW1  456   3.685   3.060   3.719  1.5424 -0.2934 -0.7889
  107SOL    HW2  457   3.624   3.111   3.591 -0.1867  1.4753  0.6671
  108SOL     OW  458   1.085   3.133   0.243 -0.3239  0.3361 -0.1574
  108SOL    HW1  459   1.062   3.210   0.191 -1.3342 -1.1212 -2.0683
  108SOL    HW2  460   1.180   3.131   0.244 -0.2880  0.9190 -1.2102
  109SOL     OW  461   1.625   1.871   1.519  0.2023 -0.6530 -0.3526
  109SOL    HW1  462   1.717   1.862   1.495  0.9880  0.6179  1.8537
  109SOL    HW2  463   1.618   1.959   1.557 -1.4386 -1.4448  1.3786
  110SOL     OW  464   1.318   0.766   0.702  0.4526 -0.2014  0.3969
  110SOL    HW1  465   1.325   0.696   0.767  1.6703 -0.6979 -0.2447
  110SOL    HW2  466   1.308   0.721   0.618  0.2657  0.4128  0.0824
  111SOL     OW  467   0.113   1.795   2.938  0.4960  0.0851  0.4648
  111SOL    HW1  468   0.056   1.818   3.011  1.4230  0.3284  1.1353
  111SOL    HW2  469   0.197   1.837   2.959  1.1934 -1.0015 -0.0224
  112SOL     OW  470   1.986   3.132   3.309 -0.3659 -0.8940  0.7505
  112SOL    HW1  471   2.005   3.062   3.247  1.7175 -0.4795  0.8401
  112SOL    HW2  472   1.994   3.091   3.395 -1.6519 -1.0902  0.8010
  113SOL     OW  473   2.006   1.763   2.235 -0.7051 -0.3801  0.0227
  113SOL    HW1  474   1.997   1.678   2.192  0.9470  0.0433 -1.2484
  113SOL    HW2  475   1.987   1.745   2.327 -2.9301 -1.5984 -0.6046
  114SOL     OW  476   3.555   2.162   3.069 -0.5646  0.0597 -0.1222
  114SOL    HW1  477   3.529   2.090   3.011 -0.9892 -0.4685  0.7024
  114SOL    HW2  478   3.489   2.161   3.139  1.0302 -0.5859  1.4282
  115SOL     OW  479   2.042   2.815   0.684  0.0254 -0.6354  0.4034
  115SOL    HW1  480   2.081   2.732   0.709 -0.5804 -0.5503  1.6873
  115SOL    HW2  481   1.959   2.792   0.643 -0.5796 -0.6350  1.6081
  116SOL     OW  482   1.257   1.616   2.093  0.2346 -0.1720  0.3544
  116SOL    HW1  483   1.245   1.529   2.132 -0.6880  0.3184  1.2097
  116SOL    HW2  484   1.339   1.648   2.129 -1.0569  0.6664  2.7504
  117SOL     OW  485   2.649   3.224   0.736  0.5222 -0.0102  0.1317
  117SOL    HW1  486   2.654   3.274   0.817 -0.3094 -0.0984  0.2454
  117SOL    HW2  487   2.584   3.156   0.753 -0.5262  0.6555 -0.9626
  118SOL     OW  488   1.546   3.347   1.865 -0.0608  0.2387 -0.9131
  118SOL    HW1  489   1.615   3.414   1.866 -0.9344  1.2506  2.3096
  118SOL    HW2  490   1.467   3.395   1.840 -0.7605  0.6368  1.7569
  119SOL     OW  491   3.018   2.239   3.467 -0.2198  0.7456  0.3043
  119SOL    HW1  492   3.111   2.229   3.483  0.2852  0.7423 -2.1573
  119SOL    HW2  493   2.997   2.327   3.498  1.0352  1.4069 -0.6296
  120SOL     OW  494   1.479   1.888   1.873  0.8235 -0.5015 -0.7984
  120SOL    HW1  495   1.515   1.800   1.869 -2.1852 -1.9298  0.1095
  120SOL    HW2  496   1.431   1.898   1.791  0.1291 -0.2328 -0.3749
  121SOL     OW  497   2.189   1.532   1.990 -0.1054 -0.6211 -0.1942
  121SOL    HW1  498   2.235   1.459   2.031 -0.5463 -1.6375 -1.4308
  121SOL    HW2  499   2.188   1.510   1.896  3.2673  2.8638 -1.3274
  122SOL     OW  500   3.548   2.747   3.691  0.1453 -0.2125  0.4872
  122SOL    HW1  501   3.577   2.670   3.739 -0.8748 -0.6282  0.4520
  122SOL    HW2  502   3.496   2.797   3.754 -1.1935 -0.7560 -0.1530
  123SOL     OW  503   2.116   3.670   0.457 -0.2344 -0.0812  0.2724
  123SOL    HW1  504   2.049   3.615   0.497  1.0681 -1.3477  0.7971
  123SOL    HW2  505   2.093   3.672   0.364 -1.6754  0.5422  0.6072
  124SOL     OW  506   1.948   0.005   0.681  0.2936 -0.2167  0.2864
  124SOL    HW1  507   1.918  -0.059   0.615  1.1431 -0.7111  0.3595
  124SOL    HW2  508   1.908   0.087   0.654  0.1467 -0.5368 -0.5134
  125SOL     OW  509   3.588   1.088   0.325 -0.1576 -0.3573 -0.1282
  125SOL    HW1  510   3.669   1.138   0.324 -1.2333  1.6602 -3.2341
  125SOL    HW2  511   3.522   1.150   0.355 -0.7477 -1.7360  1.5777
  126SOL     OW  512   1.449   0.171   0.301 -0.7711  0.1970  0.3528
  126SOL    HW1  513   1.484   0.088   0.335 -0.6352  0.2731  0.4031
  126SOL    HW2  514   1.373   0.146   0.249  0.3488 -0.1364 -1.1721
  127SOL     OW  515   0.584   2.750   0.969 -0.1308  0.0332  0.6639
  127SOL    HW1  516   0.550   2.828   1.014 -0.0697  0.5277 -0.1333
  127SOL    HW2  517   0.675   2.771   0.951 -0.2636  0.0092 -0.0538
  128SOL     OW  518   2.263   0.967   0.885 -0.5118  0.8168 -0.2269
  128SOL    HW1  519   2.322   0.940   0.814  1.2279  1.4822  0.9158
  128SOL    HW2  520   2.249   1.060   0.871 -3.2322  0.2886 -1.7994
  129SOL     OW  521   2.213   1.213   0.842 -0.3131  0.2812 -0.3845
  129SOL    HW1  522   2.252   1.251   0.763 -1.1141  3.0176  0.4145
  129SOL    HW2  523   2.125   1.188   0.816  0.5731 -2.3195 -1.2081
  130SOL     OW  524   1.940   3.386   2.407 -0.0592 -0.2970 -0.2684
  130SOL    HW1  525   1.867   3.436   2.442 -0.0796 -0.9485  0.6705
  130SOL    HW2  526   1.905   3.297   2.399  0.8263 -0.7649  0.8655
  131SOL     OW  527   0.798   2.235   1.113  0.5574  0.4249 -0.0882
  131SOL    HW1  528   0.852   2.255   1.036 -1.2109  1.4880 -1.1027
  131SOL    HW2  529   0.857   2.248   1.187  2.2850 -0.5194 -1.2161
  132SOL     OW  530   3.747   1.260   3.255  0.5348 -0.5290 -0.4514
  132SOL    HW1  531   3.723   1.349   3.227  0.3420 -0.2136  0.6780
  132SOL    HW2  532   3.690   1.203   3.203  0.2934  0.0246 -0.8112
  133SOL     OW  533   0.281   2.945   1.298  0.1156  0.1321 -0.4143
  133SOL    HW1  534   0.269   2.942   1.203 -1.5965  3.6706 -0.4381
  133SOL    HW2  535   0.352   3.008   1.311 -0.5126  0.6360  0.6837
  134SOL     OW  536   1.513   1.350   2.440 -0.4977 -0.6818 -0.0315
  134SOL    HW1  537   1.536   1.441   2.424 -2.8141  0.1762  1.0459
  134SOL    HW2  538   1.590   1.300   2.414  1.5795  1.6942  1.2035
  135SOL     OW  539   3.772   3.182   0.304 -0.4213  0.5930 -0.8829
  135SOL    HW1  540   3.696   3.238   0.319  0.0029  1.2355 -1.1263
  135SOL    HW2  541   3.737   3.110   0.251 -1.4042 -0.4604  1.0706
  136SOL     OW  542   0.211   0.211   1.258 -0.2970  1.1469 -0.9509
  136SOL    HW1  543   0.294   0.237   1.297  0.5651 -0.3695 -1.6884
  136SOL    HW2  544   0.235   0.149   1.189 -2.0349  0.7769 -1.2730
  137SOL     OW  545   3.525   1.567   2.333  0.2580 -0.6891 -0.1099
  137SOL    HW1  546   3.553   1.623   2.260  0.5629  0.9570  1.2216
  137SOL    HW2  547   3.605   1.520   2.357  0.1875 -1.1489 -0.7436
  138SOL     OW  548   2.394   2.490   2.686  0.2594 -0.3843  0.1451
  138SOL    HW1  549   2.473   2.437   2.677  0.7386  0.5162 -1.5901
  138SOL    HW2  550   2.363   2.500   2.596 -0.6494  1.0068  0.5926
  139SOL     OW  551   3.709   2.441   1.835  0.4444 -0.2995 -0.5388
  139SOL    HW1  552   3.624   2.416   1.870  0.6909 -1.8522 -1.0021
  139SOL    HW2  553   3.731   2.522   1.882  0.7113 -2.1597  2.8565
  140SOL     OW  554   3.676   2.382   1.008  0.5566  0.3669 -0.1714
  140SOL    HW1  555   3.698   2.362   1.099 -1.6857  0.1508  0.3736
  140SOL    HW2  556   3.704   2.305   0.959  0.0621 -0.3240  0.6127
  141SOL     OW  557   1.197   2.943   3.721 -0.0532  0.3235 -0.4509
  141SOL    HW1  558   1.155   2.958   3.636  0.7471  0.4693 -0.8273
  141SOL    HW2  559   1.274   3.000   3.720  1.5868 -1.7547 -0.8148
  142SOL     OW  560   2.879   2.890   0.170 -0.6998 -0.3439 -0.5366
  142SOL    HW1  561   2.847   2.872   0.259 -0.3109 -0.0993 -0.3435
  142SOL    HW2  562   2.818   2.955   0.135  0.3906  1.2355  0.3611
  143SOL     OW  563   0.683   0.562   3.108 -0.3190 -0.0175  0.3049
  143SOL    HW1  564   0.768   0.566   3.152 -1.8081 -0.1788  3.5495
  143SOL    HW2  565   0.658   0.653   3.096 -1.1375  0.1254  2.6574
  144SOL     OW  566   1.327   0.349   1.882  0.3934 -0.5535  0.0590
  144SOL    HW1  567   1.380   0.289   1.830  0.7911  0.4330 -0.7058
  144SOL    HW2  568   1.238   0.313   1.878  0.3208 -0.2537 -1.7063
  145SOL     OW  569   2.263   3.251   2.717 -0.0496 -0.2093  0.3162
  145SOL    HW1  570   2.340   3.266   2.662  0.1869 -1.6958  0.1874
  145SOL    HW2  571   2.297   3.211   2.796 -0.8377 -3.6901 -0.9176
  146SOL     OW  572   3.101   0.336   1.147 -0.4534  0.1964 -0.4867
  146SOL    HW1  573   3.126   0.428   1.146  0.0966  0.0896 -2.7307
  146SOL    HW2  574   3.084   0.316   1.239 -0.2365  2.4269  0.0860
  147SOL     OW  575   1.308   0.379   1.117 -0.5317  0.3224  0.4349
  147SOL    HW1  576   1.334   0.288   1.134 -1.0519  0.0760 -0.0544
  147SOL    HW2  577   1.245   0.400   1.186 -2.7300 -0.7130 -1.1486
  148SOL     OW  578   2.726   2.531   1.982 -0.8758  0.6392  0.2350
  148SOL    HW1  579   2.704   2.563   1.895  0.9383  0.1539 -0.4478
  148SOL    HW2  580   2.733   2.436   1.972 -0.5243  0.5920  0.8733
  149SOL     OW  581   3.546   3.308   0.550 -0.5109 -0.4077 -0.2471
  149SOL    HW1  582   3.466   3.290   0.600 -0.5328 -0.8645 -0.4430
  149SOL    HW2  583   3.514   3.345   0.468 -0.4565  0.7622  0.2438
  150SOL     OW  584   0.334   1.891   1.614  0.3168  0.1061  0.8009
  150SOL    HW1  585   0.368   1.978   1.596  0.4567  0.0446  0.7639
  150SOL    HW2  586   0.395   1.832   1.570 -0.7664  0.0500 -0.6789
  151SOL     OW  587   3.184   2.023   0.030  0.4302 -0.4273  0.0814
  151SOL    HW1  588   3.270   2.042   0.069 -0.2294 -1.6417  2.2845
  151SOL    HW2  589   3.174   1.929   0.039 -1.4934 -0.2027  0.6260
  152SOL     OW  590   3.117   2.585   1.269  0.4926  0.1269 -0.6972
  152SOL    HW1  591   3.131   2.600   1.362 -2.0017 -2.7399  0.3207
  152SOL    HW2  592   3.042   2.640   1.246 -1.0714 -1.6296 -0.0361
  153SOL     OW  593   2.298   1.466   0.079  0.0038  0.3835  0.1226
  153SOL    HW1  594   2.259   1.459   0.166  0.7589 -2.8629  0.3388
  153SOL    HW2  595   2.313   1.375   0.052 -1.2869  1.1735 -3.9451
  154SOL     OW  596   0.098   2.698   1.593  0.2559 -0.3387  0.5738
  154SOL    HW1  597   0.122   2.717   1.502  1.6951  1.1128  1.2064
  154SOL    HW2  598   0.007   2.729   1.600  0.5252  0.6552 -0.0712
  155SOL     OW  599   2.268   0.465   1.066 -0.2633 -0.0685 -0.8761
  155SOL    HW1  600   2.362   0.461   1.051 -0.2103  3.1745 -2.2497
  155SOL    HW2  601   2.251   0.557   1.088 -2.5487 -1.3554  4.2457
  156SOL     OW  602   1.291   1.499   0.236 -0.1693  0.5858  0.0963
  156SOL    HW1  603   1.283   1.424   0.294  0.8005 -0.8132 -1.4769
  156SOL    HW2  604   1.224   1.486   0.169 -0.2386  1.3170  0.0139
  157SOL     OW  605   2.310   0.946   2.402  0.0402  0.4819  0.3431
  157SOL    HW1  606   2.248   0.996   2.349  0.0750 -1.6715 -1.9035
  157SOL    HW2  607   2.390   0.943   2.350  0.6577 -0.2615  1.2979
  158SOL     OW  608   3.054   3.556   2.778  0.4876 -0.4040 -0.4548
  158SOL    HW1  609   3.063   3.519   2.866 -1.3051  1.4034  0.5941
  158SOL    HW2  610   3.105   3.637   2.781 -1.6287  1.0314 -0.0964
  159SOL     OW  611   1.097   2.651   0.512 -0.4017  0.2331  0.1105
  159SOL    HW1  612   1.094   2.563   0.548  0.8335  1.1391  2.7071
  159SOL    HW2  613   1.050   2.645   0.428  1.6949 -3.3412 -0.9936
  160SOL     OW  614   3.574   0.964   1.086 -0.2115 -0.5168  0.0995
  160SOL    HW1  615   3.487   0.995   1.060  0.1576  1.2886  0.8237
  160SOL    HW2  616   3.585   0.880   1.042 -2.4510 -0.9412  0.2510
  161SOL     OW  617   2.942   2.746   0.433  0.5498  0.6006  0.3494
  161SOL    HW1  618   2.861   2.795   0.420 -0.0521 -0.9450 -2.6625
  161SOL    HW2  619   2.999   2.806   0.481 -1.4364  2.7313  0.2245
  162SOL     OW  620   0.501   2.839   2.772  0.2280  0.6687 -0.5147
  162SOL    HW1  621   0.442   2.794   2.712  1.4127 -0.7451 -0.6951
  162SOL    HW2  622   0.444   2.883   2.834 -1.0164 -0.5417 -0.7508
  163SOL     OW  623   0.269   2.207   1.691 -0.4568 -0.0711  0.1971
  163SOL    HW1  624   0.196   2.267   1.706  0.4468  0.9551  0.5999
  163SOL    HW2  625   0.347   2.261   1.701  0.3715 -1.1943 -0.0148
  164SOL     OW  626   2.112   0.136   3.272 -0.8873  0.2824  0.3461
  164SOL    HW1  627   2.077   0.220   3.242 -0.9565  0.0937 -0.1121
  164SOL    HW2  628   2.063   0.116   3.351 -1.1613  0.4746  0.2275
  165SOL     OW  629   1.212   0.420   0.080  0.5176  0.4353 -0.2478
  165SOL    HW1  630   1.119   0.436   0.100  0.8186  0.8707  0.8413
  165SOL    HW2  631   1.209   0.352   0.012 -0.5844 -0.4853  0.6578
  166SOL     OW  632   3.565   2.129   2.190  0.2152  0.4179 -0.3129
  166SOL    HW1  633   3.635   2.169   2.242 -0.6304  1.3692  0.1296
  166SOL    HW2  634   3.518   2.074   2.252 -0.7424  1.4883 -0.0616
  167SOL     OW  635   2.751   2.930   0.447  0.2229  0.4824  0.9051
  167SOL    HW1  636   2.703   2.890   0.520  1.1340  0.8980  1.7455
  167SOL    HW2  637   2.804   2.999   0.487  2.0526 -0.3955  0.1123
  168SOL     OW  638   2.934   2.640   0.091  0.0208  0.4705 -0.1939
  168SOL    HW1  639   2.896   2.721   0.126  1.1226  0.4856  1.0739
  168SOL    HW2  640   2.998   2.614   0.158  0.4481 -0.8658 -1.0985
  169SOL     OW  641   0.103   2.138   2.743  0.1053 -0.2878  0.8351
  169SOL    HW1  642   0.089   2.110   2.653  2.2472  1.7071 -0.2280
  169SOL    HW2  643   0.027   2.193   2.764  0.4311  0.7216 -0.4778
  170SOL     OW  644   1.711   0.453   2.205  0.4282 -0.4568 -0.0599
  170SOL    HW1  645   1.746   0.490   2.124  0.4166 -0.3980 -0.0382
  170SOL    HW2  646   1.618   0.440   2.187  0.1018  1.0237  0.4674
  171SOL     OW  647   1.662   3.708   3.630 -0.4628  0.2866 -0.0744
  171SOL    HW1  648   1.635   3.792   3.668  0.9521  0.7452 -0.0595
  171SOL    HW2  649   1.600   3.694   3.558 -1.3869  0.8004  0.6010
  172SOL     OW  650   2.749   2.118   0.187 -0.1507  0.2604 -0.9179
  172SOL    HW1  651   2.720   2.190   0.244  0.9122  0.3149 -0.4141
  172SOL    HW2  652   2.814   2.158   0.129 -0.5194 -0.0103 -1.5205
  173SOL     OW  653   1.711   2.172   1.926  0.1799 -0.1376  0.5923
  173SOL    HW1  654   1.638   2.126   1.886 -1.8988  2.6327  0.9059
  173SOL    HW2  655   1.759   2.104   1.975 -1.9863 -2.1046  0.1233
  174SOL     OW  656   0.906   1.135   2.418  0.1951  0.3985 -0.1775
  174SOL    HW1  657   0.823   1.095   2.393  0.0066  0.4647  0.3224
  174SOL    HW2  658   0.906   1.133   2.514  1.3122 -0.7067 -0.1682
  175SOL     OW  659   3.582   1.355   1.960  0.4470  0.5500 -0.6599
  175SOL    HW1  660   3.535   1.344   1.876 -2.9054  1.5730  0.9018
  175SOL    HW2  661   3.622   1.441   1.954 -0.3653  0.9128 -0.9625
  176SOL     OW  662   3.525   1.070   3.166  0.6819  0.3698  0.4336
  176SOL    HW1  663   3.465   1.005   3.130  1.8270  0.0893 -1.0533
  176SOL    HW2  664   3.539   1.042   3.257  2.7852 -2.8313 -0.6829
  177SOL     OW  665   0.242   1.213   1.386  0.3314  0.3621 -0.0529
  177SOL    HW1  666   0.241   1.296   1.433 -1.6996  0.4383 -0.1454
  177SOL    HW2  667   0.252   1.147   1.454 -0.5381  0.5740  0.2943
  178SOL     OW  668   0.851   1.661   0.579 -0.0603  0.2363 -0.5110
  178SOL    HW1  669   0.775   1.671   0.637 -0.0318 -1.0695 -0.2136
  178SOL    HW2  670   0.867   1.749   0.545 -0.0630  1.0489  1.4823
  179SOL     OW  671   0.522   0.088   3.539 -0.5442  0.1150  0.0472
  179SOL    HW1  672   0.445   0.113   3.589 -0.8437 -1.1306  0.2395
  179SOL    HW2  673   0.562   0.017   3.589 -1.1046 -1.4938 -1.6581
  180SOL     OW  674   1.536   0.064   2.057 -0.2666 -0.2795  0.3367
  180SOL    HW1  675   1.459   0.028   2.101  0.0338 -0.6267  0.5856
  180SOL    HW2  676   1.546   0.011   1.978  0.2089 -0.7984  0.7315
  181SOL     OW  677   3.586   2.219   3.664 -0.0812 -0.2948  0.2683
  181SOL    HW1  678   3.672   2.260   3.676 -0.2998 -0.0762  1.1851
  181SOL    HW2  679   3.604   2.126   3.657  0.4488 -0.0717 -2.1000
  182SOL     OW  680   3.601   0.554   2.127  0.1451 -0.8777 -0.2894
  182SOL    HW1  681   3.597   0.514   2.214 -0.1194 -0.1056  0.0632
  182SOL    HW2  682   3.587   0.481   2.067  1.5554 -1.6346  0.2585
  183SOL     OW  683   0.101   2.400   0.253  0.2314 -0.2110  0.4072
  183SOL    HW1  684   0.015   2.359   0.260  0.9734 -1.7947  0.4658
  183SOL    HW2  685   0.127   2.418   0.344  0.6026 -1.1171  0.4868
  184SOL     OW  686   1.996   2.788   3.625 -0.3128 -0.3218 -0.4744
  184SOL    HW1  687   1.968   2.699   3.605 -0.9725 -0.1706 -0.2423
  184SOL    HW2  688   1.915   2.837   3.641  0.0805 -0.3623  2.2556
  185SOL     OW  689   2.495   3.654   3.427  0.4690  0.1910  0.5423
  185SOL    HW1  690   2.578   3.692   3.400 -0.7932  2.5969 -0.2972
  185SOL    HW2  691   2.481   3.687   3.516 -0.2817  1.1546  0.0916
  186SOL     OW  692   1.074   0.872   1.887  0.3070 -0.7252 -0.3774
  186SOL    HW1  693   1.149   0.928   1.907 -0.7230  0.7395 -0.4645
  186SOL    HW2  694   1.104   0.783   1.908  2.2095 -0.2397 -0.8867
  187SOL     OW  695   2.878   2.645   2.181  0.0827 -0.0771 -0.1934
  187SOL    HW1  696   2.955   2.597   2.149  0.1198  0.1797 -0.4952
  187SOL    HW2  697   2.803   2.601   2.142  0.1523  0.5213 -1.0160
  188SOL     OW  698   3.638   1.509   3.227  0.2449  0.0458  0.0077
  188SOL    HW1  699   3.560   1.483   3.276 -0.4638  0.6431 -0.7502
  188SOL    HW2  700   3.616   1.596   3.193  0.4272 -0.5819 -1.8683
  189SOL     OW  701   1.929   0.610   2.612  0.3230 -0.7146 -0.0668
  189SOL    HW1  702   1.885   0.525   2.613  1.0871 -1.1188  0.2999
  189SOL    HW2  703   2.022   0.588   2.605  0.9658 -0.1473  4.0455
  190SOL     OW  704   0.497   3.049   0.016  0.2951 -0.0007 -0.5421
  190SOL    HW1  705   0.440   3.002  -0.045 -0.5832 -2.4669  1.9439
  190SOL    HW2  706   0.445   3.124   0.046 -0.6271 -0.7088 -0.3241
  191SOL     OW  707   2.374   0.705   2.488  0.3310  0.2256  0.3115
  191SOL    HW1  708   2.408   0.651   2.417 -1.3831  0.1502 -0.5101
  191SOL    HW2  709   2.343   0.785   2.445 -3.8634 -1.1412  0.2799
  192SOL     OW  710   1.535   0.892   0.772  0.5012 -0.3511 -0.0246
  192SOL    HW1  711   1.567   0.926   0.689  3.8422 -2.9635 -0.0341
  192SOL    HW2  712   1.469   0.827   0.749 -0.8330  1.0489 -0.3482
  193SOL     OW  713   2.674   2.325   0.345 -0.1748 -0.7333  0.4165
  193SOL    HW1  714   2.634   2.405   0.311 -0.6431 -1.3491 -0.5349
  193SOL    HW2  715   2.671   2.335   0.440 -0.9562  0.0263  0.3258
  194SOL     OW  716   0.757   1.945   2.591  0.0830 -1.1543 -0.3079
  194SOL    HW1  717   0.672   1.986   2.609 -0.3888 -2.1465 -0.1709
  194SOL    HW2  718   0.765   1.948   2.496 -1.0862 -2.8769 -0.5056
  195SOL     OW  719   3.664   1.969   3.389  1.0265 -0.0217  0.5515
  195SOL    HW1  720   3.635   2.045   3.338 -1.9462 -1.6282 -0.4039
  195SOL    HW2  721   3.722   1.921   3.330  0.6801  0.0911  0.1191
  196SOL     OW  722   2.642   1.778   2.266 -0.0613  0.8264  0.6315
  196SOL    HW1  723   2.562   1.743   2.227 -0.8054  0.9287  1.9978
  196SOL    HW2  724   2.663   1.718   2.337  1.3823  0.5209 -0.0064
  197SOL     OW  725   3.080   1.334   2.275 -0.0469 -0.3192 -0.1311
  197SOL    HW1  726   3.150   1.341   2.340  0.2059  0.9257 -0.5045
  197SOL    HW2  727   3.031   1.256   2.300  0.4417 -0.2359  1.1590
  198SOL     OW  728   1.172   2.164   0.804 -0.3038  0.7355 -0.5774
  198SOL    HW1  729   1.159   2.126   0.717 -0.7887 -1.1512  0.2680
  198SOL    HW2  730   1.145   2.095   0.865  2.6754  0.9181  1.1427
  199SOL     OW  731   0.190   2.479   3.275 -0.3604 -0.3399  0.0319
  199SOL    HW1  732   0.174   2.573   3.278 -0.7826 -0.3041 -1.7895
  199SOL    HW2  733   0.106   2.441   3.249  0.4203 -0.9154 -1.8899
  200SOL     OW  734   2.667   2.935   2.911 -0.0545  0.1583 -0.4648
  200SOL    HW1  735   2.597   2.870   2.897 -1.2003  1.0370  0.9245
  200SOL    HW2  736   2.731   2.915   2.843 -0.5613 -2.1491 -0.3566
  201SOL     OW  737   2.679   2.799   0.673 -0.2025 -0.5076  0.1731
  201SOL    HW1  738   2.711   2.772   0.758 -2.6002 -1.3542  0.8982
  201SOL    HW2  739   2.617   2.731   0.648 -0.2289  0.1792 -1.8545
  202SOL     OW  740   0.033   1.476   2.397 -0.3346  0.5773  0.1426
  202SOL    HW1  741  -0.032   1.433   2.452  1.4794 -1.6833  0.6502
  202SOL    HW2  742   0.091   1.406   2.369  2.2625  2.5694  0.2235
  203SOL     OW  743   0.258   0.346   1.753  0.3985  0.2536  0.3859
  203SOL    HW1  744   0.237   0.415   1.816 -2.1299  0.7375 -0.8599
  203SOL    HW2  745   0.352   0.334   1.761  1.5262  5.4887 -0.8884
  204SOL     OW  746   2.481   2.341   1.708 -0.3595  0.6068  0.4925
  204SOL    HW1  747   2.472   2.257   1.754  0.9082  1.0665  1.6580
  204SOL    HW2  748   2.573   2.364   1.718  0.0795  0.5828 -2.6450
  205SOL     OW  749   2.147   2.446   3.146 -0.0327 -0.3373  0.1397
  205SOL    HW1  750   2.117   2.510   3.211  0.4553 -1.3665  1.4113
  205SOL    HW2  751   2.074   2.386   3.135 -0.0366 -0.2878 -0.1164
  206SOL     OW  752   2.138   3.165   0.333 -0.0333  0.3430  1.0569
  206SOL    HW1  753   2.223   3.194   0.366 -0.3378  1.5840  0.8189
  206SOL    HW2  754   2.146   3.070   0.326  2.1607  0.5960 -1.2019
  207SOL     OW  755   1.688   2.525   3.610  0.2302 -0.2228  0.4043
  207SOL    HW1  756   1.781   2.508   3.595  0.0625 -1.7919  0.9555
  207SOL    HW2  757   1.685   2.574   3.692  0.4974 -1.6166  1.2708
  208SOL     OW  758   0.507   1.708   2.991  0.1750 -0.2389 -0.1495
  208SOL    HW1  759   0.517   1.659   2.909 -1.2451  0.0412 -0.5138
  208SOL    HW2  760   0.457   1.786   2.966  1.2930  0.7819  0.6567
  209SOL     OW  761   0.915   3.401   1.114  0.4683  0.0506  0.2082
  209SOL    HW1  762   0.825   3.384   1.088  1.2727 -1.5322 -1.7864
  209SOL    HW2  763   0.940   3.478   1.063  0.5863 -0.2275 -0.1633
  210SOL     OW  764   0.680   3.033   2.957 -0.1196  0.3205 -0.0407
  210SOL    HW1  765   0.683   2.991   2.871 -1.8619 -0.0878  0.0553
  210SOL    HW2  766   0.725   3.116   2.945 -1.0104  0.6157 -1.5794
  211SOL     OW  767   0.865   0.956   0.059  0.5583 -0.6361  0.1471
  211SOL    HW1  768   0.838   1.013  -0.012  2.0185 -1.0502 -0.7842
  211SOL    HW2  769   0.895   1.016   0.127  0.1969 -0.2651 -0.0132
  212SOL     OW  770   1.494   0.376   0.439 -0.3172 -0.0358  0.4398
  212SOL    HW1  771   1.481   0.453   0.384 -1.7886 -0.2154  0.4862
  212SOL    HW2  772   1.461   0.303   0.386 -0.5369 -0.3871  1.0470
  213SOL     OW  773   0.089   2.837   0.937  0.2432 -0.1427 -0.1774
  213SOL    HW1  774   0.176   2.863   0.968  0.6345 -1.0295 -0.5129
  213SOL    HW2  775   0.101   2.751   0.899 -0.8080 -0.3175 -0.1602
  214SOL     OW  776   0.706   2.720   2.492  0.7429 -0.0022  0.6238
  214SOL    HW1  777   0.675   2.801   2.531  2.7144  1.3397 -0.4218
  214SOL    HW2  778   0.631   2.660   2.497 -0.2256  1.2827  2.9905
  215SOL     OW  779   3.039   0.569   1.558 -1.1556 -0.1236  0.4482
  215SOL    HW1  780   3.102   0.498   1.546 -0.7746 -0.0736  2.0028
  215SOL    HW2  781   3.001   0.554   1.645 -0.1737  2.2366  1.3587
  216SOL     OW  782   1.326   2.350   3.262  0.3793 -0.2847  0.2674
  216SOL    HW1  783   1.312   2.299   3.342  1.8716  0.5139  1.0743
  216SOL    HW2  784   1.415   2.385   3.271 -0.0378  1.1972 -0.9751
  217SOL     OW  785   1.188   0.852   1.507  0.4296  0.1640 -0.0150
  217SOL    HW1  786   1.252   0.819   1.443 -0.1012 -0.9130 -0.0119
  217SOL    HW2  787   1.242   0.886   1.579  1.0290  1.2306 -0.9352
  218SOL     OW  788   0.781   1.413   1.761 -0.0349 -0.1560 -0.4682
  218SOL    HW1  789   0.785   1.450   1.850 -0.9812 -1.0643 -0.0388
  218SOL    HW2  790   0.761   1.489   1.705  2.0408  0.7121 -0.1293
  219SOL     OW  791   2.704   1.294   0.624  0.0690  0.5567  0.0793
  219SOL    HW1  792   2.661   1.379   0.613  1.7489  1.6994  1.7153
  219SOL    HW2  793   2.734   1.294   0.715  0.9400 -1.4142 -0.1523
  220SOL     OW  794   1.224   3.068   2.112 -0.3802  0.3097 -0.3529
  220SOL    HW1  795   1.155   3.099   2.170 -0.0850  0.1838  0.0679
  220SOL    HW2  796   1.277   3.147   2.095 -0.3051  0.2884 -0.2222
  221SOL     OW  797   0.561   0.103   1.573 -0.6025 -0.2875 -0.2870
  221SOL    HW1  798   0.541   0.133   1.484  0.9385  0.6818 -0.3469
  221SOL    HW2  799   0.576   0.184   1.623  0.6202 -0.8548  0.3190
  222SOL     OW  800   2.761   2.261   1.915 -0.0853 -0.1607  0.2926
  222SOL    HW1  801   2.829   2.216   1.963  0.1578 -1.1868 -0.9568
  222SOL    HW2  802   2.679   2.221   1.944  0.0673 -0.8434 -0.2104
  223SOL     OW  803   1.239   1.612   2.528 -0.3119 -0.6769  0.3401
  223SOL    HW1  804   1.239   1.520   2.503 -0.4752 -0.4638 -0.4649
  223SOL    HW2  805   1.193   1.614   2.612 -2.4940 -1.0636 -0.7572
  224SOL     OW  806   3.459   2.015   2.403  0.6884  0.3581  0.0760
  224SOL    HW1  807   3.474   2.050   2.490  1.1201  0.9582 -0.2342
  224SOL    HW2  808   3.402   1.939   2.417 -0.9030  1.6271  0.6755
  225SOL     OW  809   2.808   3.367   0.182 -0.5673  0.3704  0.1783
  225SOL    HW1  810   2.764   3.355   0.266 -0.7008  0.3174  0.0999
  225SOL    HW2  811   2.771   3.299   0.125  0.0550 -0.0783  0.2883
  226SOL     OW  812   1.528   1.455   1.073  0.3771  0.6258  0.4974
  226SOL    HW1  813   1.511   1.525   1.135  2.5344  1.3114  0.4103
  226SOL    HW2  814   1.568   1.385   1.126  0.7466  0.5765  0.1630
  227SOL     OW  815   3.139   1.103   3.449 -0.0765 -0.0851  0.3471
  227SOL    HW1  816   3.201   1.162   3.490  0.9497 -0.5488 -0.4883
  227SOL    HW2  817   3.057   1.117   3.496  0.4213  1.2074  0.8596
  228SOL     OW  818   1.205   1.779   0.157 -0.2546  0.2388  0.2858
  228SOL    HW1  819   1.205   1.820   0.244  0.1021  1.3833 -0.2286
  228SOL    HW2  820   1.255   1.698   0.169 -1.5595 -0.4314  1.4858
  229SOL     OW  821   0.285   2.891   3.643  0.3575 -0.5804 -0.0120
  229SOL    HW1  822   0.191   2.889   3.625  0.0113  1.0231  1.3783
  229SOL    HW2  823   0.291   2.891   3.739  1.6997  0.9621 -0.0513
  230SOL     OW  824   0.615   2.642   1.260 -0.8687  0.2548 -0.1528
  230SOL    HW1  825   0.624   2.662   1.354 -0.1085  1.1296 -0.3904
  230SOL    HW2  826   0.705   2.634   1.229 -1.1204 -1.8153 -0.4815
  231SOL     OW  827   2.772   2.056   2.681  0.3800 -0.0310 -0.0287
  231SOL    HW1  828   2.779   2.142   2.721  0.0503  0.1360 -0.3190
  231SOL    HW2  829   2.862   2.032   2.659  0.5929 -0.2332  1.0123
  232SOL     OW  830   3.429   2.470   0.914 -0.2347  0.3491 -0.2949
  232SOL    HW1  831   3.416   2.560   0.944  2.1790  1.3031 -1.9005
  232SOL    HW2  832   3.516   2.447   0.945  0.2924 -0.4093 -2.2455
  233SOL     OW  833   1.919   1.068   2.812  0.0186 -0.2568  0.4217
  233SOL    HW1  834   1.909   1.004   2.741  1.4674  2.2886 -2.3267
  233SOL    HW2  835   2.014   1.074   2.826 -0.2199 -0.3259  2.2788
  234SOL     OW  836   2.923   1.817   2.169  0.5791  0.4241 -0.0861
  234SOL    HW1  837   2.847   1.759   2.176  0.3007  0.5540 -1.7004
  234SOL    HW2  838   2.993   1.762   2.132  1.2219  0.3669  1.1695
  235SOL     OW  839   1.999   2.481   1.729  0.0846  0.2288  0.3812
  235SOL    HW1  840   1.978   2.447   1.642 -0.2631 -3.5666  1.7359
  235SOL    HW2  841   1.914   2.497   1.770  0.2049  0.3731  0.5733
  236SOL     OW  842   3.478   1.574   0.515 -0.2405 -0.5518 -0.5471
  236SOL    HW1  843   3.429   1.508   0.564 -0.7897  0.0089 -0.3214
  236SOL    HW2  844   3.551   1.597   0.572 -1.1316  0.4283  0.2296
  237SOL     OW  845   3.390   1.201   0.113 -0.4314 -0.2668 -0.1169
  237SOL    HW1  846   3.327   1.138   0.149  0.0642 -0.1315  0.9960
  237SOL    HW2  847   3.355   1.286   0.138 -0.4015 -0.1418 -0.4908
  238SOL     OW  848   2.463   3.062   2.663 -0.0051 -0.0861 -0.2524
  238SOL    HW1  849   2.411   3.061   2.743 -0.7461 -0.9853 -0.7329
  238SOL    HW2  850   2.488   3.154   2.652 -2.3874  0.5683 -0.5753
  239SOL     OW  851   0.436   0.379   0.303  0.3607  0.2576  0.0052
  239SOL    HW1  852   0.396   0.294   0.288  1.0370  0.2721 -2.2537
  239SOL    HW2  853   0.427   0.394   0.397 -1.0014 -1.6631  0.2318
  240SOL     OW  854   1.517   3.394   3.575  0.0911  0.2787 -0.4634
  240SOL    HW1  855   1.571   3.323   3.540  0.6148  0.5312 -0.1777
  240SOL    HW2  856   1.549   3.472   3.529 -0.4993  0.3317 -0.7958
  241SOL     OW  857   0.937   1.935   2.777 -0.4849  0.1397 -0.2256
  241SOL    HW1  858   0.890   1.950   2.696  0.7993  1.1170 -0.8378
  241SOL    HW2  859   0.939   2.020   2.820  0.0698 -0.0435  0.1311
  242SOL     OW  860   2.077   2.645   3.322  0.5866  0.1334 -0.9443
  242SOL    HW1  861   2.014   2.677   3.257 -0.9759  1.1924  0.9524
  242SOL    HW2  862   2.140   2.716   3.331 -0.4384  0.9601  0.1724
  243SOL     OW  863   0.105   3.376   0.886  0.5347  0.6066 -0.0601
  243SOL    HW1  864   0.103   3.282   0.870 -1.4651  0.5353  0.3075
  243SOL    HW2  865   0.170   3.410   0.825 -0.1882 -0.7608 -1.6545
  244SOL     OW  866   0.143   1.123   3.664 -0.6612  0.2423  0.2517
  244SOL    HW1  867   0.102   1.202   3.699  0.4749  1.4827 -1.0982
  244SOL    HW2  868   0.217   1.155   3.613 -0.3334 -1.6992 -0.5750
  245SOL     OW  869   1.892   1.543   1.154 -0.1697 -0.5182  1.0193
  245SOL    HW1  870   1.916   1.580   1.069 -1.8770  3.1539  1.8870
  245SOL    HW2  871   1.912   1.450   1.147  2.1247  0.0395 -2.4681
  246SOL     OW  872   0.089   1.449   3.014  0.4275 -0.0327 -0.2634
  246SOL    HW1  873   0.132   1.519   3.062  0.7578 -0.7054  0.4310
  246SOL    HW2  874  -0.002   1.453   3.042  0.4504  0.1050 -0.2091
  247SOL     OW  875   2.091   1.741   0.701 -0.3829  0.1914 -0.1593
  247SOL    HW1  876   2.133   1.658   0.722 -1.2818 -0.1893  0.1634
  247SOL    HW2  877   2.142   1.776   0.627  1.4350  0.4734  1.1529
  248SOL     OW  878   1.568   2.024   3.351  0.2571 -0.4428  0.0573
  248SOL    HW1  879   1.535   2.111   3.376 -2.0998 -1.0702 -0.5723
  248SOL    HW2  880   1.547   2.017   3.258  0.7000 -1.5686  0.0322
  249SOL     OW  881   0.136   2.934   2.611  0.5406  0.2931 -0.2115
  249SOL    HW1  882   0.082   2.901   2.539 -1.7674  2.2583  0.4993
  249SOL    HW2  883   0.161   3.022   2.584 -1.5703  1.6470  1.8397
  250SOL     OW  884   1.229   1.297   0.377 -0.1822  0.0775 -0.0453
  250SOL    HW1  885   1.212   1.343   0.460  1.1348 -0.0654  0.3171
  250SOL    HW2  886   1.172   1.220   0.381  0.2449 -0.2097  0.9858
  251SOL     OW  887   3.239   2.559   3.484  0.4587  0.3973  0.2901
  251SOL    HW1  888   3.224   2.473   3.522 -1.0445  0.4275 -0.1770
  251SOL    HW2  889   3.333   2.561   3.465  0.3349 -1.5877 -0.7620
  252SOL     OW  890   1.467   0.453   3.555  0.0609  0.4824  1.3496
  252SOL    HW1  891   1.538   0.474   3.616  1.0146  1.8120 -0.1527
  252SOL    HW2  892   1.482   0.510   3.480 -2.3108  0.4108  0.7481
  253SOL     OW  893   0.602   3.555   1.598 -0.2052 -0.1603  0.0821
  253SOL    HW1  894   0.526   3.520   1.644 -1.4419  1.5717 -0.5463
  253SOL    HW2  895   0.577   3.645   1.575  1.8809  0.3228 -0.4988
  254SOL     OW  896   3.391   3.534   0.798 -1.0677 -0.1142 -0.3781
  254SOL    HW1  897   3.435   3.531   0.883  2.5522 -0.7341 -2.1061
  254SOL    HW2  898   3.367   3.626   0.788 -1.8723 -0.0819  1.3886
  255SOL     OW  899   1.853   2.692   1.192  0.2826  0.0334 -0.0471
  255SOL    HW1  900   1.790   2.750   1.234 -1.3551  0.3956 -2.7683
  255SOL    HW2  901   1.938   2.729   1.213 -0.6827  3.4526 -1.6003
  256SOL     OW  902   2.347   1.345   2.645  0.0241 -0.4106 -0.5473
  256SOL    HW1  903   2.359   1.415   2.708 -1.0957 -1.2813  0.6994
  256SOL    HW2  904   2.390   1.269   2.685 -1.4023 -1.1794 -0.4086
  257SOL     OW  905   2.914   3.462   1.479  0.0830  0.4126  0.4222
  257SOL    HW1  906   2.894   3.392   1.541  0.1284  1.5083  1.6939
  257SOL    HW2  907   2.840   3.522   1.485 -0.2425  0.2281 -1.0974
  258SOL     OW  908   0.490   2.663   0.745  0.2399  0.2708 -0.2368
  258SOL    HW1  909   0.518   2.573   0.756 -1.5510 -0.3531 -0.3398
  258SOL    HW2  910   0.520   2.708   0.824  0.7503 -0.5222  0.0298
  259SOL     OW  911   3.132   1.410   2.889  0.1902 -0.0590 -0.0540
  259SOL    HW1  912   3.135   1.480   2.954 -0.6596 -0.1880  0.1398
  259SOL    HW2  913   3.085   1.338   2.933  0.2239 -0.4037 -0.5691
  260SOL     OW  914  -0.001   1.139   1.557  0.0524 -0.8353  0.2888
  260SOL    HW1  915   0.075   1.197   1.569 -1.9099  2.0509 -0.2283
  260SOL    HW2  916  -0.012   1.134   1.462  1.2928 -3.8065  0.1881
  261SOL     OW  917   1.975   3.640   2.873 -0.4165 -0.7756 -0.4253
  261SOL    HW1  918   2.067   3.615   2.863 -0.3300 -0.6853  0.0863
  261SOL    HW2  919   1.977   3.735   2.887 -0.6595 -0.6391 -1.2842
  262SOL     OW  920   3.639   0.710   3.293  0.0889 -0.2727 -0.2603
  262SOL    HW1  921   3.625   0.792   3.341 -2.2137 -0.9111  0.2704
  262SOL    HW2  922   3.728   0.718   3.258  1.7620  0.5219  3.5698
  263SOL     OW  923   2.177   0.951   0.119  0.7377 -0.2564  0.3991
  263SOL    HW1  924   2.086   0.947   0.150  0.4623 -0.6645 -0.4331
  263SOL    HW2  925   2.197   0.862   0.091  1.4823 -0.2240  0.7890
  264SOL     OW  926  -0.014   3.318   2.565  0.4368  0.1292  0.1516
  264SOL    HW1  927   0.066   3.349   2.606  1.0562 -0.3092 -0.7011
  264SOL    HW2  928  -0.002   3.224   2.557 -1.5163 -0.4809  2.9121
  265SOL     OW  929   0.516   0.978   0.489 -0.4267  0.5752 -0.0988
  265SOL    HW1  930   0.437   0.980   0.435  0.2267  0.7998 -1.0694
  265SOL    HW2  931   0.512   1.059   0.539 -1.3377  0.0865  0.6493
  266SOL     OW  932   1.395   0.711   1.092  0.1707  0.2591  0.1691
  266SOL    HW1  933   1.432   0.799   1.083 -0.6036  0.6931  0.9617
  266SOL    HW2  934   1.332   0.720   1.164  0.4647 -1.0806  0.6023
  267SOL     OW  935   1.145   1.593   2.802 -1.5224  0.2112 -0.7963
  267SOL    HW1  936   1.182   1.515   2.844 -0.7031 -0.5232 -2.7780
  267SOL    HW2  937   1.139   1.657   2.873 -0.6069 -1.0869  0.5292
  268SOL     OW  938   1.223   3.725   0.485 -0.8244  0.0612  0.1877
  268SOL    HW1  939   1.298   3.772   0.522  0.1391 -0.6907 -0.7673
  268SOL    HW2  940   1.258   3.640   0.457 -2.4834 -1.1895  1.6752
  269SOL     OW  941   1.146   2.985   2.974  0.2193  0.3181  0.0070
  269SOL    HW1  942   1.098   2.981   3.057  1.2588  0.1095  0.6168
  269SOL    HW2  943   1.108   2.915   2.921 -0.8746  0.8459  0.0647
  270SOL     OW  944   2.479   2.026   2.166  0.6705  0.6056 -0.1573
  270SOL    HW1  945   2.561   1.983   2.143  0.2627  0.7036 -1.9241
  270SOL    HW2  946   2.483   2.035   2.261  1.0003 -2.8520  0.3007
  271SOL     OW  947   3.056   1.311   1.510 -0.0551 -0.0474 -0.2434
  271SOL    HW1  948   3.116   1.283   1.442 -0.8006  0.0169 -0.9516
  271SOL    HW2  949   2.978   1.340   1.462 -0.7806 -0.4514  0.6577
  272SOL     OW  950   1.909   0.218   2.606 -0.0989 -0.0353  0.1293
  272SOL    HW1  951   1.949   0.297   2.642  2.1501 -1.3652  0.7303
  272SOL    HW2  952   1.857   0.249   2.532  1.0096  1.9781  0.1280
  273SOL     OW  953   3.688   0.741   0.890 -0.2387  0.0787 -0.5229
  273SOL    HW1  954   3.782   0.746   0.911  0.4321 -0.8423 -2.8866
  273SOL    HW2  955   3.683   0.676   0.820 -2.7522 -0.2920 -0.0832
  274SOL     OW  956   0.459   1.396   1.004 -0.1170 -0.1138  0.2413
  274SOL    HW1  957   0.389   1.344   0.964  0.7105 -1.0545 -0.0491
  274SOL    HW2  958   0.538   1.343   0.990  0.6519  0.9255  0.5408
  275SOL     OW  959   2.862   3.134   0.594  0.0719 -0.6916  0.6531
  275SOL    HW1  960   2.898   3.222   0.604  0.5620 -0.9107  0.8470
  275SOL    HW2  961   2.794   3.128   0.662 -0.9726  0.0407 -0.3050
  276SOL     OW  962   2.961   2.421   3.660  0.5234 -0.1819 -0.7203
  276SOL    HW1  963   2.937   2.357   3.727  0.0450  0.0734 -0.6383
  276SOL    HW2  964   2.986   2.499   3.709  0.0256  0.0563 -0.8376
  277SOL     OW  965   3.325   0.066   0.845  0.0239  0.1142  0.4777
  277SOL    HW1  966   3.310   0.141   0.787 -0.2208 -0.0182  0.3650
  277SOL    HW2  967   3.407   0.085   0.889  2.1414 -1.3698 -2.4522
  278SOL     OW  968   1.427   0.903   3.448  0.5129  0.1956 -0.2913
  278SOL    HW1  969   1.495   0.917   3.381  0.9656  4.1269  0.7089
  278SOL    HW2  970   1.376   0.984   3.447 -1.1170 -0.6717  2.3612
  279SOL     OW  971   1.582   2.449   3.277  0.4489  0.4911  1.1087
  279SOL    HW1  972   1.570   2.402   3.360  2.8799  1.3014  1.9960
  279SOL    HW2  973   1.652   2.512   3.294  0.7613  0.9671 -1.4566
  280SOL     OW  974   1.670   1.579   0.123  0.0084  0.0792 -0.2781
  280SOL    HW1  975   1.739   1.629   0.165 -1.4808  0.4731  1.8698
  280SOL    HW2  976   1.634   1.637   0.056 -0.0431  0.9487  0.4848
  281SOL     OW  977   1.156   3.009   2.613 -0.3363  0.7540  0.0688
  281SOL    HW1  978   1.242   3.032   2.648 -1.4659  1.3188  2.7077
  281SOL    HW2  979   1.175   2.951   2.538  2.3130 -1.6293  2.3491
  282SOL     OW  980   0.511   1.587   1.881  0.1785 -0.2921  0.1116
  282SOL    HW1  981   0.592   1.609   1.835  0.2267  0.0853  0.3748
  282SOL    HW2  982   0.538   1.567   1.971 -0.0524  0.1076  0.2707
  283SOL     OW  983   1.516   3.314   2.901  0.4997 -0.7042  0.0015
  283SOL    HW1  984   1.430   3.352   2.922  0.6220 -0.5642  0.2535
  283SOL    HW2  985   1.501   3.266   2.819 -0.3965 -2.6966  1.2618
  284SOL     OW  986   1.989   0.653   0.549  0.3208  0.0029  0.1604
  284SOL    HW1  987   1.990   0.646   0.454  0.5393  2.4980 -0.0769
  284SOL    HW2  988   2.053   0.587   0.578  0.2157 -0.8271 -1.3780
  285SOL     OW  989   2.798   3.702   3.658  0.4488  0.1291  0.6864
  285SOL    HW1  990   2.821   3.609   3.666  0.3723  0.1505  1.1622
  285SOL    HW2  991   2.815   3.722   3.566  1.6998 -0.0282  0.8647
  286SOL     OW  992   1.653   0.539   0.202  0.2705 -0.0586  0.2287
  286SOL    HW1  993   1.684   0.450   0.218 -1.9863 -1.3626 -1.8537
  286SOL    HW2  994   1.558   0.534   0.213 -0.0446  1.7708 -1.0816
  287SOL     OW  995   0.120   3.104   2.389  0.3515 -0.2023 -0.7203
  287SOL    HW1  996   0.103   3.171   2.322 -0.3764  0.4930  0.1175
  287SOL    HW2  997   0.052   3.038   2.375  0.1505 -0.0171 -0.6283
  288SOL     OW  998   2.868   3.427   2.144 -0.1847 -0.3191 -0.4419
  288SOL    HW1  999   2.849   3.334   2.127 -0.2403 -0.2360 -0.8438
  288SOL    HW2 1000   2.842   3.440   2.235  0.4557 -0.8676 -0.1675
  289SOL     OW 1001   0.617   2.281   3.374 -0.3999 -0.1464 -0.6409
  289SOL    HW1 1002   0.647   2.197   3.341 -0.2362  0.2660 -1.5661
  289SOL    HW2 1003   0.559   2.315   3.306 -0.8270  0.2906 -0.0779
  290SOL     OW 1004   1.788   1.969   3.729  0.2135  0.3379 -0.0811
  290SOL    HW1 1005   1.838   2.022   3.666  0.7695  0.4594  0.4532
  290SOL    HW2 1006   1.822   1.881   3.718  0.2528  0.3440 -0.0059
  291SOL     OW 1007   2.455   1.705   2.598  0.2571 -0.0142 -0.3452
  291SOL    HW1 1008   2.533   1.695   2.543  0.1922 -0.4620 -0.3537
  291SOL    HW2 1009   2.490   1.715   2.687  0.3147 -0.5722 -0.3012
  292SOL     OW 1010   1.024   0.646   1.603  0.0778 -0.2781 -0.6815
  292SOL    HW1 1011   1.073   0.566   1.585  1.5068 -0.2201  2.4538
  292SOL    HW2 1012   1.089   0.716   1.597 -0.2026  0.1265  0.7899
  293SOL     OW 1013   3.263   1.451   2.665  0.8477 -0.6150  0.1991
  293SOL    HW1 1014   3.256   1.409   2.751  0.7066 -3.8418 -1.2373
  293SOL    HW2 1015   3.174   1.446   2.629  0.7662  1.2795  0.0385
  294SOL     OW 1016   2.186   0.525   2.599 -0.5164 -0.2273 -0.2984
  294SOL    HW1 1017   2.251   0.593   2.579 -0.1003 -0.6399 -0.3622
  294SOL    HW2 1018   2.237   0.445   2.605 -0.4354 -0.0684  3.1944
  295SOL     OW 1019   1.027   0.664   1.051 -0.2207 -0.7320  0.1606
  295SOL    HW1 1020   0.991   0.635   1.134 -1.1589 -1.1711 -0.3820
  295SOL    HW2 1021   1.031   0.585   0.997  1.4128 -0.6616  0.1387
  296SOL     OW 1022   0.796   2.535   3.223 -0.6025  0.2909 -0.2423
  296SOL    HW1 1023   0.749   2.465   3.268  0.0602 -0.3170 -0.4710
  296SOL    HW2 1024   0.735   2.566   3.156 -1.4472  0.9390  0.8122
  297SOL     OW 1025   2.492   3.005   0.765  0.1534 -0.2939  0.0581
  297SOL    HW1 1026   2.413   2.960   0.794  0.1117 -0.6210 -0.5550
  297SOL    HW2 1027   2.553   2.934   0.742  0.6689 -0.0483  0.6340
  298SOL     OW 1028   3.435   2.905   2.885  0.4149 -0.0498  0.0307
  298SOL    HW1 1029   3.466   2.888   2.974  0.2281 -0.7526 -0.0290
  298SOL    HW2 1030   3.353   2.954   2.896  0.2719 -0.3362  0.2573
  299SOL     OW 1031   1.242   3.684   3.063  0.4953  0.5066  0.2643
  299SOL    HW1 1032   1.170   3.731   3.021  0.8936  1.0538  0.1888
  299SOL    HW2 1033   1.300   3.660   2.991 -0.4460 -1.4585  0.0958
  300SOL     OW 1034   0.968   3.117   3.577 -0.9222  0.0471  0.3226
  300SOL    HW1 1035   0.975   3.195   3.632  0.7084  0.9971 -1.1458
  300SOL    HW2 1036   1.003   3.144   3.492  0.7012 -2.5489  0.0660
  301SOL     OW 1037   2.033   0.396   2.794 -0.4852 -0.2942 -0.0787
  301SOL    HW1 1038   2.098   0.463   2.770 -0.0921 -1.2534 -1.9005
  301SOL    HW2 1039   1.972   0.442   2.851  1.2547  0.8993  0.9396
  302SOL     OW 1040   3.711   0.774   2.417  0.2701 -0.1625 -0.0102
  302SOL    HW1 1041   3.720   0.682   2.441  0.6666 -0.0428  0.3119
  302SOL    HW2 1042   3.619   0.795   2.433  0.6515  0.1001  2.0827
  303SOL     OW 1043   0.518   3.113   1.378 -0.2133 -0.4116 -0.0162
  303SOL    HW1 1044   0.601   3.152   1.404 -0.7962  0.5239  0.5155
  303SOL    HW2 1045   0.481   3.079   1.459 -0.8103  0.0967 -0.0669
  304SOL     OW 1046   2.691   1.995   0.608 -0.2080  0.0935  0.1501
  304SOL    HW1 1047   2.672   1.968   0.519 -1.6868  0.6054  0.2775
  304SOL    HW2 1048   2.736   2.079   0.599 -2.0115  1.0816 -0.1184
  305SOL     OW 1049   1.582   2.689   2.542 -0.4065  0.5086 -0.4255
  305SOL    HW1 1050   1.553   2.623   2.605  3.3071 -1.1910 -0.2173
  305SOL    HW2 1051   1.644   2.642   2.486  0.5335  3.2735 -1.8641
  306SOL     OW 1052   0.632   2.184   0.044  0.2570  0.0164  0.1519
  306SOL    HW1 1053   0.671   2.222  -0.035  1.2103  0.3925  0.7852
  306SOL    HW2 1054   0.595   2.258   0.091  0.4306 -0.0884  0.4591
  307SOL     OW 1055   1.789   1.225   0.264 -0.3177 -0.0285 -0.8156
  307SOL    HW1 1056   1.833   1.225   0.349  0.8595 -0.2359 -1.3962
  307SOL    HW2 1057   1.696   1.232   0.285  0.0022  0.7687  0.4514
  308SOL     OW 1058   3.073   0.815   0.033 -0.1826  0.0889 -0.3154
  308SOL    HW1 1059   3.041   0.729   0.058 -4.6267  1.7332  0.6428
  308SOL    HW2 1060   3.025   0.837  -0.047 -1.3579  2.6049  0.9369
  309SOL     OW 1061   1.002   1.272   2.023  0.0296  0.1736  0.4447
  309SOL    HW1 1062   1.015   1.349   1.968 -1.3450  0.8088  0.9805
  309SOL    HW2 1063   0.912   1.245   2.005  0.1887 -0.7414  0.9840
  310SOL     OW 1064   0.409   1.593   2.718 -0.1836 -0.3086  0.7587
  310SOL    HW1 1065   0.378   1.558   2.635  3.2454 -0.3008 -0.6844
  310SOL    HW2 1066   0.409   1.688   2.705 -0.9036 -0.2202  1.3187
  311SOL     OW 1067   2.411   0.086   3.620 -0.2961 -0.0330  0.5242
  311SOL    HW1 1068   2.408   0.180   3.602  0.1568  0.3126  2.0853
  311SOL    HW2 1069   2.322   0.064   3.648 -0.6525 -0.2966 -0.7364
  312SOL     OW 1070   0.289   2.896   2.928  0.3562  0.3145  0.4512
  312SOL    HW1 1071   0.220   2.833   2.951 -0.7476  1.7414  1.1710
  312SOL    HW2 1072   0.269   2.974   2.979  2.3761  0.8737  0.4748
  313SOL     OW 1073   2.866   3.325   1.759 -0.1083 -0.4395  0.5814
  313SOL    HW1 1074   2.772   3.309   1.764 -0.0956 -1.2136 -0.9438
  313SOL    HW2 1075   2.877   3.414   1.791 -1.3391 -0.3686  0.8724
  314SOL     OW 1076   2.464   3.368   3.421 -0.2198  0.1397 -0.2455
  314SOL    HW1 1077   2.469   3.461   3.445  1.4100  0.0736 -0.2173
  314SOL    HW2 1078   2.371   3.347   3.428 -0.5869  1.6907  0.0405
  315SOL     OW 1079   3.006   2.511   0.596 -0.2178 -0.1737 -0.0996
  315SOL    HW1 1080   3.087   2.556   0.620  0.0172 -0.2176 -0.7810
  315SOL    HW2 1081   2.969   2.565   0.526 -0.6073 -0.3330 -0.0171
  316SOL     OW 1082   1.554   1.723   3.673  0.2076 -0.0036  0.1897
  316SOL    HW1 1083   1.481   1.714   3.611  0.5328  1.2771 -0.4299
  316SOL    HW2 1084   1.571   1.818   3.675  1.7091 -0.2548  0.4787
  317SOL     OW 1085   2.933   3.464   3.571 -0.0063 -0.0133  0.4964
  317SOL    HW1 1086   2.879   3.455   3.493  0.1037 -0.5306  0.4792
  317SOL    HW2 1087   2.978   3.380   3.580  0.1893  0.1351  0.9614
  318SOL     OW 1088   1.081   1.447   1.491 -0.2342 -0.2754 -0.8983
  318SOL    HW1 1089   1.172   1.472   1.475 -0.6435  1.8684 -0.2659
  318SOL    HW2 1090   1.050   1.412   1.407 -0.1560  3.4859 -2.7291
  319SOL     OW 1091   3.592   2.245   3.400 -0.1682 -0.5722  0.0301
  319SOL    HW1 1092   3.558   2.235   3.489  0.5816 -3.3937  0.0965
  319SOL    HW2 1093   3.681   2.276   3.411 -0.3134 -0.2185  0.2191
  320SOL     OW 1094   0.007   2.025   2.502 -0.2151  0.1249  0.3256
  320SOL    HW1 1095  -0.059   1.979   2.451 -0.7331 -1.4475  2.2942
  320SOL    HW2 1096   0.070   1.958   2.527  0.7194  1.0939  0.6939
  321SOL     OW 1097   0.908   1.930   0.554 -0.5457  0.0082 -0.1309
  321SOL    HW1 1098   0.889   1.996   0.620  2.1567 -0.3587  1.1358
  321SOL    HW2 1099   0.986   1.885   0.586  0.5694 -0.5698 -3.3060
  322SOL     OW 1100   3.318   0.478   1.437  0.0690 -0.2444  0.5807
  322SOL    HW1 1101   3.310   0.444   1.526  0.5992  1.2212  1.2275
  322SOL    HW2 1102   3.377   0.553   1.446 -0.8427  0.6764 -0.7873
  323SOL     OW 1103   3.481   0.522   2.732  0.1027 -0.5745 -0.2996
  323SOL    HW1 1104   3.508   0.597   2.786 -1.1982 -1.3970  1.5902
  323SOL    HW2 1105   3.403   0.552   2.686  2.0078  0.6249 -3.0457
  324SOL     OW 1106   1.734   2.900   2.439 -0.0157 -0.2160 -0.5025
  324SOL    HW1 1107   1.650   2.854   2.437  0.7444 -1.7062  0.1187
  324SOL    HW2 1108   1.793   2.844   2.388  1.4240 -1.0180  1.8971
  325SOL     OW 1109   0.240   2.188   2.009  0.1831  0.3117  0.2414
  325SOL    HW1 1110   0.190   2.118   2.051  1.5500 -1.1842 -0.5043
  325SOL    HW2 1111   0.244   2.162   1.917  2.2520  0.3599  0.2636
  326SOL     OW 1112   0.877   2.432   3.519  0.2070  0.3133  0.0737
  326SOL    HW1 1113   0.835   2.359   3.473  1.0468 -0.4936  0.5555
  326SOL    HW2 1114   0.957   2.449   3.468  0.4179  0.3657  0.4213
  327SOL     OW 1115   1.404   3.162   2.705  0.1403  0.2026  0.0707
  327SOL    HW1 1116   1.459   3.180   2.630  0.2103  0.8168  0.2688
  327SOL    HW2 1117   1.423   3.070   2.727 -0.4820 -0.2449 -1.1446
  328SOL     OW 1118   2.031   0.526   0.065  0.4657  0.3191 -0.5644
  328SOL    HW1 1119   1.986   0.444   0.085  0.4802 -0.0036 -1.7855
  328SOL    HW2 1120   2.059   0.517  -0.026  0.7208  1.5630 -0.6322
  329SOL     OW 1121   1.623   2.708   2.937 -0.1203  0.3169  0.1089
  329SOL    HW1 1122   1.666   2.750   2.862 -0.0684  0.6520  0.3264
  329SOL    HW2 1123   1.605   2.619   2.906  1.1891 -0.0002  0.1917
  330SOL     OW 1124   1.266   2.450   1.751 -0.4299  0.2022 -0.1557
  330SOL    HW1 1125   1.236   2.536   1.722  0.0408  0.4293  0.0207
  330SOL    HW2 1126   1.186   2.401   1.768 -0.7421 -0.0997 -2.2721
  331SOL     OW 1127   2.368   2.845   3.098 -0.1522  0.1580  0.1867
  331SOL    HW1 1128   2.352   2.897   3.177  1.4890 -0.1865  0.7916
  331SOL    HW2 1129   2.312   2.768   3.109  0.2661 -0.0286  1.1771
  332SOL     OW 1130   2.695   3.701   2.308  0.5048 -0.4156 -0.9653
  332SOL    HW1 1131   2.673   3.682   2.217  0.8640  1.0114 -1.3742
  332SOL    HW2 1132   2.620   3.750   2.342  0.8634  0.0719 -0.8557
  333SOL     OW 1133   0.989   1.374   3.213 -0.6836 -0.3462 -0.0576
  333SOL    HW1 1134   0.994   1.445   3.277  0.4911 -1.3058  0.9619
  333SOL    HW2 1135   0.983   1.294   3.267  0.4260 -1.1838 -1.1343
  334SOL     OW 1136   2.957   0.688   2.406 -0.2667 -0.1082 -0.1074
  334SOL    HW1 1137   3.024   0.725   2.349  0.9072 -1.1278  0.5683
  334SOL    HW2 1138   2.990   0.703   2.495 -1.6584  0.6963  0.3115
  335SOL     OW 1139   3.689   0.260   3.668 -0.0761  0.6945  0.4014
  335SOL    HW1 1140   3.773   0.229   3.703 -0.1989 -0.6445 -0.4342
  335SOL    HW2 1141   3.711   0.340   3.621  1.2037 -0.8628 -1.8275
  336SOL     OW 1142   2.986   2.433   2.645 -0.6256  0.4174 -0.5155
  336SOL    HW1 1143   2.958   2.432   2.737 -0.9677 -1.7401 -0.5962
  336SOL    HW2 1144   3.081   2.449   2.649 -0.9398  2.5450  0.0371
  337SOL     OW 1145   2.486   1.539   3.597 -0.2497 -0.3658  0.1904
  337SOL    HW1 1146   2.513   1.468   3.539  0.1991  1.4578 -1.9844
  337SOL    HW2 1147   2.425   1.499   3.658  0.5940 -2.7577 -0.4400
  338SOL     OW 1148   1.843   2.394   1.462  0.1010 -0.3904  0.0021
  338SOL    HW1 1149   1.786   2.470   1.476  0.9400  0.6369 -1.7666
  338SOL    HW2 1150   1.808   2.352   1.383  0.7373 -0.7734 -0.0842
  339SOL     OW 1151   3.550   2.400   2.570 -0.0328  0.0788  0.1506
  339SOL    HW1 1152   3.515   2.482   2.537 -0.0393 -0.3135 -0.8550
  339SOL    HW2 1153   3.568   2.348   2.492 -0.7468 -1.1724  0.7811
  340SOL     OW 1154   0.009   2.465   3.497  0.3567  0.2735 -0.0980
  340SOL    HW1 1155   0.038   2.426   3.579  1.0955 -1.1430 -0.9758
  340SOL    HW2 1156   0.082   2.521   3.469  0.5533 -0.0735 -0.2917
  341SOL     OW 1157   3.696   3.676   1.952  0.1599 -0.6490  0.2192
  341SOL    HW1 1158   3.772   3.644   1.904  0.0072  1.1335 -1.3640
  341SOL    HW2 1159   3.707   3.771   1.954 -0.9580 -0.5111  1.8641
  342SOL     OW 1160   3.660   3.427   1.716 -0.7778 -0.0570 -0.4297
  342SOL    HW1 1161   3.632   3.416   1.807  0.8851  1.2498  0.3025
  342SOL    HW2 1162   3.618   3.508   1.687 -1.5344 -0.6194 -0.9583
  343SOL     OW 1163   2.505   1.452   3.140  0.4718 -0.0515 -0.4829
  343SOL    HW1 1164   2.453   1.374   3.121 -0.4512  0.7070 -1.2033
  343SOL    HW2 1165   2.524   1.447   3.233  3.0877 -2.6907 -0.9939
  344SOL     OW 1166   3.726   2.300   1.585  0.2868 -0.0051 -0.2828
  344SOL    HW1 1167   3.744   2.330   1.496 -0.3875  1.2544 -0.0175
  344SOL    HW2 1168   3.720   2.380   1.637  0.2400 -0.6978  0.8234
  345SOL     OW 1169   0.895   0.965   1.695 -0.4975  0.0539  0.0532
  345SOL    HW1 1170   0.949   0.924   1.762 -0.2045 -0.2821 -0.3791
  345SOL    HW2 1171   0.945   1.043   1.668 -0.3718 -0.0892 -0.1305
  346SOL     OW 1172   2.359   3.051   2.913 -1.3494  0.2825 -1.2853
  346SOL    HW1 1173   2.443   3.082   2.948 -1.0679 -0.7559 -0.9996
  346SOL    HW2 1174   2.359   2.957   2.931 -1.9801  0.0276 -2.5197
  347SOL     OW 1175   0.735   3.604   0.885  0.0119 -0.5422  0.3959
  347SOL    HW1 1176   0.795   3.532   0.866  0.4127  0.1182 -0.9455
  347SOL    HW2 1177   0.661   3.563   0.930  0.7579 -1.6008  0.6806
  348SOL     OW 1178   3.422   0.771   2.438  0.4378  0.6578 -0.0400
  348SOL    HW1 1179   3.371   0.835   2.489  0.7910  1.5296 -0.7504
  348SOL    HW2 1180   3.394   0.686   2.472 -0.7416  1.1479  0.2918
  349SOL     OW 1181   0.218   0.489   0.145 -0.4472  0.1874 -0.2098
  349SOL    HW1 1182   0.309   0.459   0.152 -0.0401  1.3136 -0.5308
  349SOL    HW2 1183   0.194   0.472   0.054 -1.3180 -2.1138  0.3642
  350SOL     OW 1184   3.169   0.403   3.409 -0.0236  0.8232 -0.1784
  350SOL    HW1 1185   3.187   0.359   3.325  1.2467 -0.4769  0.7350
  350SOL    HW2 1186   3.094   0.355   3.446  1.6375 -0.9857  1.0234
  351SOL     OW 1187   2.329   2.776   2.527  0.3608 -0.0275 -0.1988
  351SOL    HW1 1188   2.397   2.715   2.496  0.5650 -0.3149  0.7722
  351SOL    HW2 1189   2.355   2.796   2.617 -0.3551  0.5768 -0.1233
  352SOL     OW 1190   2.783   0.980   1.184 -0.1712 -0.2093 -0.5019
  352SOL    HW1 1191   2.861   1.033   1.201  0.1482 -1.0871  0.8454
  352SOL    HW2 1192   2.812   0.889   1.193 -1.3410 -0.5566 -0.0239
  353SOL     OW 1193   2.130   1.443   1.033 -0.4881 -0.5120  0.0524
  353SOL    HW1 1194   2.190   1.369   1.039  0.2246  0.1779  2.2707
  353SOL    HW2 1195   2.045   1.403   1.015  0.0914 -1.7457 -0.0670
  354SOL     OW 1196   0.170   3.001   3.248  0.4065  0.5902  0.1143
  354SOL    HW1 1197   0.103   3.029   3.311 -0.2051  0.3790 -0.4343
  354SOL    HW2 1198   0.143   3.041   3.165  1.0043  0.5664 -0.0946
  355SOL     OW 1199   1.646   3.178   3.492 -0.5445  0.1338  0.3635
  355SOL    HW1 1200   1.728   3.226   3.479 -0.5268  0.9265  2.8704
  355SOL    HW2 1201   1.616   3.157   3.404  1.3196  1.5959 -0.6898
  356SOL     OW 1202   2.227   2.009   1.757  0.0980  0.0129  0.3316
  356SOL    HW1 1203   2.224   1.918   1.788 -1.5342 -0.2734 -0.5600
  356SOL    HW2 1204   2.258   2.002   1.666  0.9072  0.4644  0.5602
  357SOL     OW 1205   1.315   3.514   1.820 -0.6530 -0.1845  0.7731
  357SOL    HW1 1206   1.242   3.573   1.805 -1.4107 -1.7965 -3.1639
  357SOL    HW2 1207   1.393   3.570   1.819 -1.5037  1.0269 -0.4756
  358SOL     OW 1208   2.878   0.658   1.307 -0.2551 -0.2586 -0.4406
  358SOL    HW1 1209   2.824   0.588   1.271 -2.3613  0.5537  0.9716
  358SOL    HW2 1210   2.900   0.630   1.395 -2.1994  1.2807  0.6306
  359SOL     OW 1211   1.850   1.267   2.025  0.1954  0.2218 -0.1333
  359SOL    HW1 1212   1.800   1.257   1.943  0.7741  0.0388 -0.4664
  359SOL    HW2 1213   1.934   1.226   2.007 -0.6567 -2.5602  1.5053
  360SOL     OW 1214   1.188   2.146   1.362  0.2056  1.6826 -0.1893
  360SOL    HW1 1215   1.115   2.190   1.318 -0.8415 -0.7650 -1.0526
  360SOL    HW2 1216   1.266   2.193   1.331 -0.7735  2.3654 -1.7350
  361SOL     OW 1217   2.137   1.222   2.031 -0.6757 -0.4504 -0.2955
  361SOL    HW1 1218   2.141   1.136   2.073 -2.1890  0.0053  0.8621
  361SOL    HW2 1219   2.212   1.270   2.066 -0.9047 -0.6773  0.5195
  362SOL     OW 1220   3.121   1.054   3.176 -0.0333  0.0148  0.1498
  362SOL    HW1 1221   3.096   1.045   3.267 -0.7591 -0.3858 -0.0842
  362SOL    HW2 1222   3.193   1.117   3.177 -0.0300  0.0071  0.9919
  363SOL     OW 1223   3.078   3.491   0.736 -0.1654  0.5887 -0.2323
  363SOL    HW1 1224   3.166   3.477   0.772 -0.8047  0.4479  1.3363
  363SOL    HW2 1225   3.049   3.573   0.775 -0.6194  0.7911 -0.9809
  364SOL     OW 1226   0.861   2.863   3.663  0.0671 -0.2610  0.1436
  364SOL    HW1 1227   0.776   2.826   3.638  1.0217 -1.3873 -1.6348
  364SOL    HW2 1228   0.874   2.936   3.604  0.8102 -0.7721 -0.3391
  365SOL     OW 1229   2.635   2.413   3.669  0.0940 -0.1470  0.2908
  365SOL    HW1 1230   2.644   2.392   3.576 -0.4453 -0.5002  0.3170
  365SOL    HW2 1231   2.708   2.472   3.687 -0.8987  1.5065 -0.8194
  366SOL     OW 1232   2.463   0.052   2.423 -0.3750 -0.6439  0.6123
  366SOL    HW1 1233   2.390   0.002   2.386 -0.5763  0.8067 -1.1032
  366SOL    HW2 1234   2.422   0.132   2.458  0.4232  0.6456 -1.2461
  367SOL     OW 1235   0.139   1.866   3.245 -0.1281 -0.2237  0.3948
  367SOL    HW1 1236   0.234   1.868   3.234  0.0771  0.0179  2.0334
  367SOL    HW2 1237   0.123   1.794   3.305 -1.0974 -0.9128 -0.6323
  368SOL     OW 1238   3.083   2.345   1.162 -0.1152 -0.2230 -0.4077
  368SOL    HW1 1239   3.086   2.432   1.203 -0.0170 -0.4549  0.0942
  368SOL    HW2 1240   3.172   2.312   1.170 -0.6381 -1.3261  1.5753
  369SOL     OW 1241   3.033   1.968   0.659  0.4010 -0.1187  0.0812
  369SOL    HW1 1242   3.110   1.921   0.625 -0.2872 -0.7829 -0.5979
  369SOL    HW2 1243   3.019   2.038   0.596  1.3205  0.9273  1.0007
  370SOL     OW 1244   2.186   1.373   3.277  0.0887 -0.0698  0.0802
  370SOL    HW1 1245   2.262   1.317   3.263  0.3227 -0.4367  2.3742
  370SOL    HW2 1246   2.223   1.460   3.292  0.0051 -0.0637  0.2569
  371SOL     OW 1247   2.796   3.053   3.450 -0.0055  0.8900 -0.3142
  371SOL    HW1 1248   2.826   2.966   3.478  0.3185  1.5490  1.4569
  371SOL    HW2 1249   2.794   3.047   3.354 -1.4880 -1.5587 -0.2035
  372SOL     OW 1250   0.097   3.381   1.487 -0.3953  0.1625 -0.0833
  372SOL    HW1 1251   0.041   3.391   1.564 -1.4975  1.5778 -1.0056
  372SOL    HW2 1252   0.131   3.468   1.470  0.2124 -0.2199 -0.9149
  373SOL     OW 1253   0.176   0.291   2.733  0.5368 -0.1859  0.0636
  373SOL    HW1 1254   0.244   0.358   2.734  1.6479 -1.2801 -0.0931
  373SOL    HW2 1255   0.221   0.211   2.707 -0.8864 -0.8699 -0.4391
  374SOL     OW 1256   0.453   0.366   1.336 -0.2139 -0.2139 -0.9704
  374SOL    HW1 1257   0.463   0.459   1.315  1.3056  0.6834  2.8778
  374SOL    HW2 1258   0.531   0.325   1.298 -1.0587 -0.0808 -2.9839
  375SOL     OW 1259   0.759   0.526   2.508 -0.0027 -0.1969  0.0358
  375SOL    HW1 1260   0.747   0.505   2.415 -4.5008  0.7639  0.1821
  375SOL    HW2 1261   0.746   0.621   2.513  0.7022 -0.1502  1.6308
  376SOL     OW 1262   2.597   3.048   1.042 -0.5642  0.4631  0.1870
  376SOL    HW1 1263   2.628   2.963   1.010 -1.3415 -0.4565  1.7361
  376SOL    HW2 1264   2.547   3.084   0.968  3.3061  1.6779 -2.1215
  377SOL     OW 1265   2.158   3.545   3.454 -0.3117  0.2342  0.2883
  377SOL    HW1 1266   2.103   3.473   3.423  1.3780 -1.2770  0.6079
  377SOL    HW2 1267   2.187   3.590   3.375  1.6196 -1.8032 -0.2608
  378SOL     OW 1268   0.734   2.031   3.316  0.0775  0.4201 -0.0437
  378SOL    HW1 1269   0.748   1.946   3.275  2.8885  0.8191 -0.1728
  378SOL    HW2 1270   0.745   2.015   3.410 -1.2359  0.3744  0.1225
  379SOL     OW 1271   0.680   0.838   0.762 -0.1289  0.1768 -0.3492
  379SOL    HW1 1272   0.626   0.877   0.694  1.6160  1.2271 -1.1847
  379SOL    HW2 1273   0.762   0.886   0.759 -0.6251  1.7490  3.8850
  380SOL     OW 1274   1.570   3.666   1.368 -0.0466 -0.3955 -0.3693
  380SOL    HW1 1275   1.622   3.744   1.350  0.3217 -1.0214 -2.2461
  380SOL    HW2 1276   1.614   3.596   1.318  0.4629 -2.1470  2.3205
  381SOL     OW 1277   2.591   0.763   0.249 -0.5105 -0.4188 -0.1432
  381SOL    HW1 1278   2.537   0.839   0.273  1.2601  1.4408 -1.7029
  381SOL    HW2 1279   2.607   0.774   0.156  2.4684 -0.9250  0.2143
  382SOL     OW 1280   1.365   3.165   3.714 -0.1055 -0.2892  0.5040
  382SOL    HW1 1281   1.337   3.203   3.630 -1.7766 -0.4838  0.9368
  382SOL    HW2 1282   1.432   3.226   3.747  0.2069  0.0608 -0.7157
  383SOL     OW 1283   2.857   1.939   1.630  0.0358 -0.4645  0.5135
  383SOL    HW1 1284   2.951   1.932   1.615 -0.1186 -1.3525 -0.0809
  383SOL    HW2 1285   2.819   1.948   1.543 -0.6004 -2.3203  0.5558
  384SOL     OW 1286   1.361   3.140   0.260  0.0146 -0.5195 -0.2354
  384SOL    HW1 1287   1.348   3.167   0.169 -0.1861  0.8578  0.1713
  384SOL    HW2 1288   1.453   3.162   0.278  0.6186 -2.5342 -0.6353
  385SOL     OW 1289   2.522   0.120   3.008  0.0657  0.3236 -0.0856
  385SOL    HW1 1290   2.465   0.062   3.058 -2.3501  1.0455 -1.8445
  385SOL    HW2 1291   2.481   0.207   3.015  1.9286  1.2579 -0.0018
  386SOL     OW 1292   3.458   3.327   0.027  0.2669  0.1213  0.8439
  386SOL    HW1 1293   3.504   3.277  -0.040 -0.2572  1.8130 -0.8468
  386SOL    HW2 1294   3.365   3.306   0.014  0.1945  0.1159  1.3378
  387SOL     OW 1295   3.219   0.291   0.257  0.0295 -0.4685  0.0638
  387SOL    HW1 1296   3.188   0.228   0.321 -0.4287  2.0965  2.5770
  387SOL    HW2 1297   3.295   0.332   0.300 -0.8235  1.9419 -0.6161
  388SOL     OW 1298   2.336   0.249   0.367  0.0447 -0.5527  0.0318
  388SOL    HW1 1299   2.334   0.211   0.279 -0.9610 -0.2524 -0.0797
  388SOL    HW2 1300   2.275   0.323   0.364  1.6896  0.8828  0.3528
  389SOL     OW 1301   2.881   3.385   1.210  0.6255  0.3134  0.8958
  389SOL    HW1 1302   2.907   3.437   1.285  0.7699 -0.5461  1.4532
  389SOL    HW2 1303   2.792   3.356   1.230  0.1950  1.0807  0.1774
  390SOL     OW 1304   0.278   0.504   2.468 -1.0467  0.3484 -0.2342
  390SOL    HW1 1305   0.297   0.570   2.402  0.2768 -0.2962 -0.5217
  390SOL    HW2 1306   0.335   0.525   2.542  1.0137 -1.6200 -1.1211
  391SOL     OW 1307   3.250   0.972   1.349 -0.3117 -0.2101 -0.6550
  391SOL    HW1 1308   3.173   0.962   1.405  0.7152 -0.0517  0.8597
  391SOL    HW2 1309   3.313   0.908   1.383  0.5485  0.2807 -1.2760
  392SOL     OW 1310   0.067   2.735   3.041 -0.1160  0.2858 -0.1547
  392SOL    HW1 1311   0.038   2.734   2.950  5.0101  2.4453 -2.1681
  392SOL    HW2 1312   0.126   2.659   3.048  1.4252  1.4715  0.4700
  393SOL     OW 1313   1.839   0.843   2.677 -0.0754 -0.1645  0.1498
  393SOL    HW1 1314   1.865   0.754   2.657 -0.5653  0.0164 -1.3465
  393SOL    HW2 1315   1.826   0.885   2.592 -0.8864  1.0322  0.8335
  394SOL     OW 1316   0.959   2.662   0.238  0.3002  0.4990 -0.0909
  394SOL    HW1 1317   0.959   2.757   0.226  1.5037  0.3639 -1.5161
  394SOL    HW2 1318   1.013   2.629   0.166 -0.5160 -1.3147  0.0808
  395SOL     OW 1319   2.808   3.106   1.492 -0.3206  0.3113  0.1031
  395SOL    HW1 1320   2.904   3.096   1.493 -0.4519 -3.0581 -2.1463
  395SOL    HW2 1321   2.790   3.158   1.414 -0.3254  1.0277  0.5805
  396SOL     OW 1322   1.605   1.643   1.683 -0.1424  0.2623 -0.8854
  396SOL    HW1 1323   1.618   1.708   1.613 -0.6423 -0.4212 -1.6387
  396SOL    HW2 1324   1.672   1.577   1.667 -0.6003 -0.1710 -1.0696
  397SOL     OW 1325   2.683   0.759   2.539 -0.0290  0.1558  0.3271
  397SOL    HW1 1326   2.770   0.775   2.503  0.2007 -1.1377  0.2541
  397SOL    HW2 1327   2.635   0.715   2.469 -1.7826  3.4243 -0.7609
  398SOL     OW 1328   1.686   3.305   3.108 -0.4582 -0.4678  0.2719
  398SOL    HW1 1329   1.642   3.270   3.031 -0.9743  0.3729  0.1797
  398SOL    HW2 1330   1.767   3.345   3.074 -0.5440 -0.3531  0.2018
  399SOL     OW 1331   0.874   2.956   1.869  0.1874  0.2876  0.1238
  399SOL    HW1 1332   0.885   3.046   1.899  1.3794 -0.2328  1.3937
  399SOL    HW2 1333   0.862   2.905   1.949  1.0980 -0.8689 -0.4299
  400SOL     OW 1334   0.345   2.963   0.734  0.8715 -0.3388  0.1755
  400SOL    HW1 1335   0.291   3.035   0.702  3.0816  1.7687  0.8732
  400SOL    HW2 1336   0.308   2.885   0.692 -0.9510  1.3086 -1.5120
  401SOL     OW 1337   1.503   1.702   0.313 -0.0662 -0.3229 -0.1374
  401SOL    HW1 1338   1.477   1.623   0.265  3.4000 -2.8213  1.6424
  401SOL    HW2 1339   1.516   1.768   0.245 -3.9806 -0.8242 -1.6280
  402SOL     OW 1340   2.082   2.112   0.171 -0.0856  1.0057 -0.1642
  402SOL    HW1 1341   2.017   2.182   0.170 -0.0558  1.0514 -1.5398
  402SOL    HW2 1342   2.126   2.120   0.086  2.0378  1.2774  0.9008
  403SOL     OW 1343   1.412   1.037   1.053  0.2052  0.9586  0.1454
  403SOL    HW1 1344   1.356   1.020   0.977  0.5989 -1.9631  0.4100
  403SOL    HW2 1345   1.368   0.992   1.126  2.8419 -1.6052  0.3383
  404SOL     OW 1346   2.594   2.654   2.416  0.4703  0.4095 -0.4316
  404SOL    HW1 1347   2.572   2.667   2.324  0.9096 -1.2877 -0.7975
  404SOL    HW2 1348   2.661   2.586   2.416  1.8590  1.6723  1.0237
  405SOL     OW 1349   1.924   3.390   3.017 -0.3509  0.5100  0.1836
  405SOL    HW1 1350   1.952   3.461   2.960  1.3874  0.3138  0.7371
  405SOL    HW2 1351   1.965   3.312   2.979 -1.4834 -0.0691  0.1138
  406SOL     OW 1352   3.224   1.811   2.688  0.0235  0.1822  0.0602
  406SOL    HW1 1353   3.190   1.759   2.615 -1.0435 -0.2710  0.8513
  406SOL    HW2 1354   3.240   1.897   2.650  0.0741 -0.2073 -0.8431
  407SOL     OW 1355   3.735   0.165   2.201 -0.1981  0.2367 -0.2760
  407SOL    HW1 1356   3.787   0.242   2.177 -1.1337  0.3745 -1.9308
  407SOL    HW2 1357   3.653   0.175   2.154 -2.0865  0.3605  2.8063
  408SOL     OW 1358   2.744   3.096   1.984 -0.0180 -0.3403  0.1946
  408SOL    HW1 1359   2.802   3.132   2.052 -1.0291  0.4509  0.6744
  408SOL    HW2 1360   2.665   3.149   1.990 -0.9635 -1.6597 -0.1625
  409SOL     OW 1361   1.092   2.600   3.023  0.2680 -0.2977  0.2129
  409SOL    HW1 1362   1.167   2.620   2.967 -0.4759  0.3302 -0.5804
  409SOL    HW2 1363   1.032   2.674   3.010 -0.1064 -0.3461  1.5215
  410SOL     OW 1364   1.666   2.629   0.413  0.1273  0.1931 -0.3811
  410SOL    HW1 1365   1.675   2.583   0.496 -3.0649 -0.0866 -0.0620
  410SOL    HW2 1366   1.583   2.676   0.421 -0.2408  0.2354 -3.3680
  411SOL     OW 1367   0.557   3.373   2.809  0.8447 -0.1148 -0.8231
  411SOL    HW1 1368   0.497   3.309   2.847  0.3278  0.9022  0.1418
  411SOL    HW2 1369   0.642   3.353   2.848  0.6908 -0.2508 -0.5530
  412SOL     OW 1370   1.552   0.290   3.207  0.1857 -0.1976  0.4957
  412SOL    HW1 1371   1.614   0.224   3.239  0.5221  0.1524  0.5721
  412SOL    HW2 1372   1.465   0.251   3.223  0.3724 -0.4600  0.8925
  413SOL     OW 1373   1.882   1.745   3.577 -0.0754  0.1296  0.2001
  413SOL    HW1 1374   1.903   1.755   3.484 -1.3812  2.6856  0.0972
  413SOL    HW2 1375   1.791   1.717   3.578  0.1725 -0.6786  0.7169
  414SOL     OW 1376   0.417   2.023   0.134  0.2374 -0.4466 -0.2143
  414SOL    HW1 1377   0.487   2.084   0.113  0.2291 -0.4813 -0.3422
  414SOL    HW2 1378   0.349   2.041   0.070  0.6598 -1.3060 -0.9426
  415SOL     OW 1379   3.004   0.378   0.474 -0.0541  0.2262 -0.7573
  415SOL    HW1 1380   3.009   0.287   0.443 -1.4998  0.4226 -1.6618
  415SOL    HW2 1381   3.095   0.404   0.485  0.4175 -0.9968 -1.5171
  416SOL     OW 1382   2.984   2.283   2.353  0.7439  0.0069  0.0632
  416SOL    HW1 1383   2.974   2.288   2.258  1.6564  1.3651  0.0146
  416SOL    HW2 1384   3.072   2.316   2.370  0.0738  1.1819  1.4858
  417SOL     OW 1385   3.186   2.886   1.946  0.1549 -0.5740 -0.5647
  417SOL    HW1 1386   3.178   2.830   2.023  0.4480 -0.6087 -0.5585
  417SOL    HW2 1387   3.096   2.913   1.927  0.3575  2.0765  1.7369
  418SOL     OW 1388   0.201   0.454   1.481 -0.1303  0.0970 -0.2737
  418SOL    HW1 1389   0.192   0.417   1.569  0.8268  2.6248  0.9939
  418SOL    HW2 1390   0.276   0.410   1.443 -0.1816 -0.5972  0.4182
  419SOL     OW 1391   3.024   1.668   3.694 -0.0736 -0.4959 -0.5649
  419SOL    HW1 1392   3.092   1.732   3.714 -0.4398 -0.3159  0.1380
  419SOL    HW2 1393   3.072   1.591   3.665  0.3423  0.6325 -3.1978
  420SOL     OW 1394   1.948   2.508   3.577 -1.3255  0.5508 -0.2567
  420SOL    HW1 1395   1.978   2.504   3.487  0.5710  0.6008  0.3418
  420SOL    HW2 1396   2.025   2.487   3.629 -2.6420 -0.5959  1.3271
  421SOL     OW 1397   0.087   0.133   0.437  0.2452 -0.2466 -0.4805
  421SOL    HW1 1398  -0.003   0.129   0.471  0.6767  0.8121  0.8421
  421SOL    HW2 1399   0.121   0.044   0.449 -0.6220 -0.6745 -1.0441
  422SOL     OW 1400   1.320   2.169   1.622 -0.2887 -0.3904  0.7560
  422SOL    HW1 1401   1.329   2.074   1.633 -0.8358 -0.5866 -0.3538
  422SOL    HW2 1402   1.249   2.179   1.558  0.9388  0.6959 -0.5046
  423SOL     OW 1403   3.443   3.088   3.140  0.0942 -0.1333  0.3247
  423SOL    HW1 1404   3.399   3.084   3.056  0.8355  0.1458 -0.0906
  423SOL    HW2 1405   3.511   3.155   3.129  0.0523  0.0748  1.2141
  424SOL     OW 1406   1.832   1.200   1.711 -0.3607  0.0552 -0.1776
  424SOL    HW1 1407   1.833   1.175   1.619  3.2524 -1.3764  0.0888
  424SOL    HW2 1408   1.821   1.118   1.759 -1.5071  0.6962  0.7408
  425SOL     OW 1409   2.228   2.475   0.600  0.3275 -0.1815 -0.2322
  425SOL    HW1 1410   2.243   2.428   0.518  0.7767  1.7289 -1.3166
  425SOL    HW2 1411   2.135   2.495   0.599  0.8218  2.6756 -2.0234
  426SOL     OW 1412   0.627   0.215   2.726  0.4281 -0.0856  0.4531
  426SOL    HW1 1413   0.620   0.299   2.682  0.5181  1.8278  3.7589
  426SOL    HW2 1414   0.716   0.184   2.705  0.5216  0.8147 -0.5319
  427SOL     OW 1415   2.281   0.720   0.448  0.1662  0.0317 -0.3799
  427SOL    HW1 1416   2.342   0.703   0.520 -1.4421 -1.2303  0.7719
  427SOL    HW2 1417   2.324   0.787   0.395  1.3589  1.0786  1.8032
  428SOL     OW 1418   0.677   3.427   1.348 -0.5187  0.0586 -0.1822
  428SOL    HW1 1419   0.618   3.471   1.410 -2.9210  1.0542 -2.9684
  428SOL    HW2 1420   0.746   3.492   1.331  1.7070 -1.1441  3.1561
  429SOL     OW 1421   1.908   2.147   2.443 -0.0381  0.4544 -0.0549
  429SOL    HW1 1422   1.904   2.177   2.352 -1.5641 -1.4354 -0.6860
  429SOL    HW2 1423   2.002   2.141   2.462  0.3338  0.3249 -1.7280
  430SOL     OW 1424   0.545   0.812   2.843 -0.2458  0.1892  0.3242
  430SOL    HW1 1425   0.544   0.846   2.933 -0.9228  0.1401  0.3392
  430SOL    HW2 1426   0.602   0.735   2.847  0.3588  0.6373  0.5401
  431SOL     OW 1427   0.945   2.329   3.146  0.2828  0.0194 -0.0771
  431SOL    HW1 1428   1.019   2.357   3.092  0.7607  0.6638  0.9055
  431SOL    HW2 1429   0.901   2.410   3.171  0.9922 -0.1390  1.8139
  432SOL     OW 1430   2.699   0.400   0.609  0.8651  0.1577  0.1742
  432SOL    HW1 1431   2.712   0.328   0.671  0.5481 -0.0281  0.0315
  432SOL    HW2 1432   2.759   0.382   0.537  1.5979  0.6461  0.6568
  433SOL     OW 1433   3.138   0.651   3.259  0.5321 -0.0209 -0.0380
  433SOL    HW1 1434   3.154   0.585   3.325  0.2532 -0.8687 -0.7998
  433SOL    HW2 1435   3.181   0.730   3.293  0.1711 -0.3591  1.2542
  434SOL     OW 1436   3.362   0.297   1.231 -0.1254 -0.4953 -0.4118
  434SOL    HW1 1437   3.285   0.299   1.174 -0.3538  0.5134 -0.0916
  434SOL    HW2 1438   3.337   0.349   1.307  1.0302  0.2297 -0.5054
  435SOL     OW 1439   3.473   0.663   0.077 -0.0718  0.1714 -0.0731
  435SOL    HW1 1440   3.428   0.604   0.016 -1.1173  1.8910 -1.0558
  435SOL    HW2 1441   3.441   0.751   0.054  0.7997  1.0645  1.8586
  436SOL     OW 1442   1.832   0.849   1.773  0.1941  0.4235 -0.4954
  436SOL    HW1 1443   1.796   0.831   1.687  0.8447 -1.6314 -0.4018
  436SOL    HW2 1444   1.925   0.866   1.757 -0.0005  1.7165 -0.3428
  437SOL     OW 1445   1.789   2.370   0.414  0.4149 -0.0187 -0.0211
  437SOL    HW1 1446   1.797   2.281   0.449 -0.7227 -0.0037  0.3242
  437SOL    HW2 1447   1.700   2.396   0.436  1.3846  2.0524  1.8846
  438SOL     OW 1448   2.810   0.987   1.547 -0.4028  0.2343  0.0997
  438SOL    HW1 1449   2.903   0.967   1.542  0.0765  0.9053  3.6302
  438SOL    HW2 1450   2.799   1.067   1.496  0.5716 -0.6718 -1.6364
  439SOL     OW 1451   0.693   2.410   2.683  0.7716 -0.2206 -0.4181
  439SOL    HW1 1452   0.634   2.436   2.754  0.1720  0.5481 -1.1788
  439SOL    HW2 1453   0.771   2.378   2.727 -0.1017 -0.9942  0.6150
  440SOL     OW 1454   1.565   2.440   2.992 -0.6586 -0.3427  0.2431
  440SOL    HW1 1455   1.577   2.461   3.084  1.4320  0.2674 -0.1310
  440SOL    HW2 1456   1.526   2.352   2.992 -2.3975  0.3753  1.6964
  441SOL     OW 1457   1.646   2.897   0.124  0.6087 -0.2058 -0.4174
  441SOL    HW1 1458   1.609   2.985   0.126 -0.9568 -0.6912 -3.0640
  441SOL    HW2 1459   1.590   2.848   0.063  1.4257 -3.0525  0.9109
  442SOL     OW 1460   1.057   0.422   0.922  0.0716 -0.6160  0.2923
  442SOL    HW1 1461   1.104   0.380   0.994 -0.3334 -1.2988  0.1719
  442SOL    HW2 1462   1.011   0.350   0.879 -0.6843 -0.0253  0.1043
  443SOL     OW 1463   2.975   1.458   0.123 -0.1821 -0.0475  0.0794
  443SOL    HW1 1464   2.992   1.543   0.081  1.6391 -0.5391 -0.2794
  443SOL    HW2 1465   2.882   1.459   0.142 -0.2453  1.9612 -0.0942
  444SOL     OW 1466   2.028   0.817   3.306  0.6202 -0.2594  0.2788
  444SOL    HW1 1467   2.080   0.897   3.315  0.4279 -0.2229  1.1051
  444SOL    HW2 1468   1.977   0.831   3.227  2.6034 -0.7165 -1.1681
  445SOL     OW 1469   0.888   0.650   0.336  0.8008 -0.2803  0.1084
  445SOL    HW1 1470   0.938   0.724   0.368 -0.9217  0.7200  0.6195
  445SOL    HW2 1471   0.891   0.586   0.407 -0.8111  0.8653  1.2909
  446SOL     OW 1472   0.977   1.511   0.065  0.1851  0.0012  0.1417
  446SOL    HW1 1473   0.980   1.602   0.036  0.4979  0.0679  0.3795
  446SOL    HW2 1474   0.975   1.516   0.160  1.6219 -0.2664  0.2054
  447SOL     OW 1475   2.488   3.041   1.418 -0.1560 -0.1369 -0.2744
  447SOL    HW1 1476   2.422   3.006   1.358  1.0141  0.2518 -1.8703
  447SOL    HW2 1477   2.465   3.004   1.503 -0.1350 -3.2133 -1.4753
  448SOL     OW 1478   1.843   1.827   2.481  0.5808 -0.1210 -0.7284
  448SOL    HW1 1479   1.866   1.894   2.546  0.2815 -1.6133  0.9947
  448SOL    HW2 1480   1.781   1.872   2.423 -0.8147  0.7293  1.2725
  449SOL     OW 1481   3.745   1.152   2.051  0.2286 -0.3513 -0.5676
  449SOL    HW1 1482   3.721   1.094   1.979  0.3388  1.5104 -2.1974
  449SOL    HW2 1483   3.697   1.233   2.034  1.0662  0.5061  0.9036
  450SOL     OW 1484   0.273   1.273   3.288  0.4073  0.0788  0.1772
  450SOL    HW1 1485   0.178   1.277   3.303  0.4242 -1.2530  0.7505
  450SOL    HW2 1486   0.282   1.243   3.198  0.3171  2.7291 -0.7973
  451SOL     OW 1487   3.510   2.567   3.366  0.3120 -0.0256 -0.4454
  451SOL    HW1 1488   3.590   2.529   3.401  0.3725  0.5891  0.1018
  451SOL    HW2 1489   3.502   2.529   3.278  0.8740 -0.5536 -0.2778
  452SOL     OW 1490   3.293   3.289   0.740  0.5464 -0.0926  0.9723
  452SOL    HW1 1491   3.324   3.375   0.768 -1.2275  0.9636 -0.1111
  452SOL    HW2 1492   3.264   3.247   0.821  1.4443  0.2934  1.5190
  453SOL     OW 1493   3.180   0.081   2.724  0.6375 -0.3967 -0.2767
  453SOL    HW1 1494   3.160   0.052   2.635  2.2964 -1.6717 -0.2790
  453SOL    HW2 1495   3.253   0.142   2.713  1.3766 -1.1676  0.2479
  454SOL     OW 1496   1.850   1.784   0.533  0.7373 -0.5400 -0.6244
  454SOL    HW1 1497   1.923   1.805   0.591  1.5829  0.3233 -1.9289
  454SOL    HW2 1498   1.866   1.837   0.454 -3.1254  2.5216  0.2938
  455SOL     OW 1499   2.527   2.488   1.276 -0.2660  0.3986  0.0293
  455SOL    HW1 1500   2.433   2.486   1.296 -0.5112 -1.4195 -1.1080
  455SOL    HW2 1501   2.535   2.551   1.205 -0.7181  0.1571 -0.2416
  456SOL     OW 1502   3.146   3.255   3.531  0.5885  0.6306  0.1997
  456SOL    HW1 1503   3.179   3.206   3.607 -0.8921  0.6669  0.9017
  456SOL    HW2 1504   3.163   3.198   3.456  1.5082  0.3218  0.6248
  457SOL     OW 1505   2.364   2.245   0.698  0.2389  0.2654 -0.0518
  457SOL    HW1 1506   2.445   2.225   0.744  1.4834 -2.4663 -3.0161
  457SOL    HW2 1507   2.359   2.340   0.697  0.5622  0.5297  4.6077
  458SOL     OW 1508   1.105   2.015   1.020  0.1414  0.1254  0.1961
  458SOL    HW1 1509   1.038   1.950   1.044 -0.9836  0.4943 -1.7589
  458SOL    HW2 1510   1.152   2.031   1.102 -1.7223 -0.6629  1.5137
  459SOL     OW 1511   1.513   1.466   3.286  0.4306  0.2418  0.0029
  459SOL    HW1 1512   1.465   1.526   3.229  0.0637  0.1912  0.2562
  459SOL    HW2 1513   1.445   1.420   3.335  0.7528  0.6659  0.8636
  460SOL     OW 1514   2.177   2.627   0.833  0.0516 -0.4345 -0.3018
  460SOL    HW1 1515   2.126   2.577   0.898 -0.5862  1.7524  0.9738
  460SOL    HW2 1516   2.231   2.561   0.790 -0.6613 -2.2085  1.3531
  461SOL     OW 1517   0.665   1.089   2.295  0.2701  0.4167  0.3024
  461SOL    HW1 1518   0.632   1.152   2.359 -1.3191  1.1186 -1.1460
  461SOL    HW2 1519   0.699   1.143   2.224  1.0122 -0.3595  0.0519
  462SOL     OW 1520   2.475   0.932   2.191  0.4328 -0.1524 -0.0392
  462SOL    HW1 1521   2.564   0.899   2.182  1.6563  2.4120  1.4621
  462SOL    HW2 1522   2.469   1.002   2.126 -0.4866 -0.2910 -0.1139
  463SOL     OW 1523   3.728   3.510   1.220 -0.3114  0.4290  0.5848
  463SOL    HW1 1524   3.679   3.517   1.302 -0.0504 -0.3049  0.8097
  463SOL    HW2 1525   3.671   3.459   1.162  0.5553 -1.2796  1.1671
  464SOL     OW 1526   0.856   2.077   3.037  0.2846  0.3311 -0.3637
  464SOL    HW1 1527   0.784   2.100   3.096  0.9090  0.2464  0.4406
  464SOL    HW2 1528   0.862   1.982   3.042  0.2237  0.3075 -0.7062
  465SOL     OW 1529   3.322   2.341   3.694  0.0640 -0.0308  0.3906
  465SOL    HW1 1530   3.409   2.303   3.683 -0.1366 -0.5816  0.6404
  465SOL    HW2 1531   3.306   2.338   3.788  0.4865  1.7293  0.5511
  466SOL     OW 1532   0.577   1.012   1.266 -0.4989 -0.0224 -0.2128
  466SOL    HW1 1533   0.565   0.991   1.359 -1.2977  0.6489 -0.1554
  466SOL    HW2 1534   0.666   1.046   1.261 -0.3828 -0.2373  0.2771
  467SOL     OW 1535   0.214   2.653   2.361  0.1448 -0.0794 -0.2607
  467SOL    HW1 1536   0.223   2.565   2.398 -0.2727  0.2179  0.5707
  467SOL    HW2 1537   0.300   2.693   2.372  0.2893 -0.3216 -0.4923
  468SOL     OW 1538   1.499   3.648   0.399 -0.4948 -0.8079  0.3894
  468SOL    HW1 1539   1.593   3.669   0.395 -0.4573 -0.1980  2.7556
  468SOL    HW2 1540   1.492   3.564   0.355  0.7963  0.0626 -1.6580
  469SOL     OW 1541   2.664   3.230   2.294 -0.3515 -0.2857 -0.0387
  469SOL    HW1 1542   2.614   3.161   2.337  2.0747 -1.3862  1.2187
  469SOL    HW2 1543   2.711   3.274   2.364  1.9892 -0.6592 -1.2503
  470SOL     OW 1544   3.505   2.736   1.371 -0.2243  0.7762  0.4945
  470SOL    HW1 1545   3.505   2.820   1.326  0.1600  1.1564  1.1880
  470SOL    HW2 1546   3.485   2.758   1.462 -2.2390 -0.0974  0.3173
  471SOL     OW 1547   2.078   1.431   3.602  0.6137 -0.6717  0.1002
  471SOL    HW1 1548   2.019   1.405   3.531 -1.9830  0.9806  1.4726
  471SOL    HW2 1549   2.085   1.353   3.658 -3.1178 -0.1234  1.6275
  472SOL     OW 1550   1.015   0.966   0.994  0.0954  0.7026 -0.0732
  472SOL    HW1 1551   0.987   0.876   1.012  1.9985  0.5076  2.3354
  472SOL    HW2 1552   1.082   0.957   0.927 -1.7855  0.7054 -2.0788
  473SOL     OW 1553   0.298   1.236   2.063 -0.3287  0.5405 -0.0939
  473SOL    HW1 1554   0.331   1.147   2.075 -1.2190  0.3586  1.2296
  473SOL    HW2 1555   0.203   1.227   2.062 -0.4184  1.4315 -0.3406
  474SOL     OW 1556   2.056   1.305   2.648 -0.2660 -0.5761  0.0387
  474SOL    HW1 1557   2.066   1.325   2.742 -0.1451  2.2731 -0.4962
  474SOL    HW2 1558   2.145   1.310   2.613 -0.5132  0.3400 -0.5144
  475SOL     OW 1559   0.852   2.121   0.723  0.0567  0.2650  0.3581
  475SOL    HW1 1560   0.803   2.201   0.703 -1.6736 -0.3428  1.8573
  475SOL    HW2 1561   0.888   2.136   0.811  3.0055  0.8364 -0.8425
  476SOL     OW 1562   0.868   2.295   2.863  0.6746 -0.2223  0.6035
  476SOL    HW1 1563   0.869   2.240   2.942  1.3093 -1.7783 -0.4235
  476SOL    HW2 1564   0.948   2.270   2.817 -1.4487 -2.2031 -2.3760
  477SOL     OW 1565   0.493   1.090   0.164 -0.4849 -0.3695  0.5624
  477SOL    HW1 1566   0.446   1.017   0.206 -3.9096  0.8647 -0.7787
  477SOL    HW2 1567   0.497   1.065   0.071 -0.9353  0.7455  0.2300
  478SOL     OW 1568   1.235   2.940   1.310  0.2393 -0.2488  0.4739
  478SOL    HW1 1569   1.201   2.853   1.288  0.7327  0.1566 -2.2536
  478SOL    HW2 1570   1.307   2.953   1.249  1.5755  1.2383  2.2846
  479SOL     OW 1571   0.936   1.966   1.665 -0.4640 -0.2894  0.2733
  479SOL    HW1 1572   0.925   1.872   1.654  1.2357 -0.5393  0.4727
  479SOL    HW2 1573   0.926   1.980   1.759 -0.3715 -0.3202  0.2877
  480SOL     OW 1574   1.213   2.396   1.117 -0.1623 -0.2162  0.0919
  480SOL    HW1 1575   1.137   2.339   1.120  0.1370 -0.5934  1.0493
  480SOL    HW2 1576   1.180   2.482   1.143 -0.7401  0.2258 -1.9913
  481SOL     OW 1577   0.465   3.254   1.911  0.2786 -0.4967  0.5311
  481SOL    HW1 1578   0.535   3.199   1.945 -0.6798 -1.5091  0.9430
  481SOL    HW2 1579   0.403   3.261   1.983  0.3112  1.0534  0.4459
  482SOL     OW 1580   1.491   3.017   1.412 -0.3786 -0.3144 -0.0095
  482SOL    HW1 1581   1.403   3.015   1.448 -0.5354  0.1695 -0.3471
  482SOL    HW2 1582   1.479   3.044   1.320  0.0470 -1.0809 -0.2984
  483SOL     OW 1583   0.268   1.861   0.484  0.1207 -0.2943 -0.0866
  483SOL    HW1 1584   0.350   1.835   0.443 -0.6569  0.4162 -2.2106
  483SOL    HW2 1585   0.223   1.778   0.500 -0.1995 -0.5746 -2.1715
  484SOL     OW 1586   1.237   1.109   1.955 -0.4377 -0.0873  0.2043
  484SOL    HW1 1587   1.292   1.180   1.922 -0.1984 -0.2150  0.3320
  484SOL    HW2 1588   1.167   1.153   2.003  1.3452 -0.0071  2.8906
  485SOL     OW 1589   1.832   0.276   0.629 -0.6927 -0.4828 -0.2950
  485SOL    HW1 1590   1.890   0.297   0.556 -1.4246  0.5288 -0.5990
  485SOL    HW2 1591   1.759   0.337   0.621  0.3073  1.2862  2.5845
  486SOL     OW 1592   0.396   0.680   1.256  0.0904  0.0406  0.2144
  486SOL    HW1 1593   0.325   0.743   1.262  0.5208  0.5522 -0.0183
  486SOL    HW2 1594   0.380   0.632   1.174 -0.5152 -0.5050  0.6410
  487SOL     OW 1595   2.709   0.625   3.372 -0.6508  0.2096  0.2264
  487SOL    HW1 1596   2.773   0.576   3.321 -2.8328 -1.8726 -0.7001
  487SOL    HW2 1597   2.716   0.590   3.461 -1.1820 -0.7823 -0.1078
  488SOL     OW 1598   0.054   1.009   2.314  0.4273  0.0726 -0.2166
  488SOL    HW1 1599   0.020   0.998   2.225  1.8724  0.6528 -0.8761
  488SOL    HW2 1600   0.031   0.928   2.359  1.7091 -1.2294 -1.8244
  489SOL     OW 1601   1.868   3.113   2.393  0.9741 -0.0994 -0.1466
  489SOL    HW1 1602   1.961   3.095   2.380  0.9683  0.4397 -0.9904
  489SOL    HW2 1603   1.825   3.029   2.376  1.3335 -0.4875  0.7737
  490SOL     OW 1604   3.067   2.816   0.812 -0.0094 -0.7348  0.1438
  490SOL    HW1 1605   3.131   2.769   0.866  0.0245 -2.6354 -1.4508
  490SOL    HW2 1606   2.992   2.757   0.808 -1.4730  0.9699  1.0347
  491SOL     OW 1607   2.781   2.310   2.846  0.2237  0.0581 -0.0588
  491SOL    HW1 1608   2.770   2.385   2.788  0.2787  1.6925  1.9343
  491SOL    HW2 1609   2.692   2.289   2.874  0.2548 -0.3053 -0.2319
  492SOL     OW 1610  -0.035   2.042   1.716  0.6013 -0.2161 -0.0184
  492SOL    HW1 1611   0.048   2.003   1.742  0.0644 -0.0161  2.2265
  492SOL    HW2 1612  -0.010   2.125   1.675  1.5319  0.1953  1.2868
  493SOL     OW 1613   3.667   2.186   1.228  0.6842  0.7075  0.1567
  493SOL    HW1 1614   3.609   2.215   1.299  1.5568  1.8710  0.4288
  493SOL    HW2 1615   3.751   2.168   1.270  0.9168  0.3836 -0.4265
  494SOL     OW 1616   0.387   1.545   3.625  0.0411 -0.0705  0.7836
  494SOL    HW1 1617   0.416   1.561   3.715  0.5225  0.4872  0.5316
  494SOL    HW2 1618   0.424   1.459   3.603  2.4603  1.0828  0.0944
  495SOL     OW 1619   1.863   2.993   2.032  0.2590 -0.2197 -0.0230
  495SOL    HW1 1620   1.840   2.970   1.942 -1.1522 -2.2478  0.7853
  495SOL    HW2 1621   1.785   2.972   2.084  0.8931  1.2595  1.6551
  496SOL     OW 1622   1.475   2.877   3.413  0.0418 -0.5066 -1.1740
  496SOL    HW1 1623   1.382   2.855   3.403 -0.5160  1.7407 -1.3111
  496SOL    HW2 1624   1.491   2.945   3.347  0.9968  1.3076  0.8223
  497SOL     OW 1625   0.945   1.277   0.602  0.0535 -0.2438 -0.3638
  497SOL    HW1 1626   0.871   1.304   0.548  1.3013  1.0512 -1.5334
  497SOL    HW2 1627   0.991   1.359   0.622  2.1104 -1.1348 -1.1165
  498SOL     OW 1628   1.058   3.339   0.588 -0.2027 -0.2232  1.0197
  498SOL    HW1 1629   0.983   3.390   0.557  0.1426  0.7424  1.7065
  498SOL    HW2 1630   1.072   3.273   0.520 -0.6830  0.6006  0.0918
  499SOL     OW 1631   1.472   2.055   3.072  0.0878  0.1200 -0.1393
  499SOL    HW1 1632   1.519   2.102   3.003  0.4914  0.3320  0.2773
  499SOL    HW2 1633   1.414   1.995   3.024 -0.0734  0.6848 -0.6681
  500SOL     OW 1634   3.135   3.639   0.365  0.2018 -0.0190 -0.0998
  500SOL    HW1 1635   3.209   3.692   0.397 -0.5044  1.0233 -0.1600
  500SOL    HW2 1636   3.146   3.637   0.270  2.2484 -3.0403  0.0543
  501SOL     OW 1637   2.872   3.653   0.407  0.1656 -0.0002  0.5094
  501SOL    HW1 1638   2.845   3.561   0.410 -0.1386 -0.0708 -2.1863
  501SOL    HW2 1639   2.962   3.652   0.375 -0.8652  0.6372 -2.8234
  502SOL     OW 1640   1.648   3.426   1.231 -0.1384 -0.4348  0.0388
  502SOL    HW1 1641   1.696   3.344   1.242 -0.9568 -0.7527  1.4227
  502SOL    HW2 1642   1.693   3.471   1.159  0.5629 -1.9096 -0.4781
  503SOL     OW 1643   1.238   2.752   1.102 -0.2434 -0.2056  0.0561
  503SOL    HW1 1644   1.251   2.801   1.021  1.2769 -0.1500  0.3066
  503SOL    HW2 1645   1.158   2.702   1.088 -1.7792  2.1619 -0.3012
  504SOL     OW 1646   2.526   1.909   1.727  1.0680 -0.4815  0.7427
  504SOL    HW1 1647   2.547   1.976   1.793 -1.2818  0.0866  1.0285
  504SOL    HW2 1648   2.554   1.948   1.644  0.0627  0.7567  0.9458
  505SOL     OW 1649   0.831   2.919   0.957 -0.1385  0.2970 -0.1696
  505SOL    HW1 1650   0.902   2.975   0.988  0.4019 -0.5689  0.1918
  505SOL    HW2 1651   0.836   2.925   0.861  1.6967 -1.2558 -0.2286
  506SOL     OW 1652   2.372   1.878   2.989  0.3547 -0.4145 -0.1212
  506SOL    HW1 1653   2.321   1.804   2.958  1.6789 -1.0300 -0.8720
  506SOL    HW2 1654   2.434   1.897   2.918 -0.5149  1.9720 -0.3343
  507SOL     OW 1655   0.366   2.971   2.322  0.1072  0.5350  0.6066
  507SOL    HW1 1656   0.431   2.977   2.392  0.2924 -0.1455  0.5039
  507SOL    HW2 1657   0.288   3.012   2.359 -0.3235 -1.2760  1.8906
  508SOL     OW 1658   2.573   2.635   3.033 -0.1891 -0.2257 -0.3529
  508SOL    HW1 1659   2.544   2.594   3.115 -0.5386  1.4263  0.3951
  508SOL    HW2 1660   2.497   2.685   3.004  1.2334  2.7394  0.6855
  509SOL     OW 1661   2.257   3.627   2.327  0.5955 -0.2265  0.0598
  509SOL    HW1 1662   2.196   3.697   2.350  0.7370 -0.4013  0.9870
  509SOL    HW2 1663   2.243   3.559   2.393  1.7241 -0.3060  0.2396
  510SOL     OW 1664   3.707   3.021   2.854 -0.4019  0.3346  0.5346
  510SOL    HW1 1665   3.721   3.040   2.761 -3.2387  3.5857  0.5534
  510SOL    HW2 1666   3.615   2.993   2.859  0.3757 -2.2319  2.1678
  511SOL     OW 1667   2.132   2.380   2.736 -0.1425 -0.9142 -0.3438
  511SOL    HW1 1668   2.190   2.450   2.705 -0.2030 -1.1220 -0.9312
  511SOL    HW2 1669   2.188   2.304   2.745 -0.3906 -1.2117 -1.2636
  512SOL     OW 1670   1.753   2.858   2.737 -0.0432 -0.1795 -0.7436
  512SOL    HW1 1671   1.743   2.943   2.780  0.4509  0.6938 -2.2829
  512SOL    HW2 1672   1.743   2.876   2.643  0.8532 -1.6810 -1.1776
  513SOL     OW 1673   2.074   0.733   2.856  0.0647 -0.2832  0.1759
  513SOL    HW1 1674   2.048   0.824   2.846 -1.7880 -0.2774  3.6452
  513SOL    HW2 1675   1.994   0.683   2.839  0.5613 -1.1258  0.2173
  514SOL     OW 1676   2.211   3.337   3.718  0.2234  0.7665 -0.0231
  514SOL    HW1 1677   2.197   3.344   3.624  1.3535  1.0373 -0.1908
  514SOL    HW2 1678   2.305   3.350   3.729  0.1927  0.1757  1.0907
  515SOL     OW 1679   2.282   0.278   0.088  0.0945  0.2481 -0.7157
  515SOL    HW1 1680   2.310   0.292  -0.003 -0.3085 -0.0249 -0.8844
  515SOL    HW2 1681   2.188   0.259   0.081  0.5533 -2.4859 -0.5054
  516SOL     OW 1682   2.434   3.049   1.704  0.4147 -0.1394 -0.1988
  516SOL    HW1 1683   2.353   2.999   1.710  0.7611 -0.4905  2.4383
  516SOL    HW2 1684   2.409   3.138   1.731  1.1152 -0.5593  1.9674
  517SOL     OW 1685   1.483   1.038   1.451  0.0640  0.3360 -0.1345
  517SOL    HW1 1686   1.472   0.943   1.449  0.2134  0.2912  0.7010
  517SOL    HW2 1687   1.477   1.060   1.544  0.7705  1.0512 -0.2534
  518SOL     OW 1688   3.347   2.680   1.832 -0.1623  0.5182  0.4320
  518SOL    HW1 1689   3.309   2.592   1.823 -0.8690  1.0543 -3.1369
  518SOL    HW2 1690   3.272   2.737   1.848 -0.1305  0.8368 -0.5083
  519SOL     OW 1691   1.448   1.258   0.641 -0.3810  0.5994 -0.1886
  519SOL    HW1 1692   1.438   1.208   0.560 -2.6300  0.6095  0.0206
  519SOL    HW2 1693   1.414   1.345   0.620 -0.0410  0.9018  0.4889
  520SOL     OW 1694   1.812   3.597   3.260 -0.0245  0.0252  0.1408
  520SOL    HW1 1695   1.870   3.521   3.256  0.7598  0.4720  2.0658
  520SOL    HW2 1696   1.747   3.580   3.192 -0.2713 -2.6912  0.9304
  521SOL     OW 1697   0.849   0.915   2.109  0.4277 -0.1397 -0.2818
  521SOL    HW1 1698   0.861   0.975   2.035  0.1234  0.1576 -0.0930
  521SOL    HW2 1699   0.844   0.973   2.185  3.0843 -0.5110  0.2952
  522SOL     OW 1700   2.137   1.718   3.677 -0.1963  0.1508 -0.0629
  522SOL    HW1 1701   2.044   1.736   3.663  0.2637  2.4511 -0.4659
  522SOL    HW2 1702   2.148   1.628   3.647 -1.4577  1.2088 -4.3491
  523SOL     OW 1703   0.411   1.253   0.602  0.1090 -0.2926 -0.3544
  523SOL    HW1 1704   0.361   1.237   0.523 -0.9868 -0.0217  0.2556
  523SOL    HW2 1705   0.452   1.339   0.588 -0.1929 -0.1843 -0.5749
  524SOL     OW 1706   3.222   2.807   2.515 -0.3572 -0.0708 -0.1739
  524SOL    HW1 1707   3.148   2.756   2.481  1.2230 -2.2820 -0.5312
  524SOL    HW2 1708   3.188   2.848   2.595 -1.6336 -2.1227  0.4218
  525SOL     OW 1709   2.391   0.377   2.777  0.1652  0.0274  0.1196
  525SOL    HW1 1710   2.480   0.410   2.767 -0.0811  1.8472  3.0163
  525SOL    HW2 1711   2.379   0.367   2.871 -2.7748  0.0113 -0.1645
  526SOL     OW 1712   0.486   2.393   3.161  0.0259  0.1256 -0.0152
  526SOL    HW1 1713   0.413   2.331   3.155  0.7052 -0.8454  1.1950
  526SOL    HW2 1714   0.445   2.479   3.164 -0.9939 -0.3129 -0.6412
  527SOL     OW 1715   2.810   1.727   0.630  0.1373 -0.1708  0.0054
  527SOL    HW1 1716   2.849   1.749   0.545 -1.8323  0.0151 -0.8909
  527SOL    HW2 1717   2.764   1.807   0.656  1.0222 -0.0945  1.4752
  528SOL     OW 1718   1.657   0.997   3.294 -0.3731 -0.4840 -0.0494
  528SOL    HW1 1719   1.723   0.967   3.231  1.0600 -0.2072  1.2307
  528SOL    HW2 1720   1.707   1.009   3.375 -1.2641  3.2752  0.0870
  529SOL     OW 1721   1.261   1.159   0.077 -0.1233  0.3517 -0.2833
  529SOL    HW1 1722   1.209   1.172  -0.002 -0.0784 -1.0217 -0.5760
  529SOL    HW2 1723   1.197   1.141   0.145 -0.0786 -0.7411 -0.5146
  530SOL     OW 1724   1.769   1.439   2.725 -0.3845  0.4121  0.1381
  530SOL    HW1 1725   1.811   1.498   2.662  1.7513  0.1895  1.2621
  530SOL    HW2 1726   1.759   1.357   2.677 -0.6351  0.8245 -0.5257
  531SOL     OW 1727   3.390   2.049   0.348 -0.0570  0.1626  0.3424
  531SOL    HW1 1728   3.421   2.002   0.271  3.5929  0.5539  1.4006
  531SOL    HW2 1729   3.381   1.981   0.415  1.7474  0.4141  0.8903
  532SOL     OW 1730   0.459   2.974   1.619 -0.2764  0.5264 -0.4231
  532SOL    HW1 1731   0.370   2.995   1.649 -0.0225  0.0977  0.6790
  532SOL    HW2 1732   0.488   2.904   1.677  1.1008  1.2375 -0.2069
  533SOL     OW 1733   2.195   3.266   3.453  0.3791 -0.0840 -0.0108
  533SOL    HW1 1734   2.195   3.241   3.360 -1.7358 -2.3184  0.4775
  533SOL    HW2 1735   2.160   3.189   3.498 -0.6673  1.7091  2.4315
  534SOL     OW 1736   3.118   3.405   2.563  0.6764 -0.2436 -0.1438
  534SOL    HW1 1737   3.107   3.318   2.602 -3.4276  0.0384 -0.1982
  534SOL    HW2 1738   3.085   3.465   2.630 -1.7525  0.6829 -2.0301
  535SOL     OW 1739   2.862   0.879   2.810  0.4262  0.3553  0.3743
  535SOL    HW1 1740   2.897   0.792   2.792  0.1834  0.6202 -1.7264
  535SOL    HW2 1741   2.933   0.939   2.786  0.1183  0.7648  0.4682
  536SOL     OW 1742   0.343   1.678   0.129 -0.5139 -0.1232  0.4299
  536SOL    HW1 1743   0.338   1.657   0.223 -1.7740 -0.9522  0.2024
  536SOL    HW2 1744   0.350   1.773   0.127 -1.6455  0.0098  1.3614
  537SOL     OW 1745   0.140   1.376   0.425 -0.2624 -0.0381  0.0801
  537SOL    HW1 1746   0.055   1.399   0.389 -0.2223 -1.0557 -0.6792
  537SOL    HW2 1747   0.120   1.324   0.502 -0.3290  1.2100  0.9447
  538SOL     OW 1748   1.705   2.457   1.204  0.5875 -0.5366  0.5662
  538SOL    HW1 1749   1.619   2.482   1.173  0.3559 -0.9540  0.8622
  538SOL    HW2 1750   1.755   2.539   1.207  0.5457 -0.4409 -0.6494
  539SOL     OW 1751   0.586   2.524   0.484  0.0456  0.2238 -0.1000
  539SOL    HW1 1752   0.544   2.560   0.563  0.2752  0.6162 -0.1540
  539SOL    HW2 1753   0.513   2.499   0.428 -0.2941  3.9345 -1.6305
  540SOL     OW 1754   3.273   3.463   3.421 -0.1360  0.2534  0.0168
  540SOL    HW1 1755   3.337   3.502   3.481  0.4910  1.1224 -1.1803
  540SOL    HW2 1756   3.244   3.384   3.466  2.4991 -0.7034  0.1879
  541SOL     OW 1757   0.166   2.152   1.417  0.1206 -0.3017  0.7820
  541SOL    HW1 1758   0.150   2.057   1.416  0.0686 -0.3305 -1.5397
  541SOL    HW2 1759   0.179   2.173   1.510  0.5138 -2.6317  1.3272
  542SOL     OW 1760   3.443   0.711   3.002 -0.2466  0.1017 -0.6458
  542SOL    HW1 1761   3.398   0.766   3.066 -0.8923  0.4968 -1.4270
  542SOL    HW2 1762   3.465   0.631   3.051 -1.3265  0.1162 -0.1139
  543SOL     OW 1763   0.772   3.022   0.663 -0.5808 -0.9571 -0.1654
  543SOL    HW1 1764   0.703   3.075   0.701  0.8780  2.9656 -2.4139
  543SOL    HW2 1765   0.741   3.003   0.574  1.0457  0.6869 -1.1309
  544SOL     OW 1766   1.351   2.513   3.663  0.1792  0.0921  0.4685
  544SOL    HW1 1767   1.303   2.532   3.582 -0.4094  0.4298  0.8906
  544SOL    HW2 1768   1.382   2.423   3.651 -0.4902 -0.1099  0.1422
  545SOL     OW 1769   3.060   2.936   0.583 -0.5730  0.6988 -0.5844
  545SOL    HW1 1770   2.984   2.994   0.592 -0.3313  0.7509  1.5168
  545SOL    HW2 1771   3.069   2.894   0.668 -0.2598 -1.9079 -1.8033
  546SOL     OW 1772   0.087   2.957   1.485  1.3028  0.0660 -0.0812
  546SOL    HW1 1773   0.164   2.984   1.434  1.6335  0.9183  0.8366
  546SOL    HW2 1774   0.104   2.991   1.573 -0.3464  0.7028  0.0239
  547SOL     OW 1775   3.177   3.142   3.285 -0.7091  0.1382  0.1950
  547SOL    HW1 1776   3.093   3.187   3.284 -1.2789 -0.8821  0.2125
  547SOL    HW2 1777   3.222   3.172   3.207 -1.2547  0.4102 -0.0167
  548SOL     OW 1778   2.628   2.950   2.496 -0.7570 -0.3884 -0.1736
  548SOL    HW1 1779   2.554   3.002   2.526 -0.0654 -0.5838  2.0576
  548SOL    HW2 1780   2.635   2.879   2.559  1.7176 -0.0082  0.1050
  549SOL     OW 1781   2.763   0.020   3.105  0.0026  0.0714  0.1626
  549SOL    HW1 1782   2.687   0.052   3.057 -0.9663 -0.0758  1.5738
  549SOL    HW2 1783   2.838   0.058   3.059 -0.9558  1.1359 -0.5591
  550SOL     OW 1784   0.725   0.056   2.276 -0.0971 -0.1393  0.7242
  550SOL    HW1 1785   0.792   0.071   2.343  1.1446 -1.2584 -0.2088
  550SOL    HW2 1786   0.662  -0.003   2.317  0.5277 -0.6321  0.9851
  551SOL     OW 1787   2.781   0.430   2.351 -0.2009  0.1893 -0.0417
  551SOL    HW1 1788   2.837   0.353   2.352 -1.0346 -0.4480  1.8520
  551SOL    HW2 1789   2.835   0.500   2.389 -0.4061 -0.2392  1.0805
  552SOL     OW 1790   2.095   3.039   3.568  0.1397 -0.1196  0.1622
  552SOL    HW1 1791   2.146   3.064   3.645 -0.6053  0.6399  0.4236
  552SOL    HW2 1792   2.058   2.953   3.591  0.8867 -0.4517  0.1624
  553SOL     OW 1793   1.745   3.477   0.803  0.2942 -0.1148 -0.3219
  553SOL    HW1 1794   1.765   3.501   0.893  0.5280 -0.9312 -0.1480
  553SOL    HW2 1795   1.649   3.478   0.799  0.2598  3.2112 -0.9947
  554SOL     OW 1796   2.997   3.049   1.838  0.1358  0.0763  0.3861
  554SOL    HW1 1797   2.987   3.127   1.784 -2.6861  0.0344  0.7250
  554SOL    HW2 1798   2.926   3.054   1.902  0.4807 -2.2604  1.0512
  555SOL     OW 1799   2.526   0.473   3.257  0.7016  0.0803  0.1678
  555SOL    HW1 1800   2.586   0.543   3.283  0.3724  0.6144 -0.4914
  555SOL    HW2 1801   2.554   0.397   3.308  0.5327  0.9079  1.5508
  556SOL     OW 1802   1.183   2.713   1.659 -0.3712  0.2314  0.0316
  556SOL    HW1 1803   1.109   2.773   1.650  0.5313  1.5437  0.8758
  556SOL    HW2 1804   1.260   2.770   1.654  0.5755 -1.0411 -0.4009
  557SOL     OW 1805   1.923   3.312   0.654  0.1488  0.3287  0.2532
  557SOL    HW1 1806   1.977   3.273   0.723  0.2135  0.7147  0.4234
  557SOL    HW2 1807   1.891   3.394   0.692  0.5261  0.7469 -0.3210
  558SOL     OW 1808   3.538   2.793   3.110  0.5471 -0.1537  0.0370
  558SOL    HW1 1809   3.532   2.832   3.198  1.3887  1.8958 -0.7345
  558SOL    HW2 1810   3.631   2.774   3.098  0.4123 -0.6039 -0.3466
  559SOL     OW 1811   1.483   3.099   2.287  0.4056 -0.3602 -0.3661
  559SOL    HW1 1812   1.409   3.051   2.249 -0.9473  1.0635  0.3069
  559SOL    HW2 1813   1.510   3.046   2.362 -0.9517 -0.1969  0.2710
  560SOL     OW 1814   3.348   0.454   3.616  0.1365  0.4646  0.1879
  560SOL    HW1 1815   3.291   0.426   3.544 -0.2513  1.1262  0.2230
  560SOL    HW2 1816   3.426   0.489   3.573 -0.0673  0.7992  0.0788
  561SOL     OW 1817   2.456   1.221   3.545  0.2900  0.0320  0.3839
  561SOL    HW1 1818   2.532   1.199   3.599  0.0571  0.6264  0.9655
  561SOL    HW2 1819   2.387   1.161   3.575  0.6734 -0.9007 -0.5363
  562SOL     OW 1820   1.715   0.104   3.327  0.8146 -0.1182  0.4011
  562SOL    HW1 1821   1.736   0.109   3.420  1.8911 -1.6569  0.2861
  562SOL    HW2 1822   1.764   0.028   3.295  1.3839  1.0252 -1.6616
  563SOL     OW 1823   1.403   2.183  -0.033  0.0874  0.1802  0.3117
  563SOL    HW1 1824   1.350   2.158   0.043 -0.3817  0.9569  0.2483
  563SOL    HW2 1825   1.470   2.241   0.003 -0.2275  0.6729  0.1230
  564SOL     OW 1826   0.599   0.702   2.217 -0.0137  0.3717  0.0229
  564SOL    HW1 1827   0.664   0.739   2.276 -1.8556  2.7289  0.7605
  564SOL    HW2 1828   0.637   0.711   2.130  0.8891  1.1242  0.4792
  565SOL     OW 1829   3.635   0.835   2.769  0.3285  0.6422  0.1245
  565SOL    HW1 1830   3.566   0.805   2.829  0.8457  0.7996  0.8139
  565SOL    HW2 1831   3.699   0.878   2.826  1.2081  0.1266 -0.4533
  566SOL     OW 1832   2.538   1.986   2.465  0.8355  0.0053  0.2283
  566SOL    HW1 1833   2.446   1.975   2.486  0.8845 -0.4956  0.1882
  566SOL    HW2 1834   2.579   1.903   2.489  0.7503 -0.9459 -2.6071
  567SOL     OW 1835   1.913   0.895   1.000  0.1091  0.4418 -0.0728
  567SOL    HW1 1836   1.915   0.950   0.922  1.6158  0.6614  0.0991
  567SOL    HW2 1837   1.826   0.854   0.998 -0.8842  2.4541 -0.4394
  568SOL     OW 1838   0.417   2.327   0.251  0.2158 -0.0162  0.4411
  568SOL    HW1 1839   0.423   2.400   0.189  1.4270  0.5048  1.1425
  568SOL    HW2 1840   0.339   2.347   0.304  0.8815  1.1310  1.0347
  569SOL     OW 1841   3.415   2.597   2.923  0.2002  0.0114  0.1872
  569SOL    HW1 1842   3.416   2.606   2.828  0.4352  0.8099  0.2595
  569SOL    HW2 1843   3.469   2.669   2.955 -2.1360  1.5177  1.0440
  570SOL     OW 1844   0.436   1.022   2.182  0.0929 -0.4102  0.1896
  570SOL    HW1 1845   0.386   0.993   2.259  0.0410  1.6345  0.9924
  570SOL    HW2 1846   0.518   1.054   2.217  1.0842 -1.6339 -0.9036
  571SOL     OW 1847   2.810   2.487   1.062  0.1245  0.1585 -0.3007
  571SOL    HW1 1848   2.860   2.444   1.131  0.6891  0.1312 -0.7215
  571SOL    HW2 1849   2.767   2.561   1.106 -1.8108 -1.4779  0.6940
  572SOL     OW 1850   1.277   3.578   2.148  0.0332  0.8958  0.3000
  572SOL    HW1 1851   1.256   3.667   2.118  1.4044  0.4590 -2.2685
  572SOL    HW2 1852   1.193   3.541   2.173 -1.1862  1.7200 -2.2318
  573SOL     OW 1853   1.991   1.713   2.983 -0.1720 -0.0117 -0.0311
  573SOL    HW1 1854   1.929   1.783   3.000 -0.5874 -0.5940  0.9180
  573SOL    HW2 1855   1.996   1.664   3.065 -0.7072 -1.7236 -0.9774
  574SOL     OW 1856   0.157   1.005   3.339 -0.5308 -0.1505  0.6606
  574SOL    HW1 1857   0.137   1.078   3.281 -0.6527 -1.2663 -0.7580
  574SOL    HW2 1858   0.134   0.927   3.288  0.6577 -1.2216  1.6952
  575SOL     OW 1859   0.990   3.585   2.269  0.4183 -0.2625 -0.3817
  575SOL    HW1 1860   0.956   3.652   2.209  0.2852  0.3479  0.3598
  575SOL    HW2 1861   0.939   3.597   2.349  1.6151 -0.0715  0.3692
  576SOL     OW 1862   3.409   1.693   1.032 -0.4268  0.4900 -0.1423
  576SOL    HW1 1863   3.451   1.777   1.045 -1.0397  0.9564 -1.0452
  576SOL    HW2 1864   3.354   1.705   0.954 -0.9184 -0.5857  0.0110
  577SOL     OW 1865   3.264   0.302   0.729  0.1529  0.3513 -0.5162
  577SOL    HW1 1866   3.231   0.376   0.677  1.2416  0.4829 -1.0474
  577SOL    HW2 1867   3.319   0.343   0.796 -0.0173  0.0781 -0.2082
  578SOL     OW 1868   2.768   1.285   3.140  0.0652 -0.1918 -0.2717
  578SOL    HW1 1869   2.844   1.280   3.082 -0.4563  0.7958 -1.0559
  578SOL    HW2 1870   2.702   1.334   3.091 -0.1218  1.3720  1.4220
  579SOL     OW 1871   2.994   0.630   0.575 -0.5154  0.1784  0.1655
  579SOL    HW1 1872   2.921   0.670   0.528 -0.6970 -0.8074 -0.4320
  579SOL    HW2 1873   2.994   0.539   0.545  1.0310  0.1841  0.0766
  580SOL     OW 1874   1.485   2.680   1.486  0.3116 -0.0807  0.0098
  580SOL    HW1 1875   1.517   2.670   1.575  0.8118 -3.2838 -0.4350
  580SOL    HW2 1876   1.407   2.625   1.481  0.1980  0.1597 -1.5001
  581SOL     OW 1877   1.608   1.541   2.951  0.2083 -0.0379  0.5008
  581SOL    HW1 1878   1.635   1.480   3.019  2.7373 -0.3461 -0.6685
  581SOL    HW2 1879   1.661   1.517   2.875 -0.0352  2.4713 -0.5473
  582SOL     OW 1880   3.679   3.062   3.365  0.0663 -0.0924  0.0122
  582SOL    HW1 1881   3.709   3.016   3.443 -1.5902  0.2909  0.9249
  582SOL    HW2 1882   3.584   3.050   3.365 -0.1520  1.3572 -1.0014
  583SOL     OW 1883   3.636   0.223   2.575  0.6126  0.0036 -0.1254
  583SOL    HW1 1884   3.644   0.151   2.514  0.2393  0.8220 -1.1785
  583SOL    HW2 1885   3.723   0.262   2.579  0.7345 -0.2958  0.1874
  584SOL     OW 1886   1.805   3.710   2.655  0.4922  0.4672  0.2182
  584SOL    HW1 1887   1.848   3.796   2.652 -0.1788  0.8048 -2.4589
  584SOL    HW2 1888   1.866   3.654   2.703  2.0406  1.8884  0.0059
  585SOL     OW 1889   1.352   2.415   1.466 -0.0281 -0.3926  0.2902
  585SOL    HW1 1890   1.366   2.378   1.553  1.3207  0.9198  0.6520
  585SOL    HW2 1891   1.391   2.351   1.406 -0.6993 -1.1552  0.6388
  586SOL     OW 1892   2.002   1.506   0.126  0.1889 -0.3578 -0.0416
  586SOL    HW1 1893   1.990   1.532   0.035  0.1265  1.7213  0.4997
  586SOL    HW2 1894   2.019   1.412   0.122 -0.5229 -0.4606 -2.1196
  587SOL     OW 1895   1.966   1.104   0.799  0.1344 -0.0082 -0.1324
  587SOL    HW1 1896   1.924   1.152   0.728 -0.3758 -0.1400  0.0811
  587SOL    HW2 1897   1.994   1.021   0.759  0.1597  0.0631 -0.2626
  588SOL     OW 1898   0.284   3.585   2.755 -0.1928  0.2472  0.1287
  588SOL    HW1 1899   0.350   3.638   2.711 -0.3421  0.1739 -0.1793
  588SOL    HW2 1900   0.279   3.504   2.704 -0.6246  0.3119  0.0634
  589SOL     OW 1901   1.829   1.938   2.119  0.0148 -0.4758 -0.1738
  589SOL    HW1 1902   1.841   1.871   2.052  0.0809  0.9820 -1.6465
  589SOL    HW2 1903   1.885   1.909   2.192 -1.1332 -2.8186 -0.1210
  590SOL     OW 1904   2.917   2.819   1.731  0.2157  0.0887  0.4638
  590SOL    HW1 1905   2.965   2.887   1.778 -0.6267  0.3381  0.9832
  590SOL    HW2 1906   2.826   2.848   1.732 -0.1863 -1.0957  0.8003
  591SOL     OW 1907   3.644   0.574   1.715  0.1560  0.4192 -0.4388
  591SOL    HW1 1908   3.559   0.579   1.671  0.9547  0.8132 -1.9929
  591SOL    HW2 1909   3.687   0.497   1.677  0.5316  0.2449  0.3066
  592SOL     OW 1910   1.002   2.374   1.720  0.1215 -0.3702  0.0770
  592SOL    HW1 1911   0.967   2.315   1.653 -0.5538  0.7119 -0.5384
  592SOL    HW2 1912   0.984   2.329   1.803 -4.3597  0.8195 -0.0159
  593SOL     OW 1913   1.117   3.346   1.868 -0.0070  0.6683  0.2704
  593SOL    HW1 1914   1.183   3.413   1.854 -0.2112  0.9139  0.4738
  593SOL    HW2 1915   1.161   3.263   1.847  0.1621  0.8897 -0.2511
  594SOL     OW 1916   2.262   1.405   1.351  0.3762 -0.0953 -0.0872
  594SOL    HW1 1917   2.272   1.453   1.269 -0.4322  0.9077  0.3728
  594SOL    HW2 1918   2.343   1.422   1.399  0.2702  0.4737 -0.1045
  595SOL     OW 1919   3.759   3.476   0.578 -0.2150 -0.0111  0.0859
  595SOL    HW1 1920   3.745   3.503   0.669 -3.4170  3.2404 -1.1312
  595SOL    HW2 1921   3.678   3.430   0.555  0.0545  0.2530 -1.4530
  596SOL     OW 1922   0.384   3.452   0.322 -0.5228  0.7343 -0.0452
  596SOL    HW1 1923   0.415   3.405   0.399 -2.1135  0.6897  0.6159
  596SOL    HW2 1924   0.366   3.384   0.257 -2.7292  0.3432  0.8741
  597SOL     OW 1925   2.509   0.257   0.810  0.6231  0.0547 -0.0726
  597SOL    HW1 1926   2.517   0.315   0.886  0.2221  1.2034 -0.8763
  597SOL    HW2 1927   2.501   0.317   0.736 -0.1807 -1.0440 -0.8911
  598SOL     OW 1928   2.865   1.540   2.388  1.0963 -0.2436 -0.2276
  598SOL    HW1 1929   2.926   1.506   2.323  2.2261  1.7944 -0.3316
  598SOL    HW2 1930   2.882   1.489   2.467  1.0597 -1.4444 -0.9669
  599SOL     OW 1931   0.740   0.855   0.461  0.7434 -0.4856 -0.1266
  599SOL    HW1 1932   0.705   0.770   0.434 -2.4208 -0.1842  2.4025
  599SOL    HW2 1933   0.665   0.914   0.460  1.9385  1.2333  2.0651
  600SOL     OW 1934   3.491   3.524   1.043  0.0882 -0.3684  0.6214
  600SOL    HW1 1935   3.462   3.446   1.092 -2.7501 -0.8736 -1.5626
  600SOL    HW2 1936   3.461   3.598   1.096 -0.2893 -0.8244  1.0588
  601SOL     OW 1937   1.511   0.581   2.922 -0.1322 -0.2454  0.0784
  601SOL    HW1 1938   1.467   0.500   2.895 -2.3250  0.2800  1.7704
  601SOL    HW2 1939   1.538   0.622   2.839 -1.7302 -1.2546 -1.0108
  602SOL     OW 1940   3.121   2.786   2.180  0.3134 -0.1816  0.1257
  602SOL    HW1 1941   3.120   2.861   2.240 -1.8726  0.1709 -0.2909
  602SOL    HW2 1942   3.043   2.736   2.202 -0.0008 -0.5814 -1.7692
  603SOL     OW 1943   2.442   2.168   1.192  0.6021  0.3064  0.0535
  603SOL    HW1 1944   2.359   2.122   1.202  0.4916  0.5460  0.2448
  603SOL    HW2 1945   2.438   2.239   1.256  1.9285 -1.0907  1.7803
  604SOL     OW 1946   0.234   1.570   3.206  0.0132 -0.3985  0.1449
  604SOL    HW1 1947   0.301   1.636   3.223 -0.8767  0.6955 -0.4474
  604SOL    HW2 1948   0.262   1.494   3.256  2.5115 -0.5253 -1.2913
  605SOL     OW 1949   1.246   2.832   0.256 -0.2699  0.8276  0.1804
  605SOL    HW1 1950   1.301   2.907   0.234  0.4464 -0.1088 -1.3941
  605SOL    HW2 1951   1.172   2.838   0.196 -0.9074  0.9900  0.9625
  606SOL     OW 1952   3.157   2.357   0.883 -0.2730 -0.3457 -0.0355
  606SOL    HW1 1953   3.235   2.393   0.842 -0.9208  1.8914  0.5804
  606SOL    HW2 1954   3.172   2.367   0.977 -0.3018 -2.1575  0.1899
  607SOL     OW 1955   0.937   0.884   2.671 -0.0509 -0.0312  0.3303
  607SOL    HW1 1956   0.892   0.903   2.753 -0.9766 -1.8654  0.2972
  607SOL    HW2 1957   0.973   0.797   2.683  2.0598  0.6937 -0.3073
  608SOL     OW 1958   3.302   2.210   2.151 -0.5327  0.3636  0.0512
  608SOL    HW1 1959   3.389   2.173   2.162 -0.3715  1.1895  2.1223
  608SOL    HW2 1960   3.276   2.237   2.240 -3.3857 -0.9345 -0.2737
  609SOL     OW 1961   0.236   2.700   0.644  0.1035  0.1707 -0.2805
  609SOL    HW1 1962   0.330   2.706   0.661  0.4740 -0.6362 -1.8756
  609SOL    HW2 1963   0.201   2.651   0.719  0.7747  1.2679  0.7942
  610SOL     OW 1964   2.685   1.161   1.747  0.4956  0.1306 -0.3630
  610SOL    HW1 1965   2.776   1.149   1.775  0.6563  1.1417 -0.4034
  610SOL    HW2 1966   2.671   1.096   1.679  1.1342 -0.1434 -0.2362
  611SOL     OW 1967   2.995   0.538   0.105 -0.5767  0.0150 -0.2182
  611SOL    HW1 1968   3.051   0.544   0.183 -2.3073  2.6745  0.9918
  611SOL    HW2 1969   3.005   0.448   0.076  2.4968 -0.2762  1.2480
  612SOL     OW 1970   2.479   0.728   1.084 -0.3501 -0.0946 -0.7682
  612SOL    HW1 1971   2.465   0.798   1.021 -0.3648 -0.4672 -1.1909
  612SOL    HW2 1972   2.478   0.771   1.170 -0.8805  0.3404 -0.9870
  613SOL     OW 1973   3.697   1.976   3.648 -0.6305 -0.2437 -0.3262
  613SOL    HW1 1974   3.746   1.900   3.677 -0.2903  0.4791  1.1027
  613SOL    HW2 1975   3.686   1.964   3.554  0.2089 -1.5867 -0.2676
  614SOL     OW 1976   0.183   0.907   2.563  0.0023 -0.2134  0.0681
  614SOL    HW1 1977   0.109   0.966   2.548 -1.1429 -1.1026  1.8163
  614SOL    HW2 1978   0.153   0.822   2.532  1.3985 -0.0653 -1.8218
  615SOL     OW 1979   0.299   2.367   0.949 -0.0393  0.3881  0.4908
  615SOL    HW1 1980   0.364   2.331   0.889 -0.9396 -0.2916 -0.0952
  615SOL    HW2 1981   0.255   2.291   0.986 -1.0770  0.8563  0.2450
  616SOL     OW 1982   0.638   2.809   2.233  0.4284  0.7676 -0.1198
  616SOL    HW1 1983   0.671   2.729   2.191  1.5452  0.4055  1.3838
  616SOL    HW2 1984   0.648   2.794   2.327  0.0938  2.4379  0.2244
  617SOL     OW 1985   1.148   2.578   3.417 -0.7640  0.4910 -0.3242
  617SOL    HW1 1986   1.191   2.565   3.333  1.1818 -0.7269  0.7827
  617SOL    HW2 1987   1.073   2.635   3.397 -0.8540 -0.4046 -2.9816
  618SOL     OW 1988   0.588   0.145   3.216  0.2338  0.0955 -0.2214
  618SOL    HW1 1989   0.581   0.113   3.127  2.9628 -0.3888 -0.3377
  618SOL    HW2 1990   0.571   0.068   3.271 -0.8416  0.2582 -0.3060
  619SOL     OW 1991   3.463   2.843   2.036  0.0022  0.1651  0.4935
  619SOL    HW1 1992   3.444   2.930   2.071  0.5910  1.2604 -1.7309
  619SOL    HW2 1993   3.389   2.824   1.978  0.1789 -0.5543  0.4954
  620SOL     OW 1994   2.347   2.832   0.918 -0.4218  0.3328 -0.4496
  620SOL    HW1 1995   2.287   2.762   0.892 -0.9802  0.9007 -0.7159
  620SOL    HW2 1996   2.387   2.800   0.999 -1.6398  0.2551  0.1452
  621SOL     OW 1997   2.564   0.888   0.750  0.1355 -0.2757  0.2221
  621SOL    HW1 1998   2.648   0.843   0.743  0.5021  0.6379 -2.5517
  621SOL    HW2 1999   2.579   0.959   0.812  0.9530 -1.0302  0.9012
  622SOL     OW 2000   3.288   0.617   1.135  0.3339 -0.0022  0.2614
  622SOL    HW1 2001   3.211   0.660   1.097  0.4862  0.3322  0.3249
  622SOL    HW2 2002   3.261   0.593   1.224 -0.0785 -0.9358 -0.1017
  623SOL     OW 2003   3.087   1.687   1.343 -0.2758  0.0251 -0.3080
  623SOL    HW1 2004   3.153   1.736   1.391 -0.5480  0.0418  0.0492
  623SOL    HW2 2005   3.133   1.652   1.266 -0.3702  1.8827 -1.2582
  624SOL     OW 2006   0.430   2.118   0.477  0.2637  0.1163 -0.5797
  624SOL    HW1 2007   0.409   2.030   0.445 -1.1737 -0.0543  0.7142
  624SOL    HW2 2008   0.424   2.173   0.399 -0.6184 -0.6599 -1.0894
  625SOL     OW 2009   1.668   3.166   0.057 -0.7310  0.6281 -0.0050
  625SOL    HW1 2010   1.652   3.153  -0.036  0.9653  3.9252 -0.9295
  625SOL    HW2 2011   1.761   3.186   0.063 -0.8243  0.6910  2.3903
  626SOL     OW 2012   2.289   2.611   2.053  0.4374  0.2275 -0.1877
  626SOL    HW1 2013   2.214   2.636   2.107  1.0863  0.5614  0.5840
  626SOL    HW2 2014   2.309   2.689   2.002 -0.3867 -0.1933 -1.1887
  627SOL     OW 2015   2.840   0.510   3.602  0.0657 -0.7270 -0.0561
  627SOL    HW1 2016   2.803   0.425   3.623  0.3922 -0.7772  0.3274
  627SOL    HW2 2017   2.882   0.539   3.683  2.9051 -1.7223 -1.0632
  628SOL     OW 2018   2.173   1.603   0.341 -0.2893 -0.3721 -0.9396
  628SOL    HW1 2019   2.149   1.587   0.250 -0.2121 -0.1531 -0.9988
  628SOL    HW2 2020   2.183   1.698   0.347  0.4269 -0.4520 -0.8762
  629SOL     OW 2021   2.863   2.303   3.131  0.7924  0.1341 -0.6624
  629SOL    HW1 2022   2.882   2.309   3.037  1.9116 -0.9374 -0.5459
  629SOL    HW2 2023   2.923   2.366   3.171 -0.4346  1.3745 -0.7157
  630SOL     OW 2024   3.368   2.249   1.166  0.8457 -0.1904  0.6576
  630SOL    HW1 2025   3.444   2.214   1.120  1.4291  0.0887  1.3795
  630SOL    HW2 2026   3.405   2.295   1.242 -0.0378  0.0364  0.9673
  631SOL     OW 2027   1.366   1.544   1.740  0.0518  0.0411  1.1094
  631SOL    HW1 2028   1.457   1.575   1.743  0.0795 -0.0146  0.8447
  631SOL    HW2 2029   1.366   1.466   1.796  0.3614 -0.4584  0.4235
  632SOL     OW 2030   2.808   1.842   2.897 -0.3536 -0.0987  0.1646
  632SOL    HW1 2031   2.808   1.935   2.918 -1.2284 -0.3111  1.2194
  632SOL    HW2 2032   2.899   1.821   2.878  0.0213  0.7478  0.9687
  633SOL     OW 2033   3.483   1.693   3.095 -0.2026 -0.3702 -0.0855
  633SOL    HW1 2034   3.504   1.708   3.002  0.1417 -4.3835 -0.8232
  633SOL    HW2 2035   3.388   1.681   3.096 -0.2034 -0.3461  0.0912
  634SOL     OW 2036   1.582   2.305   3.497 -0.3392  0.2629 -0.4827
  634SOL    HW1 2037   1.611   2.228   3.547 -3.3083 -0.1470  0.7766
  634SOL    HW2 2038   1.608   2.380   3.551 -0.3690 -0.0125 -0.0819
  635SOL     OW 2039   2.752   3.718   3.372  0.5376 -0.2175 -0.5870
  635SOL    HW1 2040   2.734   3.717   3.278  1.5354 -0.5099 -0.7886
  635SOL    HW2 2041   2.847   3.702   3.379  0.6527  0.7536  0.4224
  636SOL     OW 2042   3.688   0.263   0.977  0.7739 -0.5660  0.4896
  636SOL    HW1 2043   3.733   0.187   1.013  4.7092  0.4236 -1.7384
  636SOL    HW2 2044   3.720   0.337   1.029  1.1795  0.0925 -0.6602
  637SOL     OW 2045   3.634   3.550   2.863  0.2934  0.3523 -0.2567
  637SOL    HW1 2046   3.677   3.578   2.782  0.9536  2.0222  0.6191
  637SOL    HW2 2047   3.552   3.600   2.864 -0.8706 -1.4237 -0.9960
  638SOL     OW 2048   0.852   2.022   0.123  0.2195  0.1608 -0.1453
  638SOL    HW1 2049   0.791   2.080   0.077 -2.4075 -1.6872  0.7607
  638SOL    HW2 2050   0.850   2.051   0.214 -1.3679 -1.4035  0.3822
  639SOL     OW 2051   0.738   2.487   0.234 -0.0558 -0.3439 -0.2738
  639SOL    HW1 2052   0.802   2.557   0.222 -1.5816  1.2210  0.1246
  639SOL    HW2 2053   0.688   2.514   0.311 -2.3417 -0.4988 -1.6033
  640SOL     OW 2054   1.066   0.326   1.923  0.5332 -0.3565 -0.5684
  640SOL    HW1 2055   0.979   0.294   1.900  0.2373  1.7065 -2.7666
  640SOL    HW2 2056   1.054   0.420   1.940  1.3610 -0.9175  5.3825
  641SOL     OW 2057   3.434   1.664   2.780  0.0623  0.3006  0.1093
  641SOL    HW1 2058   3.396   1.583   2.745 -1.3930  0.5248  1.0998
  641SOL    HW2 2059   3.366   1.730   2.764  0.7258  1.0650  0.4391
  642SOL     OW 2060   2.244   1.777   1.335 -0.1456  0.5444 -0.1613
  642SOL    HW1 2061   2.244   1.868   1.365 -0.1732  0.2005  0.9390
  642SOL    HW2 2062   2.319   1.772   1.276 -1.0492  1.6471 -1.4782
  643SOL     OW 2063   0.182   1.131   3.049 -0.2742 -0.3581 -0.4768
  643SOL    HW1 2064   0.184   1.102   2.958  0.5869 -0.2968 -0.4837
  643SOL    HW2 2065   0.158   1.223   3.044 -1.7078 -0.7059 -0.5354
  644SOL     OW 2066   2.728   3.235   3.636  0.7303  0.0577 -0.6333
  644SOL    HW1 2067   2.757   3.319   3.600  1.3751 -0.1571 -0.6217
  644SOL    HW2 2068   2.765   3.170   3.577  3.0937 -0.3937  1.2049
  645SOL     OW 2069   2.773   0.702   0.701 -0.0356 -0.5179 -0.8819
  645SOL    HW1 2070   2.865   0.698   0.726 -0.0593 -0.5189 -0.7968
  645SOL    HW2 2071   2.774   0.682   0.607  0.0760 -0.2488 -0.9378
  646SOL     OW 2072   2.515   2.597   0.259 -0.9721  0.2835 -0.3719
  646SOL    HW1 2073   2.484   2.665   0.199 -0.5257  2.3242  1.5847
  646SOL    HW2 2074   2.516   2.639   0.345  0.7443 -1.7669  0.7143
  647SOL     OW 2075   2.367   1.685   2.142 -0.5646  0.4725  0.0506
  647SOL    HW1 2076   2.431   1.665   2.074  0.5547  0.6143  1.0284
  647SOL    HW2 2077   2.293   1.626   2.124  0.8547 -1.4686  0.3524
  648SOL     OW 2078   2.358   0.417   0.608  0.6196  0.3714  0.7559
  648SOL    HW1 2079   2.274   0.436   0.649  0.7043 -0.8005  1.5335
  648SOL    HW2 2080   2.400   0.503   0.598  0.2329  0.7754  2.3616
  649SOL     OW 2081   3.132   3.533   1.852  0.3512  0.0011 -0.2300
  649SOL    HW1 2082   3.151   3.622   1.882 -0.9118 -0.3471  1.7641
  649SOL    HW2 2083   3.043   3.538   1.816 -0.0192 -0.5726  0.5684
  650SOL     OW 2084   0.005   1.975   0.678  0.1233 -0.1969  0.2689
  650SOL    HW1 2085  -0.006   2.059   0.723 -0.0910 -0.1385  0.1065
  650SOL    HW2 2086   0.075   1.931   0.726  0.7729  0.3982 -0.1192
  651SOL     OW 2087   0.510   3.523   3.694 -0.3490  1.2281  0.0475
  651SOL    HW1 2088   0.434   3.511   3.751 -0.4943 -0.4320 -0.4585
  651SOL    HW2 2089   0.499   3.459   3.624  1.4191  1.0644 -0.1368
  652SOL     OW 2090   3.281   2.949   3.572 -0.5725 -0.0175 -0.0912
  652SOL    HW1 2091   3.269   2.994   3.656 -0.7387 -1.6169  0.7876
  652SOL    HW2 2092   3.222   2.874   3.578  0.1092 -0.6552 -1.2708
  653SOL     OW 2093   1.902   2.028   0.715  0.4346 -0.1569  0.4772
  653SOL    HW1 2094   1.837   2.011   0.783  0.7605  2.8190  1.6693
  653SOL    HW2 2095   1.974   2.071   0.760  1.6778 -0.1157 -1.4083
  654SOL     OW 2096   0.057   3.734   0.131 -0.2444 -0.2241  0.2965
  654SOL    HW1 2097  -0.004   3.660   0.130 -0.9404  0.3361  0.3127
  654SOL    HW2 2098   0.018   3.796   0.192  0.6810 -0.1170  0.8086
  655SOL     OW 2099   0.007   0.373   0.295  0.1782 -0.4662 -0.1002
  655SOL    HW1 2100   0.048   0.437   0.238 -1.0759  0.4726  0.0082
  655SOL    HW2 2101   0.059   0.293   0.284  0.2548 -0.1632 -2.1560
  656SOL     OW 2102   1.291   0.616   1.903  0.1311  0.2811 -0.2429
  656SOL    HW1 2103   1.318   0.642   1.991  0.8619 -2.2589  0.3741
  656SOL    HW2 2104   1.308   0.522   1.900  1.7805  0.5646 -3.7003
  657SOL     OW 2105   2.537   2.650   2.145  0.4145 -0.4684  0.1434
  657SOL    HW1 2106   2.454   2.644   2.099  1.3357 -1.0961 -1.5001
  657SOL    HW2 2107   2.603   2.650   2.076  1.8746 -1.9102  1.4620
  658SOL     OW 2108   3.100   2.278   1.964  0.3732  0.5604  0.0699
  658SOL    HW1 2109   3.163   2.236   2.022 -1.3016 -0.5298  1.1981
  658SOL    HW2 2110   3.032   2.212   1.951 -0.8528  1.8972 -0.5931
  659SOL     OW 2111   0.127   0.094   2.456  0.0876 -0.1666  0.0869
  659SOL    HW1 2112   0.153   0.063   2.369  1.7480  0.7182  0.2320
  659SOL    HW2 2113   0.174   0.176   2.467 -1.5074  0.6512  1.1121
  660SOL     OW 2114   3.239   1.290   1.289 -0.3339 -0.0621  0.0131
  660SOL    HW1 2115   3.265   1.226   1.224  1.4532  0.3271  0.2779
  660SOL    HW2 2116   3.309   1.288   1.355 -0.6300  1.5546  0.4444
  661SOL     OW 2117   1.314   1.913   1.649  0.2856 -0.0140 -0.1072
  661SOL    HW1 2118   1.309   1.900   1.555  1.4367  0.5226 -0.2631
  661SOL    HW2 2119   1.260   1.844   1.686 -0.8402  0.2603 -1.1826
  662SOL     OW 2120   3.533   1.637   3.696  0.6280  0.3934  0.4852
  662SOL    HW1 2121   3.611   1.623   3.749 -1.3755 -2.0281  3.1212
  662SOL    HW2 2122   3.540   1.574   3.624  1.3177  0.5345  0.4299
  663SOL     OW 2123   0.645   0.862   3.105  0.3030  0.2708 -0.3857
  663SOL    HW1 2124   0.633   0.923   3.178  2.0567 -1.1391  1.1548
  663SOL    HW2 2125   0.708   0.906   3.048 -1.2072  1.4551 -1.2486
  664SOL     OW 2126   1.091   2.069   2.341  0.0744 -0.6821 -0.2251
  664SOL    HW1 2127   1.128   2.042   2.257 -1.0585 -2.0189 -0.3364
  664SOL    HW2 2128   1.128   2.006   2.404  0.2107 -0.2490  0.1279
  665SOL     OW 2129   1.578   0.998   0.474 -0.5857  0.0713  0.0630
  665SOL    HW1 2130   1.591   0.912   0.434 -0.6003  0.0795  0.0407
  665SOL    HW2 2131   1.666   1.036   0.478 -0.5921  0.0943 -0.0150
  666SOL     OW 2132   2.884   2.112   2.101  0.2869 -0.3602 -0.0777
  666SOL    HW1 2133   2.909   2.022   2.081  0.1182  0.0329 -2.2808
  666SOL    HW2 2134   2.829   2.105   2.179  0.3441 -2.1633 -0.1676
  667SOL     OW 2135   3.182   0.919   0.425  0.2603 -0.3569 -0.8456
  667SOL    HW1 2136   3.218   0.856   0.489  0.3801 -0.2791 -0.8362
  667SOL    HW2 2137   3.251   0.929   0.360 -0.6732 -2.1015 -2.1815
  668SOL     OW 2138   1.094   0.386   1.457 -0.0341 -0.1644  0.2112
  668SOL    HW1 2139   1.068   0.306   1.412 -0.6232  0.7302 -1.0982
  668SOL    HW2 2140   1.186   0.373   1.477  0.3542 -0.4900 -1.5875
  669SOL     OW 2141   3.693   2.922   1.209 -0.1542  0.2055  0.2744
  669SOL    HW1 2142   3.696   2.898   1.302 -0.8178  0.6508  0.4181
  669SOL    HW2 2143   3.734   2.848   1.164  0.7373  0.2622  0.9651
  670SOL     OW 2144   1.003   0.683   2.143  0.5200 -0.5184 -0.1507
  670SOL    HW1 2145   0.968   0.772   2.156 -0.7711 -1.0900  0.4661
  670SOL    HW2 2146   0.979   0.662   2.052  0.3853 -0.4297 -0.1367
  671SOL     OW 2147   1.454   2.765   3.702  0.2970  0.0076 -0.3124
  671SOL    HW1 2148   1.427   2.673   3.702  1.5177 -0.4070  1.3747
  671SOL    HW2 2149   1.409   2.803   3.627  1.5867 -2.5053 -2.5346
  672SOL     OW 2150   2.722   1.679   2.563  0.4384 -0.1459  0.0681
  672SOL    HW1 2151   2.776   1.718   2.632  0.5668 -1.3345  0.6723
  672SOL    HW2 2152   2.781   1.618   2.518 -0.2993 -1.2699  0.5708
  673SOL     OW 2153   0.622   1.540   2.110  0.0278 -0.6537 -0.1709
  673SOL    HW1 2154   0.709   1.501   2.113  0.8992  0.9932 -1.9496
  673SOL    HW2 2155   0.619   1.598   2.185  1.9671  2.0525 -2.0142
  674SOL     OW 2156   0.302   3.197   1.593  0.4930 -0.2202 -0.5091
  674SOL    HW1 2157   0.312   3.229   1.683  0.5617 -1.7515  0.0670
  674SOL    HW2 2158   0.258   3.268   1.547 -0.6421  0.1395  1.0374
  675SOL     OW 2159   0.626   1.088   2.617 -0.2208  0.0796 -0.8127
  675SOL    HW1 2160   0.581   1.129   2.691  1.3747  1.4644 -0.5529
  675SOL    HW2 2161   0.675   1.016   2.656  0.0031  0.3218 -0.6428
  676SOL     OW 2162   3.492   2.129   2.659 -0.3061 -0.2415  0.0895
  676SOL    HW1 2163   3.526   2.218   2.664 -0.5240 -0.1405 -0.1896
  676SOL    HW2 2164   3.558   2.075   2.704  2.3292 -0.6787 -3.8371
  677SOL     OW 2165   3.656   3.059   0.599 -0.1999 -0.0945 -0.5349
  677SOL    HW1 2166   3.581   3.000   0.608 -1.3983  1.5977  2.6273
  677SOL    HW2 2167   3.616   3.146   0.594  1.4385  0.9438  2.1093
  678SOL     OW 2168   0.901   2.202   1.537 -0.0713 -0.1161 -0.6943
  678SOL    HW1 2169   0.914   2.116   1.577  0.1203 -0.2197 -0.9759
  678SOL    HW2 2170   0.806   2.216   1.541  0.0763  0.5736  1.2304
  679SOL     OW 2171   3.440   3.326   2.610 -0.2725  0.0426 -0.3110
  679SOL    HW1 2172   3.368   3.375   2.569  1.3645  2.0228 -0.9792
  679SOL    HW2 2173   3.517   3.381   2.597  0.7683 -0.2333  3.5638
  680SOL     OW 2174   2.121   2.283   1.052 -0.0532  0.0050  0.1628
  680SOL    HW1 2175   2.068   2.357   1.022 -1.1396 -0.4993  0.7719
  680SOL    HW2 2176   2.098   2.273   1.144  1.6057  0.1648  0.6242
  681SOL     OW 2177   2.197   1.756   1.034 -0.4419 -0.0185 -0.5024
  681SOL    HW1 2178   2.196   1.758   0.938  0.8256 -0.0557 -0.5279
  681SOL    HW2 2179   2.168   1.667   1.056  1.7764 -0.9029 -0.9445
  682SOL     OW 2180   0.673   0.945   1.539  0.4027  0.0355  1.0617
  682SOL    HW1 2181   0.606   0.971   1.603 -0.7437 -1.1106  0.3883
  682SOL    HW2 2182   0.755   0.948   1.587 -0.0323  2.1142  1.7503
  683SOL     OW 2183   0.299   2.324   2.764 -0.0157  0.5454  0.5805
  683SOL    HW1 2184   0.384   2.290   2.738 -0.1673 -0.8882  1.8111
  683SOL    HW2 2185   0.239   2.251   2.749 -0.2253 -0.1861  4.1320
  684SOL     OW 2186   0.461   2.269   1.277 -0.2702  0.1670 -0.5175
  684SOL    HW1 2187   0.380   2.276   1.328  0.8552  0.0541  1.3668
  684SOL    HW2 2188   0.432   2.276   1.186 -2.4309 -0.1850  0.0782
  685SOL     OW 2189   0.996   0.204   3.714  0.8526  0.3352  0.3576
  685SOL    HW1 2190   1.052   0.152   3.655  0.1464 -0.7517  0.6117
  685SOL    HW2 2191   0.959   0.272   3.658 -2.7370 -2.7710 -1.5882
  686SOL     OW 2192   1.049   1.767   3.519 -0.6753  0.6576  0.1901
  686SOL    HW1 2193   1.050   1.800   3.430 -1.1549  2.1826  0.7146
  686SOL    HW2 2194   1.094   1.833   3.570 -0.0911 -0.3613  1.0465
  687SOL     OW 2195   3.430   0.878   0.299  0.1195  0.4336  0.0936
  687SOL    HW1 2196   3.491   0.812   0.332  1.2703  0.3085 -2.1155
  687SOL    HW2 2197   3.474   0.961   0.316  0.2246  0.4281 -0.1449
  688SOL     OW 2198   3.439   2.711   2.686  0.6025 -0.6081 -0.4697
  688SOL    HW1 2199   3.413   2.738   2.598  0.8142 -0.5554 -0.5169
  688SOL    HW2 2200   3.430   2.790   2.739  3.7562  0.3617 -1.1282
  689SOL     OW 2201   0.943   1.600   1.998  0.1536 -0.1537  0.4784
  689SOL    HW1 2202   1.038   1.594   2.003  0.0369 -1.2299  3.8967
  689SOL    HW2 2203   0.916   1.639   2.081 -2.3642  1.9497 -1.1343
  690SOL     OW 2204   3.418   1.145   2.593  0.1747 -0.0209  0.1620
  690SOL    HW1 2205   3.420   1.149   2.689 -0.3815  1.6176  0.1395
  690SOL    HW2 2206   3.444   1.233   2.566  1.1546 -0.7071 -1.2199
  691SOL     OW 2207   3.176   3.075   0.902 -0.2276 -0.2923 -0.2945
  691SOL    HW1 2208   3.098   3.051   0.851 -0.6553 -1.6483  0.9259
  691SOL    HW2 2209   3.142   3.101   0.987  0.5912  0.3581 -0.1475
  692SOL     OW 2210   2.261   2.076   1.462 -0.1792  0.0826  0.2604
  692SOL    HW1 2211   2.168   2.092   1.480 -0.2086 -1.9566  2.3755
  692SOL    HW2 2212   2.298   2.163   1.448 -2.1520  1.0627  0.7314
  693SOL     OW 2213   2.436   2.644   3.685 -0.1981 -0.1487 -0.1985
  693SOL    HW1 2214   2.358   2.647   3.740 -1.0579 -0.7914 -1.3463
  693SOL    HW2 2215   2.450   2.550   3.669  1.2320 -0.0916  0.5678
  694SOL     OW 2216   1.756   3.157   1.797 -0.2612  0.5882 -0.5204
  694SOL    HW1 2217   1.676   3.210   1.794 -2.2376 -2.1916 -0.8279
  694SOL    HW2 2218   1.776   3.150   1.890  0.9704  3.0038 -0.5110
  695SOL     OW 2219   1.352   1.251   3.438 -0.0319 -0.6761  0.4704
  695SOL    HW1 2220   1.396   1.282   3.517 -0.6872 -1.2782  1.0871
  695SOL    HW2 2221   1.273   1.207   3.470 -0.5807 -0.4615 -0.5536
  696SOL     OW 2222   2.325   0.231   2.550  0.7312 -0.5929 -0.1475
  696SOL    HW1 2223   2.274   0.158   2.585  0.7011 -0.5586 -0.1191
  696SOL    HW2 2224   2.367   0.269   2.628  0.4708 -0.3656 -0.1142
  697SOL     OW 2225   0.131   1.366   2.725 -0.0719 -0.5456 -0.2785
  697SOL    HW1 2226   0.116   1.456   2.754  2.2982 -0.2648  0.2869
  697SOL    HW2 2227   0.181   1.375   2.644 -1.5427 -1.3904 -1.3366
  698SOL     OW 2228   2.104   2.167   0.801  0.3859 -0.6222  0.1299
  698SOL    HW1 2229   2.115   2.234   0.869 -0.5371 -0.0905 -0.2309
  698SOL    HW2 2230   2.169   2.191   0.734 -0.4508  0.3862 -0.3512
  699SOL     OW 2231   0.267   2.547   3.583  0.0124  0.0915 -0.2990
  699SOL    HW1 2232   0.312   2.608   3.524 -1.0598  2.0145  0.7831
  699SOL    HW2 2233   0.337   2.495   3.621  0.9386  0.4320 -1.4661
  700SOL     OW 2234   1.921   2.203   3.624  0.0313 -0.3504  0.1591
  700SOL    HW1 2235   1.967   2.254   3.690  0.6707 -0.1125 -0.4574
  700SOL    HW2 2236   1.942   2.246   3.541 -0.4796 -0.8429 -0.2345
  701SOL     OW 2237   3.732   2.121   0.458 -0.1614 -0.0629  0.1637
  701SOL    HW1 2238   3.686   2.194   0.499 -2.1054 -1.8108  1.2448
  701SOL    HW2 2239   3.726   2.050   0.522  0.1400 -1.7064 -1.5564
  702SOL     OW 2240   0.930   1.898   1.926  0.5230  0.3198 -0.0310
  702SOL    HW1 2241   0.917   1.803   1.935  0.8869  0.2958  0.2574
  702SOL    HW2 2242   0.977   1.923   2.005  0.0866  0.8102  0.0793
  703SOL     OW 2243   0.890   3.223   1.955 -0.2304 -0.2128 -0.3613
  703SOL    HW1 2244   0.966   3.280   1.949 -1.5542  1.5886 -0.6271
  703SOL    HW2 2245   0.836   3.247   1.881 -2.6237  0.9689  1.6354
  704SOL     OW 2246   3.672   3.641   0.863  0.2247 -0.2028 -0.1390
  704SOL    HW1 2247   3.726   3.679   0.932  1.8342 -0.1705 -1.3541
  704SOL    HW2 2248   3.599   3.600   0.909  1.9162 -1.3395  1.7143
  705SOL     OW 2249   1.511   0.830   0.188  0.7439 -0.6058  0.6819
  705SOL    HW1 2250   1.507   0.925   0.176  0.1354 -0.6288  0.6745
  705SOL    HW2 2251   1.515   0.795   0.099  0.8847 -0.5920  0.6824
  706SOL     OW 2252   1.230   1.984   2.115 -0.5083 -0.3013 -0.2969
  706SOL    HW1 2253   1.304   1.923   2.113 -1.9466 -2.1766 -2.9011
  706SOL    HW2 2254   1.247   2.045   2.042 -1.4326 -0.7077 -0.8780
  707SOL     OW 2255   1.058   3.061   3.232 -0.0771  0.3745 -0.0408
  707SOL    HW1 2256   1.105   3.135   3.195  1.0036 -0.5588 -0.6281
  707SOL    HW2 2257   0.967   3.090   3.239  0.1994  1.5046 -0.8871
  708SOL     OW 2258   3.220   0.679   2.863 -0.0092 -0.3922  0.5406
  708SOL    HW1 2259   3.152   0.687   2.930 -1.1510 -3.4567 -0.1232
  708SOL    HW2 2260   3.302   0.673   2.912 -0.6916 -1.2308  1.6176
  709SOL     OW 2261   0.695   1.586   0.270 -0.6067  0.6121 -0.0814
  709SOL    HW1 2262   0.603   1.600   0.291 -0.9976  1.5727 -2.1311
  709SOL    HW2 2263   0.733   1.674   0.268  0.1089  0.3052 -0.2589
  710SOL     OW 2264   2.003   0.176   3.623 -0.1212  0.3919 -0.3534
  710SOL    HW1 2265   2.017   0.088   3.589 -0.9197  1.2291 -3.1157
  710SOL    HW2 2266   1.961   0.163   3.708 -1.4040 -1.9018 -1.2613
  711SOL     OW 2267   0.570   2.989   1.130  0.5619  0.6171 -0.1648
  711SOL    HW1 2268   0.665   2.980   1.121  0.4511 -1.4357  0.2668
  711SOL    HW2 2269   0.559   3.057   1.197  1.6514  2.3336 -1.6562
  712SOL     OW 2270   2.456   1.449   1.555  0.4870  0.1437  0.1379
  712SOL    HW1 2271   2.495   1.522   1.507  1.7879  0.4394  1.6022
  712SOL    HW2 2272   2.516   1.432   1.627 -0.9945 -0.8385  1.1911
  713SOL     OW 2273   1.283   0.702   3.256 -0.2694 -0.2506 -0.5657
  713SOL    HW1 2274   1.241   0.753   3.325  0.3718  1.8226 -1.6038
  713SOL    HW2 2275   1.338   0.639   3.302 -0.6150  0.4338  0.8110
  714SOL     OW 2276   0.964   1.681   1.634  0.1789 -0.1571  0.3039
  714SOL    HW1 2277   1.025   1.711   1.702 -1.3619  1.5673  1.0129
  714SOL    HW2 2278   1.017   1.626   1.576  1.9717 -0.1484  1.8541
  715SOL     OW 2279   2.812   2.671   1.254  0.6150 -0.0477 -0.5710
  715SOL    HW1 2280   2.780   2.761   1.248 -2.3810 -0.9245  0.2893
  715SOL    HW2 2281   2.828   2.658   1.348  0.0118 -0.6813 -0.5475
  716SOL     OW 2282   3.289   1.036   0.708  0.3009  1.0628  0.3833
  716SOL    HW1 2283   3.383   1.051   0.697  0.3479  1.7518  1.4921
  716SOL    HW2 2284   3.269   0.962   0.652  1.3101  1.5430 -0.6545
  717SOL     OW 2285   3.480   0.203   3.039  0.1172  0.0692  0.1218
  717SOL    HW1 2286   3.535   0.126   3.054 -1.3004 -1.0697 -0.1993
  717SOL    HW2 2287   3.512   0.239   2.956 -0.0397 -0.9726 -0.4090
  718SOL     OW 2288   0.078   0.789   1.418 -0.5830  0.2735 -0.3637
  718SOL    HW1 2289   0.091   0.842   1.339  0.3866 -0.3814 -0.6616
  718SOL    HW2 2290   0.001   0.736   1.399  0.6821 -1.2338 -1.6827
  719SOL     OW 2291   1.304   1.591   3.186 -0.1315  0.0845  0.4947
  719SOL    HW1 2292   1.356   1.672   3.185 -1.9257  1.2852  0.2441
  719SOL    HW2 2293   1.259   1.593   3.271 -2.2237  0.7597 -0.5732
  720SOL     OW 2294   3.267   2.324   2.448  0.5546 -0.1416 -0.4153
  720SOL    HW1 2295   3.250   2.280   2.532 -0.9366  0.1931 -0.4997
  720SOL    HW2 2296   3.280   2.416   2.472 -3.3690  0.6869 -0.6933
  721SOL     OW 2297   3.414   3.144   3.421  0.2935  0.3624  0.4947
  721SOL    HW1 2298   3.340   3.101   3.463  1.0456 -0.7619  0.6897
  721SOL    HW2 2299   3.396   3.135   3.327  0.6144 -0.6759  0.5306
  722SOL     OW 2300   2.594   1.069   0.983  0.3084  0.3081  0.1000
  722SOL    HW1 2301   2.564   1.160   0.978  0.6298  0.5843  2.1834
  722SOL    HW2 2302   2.651   1.067   1.060  1.3078 -1.4015 -0.6217
  723SOL     OW 2303   3.098   2.484   3.218 -0.3150  0.7428 -0.8705
  723SOL    HW1 2304   3.067   2.531   3.296 -1.5128 -0.7538 -0.3926
  723SOL    HW2 2305   3.145   2.550   3.167  2.5131  1.3316  2.1734
  724SOL     OW 2306   1.903   0.664   0.285 -0.0461  0.2764  0.0906
  724SOL    HW1 2307   1.833   0.600   0.274  0.4164 -0.3076  0.4872
  724SOL    HW2 2308   1.961   0.649   0.210  0.3020 -0.0827  0.4293
  725SOL     OW 2309   1.783   0.974   3.653  0.6420 -0.1488 -0.5837
  725SOL    HW1 2310   1.692   0.994   3.673  0.4070 -0.3511 -1.4146
  725SOL    HW2 2311   1.824   0.958   3.739 -0.2646 -0.7335 -0.2484
  726SOL     OW 2312   3.271   2.347   1.484  0.2475 -0.3024 -0.1892
  726SOL    HW1 2313   3.287   2.422   1.427 -0.3470  0.9626  1.2565
  726SOL    HW2 2314   3.183   2.317   1.459 -0.5397  1.0300  0.8624
  727SOL     OW 2315   0.752   2.406   0.670  0.1911  0.1268  0.9491
  727SOL    HW1 2316   0.839   2.445   0.663  0.7850 -1.1896  0.7308
  727SOL    HW2 2317   0.710   2.425   0.586  0.8609 -0.5856  0.4404
  728SOL     OW 2318   0.268   1.004   2.804  0.3211  0.1432 -0.9361
  728SOL    HW1 2319   0.320   0.930   2.835  0.2718  0.8733  0.9786
  728SOL    HW2 2320   0.231   0.973   2.721 -0.7391 -2.4767  0.3913
  729SOL     OW 2321   2.018   3.401   3.269  0.3700  0.3415  0.2462
  729SOL    HW1 2322   2.029   3.306   3.268 -0.6202  0.2188 -0.2219
  729SOL    HW2 2323   2.000   3.425   3.178 -0.1261  0.8745  0.4761
  730SOL     OW 2324   1.197   3.575   3.310  0.1762  0.4374  0.1437
  730SOL    HW1 2325   1.286   3.543   3.323  0.4022  0.1241 -1.8376
  730SOL    HW2 2326   1.202   3.627   3.230 -1.3682  0.6327  0.1464
  731SOL     OW 2327   0.152   0.278   3.047 -0.5291 -0.3972  0.3045
  731SOL    HW1 2328   0.120   0.188   3.048 -0.1142 -0.5878 -0.8410
  731SOL    HW2 2329   0.136   0.308   2.957 -2.1371  1.2499  1.0615
  732SOL     OW 2330   0.969   3.428   3.407  0.3420 -0.2345  0.1871
  732SOL    HW1 2331   0.959   3.502   3.467  0.3948 -0.3891  0.3894
  732SOL    HW2 2332   1.045   3.449   3.353  0.3344 -0.1244  0.2208
  733SOL     OW 2333   1.929   3.190   0.031 -0.5284  0.1136  0.2430
  733SOL    HW1 2334   1.964   3.129   0.096 -1.7422 -1.4205 -0.4814
  733SOL    HW2 2335   2.000   3.252   0.014  0.9789 -1.4887  0.5285
  734SOL     OW 2336   3.453   2.854   3.402 -0.0474  0.4749 -0.3611
  734SOL    HW1 2337   3.488   2.779   3.450 -0.5041 -0.9220 -2.1219
  734SOL    HW2 2338   3.400   2.901   3.467 -0.2530 -1.0586  0.6449
  735SOL     OW 2339   0.398   2.150   2.216 -0.1289 -0.1880  0.3123
  735SOL    HW1 2340   0.432   2.063   2.196 -1.3109 -0.8513  1.0491
  735SOL    HW2 2341   0.337   2.168   2.144 -1.4879 -0.9181  1.2382
  736SOL     OW 2342   2.553   3.643   0.029 -0.1989  0.1429  0.3120
  736SOL    HW1 2343   2.640   3.650  -0.010 -0.4431 -1.1562 -0.5368
  736SOL    HW2 2344   2.503   3.714  -0.012  0.0847  0.0075 -0.2828
  737SOL     OW 2345   0.295   0.703   2.950  0.1749 -0.0257  0.3323
  737SOL    HW1 2346   0.307   0.791   2.988 -3.3267  0.9122 -0.3634
  737SOL    HW2 2347   0.294   0.645   3.026  1.3380  0.6818  0.9154
  738SOL     OW 2348   2.715   3.169   2.778  0.6608 -0.4946 -0.3983
  738SOL    HW1 2349   2.771   3.180   2.702  2.3843 -0.6683  0.7923
  738SOL    HW2 2350   2.665   3.089   2.759 -0.9124  0.8910 -2.4560
  739SOL     OW 2351   3.626   0.255   1.271  0.2065  0.5891  0.0727
  739SOL    HW1 2352   3.628   0.219   1.359  0.7741  0.5231  0.0337
  739SOL    HW2 2353   3.533   0.273   1.254  0.2195  1.7907  1.1574
  740SOL     OW 2354   1.483   2.633   1.122  0.2056 -0.0190 -0.2522
  740SOL    HW1 2355   1.536   2.712   1.112  0.2450  0.5853  3.3848
  740SOL    HW2 2356   1.395   2.667   1.141 -0.3167 -0.9290 -0.9786
  741SOL     OW 2357   3.503   1.346   1.409 -0.1495  0.8145  0.0215
  741SOL    HW1 2358   3.559   1.273   1.383  0.0110  0.4989  1.1663
  741SOL    HW2 2359   3.490   1.396   1.329 -0.2705 -0.4660 -0.8035
  742SOL     OW 2360   0.660   0.393   0.161 -0.3296 -0.0301  0.3109
  742SOL    HW1 2361   0.568   0.390   0.187  0.3789 -2.1069  3.2051
  742SOL    HW2 2362   0.681   0.302   0.138  1.0287  0.3615 -0.0801
  743SOL     OW 2363   0.843   0.436   2.200  0.1140 -0.5560  0.5641
  743SOL    HW1 2364   0.810   0.525   2.214  1.3485  0.1390 -0.6150
  743SOL    HW2 2365   0.938   0.448   2.190  0.0601 -1.6406 -2.0754
  744SOL     OW 2366   1.341   0.361   1.514  0.4607 -0.6655 -0.6727
  744SOL    HW1 2367   1.371   0.270   1.518 -0.3687 -0.9130  0.5782
  744SOL    HW2 2368   1.412   0.411   1.553  1.2936 -0.6421 -2.1442
  745SOL     OW 2369   1.654   0.791   1.270  0.1036  0.6942  0.5703
  745SOL    HW1 2370   1.710   0.714   1.287 -2.4175 -0.9815  1.9346
  745SOL    HW2 2371   1.656   0.801   1.175  0.2848 -1.2798  0.3059
  746SOL     OW 2372   2.689   3.013   3.761 -0.1402  0.5319  0.0055
  746SOL    HW1 2373   2.695   3.100   3.723  1.0176  0.3676 -0.2260
  746SOL    HW2 2374   2.645   2.960   3.694  0.0363  0.7114 -0.2535
  747SOL     OW 2375   3.269   2.084   3.493 -0.3708  0.2287 -0.3686
  747SOL    HW1 2376   3.298   1.992   3.492 -0.8911  0.0368  0.6417
  747SOL    HW2 2377   3.243   2.100   3.584  0.7525  1.7279 -0.2759
  748SOL     OW 2378   3.060   3.163   1.490  0.5794 -0.4267 -0.8721
  748SOL    HW1 2379   3.073   3.253   1.461 -5.6232  1.7330  1.3965
  748SOL    HW2 2380   3.096   3.160   1.578  0.7558 -0.1913 -0.9359
  749SOL     OW 2381   2.707   3.519   0.710 -0.3757  0.5571  0.1172
  749SOL    HW1 2382   2.699   3.601   0.758  0.5647 -0.8886  2.9439
  749SOL    HW2 2383   2.723   3.453   0.777  1.8320 -1.5501 -2.2554
  750SOL     OW 2384   2.996   1.174   2.956 -0.0076 -0.0180 -0.0372
  750SOL    HW1 2385   3.014   1.152   2.864  1.8087  3.0764 -0.5459
  750SOL    HW2 2386   3.030   1.099   3.005  1.9128 -0.3797 -1.7877
  751SOL     OW 2387   2.197   3.667   3.686  0.5293 -0.0444  0.2543
  751SOL    HW1 2388   2.134   3.629   3.625  0.6538  0.4388 -0.1831
  751SOL    HW2 2389   2.281   3.628   3.660  0.6532  0.4869 -0.1780
  752SOL     OW 2390   2.245   3.174   3.167  0.0105 -0.3502 -0.3918
  752SOL    HW1 2391   2.241   3.170   3.072 -0.6088 -2.1229 -0.3296
  752SOL    HW2 2392   2.338   3.164   3.188  0.2857  1.1314 -0.8122
  753SOL     OW 2393   0.519   3.064   0.529  0.1864  0.0516  0.2558
  753SOL    HW1 2394   0.486   3.062   0.619  1.7671  0.2220  0.8734
  753SOL    HW2 2395   0.448   3.101   0.477 -0.6288  0.2447  1.4907
  754SOL     OW 2396   3.319   1.295   3.550  0.3021 -0.0557 -0.2843
  754SOL    HW1 2397   3.409   1.274   3.573 -0.0215  1.1144  2.2654
  754SOL    HW2 2398   3.271   1.292   3.632 -1.9973 -0.4805 -1.5454
  755SOL     OW 2399   3.468   1.930   0.091 -0.3577 -0.3320 -0.4301
  755SOL    HW1 2400   3.547   1.958   0.046  0.1398  0.5859  0.9576
  755SOL    HW2 2401   3.448   1.844   0.053  2.4868 -1.5701  0.5890
  756SOL     OW 2402   3.287   0.293   2.493 -0.6716  0.3096  0.2890
  756SOL    HW1 2403   3.305   0.276   2.586 -0.9887 -2.1918 -0.0491
  756SOL    HW2 2404   3.359   0.250   2.447 -2.2588 -1.4413 -0.7035
  757SOL     OW 2405   2.073   0.084   2.374  0.4629 -0.3469  0.2022
  757SOL    HW1 2406   2.100   0.171   2.403  0.4224 -0.3108  0.1322
  757SOL    HW2 2407   1.992   0.099   2.326  0.6962 -0.3696 -0.1984
  758SOL     OW 2408   1.869   3.538   0.491  0.1053  0.2855 -0.1327
  758SOL    HW1 2409   1.817   3.547   0.411  0.6816 -1.0994 -0.7090
  758SOL    HW2 2410   1.812   3.491   0.552 -0.2040  1.0180  0.1515
  759SOL     OW 2411   0.861   3.310   2.261 -0.1718 -0.5921 -0.0809
  759SOL    HW1 2412   0.918   3.387   2.264  0.4904 -1.0949  1.0377
  759SOL    HW2 2413   0.886   3.265   2.180  1.1972 -0.9230  0.5055
  760SOL     OW 2414   0.535   0.127   0.491 -0.4554  0.2047 -0.5185
  760SOL    HW1 2415   0.604   0.064   0.513  0.6346  1.5533  0.1141
  760SOL    HW2 2416   0.478   0.080   0.430 -0.3851 -1.7792  0.8590
  761SOL     OW 2417   3.554   2.814   0.877  0.4506  0.7628 -0.1744
  761SOL    HW1 2418   3.644   2.824   0.906 -0.2551  0.0469  2.5956
  761SOL    HW2 2419   3.502   2.841   0.952 -1.7293  2.8919 -2.2743
  762SOL     OW 2420   0.675   2.166   2.092  0.0113  0.1720 -1.1547
  762SOL    HW1 2421   0.655   2.096   2.029  0.6634  0.8898 -2.1906
  762SOL    HW2 2422   0.590   2.194   2.125 -0.3237 -0.4086 -1.4972
  763SOL     OW 2423   1.190   2.894   0.860 -0.2978  0.2052  0.1014
  763SOL    HW1 2424   1.178   2.980   0.900  0.8853  0.7254 -0.6073
  763SOL    HW2 2425   1.134   2.896   0.783 -2.0786 -0.5595  1.3133
  764SOL     OW 2426   1.867   1.919   1.010  0.5884 -0.0225  0.6273
  764SOL    HW1 2427   1.885   1.833   0.972  1.6514 -0.1646  1.4010
  764SOL    HW2 2428   1.775   1.936   0.989  0.5136 -1.0998 -0.0023
  765SOL     OW 2429   3.053   1.188   0.687 -0.0245 -0.2928  0.9849
  765SOL    HW1 2430   3.142   1.167   0.717 -0.4295 -2.6092  0.6780
  765SOL    HW2 2431   3.062   1.275   0.648  1.5267  0.7541  3.3657
  766SOL     OW 2432   1.263   1.330   2.537  0.3684  0.3892  0.1878
  766SOL    HW1 2433   1.277   1.280   2.617  2.2955  0.7572  0.1297
  766SOL    HW2 2434   1.347   1.327   2.492 -0.5889  0.4290 -1.7098
  767SOL     OW 2435   1.164   2.517   2.285  0.3025 -0.0432  0.5342
  767SOL    HW1 2436   1.199   2.427   2.282 -1.2876 -0.6971  0.8937
  767SOL    HW2 2437   1.137   2.535   2.195 -0.4724 -0.3805  0.6964
  768SOL     OW 2438   3.044   2.093   3.230 -0.0361 -0.2297  0.1669
  768SOL    HW1 2439   3.020   2.165   3.288  0.4283  0.8715 -0.9761
  768SOL    HW2 2440   3.025   2.124   3.142 -0.2526 -1.6821 -0.3329
  769SOL     OW 2441   1.473   3.516   0.070  0.4283  0.8336 -1.0411
  769SOL    HW1 2442   1.456   3.479  -0.017 -1.0326 -0.8299 -0.1121
  769SOL    HW2 2443   1.536   3.586   0.054  0.2036  0.5840 -3.4396
  770SOL     OW 2444   3.301   0.251   2.152 -0.4773  0.5928  0.2439
  770SOL    HW1 2445   3.234   0.305   2.194 -2.6295 -1.3173 -0.5294
  770SOL    HW2 2446   3.361   0.229   2.223  0.6239  3.9996  0.5730
  771SOL     OW 2447   2.868   2.193   1.680 -0.3703 -0.2736  0.5785
  771SOL    HW1 2448   2.807   2.210   1.752 -1.8149 -0.0818 -0.6595
  771SOL    HW2 2449   2.873   2.098   1.675 -0.7930 -0.2921  0.4999
  772SOL     OW 2450   1.517   1.958   0.595 -0.1529 -0.2035  0.1736
  772SOL    HW1 2451   1.582   1.904   0.548  0.1763  0.4909 -0.1950
  772SOL    HW2 2452   1.514   1.921   0.683 -0.3887 -1.2067 -0.2378
  773SOL     OW 2453   2.141   1.558   1.690 -0.3203 -0.1245  0.9078
  773SOL    HW1 2454   2.080   1.581   1.620 -0.8561  0.6298  1.6087
  773SOL    HW2 2455   2.221   1.605   1.668 -0.1489 -0.6951  0.2693
  774SOL     OW 2456   1.701   2.706   3.383  0.0610  0.1495 -0.3237
  774SOL    HW1 2457   1.606   2.714   3.384  0.0608  0.0891  0.1761
  774SOL    HW2 2458   1.731   2.758   3.458  0.4581  0.5933 -0.7731
  775SOL     OW 2459   2.139   2.703   2.268 -0.6561 -0.0469  0.8399
  775SOL    HW1 2460   2.197   2.722   2.342 -0.1673 -1.1556  0.7644
  775SOL    HW2 2461   2.102   2.617   2.289 -0.0381 -0.6520 -0.4890
  776SOL     OW 2462   2.181   3.043   0.836  0.3276 -0.2754  0.7820
  776SOL    HW1 2463   2.242   2.976   0.866 -1.4464 -2.4006 -0.0601
  776SOL    HW2 2464   2.153   3.013   0.749  1.2517  2.8462 -0.7268
  777SOL     OW 2465   3.740   0.045   1.116 -0.4116  0.0509  0.7393
  777SOL    HW1 2466   3.694   0.095   1.183 -2.9128  0.7035 -1.3392
  777SOL    HW2 2467   3.743  -0.044   1.151 -3.1162  0.0288  1.0840
  778SOL     OW 2468   2.216   1.205   1.547 -0.2067 -0.0015 -1.1522
  778SOL    HW1 2469   2.307   1.183   1.524 -0.4395 -1.7835 -0.5213
  778SOL    HW2 2470   2.191   1.272   1.483  1.5480  0.5585 -1.3211
  779SOL     OW 2471   2.963  -0.013   2.375 -0.0914 -0.5494 -0.6929
  779SOL    HW1 2472   2.966   0.079   2.348  0.1131  0.1931  1.6383
  779SOL    HW2 2473   2.873  -0.040   2.358 -1.2207  1.2312  1.8549
  780SOL     OW 2474   1.625   2.936   1.644  0.6367 -0.0465 -0.0358
  780SOL    HW1 2475   1.696   3.000   1.646  2.4290 -1.6911 -3.2538
  780SOL    HW2 2476   1.577   2.956   1.564 -1.9823  0.3048  1.4889
  781SOL     OW 2477   2.419   0.809   1.333  0.2249 -0.3690 -0.6187
  781SOL    HW1 2478   2.329   0.828   1.305 -0.2129  0.8285  1.3806
  781SOL    HW2 2479   2.412   0.729   1.385  0.2488 -0.0977 -0.1938
  782SOL     OW 2480   1.856   0.537   0.820 -0.2555  0.2533 -0.6793
  782SOL    HW1 2481   1.817   0.544   0.733  0.7134  1.8873 -1.0336
  782SOL    HW2 2482   1.949   0.527   0.804 -0.0116  1.0311  0.1481
  783SOL     OW 2483   1.995   3.051   1.324 -0.4698  0.8084  0.1204
  783SOL    HW1 2484   2.035   3.110   1.387  0.5807 -0.9810  1.2058
  783SOL    HW2 2485   2.066   3.025   1.266 -0.5850 -0.4032  0.4868
  784SOL     OW 2486   2.364   1.345   2.138  0.0951 -0.0308 -0.1607
  784SOL    HW1 2487   2.417   1.320   2.062  1.6639  2.8357 -0.1243
  784SOL    HW2 2488   2.416   1.318   2.213 -0.5584 -1.0945 -0.0673
  785SOL     OW 2489   2.031   1.629   1.427 -0.2126 -0.5254 -0.2929
  785SOL    HW1 2490   2.118   1.663   1.404 -1.7786  2.4266 -2.5307
  785SOL    HW2 2491   2.004   1.579   1.349 -1.5571  0.9589 -0.8349
  786SOL     OW 2492   1.660   0.311   0.876  0.3814  0.4252  0.5575
  786SOL    HW1 2493   1.589   0.338   0.818  0.5166  2.5732  1.2729
  786SOL    HW2 2494   1.724   0.382   0.870  2.0702 -1.0264  0.6126
  787SOL     OW 2495   2.251   0.655   0.136 -0.2582 -0.4054 -0.2724
  787SOL    HW1 2496   2.173   0.615   0.098  0.2975 -2.3577  0.5064
  787SOL    HW2 2497   2.323   0.630   0.078  0.2806 -1.6231  0.8575
  788SOL     OW 2498   0.483   2.678   3.137  0.9725 -0.2629  0.6096
  788SOL    HW1 2499   0.463   2.767   3.167 -0.0775 -0.2691 -0.0340
  788SOL    HW2 2500   0.508   2.688   3.045  0.9111 -0.6263  0.5499
  789SOL     OW 2501   0.805   3.431   0.509  0.8493 -0.7882 -0.5085
  789SOL    HW1 2502   0.713   3.420   0.531  1.2129  0.7738  2.1333
  789SOL    HW2 2503   0.805   3.454   0.416 -1.3437 -1.3093 -0.6871
  790SOL     OW 2504   0.562   2.846   1.929 -0.0509  0.2493 -0.6788
  790SOL    HW1 2505   0.484   2.796   1.905  0.4522 -0.6854 -0.4214
  790SOL    HW2 2506   0.634   2.784   1.919  0.3332  0.1044  2.0897
  791SOL     OW 2507   0.271   2.259   3.434 -0.6027  0.1276  0.1075
  791SOL    HW1 2508   0.230   2.300   3.511 -0.2522  1.2537 -0.2768
  791SOL    HW2 2509   0.259   2.324   3.364 -0.1533 -0.5098 -0.5705
  792SOL     OW 2510   3.435   3.111   2.127 -0.2660 -0.2857  0.1160
  792SOL    HW1 2511   3.431   3.112   2.222 -0.3041 -1.0526  0.1311
  792SOL    HW2 2512   3.360   3.164   2.099 -0.7663 -0.7783  0.5118
  793SOL     OW 2513   2.310   3.445   0.599 -0.2380  0.2186 -0.1972
  793SOL    HW1 2514   2.246   3.464   0.531 -1.8215  0.9666  1.4160
  793SOL    HW2 2515   2.355   3.528   0.613  0.8544 -0.2079 -1.0523
  794SOL     OW 2516   0.339   0.090   0.238 -0.0285  0.0477 -0.3768
  794SOL    HW1 2517   0.269   0.050   0.289 -1.2446 -0.2931 -2.2148
  794SOL    HW2 2518   0.401   0.019   0.222  0.4997  0.2199  0.7882
  795SOL     OW 2519   0.627   1.979   1.605 -0.1829 -0.4740  0.0690
  795SOL    HW1 2520   0.645   2.067   1.572  0.4266 -0.3524  0.7140
  795SOL    HW2 2521   0.625   1.925   1.526 -0.4719  0.0993 -0.3229
  796SOL     OW 2522   0.814   2.615   1.633 -0.2499 -0.2311  0.7584
  796SOL    HW1 2523   0.904   2.585   1.644  0.1235  0.3799 -0.4316
  796SOL    HW2 2524   0.820   2.711   1.640 -0.5955 -0.1034 -0.5103
  797SOL     OW 2525   1.092   0.811   3.699  0.0697 -0.9673  0.4903
  797SOL    HW1 2526   1.123   0.804   3.790  1.0034 -3.4972  0.0414
  797SOL    HW2 2527   0.999   0.832   3.708 -0.1779 -2.5105  2.1033
  798SOL     OW 2528   3.674   0.677   0.293  0.1746 -0.1308 -0.3022
  798SOL    HW1 2529   3.608   0.684   0.224  1.5290  2.2733 -1.4557
  798SOL    HW2 2530   3.750   0.639   0.250  0.0690 -1.5173  0.6687
  799SOL     OW 2531   3.021   0.718   3.032  0.6854  0.0064  0.3617
  799SOL    HW1 2532   2.977   0.802   3.040 -0.8216 -0.6535 -0.5270
  799SOL    HW2 2533   3.061   0.703   3.118  1.4263  1.8296  0.3768
  800SOL     OW 2534   1.128   1.323   3.632 -0.3511 -0.6422 -0.3806
  800SOL    HW1 2535   1.065   1.373   3.683  0.9629  0.0277  0.6308
  800SOL    HW2 2536   1.170   1.388   3.576  1.4816 -0.5182  1.0563
  801SOL     OW 2537   0.853   3.425   3.142 -0.2502  0.1968 -0.5683
  801SOL    HW1 2538   0.875   3.440   3.234 -0.5075 -1.8972 -0.1168
  801SOL    HW2 2539   0.925   3.466   3.093  0.0097  1.1304  0.5589
  802SOL     OW 2540   0.897   2.798   1.265  0.1053  0.2332 -0.4790
  802SOL    HW1 2541   0.826   2.791   1.329  0.4851  1.5531  0.1253
  802SOL    HW2 2542   0.908   2.892   1.253  2.3903  0.1031  0.1700
  803SOL     OW 2543   2.650   3.379   0.984 -0.0293 -0.3542 -0.3947
  803SOL    HW1 2544   2.711   3.387   1.057 -0.6946 -1.4997  0.3170
  803SOL    HW2 2545   2.576   3.435   1.008  1.0443  1.6937 -1.6400
  804SOL     OW 2546   3.018   0.653   1.080  0.2720 -0.1228 -0.8657
  804SOL    HW1 2547   2.952   0.662   1.149  0.6759  1.1242 -0.6273
  804SOL    HW2 2548   2.970   0.614   1.007 -0.4547 -0.3011 -0.3146
  805SOL     OW 2549   3.298   1.741   2.423  0.0349  0.8655 -0.2193
  805SOL    HW1 2550   3.303   1.765   2.331 -1.3839 -0.7483 -0.7531
  805SOL    HW2 2551   3.365   1.673   2.434  1.9415  2.7498  0.5884
  806SOL     OW 2552   3.392   1.253   0.426  0.2224  0.8603 -0.3115
  806SOL    HW1 2553   3.304   1.253   0.388 -1.1399  0.0398  2.5620
  806SOL    HW2 2554   3.382   1.297   0.510  2.4401  0.1346  0.4071
  807SOL     OW 2555   2.212   0.996   2.869  0.4173  0.0894 -0.2596
  807SOL    HW1 2556   2.288   1.054   2.871  0.2753  0.2660  0.8964
  807SOL    HW2 2557   2.248   0.909   2.887  0.5031 -0.0204 -0.9666
  808SOL     OW 2558   2.502   3.357   2.618  0.0814  0.3867 -0.4259
  808SOL    HW1 2559   2.502   3.439   2.667  2.2295  0.8060 -1.0273
  808SOL    HW2 2560   2.508   3.384   2.526 -1.5237 -0.4339 -0.8132
  809SOL     OW 2561   2.109   1.637   2.767  0.0271 -0.4058 -0.4080
  809SOL    HW1 2562   2.067   1.678   2.843 -0.7349 -3.0808  0.7043
  809SOL    HW2 2563   2.200   1.624   2.795 -0.5802 -2.7274  0.7350
  810SOL     OW 2564   2.495   2.738   2.777  0.4244 -0.0731  0.7389
  810SOL    HW1 2565   2.571   2.687   2.748  0.6318  1.0512 -0.8374
  810SOL    HW2 2566   2.425   2.673   2.788  0.8736 -0.8062 -0.5301
  811SOL     OW 2567   2.709   2.422   1.492 -0.1897 -0.2256  0.0781
  811SOL    HW1 2568   2.750   2.504   1.518  1.7130 -1.3609  0.8734
  811SOL    HW2 2569   2.664   2.443   1.410 -0.8275  1.8756  0.8907
  812SOL     OW 2570   0.075   1.647   3.441  0.7465 -0.6583  0.5564
  812SOL    HW1 2571   0.088   1.599   3.358 -0.0006 -0.0365  0.0641
  812SOL    HW2 2572   0.077   1.579   3.508  0.8460 -1.2446 -0.0251
  813SOL     OW 2573   3.575   0.946   0.728  0.8612 -0.0915  0.1438
  813SOL    HW1 2574   3.629   0.913   0.656  1.8736 -2.0867  1.7256
  813SOL    HW2 2575   3.582   0.879   0.796 -1.3298  0.9727  1.5208
  814SOL     OW 2576   3.474   2.171   1.487  0.3080 -0.1293 -0.1916
  814SOL    HW1 2577   3.404   2.235   1.491 -0.0729 -0.5218 -0.4567
  814SOL    HW2 2578   3.546   2.209   1.538 -0.3944 -0.1035  0.8052
  815SOL     OW 2579   0.114   1.171   0.239  0.5220  0.2125 -0.1981
  815SOL    HW1 2580   0.159   1.254   0.258 -0.3233  0.5461  0.3815
  815SOL    HW2 2581   0.147   1.110   0.305 -1.4176  1.0214  1.6301
  816SOL     OW 2582   0.671   2.532   2.205 -0.4182  0.1854 -0.7135
  816SOL    HW1 2583   0.656   2.476   2.128  0.4587  0.3407 -1.0115
  816SOL    HW2 2584   0.733   2.482   2.258 -0.5227  0.3716 -0.4177
  817SOL     OW 2585   1.901   0.647   1.129  0.5105  0.2739  0.1115
  817SOL    HW1 2586   1.861   0.619   1.047  1.4644 -1.0560  0.0595
  817SOL    HW2 2587   1.923   0.739   1.115  1.1895 -0.0780 -1.3681
  818SOL     OW 2588   1.719   2.140   1.260  0.4941 -0.2987 -0.5370
  818SOL    HW1 2589   1.811   2.120   1.274  0.6680  0.3448 -0.7327
  818SOL    HW2 2590   1.677   2.054   1.252  0.7089 -0.6857  1.7167
  819SOL     OW 2591   0.713   0.023   1.176 -0.1892 -0.0945 -0.5703
  819SOL    HW1 2592   0.759   0.009   1.093  0.6700  1.6059 -0.4349
  819SOL    HW2 2593   0.769  -0.018   1.242  1.3292  2.0316 -0.3949
  820SOL     OW 2594   0.859   3.361   0.819 -0.4259 -0.4512 -0.1442
  820SOL    HW1 2595   0.950   3.368   0.847 -0.6220 -0.9645  0.6651
  820SOL    HW2 2596   0.861   3.303   0.744 -0.2678 -1.9412  0.9678
  821SOL     OW 2597   3.412   1.998   2.936 -0.8822 -0.5418 -0.1304
  821SOL    HW1 2598   3.337   1.954   2.975 -1.9208  2.5956  1.7747
  821SOL    HW2 2599   3.375   2.045   2.861 -0.9169  1.1403  0.9078
  822SOL     OW 2600   1.814   0.364   1.123 -0.1520 -0.4028  0.3139
  822SOL    HW1 2601   1.725   0.381   1.091  0.2737  0.0039 -0.7221
  822SOL    HW2 2602   1.847   0.449   1.150  0.8748  0.0127 -1.9430
  823SOL     OW 2603   2.475   1.311   2.412  0.4952 -0.3781  0.2809
  823SOL    HW1 2604   2.552   1.256   2.425 -0.6675 -2.1266  0.1461
  823SOL    HW2 2605   2.443   1.328   2.501  1.4772  1.0887  0.3919
  824SOL     OW 2606   0.994   2.730   2.398 -0.3520  0.6408  0.3692
  824SOL    HW1 2607   0.985   2.638   2.372  0.3062  0.9008 -0.8267
  824SOL    HW2 2608   0.909   2.752   2.438 -0.6581 -0.3587  0.3010
  825SOL     OW 2609   2.306   0.050   0.982  0.2110 -0.7104  0.1905
  825SOL    HW1 2610   2.305   0.053   1.078  1.2354 -0.1374  0.1920
  825SOL    HW2 2611   2.351   0.130   0.956  1.2759 -1.5861 -0.7372
  826SOL     OW 2612   1.694   0.523   1.430 -0.3995 -0.0334  0.0094
  826SOL    HW1 2613   1.656   0.480   1.353  0.3801 -0.6894 -0.0316
  826SOL    HW2 2614   1.649   0.483   1.505  0.2699 -0.8978 -0.0328
  827SOL     OW 2615   2.335   0.675   3.272 -0.2044  0.2596 -0.4459
  827SOL    HW1 2616   2.386   0.596   3.292 -0.3633  0.4425  0.7724
  827SOL    HW2 2617   2.395   0.747   3.290 -0.2588  0.4362 -0.9557
  828SOL     OW 2618   1.380   0.137   1.212 -0.2060  0.0718 -0.3447
  828SOL    HW1 2619   1.385   0.066   1.275  1.0152  1.1322  0.8165
  828SOL    HW2 2620   1.429   0.105   1.136 -0.5246 -0.6886 -0.2397
  829SOL     OW 2621   1.187   3.255   2.837  0.3526 -0.0782  0.5105
  829SOL    HW1 2622   1.264   3.237   2.783  1.2166  1.2228  1.2333
  829SOL    HW2 2623   1.145   3.170   2.848  1.0657 -0.6380 -0.8141
  830SOL     OW 2624   3.288   2.281   0.479 -0.1149  0.6891 -0.7742
  830SOL    HW1 2625   3.274   2.262   0.572  0.2655  3.1601 -0.1507
  830SOL    HW2 2626   3.373   2.242   0.459 -0.2554  0.0306 -0.1430
  831SOL     OW 2627   0.150   1.684   2.207 -0.5937 -0.2530 -0.1515
  831SOL    HW1 2628   0.122   1.632   2.132 -0.4952  2.6660 -2.3758
  831SOL    HW2 2629   0.223   1.635   2.245  0.2209 -1.2308 -2.7652
  832SOL     OW 2630   1.236   0.652   0.464  0.1214 -0.2951 -0.1035
  832SOL    HW1 2631   1.206   0.653   0.374 -0.9439 -0.5760  0.2363
  832SOL    HW2 2632   1.159   0.629   0.516  0.3799  1.1625  1.0126
  833SOL     OW 2633   0.141   3.561   3.206  0.1458 -0.5722  0.1591
  833SOL    HW1 2634   0.136   3.628   3.273  1.9741  0.2201 -0.4367
  833SOL    HW2 2635   0.125   3.479   3.252 -2.7564  0.2170  0.8003
  834SOL     OW 2636   3.550   1.871   1.445 -0.4440 -0.2013 -0.3595
  834SOL    HW1 2637   3.493   1.810   1.491 -0.6238 -0.6417 -1.1571
  834SOL    HW2 2638   3.497   1.949   1.433 -0.2864  0.0413  0.4708
  835SOL     OW 2639   0.763   1.335   0.852  0.0734 -0.2184  0.7458
  835SOL    HW1 2640   0.812   1.297   0.778 -1.0796  1.2156 -0.8376
  835SOL    HW2 2641   0.824   1.396   0.892  0.0173  0.6891 -0.4843
  836SOL     OW 2642   0.636   2.840   1.428  0.0171 -0.2907  0.3155
  836SOL    HW1 2643   0.703   2.868   1.491  0.0429 -0.1429  0.2218
  836SOL    HW2 2644   0.617   2.918   1.377 -0.8090 -0.1162  0.8661
  837SOL     OW 2645   0.623   0.407   0.571  0.1428 -0.0792  0.1601
  837SOL    HW1 2646   0.569   0.329   0.561  2.1591 -1.2621 -2.8313
  837SOL    HW2 2647   0.709   0.381   0.539  1.7201  2.5629  1.9137
  838SOL     OW 2648   3.510   2.869   0.402 -0.0715  0.2662 -0.3740
  838SOL    HW1 2649   3.458   2.901   0.476  1.2574 -1.3553  1.3377
  838SOL    HW2 2650   3.462   2.792   0.372  0.3011 -0.1068 -0.0313
  839SOL     OW 2651   1.417   0.029   0.717 -0.0251  0.8577 -0.0330
  839SOL    HW1 2652   1.405   0.120   0.744  0.1175  0.7598  0.3645
  839SOL    HW2 2653   1.503   0.027   0.675 -0.2826  1.0274 -0.5728
  840SOL     OW 2654   2.441   1.036   1.493  0.8095 -0.2744 -0.0490
  840SOL    HW1 2655   2.459   0.952   1.452 -0.1275  0.3571 -1.8855
  840SOL    HW2 2656   2.511   1.093   1.462  1.0296 -0.1923  0.5907
  841SOL     OW 2657   1.439   2.684   2.265  0.1794 -0.1357 -0.1470
  841SOL    HW1 2658   1.512   2.629   2.296  0.4544  0.9102  1.1753
  841SOL    HW2 2659   1.366   2.660   2.321 -0.0078  0.0496 -0.3121
  842SOL     OW 2660   1.035   2.306   2.550  0.2477  0.1628 -0.1508
  842SOL    HW1 2661   1.047   2.217   2.515 -2.2364 -0.8042  1.2108
  842SOL    HW2 2662   1.076   2.303   2.637 -0.9606 -0.0935  0.4294
  843SOL     OW 2663   2.890   2.653   1.538 -0.8120  0.5643  0.5184
  843SOL    HW1 2664   2.906   2.730   1.592 -3.1942  0.8768  0.9006
  843SOL    HW2 2665   2.903   2.579   1.597  1.1812  0.6494  0.2307
  844SOL     OW 2666   3.226   1.005   2.384  0.3271 -0.4586 -0.3905
  844SOL    HW1 2667   3.237   1.083   2.330 -1.6200  1.0941  1.2823
  844SOL    HW2 2668   3.260   1.031   2.470  0.3985 -1.7336 -0.0186
  845SOL     OW 2669   1.993   2.611   0.469 -0.3518 -0.0769  1.0812
  845SOL    HW1 2670   2.046   2.602   0.390  2.4802  1.2213  2.6750
  845SOL    HW2 2671   1.939   2.532   0.470  1.7275 -1.6620 -0.6085
  846SOL     OW 2672   2.758   0.092   2.820 -0.6684  0.1261 -0.1114
  846SOL    HW1 2673   2.665   0.085   2.840 -0.9018  0.9113 -0.8712
  846SOL    HW2 2674   2.763   0.152   2.745  0.4601  0.2897  0.0653
  847SOL     OW 2675   0.771   3.486   0.021 -0.5312 -0.0708  0.3859
  847SOL    HW1 2676   0.689   3.505  -0.024 -0.4051 -1.2220 -0.3812
  847SOL    HW2 2677   0.780   3.391   0.016  0.1533 -0.1039  1.7143
  848SOL     OW 2678   3.553   0.936   1.457  0.1441 -0.4251 -0.1365
  848SOL    HW1 2679   3.587   0.963   1.371 -0.9002  0.6958 -0.2275
  848SOL    HW2 2680   3.596   0.995   1.519  0.2366 -0.6515  0.0132
  849SOL     OW 2681   1.819   1.662   1.950 -0.2371  0.1868 -0.2632
  849SOL    HW1 2682   1.788   1.604   2.019  1.0231 -0.6316 -0.3522
  849SOL    HW2 2683   1.847   1.603   1.880  3.5704  0.6084  0.6406
  850SOL     OW 2684   3.108   3.512   3.066 -0.3351 -0.1294 -0.0104
  850SOL    HW1 2685   3.196   3.542   3.089  0.3899 -1.5804 -0.7468
  850SOL    HW2 2686   3.054   3.591   3.071  1.3440  1.1942 -1.2498
  851SOL     OW 2687   3.510   3.356   1.280 -0.0064  0.5781  0.7163
  851SOL    HW1 2688   3.529   3.340   1.372 -1.1501 -0.6084  0.7700
  851SOL    HW2 2689   3.550   3.282   1.234  0.5520  1.1564  0.2331
  852SOL     OW 2690   0.975   3.423   2.809 -0.4211 -0.2641  0.1037
  852SOL    HW1 2691   1.011   3.508   2.834 -1.5158 -0.3855  2.4196
  852SOL    HW2 2692   1.052   3.366   2.800  0.3752  1.0340 -2.1026
  853SOL     OW 2693   2.467   0.680   3.017 -0.7093  0.4470  0.2723
  853SOL    HW1 2694   2.405   0.638   3.077 -1.8015  1.4446 -0.1333
  853SOL    HW2 2695   2.418   0.690   2.935  0.2849  0.4369 -0.3354
  854SOL     OW 2696   1.025   3.371   1.537 -0.1523  0.1513 -0.3276
  854SOL    HW1 2697   1.115   3.381   1.569  0.5305  0.3054 -2.1756
  854SOL    HW2 2698   0.972   3.425   1.596  1.3230  2.0662 -0.6479
  855SOL     OW 2699   3.725   0.737   1.903 -0.3373 -0.0809 -0.5462
  855SOL    HW1 2700   3.688   0.746   1.991  0.5113 -0.5987 -0.1153
  855SOL    HW2 2701   3.668   0.673   1.859 -0.7343  0.1412 -0.3546
  856SOL     OW 2702   0.002   0.211   1.855 -0.3383 -0.5015  0.0290
  856SOL    HW1 2703  -0.029   0.201   1.765 -0.4697 -1.6972  0.1869
  856SOL    HW2 2704   0.081   0.264   1.847 -0.8172  0.1275 -0.6948
  857SOL     OW 2705   0.372   1.106   2.466  0.5618  0.1860  0.5562
  857SOL    HW1 2706   0.453   1.068   2.501  1.1613  1.9933  1.2350
  857SOL    HW2 2707   0.308   1.035   2.472  1.8628 -1.0080  0.8580
  858SOL     OW 2708   2.751   1.247   2.674 -0.3865 -0.9157  0.1306
  858SOL    HW1 2709   2.711   1.267   2.759 -3.3081 -0.7929 -1.1619
  858SOL    HW2 2710   2.743   1.152   2.666  0.4707 -1.0065  0.2136
  859SOL     OW 2711   1.631   1.028   1.824 -0.3650  0.0743  0.1212
  859SOL    HW1 2712   1.700   0.962   1.820 -0.2573  0.1975 -0.1082
  859SOL    HW2 2713   1.569   0.994   1.888  1.0034  1.0285  2.0497
  860SOL     OW 2714   3.567   0.539   3.504 -0.2978  0.1352 -0.4872
  860SOL    HW1 2715   3.644   0.554   3.559 -1.2330 -0.2365  0.9831
  860SOL    HW2 2716   3.581   0.595   3.427  2.0162 -0.8724 -0.8822
  861SOL     OW 2717   3.466   1.568   1.270  0.3824  0.5348 -0.3380
  861SOL    HW1 2718   3.416   1.617   1.206 -1.1909  1.1931  1.2949
  861SOL    HW2 2719   3.476   1.628   1.344  0.5372 -0.7728  0.7455
  862SOL     OW 2720   0.778   0.349   1.916 -0.5372 -0.6528 -0.0765
  862SOL    HW1 2721   0.769   0.390   2.002 -1.9006 -1.2370  0.0786
  862SOL    HW2 2722   0.817   0.417   1.861  3.6891 -1.2795  1.7453
  863SOL     OW 2723   0.387   0.739   1.569 -0.2627  0.1556  0.2235
  863SOL    HW1 2724   0.344   0.656   1.592  0.8771 -0.7550 -0.7772
  863SOL    HW2 2725   0.429   0.721   1.485  1.6725  1.1411  0.9196
  864SOL     OW 2726   0.597   1.611   2.480 -0.3448 -0.0547  0.3839
  864SOL    HW1 2727   0.660   1.598   2.551 -1.1228 -0.3220  1.0298
  864SOL    HW2 2728   0.644   1.667   2.417  0.7376 -0.7071  0.5803
  865SOL     OW 2729   3.348   1.393   0.679 -0.5296  0.1437  0.5334
  865SOL    HW1 2730   3.365   1.360   0.768 -0.1855  0.0548  0.4339
  865SOL    HW2 2731   3.253   1.403   0.676 -0.6952 -1.2338  0.4256
  866SOL     OW 2732   1.640   2.162   2.579  0.5335  0.2656 -0.0097
  866SOL    HW1 2733   1.719   2.108   2.569  0.6248  0.3012  0.5139
  866SOL    HW2 2734   1.599   2.159   2.492 -0.1579 -1.7291  0.3222
  867SOL     OW 2735   3.619   0.945   3.459 -0.8766 -0.4594 -0.3072
  867SOL    HW1 2736   3.709   0.980   3.459  0.4997 -3.6475 -0.4287
  867SOL    HW2 2737   3.585   0.969   3.545  0.4436 -0.0360  0.1283
  868SOL     OW 2738   1.879   1.857   0.266  0.1073  0.2047  1.1065
  868SOL    HW1 2739   1.854   1.943   0.232  0.3864  0.3342  1.2197
  868SOL    HW2 2740   1.975   1.855   0.256  0.1931  0.2501  1.8994
  869SOL     OW 2741   0.215   3.732   2.980 -0.2400 -0.1560 -0.7865
  869SOL    HW1 2742   0.213   3.671   3.054  1.9318  0.0588 -0.5081
  869SOL    HW2 2743   0.205   3.676   2.903 -1.3678 -0.5035 -0.4067
  870SOL     OW 2744   2.773   3.457   3.140  0.5434 -0.2065  0.1178
  870SOL    HW1 2745   2.783   3.551   3.153 -2.1446 -0.0178  1.3524
  870SOL    HW2 2746   2.750   3.447   3.048 -0.3617  0.4945  0.2550
  871SOL     OW 2747   1.411   2.072   0.936 -0.7107  0.3958  0.0624
  871SOL    HW1 2748   1.405   2.160   0.900 -0.1674  1.5495  2.5354
  871SOL    HW2 2749   1.320   2.042   0.940 -0.9279  0.9339 -0.6057
  872SOL     OW 2750   3.100   2.739   2.782 -0.5237 -0.1792 -0.1987
  872SOL    HW1 2751   3.170   2.674   2.776  1.2761  1.7948 -2.5491
  872SOL    HW2 2752   3.115   2.782   2.866  2.4708  1.5243 -1.4652
  873SOL     OW 2753   0.227   3.618   1.513 -0.2069 -0.0672 -0.0494
  873SOL    HW1 2754   0.288   3.617   1.439 -1.2162  0.4679 -0.8933
  873SOL    HW2 2755   0.279   3.583   1.586  0.6135 -1.2200 -1.1394
  874SOL     OW 2756   3.248   0.110   0.489 -0.1845 -0.2668 -0.0668
  874SOL    HW1 2757   3.288   0.137   0.572  1.1720  1.5851 -1.2502
  874SOL    HW2 2758   3.155   0.103   0.509  0.0454  0.6754  1.5084
  875SOL     OW 2759   0.089   1.781   2.519 -0.4942  0.5406  0.5192
  875SOL    HW1 2760   0.051   1.724   2.586 -0.3647 -0.2571 -0.0669
  875SOL    HW2 2761   0.075   1.733   2.437  2.6796 -0.2890  0.3558
  876SOL     OW 2762   1.920   1.652   0.881  0.8356 -0.2696 -0.7520
  876SOL    HW1 2763   1.966   1.702   0.813 -1.6474  1.8174 -1.0676
  876SOL    HW2 2764   1.865   1.590   0.832 -1.5531  1.7656 -0.8652
  877SOL     OW 2765   2.201   3.738   2.633 -0.0231 -0.4544  0.0321
  877SOL    HW1 2766   2.205   3.642   2.640 -1.9622 -0.5167  1.0296
  877SOL    HW2 2767   2.111   3.756   2.606 -0.4287  1.1641  2.2319
  878SOL     OW 2768   3.409   1.083   2.869 -0.1333  0.1307 -0.0370
  878SOL    HW1 2769   3.375   1.144   2.935  0.4441  1.2817 -0.7695
  878SOL    HW2 2770   3.504   1.095   2.873 -0.0943  0.1904 -1.0533
  879SOL     OW 2771   2.669   1.427   1.764 -0.3678  0.0316  0.3268
  879SOL    HW1 2772   2.676   1.332   1.759  1.1148  0.1629 -1.0071
  879SOL    HW2 2773   2.747   1.455   1.812 -0.0723  0.6262 -0.4607
  880SOL     OW 2774   1.548   3.607   2.299  0.9064  0.7420  0.0702
  880SOL    HW1 2775   1.480   3.559   2.251  0.7919 -1.8394  2.5236
  880SOL    HW2 2776   1.513   3.695   2.309 -1.7468 -0.2599  0.5006
  881SOL     OW 2777   1.473   0.307   0.685 -0.4498  0.0727 -0.1758
  881SOL    HW1 2778   1.478   0.300   0.589 -1.5493 -0.4073 -0.2116
  881SOL    HW2 2779   1.419   0.385   0.700 -1.7466 -0.8246  0.0083
  882SOL     OW 2780   2.473   2.178   1.958  0.4241  0.3759 -0.4914
  882SOL    HW1 2781   2.490   2.120   2.032  0.9730 -2.1493 -2.4504
  882SOL    HW2 2782   2.383   2.158   1.932  0.1876  1.3330 -0.4430
  883SOL     OW 2783   0.938   2.380   0.920  0.0948  0.4323 -0.4641
  883SOL    HW1 2784   0.971   2.450   0.977  0.3558  1.4818 -1.8423
  883SOL    HW2 2785   0.970   2.404   0.833 -0.7534 -0.8282 -1.1454
  884SOL     OW 2786   0.682   0.632   1.462  0.1500 -0.0484 -0.1804
  884SOL    HW1 2787   0.718   0.716   1.490 -0.3002  0.7935 -1.9951
  884SOL    HW2 2788   0.660   0.645   1.370 -0.0938 -2.1158 -0.4480
  885SOL     OW 2789   1.897   2.961   0.211 -0.1986  0.2897 -0.7610
  885SOL    HW1 2790   1.876   3.010   0.291  1.0929 -1.4385  0.7190
  885SOL    HW2 2791   1.812   2.930   0.179 -0.5911 -1.1495  1.4427
  886SOL     OW 2792   0.613   1.391   3.417 -0.5833  0.3572  1.0202
  886SOL    HW1 2793   0.628   1.484   3.404  1.1033 -0.0413 -0.2278
  886SOL    HW2 2794   0.611   1.354   3.329  2.2887 -1.2134  1.4589
  887SOL     OW 2795   0.170   1.338   1.620 -0.1570  0.1995 -0.2536
  887SOL    HW1 2796   0.102   1.406   1.626 -0.9686 -0.3445 -2.2518
  887SOL    HW2 2797   0.221   1.348   1.700 -0.8729  2.4889  0.0070
  888SOL     OW 2798   1.969   2.512   1.005 -0.5103  0.6006 -0.5300
  888SOL    HW1 2799   1.887   2.526   0.957 -0.6117  2.6212  0.1270
  888SOL    HW2 2800   1.959   2.563   1.085  0.8053 -0.3608  0.2839
  889SOL     OW 2801   0.508   0.076   2.964  0.3598 -0.3311 -0.1141
  889SOL    HW1 2802   0.414   0.062   2.962  0.4787 -1.5478 -3.4539
  889SOL    HW2 2803   0.525   0.142   2.897  1.9030 -0.5697 -0.0119
  890SOL     OW 2804   1.601   3.574   3.042  0.2041  0.1992 -0.5018
  890SOL    HW1 2805   1.645   3.505   2.993  0.2293  0.0413 -0.2555
  890SOL    HW2 2806   1.551   3.622   2.975  1.9055  1.3058 -1.0329
  891SOL     OW 2807   2.239   2.442   2.435  0.1653  0.4675 -0.6577
  891SOL    HW1 2808   2.242   2.351   2.465  0.3758  0.4923 -0.6055
  891SOL    HW2 2809   2.275   2.439   2.346  0.0052  0.4732 -0.7249
  892SOL     OW 2810   1.827   2.710   3.137 -0.1744 -0.3926  0.2280
  892SOL    HW1 2811   1.794   2.655   3.067  3.5520 -3.7536  0.7368
  892SOL    HW2 2812   1.764   2.698   3.209 -1.2939 -1.1137 -0.8414
  893SOL     OW 2813   3.261   0.198  -0.010 -0.1774 -0.0877  0.3434
  893SOL    HW1 2814   3.257   0.206   0.085 -2.5098  0.3000  0.2887
  893SOL    HW2 2815   3.301   0.280  -0.039  2.3298 -0.9984  1.0151
  894SOL     OW 2816   2.603   1.823   3.184  0.1185  0.5305  0.0222
  894SOL    HW1 2817   2.651   1.905   3.189  0.4422  0.4285 -1.0284
  894SOL    HW2 2818   2.530   1.841   3.125  0.5508 -0.0758 -0.7367
  895SOL     OW 2819   1.122   1.491   0.636 -0.2131 -0.0660  0.2019
  895SOL    HW1 2820   1.093   1.570   0.591 -0.9061 -0.1031  0.5717
  895SOL    HW2 2821   1.195   1.520   0.691 -0.0512  0.1837 -0.1415
  896SOL     OW 2822   1.477   1.412   0.012  0.6643 -0.7521 -0.5062
  896SOL    HW1 2823   1.548   1.460   0.054  0.7856  0.5530 -2.1130
  896SOL    HW2 2824   1.431   1.369   0.085  2.3757 -0.6962  0.6782
  897SOL     OW 2825   0.982   2.609   1.097 -0.2184 -0.3426  0.4015
  897SOL    HW1 2826   0.911   2.668   1.071  0.5927  0.8440  0.7831
  897SOL    HW2 2827   0.994   2.625   1.191 -0.8525 -2.1035  0.8308
  898SOL     OW 2828   3.348   1.571   1.742 -0.2887 -0.0002 -0.3245
  898SOL    HW1 2829   3.256   1.557   1.764 -0.4053  0.7234 -0.2980
  898SOL    HW2 2830   3.383   1.484   1.722 -0.5513 -0.4985  1.2700
  899SOL     OW 2831   1.696   0.773   0.943 -0.0214 -0.4924 -0.3161
  899SOL    HW1 2832   1.707   0.694   0.889 -1.3823 -0.8225 -0.1432
  899SOL    HW2 2833   1.640   0.830   0.891  0.1752 -0.0321 -0.0313
  900SOL     OW 2834   3.410   2.601   2.423 -0.2805 -0.0577 -0.1470
  900SOL    HW1 2835   3.390   2.584   2.331 -3.2438 -0.7756  0.5095
  900SOL    HW2 2836   3.360   2.681   2.444 -0.0433 -0.1758  0.9526
  901SOL     OW 2837   2.630   1.488   2.244  0.0574 -0.0553  0.2464
  901SOL    HW1 2838   2.540   1.473   2.273 -0.4034  0.9631 -0.5845
  901SOL    HW2 2839   2.682   1.477   2.324 -1.2529  3.3604  1.7960
  902SOL     OW 2840   2.234   3.548   2.856  0.3358  0.7452 -0.1706
  902SOL    HW1 2841   2.287   3.494   2.915  2.5201  0.1938 -2.4642
  902SOL    HW2 2842   2.195   3.485   2.796  2.5534  1.5110 -2.6119
  903SOL     OW 2843   1.089   0.917   2.442  0.8292 -0.5074 -0.5171
  903SOL    HW1 2844   1.080   1.009   2.421 -1.5804 -0.5482  0.0448
  903SOL    HW2 2845   1.054   0.909   2.531  0.1482 -2.0701 -0.8898
  904SOL     OW 2846   2.697   1.459   0.098 -0.3335  0.0715  0.5098
  904SOL    HW1 2847   2.735   1.433   0.014 -1.4235  0.1861 -0.0353
  904SOL    HW2 2848   2.609   1.490   0.076 -1.2979 -1.5235  1.8975
  905SOL     OW 2849   1.578   0.550   1.934  0.3296  0.0917 -0.1842
  905SOL    HW1 2850   1.625   0.633   1.947  1.3321 -0.4335 -0.4395
  905SOL    HW2 2851   1.492   0.566   1.975 -0.3532  2.0123 -2.1416
  906SOL     OW 2852   0.198   1.067   0.511  0.7686  0.5783  0.1808
  906SOL    HW1 2853   0.176   0.984   0.469  2.1396  0.8414 -1.1639
  906SOL    HW2 2854   0.202   1.047   0.604  1.8175 -1.0587 -0.1785
  907SOL     OW 2855   2.821   1.889   1.045 -0.6509  0.1884  0.6084
  907SOL    HW1 2856   2.910   1.854   1.049 -0.3511  0.7571 -0.5807
  907SOL    HW2 2857   2.829   1.977   1.084 -1.1487 -0.5314  2.4438
  908SOL     OW 2858   1.211   3.511   0.157 -0.5332  0.2861 -0.4352
  908SOL    HW1 2859   1.297   3.546   0.137 -2.0221  4.0772 -1.1451
  908SOL    HW2 2860   1.221   3.470   0.243  2.1164 -0.3405 -0.9507
  909SOL     OW 2861   2.231   1.925   2.394  0.0575 -0.2707  0.2035
  909SOL    HW1 2862   2.197   1.934   2.305 -1.7218  2.0160  1.0140
  909SOL    HW2 2863   2.204   1.837   2.421 -0.1947 -0.6462 -1.1897
  910SOL     OW 2864   0.433   1.415   2.898 -0.2596  0.1034 -0.4647
  910SOL    HW1 2865   0.412   1.481   2.833  1.1183  1.2664  0.1984
  910SOL    HW2 2866   0.365   1.424   2.965 -0.0584  0.9085 -0.3566
  911SOL     OW 2867   1.980   0.267   0.164  0.4281 -0.1826 -0.4266
  911SOL    HW1 2868   1.887   0.247   0.177  0.1629 -0.0222 -1.8755
  911SOL    HW2 2869   2.006   0.314   0.243 -1.0492  0.8373 -0.5160
  912SOL     OW 2870   2.841   0.920   3.301 -0.2011  0.7888  0.4622
  912SOL    HW1 2871   2.886   0.982   3.244 -1.1484  2.1437  1.1427
  912SOL    HW2 2872   2.765   0.892   3.251 -0.0428  0.5519  0.3519
  913SOL     OW 2873   3.010   1.862   3.414  0.6325  0.1945 -0.4562
  913SOL    HW1 2874   2.992   1.941   3.363  0.7894 -1.1290 -2.7062
  913SOL    HW2 2875   2.963   1.875   3.496  0.5976  2.5734 -0.7741
  914SOL     OW 2876   1.193   0.442   3.098  0.4806  0.2146  0.4719
  914SOL    HW1 2877   1.203   0.403   3.011 -1.5103 -0.3269  0.4299
  914SOL    HW2 2878   1.212   0.535   3.085  1.1881 -0.0286 -0.3241
  915SOL     OW 2879   1.042   3.611   0.951 -0.0060  0.2447 -1.0120
  915SOL    HW1 2880   1.088   3.677   1.004  2.6625 -2.9131  1.0006
  915SOL    HW2 2881   1.070   3.629   0.861  2.5389  0.5630 -0.2482
  916SOL     OW 2882   0.989   2.312   1.291  0.3790  0.1103  0.0657
  916SOL    HW1 2883   1.020   2.395   1.326  0.3437 -0.4422  1.4685
  916SOL    HW2 2884   0.963   2.261   1.368 -1.0898 -0.6076 -0.8537
  917SOL     OW 2885   1.030   2.650   2.058  0.0117 -0.4472  0.4931
  917SOL    HW1 2886   1.086   2.706   2.004  0.4898 -0.1141  1.3131
  917SOL    HW2 2887   0.992   2.709   2.123 -2.9660 -0.2367 -1.2409
  918SOL     OW 2888   3.562   3.626   2.195  0.1043  0.1131  0.2755
  918SOL    HW1 2889   3.607   3.612   2.279  2.0778  0.7218 -0.6261
  918SOL    HW2 2890   3.631   3.653   2.135 -1.5018  1.2034 -1.1824
  919SOL     OW 2891   0.085   1.893   1.400 -0.1515  0.5141  0.3071
  919SOL    HW1 2892   0.113   1.803   1.414  0.9306  0.9475  1.0509
  919SOL    HW2 2893  -0.011   1.889   1.400 -0.1233 -0.5140  1.1526
  920SOL     OW 2894   1.850   2.257   0.160  0.1813 -0.3995 -0.5687
  920SOL    HW1 2895   1.828   2.306   0.240 -0.4822  1.0467 -1.5860
  920SOL    HW2 2896   1.766   2.223   0.130  0.6237 -2.1274  0.0596
  921SOL     OW 2897   2.970   0.811   2.022  0.1488 -0.3121  0.3968
  921SOL    HW1 2898   2.943   0.727   1.986  3.6773 -0.1933 -3.2013
  921SOL    HW2 2899   3.043   0.790   2.081  2.0294  0.1315 -1.6332
  922SOL     OW 2900   0.902   0.420   2.888 -0.3728  0.1799 -0.1114
  922SOL    HW1 2901   0.841   0.348   2.908  0.7495 -0.4319  1.2389
  922SOL    HW2 2902   0.988   0.378   2.887  0.3273  1.5478  0.9164
  923SOL     OW 2903   0.826   1.070   3.472 -0.1000  0.6069  0.3388
  923SOL    HW1 2904   0.800   0.989   3.516 -1.7856  1.2889  0.6930
  923SOL    HW2 2905   0.920   1.061   3.459 -0.5936 -2.7490 -2.3521
  924SOL     OW 2906   0.317   0.066   1.742  0.2749 -0.9669  0.2504
  924SOL    HW1 2907   0.364   0.101   1.665  0.1454 -0.2799  0.4763
  924SOL    HW2 2908   0.264   0.140   1.773 -1.5478 -1.9434 -0.4420
  925SOL     OW 2909   2.322   3.181   1.132 -0.2416  0.4451 -0.0073
  925SOL    HW1 2910   2.312   3.227   1.049  1.4410  1.7710  0.4589
  925SOL    HW2 2911   2.354   3.248   1.193 -0.6186 -0.6786  1.4979
  926SOL     OW 2912   2.865   1.496   0.812 -0.2762  0.3360  0.3625
  926SOL    HW1 2913   2.873   1.526   0.902 -2.2373  0.2089  0.6240
  926SOL    HW2 2914   2.817   1.566   0.767  1.1803  0.6645 -0.7418
  927SOL     OW 2915   1.836   0.562   2.914  0.5252 -0.4409 -0.7730
  927SOL    HW1 2916   1.750   0.598   2.892  0.6566  2.3373  2.3336
  927SOL    HW2 2917   1.817   0.489   2.973 -0.0874  2.7021  3.4623
  928SOL     OW 2918   1.320   1.364   2.233 -0.0109 -0.6957  0.3271
  928SOL    HW1 2919   1.404   1.368   2.187  0.4819 -0.9936  1.1819
  928SOL    HW2 2920   1.344   1.355   2.325 -0.9879 -0.7407  0.5829
  929SOL     OW 2921   1.092   1.068   0.594 -0.0384 -0.6628  0.2560
  929SOL    HW1 2922   1.045   1.004   0.540 -1.5084 -0.6317  1.4325
  929SOL    HW2 2923   1.039   1.147   0.588  1.3387  0.2443 -0.5327
  930SOL     OW 2924   3.743   2.971   2.037 -0.1025 -1.0191  0.1358
  930SOL    HW1 2925   3.704   2.898   2.086 -1.0218 -0.3202  0.4667
  930SOL    HW2 2926   3.668   3.019   2.001  0.4762 -0.0311  0.2129
  931SOL     OW 2927   0.417   3.583   0.976 -0.5593  0.0338 -0.3742
  931SOL    HW1 2928   0.432   3.489   0.969  3.1542  0.4032  0.2303
  931SOL    HW2 2929   0.326   3.592   1.003 -0.3184 -3.5515  2.3224
  932SOL     OW 2930   1.143   0.281   2.847  0.2201 -0.6174 -0.4979
  932SOL    HW1 2931   1.232   0.289   2.812  1.0244 -0.1287  1.5347
  932SOL    HW2 2932   1.141   0.193   2.885 -0.5790 -1.0660 -1.5254
  933SOL     OW 2933   2.686   0.250   3.673  0.4538  0.2769 -0.2413
  933SOL    HW1 2934   2.627   0.287   3.739  2.8322  0.9994  1.6340
  933SOL    HW2 2935   2.732   0.179   3.718  2.9726  1.5210 -0.6639
  934SOL     OW 2936   2.303   2.376   2.162 -0.2239 -0.1241 -0.4840
  934SOL    HW1 2937   2.323   2.306   2.100  2.3151 -0.0041  0.0706
  934SOL    HW2 2938   2.311   2.457   2.111 -0.6177 -0.1267 -0.5517
  935SOL     OW 2939   2.571   1.523   1.221 -0.5365 -0.3124  0.3826
  935SOL    HW1 2940   2.555   1.615   1.200  0.0561 -0.2252  0.3100
  935SOL    HW2 2941   2.629   1.526   1.297 -0.6342 -0.6299  0.4692
  936SOL     OW 2942   1.575   1.893   2.404 -0.3808  0.5257 -0.2124
  936SOL    HW1 2943   1.549   1.872   2.493 -1.5482  0.9565 -0.4386
  936SOL    HW2 2944   1.536   1.978   2.386 -0.5040  0.2665 -1.2746
  937SOL     OW 2945   3.188   0.495   2.223  0.2754 -0.0144  0.4108
  937SOL    HW1 2946   3.252   0.522   2.158 -0.4485  0.0841 -0.2869
  937SOL    HW2 2947   3.170   0.573   2.275 -1.8222  0.9551 -1.6032
  938SOL     OW 2948   0.468   1.792   3.554 -0.6303 -1.0169  0.0628
  938SOL    HW1 2949   0.388   1.823   3.595  0.0311 -0.4107  0.9319
  938SOL    HW2 2950   0.468   1.697   3.570 -0.9612 -0.9580  0.4274
  939SOL     OW 2951   0.371   1.460   2.226 -0.2547 -0.0577  0.3179
  939SOL    HW1 2952   0.461   1.471   2.194  0.2761 -0.5295  1.5999
  939SOL    HW2 2953   0.350   1.369   2.206 -0.0843 -0.2255  0.8849
  940SOL     OW 2954   0.932   2.931   2.144 -0.1917 -0.2207 -1.0035
  940SOL    HW1 2955   0.974   2.995   2.202 -1.1358  0.1508 -0.7124
  940SOL    HW2 2956   0.848   2.912   2.186 -0.3830 -0.8550 -1.6426
  941SOL     OW 2957   2.692   1.079   0.212  0.0326 -0.3515  0.4333
  941SOL    HW1 2958   2.646   1.126   0.281 -2.0900 -0.7807 -0.5920
  941SOL    HW2 2959   2.753   1.021   0.258  0.0777  0.7716  1.8372
  942SOL     OW 2960   2.362   1.385   1.813  0.0228 -0.2902  0.1019
  942SOL    HW1 2961   2.328   1.356   1.728 -0.4463 -0.2242  0.2659
  942SOL    HW2 2962   2.456   1.393   1.799  0.0455 -0.9846 -0.2074
  943SOL     OW 2963   3.673   2.934   0.150 -0.7982 -0.5994  0.1934
  943SOL    HW1 2964   3.736   2.869   0.118  1.0903  1.0295  0.3828
  943SOL    HW2 2965   3.622   2.887   0.216  1.6583 -1.5010  1.6055
  944SOL     OW 2966   1.539   2.376   0.104 -0.1240  0.1562 -0.1256
  944SOL    HW1 2967   1.510   2.377   0.196 -2.1611  1.3748 -0.6997
  944SOL    HW2 2968   1.561   2.467   0.085  0.2609 -0.0818 -0.8480
  945SOL     OW 2969   2.811   1.842   3.705  0.2081  0.3378  0.4450
  945SOL    HW1 2970   2.876   1.772   3.709  0.4914  0.6419  1.5150
  945SOL    HW2 2971   2.749   1.813   3.638  0.7476 -0.5607  0.3137
  946SOL     OW 2972   1.288   1.207   3.135 -0.3528  0.0055  0.3239
  946SOL    HW1 2973   1.317   1.227   3.224  0.1179  1.3007 -0.0996
  946SOL    HW2 2974   1.367   1.179   3.090 -0.7136 -1.2906  0.4735
  947SOL     OW 2975   2.021   2.014   0.464  0.0333 -0.4771  0.2169
  947SOL    HW1 2976   1.994   2.036   0.553  0.6872 -0.3481  0.3854
  947SOL    HW2 2977   1.949   2.045   0.409  0.2395  0.7111  0.5794
  948SOL     OW 2978   1.688   0.507   0.583  0.0378 -0.3043 -0.4145
  948SOL    HW1 2979   1.603   0.467   0.565 -1.8163  1.9919  2.3617
  948SOL    HW2 2980   1.680   0.595   0.546  0.7383  0.3140  0.8535
  949SOL     OW 2981   2.774   2.073   2.373 -0.5474  0.2976 -0.3673
  949SOL    HW1 2982   2.714   2.035   2.438 -1.5730  1.9291 -0.3164
  949SOL    HW2 2983   2.804   2.155   2.413  0.8185  0.0887 -0.9038
  950SOL     OW 2984   3.434   0.981   3.676 -0.6515  0.1386 -0.1443
  950SOL    HW1 2985   3.514   0.968   3.726 -0.6922 -0.5754 -0.2426
  950SOL    HW2 2986   3.369   1.009   3.741 -0.3662  0.5589 -0.0380
  951SOL     OW 2987   1.238   1.412   2.971 -0.2693  0.5674  0.0228
  951SOL    HW1 2988   1.272   1.466   3.043  0.2459 -0.1594  0.3417
  951SOL    HW2 2989   1.231   1.324   3.009  0.7225  0.0186 -1.0079
  952SOL     OW 2990   0.444   2.566   0.140 -0.1717 -0.3810  0.3855
  952SOL    HW1 2991   0.374   2.621   0.176 -1.5232 -0.8666 -1.3615
  952SOL    HW2 2992   0.507   2.628   0.105  0.2055  0.0647  1.7919
  953SOL     OW 2993   1.792   1.284   2.283 -0.7991 -0.4805 -0.2381
  953SOL    HW1 2994   1.837   1.241   2.210 -0.6253 -0.9377  0.1374
  953SOL    HW2 2995   1.831   1.372   2.286  0.3066 -0.9721  0.2838
  954SOL     OW 2996   3.216   3.680   2.463  0.3155  0.0660  0.3836
  954SOL    HW1 2997   3.128   3.679   2.426 -0.2533 -1.3275  1.6796
  954SOL    HW2 2998   3.228   3.593   2.500  2.1924  0.2823  0.3766
  955SOL     OW 2999   0.256   0.570   1.935  0.4527 -0.9541 -0.4777
  955SOL    HW1 3000   0.187   0.605   1.991  0.9037 -0.8504  0.0244
  955SOL    HW2 3001   0.332   0.625   1.954  0.6794 -1.0721 -1.0164
  956SOL     OW 3002   1.338   0.534   0.840  0.3148  0.7152 -0.1141
  956SOL    HW1 3003   1.392   0.535   0.919  2.1450 -2.0215 -1.1831
  956SOL    HW2 3004   1.256   0.495   0.868  1.2355 -0.9953  0.3749
  957SOL     OW 3005   1.724   2.810   0.864  0.2779  0.3735 -0.4186
  957SOL    HW1 3006   1.634   2.831   0.837  0.7631  0.0502 -2.4482
  957SOL    HW2 3007   1.724   2.714   0.871  0.7347  0.2838 -1.5314
  958SOL     OW 3008   2.613   3.697   0.880 -0.2902 -0.1530  0.1133
  958SOL    HW1 3009   2.559   3.642   0.937 -0.8553 -2.5863 -2.5305
  958SOL    HW2 3010   2.559   3.774   0.862 -0.8762 -0.2707  1.2777
  959SOL     OW 3011   3.265   1.986   1.094  0.3771  0.0221 -0.1398
  959SOL    HW1 3012   3.280   2.071   1.136 -0.2581 -0.8129  1.9036
  959SOL    HW2 3013   3.353   1.952   1.076  0.6671  0.4865  0.3764
  960SOL     OW 3014   0.130   3.328   3.605  0.0687 -0.1320  0.2461
  960SOL    HW1 3015   0.083   3.254   3.644 -0.0162  0.5393  1.4434
  960SOL    HW2 3016   0.131   3.395   3.673  0.8378  0.6889 -0.5465
  961SOL     OW 3017   1.129   1.887   2.535  0.5539  0.0221  0.0895
  961SOL    HW1 3018   1.084   1.871   2.617  0.0823 -2.7712 -0.5942
  961SOL    HW2 3019   1.173   1.804   2.515  2.0368  1.1434 -1.6456
  962SOL     OW 3020   0.494   1.102   1.856  0.5584 -0.1988 -0.0404
  962SOL    HW1 3021   0.520   1.010   1.846  0.1846 -0.4666  1.3078
  962SOL    HW2 3022   0.398   1.100   1.856  0.5363  0.2985 -0.7964
  963SOL     OW 3023   1.121   2.185   2.810 -0.6508 -0.0182 -0.3029
  963SOL    HW1 3024   1.142   2.229   2.892  0.3321  1.8673 -1.5168
  963SOL    HW2 3025   1.202   2.139   2.786 -1.0800 -0.9604 -0.0261
  964SOL     OW 3026   0.413   0.254   2.407 -0.3206  0.1632 -1.0625
  964SOL    HW1 3027   0.411   0.248   2.312 -1.8769 -0.3942 -1.0286
  964SOL    HW2 3028   0.369   0.337   2.426 -0.3804  0.0754 -0.8125
  965SOL     OW 3029   0.333   3.172   0.228  0.1712  0.0547  0.6765
  965SOL    HW1 3030   0.240   3.187   0.244 -0.4053 -1.3627 -1.0935
  965SOL    HW2 3031   0.344   3.077   0.237  1.1530  0.0380 -0.5005
  966SOL     OW 3032   0.650   1.701   0.772 -0.4733 -0.6161 -0.5235
  966SOL    HW1 3033   0.611   1.710   0.859  3.3763  0.5028  1.3028
  966SOL    HW2 3034   0.658   1.791   0.740 -0.8512 -0.9509 -1.6260
  967SOL     OW 3035   2.210   2.889   1.805  0.6724  0.2166  0.1344
  967SOL    HW1 3036   2.224   2.885   1.899  0.0448 -0.1725  0.2168
  967SOL    HW2 3037   2.122   2.924   1.795  0.4585 -0.4227 -0.2843
  968SOL     OW 3038   1.852   1.254   0.595 -0.2904 -0.4658 -0.7449
  968SOL    HW1 3039   1.904   1.335   0.593 -1.4116  0.3057  0.1055
  968SOL    HW2 3040   1.767   1.281   0.631 -0.2245 -2.2856  0.9109
  969SOL     OW 3041   2.359   0.366   3.572 -0.2180  0.2552  0.6359
  969SOL    HW1 3042   2.289   0.401   3.516  0.0011 -0.2537  0.0338
  969SOL    HW2 3043   2.392   0.443   3.619  0.1386  0.8417 -0.5401
  970SOL     OW 3044   1.864   2.068   3.277  0.2722  0.1498  0.3040
  970SOL    HW1 3045   1.784   2.077   3.329 -1.1899 -0.2943 -1.7577
  970SOL    HW2 3046   1.873   1.973   3.263 -1.3441  0.3553 -3.0218
  971SOL     OW 3047   3.254   1.192   1.905  0.2555  0.6214  0.0603
  971SOL    HW1 3048   3.333   1.138   1.905  0.3188  0.5346 -2.9069
  971SOL    HW2 3049   3.286   1.282   1.904  0.1936  0.7096  1.9893
  972SOL     OW 3050   3.006   0.609   2.700  0.1829 -0.1704 -0.1065
  972SOL    HW1 3051   2.945   0.553   2.748 -1.1260  1.1884 -0.1255
  972SOL    HW2 3052   3.075   0.630   2.763 -0.0931 -0.5784  0.3371
  973SOL     OW 3053   2.603   1.674   1.456 -0.3321 -0.3539  0.6403
  973SOL    HW1 3054   2.616   1.726   1.376 -3.0884  1.9439  1.4821
  973SOL    HW2 3055   2.691   1.661   1.491  0.8301 -0.0923 -1.9190
  974SOL     OW 3056   1.751   2.301   2.207  0.4891 -0.4861  0.4234
  974SOL    HW1 3057   1.706   2.353   2.140 -0.8021  0.0854  1.7066
  974SOL    HW2 3058   1.842   2.297   2.176  0.2858  1.2123 -0.5032
  975SOL     OW 3059   0.467   2.610   2.516 -0.6850  0.1739  0.0695
  975SOL    HW1 3060   0.465   2.514   2.514  0.4083  0.1404 -0.0525
  975SOL    HW2 3061   0.414   2.633   2.592  0.4940 -0.6101  1.1597
  976SOL     OW 3062   2.431   3.401   1.315 -0.3869 -0.1114  0.6944
  976SOL    HW1 3063   2.513   3.445   1.337 -0.0014  0.1205 -1.1013
  976SOL    HW2 3064   2.363   3.466   1.334 -0.0882  0.0513  1.2328
  977SOL     OW 3065   1.704   0.305   2.972  0.5179 -0.0697  0.5462
  977SOL    HW1 3066   1.666   0.314   3.059 -0.8893 -0.7416  0.0539
  977SOL    HW2 3067   1.779   0.246   2.983  0.3029 -0.2039  1.2924
  978SOL     OW 3068   2.804   0.181   0.770  0.0561  0.1135 -0.0163
  978SOL    HW1 3069   2.763   0.123   0.834  0.6083 -0.7639 -0.4478
  978SOL    HW2 3070   2.888   0.204   0.807  0.0321  0.2698 -0.0563
  979SOL     OW 3071   1.615   2.157   2.846  0.6014  0.0129 -0.4338
  979SOL    HW1 3072   1.687   2.220   2.858  0.8480 -0.0681 -1.4260
  979SOL    HW2 3073   1.606   2.149   2.751 -0.0862 -0.7127 -0.3134
  980SOL     OW 3074   0.668   3.615   2.723 -0.9396  0.2017  0.5344
  980SOL    HW1 3075   0.621   3.533   2.734  2.7385 -1.9928  1.6773
  980SOL    HW2 3076   0.708   3.608   2.636 -0.8987  0.9969  0.4797
  981SOL     OW 3077   1.162   3.112   1.045  0.0062  0.0665 -0.2215
  981SOL    HW1 3078   1.138   3.176   0.978 -1.2717 -0.6715 -0.5085
  981SOL    HW2 3079   1.121   3.145   1.126 -0.9277 -0.5282 -0.4373
  982SOL     OW 3080   0.205   2.483   1.711  0.3779  0.1587 -0.5048
  982SOL    HW1 3081   0.121   2.468   1.755  0.2657  3.1875  0.5691
  982SOL    HW2 3082   0.188   2.558   1.654  1.9990 -0.1419 -1.4227
  983SOL     OW 3083   3.401   1.724   0.306 -0.5984 -0.1185 -0.4002
  983SOL    HW1 3084   3.415   1.675   0.388 -0.1071 -1.1282 -1.0709
  983SOL    HW2 3085   3.481   1.776   0.297 -0.9321  0.4920  0.0877
  984SOL     OW 3086   1.306   2.627   2.808  0.6933  0.3697 -0.3936
  984SOL    HW1 3087   1.396   2.597   2.794  0.9536  0.9630 -0.0206
  984SOL    HW2 3088   1.256   2.585   2.738  1.3061  0.2366 -0.7602
  985SOL     OW 3089   2.881   1.910   1.358  0.3937 -0.0732  0.4542
  985SOL    HW1 3090   2.868   1.939   1.267 -1.6028 -0.3444  0.6148
  985SOL    HW2 3091   2.943   1.837   1.351 -0.3799 -0.6477 -0.7988
  986SOL     OW 3092   0.628   3.070   2.041 -0.0768  0.3881 -0.1695
  986SOL    HW1 3093   0.721   3.095   2.035  0.1260  0.0289  1.1509
  986SOL    HW2 3094   0.621   2.990   1.989  0.7191 -0.4727  1.0005
  987SOL     OW 3095   1.177   1.842   3.248  0.4631 -0.3679  0.6417
  987SOL    HW1 3096   1.160   1.828   3.155  2.9043  0.2258  0.0279
  987SOL    HW2 3097   1.143   1.930   3.265 -1.9077 -1.2674  0.9103
  988SOL     OW 3098   2.508   1.659   1.911  0.8410  0.1017 -0.0281
  988SOL    HW1 3099   2.548   1.723   1.853  2.1055  2.1970  2.8629
  988SOL    HW2 3100   2.427   1.632   1.867  2.1722  0.7057 -3.1007
  989SOL     OW 3101   3.387   0.003   0.150  0.1422 -0.2292 -0.0786
  989SOL    HW1 3102   3.429   0.089   0.146  0.2179 -0.2191  0.7931
  989SOL    HW2 3103   3.305   0.014   0.100  0.8798 -0.0989 -1.3161
  990SOL     OW 3104   3.312   2.117   0.770 -0.2680 -0.0500 -0.3934
  990SOL    HW1 3105   3.293   2.026   0.793  1.5612 -0.2922  0.2883
  990SOL    HW2 3106   3.241   2.167   0.811 -0.7875 -1.0853  0.0151
  991SOL     OW 3107   1.549   2.183   2.335 -0.2651  0.0387 -0.0268
  991SOL    HW1 3108   1.625   2.221   2.293  0.1916 -1.0056 -0.1877
  991SOL    HW2 3109   1.480   2.249   2.326  0.7036  1.1388  0.4254
  992SOL     OW 3110   1.404   1.036   2.374 -0.0176  0.2354  0.3964
  992SOL    HW1 3111   1.313   1.061   2.358 -0.2680 -1.2786 -0.7028
  992SOL    HW2 3112   1.413   0.950   2.335  1.5902 -0.1641  1.5350
  993SOL     OW 3113   1.333   0.142   3.250 -0.0744 -0.2516 -0.3074
  993SOL    HW1 3114   1.300   0.098   3.171  1.3426  0.0411 -1.1085
  993SOL    HW2 3115   1.257   0.151   3.306 -0.8726 -1.6260 -1.1058
  994SOL     OW 3116   3.619   1.394   2.610  0.6368 -0.1521 -0.3346
  994SOL    HW1 3117   3.614   1.471   2.666 -2.8089 -0.8708  0.5818
  994SOL    HW2 3118   3.688   1.341   2.648  2.1087  1.7856 -0.1450
  995SOL     OW 3119   2.067   1.137   3.412 -0.5776  0.1636  0.5838
  995SOL    HW1 3120   2.021   1.214   3.445 -0.3956  1.1947 -1.4131
  995SOL    HW2 3121   2.079   1.154   3.318 -2.0483 -3.0569 -0.3295
  996SOL     OW 3122   3.141   2.041   2.290 -0.2904  0.5271  0.6861
  996SOL    HW1 3123   3.191   2.090   2.225 -1.0465  0.0342 -0.2907
  996SOL    HW2 3124   3.160   1.949   2.270  0.9749  0.3800  2.3837
  997SOL     OW 3125   2.027   2.436   2.071  0.0106  0.2986 -0.2492
  997SOL    HW1 3126   2.070   2.379   2.134 -0.5089 -0.6538 -0.7382
  997SOL    HW2 3127   2.056   2.405   1.985  2.0183  2.6170 -0.5256
  998SOL     OW 3128   3.222   3.163   0.039 -0.0817 -0.3582  0.5552
  998SOL    HW1 3129   3.201   3.074   0.066 -2.6509 -0.1601 -0.5316
  998SOL    HW2 3130   3.153   3.217   0.079  1.1311  1.1043  0.7727
  999SOL     OW 3131   0.539   2.471   2.885  0.0036  0.1594  0.5977
  999SOL    HW1 3132   0.484   2.444   2.958 -2.3122  0.8660 -0.7917
  999SOL    HW2 3133   0.591   2.544   2.920  1.4289 -1.6005  2.4141
 1000SOL     OW 3134   2.602   1.555   0.580 -0.3361  0.0719 -0.2660
 1000SOL    HW1 3135   2.689   1.589   0.600 -1.3770  1.7450  1.7734
 1000SOL    HW2 3136   2.545   1.632   0.583 -2.4196 -1.4242  1.9673
 1001SOL     OW 3137   0.237   0.866   3.710 -0.5245  0.2914  0.3871
 1001SOL    HW1 3138   0.296   0.887   3.782  1.8999 -0.5605 -1.2116
 1001SOL    HW2 3139   0.191   0.948   3.692  1.9521  1.7298  0.2125
 1002SOL     OW 3140   1.035   0.652   2.745 -0.6171  0.2669 -0.5737
 1002SOL    HW1 3141   1.121   0.666   2.784 -0.7235 -0.2190 -0.1498
 1002SOL    HW2 3142   0.990   0.593   2.806 -1.3224  0.6700 -0.6898
 1003SOL     OW 3143   0.583   2.417   0.985 -0.0101  0.5102 -0.3015
 1003SOL    HW1 3144   0.618   2.456   0.905 -0.3516 -0.5257 -0.9731
 1003SOL    HW2 3145   0.661   2.395   1.037  0.2313  0.7388 -0.5639
 1004SOL     OW 3146   0.105   2.314  -0.002  0.0668  0.0560  0.6788
 1004SOL    HW1 3147   0.180   2.259   0.019  0.3339  0.6250  1.2266
 1004SOL    HW2 3148   0.090   2.367   0.076  0.0210  1.0001  0.0532
 1005SOL     OW 3149   1.211   2.877   2.389  0.3157  0.0272  0.1808
 1005SOL    HW1 3150   1.212   2.902   2.297 -0.7263 -1.3148 -0.2340
 1005SOL    HW2 3151   1.128   2.830   2.400  0.6318 -0.2275  1.6909
 1006SOL     OW 3152   0.919   2.153   3.545 -0.2168  0.6307  0.3828
 1006SOL    HW1 3153   0.970   2.130   3.468  0.0328 -0.0093  0.7311
 1006SOL    HW2 3154   0.872   2.073   3.568  2.7582 -0.5045  3.2377
 1007SOL     OW 3155   1.781   2.267   1.013 -0.3386  0.7755 -0.7963
 1007SOL    HW1 3156   1.743   2.298   1.095  0.8108  1.0516 -0.3540
 1007SOL    HW2 3157   1.854   2.211   1.039 -0.1247  0.6447 -1.6314
 1008SOL     OW 3158   3.215   1.796   0.122 -0.2357  1.6700  0.1644
 1008SOL    HW1 3159   3.266   1.770   0.198 -1.6336 -3.1117 -0.2103
 1008SOL    HW2 3160   3.130   1.821   0.157 -0.6658  0.1054  0.3128
 1009SOL     OW 3161   3.244   1.737   3.371 -0.2780  0.0982  0.6906
 1009SOL    HW1 3162   3.161   1.779   3.391  0.7283  1.7247  1.6644
 1009SOL    HW2 3163   3.309   1.786   3.421  1.1503 -1.8361  0.8490
 1010SOL     OW 3164   2.611   1.085   3.016 -0.0917 -0.1669 -0.3982
 1010SOL    HW1 3165   2.630   0.998   3.051 -0.1819 -0.2308 -0.5106
 1010SOL    HW2 3166   2.697   1.121   2.995 -0.1617 -1.0814 -2.4427
 1011SOL     OW 3167   0.822   3.140   3.280  0.4870  0.2413  0.1183
 1011SOL    HW1 3168   0.754   3.087   3.322  0.3560  0.5609  0.3141
 1011SOL    HW2 3169   0.784   3.228   3.277  1.3187  0.6648  1.2436
 1012SOL     OW 3170   2.160   2.061   2.970 -0.2680 -0.4700 -0.5762
 1012SOL    HW1 3171   2.214   2.106   2.905  1.0107 -1.7414 -0.4236
 1012SOL    HW2 3172   2.217   1.995   3.009 -1.8738 -1.7898 -0.3144
 1013SOL     OW 3173   3.563   1.981   1.950  0.1660 -0.6982  0.6183
 1013SOL    HW1 3174   3.585   2.026   1.869 -1.3270 -0.9845  0.0127
 1013SOL    HW2 3175   3.601   2.035   2.019 -2.7474  2.4502  0.0506
 1014SOL     OW 3176   3.576   2.770   1.699  0.1297  0.0866 -0.5933
 1014SOL    HW1 3177   3.577   2.826   1.777 -0.2840  1.3185 -1.4428
 1014SOL    HW2 3178   3.495   2.719   1.707  0.0252  0.2999 -0.2828
 1015SOL     OW 3179   1.841   0.844   3.122 -0.4642 -0.3169 -0.1142
 1015SOL    HW1 3180   1.756   0.810   3.149 -2.1426  2.2214 -1.7896
 1015SOL    HW2 3181   1.855   0.808   3.034 -1.9917  2.5019 -1.6668
 1016SOL     OW 3182   0.681   1.806   2.269 -0.2425 -0.0053 -0.2610
 1016SOL    HW1 3183   0.748   1.874   2.261 -1.0917  1.0395  1.0878
 1016SOL    HW2 3184   0.600   1.848   2.239 -0.5902 -0.7631 -0.4112
 1017SOL     OW 3185   2.984   2.239   0.594 -0.2156  0.1522  0.5392
 1017SOL    HW1 3186   2.933   2.261   0.672  0.1999  0.7297  0.6605
 1017SOL    HW2 3187   3.015   2.324   0.562  1.1070 -0.2119  0.7819
 1018SOL     OW 3188   1.011   1.493   3.459  0.1446  0.1967 -0.0906
 1018SOL    HW1 3189   1.033   1.585   3.473  0.9333 -0.1683  1.3002
 1018SOL    HW2 3190   0.930   1.479   3.508 -0.1332  0.2046 -0.5387
 1019SOL     OW 3191   2.668   2.240   1.086  0.5324 -0.4740 -0.0610
 1019SOL    HW1 3192   2.603   2.199   1.143  2.3016  0.1671  2.6216
 1019SOL    HW2 3193   2.642   2.332   1.082  2.2594  0.2436  2.7629
 1020SOL     OW 3194   0.250   0.829   0.948  0.4299 -0.1538 -0.0227
 1020SOL    HW1 3195   0.321   0.765   0.944  0.8131  0.2503  0.2163
 1020SOL    HW2 3196   0.290   0.911   0.918  0.1953  0.1872  0.5765
 1021SOL     OW 3197   0.155   1.560   1.103 -0.4000  0.2770  0.1994
 1021SOL    HW1 3198   0.060   1.561   1.100 -0.3717  0.4899 -0.8854
 1021SOL    HW2 3199   0.178   1.467   1.114 -0.7354  0.3101  1.3063
 1022SOL     OW 3200   2.928   1.641   1.806 -0.2611  0.5159  0.1331
 1022SOL    HW1 3201   2.871   1.615   1.878  1.0516  0.5280  1.2193
 1022SOL    HW2 3202   2.892   1.725   1.776 -2.3038 -0.6754 -0.9381
 1023SOL     OW 3203   1.690   0.583   3.655 -0.0439 -0.2241 -0.2560
 1023SOL    HW1 3204   1.759   0.621   3.600 -0.9750 -0.0971 -1.3738
 1023SOL    HW2 3205   1.722   0.594   3.744  1.3291 -0.0682 -0.7381
 1024SOL     OW 3206   1.313   2.614   0.751 -0.4958  0.7496 -0.7955
 1024SOL    HW1 3207   1.403   2.644   0.764 -0.0366 -1.5774  2.6888
 1024SOL    HW2 3208   1.259   2.691   0.771  0.7059  0.8844  2.5721
 1025SOL     OW 3209   3.166   2.093   2.819  0.5487 -0.0340 -0.0807
 1025SOL    HW1 3210   3.148   2.167   2.877 -1.2672  0.1072 -0.7407
 1025SOL    HW2 3211   3.128   2.119   2.735  2.8444 -0.3584 -1.3107
 1026SOL     OW 3212   3.326   1.391   2.418  0.0109 -0.0352  0.2627
 1026SOL    HW1 3213   3.319   1.417   2.510  0.9400 -1.3978  0.7505
 1026SOL    HW2 3214   3.389   1.452   2.381 -0.0039  0.2175  0.6431
 1027SOL     OW 3215   3.205   3.124   1.703 -0.5093  0.1563  0.2103
 1027SOL    HW1 3216   3.156   3.093   1.779  0.2693  1.5963  1.3529
 1027SOL    HW2 3217   3.257   3.197   1.736  1.7238 -0.7075 -1.1558
 1028SOL     OW 3218   3.065   1.410   3.579  0.4215  0.2080 -0.4330
 1028SOL    HW1 3219   2.971   1.420   3.593  0.0216 -2.8023 -0.2368
 1028SOL    HW2 3220   3.073   1.377   3.489  1.2401 -0.0114 -0.2892
 1029SOL     OW 3221   0.858   3.607   1.354 -0.2159  0.6518 -0.3797
 1029SOL    HW1 3222   0.843   3.662   1.431  0.0932  0.5329 -0.2317
 1029SOL    HW2 3223   0.949   3.580   1.362 -1.0854 -2.2969  1.1311
 1030SOL     OW 3224   0.751   1.207   0.248  0.4496 -0.1733  0.5918
 1030SOL    HW1 3225   0.715   1.267   0.313 -0.1500 -0.1414  0.2421
 1030SOL    HW2 3226   0.677   1.189   0.189  0.7457 -0.8823  0.4249
 1031SOL     OW 3227   0.839   0.072   3.423 -0.6984  0.4181  0.3355
 1031SOL    HW1 3228   0.767   0.010   3.436  0.9202 -1.6726 -0.2110
 1031SOL    HW2 3229   0.805   0.133   3.358 -1.7587 -0.9673 -0.4848
 1032SOL     OW 3230   0.231   1.668   1.360  0.3025 -0.0863  0.0670
 1032SOL    HW1 3231   0.294   1.621   1.414  0.6467  0.5529  0.2346
 1032SOL    HW2 3232   0.228   1.618   1.278  1.7658  0.3898 -0.3223
 1033SOL     OW 3233   2.227   2.031   1.095  0.5829  0.3680  0.7070
 1033SOL    HW1 3234   2.196   1.955   1.046 -1.0367  0.7680  1.0474
 1033SOL    HW2 3235   2.222   2.103   1.033 -3.4099  1.2918  1.8164
 1034SOL     OW 3236   1.063   3.108   2.316 -0.4901  0.2476 -0.0533
 1034SOL    HW1 3237   1.063   3.090   2.410 -0.2584  0.6006  0.0158
 1034SOL    HW2 3238   1.102   3.195   2.309 -1.9148  0.9009 -0.3369
 1035SOL     OW 3239   1.177   1.620   1.223  0.5054 -0.2987 -0.1559
 1035SOL    HW1 3240   1.127   1.540   1.205 -0.1320  0.1274 -0.3357
 1035SOL    HW2 3241   1.212   1.607   1.311 -0.3791 -0.3795  0.1891
 1036SOL     OW 3242   3.584   2.415   0.551 -0.1358  0.2596  0.0595
 1036SOL    HW1 3243   3.654   2.459   0.599  2.8620 -2.8485 -1.0885
 1036SOL    HW2 3244   3.569   2.469   0.474  4.4334 -1.0589 -2.0596
 1037SOL     OW 3245   1.572   0.106   2.782 -0.4719 -0.1837  0.1920
 1037SOL    HW1 3246   1.647   0.075   2.731 -0.4039  1.1013 -0.5331
 1037SOL    HW2 3247   1.609   0.168   2.844 -0.7378 -0.7793  0.9751
 1038SOL     OW 3248   2.131   2.935   2.490 -0.4998 -0.3800  0.4674
 1038SOL    HW1 3249   2.192   2.975   2.427 -0.6691  0.5171  0.8528
 1038SOL    HW2 3250   2.175   2.856   2.520  0.2143 -0.0529  0.2990
 1039SOL     OW 3251   0.343   0.697   2.311  0.4003  0.4117  0.2224
 1039SOL    HW1 3252   0.297   0.683   2.228  1.8399 -0.9383 -0.4148
 1039SOL    HW2 3253   0.436   0.697   2.286  0.8336  2.9814  1.4495
 1040SOL     OW 3254   2.836   2.760   3.565 -0.4399 -0.3101 -0.1323
 1040SOL    HW1 3255   2.860   2.729   3.652  0.1221 -1.0529 -0.5372
 1040SOL    HW2 3256   2.759   2.815   3.579 -0.0366  0.0077  0.8911
 1041SOL     OW 3257   1.778   3.088   0.931  0.4104 -0.4851 -1.0016
 1041SOL    HW1 3258   1.755   2.996   0.918 -1.1273  0.0825 -2.8022
 1041SOL    HW2 3259   1.702   3.137   0.898  1.0907  1.4529  0.0902
 1042SOL     OW 3260   1.400   0.105   2.353  0.1472  0.6161  0.4746
 1042SOL    HW1 3261   1.324   0.109   2.295 -0.0849 -0.3892  0.6849
 1042SOL    HW2 3262   1.412   0.195   2.383 -1.7214  0.6172  1.3813
 1043SOL     OW 3263   3.645   2.618   0.373  0.2636 -0.1467 -0.1885
 1043SOL    HW1 3264   3.615   2.696   0.419  1.2929 -0.6740  1.4769
 1043SOL    HW2 3265   3.736   2.636   0.349  0.8479 -1.1571  1.1140
 1044SOL     OW 3266   2.352   2.321   1.467 -0.1014  0.0661 -0.7250
 1044SOL    HW1 3267   2.309   2.397   1.428  0.8745  0.2434 -1.4646
 1044SOL    HW2 3268   2.376   2.350   1.555 -1.4252 -0.0222 -0.3002
 1045SOL     OW 3269   1.900   1.374   3.428 -0.2905 -0.0683 -0.0979
 1045SOL    HW1 3270   1.906   1.444   3.363  0.8462  2.7581  2.7526
 1045SOL    HW2 3271   1.809   1.377   3.458 -0.3377 -0.0706 -0.2394
 1046SOL     OW 3272   3.675   1.045   1.805 -0.4494  0.8438  0.0598
 1046SOL    HW1 3273   3.697   1.090   1.724  2.2345  2.5027  1.5738
 1046SOL    HW2 3274   3.700   0.954   1.791 -1.7386  0.6888 -1.5169
 1047SOL     OW 3275   2.008   0.286   0.889 -0.0513  0.2464  0.3666
 1047SOL    HW1 3276   2.026   0.310   0.979 -0.7965  1.0632  0.3128
 1047SOL    HW2 3277   1.914   0.271   0.886 -0.0750  0.4523 -0.3170
 1048SOL     OW 3278   1.316   1.015   0.438  0.6937  0.3515 -0.2157
 1048SOL    HW1 3279   1.411   1.012   0.452  0.6954 -0.4488 -0.3314
 1048SOL    HW2 3280   1.280   1.022   0.527  0.8527  0.2145 -0.1377
 1049SOL     OW 3281   1.107   0.126   2.570 -1.0803  0.3129 -0.2048
 1049SOL    HW1 3282   1.060   0.094   2.493 -0.5825  0.5326 -0.6021
 1049SOL    HW2 3283   1.095   0.221   2.567  0.3469  0.4920 -0.9557
 1050SOL     OW 3284   0.269   3.343   2.631  0.3703 -0.5333 -0.1799
 1050SOL    HW1 3285   0.325   3.344   2.553 -1.2954  1.3572 -1.4681
 1050SOL    HW2 3286   0.292   3.262   2.676  1.1967 -1.8813 -2.8111
 1051SOL     OW 3287   0.437   2.665   1.517  0.1183  0.3004 -0.0488
 1051SOL    HW1 3288   0.372   2.671   1.447 -0.1905  0.6410  0.2552
 1051SOL    HW2 3289   0.495   2.740   1.502 -0.4727  0.9045  0.5582
 1052SOL     OW 3290   1.564   0.443   1.688 -0.2092  0.2231 -0.2734
 1052SOL    HW1 3291   1.567   0.500   1.765  1.4074  0.5088 -0.5093
 1052SOL    HW2 3292   1.552   0.355   1.723  1.0762  0.2763  0.3762
 1053SOL     OW 3293   2.175   1.449   2.346 -0.2647 -0.0379 -0.1865
 1053SOL    HW1 3294   2.257   1.399   2.351 -0.6257 -0.6326 -0.0921
 1053SOL    HW2 3295   2.192   1.528   2.397 -0.5379 -1.2872  1.9563
 1054SOL     OW 3296   0.626   2.019   1.266 -0.1915  0.1186  0.0758
 1054SOL    HW1 3297   0.583   2.101   1.241 -1.0111  0.2364  1.7083
 1054SOL    HW2 3298   0.719   2.034   1.248 -0.4423  1.0589 -0.5113
 1055SOL     OW 3299   0.420   0.504   3.140 -0.0093 -0.4548  0.0042
 1055SOL    HW1 3300   0.389   0.440   3.077  1.8730 -1.2091 -0.2231
 1055SOL    HW2 3301   0.510   0.522   3.114  0.1036  0.8948  1.1725
 1056SOL     OW 3302   1.559   3.205   0.828 -0.7222  0.8239 -0.4427
 1056SOL    HW1 3303   1.535   3.184   0.737 -3.2872  0.4798  0.2231
 1056SOL    HW2 3304   1.533   3.296   0.839  0.2255  1.0741 -0.2263
 1057SOL     OW 3305   1.290   1.387   0.896 -0.5392 -0.1036 -0.4608
 1057SOL    HW1 3306   1.339   1.386   0.814 -0.9104 -0.7269 -0.6866
 1057SOL    HW2 3307   1.355   1.405   0.963  0.0829 -1.3486 -0.7102
 1058SOL     OW 3308   0.784   3.693   0.579  0.2672  0.4054  0.4786
 1058SOL    HW1 3309   0.822   3.706   0.666  0.2315  0.2536  0.5164
 1058SOL    HW2 3310   0.771   3.598   0.572 -1.3618  0.5668  0.9913
 1059SOL     OW 3311   2.297   2.528   1.705  0.3350 -0.0493 -0.5608
 1059SOL    HW1 3312   2.339   2.450   1.742  1.4821  0.5859 -0.4605
 1059SOL    HW2 3313   2.204   2.517   1.724  0.8227  0.1268  2.3377
 1060SOL     OW 3314   1.101   0.171   1.677 -0.3407 -0.2747  0.3584
 1060SOL    HW1 3315   1.104   0.266   1.689  0.1234 -0.4077  1.4329
 1060SOL    HW2 3316   1.160   0.154   1.603  0.0543  0.2213  0.5551
 1061SOL     OW 3317   0.764   2.921   0.409 -0.2317  0.0676  0.0397
 1061SOL    HW1 3318   0.736   3.001   0.364 -1.7772  0.7747  2.0834
 1061SOL    HW2 3319   0.848   2.899   0.369 -1.2425  0.8973 -2.7585
 1062SOL     OW 3320   0.144   0.934   1.192  0.0408  0.1149  0.7715
 1062SOL    HW1 3321   0.136   0.925   1.097 -3.1807  2.0940  0.6973
 1062SOL    HW2 3322   0.217   0.995   1.203 -0.1307  0.5976 -0.5073
 1063SOL     OW 3323   3.431   0.085   2.372  0.6734 -0.3298  0.1893
 1063SOL    HW1 3324   3.483   0.034   2.309  2.2923  0.5412  0.7539
 1063SOL    HW2 3325   3.349   0.037   2.379 -0.5958  0.7003 -4.3093
 1064SOL     OW 3326   0.521   0.349   1.726  0.1579 -0.1700  0.2363
 1064SOL    HW1 3327   0.514   0.404   1.648 -2.0583 -0.3307  0.2365
 1064SOL    HW2 3328   0.594   0.386   1.775 -0.4553  2.0236 -0.3604
 1065SOL     OW 3329   0.737   3.200   3.722  0.4343  0.0965  0.3735
 1065SOL    HW1 3330   0.814   3.144   3.737  0.3605 -0.9955 -2.5878
 1065SOL    HW2 3331   0.670   3.140   3.689 -1.1629  1.3007  1.2825
 1066SOL     OW 3332   3.502   0.357   1.979 -0.5016 -0.6000 -0.4389
 1066SOL    HW1 3333   3.425   0.309   2.011 -0.5405 -0.2496  0.0086
 1066SOL    HW2 3334   3.553   0.291   1.932 -0.3461 -1.1943  0.5251
 1067SOL     OW 3335   1.142   2.335   0.231  0.2346  0.1697 -0.3102
 1067SOL    HW1 3336   1.105   2.327   0.143  2.7401  0.8144 -1.4875
 1067SOL    HW2 3337   1.185   2.420   0.232  0.5727  0.0079  1.4163
 1068SOL     OW 3338   1.735   2.485   0.873  0.0620 -0.2463 -0.2331
 1068SOL    HW1 3339   1.671   2.472   0.803 -0.1649 -1.7046  0.2298
 1068SOL    HW2 3340   1.725   2.410   0.930 -0.2913  1.2705  1.8210
 1069SOL     OW 3341   2.433   2.723   1.592 -0.6641  0.1092 -0.3486
 1069SOL    HW1 3342   2.375   2.798   1.575 -0.2395  0.9892  1.8656
 1069SOL    HW2 3343   2.374   2.654   1.625 -0.9040 -0.2193 -1.4149
 1070SOL     OW 3344   2.998   0.265   3.209 -0.4542  0.1426  0.6034
 1070SOL    HW1 3345   2.973   0.228   3.125 -0.7236 -1.6835  1.4338
 1070SOL    HW2 3346   3.094   0.255   3.212 -0.4763 -0.0703  0.6297
 1071SOL     OW 3347   1.981   2.120   1.533  0.7747 -0.1017  0.2548
 1071SOL    HW1 3348   1.985   2.024   1.530  0.7053 -0.0909 -0.1743
 1071SOL    HW2 3349   1.906   2.139   1.590  0.8968 -0.3009  0.4838
 1072SOL     OW 3350   0.234   2.173   2.478 -0.0479 -0.0651 -0.3424
 1072SOL    HW1 3351   0.322   2.139   2.464  0.0364 -0.2501  0.5248
 1072SOL    HW2 3352   0.179   2.122   2.419  0.6561  1.3869 -2.3411
 1073SOL     OW 3353   2.149   2.274   1.878  0.2146 -0.4059  0.4323
 1073SOL    HW1 3354   2.197   2.287   1.796  0.5216 -1.8620  0.3550
 1073SOL    HW2 3355   2.111   2.187   1.870 -1.6745  0.3353  0.9106
 1074SOL     OW 3356   1.399   1.780   3.431  0.1938 -0.8849 -0.0479
 1074SOL    HW1 3357   1.334   1.834   3.386 -0.0731 -0.9867  0.2128
 1074SOL    HW2 3358   1.480   1.830   3.425  0.6157 -1.7337 -2.2877
 1075SOL     OW 3359   0.954   0.866   1.382  0.3608  0.5494 -0.5096
 1075SOL    HW1 3360   0.894   0.902   1.447 -0.0806  0.5220 -0.8888
 1075SOL    HW2 3361   1.035   0.849   1.429 -0.1503 -0.0392  0.1685
 1076SOL     OW 3362   2.478   3.361   3.726 -0.1610  0.1660 -0.5943
 1076SOL    HW1 3363   2.553   3.323   3.678  0.2931  1.0663 -0.6214
 1076SOL    HW2 3364   2.507   3.450   3.748 -1.3052  0.5907 -0.7692
 1077SOL     OW 3365   2.058   3.239   1.527 -0.5130  0.5129 -0.2705
 1077SOL    HW1 3366   2.153   3.249   1.538 -0.5999  1.8103 -0.5417
 1077SOL    HW2 3367   2.030   3.321   1.486 -1.1560 -1.4396 -4.1596
 1078SOL     OW 3368   1.329   2.263   1.944 -0.7076 -0.6592 -1.1978
 1078SOL    HW1 3369   1.311   2.344   1.896 -1.1094 -0.6788 -1.0807
 1078SOL    HW2 3370   1.370   2.206   1.879 -0.8439 -0.5258 -1.4025
 1079SOL     OW 3371   2.879   1.603   1.512 -0.3122  0.6719  0.3552
 1079SOL    HW1 3372   2.962   1.612   1.465 -0.6046 -1.8425 -0.7606
 1079SOL    HW2 3373   2.903   1.613   1.604  0.9347  1.6388 -0.0495
 1080SOL     OW 3374   2.164   1.783   1.924 -0.6808 -0.8067  0.2192
 1080SOL    HW1 3375   2.184   1.690   1.935 -3.0487 -1.3938  0.1356
 1080SOL    HW2 3376   2.068   1.787   1.924 -0.7185  1.9805  3.0912
 1081SOL     OW 3377   1.799   1.223   2.528 -0.8484  0.3116 -0.2406
 1081SOL    HW1 3378   1.795   1.249   2.436  0.0810 -2.9373 -1.3420
 1081SOL    HW2 3379   1.889   1.240   2.555 -0.7646  0.0656 -0.3599
 1082SOL     OW 3380   1.788   2.657   1.518 -0.2853  0.0342 -0.8168
 1082SOL    HW1 3381   1.836   2.738   1.536  2.3416 -1.3015 -1.3678
 1082SOL    HW2 3382   1.707   2.686   1.476 -0.0164  2.4171  0.1394
 1083SOL     OW 3383   0.408   1.964   3.013 -0.1138 -0.7233 -0.0165
 1083SOL    HW1 3384   0.382   2.010   3.093 -1.1891 -0.6064 -0.4175
 1083SOL    HW2 3385   0.460   2.027   2.964 -0.3997 -0.4097  0.0815
 1084SOL     OW 3386   0.972   1.775   1.022 -0.5966 -0.0788  0.2759
 1084SOL    HW1 3387   0.960   1.757   1.115 -0.1994 -1.2770  0.1147
 1084SOL    HW2 3388   0.950   1.693   0.978 -1.6280  0.7173 -0.7678
 1085SOL     OW 3389   0.213   3.625   0.439 -0.1239  0.1533 -0.5201
 1085SOL    HW1 3390   0.150   3.562   0.474 -2.3189  0.5997 -3.3186
 1085SOL    HW2 3391   0.280   3.571   0.398 -0.6977 -0.3618 -0.7956
 1086SOL     OW 3392   2.588   1.364   3.382 -0.4752  0.3188  0.5171
 1086SOL    HW1 3393   2.638   1.314   3.319 -0.0568  0.1315  0.9895
 1086SOL    HW2 3394   2.545   1.298   3.437 -1.4555  0.4741 -0.0421
 1087SOL     OW 3395   0.594   2.196   2.965  0.0331 -0.9818 -0.2649
 1087SOL    HW1 3396   0.569   2.272   3.018  0.0828 -0.7574 -0.5600
 1087SOL    HW2 3397   0.684   2.214   2.937  0.7852 -2.0923  1.3296
 1088SOL     OW 3398   0.967   1.533   0.873  0.0221  0.7443  0.6113
 1088SOL    HW1 3399   1.012   1.453   0.901  2.1014  2.0120  1.0686
 1088SOL    HW2 3400   0.982   1.537   0.779  1.0695  1.2695  0.7950
 1089SOL     OW 3401   2.759   1.235   2.221  0.2120 -0.1788  0.3652
 1089SOL    HW1 3402   2.710   1.288   2.159 -0.0167 -0.4233  0.3346
 1089SOL    HW2 3403   2.845   1.224   2.181  0.1695 -0.0656  0.2432
 1090SOL     OW 3404   2.362   3.034   3.739 -0.0775 -0.0877 -0.5979
 1090SOL    HW1 3405   2.374   2.990   3.654  0.0453 -0.9241 -0.1616
 1090SOL    HW2 3406   2.449   3.032   3.779 -0.4834 -1.3138  0.2958
 1091SOL     OW 3407   1.436   0.746   1.416  0.4468 -0.2443  0.3365
 1091SOL    HW1 3408   1.508   0.754   1.354  1.9874  1.2073  2.1805
 1091SOL    HW2 3409   1.478   0.744   1.502 -1.6839  0.8422  1.5061
 1092SOL     OW 3410   0.629   2.403   1.946  0.2734  0.2209  0.2017
 1092SOL    HW1 3411   0.619   2.423   1.853 -1.5982 -0.1008  0.2909
 1092SOL    HW2 3412   0.653   2.311   1.948  0.4597  0.2662  0.0269
 1093SOL     OW 3413   1.548   3.321   1.457 -0.2043  0.4872  0.0025
 1093SOL    HW1 3414   1.588   3.380   1.393 -1.4066 -0.9718 -2.1952
 1093SOL    HW2 3415   1.577   3.233   1.431 -1.7808 -0.2625  0.6431
 1094SOL     OW 3416   3.268   3.139   1.216  0.4048  0.0885 -0.3429
 1094SOL    HW1 3417   3.258   3.172   1.306 -0.3960 -0.9874 -0.0081
 1094SOL    HW2 3418   3.248   3.214   1.160  0.8195  0.7493  0.3762
 1095SOL     OW 3419   0.541   3.631   2.402 -0.5164  0.2460  0.1069
 1095SOL    HW1 3420   0.558   3.544   2.438 -0.6083 -0.3477 -1.2301
 1095SOL    HW2 3421   0.492   3.676   2.471 -0.6321 -0.8227  0.7468
 1096SOL     OW 3422   1.440   2.407   0.954  0.2638  0.2080 -0.0130
 1096SOL    HW1 3423   1.359   2.396   1.004  0.3664  1.9650  0.5885
 1096SOL    HW2 3424   1.482   2.483   0.993  0.2390  1.8534 -2.9133
 1097SOL     OW 3425   0.037   2.533   2.160  0.5024  0.1996  0.0767
 1097SOL    HW1 3426   0.077   2.582   2.231  1.3742 -1.0752  0.5099
 1097SOL    HW2 3427   0.050   2.587   2.082 -0.6152  1.6891  0.8724
 1098SOL     OW 3428   0.476   0.648   0.630 -0.1945  0.1195  0.3881
 1098SOL    HW1 3429   0.431   0.646   0.545 -0.2606  0.4276  0.4152
 1098SOL    HW2 3430   0.550   0.588   0.619  0.3929  0.9393 -0.2262
 1099SOL     OW 3431   1.279   1.975   2.742  0.5102 -0.1653  0.3578
 1099SOL    HW1 3432   1.248   1.943   2.657  1.0835 -0.2969  0.1909
 1099SOL    HW2 3433   1.367   1.937   2.751  0.2926 -0.4825  1.1947
 1100SOL     OW 3434   2.699   2.960   1.697 -0.2396  0.0824  0.3958
 1100SOL    HW1 3435   2.606   2.939   1.684  0.1210 -0.1366 -2.3640
 1100SOL    HW2 3436   2.724   3.008   1.619  2.3182 -1.1081  0.3845
 1101SOL     OW 3437   1.039   2.093   3.288 -0.6209 -0.1880 -0.0996
 1101SOL    HW1 3438   0.990   2.154   3.233 -0.1082 -0.0360 -0.3931
 1101SOL    HW2 3439   1.117   2.141   3.315 -0.2107 -0.7143 -0.3337
 1102SOL     OW 3440   2.151   2.382   3.700 -0.0948 -0.4556  0.6574
 1102SOL    HW1 3441   2.201   2.397   3.620 -0.0678 -3.6556 -0.0626
 1102SOL    HW2 3442   2.215   2.390   3.770  0.9035 -1.8865 -0.0426
 1103SOL     OW 3443   3.070   1.800   1.073 -0.0380  0.2392  0.0050
 1103SOL    HW1 3444   3.091   1.786   0.981  0.7526  0.1525  0.1891
 1103SOL    HW2 3445   3.122   1.876   1.098  1.3152 -0.9208  0.8837
 1104SOL     OW 3446   0.179   2.341   0.657  0.0796 -0.5446  0.1618
 1104SOL    HW1 3447   0.196   2.336   0.751 -0.2580 -0.0644  0.2533
 1104SOL    HW2 3448   0.189   2.251   0.626  1.8854 -0.4366  0.3440
 1105SOL     OW 3449   3.259   2.712   1.015 -0.2640  0.2465  0.0749
 1105SOL    HW1 3450   3.236   2.697   1.106 -0.1795  0.9236  0.2107
 1105SOL    HW2 3451   3.315   2.790   1.016 -0.2420  0.2497 -0.5509
 1106SOL     OW 3452   3.357   3.223   2.906 -0.4813  0.5843 -0.5209
 1106SOL    HW1 3453   3.311   3.289   2.958 -2.6769  0.1695 -1.8165
 1106SOL    HW2 3454   3.388   3.270   2.829 -1.1263  0.3291 -0.9415
 1107SOL     OW 3455   1.468   2.858   0.814 -0.9694 -0.2838 -0.2740
 1107SOL    HW1 3456   1.463   2.855   0.718 -0.9080  0.5925 -0.3167
 1107SOL    HW2 3457   1.395   2.915   0.839 -0.6928 -0.1184  0.1611
 1108SOL     OW 3458   2.030   2.284   1.301  0.3897  0.5319  0.0872
 1108SOL    HW1 3459   2.007   2.349   1.367  3.6915 -0.4979  2.5372
 1108SOL    HW2 3460   2.010   2.200   1.343  1.5028 -0.1171 -0.6322
 1109SOL     OW 3461   2.734   1.626   3.051  0.1013 -0.0292 -0.0517
 1109SOL    HW1 3462   2.747   1.699   2.990  0.9508  0.0551  0.2076
 1109SOL    HW2 3463   2.672   1.660   3.116  1.0878  0.7576  0.5162
 1110SOL     OW 3464   1.400   2.224   0.520  0.1892  0.1598 -0.4298
 1110SOL    HW1 3465   1.438   2.152   0.571  1.3988  0.0994 -1.3595
 1110SOL    HW2 3466   1.334   2.181   0.465  1.4395 -0.4224 -1.5453
 1111SOL     OW 3467   0.753   2.087   0.394 -0.0696  0.4509 -0.5189
 1111SOL    HW1 3468   0.665   2.113   0.420 -1.5611 -2.7762 -1.7716
 1111SOL    HW2 3469   0.783   2.029   0.465  0.2914  0.1363 -0.9216
 1112SOL     OW 3470   0.868   0.083   2.755  0.0386 -0.2382 -0.2546
 1112SOL    HW1 3471   0.811   0.027   2.807 -3.0318  3.1799  0.4821
 1112SOL    HW2 3472   0.932   0.116   2.818 -1.4822  1.1273  0.6525
 1113SOL     OW 3473   2.257   1.886   3.249  0.0792  0.1700  0.0073
 1113SOL    HW1 3474   2.280   1.930   3.330 -2.4911  0.0019  0.9306
 1113SOL    HW2 3475   2.309   1.929   3.182  0.2563  2.2084  1.3667
 1114SOL     OW 3476   0.655   0.519   2.791 -0.3678 -0.1419  1.0888
 1114SOL    HW1 3477   0.733   0.484   2.833  0.0523 -0.7114 -0.1230
 1114SOL    HW2 3478   0.675   0.519   2.698 -0.9325  1.9330  0.9139
 1115SOL     OW 3479   1.372   3.750   1.567  0.4391 -0.5628  0.0374
 1115SOL    HW1 3480   1.417   3.743   1.651 -0.8495 -0.3555  0.7632
 1115SOL    HW2 3481   1.425   3.696   1.508  0.5418 -1.9464  1.3210
 1116SOL     OW 3482   0.784   3.273   2.927 -1.1137 -0.7095 -0.0898
 1116SOL    HW1 3483   0.787   3.320   3.010 -1.7231  1.1043 -1.0191
 1116SOL    HW2 3484   0.850   3.318   2.872  0.6003 -3.0352 -0.0666
 1117SOL     OW 3485   3.312   0.860   3.451 -0.2943 -0.4440 -0.7369
 1117SOL    HW1 3486   3.400   0.870   3.487  0.1169 -0.4723 -1.6879
 1117SOL    HW2 3487   3.264   0.936   3.484  0.3359  0.0327 -0.8969
 1118SOL     OW 3488   1.937   1.509   0.523  0.4033 -0.5064  0.1735
 1118SOL    HW1 3489   1.891   1.589   0.547 -1.2265 -0.8866 -1.4196
 1118SOL    HW2 3490   1.998   1.536   0.454  0.8803 -0.4199  0.6196
 1119SOL     OW 3491   0.263   1.789   1.856  0.2610  0.3415  0.0826
 1119SOL    HW1 3492   0.326   1.717   1.854  0.1317  0.1983  0.7474
 1119SOL    HW2 3493   0.265   1.825   1.768  2.3050  1.2341  0.4332
 1120SOL     OW 3494   3.486   3.004   1.462 -0.3523  0.0459 -0.0395
 1120SOL    HW1 3495   3.521   2.968   1.543 -0.7337 -0.3282 -0.0399
 1120SOL    HW2 3496   3.519   3.094   1.459  1.1685 -0.4933 -0.3738
 1121SOL     OW 3497   1.988   1.963   2.750 -0.0339 -0.1287  0.4643
 1121SOL    HW1 3498   2.028   1.982   2.835  1.8107 -1.2177 -0.1086
 1121SOL    HW2 3499   1.973   1.869   2.751  0.1665 -0.1837 -0.4726
 1122SOL     OW 3500   1.659   1.201   1.126 -0.2135 -0.2573 -0.5412
 1122SOL    HW1 3501   1.725   1.229   1.063 -0.4843  0.4558 -0.5206
 1122SOL    HW2 3502   1.597   1.149   1.075 -0.2678  0.0637 -0.8057
 1123SOL     OW 3503   2.984   2.879   3.156 -0.3531 -0.0071  0.2076
 1123SOL    HW1 3504   3.060   2.851   3.206 -1.2702 -1.3434  0.9323
 1123SOL    HW2 3505   2.936   2.798   3.138 -1.6081  0.7900 -0.2023
 1124SOL     OW 3506   1.289   2.639   2.483 -0.0796 -0.9936  0.1526
 1124SOL    HW1 3507   1.249   2.575   2.424 -1.7156 -1.0484  1.2519
 1124SOL    HW2 3508   1.243   2.721   2.463  0.2478 -0.7319  0.4639
 1125SOL     OW 3509   0.866   0.329   0.424 -0.4438 -0.1382 -0.3680
 1125SOL    HW1 3510   0.812   0.281   0.361  0.0667  0.5439 -1.3545
 1125SOL    HW2 3511   0.955   0.325   0.387 -0.4558  1.9125 -0.7178
 1126SOL     OW 3512   0.852   0.090   1.543 -0.5749 -0.0314  0.3788
 1126SOL    HW1 3513   0.936   0.132   1.564 -2.1387  1.9641  3.1921
 1126SOL    HW2 3514   0.799   0.160   1.505  0.0021 -2.0940 -5.1351
 1127SOL     OW 3515   0.277   2.973   1.981 -0.2717  0.2003 -0.4608
 1127SOL    HW1 3516   0.186   3.002   1.977 -0.3493  0.0896  0.2986
 1127SOL    HW2 3517   0.295   2.938   1.894 -1.8834 -2.5046  0.1998
 1128SOL     OW 3518   2.171   2.272   0.373  0.2077 -0.3843  0.1798
 1128SOL    HW1 3519   2.218   2.286   0.291 -0.6259 -1.4583 -0.5196
 1128SOL    HW2 3520   2.131   2.185   0.362  0.6937 -0.8749  2.0240
 1129SOL     OW 3521   3.107   2.879   1.299 -0.4125 -0.0205  0.4765
 1129SOL    HW1 3522   3.134   2.869   1.390  0.2977 -0.9400  0.1791
 1129SOL    HW2 3523   3.118   2.972   1.281  1.3876 -0.1513  0.7476
 1130SOL     OW 3524   2.988   3.266   3.137 -0.4726  0.0985  0.5489
 1130SOL    HW1 3525   2.897   3.294   3.148 -0.1010  0.6035  2.8055
 1130SOL    HW2 3526   3.034   3.345   3.108 -0.7590 -0.2345 -0.9124
 1131SOL     OW 3527   2.132   1.170   0.344 -0.2430 -0.3050 -0.4161
 1131SOL    HW1 3528   2.152   1.246   0.398 -2.4601 -0.6755  1.0533
 1131SOL    HW2 3529   2.133   1.096   0.404 -1.9172 -0.8476 -0.9995
 1132SOL     OW 3530   3.199   1.021   0.143  0.4530 -0.3093  0.0978
 1132SOL    HW1 3531   3.147   0.948   0.109 -2.9384  1.6153  0.7049
 1132SOL    HW2 3532   3.160   1.040   0.228  2.5905  0.9382  0.8676
 1133SOL     OW 3533   1.069   3.342   3.724  0.1076  0.6324  0.0853
 1133SOL    HW1 3534   1.073   3.435   3.747  1.7749  0.2831  1.4600
 1133SOL    HW2 3535   1.132   3.333   3.652  1.9236  0.2196  1.6192
 1134SOL     OW 3536   2.301   3.308   0.858 -0.7555 -0.1377  0.0726
 1134SOL    HW1 3537   2.307   3.358   0.776 -2.6218  0.4159  0.2276
 1134SOL    HW2 3538   2.311   3.216   0.830 -0.3829  0.1046 -0.6241
 1135SOL     OW 3539   1.714   2.641   0.132 -0.8092 -0.1083 -0.3253
 1135SOL    HW1 3540   1.685   2.639   0.224 -0.8874 -0.5401 -0.3569
 1135SOL    HW2 3541   1.687   2.727   0.100 -0.6214  0.1170  0.1085
 1136SOL     OW 3542   3.346   0.408   1.720  0.1220 -0.0046 -0.3861
 1136SOL    HW1 3543   3.393   0.422   1.803  0.2361 -1.5045 -0.1627
 1136SOL    HW2 3544   3.365   0.316   1.698 -0.8818  0.0322 -1.4609
 1137SOL     OW 3545   2.812   1.401   1.336 -0.5227 -0.3245  0.0775
 1137SOL    HW1 3546   2.800   1.468   1.404  2.1177 -1.1614  1.5451
 1137SOL    HW2 3547   2.836   1.450   1.258 -0.5199  0.5482  0.6096
 1138SOL     OW 3548   0.602   1.315   3.142 -0.3216 -0.3906 -0.2257
 1138SOL    HW1 3549   0.693   1.304   3.114 -0.0170  1.3561 -0.0201
 1138SOL    HW2 3550   0.570   1.389   3.091 -1.3509 -0.4174  0.3652
 1139SOL     OW 3551   1.195   0.910   2.155 -0.6348  0.5121  0.1666
 1139SOL    HW1 3552   1.130   0.850   2.190 -0.0306  0.8285  1.9410
 1139SOL    HW2 3553   1.167   0.996   2.187 -0.3399  0.8895 -0.5783
 1140SOL     OW 3554   0.913   1.770   0.056  0.1298  0.1382 -0.1384
 1140SOL    HW1 3555   1.008   1.775   0.060  0.4263  0.2381 -3.6750
 1140SOL    HW2 3556   0.883   1.857   0.079  0.9629  0.3901  0.0243
 1141SOL     OW 3557   3.459   1.046   1.947  0.5476 -0.2481 -0.4895
 1141SOL    HW1 3558   3.512   1.016   2.021 -0.0622 -0.3781 -0.0946
 1141SOL    HW2 3559   3.521   1.056   1.875  0.7992 -2.4381 -0.6399
 1142SOL     OW 3560   1.128   2.538   1.419 -0.1280  0.3186  0.7885
 1142SOL    HW1 3561   1.114   2.578   1.505 -0.1983  2.2517 -0.0667
 1142SOL    HW2 3562   1.213   2.494   1.426 -0.9408 -1.0718  2.3503
 1143SOL     OW 3563   2.560   1.816   1.179 -0.6164 -0.0369 -0.1457
 1143SOL    HW1 3564   2.608   1.825   1.096 -3.2096  0.5802 -1.6840
 1143SOL    HW2 3565   2.493   1.883   1.176 -0.1211  0.7840  3.0536
 1144SOL     OW 3566   0.063   0.122   1.456 -0.3606 -0.2377 -0.0191
 1144SOL    HW1 3567   0.118   0.049   1.484  0.6230  0.6756  0.5073
 1144SOL    HW2 3568   0.106   0.155   1.376 -1.0137 -0.4616 -0.4699
 1145SOL     OW 3569   0.383   3.122   2.754  0.7483 -0.0309 -0.0071
 1145SOL    HW1 3570   0.439   3.081   2.688  0.4397  0.7880 -0.7848
 1145SOL    HW2 3571   0.341   3.048   2.798  1.5815 -0.6158 -0.1592
 1146SOL     OW 3572   3.441   1.854   3.510  0.3214 -0.0985  0.1763
 1146SOL    HW1 3573   3.481   1.779   3.553 -0.3073 -0.5731 -0.0434
 1146SOL    HW2 3574   3.505   1.881   3.444  0.5204 -0.4948  0.2030
 1147SOL     OW 3575   1.217   0.680   2.948  0.8608 -0.0241 -0.2812
 1147SOL    HW1 3576   1.305   0.690   2.912  1.1076  0.8837  0.5178
 1147SOL    HW2 3577   1.222   0.723   3.034  0.2386 -1.9291  0.7555
 1148SOL     OW 3578   0.653   2.809   0.142  0.4175  0.1015  0.3834
 1148SOL    HW1 3579   0.620   2.896   0.119  0.0342  0.1353  1.0336
 1148SOL    HW2 3580   0.746   2.822   0.161  0.4266  0.3122  0.1921
 1149SOL     OW 3581   0.377   2.718   1.819  0.1325 -0.7120  0.1625
 1149SOL    HW1 3582   0.374   2.710   1.724  0.6806 -0.4065  0.1141
 1149SOL    HW2 3583   0.337   2.638   1.852 -0.4070 -0.6461 -0.3258
 1150SOL     OW 3584   2.546   2.856   3.586  0.3609 -0.1920  0.6049
 1150SOL    HW1 3585   2.506   2.777   3.623 -2.0821  0.9237  0.4846
 1150SOL    HW2 3586   2.536   2.846   3.492  1.3191 -0.3377  0.5031
 1151SOL     OW 3587   0.154   3.275   1.883 -0.6681  0.4410 -0.3175
 1151SOL    HW1 3588   0.213   3.264   1.958 -2.3581  0.6979  1.1059
 1151SOL    HW2 3589   0.077   3.320   1.918 -1.9348 -0.2870 -1.9964
 1152SOL     OW 3590   1.993   3.055   1.704  0.0464 -1.0992 -0.4392
 1152SOL    HW1 3591   1.911   3.081   1.746  0.3966 -2.1538  0.9876
 1152SOL    HW2 3592   2.026   3.135   1.664 -1.1284 -0.4132 -0.0946
 1153SOL     OW 3593   2.985   2.637   2.470  0.4492 -0.4395 -0.2286
 1153SOL    HW1 3594   2.938   2.580   2.409  2.4125 -0.7180 -1.5594
 1153SOL    HW2 3595   2.992   2.586   2.550 -1.6843 -0.2879  0.1159
 1154SOL     OW 3596   0.059   2.694   0.083 -0.1870  0.6708 -0.4090
 1154SOL    HW1 3597   0.099   2.646   0.011  0.4340  0.5773 -0.0051
 1154SOL    HW2 3598   0.080   2.644   0.161 -1.3785  0.4411 -0.2144
 1155SOL     OW 3599   0.205   3.398   2.961  0.3643 -0.9341 -0.4167
 1155SOL    HW1 3600   0.237   3.448   2.886  0.9623 -3.3532 -1.9143
 1155SOL    HW2 3601   0.169   3.463   3.021  0.7535  1.1892 -2.3649
 1156SOL     OW 3602   0.481   2.963   3.159 -0.5215  0.3076  0.2153
 1156SOL    HW1 3603   0.396   3.007   3.155 -1.3195 -1.0848  1.0163
 1156SOL    HW2 3604   0.524   2.984   3.076 -1.2628  1.7703  0.1803
 1157SOL     OW 3605   0.760   1.143   1.907  0.5708 -0.3550  0.3857
 1157SOL    HW1 3606   0.666   1.157   1.905  0.8643  2.2685  1.6167
 1157SOL    HW2 3607   0.780   1.099   1.824 -1.5562  0.1225 -0.4216
 1158SOL     OW 3608   3.135   3.138   2.400  0.1424 -0.6728 -0.5665
 1158SOL    HW1 3609   3.179   3.217   2.368 -1.4588  0.4713 -0.0645
 1158SOL    HW2 3610   3.131   3.150   2.495 -1.1786 -0.7608 -0.5966
 1159SOL     OW 3611   0.468   3.339   3.477 -0.3250  0.0464  0.5706
 1159SOL    HW1 3612   0.527   3.284   3.424 -0.1275  1.0817 -0.3312
 1159SOL    HW2 3613   0.411   3.277   3.522  0.2542 -0.9140  0.0213
 1160SOL     OW 3614   0.364   0.852   0.246 -0.0833 -0.1200  1.2042
 1160SOL    HW1 3615   0.291   0.796   0.272 -1.0282 -0.0484 -1.0294
 1160SOL    HW2 3616   0.442   0.805   0.273 -0.9078 -0.6265  2.8539
 1161SOL     OW 3617   3.041   1.600   0.397 -0.2888 -0.5926  0.0483
 1161SOL    HW1 3618   3.027   1.536   0.327 -0.5025 -0.0590 -0.4020
 1161SOL    HW2 3619   3.014   1.683   0.359  0.1882 -0.1980  0.5614
 1162SOL     OW 3620   3.606   3.397   2.026  0.1847  0.2621  0.5488
 1162SOL    HW1 3621   3.565   3.481   2.046  0.8620  1.6141 -3.0397
 1162SOL    HW2 3622   3.537   3.346   1.984  0.6075  0.2770 -0.1781
 1163SOL     OW 3623   0.257   2.902   0.227 -0.0729 -0.6236  0.0035
 1163SOL    HW1 3624   0.334   2.853   0.256  1.5036  2.6157  1.8172
 1163SOL    HW2 3625   0.192   2.886   0.295  0.9475  0.7803  1.4068
 1164SOL     OW 3626   1.920   0.892   1.364  0.4201  0.4642 -0.6029
 1164SOL    HW1 3627   1.979   0.833   1.316  0.5610 -0.8298  1.1009
 1164SOL    HW2 3628   1.967   0.913   1.444 -1.7893 -1.4302  1.3183
 1165SOL     OW 3629   3.027   0.302   0.870 -0.2660  0.1711  0.2023
 1165SOL    HW1 3630   3.057   0.318   0.959 -3.5927 -1.2068  1.7504
 1165SOL    HW2 3631   3.103   0.320   0.815  1.6285  2.1211  3.1845
 1166SOL     OW 3632   1.137   0.288   0.339 -0.1673 -0.3915  0.1496
 1166SOL    HW1 3633   1.161   0.196   0.329  0.4450 -0.2009 -0.2764
 1166SOL    HW2 3634   1.186   0.332   0.269 -0.0559  0.3182  0.6615
 1167SOL     OW 3635   3.379   2.182   3.279 -0.2975  0.2972 -0.3559
 1167SOL    HW1 3636   3.320   2.160   3.351  0.6678 -0.8051  0.1292
 1167SOL    HW2 3637   3.449   2.232   3.320 -0.2466  0.5092 -0.7013
 1168SOL     OW 3638   2.281   2.441   3.461  0.5880 -0.7603  0.3331
 1168SOL    HW1 3639   2.278   2.520   3.408 -0.4070  0.4767  2.0967
 1168SOL    HW2 3640   2.230   2.377   3.412 -1.1509  0.6367  0.2272
 1169SOL     OW 3641   1.893   1.561   2.504 -0.2797 -0.2123  0.3903
 1169SOL    HW1 3642   1.886   1.654   2.526 -0.1199 -0.2941  0.8004
 1169SOL    HW2 3643   1.987   1.546   2.494 -0.2658 -0.4375  0.8183
 1170SOL     OW 3644   2.370   0.948   0.319 -0.1351  0.0718 -0.4246
 1170SOL    HW1 3645   2.290   0.967   0.269  0.5654  2.2059 -0.8529
 1170SOL    HW2 3646   2.408   1.035   0.336  1.2639 -0.7995  1.1537
 1171SOL     OW 3647   0.865   3.522   0.265  0.0351  0.1416 -0.4464
 1171SOL    HW1 3648   0.918   3.601   0.255  0.5006 -0.1452 -0.2514
 1171SOL    HW2 3649   0.835   3.502   0.177  1.1911 -0.3450 -0.7466
 1172SOL     OW 3650   0.958   0.616   1.882 -0.2006  0.5600  0.4810
 1172SOL    HW1 3651   0.999   0.630   1.797  1.3156  1.0007  1.2351
 1172SOL    HW2 3652   0.888   0.681   1.887 -0.0270  0.8098 -0.2596
 1173SOL     OW 3653   1.359   3.597   2.543  0.3185 -0.4423  0.6675
 1173SOL    HW1 3654   1.382   3.667   2.482 -1.1467 -0.4236  0.0991
 1173SOL    HW2 3655   1.418   3.525   2.520  1.0310  0.1837  0.4812
 1174SOL     OW 3656   2.763   2.482   3.416  0.2311 -0.1566  0.1869
 1174SOL    HW1 3657   2.793   2.570   3.393  1.5944 -0.9924 -1.5275
 1174SOL    HW2 3658   2.844   2.432   3.429 -0.5125 -0.8600  2.5624
 1175SOL     OW 3659   1.663   1.371   3.528  0.1128  0.0832 -0.2445
 1175SOL    HW1 3660   1.591   1.376   3.465  1.0409 -0.3953 -1.3866
 1175SOL    HW2 3661   1.622   1.385   3.613 -1.3131 -0.0991 -0.8769
 1176SOL     OW 3662   1.681   1.615   1.338 -0.0860  0.0985 -0.2846
 1176SOL    HW1 3663   1.741   1.656   1.277 -1.0380  0.3133 -1.1058
 1176SOL    HW2 3664   1.630   1.687   1.374 -1.2903 -0.2609 -1.2103
 1177SOL     OW 3665   3.248   0.570   2.531 -0.7472 -0.3134 -0.0516
 1177SOL    HW1 3666   3.272   0.480   2.507  1.0878  0.0064  0.4036
 1177SOL    HW2 3667   3.169   0.560   2.584 -0.5024 -1.6712  0.1032
 1178SOL     OW 3668   0.178   2.125   0.992  0.1393 -0.6227 -0.0935
 1178SOL    HW1 3669   0.122   2.058   1.031 -0.4318 -0.4740 -0.6506
 1178SOL    HW2 3670   0.232   2.078   0.928 -0.1733 -0.5789 -0.3938
 1179SOL     OW 3671   2.011   3.233   0.896 -0.0103 -0.0074  0.1875
 1179SOL    HW1 3672   1.927   3.191   0.882 -0.6083  1.7035 -1.8865
 1179SOL    HW2 3673   2.075   3.161   0.893 -1.3105 -1.2310  1.0688
 1180SOL     OW 3674   3.006   0.291   0.039 -0.1209 -0.0640 -0.1409
 1180SOL    HW1 3675   2.959   0.293  -0.045 -0.0277  1.8079 -0.1947
 1180SOL    HW2 3676   3.090   0.252   0.019 -0.7907 -1.3563 -0.5198
 1181SOL     OW 3677   0.760   1.075   2.937  0.1073  0.6146 -0.3329
 1181SOL    HW1 3678   0.812   1.152   2.959 -0.4904  1.0616 -0.4772
 1181SOL    HW2 3679   0.674   1.109   2.913 -0.4931 -0.1582  0.6083
 1182SOL     OW 3680   2.333   0.827   1.766 -0.0802  0.5446  0.0392
 1182SOL    HW1 3681   2.401   0.851   1.703 -0.1589  0.8739  0.0795
 1182SOL    HW2 3682   2.281   0.906   1.777  0.7016  0.8967  1.4880
 1183SOL     OW 3683   1.984   2.005   1.231 -0.5366  0.1766  0.3624
 1183SOL    HW1 3684   2.069   2.032   1.196 -0.6381 -1.1240 -0.9952
 1183SOL    HW2 3685   1.940   1.962   1.157 -1.3569 -1.4059  1.6950
 1184SOL     OW 3686   0.426   2.252   0.740 -0.2952  0.2402  0.3815
 1184SOL    HW1 3687   0.464   2.246   0.652 -0.3328  2.1503  0.2002
 1184SOL    HW2 3688   0.412   2.161   0.766  0.2244 -0.3782 -1.3659
 1185SOL     OW 3689   3.241   1.915   3.139  0.2992  0.1278  0.4252
 1185SOL    HW1 3690   3.167   1.964   3.178  0.6045 -0.1185  1.3386
 1185SOL    HW2 3691   3.297   1.894   3.213  0.4864 -1.0897 -0.0427
 1186SOL     OW 3692   2.632   3.202   0.364 -0.8645  0.6119 -0.0899
 1186SOL    HW1 3693   2.690   3.135   0.399 -1.1737  1.0709  1.3691
 1186SOL    HW2 3694   2.550   3.157   0.346 -1.4436  0.7756  1.9550
 1187SOL     OW 3695   2.169   2.093   3.653  0.1196 -0.2108  0.1088
 1187SOL    HW1 3696   2.096   2.066   3.597 -0.5057 -0.8429  1.2044
 1187SOL    HW2 3697   2.164   2.189   3.654 -0.0918 -0.2066 -0.5899
 1188SOL     OW 3698   0.093   2.696   1.919 -0.0864  0.1800  0.7657
 1188SOL    HW1 3699   0.116   2.692   1.826 -1.8765  0.3081  0.2822
 1188SOL    HW2 3700   0.126   2.781   1.947 -0.8686  0.8117 -0.1566
 1189SOL     OW 3701   2.457   2.855   1.975 -0.0942  0.9637  0.1822
 1189SOL    HW1 3702   2.449   2.901   1.892  0.9051  1.2330  0.2184
 1189SOL    HW2 3703   2.551   2.839   1.985 -0.3608 -0.6742  0.3933
 1190SOL     OW 3704   1.606   1.176   0.835 -0.2025  0.4173  0.2044
 1190SOL    HW1 3705   1.593   1.081   0.837  1.0970  0.2125 -0.2247
 1190SOL    HW2 3706   1.559   1.205   0.757  0.5523 -0.0810 -0.4509
 1191SOL     OW 3707   3.570   1.755   2.129  0.0734 -0.0829 -0.0382
 1191SOL    HW1 3708   3.529   1.825   2.077 -0.3293  0.0953  0.5144
 1191SOL    HW2 3709   3.659   1.751   2.095 -0.1814  0.0235 -0.7555
 1192SOL     OW 3710   3.256   0.669   1.787  0.0274  0.2249  0.1527
 1192SOL    HW1 3711   3.293   0.657   1.699 -0.7857 -0.8567 -0.0633
 1192SOL    HW2 3712   3.213   0.755   1.784  0.4006  0.3989 -0.3596
 1193SOL     OW 3713   1.274   1.728   0.970 -0.1579 -0.2477  0.0745
 1193SOL    HW1 3714   1.235   1.690   1.049 -0.3728  0.7078  0.4499
 1193SOL    HW2 3715   1.207   1.787   0.937  0.1613 -0.2026 -0.4935
 1194SOL     OW 3716   2.991   2.216   0.097  0.1549 -0.4643 -0.3797
 1194SOL    HW1 3717   2.999   2.198   0.191 -0.6388  0.7579 -0.0533
 1194SOL    HW2 3718   3.035   2.142   0.055 -0.3254 -1.5469  0.9248
 1195SOL     OW 3719   1.142   1.803   0.640  0.3938  0.5377 -0.2293
 1195SOL    HW1 3720   1.202   1.743   0.685 -1.2243 -1.6168 -0.8159
 1195SOL    HW2 3721   1.197   1.844   0.572  1.0634 -2.2218 -1.5177
 1196SOL     OW 3722   3.174   2.980   2.960  0.0504 -0.2381  0.1917
 1196SOL    HW1 3723   3.156   2.965   3.053  0.8792  1.5742  0.6994
 1196SOL    HW2 3724   3.114   3.051   2.936  1.5312  1.0069  0.0357
 1197SOL     OW 3725   2.247   1.907   0.521 -0.9264  0.0164 -0.2092
 1197SOL    HW1 3726   2.185   1.975   0.494  1.0484  2.4979  1.0179
 1197SOL    HW2 3727   2.316   1.910   0.455 -1.1868 -1.4359 -0.5812
 1198SOL     OW 3728   3.393   3.014   2.382 -0.6074  0.4017  0.5203
 1198SOL    HW1 3729   3.359   2.926   2.396  2.2681 -0.4978  3.0281
 1198SOL    HW2 3730   3.318   3.072   2.399 -1.7830 -1.4950  2.1639
 1199SOL     OW 3731   2.884   2.605   0.827 -0.2769  0.2149  0.3342
 1199SOL    HW1 3732   2.915   2.553   0.753 -0.3697 -0.1545  0.5475
 1199SOL    HW2 3733   2.879   2.542   0.899  0.9721  0.8083  0.9644
 1200SOL     OW 3734   0.879   2.463   2.417  0.1787  0.2322  0.6756
 1200SOL    HW1 3735   0.946   2.403   2.451 -2.7327 -3.3680  0.6094
 1200SOL    HW2 3736   0.821   2.479   2.492 -2.0315 -1.5158 -0.5609
 1201SOL     OW 3737   3.074   0.855   1.526 -0.2449  0.4205 -0.1640
 1201SOL    HW1 3738   3.101   0.853   1.617 -0.2832  0.9470 -0.1361
 1201SOL    HW2 3739   3.053   0.764   1.504  0.0743  0.2470  0.2546
 1202SOL     OW 3740   1.821   0.710   2.041  0.2240 -0.0643 -0.1327
 1202SOL    HW1 3741   1.896   0.652   2.032 -0.3871 -0.8408 -0.3496
 1202SOL    HW2 3742   1.811   0.751   1.954  0.1292 -0.3023 -0.2353
 1203SOL     OW 3743   0.422   0.490   3.405 -0.5423 -0.2552 -0.2839
 1203SOL    HW1 3744   0.381   0.573   3.431 -0.5529 -0.2912 -0.1878
 1203SOL    HW2 3745   0.439   0.501   3.311  1.7233  0.8544  0.1739
 1204SOL     OW 3746   2.126   1.234   0.093  0.2803 -0.1244 -0.0884
 1204SOL    HW1 3747   2.132   1.218   0.187 -0.3491  0.4710  0.0719
 1204SOL    HW2 3748   2.142   1.149   0.052  2.9946  0.0484  0.4305
 1205SOL     OW 3749   2.003   3.098   2.714 -0.3312  0.4838 -0.3184
 1205SOL    HW1 3750   2.013   3.036   2.641  1.8187 -0.3557  0.6084
 1205SOL    HW2 3751   2.079   3.155   2.708 -1.1481  1.6701  0.1522
 1206SOL     OW 3752   0.053   3.058   1.743 -0.1714  0.7597 -0.1816
 1206SOL    HW1 3753   0.101   3.124   1.793  0.4259  0.4002 -0.2735
 1206SOL    HW2 3754  -0.039   3.074   1.765  0.0802  0.4915  1.2061
 1207SOL     OW 3755   0.100   1.344   0.733  0.0453  0.1536  0.6426
 1207SOL    HW1 3756   0.190   1.319   0.714 -0.4822  0.4722 -3.0357
 1207SOL    HW2 3757   0.072   1.284   0.802  2.7003 -0.5919  1.1846
 1208SOL     OW 3758   2.039   0.815   2.359 -0.2231  0.4461  0.4420
 1208SOL    HW1 3759   1.984   0.743   2.391  1.0128 -0.4615  0.5726
 1208SOL    HW2 3760   2.055   0.868   2.437 -1.2255  0.9519  0.3253
 1209SOL     OW 3761   0.250   0.358   0.523  0.4898  0.3213  0.1793
 1209SOL    HW1 3762   0.235   0.365   0.618 -2.7096  0.8301 -0.2490
 1209SOL    HW2 3763   0.186   0.293   0.494  0.5570  1.0615 -1.7723
 1210SOL     OW 3764   2.626   0.838   3.719  0.9562  0.4416 -1.3033
 1210SOL    HW1 3765   2.679   0.835   3.639  2.0294  0.9229 -0.6262
 1210SOL    HW2 3766   2.641   0.925   3.755  1.4310 -0.1774  0.0621
 1211SOL     OW 3767   0.592   3.692   0.239 -0.5229  0.2823 -0.2441
 1211SOL    HW1 3768   0.658   3.741   0.189 -2.0428  1.8512 -0.7959
 1211SOL    HW2 3769   0.629   3.604   0.246  2.4584  1.4954  1.0079
 1212SOL     OW 3770   3.254   0.477   0.500 -0.2059  0.2646  0.4136
 1212SOL    HW1 3771   3.349   0.467   0.495 -0.1096  1.0409  0.5029
 1212SOL    HW2 3772   3.230   0.524   0.421 -0.6066 -0.4959  0.0772
 1213SOL     OW 3773   1.547   0.475   1.195 -0.3578  0.1134 -0.4337
 1213SOL    HW1 3774   1.536   0.568   1.173  0.3271 -0.5725 -4.4708
 1213SOL    HW2 3775   1.465   0.435   1.169 -0.5013 -0.5251  0.9271
 1214SOL     OW 3776   0.165   3.569   1.810  0.6547  0.1399 -0.1857
 1214SOL    HW1 3777   0.127   3.496   1.762  0.6273 -1.2956  1.8870
 1214SOL    HW2 3778   0.140   3.646   1.760 -1.2488 -1.0945 -1.2516
 1215SOL     OW 3779   2.860   0.500   3.171  0.9931  0.4657 -0.5298
 1215SOL    HW1 3780   2.896   0.414   3.192  2.3204  1.2655  0.6356
 1215SOL    HW2 3781   2.928   0.562   3.197 -0.5904  1.9574  0.2802
 1216SOL     OW 3782   0.992   0.189   1.088 -0.0142  0.1669 -0.1747
 1216SOL    HW1 3783   0.970   0.102   1.121 -1.1867 -0.3048 -1.9801
 1216SOL    HW2 3784   0.972   0.248   1.160  1.7293 -1.1015  1.4253
 1217SOL     OW 3785   3.262   2.857   3.222 -0.2191  0.1086  0.6289
 1217SOL    HW1 3786   3.279   2.951   3.217 -1.0049  0.2480  0.3596
 1217SOL    HW2 3787   3.337   2.821   3.269  1.7703  0.3939 -2.0770
 1218SOL     OW 3788   1.964   2.413   0.654 -0.2857 -0.3470 -0.0478
 1218SOL    HW1 3789   1.986   2.320   0.658 -1.1192 -0.6329 -1.2990
 1218SOL    HW2 3790   1.884   2.421   0.705 -0.2587 -0.3265 -0.0083
 1219SOL     OW 3791   2.875   0.821   3.542 -0.3212  0.7517 -0.4059
 1219SOL    HW1 3792   2.869   0.728   3.520  0.0672  0.8514 -0.9560
 1219SOL    HW2 3793   2.873   0.865   3.457 -0.1077  1.2265 -0.1641
 1220SOL     OW 3794   2.557   2.833   3.296 -0.2957  0.1532  0.3987
 1220SOL    HW1 3795   2.630   2.895   3.292  0.5425 -0.7817  0.6303
 1220SOL    HW2 3796   2.511   2.844   3.213 -0.5762  1.5551  0.7207
 1221SOL     OW 3797   2.224   2.161   2.505  0.3734 -0.0676  0.0660
 1221SOL    HW1 3798   2.201   2.160   2.598 -0.1895 -0.0098 -0.0698
 1221SOL    HW2 3799   2.227   2.068   2.480 -1.2291 -0.0579 -0.2724
 1222SOL     OW 3800   2.541   0.831   3.405  0.0151 -0.3289  0.0438
 1222SOL    HW1 3801   2.609   0.767   3.383 -0.0785 -0.6181  0.5991
 1222SOL    HW2 3802   2.557   0.853   3.496 -0.5858 -0.3293  0.1496
 1223SOL     OW 3803   1.441   2.425   0.353 -0.6246 -0.3257 -0.2721
 1223SOL    HW1 3804   1.417   2.360   0.419  1.3395  0.1381  0.9918
 1223SOL    HW2 3805   1.358   2.469   0.331 -1.3384 -0.4232  1.9940
 1224SOL     OW 3806   2.232   1.075   1.801  0.7278 -0.4227 -0.1945
 1224SOL    HW1 3807   2.203   1.148   1.856  0.0419 -1.3296  0.6705
 1224SOL    HW2 3808   2.252   1.116   1.716  2.3284  1.1023  0.8339
 1225SOL     OW 3809   3.306   0.109   1.886  0.8876  1.2348  0.0112
 1225SOL    HW1 3810   3.276   0.176   1.947  0.4639 -0.2016  1.4425
 1225SOL    HW2 3811   3.316   0.155   1.803 -0.2053  2.8815  0.7432
 1226SOL     OW 3812   1.651   2.814   1.319 -0.8631 -0.3332 -0.0022
 1226SOL    HW1 3813   1.575   2.770   1.357 -0.9656 -0.8920 -0.8370
 1226SOL    HW2 3814   1.617   2.896   1.284 -1.2093 -0.8675 -0.9339
 1227SOL     OW 3815   1.168   0.014   1.873  0.2535  0.2358  0.1515
 1227SOL    HW1 3816   1.080  -0.016   1.895  0.9495 -1.3986  0.8769
 1227SOL    HW2 3817   1.156   0.069   1.795 -1.0335 -2.9554 -2.1414
 1228SOL     OW 3818   1.054   3.024   1.533  0.5525 -0.1820  0.2510
 1228SOL    HW1 3819   1.124   3.037   1.469  1.1691 -0.3772  0.8682
 1228SOL    HW2 3820   1.031   3.112   1.561 -0.3413 -0.0399 -0.8764
 1229SOL     OW 3821   3.287   3.684   2.122 -0.6124 -0.8398 -0.7695
 1229SOL    HW1 3822   3.372   3.673   2.164  0.4298 -1.2617 -2.9041
 1229SOL    HW2 3823   3.305   3.732   2.042 -2.0734 -2.5897 -2.2380
 1230SOL     OW 3824   2.342   2.988   2.327 -0.0401  0.4905 -0.3158
 1230SOL    HW1 3825   2.395   2.966   2.251 -0.0752  0.3976 -0.3140
 1230SOL    HW2 3826   2.375   2.931   2.397 -0.4008  0.1511 -0.4172
 1231SOL     OW 3827   3.187   3.258   2.024 -0.5662  0.4597 -0.7132
 1231SOL    HW1 3828   3.103   3.220   2.048  0.2332 -0.0564  1.5712
 1231SOL    HW2 3829   3.182   3.349   2.051 -0.7439  0.7268 -1.6003
 1232SOL     OW 3830   2.804   1.547   3.564 -0.6390 -0.5216 -0.1015
 1232SOL    HW1 3831   2.805   1.592   3.479 -1.2586 -2.8063 -1.4106
 1232SOL    HW2 3832   2.712   1.529   3.580 -0.3177 -4.3043 -1.4374
 1233SOL     OW 3833   1.035   2.912   0.633  0.0710 -0.0916  0.4451
 1233SOL    HW1 3834   1.064   2.846   0.570 -1.1768 -0.5803  0.3585
 1233SOL    HW2 3835   0.944   2.929   0.611  0.1165  1.0251  1.0260
 1234SOL     OW 3836   0.751   1.805   3.122  0.6464  0.4227  0.7656
 1234SOL    HW1 3837   0.675   1.780   3.070 -1.5203  3.0337  2.3620
 1234SOL    HW2 3838   0.752   1.743   3.195  0.9106 -0.4497  0.0329
 1235SOL     OW 3839   1.711   2.540   2.349 -0.4930 -0.2139 -0.7643
 1235SOL    HW1 3840   1.745   2.455   2.321  0.4070 -0.2212  0.3021
 1235SOL    HW2 3841   1.767   2.604   2.304 -0.2695 -0.2119 -0.4911
 1236SOL     OW 3842   1.335   2.122   0.250  0.0582 -0.0160  0.6714
 1236SOL    HW1 3843   1.284   2.201   0.233 -0.0115  0.2409  1.9513
 1236SOL    HW2 3844   1.281   2.071   0.310  0.9504 -0.1100  1.4202
 1237SOL     OW 3845   2.164   0.465   0.349  0.1681  0.6942 -0.6036
 1237SOL    HW1 3846   2.214   0.516   0.413 -1.4609  1.1404  0.3782
 1237SOL    HW2 3847   2.168   0.516   0.269 -0.3544  1.7398  0.0147
 1238SOL     OW 3848   1.411   0.339   2.765  0.0479 -0.0443  0.6189
 1238SOL    HW1 3849   1.386   0.377   2.681  0.4972  0.8583  0.8830
 1238SOL    HW2 3850   1.470   0.267   2.742  0.1680  0.1973  0.1657
 1239SOL     OW 3851   0.847   3.572   1.662  0.0293 -0.6290 -0.0028
 1239SOL    HW1 3852   0.754   3.559   1.643 -1.0622  1.1782  3.2712
 1239SOL    HW2 3853   0.858   3.667   1.662  1.3235 -0.7280  1.7302
 1240SOL     OW 3854   0.757   1.679   2.702 -0.0411 -0.1646 -0.2462
 1240SOL    HW1 3855   0.700   1.708   2.773 -0.0616 -1.2216  0.1848
 1240SOL    HW2 3856   0.786   1.760   2.660 -0.2078  0.4657  0.8253
 1241SOL     OW 3857   3.293   1.063   1.104 -0.0858 -0.7882  0.7589
 1241SOL    HW1 3858   3.225   1.013   1.057 -0.4256 -2.2695  2.7109
 1241SOL    HW2 3859   3.281   1.039   1.196  2.0743  0.1890  1.3461
 1242SOL     OW 3860   2.426   0.636   3.666  0.3692  0.6763 -0.4493
 1242SOL    HW1 3861   2.490   0.584   3.714 -0.1051  1.9828  1.7277
 1242SOL    HW2 3862   2.466   0.722   3.657 -0.0878  0.8165 -1.3003
 1243SOL     OW 3863   0.236   0.307   3.334 -0.8854  0.2922 -0.1428
 1243SOL    HW1 3864   0.314   0.362   3.333  1.5655 -2.8689  0.3878
 1243SOL    HW2 3865   0.199   0.316   3.246  1.3717  0.2698 -1.1628
 1244SOL     OW 3866   3.356   3.341   2.346 -0.8002 -0.1100 -0.1419
 1244SOL    HW1 3867   3.294   3.379   2.283 -0.7131 -1.3934 -1.0572
 1244SOL    HW2 3868   3.442   3.370   2.316 -0.7651 -0.6547 -0.5866
 1245SOL     OW 3869   0.716   2.578   3.671  0.0147  0.2427 -0.5203
 1245SOL    HW1 3870   0.795   2.526   3.659  2.4726  3.2034  1.3487
 1245SOL    HW2 3871   0.702   2.579   3.766 -2.8737 -0.9114 -0.8513
 1246SOL     OW 3872   2.276   1.622   3.307 -0.4738  0.0802  0.1165
 1246SOL    HW1 3873   2.355   1.614   3.361 -0.0511 -0.0181 -0.4942
 1246SOL    HW2 3874   2.277   1.712   3.276 -1.5521  0.5966  1.5026
 1247SOL     OW 3875   3.532   1.917   1.074  0.7351  0.3767 -0.2525
 1247SOL    HW1 3876   3.567   1.853   1.137  1.4275 -0.4773 -1.4587
 1247SOL    HW2 3877   3.609   1.967   1.045  0.5623  0.2117 -1.0192
 1248SOL     OW 3878   3.715   0.543   0.696  0.0709  1.0424  0.6512
 1248SOL    HW1 3879   3.637   0.546   0.641  0.4802  2.0790  0.1124
 1248SOL    HW2 3880   3.717   0.453   0.730 -0.7491  0.6914 -0.1971
 1249SOL     OW 3881   0.237   1.057   1.811 -0.2441  0.1104  0.3220
 1249SOL    HW1 3882   0.193   0.990   1.760 -1.0493  0.0580  1.0653
 1249SOL    HW2 3883   0.167   1.104   1.856 -0.0870  3.5171 -2.5191
 1250SOL     OW 3884   1.725   3.448   0.265  0.0725  0.1855 -0.4584
 1250SOL    HW1 3885   1.811   3.406   0.260  0.3662  0.7873 -0.6400
 1250SOL    HW2 3886   1.684   3.428   0.181  0.3900  0.6275 -0.7236
 1251SOL     OW 3887   1.829   2.657   1.970  0.0339 -0.3857 -0.0897
 1251SOL    HW1 3888   1.743   2.622   1.996  1.2903 -1.0108  3.9117
 1251SOL    HW2 3889   1.889   2.584   1.984  1.4588  0.5594 -1.1222
 1252SOL     OW 3890   1.419   3.625   2.821  0.0738  0.4512  0.3569
 1252SOL    HW1 3891   1.452   3.715   2.816  0.0842  0.6461  2.6559
 1252SOL    HW2 3892   1.424   3.592   2.731  2.8665  1.7498 -0.0765
 1253SOL     OW 3893   2.930   1.544   1.108  0.1824 -0.1836  0.2690
 1253SOL    HW1 3894   3.020   1.513   1.095  0.4698  0.8075 -0.2229
 1253SOL    HW2 3895   2.937   1.639   1.101 -1.0237 -0.1334 -0.4334
 1254SOL     OW 3896   1.561   0.534   3.322  0.0828 -0.7659  0.7401
 1254SOL    HW1 3897   1.554   0.581   3.238 -0.0316  0.4097  1.3917
 1254SOL    HW2 3898   1.553   0.441   3.298 -2.1616 -0.3694 -0.3291
 1255SOL     OW 3899   0.504   2.301   2.442  0.1692 -0.5078  1.1492
 1255SOL    HW1 3900   0.593   2.334   2.429  0.5957 -1.2793  1.9863
 1255SOL    HW2 3901   0.480   2.264   2.357  0.5389 -0.0667  0.8430
 1256SOL     OW 3902   1.252   3.663   3.600 -0.0647  0.1617  0.1984
 1256SOL    HW1 3903   1.176   3.644   3.546 -0.9641 -1.0094  1.7836
 1256SOL    HW2 3904   1.221   3.651   3.690  1.4348  1.7261  0.9901
 1257SOL     OW 3905   2.607   0.778   1.554  0.3923  0.3370 -0.4072
 1257SOL    HW1 3906   2.606   0.781   1.458 -0.4186 -0.4498 -0.4310
 1257SOL    HW2 3907   2.688   0.823   1.578 -0.6538  2.9083 -1.3700
 1258SOL     OW 3908   0.098   1.884   1.065  0.5421  0.0862  0.3420
 1258SOL    HW1 3909   0.119   1.795   1.035  0.9377  0.4509 -0.4965
 1258SOL    HW2 3910   0.118   1.884   1.158  2.1620 -0.2148  0.0119
 1259SOL     OW 3911   2.343   2.352   0.145 -0.3431 -0.0582 -0.0190
 1259SOL    HW1 3912   2.391   2.424   0.186 -1.3899 -0.2570  1.6343
 1259SOL    HW2 3913   2.404   2.278   0.148  0.2691  0.4033 -0.5771
 1260SOL     OW 3914   3.170   0.793   2.227  0.0437  0.2317 -0.5904
 1260SOL    HW1 3915   3.251   0.759   2.189  1.2901  0.4259  1.6931
 1260SOL    HW2 3916   3.197   0.870   2.277 -0.9514 -1.3149  2.6036
 1261SOL     OW 3917   1.408   3.347   2.118 -0.1177 -0.2018 -0.4985
 1261SOL    HW1 3918   1.364   3.431   2.107  2.0835  0.9238 -1.4121
 1261SOL    HW2 3919   1.442   3.327   2.031 -0.2860 -1.8699 -0.2019
 1262SOL     OW 3920   1.755   0.070   2.279  0.5131 -0.8332  0.2477
 1262SOL    HW1 3921   1.664   0.041   2.284 -0.3299  0.8762 -2.8322
 1262SOL    HW2 3922   1.751   0.165   2.293  1.4583 -0.3975 -2.0519
 1263SOL     OW 3923   0.837   1.421   2.997 -0.4765 -0.7357 -1.0499
 1263SOL    HW1 3924   0.881   1.472   2.930  1.3352 -2.2401 -1.0914
 1263SOL    HW2 3925   0.904   1.408   3.065 -0.8655 -2.9075 -0.9969
 1264SOL     OW 3926   0.352   1.799   2.405  0.6277 -0.2309  0.2256
 1264SOL    HW1 3927   0.406   1.723   2.425  0.8042 -0.1276  0.1553
 1264SOL    HW2 3928   0.276   1.791   2.462  0.4922 -0.6263 -0.0090
 1265SOL     OW 3929   0.292   3.296   2.114  0.5301  0.3599 -0.4511
 1265SOL    HW1 3930   0.210   3.274   2.159  0.9724 -0.0837  0.1644
 1265SOL    HW2 3931   0.324   3.375   2.160  1.1675 -0.3033  0.2905
 1266SOL     OW 3932   2.364   1.286   0.613 -0.4038 -0.1572 -0.1961
 1266SOL    HW1 3933   2.321   1.354   0.562 -0.4729  0.7410  1.0327
 1266SOL    HW2 3934   2.445   1.326   0.644 -0.6310 -0.4972  0.8648
 1267SOL     OW 3935   0.860   2.888   3.079  0.2627  0.0862 -0.0441
 1267SOL    HW1 3936   0.885   2.915   3.167 -0.6438  1.5504 -0.2189
 1267SOL    HW2 3937   0.811   2.961   3.043  1.5137 -0.0200 -2.1749
 1268SOL     OW 3938   3.613   0.280   0.711 -0.5877 -0.0688 -0.3884
 1268SOL    HW1 3939   3.636   0.282   0.804 -0.4227 -0.3946 -0.4212
 1268SOL    HW2 3940   3.608   0.187   0.689  0.5364 -0.0123 -0.9828
 1269SOL     OW 3941   2.213   1.982   2.124  0.1056 -0.4316 -0.0493
 1269SOL    HW1 3942   2.300   1.960   2.156 -0.5782 -0.2659  2.1186
 1269SOL    HW2 3943   2.197   1.921   2.052  2.7519  0.8499 -1.9136
 1270SOL     OW 3944   2.254   1.538   0.806  0.1414  0.4347 -0.1710
 1270SOL    HW1 3945   2.348   1.531   0.824 -0.0253 -1.1794  0.2065
 1270SOL    HW2 3946   2.212   1.480   0.869 -1.0267  0.2387 -1.0840
 1271SOL     OW 3947   1.051   2.636   3.684 -0.1697  0.2341 -0.0215
 1271SOL    HW1 3948   1.098   2.616   3.603  0.9864  0.1183  0.6539
 1271SOL    HW2 3949   0.964   2.666   3.656  0.6939  1.5759 -1.3543
 1272SOL     OW 3950   2.559   1.887   2.793  0.4795 -0.0889 -0.4178
 1272SOL    HW1 3951   2.584   1.943   2.719 -1.5654 -2.5864 -3.2566
 1272SOL    HW2 3952   2.642   1.862   2.834  1.5947  2.6480 -0.7842
 1273SOL     OW 3953   3.733   2.808   2.408  0.5166  0.4803 -0.0757
 1273SOL    HW1 3954   3.658   2.749   2.407  0.7097  0.0974  2.1811
 1273SOL    HW2 3955   3.808   2.752   2.389  0.5998  0.1199  1.2149
 1274SOL     OW 3956   0.467   1.547   0.644 -0.0840  0.3234 -0.4374
 1274SOL    HW1 3957   0.542   1.601   0.666  0.1662  0.6460 -1.9945
 1274SOL    HW2 3958   0.402   1.568   0.712  0.8475  0.7834  0.3415
 1275SOL     OW 3959   0.648   1.984   1.888 -0.8117  0.4186  0.1316
 1275SOL    HW1 3960   0.636   1.982   1.794 -1.1569  2.7878  0.0506
 1275SOL    HW2 3961   0.728   1.934   1.904  0.3797  1.6431 -1.6750
 1276SOL     OW 3962   0.203   0.265   0.770  0.2732 -0.1547  0.1262
 1276SOL    HW1 3963   0.156   0.222   0.842 -0.9126 -1.9852 -1.6485
 1276SOL    HW2 3964   0.272   0.315   0.814 -0.7622 -0.6948  2.5620
 1277SOL     OW 3965   3.054   2.122   2.573  0.9738  0.8101  0.5740
 1277SOL    HW1 3966   3.064   2.076   2.490 -1.6334  0.6363  0.2575
 1277SOL    HW2 3967   3.018   2.208   2.549 -0.8132  0.3773  1.5011
 1278SOL     OW 3968   1.846   0.475   3.407  0.3082  0.0807 -0.2244
 1278SOL    HW1 3969   1.859   0.570   3.415 -0.5041  0.3599 -1.7943
 1278SOL    HW2 3970   1.751   0.465   3.395  0.4352 -0.8956 -0.4976
 1279SOL     OW 3971   2.689   3.511   2.879 -0.2699  0.1060  0.1390
 1279SOL    HW1 3972   2.713   3.437   2.824 -2.5904 -0.5619 -0.0803
 1279SOL    HW2 3973   2.658   3.578   2.818  1.1198  1.0046  0.3861
 1280SOL     OW 3974   3.392   0.100   3.475  0.2985  0.7949 -0.4790
 1280SOL    HW1 3975   3.357   0.120   3.562 -1.9257  1.6242 -1.4912
 1280SOL    HW2 3976   3.487   0.106   3.486  0.0938  0.6809  1.9249
 1281SOL     OW 3977   2.735   3.426   0.468 -0.3143 -0.0198 -0.6912
 1281SOL    HW1 3978   2.663   3.364   0.457 -1.0378  0.8565 -0.9830
 1281SOL    HW2 3979   2.733   3.449   0.561 -0.0199 -0.4486 -0.5741
 1282SOL     OW 3980   0.044   3.306   2.250 -0.8183 -0.1498  0.3672
 1282SOL    HW1 3981  -0.013   3.345   2.184  0.0392 -0.2176 -0.4288
 1282SOL    HW2 3982   0.058   3.375   2.314 -2.7622 -0.4929  1.2432
 1283SOL     OW 3983   1.209   0.981   0.816 -0.0502  0.6420 -0.3658
 1283SOL    HW1 3984   1.184   1.034   0.741 -1.0027 -0.0008 -0.5195
 1283SOL    HW2 3985   1.253   0.904   0.779 -1.5460 -0.2477 -0.3703
 1284SOL     OW 3986   2.976   1.229   1.810 -0.4278 -0.1944  0.0232
 1284SOL    HW1 3987   3.013   1.284   1.741 -1.1578 -0.6501 -0.7539
 1284SOL    HW2 3988   3.039   1.234   1.881  0.1766  0.5623 -0.5466
 1285SOL     OW 3989   0.697   3.213   1.762 -0.2584  0.0726  0.2737
 1285SOL    HW1 3990   0.616   3.261   1.742 -0.3140 -0.2452 -0.2906
 1285SOL    HW2 3991   0.671   3.122   1.769 -0.2638  0.1862  2.0363
 1286SOL     OW 3992   1.192   0.116   2.128  0.3230  0.1231 -0.2107
 1286SOL    HW1 3993   1.138   0.187   2.164 -0.1419 -0.4477  0.2311
 1286SOL    HW2 3994   1.173   0.117   2.034 -3.6927 -2.6446  0.3164
 1287SOL     OW 3995   0.720   1.384   0.471 -0.1144 -0.0431  0.3806
 1287SOL    HW1 3996   0.679   1.426   0.547  2.3171  0.3405  1.5845
 1287SOL    HW2 3997   0.721   1.452   0.404 -0.9962  0.0855  0.4894
 1288SOL     OW 3998   0.257   0.020   2.198  0.2433  0.3588  0.3270
 1288SOL    HW1 3999   0.193   0.088   2.178 -0.6279 -0.8312 -1.1781
 1288SOL    HW2 4000   0.323   0.029   2.130  0.4128  0.0566  0.4503
 1289SOL     OW 4001   0.415   0.058   2.603 -0.2971  0.2817 -0.3323
 1289SOL    HW1 4002   0.483   0.090   2.662 -0.3736  1.4817 -0.8549
 1289SOL    HW2 4003   0.408   0.127   2.536 -0.5893 -0.7840 -1.4278
 1290SOL     OW 4004   0.355   1.075   0.806 -0.4245 -0.2812  0.0367
 1290SOL    HW1 4005   0.440   1.067   0.848 -0.3343 -1.6146 -0.3506
 1290SOL    HW2 4006   0.370   1.132   0.731  0.2875 -1.0066 -0.3889
 1291SOL     OW 4007   1.480   3.119   3.250  0.1072  0.5752  0.4043
 1291SOL    HW1 4008   1.542   3.076   3.191  0.8296  4.1523 -1.7468
 1291SOL    HW2 4009   1.396   3.112   3.205 -0.1944 -0.2653  1.0631
 1292SOL     OW 4010   1.092   1.119   1.397  0.3096 -0.0400 -0.5586
 1292SOL    HW1 4011   1.136   1.061   1.459 -1.2227 -2.1716 -1.3786
 1292SOL    HW2 4012   1.162   1.148   1.339  1.2240 -0.5068  0.2737
 1293SOL     OW 4013   1.114   0.122   3.385 -0.0263  0.2441 -0.0924
 1293SOL    HW1 4014   1.048   0.165   3.330 -0.4066 -1.5632 -1.1195
 1293SOL    HW2 4015   1.067   0.049   3.426  0.7443  0.4212  1.1596
 1294SOL     OW 4016   1.221   0.911   1.217  0.2882  0.0386  0.4027
 1294SOL    HW1 4017   1.137   0.924   1.260  0.3165 -1.7931  1.1223
 1294SOL    HW2 4018   1.199   0.881   1.129  0.1184 -1.5386  0.9425
 1295SOL     OW 4019   2.050   2.252   3.393 -0.1136 -0.0056  0.0413
 1295SOL    HW1 4020   1.984   2.193   3.355  1.1399 -1.5910  0.1948
 1295SOL    HW2 4021   2.134   2.215   3.365  0.7534  1.1203  1.0383
 1296SOL     OW 4022   0.278   2.077   3.635 -0.1441 -0.1445 -0.4328
 1296SOL    HW1 4023   0.284   2.126   3.553  0.4975 -0.9876 -0.9103
 1296SOL    HW2 4024   0.249   1.989   3.609 -0.5220 -0.2560  0.3156
 1297SOL     OW 4025   1.701   0.782   1.557  0.8653  0.2304  0.9702
 1297SOL    HW1 4026   1.684   0.842   1.485 -1.6457 -1.3409  0.1630
 1297SOL    HW2 4027   1.742   0.706   1.517 -2.1822 -1.4416  0.7407
 1298SOL     OW 4028   0.692   1.663   1.662  0.2595  0.5189 -0.1164
 1298SOL    HW1 4029   0.781   1.682   1.632  0.2441 -1.8181 -1.8578
 1298SOL    HW2 4030   0.636   1.705   1.596  0.1934 -1.8855 -1.6942
 1299SOL     OW 4031   0.383   0.853   1.976 -0.4584 -0.5894 -0.0782
 1299SOL    HW1 4032   0.298   0.880   1.941  0.1308  1.1587 -0.2886
 1299SOL    HW2 4033   0.398   0.912   2.051  0.5656 -0.8511 -0.0581
 1300SOL     OW 4034   0.591   1.069   3.326 -0.4936  0.4603 -0.0047
 1300SOL    HW1 4035   0.568   1.145   3.273 -1.5153  0.5383  0.5315
 1300SOL    HW2 4036   0.665   1.099   3.380 -0.6389  0.9484 -0.0737
 1301SOL     OW 4037   2.951   1.616   3.256 -0.3752  0.2190  0.2357
 1301SOL    HW1 4038   2.906   1.636   3.174  0.4492  1.3743  0.0347
 1301SOL    HW2 4039   2.985   1.700   3.286  0.3444 -0.3769  1.1574
 1302SOL     OW 4040   3.238   1.341   3.199 -0.5596 -0.4933 -0.6143
 1302SOL    HW1 4041   3.217   1.413   3.140 -1.1694  0.8964  1.1738
 1302SOL    HW2 4042   3.159   1.330   3.252  0.1546 -1.2430  0.3479
 1303SOL     OW 4043   1.098   1.022   3.159  0.3527  0.2733 -0.2338
 1303SOL    HW1 4044   1.141   1.103   3.130  2.7217 -1.1205 -0.8951
 1303SOL    HW2 4045   1.077   0.976   3.078 -0.9854  0.1770  0.1402
 1304SOL     OW 4046   1.175   2.894   3.417 -0.5176  0.1678 -0.2133
 1304SOL    HW1 4047   1.146   2.975   3.376  1.3814  1.2172  0.3645
 1304SOL    HW2 4048   1.098   2.838   3.418 -2.0518  2.1609 -0.1552
 1305SOL     OW 4049   2.202   1.650   2.513  0.8921  0.0222  0.1663
 1305SOL    HW1 4050   2.160   1.660   2.599  1.2566  1.5939  0.1902
 1305SOL    HW2 4051   2.295   1.656   2.531  1.0115 -0.6453 -0.2251
 1306SOL     OW 4052   0.808   1.461   2.295 -0.1030 -0.1447 -0.3020
 1306SOL    HW1 4053   0.897   1.456   2.330  0.0635 -0.0407 -0.7132
 1306SOL    HW2 4054   0.752   1.439   2.370  0.3521 -3.4528 -0.7901
 1307SOL     OW 4055   0.346   0.876   3.131 -0.4921 -0.4075  0.2047
 1307SOL    HW1 4056   0.393   0.851   3.211 -2.4230 -1.4845  1.0688
 1307SOL    HW2 4057   0.379   0.964   3.110  1.3779 -0.8353  1.1126
 1308SOL     OW 4058   3.591   3.233   1.516  0.3084 -0.3567  0.0408
 1308SOL    HW1 4059   3.599   3.298   1.586  0.0297 -2.2500  1.9373
 1308SOL    HW2 4060   3.679   3.195   1.508  0.5308  0.3509 -1.2291
 1309SOL     OW 4061   1.888   1.349   2.943  0.1817 -0.6081  0.2939
 1309SOL    HW1 4062   1.854   1.401   2.870  1.8202 -1.0508 -0.8569
 1309SOL    HW2 4063   1.884   1.258   2.911 -0.5917 -0.9857  1.4120
 1310SOL     OW 4064   0.700   0.725   1.951  0.3076 -0.5220  0.1896
 1310SOL    HW1 4065   0.751   0.791   1.999 -0.7962 -0.8818  1.9310
 1310SOL    HW2 4066   0.660   0.774   1.879 -0.4756  0.7485  1.4261
 1311SOL     OW 4067   3.250   0.744   0.631  0.6678 -0.3543 -0.3430
 1311SOL    HW1 4068   3.294   0.744   0.715 -0.5074  0.5700  0.2943
 1311SOL    HW2 4069   3.177   0.682   0.642  1.4458 -1.4763 -1.2182
 1312SOL     OW 4070   2.419   2.747   1.162  0.1626  0.3894  0.4345
 1312SOL    HW1 4071   2.342   2.771   1.213 -0.1425  1.6339 -0.5745
 1312SOL    HW2 4072   2.486   2.811   1.187  0.9149 -0.7109  1.3444
 1313SOL     OW 4073   2.765   2.428   2.433 -0.4500 -0.4455  0.7877
 1313SOL    HW1 4074   2.831   2.360   2.417 -0.4932 -0.2475 -0.3441
 1313SOL    HW2 4075   2.701   2.416   2.363  0.8446  2.3221 -1.0546
 1314SOL     OW 4076   2.219   0.116   0.641  0.0776 -0.0733  1.0474
 1314SOL    HW1 4077   2.188   0.047   0.582 -0.2484  0.2378  0.8514
 1314SOL    HW2 4078   2.143   0.135   0.696  0.6375 -0.9920  2.1770
 1315SOL     OW 4079   0.798   0.576   0.726  0.2169  0.2139 -0.3945
 1315SOL    HW1 4080   0.732   0.538   0.668 -0.1231 -0.2412  0.2712
 1315SOL    HW2 4081   0.752   0.645   0.773  0.1726 -0.1944  0.1688
 1316SOL     OW 4082   2.781   0.724   0.435  0.4863  0.4320 -0.1894
 1316SOL    HW1 4083   2.696   0.751   0.398  1.6010  2.1750 -1.6647
 1316SOL    HW2 4084   2.845   0.773   0.385  2.5739 -2.5399 -0.6911
 1317SOL     OW 4085   3.407   2.588   2.144  0.1269  0.0210 -0.1616
 1317SOL    HW1 4086   3.426   2.677   2.115 -1.0432 -0.2928 -2.0939
 1317SOL    HW2 4087   3.467   2.533   2.095 -0.7718 -0.4095 -0.8130
 1318SOL     OW 4088   2.484   1.112   1.942 -0.3359  0.5790 -0.0745
 1318SOL    HW1 4089   2.554   1.131   1.880 -0.2727 -1.3760 -0.6539
 1318SOL    HW2 4090   2.411   1.082   1.887  0.1602 -2.4866  0.8016
 1319SOL     OW 4091   0.610   1.323   1.242 -0.1748 -0.5167  0.0115
 1319SOL    HW1 4092   0.688   1.278   1.274 -0.2372  0.4388  1.6162
 1319SOL    HW2 4093   0.544   1.254   1.232 -0.1057 -0.9021  1.8846
 1320SOL     OW 4094   2.532   2.271   2.603 -0.2028  0.0215 -0.3198
 1320SOL    HW1 4095   2.575   2.185   2.604 -0.7053 -0.2326 -0.4422
 1320SOL    HW2 4096   2.497   2.279   2.514 -0.4681  0.1987 -0.2003
 1321SOL     OW 4097   2.497   2.572   3.292 -0.6240 -0.6127  0.1122
 1321SOL    HW1 4098   2.564   2.521   3.338  1.4504 -1.2487 -3.3046
 1321SOL    HW2 4099   2.518   2.663   3.314  2.0949 -0.7278 -1.5831
 1322SOL     OW 4100   3.509   0.402   0.500  0.2047 -0.0656 -0.4337
 1322SOL    HW1 4101   3.521   0.340   0.572 -1.7117 -0.5706 -0.4962
 1322SOL    HW2 4102   3.593   0.404   0.456  0.5975 -1.8875  0.1544
 1323SOL     OW 4103   0.091   2.017   0.232  0.3375 -0.3302  0.4621
 1323SOL    HW1 4104   0.179   2.052   0.220  0.7883 -1.5639  0.0084
 1323SOL    HW2 4105   0.051   2.075   0.298  1.7041 -0.1259  1.1501
 1324SOL     OW 4106   0.151   3.121   3.021  0.2098 -0.0298  0.7076
 1324SOL    HW1 4107   0.086   3.101   2.953  0.8089  1.3785 -0.3472
 1324SOL    HW2 4108   0.186   3.207   2.996 -0.1503  0.9623  3.3047
 1325SOL     OW 4109   3.157   3.389   1.096  0.2223 -0.4314  0.3185
 1325SOL    HW1 4110   3.063   3.371   1.091  0.0366  0.4233  0.4981
 1325SOL    HW2 4111   3.164   3.483   1.079  1.2745 -0.8621 -2.0871
 1326SOL     OW 4112   0.972   2.582   2.731  0.1622 -0.3067 -0.5273
 1326SOL    HW1 4113   1.001   2.519   2.665  0.1579 -0.3152 -0.5211
 1326SOL    HW2 4114   0.909   2.534   2.784  0.2272 -0.3255 -0.4662
 1327SOL     OW 4115   2.081   3.432   0.213 -0.2512  0.7591 -0.1451
 1327SOL    HW1 4116   2.147   3.408   0.148 -0.2353  0.8288 -0.1547
 1327SOL    HW2 4117   2.079   3.357   0.273 -1.6886 -0.1999 -1.3304
 1328SOL     OW 4118   3.265   2.375   0.232  0.3701 -0.0120  0.2858
 1328SOL    HW1 4119   3.243   2.317   0.306 -0.3878 -0.2939 -0.1453
 1328SOL    HW2 4120   3.195   2.440   0.232 -0.0039 -0.4019 -0.5844
 1329SOL     OW 4121   2.161   1.850   0.203 -0.3418  0.1200  0.1603
 1329SOL    HW1 4122   2.151   1.944   0.196  2.6978  0.5192 -0.5390
 1329SOL    HW2 4123   2.147   1.817   0.114  0.2566  0.1660  0.0416
 1330SOL     OW 4124   1.742   0.392   2.487 -0.2622  0.1538  0.4602
 1330SOL    HW1 4125   1.647   0.401   2.495 -0.4337  0.2682 -1.2093
 1330SOL    HW2 4126   1.761   0.422   2.398  1.0647 -1.9886 -0.0480
 1331SOL     OW 4127   3.537   0.942   2.169 -0.1857  0.1313  0.4210
 1331SOL    HW1 4128   3.492   0.873   2.219  0.7013 -0.7315  0.0713
 1331SOL    HW2 4129   3.528   1.020   2.223  0.0960 -0.6090  1.6047
 1332SOL     OW 4130   1.462   2.932   2.531 -0.0587  0.5685 -0.1493
 1332SOL    HW1 4131   1.424   2.862   2.477  1.1662  1.3479 -2.1450
 1332SOL    HW2 4132   1.511   2.887   2.599 -1.4075 -0.4522  0.1952
 1333SOL     OW 4133   2.959   3.145   2.890  0.3444 -0.0514 -0.8568
 1333SOL    HW1 4134   2.983   3.190   2.971  2.3286  0.0996 -1.4545
 1333SOL    HW2 4135   2.864   3.151   2.886  0.2775  0.8108  0.9494
 1334SOL     OW 4136   0.306   1.982   0.743  0.0196  0.3580  0.1373
 1334SOL    HW1 4137   0.297   1.975   0.648  3.0030 -1.2916 -0.1344
 1334SOL    HW2 4138   0.322   1.892   0.773 -0.3687  0.8993  2.1563
 1335SOL     OW 4139   2.299   2.165   3.338 -0.4529 -0.0117  0.1424
 1335SOL    HW1 4140   2.377   2.130   3.381 -1.2069 -0.5357  1.1185
 1335SOL    HW2 4141   2.332   2.210   3.261  0.6275 -2.2921 -0.7987
 1336SOL     OW 4142   0.855   3.058   1.244 -0.0191 -0.0182 -0.7268
 1336SOL    HW1 4143   0.805   3.082   1.322 -0.3091 -3.1702  0.2125
 1336SOL    HW2 4144   0.936   3.108   1.251  0.1499 -0.5245  1.8881
 1337SOL     OW 4145   0.421   0.365   0.855 -0.6141 -0.0363  0.1749
 1337SOL    HW1 4146   0.477   0.423   0.804 -1.1548  0.5745  0.2671
 1337SOL    HW2 4147   0.478   0.292   0.879 -0.3042 -0.2403 -1.1282
 1338SOL     OW 4148   3.684   0.561   1.392  0.2649 -0.4568  0.6622
 1338SOL    HW1 4149   3.661   0.486   1.337  3.4129 -1.1174  0.0638
 1338SOL    HW2 4150   3.774   0.544   1.419  0.9653  2.9147  0.8506
 1339SOL     OW 4151   0.686   2.707   2.938  0.2086  0.2487 -0.5589
 1339SOL    HW1 4152   0.747   2.760   2.990 -0.2233 -0.5485  0.8061
 1339SOL    HW2 4153   0.667   2.761   2.862 -0.6178  2.3496  1.0242
 1340SOL     OW 4154   1.113   0.012   0.735 -0.1183  0.2905  0.4122
 1340SOL    HW1 4155   1.140   0.016   0.644  0.3239  1.0851  0.5709
 1340SOL    HW2 4156   1.064   0.093   0.749 -1.3840 -0.4585  0.5199
 1341SOL     OW 4157   1.349   3.544   1.199 -0.4111 -0.1422  0.5334
 1341SOL    HW1 4158   1.412   3.473   1.188  0.0502  0.1607  1.1738
 1341SOL    HW2 4159   1.388   3.618   1.151 -1.9616 -0.9050 -2.1295
 1342SOL     OW 4160   1.834   0.878   0.405  0.3599 -0.8606  0.3557
 1342SOL    HW1 4161   1.836   0.790   0.367 -0.2376  0.2086 -2.3292
 1342SOL    HW2 4162   1.925   0.906   0.406  0.4177 -1.0390  0.0833
 1343SOL     OW 4163   1.402   0.677   2.153 -0.1508 -0.5375  0.1682
 1343SOL    HW1 4164   1.320   0.700   2.197 -0.9525 -0.8155 -1.1249
 1343SOL    HW2 4165   1.470   0.692   2.219 -1.2361 -0.2940  1.2637
 1344SOL     OW 4166   1.478   1.750   3.032  0.5108  0.3707  1.0290
 1344SOL    HW1 4167   1.421   1.758   2.956 -0.0517  0.6352  1.4752
 1344SOL    HW2 4168   1.518   1.663   3.024  1.5155  0.9063 -0.2992
 1345SOL     OW 4169   0.467   0.279   2.140 -0.3946 -0.0306 -0.1798
 1345SOL    HW1 4170   0.552   0.301   2.177  0.3210  0.3135 -1.9422
 1345SOL    HW2 4171   0.486   0.215   2.072 -1.4244  0.7581 -1.2455
 1346SOL     OW 4172  -0.001   1.564   1.643 -0.0243  0.1827 -0.3256
 1346SOL    HW1 4173  -0.053   1.631   1.687  0.1695 -0.3437  0.7380
 1346SOL    HW2 4174   0.056   1.613   1.583 -0.3470  0.9063 -0.0495
 1347SOL     OW 4175   1.475   3.682   3.440 -0.4250 -0.5067 -0.0385
 1347SOL    HW1 4176   1.440   3.733   3.368 -1.8283 -2.6384 -0.9922
 1347SOL    HW2 4177   1.399   3.665   3.496 -0.0679 -1.6864  0.1205
 1348SOL     OW 4178   2.868   2.908   2.324  0.4213 -0.0847 -0.5639
 1348SOL    HW1 4179   2.886   2.819   2.294  0.1211 -0.4545  0.3124
 1348SOL    HW2 4180   2.773   2.910   2.337  0.4900  0.2090 -0.1014
 1349SOL     OW 4181   3.172   2.927   0.182  0.6201 -0.1830 -0.2868
 1349SOL    HW1 4182   3.077   2.923   0.173  0.7204 -0.2625 -1.4771
 1349SOL    HW2 4183   3.188   3.006   0.233 -0.0432  0.4889 -1.0872
 1350SOL     OW 4184   1.510   0.199   3.671  0.0611  0.4096 -0.0982
 1350SOL    HW1 4185   1.523   0.289   3.642 -0.5730  0.7300  0.5767
 1350SOL    HW2 4186   1.420   0.178   3.644 -0.3191  0.5006  1.0615
 1351SOL     OW 4187   2.423   3.548   0.994  0.1407 -0.4692 -0.4046
 1351SOL    HW1 4188   2.358   3.617   0.978  1.9593  1.0470 -1.7156
 1351SOL    HW2 4189   2.372   3.468   0.999 -2.0503  0.9032  0.9726
 1352SOL     OW 4190   1.577   0.096   1.039  0.0280  0.0215  0.3451
 1352SOL    HW1 4191   1.599   0.144   0.959 -1.4116  2.1305  1.1122
 1352SOL    HW2 4192   1.650   0.113   1.098  0.3481 -0.2075  0.0184
 1353SOL     OW 4193   3.223   0.581   0.262 -0.2332 -0.0899  0.2841
 1353SOL    HW1 4194   3.272   0.556   0.184  0.6522 -1.7532  1.2985
 1353SOL    HW2 4195   3.211   0.675   0.255  1.8162  0.1421 -0.7648
 1354SOL     OW 4196   3.196   1.505   1.059 -0.4488 -0.3385  0.4593
 1354SOL    HW1 4197   3.275   1.457   1.037 -0.3556  0.2744 -0.5969
 1354SOL    HW2 4198   3.221   1.598   1.053 -1.2817 -0.1357 -0.0841
 1355SOL     OW 4199   3.445   1.525   3.391  0.1274 -0.2703 -0.6019
 1355SOL    HW1 4200   3.381   1.595   3.375  0.9100  0.0557 -2.6105
 1355SOL    HW2 4201   3.396   1.459   3.440 -1.2008  0.8193 -0.3871
 1356SOL     OW 4202   1.917   0.995   0.171  0.0592  0.4661 -0.5185
 1356SOL    HW1 4203   1.886   1.086   0.165 -1.1791  0.2859  1.8364
 1356SOL    HW2 4204   1.865   0.957   0.242  2.1213 -1.4521  0.0711
 1357SOL     OW 4205   2.043   2.805   2.777  0.0780  0.2076 -0.0561
 1357SOL    HW1 4206   1.975   2.776   2.716 -0.2033  1.1368 -0.2139
 1357SOL    HW2 4207   2.025   2.899   2.789  0.5570  0.1920  0.9040
 1358SOL     OW 4208   2.293   1.195   1.093 -0.5192 -0.2996 -0.1373
 1358SOL    HW1 4209   2.306   1.192   0.998 -0.2494 -1.6409 -0.0793
 1358SOL    HW2 4210   2.381   1.205   1.129 -0.2217 -2.9744  0.0430
 1359SOL     OW 4211   0.536   3.328   2.529  0.1030 -1.0810  0.0895
 1359SOL    HW1 4212   0.607   3.278   2.490  0.5750 -0.1640 -0.2439
 1359SOL    HW2 4213   0.549   3.320   2.623 -0.6137 -2.6878  0.1036
 1360SOL     OW 4214   2.804   0.251   0.252  0.1032 -0.6553  0.2270
 1360SOL    HW1 4215   2.760   0.335   0.265 -1.0350 -1.2026  0.0260
 1360SOL    HW2 4216   2.882   0.272   0.201 -0.9314  0.0906 -1.0992
 1361SOL     OW 4217   3.674   3.173   1.151 -0.9100 -0.2661 -0.5828
 1361SOL    HW1 4218   3.668   3.081   1.176 -0.8708 -0.3457 -0.8594
 1361SOL    HW2 4219   3.699   3.171   1.059  1.0632  0.0338 -0.1060
 1362SOL     OW 4220   0.944   2.393   2.142 -0.9270  0.4477  0.2760
 1362SOL    HW1 4221   0.946   2.433   2.229  0.2278  0.4057  0.2878
 1362SOL    HW2 4222   0.979   2.461   2.083 -3.8866  1.3595 -0.5764
 1363SOL     OW 4223   2.608   3.304   1.643  0.0574 -0.3529 -0.5243
 1363SOL    HW1 4224   2.594   3.364   1.569  1.0116  0.9917  0.3423
 1363SOL    HW2 4225   2.658   3.231   1.605  1.0775  0.6156 -1.1219
 1364SOL     OW 4226   1.558   1.099   0.080  0.2447  0.3851  0.3435
 1364SOL    HW1 4227   1.475   1.144   0.061 -0.0713  0.2435  1.2948
 1364SOL    HW2 4228   1.598   1.152   0.149  1.2265  0.7610 -0.4944
 1365SOL     OW 4229   0.989   1.230   1.675 -0.2638  0.1278  0.0202
 1365SOL    HW1 4230   0.942   1.296   1.724  1.0828  0.6379  0.6739
 1365SOL    HW2 4231   1.036   1.278   1.607 -1.6521 -0.5088 -1.4682
 1366SOL     OW 4232   3.588   1.741   1.759 -0.2713 -0.6735  0.4858
 1366SOL    HW1 4233   3.500   1.724   1.791  0.8269 -2.7029  2.6390
 1366SOL    HW2 4234   3.579   1.822   1.708 -3.3235 -0.7827  0.6690
 1367SOL     OW 4235   0.829   1.551   1.314  0.0890 -0.0860 -0.3101
 1367SOL    HW1 4236   0.878   1.516   1.240 -1.6402  0.2763 -1.7149
 1367SOL    HW2 4237   0.827   1.480   1.378 -0.8072 -1.5200 -1.8413
 1368SOL     OW 4238   2.386   3.279   0.250 -1.4415  0.4977  0.3569
 1368SOL    HW1 4239   2.430   3.356   0.286 -0.7483  0.0608  0.4570
 1368SOL    HW2 4240   2.412   3.277   0.158 -1.4831  0.3984  0.3479
 1369SOL     OW 4241   2.539   3.573   0.322  0.2204  0.4919  0.1353
 1369SOL    HW1 4242   2.547   3.589   0.228  0.6106  1.2933  0.2958
 1369SOL    HW2 4243   2.630   3.563   0.352  0.0928  0.1388  0.4116
 1370SOL     OW 4244   1.145   1.160   2.266 -0.0805  0.4478 -0.6272
 1370SOL    HW1 4245   1.082   1.203   2.324 -0.1446  0.9549 -1.0736
 1370SOL    HW2 4246   1.199   1.231   2.232  1.2457 -0.0462  0.3406
 1371SOL     OW 4247   2.193   2.948   1.195 -0.1170  0.2891  0.1995
 1371SOL    HW1 4248   2.250   3.021   1.172  0.3737 -0.0245  0.3779
 1371SOL    HW2 4249   2.151   2.923   1.113  0.4235  0.1774 -0.0475
 1372SOL     OW 4250   2.085   1.028   2.560  0.0129  0.7172 -0.3025
 1372SOL    HW1 4251   2.098   1.123   2.559 -0.6526  0.8102 -1.4831
 1372SOL    HW2 4252   2.173   0.992   2.546  0.6685  1.0656  2.3832
 1373SOL     OW 4253   0.680   3.125   2.313  1.1284 -1.1257  0.3513
 1373SOL    HW1 4254   0.628   3.136   2.233 -2.3261 -1.0193  2.4219
 1373SOL    HW2 4255   0.747   3.192   2.307 -0.5880  0.5871 -1.3324
 1374SOL     OW 4256   3.704   2.707   2.795 -1.0773 -0.4532  0.0412
 1374SOL    HW1 4257   3.617   2.676   2.772 -1.8795  1.0729  0.8358
 1374SOL    HW2 4258   3.706   2.798   2.764  1.0334 -1.0693 -1.8973
 1375SOL     OW 4259   0.734   0.353   1.492 -0.0471 -0.0333  0.0617
 1375SOL    HW1 4260   0.732   0.302   1.411  0.1338 -2.5353  1.5463
 1375SOL    HW2 4261   0.746   0.444   1.463 -0.9322 -0.7138 -2.7322
 1376SOL     OW 4262   3.664   0.036   3.536 -0.1197 -0.6226  0.1315
 1376SOL    HW1 4263   3.666   0.113   3.594  1.2334 -0.6696  0.1895
 1376SOL    HW2 4264   3.753   0.031   3.501 -0.1673 -2.1985  0.1663
 1377SOL     OW 4265   1.717   2.405   1.773 -0.4125 -0.1226  0.0538
 1377SOL    HW1 4266   1.719   2.339   1.842  0.3880 -0.0949  0.0672
 1377SOL    HW2 4267   1.682   2.360   1.697 -0.8268 -0.2872  0.3386
 1378SOL     OW 4268   0.949   2.300   0.441 -0.3028  0.3361  0.7846
 1378SOL    HW1 4269   0.972   2.319   0.350  0.6914  1.2088  1.1986
 1378SOL    HW2 4270   0.874   2.240   0.434  0.1076 -0.0783 -0.6042
 1379SOL     OW 4271   2.321   3.274   1.541 -0.0472  0.3116 -0.3825
 1379SOL    HW1 4272   2.378   3.197   1.545 -1.6231 -1.1313 -3.0955
 1379SOL    HW2 4273   2.360   3.329   1.473 -0.5779  0.4651 -0.5654
 1380SOL     OW 4274   2.610   1.188   1.349  0.4822 -0.0689 -0.0952
 1380SOL    HW1 4275   2.674   1.258   1.359 -0.1255  0.9201 -2.4810
 1380SOL    HW2 4276   2.641   1.138   1.274 -0.6119 -0.6272 -0.1911
 1381SOL     OW 4277   0.033   1.604   1.932  0.5454  0.5354  0.4962
 1381SOL    HW1 4278  -0.016   1.656   1.867 -0.3031 -1.5330 -0.6103
 1381SOL    HW2 4279   0.113   1.578   1.886  0.1115 -0.6327  0.3672
 1382SOL     OW 4280   3.606   0.280   1.606  0.0015  0.4653  0.8353
 1382SOL    HW1 4281   3.659   0.224   1.549  0.2348  0.8730  0.6480
 1382SOL    HW2 4282   3.519   0.240   1.604  0.4649 -0.6585  1.7620
 1383SOL     OW 4283   1.540   2.481   2.706 -0.4936 -0.0751 -0.2919
 1383SOL    HW1 4284   1.548   2.423   2.630  1.3429  0.5027 -0.5764
 1383SOL    HW2 4285   1.585   2.435   2.776  1.9124  1.3848 -0.7841
 1384SOL     OW 4286   0.812   1.066   1.134  0.4137 -0.3307 -0.1219
 1384SOL    HW1 4287   0.869   1.043   1.060 -0.3150  0.8315 -1.0834
 1384SOL    HW2 4288   0.872   1.093   1.203  1.1260 -1.7467 -0.1487
 1385SOL     OW 4289   0.023   1.755   0.261  0.1165  0.1670 -0.0811
 1385SOL    HW1 4290   0.061   1.843   0.266 -2.4258  1.3502  0.2748
 1385SOL    HW2 4291   0.045   1.715   0.346  2.0597  0.0523 -0.5881
 1386SOL     OW 4292   0.320   3.511   2.292  0.5902  0.3560 -0.6288
 1386SOL    HW1 4293   0.262   3.587   2.282 -0.5653  0.2884  3.6295
 1386SOL    HW2 4294   0.398   3.546   2.334  0.9976 -0.4765 -0.6734
 1387SOL     OW 4295   3.348   3.651   3.233  0.2702 -0.1408 -0.5182
 1387SOL    HW1 4296   3.318   3.575   3.283  1.3164 -2.0355 -2.6279
 1387SOL    HW2 4297   3.378   3.713   3.299 -2.2750 -0.7563  1.3633
 1388SOL     OW 4298   0.082   2.821   0.421  0.4049 -0.1652  0.3820
 1388SOL    HW1 4299   0.127   2.794   0.501  1.9888  1.4650  0.0924
 1388SOL    HW2 4300   0.005   2.869   0.452 -2.0046 -3.8921  0.8955
 1389SOL     OW 4301   3.305   1.772   1.501  0.1620  0.6415 -0.9822
 1389SOL    HW1 4302   3.307   1.741   1.591 -0.1484 -1.2246 -1.5766
 1389SOL    HW2 4303   3.265   1.859   1.506 -1.2588 -0.0598  0.5040
 1390SOL     OW 4304   3.260   2.401   1.760 -0.1467  0.2105  0.3463
 1390SOL    HW1 4305   3.270   2.401   1.665 -0.5817  3.2324  0.1953
 1390SOL    HW2 4306   3.180   2.351   1.776  0.0515 -0.5140 -0.8375
 1391SOL     OW 4307   2.565   1.337   1.015 -0.2090 -0.2280  0.3076
 1391SOL    HW1 4308   2.574   1.394   0.938 -2.3873 -0.2150 -0.0064
 1391SOL    HW2 4309   2.562   1.396   1.089 -1.1616  0.0153  0.0945
 1392SOL     OW 4310   1.147   2.111   0.491  1.0506 -0.2218 -0.2639
 1392SOL    HW1 4311   1.057   2.078   0.483  0.1534  2.1398 -0.6613
 1392SOL    HW2 4312   1.137   2.205   0.506  3.4682  0.0401  0.0855
 1393SOL     OW 4313   0.099   1.623   0.051  0.1378  0.8415  0.2453
 1393SOL    HW1 4314   0.044   1.673   0.111  0.0022 -0.2955  1.1012
 1393SOL    HW2 4315   0.184   1.620   0.094  0.1635  0.4137  0.1654
 1394SOL     OW 4316   2.344   1.009   0.605  0.2312  0.4201  0.2663
 1394SOL    HW1 4317   2.433   0.973   0.601  0.1555  0.0197  1.6734
 1394SOL    HW2 4318   2.356   1.104   0.601  0.7243  0.3687  0.4460
 1395SOL     OW 4319   1.529   0.182   1.816 -0.4259 -0.1788  0.0017
 1395SOL    HW1 4320   1.592   0.164   1.886  1.7863  1.8954 -1.2941
 1395SOL    HW2 4321   1.524   0.101   1.766  1.7780 -0.2287 -0.2309
 1396SOL     OW 4322   3.164   3.465   2.184  0.4547 -0.4937  0.1256
 1396SOL    HW1 4323   3.073   3.495   2.189 -0.1381 -1.6309 -2.3344
 1396SOL    HW2 4324   3.214   3.544   2.162 -0.1833 -0.1521 -0.1351
 1397SOL     OW 4325   2.530   0.600   2.293  0.2120  1.1450  0.2146
 1397SOL    HW1 4326   2.585   0.524   2.311  0.2859  0.2136 -3.2744
 1397SOL    HW2 4327   2.580   0.652   2.230  0.0698  4.0913  2.3215
 1398SOL     OW 4328   3.045   2.718   3.397 -0.0689 -0.2228  0.3068
 1398SOL    HW1 4329   3.126   2.677   3.428 -0.9777 -1.7714  0.7681
 1398SOL    HW2 4330   2.992   2.728   3.477 -0.1650  1.1906  0.0789
 1399SOL     OW 4331   3.322   1.798   0.792 -0.2701  0.1053  0.1742
 1399SOL    HW1 4332   3.227   1.794   0.782 -0.4134  1.1180  0.8542
 1399SOL    HW2 4333   3.357   1.775   0.706 -1.0665 -1.9655  0.3612
 1400SOL     OW 4334   2.593   2.115   1.533 -0.7536 -1.1977  0.1136
 1400SOL    HW1 4335   2.516   2.156   1.494  0.1598  0.3349 -0.1641
 1400SOL    HW2 4336   2.655   2.186   1.545  0.6018 -2.3751  0.4199
 1401SOL     OW 4337   1.667   2.053   0.885 -0.1071 -0.4253  0.1257
 1401SOL    HW1 4338   1.696   2.138   0.917  0.0940 -0.2243 -0.5769
 1401SOL    HW2 4339   1.572   2.054   0.897 -0.1826  0.1616 -0.4948
 1402SOL     OW 4340   1.870   1.846   1.421  0.7227  0.6373  0.0618
 1402SOL    HW1 4341   1.909   1.901   1.353 -1.3668 -0.1573 -1.9582
 1402SOL    HW2 4342   1.931   1.772   1.429 -0.0031 -0.4477 -2.7993
 1403SOL     OW 4343   2.873   0.583   1.936  0.0958 -0.1034 -0.5110
 1403SOL    HW1 4344   2.922   0.525   1.878  1.6080  0.1389  0.4657
 1403SOL    HW2 4345   2.783   0.579   1.903  0.2548 -2.5136 -0.8521
 1404SOL     OW 4346   0.684   3.126   0.262  0.3640 -0.9317  0.6875
 1404SOL    HW1 4347   0.657   3.166   0.344 -2.2020 -2.8396  0.9211
 1404SOL    HW2 4348   0.667   3.193   0.195 -1.3108 -0.6651  1.3308
 1405SOL     OW 4349   3.055   3.701   0.939  0.1946  0.2759 -0.2456
 1405SOL    HW1 4350   3.084   3.750   1.016  1.3657  1.4886 -1.3949
 1405SOL    HW2 4351   3.099   3.744   0.865 -0.0638 -1.4887 -1.4952
 1406SOL     OW 4352   0.393   2.674   2.129  0.1035 -0.2299 -0.4626
 1406SOL    HW1 4353   0.306   2.644   2.158 -0.2002  2.0688  1.2397
 1406SOL    HW2 4354   0.454   2.614   2.172 -0.5625 -1.2417 -0.8697
 1407SOL     OW 4355   3.439   3.608   1.805  0.0066  0.2767 -0.4253
 1407SOL    HW1 4356   3.517   3.648   1.844  1.0920 -0.7961 -1.4182
 1407SOL    HW2 4357   3.388   3.682   1.773  0.9866  0.9689 -0.4491
 1408SOL     OW 4358   2.049   3.705   0.928 -0.3213 -0.2628 -0.1818
 1408SOL    HW1 4359   2.014   3.751   0.852 -1.0154 -0.8139 -0.2078
 1408SOL    HW2 4360   2.137   3.740   0.939  0.2738 -1.0372 -2.0036
 1409SOL     OW 4361   0.901   0.699   3.539 -0.3421 -0.2119  1.0474
 1409SOL    HW1 4362   0.888   0.604   3.547  2.2095 -0.7541 -0.2962
 1409SOL    HW2 4363   0.984   0.716   3.584 -0.5993  1.3353  0.9770
 1410SOL     OW 4364   1.351   2.908   2.821  0.4535 -0.1768  0.5751
 1410SOL    HW1 4365   1.333   2.818   2.793  0.8872 -0.3015  0.6789
 1410SOL    HW2 4366   1.283   2.928   2.885  1.1186 -0.9075  1.5375
 1411SOL     OW 4367   0.942   0.499   0.119  0.7361  0.2388 -0.3785
 1411SOL    HW1 4368   0.927   0.572   0.179  0.9280 -0.2283  0.2407
 1411SOL    HW2 4369   0.854   0.465   0.100  0.6860  0.3004 -0.2580
 1412SOL     OW 4370   2.175   1.428   2.999  0.0408  0.7491  0.4295
 1412SOL    HW1 4371   2.080   1.429   2.988  0.0707  0.1754  0.1317
 1412SOL    HW2 4372   2.187   1.437   3.094 -0.2753  2.0031  0.3780
 1413SOL     OW 4373   2.552   2.122   3.449  0.1214  0.4051 -0.0851
 1413SOL    HW1 4374   2.645   2.113   3.468  0.2533 -5.9029 -1.5198
 1413SOL    HW2 4375   2.508   2.102   3.531  0.3251 -2.3605 -0.5471
 1414SOL     OW 4376   3.176   1.609   3.077  0.3257  0.2309 -0.3760
 1414SOL    HW1 4377   3.107   1.662   3.036 -0.4597 -1.4414 -1.3155
 1414SOL    HW2 4378   3.185   1.646   3.165  0.6608  2.6561 -1.3564
 1415SOL     OW 4379   3.343   3.368   3.149 -0.0115 -0.0500 -0.7087
 1415SOL    HW1 4380   3.438   3.381   3.143  0.1747 -1.5947 -1.6566
 1415SOL    HW2 4381   3.325   3.372   3.242  0.7056  1.8592 -0.5912
 1416SOL     OW 4382   2.456   1.139   2.811  0.9621  0.2131 -0.8148
 1416SOL    HW1 4383   2.487   1.060   2.767 -2.4655 -1.9378  0.2162
 1416SOL    HW2 4384   2.498   1.137   2.897  0.3661 -0.9571 -0.5318
 1417SOL     OW 4385   1.207   0.602   3.522 -0.5376  0.6001  0.3006
 1417SOL    HW1 4386   1.183   0.666   3.588 -0.6151  1.9640 -1.0027
 1417SOL    HW2 4387   1.288   0.563   3.555  0.7186  2.9257  0.1407
 1418SOL     OW 4388   1.601   2.539   2.047 -0.0613  0.0244 -0.0876
 1418SOL    HW1 4389   1.552   2.576   2.120 -0.0183 -1.1089  0.5491
 1418SOL    HW2 4390   1.538   2.531   1.976  0.0832  1.8881 -0.4836
 1419SOL     OW 4391   0.810   2.066   2.348 -0.1153 -0.3513 -0.2819
 1419SOL    HW1 4392   0.798   2.130   2.277 -5.0442  3.0886  2.9840
 1419SOL    HW2 4393   0.904   2.072   2.369  0.2710  3.8943 -2.0181
 1420SOL     OW 4394   1.509   0.739   0.432 -0.3433  0.1387 -0.2761
 1420SOL    HW1 4395   1.531   0.750   0.339 -0.7413 -0.1759 -0.4082
 1420SOL    HW2 4396   1.415   0.725   0.434 -0.4738  1.0221  0.2597
 1421SOL     OW 4397   0.610   1.102   0.899 -0.0896  0.1411 -0.0044
 1421SOL    HW1 4398   0.659   1.181   0.878 -1.5455  1.3286  0.9068
 1421SOL    HW2 4399   0.644   1.074   0.984 -0.4557  0.5299  0.2725
 1422SOL     OW 4400   3.027   2.129   0.343 -0.0213  0.3765  0.1194
 1422SOL    HW1 4401   3.011   2.185   0.419 -1.9028  2.1074 -1.4416
 1422SOL    HW2 4402   3.121   2.140   0.324  0.1386  1.1065  1.2779
 1423SOL     OW 4403   1.458   3.347   2.468  0.0806 -0.0348 -0.3609
 1423SOL    HW1 4404   1.544   3.338   2.510 -0.5930  0.0663  1.1072
 1423SOL    HW2 4405   1.467   3.301   2.385  1.2723 -0.8548  0.1906
 1424SOL     OW 4406   1.643   2.930   3.101  0.1211 -0.0770  0.1005
 1424SOL    HW1 4407   1.626   2.846   3.059 -0.7090  0.8016 -1.4131
 1424SOL    HW2 4408   1.729   2.920   3.142  1.6029 -0.6273 -2.8690
 1425SOL     OW 4409   1.092   3.476   2.548 -0.3048  0.2768  0.0831
 1425SOL    HW1 4410   1.130   3.439   2.468 -2.2800  0.2619 -0.9004
 1425SOL    HW2 4411   1.162   3.531   2.585  0.8552 -0.2140 -1.3077
 1426SOL     OW 4412   2.733   3.399   3.406  0.6974  0.0626  0.1985
 1426SOL    HW1 4413   2.639   3.385   3.414  0.9130 -1.1190  0.8636
 1426SOL    HW2 4414   2.749   3.398   3.311  0.1621 -0.7009  0.1044
 1427SOL     OW 4415   1.264   1.929   3.673  0.3085 -0.6304 -0.1425
 1427SOL    HW1 4416   1.247   1.874   3.749 -4.6654  1.3526  0.5579
 1427SOL    HW2 4417   1.333   1.988   3.701 -0.8622 -0.4532  2.6655
 1428SOL     OW 4418   0.833   1.207   1.375  0.3333  0.6791 -0.2845
 1428SOL    HW1 4419   0.916   1.162   1.384 -0.2268 -0.1645  0.8448
 1428SOL    HW2 4420   0.792   1.201   1.461 -1.4691 -0.0841 -1.1325
 1429SOL     OW 4421   3.333   1.476   0.157 -0.6093 -0.1482 -0.1673
 1429SOL    HW1 4422   3.357   1.528   0.080  0.2779  0.0312  0.2158
 1429SOL    HW2 4423   3.326   1.540   0.228  1.6824 -0.6174  0.5810
 1430SOL     OW 4424   0.942   3.612   1.953  0.1193  0.1202 -0.1879
 1430SOL    HW1 4425   0.869   3.672   1.969  0.4848 -0.0228  2.4927
 1430SOL    HW2 4426   0.913   3.557   1.880 -1.8712  0.9466 -0.0699
 1431SOL     OW 4427   3.497   1.333   3.032  0.1998 -0.3913 -0.0748
 1431SOL    HW1 4428   3.491   1.262   3.096 -0.3840 -1.0511 -0.8496
 1431SOL    HW2 4429   3.472   1.411   3.081  4.2237 -0.0183  1.8002
 1432SOL     OW 4430   2.142   0.552   3.102  0.0484 -0.1912  0.2854
 1432SOL    HW1 4431   2.104   0.605   3.033  0.1913  0.0028  0.3519
 1432SOL    HW2 4432   2.167   0.615   3.170  1.0727 -0.2370 -0.0305
 1433SOL     OW 4433   3.161   2.299   3.032  0.2101 -0.5309 -0.0749
 1433SOL    HW1 4434   3.125   2.377   3.073 -0.7653 -1.2195  0.4129
 1433SOL    HW2 4435   3.225   2.266   3.095  1.4971  0.4877 -0.7837
 1434SOL     OW 4436   3.430   2.646   0.668  0.0845  0.3334 -0.7534
 1434SOL    HW1 4437   3.458   2.687   0.750 -1.9944 -1.0248  0.7189
 1434SOL    HW2 4438   3.440   2.552   0.683 -2.6926 -0.0952 -1.0592
 1435SOL     OW 4439   2.700   0.263   2.628  0.3369  0.4439  0.3347
 1435SOL    HW1 4440   2.734   0.273   2.539 -1.8840  3.1493 -0.3217
 1435SOL    HW2 4441   2.671   0.350   2.653 -1.5097 -0.7453  2.7397
 1436SOL     OW 4442   2.253   1.068   3.621 -0.0286 -0.6542  0.7648
 1436SOL    HW1 4443   2.184   1.074   3.555 -0.2428  0.4309  1.0612
 1436SOL    HW2 4444   2.221   1.004   3.684 -0.3158 -0.8888  0.3822
 1437SOL     OW 4445   1.975   0.348   3.180  0.2162  0.8656  0.2018
 1437SOL    HW1 4446   2.030   0.424   3.160 -0.9074  1.9938  1.2509
 1437SOL    HW2 4447   1.914   0.379   3.246 -1.3849 -0.4861 -0.5587
 1438SOL     OW 4448   2.754   2.548   2.702  0.3749  0.2475  0.5794
 1438SOL    HW1 4449   2.728   2.504   2.621 -1.0571 -0.5734  1.4478
 1438SOL    HW2 4450   2.814   2.617   2.674 -1.1745  0.8921 -1.3290
 1439SOL     OW 4451   0.797   2.993   2.652 -0.1967  0.0353 -0.6931
 1439SOL    HW1 4452   0.854   3.070   2.643  1.0102 -0.9999 -2.7866
 1439SOL    HW2 4453   0.850   2.930   2.703 -0.5027 -0.0208 -0.4415
 1440SOL     OW 4454   1.239   0.243   3.575  0.7933  0.2851  0.2985
 1440SOL    HW1 4455   1.193   0.187   3.512 -0.7110 -0.7943  2.2478
 1440SOL    HW2 4456   1.275   0.314   3.522 -0.4172 -0.5509 -1.7612
 1441SOL     OW 4457   3.320   1.885   1.867  0.8220 -0.1734 -0.2465
 1441SOL    HW1 4458   3.385   1.932   1.920  1.6947 -1.4487 -0.1314
 1441SOL    HW2 4459   3.300   1.945   1.796  1.8743  0.4089 -0.0785
 1442SOL     OW 4460   1.397   0.525   0.239 -0.2563  0.1416 -0.2444
 1442SOL    HW1 4461   1.321   0.482   0.201 -1.6820  2.0369  0.2735
 1442SOL    HW2 4462   1.386   0.617   0.214  0.2367  0.9742  2.3378
 1443SOL     OW 4463   3.009   1.827   2.465  0.0412  0.1840 -0.2859
 1443SOL    HW1 4464   2.981   1.903   2.415 -1.6240  0.8399  1.5215
 1443SOL    HW2 4465   3.020   1.758   2.399 -1.5863  1.1170 -1.6184
 1444SOL     OW 4466   1.281   3.441   0.443 -0.1264 -0.3024 -0.1693
 1444SOL    HW1 4467   1.226   3.439   0.521 -1.9410 -0.2680 -1.3837
 1444SOL    HW2 4468   1.335   3.363   0.450 -1.0183 -0.8714  0.6074
 1445SOL     OW 4469   1.058   1.702   2.239 -0.2327 -0.0760 -0.0693
 1445SOL    HW1 4470   1.140   1.707   2.190  0.3069  0.5392  0.8721
 1445SOL    HW2 4471   1.062   1.618   2.284 -0.7951 -0.7094 -1.1586
 1446SOL     OW 4472   3.146   3.114   0.374 -0.1565  0.9728 -0.1310
 1446SOL    HW1 4473   3.120   3.195   0.418 -1.9464  0.8434 -0.8345
 1446SOL    HW2 4474   3.177   3.057   0.444 -3.6276  0.4760  1.2125
 1447SOL     OW 4475   0.754   3.682   3.016 -0.1579  0.3943  0.7664
 1447SOL    HW1 4476   0.719   3.606   3.063  0.6033 -0.7202 -0.4013
 1447SOL    HW2 4477   0.680   3.716   2.966 -0.2520 -0.2269  0.4783
 1448SOL     OW 4478   0.746   3.181   1.483 -0.3227  0.3490 -0.6336
 1448SOL    HW1 4479   0.732   3.275   1.472  0.4850  0.6790  0.8384
 1448SOL    HW2 4480   0.736   3.167   1.578 -0.1531 -1.0013 -0.7981
 1449SOL     OW 4481   1.135   1.871   2.970  0.0928  0.4162  0.5898
 1449SOL    HW1 4482   1.138   1.939   2.904 -1.0173  2.2709  2.3339
 1449SOL    HW2 4483   1.051   1.826   2.955  0.0906  0.4786  0.4142
 1450SOL     OW 4484   1.677   3.241   2.597  0.5864  0.1028  0.7323
 1450SOL    HW1 4485   1.691   3.194   2.679 -0.4742 -0.5140  0.5792
 1450SOL    HW2 4486   1.748   3.211   2.540 -0.1807 -1.5137  0.5690
 1451SOL     OW 4487   3.076   1.825   2.950  0.1634 -0.1117  0.1274
 1451SOL    HW1 4488   3.154   1.796   2.902  1.1439 -0.0952  1.6226
 1451SOL    HW2 4489   3.103   1.907   2.990 -0.7569  0.0701  0.3858
 1452SOL     OW 4490   0.482   0.681   0.905 -0.5199  0.3826  0.2442
 1452SOL    HW1 4491   0.454   0.627   0.831 -1.6800  0.9125  0.2807
 1452SOL    HW2 4492   0.552   0.736   0.869 -1.7503  1.3606 -0.7656
 1453SOL     OW 4493   0.175   0.362   2.132  0.1811 -0.1070  0.3377
 1453SOL    HW1 4494   0.271   0.366   2.128  0.2316 -1.1263  0.3125
 1453SOL    HW2 4495   0.148   0.453   2.148  1.0221  0.6662 -2.1418
 1454SOL     OW 4496  -0.019   2.315   2.324 -0.4156  0.4762 -0.4806
 1454SOL    HW1 4497  -0.037   2.372   2.249 -1.2060  1.9385  0.7705
 1454SOL    HW2 4498   0.067   2.342   2.354  0.8907 -1.5639 -2.0584
 1455SOL     OW 4499   1.529   1.934   0.146 -0.0720 -0.0482 -0.0591
 1455SOL    HW1 4500   1.477   2.009   0.174  0.9932  0.4398  0.6590
 1455SOL    HW2 4501   1.616   1.970   0.131  0.4519 -1.1507  0.2847
 1456SOL     OW 4502   2.719   2.809   0.952  0.8866  0.3064  0.0939
 1456SOL    HW1 4503   2.743   2.716   0.949  1.4556  0.4327  0.6458
 1456SOL    HW2 4504   2.793   2.852   0.994  0.1832  0.8666  0.7918
 1457SOL     OW 4505   2.727   0.549   2.944  0.2304  0.0264  0.3968
 1457SOL    HW1 4506   2.783   0.523   3.017 -1.5592  0.4146  1.9754
 1457SOL    HW2 4507   2.641   0.562   2.983 -0.6819  0.7389 -1.7135
 1458SOL     OW 4508   0.041   3.660   2.632 -0.0369  0.1943 -0.1196
 1458SOL    HW1 4509   0.121   3.644   2.682 -1.2322 -2.1599  1.1964
 1458SOL    HW2 4510   0.066   3.726   2.567  2.8932 -0.3230  0.3598
 1459SOL     OW 4511   3.108   3.363   0.217  0.0020  0.1952  0.7701
 1459SOL    HW1 4512   3.060   3.289   0.255 -0.7090  0.7578  0.9726
 1459SOL    HW2 4513   3.152   3.404   0.292 -0.6285  0.7320  0.8520
 1460SOL     OW 4514   1.882   0.737   3.523  0.0142  0.1384  0.0286
 1460SOL    HW1 4515   1.867   0.827   3.552  2.5640  0.4611  0.5830
 1460SOL    HW2 4516   1.942   0.746   3.448  1.5202 -1.1089  1.0176
 1461SOL     OW 4517   0.287   1.424   1.859 -0.0021  0.9643  0.8063
 1461SOL    HW1 4518   0.358   1.487   1.871  2.4559 -1.6024  0.6954
 1461SOL    HW2 4519   0.297   1.364   1.933 -1.9106  0.3478  0.6029
 1462SOL     OW 4520   3.597   3.755   0.622  0.3278 -0.6944 -0.1064
 1462SOL    HW1 4521   3.639   3.689   0.677 -2.0317 -1.4805  0.8889
 1462SOL    HW2 4522   3.520   3.710   0.586  1.2573  0.0487 -3.3968
 1463SOL     OW 4523   1.248   2.571   0.190 -0.2567  0.1807  0.1790
 1463SOL    HW1 4524   1.258   2.662   0.220  0.6417  0.2688 -0.3307
 1463SOL    HW2 4525   1.262   2.576   0.096 -0.4586 -0.4531  0.1143
 1464SOL     OW 4526   0.492   1.344   0.260  0.3280 -0.3141 -0.3128
 1464SOL    HW1 4527   0.463   1.258   0.230 -0.7784  0.4054 -1.4386
 1464SOL    HW2 4528   0.530   1.384   0.181 -0.6967  0.8300 -0.2633
 1465SOL     OW 4529   3.728   1.410   3.544  0.1545  0.0421 -0.0083
 1465SOL    HW1 4530   3.720   1.347   3.472  0.3625 -0.0792  0.0760
 1465SOL    HW2 4531   3.700   1.361   3.621  0.3550  0.0412  0.0634
 1466SOL     OW 4532   2.599   1.888   0.851 -0.1260 -0.2451 -0.1403
 1466SOL    HW1 4533   2.673   1.933   0.891  1.6384 -0.6179 -2.7325
 1466SOL    HW2 4534   2.577   1.942   0.775 -2.0930 -0.5508  0.1565
 1467SOL     OW 4535   2.891   2.128   1.161 -0.3765  0.1189  0.2682
 1467SOL    HW1 4536   2.961   2.192   1.152  1.3835 -1.9150 -1.6706
 1467SOL    HW2 4537   2.813   2.173   1.128  0.2355  2.0064  1.2822
 1468SOL     OW 4538   1.550   1.268   1.685  0.0163  0.0282  0.0048
 1468SOL    HW1 4539   1.614   1.311   1.628 -0.3785 -0.0354 -0.4909
 1468SOL    HW2 4540   1.591   1.184   1.708  0.0596 -0.0707 -0.4183
 1469SOL     OW 4541   3.458   1.170   2.288 -0.4927 -0.7628  0.3652
 1469SOL    HW1 4542   3.401   1.230   2.337 -1.9560 -0.8504 -1.1619
 1469SOL    HW2 4543   3.428   1.176   2.198  1.9819 -0.7807 -0.5477
 1470SOL     OW 4544   1.993   0.158   2.947  0.6742  0.2963 -0.8403
 1470SOL    HW1 4545   2.021   0.235   2.897  0.3896 -0.3935 -2.1062
 1470SOL    HW2 4546   2.017   0.178   3.037  2.3041  1.0774 -1.4140
 1471SOL     OW 4547   2.959   2.472   1.719 -0.0240 -0.0194 -0.0166
 1471SOL    HW1 4548   2.996   2.478   1.807  1.3817  0.0675 -0.5857
 1471SOL    HW2 4549   2.951   2.378   1.703  0.0550 -0.0421  0.0734
 1472SOL     OW 4550   3.473   0.688   1.499  0.0615 -0.2518  0.4018
 1472SOL    HW1 4551   3.557   0.649   1.475  0.5088  1.9563 -1.9094
 1472SOL    HW2 4552   3.487   0.782   1.495 -1.4629  0.3314  4.1045
 1473SOL     OW 4553   3.581   3.528   0.136 -0.4469 -0.0893  0.2087
 1473SOL    HW1 4554   3.533   3.454   0.100 -0.5663 -0.9983  2.1024
 1473SOL    HW2 4555   3.513   3.591   0.160 -0.5667 -0.4665  0.9072
 1474SOL     OW 4556   1.499   1.107   2.978 -0.0893  0.3868  0.3756
 1474SOL    HW1 4557   1.562   1.131   3.045 -0.6341  1.5112  0.5143
 1474SOL    HW2 4558   1.537   1.139   2.896 -0.1029  0.3317  0.3474
 1475SOL     OW 4559   1.438   0.927   2.020  0.2627 -0.8107  0.2468
 1475SOL    HW1 4560   1.397   0.853   2.065  1.4286 -0.7826  1.3704
 1475SOL    HW2 4561   1.367   0.991   2.010 -0.9571 -2.3238 -1.4025
 1476SOL     OW 4562   0.086   0.604   2.714  0.1018  0.2660 -0.1946
 1476SOL    HW1 4563   0.035   0.673   2.756 -0.5308  0.5960 -1.4687
 1476SOL    HW2 4564   0.104   0.541   2.784 -1.1208  0.6751  0.5051
 1477SOL     OW 4565   0.424   2.610   3.377  0.0774 -0.0844 -0.3637
 1477SOL    HW1 4566   0.391   2.521   3.374  1.2040 -0.5285 -0.1001
 1477SOL    HW2 4567   0.435   2.634   3.285  1.2824 -0.8172 -0.4305
 1478SOL     OW 4568   0.971   3.646   3.594 -0.3184 -0.0796 -0.3409
 1478SOL    HW1 4569   0.914   3.704   3.544  1.1792  0.4909 -1.4523
 1478SOL    HW2 4570   0.916   3.614   3.666 -2.0266  0.3903 -1.3951
 1479SOL     OW 4571   2.023   3.148   2.965  0.0868  0.2843  0.2891
 1479SOL    HW1 4572   2.055   3.087   3.032 -1.2158  0.2733  0.9322
 1479SOL    HW2 4573   2.016   3.095   2.885  1.0573  0.1468  0.2805
 1480SOL     OW 4574   1.321   1.099   1.692  0.1534 -0.3691 -0.3897
 1480SOL    HW1 4575   1.266   1.085   1.769 -0.0538 -1.5473 -0.7336
 1480SOL    HW2 4576   1.376   1.174   1.716  0.7372 -1.2739  1.2606
 1481SOL     OW 4577   2.560   1.220   0.388  0.5316  0.6377 -0.3322
 1481SOL    HW1 4578   2.600   1.243   0.472  0.8841 -0.6498 -0.1148
 1481SOL    HW2 4579   2.478   1.268   0.386  1.3921  2.1600 -0.1023
 1482SOL     OW 4580   2.035   2.897   3.148  0.3670 -0.4821  0.5347
 1482SOL    HW1 4581   1.960   2.838   3.164 -0.0354  0.0817  0.7460
 1482SOL    HW2 4582   2.095   2.845   3.095 -1.5341  0.0348 -2.3191
 1483SOL     OW 4583   3.713   2.378   2.809  0.4802  0.1741 -0.0918
 1483SOL    HW1 4584   3.746   2.455   2.855 -0.3860  0.3500  0.2559
 1483SOL    HW2 4585   3.669   2.413   2.731 -1.2750  0.1883  0.8574
 1484SOL     OW 4586   2.640   0.265   3.405  0.4851 -0.2099  0.2591
 1484SOL    HW1 4587   2.686   0.186   3.376 -1.1646 -0.6845 -1.2137
 1484SOL    HW2 4588   2.636   0.256   3.501  0.8652 -1.6055  0.1663
 1485SOL     OW 4589   2.412   2.333   3.141 -0.1136  0.3562  0.6692
 1485SOL    HW1 4590   2.472   2.384   3.195  0.2552  1.1795 -0.4726
 1485SOL    HW2 4591   2.338   2.392   3.125 -0.0718  0.2437  0.0340
 1486SOL     OW 4592   1.617   2.876   2.110  0.2965 -0.2711 -0.5103
 1486SOL    HW1 4593   1.584   2.849   2.196 -1.4294  3.8336  0.3532
 1486SOL    HW2 4594   1.553   2.842   2.048 -1.2034  0.7935  0.3875
 1487SOL     OW 4595   2.560   3.203   3.031 -0.1427 -0.0694 -0.5975
 1487SOL    HW1 4596   2.528   3.293   3.043  1.9824  0.7320 -0.5110
 1487SOL    HW2 4597   2.599   3.203   2.944 -2.8922 -1.8698 -1.9729
 1488SOL     OW 4598   1.293   1.194   2.773 -0.4403  0.4169  0.1175
 1488SOL    HW1 4599   1.307   1.250   2.849 -0.1866 -0.0212  0.4049
 1488SOL    HW2 4600   1.375   1.145   2.765 -0.4471  0.4920 -0.4687
 1489SOL     OW 4601   2.128   2.895   2.062 -0.3837 -0.2864  0.3527
 1489SOL    HW1 4602   2.053   2.949   2.088  0.2259  0.1246  1.3210
 1489SOL    HW2 4603   2.136   2.830   2.132  0.7743  0.3223  0.8279
 1490SOL     OW 4604   2.108   2.847   0.337  0.0513 -0.4948  0.0867
 1490SOL    HW1 4605   2.043   2.890   0.282 -0.1199  0.9936  1.3538
 1490SOL    HW2 4606   2.058   2.783   0.388 -0.1856 -0.3225  0.0743
 1491SOL     OW 4607   2.365   1.183   3.138 -0.0259  0.4661 -0.2060
 1491SOL    HW1 4608   2.445   1.163   3.090 -0.4884  0.6192 -1.0626
 1491SOL    HW2 4609   2.366   1.124   3.213  0.1223 -0.6387 -1.0554
 1492SOL     OW 4610   0.527   1.054   3.649  0.8305 -0.1615  0.0872
 1492SOL    HW1 4611   0.556   0.981   3.594 -0.2532  0.8159 -1.8631
 1492SOL    HW2 4612   0.485   1.115   3.589 -1.2460  0.5678  2.1387
 1493SOL     OW 4613   2.929   0.938   0.325  0.3439  0.5495 -0.1419
 1493SOL    HW1 4614   3.015   0.921   0.363  0.8366  0.7535 -1.1229
 1493SOL    HW2 4615   2.898   1.017   0.369 -0.7362 -1.2031  2.4472
 1494SOL     OW 4616   3.709   1.571   0.749 -0.9205 -0.0842  0.1439
 1494SOL    HW1 4617   3.672   1.585   0.836  1.1755  0.7161  0.9927
 1494SOL    HW2 4618   3.757   1.489   0.756  0.1326  0.5058  0.0993
 1495SOL     OW 4619   0.609   2.113   0.957 -0.0710 -0.3436 -0.6010
 1495SOL    HW1 4620   0.579   2.197   0.921 -3.2219 -0.0920  2.0871
 1495SOL    HW2 4621   0.665   2.138   1.030  1.3444 -0.7186 -1.5199
 1496SOL     OW 4622   0.795   0.129   0.111  0.2664  0.4266  0.6184
 1496SOL    HW1 4623   0.850   0.122   0.189  0.7866  0.9468  0.3116
 1496SOL    HW2 4624   0.853   0.167   0.045 -0.3917  0.7400  0.2114
 1497SOL     OW 4625   2.626   0.128   0.436 -0.0087 -0.3913 -0.3850
 1497SOL    HW1 4626   2.684   0.064   0.477  2.5792  1.0944 -1.5311
 1497SOL    HW2 4627   2.676   0.163   0.363 -1.9540  1.8154 -0.7827
 1498SOL     OW 4628   0.171   3.213   1.281 -0.2878 -0.8832  0.3992
 1498SOL    HW1 4629   0.090   3.223   1.230  0.4152  1.5115 -0.3484
 1498SOL    HW2 4630   0.150   3.251   1.366  0.3528  0.8227 -0.1760
 1499SOL     OW 4631   2.373   1.603   2.927 -0.1444  0.0299  0.0376
 1499SOL    HW1 4632   2.313   1.536   2.961 -0.3299 -0.0001 -0.3472
 1499SOL    HW2 4633   2.433   1.620   3.000  1.0849 -1.9203 -0.4459
 1500SOL     OW 4634   0.224   2.416   2.492  0.7482  0.5852 -0.0611
 1500SOL    HW1 4635   0.213   2.321   2.493 -2.1741  0.8464  0.7187
 1500SOL    HW2 4636   0.241   2.440   2.583  0.9071  0.8806 -0.1647
 1501SOL     OW 4637   2.319   2.184   2.782  0.3875 -0.3026 -0.4199
 1501SOL    HW1 4638   2.354   2.102   2.746  0.6168  0.5466 -2.2272
 1501SOL    HW2 4639   2.395   2.229   2.817  0.4043 -0.4287 -0.2908
 1502SOL     OW 4640   0.407   1.264   3.513  0.0859  0.2241  0.1144
 1502SOL    HW1 4641   0.355   1.267   3.433 -0.5331 -0.2150  0.4909
 1502SOL    HW2 4642   0.490   1.305   3.489 -0.2887  0.5864 -0.6006
 1503SOL     OW 4643   1.705   2.902   3.560  0.4539  0.1831  0.1126
 1503SOL    HW1 4644   1.722   2.995   3.571 -1.8417  0.5701  1.0898
 1503SOL    HW2 4645   1.613   2.898   3.534  0.9714 -1.7553 -1.6654
 1504SOL     OW 4646   3.097   2.471   2.139  0.2732  0.0171  0.0205
 1504SOL    HW1 4647   3.104   2.417   2.060  2.0141  1.0764 -0.6256
 1504SOL    HW2 4648   3.175   2.526   2.136 -0.4911  1.2550  1.6228
 1505SOL     OW 4649   2.634   2.605   1.733  0.5077  0.2163 -0.1679
 1505SOL    HW1 4650   2.679   2.649   1.661 -0.3088  1.4458  0.0416
 1505SOL    HW2 4651   2.542   2.606   1.709  0.2630  0.3226  0.7342
 1506SOL     OW 4652   2.851   2.650   3.070  0.3271 -0.4543  0.1839
 1506SOL    HW1 4653   2.755   2.650   3.063  0.3424  0.0738 -0.0579
 1506SOL    HW2 4654   2.880   2.594   2.997  0.2512  0.4793 -0.5865
 1507SOL     OW 4655   0.145   1.917   2.077  0.0029 -0.1073 -0.6341
 1507SOL    HW1 4656   0.130   1.844   2.137 -0.4461  0.6318  0.1675
 1507SOL    HW2 4657   0.180   1.875   1.998 -1.4703 -1.3568 -0.6886
 1508SOL     OW 4658   0.871   3.662   2.542 -0.6875 -0.9796 -0.8816
 1508SOL    HW1 4659   0.857   3.724   2.614 -2.2479  0.4400 -2.3264
 1508SOL    HW2 4660   0.942   3.605   2.573 -2.2286 -1.3673  2.3438
 1509SOL     OW 4661   1.744   0.974   2.425 -0.3156  0.1191  1.2183
 1509SOL    HW1 4662   1.772   1.063   2.447  0.1932  0.2707 -0.0025
 1509SOL    HW2 4663   1.783   0.956   2.340  0.4810 -1.6712  1.8977
 1510SOL     OW 4664   2.620   1.771   3.496 -0.8514 -0.1264  0.0953
 1510SOL    HW1 4665   2.622   1.777   3.400 -0.4204 -1.0434  0.0336
 1510SOL    HW2 4666   2.537   1.728   3.516 -2.3797  2.6921  0.3425
 1511SOL     OW 4667   0.318   0.616   0.427  0.7567 -0.8162 -0.2382
 1511SOL    HW1 4668   0.248   0.556   0.455  1.0389 -1.7926 -1.5768
 1511SOL    HW2 4669   0.353   0.577   0.347  2.4672 -0.0331  0.0944
 1512SOL     OW 4670   3.488   1.888   0.576 -0.3681  0.8163 -0.4439
 1512SOL    HW1 4671   3.576   1.925   0.583 -1.2299  2.7607  1.3716
 1512SOL    HW2 4672   3.441   1.924   0.651 -1.9036 -2.5900  0.4171
 1513SOL     OW 4673   0.140   0.467   3.550 -0.4771  0.1059 -0.2503
 1513SOL    HW1 4674   0.182   0.418   3.479  1.1519 -1.6075  1.7811
 1513SOL    HW2 4675   0.167   0.557   3.536  2.6688 -0.6788  0.0145
 1514SOL     OW 4676   1.404   1.322   1.911 -0.2575 -0.8834 -0.5012
 1514SOL    HW1 4677   1.463   1.304   1.838 -1.7057 -0.4034 -1.8493
 1514SOL    HW2 4678   1.453   1.295   1.989  2.3016  0.7800 -1.3908
 1515SOL     OW 4679   3.330   1.479   1.997 -0.3274  0.2087  0.1679
 1515SOL    HW1 4680   3.403   1.432   2.036  0.2433  0.4388 -0.6015
 1515SOL    HW2 4681   3.371   1.542   1.937 -1.1264  0.7752  0.1935
 1516SOL     OW 4682   0.199   0.024   3.414 -0.1424 -0.0195 -0.0964
 1516SOL    HW1 4683   0.231   0.037   3.503  1.3897 -0.0038 -0.6142
 1516SOL    HW2 4684   0.241   0.094   3.363 -1.2144  0.1407 -0.7927
 1517SOL     OW 4685   0.561   1.855   0.283 -0.3731 -0.3603  0.2343
 1517SOL    HW1 4686   0.536   1.913   0.211 -0.1691 -0.1559  0.3267
 1517SOL    HW2 4687   0.643   1.891   0.316  1.0208 -2.0518 -1.2203
 1518SOL     OW 4688   0.227   0.003   0.714  0.1103  0.3351 -0.4601
 1518SOL    HW1 4689   0.243   0.096   0.730  1.6658  0.0629 -0.2554
 1518SOL    HW2 4690   0.215  -0.003   0.619 -2.4144  1.0299 -0.2612
 1519SOL     OW 4691   1.478   0.886   2.595 -0.4160 -0.0615  0.1484
 1519SOL    HW1 4692   1.554   0.937   2.624 -0.8963 -0.5871  2.5955
 1519SOL    HW2 4693   1.443   0.935   2.521  1.8054  0.6434 -0.5034
 1520SOL     OW 4694   0.602   3.183   0.825 -0.1903  0.0517 -1.0022
 1520SOL    HW1 4695   0.513   3.182   0.862  0.2728  1.1121  0.1947
 1520SOL    HW2 4696   0.653   3.234   0.887  1.3293 -0.7365 -1.5632
 1521SOL     OW 4697   1.965   2.570   0.176 -0.9643  0.2475  0.6126
 1521SOL    HW1 4698   1.891   2.627   0.156 -0.3672  0.1575 -2.2099
 1521SOL    HW2 4699   1.933   2.482   0.158  0.1018  0.2963 -1.8523
 1522SOL     OW 4700   3.347   0.647   2.077 -0.2585 -0.7712 -0.0356
 1522SOL    HW1 4701   3.350   0.674   1.985  1.8074  0.0668  0.2445
 1522SOL    HW2 4702   3.433   0.611   2.095 -0.0060  0.6901  2.0409
 1523SOL     OW 4703   1.886   3.695   3.504 -0.3083  0.7108 -0.6111
 1523SOL    HW1 4704   1.853   3.656   3.423 -0.0566  0.3591 -0.5476
 1523SOL    HW2 4705   1.811   3.696   3.563 -0.4225  0.7113 -0.7563
 1524SOL     OW 4706   3.251   2.399   2.748 -0.1598  0.4904  0.1499
 1524SOL    HW1 4707   3.332   2.349   2.738  0.3846  1.5073 -0.6556
 1524SOL    HW2 4708   3.243   2.413   2.843 -0.3169 -1.0753  0.3978
 1525SOL     OW 4709   2.667   3.207   1.250  0.2097 -0.3822 -0.2615
 1525SOL    HW1 4710   2.578   3.217   1.284 -0.6115  3.6119 -2.9205
 1525SOL    HW2 4711   2.655   3.176   1.161  1.5489 -0.5113 -0.4161
 1526SOL     OW 4712   0.107   3.336   3.327  0.0459  0.3994  0.6933
 1526SOL    HW1 4713   0.126   3.346   3.420  0.4589 -1.0540  0.7839
 1526SOL    HW2 4714   0.044   3.264   3.323 -1.0219  1.3197 -0.0733
 1527SOL     OW 4715   1.476   0.728   3.675 -0.2788  0.2632  0.0418
 1527SOL    HW1 4716   1.550   0.674   3.649  0.6332  0.4425  2.0777
 1527SOL    HW2 4717   1.453   0.777   3.596  0.4671 -1.2470 -1.1579
 1528SOL     OW 4718   0.630   2.753   3.484 -0.5129  0.0202 -0.1896
 1528SOL    HW1 4719   0.546   2.723   3.448 -0.0971 -0.6487 -0.6298
 1528SOL    HW2 4720   0.656   2.685   3.545 -0.4429  0.3829  0.1852
 1529SOL     OW 4721   2.162   2.700   3.026 -0.5130  0.4042 -0.3105
 1529SOL    HW1 4722   2.141   2.609   3.047  0.3865  0.1042 -0.6416
 1529SOL    HW2 4723   2.119   2.716   2.942  0.8193 -0.3121 -1.1593
 1530SOL     OW 4724   0.399   1.784   3.277  0.1015  0.3245  0.1751
 1530SOL    HW1 4725   0.447   1.810   3.355  2.6295 -1.3571 -0.6844
 1530SOL    HW2 4726   0.466   1.747   3.219 -2.1669 -1.7776 -1.3121
 1531SOL     OW 4727   2.690   2.904   1.262  0.0199 -0.2123 -0.2213
 1531SOL    HW1 4728   2.637   2.946   1.330 -0.7583  1.1458 -1.5965
 1531SOL    HW2 4729   2.687   2.965   1.188  1.3113 -1.3654 -1.2839
 1532SOL     OW 4730   1.199   1.726   1.804 -0.0162  0.1339  0.0582
 1532SOL    HW1 4731   1.202   1.702   1.896  0.5411  0.0656  0.0235
 1532SOL    HW2 4732   1.275   1.683   1.765  0.1623  0.7547 -0.2957
 1533SOL     OW 4733   0.442   1.883   2.144 -0.5773  0.2156 -0.4622
 1533SOL    HW1 4734   0.427   1.839   2.061 -2.4537  0.5143 -0.3368
 1533SOL    HW2 4735   0.380   1.842   2.204 -0.0728  0.8032  0.4775
 1534SOL     OW 4736   3.216   1.797   0.535 -0.1372  0.0635  0.1632
 1534SOL    HW1 4737   3.295   1.799   0.481 -0.5203 -1.9652 -0.5656
 1534SOL    HW2 4738   3.190   1.705   0.535  0.5552 -0.4005  4.8299
 1535SOL     OW 4739   2.864   3.607   1.795  0.0523  0.1600  0.0249
 1535SOL    HW1 4740   2.803   3.598   1.869 -1.1485 -0.3188 -0.9815
 1535SOL    HW2 4741   2.807   3.627   1.721  0.9806 -1.6056 -1.2232
 1536SOL     OW 4742   0.642   3.382   1.062  0.0720  0.5797  0.5310
 1536SOL    HW1 4743   0.552   3.356   1.042  0.0702  0.3332  0.8497
 1536SOL    HW2 4744   0.649   3.372   1.157  0.4071  0.6895  0.5177
 1537SOL     OW 4745   0.583   2.474   1.649 -0.2262 -0.3222  0.0316
 1537SOL    HW1 4746   0.664   2.506   1.610 -0.9841 -2.3061 -3.7138
 1537SOL    HW2 4747   0.515   2.530   1.613 -0.7027  0.6917  2.3439
 1538SOL     OW 4748   0.673   1.362   0.012 -0.5006  0.3950  0.0330
 1538SOL    HW1 4749   0.742   1.388   0.073  0.1677 -1.0094 -0.0825
 1538SOL    HW2 4750   0.707   1.283  -0.031 -1.9663 -0.0345 -0.4034
 1539SOL     OW 4751   2.303   1.882   3.525 -0.2059 -0.6905  0.5610
 1539SOL    HW1 4752   2.263   1.954   3.573  1.1377 -0.2878  1.1075
 1539SOL    HW2 4753   2.269   1.803   3.568 -1.8310 -0.4249 -0.1612
 1540SOL     OW 4754   0.932   2.223   1.933 -0.2965  0.3184  0.7267
 1540SOL    HW1 4755   0.931   2.264   2.019  0.2887  1.2068  0.3221
 1540SOL    HW2 4756   0.899   2.135   1.948 -0.2831  0.4920  1.8418
 1541SOL     OW 4757   2.224   2.657   0.112 -0.9012  0.9276 -0.0948
 1541SOL    HW1 4758   2.149   2.605   0.141 -1.6546  2.2996  0.5435
 1541SOL    HW2 4759   2.221   2.736   0.166  3.2695 -0.5159  2.6845
 1542SOL     OW 4760   0.291   3.358   0.640  0.5190  0.2146  0.2196
 1542SOL    HW1 4761   0.257   3.270   0.627 -0.1252  0.3590  0.8557
 1542SOL    HW2 4762   0.216   3.415   0.624  1.1820  0.7295 -1.2473
 1543SOL     OW 4763   3.122   3.352   0.497  0.4855 -0.1180  0.0318
 1543SOL    HW1 4764   3.083   3.439   0.498  1.3534  0.2976 -0.6018
 1543SOL    HW2 4765   3.183   3.352   0.571  0.2626 -0.2988  0.2175
 1544SOL     OW 4766   2.567   1.870   0.065 -0.4093 -0.4905  0.2852
 1544SOL    HW1 4767   2.531   1.920  -0.009 -1.1316  1.3324  1.8063
 1544SOL    HW2 4768   2.662   1.880   0.055 -0.5070  2.3835  1.2214
 1545SOL     OW 4769   2.353   1.012   3.341 -0.4727 -0.1093  0.0556
 1545SOL    HW1 4770   2.403   0.933   3.361 -1.4050 -0.7679 -0.1719
 1545SOL    HW2 4771   2.289   1.018   3.412 -1.6531 -0.6341 -0.9273
 1546SOL     OW 4772   1.461   1.798   2.661 -0.3307  0.4304  0.1780
 1546SOL    HW1 4773   1.508   1.748   2.728  1.1726  2.1309  0.4600
 1546SOL    HW2 4774   1.406   1.733   2.617  0.7682 -1.2620  1.1953
 1547SOL     OW 4775   0.020   0.706  -0.009 -0.3585 -0.3530  0.1538
 1547SOL    HW1 4776   0.109   0.739  -0.023 -0.7060  0.5961  0.1127
 1547SOL    HW2 4777  -0.024   0.775   0.042 -2.0059  0.6778 -2.4630
 1548SOL     OW 4778   0.273   3.567   0.095  0.2724 -0.2947  0.1469
 1548SOL    HW1 4779   0.202   3.631   0.109 -0.4550 -1.4164  1.8923
 1548SOL    HW2 4780   0.302   3.544   0.183  3.7349  1.0348 -0.4717
 1549SOL     OW 4781   1.504   1.279   1.345 -0.0765 -0.4947  0.7793
 1549SOL    HW1 4782   1.569   1.257   1.278 -0.8273 -0.3426 -0.0189
 1549SOL    HW2 4783   1.501   1.202   1.402  1.0312 -0.3778  1.0275
 1550SOL     OW 4784   3.242   2.044   1.586 -0.2416  0.5606  0.5739
 1550SOL    HW1 4785   3.172   2.086   1.536  1.0881  1.0887 -0.9554
 1550SOL    HW2 4786   3.318   2.100   1.571  0.1882  0.8844  3.4814
 1551SOL     OW 4787   1.433   1.521   0.532 -0.5177 -0.2340  1.0917
 1551SOL    HW1 4788   1.466   1.583   0.466  1.8085 -1.0809  1.3774
 1551SOL    HW2 4789   1.408   1.576   0.606 -0.0312  0.5020  0.7257
 1552SOL     OW 4790   0.220   3.463   1.117  0.6146 -0.4187 -0.2694
 1552SOL    HW1 4791   0.169   3.447   1.037  0.4473  0.2407 -0.3052
 1552SOL    HW2 4792   0.155   3.484   1.183  0.7811 -0.5246 -0.0717
 1553SOL     OW 4793   3.410  -0.007   1.210  0.2249 -0.4355  0.3673
 1553SOL    HW1 4794   3.388   0.081   1.180 -0.5025 -0.6461  0.2487
 1553SOL    HW2 4795   3.428   0.002   1.303 -2.3942 -0.5282  0.9749
 1554SOL     OW 4796   3.649   0.962   0.102  0.3972  0.3982  0.1124
 1554SOL    HW1 4797   3.715   1.025   0.073 -0.4012  1.4629  0.4938
 1554SOL    HW2 4798   3.622   0.994   0.188  1.6544 -1.8341  1.4269
 1555SOL     OW 4799   3.170   3.375   1.394 -0.3015 -1.2669  0.6303
 1555SOL    HW1 4800   3.114   3.445   1.427 -1.0743 -1.0082 -1.0911
 1555SOL    HW2 4801   3.217   3.415   1.320  1.3104 -1.8205  1.2974
 1556SOL     OW 4802   0.993   0.063   3.034  0.0677 -0.4205  0.0330
 1556SOL    HW1 4803   0.909   0.020   3.024  0.1286 -0.6335  0.4138
 1556SOL    HW2 4804   0.978   0.133   3.098  0.0270 -0.0315 -0.3963
 1557SOL     OW 4805   0.182   1.808   3.606 -0.2238 -0.0149 -0.3860
 1557SOL    HW1 4806   0.171   1.738   3.671  0.6713 -1.0560 -1.3215
 1557SOL    HW2 4807   0.143   1.774   3.526 -0.2657  0.7844 -0.7206
 1558SOL     OW 4808   0.405   3.455   1.744 -1.0448  0.3420 -0.2984
 1558SOL    HW1 4809   0.336   3.504   1.789  1.0336  1.5305  1.7482
 1558SOL    HW2 4810   0.429   3.386   1.805 -0.6220 -0.2460 -1.1186
 1559SOL     OW 4811   3.393   2.644   0.264  0.0247 -0.5830  0.0181
 1559SOL    HW1 4812   3.483   2.616   0.278 -0.2028 -1.8821 -1.0187
 1559SOL    HW2 4813   3.345   2.564   0.243 -1.6417 -0.1255  1.7198
 1560SOL     OW 4814   2.843   3.143   2.546 -0.2974 -0.5963  0.0158
 1560SOL    HW1 4815   2.918   3.126   2.489  1.1580 -0.0869  1.6835
 1560SOL    HW2 4816   2.782   3.072   2.528  0.7559 -1.2556 -1.0888
 1561SOL     OW 4817   1.259   1.250   1.214 -0.0075  0.2273 -0.4406
 1561SOL    HW1 4818   1.334   1.275   1.267  0.8891 -2.4955 -0.2644
 1561SOL    HW2 4819   1.296   1.196   1.143 -1.7669 -1.5275 -0.1157
 1562SOL     OW 4820   1.953   1.494   2.171  0.0160  0.2413 -0.5133
 1562SOL    HW1 4821   1.944   1.437   2.094 -2.0974 -0.2139  0.0089
 1562SOL    HW2 4822   2.033   1.462   2.215  0.5431 -0.3249 -1.8149
 1563SOL     OW 4823   1.550   2.371   0.708  0.2031 -0.0735  0.4651
 1563SOL    HW1 4824   1.496   2.369   0.629  0.5948 -3.8529  0.0948
 1563SOL    HW2 4825   1.487   2.380   0.780 -0.5893 -0.7021 -0.1273
 1564SOL     OW 4826   3.468   2.388   1.947  0.1959 -0.2230  0.2560
 1564SOL    HW1 4827   3.431   2.339   2.020  0.6162 -0.2145  0.4751
 1564SOL    HW2 4828   3.405   2.376   1.876 -0.1204 -0.3839  0.5606
 1565SOL     OW 4829   0.540   0.832   1.768  0.2586  0.0196 -0.5450
 1565SOL    HW1 4830   0.490   0.787   1.700  1.4559 -0.4881 -1.1240
 1565SOL    HW2 4831   0.494   0.813   1.849 -0.4983 -0.4093 -1.0643
 1566SOL     OW 4832   2.540   2.181   2.957  0.6727 -0.0608  0.0392
 1566SOL    HW1 4833   2.495   2.253   3.002  0.1948 -0.5950  0.4338
 1566SOL    HW2 4834   2.589   2.136   3.027  1.3556  0.1632 -0.2884
 1567SOL     OW 4835   0.118   2.743   3.305  0.0198  0.1500  0.0541
 1567SOL    HW1 4836   0.080   2.742   3.217 -1.9836 -0.0781  0.8627
 1567SOL    HW2 4837   0.168   2.825   3.308  0.0796  0.1883 -1.2667
 1568SOL     OW 4838   2.498   1.568   0.889 -0.9684  0.4962 -0.0161
 1568SOL    HW1 4839   2.467   1.620   0.964  0.0682  1.1266 -0.0156
 1568SOL    HW2 4840   2.522   1.633   0.823  0.5953  0.0521  0.0785
 1569SOL     OW 4841   2.993   1.108   2.119  0.3768  0.4711 -0.1344
 1569SOL    HW1 4842   3.074   1.137   2.078 -0.3630  1.0388 -1.2430
 1569SOL    HW2 4843   2.978   1.020   2.085 -0.1005  0.8414 -0.9078
 1570SOL     OW 4844   0.332   2.953   0.991  0.0927 -0.2676  0.7391
 1570SOL    HW1 4845   0.423   2.950   1.020  0.8264  0.4898 -1.2979
 1570SOL    HW2 4846   0.337   2.956   0.895 -1.9385  2.2826  0.5812
 1571SOL     OW 4847   1.231   1.881   1.336  0.0302  0.0143 -0.3090
 1571SOL    HW1 4848   1.219   1.973   1.360  0.1155 -0.1577  0.4234
 1571SOL    HW2 4849   1.147   1.854   1.299  0.2772  0.6217 -1.3581
 1572SOL     OW 4850   1.988   2.899   0.988  0.0580 -1.1030 -0.1636
 1572SOL    HW1 4851   1.933   2.964   0.944  0.3550 -0.4147  0.4554
 1572SOL    HW2 4852   2.003   2.832   0.922  0.4260 -0.1295 -1.1003
 1573SOL     OW 4853   3.742   2.893   3.544 -0.1256  0.7041  0.2062
 1573SOL    HW1 4854   3.661   2.856   3.578  0.1984  0.2658  0.5050
 1573SOL    HW2 4855   3.774   2.829   3.481 -0.8922  1.6594 -1.2077
 1574SOL     OW 4856   1.148   0.122   1.360  1.0398 -0.2545 -0.0614
 1574SOL    HW1 4857   1.172   0.034   1.389  0.9896 -0.8579 -1.7760
 1574SOL    HW2 4858   1.203   0.137   1.283 -1.2497 -0.1068 -1.7385
 1575SOL     OW 4859   2.252   2.927   1.529 -0.4289  0.6343 -0.7295
 1575SOL    HW1 4860   2.205   2.995   1.577 -0.2343 -0.1888  0.6980
 1575SOL    HW2 4861   2.186   2.862   1.508 -0.2094  0.1412  0.0470
 1576SOL     OW 4862   3.702   2.411   3.128 -0.4210 -0.0594  0.1579
 1576SOL    HW1 4863   3.690   2.322   3.096  1.8789 -0.5178  0.4460
 1576SOL    HW2 4864   3.613   2.442   3.145 -1.5187 -1.1530 -2.8989
 1577SOL     OW 4865   2.034   2.764   1.600 -0.1089  0.1031  0.5794
 1577SOL    HW1 4866   2.045   2.809   1.684 -2.7544 -0.3304  1.2378
 1577SOL    HW2 4867   2.005   2.676   1.624  2.3047 -1.1549 -0.7753
 1578SOL     OW 4868   3.111   2.627   0.288 -0.5776  0.0699 -0.1066
 1578SOL    HW1 4869   3.048   2.668   0.347 -0.5852 -0.7544  0.4851
 1578SOL    HW2 4870   3.170   2.698   0.262 -1.7249  0.8397 -0.6480
 1579SOL     OW 4871   1.741   3.162   1.221 -0.2750  0.0156  0.6643
 1579SOL    HW1 4872   1.750   3.132   1.130 -0.7286 -1.5739  1.1172
 1579SOL    HW2 4873   1.816   3.122   1.266 -0.8880 -0.4601  1.2812
 1580SOL     OW 4874   0.411   0.392   3.702 -0.0778 -0.6974 -0.0692
 1580SOL    HW1 4875   0.461   0.397   3.620 -1.0874  0.4770 -0.6538
 1580SOL    HW2 4876   0.334   0.341   3.680 -1.3794  1.3075 -0.4823
 1581SOL     OW 4877   0.630   1.245   1.589  0.2421  0.1948  0.8556
 1581SOL    HW1 4878   0.670   1.309   1.649 -1.2185  1.0430  0.9782
 1581SOL    HW2 4879   0.557   1.208   1.638  0.1868 -0.5133  0.2611
 1582SOL     OW 4880   3.423   2.454   3.146 -0.2040  0.2209 -0.1628
 1582SOL    HW1 4881   3.409   2.499   3.062  0.6787 -0.3224 -0.6229
 1582SOL    HW2 4882   3.342   2.406   3.161  0.2440 -1.0768 -1.6089
 1583SOL     OW 4883   2.087   0.901   1.636 -0.2226 -0.2685 -0.5565
 1583SOL    HW1 4884   2.176   0.872   1.656  0.1238  0.2683 -1.2774
 1583SOL    HW2 4885   2.088   0.995   1.654 -1.0678 -0.5012  0.8454
 1584SOL     OW 4886   0.906   0.271   0.718  0.4545  0.0254  0.1032
 1584SOL    HW1 4887   0.909   0.287   0.624 -1.2529 -3.4407 -0.7472
 1584SOL    HW2 4888   0.888   0.356   0.757 -1.3280  1.2065 -2.9607
 1585SOL     OW 4889   0.103   2.142   3.009  0.7264  0.1147  0.0006
 1585SOL    HW1 4890   0.100   2.138   2.913  0.4623  3.2982 -0.2065
 1585SOL    HW2 4891   0.013   2.157   3.036  1.1890  2.3637  0.4674
 1586SOL     OW 4892   2.461   1.678   0.231  0.0415 -0.1428 -0.3315
 1586SOL    HW1 4893   2.482   1.759   0.183 -1.3983  1.3299  1.4061
 1586SOL    HW2 4894   2.366   1.669   0.223 -0.1677 -0.1352  1.7485
 1587SOL     OW 4895   3.096   0.906   1.023  0.0593 -0.2379  0.2943
 1587SOL    HW1 4896   3.065   0.824   1.063  5.2601 -3.2628 -0.8735
 1587SOL    HW2 4897   3.076   0.896   0.930  1.1102 -0.5490  0.0775
 1588SOL     OW 4898   0.551   1.326   2.449  0.6722  0.2953 -0.0422
 1588SOL    HW1 4899   0.462   1.302   2.477  0.4898  1.5753  0.5817
 1588SOL    HW2 4900   0.561   1.417   2.479  2.4637 -0.0694  0.5535
 1589SOL     OW 4901   0.573   3.615   3.332 -0.4984  1.1113  0.2041
 1589SOL    HW1 4902   0.554   3.562   3.254  2.5069  0.2685 -0.0782
 1589SOL    HW2 4903   0.543   3.561   3.405 -2.4022  1.4629 -0.2611
 1590SOL     OW 4904   0.205   2.680   1.336 -0.0385 -0.2358  0.5200
 1590SOL    HW1 4905   0.210   2.776   1.333  1.3068 -0.3040 -0.1001
 1590SOL    HW2 4906   0.254   2.651   1.258  1.0610 -1.4483  1.6162
 1591SOL     OW 4907   2.366   0.010   3.197  0.3071  0.1148  0.4765
 1591SOL    HW1 4908   2.376  -0.024   3.286 -1.7003 -2.4607 -0.1507
 1591SOL    HW2 4909   2.291   0.068   3.201  0.8149  0.7663  0.6350
 1592SOL     OW 4910   1.452   3.409   3.207  0.3322  0.1164  0.0830
 1592SOL    HW1 4911   1.522   3.344   3.197 -0.0548 -0.3841  0.5925
 1592SOL    HW2 4912   1.490   3.490   3.173  0.4424 -0.6052 -1.6194
 1593SOL     OW 4913   2.974   1.333   3.327 -0.0904 -0.0634  0.1509
 1593SOL    HW1 4914   2.900   1.294   3.281  0.0823 -0.7984  0.4751
 1593SOL    HW2 4915   2.967   1.427   3.310 -0.8668 -0.1712 -0.1436
 1594SOL     OW 4916   0.674   0.839   3.579  0.5577 -0.2085  0.1022
 1594SOL    HW1 4917   0.666   0.773   3.648  0.7325  0.3915  0.7131
 1594SOL    HW2 4918   0.739   0.803   3.519 -0.8168 -1.4972 -0.6638
 1595SOL     OW 4919   0.968   0.283   3.214  0.1635  1.5079 -0.4560
 1595SOL    HW1 4920   0.888   0.331   3.196 -0.6445 -0.1433 -1.4629
 1595SOL    HW2 4921   1.038   0.340   3.182 -0.5835  2.8983  0.3015
 1596SOL     OW 4922   2.969   1.352   2.575 -0.0822  0.2505 -0.6963
 1596SOL    HW1 4923   2.985   1.421   2.640  0.5827  1.2402 -1.8855
 1596SOL    HW2 4924   2.896   1.301   2.612  0.9379  0.1613  1.3033
 1597SOL     OW 4925   2.897   1.180   0.466  0.1823 -0.0658 -0.0247
 1597SOL    HW1 4926   2.821   1.235   0.488  0.8229  1.3098 -1.0772
 1597SOL    HW2 4927   2.942   1.167   0.549  0.6208  1.9943  0.1063
 1598SOL     OW 4928   0.947   2.927   0.195  0.4613  0.4973 -0.0066
 1598SOL    HW1 4929   0.998   3.003   0.221  2.0724 -0.0743 -1.3291
 1598SOL    HW2 4930   0.959   2.921   0.100 -3.0744  1.0174 -0.6283
 1599SOL     OW 4931   1.558   1.204   2.138  0.7764  0.0173  0.4102
 1599SOL    HW1 4932   1.650   1.225   2.155  1.3672 -1.5677 -0.5181
 1599SOL    HW2 4933   1.534   1.142   2.207  0.7853 -0.4315  0.0244
 1600SOL     OW 4934   3.654   1.430   0.306  0.9048  0.4445 -0.3780
 1600SOL    HW1 4935   3.581   1.424   0.368  0.2052  0.1324 -1.2188
 1600SOL    HW2 4936   3.639   1.513   0.260  0.5417 -0.0673 -1.2031
 1601SOL     OW 4937   3.236   2.901   1.539 -0.0584  0.0219  0.7272
 1601SOL    HW1 4938   3.315   2.929   1.492 -0.9043 -0.1184 -0.8230
 1601SOL    HW2 4939   3.211   2.979   1.590  0.0835  0.6608 -0.1510
 1602SOL     OW 4940   1.660   0.074   0.588  0.1800  0.2490 -0.2349
 1602SOL    HW1 4941   1.718   0.032   0.525 -0.5664  2.3587 -2.4923
 1602SOL    HW2 4942   1.713   0.144   0.626 -0.4817  1.5811 -1.6188
 1603SOL     OW 4943   0.179   1.247   2.354 -0.4985  0.1523  0.0810
 1603SOL    HW1 4944   0.116   1.178   2.332 -0.5305  0.4293 -0.7656
 1603SOL    HW2 4945   0.256   1.200   2.385 -0.1914 -0.3380 -1.3154
 1604SOL     OW 4946   0.175   3.123   0.554 -0.4148 -0.5355 -0.5865
 1604SOL    HW1 4947   0.082   3.119   0.575 -0.5266 -0.2950 -1.0266
 1604SOL    HW2 4948   0.181   3.095   0.463  0.0218 -1.2078 -0.3585
 1605SOL     OW 4949   0.554   0.104   0.879  0.0823  0.3494 -0.5428
 1605SOL    HW1 4950   0.645   0.077   0.886 -0.0336 -0.4890 -1.8367
 1605SOL    HW2 4951   0.506   0.023   0.861 -0.5580  1.1013 -2.4964
 1606SOL     OW 4952   2.013   3.696   0.188 -0.0825 -1.1288 -0.2659
 1606SOL    HW1 4953   1.998   3.602   0.202  1.0542 -1.4879 -1.2355
 1606SOL    HW2 4954   2.050   3.701   0.099 -1.3253  0.3733 -0.7450
 1607SOL     OW 4955   3.121   1.276   0.334 -0.1188  0.3862  0.0668
 1607SOL    HW1 4956   3.035   1.245   0.362 -0.5530  1.0919 -0.4504
 1607SOL    HW2 4957   3.102   1.348   0.273  0.7934 -0.4601 -1.2790
 1608SOL     OW 4958   0.672   0.514   1.068 -0.1104 -0.5359 -0.2431
 1608SOL    HW1 4959   0.729   0.583   1.103  2.2991 -2.2254 -0.6219
 1608SOL    HW2 4960   0.603   0.562   1.022  0.7290  1.6290  0.6041
 1609SOL     OW 4961   0.426   1.857   2.719 -0.8228 -0.3742 -0.1823
 1609SOL    HW1 4962   0.363   1.909   2.767 -0.9034  0.6816 -1.3810
 1609SOL    HW2 4963   0.473   1.920   2.664 -2.2550 -1.7359 -3.1812
 1610SOL     OW 4964   2.085   1.115   3.111  0.3741  0.0445 -0.2544
 1610SOL    HW1 4965   2.079   1.051   3.040  1.9968  1.3238 -1.6195
 1610SOL    HW2 4966   2.177   1.141   3.112  0.3237  0.3026  2.1424
 1611SOL     OW 4967   2.616   0.502   2.704  0.4074  0.1056 -0.0056
 1611SOL    HW1 4968   2.588   0.587   2.669 -2.2484  1.1184  3.9197
 1611SOL    HW2 4969   2.669   0.524   2.781  2.3980 -1.9132 -0.6865
 1612SOL     OW 4970   2.973   1.852   0.272  0.5053  0.1807 -0.4073
 1612SOL    HW1 4971   2.883   1.821   0.264  0.2576  1.3193 -2.9731
 1612SOL    HW2 4972   2.965   1.944   0.299  0.9183  0.2453 -0.4902
 1613SOL     OW 4973   1.967   1.489   3.184 -0.3404 -0.9143  1.3350
 1613SOL    HW1 4974   2.038   1.444   3.230  0.7530 -0.6483  0.0041
 1613SOL    HW2 4975   1.921   1.420   3.136 -1.4747 -1.1901  2.7675
 1614SOL     OW 4976   2.937   2.902   1.058  0.4651 -0.3806  0.2201
 1614SOL    HW1 4977   3.002   2.849   1.011  1.6555 -0.1347  1.5411
 1614SOL    HW2 4978   2.961   2.894   1.150 -1.2491 -0.0738  0.7317
 1615SOL     OW 4979   1.717   0.266   0.201  0.3587 -0.3940  0.0960
 1615SOL    HW1 4980   1.643   0.256   0.141 -0.2143 -0.8121  0.8554
 1615SOL    HW2 4981   1.684   0.235   0.286  1.1489  0.1731  0.6322
 1616SOL     OW 4982   3.052   1.043   2.717 -0.1214 -0.2522 -0.4795
 1616SOL    HW1 4983   3.132   0.991   2.721 -1.0624 -1.8812 -1.2983
 1616SOL    HW2 4984   3.053   1.082   2.629  0.0680  0.2238 -0.2654
 1617SOL     OW 4985   1.534   1.950   1.213  0.4734 -0.2181  0.2081
 1617SOL    HW1 4986   1.506   1.959   1.122 -0.5962  0.8154  0.6170
 1617SOL    HW2 4987   1.469   1.892   1.252 -1.2388  2.1724  1.1550
 1618SOL     OW 4988   0.966   0.031   0.355 -0.2753  0.0484 -0.4112
 1618SOL    HW1 4989   1.049   0.024   0.402 -0.0413  2.9938 -0.2112
 1618SOL    HW2 4990   0.901  -0.004   0.416  0.3919  1.1007  0.9449
 1619SOL     OW 4991   3.289   0.899   2.698  0.0396  0.1389 -0.5989
 1619SOL    HW1 4992   3.277   0.813   2.739  1.9362 -0.4612 -1.2022
 1619SOL    HW2 4993   3.355   0.942   2.752 -1.2553  1.4436 -0.0171
 1620SOL     OW 4994   1.869   2.762   2.256 -0.9026 -0.2979  0.7616
 1620SOL    HW1 4995   1.964   2.749   2.262 -0.4590  2.0712 -0.1669
 1620SOL    HW2 4996   1.848   2.741   2.165 -1.2468 -0.5594  0.8993
 1621SOL     OW 4997   3.734   1.635   2.752  0.4694  0.6936 -0.5109
 1621SOL    HW1 4998   3.649   1.658   2.791  0.0959 -2.9125  1.2245
 1621SOL    HW2 4999   3.796   1.695   2.792 -0.8821  1.5712  0.3652
 1622SOL     OW 5000   1.049   0.559   0.624  0.2500  0.4387 -0.0199
 1622SOL    HW1 5001   0.954   0.572   0.632 -0.0389 -1.4891  0.0582
 1622SOL    HW2 5002   1.079   0.549   0.714 -0.0638 -2.4451 -0.1615
 1623SOL     OW 5003   3.044   3.690   3.358  0.5396  0.0053 -0.4174
 1623SOL    HW1 5004   3.106   3.641   3.412  0.3912 -0.3676 -0.5834
 1623SOL    HW2 5005   3.094   3.716   3.280 -0.0041 -1.9888 -1.4963
 1624SOL     OW 5006   3.359   3.353   1.832  0.0236 -0.2006  0.0920
 1624SOL    HW1 5007   3.368   3.447   1.821  2.5475 -0.2813  0.7759
 1624SOL    HW2 5008   3.276   3.341   1.878 -0.4396  1.6494 -0.2079
 1625SOL     OW 5009   0.612   1.971   0.732  0.5764 -0.1165 -0.0444
 1625SOL    HW1 5010   0.568   1.980   0.817  0.1780 -0.1904 -0.2446
 1625SOL    HW2 5011   0.693   2.021   0.743  0.6317 -0.3013  0.4525
 1626SOL     OW 5012   3.534   0.252   0.175  0.2904 -0.3712 -0.0235
 1626SOL    HW1 5013   3.548   0.264   0.081 -2.3153  1.2833 -0.3119
 1626SOL    HW2 5014   3.596   0.310   0.217 -1.2710  2.1356 -0.9601
 1627SOL     OW 5015   2.170   3.445   2.526 -0.6041 -0.1919  0.4526
 1627SOL    HW1 5016   2.196   3.365   2.573 -1.4167 -0.1816  0.9520
 1627SOL    HW2 5017   2.087   3.422   2.485 -1.8062  0.9091  2.1022
 1628SOL     OW 5018   1.139   2.884   1.938  0.1873  0.3708  0.7089
 1628SOL    HW1 5019   1.068   2.938   1.904  2.0028  1.6636 -1.2785
 1628SOL    HW2 5020   1.183   2.939   2.003  1.2347  0.8477 -0.3612
 1629SOL     OW 5021   2.437   1.766   0.640  0.1639 -0.4448  0.0553
 1629SOL    HW1 5022   2.490   1.835   0.679 -0.4931 -0.4448  0.9985
 1629SOL    HW2 5023   2.363   1.812   0.600  0.1827 -0.5361 -0.0836
 1630SOL     OW 5024   1.975   0.503   1.391  0.0534 -0.7896  0.1112
 1630SOL    HW1 5025   1.888   0.538   1.409 -0.9589 -3.1722  0.2237
 1630SOL    HW2 5026   2.030   0.580   1.380 -2.0625  0.8000  0.0160
 1631SOL     OW 5027   0.715   0.292   3.025  0.0405  0.4654  0.1250
 1631SOL    HW1 5028   0.683   0.382   3.034  2.7785  1.3886  2.0536
 1631SOL    HW2 5029   0.682   0.246   3.102  0.0520  0.2929  0.0283
 1632SOL     OW 5030   0.390   2.575   1.136  0.0443  0.5786  0.6004
 1632SOL    HW1 5031   0.410   2.517   1.062  0.3242  0.5064  0.7310
 1632SOL    HW2 5032   0.476   2.602   1.168 -0.0724  0.4251  1.0453
 1633SOL     OW 5033   2.679   0.719   2.127 -0.7769 -0.3034  0.4444
 1633SOL    HW1 5034   2.751   0.677   2.175 -3.0477 -3.9763  1.0237
 1633SOL    HW2 5035   2.697   0.700   2.035 -0.6377 -0.6430  0.5377
 1634SOL     OW 5036   1.832   2.288   2.766  0.0929 -0.1548  0.0751
 1634SOL    HW1 5037   1.859   2.203   2.733 -2.0024 -1.1187  0.6702
 1634SOL    HW2 5038   1.911   2.343   2.760  1.2689 -1.8881 -1.0579
 1635SOL     OW 5039   3.125   1.572   2.150 -0.3796 -0.2046  0.2261
 1635SOL    HW1 5040   3.203   1.547   2.100 -0.7559  0.5028 -0.7653
 1635SOL    HW2 5041   3.083   1.489   2.173 -0.7441 -0.5772 -1.5799
 1636SOL     OW 5042   2.498   0.656   0.619 -0.2781 -0.1417  0.1375
 1636SOL    HW1 5043   2.497   0.732   0.677 -0.3427  1.0498 -1.3819
 1636SOL    HW2 5044   2.591   0.633   0.611 -0.2375 -0.0687  0.4027
 1637SOL     OW 5045   2.260   2.814   3.465 -0.2811 -0.2341  0.1153
 1637SOL    HW1 5046   2.226   2.902   3.483  0.4801  0.3349 -1.1564
 1637SOL    HW2 5047   2.265   2.772   3.552 -1.3998  0.6823  0.6462
 1638SOL     OW 5048   1.130   0.342   2.271  0.5163 -0.0812 -0.3208
 1638SOL    HW1 5049   1.221   0.371   2.265  0.5029 -0.2414 -1.4138
 1638SOL    HW2 5050   1.108   0.353   2.364  1.9347 -0.9071  0.1536
 1639SOL     OW 5051   3.404   3.691   2.940  0.6948  0.5517 -0.0527
 1639SOL    HW1 5052   3.355   3.765   2.905  0.4121 -1.0046 -3.3606
 1639SOL    HW2 5053   3.385   3.690   3.034 -0.7156  3.5251 -0.2231
 1640SOL     OW 5054   3.049   2.165   1.422  0.3108  0.2680  0.0525
 1640SOL    HW1 5055   2.993   2.168   1.345  0.1758 -1.9465 -0.0082
 1640SOL    HW2 5056   2.994   2.195   1.494 -0.3497 -0.0021 -0.3384
 1641SOL     OW 5057   1.526   1.264   0.333 -0.3669  0.4290 -0.0726
 1641SOL    HW1 5058   1.440   1.224   0.324 -0.9199  1.9523 -2.3143
 1641SOL    HW2 5059   1.510   1.343   0.385  0.0811 -0.3103  1.2373
 1642SOL     OW 5060   0.278   2.156   3.191 -0.2773 -0.0145  0.5015
 1642SOL    HW1 5061   0.205   2.142   3.131 -1.1042  1.6052  1.0787
 1642SOL    HW2 5062   0.254   2.106   3.270  1.3532 -3.1268 -0.7914
 1643SOL     OW 5063   3.685   1.126   2.877 -0.1527  0.2335  0.4399
 1643SOL    HW1 5064   3.743   1.140   2.802 -0.7665 -1.0828 -0.3295
 1643SOL    HW2 5065   3.675   1.212   2.917  0.9866  0.7784 -0.3986
 1644SOL     OW 5066   1.316   0.421   2.498  0.0460 -0.5504 -0.3280
 1644SOL    HW1 5067   1.382   0.489   2.486  0.1503 -1.0976 -4.0951
 1644SOL    HW2 5068   1.232   0.465   2.485 -0.2081 -0.3905  1.6235
 1645SOL     OW 5069   3.661   1.286   0.051  0.1484 -0.2674 -0.1960
 1645SOL    HW1 5070   3.573   1.264   0.082 -0.1623 -0.0068 -0.8741
 1645SOL    HW2 5071   3.714   1.291   0.131 -0.0468 -2.1499  0.1185
 1646SOL     OW 5072   1.127   0.810   0.261  0.8047  0.2278  0.2254
 1646SOL    HW1 5073   1.210   0.850   0.287 -0.7430  4.7796 -1.0158
 1646SOL    HW2 5074   1.062   0.880   0.269 -2.8372 -2.8043  0.1695
 1647SOL     OW 5075   1.902   0.857   0.691  0.4029 -0.4959 -0.2340
 1647SOL    HW1 5076   1.844   0.896   0.626 -0.9397 -1.5126  0.2941
 1647SOL    HW2 5077   1.947   0.786   0.645 -0.5811 -1.2451 -0.0697
 1648SOL     OW 5078   3.253   0.198   3.222  0.7243  0.0619 -0.5679
 1648SOL    HW1 5079   3.287   0.168   3.307  0.0473  2.7568  0.7673
 1648SOL    HW2 5080   3.324   0.180   3.160  1.4552 -1.4983  0.6619
 1649SOL     OW 5081   1.678   3.083   2.879 -0.5509 -0.1895 -0.2315
 1649SOL    HW1 5082   1.670   3.014   2.946 -0.5166  1.0890  1.1491
 1649SOL    HW2 5083   1.608   3.145   2.901 -0.8176  0.0391 -1.6825
 1650SOL     OW 5084   1.216   3.315   2.339 -0.1952  0.0864 -0.0392
 1650SOL    HW1 5085   1.273   3.312   2.262  1.2576 -1.2315  1.0189
 1650SOL    HW2 5086   1.275   3.299   2.412 -1.3434  2.3798  1.5142
 1651SOL     OW 5087   1.767   0.140   1.256  0.0259  0.6016 -0.2591
 1651SOL    HW1 5088   1.779   0.169   1.346  0.7468  0.2274 -0.2312
 1651SOL    HW2 5089   1.786   0.217   1.203  2.0035  0.1987 -0.1887
 1652SOL     OW 5090   1.217   0.695   2.351  0.2297  0.4262 -0.0004
 1652SOL    HW1 5091   1.156   0.668   2.282 -0.3825  0.1547  0.6342
 1652SOL    HW2 5092   1.172   0.767   2.395  1.3035  1.6595 -0.8742
 1653SOL     OW 5093   1.659   1.702   0.687  0.4616  0.0078  0.4068
 1653SOL    HW1 5094   1.739   1.717   0.635  0.5388 -2.2327 -0.2025
 1653SOL    HW2 5095   1.677   1.622   0.736 -0.3816  1.0099  2.4436
 1654SOL     OW 5096   1.046   1.458   2.403  0.0035  0.1000  0.3105
 1654SOL    HW1 5097   1.002   1.467   2.487  1.6197  0.3279  1.1688
 1654SOL    HW2 5098   1.118   1.397   2.420 -1.0581 -1.7869 -1.5062
 1655SOL     OW 5099   0.059   2.420   1.353  0.3621 -0.1172  0.0976
 1655SOL    HW1 5100   0.094   2.509   1.351 -0.8244  0.3664 -0.7363
 1655SOL    HW2 5101   0.129   2.365   1.317  0.9765  0.5283  0.2952
 1656SOL     OW 5102   3.709   1.074   2.584  0.2811  0.1907 -0.3558
 1656SOL    HW1 5103   3.636   1.012   2.581  0.8272 -0.5526  0.9287
 1656SOL    HW2 5104   3.676   1.152   2.538 -1.5378  0.0921  0.6723
 1657SOL     OW 5105   2.623   2.252   0.804  0.4232 -0.5737  0.5068
 1657SOL    HW1 5106   2.717   2.261   0.789  0.5246  1.9624  2.1166
 1657SOL    HW2 5107   2.615   2.231   0.897 -0.6076  0.4867  0.6814
 1658SOL     OW 5108   0.741   0.746   1.196  0.1819  0.5493  0.2846
 1658SOL    HW1 5109   0.821   0.797   1.187  0.6716 -0.5781 -3.1663
 1658SOL    HW2 5110   0.676   0.808   1.229  1.3830  2.7510 -1.2703
 1659SOL     OW 5111   1.574   2.614   1.763 -0.2915 -0.3434  0.2618
 1659SOL    HW1 5112   1.608   2.527   1.743 -2.8680 -1.1033 -1.3384
 1659SOL    HW2 5113   1.652   2.667   1.779  1.6106 -2.0886 -2.3524
 1660SOL     OW 5114   1.095   2.309   3.694  0.3335 -0.4498 -0.5639
 1660SOL    HW1 5115   1.057   2.395   3.676 -1.7137 -1.0623  0.6147
 1660SOL    HW2 5116   1.024   2.247   3.678  1.2315 -1.7697  0.3667
 1661SOL     OW 5117   2.975   0.059   0.584  0.4989  0.6545 -0.4197
 1661SOL    HW1 5118   2.940  -0.006   0.524  0.5232  2.0438 -2.0313
 1661SOL    HW2 5119   2.899   0.090   0.634  0.3255  0.1115 -0.3444
 1662SOL     OW 5120   0.982   1.785   1.326  0.6994  0.0799 -0.2168
 1662SOL    HW1 5121   0.972   1.690   1.335  2.4476 -0.0430  1.0344
 1662SOL    HW2 5122   0.940   1.821   1.404  2.1424  0.1298  0.5723
 1663SOL     OW 5123   0.753   0.797   2.423 -0.0509  0.3928  0.6869
 1663SOL    HW1 5124   0.826   0.849   2.458  1.3220 -1.3014  0.5194
 1663SOL    HW2 5125   0.678   0.820   2.477  0.6623  2.0446  1.0119
 1664SOL     OW 5126   3.590   3.556   1.463 -0.1065  0.4458 -0.3525
 1664SOL    HW1 5127   3.593   3.648   1.489 -1.9431 -0.0853  2.2199
 1664SOL    HW2 5128   3.500   3.542   1.434  0.0568 -0.6108 -0.3901
 1665SOL     OW 5129   0.484   0.828   3.347 -0.1480 -0.2124  0.2203
 1665SOL    HW1 5130   0.531   0.912   3.351  1.4616 -1.0447 -0.0397
 1665SOL    HW2 5131   0.533   0.771   3.406 -2.3467 -0.4948  1.8965
 1666SOL     OW 5132   0.947   1.016   0.323  0.1819 -0.2892 -0.4692
 1666SOL    HW1 5133   0.887   0.967   0.379 -0.2107  1.6719  0.9377
 1666SOL    HW2 5134   0.896   1.092   0.294  1.6687  0.9123 -0.0449
 1667SOL     OW 5135   3.327   0.886   3.162 -0.0285 -0.1331 -0.5232
 1667SOL    HW1 5136   3.242   0.926   3.182  0.6997  1.5251 -0.6682
 1667SOL    HW2 5137   3.368   0.873   3.247 -0.5615 -1.3131 -0.4227
 1668SOL     OW 5138   1.875   3.203   0.401  0.0483  0.0572  0.1891
 1668SOL    HW1 5139   1.888   3.261   0.476 -1.6292  1.1077 -0.2879
 1668SOL    HW2 5140   1.964   3.177   0.376  0.7198  0.8556  1.6289
 1669SOL     OW 5141   1.592   0.748   3.140 -0.4457  0.3639 -0.0629
 1669SOL    HW1 5142   1.531   0.727   3.070  0.2027  1.4942 -1.0093
 1669SOL    HW2 5143   1.540   0.795   3.205 -0.5755  1.4832 -0.9484
 1670SOL     OW 5144   0.636   2.249   1.502  0.1415  0.0701 -0.2354
 1670SOL    HW1 5145   0.598   2.255   1.414 -0.8383 -0.0721  0.1660
 1670SOL    HW2 5146   0.589   2.315   1.553  0.1851 -0.3479  0.3577
 1671SOL     OW 5147   1.623   1.604   2.426 -0.7095  0.0299 -0.2130
 1671SOL    HW1 5148   1.715   1.595   2.451 -0.4127 -1.8174 -1.6655
 1671SOL    HW2 5149   1.613   1.696   2.404  1.0822  0.1135 -0.8930
 1672SOL     OW 5150   1.406   2.717   0.487 -0.1967  0.4264  0.2247
 1672SOL    HW1 5151   1.349   2.660   0.539 -1.0523  0.3386 -0.7818
 1672SOL    HW2 5152   1.350   2.747   0.416  1.1839 -0.1262 -1.1307
 1673SOL     OW 5153   2.147   3.484   1.031 -0.4032 -0.4070  0.6355
 1673SOL    HW1 5154   2.117   3.553   0.971 -0.9723 -0.2831  1.0535
 1673SOL    HW2 5155   2.152   3.405   0.977 -0.5931 -0.2267  0.3519
 1674SOL     OW 5156   2.588   2.406   2.239 -0.1891 -0.5481  0.3393
 1674SOL    HW1 5157   2.577   2.497   2.211 -1.8230 -0.3519  1.4411
 1674SOL    HW2 5158   2.510   2.361   2.207 -0.8977 -0.8510  2.3601
 1675SOL     OW 5159   1.235   2.211   3.472  0.2162 -0.3783  0.2642
 1675SOL    HW1 5160   1.170   2.264   3.519  0.8849  0.7185 -0.0007
 1675SOL    HW2 5161   1.305   2.196   3.535  1.4264  1.6595 -0.4776
 1676SOL     OW 5162   2.755   1.578   2.003 -0.0660  0.1499  0.2307
 1676SOL    HW1 5163   2.664   1.600   1.982 -0.0141  0.3869  0.2491
 1676SOL    HW2 5164   2.753   1.557   2.097 -0.3495 -1.1861 -0.0558
 1677SOL     OW 5165   2.950   3.134   2.183 -0.1715 -0.0420 -0.4663
 1677SOL    HW1 5166   2.987   3.164   2.266 -0.2772 -0.2860 -0.3296
 1677SOL    HW2 5167   2.916   3.046   2.202 -0.8028  0.1711 -0.5894
 1678SOL     OW 5168   1.043   2.832   2.776 -0.0775  0.0800 -0.7116
 1678SOL    HW1 5169   1.039   2.745   2.737  2.2563 -1.3166  1.7881
 1678SOL    HW2 5170   1.081   2.888   2.709  0.6958 -1.4093 -1.5478
 1679SOL     OW 5171   2.906   2.303   0.863 -0.2203 -0.4302  0.3915
 1679SOL    HW1 5172   2.873   2.366   0.927 -0.1554 -0.2340  0.2296
 1679SOL    HW2 5173   2.999   2.323   0.854 -0.3205 -0.1779 -0.0893
 1680SOL     OW 5174   0.601   0.669   0.294 -0.2863 -0.6024  0.2949
 1680SOL    HW1 5175   0.604   0.574   0.288 -1.2072 -0.5748 -0.9162
 1680SOL    HW2 5176   0.688   0.697   0.267  0.5979 -1.1306  2.3842
 1681SOL     OW 5177   2.760   3.006   3.182  0.4662  0.6377  0.8717
 1681SOL    HW1 5178   2.742   3.024   3.090  1.6040 -0.6325  0.3579
 1681SOL    HW2 5179   2.846   2.964   3.182  1.6492  2.7796  2.7413
 1682SOL     OW 5180   2.799   2.112   3.568 -0.6459 -0.2389 -0.4593
 1682SOL    HW1 5181   2.823   2.049   3.636  0.3019 -2.6575 -2.8371
 1682SOL    HW2 5182   2.881   2.158   3.549 -1.0714  0.9287  0.4825
 1683SOL     OW 5183   1.183   2.338   3.021 -0.1139  0.3722 -0.3623
 1683SOL    HW1 5184   1.238   2.327   3.098 -0.5567  1.4037  0.1155
 1683SOL    HW2 5185   1.173   2.433   3.011 -1.7876  0.2157 -0.4335
 1684SOL     OW 5186   2.557   0.470   1.026 -0.1595  0.2834 -0.7425
 1684SOL    HW1 5187   2.520   0.550   1.061 -1.5314 -0.7034  0.1750
 1684SOL    HW2 5188   2.628   0.447   1.087 -1.5353 -0.6084  0.5869
 1685SOL     OW 5189   2.802   3.435   2.408 -0.1760  0.4207 -0.0879
 1685SOL    HW1 5190   2.888   3.476   2.398  0.3116 -0.6543 -0.5798
 1685SOL    HW2 5191   2.757   3.488   2.473  1.5051  0.0269  1.4822
 1686SOL     OW 5192   0.273   2.699   2.665 -0.2548 -0.2344  0.4015
 1686SOL    HW1 5193   0.212   2.652   2.721  1.1656 -1.1597  1.2416
 1686SOL    HW2 5194   0.228   2.780   2.643 -2.4255 -1.5484 -0.3420
 1687SOL     OW 5195   1.975   2.269   3.080  0.0051  0.4156 -0.3644
 1687SOL    HW1 5196   2.006   2.187   3.041 -0.1988 -0.2444  0.8000
 1687SOL    HW2 5197   1.908   2.242   3.143  1.6660  1.1884  1.9059
 1688SOL     OW 5198   2.360   2.424   0.955 -0.4545  0.3383 -0.2038
 1688SOL    HW1 5199   2.313   2.347   0.989  1.6159 -0.5907  0.7174
 1688SOL    HW2 5200   2.371   2.481   1.031  1.2271 -0.1906 -0.0057
 1689SOL     OW 5201   1.768   0.031   0.328 -0.3267  1.1246 -0.0374
 1689SOL    HW1 5202   1.759   0.087   0.251  0.7387  1.6360  0.1889
 1689SOL    HW2 5203   1.858   0.001   0.326 -1.1139 -1.4386 -0.6889
 1690SOL     OW 5204   3.135   3.161   2.678 -0.4258  0.3093  0.4221
 1690SOL    HW1 5205   3.215   3.121   2.712 -0.0667  0.3556 -0.3452
 1690SOL    HW2 5206   3.073   3.158   2.751  0.4190  0.6820  1.1749
 1691SOL     OW 5207   2.026   0.273   0.450  0.1092 -0.4285  0.0618
 1691SOL    HW1 5208   2.078   0.337   0.402  1.0333 -0.6602  0.7260
 1691SOL    HW2 5209   2.079   0.194   0.451 -0.0752 -0.5574  1.0723
 1692SOL     OW 5210   0.016   0.511   2.440 -0.1894 -0.3280 -0.2129
 1692SOL    HW1 5211  -0.017   0.507   2.530 -0.7838 -0.1437 -0.4161
 1692SOL    HW2 5212   0.111   0.506   2.449 -0.3104 -3.7768  0.2137
 1693SOL     OW 5213   1.897   1.461   1.786 -0.1017 -0.6324  0.4031
 1693SOL    HW1 5214   1.976   1.500   1.750 -0.1239 -0.5645  0.4284
 1693SOL    HW2 5215   1.876   1.390   1.726 -2.3796  1.8837 -2.0246
 1694SOL     OW 5216   2.162   0.870   1.204  0.0063  0.1932 -0.0836
 1694SOL    HW1 5217   2.157   0.939   1.138  0.5813  0.5082  0.1963
 1694SOL    HW2 5218   2.176   0.789   1.154  2.8140  0.7040 -0.2700
 1695SOL     OW 5219   2.044   1.246   1.273  0.0782 -0.5885 -0.0884
 1695SOL    HW1 5220   2.108   1.291   1.328 -0.5184 -1.0546  1.0300
 1695SOL    HW2 5221   2.095   1.181   1.225  0.4798 -0.8798  0.7054
 1696SOL     OW 5222   3.517   0.466   3.104  0.4476 -0.5723  0.3536
 1696SOL    HW1 5223   3.473   0.383   3.119 -0.1942 -0.5146 -1.0258
 1696SOL    HW2 5224   3.554   0.490   3.189 -1.2826 -1.1488  1.3050
 1697SOL     OW 5225   0.101   1.631   0.487  0.5895 -0.1813 -0.1941
 1697SOL    HW1 5226   0.069   1.623   0.577 -0.9117  1.0218 -0.5828
 1697SOL    HW2 5227   0.122   1.541   0.461  0.7006 -0.5845  1.2332
 1698SOL     OW 5228   0.879   1.457   2.600 -0.2269 -0.2611  0.1456
 1698SOL    HW1 5229   0.834   1.385   2.644 -0.0936 -0.0471  0.6464
 1698SOL    HW2 5230   0.834   1.536   2.631 -0.9543 -0.1635 -1.0889
 1699SOL     OW 5231   1.909   1.314   0.970  0.1712 -0.5110 -0.2368
 1699SOL    HW1 5232   1.883   1.382   0.908 -0.7216 -0.5762  0.0501
 1699SOL    HW2 5233   1.902   1.232   0.920 -0.2379 -0.5326 -0.1491
 1700SOL     OW 5234   1.818   3.658   1.076  0.3057 -0.0125  0.4702
 1700SOL    HW1 5235   1.815   3.717   1.151 -0.6126  1.6733 -0.8425
 1700SOL    HW2 5236   1.898   3.683   1.029  0.3541 -0.3888  0.3478
 1701SOL     OW 5237   1.824   1.151   1.441 -0.1200  0.0671  0.2922
 1701SOL    HW1 5238   1.821   1.068   1.393  0.3731 -0.5799  1.3522
 1701SOL    HW2 5239   1.871   1.211   1.383 -0.8239 -0.2614 -0.6474
 1702SOL     OW 5240   1.239   3.222   3.096 -0.9060  0.7685 -0.1701
 1702SOL    HW1 5241   1.303   3.290   3.117  0.6056 -0.0564 -1.8577
 1702SOL    HW2 5242   1.234   3.222   3.000 -0.5813 -1.7034 -0.2641
 1703SOL     OW 5243   2.433   3.439   3.068  0.1275 -0.2723 -0.5022
 1703SOL    HW1 5244   2.468   3.527   3.053  0.4718 -0.4156 -0.5424
 1703SOL    HW2 5245   2.403   3.441   3.159  1.2550 -0.4809 -0.1024
 1704SOL     OW 5246   2.345   1.744   1.644  0.3307 -0.6925  0.2981
 1704SOL    HW1 5247   2.350   1.721   1.551 -1.8142 -0.6251  0.1146
 1704SOL    HW2 5248   2.418   1.805   1.657 -0.0725  0.3031 -1.6640
 1705SOL     OW 5249   1.242   3.332   3.475 -0.6042  0.7349 -0.1198
 1705SOL    HW1 5250   1.197   3.398   3.422  0.7185  1.2079 -0.6777
 1705SOL    HW2 5251   1.334   3.338   3.449 -0.4826 -1.5378 -0.3830
 1706SOL     OW 5252   0.458   2.753   0.367 -0.1826 -0.1884  0.1479
 1706SOL    HW1 5253   0.487   2.821   0.427  1.0450  0.9475 -1.6024
 1706SOL    HW2 5254   0.540   2.719   0.329 -0.8923 -1.0932 -0.6230
 1707SOL     OW 5255   0.543   2.136   2.678 -0.2930  0.3191  0.3893
 1707SOL    HW1 5256   0.536   2.217   2.628  2.9826  0.1646 -0.5732
 1707SOL    HW2 5257   0.550   2.164   2.769  2.6889  1.4249 -0.0589
 1708SOL     OW 5258   3.182   2.634   1.550  0.6162 -0.0163  0.7332
 1708SOL    HW1 5259   3.219   2.721   1.566  2.4501 -0.6550  0.2020
 1708SOL    HW2 5260   3.091   2.641   1.577 -0.1970  2.9636 -2.1253
 1709SOL     OW 5261   0.558   3.032   2.524 -0.2331  0.2824 -0.4353
 1709SOL    HW1 5262   0.603   3.072   2.450  0.7077 -0.1818 -0.1291
 1709SOL    HW2 5263   0.628   3.009   2.585 -0.9411  0.0874  0.3208
 1710SOL     OW 5264   2.378   1.457   0.375 -0.0363 -0.4079 -0.8869
 1710SOL    HW1 5265   2.298   1.509   0.380  0.2284 -0.0866  0.4348
 1710SOL    HW2 5266   2.441   1.513   0.330 -0.1096 -0.0702 -0.5666
 1711SOL     OW 5267   0.344   1.682   0.871  0.4722 -0.4173 -0.1123
 1711SOL    HW1 5268   0.405   1.737   0.921 -0.0575 -0.4786  0.6294
 1711SOL    HW2 5269   0.334   1.603   0.925  1.2311 -1.2658 -1.1635
 1712SOL     OW 5270   1.422   2.766   1.924 -0.5343  0.2841  0.5016
 1712SOL    HW1 5271   1.332   2.777   1.893 -0.3328 -0.4264 -0.3590
 1712SOL    HW2 5272   1.468   2.727   1.851 -0.5331 -3.5598  2.3265
 1713SOL     OW 5273   2.684   3.574   2.008 -0.7048 -0.0957  0.3491
 1713SOL    HW1 5274   2.596   3.536   2.006 -0.4628 -0.7096  0.8512
 1713SOL    HW2 5275   2.736   3.511   2.059 -0.1017  0.5240  0.5150
 1714SOL     OW 5276   2.385   0.352   3.056 -0.1214  0.1224 -0.1980
 1714SOL    HW1 5277   2.302   0.337   3.101  0.7689 -2.3185  0.7969
 1714SOL    HW2 5278   2.440   0.395   3.122  0.4860 -1.4874  0.3967
 1715SOL     OW 5279   2.460   2.661   0.575  0.2874  0.2635  0.0697
 1715SOL    HW1 5280   2.390   2.606   0.610  1.3192 -1.1767 -0.0530
 1715SOL    HW2 5281   2.425   2.750   0.578 -1.3682 -0.3764  0.4229
 1716SOL     OW 5282   1.130   3.570   1.352 -1.2057  0.5551 -0.2295
 1716SOL    HW1 5283   1.106   3.496   1.408 -0.9063  1.8400  1.6947
 1716SOL    HW2 5284   1.204   3.538   1.301 -0.1557 -0.0726  1.6010
 1717SOL     OW 5285   2.229   2.513   1.266  0.1111  0.2802  0.0322
 1717SOL    HW1 5286   2.156   2.457   1.241  0.2719 -0.0295  0.2510
 1717SOL    HW2 5287   2.189   2.597   1.288 -0.4430 -0.5353  2.3347
 1718SOL     OW 5288   2.852   2.815   2.667  1.0162 -0.1621  0.2235
 1718SOL    HW1 5289   2.908   2.772   2.732  0.7106  0.6828  1.0657
 1718SOL    HW2 5290   2.900   2.806   2.584 -0.1738 -4.4106 -0.2669
 1719SOL     OW 5291   2.671   0.827   3.076  0.6219 -0.5372  0.0680
 1719SOL    HW1 5292   2.719   0.777   3.011  0.5572 -3.0040  1.7777
 1719SOL    HW2 5293   2.586   0.782   3.083 -0.1068  0.8364  0.5118
 1720SOL     OW 5294   0.504   1.150   2.863 -0.1944 -0.2856  0.1104
 1720SOL    HW1 5295   0.487   1.245   2.862  0.2007 -0.2061 -1.4201
 1720SOL    HW2 5296   0.425   1.112   2.825  0.4284 -0.3962 -1.1234
 1721SOL     OW 5297   0.264   0.097   3.665  0.4904 -0.2053  0.0471
 1721SOL    HW1 5298   0.323   0.022   3.679 -1.0921 -1.4468  0.3559
 1721SOL    HW2 5299   0.200   0.091   3.736  0.0855  1.2389 -0.1605
 1722SOL     OW 5300   0.048   3.104   0.842 -0.0267 -0.2872  0.3771
 1722SOL    HW1 5301   0.084   3.023   0.878  2.8758  0.2406 -1.0122
 1722SOL    HW2 5302   0.008   3.078   0.759 -0.1892 -0.4853  0.5188
 1723SOL     OW 5303   1.617   0.731   2.310 -0.1742 -0.8833 -0.2668
 1723SOL    HW1 5304   1.641   0.812   2.356 -0.4644 -1.4978  1.0271
 1723SOL    HW2 5305   1.680   0.725   2.239  0.2060  0.1956 -0.0488
 1724SOL     OW 5306   2.475   3.621   2.729  0.7920 -0.8073  0.8820
 1724SOL    HW1 5307   2.395   3.613   2.782  0.9547 -2.0260  0.9691
 1724SOL    HW2 5308   2.472   3.711   2.695  0.2728 -0.2612  2.2922
 1725SOL     OW 5309   2.477   3.676   0.576  0.2110  0.1749  0.3526
 1725SOL    HW1 5310   2.499   3.651   0.486  0.0028  0.5628  0.1954
 1725SOL    HW2 5311   2.541   3.629   0.629  2.3197  2.2957 -0.1687
 1726SOL     OW 5312   0.110   0.842   1.687 -0.0743 -0.6576  0.3141
 1726SOL    HW1 5313   0.096   0.813   1.597  3.3792 -1.1068 -0.2376
 1726SOL    HW2 5314   0.082   0.768   1.741 -0.8016 -0.9670 -0.4646
 1727SOL     OW 5315   3.637   1.546   1.040 -0.4719 -0.5233 -0.1005
 1727SOL    HW1 5316   3.615   1.453   1.041 -2.2453 -0.1507  1.0114
 1727SOL    HW2 5317   3.553   1.590   1.052  0.4689  1.1842  0.6167
 1728SOL     OW 5318   2.290   2.878   0.536  0.4804 -0.0833  0.3160
 1728SOL    HW1 5319   2.225   2.876   0.466 -0.3058 -0.5975  1.0448
 1728SOL    HW2 5320   2.326   2.967   0.533  0.0614  0.0702 -0.3710
 1729SOL     OW 5321   3.538   3.036   2.591  0.4246 -0.8214  0.1816
 1729SOL    HW1 5322   3.514   3.128   2.596  0.0040 -0.8853 -0.4670
 1729SOL    HW2 5323   3.499   3.006   2.508  1.2421 -1.3747 -0.0137
 1730SOL     OW 5324   3.145   0.924   1.806  1.2442 -0.1374  0.6610
 1730SOL    HW1 5325   3.170   1.014   1.827 -0.3677  0.4447  0.2915
 1730SOL    HW2 5326   3.063   0.910   1.855  1.2183 -1.2328  0.3408
 1731SOL     OW 5327   0.697   1.701   3.414 -0.3328 -0.6928 -0.6730
 1731SOL    HW1 5328   0.636   1.764   3.453  0.4077 -0.2438 -0.2268
 1731SOL    HW2 5329   0.735   1.655   3.489  2.5845  1.5239 -0.5971
 1732SOL     OW 5330   3.402   0.666   0.876  0.0984  0.6826 -0.6615
 1732SOL    HW1 5331   3.371   0.652   0.965  0.5082 -1.0716 -0.7571
 1732SOL    HW2 5332   3.463   0.594   0.860 -2.1665 -0.8366 -3.3596
 1733SOL     OW 5333   1.620   2.190   1.561  0.0739 -0.4823  0.8690
 1733SOL    HW1 5334   1.526   2.199   1.577  0.2932 -1.7051  3.3258
 1733SOL    HW2 5335   1.628   2.182   1.466 -2.3901 -1.3126  0.6690
 1734SOL     OW 5336   0.143   1.277   1.060 -0.2880 -0.4859 -0.1183
 1734SOL    HW1 5337   0.064   1.225   1.042  0.2448 -1.4854  0.3206
 1734SOL    HW2 5338   0.215   1.215   1.050  0.2045 -0.5934  3.1572
 1735SOL     OW 5339   0.749   1.628   3.654 -0.7256  0.1442 -0.1594
 1735SOL    HW1 5340   0.790   1.656   3.736 -1.3938  0.6133  0.0198
 1735SOL    HW2 5341   0.690   1.557   3.680  1.4214 -1.9805 -0.6884
 1736SOL     OW 5342   1.296   2.983   0.559 -0.3168 -0.1363 -0.4747
 1736SOL    HW1 5343   1.213   2.980   0.606  0.5551 -0.7497  1.1076
 1736SOL    HW2 5344   1.280   2.935   0.477 -1.9165  1.0901 -0.9249
 1737SOL     OW 5345   0.303   2.513   0.440 -0.7251  0.3216  0.3666
 1737SOL    HW1 5346   0.340   2.597   0.414  0.9323 -0.7481 -1.0106
 1737SOL    HW2 5347   0.273   2.526   0.529  5.0827  0.8820  2.7059
 1738SOL     OW 5348   2.143   0.720   0.947 -0.1025  0.3339 -0.0778
 1738SOL    HW1 5349   2.053   0.753   0.951 -0.4534 -0.5629  3.5983
 1738SOL    HW2 5350   2.195   0.795   0.918 -1.8777  1.1881 -1.2055
 1739SOL     OW 5351   3.086   1.445   0.635  0.1558  0.5189 -0.1964
 1739SOL    HW1 5352   3.018   1.469   0.698  2.0050  0.3707  1.9780
 1739SOL    HW2 5353   3.068   1.499   0.558 -1.8325  1.1737  0.6624
 1740SOL     OW 5354   2.095   2.737   1.332  0.0852 -0.1552 -0.5786
 1740SOL    HW1 5355   2.062   2.760   1.419 -0.3079  0.1578 -0.8022
 1740SOL    HW2 5356   2.126   2.821   1.296 -0.3499 -0.1616 -0.9830
 1741SOL     OW 5357   1.647   1.304   3.115  0.2955  0.7142 -0.9830
 1741SOL    HW1 5358   1.730   1.281   3.158  1.1712  0.9800 -2.4712
 1741SOL    HW2 5359   1.597   1.348   3.184  0.2104 -1.8557  0.7695
 1742SOL     OW 5360   0.832   2.881   1.614  0.4336 -0.4073  0.0835
 1742SOL    HW1 5361   0.893   2.936   1.566 -1.7358  0.5140 -1.8238
 1742SOL    HW2 5362   0.836   2.912   1.704  1.0854  1.1856 -0.4688
 1743SOL     OW 5363   3.657   3.519   2.419 -0.4953  0.2065 -0.1636
 1743SOL    HW1 5364   3.689   3.435   2.453 -1.2299 -0.4766 -1.0935
 1743SOL    HW2 5365   3.693   3.584   2.479 -1.0869 -0.8761  1.4411
 1744SOL     OW 5366   1.416   3.032   1.129 -0.1352 -0.1105 -0.5971
 1744SOL    HW1 5367   1.346   3.082   1.085  1.0336  0.9082 -1.3880
 1744SOL    HW2 5368   1.497   3.076   1.101  0.7856 -0.8347  0.8379
 1745SOL     OW 5369   1.356   1.505   1.422  0.1160  0.1377 -0.6554
 1745SOL    HW1 5370   1.385   1.563   1.492 -0.0779  1.8448 -1.9364
 1745SOL    HW2 5371   1.407   1.424   1.435  0.3116  0.5373  1.2257
 1746SOL     OW 5372   2.113   0.931   0.495  0.1613 -0.9345  0.2372
 1746SOL    HW1 5373   2.118   0.836   0.492  0.3514 -1.0016  1.6857
 1746SOL    HW2 5374   2.187   0.957   0.549  0.1463  0.0455 -0.1920
 1747SOL     OW 5375   1.473   3.480   0.773 -0.1933  0.0249  0.4706
 1747SOL    HW1 5376   1.449   3.571   0.754 -0.4096  0.2037  1.5704
 1747SOL    HW2 5377   1.433   3.430   0.701  1.4200  0.9443 -1.1367
 1748SOL     OW 5378   3.436   1.332   1.682  0.0246 -0.4675 -0.2117
 1748SOL    HW1 5379   3.500   1.338   1.611 -1.6249  1.5722 -1.6397
 1748SOL    HW2 5380   3.365   1.278   1.646  0.8185 -2.6739  1.3320
 1749SOL     OW 5381   3.110   3.617   0.070 -0.7404 -0.2032 -0.1922
 1749SOL    HW1 5382   3.040   3.624   0.006 -1.6003 -0.5858  0.6827
 1749SOL    HW2 5383   3.118   3.523   0.087  1.1649 -0.3393 -1.5310
 1750SOL     OW 5384   0.005   0.817   0.525  0.1011 -0.4399 -0.4522
 1750SOL    HW1 5385   0.051   0.755   0.581 -0.7768 -0.6037  0.1032
 1750SOL    HW2 5386  -0.020   0.766   0.448 -0.3858 -0.7187 -0.1151
 1751SOL     OW 5387   1.683   3.305   2.225  0.0314  0.5041  0.0365
 1751SOL    HW1 5388   1.599   3.291   2.180  2.1436 -1.3749 -3.8290
 1751SOL    HW2 5389   1.695   3.225   2.277 -0.4143  0.6834  0.4314
 1752SOL     OW 5390   0.600   1.769   1.428 -0.1065 -0.0528 -0.2896
 1752SOL    HW1 5391   0.616   1.810   1.343 -0.0900  1.7873  0.5496
 1752SOL    HW2 5392   0.538   1.699   1.410 -0.2702  0.4475 -1.7899
 1753SOL     OW 5393   0.657   0.562   3.676 -0.3736 -0.2290  0.2836
 1753SOL    HW1 5394   0.703   0.504   3.616  0.6659  0.2330  0.6139
 1753SOL    HW2 5395   0.651   0.512   3.758 -0.6851 -0.3823  0.1689
 1754SOL     OW 5396   0.963   1.511   0.340  0.0440  0.0723  0.3147
 1754SOL    HW1 5397   0.956   1.568   0.416 -2.4552 -0.6118  0.6862
 1754SOL    HW2 5398   0.876   1.513   0.301  0.9516 -0.5573 -1.8367
 1755SOL     OW 5399   2.482   3.459   2.367 -0.1677 -0.2199  0.0057
 1755SOL    HW1 5400   2.563   3.486   2.323 -1.3641 -0.2700 -2.4015
 1755SOL    HW2 5401   2.414   3.512   2.326 -1.6553 -1.8089  0.3032
 1756SOL     OW 5402   2.394   0.758   2.770 -0.1285 -0.1592  0.1916
 1756SOL    HW1 5403   2.372   0.719   2.685 -1.6165  1.6654 -0.3180
 1756SOL    HW2 5404   2.453   0.830   2.749  2.7611 -2.0373  1.1438
 1757SOL     OW 5405   3.445   0.376   0.943 -0.1660  0.6170 -0.0767
 1757SOL    HW1 5406   3.518   0.313   0.951  0.3959  1.1947 -0.5351
 1757SOL    HW2 5407   3.421   0.397   1.033  1.0854  1.3744  0.1086
 1758SOL     OW 5408   0.144   2.578   0.860  0.0441 -0.6516  0.2838
 1758SOL    HW1 5409   0.065   2.535   0.893  0.1400 -3.0511 -2.2748
 1758SOL    HW2 5410   0.215   2.519   0.884  0.9239  0.6685  1.0948
 1759SOL     OW 5411   3.656   1.152   0.896 -0.0885  0.7726  0.1856
 1759SOL    HW1 5412   3.653   1.076   0.954  0.5114  0.6073  0.0066
 1759SOL    HW2 5413   3.605   1.126   0.819 -3.0220  1.8509  1.5861
 1760SOL     OW 5414   1.148   3.684   2.791  0.0384  0.4611  0.7073
 1760SOL    HW1 5415   1.240   3.660   2.783 -0.5811 -1.7616 -0.8913
 1760SOL    HW2 5416   1.133   3.747   2.720 -0.2163 -1.3067 -0.8894
 1761SOL     OW 5417   1.460   1.797   2.172 -0.2208 -0.6726  0.2172
 1761SOL    HW1 5418   1.508   1.822   2.094 -0.6758 -0.0387  0.1273
 1761SOL    HW2 5419   1.512   1.832   2.245  0.3559 -1.5225  0.2187
 1762SOL     OW 5420   0.896   3.270   2.532 -0.7064  0.0143 -0.4211
 1762SOL    HW1 5421   0.963   3.325   2.572  0.1787 -1.6529  0.4651
 1762SOL    HW2 5422   0.873   3.316   2.451 -0.6412  2.1079  0.6859
 1763SOL     OW 5423   3.620   3.363   3.061  0.6005  0.3549  0.5221
 1763SOL    HW1 5424   3.611   3.393   2.970  2.7028  1.7476  0.7041
 1763SOL    HW2 5425   3.713   3.344   3.071  0.6315  1.4065  2.7290
 1764SOL     OW 5426   1.409   3.231   0.569 -0.0013 -0.4284 -0.5519
 1764SOL    HW1 5427   1.468   3.222   0.494  1.4135 -1.5747  0.6363
 1764SOL    HW2 5428   1.362   3.148   0.573 -1.0367  0.1124 -0.8920
 1765SOL     OW 5429   0.477   3.485   3.117  0.4836 -0.2918 -0.4451
 1765SOL    HW1 5430   0.502   3.485   3.025 -0.2430 -1.4459 -0.6675
 1765SOL    HW2 5431   0.387   3.452   3.117  0.0758  0.7859  0.5813
 1766NA      NA 5432   2.425   0.171   0.559  0.6693  0.0342  0.1650
 1767NA      NA 5433   0.435   2.900   2.125  0.1383  0.1130  0.1636
   3.73560   3.73560   3.73560
