Protein in water
 5435
    0TYR      N    1   3.617   0.984   1.007  0.5134 -0.4768  1.0774
    0TYR     H1    2   3.634   1.029   1.099  3.3479  0.6114  0.1033
    0TYR     H2    3   3.711   0.956   0.975  0.5841 -1.7166  2.2925
    0TYR     H3    4   3.558   0.898   1.011 -1.4918  0.6327 -1.4101
    0TYR     CA    5   3.543   1.079   0.911 -0.0424 -0.0590 -0.2543
    0TYR     HA    6   3.458   1.120   0.963 -0.8066 -1.0025 -0.7281
    0TYR     CB    7   3.639   1.201   0.882  0.1405 -0.6644 -0.1043
    0TYR    HB1    8   3.582   1.260   0.807 -1.0377  0.9279  1.9362
    0TYR    HB2    9   3.738   1.162   0.850  0.8413  1.3838 -0.5595
    0TYR     CG   10   3.649   1.296   0.997 -0.4288  0.5521  0.3924
    0TYR    CD1   11   3.550   1.386   1.016  0.4592 -0.4978  0.1997
    0TYR    HD1   12   3.468   1.396   0.946  1.0791 -0.4401 -0.5278
    0TYR    CE1   13   3.576   1.492   1.104 -0.1416 -0.5839  0.1661
    0TYR    HE1   14   3.512   1.578   1.110 -1.7900 -1.8212  1.3390
    0TYR     CZ   15   3.686   1.490   1.193 -0.6083  0.7618  0.5350
    0TYR     OH   16   3.702   1.597   1.285  0.4454  0.2964 -0.0639
    0TYR     HH   17   3.750   1.552   1.355 -1.1395 -0.6289  0.4728
    0TYR    CD2   18   3.757   1.291   1.086  0.0669  0.4285  0.0331
    0TYR    HD2   19   3.829   1.213   1.065 -0.3313  0.8870 -3.6677
    0TYR    CE2   20   3.782   1.384   1.187  0.7186  0.3960 -0.3119
    0TYR    HE2   21   3.870   1.377   1.249  2.2089  1.5438 -2.1982
    0TYR      C   22   3.497   1.016   0.785 -0.1951 -0.5696  0.1343
    0TYR      O   23   3.563   0.921   0.744  0.6244  0.0893 -0.7610
    1TYR      N   24   3.395   1.069   0.718  0.1398  0.4618  0.3478
    1TYR     HN   25   3.335   1.140   0.754  0.1833 -0.1861  1.7555
    1TYR     CA   26   3.355   1.030   0.584  0.2842 -0.4977  0.1117
    1TYR     HA   27   3.414   0.962   0.525 -3.0978 -1.0083 -3.0803
    1TYR     CB   28   3.207   0.984   0.587  0.6078 -0.7960 -0.5035
    1TYR    HB1   29   3.173   0.976   0.482  1.5387 -2.0807 -0.7247
    1TYR    HB2   30   3.151   1.064   0.641 -0.8556 -2.4232  0.5281
    1TYR     CG   31   3.184   0.852   0.650  0.4416 -1.2123 -0.1471
    1TYR    CD1   32   3.235   0.742   0.588  0.3431 -0.4159 -0.0903
    1TYR    HD1   33   3.284   0.760   0.493 -1.0285  1.5587 -0.4858
    1TYR    CE1   34   3.208   0.618   0.640 -0.4512  0.1914 -0.3995
    1TYR    HE1   35   3.248   0.529   0.594 -0.9229 -0.1745 -0.1156
    1TYR     CZ   36   3.136   0.599   0.757  0.6161  0.0889 -0.0086
    1TYR     OH   37   3.110   0.473   0.807  0.1420 -0.0504  0.4039
    1TYR     HH   38   3.047   0.480   0.879 -1.6827 -2.0210 -0.8824
    1TYR    CD2   39   3.120   0.839   0.774  0.1733  0.5359 -0.4529
    1TYR    HD2   40   3.084   0.929   0.822  0.6111  0.1199  0.7123
    1TYR    CE2   41   3.088   0.712   0.825 -0.8774  0.2096 -0.0853
    1TYR    HE2   42   3.034   0.698   0.917  0.5299 -1.5485  0.5415
    1TYR      C   43   3.363   1.155   0.492  0.0775 -0.1261 -0.0097
    1TYR      O   44   3.403   1.138   0.377 -0.1404  0.4275 -0.1387
    2ASP      N   45   3.324   1.274   0.541  0.2096  0.2832 -0.0148
    2ASP     HN   46   3.272   1.272   0.626  2.9856  3.9845  2.0698
    2ASP     CA   47   3.309   1.393   0.455 -0.1054 -0.2832  0.2744
    2ASP     HA   48   3.266   1.368   0.359  0.2987 -1.6094  0.4202
    2ASP     CB   49   3.222   1.504   0.526  0.3388  0.6995 -0.4111
    2ASP    HB1   50   3.219   1.603   0.475  0.1821  0.4532 -0.8923
    2ASP    HB2   51   3.258   1.530   0.627 -0.3841  2.4528 -0.5840
    2ASP     CG   52   3.084   1.456   0.541  1.1758 -1.0068  0.2361
    2ASP    OD1   53   3.028   1.407   0.442  0.0693  0.2201  0.5407
    2ASP    OD2   54   3.031   1.459   0.658  0.6882 -0.1981 -0.0740
    2ASP      C   55   3.441   1.459   0.429 -1.2672  0.2323  0.0004
    2ASP      O   56   3.483   1.516   0.326 -0.0629  0.5116  0.0821
    3ASP      N   57   3.533   1.450   0.532 -0.1032  0.0967 -0.1725
    3ASP     HN   58   3.508   1.418   0.623  1.3025 -3.1378 -0.7710
    3ASP     CA   59   3.678   1.470   0.520 -0.0059  1.0224 -0.0490
    3ASP     HA   60   3.706   1.526   0.433  1.0353  1.7296  0.7133
    3ASP     CB   61   3.726   1.539   0.647 -0.5663 -0.1845  0.4100
    3ASP    HB1   62   3.835   1.562   0.643 -0.4897 -0.5096  0.6259
    3ASP    HB2   63   3.724   1.485   0.744  3.3047 -0.5868  0.4335
    3ASP     CG   64   3.649   1.663   0.666 -0.6520 -0.7862  0.7677
    3ASP    OD1   65   3.666   1.767   0.585 -0.0994  0.1390  0.2639
    3ASP    OD2   66   3.559   1.669   0.755 -0.2637 -0.6039 -0.0518
    3ASP      C   67   3.762   1.340   0.511  0.7449 -0.0629 -0.5000
    3ASP      O   68   3.717   1.234   0.545  0.9652 -0.4093 -0.1056
    4GLU      N   69   3.878   1.354   0.443 -0.7076  0.1286 -0.2577
    4GLU     HN   70   3.910   1.447   0.424 -1.6567  0.4764 -0.2160
    4GLU     CA   71   3.972   1.246   0.415 -0.1484 -0.4147  0.3821
    4GLU     HA   72   3.918   1.156   0.388 -3.0945  0.9231  1.4033
    4GLU     CB   73   4.067   1.291   0.296  0.1315  0.0222  0.0782
    4GLU    HB1   74   4.007   1.318   0.207  1.5376  0.2587 -0.8389
    4GLU    HB2   75   4.138   1.207   0.275 -0.4861 -0.0303 -1.9981
    4GLU     CG   76   4.155   1.418   0.319  0.8112 -0.3875 -0.1413
    4GLU    HG1   77   4.229   1.413   0.236 -0.3709 -0.2577 -1.2271
    4GLU    HG2   78   4.204   1.405   0.418 -2.0071 -3.4324  1.0628
    4GLU     CD   79   4.102   1.560   0.315  0.3365 -0.4784  0.0526
    4GLU    OE1   80   4.119   1.645   0.227 -0.2479 -0.0750  0.5265
    4GLU    OE2   81   4.028   1.593   0.410  0.1450 -0.0219 -0.5623
    4GLU      C   82   4.056   1.209   0.539  0.4254  0.3754  0.9708
    4GLU      O   83   4.115   1.100   0.542  0.5756 -0.3445 -0.3112
    5THR      N   84   4.052   1.294   0.640  1.0236 -0.5734 -0.7826
    5THR     HN   85   3.989   1.371   0.630 -1.4729 -2.3997 -0.1986
    5THR     CA   86   4.127   1.291   0.766 -0.4342 -0.4906  0.3120
    5THR     HA   87   4.230   1.319   0.747 -0.9610  1.0773 -0.3229
    5THR     CB   88   4.071   1.389   0.874 -0.0563 -0.3789 -0.1122
    5THR     HB   89   3.966   1.369   0.906 -0.1862  0.3174 -0.0797
    5THR    OG1   90   4.064   1.522   0.818  0.0965 -0.2604  0.0140
    5THR    HG1   91   3.999   1.567   0.873 -0.0518  0.3066 -0.6180
    5THR    CG2   92   4.165   1.393   0.998  0.0693  0.0451  0.3103
    5THR   HG21   93   4.107   1.413   1.091  0.1381 -0.1524  0.3946
    5THR   HG22   94   4.236   1.479   0.991  1.9930 -1.5154 -0.1611
    5THR   HG23   95   4.220   1.300   1.022 -3.3677 -2.6209 -1.1797
    5THR      C   96   4.116   1.155   0.826 -0.0185 -0.4227  0.0660
    5THR      O   97   4.009   1.108   0.863 -0.0800  0.2409  0.0046
    6GLY      N   98   4.228   1.090   0.828  0.8706 -0.4098  0.2808
    6GLY     HN   99   4.309   1.141   0.798  0.8154  1.4780  2.9779
    6GLY     CA  100   4.257   0.951   0.869  0.2449 -0.5349 -0.6818
    6GLY    HA1  101   4.355   0.926   0.832  1.6853  0.1546  2.3929
    6GLY    HA2  102   4.174   0.888   0.840  0.1785 -1.3924  1.2375
    6GLY      C  103   4.264   0.937   1.017  0.4119 -0.8742  0.5048
    6GLY      O  104   4.242   0.833   1.078  0.1330 -0.0920  0.3353
    7THR      N  105   4.297   1.040   1.093 -0.4370  0.6789  0.5314
    7THR     HN  106   4.312   1.133   1.060  1.1570  0.7256  1.2788
    7THR     CA  107   4.322   1.034   1.235  0.4079 -0.8598  0.8014
    7THR     HA  108   4.378   0.946   1.263 -1.6679 -1.9083  1.8964
    7THR     CB  109   4.412   1.143   1.280  0.1183 -1.0280 -0.3949
    7THR     HB  110   4.360   1.241   1.270  1.0825 -0.1785  1.9484
    7THR    OG1  111   4.537   1.145   1.211 -0.8354 -0.8325  0.2148
    7THR    HG1  112   4.592   1.209   1.256 -0.2849 -0.7879 -0.5009
    7THR    CG2  113   4.446   1.128   1.430 -0.6646 -0.7147 -0.2813
    7THR   HG21  114   4.509   1.040   1.453 -1.0102 -0.7680  0.5049
    7THR   HG22  115   4.356   1.133   1.494 -0.5155 -1.0016 -0.0507
    7THR   HG23  116   4.512   1.212   1.462 -0.6337 -0.6891 -0.4103
    7THR      C  117   4.196   1.040   1.319  0.0128 -0.1148  0.2537
    7THR      O  118   4.138   1.150   1.334  0.1972 -0.2127  0.0694
    8TRP      N  119   4.159   0.925   1.372  0.9112 -0.1618 -0.4681
    8TRP     HN  120   4.217   0.844   1.368 -1.0554 -1.8115  1.6204
    8TRP     CA  121   4.038   0.909   1.453  0.0325 -0.0237  0.2727
    8TRP     HA  122   3.960   0.967   1.408  0.4898  0.6066  0.2766
    8TRP     CB  123   3.978   0.762   1.463  0.6668 -1.0835 -0.8114
    8TRP    HB1  124   3.913   0.750   1.551  1.3240  1.8726  0.2162
    8TRP    HB2  125   4.066   0.695   1.475  1.0909 -0.4327 -0.1701
    8TRP     CG  126   3.904   0.717   1.330  0.4932  0.1453 -0.6493
    8TRP    CD1  127   3.894   0.762   1.203  0.0254 -0.0967  0.8885
    8TRP    HD1  128   3.966   0.815   1.142 -0.2308 -2.2891 -1.4788
    8TRP    NE1  129   3.789   0.695   1.129  0.1490 -0.1131 -0.2359
    8TRP    HE1  130   3.773   0.702   1.033  2.4973  1.0959 -0.6129
    8TRP    CE2  131   3.741   0.598   1.219  0.2574 -0.4615 -0.1056
    8TRP    CD2  132   3.808   0.611   1.344  0.1133  1.1340  0.3955
    8TRP    CE3  133   3.779   0.523   1.447 -0.5253  0.1079  0.7806
    8TRP    HE3  134   3.841   0.516   1.535  0.3079 -0.3826  0.1825
    8TRP    CZ3  135   3.689   0.420   1.429  0.4326  0.4299 -0.5915
    8TRP    HZ3  136   3.671   0.353   1.512 -0.5497  1.4245  0.0257
    8TRP    CZ2  137   3.636   0.505   1.206  0.1206  0.2382 -0.0070
    8TRP    HZ2  138   3.572   0.509   1.120  0.4113  0.9041 -0.2032
    8TRP    CH2  139   3.614   0.414   1.306  0.0520 -0.5699 -0.2397
    8TRP    HH2  140   3.538   0.337   1.294  1.4786 -1.6897 -2.8581
    8TRP      C  141   4.056   0.953   1.595 -0.0151 -0.0464  0.5174
    8TRP      O  142   3.967   0.973   1.671 -0.1641 -0.5801 -0.2665
    9TYR      N  143   4.179   0.953   1.642 -0.2002 -0.7237  0.2683
    9TYR     HN  144   4.250   0.927   1.576 -1.0704  0.0880 -1.0469
    9TYR     CA  145   4.214   0.996   1.777  0.2292 -0.1515  0.2845
    9TYR     HA  146   4.142   0.952   1.845  1.2080 -0.6639  1.0154
    9TYR     CB  147   4.356   0.933   1.806  0.4169 -0.5174 -0.3463
    9TYR    HB1  148   4.400   0.963   1.904 -0.8540  3.3165 -0.7914
    9TYR    HB2  149   4.432   0.972   1.735 -0.9833 -0.1322 -1.6883
    9TYR     CG  150   4.357   0.784   1.808  0.8003 -0.6166  0.5496
    9TYR    CD1  151   4.468   0.717   1.750 -0.4392 -0.1011 -0.2871
    9TYR    HD1  152   4.545   0.781   1.708 -0.1086  0.2738  0.8305
    9TYR    CE1  153   4.493   0.583   1.776  0.2578  0.7883  0.0234
    9TYR    HE1  154   4.567   0.534   1.714  1.2342  1.5738  0.5456
    9TYR     CZ  155   4.408   0.505   1.852  0.4944  0.1442 -0.4801
    9TYR     OH  156   4.428   0.368   1.869 -0.3344 -0.0372 -0.2841
    9TYR     HH  157   4.516   0.345   1.837  1.4821  3.4602  1.6724
    9TYR    CD2  158   4.263   0.704   1.877 -0.3804  0.1519  0.0467
    9TYR    HD2  159   4.172   0.739   1.925 -1.3381 -0.8419 -0.9784
    9TYR    CE2  160   4.289   0.567   1.906 -0.0463 -0.2624  0.4385
    9TYR    HE2  161   4.231   0.500   1.968  0.6116 -0.2928  1.0424
    9TYR      C  162   4.205   1.151   1.795 -0.6563 -0.3912 -0.5473
    9TYR    OT1  163   4.213   1.200   1.912 -0.4543  0.3441  0.4176
    9TYR    OT2  164   4.193   1.221   1.691  0.2621 -0.0488 -0.0580
   10SOL     OW  165   2.733   3.432   3.003  0.6067 -0.0684 -0.1228
   10SOL    HW1  166   2.768   3.489   2.934 -1.2238  1.3091  0.0314
   10SOL    HW2  167   2.807   3.419   3.063  2.2551 -1.3011 -2.2629
   11SOL     OW  168   0.450   1.464   1.832 -0.0050 -0.1605 -0.5165
   11SOL    HW1  169   0.479   1.373   1.820 -0.0301 -0.1668 -0.5285
   11SOL    HW2  170   0.487   1.490   1.917 -0.9097 -0.5400  0.0127
   12SOL     OW  171   3.260   2.029   0.782 -0.5642 -0.4769 -1.0067
   12SOL    HW1  172   3.283   1.990   0.866 -1.5885 -1.3182 -1.0885
   12SOL    HW2  173   3.230   1.955   0.728  0.0623  0.0481 -2.1091
   13SOL     OW  174   2.046   1.297   1.315 -0.8068  0.6018 -0.1772
   13SOL    HW1  175   2.084   1.268   1.398  1.2400  2.7882 -0.2532
   13SOL    HW2  176   2.032   1.391   1.326 -0.9302  0.8519 -2.1363
   14SOL     OW  177   2.257   2.183   3.183 -0.1246 -0.7391 -0.3241
   14SOL    HW1  178   2.218   2.226   3.259 -1.5984  0.0640 -1.4804
   14SOL    HW2  179   2.187   2.128   3.147  0.7772 -1.6936 -0.6770
   15SOL     OW  180   2.413   2.278   2.985 -0.5511 -0.3030 -0.1184
   15SOL    HW1  181   2.492   2.319   3.019  1.5563 -2.9402 -1.4667
   15SOL    HW2  182   2.366   2.249   3.064  0.5092  0.0962  0.6943
   16SOL     OW  183   2.099   2.537   3.182 -0.1857  0.3416 -0.0499
   16SOL    HW1  184   2.009   2.522   3.153 -0.0915 -2.0547  0.7560
   16SOL    HW2  185   2.136   2.595   3.115 -1.8473  0.1069 -1.2275
   17SOL     OW  186   2.524   2.560   1.794  0.7215 -0.3792  0.1629
   17SOL    HW1  187   2.480   2.603   1.868  1.3350  1.5550 -0.5176
   17SOL    HW2  188   2.455   2.552   1.728  0.3029 -1.6248  0.7191
   18SOL     OW  189   3.546   1.593   3.663  0.3674  0.0800  0.1394
   18SOL    HW1  190   3.560   1.635   3.748 -0.9511  0.4626  0.1916
   18SOL    HW2  191   3.457   1.618   3.638  0.3968 -0.7920 -0.9279
   19SOL     OW  192   2.691   0.265   1.199  0.0962  0.3789 -0.3612
   19SOL    HW1  193   2.702   0.199   1.130  0.8581 -0.5220  0.5935
   19SOL    HW2  194   2.639   0.335   1.157  0.9098  0.0684 -1.9768
   20SOL     OW  195   2.638   0.792   2.213 -0.0923 -0.1024 -0.4544
   20SOL    HW1  196   2.577   0.836   2.154 -0.6662 -0.7636 -0.3599
   20SOL    HW2  197   2.626   0.835   2.298 -0.6107 -0.4005 -0.3751
   21SOL     OW  198   3.556   2.156   2.304  0.1468 -0.4301 -0.6626
   21SOL    HW1  199   3.475   2.195   2.337  1.0494 -1.2187  2.9778
   21SOL    HW2  200   3.534   2.125   2.216 -2.9779  0.7919 -0.4420
   22SOL     OW  201   2.819   2.442   2.073 -0.1584 -0.0276  0.0636
   22SOL    HW1  202   2.786   2.435   2.163  1.1698  2.2006  0.8052
   22SOL    HW2  203   2.911   2.417   2.080 -0.0799  0.0284 -0.7218
   23SOL     OW  204   3.242   0.929   2.355 -0.4490 -0.0981 -0.2403
   23SOL    HW1  205   3.169   0.974   2.399 -0.8833  0.5330 -1.5716
   23SOL    HW2  206   3.236   0.956   2.264  1.7736  0.3502 -0.3071
   24SOL     OW  207   0.958   2.378   1.455  0.3776  0.0656  0.0865
   24SOL    HW1  208   1.018   2.449   1.432  1.2704 -0.5406  0.4734
   24SOL    HW2  209   0.910   2.411   1.531  1.4938 -0.0857  0.8984
   25SOL     OW  210   2.491   0.910   2.028  0.0723  0.0375  0.4911
   25SOL    HW1  211   2.574   0.957   2.022 -0.7335  1.3666 -0.9889
   25SOL    HW2  212   2.432   0.958   1.970 -1.0479 -2.3433 -0.4427
   26SOL     OW  213   2.378   3.315   0.920  0.3367 -0.2398 -0.1546
   26SOL    HW1  214   2.414   3.268   0.845 -0.2225 -1.6351  0.4118
   26SOL    HW2  215   2.305   3.260   0.950  0.6160  0.2143  1.4796
   27SOL     OW  216   2.902   0.432   1.282  0.2062  0.0333  0.3390
   27SOL    HW1  217   2.966   0.367   1.309  0.6876  0.0282 -0.7432
   27SOL    HW2  218   2.818   0.395   1.307  0.5815 -0.2364  1.2329
   28SOL     OW  219   1.450   1.213   0.928 -0.5561 -0.3258 -0.1747
   28SOL    HW1  220   1.516   1.200   0.996 -0.3970 -3.1148 -0.7507
   28SOL    HW2  221   1.479   1.157   0.856 -2.5309 -0.0977 -1.2014
   29SOL     OW  222   1.430   0.471   3.538  0.7839  0.5319 -0.4208
   29SOL    HW1  223   1.445   0.536   3.607  2.3436  0.0918 -0.3139
   29SOL    HW2  224   1.496   0.491   3.472 -1.1365  1.4101 -2.1801
   30SOL     OW  225   0.263   2.842   3.595 -0.0092  0.0507 -0.1454
   30SOL    HW1  226   0.276   2.749   3.578  3.3035  0.7092 -2.0843
   30SOL    HW2  227   0.270   2.883   3.509 -1.1196  2.1633  0.6960
   31SOL     OW  228   2.704   1.904   2.617  0.0128  0.1593  0.0777
   31SOL    HW1  229   2.663   1.820   2.597 -0.7828  0.2479  1.2069
   31SOL    HW2  230   2.632   1.958   2.650  0.5773  1.1712 -0.3064
   32SOL     OW  231   2.170   1.454   1.974 -0.1826 -0.4695  0.2113
   32SOL    HW1  232   2.153   1.530   1.918  1.4562 -0.9390 -1.0295
   32SOL    HW2  233   2.113   1.465   2.049 -0.0447  1.9569  0.0226
   33SOL     OW  234   1.608   1.847   1.454 -0.2011 -0.3341 -0.0247
   33SOL    HW1  235   1.606   1.914   1.386  0.7321 -0.6502 -0.3698
   33SOL    HW2  236   1.614   1.897   1.536 -1.2465  0.0421 -0.1684
   34SOL     OW  237   2.963   0.477   2.162  0.2941 -0.0062 -0.3863
   34SOL    HW1  238   3.025   0.536   2.204 -0.4690 -0.0776  0.9275
   34SOL    HW2  239   2.878   0.519   2.175 -0.3210 -1.5439  0.9696
   35SOL     OW  240   2.603   2.038   1.901 -0.1992  0.3071 -0.2836
   35SOL    HW1  241   2.607   1.943   1.902  0.2638  0.2349 -2.5280
   35SOL    HW2  242   2.510   2.058   1.903 -0.3318 -0.2479 -0.6167
   36SOL     OW  243   2.252   0.197   2.950  0.0423 -0.1505  0.0402
   36SOL    HW1  244   2.235   0.207   3.043  0.2932 -1.7444  0.2827
   36SOL    HW2  245   2.174   0.153   2.916 -0.2315  0.7962 -0.6036
   37SOL     OW  246   0.150   2.216   3.273  0.2532 -0.2865 -0.2414
   37SOL    HW1  247   0.095   2.146   3.309 -0.0920 -0.4133 -0.9831
   37SOL    HW2  248   0.094   2.257   3.206  0.0163  1.4565  0.9654
   38SOL     OW  249   0.704   2.920   0.865  0.1364 -0.3730  0.1578
   38SOL    HW1  250   0.634   2.876   0.816 -0.4635 -0.5459  1.1471
   38SOL    HW2  251   0.671   3.009   0.879 -0.5612 -0.8751  1.9108
   39SOL     OW  252   1.876   3.461   3.143 -0.1241  0.4510  0.1587
   39SOL    HW1  253   1.842   3.414   3.067  0.1384 -1.3913  1.1361
   39SOL    HW2  254   1.800   3.509   3.176 -0.4141  0.6996 -0.8076
   40SOL     OW  255   2.590   2.879   1.251  0.0256  0.4085 -0.2449
   40SOL    HW1  256   2.635   2.955   1.289 -0.4314 -0.3846  2.0601
   40SOL    HW2  257   2.645   2.804   1.275 -0.4341 -0.1682 -0.9369
   41SOL     OW  258   1.092   0.566   3.252 -0.2500 -0.7512 -0.8088
   41SOL    HW1  259   1.116   0.474   3.261 -2.4180 -1.4530 -1.5746
   41SOL    HW2  260   1.139   0.596   3.174 -0.2800 -1.4845 -1.1112
   42SOL     OW  261   0.385  -0.008   2.764  0.0840  0.3518 -0.0706
   42SOL    HW1  262   0.458   0.029   2.714  0.6359  1.4025  1.4238
   42SOL    HW2  263   0.312  -0.010   2.702  1.6680 -2.1055 -2.0561
   43SOL     OW  264   2.523   3.476   1.872  0.0197  0.2921  0.6523
   43SOL    HW1  265   2.476   3.542   1.821  0.5349  1.8401  2.0920
   43SOL    HW2  266   2.580   3.527   1.930  0.8784 -1.4538  1.4060
   44SOL     OW  267   1.611   1.818   0.986  0.7267 -0.1458  0.2537
   44SOL    HW1  268   1.669   1.746   0.963  1.3767  0.5235 -0.2581
   44SOL    HW2  269   1.523   1.779   0.986  1.1422 -1.1028  0.7673
   45SOL     OW  270   2.915   2.564   1.126  0.2586  0.4075 -0.6167
   45SOL    HW1  271   2.964   2.509   1.065  1.3180  0.3768  0.2361
   45SOL    HW2  272   2.823   2.543   1.108  0.6047 -0.8175 -1.0605
   46SOL     OW  273   0.829   0.162   2.644 -0.2748  0.1869 -0.4679
   46SOL    HW1  274   0.830   0.218   2.566 -2.1034  0.2622 -0.4929
   46SOL    HW2  275   0.891   0.203   2.704 -0.8441  1.6959 -0.8673
   47SOL     OW  276   1.606   0.998   1.807  0.2478  0.0598  0.1542
   47SOL    HW1  277   1.561   1.080   1.788 -0.6722 -0.6390 -0.8069
   47SOL    HW2  278   1.549   0.930   1.769  1.4397 -0.9534  0.1209
   48SOL     OW  279   3.443   1.664   1.380  0.3126 -0.1633  0.0564
   48SOL    HW1  280   3.435   1.650   1.474 -1.1782 -1.3456 -0.1947
   48SOL    HW2  281   3.524   1.620   1.355  0.0132 -1.0473  0.6032
   49SOL     OW  282   0.750   3.479   2.028 -0.0110 -0.4898  0.5375
   49SOL    HW1  283   0.772   3.500   2.119 -0.6029 -1.1319  0.8371
   49SOL    HW2  284   0.715   3.390   2.031 -1.2661 -0.0464 -0.1187
   50SOL     OW  285   2.129   0.229   0.127  0.1786  0.9501  0.2363
   50SOL    HW1  286   2.209   0.277   0.148  1.0943  0.2334 -1.4301
   50SOL    HW2  287   2.081   0.287   0.069 -1.7442  2.3888  3.0129
   51SOL     OW  288   1.908   1.124   1.166 -0.1129  0.2563  0.0729
   51SOL    HW1  289   1.993   1.087   1.142  0.0095  1.4767 -1.5548
   51SOL    HW2  290   1.931   1.198   1.223 -0.0242  0.7956 -0.6386
   52SOL     OW  291   1.344   1.271   3.728  0.1432 -0.1624 -0.4929
   52SOL    HW1  292   1.353   1.200   3.664  0.8223  0.4897 -1.1349
   52SOL    HW2  293   1.432   1.305   3.739  0.4504 -1.5385  2.3492
   53SOL     OW  294   1.787   0.138   3.152  0.0385 -0.0184 -0.4263
   53SOL    HW1  295   1.752   0.151   3.064 -0.4328  0.0067 -0.2369
   53SOL    HW2  296   1.743   0.060   3.185  0.0254  0.1132 -0.1229
   54SOL     OW  297   3.656   0.153   1.043 -0.3272  0.4144  0.5142
   54SOL    HW1  298   3.563   0.147   1.021 -0.8567  0.4164  2.5223
   54SOL    HW2  299   3.689   0.227   0.992 -1.7304  1.1978  0.7065
   55SOL     OW  300   3.072   0.983   1.531  0.2140 -0.1834  0.4048
   55SOL    HW1  301   3.153   0.963   1.578  0.4419 -0.7808 -0.2250
   55SOL    HW2  302   3.101   1.026   1.450 -0.1420  0.3052  0.5353
   56SOL     OW  303   0.717   3.473   3.097  0.2444  0.1341 -0.1262
   56SOL    HW1  304   0.785   3.422   3.141 -0.4369 -0.9347 -0.2757
   56SOL    HW2  305   0.699   3.426   3.016 -0.7895  0.2888 -0.0105
   57SOL     OW  306   1.590   2.036   1.211  0.5233  0.3688  0.3039
   57SOL    HW1  307   1.647   2.082   1.149 -0.7590  0.6294 -0.7497
   57SOL    HW2  308   1.600   1.944   1.188 -0.3040  0.4936 -0.6780
   58SOL     OW  309   0.988   1.817   1.016  0.4609 -0.2814  0.1303
   58SOL    HW1  310   0.947   1.752   1.072  1.2365 -0.1248  0.8974
   58SOL    HW2  311   1.028   1.880   1.076  0.1522  0.6401 -0.5942
   59SOL     OW  312   3.447   2.099   0.083 -0.0556  0.3151  0.0557
   59SOL    HW1  313   3.543   2.098   0.085 -0.0209  1.6885 -0.3303
   59SOL    HW2  314   3.421   2.075   0.172  0.6380 -0.1152  0.1519
   60SOL     OW  315   2.974   1.844   3.306 -0.4264  0.0494  0.2431
   60SOL    HW1  316   3.060   1.810   3.330 -0.2123  0.2926 -0.1808
   60SOL    HW2  317   2.989   1.893   3.226 -0.9395  0.1977  0.2368
   61SOL     OW  318   1.968   1.489   2.701 -0.3975 -0.0247  0.2277
   61SOL    HW1  319   2.007   1.552   2.639 -1.5348 -0.0557 -0.5521
   61SOL    HW2  320   2.009   1.405   2.679 -1.8599 -0.3361 -1.5442
   62SOL     OW  321   0.082   1.964   2.510 -0.3579 -0.3696  0.1869
   62SOL    HW1  322   0.106   1.993   2.423  0.2837 -0.9253  0.1790
   62SOL    HW2  323   0.138   2.015   2.569 -0.8255  0.0428  0.2870
   63SOL     OW  324   3.462   1.939   2.599  0.4389  0.5139  0.0199
   63SOL    HW1  325   3.480   1.905   2.512 -0.3509 -2.2009  0.8285
   63SOL    HW2  326   3.525   1.895   2.656 -1.2260 -0.4138  1.2545
   64SOL     OW  327   1.066   3.574   2.530 -0.2167  0.1405 -0.0373
   64SOL    HW1  328   1.105   3.496   2.491 -1.8348 -0.8570  0.2515
   64SOL    HW2  329   1.066   3.556   2.624  1.9127  1.7198  0.3510
   65SOL     OW  330   3.049   3.568   3.546  0.2463  0.6503  0.0279
   65SOL    HW1  331   3.083   3.642   3.597 -0.6469  0.6762  0.6024
   65SOL    HW2  332   2.995   3.609   3.478 -0.1141  0.5450  0.2447
   66SOL     OW  333   1.754   0.347   3.338 -0.2152  0.2545 -0.1002
   66SOL    HW1  334   1.767   0.281   3.270 -0.0756 -0.2602  0.4121
   66SOL    HW2  335   1.840   0.355   3.380 -0.1604  0.9742 -0.3351
   67SOL     OW  336   2.919   3.287   1.199 -0.3086 -0.5299  0.3071
   67SOL    HW1  337   3.004   3.302   1.240 -0.5523  1.6890  0.1407
   67SOL    HW2  338   2.941   3.260   1.110  0.2450  0.0131  0.2668
   68SOL     OW  339   0.641   0.139   3.312  0.1084 -0.7518 -0.1387
   68SOL    HW1  340   0.696   0.176   3.381  0.0375  2.1795 -1.4614
   68SOL    HW2  341   0.676   0.052   3.297  2.1248 -0.3012  1.4479
   69SOL     OW  342   2.906   1.220   2.206 -0.4410 -0.0832 -0.1726
   69SOL    HW1  343   2.963   1.285   2.246  0.1138 -0.4945 -0.2848
   69SOL    HW2  344   2.887   1.255   2.119 -2.3286  1.2238  0.6804
   70SOL     OW  345   2.786   2.700   1.348  0.8253 -0.3127  0.2257
   70SOL    HW1  346   2.841   2.636   1.302  1.1294 -0.0891  0.2717
   70SOL    HW2  347   2.845   2.740   1.412  0.6414  0.0342  0.1777
   71SOL     OW  348   1.754   2.589   1.127 -0.5358  0.3785 -0.0466
   71SOL    HW1  349   1.780   2.529   1.197 -0.6931  0.1091 -0.2156
   71SOL    HW2  350   1.837   2.614   1.085 -0.6183 -2.1823 -1.9792
   72SOL     OW  351   1.280   2.019   2.633  0.1239  0.4969 -0.1797
   72SOL    HW1  352   1.337   1.964   2.579  4.0259 -1.0256  4.7376
   72SOL    HW2  353   1.199   1.970   2.640  2.4353 -3.6129  1.6743
   73SOL     OW  354   1.227   3.079   0.530  0.1777  0.3995  0.7576
   73SOL    HW1  355   1.174   3.048   0.604  1.1472 -0.5732  1.0828
   73SOL    HW2  356   1.165   3.089   0.458 -0.3653 -1.3422  0.9401
   74SOL     OW  357   1.144   3.645   0.820 -0.3581  0.4371  0.4948
   74SOL    HW1  358   1.140   3.584   0.893 -1.6913 -0.6649 -0.4407
   74SOL    HW2  359   1.237   3.653   0.800 -0.1537 -1.5427  0.4555
   75SOL     OW  360   1.113   2.804   2.503  0.6473 -0.3125 -0.0859
   75SOL    HW1  361   1.063   2.728   2.533 -3.0514  2.1719  0.7083
   75SOL    HW2  362   1.168   2.771   2.432 -0.5351 -3.7163  0.4121
   76SOL     OW  363   2.287   1.779   0.295  0.1570 -0.8671  0.1935
   76SOL    HW1  364   2.231   1.702   0.285  2.1808 -2.1746 -1.8258
   76SOL    HW2  365   2.376   1.745   0.289  1.1575  1.4899  0.6523
   77SOL     OW  366   3.369   1.456   2.039 -0.4137  0.7748  0.7925
   77SOL    HW1  367   3.328   1.504   2.111  2.0333  3.1181  0.7455
   77SOL    HW2  368   3.463   1.469   2.051  0.2042 -1.1788 -1.2450
   78SOL     OW  369   0.790   0.974   3.261  0.7725 -0.1202  0.0655
   78SOL    HW1  370   0.741   1.055   3.272 -0.7155 -0.6628 -1.9572
   78SOL    HW2  371   0.867   0.998   3.210  1.4597  0.3390  1.2782
   79SOL     OW  372   1.187   1.087   2.045 -0.1670 -0.5803 -0.0301
   79SOL    HW1  373   1.149   1.031   2.113  0.2098  1.1556  1.6952
   79SOL    HW2  374   1.281   1.083   2.061 -0.0027 -0.7874 -0.9989
   80SOL     OW  375   0.247   1.752   2.906  0.3551 -0.3191  0.8553
   80SOL    HW1  376   0.236   1.847   2.917  0.5665 -0.3185  1.0598
   80SOL    HW2  377   0.315   1.744   2.839  0.6478 -0.3276  1.1541
   81SOL     OW  378   1.415   0.380   2.564 -0.0697  0.0199  0.5397
   81SOL    HW1  379   1.397   0.448   2.500 -0.8148 -0.8915 -0.2393
   81SOL    HW2  380   1.506   0.355   2.547  0.1847  0.7417  0.7782
   82SOL     OW  381   0.336   2.401   3.306  0.2598 -0.1303 -0.3482
   82SOL    HW1  382   0.262   2.340   3.305  0.3984 -0.3012 -0.3488
   82SOL    HW2  383   0.380   2.387   3.222  0.2834 -0.0181 -0.3544
   83SOL     OW  384   1.778   2.460   0.406 -0.6696  0.0606 -0.1294
   83SOL    HW1  385   1.705   2.494   0.355  0.5949  2.3345 -0.5350
   83SOL    HW2  386   1.739   2.437   0.491 -1.9502  0.7313 -0.5084
   84SOL     OW  387   1.576   0.643   0.007  0.0476 -0.2451  0.3715
   84SOL    HW1  388   1.600   0.723   0.054  0.8458 -1.9280  3.0149
   84SOL    HW2  389   1.658   0.612  -0.031 -0.0766 -0.3399  0.1767
   85SOL     OW  390   1.256   0.143   1.219  0.1567  0.1525  0.7017
   85SOL    HW1  391   1.332   0.118   1.167 -0.2462  0.9456 -0.3098
   85SOL    HW2  392   1.284   0.132   1.310  1.0385 -0.8056  0.3373
   86SOL     OW  393   2.598   3.281   1.692 -0.4821  0.8417 -0.5498
   86SOL    HW1  394   2.694   3.285   1.700 -0.5052 -0.5852  0.8463
   86SOL    HW2  395   2.566   3.344   1.756 -0.4841 -0.5127  0.8185
   87SOL     OW  396   0.423   3.272   3.149  0.2878  0.2844  0.3620
   87SOL    HW1  397   0.434   3.339   3.217 -0.4237  0.9294 -0.1338
   87SOL    HW2  398   0.434   3.321   3.067 -0.1674 -0.2271 -0.0061
   88SOL     OW  399   3.458   1.129   1.721  0.0660 -0.2219 -0.4792
   88SOL    HW1  400   3.505   1.186   1.781 -1.5330  0.6741 -0.0293
   88SOL    HW2  401   3.404   1.074   1.777  1.3807 -2.0639 -0.9205
   89SOL     OW  402   1.340   0.916   1.673 -0.3746  0.2200 -0.8027
   89SOL    HW1  403   1.304   0.882   1.591  0.7499 -2.0779 -0.4374
   89SOL    HW2  404   1.283   0.880   1.741  0.0583  0.1673 -0.4650
   90SOL     OW  405   3.323   0.777   3.444 -0.0328  0.1588  0.1151
   90SOL    HW1  406   3.291   0.865   3.464  1.1786  0.6367  0.0565
   90SOL    HW2  407   3.309   0.727   3.524  0.6032  0.8165  0.6481
   91SOL     OW  408   0.814   0.968   0.608 -0.9066  0.5172  0.2471
   91SOL    HW1  409   0.820   0.943   0.516  1.2271 -1.0427  0.7194
   91SOL    HW2  410   0.861   1.051   0.613 -1.0696  0.6302 -0.0806
   92SOL     OW  411   2.253   1.265   2.960  0.5367 -0.0855  0.7318
   92SOL    HW1  412   2.257   1.210   2.882  0.3051 -0.0941  0.7257
   92SOL    HW2  413   2.160   1.284   2.971  0.5666 -0.1022  1.0170
   93SOL     OW  414   1.992   2.649   0.346  0.6943 -0.5272 -0.1708
   93SOL    HW1  415   1.923   2.586   0.327  0.3515 -0.0658 -0.4811
   93SOL    HW2  416   1.994   2.656   0.441  0.0370 -0.2374 -0.1774
   94SOL     OW  417  -0.024   0.285   2.875  0.0862  0.5712  0.6513
   94SOL    HW1  418  -0.024   0.304   2.782 -0.9155 -1.8287  0.0925
   94SOL    HW2  419   0.068   0.289   2.901  1.0193 -3.1317 -1.4924
   95SOL     OW  420   1.755   0.237   0.286 -0.2044 -0.3593 -0.0036
   95SOL    HW1  421   1.791   0.159   0.244  0.9535 -1.4674  2.7404
   95SOL    HW2  422   1.798   0.311   0.242  3.0824 -1.5328  0.9010
   96SOL     OW  423   1.694   3.681   2.353  0.5418  0.2246 -0.0326
   96SOL    HW1  424   1.675   3.588   2.346 -1.2384  0.2450  2.8281
   96SOL    HW2  425   1.789   3.685   2.365  0.8098 -1.0562 -1.4707
   97SOL     OW  426   0.921   2.604   3.484  0.0578  0.0945  0.0979
   97SOL    HW1  427   0.920   2.621   3.578  1.1825  0.3007  0.0895
   97SOL    HW2  428   1.011   2.578   3.466 -0.1403  0.0962 -0.9341
   98SOL     OW  429   2.166   2.127   2.873 -0.4203 -0.3071 -0.1990
   98SOL    HW1  430   2.209   2.212   2.882 -0.8874  0.1016 -1.5679
   98SOL    HW2  431   2.112   2.135   2.794  1.1381 -2.5520 -1.6112
   99SOL     OW  432   3.214   3.624   1.911  0.2088  0.1684 -0.0011
   99SOL    HW1  433   3.291   3.602   1.859  0.2038  0.2704 -0.0502
   99SOL    HW2  434   3.179   3.539   1.938 -0.4508  0.0583 -1.1268
  100SOL     OW  435   1.054   2.820   1.007 -0.1507  0.4309 -0.2769
  100SOL    HW1  436   0.985   2.753   1.007 -0.2303  0.4032  2.4329
  100SOL    HW2  437   1.011   2.898   1.042  0.1720  1.7297 -2.5730
  101SOL     OW  438   3.061   2.456   0.951  0.0592 -0.4180 -0.2300
  101SOL    HW1  439   3.059   2.524   0.884 -0.6981 -0.1768  0.0248
  101SOL    HW2  440   3.122   2.391   0.918  0.9751  0.4980 -0.3697
  102SOL     OW  441   1.652   2.962   2.840 -0.7564  0.0951  0.1681
  102SOL    HW1  442   1.739   2.998   2.824 -0.4215 -0.9186 -0.4309
  102SOL    HW2  443   1.592   3.027   2.802 -0.2097  0.3358 -0.3049
  103SOL     OW  444   0.321   3.477   0.963  0.0501 -0.7261 -0.1829
  103SOL    HW1  445   0.370   3.422   1.023 -1.5962 -0.6389  1.3386
  103SOL    HW2  446   0.241   3.428   0.945  0.7419 -1.0383 -2.8785
  104SOL     OW  447   2.546   0.838   3.550 -0.3330 -0.0093  0.2097
  104SOL    HW1  448   2.536   0.745   3.567 -0.8896 -0.1829 -0.9595
  104SOL    HW2  449   2.506   0.851   3.464  2.6684  0.6981 -1.2286
  105SOL     OW  450   2.322   2.248   0.204 -0.8704 -0.1557  0.2380
  105SOL    HW1  451   2.361   2.278   0.286  1.1601  2.2548 -1.4459
  105SOL    HW2  452   2.371   2.168   0.182  0.1934  0.4809  0.2503
  106SOL     OW  453   1.353   2.825   1.905 -0.1185 -0.1885  0.1511
  106SOL    HW1  454   1.350   2.921   1.898 -1.2440 -0.1432  1.0429
  106SOL    HW2  455   1.272   2.795   1.864  0.6954 -0.8495 -1.0464
  107SOL     OW  456   1.509   3.368   3.351 -0.4574 -0.3064 -0.5750
  107SOL    HW1  457   1.476   3.281   3.329  0.8061 -1.2439  1.0495
  107SOL    HW2  458   1.482   3.382   3.442  3.4615 -1.1975  0.9263
  108SOL     OW  459   2.840   2.248   2.622  0.5072  0.4312 -0.0027
  108SOL    HW1  460   2.778   2.194   2.573  1.2771 -2.8175  2.3032
  108SOL    HW2  461   2.795   2.270   2.703  0.4788  2.7965 -0.5922
  109SOL     OW  462   1.966   1.749   0.690 -0.1954  0.2957  0.2409
  109SOL    HW1  463   1.971   1.843   0.671  3.1768  0.2142  0.1506
  109SOL    HW2  464   1.980   1.707   0.605 -1.6933 -0.3335  0.2802
  110SOL     OW  465   0.136   0.798   2.518 -0.4382 -0.2037 -0.6289
  110SOL    HW1  466   0.090   0.816   2.599 -0.6208  2.6796 -1.2556
  110SOL    HW2  467   0.228   0.789   2.544 -0.4094  1.2851 -0.1080
  111SOL     OW  468   1.856   0.963   1.530  0.1740  0.0960 -0.2270
  111SOL    HW1  469   1.940   0.925   1.504  0.1121 -0.1639 -0.0553
  111SOL    HW2  470   1.815   0.990   1.448  0.3140 -0.0121 -0.3321
  112SOL     OW  471   2.702   0.248   2.691 -0.4900 -0.4820 -0.1018
  112SOL    HW1  472   2.673   0.276   2.604 -2.4264  1.2947  1.0265
  112SOL    HW2  473   2.621   0.235   2.740  0.5089  1.8292  2.4055
  113SOL     OW  474   0.506   1.686   1.190  0.3918 -0.1397 -0.3871
  113SOL    HW1  475   0.516   1.743   1.266  2.7806  0.6239 -1.2080
  113SOL    HW2  476   0.506   1.745   1.115 -1.2407 -0.9479 -1.0777
  114SOL     OW  477   0.785   1.936   1.246 -0.4360 -0.5416 -0.5737
  114SOL    HW1  478   0.776   1.841   1.240 -0.9806 -0.7129  1.8078
  114SOL    HW2  479   0.852   1.949   1.313  0.2732  0.7842 -1.5068
  115SOL     OW  480   0.675   0.438   0.475  0.2702  0.2579  0.3056
  115SOL    HW1  481   0.762   0.410   0.445  0.0856 -0.4728  0.4280
  115SOL    HW2  482   0.686   0.453   0.569  0.2603  0.1359  0.3267
  116SOL     OW  483   0.313   0.883   3.050  0.4735  0.5202  0.1354
  116SOL    HW1  484   0.232   0.861   3.096  1.2734 -0.7979  1.0103
  116SOL    HW2  485   0.380   0.885   3.120  1.8465 -2.1179 -0.9713
  117SOL     OW  486   2.271   2.647   1.619 -0.0660 -0.2392  0.2783
  117SOL    HW1  487   2.323   2.574   1.587 -1.4449 -0.1690 -2.4324
  117SOL    HW2  488   2.296   2.721   1.564 -0.4918  0.6992  1.2969
  118SOL     OW  489   1.135   2.585   1.415 -0.3266  0.0049 -0.0252
  118SOL    HW1  490   1.145   2.571   1.321 -0.0870 -0.1823  0.0284
  118SOL    HW2  491   1.224   2.602   1.447 -0.3719 -0.1869  0.2077
  119SOL     OW  492   2.733   0.767   2.984  0.1222 -0.0670  0.3406
  119SOL    HW1  493   2.825   0.743   2.992 -0.3053 -1.6359  0.9515
  119SOL    HW2  494   2.704   0.725   2.903  0.3096  1.7377 -0.6926
  120SOL     OW  495   2.158   0.441   0.644 -0.4154 -0.3214  0.6515
  120SOL    HW1  496   2.224   0.374   0.663  1.1052  1.1059  0.5865
  120SOL    HW2  497   2.125   0.418   0.557  1.9821  0.4000 -0.5558
  121SOL     OW  498   0.709   0.258   2.941 -0.0585  0.4322  0.4760
  121SOL    HW1  499   0.724   0.289   3.030 -1.0884  0.0206  0.8038
  121SOL    HW2  500   0.789   0.209   2.920 -0.0423  0.0444  1.3889
  122SOL     OW  501   1.035   3.312   0.097  0.8563 -0.6878 -0.3395
  122SOL    HW1  502   0.997   3.322   0.009  0.1485 -1.8349 -0.1903
  122SOL    HW2  503   1.129   3.325   0.084  0.7124 -0.4029 -1.1938
  123SOL     OW  504   2.538   1.889   1.024  0.2922 -0.2270 -0.1503
  123SOL    HW1  505   2.505   1.973   0.992  0.1941 -0.1190  0.2281
  123SOL    HW2  506   2.562   1.906   1.115  0.0144 -0.6746  0.0082
  124SOL     OW  507   1.043   1.038   3.110  0.2856  0.2554 -0.4110
  124SOL    HW1  508   1.126   1.000   3.140  0.2464 -0.3712 -1.0648
  124SOL    HW2  509   1.069   1.118   3.064  0.6155 -0.3367 -1.2902
  125SOL     OW  510   0.746   1.533   0.165  0.3893  0.1257 -0.1507
  125SOL    HW1  511   0.795   1.458   0.131 -0.4968  0.5575 -2.6259
  125SOL    HW2  512   0.801   1.568   0.236  3.4473  0.2326 -2.3556
  126SOL     OW  513   2.593   1.719   2.329  0.9101  0.0078 -0.6090
  126SOL    HW1  514   2.680   1.754   2.309  0.3516  0.8259 -1.6754
  126SOL    HW2  515   2.567   1.672   2.250  0.0739  0.3948 -0.5639
  127SOL     OW  516   2.456   2.603   3.146 -0.2676  0.3920 -0.5532
  127SOL    HW1  517   2.505   2.679   3.178  2.0432 -0.7863 -1.0403
  127SOL    HW2  518   2.365   2.632   3.143  0.2354  2.4487  1.2744
  128SOL     OW  519   0.644   2.653   3.625  0.0101 -0.4279 -0.7874
  128SOL    HW1  520   0.582   2.719   3.656 -0.6912 -1.3100 -0.2885
  128SOL    HW2  521   0.589   2.583   3.590  0.7019 -1.4123  0.0488
  129SOL     OW  522   3.601   0.526   3.596  0.2503 -0.1829  0.2503
  129SOL    HW1  523   3.688   0.539   3.634  0.3323  0.0246 -0.0061
  129SOL    HW2  524   3.545   0.587   3.644 -0.1278 -1.5450  1.6558
  130SOL     OW  525   1.493   0.179   0.015 -0.4271 -0.1045  0.4629
  130SOL    HW1  526   1.463   0.256   0.062 -1.6368 -0.4424  0.2941
  130SOL    HW2  527   1.449   0.106   0.058 -1.7220 -0.4148 -1.2442
  131SOL     OW  528   2.999   2.911   2.366  0.1006  0.0528 -0.5571
  131SOL    HW1  529   3.077   2.961   2.390  0.5356 -1.0635  0.4480
  131SOL    HW2  530   2.935   2.931   2.435 -0.4768  0.8562 -1.3017
  132SOL     OW  531   3.686   2.812   1.703  0.4433  0.3864 -0.1738
  132SOL    HW1  532   3.689   2.908   1.698  1.0718  0.2954 -2.4711
  132SOL    HW2  533   3.630   2.786   1.630  0.2629 -1.0111  0.4365
  133SOL     OW  534   0.823   1.670   1.451  0.2023 -0.7674 -0.4027
  133SOL    HW1  535   0.866   1.586   1.469  1.1630 -0.1825  0.0604
  133SOL    HW2  536   0.741   1.666   1.501  1.5519 -0.2861  1.9808
  134SOL     OW  537   1.433   2.141   1.414  0.0134  0.5778  0.5889
  134SOL    HW1  538   1.412   2.068   1.472  0.3633  1.0706  1.3526
  134SOL    HW2  539   1.488   2.103   1.346  1.4030  0.3901  1.7807
  135SOL     OW  540   3.293   1.182   2.050  0.2570 -0.3223  0.0904
  135SOL    HW1  541   3.342   1.261   2.028  1.5721 -0.6434  1.6491
  135SOL    HW2  542   3.225   1.175   1.983  2.5056 -0.0198 -2.3419
  136SOL     OW  543   3.406   0.782   0.282  0.0714  0.3694  0.4487
  136SOL    HW1  544   3.425   0.857   0.225 -0.5640  2.6479  3.0819
  136SOL    HW2  545   3.311   0.780   0.289  0.0463 -1.0040  0.1246
  137SOL     OW  546   2.576   3.232   0.131 -0.3645 -0.0855  0.3680
  137SOL    HW1  547   2.570   3.150   0.082  0.7998 -1.2881  2.1286
  137SOL    HW2  548   2.486   3.253   0.154 -0.5754 -1.5129  0.8941
  138SOL     OW  549   2.130   0.500   0.117 -0.0789 -0.4796  0.0547
  138SOL    HW1  550   2.225   0.502   0.104 -0.3943  1.2709 -2.6705
  138SOL    HW2  551   2.113   0.570   0.179  0.2232  1.0060 -1.4812
  139SOL     OW  552   0.102   2.924   1.375  0.2241  0.6197  0.2367
  139SOL    HW1  553   0.141   2.857   1.318  0.6063  0.9823  0.0734
  139SOL    HW2  554   0.029   2.878   1.418 -1.7542  1.0098 -2.4671
  140SOL     OW  555   1.033   2.157   1.618 -0.3836  0.0665  0.8183
  140SOL    HW1  556   0.991   2.083   1.574 -2.0234  0.3476  1.8342
  140SOL    HW2  557   0.992   2.234   1.579  0.7604  0.4367  0.3159
  141SOL     OW  558   2.998   0.413   1.714 -0.8035 -0.0150  0.0925
  141SOL    HW1  559   3.024   0.321   1.708 -0.2055  0.1839 -0.5229
  141SOL    HW2  560   3.074   0.458   1.750 -0.2976  0.5504 -1.5690
  142SOL     OW  561   2.275   2.204   2.513  0.4698  0.0729 -0.5577
  142SOL    HW1  562   2.289   2.294   2.482  2.9421 -0.7716 -2.1883
  142SOL    HW2  563   2.306   2.205   2.603 -1.1838  1.2041  0.0549
  143SOL     OW  564   1.265   2.873   2.958 -0.7056  0.1025  0.2856
  143SOL    HW1  565   1.204   2.851   3.029 -2.6443 -1.4659 -1.7146
  143SOL    HW2  566   1.272   2.969   2.962 -0.2053  0.0312  2.9456
  144SOL     OW  567   2.221   3.716   0.731 -0.4569 -0.2876  0.2076
  144SOL    HW1  568   2.144   3.671   0.768 -0.3533 -0.1584  0.5889
  144SOL    HW2  569   2.273   3.646   0.692 -0.5184 -0.4441  0.4015
  145SOL     OW  570   2.296   3.310   1.901  0.3708 -0.2461  0.4092
  145SOL    HW1  571   2.303   3.286   1.993 -0.8376 -2.5453 -0.0200
  145SOL    HW2  572   2.380   3.350   1.880  0.9762 -0.4319  2.3023
  146SOL     OW  573   1.439   3.052   0.714  0.0416  0.0015 -0.0231
  146SOL    HW1  574   1.455   3.139   0.752 -2.7615 -0.0192  1.4215
  146SOL    HW2  575   1.380   3.069   0.640  1.1102 -0.5378 -1.0454
  147SOL     OW  576   0.783   1.481   3.329  0.4145 -0.2006  0.2650
  147SOL    HW1  577   0.707   1.497   3.384  0.2558  2.1231 -0.5377
  147SOL    HW2  578   0.831   1.411   3.374 -0.4661  0.5881  2.5468
  148SOL     OW  579   3.021   3.037   3.231 -0.4455  0.2616 -0.1052
  148SOL    HW1  580   2.971   3.071   3.156 -1.6588  1.4509  1.1723
  148SOL    HW2  581   2.966   2.968   3.268 -0.4775  0.5646  0.4332
  149SOL     OW  582   1.512   0.282   2.130  0.0868  0.1140  0.4168
  149SOL    HW1  583   1.494   0.189   2.119  2.0678 -0.1516 -0.9647
  149SOL    HW2  584   1.492   0.300   2.222  2.0567 -2.2600  1.4116
  150SOL     OW  585   1.929   3.213   3.387 -0.5707 -0.6175  0.0185
  150SOL    HW1  586   1.944   3.152   3.314 -1.8017 -1.4904  0.4598
  150SOL    HW2  587   1.951   3.163   3.465 -1.4974 -0.4785  0.3836
  151SOL     OW  588   2.567   0.275   2.458 -0.1104  0.2085 -0.4718
  151SOL    HW1  589   2.609   0.265   2.372  0.3786 -2.5747 -0.0017
  151SOL    HW2  590   2.476   0.296   2.438  0.3652  1.3675 -1.6034
  152SOL     OW  591   0.881   0.154   3.664 -0.1537  0.3961 -0.5614
  152SOL    HW1  592   0.819   0.202   3.720  0.4242  0.9890 -0.4207
  152SOL    HW2  593   0.954   0.214   3.653  0.0939 -0.0356 -1.2981
  153SOL     OW  594   2.621   1.171   0.359 -0.7249  0.3991  0.2150
  153SOL    HW1  595   2.597   1.188   0.268 -0.3380  2.1807  0.4034
  153SOL    HW2  596   2.538   1.172   0.406 -0.7204  2.1648  0.2389
  154SOL     OW  597   2.182   3.118   0.973  0.1187 -0.0341 -0.2015
  154SOL    HW1  598   2.267   3.081   0.996 -0.2457 -0.6229  0.2509
  154SOL    HW2  599   2.124   3.042   0.967 -0.6021  0.4377  0.5159
  155SOL     OW  600   0.765   2.905   2.869 -0.5751  0.0270  0.5536
  155SOL    HW1  601   0.796   2.875   2.784  0.3689 -2.1108  1.5652
  155SOL    HW2  602   0.696   2.843   2.892 -2.0264  1.6253  0.6212
  156SOL     OW  603   0.163   3.230   2.781  0.0439  0.2384  0.8208
  156SOL    HW1  604   0.184   3.324   2.778  1.8811 -0.1619 -1.5105
  156SOL    HW2  605   0.121   3.212   2.697 -2.2277 -0.6998  2.0678
  157SOL     OW  606   2.652   0.718   1.459  0.0104 -0.1588  0.5348
  157SOL    HW1  607   2.626   0.670   1.380 -0.2735  1.1380 -0.1745
  157SOL    HW2  608   2.629   0.658   1.531 -0.5836 -0.9788 -0.3102
  158SOL     OW  609   1.762   3.430   3.478  0.5162  0.6094 -0.2473
  158SOL    HW1  610   1.802   3.344   3.459 -2.8318 -0.6498 -2.4682
  158SOL    HW2  611   1.700   3.443   3.407 -0.3479  4.1463  1.0004
  159SOL     OW  612   0.207   3.734   1.387  0.5665 -0.1814 -0.2141
  159SOL    HW1  613   0.207   3.657   1.443  1.0529  0.4419  0.6719
  159SOL    HW2  614   0.241   3.703   1.303 -0.3144 -1.1590 -0.2212
  160SOL     OW  615   0.163   3.502   2.827 -0.6825 -0.1017  0.6715
  160SOL    HW1  616   0.191   3.579   2.877 -0.7372 -0.2818  0.9864
  160SOL    HW2  617   0.070   3.493   2.849 -1.0999  0.7113 -0.6523
  161SOL     OW  618   2.031   2.886   1.055  0.2409 -0.0174 -0.1924
  161SOL    HW1  619   2.037   2.791   1.043  0.3352  0.0613 -0.8017
  161SOL    HW2  620   1.996   2.897   1.143 -0.3154 -0.6238 -0.3353
  162SOL     OW  621   3.554   2.450   1.008  0.0744  0.0356 -0.3797
  162SOL    HW1  622   3.517   2.374   1.054 -0.1497  0.8668  0.8527
  162SOL    HW2  623   3.504   2.524   1.041  0.7022  0.8011 -1.1213
  163SOL     OW  624   3.049   3.036   0.524  0.0734 -0.0627 -0.5529
  163SOL    HW1  625   2.979   3.092   0.489 -0.1573 -0.2456 -0.3864
  163SOL    HW2  626   3.029   2.949   0.491  0.5649 -0.0080 -1.0041
  164SOL     OW  627   1.685   2.795   2.527 -0.1234  0.1964 -0.4449
  164SOL    HW1  628   1.607   2.801   2.582  0.0370  0.6942 -0.2709
  164SOL    HW2  629   1.692   2.881   2.485  0.7286  0.3906  0.0783
  165SOL     OW  630   2.738   2.898   2.134  0.0782  0.0960 -0.4537
  165SOL    HW1  631   2.788   2.839   2.077  1.2685  1.3959 -0.8036
  165SOL    HW2  632   2.652   2.856   2.142  0.7748 -1.5137 -0.9467
  166SOL     OW  633   2.654   1.810   0.807  0.1236  0.1826 -0.1785
  166SOL    HW1  634   2.610   1.813   0.892 -2.1145 -1.3538 -1.1723
  166SOL    HW2  635   2.632   1.894   0.767 -0.4845  0.1281  0.0228
  167SOL     OW  636   0.947   2.066   3.542 -0.1615 -0.3401 -0.8001
  167SOL    HW1  637   0.953   2.131   3.612 -0.7072 -0.4397 -0.6556
  167SOL    HW2  638   0.986   1.987   3.581 -0.0653 -0.2733 -0.7600
  168SOL     OW  639   1.389   3.086   1.838  0.3238 -0.0191 -0.1422
  168SOL    HW1  640   1.364   3.155   1.776 -0.1056 -0.2083 -0.1832
  168SOL    HW2  641   1.484   3.090   1.841  0.2834  0.7796  0.0901
  169SOL     OW  642   1.799   2.278   2.516 -0.3633 -0.0346  0.0533
  169SOL    HW1  643   1.812   2.317   2.603 -0.1531 -2.8668  1.4274
  169SOL    HW2  644   1.807   2.351   2.455 -1.2819  2.2137  2.4456
  170SOL     OW  645   2.994   0.123   0.433 -0.4107 -0.1378 -0.2351
  170SOL    HW1  646   2.904   0.156   0.431 -0.2183  0.4710  0.6954
  170SOL    HW2  647   3.039   0.180   0.494  0.3509 -1.1170  0.1421
  171SOL     OW  648   2.188   2.086   2.259  0.0487  0.0967  0.2050
  171SOL    HW1  649   2.215   2.102   2.350 -1.6466 -1.8628  1.1070
  171SOL    HW2  650   2.247   2.018   2.228  0.8845  1.0379 -0.3487
  172SOL     OW  651   1.774   0.754   1.714  0.1089 -1.1280 -0.0741
  172SOL    HW1  652   1.825   0.814   1.659  1.0320 -2.7877 -1.1233
  172SOL    HW2  653   1.735   0.810   1.781  1.7813  0.4942 -0.3695
  173SOL     OW  654   1.001   1.712   3.068 -0.2717 -0.1850 -0.0116
  173SOL    HW1  655   1.062   1.727   2.996 -1.7054 -3.0476 -2.0534
  173SOL    HW2  656   1.056   1.705   3.146  1.6373  0.3961 -1.2548
  174SOL     OW  657   3.270   3.504   2.515  0.3566  0.4821 -0.4128
  174SOL    HW1  658   3.363   3.481   2.524 -0.3448 -2.8847 -0.7010
  174SOL    HW2  659   3.248   3.479   2.425 -1.4091 -1.3461  0.4657
  175SOL     OW  660   2.587   2.340   1.367  0.3964 -0.0299 -0.1475
  175SOL    HW1  661   2.615   2.301   1.284  1.3814 -0.7165  0.4873
  175SOL    HW2  662   2.506   2.295   1.389 -0.0180  0.3433 -0.8531
  176SOL     OW  663   0.855   2.879   0.615  0.0034 -0.2926 -0.5834
  176SOL    HW1  664   0.840   2.839   0.701 -1.0764  2.1798  0.4765
  176SOL    HW2  665   0.772   2.869   0.569  0.0201 -0.0868 -0.6599
  177SOL     OW  666   2.562   1.875   1.401  0.7500 -0.1258 -0.7439
  177SOL    HW1  667   2.596   1.790   1.372 -0.2779  0.0022 -2.5230
  177SOL    HW2  668   2.629   1.937   1.374  1.9792 -0.3953  1.4574
  178SOL     OW  669   2.259   2.146   1.037  0.6517  0.2119  0.0136
  178SOL    HW1  670   2.311   2.108   1.107  0.4189 -0.8410 -0.3585
  178SOL    HW2  671   2.189   2.193   1.082  1.0616  0.3791  0.4898
  179SOL     OW  672   0.912   1.956   2.655 -0.4531  0.1276 -0.0962
  179SOL    HW1  673   0.842   2.018   2.633 -1.6459 -0.8139  0.9112
  179SOL    HW2  674   0.919   1.961   2.750  0.1586 -0.5371 -0.1020
  180SOL     OW  675   0.658   1.790   2.935 -0.1899 -0.4970 -0.2960
  180SOL    HW1  676   0.635   1.842   2.858  1.2856 -0.6783 -0.8802
  180SOL    HW2  677   0.615   1.705   2.920  0.9714 -0.9163 -1.4955
  181SOL     OW  678   1.670   2.399   0.648  0.2038 -0.0070  0.2166
  181SOL    HW1  679   1.763   2.375   0.646  0.3420  0.4913  0.5006
  181SOL    HW2  680   1.654   2.427   0.739 -0.0431  0.5978 -0.0069
  182SOL     OW  681   2.785   2.576   2.753  0.2267 -0.5733 -0.2972
  182SOL    HW1  682   2.712   2.520   2.728 -0.7459  0.6838 -0.3822
  182SOL    HW2  683   2.783   2.648   2.690  0.6064  0.2546  0.6083
  183SOL     OW  684   3.448   0.088   1.989  0.4405  0.4058  0.2313
  183SOL    HW1  685   3.438   0.136   2.071 -0.4972  0.0028  0.3629
  183SOL    HW2  686   3.364   0.045   1.975  1.0425 -0.6779 -0.2172
  184SOL     OW  687   1.524   3.204   2.759  0.2165 -0.0344  0.0905
  184SOL    HW1  688   1.512   3.279   2.700  0.1241 -1.1787 -1.4195
  184SOL    HW2  689   1.439   3.195   2.803 -0.2286 -0.0574 -0.7347
  185SOL     OW  690   0.789   1.582   2.400 -0.1426 -0.4110 -0.7121
  185SOL    HW1  691   0.820   1.491   2.399  0.0846 -0.3369 -0.5287
  185SOL    HW2  692   0.867   1.633   2.376  0.3522 -0.0790  1.4171
  186SOL     OW  693   1.043   0.503   3.693 -0.0904 -0.4276  0.6868
  186SOL    HW1  694   1.034   0.478   3.785  2.0379 -1.3354  0.6875
  186SOL    HW2  695   1.085   0.428   3.651  2.5485  1.3907 -0.1976
  187SOL     OW  696   3.590   1.320   3.633 -0.0000 -0.5058  0.0206
  187SOL    HW1  697   3.580   1.414   3.648 -0.8974 -0.5470 -0.2774
  187SOL    HW2  698   3.606   1.284   3.720 -1.0625 -0.2391  0.3468
  188SOL     OW  699   2.884   2.898   0.180  0.7015  0.0164  0.4470
  188SOL    HW1  700   2.835   2.874   0.259  0.6639 -0.3028  0.3302
  188SOL    HW2  701   2.816   2.912   0.114  0.4043  4.1307  1.3808
  189SOL     OW  702   0.266   3.177   0.668 -0.0609 -0.5156 -0.0041
  189SOL    HW1  703   0.201   3.154   0.734 -0.3846 -0.2769 -0.2404
  189SOL    HW2  704   0.223   3.241   0.612 -0.3826 -1.9262 -1.4542
  190SOL     OW  705   0.445   0.139   3.640  0.0066 -0.1547 -0.3250
  190SOL    HW1  706   0.461   0.056   3.686 -0.1751 -0.3930 -0.6817
  190SOL    HW2  707   0.419   0.112   3.552  1.2526  0.2965 -0.8594
  191SOL     OW  708   2.291   0.809   0.963  0.3810 -0.3590 -0.4322
  191SOL    HW1  709   2.313   0.719   0.988  0.2229 -0.1164  0.6329
  191SOL    HW2  710   2.207   0.802   0.918  0.0891 -0.6790  0.1600
  192SOL     OW  711   0.931   2.436   1.869  0.3273  0.3436 -0.3574
  192SOL    HW1  712   0.864   2.497   1.839  0.0901 -0.0077 -0.5463
  192SOL    HW2  713   0.897   2.350   1.847  0.2158  0.0777  0.7930
  193SOL     OW  714   1.089   1.858   3.660  0.7956  0.0256 -1.1511
  193SOL    HW1  715   1.032   1.803   3.714  0.2238  1.0629 -0.6777
  193SOL    HW2  716   1.167   1.804   3.645 -0.6002 -1.7676 -2.5127
  194SOL     OW  717   1.323   0.669   1.218 -0.2180 -0.5113 -0.5414
  194SOL    HW1  718   1.275   0.593   1.187  0.0157 -0.4681 -1.0203
  194SOL    HW2  719   1.385   0.634   1.282  0.0982 -0.7740 -0.9822
  195SOL     OW  720   0.498   3.514   2.270 -0.1462 -0.1871 -0.1075
  195SOL    HW1  721   0.454   3.454   2.209 -0.5534  0.7791 -0.7988
  195SOL    HW2  722   0.492   3.600   2.227  2.5008 -0.0082 -0.2892
  196SOL     OW  723   0.834   2.871   3.661  0.3609  0.5879 -0.5359
  196SOL    HW1  724   0.777   2.811   3.709 -0.7195  1.6382 -0.4483
  196SOL    HW2  725   0.821   2.848   3.569 -1.3593  1.7377 -0.6231
  197SOL     OW  726   1.194   0.573   2.997 -0.2300  0.4531 -0.8575
  197SOL    HW1  727   1.244   0.593   2.918 -0.2467 -3.4061 -2.0796
  197SOL    HW2  728   1.149   0.491   2.976 -1.9763  0.4124  2.4380
  198SOL     OW  729   1.192   3.184   2.636  0.0644 -0.2436  0.4204
  198SOL    HW1  730   1.166   3.276   2.635  1.3007  0.1599 -1.8923
  198SOL    HW2  731   1.268   3.180   2.579  1.4223 -2.3702  2.2186
  199SOL     OW  732  -0.023   0.701   2.934 -0.2869  0.0472 -0.2852
  199SOL    HW1  733   0.073   0.694   2.937 -0.3622 -0.5949  1.2529
  199SOL    HW2  734  -0.040   0.747   2.851  1.4666  2.1623  0.4087
  200SOL     OW  735   0.512   1.853   1.397 -0.3153 -0.2319  0.2110
  200SOL    HW1  736   0.417   1.863   1.404 -0.9807 -2.8227 -2.9769
  200SOL    HW2  737   0.543   1.941   1.373 -1.2142  1.6121  4.7092
  201SOL     OW  738   0.453   1.570   2.084 -0.2924  0.5192  0.1808
  201SOL    HW1  739   0.375   1.621   2.062  0.0147  1.1810  0.5915
  201SOL    HW2  740   0.469   1.588   2.177 -0.0886 -0.2151  0.2963
  202SOL     OW  741   2.368   1.539   1.561  0.0904  0.5220  0.1846
  202SOL    HW1  742   2.331   1.609   1.614  1.0266  1.0167  0.2020
  202SOL    HW2  743   2.452   1.573   1.530  0.4978 -0.5235  0.0650
  203SOL     OW  744   0.308   1.221   2.131 -0.3771  0.1291  0.0714
  203SOL    HW1  745   0.345   1.282   2.194  0.8551 -0.1682 -0.3251
  203SOL    HW2  746   0.342   1.252   2.046  0.5795 -1.2839 -0.0975
  204SOL     OW  747   3.251   3.013   3.060  0.3976 -0.3549 -0.0289
  204SOL    HW1  748   3.237   2.918   3.064 -0.7445 -0.2813 -1.5030
  204SOL    HW2  749   3.192   3.049   3.127 -1.4840 -0.5167 -1.5341
  205SOL     OW  750   1.631   3.015   3.422 -0.0520 -0.3950  0.9838
  205SOL    HW1  751   1.674   3.072   3.486  1.0316  0.2019 -0.2319
  205SOL    HW2  752   1.701   2.962   3.385 -0.6407 -0.6725  0.2348
  206SOL     OW  753   0.892   0.636   3.471  0.1860  0.0132  0.0032
  206SOL    HW1  754   0.946   0.595   3.404 -2.0891 -2.3802 -0.5604
  206SOL    HW2  755   0.932   0.608   3.554 -0.1644 -1.8567 -0.4014
  207SOL     OW  756   3.721   1.427   0.152 -0.1083  0.4860  0.0406
  207SOL    HW1  757   3.760   1.342   0.133 -0.3560  0.4727 -0.3997
  207SOL    HW2  758   3.660   1.411   0.224  0.5185  0.4626  0.5813
  208SOL     OW  759   1.980   2.365   0.711 -0.7025  0.2341 -0.3836
  208SOL    HW1  760   2.048   2.298   0.721 -0.8631  0.3162  1.4801
  208SOL    HW2  761   2.022   2.434   0.660  0.7480  0.4301  0.9915
  209SOL     OW  762   0.503   0.642   2.271 -0.1494 -0.6523  0.0079
  209SOL    HW1  763   0.430   0.641   2.209 -1.2657  1.5341  1.1725
  209SOL    HW2  764   0.463   0.616   2.354  0.8923 -1.5153  0.2658
  210SOL     OW  765   3.344   2.191   2.607 -0.0293  0.4782 -0.0968
  210SOL    HW1  766   3.387   2.106   2.600  0.2093  0.5272  0.6030
  210SOL    HW2  767   3.383   2.230   2.685 -0.1723  1.2099 -0.3882
  211SOL     OW  768   3.329   0.231   3.081  0.5251 -0.6491  0.1608
  211SOL    HW1  769   3.336   0.161   3.146 -1.1744 -0.8832  0.1239
  211SOL    HW2  770   3.270   0.195   3.014 -0.9752  1.0763  0.5000
  212SOL     OW  771   2.467   1.178   0.613  0.0828 -0.3416 -0.1379
  212SOL    HW1  772   2.470   1.210   0.702  1.3328  0.9932 -0.6387
  212SOL    HW2  773   2.477   1.083   0.621 -0.1967 -0.2721  1.1429
  213SOL     OW  774   3.073   2.092   2.640  0.4275 -0.0842 -0.1838
  213SOL    HW1  775   3.003   2.128   2.695 -0.3306 -2.5606  0.6457
  213SOL    HW2  776   3.148   2.150   2.654 -0.4510  0.6767  1.6702
  214SOL     OW  777   2.087   0.208   1.004  0.7274 -0.2496 -0.1844
  214SOL    HW1  778   2.120   0.262   1.076 -1.9657  0.5933  0.5616
  214SOL    HW2  779   2.077   0.268   0.931 -2.1823  0.4107  0.6181
  215SOL     OW  780   1.945   0.754   2.009  0.3148  0.3900  0.2526
  215SOL    HW1  781   1.938   0.674   2.062  0.1002  1.3428  1.7380
  215SOL    HW2  782   1.963   0.723   1.920  0.1946 -1.3013  0.7841
  216SOL     OW  783   3.102   2.650   2.196 -0.5074  0.4929  0.0497
  216SOL    HW1  784   3.159   2.586   2.153 -1.2486  0.2748 -0.6348
  216SOL    HW2  785   3.123   2.642   2.289  0.3804  0.2316 -0.1567
  217SOL     OW  786   3.275   0.454   3.322  0.1560 -0.2767 -0.0416
  217SOL    HW1  787   3.213   0.525   3.304  1.9211  1.3297  0.0071
  217SOL    HW2  788   3.256   0.388   3.255 -2.4464 -0.4522  0.7536
  218SOL     OW  789   0.825   1.892   1.845 -0.4908  0.6169 -1.0688
  218SOL    HW1  790   0.780   1.841   1.912  1.3705 -2.1392 -1.7434
  218SOL    HW2  791   0.786   1.864   1.762 -0.0901  1.0181 -1.4017
  219SOL     OW  792   1.298   0.771   0.695 -0.0282  0.1754 -0.6393
  219SOL    HW1  793   1.306   0.706   0.764  0.6482  0.4680 -0.4225
  219SOL    HW2  794   1.247   0.842   0.734 -0.1072  0.1067 -0.6188
  220SOL     OW  795   1.469   1.451   2.521  0.3625 -0.3422  0.2904
  220SOL    HW1  796   1.395   1.458   2.581  0.3725  0.3849  0.2325
  220SOL    HW2  797   1.545   1.476   2.573  0.5407 -0.8477  0.2836
  221SOL     OW  798   3.372   2.718   3.695 -0.1898  0.8032 -0.4671
  221SOL    HW1  799   3.398   2.808   3.676  0.5746  0.8167  0.5402
  221SOL    HW2  800   3.298   2.727   3.755 -0.0609  0.7690 -0.3007
  222SOL     OW  801   0.522   1.638   2.366 -0.5781 -0.4409  0.3513
  222SOL    HW1  802   0.617   1.633   2.382 -0.4471  0.9152  0.1351
  222SOL    HW2  803   0.483   1.600   2.445  0.1308  1.6558  1.8284
  223SOL     OW  804   1.429   2.243   0.978 -0.1433  0.0910  0.0678
  223SOL    HW1  805   1.341   2.243   1.016 -0.1121  1.5261  0.1916
  223SOL    HW2  806   1.418   2.204   0.891 -0.1326 -3.7876  1.5913
  224SOL     OW  807   0.387   0.031   3.376 -0.5118 -0.1229  0.1590
  224SOL    HW1  808   0.459   0.074   3.330 -0.6144 -0.0480  0.0686
  224SOL    HW2  809   0.308   0.070   3.339 -0.6216 -0.6819 -0.2118
  225SOL     OW  810   2.236   2.770   3.358 -0.1368 -0.1737 -0.2929
  225SOL    HW1  811   2.274   2.754   3.272  1.0114  1.9880 -0.2505
  225SOL    HW2  812   2.142   2.779   3.340  0.1320  0.6841 -1.4175
  226SOL     OW  813   2.315   0.522   1.604  0.6052  0.5904  0.1729
  226SOL    HW1  814   2.363   0.597   1.638  1.2301 -0.0484  0.7266
  226SOL    HW2  815   2.281   0.477   1.682 -0.8141  0.9669 -0.1985
  227SOL     OW  816   3.200   0.730  -0.012  0.4554  0.4940 -0.0897
  227SOL    HW1  817   3.150   0.800   0.029  0.9834  1.1154 -0.5001
  227SOL    HW2  818   3.263   0.704   0.056 -0.7703 -0.6906  0.6423
  228SOL     OW  819   2.320   0.562   1.086 -0.1679 -0.0658  0.0532
  228SOL    HW1  820   2.231   0.541   1.114 -0.5961 -1.2336 -1.9896
  228SOL    HW2  821   2.367   0.478   1.092  0.5962  0.3723  0.3631
  229SOL     OW  822   1.945   0.990   2.990 -0.0907  0.1873  0.0783
  229SOL    HW1  823   1.974   0.900   2.975 -0.4118  0.2476 -0.9239
  229SOL    HW2  824   1.969   1.037   2.911 -2.2042  0.4135 -0.4843
  230SOL     OW  825   2.405   1.499   2.262 -0.5342  0.3726 -0.4264
  230SOL    HW1  826   2.461   1.466   2.332  0.3785  1.3250 -0.6901
  230SOL    HW2  827   2.463   1.510   2.187 -1.2551  0.5176 -0.9749
  231SOL     OW  828   3.272   1.032   3.570 -0.0784 -0.3993 -0.4159
  231SOL    HW1  829   3.253   1.040   3.663  1.0475  0.5815 -0.2496
  231SOL    HW2  830   3.187   1.037   3.527 -0.3837  3.3655  0.3102
  232SOL     OW  831   2.524  -0.006   2.561  0.5481  0.1080  0.1338
  232SOL    HW1  832   2.525   0.089   2.548  1.8192  0.3188  1.4354
  232SOL    HW2  833   2.533  -0.043   2.474  2.9012  1.2648 -0.1879
  233SOL     OW  834   1.725   0.972   3.521 -0.2823 -0.6360  0.0497
  233SOL    HW1  835   1.644   0.922   3.527 -1.0712  0.7680  1.8634
  233SOL    HW2  836   1.700   1.051   3.473  0.6149 -1.2210 -1.4770
  234SOL     OW  837   2.081   3.295   0.696  0.2568 -0.3081  0.4780
  234SOL    HW1  838   2.131   3.224   0.655  2.0899  0.8105  0.6774
  234SOL    HW2  839   2.081   3.273   0.789 -0.3484 -0.7220  0.3871
  235SOL     OW  840   2.125   0.598   3.129  0.7487  0.5669 -0.1413
  235SOL    HW1  841   2.210   0.567   3.160  0.2915 -0.6812 -0.0825
  235SOL    HW2  842   2.122   0.690   3.156  2.0987  0.6511 -0.2159
  236SOL     OW  843   2.795   2.253   0.102  0.8247 -0.0570  0.3030
  236SOL    HW1  844   2.772   2.241   0.194  0.7882  0.7851  0.4189
  236SOL    HW2  845   2.870   2.196   0.088 -0.5663 -1.9476  0.2298
  237SOL     OW  846   0.332   3.156   3.489  0.5416 -0.4204  0.8742
  237SOL    HW1  847   0.330   3.146   3.584  3.1376  0.6643  1.1386
  237SOL    HW2  848   0.420   3.189   3.471 -0.4669  1.0985 -1.7473
  238SOL     OW  849   1.141   0.863   2.835 -0.2921 -0.4987  0.4820
  238SOL    HW1  850   1.186   0.846   2.918 -1.0817 -1.4498  0.7339
  238SOL    HW2  851   1.056   0.819   2.844  0.1768 -1.8987 -1.3933
  239SOL     OW  852   3.240   2.868   3.367 -0.0928  0.7501  0.1454
  239SOL    HW1  853   3.332   2.849   3.353 -0.2746 -0.7374  0.7763
  239SOL    HW2  854   3.206   2.891   3.280  0.2176 -1.7255 -0.6883
  240SOL     OW  855   1.716   0.939   1.294  1.1134 -0.6429  0.2585
  240SOL    HW1  856   1.772   0.944   1.217 -0.9886 -0.4656 -1.3182
  240SOL    HW2  857   1.691   0.847   1.300 -1.1537 -0.1750 -1.1384
  241SOL     OW  858   1.954   1.863   3.723 -0.7768  0.3204 -0.1974
  241SOL    HW1  859   1.980   1.909   3.803 -2.1552 -0.2318  0.5963
  241SOL    HW2  860   2.016   1.894   3.657  1.6145 -0.5982  1.4581
  242SOL     OW  861   0.981   1.044   3.672 -0.4534 -0.1414  0.3963
  242SOL    HW1  862   1.018   1.038   3.760 -1.5535  0.7665  0.9670
  242SOL    HW2  863   1.056   1.047   3.614  0.3089 -0.3344  1.3430
  243SOL     OW  864   0.548   2.663   0.409 -0.2132  0.2467 -0.5510
  243SOL    HW1  865   0.564   2.740   0.463 -0.7958 -0.1797  0.2745
  243SOL    HW2  866   0.588   2.591   0.458 -3.4463 -0.6711  1.0387
  244SOL     OW  867   3.055   3.323   0.716  0.3635  1.0053 -0.0302
  244SOL    HW1  868   3.009   3.282   0.643  0.4496  2.4058 -0.8937
  244SOL    HW2  869   3.019   3.411   0.721  1.3577  1.3894  0.7252
  245SOL     OW  870   1.447   3.304   0.859  0.2303  0.0802  0.1101
  245SOL    HW1  871   1.526   3.317   0.910 -0.2808  0.7770  0.7448
  245SOL    HW2  872   1.395   3.383   0.874 -1.2438 -0.9811  0.9060
  246SOL     OW  873   1.005   2.254   2.570  0.0980 -0.3763 -0.0945
  246SOL    HW1  874   0.910   2.252   2.578  0.0303 -2.1375 -0.9167
  246SOL    HW2  875   1.035   2.287   2.655 -1.1796 -1.9556  1.0357
  247SOL     OW  876   2.886   3.547   0.042 -0.2348 -0.0170 -1.0285
  247SOL    HW1  877   2.946   3.605   0.089 -0.5577 -0.4481 -0.0649
  247SOL    HW2  878   2.929   3.530  -0.042  0.1852  1.0494 -1.0428
  248SOL     OW  879   3.650   3.691   1.842 -0.4448  0.3145  0.5609
  248SOL    HW1  880   3.579   3.739   1.884 -2.1112 -0.0429 -1.6855
  248SOL    HW2  881   3.609   3.611   1.809  1.4868 -0.9438  1.0442
  249SOL     OW  882   2.439   3.670   1.708 -0.2034  0.3503 -0.7741
  249SOL    HW1  883   2.445   3.765   1.718 -2.2803  0.4564 -0.2169
  249SOL    HW2  884   2.440   3.655   1.614  0.9387  0.8286 -0.8565
  250SOL     OW  885   3.658   1.856   0.341  0.6488 -0.0006 -0.7287
  250SOL    HW1  886   3.714   1.785   0.311  1.7887  0.5028  0.1404
  250SOL    HW2  887   3.625   1.827   0.426  0.4694  0.1746 -0.7371
  251SOL     OW  888   2.056   0.516   0.997 -0.0478  0.0834  0.1251
  251SOL    HW1  889   2.010   0.577   1.055  2.7511  0.7954  1.7751
  251SOL    HW2  890   2.083   0.570   0.923  0.2067  0.2664  0.3458
  252SOL     OW  891   2.073   3.716   2.908 -0.2263 -0.4907 -0.2145
  252SOL    HW1  892   2.050   3.678   2.993 -0.8764  0.7210  0.1710
  252SOL    HW2  893   2.059   3.645   2.846 -1.4268 -0.8972  0.4809
  253SOL     OW  894   2.332   1.706   1.030 -0.0927 -0.4186  0.0974
  253SOL    HW1  895   2.368   1.667   1.109 -0.6643 -0.1321  0.5017
  253SOL    HW2  896   2.384   1.786   1.017 -0.4224 -0.1267  0.5496
  254SOL     OW  897   1.799   1.188   1.979 -0.5374 -0.1345  0.1548
  254SOL    HW1  898   1.861   1.241   1.929 -0.7967 -0.1664 -0.2011
  254SOL    HW2  899   1.726   1.174   1.920  0.7377 -3.3837 -0.8719
  255SOL     OW  900   1.009   2.493   1.125 -0.4490 -0.5838  0.2649
  255SOL    HW1  901   1.042   2.519   1.039  1.5090 -1.7656  0.6177
  255SOL    HW2  902   0.977   2.575   1.163 -1.5181 -0.0544 -1.6023
  256SOL     OW  903   0.992   1.955   0.410  0.1604  0.0357  0.4201
  256SOL    HW1  904   0.906   1.913   0.411  0.5292 -0.7954  2.3482
  256SOL    HW2  905   0.975   2.044   0.443  0.2102 -0.6915  2.6197
  257SOL     OW  906   2.553   3.343   0.394 -0.6480  0.0365  0.0144
  257SOL    HW1  907   2.515   3.424   0.428 -3.8966 -0.4832 -1.9034
  257SOL    HW2  908   2.629   3.372   0.343 -2.4174  2.1719 -1.6436
  258SOL     OW  909   3.001   2.411   3.511 -0.2151  0.3931  0.5511
  258SOL    HW1  910   2.981   2.376   3.598  1.6302  0.0783  0.8767
  258SOL    HW2  911   3.041   2.497   3.528  0.7577  0.0464  0.0606
  259SOL     OW  912   2.832   2.590   0.172 -0.1302 -0.1926  0.1338
  259SOL    HW1  913   2.873   2.669   0.137 -0.1250 -0.3472 -0.2167
  259SOL    HW2  914   2.869   2.519   0.119  0.5567 -0.5234  1.0401
  260SOL     OW  915   1.794   2.407   1.737  0.0343  0.1028 -0.1306
  260SOL    HW1  916   1.746   2.343   1.685 -1.7514  0.7992  0.5833
  260SOL    HW2  917   1.758   2.492   1.711 -0.3282  0.5259  1.5973
  261SOL     OW  918   1.617   1.313   2.133  0.9775  0.1455 -0.1145
  261SOL    HW1  919   1.632   1.398   2.092 -0.9367  0.1495 -0.9343
  261SOL    HW2  920   1.679   1.254   2.091  0.5263  0.6130 -1.4746
  262SOL     OW  921   3.640   3.436   2.772  0.0768  0.7833  0.4632
  262SOL    HW1  922   3.559   3.479   2.800 -0.4541  0.1910 -0.1267
  262SOL    HW2  923   3.616   3.345   2.759  0.5254  0.8296 -0.9082
  263SOL     OW  924   1.393   3.299   1.656  0.0018  0.4735  0.3051
  263SOL    HW1  925   1.416   3.392   1.653  0.4692  0.3605  0.2678
  263SOL    HW2  926   1.349   3.283   1.573  0.6094  0.4913 -0.0275
  264SOL     OW  927   0.368   3.166   2.551  0.0145 -0.0292 -0.5178
  264SOL    HW1  928   0.429   3.228   2.510  1.6044  0.4466  2.2867
  264SOL    HW2  929   0.423   3.110   2.605 -1.7944 -1.4226 -0.0169
  265SOL     OW  930   2.060   0.536   2.445  0.2284 -0.0486  0.2551
  265SOL    HW1  931   2.134   0.507   2.499 -0.7139  1.5196  2.5827
  265SOL    HW2  932   2.096   0.607   2.392  0.8924 -0.7965 -0.3186
  266SOL     OW  933   1.964   3.623   2.169  0.2728  0.2162  0.3779
  266SOL    HW1  934   1.891   3.682   2.151 -1.4659 -1.5789  1.2078
  266SOL    HW2  935   1.975   3.573   2.088 -0.5399 -0.6310  0.7746
  267SOL     OW  936   0.310   0.228   1.620  0.0802 -0.2336 -0.4809
  267SOL    HW1  937   0.311   0.322   1.642 -1.5515 -0.1122 -0.8225
  267SOL    HW2  938   0.369   0.221   1.545  0.4601  0.4564 -0.2637
  268SOL     OW  939   2.245   3.553   0.106  0.2263  0.0045 -0.2301
  268SOL    HW1  940   2.220   3.646   0.103  2.5580  0.7221  0.1488
  268SOL    HW2  941   2.340   3.554   0.092  0.1942 -2.4140 -1.0094
  269SOL     OW  942   0.203   1.238   1.764  0.0737 -0.1143 -0.5758
  269SOL    HW1  943   0.290   1.279   1.768 -0.2671  0.7535 -1.4909
  269SOL    HW2  944   0.218   1.147   1.789  0.7128  0.7383  2.6627
  270SOL     OW  945   2.636   2.666   0.524  0.0180  0.5870 -0.0169
  270SOL    HW1  946   2.681   2.590   0.562 -0.5651  0.4245  0.3666
  270SOL    HW2  947   2.557   2.676   0.578 -0.4638  0.7946 -0.7537
  271SOL     OW  948  -0.006   2.939   2.850  0.2128 -0.4136 -0.2889
  271SOL    HW1  949   0.019   2.952   2.942 -4.4648  2.9806  0.8851
  271SOL    HW2  950   0.047   3.002   2.801  1.1158 -0.6166  0.4040
  272SOL     OW  951   0.579   2.907   1.207 -0.4394 -0.3883  0.1991
  272SOL    HW1  952   0.566   2.813   1.219 -2.3727 -0.5512 -2.3410
  272SOL    HW2  953   0.523   2.930   1.133 -0.0469  2.7945  0.7375
  273SOL     OW  954   2.010   0.288   1.263  0.6610  0.2925 -0.5805
  273SOL    HW1  955   1.957   0.270   1.340  0.1527  2.0817 -0.4769
  273SOL    HW2  956   1.946   0.296   1.191  1.1369 -1.5393 -1.2695
  274SOL     OW  957   3.590   0.234   2.547 -0.6640 -0.0986 -0.1444
  274SOL    HW1  958   3.672   0.185   2.552 -0.9963 -0.6740 -0.2451
  274SOL    HW2  959   3.613   0.316   2.504 -0.1316 -0.2345 -0.1163
  275SOL     OW  960   2.651   0.350   3.673  0.5448 -0.0601  0.0536
  275SOL    HW1  961   2.741   0.344   3.707 -0.2774 -1.0174  2.2120
  275SOL    HW2  962   2.643   0.274   3.615  1.0381 -0.1210  0.0540
  276SOL     OW  963   0.338   2.228   1.861 -0.4049 -0.4430  0.5776
  276SOL    HW1  964   0.386   2.157   1.903  1.5011 -0.2955 -1.1758
  276SOL    HW2  965   0.247   2.214   1.887  0.1592 -2.4709  1.6991
  277SOL     OW  966   2.442   0.498   0.483 -0.8066  0.1238 -0.2716
  277SOL    HW1  967   2.419   0.573   0.428 -1.0163  1.0930  1.0763
  277SOL    HW2  968   2.538   0.496   0.481 -0.6438  2.0562  1.6605
  278SOL     OW  969   1.284   0.908   3.084  0.0191  0.1961  0.7758
  278SOL    HW1  970   1.345   0.837   3.102  1.1175  0.3280 -1.9507
  278SOL    HW2  971   1.338   0.978   3.047 -1.6655  0.5377 -1.2230
  279SOL     OW  972   1.465   2.220   1.945  0.0783 -0.2410 -0.3415
  279SOL    HW1  973   1.555   2.227   1.978  0.2143 -2.1083 -0.2511
  279SOL    HW2  974   1.469   2.258   1.857  0.7734  0.3866 -0.0550
  280SOL     OW  975   1.307   2.299   3.369 -0.2654 -0.9135  0.2693
  280SOL    HW1  976   1.332   2.258   3.286  0.6510 -0.1109  0.1289
  280SOL    HW2  977   1.300   2.227   3.431 -1.0053 -1.5305 -0.5031
  281SOL     OW  978   3.155   1.509   0.043 -0.6236 -0.1326  0.0010
  281SOL    HW1  979   3.102   1.577   0.084  0.2912  1.2509 -0.9921
  281SOL    HW2  980   3.098   1.470  -0.023 -0.6487  0.8508 -0.5697
  282SOL     OW  981   1.253   2.845   1.237 -0.1098 -0.0459  0.6131
  282SOL    HW1  982   1.301   2.791   1.299 -0.3882 -0.9584  0.0563
  282SOL    HW2  983   1.217   2.783   1.174 -1.9314  0.5963  0.9539
  283SOL     OW  984   0.050   2.005   0.015  0.5223 -0.3391  0.6440
  283SOL    HW1  985   0.073   1.941   0.082  0.8203 -1.7028 -0.7090
  283SOL    HW2  986   0.039   2.087   0.063  0.8529 -1.2372  2.3274
  284SOL     OW  987   0.014   3.304   0.510 -0.2078  0.6620  0.2802
  284SOL    HW1  988   0.014   3.345   0.424  1.2113  0.4160  0.1319
  284SOL    HW2  989  -0.020   3.216   0.495 -0.7834  0.9074  0.1327
  285SOL     OW  990   0.580   2.919   0.506 -0.2825 -0.1055 -0.0087
  285SOL    HW1  991   0.558   2.972   0.430  0.7243  0.4104  0.0487
  285SOL    HW2  992   0.557   2.974   0.581 -0.7784 -0.4077  0.0701
  286SOL     OW  993   2.063   2.393   0.272  0.1468 -0.1601 -0.3393
  286SOL    HW1  994   2.132   2.331   0.294 -1.4963 -2.2019 -0.6732
  286SOL    HW2  995   1.982   2.346   0.287 -1.2660  2.4725  0.9332
  287SOL     OW  996   0.917   1.557   0.378 -0.5399 -0.6462  0.1318
  287SOL    HW1  997   0.861   1.504   0.434 -0.3927 -1.5559 -0.5608
  287SOL    HW2  998   1.001   1.512   0.378  0.3612  0.9174  1.4739
  288SOL     OW  999   0.147   1.468   2.332 -0.1281 -0.1161 -0.3572
  288SOL    HW1 1000   0.097   1.550   2.333  0.1276  0.0396  0.5417
  288SOL    HW2 1001   0.080   1.400   2.342 -0.2529  0.0328 -0.1747
  289SOL     OW 1002   3.082   2.482   0.061  0.4095  0.2429  0.1869
  289SOL    HW1 1003   3.116   2.565   0.093  0.3348  0.9143 -1.3890
  289SOL    HW2 1004   3.152   2.419   0.076  0.8384  0.7952  0.5089
  290SOL     OW 1005   1.435   1.855   2.497  0.8339  0.8288  0.2910
  290SOL    HW1 1006   1.436   1.809   2.413  0.7752 -0.3145  0.8969
  290SOL    HW2 1007   1.527   1.877   2.513  1.0893 -0.4609  0.7105
  291SOL     OW 1008   3.427   3.511   3.255  0.7242  0.2248  0.4392
  291SOL    HW1 1009   3.486   3.466   3.315  0.8736 -0.3240 -0.1063
  291SOL    HW2 1010   3.474   3.513   3.172 -0.1839 -0.6138 -0.1208
  292SOL     OW 1011   3.619   0.491   2.711 -0.6410 -0.2477  0.0445
  292SOL    HW1 1012   3.545   0.508   2.652 -0.1925  0.0201 -0.4433
  292SOL    HW2 1013   3.602   0.548   2.787  0.5355  2.0420 -1.3115
  293SOL     OW 1014   3.072   3.143   0.982  0.1196  0.4260 -0.1930
  293SOL    HW1 1015   3.085   3.080   0.911 -0.5716 -0.5191  0.4906
  293SOL    HW2 1016   3.152   3.196   0.982  0.9145 -0.7325 -0.5006
  294SOL     OW 1017   1.805   2.812   1.775  0.3623  0.3773  0.4722
  294SOL    HW1 1018   1.843   2.734   1.735 -1.1921 -0.1169 -0.1080
  294SOL    HW2 1019   1.857   2.825   1.855  1.1659 -0.7601  0.1634
  295SOL     OW 1020   1.253   3.407   2.381 -0.2366 -0.2807  0.3038
  295SOL    HW1 1021   1.341   3.420   2.417  0.3558 -2.5590 -0.1386
  295SOL    HW2 1022   1.266   3.346   2.308 -2.0046  0.5846 -0.8033
  296SOL     OW 1023   3.038   0.942   3.483 -0.0124  0.2152 -0.3471
  296SOL    HW1 1024   3.045   0.854   3.445  0.6091  0.4839 -0.8651
  296SOL    HW2 1025   2.944   0.961   3.481 -0.0335  0.0533 -1.3607
  297SOL     OW 1026   0.974   2.596   2.597  0.0420 -0.1226 -0.1141
  297SOL    HW1 1027   1.019   2.534   2.654  0.7725 -0.6590 -1.2348
  297SOL    HW2 1028   0.975   2.555   2.511 -1.4578  0.4528 -0.4437
  298SOL     OW 1029   1.732   2.590   3.579  0.4346 -0.2838  0.6502
  298SOL    HW1 1030   1.670   2.525   3.547 -1.4833  0.5339  2.4929
  298SOL    HW2 1031   1.705   2.607   3.669  2.8584  0.7397  1.2640
  299SOL     OW 1032   3.355   1.317   1.488  0.3595  0.2549 -0.2196
  299SOL    HW1 1033   3.359   1.298   1.582  1.0400  1.3894  0.0021
  299SOL    HW2 1034   3.382   1.235   1.446  0.6111 -0.0946  0.5922
  300SOL     OW 1035   3.427   0.963   2.116  0.4505  0.3776 -0.0969
  300SOL    HW1 1036   3.353   1.022   2.104 -0.4282  0.1728  3.1906
  300SOL    HW2 1037   3.409   0.889   2.059 -0.5747  1.4254 -1.1761
  301SOL     OW 1038   0.119   2.078   2.197  0.1183 -0.6310  0.7397
  301SOL    HW1 1039   0.135   1.991   2.161 -1.1261 -1.3745  1.8991
  301SOL    HW2 1040   0.105   2.134   2.121 -1.5110 -1.9569  0.0136
  302SOL     OW 1041   2.892   1.338   1.949 -0.1280 -0.1684  0.0204
  302SOL    HW1 1042   2.984   1.313   1.940 -0.6909 -2.4696 -0.0346
  302SOL    HW2 1043   2.891   1.433   1.939  2.2063 -0.1263 -0.1979
  303SOL     OW 1044   1.147   0.772   3.679  0.2281 -0.3677  0.0636
  303SOL    HW1 1045   1.147   0.783   3.584  0.9404  0.0245  0.1000
  303SOL    HW2 1046   1.120   0.681   3.694  0.4138 -0.5179 -0.5228
  304SOL     OW 1047   1.510   1.650   2.294 -0.1310  0.2289  0.9273
  304SOL    HW1 1048   1.602   1.652   2.322  0.8243 -1.2118 -1.7764
  304SOL    HW2 1049   1.467   1.594   2.358  0.5172  1.8645  2.9409
  305SOL     OW 1050   0.517   2.824   2.655 -0.4097 -0.5495  0.1528
  305SOL    HW1 1051   0.537   2.918   2.657 -1.5971 -0.2866  0.1393
  305SOL    HW2 1052   0.602   2.783   2.638  0.3289  0.4427  1.2133
  306SOL     OW 1053   2.844   3.607   2.282  0.5574 -0.5019 -0.2058
  306SOL    HW1 1054   2.906   3.539   2.308  0.2572 -0.0856  1.7545
  306SOL    HW2 1055   2.863   3.680   2.340  1.1328  1.2845 -2.5173
  307SOL     OW 1056   0.506   0.274   2.334 -0.0386 -0.1081 -0.4690
  307SOL    HW1 1057   0.461   0.358   2.338  1.9823  1.0290  2.2857
  307SOL    HW2 1058   0.590   0.294   2.291  0.3066 -0.7826 -0.1212
  308SOL     OW 1059   0.894   0.410   2.472 -1.1958  0.6313  0.3409
  308SOL    HW1 1060   0.932   0.489   2.510 -0.2293  0.5510 -0.4229
  308SOL    HW2 1061   0.837   0.441   2.402  0.8681  0.5999 -1.4189
  309SOL     OW 1062   1.898   1.414   0.828  0.1149 -0.1404 -0.1871
  309SOL    HW1 1063   1.831   1.452   0.771 -1.7524 -0.6592  1.5240
  309SOL    HW2 1064   1.943   1.351   0.773  0.1379  1.2100 -1.7707
  310SOL     OW 1065   2.486   0.177   2.805 -0.0555  0.2617 -0.3012
  310SOL    HW1 1066   2.395   0.174   2.836 -0.9496 -1.3988 -2.7658
  310SOL    HW2 1067   2.530   0.105   2.850 -0.0577  0.8134  0.5934
  311SOL     OW 1068   3.166   2.304   3.132 -0.1962  0.3956  0.5608
  311SOL    HW1 1069   3.248   2.266   3.165  0.7846  1.4746 -0.5515
  311SOL    HW2 1070   3.098   2.256   3.179  1.0146 -1.5151  0.5142
  312SOL     OW 1071   3.451   3.590   2.253  0.4131  0.3690 -0.2743
  312SOL    HW1 1072   3.531   3.641   2.248  1.1533 -0.8572 -2.1738
  312SOL    HW2 1073   3.466   3.528   2.325  0.4166  1.3019  0.5465
  313SOL     OW 1074   1.650   3.597   3.196  0.0027 -0.4690 -0.6112
  313SOL    HW1 1075   1.604   3.619   3.277  0.1010 -0.5563 -0.5314
  313SOL    HW2 1076   1.602   3.645   3.128 -0.5404 -0.9868 -0.6020
  314SOL     OW 1077   2.564   2.392   3.406 -0.1681 -0.0005  0.9197
  314SOL    HW1 1078   2.480   2.438   3.398  0.2422  0.6861  0.5217
  314SOL    HW2 1079   2.556   2.343   3.488 -0.7725  0.4536  1.1417
  315SOL     OW 1080   0.394   1.369   2.334  0.5036 -0.2979  0.1461
  315SOL    HW1 1081   0.445   1.379   2.414  1.2415  0.6539 -0.4163
  315SOL    HW2 1082   0.305   1.396   2.359  0.2319 -1.9903  1.1367
  316SOL     OW 1083   1.002   2.089   2.128  0.3705 -1.0100 -0.5881
  316SOL    HW1 1084   0.967   2.172   2.096  0.1117 -0.8041  0.2111
  316SOL    HW2 1085   1.095   2.105   2.140  0.0077 -0.1172  1.6400
  317SOL     OW 1086   3.073   2.377   2.116 -0.2974  0.3532  0.0098
  317SOL    HW1 1087   3.168   2.387   2.125  0.2558  0.4824 -4.0854
  317SOL    HW2 1088   3.061   2.285   2.092 -0.8782  0.8050 -1.6020
  318SOL     OW 1089   2.851   1.766   2.272 -0.6503  0.2395  0.0566
  318SOL    HW1 1090   2.908   1.696   2.238 -2.1171 -0.2335 -1.5660
  318SOL    HW2 1091   2.907   1.815   2.332  1.6057  0.0299 -1.7525
  319SOL     OW 1092   0.528   3.147   0.318 -0.6957  0.0341 -0.1945
  319SOL    HW1 1093   0.571   3.190   0.392  2.1571 -0.9712 -1.1310
  319SOL    HW2 1094   0.461   3.209   0.289  1.7968  2.9203 -0.1638
  320SOL     OW 1095   3.365   0.689   2.236 -0.3319 -0.1801 -0.1757
  320SOL    HW1 1096   3.338   0.754   2.302 -1.2826 -2.8670  2.3138
  320SOL    HW2 1097   3.426   0.632   2.283  1.5230 -0.3865 -2.6683
  321SOL     OW 1098   2.076   0.127   3.193 -0.3317  0.1328  0.6663
  321SOL    HW1 1099   1.981   0.123   3.190 -0.3403  0.1549 -1.8140
  321SOL    HW2 1100   2.104   0.036   3.208 -0.7580 -0.1201 -0.0246
  322SOL     OW 1101   0.981   0.665   1.036 -0.1972  0.2334 -0.3680
  322SOL    HW1 1102   0.975   0.749   1.081 -0.1252 -0.4967  1.0685
  322SOL    HW2 1103   0.897   0.623   1.052 -0.0458 -0.1773 -0.6365
  323SOL     OW 1104   3.485   1.735   0.160 -0.5280  0.5433 -0.2823
  323SOL    HW1 1105   3.501   1.801   0.227 -0.6620  1.3513 -1.0236
  323SOL    HW2 1106   3.472   1.653   0.208 -1.0388  1.1900  0.6861
  324SOL     OW 1107   0.139   1.860   3.327 -0.3477  0.3201 -0.0581
  324SOL    HW1 1108   0.056   1.908   3.330 -0.2052  0.5177  1.7045
  324SOL    HW2 1109   0.151   1.829   3.416  0.1180 -2.0884 -0.9057
  325SOL     OW 1110   1.150   1.679   3.276 -0.0113  0.5425 -0.1461
  325SOL    HW1 1111   1.163   1.773   3.290 -0.9422  0.4656  1.4600
  325SOL    HW2 1112   1.110   1.648   3.357 -0.2211 -1.1518 -0.8605
  326SOL     OW 1113   0.658   1.894   1.625 -0.0725  0.0906  0.0127
  326SOL    HW1 1114   0.633   1.853   1.542  0.0232 -1.7817  0.8564
  326SOL    HW2 1115   0.575   1.921   1.663 -0.4948 -2.0696  0.7716
  327SOL     OW 1116   1.487   1.135   1.569 -0.1525 -0.4413  0.0450
  327SOL    HW1 1117   1.463   1.050   1.607  1.7175 -0.4586  1.3017
  327SOL    HW2 1118   1.427   1.198   1.610 -2.4439 -1.2190 -1.8524
  328SOL     OW 1119   3.375   1.333   0.117 -0.4585 -0.6360  0.0139
  328SOL    HW1 1120   3.297   1.389   0.120 -0.2724 -0.4039  2.4425
  328SOL    HW2 1121   3.434   1.371   0.183  3.0082  0.9568 -3.6146
  329SOL     OW 1122   3.507   2.951   2.666 -0.1224  0.4192 -0.0245
  329SOL    HW1 1123   3.468   2.921   2.748 -0.3404 -0.3493 -0.4034
  329SOL    HW2 1124   3.602   2.942   2.680 -0.1313  0.8690  0.3551
  330SOL     OW 1125   3.535   3.203   2.596 -0.2865 -0.0053  0.6474
  330SOL    HW1 1126   3.525   3.116   2.634 -1.4357 -0.8118 -1.3476
  330SOL    HW2 1127   3.630   3.213   2.583  0.0140 -0.2061  2.4585
  331SOL     OW 1128   1.676   1.234   1.069 -0.5156 -0.5501  0.1984
  331SOL    HW1 1129   1.745   1.185   1.114 -0.1945  0.6160  1.0175
  331SOL    HW2 1130   1.723   1.300   1.018 -0.9862 -0.3546  0.0096
  332SOL     OW 1131   3.524   1.814   3.129  0.7657  0.6203 -0.4324
  332SOL    HW1 1132   3.487   1.901   3.143 -0.2806  0.4242 -1.7089
  332SOL    HW2 1133   3.534   1.778   3.217 -0.4178  1.3855  0.0528
  333SOL     OW 1134   2.933   1.757   2.800  0.5859  0.2497 -0.8224
  333SOL    HW1 1135   3.000   1.792   2.741  0.3947  1.3572 -0.4097
  333SOL    HW2 1136   2.914   1.829   2.860 -0.9876 -0.0445 -0.9367
  334SOL     OW 1137   1.237   2.402   2.055  0.4568 -0.3945 -0.1667
  334SOL    HW1 1138   1.302   2.356   2.109  1.8300 -0.6315 -1.9265
  334SOL    HW2 1139   1.240   2.356   1.971 -1.4859  0.0782 -0.5364
  335SOL     OW 1140   0.581   2.618   1.250 -0.3399  1.1433  0.8338
  335SOL    HW1 1141   0.513   2.572   1.202  1.3247  0.4771 -0.9931
  335SOL    HW2 1142   0.566   2.594   1.342 -1.7033 -0.0887  0.3261
  336SOL     OW 1143   2.783   1.057   1.310 -0.0897  0.3159  0.1158
  336SOL    HW1 1144   2.731   1.069   1.389 -1.6694 -0.4471 -0.7480
  336SOL    HW2 1145   2.831   0.975   1.324 -0.3996  0.1612  0.2896
  337SOL     OW 1146   0.212   1.631   1.035 -0.1311 -0.5058  0.7999
  337SOL    HW1 1147   0.282   1.658   1.094  1.3148 -2.5184  0.1457
  337SOL    HW2 1148   0.139   1.608   1.092 -0.3833  1.7812  1.4889
  338SOL     OW 1149   0.021   2.006   1.618  0.2962 -0.2752 -0.3903
  338SOL    HW1 1150  -0.066   2.044   1.608 -0.6172 -1.8153  1.1650
  338SOL    HW2 1151   0.081   2.078   1.596 -1.2822  2.2121  2.6561
  339SOL     OW 1152   1.611   2.209   3.522  0.0351 -0.4811  0.1013
  339SOL    HW1 1153   1.702   2.200   3.551 -0.5236  0.5728  2.3906
  339SOL    HW2 1154   1.609   2.167   3.435  2.8438  0.1452 -0.3600
  340SOL     OW 1155   1.673   3.115   1.492 -0.3431 -0.4986  0.2094
  340SOL    HW1 1156   1.624   3.174   1.435  2.0733  0.4840 -0.9626
  340SOL    HW2 1157   1.685   3.164   1.573 -0.0856 -0.1620 -0.0272
  341SOL     OW 1158   3.554   2.789   3.007 -0.0978 -0.7641  0.2584
  341SOL    HW1 1159   3.624   2.830   2.955  0.6903 -0.8805  1.1918
  341SOL    HW2 1160   3.475   2.801   2.954 -0.0963  2.7361  0.8338
  342SOL     OW 1161   3.484   2.771   3.264  0.3810 -0.8379  0.4702
  342SOL    HW1 1162   3.562   2.730   3.302  0.0072 -0.9214  1.1618
  342SOL    HW2 1163   3.509   2.792   3.174  1.6504  0.3897  1.0856
  343SOL     OW 1164   1.233   2.810   0.284 -0.4839  0.5048 -0.6993
  343SOL    HW1 1165   1.296   2.827   0.355  0.8414 -0.6181 -1.5351
  343SOL    HW2 1166   1.156   2.775   0.328  0.6349 -1.0084  0.1710
  344SOL     OW 1167   2.829   2.144   1.814 -0.3964  0.0811  0.1969
  344SOL    HW1 1168   2.810   2.237   1.801 -0.8969  0.2000  1.6950
  344SOL    HW2 1169   2.743   2.104   1.830 -0.2616 -0.7666 -1.0045
  345SOL     OW 1170   0.604   0.156   0.812  0.4505 -0.4485 -0.1095
  345SOL    HW1 1171   0.526   0.210   0.804 -0.7113 -1.9318  0.6564
  345SOL    HW2 1172   0.628   0.161   0.904  1.3008  0.0114 -0.3404
  346SOL     OW 1173   2.067   1.555   1.271 -0.0858  0.4327 -0.2268
  346SOL    HW1 1174   2.160   1.555   1.249 -0.0293  2.3436 -0.1311
  346SOL    HW2 1175   2.031   1.628   1.222 -1.4346  0.0933  0.2235
  347SOL     OW 1176   1.969   1.444   2.287 -0.0779  0.2610  0.2792
  347SOL    HW1 1177   1.924   1.361   2.304  1.4317 -0.6752 -0.0966
  347SOL    HW2 1178   1.918   1.509   2.334 -0.1711 -1.1752  2.2691
  348SOL     OW 1179   3.135   1.604   2.512 -0.3956  0.3322  0.4510
  348SOL    HW1 1180   3.042   1.627   2.521 -0.7564 -1.5812  3.0665
  348SOL    HW2 1181   3.181   1.667   2.567 -0.2639  0.5644  0.0792
  349SOL     OW 1182   1.815   2.572   3.057 -0.5914  0.2367 -0.0629
  349SOL    HW1 1183   1.753   2.559   3.129 -3.6930 -2.1115 -2.8161
  349SOL    HW2 1184   1.782   2.649   3.011 -0.2790  0.1344 -0.4617
  350SOL     OW 1185   1.338   2.662   3.538 -0.2253 -0.3095 -0.4232
  350SOL    HW1 1186   1.353   2.718   3.615  1.3036 -0.4865 -0.5601
  350SOL    HW2 1187   1.425   2.629   3.516 -0.9817 -2.1041 -0.8442
  351SOL     OW 1188   3.068   3.447   0.395  0.4256  0.3854  0.1377
  351SOL    HW1 1189   3.142   3.506   0.408 -0.8864  2.3586 -0.8643
  351SOL    HW2 1190   3.108   3.362   0.376  2.3811  0.4258  3.4151
  352SOL     OW 1191   2.725   0.813   1.849 -0.0058  0.3287  0.1790
  352SOL    HW1 1192   2.781   0.745   1.888 -0.2229  0.4244  0.6617
  352SOL    HW2 1193   2.682   0.769   1.776  0.0260  0.0058  0.3496
  353SOL     OW 1194   0.951   0.810   0.220 -0.1114  0.6867  0.2458
  353SOL    HW1 1195   1.040   0.843   0.233  0.3997 -0.7337  0.5759
  353SOL    HW2 1196   0.894   0.877   0.257  0.9777  0.1964  3.0426
  354SOL     OW 1197   2.440   3.091   3.354  0.1196 -0.1625  0.8773
  354SOL    HW1 1198   2.415   3.035   3.428 -0.2893  0.2300  1.0460
  354SOL    HW2 1199   2.448   3.179   3.392  2.1944 -0.3223  0.9034
  355SOL     OW 1200   1.358   2.735   1.519  1.1700  0.2721  0.1300
  355SOL    HW1 1201   1.376   2.829   1.527  0.7723  0.2399  1.8608
  355SOL    HW2 1202   1.403   2.696   1.594 -1.2149 -0.4907  1.2771
  356SOL     OW 1203   0.984   2.928   2.206 -0.4109 -0.4015 -0.2717
  356SOL    HW1 1204   0.939   2.976   2.137 -0.1560  0.0976 -0.0893
  356SOL    HW2 1205   0.915   2.906   2.269 -0.5110 -0.1860 -0.3055
  357SOL     OW 1206   1.888   3.231   2.532 -0.0914 -0.1294  0.4312
  357SOL    HW1 1207   1.966   3.239   2.476 -1.4577 -0.2880 -1.6159
  357SOL    HW2 1208   1.857   3.321   2.542 -0.7532 -0.2385 -0.4849
  358SOL     OW 1209   0.830   0.579   2.859  0.3665  0.2195  0.2292
  358SOL    HW1 1210   0.804   0.536   2.940 -0.8739  1.0878  0.3376
  358SOL    HW2 1211   0.826   0.673   2.880  5.3249  0.5643  0.7351
  359SOL     OW 1212   0.984   0.220   1.594  0.0234 -0.0313  0.0643
  359SOL    HW1 1213   0.994   0.289   1.659 -1.4773  0.1189  0.1731
  359SOL    HW2 1214   1.013   0.141   1.638  0.6635  0.3374  0.3212
  360SOL     OW 1215   1.483   3.649   0.437 -0.6570  0.2394  0.4520
  360SOL    HW1 1216   1.576   3.661   0.418 -0.3331  0.2332  1.9158
  360SOL    HW2 1217   1.441   3.646   0.351  0.6894  0.2477 -0.2286
  361SOL     OW 1218   2.471   2.222   2.724 -0.7785 -0.3031  0.4044
  361SOL    HW1 1219   2.466   2.131   2.752  1.3483 -0.1199  1.5755
  361SOL    HW2 1220   2.474   2.273   2.805  0.9017  0.5731 -0.1493
  362SOL     OW 1221   0.432   0.969   2.421  0.2051 -0.1513  0.4455
  362SOL    HW1 1222   0.428   0.903   2.490  2.4832 -0.4435  0.3988
  362SOL    HW2 1223   0.444   0.917   2.341 -0.4523  0.2549  0.0771
  363SOL     OW 1224   0.519   0.114   2.550  0.1769  0.5958  0.2208
  363SOL    HW1 1225   0.509   0.182   2.484 -0.2069 -1.2643 -1.7371
  363SOL    HW2 1226   0.611   0.087   2.543 -0.2186 -0.5942 -0.6066
  364SOL     OW 1227   2.986   0.308   3.445  0.1258  0.3282  0.2959
  364SOL    HW1 1228   3.077   0.319   3.470 -0.3992  3.4073  1.2541
  364SOL    HW2 1229   2.950   0.248   3.510  1.1373  0.2263  0.7833
  365SOL     OW 1230   0.256   1.221   3.346 -0.4520  0.1271  0.0873
  365SOL    HW1 1231   0.328   1.169   3.309  0.0172  2.0060 -1.8653
  365SOL    HW2 1232   0.235   1.178   3.429  0.8103 -2.3029 -0.7684
  366SOL     OW 1233   1.132   1.080   1.315 -0.0875  0.6461 -0.2057
  366SOL    HW1 1234   1.192   1.155   1.318  0.8908  0.0535 -2.4282
  366SOL    HW2 1235   1.187   1.004   1.337  0.2964 -0.0033 -3.0132
  367SOL     OW 1236   3.422   3.391   0.135  0.2943 -0.6978  0.0774
  367SOL    HW1 1237   3.475   3.317   0.105  0.2683 -0.9388  0.6261
  367SOL    HW2 1238   3.340   3.383   0.087  0.6069 -0.5338 -0.5011
  368SOL     OW 1239   1.139   0.305   3.264  0.2869 -0.0549 -0.0307
  368SOL    HW1 1240   1.066   0.250   3.237  0.9297 -1.2943  0.6857
  368SOL    HW2 1241   1.217   0.256   3.238  0.8887 -0.0179  1.5639
  369SOL     OW 1242   0.498   1.786   0.887  0.2321  0.2992 -0.2818
  369SOL    HW1 1243   0.433   1.723   0.857  0.8379 -0.5673  0.2003
  369SOL    HW2 1244   0.536   1.821   0.806 -0.2076  0.1564 -0.5514
  370SOL     OW 1245   0.123   2.931   3.088  0.0604 -0.3535 -0.4263
  370SOL    HW1 1246   0.141   2.846   3.128 -1.2905  0.7737  2.9909
  370SOL    HW2 1247   0.198   2.985   3.112  0.2218 -0.1932 -1.2902
  371SOL     OW 1248   1.777   1.060   3.214  0.3596 -0.2859  0.2287
  371SOL    HW1 1249   1.835   1.043   3.141  0.3591 -1.8222  0.5533
  371SOL    HW2 1250   1.835   1.088   3.285  0.3865  0.9380 -0.2670
  372SOL     OW 1251   0.837   1.002   0.959 -0.2708 -0.2613 -0.3207
  372SOL    HW1 1252   0.862   0.966   1.044 -0.3732 -2.4632 -1.1542
  372SOL    HW2 1253   0.790   1.082   0.980 -0.6984 -0.9774  1.7260
  373SOL     OW 1254   1.891   2.008   0.611 -0.2868 -0.4297 -1.1557
  373SOL    HW1 1255   1.882   2.076   0.544  1.8020  1.3806  0.2605
  373SOL    HW2 1256   1.834   2.038   0.682  2.4693  1.3469  0.4865
  374SOL     OW 1257   3.452   2.988   0.675  0.7313 -0.1830  0.0523
  374SOL    HW1 1258   3.417   2.948   0.755  1.4636 -0.8936  0.0305
  374SOL    HW2 1259   3.437   3.081   0.686 -1.4265 -0.4464 -0.0752
  375SOL     OW 1260   1.651   0.519   2.024 -0.4046  1.1467 -0.3145
  375SOL    HW1 1261   1.642   0.428   2.050 -0.4830  1.0059 -0.8231
  375SOL    HW2 1262   1.621   0.569   2.100  0.4144  0.7646  0.2722
  376SOL     OW 1263   3.338   0.292   2.479 -0.1891  0.5803  0.4377
  376SOL    HW1 1264   3.413   0.261   2.531  1.1204 -0.2990 -1.7938
  376SOL    HW2 1265   3.357   0.384   2.462  2.1442 -0.2828 -2.6101
  377SOL     OW 1266   3.511   3.090   1.445  0.1119 -0.4917  0.9077
  377SOL    HW1 1267   3.545   3.111   1.358 -1.6926 -0.3397  0.1871
  377SOL    HW2 1268   3.496   2.996   1.443  2.0240 -0.8559  1.8265
  378SOL     OW 1269   2.034   1.337   0.146 -0.6841 -0.0391 -0.3270
  378SOL    HW1 1270   2.111   1.358   0.200 -0.7959  1.9677 -0.8641
  378SOL    HW2 1271   2.071   1.313   0.061 -0.6031  0.4493 -0.4377
  379SOL     OW 1272   3.626   0.024   2.899 -0.2310  0.2523 -0.0015
  379SOL    HW1 1273   3.704  -0.014   2.858 -1.1357  1.0223 -2.6096
  379SOL    HW2 1274   3.631   0.117   2.881 -0.8893  0.5837  1.3653
  380SOL     OW 1275   1.826   2.134   2.824 -0.0239  0.2386  0.6496
  380SOL    HW1 1276   1.867   2.214   2.856 -1.8712  2.3993 -1.8688
  380SOL    HW2 1277   1.733   2.145   2.846 -0.5929 -0.2688 -1.2942
  381SOL     OW 1278   1.568   2.539   2.864  0.5232  0.1057  0.0984
  381SOL    HW1 1279   1.477   2.513   2.879  0.7031 -0.7569 -0.2300
  381SOL    HW2 1280   1.585   2.605   2.931  0.6302 -2.0262  2.3347
  382SOL     OW 1281   2.598   2.820   0.192 -0.0356 -0.5650  0.3208
  382SOL    HW1 1282   2.662   2.749   0.185 -0.6404 -0.9837 -1.6126
  382SOL    HW2 1283   2.557   2.806   0.277  0.0092 -2.4258  0.0935
  383SOL     OW 1284   1.800   2.873   3.253  0.0154 -0.0889  1.0108
  383SOL    HW1 1285   1.846   2.808   3.306  0.0169  0.4833  1.7155
  383SOL    HW2 1286   1.868   2.913   3.199  0.1399 -0.1266  1.1390
  384SOL     OW 1287   0.243   2.564   1.948 -0.2078 -0.0379 -0.1510
  384SOL    HW1 1288   0.227   2.658   1.953  0.9041  0.1688 -0.1871
  384SOL    HW2 1289   0.238   2.534   2.039  4.1814  0.9432  0.6529
  385SOL     OW 1290   1.676   3.196   3.160 -0.0983 -0.2788  0.3579
  385SOL    HW1 1291   1.721   3.213   3.077 -1.5684 -1.0317 -0.6451
  385SOL    HW2 1292   1.717   3.255   3.223  0.8741  0.4967 -0.9649
  386SOL     OW 1293   2.884   1.228   2.790 -0.2567 -0.0308  0.7534
  386SOL    HW1 1294   2.961   1.257   2.839 -1.7953  1.3425  2.4978
  386SOL    HW2 1295   2.879   1.287   2.715  1.5383 -1.4971 -0.6043
  387SOL     OW 1296   0.921   2.661   0.793  0.0078 -0.2536 -0.2247
  387SOL    HW1 1297   0.838   2.615   0.778  1.0919 -2.5132  0.3459
  387SOL    HW2 1298   0.979   2.631   0.723  1.3000 -1.2970  1.2189
  388SOL     OW 1299   1.723   1.857   0.400 -0.1938  0.0232 -0.9381
  388SOL    HW1 1300   1.804   1.889   0.359  0.0135  0.2840 -0.3414
  388SOL    HW2 1301   1.751   1.825   0.486 -0.9875  1.9166  0.1080
  389SOL     OW 1302   0.030   0.447   2.489  0.0887  0.4805  0.4848
  389SOL    HW1 1303   0.012   0.464   2.581 -0.6734 -0.2920  0.4812
  389SOL    HW2 1304   0.126   0.438   2.485  0.0600 -0.3156  1.3433
  390SOL     OW 1305   1.673   1.474   1.308 -0.1766  0.0910 -1.1485
  390SOL    HW1 1306   1.625   1.483   1.226 -1.1135  0.6775 -0.5583
  390SOL    HW2 1307   1.679   1.380   1.323  0.4543 -0.0422 -2.1315
  391SOL     OW 1308   1.721   1.860   2.250  0.7336 -0.0413  0.0203
  391SOL    HW1 1309   1.805   1.880   2.292 -0.0139 -0.9962  2.0965
  391SOL    HW2 1310   1.664   1.932   2.277 -0.3015 -1.6572  2.4801
  392SOL     OW 1311   1.507   2.666   1.031 -0.0335 -0.0511 -0.3957
  392SOL    HW1 1312   1.518   2.707   0.945  1.3401 -0.2474 -0.3368
  392SOL    HW2 1313   1.596   2.651   1.062 -0.4961  0.5033  1.3068
  393SOL     OW 1314   0.079   0.863   3.197 -0.2325 -0.5222 -0.3297
  393SOL    HW1 1315   0.055   0.771   3.185  1.8222 -1.1390 -0.1901
  393SOL    HW2 1316   0.046   0.886   3.284 -0.3253 -1.3058 -0.1551
  394SOL     OW 1317   2.884   1.620   3.628  0.2362 -0.4780 -0.3453
  394SOL    HW1 1318   2.845   1.653   3.547 -1.8629 -1.2344  0.2914
  394SOL    HW2 1319   2.970   1.662   3.632  0.2708 -0.1730 -2.7803
  395SOL     OW 1320   0.775   2.465   1.640  0.2657  0.1529 -0.2882
  395SOL    HW1 1321   0.692   2.433   1.675  1.0047 -1.0588  0.4450
  395SOL    HW2 1322   0.782   2.555   1.671  0.3664 -0.5310  1.8180
  396SOL     OW 1323   2.553   2.987   0.007  0.4748  0.1323  0.0881
  396SOL    HW1 1324   2.570   2.917   0.069  2.0643 -0.6678 -1.2016
  396SOL    HW2 1325   2.482   2.953  -0.049 -1.7545  1.2909  2.0493
  397SOL     OW 1326   0.060   0.348   0.030  0.2790  0.0508  0.7424
  397SOL    HW1 1327  -0.030   0.373   0.011 -0.4178 -2.2544  0.7869
  397SOL    HW2 1328   0.111   0.387  -0.041 -0.3584  3.2326  1.8474
  398SOL     OW 1329   2.095   0.858   1.416  1.2677  0.1556 -0.1216
  398SOL    HW1 1330   2.121   0.898   1.334 -0.4426 -1.4363 -1.5389
  398SOL    HW2 1331   2.111   0.764   1.404  0.6409 -0.1548  1.2164
  399SOL     OW 1332   2.133   0.270   2.608  0.2730 -0.7044 -0.1068
  399SOL    HW1 1333   2.053   0.272   2.660 -0.5869 -0.8060 -1.3728
  399SOL    HW2 1334   2.175   0.187   2.631  0.7730 -0.0405  1.5900
  400SOL     OW 1335   2.591   2.625   1.123  0.3591 -0.1883 -0.0492
  400SOL    HW1 1336   2.512   2.610   1.175  1.1084  0.5602  1.3601
  400SOL    HW2 1337   2.607   2.719   1.130  0.0779  0.0850 -2.2953
  401SOL     OW 1338   0.352   3.320   2.131 -0.8058 -0.1486 -0.0694
  401SOL    HW1 1339   0.331   3.311   2.038 -3.6450 -0.3982  0.5076
  401SOL    HW2 1340   0.342   3.232   2.166  1.0196 -0.2111  0.3883
  402SOL     OW 1341   2.519   0.857   0.641 -0.3233 -0.5374 -0.0020
  402SOL    HW1 1342   2.601   0.851   0.592  0.0560  3.0067 -0.0870
  402SOL    HW2 1343   2.546   0.847   0.733  0.4062  1.2160  0.0236
  403SOL     OW 1344   2.358   1.553   2.820 -0.7774  0.0269  0.1276
  403SOL    HW1 1345   2.297   1.480   2.812 -0.5564 -0.1568  0.1207
  403SOL    HW2 1346   2.405   1.537   2.902 -0.6812  0.1245  0.0923
  404SOL     OW 1347   1.357   2.394   2.951 -0.8421 -0.1662 -0.1057
  404SOL    HW1 1348   1.315   2.389   2.865 -1.1337  0.4313 -0.0013
  404SOL    HW2 1349   1.329   2.478   2.987 -0.9662 -0.5363  0.7014
  405SOL     OW 1350   0.349   2.502   2.185  0.0704  0.2535 -0.0786
  405SOL    HW1 1351   0.341   2.426   2.242 -2.7443  0.6002  0.1709
  405SOL    HW2 1352   0.362   2.576   2.245  1.8764  0.1172 -0.2605
  406SOL     OW 1353   0.239   2.821   0.828  0.3918 -0.0037 -0.3441
  406SOL    HW1 1354   0.199   2.869   0.756 -3.6062 -0.3834  1.3793
  406SOL    HW2 1355   0.273   2.889   0.886  1.2655  0.3916 -1.2947
  407SOL     OW 1356   3.110   2.967   0.777 -0.7626 -0.0736  0.2015
  407SOL    HW1 1357   3.052   2.891   0.781 -0.2109 -0.5292 -0.2473
  407SOL    HW2 1358   3.094   3.005   0.690 -0.8220  0.1411  0.3078
  408SOL     OW 1359   0.762   1.422   0.562 -0.4185 -0.2464  0.0605
  408SOL    HW1 1360   0.682   1.369   0.555 -0.4921 -0.1374  0.0698
  408SOL    HW2 1361   0.832   1.358   0.576 -0.5869 -0.3021  0.6722
  409SOL     OW 1362   3.390   0.897   2.859 -0.4910  0.1271 -0.2613
  409SOL    HW1 1363   3.479   0.905   2.823 -0.2272  1.9798  0.7048
  409SOL    HW2 1364   3.400   0.835   2.931  0.0446  0.4531 -0.0495
  410SOL     OW 1365   2.560   1.584   3.461 -0.0543 -0.0200  0.0999
  410SOL    HW1 1366   2.639   1.600   3.410 -0.3800  2.3193  0.2386
  410SOL    HW2 1367   2.579   1.503   3.509  0.6965 -1.7190 -2.7969
  411SOL     OW 1368   1.066   3.181   0.907 -0.2172  0.4966 -0.0226
  411SOL    HW1 1369   1.059   3.093   0.871 -0.9527  1.7240 -3.1559
  411SOL    HW2 1370   0.978   3.218   0.899  0.3920  1.9999 -0.1008
  412SOL     OW 1371   1.100   2.933   1.881 -0.1797  0.3326  0.6021
  412SOL    HW1 1372   1.005   2.941   1.895 -0.6790 -1.1039 -1.4359
  412SOL    HW2 1373   1.112   2.841   1.857  1.8768  0.3002  1.6125
  413SOL     OW 1374   2.845   1.525   2.673  0.2009 -0.0395 -0.1825
  413SOL    HW1 1375   2.768   1.576   2.648  0.1475 -0.6335 -1.3050
  413SOL    HW2 1376   2.893   1.581   2.733 -2.7756 -0.8689  3.3507
  414SOL     OW 1377   1.082   3.041   3.352  0.3073  0.1546  0.2363
  414SOL    HW1 1378   1.121   3.099   3.287  1.7191  0.5534  1.3793
  414SOL    HW2 1379   1.134   2.961   3.348  1.0489  0.5389  1.4907
  415SOL     OW 1380   1.643   0.610   1.076 -0.2880 -0.3278  0.5283
  415SOL    HW1 1381   1.590   0.642   1.149  1.2249  0.1831  1.4364
  415SOL    HW2 1382   1.592   0.537   1.040 -1.3433 -0.2149  1.7142
  416SOL     OW 1383   3.373   0.232   2.209  0.1614 -0.1414  0.2548
  416SOL    HW1 1384   3.468   0.244   2.216  0.5507 -2.9635  0.8660
  416SOL    HW2 1385   3.343   0.225   2.300 -0.4744 -0.2645  0.0392
  417SOL     OW 1386   3.578   3.027   0.444  0.1176 -0.2835 -0.6327
  417SOL    HW1 1387   3.550   3.027   0.535 -2.6122 -0.1278 -1.3933
  417SOL    HW2 1388   3.565   2.937   0.415 -1.0505  0.0978 -1.3807
  418SOL     OW 1389   0.912   1.283   3.432  0.3857  0.2381 -0.0301
  418SOL    HW1 1390   0.973   1.279   3.505 -0.4118  0.4708  0.6608
  418SOL    HW2 1391   0.938   1.210   3.375 -0.9433 -2.0575  2.0721
  419SOL     OW 1392   2.079   2.236   3.420 -0.1107 -0.2370  0.2719
  419SOL    HW1 1393   2.025   2.315   3.433  0.6514  0.3699 -0.1566
  419SOL    HW2 1394   2.031   2.167   3.466 -0.2275  0.7098  1.6645
  420SOL     OW 1395   2.771   3.592   3.350  0.0655  0.3608  0.2615
  420SOL    HW1 1396   2.725   3.510   3.369  3.0511 -1.6948 -0.7409
  420SOL    HW2 1397   2.731   3.623   3.269  0.4148 -1.4079 -0.6325
  421SOL     OW 1398   2.432   2.846   2.275 -0.1339 -0.0302  0.3792
  421SOL    HW1 1399   2.418   2.753   2.261  2.0491 -0.5511  1.1122
  421SOL    HW2 1400   2.369   2.890   2.218 -1.4440 -1.9309  0.2821
  422SOL     OW 1401   1.294   1.446   2.719  0.4140 -0.0505  0.5374
  422SOL    HW1 1402   1.356   1.434   2.791  2.6851  0.7310 -1.1746
  422SOL    HW2 1403   1.225   1.503   2.756  0.9745 -0.4669  2.3344
  423SOL     OW 1404   1.587   2.763   3.002 -0.5534  0.3269  0.1244
  423SOL    HW1 1405   1.621   2.830   2.943  0.0558  1.2065  1.4010
  423SOL    HW2 1406   1.580   2.807   3.087 -1.8629 -0.7471  0.6188
  424SOL     OW 1407   1.607   2.253   2.923  0.0445  0.2756 -0.3330
  424SOL    HW1 1408   1.654   2.260   3.006 -1.8671 -1.4442  0.9837
  424SOL    HW2 1409   1.595   2.344   2.895  1.9172  0.8378  0.5224
  425SOL     OW 1410   2.522   0.297   0.916  0.1495  0.1935 -0.7231
  425SOL    HW1 1411   2.454   0.249   0.870 -0.4975  1.3786 -1.0390
  425SOL    HW2 1412   2.576   0.336   0.847  0.8660 -0.3458 -0.4748
  426SOL     OW 1413   2.230   1.313   1.530 -0.5077  0.3334 -0.3919
  426SOL    HW1 1414   2.283   1.249   1.483 -0.7263 -0.7872  0.8082
  426SOL    HW2 1415   2.285   1.391   1.535  1.4668 -1.0561  1.5475
  427SOL     OW 1416   2.277   2.567   0.375  0.2295 -0.1557  0.0337
  427SOL    HW1 1417   2.307   2.491   0.324  1.4025  2.1627 -3.0500
  427SOL    HW2 1418   2.195   2.594   0.333  0.4940  0.9995  0.2228
  428SOL     OW 1419   2.837   1.527   0.946 -0.2421  0.3167 -0.2508
  428SOL    HW1 1420   2.829   1.619   0.972  0.1338 -0.6368  3.8321
  428SOL    HW2 1421   2.916   1.496   0.989 -1.6507 -2.4927  0.5690
  429SOL     OW 1422   3.361   2.995   2.418  0.5939 -0.2552  0.4817
  429SOL    HW1 1423   3.429   3.017   2.482 -0.8515  1.3405  1.5252
  429SOL    HW2 1424   3.296   3.064   2.426 -0.5422 -1.0108 -1.4410
  430SOL     OW 1425   1.039   1.689   0.156  0.2668 -0.0214 -0.2328
  430SOL    HW1 1426   1.115   1.633   0.141  1.1215  1.4718 -1.8297
  430SOL    HW2 1427   1.013   1.670   0.247  1.3742 -1.9144 -0.2552
  431SOL     OW 1428   1.294   0.087   3.505 -0.0214  0.4437  0.2296
  431SOL    HW1 1429   1.362   0.137   3.550 -1.6793  0.9284  2.3821
  431SOL    HW2 1430   1.228   0.153   3.482 -0.4697 -0.2224 -0.4172
  432SOL     OW 1431   2.877   1.252   0.809 -0.2114 -0.1372  0.4865
  432SOL    HW1 1432   2.855   1.171   0.763 -1.0836  1.3263 -1.8656
  432SOL    HW2 1433   2.893   1.225   0.899  0.8831 -3.1093 -0.4757
  433SOL     OW 1434   2.833   0.081   2.479  0.5277  0.5097  0.3608
  433SOL    HW1 1435   2.762   0.124   2.526  1.1281  0.0378  1.7674
  433SOL    HW2 1436   2.878   0.029   2.546  1.5814  0.0059 -0.6964
  434SOL     OW 1437   0.647   3.085   3.255 -0.8734  0.1500 -0.4257
  434SOL    HW1 1438   0.586   3.152   3.223  0.1622  0.8976 -0.8978
  434SOL    HW2 1439   0.660   3.108   3.347 -2.1102 -0.6566 -0.0250
  435SOL     OW 1440   1.763   2.537   2.649 -0.4834  0.0501  0.3977
  435SOL    HW1 1441   1.705   2.518   2.722 -1.1322 -0.4852 -0.2425
  435SOL    HW2 1442   1.741   2.626   2.623 -2.7916 -0.9547 -1.3942
  436SOL     OW 1443   3.085   3.074   0.160  0.5069  0.5181 -0.2792
  436SOL    HW1 1444   3.085   3.069   0.064 -2.0012  1.2096 -0.4023
  436SOL    HW2 1445   3.010   3.021   0.187  1.7492 -0.4762  1.4214
  437SOL     OW 1446   0.080   1.446   1.515  0.0543  0.5316 -0.6621
  437SOL    HW1 1447   0.050   1.464   1.604 -3.9698 -5.0048 -0.4293
  437SOL    HW2 1448   0.175   1.437   1.524 -0.1742  0.1703  3.1138
  438SOL     OW 1449   2.397   3.379   1.484  0.0862 -0.2840  0.1411
  438SOL    HW1 1450   2.356   3.326   1.552 -0.1838  0.9241  0.9594
  438SOL    HW2 1451   2.491   3.368   1.498  0.0557  0.8195  1.4674
  439SOL     OW 1452   3.304   0.033   3.271 -0.3019  0.6292  0.4244
  439SOL    HW1 1453   3.334  -0.055   3.246 -1.0019  0.1730  1.1470
  439SOL    HW2 1454   3.297   0.030   3.366  1.5839  2.0938  0.6787
  440SOL     OW 1455   0.721   0.793   2.311  0.1336  0.1915  0.0735
  440SOL    HW1 1456   0.655   0.724   2.316  1.1078 -0.7628  0.0554
  440SOL    HW2 1457   0.696   0.844   2.234 -1.5510  0.8871  1.0290
  441SOL     OW 1458   1.667   1.305   3.056  0.0293  0.3800 -0.0178
  441SOL    HW1 1459   1.634   1.224   3.094 -1.7387  0.1992 -1.7626
  441SOL    HW2 1460   1.731   1.276   2.990 -0.4980  0.3945 -0.5426
  442SOL     OW 1461   2.363   1.752   3.431  0.3647 -0.1251  0.1249
  442SOL    HW1 1462   2.432   1.686   3.425  1.8145  1.3744 -0.6875
  442SOL    HW2 1463   2.309   1.737   3.354  1.5249  0.4766 -0.8480
  443SOL     OW 1464   3.635   2.486   2.783 -0.2173 -0.0946 -0.2080
  443SOL    HW1 1465   3.698   2.548   2.820 -0.7151 -0.6855  1.7417
  443SOL    HW2 1466   3.599   2.532   2.707  1.4112  0.8696 -0.4626
  444SOL     OW 1467   1.204   0.835   1.424 -0.1657  0.3315  0.3628
  444SOL    HW1 1468   1.133   0.786   1.381  0.0898 -2.2030  2.5369
  444SOL    HW2 1469   1.284   0.796   1.390  0.0443 -0.9967  2.2335
  445SOL     OW 1470   3.009   3.344   2.413 -0.1822  0.1606 -0.0134
  445SOL    HW1 1471   3.041   3.356   2.502  3.0439 -0.6094 -0.9272
  445SOL    HW2 1472   3.088   3.344   2.359 -2.0495  1.2415 -2.9918
  446SOL     OW 1473   0.212   0.914   2.770 -0.9731 -0.4544  0.0880
  446SOL    HW1 1474   0.239   0.878   2.855 -1.0246  0.0334  0.3182
  446SOL    HW2 1475   0.213   1.009   2.784  0.6267 -0.2780 -0.9221
  447SOL     OW 1476   3.311   3.302   2.990 -0.4188 -0.1054 -0.1882
  447SOL    HW1 1477   3.398   3.341   3.002 -0.4598 -0.0601 -0.0449
  447SOL    HW2 1478   3.328   3.208   2.984 -0.4623 -0.1879  0.8327
  448SOL     OW 1479   1.054   0.182   1.020  0.0612 -0.1715  0.0146
  448SOL    HW1 1480   1.128   0.158   1.075  0.8291 -0.7692 -1.2334
  448SOL    HW2 1481   1.009   0.099   1.002 -0.1546  0.0097 -0.2923
  449SOL     OW 1482   0.852   2.516   0.455 -0.4417 -0.0870  0.5529
  449SOL    HW1 1483   0.799   2.464   0.396  0.5688 -1.8328  1.1023
  449SOL    HW2 1484   0.806   2.513   0.539 -0.0370 -0.6830  0.7567
  450SOL     OW 1485   1.317   0.575   0.888 -0.4399 -0.1684 -0.0732
  450SOL    HW1 1486   1.235   0.566   0.936 -0.9754 -1.9733 -1.2141
  450SOL    HW2 1487   1.380   0.524   0.938 -0.3946 -0.0279  0.0118
  451SOL     OW 1488   1.993   2.546   0.071 -0.1687 -0.1439 -0.2895
  451SOL    HW1 1489   2.037   2.626   0.099  2.4199 -1.2072 -1.0083
  451SOL    HW2 1490   2.029   2.478   0.128 -1.7826 -0.9352 -0.1703
  452SOL     OW 1491   1.580   1.533   1.931  0.1833 -1.0038  0.2722
  452SOL    HW1 1492   1.649   1.567   1.989 -0.3662  4.3621 -1.6170
  452SOL    HW2 1493   1.499   1.550   1.978 -0.2189  2.6918 -1.4363
  453SOL     OW 1494   2.157   2.356   1.301 -0.5231  0.0452  0.1088
  453SOL    HW1 1495   2.070   2.333   1.269 -0.2430 -0.6112 -0.2079
  453SOL    HW2 1496   2.148   2.356   1.396 -0.5803 -1.2637  0.1214
  454SOL     OW 1497   3.664   2.244   2.553  0.4797 -0.0584  0.3423
  454SOL    HW1 1498   3.633   2.203   2.472  1.1125 -1.7596  0.9064
  454SOL    HW2 1499   3.754   2.271   2.533  0.5597 -0.2789  0.3970
  455SOL     OW 1500   2.868   1.972   0.706  0.7555  0.1884  0.3611
  455SOL    HW1 1501   2.952   2.015   0.723 -0.0832  1.8207  0.6192
  455SOL    HW2 1502   2.843   1.937   0.791  0.5794  0.8525  0.5927
  456SOL     OW 1503   0.849   2.272   2.895 -0.0343  0.2383 -0.1163
  456SOL    HW1 1504   0.801   2.223   2.829 -2.8242  0.0093  1.8894
  456SOL    HW2 1505   0.845   2.218   2.973  2.4932  0.8303  0.5213
  457SOL     OW 1506   2.062   1.271   0.652 -0.4505 -0.1664 -0.5856
  457SOL    HW1 1507   2.014   1.210   0.596 -0.2080 -0.7748 -0.1388
  457SOL    HW2 1508   2.149   1.232   0.661 -0.3060  0.2227 -0.2489
  458SOL     OW 1509   1.469   0.441   3.104  0.3276  0.4188  0.0645
  458SOL    HW1 1510   1.439   0.501   3.172 -1.1920 -0.2165 -0.0270
  458SOL    HW2 1511   1.512   0.498   3.040 -0.6633  1.3632  0.2118
  459SOL     OW 1512   1.422   1.017   1.244 -0.1075 -0.1678 -0.1633
  459SOL    HW1 1513   1.437   0.986   1.155 -0.1249 -0.2132 -0.1505
  459SOL    HW2 1514   1.509   1.021   1.283 -0.0569  0.2480 -0.3124
  460SOL     OW 1515   2.438   0.227   1.604 -0.2135 -0.1334 -0.0048
  460SOL    HW1 1516   2.524   0.269   1.611  0.3052 -1.3627  1.5549
  460SOL    HW2 1517   2.378   0.298   1.583  0.9274  1.0256  0.5352
  461SOL     OW 1518   0.523   0.391   3.682 -0.4739 -0.5592  0.4999
  461SOL    HW1 1519   0.513   0.296   3.677  0.6687 -0.8038  2.1838
  461SOL    HW2 1520   0.580   0.406   3.757 -0.5105  1.4659  0.1915
  462SOL     OW 1521   0.631   2.031   0.248  0.1307 -0.2658 -0.1991
  462SOL    HW1 1522   0.583   2.036   0.330  1.3308  1.4498  0.4628
  462SOL    HW2 1523   0.646   1.938   0.234  2.8080 -0.5690  3.3425
  463SOL     OW 1524   0.896   3.155   1.580  0.1012 -0.4037  0.1598
  463SOL    HW1 1525   0.983   3.121   1.558  1.1369  2.4234 -0.6499
  463SOL    HW2 1526   0.846   3.147   1.498 -0.5619 -2.3099  0.7089
  464SOL     OW 1527   2.542   0.880   0.932 -0.4165 -0.0705  0.1388
  464SOL    HW1 1528   2.448   0.866   0.949  0.2019 -1.8206  2.7351
  464SOL    HW2 1529   2.567   0.947   0.996  0.0786  0.6488 -0.7884
  465SOL     OW 1530   3.228   1.363   3.163  0.4856 -0.2937 -0.0852
  465SOL    HW1 1531   3.265   1.378   3.250  1.4915 -0.0391 -0.5472
  465SOL    HW2 1532   3.245   1.270   3.145  1.1767 -0.1092 -0.4154
  466SOL     OW 1533   3.717   0.933   0.461 -0.0114  0.7143  0.1626
  466SOL    HW1 1534   3.676   0.930   0.375  0.2722  1.2437  0.0031
  466SOL    HW2 1535   3.712   1.025   0.486  2.2101  1.0616 -0.4177
  467SOL     OW 1536   2.396   2.934   3.112  0.5785 -0.4552  0.1394
  467SOL    HW1 1537   2.436   2.988   3.180  0.6526  1.7029 -1.5028
  467SOL    HW2 1538   2.307   2.969   3.104  0.1693 -1.5027 -0.0603
  468SOL     OW 1539   3.676   2.037   0.634  0.1332 -0.2673 -0.0054
  468SOL    HW1 1540   3.626   2.032   0.716 -0.9872  2.2548 -0.4511
  468SOL    HW2 1541   3.677   1.947   0.602 -1.6363 -0.8970  1.4892
  469SOL     OW 1542   3.055   2.246   2.412  0.0841  0.0484 -0.4541
  469SOL    HW1 1543   3.047   2.195   2.492  1.3983  0.1821 -0.2290
  469SOL    HW2 1544   2.989   2.208   2.353 -0.0808 -0.8168  0.2766
  470SOL     OW 1545   0.703   0.450   2.236 -0.3587  0.1880  0.1388
  470SOL    HW1 1546   0.717   0.467   2.142 -0.1914  0.8222  0.2771
  470SOL    HW2 1547   0.638   0.515   2.263 -0.6301 -0.1874  0.4001
  471SOL     OW 1548   0.394   1.643   2.661 -0.4506 -0.2803  0.9179
  471SOL    HW1 1549   0.364   1.552   2.665 -0.1647 -0.4264 -0.0076
  471SOL    HW2 1550   0.481   1.642   2.702 -0.0551 -0.6060  0.0846
  472SOL     OW 1551   0.847   2.954   0.220 -0.0051 -0.1363  0.1557
  472SOL    HW1 1552   0.758   2.976   0.246 -0.3488 -0.0533 -1.0018
  472SOL    HW2 1553   0.840   2.933   0.127  1.0472 -0.9458  0.2395
  473SOL     OW 1554   3.130   3.545   2.932 -0.7846 -0.1542 -0.0941
  473SOL    HW1 1555   3.126   3.452   2.953 -0.6964 -0.4321 -1.2518
  473SOL    HW2 1556   3.221   3.570   2.950 -0.7925 -0.2975  0.1506
  474SOL     OW 1557   1.172   0.267   2.661  0.4949 -0.2952  0.2879
  474SOL    HW1 1558   1.158   0.196   2.597 -1.0716  0.1669  0.0692
  474SOL    HW2 1559   1.240   0.322   2.622 -0.1594 -0.2388 -0.8195
  475SOL     OW 1560   3.161   1.749   1.593 -0.0032  0.4281 -0.2874
  475SOL    HW1 1561   3.211   1.831   1.597  0.2152  0.2626  0.7154
  475SOL    HW2 1562   3.136   1.732   1.684 -1.4899  0.2536 -0.7099
  476SOL     OW 1563   1.764   0.920   2.724  0.7798  0.3743  0.0175
  476SOL    HW1 1564   1.684   0.973   2.726  2.0412  2.5609  4.1968
  476SOL    HW2 1565   1.764   0.875   2.809  2.6597 -1.8842 -1.0711
  477SOL     OW 1566   3.508   3.444   2.469  0.1311  0.1619  0.2152
  477SOL    HW1 1567   3.597   3.475   2.487  0.0113 -0.0277  1.2222
  477SOL    HW2 1568   3.515   3.349   2.474  0.2212  0.0477 -1.5111
  478SOL     OW 1569   2.918   0.813   2.478 -0.0257 -0.0746 -0.2631
  478SOL    HW1 1570   2.851   0.859   2.528 -2.7597 -0.5976 -3.1318
  478SOL    HW2 1571   2.951   0.879   2.416  1.5724 -0.0495  0.5700
  479SOL     OW 1572   3.650   1.045   1.274  0.3690 -0.2706 -0.1515
  479SOL    HW1 1573   3.704   1.070   1.350  0.9133  0.3035 -0.7178
  479SOL    HW2 1574   3.565   1.021   1.312  0.9627 -1.0356  0.7408
  480SOL     OW 1575   2.376   0.301   1.169  0.3014 -0.3141  0.4753
  480SOL    HW1 1576   2.416   0.238   1.230  1.3560  0.6821  0.8426
  480SOL    HW2 1577   2.412   0.279   1.084  2.7889  1.4027  0.9915
  481SOL     OW 1578   1.201   2.375   1.753 -0.3662 -0.0392  0.0549
  481SOL    HW1 1579   1.119   2.388   1.802 -0.4544 -3.1788  0.9982
  481SOL    HW2 1580   1.173   2.332   1.672  0.2775 -1.1967  0.4173
  482SOL     OW 1581   2.447   2.090   1.631 -0.1479 -0.2644 -0.7021
  482SOL    HW1 1582   2.396   2.043   1.697 -0.9684  0.8315 -0.5356
  482SOL    HW2 1583   2.538   2.075   1.655 -0.4238 -0.6313  0.1333
  483SOL     OW 1584   1.544   1.143   2.694 -0.1960  0.1912 -0.1573
  483SOL    HW1 1585   1.451   1.165   2.690 -0.3556 -0.5981 -1.4953
  483SOL    HW2 1586   1.589   1.227   2.691 -0.8481  0.6362  1.3378
  484SOL     OW 1587   3.409   1.337   2.353 -0.4174  0.2042  0.2934
  484SOL    HW1 1588   3.424   1.250   2.316  2.8328  0.9049 -0.3876
  484SOL    HW2 1589   3.428   1.328   2.446  0.2731  0.1913  0.1632
  485SOL     OW 1590   1.526   1.717   0.293 -0.1853 -0.2095 -0.0779
  485SOL    HW1 1591   1.527   1.746   0.202  0.5569  1.9372  0.5608
  485SOL    HW2 1592   1.602   1.759   0.333 -1.7730  0.7976  2.0914
  486SOL     OW 1593   1.126   2.074   0.102  0.2984 -0.4588 -0.1379
  486SOL    HW1 1594   1.099   1.991   0.061 -0.5452 -0.1957 -0.1268
  486SOL    HW2 1595   1.159   2.048   0.189  0.0377 -0.7791 -0.1338
  487SOL     OW 1596   2.302   2.368   3.641 -0.2258 -0.1234 -0.3285
  487SOL    HW1 1597   2.288   2.394   3.549  2.0290  1.9510 -0.1726
  487SOL    HW2 1598   2.390   2.331   3.643 -0.5829 -0.9814  0.8918
  488SOL     OW 1599   2.035   2.516   2.010  0.1173  0.1044 -0.1316
  488SOL    HW1 1600   1.992   2.502   1.926 -0.5020 -0.5291  0.2829
  488SOL    HW2 1601   2.078   2.432   2.029 -0.8121 -0.1864  0.7813
  489SOL     OW 1602   2.222   3.662   1.954 -0.3475 -0.4936  0.0745
  489SOL    HW1 1603   2.132   3.629   1.952 -0.1241 -1.1278  0.2608
  489SOL    HW2 1604   2.275   3.587   1.983  0.0720  0.2616  1.3161
  490SOL     OW 1605   3.046   2.059   2.071  0.0056  0.0715  0.4275
  490SOL    HW1 1606   3.084   1.989   2.124  0.8454  0.6713  0.6535
  490SOL    HW2 1607   2.959   2.027   2.046 -0.2408 -0.3958  1.8144
  491SOL     OW 1608   0.514   0.577   3.485  0.1789 -0.5030 -0.3028
  491SOL    HW1 1609   0.505   0.509   3.552 -1.2530  0.1637  0.2200
  491SOL    HW2 1610   0.430   0.577   3.439 -0.4402  1.8738  0.6613
  492SOL     OW 1611   3.609   0.202   3.304  0.0993 -0.2203 -0.2765
  492SOL    HW1 1612   3.548   0.168   3.238  1.4973 -0.8734 -1.2743
  492SOL    HW2 1613   3.601   0.297   3.298 -0.9447 -0.2963 -0.2570
  493SOL     OW 1614   0.689   3.189   1.858 -0.3241  0.4718  0.8561
  493SOL    HW1 1615   0.707   3.264   1.802  4.1586 -2.0487 -1.6155
  493SOL    HW2 1616   0.641   3.128   1.801 -0.7329  0.0446  1.6403
  494SOL     OW 1617   3.438   3.506   1.787  0.4758  0.0854  0.4716
  494SOL    HW1 1618   3.456   3.467   1.873  1.8296  1.2659  0.7642
  494SOL    HW2 1619   3.466   3.439   1.724  0.2471 -0.4619  0.9460
  495SOL     OW 1620   1.590   1.788   3.320 -0.3448  0.5688 -0.6328
  495SOL    HW1 1621   1.660   1.797   3.385 -0.3770 -1.0206 -0.3395
  495SOL    HW2 1622   1.623   1.723   3.258 -2.2134 -1.5350  0.4578
  496SOL     OW 1623   2.095   0.649   0.347  0.4615  0.3213  0.1711
  496SOL    HW1 1624   2.054   0.581   0.401  1.6416 -1.3316 -0.8987
  496SOL    HW2 1625   2.128   0.713   0.409 -1.8677  0.6762  1.1552
  497SOL     OW 1626   3.653   1.558   3.003 -0.1462 -0.0380  0.1564
  497SOL    HW1 1627   3.681   1.540   2.913  1.5833 -2.9358  1.1319
  497SOL    HW2 1628   3.709   1.630   3.032  0.0681  0.1527 -0.7013
  498SOL     OW 1629   0.280   0.418   1.221  0.6311  0.0226 -0.4820
  498SOL    HW1 1630   0.334   0.421   1.301  1.2847 -1.0186 -0.8611
  498SOL    HW2 1631   0.252   0.509   1.208  2.1141  0.5688 -0.1394
  499SOL     OW 1632   1.998   1.924   3.372  0.1700 -0.2199  0.2260
  499SOL    HW1 1633   1.983   1.883   3.287 -0.0084  0.2465  0.0259
  499SOL    HW2 1634   2.094   1.921   3.383  0.0934 -1.6603  0.7242
  500SOL     OW 1635   0.532   0.246   1.137  0.2723  0.0703  0.2521
  500SOL    HW1 1636   0.519   0.314   1.071  0.8808 -0.2956 -0.2553
  500SOL    HW2 1637   0.620   0.262   1.171  0.1205  0.0023  0.6819
  501SOL     OW 1638   1.120   3.228   1.996  0.0199 -0.2842  0.2627
  501SOL    HW1 1639   1.031   3.224   2.033  1.0761 -1.2657  2.9544
  501SOL    HW2 1640   1.138   3.138   1.969  0.8070 -0.5019  1.4281
  502SOL     OW 1641   1.938   2.674   2.459 -0.1154 -0.3514 -0.0856
  502SOL    HW1 1642   1.918   2.613   2.387 -0.0984 -0.6043  0.1228
  502SOL    HW2 1643   1.855   2.716   2.478  0.1353  0.6713 -1.1226
  503SOL     OW 1644   1.687   3.328   0.971 -0.2094  0.5025 -0.1016
  503SOL    HW1 1645   1.755   3.350   0.908 -0.5059 -1.1807 -1.0734
  503SOL    HW2 1646   1.730   3.273   1.035 -0.4066  0.3325 -0.1134
  504SOL     OW 1647   1.976   2.464   3.538 -0.4419 -0.4234  0.2832
  504SOL    HW1 1648   2.005   2.491   3.626  0.4816 -4.2149  1.3064
  504SOL    HW2 1649   1.890   2.423   3.553 -1.6950  1.4703 -1.1642
  505SOL     OW 1650   3.702   1.218   2.302 -0.7651  0.5635 -0.5720
  505SOL    HW1 1651   3.663   1.139   2.338  0.5192  0.3024  0.3054
  505SOL    HW2 1652   3.795   1.212   2.325 -0.4754  1.8908 -1.2741
  506SOL     OW 1653   0.480   2.082   2.439 -0.2848 -0.8758 -0.4797
  506SOL    HW1 1654   0.554   2.026   2.414  0.3196 -1.0449  1.5230
  506SOL    HW2 1655   0.520   2.155   2.484 -1.2912 -0.3827 -0.3704
  507SOL     OW 1656   3.035   0.001   0.194  0.7653 -0.1959 -0.5563
  507SOL    HW1 1657   3.016   0.049   0.275 -0.6520 -1.7900  0.1074
  507SOL    HW2 1658   3.130  -0.000   0.189  0.8713  0.7026  0.6005
  508SOL     OW 1659   1.638   1.066   2.426  0.5659  0.5000  0.5079
  508SOL    HW1 1660   1.723   1.104   2.404  0.8985  0.1425  1.1436
  508SOL    HW2 1661   1.619   1.101   2.514  0.5718 -0.2806  0.8257
  509SOL     OW 1662   0.144   2.912   0.569  0.5752 -0.2092 -0.4644
  509SOL    HW1 1663   0.072   2.885   0.625 -0.7145 -0.4871 -2.1727
  509SOL    HW2 1664   0.180   2.831   0.534 -0.2186  0.0123 -1.8850
  510SOL     OW 1665   1.955   0.103   0.753  0.5737 -0.4683  0.2984
  510SOL    HW1 1666   1.903   0.151   0.817 -0.7231 -0.9516 -0.3611
  510SOL    HW2 1667   2.041   0.144   0.757 -0.5411  2.1693 -0.4762
  511SOL     OW 1668   3.106   3.067   2.583  0.0446  0.9002 -0.3100
  511SOL    HW1 1669   3.119   3.160   2.598 -1.2908  0.9459  0.7312
  511SOL    HW2 1670   3.105   3.028   2.670 -1.4257  0.2054 -0.6039
  512SOL     OW 1671   2.620   3.484   0.864  0.0245 -0.2275  0.5930
  512SOL    HW1 1672   2.591   3.435   0.942 -1.2275  0.3554  0.5050
  512SOL    HW2 1673   2.543   3.487   0.807  0.3669  1.0048  0.1708
  513SOL     OW 1674   1.885   1.150   2.350  0.2074 -0.2779  0.0257
  513SOL    HW1 1675   1.859   1.096   2.275  0.3140  1.0889 -1.0258
  513SOL    HW2 1676   1.980   1.139   2.354  0.4061  0.8748 -1.0497
  514SOL     OW 1677   2.404   2.354   0.676 -0.1009  0.2275  0.1981
  514SOL    HW1 1678   2.424   2.445   0.697 -0.3272  0.6601 -1.3987
  514SOL    HW2 1679   2.423   2.345   0.583 -1.6540 -0.9312 -0.0480
  515SOL     OW 1680   0.100   3.199   3.364 -0.3867 -0.5295  0.4720
  515SOL    HW1 1681   0.078   3.292   3.352 -2.5414 -0.9773  0.6293
  515SOL    HW2 1682   0.185   3.200   3.409  0.3319  1.3296 -0.8072
  516SOL     OW 1683   2.002   2.050   3.079 -0.9302  0.0377  0.0073
  516SOL    HW1 1684   2.033   2.079   2.993 -1.4199  0.7127  0.0484
  516SOL    HW2 1685   1.944   2.121   3.108  1.4304  1.2721  2.1659
  517SOL     OW 1686   1.979   2.305   0.989 -0.7954  0.1307 -0.0380
  517SOL    HW1 1687   1.961   2.315   0.895 -2.3516 -0.0615  0.2092
  517SOL    HW2 1688   1.899   2.266   1.024  0.2579 -1.0341  1.1685
  518SOL     OW 1689   0.454   1.719   1.782 -0.2363  0.3357 -0.3734
  518SOL    HW1 1690   0.428   1.633   1.815 -2.4213  1.4664  1.0563
  518SOL    HW2 1691   0.488   1.702   1.694  0.4472 -2.0918  0.2926
  519SOL     OW 1692   0.587   3.285   2.429  0.4951  0.2378  0.0214
  519SOL    HW1 1693   0.590   3.361   2.486 -0.7213 -0.0031  0.4324
  519SOL    HW2 1694   0.566   3.321   2.342  0.5807  0.4324  0.0811
  520SOL     OW 1695   2.209   0.418   2.158  0.6093 -0.8855 -0.2001
  520SOL    HW1 1696   2.267   0.492   2.139  0.3099 -0.7889 -0.7498
  520SOL    HW2 1697   2.132   0.432   2.103  1.4858 -2.7822 -2.0197
  521SOL     OW 1698   3.660   3.476   3.665  0.5937 -0.4935  0.1947
  521SOL    HW1 1699   3.724   3.440   3.727 -0.0808  0.6054  1.5784
  521SOL    HW2 1700   3.576   3.439   3.693  0.6492 -2.5263 -2.0695
  522SOL     OW 1701   3.371   0.408   0.971 -0.0253 -0.4122  0.3531
  522SOL    HW1 1702   3.334   0.430   0.886  0.1146  1.9882  0.8587
  522SOL    HW2 1703   3.330   0.469   1.032 -0.5669 -2.4389  2.1786
  523SOL     OW 1704   2.790   2.231   3.472  0.4803 -0.1481  0.0984
  523SOL    HW1 1705   2.854   2.298   3.447 -0.4239  0.3978 -0.8594
  523SOL    HW2 1706   2.706   2.276   3.468 -0.0981 -1.1998 -0.0115
  524SOL     OW 1707   0.147   0.115   0.216 -0.3856  0.4409 -0.0578
  524SOL    HW1 1708   0.123   0.148   0.130  0.6633  0.7544 -0.2452
  524SOL    HW2 1709   0.160   0.194   0.269 -2.0208  0.2498  0.7003
  525SOL     OW 1710   2.415   0.507   0.074 -0.8001  0.8932  0.2229
  525SOL    HW1 1711   2.429   0.563   0.150 -0.5205  0.4072  0.5303
  525SOL    HW2 1712   2.500   0.465   0.059 -1.6149 -1.4119  1.5689
  526SOL     OW 1713   3.137   0.825   0.299 -0.5191 -0.2804 -0.7304
  526SOL    HW1 1714   3.126   0.900   0.241  2.4421  0.4037 -0.5731
  526SOL    HW2 1715   3.067   0.765   0.274 -1.2246  1.2966 -2.8579
  527SOL     OW 1716   2.638   0.744   0.120 -0.3223 -0.4081 -0.7067
  527SOL    HW1 1717   2.684   0.660   0.115 -1.2561 -1.0912  1.3410
  527SOL    HW2 1718   2.627   0.771   0.028  1.9819 -1.3789 -1.3333
  528SOL     OW 1719   0.979   1.246   1.704 -0.0056 -0.2625 -0.7906
  528SOL    HW1 1720   0.887   1.271   1.704 -0.0743 -0.5084 -0.6645
  528SOL    HW2 1721   1.015   1.287   1.626  0.2385  1.4886  0.2030
  529SOL     OW 1722   2.655   0.242   0.274 -0.2793  0.4860 -0.1870
  529SOL    HW1 1723   2.563   0.215   0.271 -0.1900 -0.0516  1.3510
  529SOL    HW2 1724   2.701   0.176   0.222 -0.3750 -1.1073  1.6433
  530SOL     OW 1725   1.135   1.052   2.357  0.0404  0.6008 -0.2567
  530SOL    HW1 1726   1.083   1.049   2.437  0.0890  0.0369 -0.2416
  530SOL    HW2 1727   1.215   1.098   2.382  0.4603 -0.3918  0.2663
  531SOL     OW 1728   3.325   2.263   1.962  0.1391  0.1193  0.6423
  531SOL    HW1 1729   3.268   2.278   1.886 -0.2503  0.8364  1.0600
  531SOL    HW2 1730   3.372   2.346   1.973  2.0462 -0.7744 -0.3143
  532SOL     OW 1731   1.709   1.537   3.197  0.3903 -0.2647 -0.6944
  532SOL    HW1 1732   1.708   1.460   3.140  0.9360 -0.1915 -0.8099
  532SOL    HW2 1733   1.787   1.586   3.170 -1.2298  1.5959 -2.2870
  533SOL     OW 1734   0.138   0.080   0.530 -0.7762 -0.2048  0.4181
  533SOL    HW1 1735   0.200   0.056   0.462 -0.9437  0.0570  0.1691
  533SOL    HW2 1736   0.154   0.018   0.601 -1.0313 -0.8718 -0.1044
  534SOL     OW 1737   0.149   0.587   3.638 -0.4273 -0.3585 -0.2583
  534SOL    HW1 1738   0.152   0.671   3.591 -2.2645  0.1212  0.4255
  534SOL    HW2 1739   0.217   0.595   3.705  2.3573 -1.0981 -2.7222
  535SOL     OW 1740   2.688   3.547   1.528 -0.1517  0.2671 -0.0276
  535SOL    HW1 1741   2.656   3.555   1.618  1.4774  0.3274  0.5800
  535SOL    HW2 1742   2.660   3.628   1.485 -1.1216  0.1471  0.3404
  536SOL     OW 1743   1.163   1.455   0.389 -0.1398  0.3784  1.1344
  536SOL    HW1 1744   1.237   1.442   0.330 -1.5459 -1.5920 -0.3162
  536SOL    HW2 1745   1.180   1.397   0.463 -1.1537 -1.7685 -0.2067
  537SOL     OW 1746   1.409   2.869   2.621 -0.2501  0.5901 -0.5469
  537SOL    HW1 1747   1.352   2.825   2.558 -0.2022  0.9743 -0.8622
  537SOL    HW2 1748   1.373   2.847   2.706 -0.4385  0.2338 -0.7167
  538SOL     OW 1749   0.878   2.304   3.691 -0.0168 -0.1067  0.3068
  538SOL    HW1 1750   0.809   2.238   3.697 -0.5925  0.2565 -1.7091
  538SOL    HW2 1751   0.913   2.310   3.780 -1.5476 -1.4003  1.0439
  539SOL     OW 1752   3.510   0.372   0.703  0.0196  0.5284 -0.1734
  539SOL    HW1 1753   3.523   0.462   0.732 -1.7780  0.1521  2.0838
  539SOL    HW2 1754   3.595   0.346   0.668  1.7177  1.9516  2.5011
  540SOL     OW 1755   1.751   3.622   0.367  0.0864  0.1664  0.4827
  540SOL    HW1 1756   1.745   3.556   0.298  1.3250 -0.0588  0.5562
  540SOL    HW2 1757   1.843   3.649   0.366  0.1588  0.0699  2.1293
  541SOL     OW 1758   1.439   0.862   2.382  0.2937 -0.0281  0.1562
  541SOL    HW1 1759   1.506   0.929   2.394 -0.7117  1.1569 -0.6540
  541SOL    HW2 1760   1.396   0.856   2.468 -1.2524  2.2217 -0.3805
  542SOL     OW 1761   0.625   2.392   2.194  0.3514 -0.1770  0.1781
  542SOL    HW1 1762   0.629   2.429   2.283 -0.3846 -0.1288  0.1952
  542SOL    HW2 1763   0.542   2.423   2.159  0.4732 -0.4980 -0.3990
  543SOL     OW 1764   1.675   1.965   2.684  0.0709 -0.0608  0.1911
  543SOL    HW1 1765   1.606   1.971   2.750 -0.9037 -0.0733 -0.7970
  543SOL    HW2 1766   1.745   2.021   2.717 -0.6636  0.4547  0.9124
  544SOL     OW 1767   0.732   2.564   0.989 -0.1070 -0.3541  0.0314
  544SOL    HW1 1768   0.733   2.651   0.950 -1.8340  0.1294  0.9653
  544SOL    HW2 1769   0.749   2.579   1.082  0.5958 -1.1418  0.0474
  545SOL     OW 1770   0.349   2.097   3.501  0.5750 -0.6166  0.1917
  545SOL    HW1 1771   0.302   2.158   3.558 -1.0101 -0.7900 -0.8740
  545SOL    HW2 1772   0.301   2.100   3.418  1.0470 -2.5969 -0.1926
  546SOL     OW 1773   1.931   3.444   1.695 -0.0137 -0.9311  0.6029
  546SOL    HW1 1774   1.893   3.529   1.671 -1.0118 -0.7475  2.6303
  546SOL    HW2 1775   1.973   3.413   1.615 -0.4634  1.0252 -0.4501
  547SOL     OW 1776   3.304   1.081   0.102 -0.2122  0.2370 -0.7359
  547SOL    HW1 1777   3.238   1.099   0.169 -0.5450 -0.5345 -0.8530
  547SOL    HW2 1778   3.352   1.163   0.094  1.0483 -0.1435  1.7902
  548SOL     OW 1779   0.393   0.523   0.479 -0.0566  0.3438 -0.5614
  548SOL    HW1 1780   0.393   0.619   0.487  0.3088  0.2887  0.1770
  548SOL    HW2 1781   0.482   0.502   0.450 -0.1603  0.2274 -0.7992
  549SOL     OW 1782   3.578   1.016   0.210 -0.0181 -0.0116 -0.0402
  549SOL    HW1 1783   3.578   1.075   0.135  1.4681  0.1758  0.0933
  549SOL    HW2 1784   3.518   1.057   0.273  0.4186  0.9626 -0.2464
  550SOL     OW 1785   0.426   2.088   1.630 -0.2697 -0.3079  0.2111
  550SOL    HW1 1786   0.347   2.039   1.608 -1.2012  1.3230 -0.2463
  550SOL    HW2 1787   0.398   2.147   1.701  0.3438  0.7403 -0.3963
  551SOL     OW 1788   3.336   1.805   0.632 -0.1604 -0.2333 -0.0999
  551SOL    HW1 1789   3.386   1.871   0.680 -0.9468 -0.5317  1.1944
  551SOL    HW2 1790   3.388   1.725   0.638 -0.4208 -0.3586  0.6014
  552SOL     OW 1791   2.476   2.582   2.146  0.0197  0.0093 -0.2168
  552SOL    HW1 1792   2.517   2.619   2.068 -0.6838  2.3575  0.4250
  552SOL    HW2 1793   2.423   2.510   2.114 -1.5616  1.9393 -2.2088
  553SOL     OW 1794   0.583   2.422   2.845 -0.0415  0.6626 -0.4460
  553SOL    HW1 1795   0.654   2.485   2.855 -0.0725  0.7733 -0.9103
  553SOL    HW2 1796   0.503   2.472   2.864 -0.0388  0.6741 -0.4651
  554SOL     OW 1797   0.532   1.992   1.046 -0.3569  0.1137 -0.7029
  554SOL    HW1 1798   0.444   2.004   1.083 -1.1715 -0.0192 -2.4741
  554SOL    HW2 1799   0.521   1.922   0.982  0.8818  0.5968 -1.4814
  555SOL     OW 1800   1.167   0.775   2.312  0.1264  0.2805 -0.0342
  555SOL    HW1 1801   1.170   0.870   2.324 -0.2923  0.2454  0.3810
  555SOL    HW2 1802   1.096   0.761   2.249  1.2985  0.3520 -1.4255
  556SOL     OW 1803   2.173   3.623   2.328 -0.1756 -0.2017 -0.8997
  556SOL    HW1 1804   2.102   3.621   2.264 -0.4853  0.2772 -0.5739
  556SOL    HW2 1805   2.234   3.688   2.294 -2.7294  4.0926  1.7301
  557SOL     OW 1806   3.154   0.466   2.946 -0.2627 -0.4729  0.0849
  557SOL    HW1 1807   3.083   0.424   2.898 -0.1999  1.7405 -2.1787
  557SOL    HW2 1808   3.164   0.414   3.026 -2.9754 -2.0860 -0.5097
  558SOL     OW 1809   1.150   2.255   1.282  0.1832 -0.3725  0.1882
  558SOL    HW1 1810   1.103   2.320   1.333 -0.2679  0.5166 -1.3068
  558SOL    HW2 1811   1.235   2.247   1.325  0.6059  1.9052 -0.1132
  559SOL     OW 1812   1.386   1.218   2.280 -0.2079 -0.2813  0.3219
  559SOL    HW1 1813   1.466   1.192   2.235 -0.1069  2.4447 -1.3430
  559SOL    HW2 1814   1.415   1.278   2.349 -0.7714  1.7040 -1.0742
  560SOL     OW 1815   3.040   0.929   0.054  0.3032  0.2875  0.2650
  560SOL    HW1 1816   3.038   0.938  -0.042 -0.2357  0.2101  0.2654
  560SOL    HW2 1817   2.955   0.962   0.083  1.2689  2.3250  0.9034
  561SOL     OW 1818   0.838   0.856   2.949  0.4446  0.0331 -0.0473
  561SOL    HW1 1819   0.894   0.923   2.989 -0.6188  0.5756  0.5750
  561SOL    HW2 1820   0.749   0.882   2.973 -0.0505 -1.0566 -0.6460
  562SOL     OW 1821   1.254   3.550   3.201 -0.2392  0.6168  0.0121
  562SOL    HW1 1822   1.315   3.615   3.236 -0.8087  0.2497  1.7823
  562SOL    HW2 1823   1.202   3.598   3.137  0.4825  1.4593  0.0374
  563SOL     OW 1824   3.200   0.712   2.015  0.9322  0.3366 -0.2030
  563SOL    HW1 1825   3.249   0.705   2.097  1.1198  0.8192 -0.2663
  563SOL    HW2 1826   3.110   0.727   2.042  0.9913  0.4769 -0.0825
  564SOL     OW 1827   0.858   2.982   1.108 -0.7621  0.1444  0.3466
  564SOL    HW1 1828   0.801   2.921   1.153  0.1838  0.5729  2.2226
  564SOL    HW2 1829   0.800   3.031   1.049 -2.0491 -0.4203  1.1146
  565SOL     OW 1830   3.629   2.501   0.415 -0.1765  0.1903  0.0507
  565SOL    HW1 1831   3.630   2.471   0.506 -0.2182  0.9376  0.3070
  565SOL    HW2 1832   3.708   2.464   0.377 -0.6649 -0.9709  0.0966
  566SOL     OW 1833   2.932   3.480   1.437 -0.1299  0.1477  0.0924
  566SOL    HW1 1834   2.998   3.534   1.481 -1.5972  1.9810  0.1918
  566SOL    HW2 1835   2.848   3.514   1.470 -1.1610 -1.0964 -1.1395
  567SOL     OW 1836   0.435   0.179   1.373 -0.4461 -0.5589 -0.8164
  567SOL    HW1 1837   0.368   0.113   1.355  0.4889 -1.2727 -1.8613
  567SOL    HW2 1838   0.451   0.221   1.288  0.3395 -0.3177 -0.5590
  568SOL     OW 1839   1.071   3.371   0.654  0.4170  0.2360  0.7670
  568SOL    HW1 1840   1.100   3.326   0.733 -0.0222  0.2583  0.9448
  568SOL    HW2 1841   1.042   3.301   0.596  2.6128  0.0371 -0.1988
  569SOL     OW 1842   3.057   1.108   3.259  0.3357 -0.0943 -0.5198
  569SOL    HW1 1843   3.113   1.080   3.187  0.7424 -1.2394  0.2225
  569SOL    HW2 1844   3.041   1.029   3.310 -2.8009 -0.0388 -1.2397
  570SOL     OW 1845   2.367   1.061   3.579 -0.3316 -0.1051  0.8586
  570SOL    HW1 1846   2.442   1.001   3.575  1.1507  1.7001  0.1224
  570SOL    HW2 1847   2.313   1.037   3.504  0.5678 -0.1336  0.2056
  571SOL     OW 1848   2.573   2.949   0.883 -0.5542  0.0995 -0.1635
  571SOL    HW1 1849   2.661   2.938   0.918 -0.2035 -0.9247 -1.3055
  571SOL    HW2 1850   2.520   2.976   0.958  0.4611 -0.5925  0.8264
  572SOL     OW 1851   1.988   0.242   3.610 -0.0861  0.2738 -0.0131
  572SOL    HW1 1852   2.064   0.194   3.576  0.2680 -0.6749  1.9537
  572SOL    HW2 1853   1.942   0.179   3.665 -1.3214  1.3567  0.2599
  573SOL     OW 1854   1.971   2.729   3.401 -0.0913 -0.0285  0.0659
  573SOL    HW1 1855   1.977   2.634   3.412 -1.4059 -0.0620  0.6140
  573SOL    HW2 1856   1.979   2.763   3.490  0.7022  0.4064 -0.1642
  574SOL     OW 1857   2.754   0.898   0.393  0.3417 -0.4969 -0.2153
  574SOL    HW1 1858   2.710   0.978   0.365  0.3755 -0.1660  0.6465
  574SOL    HW2 1859   2.741   0.837   0.320  0.9596  0.5117 -1.2194
  575SOL     OW 1860   3.413   3.285   1.009  0.3479  0.2296  0.5032
  575SOL    HW1 1861   3.408   3.306   0.916  0.7216  2.9807  1.0265
  575SOL    HW2 1862   3.401   3.369   1.054  1.0431 -0.8672  2.9331
  576SOL     OW 1863   1.352   1.847   1.275 -0.0664 -0.2050 -0.1776
  576SOL    HW1 1864   1.372   1.758   1.247  0.2201  0.3512 -1.8682
  576SOL    HW2 1865   1.375   1.849   1.368  0.7172 -1.6473 -0.3116
  577SOL     OW 1866   2.221   2.479   0.889  0.0533 -0.3410 -0.0529
  577SOL    HW1 1867   2.274   2.412   0.845 -0.1132 -0.6890  0.2613
  577SOL    HW2 1868   2.139   2.434   0.909 -0.2613  0.1203 -0.3108
  578SOL     OW 1869   0.281   1.175   2.874 -0.2715 -0.0148 -0.5572
  578SOL    HW1 1870   0.215   1.217   2.819 -1.1790  1.7916  1.6913
  578SOL    HW2 1871   0.270   1.218   2.960  4.0793  0.6926 -0.1460
  579SOL     OW 1872   0.724   2.149   2.652 -0.0384  0.1332  0.2433
  579SOL    HW1 1873   0.666   2.199   2.594  0.0297  1.2085  1.0669
  579SOL    HW2 1874   0.667   2.117   2.722 -0.5782 -3.0997 -1.5001
  580SOL     OW 1875   2.111   0.673   0.795  0.2407 -0.2348 -0.2972
  580SOL    HW1 1876   2.027   0.687   0.751 -0.0792 -0.0453  0.3658
  580SOL    HW2 1877   2.160   0.615   0.736  0.7837  1.9339 -2.1351
  581SOL     OW 1878   3.486   1.367   2.912  0.1626  0.8111 -0.2154
  581SOL    HW1 1879   3.462   1.333   2.998  0.6181 -1.2702 -0.8460
  581SOL    HW2 1880   3.563   1.421   2.928  1.8996 -1.6888  0.4300
  582SOL     OW 1881   0.317   0.296   3.192 -0.0273 -0.1141  0.2200
  582SOL    HW1 1882   0.387   0.361   3.197 -1.9916  2.1680 -0.2233
  582SOL    HW2 1883   0.290   0.283   3.283 -0.5605  0.8431  0.2164
  583SOL     OW 1884   0.461   2.859   0.060  0.0605  0.5258  0.7795
  583SOL    HW1 1885   0.377   2.856   0.014  0.1231  1.2433  0.6136
  583SOL    HW2 1886   0.443   2.817   0.144  0.5401 -3.1833 -0.7757
  584SOL     OW 1887   3.318   2.748   2.839 -0.3920  0.0004  0.4297
  584SOL    HW1 1888   3.283   2.744   2.750  1.3894  1.4424 -0.4091
  584SOL    HW2 1889   3.256   2.698   2.892 -2.7797  1.1073 -1.1852
  585SOL     OW 1890   3.549   1.752   3.388  0.0127  0.2900  0.1798
  585SOL    HW1 1891   3.479   1.809   3.421  0.3555  1.1329 -0.5018
  585SOL    HW2 1892   3.603   1.733   3.465 -0.1814  0.7769  0.4386
  586SOL     OW 1893   3.751   2.562   1.430  0.1704  0.4464 -0.0795
  586SOL    HW1 1894   3.702   2.535   1.352 -0.5930 -0.8211  0.7891
  586SOL    HW2 1895   3.694   2.536   1.503  0.3588  2.6072  0.8913
  587SOL     OW 1896   3.700   3.472   1.668  0.3887  0.5133  0.3076
  587SOL    HW1 1897   3.630   3.514   1.618  0.8291 -1.2006 -1.8728
  587SOL    HW2 1898   3.777   3.525   1.652  0.1596  0.9497  0.6218
  588SOL     OW 1899   0.987   3.044   2.525 -0.6182  0.2278 -0.2243
  588SOL    HW1 1900   1.010   2.954   2.501 -1.0756  0.7011 -2.6788
  588SOL    HW2 1901   1.071   3.086   2.545 -0.4955 -1.0045  2.2602
  589SOL     OW 1902   1.230   3.536   0.053  0.3226  0.6304  0.8220
  589SOL    HW1 1903   1.215   3.624   0.087 -0.2136  0.7611  0.2738
  589SOL    HW2 1904   1.210   3.543  -0.040 -0.4333 -0.2345  0.9031
  590SOL     OW 1905   3.004   1.793   1.842 -0.0619  0.0036  0.1274
  590SOL    HW1 1906   2.944   1.845   1.895  2.2948  1.0014  2.0396
  590SOL    HW2 1907   3.074   1.853   1.819 -0.2701 -0.7999 -3.0510
  591SOL     OW 1908   3.309   1.908   1.057 -0.9562  0.4675 -0.1290
  591SOL    HW1 1909   3.399   1.877   1.052 -0.4952  1.5434  0.9113
  591SOL    HW2 1910   3.271   1.863   1.133 -0.6313  1.5067  0.6894
  592SOL     OW 1911   2.628   1.412   1.107 -0.0922 -0.3975 -0.7109
  592SOL    HW1 1912   2.556   1.463   1.144  0.0019  1.3984 -2.7783
  592SOL    HW2 1913   2.686   1.477   1.067  2.9534 -1.7157  1.1565
  593SOL     OW 1914   3.113   1.497   1.059 -0.0695  0.5151  0.3216
  593SOL    HW1 1915   3.164   1.511   0.979 -1.4279 -2.9250 -1.3623
  593SOL    HW2 1916   3.161   1.431   1.108 -2.0337 -1.8691 -0.7079
  594SOL     OW 1917   0.927   3.411   1.134  0.0881 -0.1623  0.1385
  594SOL    HW1 1918   0.917   3.480   1.200 -0.1638 -1.2458  1.2711
  594SOL    HW2 1919   1.021   3.407   1.116  0.0057  1.1832 -0.7581
  595SOL     OW 1920   2.789   0.089   3.493  0.2198 -0.3404  0.0250
  595SOL    HW1 1921   2.779  -0.004   3.470 -3.4812 -0.7734  2.4504
  595SOL    HW2 1922   2.737   0.135   3.427  3.1919  0.3331 -2.0314
  596SOL     OW 1923   1.832   1.682   0.950 -0.1245 -0.3245  0.3105
  596SOL    HW1 1924   1.864   1.690   0.860 -0.2758  1.1424  0.3561
  596SOL    HW2 1925   1.836   1.589   0.969  0.0343 -0.6476 -1.1759
  597SOL     OW 1926   0.100   3.089   0.888 -0.5739  0.5707  0.0478
  597SOL    HW1 1927   0.072   3.180   0.897  1.1611  1.3904 -1.9991
  597SOL    HW2 1928   0.028   3.038   0.926 -1.3382  2.7743  1.7869
  598SOL     OW 1929   2.306   1.384   3.372  0.5273  0.0572  0.4330
  598SOL    HW1 1930   2.347   1.298   3.368 -0.9782 -0.6799  0.4113
  598SOL    HW2 1931   2.315   1.411   3.463  0.5566 -0.3449  0.5509
  599SOL     OW 1932   3.136   1.768   0.180 -0.5359  0.3705 -0.2803
  599SOL    HW1 1933   3.207   1.782   0.243  0.7049 -1.1482 -1.2510
  599SOL    HW2 1934   3.069   1.720   0.230  0.1597 -0.2776  0.0547
  600SOL     OW 1935   0.504   2.550   2.445 -0.3868 -0.7128  0.3933
  600SOL    HW1 1936   0.432   2.612   2.448 -0.4184 -0.5787 -1.6068
  600SOL    HW2 1937   0.583   2.604   2.449 -0.4106 -0.6707  0.3014
  601SOL     OW 1938   1.081   1.305   1.955  0.6450  0.5028 -0.5099
  601SOL    HW1 1939   1.121   1.223   1.984 -1.6429 -0.5973 -0.2536
  601SOL    HW2 1940   1.039   1.283   1.872  2.4228  2.2126 -1.9480
  602SOL     OW 1941   2.810   1.938   1.254 -0.3182  1.0981  0.4218
  602SOL    HW1 1942   2.830   2.032   1.254 -0.2446  1.0857  1.2657
  602SOL    HW2 1943   2.827   1.910   1.164 -2.8056  2.4113 -0.5707
  603SOL     OW 1944   3.333   1.418   1.775  0.1951  0.1981  0.4521
  603SOL    HW1 1945   3.419   1.446   1.743  0.1604 -0.6321 -0.3919
  603SOL    HW2 1946   3.336   1.437   1.869  1.1891  0.4400  0.3892
  604SOL     OW 1947   3.684   2.646   3.433  0.3335  0.8570 -0.0098
  604SOL    HW1 1948   3.766   2.622   3.477 -0.0596  0.9620  0.8051
  604SOL    HW2 1949   3.654   2.565   3.392  0.0560  0.4279  1.0103
  605SOL     OW 1950   2.508   3.443   2.286  0.3627  0.5672  0.2896
  605SOL    HW1 1951   2.509   3.411   2.377 -2.1965  1.3716  0.6656
  605SOL    HW2 1952   2.532   3.536   2.293 -0.1309  0.7028  0.1742
  606SOL     OW 1953   0.859   3.701   2.986 -0.1054 -0.2977 -0.2632
  606SOL    HW1 1954   0.782   3.644   2.986 -0.6129  0.3735  0.1757
  606SOL    HW2 1955   0.933   3.641   2.982 -0.6362 -0.9346 -3.2226
  607SOL     OW 1956   2.185   1.669   2.306  0.6825 -0.3921 -0.1848
  607SOL    HW1 1957   2.207   1.718   2.227  1.8783  0.1990  0.4842
  607SOL    HW2 1958   2.235   1.588   2.299  0.7059 -0.3863 -0.0864
  608SOL     OW 1959   3.251   2.544   3.060  0.0390  0.1261  0.1901
  608SOL    HW1 1960   3.331   2.512   3.019  0.3900  0.1529  0.8357
  608SOL    HW2 1961   3.203   2.465   3.086 -0.0008  0.1102  0.0647
  609SOL     OW 1962   2.312   0.240   0.699  0.5347 -0.1781 -1.0165
  609SOL    HW1 1963   2.276   0.152   0.704 -0.7168  0.3088 -1.0443
  609SOL    HW2 1964   2.393   0.230   0.649 -1.0086 -0.9104 -3.5508
  610SOL     OW 1965   3.173   1.613   3.012  0.3744 -0.3141  0.7347
  610SOL    HW1 1966   3.241   1.662   2.966 -0.5905  1.6153  1.2505
  610SOL    HW2 1967   3.218   1.574   3.087  1.2305 -0.5420  0.1283
  611SOL     OW 1968   1.812   3.662   1.520 -0.1902  0.0319  0.1981
  611SOL    HW1 1969   1.899   3.694   1.497 -0.2719  0.5160  0.5485
  611SOL    HW2 1970   1.765   3.659   1.436 -0.3478  1.3601  0.2064
  612SOL     OW 1971   0.930   3.310   3.153  0.1631 -1.0390  0.8586
  612SOL    HW1 1972   1.015   3.303   3.196  1.0680  0.5696 -0.5519
  612SOL    HW2 1973   0.919   3.226   3.107  0.0903 -1.9786  2.4912
  613SOL     OW 1974   1.109   2.709   0.020  0.4228  0.4873 -0.1737
  613SOL    HW1 1975   1.107   2.756   0.104 -0.3504 -0.5910  0.4341
  613SOL    HW2 1976   1.023   2.668   0.013  0.5774  0.3259 -1.3756
  614SOL     OW 1977   0.257   2.663   0.511 -0.1685  0.2590 -0.7425
  614SOL    HW1 1978   0.309   2.680   0.433  2.7444  0.6475  1.0980
  614SOL    HW2 1979   0.232   2.571   0.504  0.4037  0.1762 -1.9235
  615SOL     OW 1980   1.114   1.359   3.599 -0.1852 -0.1640  0.2851
  615SOL    HW1 1981   1.179   1.337   3.667  0.4864  1.9546  0.3973
  615SOL    HW2 1982   1.114   1.455   3.596 -1.5517 -0.1721 -1.4487
  616SOL     OW 1983   0.024   3.624   1.123 -0.0867 -0.6486  0.2945
  616SOL    HW1 1984  -0.020   3.691   1.070 -2.2173 -2.0943  0.1338
  616SOL    HW2 1985   0.108   3.611   1.079  1.1044  2.8535  1.1298
  617SOL     OW 1986  -0.019   0.183   1.688 -0.0884 -0.2486  0.6394
  617SOL    HW1 1987   0.059   0.185   1.633 -0.5068 -0.3976  0.0270
  617SOL    HW2 1988  -0.025   0.092   1.718 -1.6116 -0.9890 -1.6757
  618SOL     OW 1989   1.290   1.537   3.461  0.6899  0.3363  0.5931
  618SOL    HW1 1990   1.272   1.444   3.466 -2.3385  0.8085  0.3578
  618SOL    HW2 1991   1.248   1.566   3.380  2.4970  1.7813  0.0727
  619SOL     OW 1992   1.283   0.207   1.517 -0.3316  0.6735 -0.9517
  619SOL    HW1 1993   1.360   0.244   1.560 -1.0939  0.4814  0.6456
  619SOL    HW2 1994   1.216   0.275   1.526 -0.3110  0.9467 -2.5577
  620SOL     OW 1995   1.588   0.548   1.745  0.0230 -0.0689 -0.5769
  620SOL    HW1 1996   1.619   0.553   1.835  0.0725 -0.7126 -0.5547
  620SOL    HW2 1997   1.652   0.598   1.694 -0.6788  1.3607 -0.0980
  621SOL     OW 1998   0.186   2.428   0.148  0.1329  0.2947  0.2207
  621SOL    HW1 1999   0.117   2.465   0.093  0.6277  0.0614 -0.5819
  621SOL    HW2 2000   0.232   2.367   0.090  0.9115  0.3330  0.7848
  622SOL     OW 2001   1.967   1.785   1.145 -0.2006 -0.2024 -0.1128
  622SOL    HW1 2002   1.920   1.777   1.062  1.3400 -3.8108 -0.8155
  622SOL    HW2 2003   1.905   1.753   1.210 -1.0570  1.6899  0.0648
  623SOL     OW 2004   1.051   3.041   3.636 -0.6559  0.3004 -0.0573
  623SOL    HW1 2005   0.977   3.017   3.692  0.1634 -0.0554  0.9071
  623SOL    HW2 2006   1.049   2.977   3.565 -1.4692  0.5045 -0.2220
  624SOL     OW 2007   1.334   3.498   1.264 -0.4070 -0.1866 -0.4833
  624SOL    HW1 2008   1.258   3.529   1.314  0.3431  0.2180  0.4456
  624SOL    HW2 2009   1.392   3.461   1.331  1.7155  2.5150 -0.6932
  625SOL     OW 2010   1.912   1.896   1.509 -0.2692 -0.4226 -0.5834
  625SOL    HW1 2011   1.879   1.833   1.444  2.8323 -2.0989 -0.7178
  625SOL    HW2 2012   1.955   1.841   1.575  0.5519  1.4806  0.5265
  626SOL     OW 2013   1.860   0.009   1.889  0.4280  0.7255 -0.3206
  626SOL    HW1 2014   1.780   0.011   1.836  0.0184  1.5424  0.3042
  626SOL    HW2 2015   1.834   0.049   1.972  1.7128  1.8550 -0.4321
  627SOL     OW 2016   2.258   3.622   1.496  0.1242  0.1858  0.1172
  627SOL    HW1 2017   2.301   3.538   1.478 -0.3893 -0.3534  1.3114
  627SOL    HW2 2018   2.244   3.622   1.591 -4.7668 -0.8270 -0.3357
  628SOL     OW 2019   2.413   3.013   1.096 -0.4540 -0.1185  0.2311
  628SOL    HW1 2020   2.471   2.962   1.152 -0.2077 -0.3048 -0.1832
  628SOL    HW2 2021   2.387   3.088   1.150  1.3839  0.7874 -0.0271
  629SOL     OW 2022   3.404   0.014   2.625  0.5924  0.1956 -0.5314
  629SOL    HW1 2023   3.454   0.041   2.548 -0.0859 -0.3077 -1.1677
  629SOL    HW2 2024   3.339  -0.047   2.590  0.6738 -0.5184  0.5432
  630SOL     OW 2025   1.532   0.942   0.319  0.4590  0.2365 -0.3711
  630SOL    HW1 2026   1.462   0.943   0.254 -1.1798 -0.4640  1.3040
  630SOL    HW2 2027   1.599   0.886   0.280 -0.4878 -0.2118 -1.4279
  631SOL     OW 2028   2.177   1.988   3.623 -0.1273  0.1684  0.2814
  631SOL    HW1 2029   2.263   2.010   3.587 -0.0720  0.3950  0.5450
  631SOL    HW2 2030   2.151   2.066   3.672 -0.6218  0.2177 -0.0511
  632SOL     OW 2031   0.766   1.591   0.784 -0.0902  0.2614  0.2621
  632SOL    HW1 2032   0.721   1.671   0.757  1.1219  0.7339 -0.4226
  632SOL    HW2 2033   0.758   1.532   0.709  0.4799  0.3711  0.1130
  633SOL     OW 2034   0.548   3.372   1.115  0.1756 -0.8201  0.8512
  633SOL    HW1 2035   0.504   3.343   1.194 -1.5974  0.9898  0.6274
  633SOL    HW2 2036   0.598   3.450   1.142 -0.0112 -0.5050  0.3113
  634SOL     OW 2037   3.425   0.909   2.543  0.0861 -0.0397  0.0377
  634SOL    HW1 2038   3.372   0.950   2.611  0.0814 -0.0945  0.0677
  634SOL    HW2 2039   3.362   0.878   2.479  0.1365  0.6913 -0.3721
  635SOL     OW 2040   1.725   1.537   3.479  0.6327  0.5977 -0.2064
  635SOL    HW1 2041   1.794   1.604   3.485  1.7893 -0.4049 -1.6705
  635SOL    HW2 2042   1.682   1.556   3.396  1.7433 -1.1236 -1.2386
  636SOL     OW 2043   3.214   2.732   2.580 -0.2147  0.5269 -0.4169
  636SOL    HW1 2044   3.199   2.673   2.507  2.8283 -1.7499  0.5772
  636SOL    HW2 2045   3.229   2.817   2.540 -0.1880 -0.3182 -2.3007
  637SOL     OW 2046   2.719   2.334   2.898 -0.0334 -0.1386 -0.3329
  637SOL    HW1 2047   2.682   2.338   2.986 -1.3905  1.8654 -0.9153
  637SOL    HW2 2048   2.785   2.404   2.896  0.3256 -0.4816 -0.7764
  638SOL     OW 2049   1.636   0.247   0.595 -0.1959  0.3839 -0.4937
  638SOL    HW1 2050   1.721   0.258   0.636 -0.0454 -0.2297 -0.6388
  638SOL    HW2 2051   1.656   0.223   0.504 -0.4648 -2.4387  0.0997
  639SOL     OW 2052   1.946   1.983   2.341 -0.2603  1.0548 -0.5125
  639SOL    HW1 2053   1.975   1.937   2.420 -2.2165  1.8520  0.7735
  639SOL    HW2 2054   2.021   2.035   2.313  0.3627  1.0796  1.1126
  640SOL     OW 2055   2.561   0.014   0.102  0.0937  0.4479  0.0303
  640SOL    HW1 2056   2.505   0.038   0.028 -0.0331 -1.0701 -0.4135
  640SOL    HW2 2057   2.644   0.057   0.085 -0.2027  0.8013 -0.5531
  641SOL     OW 2058   0.776   1.292   2.427 -0.0857 -0.5975 -0.2913
  641SOL    HW1 2059   0.761   1.295   2.332 -0.6972 -0.5741 -0.1990
  641SOL    HW2 2060   0.707   1.235   2.460 -1.3198  1.1986  0.4089
  642SOL     OW 2061   3.132   2.951   2.813  0.2525  0.7482  0.1713
  642SOL    HW1 2062   3.063   2.974   2.876  0.7293  0.1555  0.9353
  642SOL    HW2 2063   3.191   2.895   2.863  0.9281  0.6992 -0.6709
  643SOL     OW 2064   2.010   2.092   2.646 -0.1385  0.1216  0.6137
  643SOL    HW1 2065   1.986   2.154   2.577  0.7922 -0.3489 -0.1680
  643SOL    HW2 2066   1.948   2.108   2.716  1.4062  3.5418  1.3927
  644SOL     OW 2067   1.060   1.651   1.264  0.3007  0.8400 -0.2586
  644SOL    HW1 2068   0.966   1.654   1.283  0.3263 -0.6170  0.1835
  644SOL    HW2 2069   1.102   1.666   1.349  0.4290 -1.1656  0.0779
  645SOL     OW 2070   1.297   3.057   0.162 -0.4213 -0.4242 -0.2732
  645SOL    HW1 2071   1.367   3.081   0.222 -1.0103  1.9644 -0.4180
  645SOL    HW2 2072   1.222   3.038   0.218 -0.6652  0.7268 -0.1842
  646SOL     OW 2073   1.364   0.885   0.988  0.3063  0.1931  0.5011
  646SOL    HW1 2074   1.317   0.804   1.004 -0.9266  0.4213 -1.5180
  646SOL    HW2 2075   1.431   0.861   0.924 -0.0674  0.7199 -0.1102
  647SOL     OW 2076   0.726   1.858   3.618  0.7860  0.1728  0.3532
  647SOL    HW1 2077   0.762   1.807   3.545 -2.6186  0.2062 -1.5820
  647SOL    HW2 2078   0.638   1.823   3.630  0.9245  0.7333  4.0190
  648SOL     OW 2079   0.079   3.176   2.061  0.1751  0.0057 -0.2932
  648SOL    HW1 2080   0.135   3.130   1.998 -0.3469  0.0768 -0.8153
  648SOL    HW2 2081  -0.009   3.171   2.024  0.0063  0.8497 -0.0341
  649SOL     OW 2082   1.525   1.717   2.910  0.2537  0.3933  0.4579
  649SOL    HW1 2083   1.499   1.661   2.983  1.9898  0.1179  0.9176
  649SOL    HW2 2084   1.447   1.769   2.891 -1.6041 -2.4605 -0.3001
  650SOL     OW 2085   2.462   2.792   2.677  0.4212 -0.3158  0.2803
  650SOL    HW1 2086   2.424   2.704   2.676 -2.0241  0.5930  2.3074
  650SOL    HW2 2087   2.497   2.804   2.588 -0.1309 -2.9129 -0.3745
  651SOL     OW 2088   1.065   3.106   1.248 -0.2954  0.2464 -0.0957
  651SOL    HW1 2089   0.997   3.069   1.190  0.8516  1.7382 -2.5599
  651SOL    HW2 2090   1.132   3.038   1.252 -0.7734 -0.2181  0.2425
  652SOL     OW 2091   1.857   1.159   1.708 -0.4363  0.2300  0.3819
  652SOL    HW1 2092   1.771   1.198   1.725 -0.4483  1.4287 -2.0049
  652SOL    HW2 2093   1.839   1.090   1.643  0.4638  1.0873 -0.8286
  653SOL     OW 2094   1.079   2.443   0.195  0.0604  0.2167  0.0801
  653SOL    HW1 2095   0.988   2.413   0.203 -0.2019  0.1504 -2.4472
  653SOL    HW2 2096   1.078   2.531   0.234 -1.3499  0.6247 -0.7894
  654SOL     OW 2097   0.810   3.610   2.646 -0.2305  0.1150  0.2619
  654SOL    HW1 2098   0.860   3.610   2.565  0.6187 -0.6257  0.7627
  654SOL    HW2 2099   0.791   3.702   2.663 -1.6808  0.2032 -1.5036
  655SOL     OW 2100   0.553   0.386   3.235 -0.7367 -1.2799 -0.0905
  655SOL    HW1 2101   0.640   0.365   3.200 -0.9931 -0.4128 -1.2767
  655SOL    HW2 2102   0.569   0.402   3.328  0.2401 -1.8966 -0.1269
  656SOL     OW 2103   3.544   0.468   3.336  0.1698 -0.1720  0.7101
  656SOL    HW1 2104   3.453   0.493   3.327  0.1992  1.1555  3.1370
  656SOL    HW2 2105   3.568   0.496   3.425  2.4838 -1.9260  0.7360
  657SOL     OW 2106   0.979   2.149   3.202  0.0017 -0.4012  0.5042
  657SOL    HW1 2107   0.914   2.088   3.237 -0.4310 -1.5859 -2.1231
  657SOL    HW2 2108   0.950   2.235   3.231 -0.4362 -1.2362  2.7202
  658SOL     OW 2109   0.358   1.932   2.717 -0.6058 -0.3356 -0.0769
  658SOL    HW1 2110   0.432   1.982   2.684  0.5083 -0.5681  1.9130
  658SOL    HW2 2111   0.365   1.847   2.674 -2.4587  1.0045 -3.4175
  659SOL     OW 2112   1.353   1.355   2.984  0.0921  0.4880 -0.3515
  659SOL    HW1 2113   1.435   1.307   2.988  0.9676  2.0141  1.2360
  659SOL    HW2 2114   1.343   1.393   3.071 -2.2130  0.5073 -0.5625
  660SOL     OW 2115   2.433   1.012   1.588 -0.6000 -0.6274 -0.5258
  660SOL    HW1 2116   2.521   1.049   1.574 -1.1466  1.5469  1.1606
  660SOL    HW2 2117   2.422   0.950   1.516  1.8275 -0.0508 -1.5221
  661SOL     OW 2118   0.693   1.719   1.995 -0.4487 -0.5576  0.6879
  661SOL    HW1 2119   0.634   1.738   1.922  1.3533 -1.3680 -1.1164
  661SOL    HW2 2120   0.697   1.623   1.997  2.1716 -0.5685 -0.5579
  662SOL     OW 2121   3.033   1.363   2.590 -0.0321  0.4020 -0.0073
  662SOL    HW1 2122   2.958   1.420   2.605  0.0904 -0.1130  3.4670
  662SOL    HW2 2123   3.105   1.422   2.568 -0.6117  1.2740  0.3995
  663SOL     OW 2124   3.113   2.734   0.155  0.2901 -0.1910  0.1237
  663SOL    HW1 2125   3.055   2.808   0.138 -0.0139  0.0804  2.1184
  663SOL    HW2 2126   3.151   2.753   0.241 -0.0897 -2.5353  0.8742
  664SOL     OW 2127   0.082   1.195   0.071  0.0627 -0.3972  0.2125
  664SOL    HW1 2128   0.145   1.231   0.009 -1.2311  0.0253 -0.9054
  664SOL    HW2 2129   0.089   1.100   0.060 -0.4707 -0.3230 -0.9513
  665SOL     OW 2130   2.068   2.613   1.081  0.1100 -0.5369  0.1949
  665SOL    HW1 2131   2.103   2.634   1.168 -2.9122  0.1745  1.3733
  665SOL    HW2 2132   2.130   2.550   1.045  1.9581 -0.1860  2.4870
  666SOL     OW 2133   2.804   1.048   0.652  1.1913  0.3043 -0.4402
  666SOL    HW1 2134   2.781   1.067   0.561  3.4888  0.1642 -1.1004
  666SOL    HW2 2135   2.819   0.953   0.653  1.1775  0.3045  0.0927
  667SOL     OW 2136   1.634   1.406   0.393  0.0158  0.1838 -0.0297
  667SOL    HW1 2137   1.623   1.312   0.384 -1.4834 -0.1420  3.4456
  667SOL    HW2 2138   1.559   1.444   0.347  0.4815 -0.3018 -1.2122
  668SOL     OW 2139   3.397   3.033   0.081 -0.1195  0.0809  0.0698
  668SOL    HW1 2140   3.457   3.055   0.010 -0.6107  0.5894 -0.1870
  668SOL    HW2 2141   3.317   3.004   0.037 -0.0566 -0.6468  0.4113
  669SOL     OW 2142   3.041   1.038   2.951 -0.0458  0.2425 -0.1899
  669SOL    HW1 2143   2.954   1.078   2.947 -0.3058 -0.4044 -2.7728
  669SOL    HW2 2144   3.102   1.111   2.939 -0.4804  0.2055 -3.6263
  670SOL     OW 2145   3.169   3.069   2.134  0.3336 -0.4114 -0.2946
  670SOL    HW1 2146   3.088   3.111   2.106  1.0027  0.1651 -1.4236
  670SOL    HW2 2147   3.141   2.984   2.169 -0.7035 -0.4359 -1.1372
  671SOL     OW 2148   2.117   2.798   0.149 -0.2968  0.2822 -0.3797
  671SOL    HW1 2149   2.098   2.773   0.239 -0.8491 -0.1353 -0.6018
  671SOL    HW2 2150   2.170   2.727   0.115 -1.7180 -0.5457 -0.9581
  672SOL     OW 2151   1.980   0.981   3.419 -0.2805  0.2071 -0.2626
  672SOL    HW1 2152   1.900   0.952   3.462  0.5846 -0.3566  1.0558
  672SOL    HW2 2153   2.009   1.057   3.470  0.7989 -0.5115  0.2368
  673SOL     OW 2154   2.915   1.339   3.161  0.4212 -0.2444 -0.1824
  673SOL    HW1 2155   3.007   1.313   3.164  0.0405 -1.6456 -0.1823
  673SOL    HW2 2156   2.916   1.423   3.114  1.9706  1.2611  2.2900
  674SOL     OW 2157   3.331   1.968   3.371  0.1523 -0.4295  0.4938
  674SOL    HW1 2158   3.248   1.990   3.414 -0.0306 -1.1778  0.5330
  674SOL    HW2 2159   3.389   2.040   3.393 -1.0450  1.1342 -1.1587
  675SOL     OW 2160   0.314   0.086   2.316  0.3550  0.8325 -0.0227
  675SOL    HW1 2161   0.365   0.167   2.318  2.1344 -0.2433  0.5214
  675SOL    HW2 2162   0.340   0.044   2.233  0.6142  0.1320  0.4021
  676SOL     OW 2163   0.211   3.540   3.295 -0.0928 -0.0427 -0.1844
  676SOL    HW1 2164   0.179   3.628   3.275  0.0425 -0.4648 -2.4531
  676SOL    HW2 2165   0.306   3.550   3.302 -0.0863  0.0010 -0.3422
  677SOL     OW 2166   2.942   2.209   1.220  0.3559  0.2044 -0.4530
  677SOL    HW1 2167   2.916   2.211   1.312 -0.0964 -1.1780 -0.5283
  677SOL    HW2 2168   3.026   2.256   1.218 -0.2969  1.4939  0.4101
  678SOL     OW 2169   0.101   3.372   3.119 -0.2444  0.2429 -0.6396
  678SOL    HW1 2170   0.143   3.448   3.160 -1.0099  0.7595 -0.8022
  678SOL    HW2 2171   0.166   3.302   3.127 -1.1758 -0.3759  3.5786
  679SOL     OW 2172   1.719   2.300   2.025  0.1447  0.3629  0.1216
  679SOL    HW1 2173   1.754   2.219   2.063 -1.3447 -0.2245  0.3141
  679SOL    HW2 2174   1.777   2.319   1.951  1.0578 -0.3671  0.6184
  680SOL     OW 2175   1.525   2.083   0.008 -0.0275 -0.0851 -0.3747
  680SOL    HW1 2176   1.548   2.144   0.079 -3.6156  2.4554 -1.1441
  680SOL    HW2 2177   1.540   2.133  -0.072 -0.6483 -1.1318 -1.1618
  681SOL     OW 2178   2.609   3.279   2.103  0.1794 -0.0038  0.0488
  681SOL    HW1 2179   2.552   3.337   2.153 -3.1689 -2.3156 -0.7649
  681SOL    HW2 2180   2.622   3.324   2.020 -0.0075  0.8042  0.4458
  682SOL     OW 2181   0.589   0.600   2.697 -0.3614  0.2674  0.4123
  682SOL    HW1 2182   0.568   0.509   2.680  1.2716  0.1526 -1.3294
  682SOL    HW2 2183   0.672   0.597   2.745 -0.4268  0.8228  0.5666
  683SOL     OW 2184   1.603   1.825   3.712 -0.2237 -0.6757 -0.3131
  683SOL    HW1 2185   1.650   1.830   3.629 -0.8741  0.8160 -0.6226
  683SOL    HW2 2186   1.581   1.916   3.732  1.6931 -0.7235  2.5344
  684SOL     OW 2187   1.321   3.437   2.844  0.8857  0.5762 -0.0472
  684SOL    HW1 2188   1.388   3.416   2.909  2.1043  1.2912 -1.0278
  684SOL    HW2 2189   1.361   3.505   2.790 -0.5817  0.8951 -0.7627
  685SOL     OW 2190   0.887   3.615   1.590  0.3091 -0.0008 -0.0914
  685SOL    HW1 2191   0.820   3.679   1.614  0.0128 -0.3754  0.0975
  685SOL    HW2 2192   0.950   3.618   1.661  0.9622  0.9859 -0.6938
  686SOL     OW 2193   0.223   1.864   1.445 -0.1522 -0.3951 -0.8374
  686SOL    HW1 2194   0.163   1.887   1.516  3.6193  0.5090  2.4172
  686SOL    HW2 2195   0.174   1.884   1.365 -3.2119  2.8742  1.5148
  687SOL     OW 2196   2.143   0.072   3.484  0.4314  0.2112 -0.0707
  687SOL    HW1 2197   2.201   0.067   3.408  1.7503 -0.5366  0.9411
  687SOL    HW2 2198   2.059   0.036   3.454  0.4728  1.2814 -1.5512
  688SOL     OW 2199   1.430   3.118   3.261  0.4527  0.0699  0.2530
  688SOL    HW1 2200   1.523   3.134   3.242  0.5072  1.9037  1.7306
  688SOL    HW2 2201   1.431   3.046   3.324  1.0580  1.3081  1.7175
  689SOL     OW 2202   2.632   2.404   3.142  0.6489 -0.1142 -0.5874
  689SOL    HW1 2203   2.605   2.383   3.232  0.5552 -1.0669 -0.8224
  689SOL    HW2 2204   2.593   2.489   3.124 -0.7886 -0.6950 -0.3236
  690SOL     OW 2205   2.159   2.154   0.762  0.1775  0.3795  0.1278
  690SOL    HW1 2206   2.193   2.066   0.745 -1.0789 -0.2714  0.7813
  690SOL    HW2 2207   2.152   2.159   0.858 -1.3835  0.5171  0.0396
  691SOL     OW 2208   1.511   3.083   0.319  0.9092 -0.3928  0.0456
  691SOL    HW1 2209   1.524   3.099   0.412  2.6789 -2.2256  0.1759
  691SOL    HW2 2210   1.575   3.140   0.276 -1.2839  2.0175 -0.2604
  692SOL     OW 2211   0.862   3.021   1.952  0.4246 -0.1145  0.1635
  692SOL    HW1 2212   0.811   2.943   1.973  1.2996 -0.4093  1.2905
  692SOL    HW2 2213   0.797   3.085   1.925 -0.7187 -0.1733  2.4790
  693SOL     OW 2214   0.742   3.013   2.389 -0.5131  0.1292  0.0038
  693SOL    HW1 2215   0.832   3.022   2.421 -0.0205 -1.4713 -0.7870
  693SOL    HW2 2216   0.697   3.091   2.421  0.2661 -0.6216  3.3647
  694SOL     OW 2217   1.320   2.532   1.186  0.4110  0.0285  0.0130
  694SOL    HW1 2218   1.395   2.568   1.140  0.8476 -1.0043 -0.1108
  694SOL    HW2 2219   1.259   2.507   1.117  0.4950 -0.2939  0.0550
  695SOL     OW 2220   3.409   3.725   3.537 -0.0842  0.2378  0.1256
  695SOL    HW1 2221   3.451   3.744   3.620 -3.7462  0.4256  2.1775
  695SOL    HW2 2222   3.463   3.657   3.497  1.4698 -0.3540  3.0099
  696SOL     OW 2223   3.551   2.203   1.725  0.2195  0.3806 -0.3514
  696SOL    HW1 2224   3.549   2.150   1.805  2.0550  0.9373  0.1283
  696SOL    HW2 2225   3.548   2.293   1.757 -1.6518  0.6106 -1.0905
  697SOL     OW 2226   2.369   0.664   1.867  0.1453 -0.4287 -0.3528
  697SOL    HW1 2227   2.325   0.728   1.810  2.0696  2.1713  0.8742
  697SOL    HW2 2228   2.386   0.712   1.948  2.7547 -2.1339  0.2247
  698SOL     OW 2229   2.638   3.294   1.122 -0.4888  0.8280  0.2483
  698SOL    HW1 2230   2.672   3.238   1.052 -0.0360  0.5582  0.6783
  698SOL    HW2 2231   2.711   3.304   1.183 -1.1403  0.3425  1.1242
  699SOL     OW 2232   0.329   3.679   1.155  0.7668 -0.1338  0.3072
  699SOL    HW1 2233   0.351   3.627   1.078  0.3876  0.8096 -0.4695
  699SOL    HW2 2234   0.300   3.763   1.119  1.4090  0.6312  1.5170
  700SOL     OW 2235   3.609   0.969   2.335 -0.9176  0.2211 -0.1110
  700SOL    HW1 2236   3.547   0.986   2.265 -0.5264  2.4774  0.0343
  700SOL    HW2 2237   3.557   0.929   2.404 -1.8586  0.4975 -0.6442
  701SOL     OW 2238   0.947   1.241   0.666  0.1428  0.2530  0.0331
  701SOL    HW1 2239   1.009   1.308   0.695 -0.5851  0.0119  2.3332
  701SOL    HW2 2240   1.002   1.163   0.653  0.5890  0.5284  0.2338
  702SOL     OW 2241   3.232   3.385   3.653  0.6483  0.5136 -0.2052
  702SOL    HW1 2242   3.168   3.449   3.621 -1.1034 -0.5740  0.9840
  702SOL    HW2 2243   3.239   3.320   3.584 -0.4194  0.0377  0.1280
  703SOL     OW 2244   3.485   2.289   1.483 -0.2591 -0.0079 -0.2435
  703SOL    HW1 2245   3.524   2.247   1.560 -2.2642  0.0351  0.8815
  703SOL    HW2 2246   3.476   2.381   1.507 -3.7561 -0.4713  0.9063
  704SOL     OW 2247   0.232   2.600   3.519 -0.3627  0.4783  0.8590
  704SOL    HW1 2248   0.315   2.577   3.478 -1.1029  1.0474 -1.0537
  704SOL    HW2 2249   0.184   2.517   3.526 -0.8029  0.5536 -0.8492
  705SOL     OW 2250   3.064   0.845   1.163  0.4282  0.0788  0.0450
  705SOL    HW1 2251   2.999   0.879   1.100  1.7474  1.6462 -0.5424
  705SOL    HW2 2252   3.011   0.813   1.236 -1.0378  1.0095 -0.5475
  706SOL     OW 2253   1.517   1.038   3.289 -0.3828 -0.0894 -0.5318
  706SOL    HW1 2254   1.604   1.047   3.251 -0.1791  0.1306 -0.0198
  706SOL    HW2 2255   1.497   1.124   3.325 -0.7733 -0.1645 -0.5620
  707SOL     OW 2256   2.431   1.880   2.453  0.3695  0.4625 -0.4120
  707SOL    HW1 2257   2.482   1.805   2.421  1.6252  1.1469 -0.0644
  707SOL    HW2 2258   2.342   1.846   2.462  1.0525 -1.2023  0.4419
  708SOL     OW 2259   1.182   0.355   3.519  0.2894  0.0317  0.1320
  708SOL    HW1 2260   1.182   0.371   3.424  3.4492 -0.6714 -0.1034
  708SOL    HW2 2261   1.267   0.389   3.548  0.0354 -1.1744  2.4463
  709SOL     OW 2262   3.435   0.088   1.426 -0.1392 -0.4456  0.2393
  709SOL    HW1 2263   3.394   0.117   1.344  1.2974  2.3896  0.3827
  709SOL    HW2 2264   3.529   0.094   1.410  0.1791 -0.6707  1.8051
  710SOL     OW 2265   0.445   0.799   2.611 -0.1675 -0.7436  0.2117
  710SOL    HW1 2266   0.485   0.712   2.607  0.2634 -0.9438  4.4293
  710SOL    HW2 2267   0.456   0.826   2.702 -3.7994  2.0538  0.0345
  711SOL     OW 2268   3.603   1.825   1.767  0.6210  0.4451 -0.0072
  711SOL    HW1 2269   3.622   1.815   1.860  1.0959 -0.4928 -0.1857
  711SOL    HW2 2270   3.658   1.898   1.739 -0.0122  1.1598  0.5721
  712SOL     OW 2271   1.820   0.300   1.467 -0.2053  0.3504  0.0785
  712SOL    HW1 2272   1.848   0.294   1.558 -0.5912  1.1104  0.2528
  712SOL    HW2 2273   1.729   0.271   1.467 -0.9554  2.5002  0.3486
  713SOL     OW 2274   2.219   2.978   1.984 -0.2258  0.1775  0.7291
  713SOL    HW1 2275   2.306   2.979   1.944 -0.6542 -1.8265 -0.3564
  713SOL    HW2 2276   2.223   3.048   2.049  1.1708  2.2500 -1.3943
  714SOL     OW 2277   2.747   0.981   3.449 -0.8712  0.1470  0.5331
  714SOL    HW1 2278   2.738   1.076   3.446 -1.3193  0.1988  2.4193
  714SOL    HW2 2279   2.674   0.952   3.503 -0.6286 -1.2574  0.1367
  715SOL     OW 2280   2.702   1.098   1.561 -0.4982 -0.3850  0.8470
  715SOL    HW1 2281   2.747   1.047   1.628 -0.6373 -1.8014 -0.1038
  715SOL    HW2 2282   2.750   1.180   1.557  0.5374 -0.9452  1.5042
  716SOL     OW 2283   2.109   2.233   0.041  0.7611  0.2406  0.2122
  716SOL    HW1 2284   2.173   2.271  -0.018  0.8718 -1.4890 -0.8586
  716SOL    HW2 2285   2.156   2.225   0.125  1.2519  0.8851  0.0094
  717SOL     OW 2286   1.392   2.510   0.761  0.1224  0.6342 -0.0713
  717SOL    HW1 2287   1.444   2.471   0.831  2.2453 -2.1719 -2.9360
  717SOL    HW2 2288   1.439   2.591   0.738  0.5105  0.5658  0.4736
  718SOL     OW 2289   3.501   1.220   3.192  0.4920  0.1356  0.0606
  718SOL    HW1 2290   3.591   1.202   3.219 -0.1923 -1.7317  1.3399
  718SOL    HW2 2291   3.471   1.289   3.250  0.8926  0.2864  0.0860
  719SOL     OW 2292   2.722   1.242   2.430 -0.3373  0.9307 -0.0313
  719SOL    HW1 2293   2.751   1.184   2.500  0.9195  0.0640 -1.2092
  719SOL    HW2 2294   2.781   1.222   2.356 -0.4507  3.0621 -0.7751
  720SOL     OW 2295   0.251   0.050   1.822  0.0501 -0.2384  0.1535
  720SOL    HW1 2296   0.319   0.071   1.886  1.3641  0.2951 -1.3422
  720SOL    HW2 2297   0.264   0.113   1.752 -2.4899  0.3325  0.1198
  721SOL     OW 2298   1.612   0.562   3.371  0.3568 -0.4179 -0.7219
  721SOL    HW1 2299   1.643   0.473   3.352 -1.2979 -0.6581 -2.5304
  721SOL    HW2 2300   1.693   0.613   3.384  1.3458 -2.0175 -0.3199
  722SOL     OW 2301   1.168   1.130   1.005  0.4363  0.1825 -0.0644
  722SOL    HW1 2302   1.118   1.070   1.061  1.3799  0.1055  0.7047
  722SOL    HW2 2303   1.256   1.092   1.001  0.7241  0.8784 -0.5528
  723SOL     OW 2304   1.825   0.577   3.635 -0.0102 -0.8223 -0.7396
  723SOL    HW1 2305   1.855   0.666   3.618 -0.8082 -0.3928  0.0468
  723SOL    HW2 2306   1.876   0.523   3.575  0.5790  0.1451 -1.1319
  724SOL     OW 2307   0.443   3.178   1.663 -0.4351  0.1374 -0.7780
  724SOL    HW1 2308   0.528   3.221   1.647  0.1638 -0.7199 -0.0241
  724SOL    HW2 2309   0.452   3.092   1.621 -0.6156 -0.2819  0.0411
  725SOL     OW 2310   2.673   1.154   1.919  0.0999  0.0677  0.1453
  725SOL    HW1 2311   2.723   1.232   1.944 -0.0550  0.6921 -1.3573
  725SOL    HW2 2312   2.725   1.113   1.850  0.5096 -1.5737  1.3658
  726SOL     OW 2313   3.251   0.551   1.162  0.4372 -0.3123  0.6216
  726SOL    HW1 2314   3.268   0.570   1.254  0.2527 -0.2377  0.6411
  726SOL    HW2 2315   3.157   0.568   1.151  0.3294 -0.8933  0.5666
  727SOL     OW 2316   2.778   1.350   0.528  0.0415 -0.2625  0.4757
  727SOL    HW1 2317   2.861   1.376   0.488 -1.2123  3.5191 -0.1025
  727SOL    HW2 2318   2.728   1.312   0.456 -0.8288  3.1217 -0.9161
  728SOL     OW 2319   1.430   3.589   2.645  0.4059 -0.0342 -0.6364
  728SOL    HW1 2320   1.419   3.670   2.596 -3.3787 -0.9434 -1.6150
  728SOL    HW2 2321   1.465   3.527   2.582 -2.8160 -0.7300 -1.9507
  729SOL     OW 2322   2.821   0.062   3.078 -0.5278 -0.4263 -0.1461
  729SOL    HW1 2323   2.825   0.035   2.986  0.4878  0.2697 -0.3199
  729SOL    HW2 2324   2.891   0.013   3.121  0.3909  0.8276 -0.1788
  730SOL     OW 2325   0.901   2.353   2.145  0.2192  0.4001  0.6552
  730SOL    HW1 2326   0.808   2.364   2.165 -0.4124 -0.7709 -1.3981
  730SOL    HW2 2327   0.919   2.417   2.076  1.1933  1.1881  1.5855
  731SOL     OW 2328   3.214   2.808   0.535  0.5607 -0.1880 -0.5339
  731SOL    HW1 2329   3.243   2.817   0.444  0.6511  2.5427 -0.3012
  731SOL    HW2 2330   3.227   2.895   0.574 -1.2792 -0.7536  1.5655
  732SOL     OW 2331   0.714   1.453   1.977  0.1550 -0.1240  0.0298
  732SOL    HW1 2332   0.800   1.456   2.020 -0.6283  0.9076  1.5913
  732SOL    HW2 2333   0.655   1.420   2.044 -0.9858  0.8527 -0.4687
  733SOL     OW 2334   3.700   2.384   2.182  0.3457 -0.3624  0.0556
  733SOL    HW1 2335   3.655   2.311   2.225  0.5836 -0.5227  0.0349
  733SOL    HW2 2336   3.668   2.461   2.228  0.3896 -0.5106  0.3403
  734SOL     OW 2337   3.132   0.040   1.117  0.0353  0.5391 -0.1006
  734SOL    HW1 2338   3.120  -0.054   1.132  0.5666  0.4694 -0.0755
  734SOL    HW2 2339   3.108   0.053   1.025 -0.9366  0.5487  0.1452
  735SOL     OW 2340   1.529   3.638   0.113  0.0108  0.3970 -0.2516
  735SOL    HW1 2341   1.509   3.546   0.133  0.8222  0.6387  1.8544
  735SOL    HW2 2342   1.607   3.633   0.057 -0.7025 -0.2003 -1.2465
  736SOL     OW 2343   1.548   0.499   0.705 -0.4367 -0.5279 -0.4953
  736SOL    HW1 2344   1.556   0.426   0.644 -1.4607  0.6302 -2.0933
  736SOL    HW2 2345   1.454   0.505   0.724 -0.3595  0.3038 -0.3123
  737SOL     OW 2346   3.698   1.757   2.011  0.0593  0.3050 -0.4833
  737SOL    HW1 2347   3.703   1.661   2.018 -0.2898  0.3718  1.3677
  737SOL    HW2 2348   3.781   1.787   2.050  0.2258  0.7646 -1.1783
  738SOL     OW 2349   2.876   1.010   1.742 -0.1776 -0.2610  0.1909
  738SOL    HW1 2350   2.938   0.967   1.683 -0.0488  0.1143  0.0453
  738SOL    HW2 2351   2.847   0.941   1.802 -0.7092 -0.7702 -0.6332
  739SOL     OW 2352   1.279   2.273   3.706 -0.6882 -1.0764 -0.3880
  739SOL    HW1 2353   1.223   2.229   3.770 -0.2863 -3.7648 -1.7023
  739SOL    HW2 2354   1.355   2.215   3.697  1.1937  1.2445 -0.4085
  740SOL     OW 2355   2.137   0.800   2.352  0.0420 -0.3893 -0.5226
  740SOL    HW1 2356   2.047   0.807   2.386  0.7448 -0.9196  1.5339
  740SOL    HW2 2357   2.138   0.862   2.278 -1.1179  2.1278  1.4156
  741SOL     OW 2358   3.577   0.616   0.416  0.2074  0.0416 -0.5026
  741SOL    HW1 2359   3.657   0.630   0.365  0.1586  0.7741 -0.3858
  741SOL    HW2 2360   3.516   0.683   0.385  0.4681  1.0822  1.1123
  742SOL     OW 2361   0.769   1.613   1.122  0.2195 -0.4495 -0.6054
  742SOL    HW1 2362   0.778   1.588   1.030  1.6362 -1.2968 -0.2705
  742SOL    HW2 2363   0.674   1.618   1.136 -0.0673 -1.8578 -1.7197
  743SOL     OW 2364   0.337   0.976   3.524  0.3688 -0.3048  0.3374
  743SOL    HW1 2365   0.242   0.972   3.537  0.3822  1.8151  1.7125
  743SOL    HW2 2366   0.374   0.939   3.604  0.7595 -1.6696 -0.4373
  744SOL     OW 2367   1.183   2.580   0.919 -0.2189  0.2525  0.2646
  744SOL    HW1 2368   1.263   2.580   0.867  0.9376  0.7227  1.9820
  744SOL    HW2 2369   1.118   2.622   0.861  1.0783  1.0292 -0.6967
  745SOL     OW 2370   2.825   3.253   2.781 -0.2091  0.1533  0.6842
  745SOL    HW1 2371   2.795   3.237   2.692 -1.0719 -2.2107  1.3348
  745SOL    HW2 2372   2.768   3.323   2.813 -0.5228  0.3596 -0.2913
  746SOL     OW 2373   3.167   1.329   2.242  0.3137  0.8836  0.3655
  746SOL    HW1 2374   3.252   1.343   2.284  1.2218  0.3154 -1.1884
  746SOL    HW2 2375   3.183   1.260   2.178 -1.9031 -0.9972  1.6777
  747SOL     OW 2376   1.516   3.337   0.535 -0.5889  0.1570  0.4408
  747SOL    HW1 2377   1.461   3.388   0.476 -0.4716  1.3858  1.3623
  747SOL    HW2 2378   1.514   3.386   0.617  1.5095 -0.0270  0.6319
  748SOL     OW 2379   3.691   2.259   3.085  0.7193  0.2029 -0.4670
  748SOL    HW1 2380   3.663   2.199   3.016 -0.6992  0.8891 -0.5362
  748SOL    HW2 2381   3.676   2.346   3.048  0.0573  0.5810  0.6331
  749SOL     OW 2382   2.423   0.685   0.270 -0.0767 -0.8268 -0.4813
  749SOL    HW1 2383   2.358   0.755   0.270  1.9024  1.2490  2.4202
  749SOL    HW2 2384   2.501   0.724   0.231  0.3586 -2.2717 -1.1226
  750SOL     OW 2385   2.658   1.599   1.421 -0.7218  0.7821 -0.3097
  750SOL    HW1 2386   2.728   1.556   1.372 -0.9519  0.6177 -0.5031
  750SOL    HW2 2387   2.701   1.670   1.468 -0.1413 -0.2838  0.8400
  751SOL     OW 2388   3.609   2.456   1.932 -0.3060  0.2849  0.4456
  751SOL    HW1 2389   3.641   2.412   2.011  2.3672  0.4548 -0.4587
  751SOL    HW2 2390   3.567   2.536   1.965 -0.2256 -0.1764  1.7484
  752SOL     OW 2391   1.705   3.289   1.713  0.9740  0.5884 -0.2829
  752SOL    HW1 2392   1.626   3.342   1.706  1.7283  1.8118  0.0973
  752SOL    HW2 2393   1.777   3.352   1.705  1.9076 -0.4344 -0.1912
  753SOL     OW 2394   3.561   1.570   1.664  0.8947 -0.1761  0.1203
  753SOL    HW1 2395   3.635   1.536   1.715 -0.5296 -0.5806  2.0374
  753SOL    HW2 2396   3.571   1.665   1.669  0.3753 -0.1691  1.9129
  754SOL     OW 2397   3.095   0.157   1.840 -0.6760  0.4046 -0.5122
  754SOL    HW1 2398   3.115   0.207   1.919  1.9593  0.3895 -1.0521
  754SOL    HW2 2399   3.102   0.065   1.867  2.1900  0.3645 -1.0407
  755SOL     OW 2400   3.499   3.566   1.509  0.2744 -0.1049 -0.3072
  755SOL    HW1 2401   3.427   3.506   1.525  1.5851 -2.8856 -3.7129
  755SOL    HW2 2402   3.457   3.648   1.483 -1.8262 -1.9333 -3.2437
  756SOL     OW 2403   0.732   0.406   3.452 -0.4505  0.5575  0.5387
  756SOL    HW1 2404   0.671   0.383   3.522  1.0578  0.2492  1.7785
  756SOL    HW2 2405   0.755   0.497   3.468  0.2617  0.3472  0.7174
  757SOL     OW 2406   0.117   2.555   0.826 -0.7312  0.0557 -0.1229
  757SOL    HW1 2407   0.061   2.574   0.751 -2.4273  1.5241  1.4310
  757SOL    HW2 2408   0.171   2.633   0.836 -0.5602 -0.1052  0.2387
  758SOL     OW 2409   3.678   0.104   1.332 -0.7761  0.6327  0.1001
  758SOL    HW1 2410   3.675   0.132   1.240  1.2029 -1.5100 -0.7184
  758SOL    HW2 2411   3.772   0.096   1.352 -1.1618 -1.6843  1.3651
  759SOL     OW 2412   0.952   3.333   2.265 -0.1772  0.2402 -0.1006
  759SOL    HW1 2413   0.987   3.401   2.207 -1.7395  3.6382  2.5839
  759SOL    HW2 2414   1.007   3.340   2.343 -0.9787 -0.9685  0.5806
  760SOL     OW 2415   1.812   2.385   1.316  0.0777  0.1430  0.1146
  760SOL    HW1 2416   1.804   2.289   1.317 -1.2948  0.2362 -0.1679
  760SOL    HW2 2417   1.806   2.410   1.408  0.7761 -0.0588  0.2199
  761SOL     OW 2418   1.904   3.082   2.761 -0.3837  0.1833 -0.3999
  761SOL    HW1 2419   1.909   3.123   2.675 -0.3932  2.8027  0.7465
  761SOL    HW2 2420   1.984   3.029   2.767 -0.6278 -0.4588 -2.1564
  762SOL     OW 2421   1.355   0.692   1.992 -0.5624  0.6008  0.4468
  762SOL    HW1 2422   1.403   0.615   2.022 -1.3534  0.1432  0.5735
  762SOL    HW2 2423   1.320   0.732   2.072 -2.7300 -0.6569  0.2043
  763SOL     OW 2424   1.099   1.923   1.785 -0.0190  0.0989 -0.1812
  763SOL    HW1 2425   1.072   2.012   1.766  2.3697  0.9326 -0.0012
  763SOL    HW2 2426   1.022   1.881   1.822 -1.0928  2.1810  0.0377
  764SOL     OW 2427   0.365   1.366   2.633  0.4919  0.3264 -0.7379
  764SOL    HW1 2428   0.436   1.307   2.609  1.6895  1.1491  0.5891
  764SOL    HW2 2429   0.289   1.309   2.645  0.6471 -0.4574 -3.1035
  765SOL     OW 2430   1.925   0.421   1.983  0.2438  0.2335  0.0898
  765SOL    HW1 2431   1.931   0.493   1.921  2.1657  2.1786  2.3143
  765SOL    HW2 2432   1.886   0.460   2.062  3.9793 -0.1955  2.4011
  766SOL     OW 2433   1.211   1.384   0.968  0.0288 -0.4198 -0.4911
  766SOL    HW1 2434   1.151   1.410   0.898 -1.0497  0.8394  0.8247
  766SOL    HW2 2435   1.198   1.290   0.978 -3.0226  0.0143  0.8183
  767SOL     OW 2436   2.108   2.353   1.678 -0.2011 -0.0954 -0.5531
  767SOL    HW1 2437   2.022   2.367   1.716  1.1160  1.6682  2.0956
  767SOL    HW2 2438   2.121   2.258   1.683 -2.3201 -0.5360 -2.0158
  768SOL     OW 2439   0.281   3.511   3.592  0.2045 -0.5713 -0.3596
  768SOL    HW1 2440   0.202   3.484   3.640 -0.0509 -4.5419 -2.4975
  768SOL    HW2 2441   0.247   3.555   3.514  0.0943 -1.3680 -0.7764
  769SOL     OW 2442   3.480   1.328   2.605  0.2326 -0.2868  0.0375
  769SOL    HW1 2443   3.413   1.388   2.635  0.0859  0.0943 -1.0039
  769SOL    HW2 2444   3.476   1.254   2.666 -1.8739 -0.7855 -0.6280
  770SOL     OW 2445   3.681   1.815   2.703 -0.0823 -0.0108  0.4398
  770SOL    HW1 2446   3.718   1.741   2.751  0.4903  0.6009  0.9542
  770SOL    HW2 2447   3.752   1.845   2.647 -0.7739 -0.7949 -0.9234
  771SOL     OW 2448   1.074   3.460   1.772 -0.3639 -0.0169 -0.6045
  771SOL    HW1 2449   0.994   3.408   1.768  0.1325 -0.8448 -0.0343
  771SOL    HW2 2450   1.144   3.398   1.753  0.5227 -0.2449  2.8269
  772SOL     OW 2451   0.544   3.488   2.659 -0.1332  0.1566  0.1674
  772SOL    HW1 2452   0.599   3.566   2.668 -1.3435  1.0396  0.1351
  772SOL    HW2 2453   0.465   3.520   2.617 -1.7219 -0.5485  2.4437
  773SOL     OW 2454   2.913   0.388   0.013  0.1781  0.0659  0.1299
  773SOL    HW1 2455   2.980   0.445  -0.024 -0.4801 -0.2446 -1.6429
  773SOL    HW2 2456   2.962   0.314   0.048  0.8020 -0.0246 -0.8810
  774SOL     OW 2457   3.175   3.385   1.595  0.2813  0.0593 -0.1417
  774SOL    HW1 2458   3.082   3.382   1.617 -0.0548 -1.8582 -1.5203
  774SOL    HW2 2459   3.193   3.477   1.576 -1.6931  0.2808 -1.1615
  775SOL     OW 2460   1.179   3.514   2.051 -0.0715  0.2220  0.1793
  775SOL    HW1 2461   1.169   3.424   2.021  0.7690 -0.2558  1.2731
  775SOL    HW2 2462   1.179   3.566   1.971 -0.4563 -0.7559 -0.4713
  776SOL     OW 2463   1.333   0.182   3.127  0.0967 -0.2560 -0.3344
  776SOL    HW1 2464   1.287   0.167   3.044  0.3515 -1.4117 -0.2814
  776SOL    HW2 2465   1.385   0.261   3.111  1.8300 -1.6575 -2.0293
  777SOL     OW 2466   3.042   0.740   3.034 -0.1200 -0.0734  0.2013
  777SOL    HW1 2467   3.063   0.689   2.956  0.6925  2.7830 -1.6122
  777SOL    HW2 2468   3.034   0.830   3.002  0.3731  1.2532  3.4390
  778SOL     OW 2469   2.115   3.283   1.198 -0.0649 -0.0923  0.6365
  778SOL    HW1 2470   2.206   3.302   1.221  0.6923 -2.6890  0.1442
  778SOL    HW2 2471   2.119   3.198   1.154 -2.2043  1.6777 -3.4505
  779SOL     OW 2472   3.169   1.871   2.301 -0.1168 -0.2948 -0.2414
  779SOL    HW1 2473   3.099   1.919   2.346  0.3193  0.1483 -0.0292
  779SOL    HW2 2474   3.238   1.936   2.289  0.1485 -0.6584 -0.7030
  780SOL     OW 2475   1.326   0.902   2.624  0.0815  0.1330  0.0972
  780SOL    HW1 2476   1.344   0.994   2.645 -0.8253  0.3316  0.0405
  780SOL    HW2 2477   1.247   0.881   2.674  0.8889 -0.9550  0.9703
  781SOL     OW 2478   1.282   1.321   1.713 -0.4934 -0.2094 -0.8836
  781SOL    HW1 2479   1.263   1.414   1.727 -0.9717  0.3391 -4.1519
  781SOL    HW2 2480   1.243   1.277   1.788  0.1571  2.2121  1.0270
  782SOL     OW 2481   2.756   3.522   2.025  0.5121 -0.0908  0.1236
  782SOL    HW1 2482   2.766   3.497   2.117  0.8481 -0.4256 -0.0040
  782SOL    HW2 2483   2.796   3.609   2.020 -2.4817  1.5005  1.0240
  783SOL     OW 2484   2.962   3.621   1.724 -0.2011 -0.2590  0.0335
  783SOL    HW1 2485   2.967   3.653   1.814  2.5103 -1.4009  0.3981
  783SOL    HW2 2486   2.924   3.694   1.675  1.8096  1.9414  1.5117
  784SOL     OW 2487   0.104   2.290   0.635 -0.3071  0.3327 -0.5170
  784SOL    HW1 2488   0.048   2.338   0.695  0.9464 -0.4855  1.4434
  784SOL    HW2 2489   0.052   2.215   0.607 -0.2327 -0.4764  1.3607
  785SOL     OW 2490   1.836   0.040   2.750 -0.1841 -0.2180  0.1299
  785SOL    HW1 2491   1.878   0.030   2.664 -0.7380  4.8905 -1.0480
  785SOL    HW2 2492   1.909   0.058   2.810 -0.0071  3.7366 -0.9718
  786SOL     OW 2493   2.108   0.967   2.146 -0.2971 -0.2571  0.3438
  786SOL    HW1 2494   2.141   1.049   2.108  0.8172 -0.3404  1.0861
  786SOL    HW2 2495   2.035   0.942   2.090  1.4975 -0.5765 -2.0080
  787SOL     OW 2496   3.437   0.381   1.898 -0.8244  0.3350 -0.1961
  787SOL    HW1 2497   3.476   0.295   1.911  1.1999  1.4063  1.5743
  787SOL    HW2 2498   3.465   0.432   1.974 -2.1635  2.4938 -1.0377
  788SOL     OW 2499   3.654   3.276   1.854 -0.2926  0.0901  0.1985
  788SOL    HW1 2500   3.715   3.337   1.812 -1.4653  0.6298 -0.7902
  788SOL    HW2 2501   3.595   3.332   1.904 -1.0285 -0.2566 -0.2586
  789SOL     OW 2502   2.341   2.559   1.284 -0.2446 -0.3208  0.2320
  789SOL    HW1 2503   2.292   2.477   1.290  0.4215 -0.8312 -0.8229
  789SOL    HW2 2504   2.381   2.570   1.370  1.9486 -2.6389 -0.3529
  790SOL     OW 2505   2.623   2.169   2.155 -0.1650  0.9942 -0.2936
  790SOL    HW1 2506   2.583   2.255   2.160 -1.9697  0.1730  0.1701
  790SOL    HW2 2507   2.637   2.155   2.061 -1.1400  1.2363 -0.4811
  791SOL     OW 2508   3.219   2.800   1.901  0.2808 -0.5544 -0.6882
  791SOL    HW1 2509   3.265   2.883   1.884  1.1442 -0.6341  1.0584
  791SOL    HW2 2510   3.133   2.827   1.933 -0.0750 -0.3658 -1.7891
  792SOL     OW 2511   2.619   1.528   0.756 -0.1457 -0.5285 -0.0022
  792SOL    HW1 2512   2.629   1.622   0.768 -0.2532 -0.7334  2.3318
  792SOL    HW2 2513   2.527   1.517   0.731 -0.7020 -0.0645  1.6448
  793SOL     OW 2514   3.683   0.785   2.092  0.4914 -0.4468  0.1900
  793SOL    HW1 2515   3.677   0.763   2.185 -0.7399 -1.0550 -0.0130
  793SOL    HW2 2516   3.626   0.862   2.082 -0.3445 -1.0998 -0.2516
  794SOL     OW 2517   1.905   0.706   1.139 -0.0107  0.4021 -0.5982
  794SOL    HW1 2518   1.826   0.709   1.085  0.0892 -1.9115 -0.9813
  794SOL    HW2 2519   1.878   0.658   1.218  0.8440  0.1263 -0.4614
  795SOL     OW 2520   3.592   2.771   0.343  0.3694  0.4664  0.1517
  795SOL    HW1 2521   3.576   2.688   0.389 -0.3061  0.8081  0.5536
  795SOL    HW2 2522   3.653   2.748   0.273 -0.7559 -0.6077 -0.5126
  796SOL     OW 2523   0.708   0.202   1.401  0.1704 -0.3836  0.4779
  796SOL    HW1 2524   0.613   0.213   1.403  0.4005  3.5731 -0.5764
  796SOL    HW2 2525   0.732   0.185   1.492 -1.4579  0.0937  1.0423
  797SOL     OW 2526   3.224   1.726   3.328  0.5277  0.6052  0.5622
  797SOL    HW1 2527   3.272   1.808   3.330  0.9187  0.4566 -0.9510
  797SOL    HW2 2528   3.291   1.658   3.336  0.1991  0.4164  1.8938
  798SOL     OW 2529   2.660   3.102   2.287  0.4040  0.0566 -0.0993
  798SOL    HW1 2530   2.709   3.035   2.239  2.5703  1.6070 -0.2263
  798SOL    HW2 2531   2.629   3.162   2.219 -0.7258 -0.2857  0.0886
  799SOL     OW 2532   0.899   1.478   2.167 -0.2419  0.0006  0.1879
  799SOL    HW1 2533   0.916   1.570   2.148 -2.4428  0.9213  2.1109
  799SOL    HW2 2534   0.985   1.436   2.162  0.6668  1.9130 -1.7849
  800SOL     OW 2535   2.554   1.235   0.065  0.3774  0.6797 -0.4242
  800SOL    HW1 2536   2.462   1.234   0.039  0.6791 -1.4210 -1.7095
  800SOL    HW2 2537   2.596   1.292   0.001  0.3694 -0.6490 -1.6638
  801SOL     OW 2538   3.202   2.145   1.069  0.4309  0.2320 -0.1531
  801SOL    HW1 2539   3.119   2.139   1.021  0.2350  0.2831  0.1743
  801SOL    HW2 2540   3.231   2.054   1.078 -0.3895  0.0636  1.0983
  802SOL     OW 2541   1.407   2.630   0.084 -0.3405 -0.9526 -0.0257
  802SOL    HW1 2542   1.496   2.614   0.115 -0.7144 -0.9245  1.0823
  802SOL    HW2 2543   1.368   2.687   0.150 -0.0580  2.0486 -2.2242
  803SOL     OW 2544   2.130   0.130   1.751 -0.0324  0.0848  0.2871
  803SOL    HW1 2545   2.045   0.090   1.768  0.2580 -0.4469  0.5526
  803SOL    HW2 2546   2.192   0.076   1.801  0.6279 -0.3728 -0.9673
  804SOL     OW 2547   1.446   3.570   0.751  0.2030  0.0938  1.1183
  804SOL    HW1 2548   1.528   3.581   0.702 -0.3425 -0.3116  0.0684
  804SOL    HW2 2549   1.472   3.568   0.843  1.2732  0.8325  0.8400
  805SOL     OW 2550   0.439   0.232   1.991  0.0237 -0.1325  0.3361
  805SOL    HW1 2551   0.527   0.264   1.972 -0.3933  0.4004 -0.8197
  805SOL    HW2 2552   0.391   0.310   2.019 -0.4944 -0.0753 -0.6416
  806SOL     OW 2553   2.002   3.714   0.482 -0.4029 -0.1160 -0.6459
  806SOL    HW1 2554   1.985   3.795   0.530 -1.0848 -0.9506  0.5959
  806SOL    HW2 2555   2.030   3.652   0.549 -1.4009 -1.3344 -1.3103
  807SOL     OW 2556   3.412   2.349   2.825 -0.2823 -0.3580 -0.2366
  807SOL    HW1 2557   3.337   2.399   2.795 -0.1120 -0.3406 -0.6304
  807SOL    HW2 2558   3.488   2.392   2.787  0.0576  0.4888  1.3135
  808SOL     OW 2559   1.616   2.752   1.328  0.1573 -1.1669 -0.3185
  808SOL    HW1 2560   1.657   2.699   1.260  0.8518  1.1056 -1.7816
  808SOL    HW2 2561   1.611   2.694   1.404 -1.3486 -4.0728 -2.4318
  809SOL     OW 2562   0.089   1.656   3.596  1.2289 -0.0434 -0.0470
  809SOL    HW1 2563   0.002   1.648   3.634  1.5768  1.1814  1.0762
  809SOL    HW2 2564   0.145   1.682   3.669  2.9442 -2.6033 -0.3007
  810SOL     OW 2565   3.678   2.548   3.097  0.0275  0.3832 -0.4381
  810SOL    HW1 2566   3.617   2.621   3.082  0.8477  1.0405 -0.6273
  810SOL    HW2 2567   3.730   2.576   3.172 -0.8283 -0.7961  0.6530
  811SOL     OW 2568   0.142   3.335   0.036 -0.2238 -0.4257 -0.0932
  811SOL    HW1 2569   0.150   3.241   0.025  0.0459 -0.5339  0.9080
  811SOL    HW2 2570   0.217   3.360   0.089 -0.1688  0.3955 -0.5341
  812SOL     OW 2571   1.869   3.714   3.430  0.1539 -0.3964  0.5642
  812SOL    HW1 2572   1.825   3.629   3.438 -0.9765  0.1846  0.7369
  812SOL    HW2 2573   1.805   3.777   3.464  0.8138  0.5706  0.0490
  813SOL     OW 2574   0.432   0.786   0.613 -0.3508 -0.3734  0.4053
  813SOL    HW1 2575   0.441   0.880   0.597 -0.9766 -0.3684  0.0641
  813SOL    HW2 2576   0.338   0.772   0.626 -0.2253 -0.8991  0.8032
  814SOL     OW 2577   3.226   1.296   0.810  0.4711 -0.2047 -0.4890
  814SOL    HW1 2578   3.187   1.265   0.892  2.0054 -0.3756  0.2188
  814SOL    HW2 2579   3.153   1.331   0.760 -0.3375  1.2199  1.5505
  815SOL     OW 2580   3.006   0.721   1.669  0.1859 -0.0817  0.2577
  815SOL    HW1 2581   3.077   0.707   1.732 -0.7035 -1.3734  1.0278
  815SOL    HW2 2582   2.994   0.636   1.627 -0.9474  0.1053  0.1795
  816SOL     OW 2583   2.940   2.050   2.925 -0.5055 -0.1601 -0.4863
  816SOL    HW1 2584   3.006   2.003   2.976  0.2301  1.6488  0.3087
  816SOL    HW2 2585   2.987   2.125   2.888 -1.9776  0.8604 -0.3566
  817SOL     OW 2586   0.990   3.616   0.404  0.1329 -0.4745 -0.2797
  817SOL    HW1 2587   1.073   3.582   0.438  0.3427  0.6692  0.4037
  817SOL    HW2 2588   1.012   3.654   0.319  0.5330  0.7434  0.3517
  818SOL     OW 2589   0.691   1.917   2.375  0.7340 -0.0172 -0.1835
  818SOL    HW1 2590   0.704   1.853   2.306 -1.7814  2.0707 -2.8778
  818SOL    HW2 2591   0.779   1.949   2.396  1.7939 -2.5079 -0.4472
  819SOL     OW 2592   2.522   1.664   0.291 -0.1965 -0.0570 -0.3610
  819SOL    HW1 2593   2.571   1.632   0.215 -1.3353 -2.2507 -0.2418
  819SOL    HW2 2594   2.585   1.662   0.363  0.3333  0.0791 -0.8127
  820SOL     OW 2595   0.842   2.352   3.360  0.2759 -0.5674 -0.3564
  820SOL    HW1 2596   0.841   2.436   3.406 -0.8883 -0.3173 -0.7967
  820SOL    HW2 2597   0.785   2.295   3.413 -1.7315 -0.0503 -1.8090
  821SOL     OW 2598   2.901   3.128   3.008  0.3625 -0.2749  0.5608
  821SOL    HW1 2599   2.832   3.152   3.070  0.5386  1.6417  0.0765
  821SOL    HW2 2600   2.876   3.173   2.927  2.5684  1.0882  0.5879
  822SOL     OW 2601   1.189   1.735   0.672 -0.5132  0.0192 -0.1686
  822SOL    HW1 2602   1.254   1.715   0.604  0.5228 -4.8103  1.7811
  822SOL    HW2 2603   1.240   1.772   0.744 -0.3647 -0.9559  0.2518
  823SOL     OW 2604   1.933   2.363   2.866 -0.1794  0.5465 -0.0161
  823SOL    HW1 2605   1.887   2.432   2.914  0.0201  1.3836 -0.9935
  823SOL    HW2 2606   2.026   2.384   2.876 -0.0080 -0.6631  1.2409
  824SOL     OW 2607   2.587   1.916   2.949  0.1784 -0.0881  0.4839
  824SOL    HW1 2608   2.541   1.914   2.865  0.5599 -0.7628  0.2834
  824SOL    HW2 2609   2.668   1.962   2.930  0.5074 -0.7071  0.3446
  825SOL     OW 2610   3.412   3.585   2.870 -0.7208 -0.3952 -0.5345
  825SOL    HW1 2611   3.482   3.644   2.898 -0.6928 -1.7050  2.6789
  825SOL    HW2 2612   3.384   3.618   2.785  2.7372  1.0918 -1.2368
  826SOL     OW 2613   1.460   3.218   1.316 -0.5310 -0.0651  0.1349
  826SOL    HW1 2614   1.461   3.132   1.358 -0.0075  0.0623  0.3882
  826SOL    HW2 2615   1.394   3.210   1.247  0.3477 -1.0587 -0.6328
  827SOL     OW 2616   0.540   1.181   2.532  0.4840  0.1891 -0.4743
  827SOL    HW1 2617   0.549   1.157   2.624  0.8574 -1.3108 -0.8724
  827SOL    HW2 2618   0.523   1.099   2.487 -0.9946  1.0597 -1.6089
  828SOL     OW 2619   3.048   0.591   3.256 -0.2489 -0.1836  0.3050
  828SOL    HW1 2620   3.043   0.668   3.199 -0.7756 -0.4098  0.0425
  828SOL    HW2 2621   2.968   0.542   3.238  0.1793 -0.9038  0.3191
  829SOL     OW 2622   0.376   2.246   1.260 -0.0166  0.1719  0.0676
  829SOL    HW1 2623   0.433   2.184   1.307 -0.0153  0.6125  0.6642
  829SOL    HW2 2624   0.303   2.193   1.229  0.6789 -0.3899 -0.6455
  830SOL     OW 2625   2.708   2.236   0.670  0.0538  0.8751 -0.1514
  830SOL    HW1 2626   2.658   2.155   0.681  2.1726 -0.5360 -0.2474
  830SOL    HW2 2627   2.715   2.247   0.575  1.9176 -0.3280 -0.2059
  831SOL     OW 2628   1.527   1.496   1.561 -0.3654 -0.0159 -0.0911
  831SOL    HW1 2629   1.575   1.511   1.479 -1.2283 -1.1332 -0.8517
  831SOL    HW2 2630   1.436   1.482   1.532 -0.6573 -0.5508  1.0490
  832SOL     OW 2631   2.135   0.851   3.226 -0.0814 -0.2953  0.7575
  832SOL    HW1 2632   2.188   0.909   3.171 -0.0507 -1.5032 -0.5249
  832SOL    HW2 2633   2.104   0.908   3.297 -0.5389  1.4496 -0.7609
  833SOL     OW 2634   0.837   0.190   0.325  0.5244 -0.0623  0.0537
  833SOL    HW1 2635   0.799   0.136   0.256  1.7140 -1.5416  0.4926
  833SOL    HW2 2636   0.816   0.143   0.406  1.0741  0.4566  0.5023
  834SOL     OW 2637   2.786   3.512   0.521  0.7660  0.3236 -0.4854
  834SOL    HW1 2638   2.763   3.599   0.490 -0.2524 -0.3346 -1.6511
  834SOL    HW2 2639   2.865   3.490   0.471  1.0308  0.5728 -0.1819
  835SOL     OW 2640   2.207   0.390   1.819 -0.1390  0.1038  0.1470
  835SOL    HW1 2641   2.170   0.374   1.905  1.2810 -1.5179  0.5085
  835SOL    HW2 2642   2.184   0.313   1.767 -0.1519  0.6120 -0.6295
  836SOL     OW 2643   2.096   3.118   3.568 -0.0812  0.3527  0.1666
  836SOL    HW1 2644   2.054   3.041   3.606  0.6415 -0.3931 -0.5053
  836SOL    HW2 2645   2.167   3.139   3.628 -0.0343  0.2505  0.1474
  837SOL     OW 2646   0.722   2.088   0.018 -0.8955 -0.1375  0.5051
  837SOL    HW1 2647   0.695   2.080   0.109  0.5599  1.7578  1.1510
  837SOL    HW2 2648   0.739   1.998  -0.010 -1.3826 -0.7518  2.0821
  838SOL     OW 2649   3.619   0.607   1.699 -0.3656  0.7606 -0.2121
  838SOL    HW1 2650   3.541   0.639   1.745 -1.2376 -1.3309 -0.1127
  838SOL    HW2 2651   3.689   0.665   1.728 -1.2188  0.6424  2.3586
  839SOL     OW 2652   0.662   1.355   2.830 -0.0608 -0.2908  0.7446
  839SOL    HW1 2653   0.752   1.336   2.856  0.3530 -0.5234 -0.7604
  839SOL    HW2 2654   0.625   1.270   2.807  0.3484  0.0906 -1.6010
  840SOL     OW 2655   0.092   1.477   3.392 -0.0071 -0.0155  0.0197
  840SOL    HW1 2656   0.089   1.543   3.461  0.8787  1.2028 -1.0473
  840SOL    HW2 2657   0.119   1.526   3.314  0.6539 -1.6422 -0.8161
  841SOL     OW 2658   3.117   3.181   3.458 -0.4480  0.3329  0.2533
  841SOL    HW1 2659   3.192   3.185   3.398 -0.9972 -0.9821 -0.5564
  841SOL    HW2 2660   3.048   3.138   3.407 -0.6350 -1.7384  2.1099
  842SOL     OW 2661   0.324   2.778   2.447 -0.2528  0.2273 -0.2051
  842SOL    HW1 2662   0.381   2.814   2.379 -1.0286 -0.0682 -1.0393
  842SOL    HW2 2663   0.369   2.798   2.529 -0.2370  2.3610 -0.6711
  843SOL     OW 2664   2.601   3.549   2.776  0.6500  0.1387  0.2566
  843SOL    HW1 2665   2.545   3.538   2.852  0.5162  0.4662  0.2079
  843SOL    HW2 2666   2.572   3.631   2.736  1.5223  0.6090  0.5436
  844SOL     OW 2667   3.454   2.234   0.588  0.1416 -0.2658 -0.2227
  844SOL    HW1 2668   3.519   2.173   0.623  0.7487  0.4789 -0.0078
  844SOL    HW2 2669   3.467   2.314   0.640 -0.7185  0.0043 -0.4148
  845SOL     OW 2670   3.164   0.268   0.602 -0.1492  0.2000 -0.1222
  845SOL    HW1 2671   3.240   0.277   0.544  0.8194  0.2286  1.1070
  845SOL    HW2 2672   3.180   0.332   0.672 -1.3562  0.2669  0.1080
  846SOL     OW 2673   2.265   2.667   1.893 -0.4477  0.6845  0.0941
  846SOL    HW1 2674   2.227   2.674   1.805  0.7741 -0.1855 -0.5217
  846SOL    HW2 2675   2.192   2.637   1.948 -1.5186  2.2615 -0.3655
  847SOL     OW 2676   0.154   1.084   2.467 -0.0711 -0.0626 -0.6201
  847SOL    HW1 2677   0.112   1.004   2.498 -0.8732  1.1462  1.6391
  847SOL    HW2 2678   0.242   1.056   2.441 -0.8948 -1.9368 -1.6360
  848SOL     OW 2679   3.548   3.642   0.224 -0.7850  0.0199 -0.4233
  848SOL    HW1 2680   3.590   3.691   0.154 -1.3610 -0.1072 -0.8707
  848SOL    HW2 2681   3.459   3.627   0.192 -1.0147 -0.1563  0.2788
  849SOL     OW 2682   2.420   0.060   1.257 -0.3523  0.0895 -0.1719
  849SOL    HW1 2683   2.406   0.026   1.169  0.3553  0.2201 -0.3401
  849SOL    HW2 2684   2.377  -0.003   1.314 -2.4284  0.9564 -0.6985
  850SOL     OW 2685   0.475   2.697   1.859  0.3257  0.6806  1.0206
  850SOL    HW1 2686   0.482   2.649   1.777  0.9404 -0.0957  1.5130
  850SOL    HW2 2687   0.408   2.651   1.908 -0.0403  1.1433  0.9606
  851SOL     OW 2688   3.317   0.592   2.754  0.0439  0.2517  0.0769
  851SOL    HW1 2689   3.270   0.525   2.804 -0.3063  0.1829 -0.3472
  851SOL    HW2 2690   3.344   0.657   2.820 -1.8003  0.9832  0.1563
  852SOL     OW 2691   3.575   2.525   1.681 -0.5669  0.1281  0.7772
  852SOL    HW1 2692   3.604   2.489   1.765 -0.7366  0.5938  1.0356
  852SOL    HW2 2693   3.562   2.618   1.698  0.4728  0.4428 -0.0423
  853SOL     OW 2694   2.356   3.623   1.058  0.6053 -0.3866 -0.4430
  853SOL    HW1 2695   2.304   3.643   0.980  0.2858  0.0347 -0.1253
  853SOL    HW2 2696   2.368   3.528   1.055  0.5909 -0.3712 -1.0034
  854SOL     OW 2697   1.772   3.157   1.155 -0.0947 -0.3617 -0.3756
  854SOL    HW1 2698   1.810   3.087   1.209  1.9214 -0.6572 -2.0459
  854SOL    HW2 2699   1.745   3.224   1.218  1.7732 -0.8640  1.0585
  855SOL     OW 2700   2.637   2.210   1.122  0.0449  0.6103  0.1732
  855SOL    HW1 2701   2.570   2.167   1.069  0.9683 -0.1321 -0.4354
  855SOL    HW2 2702   2.676   2.274   1.063 -0.5950  1.5592  0.7487
  856SOL     OW 2703   1.720   2.358   0.102  0.4598  0.0056 -0.3094
  856SOL    HW1 2704   1.654   2.347   0.171 -0.9343 -2.0250 -1.8502
  856SOL    HW2 2705   1.725   2.453   0.089 -2.9910  0.2663 -0.8115
  857SOL     OW 2706   0.313   0.914   0.334 -0.9531  0.7005  0.2712
  857SOL    HW1 2707   0.336   0.928   0.242 -1.4987  0.9852  0.1731
  857SOL    HW2 2708   0.352   0.989   0.379 -0.1959  0.2635  0.3593
  858SOL     OW 2709   3.026   1.721   0.795 -0.0738 -0.4559 -0.3008
  858SOL    HW1 2710   3.097   1.686   0.849 -1.3092 -3.1749 -0.2720
  858SOL    HW2 2711   3.028   1.669   0.715 -2.6111 -1.3639  0.1263
  859SOL     OW 2712   2.845   0.788   0.639 -0.2031  0.5855 -0.3252
  859SOL    HW1 2713   2.911   0.720   0.629 -0.6237  0.2280 -0.7111
  859SOL    HW2 2714   2.823   0.812   0.549  0.0111  1.3008 -0.1921
  860SOL     OW 2715   1.485   3.670   3.379  0.4380 -0.1699  0.5798
  860SOL    HW1 2716   1.396   3.696   3.400  0.4015  3.0507 -2.5076
  860SOL    HW2 2717   1.539   3.740   3.416  1.2364 -0.0133 -0.7833
  861SOL     OW 2718   3.114   2.846   1.142 -0.5078  0.2675 -0.5611
  861SOL    HW1 2719   3.173   2.917   1.118 -0.0154 -0.5421 -1.8513
  861SOL    HW2 2720   3.064   2.880   1.216 -0.0535  1.8267 -0.9420
  862SOL     OW 2721   1.463   0.197   0.795 -0.5804 -0.1770  0.6515
  862SOL    HW1 2722   1.370   0.203   0.777 -0.6123 -3.7116 -1.0716
  862SOL    HW2 2723   1.503   0.179   0.710  1.2984 -1.7451  1.7840
  863SOL     OW 2724   0.971   2.740   1.534  0.8140  0.2342 -0.0059
  863SOL    HW1 2725   1.010   2.828   1.530 -0.1806  0.6918 -0.0278
  863SOL    HW2 2726   1.036   2.683   1.495  1.3920  1.0005 -0.1869
  864SOL     OW 2727   3.693   3.442   3.389 -0.5602  0.6484  0.0836
  864SOL    HW1 2728   3.763   3.503   3.366  0.6175 -0.8854 -0.5306
  864SOL    HW2 2729   3.672   3.463   3.480  1.4393  0.4565  0.6264
  865SOL     OW 2730   0.760   2.600   2.914 -0.1723  0.1465 -0.0897
  865SOL    HW1 2731   0.849   2.574   2.936  0.7095  0.6638 -2.6891
  865SOL    HW2 2732   0.730   2.650   2.989  2.4018  1.4797  0.1511
  866SOL     OW 2733   0.248   3.726   2.998 -0.3102 -0.2819 -0.3659
  866SOL    HW1 2734   0.309   3.720   3.071 -0.1096  1.6394 -0.3266
  866SOL    HW2 2735   0.303   3.722   2.920 -0.0341  1.7240 -0.3288
  867SOL     OW 2736   0.284   0.448   1.995  0.1242 -0.2433  0.3599
  867SOL    HW1 2737   0.271   0.531   2.041 -1.4088 -0.0368 -0.3516
  867SOL    HW2 2738   0.237   0.460   1.912 -0.1814 -1.8468  0.2749
  868SOL     OW 2739   1.683   3.383   1.332 -0.3343 -0.2745  0.1539
  868SOL    HW1 2740   1.612   3.329   1.298 -0.7505 -0.3001  1.0213
  868SOL    HW2 2741   1.639   3.449   1.385  0.1012  1.5471 -1.6461
  869SOL     OW 2742   2.011   3.222   2.141 -0.4346  0.3751  0.4007
  869SOL    HW1 2743   1.983   3.225   2.049 -1.4934 -0.1728  0.6854
  869SOL    HW2 2744   1.963   3.148   2.178  0.9488 -0.2104  1.0970
  870SOL     OW 2745   0.434   2.153   0.429  0.1123 -0.6786 -0.3706
  870SOL    HW1 2746   0.434   2.101   0.509  1.0288  0.1664  0.2042
  870SOL    HW2 2747   0.348   2.137   0.390  0.1955 -2.2245  0.0245
  871SOL     OW 2748   0.931   3.051   3.044  0.3649 -0.2730 -0.2820
  871SOL    HW1 2749   0.972   2.996   3.110 -0.5056  0.3810  0.8499
  871SOL    HW2 2750   0.866   2.995   3.003 -0.7161 -0.0529  1.0571
  872SOL     OW 2751   0.410   2.984   1.468 -0.5364  0.1194 -0.1129
  872SOL    HW1 2752   0.321   2.966   1.436 -0.2417  2.0737 -2.2784
  872SOL    HW2 2753   0.449   2.897   1.479 -2.0533 -0.7362 -1.0786
  873SOL     OW 2754   2.533   2.019   0.629 -0.0421 -0.6413  0.0652
  873SOL    HW1 2755   2.446   1.987   0.606 -1.6028  2.0192  1.7691
  873SOL    HW2 2756   2.575   2.036   0.545 -2.3239  0.7826 -0.8800
  874SOL     OW 2757   2.532   1.098   2.318  0.3187  0.0330 -0.3184
  874SOL    HW1 2758   2.591   1.157   2.365  0.1447  0.1759 -0.2792
  874SOL    HW2 2759   2.449   1.144   2.315  0.2847 -0.0432 -0.6307
  875SOL     OW 2760   1.432   0.717   3.232 -0.0861  0.2861  0.4098
  875SOL    HW1 2761   1.456   0.810   3.233  0.3625  0.2220 -0.9884
  875SOL    HW2 2762   1.485   0.678   3.301  2.2558  0.5485 -1.1125
  876SOL     OW 2763   1.056   1.326   2.522 -0.0193  0.2376 -0.2840
  876SOL    HW1 2764   0.991   1.352   2.587  0.6026  0.3703  0.3026
  876SOL    HW2 2765   1.008   1.273   2.459 -1.0031  1.5512 -0.6758
  877SOL     OW 2766   3.171   3.312   2.686 -0.5036  0.0451 -0.3385
  877SOL    HW1 2767   3.197   3.287   2.775 -2.2747  1.1535  0.5571
  877SOL    HW2 2768   3.214   3.396   2.672 -0.0842 -0.2107 -0.6305
  878SOL     OW 2769   2.728   3.158   3.224  0.3936  0.0709 -0.1416
  878SOL    HW1 2770   2.664   3.099   3.263  0.9695 -0.8318 -0.5365
  878SOL    HW2 2771   2.757   3.212   3.298 -1.4680  1.1408 -0.1323
  879SOL     OW 2772   1.542   0.056   2.994 -0.0696 -0.2570  0.1432
  879SOL    HW1 2773   1.502   0.094   2.916 -0.6059 -1.7553 -0.3591
  879SOL    HW2 2774   1.487   0.086   3.066 -0.8593 -0.5722 -0.3088
  880SOL     OW 2775   0.634   0.703   1.373 -0.5938  0.3090  0.5913
  880SOL    HW1 2776   0.676   0.634   1.423  2.0884  1.6067  0.3292
  880SOL    HW2 2777   0.642   0.675   1.281  0.1950  0.7505  0.5098
  881SOL     OW 2778   2.272   1.732   2.049 -0.2157  0.1146 -0.1872
  881SOL    HW1 2779   2.329   1.656   2.038 -0.5884 -0.1730 -0.1652
  881SOL    HW2 2780   2.332   1.806   2.060  0.1476 -0.2273  0.1448
  882SOL     OW 2781   1.655   0.239   2.662 -0.0510  0.0200  0.0098
  882SOL    HW1 2782   1.723   0.278   2.607 -0.3096  0.0063 -0.3260
  882SOL    HW2 2783   1.696   0.161   2.699  1.0503  1.4565  2.0506
  883SOL     OW 2784   2.172   1.450   0.922 -0.0222  0.8970  0.5831
  883SOL    HW1 2785   2.080   1.428   0.906  0.7044 -1.5961 -0.7083
  883SOL    HW2 2786   2.190   1.521   0.861 -0.5880 -0.0231 -0.7093
  884SOL     OW 2787   0.213   2.045   2.942  0.5626 -0.3115  0.6930
  884SOL    HW1 2788   0.231   2.015   2.853 -0.3060 -2.6463  1.2145
  884SOL    HW2 2789   0.185   2.136   2.932 -1.5441 -1.0936 -1.6942
  885SOL     OW 2790   2.506   0.432   1.419  0.3148  0.2170  0.0726
  885SOL    HW1 2791   2.481   0.475   1.337 -0.2169  0.4687  0.3601
  885SOL    HW2 2792   2.441   0.461   1.482  1.4835  1.1109  0.9237
  886SOL     OW 2793   2.571   1.595   2.642  0.4491 -0.2530 -0.0879
  886SOL    HW1 2794   2.501   1.598   2.708  1.7507 -1.9017  1.4887
  886SOL    HW2 2795   2.545   1.524   2.583  0.5255 -0.5072  0.1819
  887SOL     OW 2796   0.311   0.187   0.804 -0.9716  0.1598  0.6033
  887SOL    HW1 2797   0.321   0.098   0.771 -0.9221  0.6851 -0.8425
  887SOL    HW2 2798   0.274   0.176   0.892 -1.6305 -1.2544  0.1715
  888SOL     OW 2799   2.810   2.679   2.408  0.1633 -0.3018 -0.8321
  888SOL    HW1 2800   2.754   2.740   2.457  2.9607 -0.2470  2.7009
  888SOL    HW2 2801   2.853   2.733   2.342  0.7537  1.1059  0.6317
  889SOL     OW 2802   1.405   1.612   3.140  0.4836 -0.0170 -0.5169
  889SOL    HW1 2803   1.454   1.642   3.216  0.7834 -1.9224  0.0919
  889SOL    HW2 2804   1.316   1.643   3.155  0.3533 -1.0261  1.0469
  890SOL     OW 2805   2.387   2.048   1.271  0.2878  0.7303  0.4944
  890SOL    HW1 2806   2.426   1.987   1.332  0.2056  0.2642  0.0865
  890SOL    HW2 2807   2.293   2.041   1.286  0.2201  0.0460 -0.2110
  891SOL     OW 2808   2.505   2.050   3.234 -0.6216  0.1735 -0.4226
  891SOL    HW1 2809   2.416   2.087   3.238  0.3809  2.7185  0.5878
  891SOL    HW2 2810   2.515   2.021   3.144 -2.1027  0.9265 -0.8689
  892SOL     OW 2811   0.406   0.547   0.133  0.1820 -0.4265 -0.3073
  892SOL    HW1 2812   0.397   0.485   0.060 -0.9981 -1.9882  1.1008
  892SOL    HW2 2813   0.494   0.583   0.122 -0.2157 -0.0184 -2.9097
  893SOL     OW 2814   0.240   0.946   2.111 -0.3509  0.7064 -0.4865
  893SOL    HW1 2815   0.154   0.928   2.147 -0.7067  3.2749  0.1876
  893SOL    HW2 2816   0.245   1.042   2.108  2.5830  0.6542 -0.2516
  894SOL     OW 2817   0.651   0.682   0.103  0.7899  0.0433  0.0309
  894SOL    HW1 2818   0.687   0.748   0.044  1.2284  1.1942  1.5415
  894SOL    HW2 2819   0.639   0.727   0.186 -0.7890 -1.2593  0.5788
  895SOL     OW 2820   3.425   1.848   2.039  1.0625 -0.5350  0.1223
  895SOL    HW1 2821   3.512   1.827   2.005  1.2049 -1.3483  0.9560
  895SOL    HW2 2822   3.388   1.763   2.063 -0.5783 -0.3643 -1.6257
  896SOL     OW 2823   1.318   0.561   2.391  0.0480  0.4558 -0.5831
  896SOL    HW1 2824   1.258   0.487   2.396  0.2919  0.0220 -3.0121
  896SOL    HW2 2825   1.266   0.632   2.353  0.2297  1.0775  0.3083
  897SOL     OW 2826   1.615   2.077   3.296 -0.3484 -0.0290  0.6320
  897SOL    HW1 2827   1.554   2.092   3.224  0.1803 -0.3926  0.0963
  897SOL    HW2 2828   1.599   1.987   3.323 -0.3483  0.0155  0.7833
  898SOL     OW 2829   1.694   3.502   2.716  0.1330 -0.1155  0.1235
  898SOL    HW1 2830   1.744   3.584   2.727  1.2996 -0.6643 -0.8720
  898SOL    HW2 2831   1.603   3.530   2.716  0.4476  1.0347  1.0599
  899SOL     OW 2832   2.589   2.830   2.946  0.2380  0.8697  0.1505
  899SOL    HW1 2833   2.556   2.820   2.857  0.9555 -0.4711 -0.0049
  899SOL    HW2 2834   2.512   2.851   2.999 -0.8786 -1.8010 -0.2426
  900SOL     OW 2835   3.299   0.114   0.208  0.2665 -0.1297 -0.2849
  900SOL    HW1 2836   3.286   0.128   0.302 -0.8251 -0.1229 -0.4261
  900SOL    HW2 2837   3.367   0.177   0.184 -0.5239  0.9536  0.2160
  901SOL     OW 2838   3.691   2.290   1.270  0.4318 -0.0579 -0.1591
  901SOL    HW1 2839   3.618   2.254   1.320 -0.7966  0.3040 -1.6157
  901SOL    HW2 2840   3.753   2.218   1.261  1.7175  0.3496  3.5170
  902SOL     OW 2841   1.566   0.792   0.736 -0.5024  0.7986 -0.3985
  902SOL    HW1 2842   1.586   0.700   0.722  1.7226  0.9926  1.0486
  902SOL    HW2 2843   1.485   0.806   0.687 -0.7396 -1.8195 -0.9201
  903SOL     OW 2844   0.854   2.708   1.235 -0.4019  0.7551  0.2543
  903SOL    HW1 2845   0.875   2.771   1.304  0.9963 -0.4673  1.0000
  903SOL    HW2 2846   0.762   2.688   1.249  0.1211 -0.3670  2.5886
  904SOL     OW 2847   3.283   2.119   2.292 -0.4521 -0.0133 -0.4633
  904SOL    HW1 2848   3.251   2.201   2.256 -0.4940 -0.2879 -1.0763
  904SOL    HW2 2849   3.254   2.118   2.383  1.9313  1.9331  0.4243
  905SOL     OW 2850   1.488   0.103   1.115  0.4616  0.6249  0.0557
  905SOL    HW1 2851   1.490   0.127   1.023 -1.3239  2.2324  0.3565
  905SOL    HW2 2852   1.539   0.023   1.121  0.8073  0.6170 -2.2792
  906SOL     OW 2853   0.874   2.565   0.010 -0.0011  0.1402  0.9094
  906SOL    HW1 2854   0.878   2.469   0.015  1.4451 -0.0250 -1.8386
  906SOL    HW2 2855   0.786   2.584  -0.022 -1.0350 -0.0437  3.3638
  907SOL     OW 2856   2.362   0.239   0.264  0.5252 -0.2383  0.3193
  907SOL    HW1 2857   2.362   0.307   0.332 -0.2458 -0.0535  0.1406
  907SOL    HW2 2858   2.320   0.164   0.305  1.0197 -0.4877  0.3847
  908SOL     OW 2859   0.512   2.910   2.277  0.7011  0.2189  0.0731
  908SOL    HW1 2860   0.535   2.891   2.186  0.9443 -2.2511  0.5892
  908SOL    HW2 2861   0.594   2.932   2.319  0.5363  1.7639 -0.3371
  909SOL     OW 2862   0.265   2.175   0.895  0.2812  0.0334 -0.1911
  909SOL    HW1 2863   0.292   2.257   0.853  0.0265  1.9505  3.0398
  909SOL    HW2 2864   0.170   2.182   0.902  0.1622 -0.9645 -0.5471
  910SOL     OW 2865   2.308   1.885   3.027  0.0216  0.3761  0.1923
  910SOL    HW1 2866   2.288   1.979   3.023  3.2694  1.2450  1.2839
  910SOL    HW2 2867   2.401   1.879   3.005  0.3634 -2.3683  1.8601
  911SOL     OW 2868   2.028   3.544   0.704 -0.1279  1.1733  0.0549
  911SOL    HW1 2869   2.009   3.526   0.796 -2.0787  1.8131 -0.1867
  911SOL    HW2 2870   2.074   3.465   0.674 -0.2710  0.5759  1.3299
  912SOL     OW 2871   1.880   0.320   2.479  0.1035 -0.6271  0.2731
  912SOL    HW1 2872   1.956   0.376   2.465 -1.0680  0.3928 -2.7995
  912SOL    HW2 2873   1.913   0.231   2.467  1.3678 -0.4425  2.0978
  913SOL     OW 2874   1.195   1.049   0.349  0.6211 -0.4961 -0.2033
  913SOL    HW1 2875   1.233   1.111   0.411 -1.0220 -0.6532  1.0282
  913SOL    HW2 2876   1.196   0.965   0.394  0.4455 -0.8542 -0.8413
  914SOL     OW 2877   3.110   0.177   2.430  0.3558 -0.2331 -0.0324
  914SOL    HW1 2878   3.181   0.230   2.466 -1.1910  1.1623  1.1317
  914SOL    HW2 2879   3.031   0.227   2.449 -1.0773 -2.3421 -0.0947
  915SOL     OW 2880   0.267   0.341   2.619  0.3908  0.1472  0.2460
  915SOL    HW1 2881   0.322   0.330   2.697 -1.3672  0.6284  1.6027
  915SOL    HW2 2882   0.219   0.259   2.612 -0.3446  0.5611  0.3941
  916SOL     OW 2883   3.409   3.194   2.165 -0.4834  0.4712 -0.4976
  916SOL    HW1 2884   3.342   3.125   2.170 -2.5966  2.3742 -0.9766
  916SOL    HW2 2885   3.482   3.160   2.217 -0.9859 -2.5483 -1.5449
  917SOL     OW 2886   0.088   0.887   3.562 -0.0158  0.1624 -0.1419
  917SOL    HW1 2887   0.004   0.878   3.517  0.1109 -0.2088 -0.3096
  917SOL    HW2 2888   0.069   0.866   3.653  0.2735 -2.0419 -0.5152
  918SOL     OW 2889   1.965   0.785   2.565 -0.9936 -0.1007  0.3936
  918SOL    HW1 2890   1.873   0.781   2.541 -1.4578 -1.6117  2.2501
  918SOL    HW2 2891   1.972   0.860   2.624 -0.5520  1.3676 -1.4325
  919SOL     OW 2892   1.072   0.403   1.773  0.3003 -0.4355 -0.4054
  919SOL    HW1 2893   1.115   0.484   1.743 -0.8452 -0.5074 -2.3992
  919SOL    HW2 2894   1.076   0.409   1.869 -1.0029  2.7087 -0.4210
  920SOL     OW 2895   0.776   1.803   0.432  0.3784 -0.4926  0.1781
  920SOL    HW1 2896   0.715   1.793   0.359  1.0231 -1.2648 -0.2775
  920SOL    HW2 2897   0.831   1.725   0.427  0.0015 -0.9138  1.8996
  921SOL     OW 2898   0.728   1.746   3.274  1.1891  0.3673  0.3140
  921SOL    HW1 2899   0.757   1.778   3.188  2.7035 -0.2691  0.5744
  921SOL    HW2 2900   0.757   1.656   3.278  0.7817  0.2647  1.3596
  922SOL     OW 2901   0.906   2.074   2.373  0.2029 -0.0150 -0.1215
  922SOL    HW1 2902   0.952   2.082   2.289  0.5207  0.4541  0.0945
  922SOL    HW2 2903   0.969   2.107   2.438  0.0223 -0.5274  0.3238
  923SOL     OW 2904   2.872   1.574   1.667  0.0643  0.2317  0.4582
  923SOL    HW1 2905   2.886   1.592   1.574 -1.3740 -0.7348  0.0363
  923SOL    HW2 2906   2.921   1.644   1.712  0.5853  0.8485 -1.0071
  924SOL     OW 2907   0.558   2.330   2.586  0.8723 -0.3261 -0.1536
  924SOL    HW1 2908   0.537   2.405   2.530 -2.1429 -1.0128 -0.0917
  924SOL    HW2 2909   0.556   2.365   2.675  0.5165 -0.2794 -0.1812
  925SOL     OW 2910   2.811   1.592   3.362 -0.4852  0.5422 -0.0980
  925SOL    HW1 2911   2.781   1.536   3.291 -0.4879  0.3023  0.0888
  925SOL    HW2 2912   2.868   1.656   3.320  0.2923 -0.1927 -0.1878
  926SOL     OW 2913   2.844   2.252   1.480 -0.4288  0.2553 -0.1389
  926SOL    HW1 2914   2.878   2.338   1.504 -0.4307  0.1891  0.0978
  926SOL    HW2 2915   2.753   2.268   1.455 -0.5694  0.2488  0.3643
  927SOL     OW 2916   1.337   1.681   0.475 -0.2069  0.2843 -0.0577
  927SOL    HW1 2917   1.412   1.671   0.417 -0.1514  1.5808 -0.2300
  927SOL    HW2 2918   1.269   1.626   0.436  1.0172 -2.0549  0.8504
  928SOL     OW 2919   0.566   0.318   2.723  0.1391  0.4148  0.4272
  928SOL    HW1 2920   0.627   0.288   2.791  0.0225  0.8083  0.7116
  928SOL    HW2 2921   0.560   0.245   2.662 -0.6399 -0.3965  1.4404
  929SOL     OW 2922   2.196   1.725   3.221  0.3904  0.5824 -0.7669
  929SOL    HW1 2923   2.195   1.631   3.200 -1.5611  0.2644  0.4648
  929SOL    HW2 2924   2.223   1.767   3.140 -1.4161 -0.9023 -2.2521
  930SOL     OW 2925   1.797   3.310   0.691 -0.4153  0.3630 -0.3029
  930SOL    HW1 2926   1.892   3.320   0.685 -0.4026  0.3081 -0.2125
  930SOL    HW2 2927   1.763   3.349   0.611 -0.1319 -2.1844 -1.7752
  931SOL     OW 2928   3.316   1.863   0.354 -0.2317  0.6937 -0.0901
  931SOL    HW1 2929   3.342   1.827   0.439  0.1085 -0.3343 -0.6079
  931SOL    HW2 2930   3.326   1.958   0.364 -0.0722  0.5798  0.9696
  932SOL     OW 2931   1.230   2.261   2.416 -0.1843 -0.3931  0.0146
  932SOL    HW1 2932   1.241   2.167   2.402 -1.6519 -0.3662 -1.7948
  932SOL    HW2 2933   1.175   2.268   2.493 -0.3874 -1.0358 -0.0658
  933SOL     OW 2934   2.127   2.914   2.709 -0.1438 -0.6962  0.4626
  933SOL    HW1 2935   2.130   2.905   2.613  0.2697 -1.6020  0.5507
  933SOL    HW2 2936   2.205   2.964   2.731 -0.7236  0.3450  0.2618
  934SOL     OW 2937   2.883   2.730   3.646 -0.1584 -0.0365 -0.5702
  934SOL    HW1 2938   2.972   2.699   3.626 -0.6329 -0.6708 -1.7709
  934SOL    HW2 2939   2.869   2.803   3.587 -1.2343 -1.3508 -2.0339
  935SOL     OW 2940   0.716   3.537   0.394 -0.3320  0.2027  0.2241
  935SOL    HW1 2941   0.811   3.538   0.382 -0.2978  0.8791  0.4690
  935SOL    HW2 2942   0.696   3.625   0.425 -0.7784 -0.5787  2.2954
  936SOL     OW 2943   1.139   1.950   3.289 -0.1026  0.6748 -0.3612
  936SOL    HW1 2944   1.111   2.022   3.232 -0.9964  0.0830 -0.7063
  936SOL    HW2 2945   1.177   1.993   3.365 -2.9425  1.6378  0.6696
  937SOL     OW 2946   3.373   1.372   3.428  0.4133 -0.5701 -0.5354
  937SOL    HW1 2947   3.435   1.426   3.379  0.7577  0.9185  1.4456
  937SOL    HW2 2948   3.422   1.342   3.504 -1.2875  0.8090  1.1945
  938SOL     OW 2949   3.357   2.891   0.895 -0.2876  0.2005 -0.0884
  938SOL    HW1 2950   3.352   2.798   0.918  0.6016 -0.0113 -0.6628
  938SOL    HW2 2951   3.267   2.915   0.873 -0.9351  0.0773  2.1975
  939SOL     OW 2952   1.996   1.516   3.324 -0.0752 -0.0153 -0.4215
  939SOL    HW1 2953   2.027   1.569   3.398 -0.2782 -0.8866  0.2994
  939SOL    HW2 2954   2.046   1.549   3.249 -0.8997  1.8821 -0.2037
  940SOL     OW 2955   0.628   2.275   0.683  0.0118 -0.0420  0.2409
  940SOL    HW1 2956   0.657   2.196   0.637 -1.7408 -0.3579 -0.3761
  940SOL    HW2 2957   0.664   2.265   0.771  1.6468 -0.4553 -0.4348
  941SOL     OW 2958   1.674   0.761   2.950  0.8283  0.2112  0.3875
  941SOL    HW1 2959   1.731   0.716   3.013 -0.6392 -2.4746 -0.0376
  941SOL    HW2 2960   1.630   0.690   2.904 -0.3935  2.1532 -1.5958
  942SOL     OW 2961   0.111   0.065   3.241  0.2526  0.2417  0.2609
  942SOL    HW1 2962   0.029   0.110   3.262  0.9352  1.2066  0.9768
  942SOL    HW2 2963   0.124   0.081   3.148 -0.1506  0.4624  0.2370
  943SOL     OW 2964   1.553   3.542   1.495 -0.8126  0.0331  0.5136
  943SOL    HW1 2965   1.612   3.582   1.559 -1.2245  0.9540  0.3382
  943SOL    HW2 2966   1.468   3.583   1.512 -0.8370  0.6127 -0.8885
  944SOL     OW 2967   1.533   2.114   0.308  0.0451 -0.0997 -0.5092
  944SOL    HW1 2968   1.453   2.064   0.323 -0.0529  0.2129  0.0392
  944SOL    HW2 2969   1.593   2.085   0.377  0.3051 -0.1166 -0.7382
  945SOL     OW 2970   1.614   3.152   2.136 -0.2060  0.5900  0.2100
  945SOL    HW1 2971   1.639   3.113   2.053  2.3256 -1.2951  1.7133
  945SOL    HW2 2972   1.521   3.172   2.127 -0.4341 -1.2551 -2.4147
  946SOL     OW 2973   2.543   0.551   0.758 -0.5894 -0.2367  1.6745
  946SOL    HW1 2974   2.603   0.518   0.690 -1.5960  2.3173 -0.6190
  946SOL    HW2 2975   2.456   0.524   0.729 -1.2085  2.3437  0.9206
  947SOL     OW 2976   1.360   2.952   3.623 -0.0204 -0.3963 -0.4416
  947SOL    HW1 2977   1.274   2.976   3.658 -0.5304 -1.7465 -0.6860
  947SOL    HW2 2978   1.400   3.035   3.597 -1.1208  0.2844 -0.0249
  948SOL     OW 2979   2.849   1.241   3.441 -0.1278 -0.1697  0.0554
  948SOL    HW1 2980   2.876   1.283   3.360 -0.6080 -2.9191 -1.6447
  948SOL    HW2 2981   2.920   1.260   3.503  0.9439  0.8187 -1.4127
  949SOL     OW 2982   1.461   1.936   1.868  0.2643 -0.6422 -0.1116
  949SOL    HW1 2983   1.477   1.894   1.953  1.9101  0.7598  0.3073
  949SOL    HW2 2984   1.438   2.026   1.890 -2.3379 -0.9747 -1.0563
  950SOL     OW 2985   1.360   0.950   0.124  0.0689 -0.3105  0.0778
  950SOL    HW1 2986   1.305   1.015   0.168  0.2157 -1.0575  1.4263
  950SOL    HW2 2987   1.297   0.886   0.089 -0.0370  0.1602 -0.6031
  951SOL     OW 2988   3.085   3.693   2.619 -0.0700 -0.0347  0.2825
  951SOL    HW1 2989   3.093   3.749   2.542 -2.4366 -0.9972 -0.7581
  951SOL    HW2 2990   3.122   3.610   2.592 -0.8213 -0.3464  0.1822
  952SOL     OW 2991   1.716   3.179   3.632 -0.4466 -0.3149 -0.1716
  952SOL    HW1 2992   1.781   3.161   3.699  0.0417  0.9779 -0.2746
  952SOL    HW2 2993   1.720   3.274   3.619 -1.4370 -0.3802 -1.1065
  953SOL     OW 2994   0.549   0.827   3.576 -0.3817  0.3144 -0.1962
  953SOL    HW1 2995   0.644   0.841   3.574 -0.1896 -0.1927  2.5732
  953SOL    HW2 2996   0.537   0.744   3.530  0.3435  0.9205 -1.5589
  954SOL     OW 2997   0.486   2.723   1.547  0.2398 -0.2791 -0.1690
  954SOL    HW1 2998   0.399   2.741   1.581  0.6285  0.1255  0.6461
  954SOL    HW2 2999   0.491   2.627   1.542  0.0467 -0.3295  0.5688
  955SOL     OW 3000   0.760   2.731   2.517 -0.2243  0.6964  0.2658
  955SOL    HW1 3001   0.830   2.698   2.573  1.4018  3.4398  0.0449
  955SOL    HW2 3002   0.801   2.740   2.431 -1.7387 -0.3215 -0.6210
  956SOL     OW 3003   0.279   1.311   3.641  0.1900  0.3441 -0.0049
  956SOL    HW1 3004   0.290   1.387   3.698  0.4599  1.6993 -1.7754
  956SOL    HW2 3005   0.269   1.348   3.553 -1.4886 -1.5949 -0.7077
  957SOL     OW 3006   1.667   0.095   1.720 -0.2931 -0.7246  0.0712
  957SOL    HW1 3007   1.695   0.057   1.637 -2.0881 -1.0799 -0.4041
  957SOL    HW2 3008   1.626   0.178   1.697  2.0669  0.7928  0.9524
  958SOL     OW 3009   1.999   1.408   1.641  0.0966  0.0529  0.1423
  958SOL    HW1 3010   1.940   1.338   1.668 -0.0388 -0.1459 -0.6222
  958SOL    HW2 3011   2.072   1.363   1.598  1.0890  0.2639  1.5524
  959SOL     OW 3012   1.280   1.260   3.271 -0.2442  0.2779 -0.2620
  959SOL    HW1 3013   1.374   1.281   3.268 -0.2265  0.2014 -0.2523
  959SOL    HW2 3014   1.253   1.258   3.179 -0.4525  1.2585 -0.2274
  960SOL     OW 3015   1.332   0.624   2.773  0.0561  0.1984 -1.0007
  960SOL    HW1 3016   1.357   0.690   2.708  0.6259  0.3962 -0.5875
  960SOL    HW2 3017   1.406   0.564   2.776  1.1506  1.5172  1.1959
  961SOL     OW 3018   3.157   0.497   0.331  1.0175 -0.4716  0.4500
  961SOL    HW1 3019   3.222   0.543   0.277  0.2647 -0.6857 -0.6737
  961SOL    HW2 3020   3.184   0.405   0.328  1.2705 -0.4152  0.8832
  962SOL     OW 3021   3.512   0.261   0.107  0.0728  0.3214 -0.4464
  962SOL    HW1 3022   3.581   0.289   0.168 -0.1086 -1.3438  0.5814
  962SOL    HW2 3023   3.554   0.193   0.054 -0.4111  0.2388 -0.7243
  963SOL     OW 3024   2.390   3.259   1.220 -0.1582  0.7345  0.2533
  963SOL    HW1 3025   2.473   3.250   1.174 -0.0967 -2.5387  0.7987
  963SOL    HW2 3026   2.413   3.300   1.303  0.9438 -0.1418  0.4030
  964SOL     OW 3027   1.516   0.991   2.971  0.2089  0.2353  0.6745
  964SOL    HW1 3028   1.511   1.026   2.882 -1.7934  0.2775  0.7586
  964SOL    HW2 3029   1.572   0.913   2.963 -0.5863 -0.2310 -0.8100
  965SOL     OW 3030   1.744   1.594   2.131 -1.1873 -0.1223 -0.3798
  965SOL    HW1 3031   1.724   1.547   2.212 -0.8844  0.2596 -0.0788
  965SOL    HW2 3032   1.729   1.686   2.152  1.4887  0.2780  0.0920
  966SOL     OW 3033   3.728   1.859   1.236  0.2839 -0.2156  0.0020
  966SOL    HW1 3034   3.646   1.895   1.270  0.4577 -0.2687  0.4753
  966SOL    HW2 3035   3.724   1.766   1.256 -0.6344 -0.6975 -2.1366
  967SOL     OW 3036   2.411   3.682   3.323  0.0063 -0.2534 -0.1335
  967SOL    HW1 3037   2.487   3.719   3.279 -0.6258 -0.2941 -1.2947
  967SOL    HW2 3038   2.417   3.588   3.305  0.8889 -0.5841  1.6870
  968SOL     OW 3039   1.358   1.606   1.053  0.3374 -0.0453 -0.4434
  968SOL    HW1 3040   1.440   1.558   1.045  0.4836  0.5356 -3.8075
  968SOL    HW2 3041   1.292   1.549   1.014 -0.1190  1.0040 -1.2762
  969SOL     OW 3042   2.784   2.865   0.421  0.3946  0.2049 -0.6887
  969SOL    HW1 3043   2.737   2.795   0.467  0.4289  0.7979  0.2649
  969SOL    HW2 3044   2.730   2.943   0.435  1.2644  0.7328 -0.2490
  970SOL     OW 3045   0.926   3.200   2.797 -0.0730  0.5218 -0.5123
  970SOL    HW1 3046   0.984   3.165   2.730 -2.2625  0.9092 -2.7730
  970SOL    HW2 3047   0.924   3.133   2.865  2.4005  0.2010 -0.6949
  971SOL     OW 3048   1.489   0.301   0.275 -0.0828 -0.1330  0.0571
  971SOL    HW1 3049   1.460   0.348   0.354 -0.4928  2.5956 -1.5838
  971SOL    HW2 3050   1.578   0.272   0.296  0.1402  1.2476  1.2557
  972SOL     OW 3051   1.330   2.795   0.565 -0.3451 -0.0304  0.1614
  972SOL    HW1 3052   1.324   2.887   0.541  1.1986 -0.4039 -1.8806
  972SOL    HW2 3053   1.393   2.793   0.637  1.5142  0.3285 -1.3840
  973SOL     OW 3054   2.572   2.785   3.342 -0.6502  0.2337  0.3720
  973SOL    HW1 3055   2.569   2.769   3.437  0.6950 -0.2864  0.3455
  973SOL    HW2 3056   2.660   2.820   3.327 -1.3773  1.7824 -0.4884
  974SOL     OW 3057   2.735   0.662   3.330 -0.5185 -0.3363 -0.1400
  974SOL    HW1 3058   2.681   0.740   3.324  0.5557  0.4719  0.4652
  974SOL    HW2 3059   2.747   0.647   3.424 -1.9300 -2.1138 -0.1941
  975SOL     OW 3060   2.066   0.369   0.397 -0.4519 -0.2253 -0.4757
  975SOL    HW1 3061   2.002   0.378   0.326  1.7216  2.1301 -2.2985
  975SOL    HW2 3062   2.142   0.327   0.356  0.4098  0.0484  0.7743
  976SOL     OW 3063   3.214   1.986   1.817  0.2374  0.1500 -0.4570
  976SOL    HW1 3064   3.218   2.033   1.900 -0.7707 -2.9228  1.5289
  976SOL    HW2 3065   3.169   2.046   1.757  1.7660  2.7933  0.8927
  977SOL     OW 3066   3.658   0.015   2.247 -0.3726 -0.4321  0.1337
  977SOL    HW1 3067   3.688   0.106   2.245  0.0294 -0.5601  0.2449
  977SOL    HW2 3068   3.733  -0.035   2.215  0.4815 -1.0276  2.8285
  978SOL     OW 3069   0.435   2.667   3.183 -0.6873  0.6660  0.0401
  978SOL    HW1 3070   0.493   2.743   3.185  0.2882 -0.0693  1.0024
  978SOL    HW2 3071   0.493   2.592   3.196 -1.6995 -0.2028 -0.2755
  979SOL     OW 3072   3.277   1.605   0.892 -0.3244 -0.2773 -0.3629
  979SOL    HW1 3073   3.321   1.653   0.963  0.0168 -1.1429  0.0350
  979SOL    HW2 3074   3.344   1.594   0.825 -0.9267  1.4149 -1.2822
  980SOL     OW 3075   3.388   2.421   0.332 -0.1466 -0.4632  0.1547
  980SOL    HW1 3076   3.465   2.474   0.352 -0.3697  0.4669 -1.2587
  980SOL    HW2 3077   3.421   2.331   0.328  1.4114  0.1225 -2.6935
  981SOL     OW 3078   3.440   1.011   1.477  0.0478  0.4966 -0.0445
  981SOL    HW1 3079   3.441   0.918   1.499 -0.7387  0.4459 -0.2115
  981SOL    HW2 3080   3.458   1.055   1.560  2.5987  0.1644 -0.3261
  982SOL     OW 3081   1.053  -0.008   0.141  0.2352 -0.1868  0.3366
  982SOL    HW1 3082   1.066   0.087   0.140  0.4802 -0.2194  0.3795
  982SOL    HW2 3083   0.995  -0.025   0.067  0.0397  0.0168  0.4396
  983SOL     OW 3084   2.045   0.707   2.872  0.7974  0.3881  0.2893
  983SOL    HW1 3085   2.115   0.682   2.811  0.2445  0.5011 -0.4107
  983SOL    HW2 3086   2.072   0.670   2.956 -0.3812 -3.5237 -0.8015
  984SOL     OW 3087   0.420   0.495   1.638  0.5741 -0.4104  0.5818
  984SOL    HW1 3088   0.465   0.554   1.577  1.1408 -2.0316 -0.6548
  984SOL    HW2 3089   0.490   0.450   1.685  0.3171 -2.1727 -0.5929
  985SOL     OW 3090   1.033   1.510   0.784  0.6782 -0.5217 -0.6320
  985SOL    HW1 3091   0.945   1.546   0.798  1.1861  0.8508 -0.9091
  985SOL    HW2 3092   1.075   1.571   0.724  2.6173  0.0868  1.2311
  986SOL     OW 3093   3.714   2.845   3.639  0.4590  0.4791  0.2039
  986SOL    HW1 3094   3.720   2.780   3.568  2.5339  0.2998  0.4832
  986SOL    HW2 3095   3.701   2.928   3.594 -1.0677  0.0694 -0.2075
  987SOL     OW 3096   2.304   0.094   2.182  0.0144 -0.0057  0.2779
  987SOL    HW1 3097   2.383   0.148   2.195  0.3156 -0.6372  1.1678
  987SOL    HW2 3098   2.284   0.104   2.089  0.6522  0.8395  0.2135
  988SOL     OW 3099   2.459   2.362   1.977 -0.4137  0.2269  0.6417
  988SOL    HW1 3100   2.396   2.298   1.944 -1.3051  1.7661 -0.7887
  988SOL    HW2 3101   2.517   2.379   1.902 -0.2801  1.1646  0.9433
  989SOL     OW 3102   3.648   0.842   2.722  0.5434 -0.0901  0.3372
  989SOL    HW1 3103   3.576   0.846   2.658  0.8943 -1.7313 -0.2089
  989SOL    HW2 3104   3.688   0.930   2.719 -0.2554  0.2596 -0.7381
  990SOL     OW 3105   2.955   2.169   3.224  0.1731 -0.3133 -0.0151
  990SOL    HW1 3106   2.888   2.160   3.292  0.0119  1.2239  0.0700
  990SOL    HW2 3107   2.913   2.135   3.145  0.6436 -2.8848  0.7458
  991SOL     OW 3108   3.179   0.933   2.688 -0.1087 -0.0618 -0.2989
  991SOL    HW1 3109   3.246   0.891   2.742  0.4929 -0.2400 -1.1643
  991SOL    HW2 3110   3.099   0.925   2.739 -0.1743 -2.8219 -0.6387
  992SOL     OW 3111   1.864   0.292   1.722 -0.5914 -0.2183 -1.0464
  992SOL    HW1 3112   1.813   0.211   1.728  1.4118 -1.5622 -1.1817
  992SOL    HW2 3113   1.913   0.296   1.804 -1.7085  1.6758 -0.4015
  993SOL     OW 3114   1.536   1.262   0.603  0.0372  0.1624 -0.6090
  993SOL    HW1 3115   1.610   1.246   0.662 -0.2288 -1.5915 -0.6839
  993SOL    HW2 3116   1.545   1.354   0.578  3.1293 -0.3541 -1.8894
  994SOL     OW 3117   3.502   0.070   0.453 -0.4150  0.2006 -0.4000
  994SOL    HW1 3118   3.590   0.100   0.478 -0.7521  1.8386 -1.0859
  994SOL    HW2 3119   3.518   0.008   0.382  0.2929 -1.2514  0.9690
  995SOL     OW 3120   2.545   3.462   3.224 -0.0491 -0.3800 -0.2367
  995SOL    HW1 3121   2.561   3.454   3.130  1.5158 -0.1344 -0.0119
  995SOL    HW2 3122   2.474   3.401   3.241 -0.6491 -0.1232 -1.6462
  996SOL     OW 3123   1.194   1.440   2.289 -0.3888  0.2491  0.0167
  996SOL    HW1 3124   1.164   1.444   2.380 -0.4222  0.6689 -0.0092
  996SOL    HW2 3125   1.221   1.349   2.276 -0.6925  0.1117  0.3468
  997SOL     OW 3126   0.664   2.313   0.366 -0.0965  0.8494 -0.4754
  997SOL    HW1 3127   0.592   2.283   0.421 -0.1907  2.7174  0.5297
  997SOL    HW2 3128   0.630   2.310   0.277 -1.0878  0.7802 -0.1079
  998SOL     OW 3129   2.741   2.975   3.515 -0.4047  0.1947  0.7478
  998SOL    HW1 3130   2.709   3.012   3.597  0.8190  1.0461  0.8697
  998SOL    HW2 3131   2.756   3.051   3.459 -2.4503 -0.4313 -0.7830
  999SOL     OW 3132   0.692   0.128   1.650  0.3862  0.1521  0.6744
  999SOL    HW1 3133   0.733   0.094   1.729 -0.2464  0.5862  1.2040
  999SOL    HW2 3134   0.624   0.063   1.629  0.3382  0.2010  0.6780
 1000SOL     OW 3135   3.717   3.433   0.279 -0.0386  0.0533  0.3011
 1000SOL    HW1 3136   3.652   3.503   0.272 -1.6195 -1.0705  2.5631
 1000SOL    HW2 3137   3.685   3.364   0.222 -2.1764 -1.3594  2.9854
 1001SOL     OW 3138   3.546   1.814   0.974  0.0676 -0.0538 -0.5424
 1001SOL    HW1 3139   3.634   1.813   1.013 -0.2725  0.2843  0.2588
 1001SOL    HW2 3140   3.547   1.742   0.910  1.1534  0.4069 -1.0668
 1002SOL     OW 3141   0.360   1.875   2.302 -0.6285 -0.2687  0.2603
 1002SOL    HW1 3142   0.383   1.949   2.359 -2.4655 -0.8111  1.8280
 1002SOL    HW2 3143   0.414   1.803   2.334  0.7108  0.1975 -0.8648
 1003SOL     OW 3144   1.767   0.505   3.031  0.0163 -0.2704  0.1978
 1003SOL    HW1 3145   1.852   0.473   3.002  0.8028  3.1982 -2.0384
 1003SOL    HW2 3146   1.784   0.542   3.118  0.3038 -1.2338  0.5644
 1004SOL     OW 3147   1.591   0.266   1.328  0.0035 -0.2379 -0.1154
 1004SOL    HW1 3148   1.662   0.301   1.275  0.6066 -1.3602 -0.0984
 1004SOL    HW2 3149   1.541   0.210   1.267  0.2873 -0.9739  0.3114
 1005SOL     OW 3150   1.483   2.794   0.781 -0.1784 -0.4669  0.0973
 1005SOL    HW1 3151   1.556   2.775   0.722  0.4491 -0.8053  0.9484
 1005SOL    HW2 3152   1.464   2.887   0.768  1.4772  0.0382  0.9871
 1006SOL     OW 3153   0.515   3.088   0.689  0.2026  0.3547 -0.2164
 1006SOL    HW1 3154   0.556   3.171   0.714  2.5370 -0.4207 -1.1320
 1006SOL    HW2 3155   0.425   3.110   0.669  0.5796  2.5326  0.2579
 1007SOL     OW 3156   1.372   0.573   1.517  0.5482 -0.5177  0.3191
 1007SOL    HW1 3157   1.341   0.643   1.575  2.5517  0.0717  0.7459
 1007SOL    HW2 3158   1.300   0.509   1.517 -1.1996  1.3307  0.1995
 1008SOL     OW 3159   0.346   2.260   2.288 -0.1527  0.1745  0.0740
 1008SOL    HW1 3160   0.286   2.209   2.234 -0.0358 -0.7705  0.8241
 1008SOL    HW2 3161   0.386   2.197   2.347  0.5501  1.0180  0.5287
 1009SOL     OW 3162   2.552   2.612   1.472 -0.3743 -0.1229 -0.2656
 1009SOL    HW1 3163   2.563   2.518   1.463  1.7311  0.0851 -0.3261
 1009SOL    HW2 3164   2.628   2.650   1.426  0.4336  1.5099  2.2213
 1010SOL     OW 3165   2.952   2.861   1.784  0.1472  0.4921 -0.8732
 1010SOL    HW1 3166   2.977   2.770   1.770 -0.5967  0.4370 -2.0419
 1010SOL    HW2 3167   2.870   2.856   1.834  0.4745  0.5472 -0.3276
 1011SOL     OW 3168   0.728   1.293   1.756 -0.1748 -0.6899 -0.3027
 1011SOL    HW1 3169   0.710   1.338   1.839 -0.2644  2.1962 -1.7681
 1011SOL    HW2 3170   0.651   1.237   1.742 -0.2876 -1.0105  1.3709
 1012SOL     OW 3171   3.650   1.478   2.108 -0.2991 -0.2877  0.0938
 1012SOL    HW1 3172   3.710   1.411   2.140  0.0290  0.1963  0.5246
 1012SOL    HW2 3173   3.620   1.523   2.187  0.9933  1.3252 -0.2553
 1013SOL     OW 3174   3.305   1.100   3.064 -0.5134  0.1540  0.1622
 1013SOL    HW1 3175   3.385   1.129   3.108  1.3057  1.3270 -3.4640
 1013SOL    HW2 3176   3.336   1.037   2.999 -3.0154 -1.6212  0.5324
 1014SOL     OW 3177   1.882   2.928   1.530  0.8748  0.8209  0.1027
 1014SOL    HW1 3178   1.861   2.855   1.589  2.0886  0.7411  0.4529
 1014SOL    HW2 3179   1.797   2.968   1.511  0.2589 -0.2616  0.4514
 1015SOL     OW 3180   0.563   0.852   2.921  1.1444  0.1467  0.5266
 1015SOL    HW1 3181   0.491   0.893   2.968  0.2646 -0.5320 -0.1976
 1015SOL    HW2 3182   0.550   0.758   2.932  1.2765 -0.0128 -0.5204
 1016SOL     OW 3183   0.472   0.924   3.291  0.0654  0.0950 -0.0635
 1016SOL    HW1 3184   0.559   0.906   3.325  0.1801 -0.8314 -0.7912
 1016SOL    HW2 3185   0.420   0.946   3.368  0.7975  0.0674  0.4479
 1017SOL     OW 3186   1.210   1.064   3.490  0.1061  0.0574  0.4208
 1017SOL    HW1 3187   1.211   1.105   3.403 -0.3558 -1.4212 -0.3314
 1017SOL    HW2 3188   1.194   0.971   3.471  0.2399 -0.3240  2.0878
 1018SOL     OW 3189   2.276   0.991   3.025 -0.2193  0.1417 -0.0479
 1018SOL    HW1 3190   2.341   0.924   3.005 -1.6632 -0.9572 -1.2986
 1018SOL    HW2 3191   2.325   1.060   3.071  1.5756 -1.1196  0.0076
 1019SOL     OW 3192   3.639   0.022   3.723 -0.2137 -0.1660  0.3733
 1019SOL    HW1 3193   3.685  -0.061   3.711 -1.1966 -0.5510 -0.8935
 1019SOL    HW2 3194   3.688   0.084   3.668  0.7860  0.2308  1.6601
 1020SOL     OW 3195   1.780   1.838   3.514  0.7629  0.5239 -0.0585
 1020SOL    HW1 3196   1.826   1.827   3.597 -1.0686  1.3760  1.1300
 1020SOL    HW2 3197   1.839   1.893   3.462  2.3995 -0.8649  0.2299
 1021SOL     OW 3198   2.546   0.170   0.569  0.4773  0.0630 -0.6792
 1021SOL    HW1 3199   2.579   0.134   0.652  0.0158 -1.7913 -1.2538
 1021SOL    HW2 3200   2.611   0.235   0.543  1.4026 -0.4147  0.3735
 1022SOL     OW 3201   1.355   2.489   0.475 -0.1244 -0.3083 -0.0794
 1022SOL    HW1 3202   1.328   2.580   0.490  0.4152 -0.0309 -0.7728
 1022SOL    HW2 3203   1.377   2.456   0.563  0.7576  0.5825  0.0542
 1023SOL     OW 3204   2.870   2.771   2.959 -0.0306  0.1356 -0.4350
 1023SOL    HW1 3205   2.784   2.801   2.930  0.6449  0.6247 -2.0396
 1023SOL    HW2 3206   2.892   2.699   2.900 -0.1377 -1.2866  1.1911
 1024SOL     OW 3207   0.584   2.111   3.152  0.0311 -0.2907 -0.4902
 1024SOL    HW1 3208   0.514   2.061   3.194  0.0120 -1.1899 -1.5300
 1024SOL    HW2 3209   0.658   2.104   3.212 -0.2376 -0.8664 -0.2153
 1025SOL     OW 3210   3.165   3.683   2.276  0.3248  0.0774 -0.2726
 1025SOL    HW1 3211   3.149   3.777   2.288  1.2917  0.1024  1.1111
 1025SOL    HW2 3212   3.260   3.675   2.279  0.3554 -0.7333 -2.3577
 1026SOL     OW 3213   2.442   3.304   3.544  0.3810 -0.7951 -0.1906
 1026SOL    HW1 3214   2.534   3.302   3.572  0.0217 -2.1988  1.0246
 1026SOL    HW2 3215   2.393   3.327   3.622 -0.2721  1.1461 -1.0984
 1027SOL     OW 3216   1.525   2.402   0.291  0.2562  0.2340  0.3200
 1027SOL    HW1 3217   1.523   2.306   0.295 -2.6205  0.1463 -0.9887
 1027SOL    HW2 3218   1.452   2.430   0.346  0.1897  1.5960 -0.4215
 1028SOL     OW 3219   0.742   0.463   1.506  0.2216  0.3864  0.0339
 1028SOL    HW1 3220   0.740   0.390   1.567 -0.7244  1.0189  0.7826
 1028SOL    HW2 3221   0.756   0.422   1.420 -1.3295 -0.7620  0.3004
 1029SOL     OW 3222   0.409   3.717   2.106 -0.5203 -0.1159  0.1139
 1029SOL    HW1 3223   0.422   3.802   2.063 -0.6647 -0.5656 -0.8456
 1029SOL    HW2 3224   0.435   3.652   2.040  0.8524 -0.8124  1.2688
 1030SOL     OW 3225   0.154   2.229   1.535 -0.1886 -0.0919 -0.1023
 1030SOL    HW1 3226   0.183   2.288   1.605  2.4405 -0.4642 -0.7785
 1030SOL    HW2 3227   0.154   2.283   1.456 -0.7839 -0.2708 -0.2329
 1031SOL     OW 3228   1.958   3.091   3.102 -0.2565  0.0350 -0.1015
 1031SOL    HW1 3229   2.047   3.125   3.116 -1.0730  1.1014  3.8498
 1031SOL    HW2 3230   1.936   3.116   3.013  3.8260 -1.5341 -1.8068
 1032SOL     OW 3231   1.195   0.294   0.805  0.2154 -0.6924  0.1399
 1032SOL    HW1 3232   1.153   0.262   0.884 -1.1355 -0.1341 -0.3284
 1032SOL    HW2 3233   1.144   0.371   0.780  0.3334 -1.1231 -1.5371
 1033SOL     OW 3234   0.482   1.630   0.604 -0.1955 -0.1614 -0.0735
 1033SOL    HW1 3235   0.411   1.618   0.540 -0.1468  1.2017 -0.4020
 1033SOL    HW2 3236   0.446   1.594   0.685 -0.2956 -1.8245 -0.8138
 1034SOL     OW 3237   0.578   1.345   3.132 -0.1018 -0.2451  0.0214
 1034SOL    HW1 3238   0.587   1.303   3.218 -0.5383  0.0362  0.2060
 1034SOL    HW2 3239   0.663   1.330   3.090  0.0169 -0.6426  0.3831
 1035SOL     OW 3240   1.040   1.374   1.202 -0.3917 -0.3025  0.0737
 1035SOL    HW1 3241   1.103   1.340   1.138 -1.0165 -0.4741 -0.4675
 1035SOL    HW2 3242   1.023   1.464   1.173 -0.1983 -0.1610  0.3834
 1036SOL     OW 3243   2.470   1.210   3.184  0.2936 -0.1056  0.4986
 1036SOL    HW1 3244   2.547   1.165   3.149  0.5257 -0.3838  1.3533
 1036SOL    HW2 3245   2.470   1.295   3.140  2.0543  0.5851  1.7152
 1037SOL     OW 3246   2.245   0.024   0.375 -0.2693  0.0299 -0.1630
 1037SOL    HW1 3247   2.271  -0.046   0.435  0.6823  0.4536 -0.0590
 1037SOL    HW2 3248   2.151   0.034   0.389 -0.0654  0.1197  1.2852
 1038SOL     OW 3249   3.408   2.043   2.922  0.7697 -0.3030  0.4418
 1038SOL    HW1 3250   3.361   2.125   2.904 -0.2688 -0.4417  2.2422
 1038SOL    HW2 3251   3.499   2.062   2.901  0.3232  0.8546 -0.5422
 1039SOL     OW 3252   3.478   2.770   2.249 -0.8499  0.8155 -0.1146
 1039SOL    HW1 3253   3.558   2.822   2.241  0.1622 -0.6651 -0.1818
 1039SOL    HW2 3254   3.420   2.823   2.302  1.2758  0.7573  2.5064
 1040SOL     OW 3255   3.365   2.594   0.684 -0.4852 -0.0153 -0.8117
 1040SOL    HW1 3256   3.341   2.599   0.777  0.5073  0.2234 -0.5567
 1040SOL    HW2 3257   3.306   2.656   0.641  0.0192  0.9818 -0.1164
 1041SOL     OW 3258   0.072   1.159   1.463  0.2955  0.0374 -0.2998
 1041SOL    HW1 3259   0.147   1.112   1.500 -0.4223 -0.6833  0.2769
 1041SOL    HW2 3260   0.084   1.250   1.492  0.5931 -0.2033  0.3626
 1042SOL     OW 3261   0.238   3.523   1.593  0.2724  0.1121 -0.1654
 1042SOL    HW1 3262   0.223   3.496   1.684  2.2249  1.2333  0.5652
 1042SOL    HW2 3263   0.192   3.458   1.540  0.0620 -1.2540  1.6124
 1043SOL     OW 3264   0.170   0.788   0.647 -0.3063  0.4040  0.1594
 1043SOL    HW1 3265   0.109   0.715   0.645  0.3023 -0.1087 -1.4690
 1043SOL    HW2 3266   0.123   0.861   0.605  0.1718 -0.0166 -1.1782
 1044SOL     OW 3267   0.057   0.323   0.627 -0.1303 -0.2147 -0.2445
 1044SOL    HW1 3268   0.062   0.227   0.623  0.9687 -0.1430 -1.0863
 1044SOL    HW2 3269   0.120   0.353   0.562  1.2466  1.0933  1.5611
 1045SOL     OW 3270   2.801   2.418   2.363  0.4612 -0.0410 -0.0149
 1045SOL    HW1 3271   2.842   2.363   2.430  1.3330 -1.0433 -1.3252
 1045SOL    HW2 3272   2.829   2.507   2.385 -0.9395 -0.0547  2.1175
 1046SOL     OW 3273   2.480   0.460   2.904 -0.5107 -0.3296 -0.1167
 1046SOL    HW1 3274   2.457   0.370   2.882 -0.8437  0.0800 -1.5570
 1046SOL    HW2 3275   2.560   0.453   2.955  0.6583 -1.3748 -1.9744
 1047SOL     OW 3276   1.366   3.413   0.260 -0.4270 -0.9787  0.9020
 1047SOL    HW1 3277   1.309   3.372   0.326 -2.4783 -1.2063 -0.8939
 1047SOL    HW2 3278   1.305   3.459   0.202  1.5205  1.5272  0.6995
 1048SOL     OW 3279   2.935   0.407   2.559  0.1665 -0.0763  0.2773
 1048SOL    HW1 3280   2.856   0.455   2.586 -0.7997 -1.3822 -0.1118
 1048SOL    HW2 3281   2.957   0.352   2.634  0.4352 -0.0620  0.2097
 1049SOL     OW 3282   3.395   0.188   1.110  0.5569  0.7232 -0.1330
 1049SOL    HW1 3283   3.317   0.135   1.094  1.3329 -0.3883 -0.3705
 1049SOL    HW2 3284   3.366   0.279   1.099 -0.6217  0.3126 -0.5079
 1050SOL     OW 3285   1.821   2.068   2.093  0.4104 -0.1036  0.5057
 1050SOL    HW1 3286   1.829   2.079   2.188  1.7490  0.1308  0.3775
 1050SOL    HW2 3287   1.809   1.973   2.082  1.1955 -0.2566  0.8649
 1051SOL     OW 3288   0.261   2.945   3.320 -0.0546  0.0253  0.3209
 1051SOL    HW1 3289   0.331   2.994   3.362  0.1413 -0.2688  0.3451
 1051SOL    HW2 3290   0.182   2.996   3.336  0.3823  1.2240 -1.1120
 1052SOL     OW 3291   3.487   3.423   2.041  0.0383 -0.5934 -0.0046
 1052SOL    HW1 3292   3.460   3.492   2.102 -0.8660 -1.2633  0.3753
 1052SOL    HW2 3293   3.468   3.341   2.086  1.5805 -1.1191 -0.2446
 1053SOL     OW 3294   2.315   2.153   1.881 -0.0251 -0.1900 -0.6167
 1053SOL    HW1 3295   2.270   2.111   1.807  1.2212 -1.7999 -0.5333
 1053SOL    HW2 3296   2.248   2.163   1.948 -0.5614 -1.3703 -0.9465
 1054SOL     OW 3297   0.879   0.998   2.113 -0.5003 -0.2378 -0.5694
 1054SOL    HW1 3298   0.787   1.016   2.095 -0.1465  0.0060 -2.3572
 1054SOL    HW2 3299   0.922   1.083   2.109  0.0373 -0.5355 -1.4311
 1055SOL     OW 3300   3.459   2.186   3.531  0.0547  0.9367 -0.2054
 1055SOL    HW1 3301   3.417   2.177   3.616  0.2183  3.7027  0.2617
 1055SOL    HW2 3302   3.478   2.279   3.523  1.5691  0.5252 -2.5689
 1056SOL     OW 3303   2.903   0.079   1.537 -0.2589 -0.1271  0.2700
 1056SOL    HW1 3304   2.943   0.129   1.466 -0.4401 -0.2042  0.1133
 1056SOL    HW2 3305   2.810   0.074   1.514 -0.1199 -1.1812 -0.1030
 1057SOL     OW 3306   1.553   2.772   3.314  0.8170 -0.0468  0.1934
 1057SOL    HW1 3307   1.636   2.811   3.286  0.6702  1.4506  1.6729
 1057SOL    HW2 3308   1.535   2.812   3.399 -2.0214  0.6299 -0.5933
 1058SOL     OW 3309   0.514   3.494   3.285  0.3729  0.2527 -0.0595
 1058SOL    HW1 3310   0.549   3.512   3.373 -1.1692 -3.1051  1.3838
 1058SOL    HW2 3311   0.592   3.492   3.229  2.0951 -2.2989  2.1733
 1059SOL     OW 3312   2.342   1.774   1.775 -0.0766  0.1684 -0.4889
 1059SOL    HW1 3313   2.322   1.843   1.712 -0.4050  0.3131 -0.2289
 1059SOL    HW2 3314   2.257   1.748   1.811  0.1389  0.3401  0.1586
 1060SOL     OW 3315   0.157   3.608   0.746  0.0854  0.2525  0.2634
 1060SOL    HW1 3316   0.181   3.583   0.836 -1.8290 -0.0193  0.7408
 1060SOL    HW2 3317   0.087   3.547   0.722 -0.1572  1.0026 -1.0171
 1061SOL     OW 3318   1.729   3.370   2.309 -0.2125 -0.4954 -0.6904
 1061SOL    HW1 3319   1.823   3.385   2.300 -0.1304 -1.2756 -1.2190
 1061SOL    HW2 3320   1.708   3.304   2.242 -1.1969 -0.0866 -0.8046
 1062SOL     OW 3321   2.117   1.410   3.583 -0.2161  0.3535 -0.1669
 1062SOL    HW1 3322   2.032   1.377   3.553 -1.7285  1.9096  2.0471
 1062SOL    HW2 3323   2.122   1.499   3.547  2.2230 -0.8384 -3.2182
 1063SOL     OW 3324   2.148   1.111   2.416  0.6102  0.1136  0.1333
 1063SOL    HW1 3325   2.146   1.030   2.365 -0.1170 -0.2519  0.7427
 1063SOL    HW2 3326   2.217   1.163   2.373  0.9025 -0.7037 -0.4261
 1064SOL     OW 3327   0.598   3.093   2.713  0.0473  0.4549 -0.4928
 1064SOL    HW1 3328   0.573   3.172   2.762  0.3819 -0.1774  0.7367
 1064SOL    HW2 3329   0.693   3.096   2.710  0.1399 -0.5718  0.7445
 1065SOL     OW 3330   3.423   2.409   2.443  0.0037 -0.1877  0.9448
 1065SOL    HW1 3331   3.435   2.481   2.506  0.7863  0.0945  0.4999
 1065SOL    HW2 3332   3.458   2.332   2.488  0.1504 -0.0730  1.0310
 1066SOL     OW 3333   1.999   3.681   2.555  0.2513  0.4223 -0.6595
 1066SOL    HW1 3334   2.075   3.681   2.614  0.4741  0.7421 -0.9373
 1066SOL    HW2 3335   2.038   3.680   2.467 -0.0670  0.5878 -0.8041
 1067SOL     OW 3336   1.224   2.551   3.274 -0.0905 -0.1776 -0.4498
 1067SOL    HW1 3337   1.268   2.618   3.325 -0.1371  0.1774 -0.8742
 1067SOL    HW2 3338   1.254   2.468   3.312 -0.6268  0.0829  0.5833
 1068SOL     OW 3339   1.942   3.206   1.884  1.0734 -0.3955 -0.2408
 1068SOL    HW1 3340   2.008   3.215   1.816  0.0952  1.7427 -1.0140
 1068SOL    HW2 3341   1.877   3.274   1.863 -0.3434 -1.1011  1.6060
 1069SOL     OW 3342   3.401   3.594   0.786 -0.0885 -0.4575 -0.1044
 1069SOL    HW1 3343   3.317   3.575   0.745  0.5106 -0.3355 -1.4399
 1069SOL    HW2 3344   3.399   3.688   0.804  0.1090 -0.2647 -1.0177
 1070SOL     OW 3345   3.114   1.135   1.018 -0.1202 -0.1211  0.6291
 1070SOL    HW1 3346   3.029   1.169   1.048 -0.6503 -0.1175 -0.8222
 1070SOL    HW2 3347   3.127   1.055   1.069 -1.9639 -1.2205 -0.5119
 1071SOL     OW 3348   1.801   1.748   1.918 -0.0264 -0.8195  0.1988
 1071SOL    HW1 3349   1.769   1.698   1.843 -1.9569 -0.9934  1.0523
 1071SOL    HW2 3350   1.806   1.683   1.989  0.7181 -0.4495  0.4885
 1072SOL     OW 3351   2.332   0.676   2.169  0.4027  0.6354 -0.0026
 1072SOL    HW1 3352   2.276   0.703   2.242 -1.8274 -1.1807 -0.9264
 1072SOL    HW2 3353   2.417   0.714   2.189 -1.0850  3.5260  1.5258
 1073SOL     OW 3354   3.042   2.155   1.664  0.0585  0.1720 -0.0263
 1073SOL    HW1 3355   2.979   2.124   1.730 -1.9562  0.5232 -1.6664
 1073SOL    HW2 3356   2.987   2.179   1.589  2.3568 -2.1806 -2.6710
 1074SOL     OW 3357   3.163   2.402   0.506  0.5740  0.1771 -0.4723
 1074SOL    HW1 3358   3.108   2.464   0.457 -1.1502 -0.6789  0.2786
 1074SOL    HW2 3359   3.253   2.424   0.481 -0.0379  2.2425 -1.0739
 1075SOL     OW 3360   3.611   1.580   2.363 -0.6286 -0.6086 -0.7024
 1075SOL    HW1 3361   3.584   1.666   2.393 -1.3554 -0.2288 -2.3440
 1075SOL    HW2 3362   3.578   1.520   2.430 -0.9197  0.2870 -0.0152
 1076SOL     OW 3363   3.381   0.157   0.818  0.5368 -1.0764  0.0742
 1076SOL    HW1 3364   3.364   0.235   0.872 -1.5492 -0.2308 -1.6370
 1076SOL    HW2 3365   3.438   0.189   0.749  1.6664 -1.6999  0.6965
 1077SOL     OW 3366   2.422   3.522   0.658  0.0708 -0.4164  0.7244
 1077SOL    HW1 3367   2.469   3.598   0.625  0.1761  0.2360  2.3122
 1077SOL    HW2 3368   2.466   3.447   0.619  0.3140  0.2994 -0.4177
 1078SOL     OW 3369   3.743   3.480   1.383 -0.0588  0.3834 -0.1985
 1078SOL    HW1 3370   3.671   3.513   1.438  0.9676 -1.8708  2.7649
 1078SOL    HW2 3371   3.743   3.538   1.307 -3.7514  1.6597  0.5579
 1079SOL     OW 3372   2.301   0.317   2.419 -0.3727  0.1706  0.1707
 1079SOL    HW1 3373   2.217   0.313   2.465 -0.7392  0.5752 -0.4400
 1079SOL    HW2 3374   2.277   0.345   2.330  0.3030 -0.6700 -0.2846
 1080SOL     OW 3375   0.169   2.089   0.321 -0.5227 -0.1032  0.9553
 1080SOL    HW1 3376   0.232   2.039   0.270  0.7682  1.3533  1.0486
 1080SOL    HW2 3377   0.124   2.024   0.374  2.1790 -1.0356  2.2533
 1081SOL     OW 3378   0.603   2.874   2.012  0.4251 -0.5953 -0.3970
 1081SOL    HW1 3379   0.669   2.811   2.041 -1.8575 -1.6935  3.0365
 1081SOL    HW2 3380   0.556   2.830   1.942  0.7898 -1.4830 -0.0978
 1082SOL     OW 3381   1.200   0.431   0.409 -0.3033  0.8638 -0.3170
 1082SOL    HW1 3382   1.281   0.480   0.397  0.7820 -0.5827  0.7033
 1082SOL    HW2 3383   1.228   0.348   0.448 -2.1330 -0.2837 -1.3057
 1083SOL     OW 3384   0.253   1.842   2.064  0.2568 -0.4770 -0.7454
 1083SOL    HW1 3385   0.324   1.887   2.018  0.1272  1.4527  0.7904
 1083SOL    HW2 3386   0.278   1.846   2.156 -2.2408  1.1912 -0.0224
 1084SOL     OW 3387   2.542   3.198   2.962 -0.0557 -0.5574 -0.2248
 1084SOL    HW1 3388   2.574   3.114   2.995 -0.3783 -0.4895  0.2670
 1084SOL    HW2 3389   2.600   3.263   3.001 -0.5064 -0.4685  0.3024
 1085SOL     OW 3390   1.010   0.657   2.527 -0.1618  0.1919  0.1488
 1085SOL    HW1 3391   0.961   0.737   2.507  0.7745  0.9165  0.6851
 1085SOL    HW2 3392   1.101   0.685   2.533  0.2634 -1.0365 -0.2891
 1086SOL     OW 3393   2.587   1.741   1.899  0.3219  0.2490  0.1848
 1086SOL    HW1 3394   2.495   1.752   1.876 -0.4020  0.3805  2.7705
 1086SOL    HW2 3395   2.616   1.666   1.847 -1.0600  0.5855 -1.1284
 1087SOL     OW 3396   2.407   3.579   2.992  0.5585 -0.1950  0.5629
 1087SOL    HW1 3397   2.336   3.638   3.020  1.5570  1.9049 -1.0843
 1087SOL    HW2 3398   2.367   3.523   2.925 -0.1408 -0.7813  1.4360
 1088SOL     OW 3399   1.251   2.846   3.330 -0.1715 -0.4990 -0.5255
 1088SOL    HW1 3400   1.294   2.809   3.407 -0.5045  1.0610  0.4491
 1088SOL    HW2 3401   1.306   2.819   3.257 -0.7032 -3.3590  0.0160
 1089SOL     OW 3402   1.986   3.366   0.211 -0.5941  0.4029 -0.2707
 1089SOL    HW1 3403   1.919   3.352   0.277  0.7077 -2.9081  0.5605
 1089SOL    HW2 3404   2.058   3.408   0.259 -1.2697  2.2207 -0.7431
 1090SOL     OW 3405   2.592   3.072   2.687  0.0045 -0.0762 -0.9526
 1090SOL    HW1 3406   2.624   3.077   2.777 -2.2673  0.7470 -0.1101
 1090SOL    HW2 3407   2.593   2.978   2.667  0.1918 -0.3060  0.0683
 1091SOL     OW 3408   3.082   2.313   2.862 -0.3075  0.2566 -0.0427
 1091SOL    HW1 3409   3.114   2.392   2.819  0.2973  0.4271  0.6923
 1091SOL    HW2 3410   3.114   2.320   2.952 -0.1376 -0.8846  0.0024
 1092SOL     OW 3411   2.281   3.260   0.072  0.3236 -0.0253  0.1322
 1092SOL    HW1 3412   2.226   3.328   0.110  1.0655  1.3513 -1.1739
 1092SOL    HW2 3413   2.263   3.183   0.126 -2.9950  0.2779 -0.3078
 1093SOL     OW 3414   2.206   2.414   2.874  0.2043  0.3092  0.4461
 1093SOL    HW1 3415   2.208   2.489   2.814 -0.2948 -0.4911 -0.5913
 1093SOL    HW2 3416   2.298   2.401   2.898  0.4263  0.5913 -0.2149
 1094SOL     OW 3417   3.584   0.800   3.390 -0.2773  0.2117  0.7774
 1094SOL    HW1 3418   3.495   0.796   3.426  0.0001  0.3573  1.5083
 1094SOL    HW2 3419   3.579   0.754   3.306 -1.1578  0.6806  0.5703
 1095SOL     OW 3420   1.792   0.941   2.113 -0.2349 -0.2382  0.6328
 1095SOL    HW1 3421   1.850   0.886   2.059 -0.7611 -0.7971  0.6235
 1095SOL    HW2 3422   1.735   0.985   2.051 -0.8886 -0.9367  0.7287
 1096SOL     OW 3423   2.486   2.344   0.406 -0.0019  0.3971  0.3738
 1096SOL    HW1 3424   2.558   2.283   0.420  0.3964  0.6534 -0.4748
 1096SOL    HW2 3425   2.519   2.405   0.340 -1.3664 -0.1024 -0.8269
 1097SOL     OW 3426   2.188   1.774   2.783 -0.0787 -0.2698 -0.0258
 1097SOL    HW1 3427   2.162   1.789   2.874 -0.9029 -0.2494 -0.2585
 1097SOL    HW2 3428   2.250   1.701   2.788 -1.2274 -1.2625  0.4184
 1098SOL     OW 3429   1.861   1.300   3.474 -0.1638 -0.5279 -0.2813
 1098SOL    HW1 3430   1.901   1.303   3.387 -1.1929  2.0342 -0.7637
 1098SOL    HW2 3431   1.787   1.361   3.468  0.0185  0.0931  2.5158
 1099SOL     OW 3432   0.150   2.711   3.233 -0.6686 -0.8680  0.1313
 1099SOL    HW1 3433   0.173   2.801   3.256 -0.5890  0.1263 -3.2538
 1099SOL    HW2 3434   0.234   2.665   3.229 -0.2900 -0.1217 -1.4399
 1100SOL     OW 3435   0.902   1.940   2.946  0.1012 -0.1623  0.0598
 1100SOL    HW1 3436   0.937   1.859   2.981 -0.8900 -0.8626 -0.5294
 1100SOL    HW2 3437   0.808   1.934   2.958  0.0570  1.2266  0.6646
 1101SOL     OW 3438   0.368   3.003   1.004 -0.8270 -0.2211 -0.0619
 1101SOL    HW1 3439   0.290   3.056   0.987 -0.5632  0.0829 -0.3332
 1101SOL    HW2 3440   0.442   3.061   0.983 -0.3928  0.5884  3.0597
 1102SOL     OW 3441   1.213   0.785   3.409  0.2945  0.1743  0.2970
 1102SOL    HW1 3442   1.168   0.713   3.364 -0.6842 -0.4208  2.1283
 1102SOL    HW2 3443   1.300   0.788   3.369  0.0541 -1.4585 -0.4225
 1103SOL     OW 3444   3.136   2.663   3.541 -0.9854 -0.0823  0.0869
 1103SOL    HW1 3445   3.143   2.727   3.469 -4.2692  0.2954 -0.0223
 1103SOL    HW2 3446   3.210   2.684   3.598 -0.1606  1.7577 -1.5187
 1104SOL     OW 3447   1.702   0.600   0.361 -0.1720  0.1255 -0.9137
 1104SOL    HW1 3448   1.754   0.579   0.283  0.5051 -0.0338 -0.4345
 1104SOL    HW2 3449   1.761   0.580   0.434 -0.3557  1.4411 -0.3854
 1105SOL     OW 3450   2.077   1.568   0.378  0.1390  0.0815  0.0356
 1105SOL    HW1 3451   2.086   1.526   0.463 -0.0430 -0.9640 -0.4458
 1105SOL    HW2 3452   2.132   1.517   0.319 -1.1701 -0.3511 -0.8564
 1106SOL     OW 3453   0.721   0.702   3.271  0.4323  0.7019  0.0788
 1106SOL    HW1 3454   0.787   0.768   3.253  0.2719  0.6216 -0.8688
 1106SOL    HW2 3455   0.750   0.661   3.353  2.7065 -0.7229 -1.3262
 1107SOL     OW 3456   2.223   3.041   2.257  0.1475  0.3700 -0.0813
 1107SOL    HW1 3457   2.129   3.057   2.247 -0.0785 -0.3440  0.8227
 1107SOL    HW2 3458   2.241   3.059   2.349  0.8848  0.3977 -0.2222
 1108SOL     OW 3459   1.413   0.573   0.404  0.7218 -0.5590  0.1444
 1108SOL    HW1 3460   1.504   0.560   0.378  1.3112  1.2457  1.1190
 1108SOL    HW2 3461   1.407   0.667   0.424 -1.5635 -0.4845 -0.6584
 1109SOL     OW 3462   2.894   1.482   1.311  0.1592 -0.3707  0.4478
 1109SOL    HW1 3463   2.903   1.435   1.229 -0.0835  0.2521  0.0537
 1109SOL    HW2 3464   2.963   1.549   1.308 -0.2323  0.0445  0.4697
 1110SOL     OW 3465   3.616   1.147   2.829 -0.2922 -0.6825  0.3524
 1110SOL    HW1 3466   3.660   1.120   2.909  0.3024  1.8083  0.9635
 1110SOL    HW2 3467   3.562   1.222   2.855  0.0754  0.3245 -1.5946
 1111SOL     OW 3468   2.255   0.791   0.568  0.0497 -0.3424 -0.2739
 1111SOL    HW1 3469   2.347   0.805   0.587  0.1324 -0.3891 -0.6331
 1111SOL    HW2 3470   2.216   0.765   0.652  0.3304 -0.1695 -0.0904
 1112SOL     OW 3471   0.198   2.428   2.463 -0.4461 -0.3780  0.1852
 1112SOL    HW1 3472   0.217   2.375   2.386 -1.3999 -1.4336  0.6435
 1112SOL    HW2 3473   0.146   2.501   2.430 -0.8938 -0.8548 -0.1788
 1113SOL     OW 3474   1.652   1.211   1.381  1.0567 -0.3154  0.6807
 1113SOL    HW1 3475   1.701   1.139   1.342  1.3716  0.0737  0.3489
 1113SOL    HW2 3476   1.615   1.174   1.461  1.2352 -0.8353  0.5286
 1114SOL     OW 3477   0.522   1.540   2.945  0.2400  0.0262  0.5908
 1114SOL    HW1 3478   0.532   1.529   3.040 -0.5976  0.1962  0.7113
 1114SOL    HW2 3479   0.553   1.457   2.908 -2.1502 -1.2465  1.2128
 1115SOL     OW 3480   2.714   1.859   3.451  0.4672 -0.3087  0.2977
 1115SOL    HW1 3481   2.801   1.838   3.419  0.6149  0.2946  0.2893
 1115SOL    HW2 3482   2.677   1.916   3.384  0.1483 -0.3809  0.4078
 1116SOL     OW 3483   0.324   2.395   0.537  0.1809 -0.2473 -0.5330
 1116SOL    HW1 3484   0.354   2.313   0.499 -0.0127 -0.5116 -0.1212
 1116SOL    HW2 3485   0.253   2.370   0.596  0.2254  0.1961 -0.2859
 1117SOL     OW 3486   3.461   2.684   1.967 -0.1666 -0.2014 -0.2402
 1117SOL    HW1 3487   3.461   2.723   2.055 -0.3917 -0.2450 -0.2188
 1117SOL    HW2 3488   3.375   2.706   1.932 -0.1951 -0.4569 -0.3287
 1118SOL     OW 3489   2.525   0.879   3.210  0.0644  0.6685 -0.2888
 1118SOL    HW1 3490   2.480   0.959   3.236 -0.4048  0.3262 -0.0334
 1118SOL    HW2 3491   2.609   0.909   3.176 -0.2662  1.2981 -0.5665
 1119SOL     OW 3492   1.490   0.389   0.992 -0.1648  0.2639  0.6641
 1119SOL    HW1 3493   1.459   0.349   0.911 -2.7073 -0.0207  1.6866
 1119SOL    HW2 3494   1.559   0.330   1.023 -1.3772 -1.4156  0.3101
 1120SOL     OW 3495   0.525   3.449   0.758 -0.6236 -0.0011  0.6388
 1120SOL    HW1 3496   0.614   3.452   0.792 -0.1210 -4.5010  0.3387
 1120SOL    HW2 3497   0.469   3.447   0.835 -0.3118  0.5314  0.8826
 1121SOL     OW 3498   1.744   3.316   0.377  0.1823  0.5828 -0.3807
 1121SOL    HW1 3499   1.731   3.321   0.282  0.8885  0.4531 -0.4958
 1121SOL    HW2 3500   1.664   3.352   0.414 -0.2380  0.3355 -1.0218
 1122SOL     OW 3501   2.181   1.920   2.559 -0.4246 -0.2916 -0.6611
 1122SOL    HW1 3502   2.135   2.000   2.586 -1.6286 -1.2210  0.1401
 1122SOL    HW2 3503   2.183   1.866   2.638  0.4112 -1.0529 -1.1837
 1123SOL     OW 3504   2.829   1.858   2.029  0.3280 -0.2695 -0.1479
 1123SOL    HW1 3505   2.769   1.800   1.982  0.2121 -0.9402  0.7936
 1123SOL    HW2 3506   2.810   1.843   2.121 -0.0708  1.6741  0.1361
 1124SOL     OW 3507   2.048   2.886   0.559  0.4396  0.4398  0.5708
 1124SOL    HW1 3508   2.005   2.903   0.643  0.1969  2.8857  0.0218
 1124SOL    HW2 3509   1.981   2.903   0.494  0.6931 -1.2133 -0.1516
 1125SOL     OW 3510   0.351   1.948   3.155 -0.2893  0.6086 -0.3669
 1125SOL    HW1 3511   0.300   1.993   3.223 -1.3831  0.4176 -1.0429
 1125SOL    HW2 3512   0.316   1.982   3.073  0.3779  0.1266 -0.8539
 1126SOL     OW 3513   1.949   1.587   2.988  0.0660  0.2238 -0.1562
 1126SOL    HW1 3514   1.931   1.677   3.017 -1.7021  0.2554 -1.2012
 1126SOL    HW2 3515   1.905   1.580   2.903 -2.9641 -2.6781  1.4531
 1127SOL     OW 3516   0.919   1.565   1.751 -0.4974 -0.1172 -0.2835
 1127SOL    HW1 3517   0.836   1.526   1.724  0.1016 -0.6668 -1.4282
 1127SOL    HW2 3518   0.961   1.498   1.805 -1.6582  0.9511  2.0869
 1128SOL     OW 3519   1.094   1.278   3.052 -0.4204  0.1211 -0.8374
 1128SOL    HW1 3520   1.022   1.341   3.053  0.6879  1.5340  1.7715
 1128SOL    HW2 3521   1.160   1.317   2.995  0.8663  2.2743  1.8866
 1129SOL     OW 3522   1.629   2.565   1.548 -0.2028  0.5480 -0.1724
 1129SOL    HW1 3523   1.571   2.498   1.512 -0.0323 -0.0347  0.6297
 1129SOL    HW2 3524   1.600   2.578   1.638  0.7305  0.4402  0.1588
 1130SOL     OW 3525   1.412   3.336   3.660  0.3202  0.0980  0.6368
 1130SOL    HW1 3526   1.374   3.420   3.685  0.2239  1.3732 -3.1982
 1130SOL    HW2 3527   1.337   3.285   3.628  0.6756 -0.6912  1.0387
 1131SOL     OW 3528   2.895   1.578   3.017  0.1961  0.1563 -0.5542
 1131SOL    HW1 3529   2.982   1.617   3.020  0.7761 -0.7948 -2.8643
 1131SOL    HW2 3530   2.868   1.586   2.925 -0.8841 -2.1736 -0.5157
 1132SOL     OW 3531   2.629   0.067   1.457 -0.2678 -0.3326  0.0015
 1132SOL    HW1 3532   2.561   0.122   1.496 -1.9757 -2.4147  0.0754
 1132SOL    HW2 3533   2.645   0.106   1.371 -0.1419  1.2822  0.7106
 1133SOL     OW 3534   1.495   2.321   1.699  0.1895  0.2003  0.0399
 1133SOL    HW1 3535   1.446   2.282   1.626  0.2099 -0.4413  0.3567
 1133SOL    HW2 3536   1.431   2.377   1.743 -0.0107  0.0636 -0.0749
 1134SOL     OW 3537   2.281   1.085   3.312  0.5921  0.0351 -0.4880
 1134SOL    HW1 3538   2.200   1.125   3.280  1.1251  2.7918  1.2101
 1134SOL    HW2 3539   2.350   1.127   3.261  1.1754  1.4633  1.3544
 1135SOL     OW 3540   1.251   1.970   0.346 -1.0058  0.2817 -0.3083
 1135SOL    HW1 3541   1.302   1.900   0.385 -0.2978  1.5031  1.0654
 1135SOL    HW2 3542   1.161   1.953   0.375 -1.0657 -0.7243 -1.0268
 1136SOL     OW 3543   0.687   2.044   0.585 -0.2467  0.7416 -0.3763
 1136SOL    HW1 3544   0.745   1.968   0.581  0.0860  0.8517  1.3624
 1136SOL    HW2 3545   0.603   2.012   0.553  0.6588  0.5136 -2.6734
 1137SOL     OW 3546   0.356   2.571   2.935 -0.6323 -0.4493 -0.1902
 1137SOL    HW1 3547   0.393   2.548   3.020 -1.6457 -1.4064  0.0324
 1137SOL    HW2 3548   0.355   2.666   2.933  1.6365 -0.3736 -0.1605
 1138SOL     OW 3549   3.431   3.012   1.845 -0.4461  0.6870  0.3430
 1138SOL    HW1 3550   3.466   3.081   1.788  0.2455 -0.5403 -0.7670
 1138SOL    HW2 3551   3.497   3.001   1.912 -0.6955  1.2804  0.7024
 1139SOL     OW 3552   0.673   0.714   0.693 -0.0342  0.0876  0.4307
 1139SOL    HW1 3553   0.729   0.768   0.638 -0.7421 -0.3244 -0.7398
 1139SOL    HW2 3554   0.584   0.748   0.679 -0.0107  1.6118  3.2890
 1140SOL     OW 3555   0.319   3.062   1.941 -0.6346  0.1033  0.0212
 1140SOL    HW1 3556   0.305   3.110   1.859 -0.4591  1.4346  0.7416
 1140SOL    HW2 3557   0.410   3.033   1.936 -0.9594 -0.8466 -0.7523
 1141SOL     OW 3558   2.891   3.580   1.170 -0.0125 -0.0439 -0.6821
 1141SOL    HW1 3559   2.896   3.507   1.108  3.2677  0.4239 -1.1063
 1141SOL    HW2 3560   2.893   3.538   1.256  2.7056 -0.5099 -0.9098
 1142SOL     OW 3561   1.090   2.969   0.722  0.4091  0.0162  0.0802
 1142SOL    HW1 3562   1.131   2.894   0.764  1.2037  1.7000  2.5353
 1142SOL    HW2 3563   1.005   2.936   0.693 -0.4026 -1.2812  3.4550
 1143SOL     OW 3564   1.117   2.976   1.552 -0.3279 -0.1817  0.2215
 1143SOL    HW1 3565   1.118   2.985   1.647  0.2777  0.6340  0.1444
 1143SOL    HW2 3566   1.210   2.968   1.528 -0.5435 -1.9701 -0.1625
 1144SOL     OW 3567   2.096   2.053   1.257 -0.0999 -0.2392  0.1220
 1144SOL    HW1 3568   2.012   2.092   1.280 -0.7796 -1.3875 -0.3536
 1144SOL    HW2 3569   2.075   1.988   1.190  1.3117  0.2189 -0.8154
 1145SOL     OW 3570   0.620   1.768   0.203  0.7446 -0.1529  0.2033
 1145SOL    HW1 3571   0.653   1.683   0.174 -1.2433  0.1583 -3.5200
 1145SOL    HW2 3572   0.526   1.754   0.217 -0.1183  1.7963 -2.7721
 1146SOL     OW 3573   2.060   0.163   2.328 -0.3048  0.2707 -0.3025
 1146SOL    HW1 3574   2.140   0.178   2.278 -1.0087  1.7398 -1.0622
 1146SOL    HW2 3575   2.052   0.068   2.332 -1.3618 -0.1280 -5.0937
 1147SOL     OW 3576   2.024   3.480   1.946 -0.3233  0.1458 -0.6456
 1147SOL    HW1 3577   2.076   3.407   1.978  1.8639  1.7687 -0.3121
 1147SOL    HW2 3578   2.001   3.455   1.856  0.1765 -1.0408 -0.4634
 1148SOL     OW 3579   1.249   0.151   0.532  0.7098 -0.2806 -0.1454
 1148SOL    HW1 3580   1.201   0.148   0.614  0.5114  0.2236 -0.2379
 1148SOL    HW2 3581   1.311   0.079   0.537 -0.0533 -0.9417 -0.0279
 1149SOL     OW 3582   1.220   3.539   0.517 -0.1642  0.1155 -0.0587
 1149SOL    HW1 3583   1.299   3.559   0.566 -1.0787  1.7160  0.8320
 1149SOL    HW2 3584   1.168   3.485   0.577  1.0323 -2.6932 -1.3755
 1150SOL     OW 3585   0.448   3.390   2.913 -0.0346 -0.0591  0.1299
 1150SOL    HW1 3586   0.505   3.409   2.838 -0.2864 -0.3735 -0.1444
 1150SOL    HW2 3587   0.377   3.453   2.907  1.7154  2.3508  2.1215
 1151SOL     OW 3588   2.628   0.035   0.802 -0.2148 -0.0919 -0.2035
 1151SOL    HW1 3589   2.634  -0.052   0.840 -1.9975 -0.0041  0.3580
 1151SOL    HW2 3590   2.634   0.094   0.877  0.0676  0.2366 -0.4808
 1152SOL     OW 3591   2.517   1.265   0.881  0.0047  0.2484 -0.1601
 1152SOL    HW1 3592   2.579   1.321   0.834  1.7861 -1.2649  0.2492
 1152SOL    HW2 3593   2.523   1.295   0.972 -1.1330  1.1659 -0.3689
 1153SOL     OW 3594   3.235   0.522   1.795 -0.1166  0.3231  0.0968
 1153SOL    HW1 3595   3.237   0.574   1.876 -0.1905  0.0306  0.2878
 1153SOL    HW2 3596   3.304   0.457   1.807 -1.3041 -0.8709  0.7023
 1154SOL     OW 3597   2.250   1.485   3.138  0.3281  0.0969 -0.3761
 1154SOL    HW1 3598   2.259   1.423   3.210 -2.8104 -1.6511 -1.3093
 1154SOL    HW2 3599   2.323   1.466   3.080  0.2860 -1.7218  0.1128
 1155SOL     OW 3600   2.388   1.511   0.606 -0.0990 -0.3799 -0.4308
 1155SOL    HW1 3601   2.294   1.526   0.595 -0.0350 -0.0912 -0.5814
 1155SOL    HW2 3602   2.404   1.428   0.560 -0.7279 -1.7487  1.6896
 1156SOL     OW 3603   1.430   2.969   1.399 -0.5689  0.2888  0.4417
 1156SOL    HW1 3604   1.525   2.979   1.399 -0.7734  3.2951  1.5677
 1156SOL    HW2 3605   1.408   2.952   1.307  0.8187  3.8675 -0.7388
 1157SOL     OW 3606   3.654   0.351   0.319 -0.3941 -0.4287 -0.0078
 1157SOL    HW1 3607   3.622   0.410   0.387  0.4359  0.9812 -0.7910
 1157SOL    HW2 3608   3.750   0.356   0.325 -0.3050 -0.4470 -1.1184
 1158SOL     OW 3609   2.099   3.344   2.377  0.4679  0.7661  0.2802
 1158SOL    HW1 3610   2.128   3.434   2.393 -0.5760  0.8911  1.7014
 1158SOL    HW2 3611   2.124   3.326   2.287  0.0943  2.7151 -0.2555
 1159SOL     OW 3612   2.695   0.595   2.479  0.2759 -0.0139 -0.3283
 1159SOL    HW1 3613   2.679   0.544   2.399  1.6655 -0.1067 -0.5649
 1159SOL    HW2 3614   2.746   0.670   2.449  0.3671  0.2214  0.3999
 1160SOL     OW 3615   0.430   2.467   1.457 -0.3674  0.4818  0.0097
 1160SOL    HW1 3616   0.393   2.401   1.398  2.0210 -1.9182  0.9801
 1160SOL    HW2 3617   0.421   2.428   1.544 -1.3816  2.7524  0.9878
 1161SOL     OW 3618   0.811   0.475   3.106  0.1776  0.3268  0.0013
 1161SOL    HW1 3619   0.800   0.553   3.160  2.4819  1.4878 -1.1142
 1161SOL    HW2 3620   0.905   0.469   3.090 -0.2930 -0.6014 -2.9417
 1162SOL     OW 3621   0.098   0.157   2.026  0.3519  0.4590 -0.1847
 1162SOL    HW1 3622   0.146   0.142   1.945  0.0964  3.7996 -1.0960
 1162SOL    HW2 3623   0.006   0.139   2.004  0.3159  1.1013 -0.5750
 1163SOL     OW 3624   1.190   1.799   2.890 -0.2853 -0.1932 -0.0763
 1163SOL    HW1 3625   1.232   1.885   2.890 -1.7664  0.5716 -0.2352
 1163SOL    HW2 3626   1.176   1.778   2.798 -1.1460  0.0349 -0.0040
 1164SOL     OW 3627   1.730   1.341   2.662 -0.4687 -0.2273 -0.3170
 1164SOL    HW1 3628   1.766   1.428   2.680  0.4443 -0.2591 -1.8318
 1164SOL    HW2 3629   1.807   1.286   2.648 -1.0009 -1.5322  1.4797
 1165SOL     OW 3630   1.013   2.337   0.790 -0.3315 -0.4374  0.1826
 1165SOL    HW1 3631   1.053   2.328   0.876 -0.6854  0.8423  0.5019
 1165SOL    HW2 3632   1.057   2.412   0.750 -1.2207 -0.0720 -0.1374
 1166SOL     OW 3633   0.151   2.084   1.165 -0.0770 -0.0285 -0.1581
 1166SOL    HW1 3634   0.110   2.118   1.085  1.6760  0.4947 -0.8911
 1166SOL    HW2 3635   0.084   2.028   1.204 -1.1382  0.0306 -1.7726
 1167SOL     OW 3636   2.181   1.064   0.500 -0.4225  0.1728  0.5015
 1167SOL    HW1 3637   2.201   0.973   0.520 -4.9461 -1.4560 -1.1504
 1167SOL    HW2 3638   2.245   1.089   0.434  0.8392 -1.8053  0.8930
 1168SOL     OW 3639   3.405   2.237   3.239 -0.6023 -0.5090  0.4009
 1168SOL    HW1 3640   3.427   2.234   3.332  1.0877  1.9833  0.1946
 1168SOL    HW2 3641   3.483   2.274   3.197 -1.6976 -0.5845 -1.8623
 1169SOL     OW 3642   0.839   2.166   0.877  0.3548  0.1369  0.1483
 1169SOL    HW1 3643   0.908   2.230   0.861  1.4410 -0.7678  1.0501
 1169SOL    HW2 3644   0.878   2.082   0.856 -0.3545 -0.4247  0.9846
 1170SOL     OW 3645   2.290   3.335   2.155  0.0049  0.5259 -0.2445
 1170SOL    HW1 3646   2.329   3.394   2.220 -2.6483  0.5486  1.4452
 1170SOL    HW2 3647   2.296   3.248   2.196  1.6122 -0.0798 -1.6412
 1171SOL     OW 3648   3.225   3.224   0.421 -0.7120 -0.4435 -0.0162
 1171SOL    HW1 3649   3.251   3.188   0.336  1.0508  0.0992  0.2420
 1171SOL    HW2 3650   3.162   3.161   0.456  0.2336 -1.8589 -0.7558
 1172SOL     OW 3651   1.121   0.263   0.107 -0.2204 -0.4049  0.1228
 1172SOL    HW1 3652   1.183   0.335   0.120 -1.0139  0.3690 -0.2839
 1172SOL    HW2 3653   1.053   0.278   0.173  0.3413 -1.6431  1.0360
 1173SOL     OW 3654   1.982   3.465   2.832  0.1289 -1.3167 -0.2500
 1173SOL    HW1 3655   1.948   3.381   2.863  0.6131 -1.3849  0.1189
 1173SOL    HW2 3656   1.907   3.507   2.789 -0.2937 -1.6565  0.1377
 1174SOL     OW 3657   3.156   1.524   1.437 -0.0278 -0.1099 -0.0731
 1174SOL    HW1 3658   3.164   1.602   1.492  2.1051 -0.5638  0.3300
 1174SOL    HW2 3659   3.235   1.473   1.455 -1.3723 -2.3976 -0.3169
 1175SOL     OW 3660   3.672   0.303   2.271 -0.6718 -0.3700 -0.1143
 1175SOL    HW1 3661   3.665   0.365   2.198 -1.9921 -0.7892 -0.3704
 1175SOL    HW2 3662   3.728   0.348   2.335  1.2521 -0.3510 -1.7105
 1176SOL     OW 3663   3.250   2.658   0.984 -0.0869  0.2349  0.1461
 1176SOL    HW1 3664   3.203   2.718   1.041 -1.7074 -0.1896 -0.6728
 1176SOL    HW2 3665   3.230   2.571   1.019  1.0097  0.0940  0.4405
 1177SOL     OW 3666   3.085   2.583   2.764 -0.3704  0.2501 -0.1837
 1177SOL    HW1 3667   3.106   2.630   2.684 -0.4719 -1.6483 -1.4048
 1177SOL    HW2 3668   2.995   2.552   2.750 -0.7647  0.7317  1.1200
 1178SOL     OW 3669   1.053   2.408   2.802  0.2420 -1.0559 -0.3144
 1178SOL    HW1 3670   1.134   2.360   2.817  0.0220 -1.3684 -0.1261
 1178SOL    HW2 3671   0.987   2.359   2.850 -0.1723 -1.1411 -0.9653
 1179SOL     OW 3672   1.300   3.677   1.517  0.3521 -0.2526  0.3158
 1179SOL    HW1 3673   1.302   3.773   1.524  0.4634 -0.1399 -1.0002
 1179SOL    HW2 3674   1.216   3.652   1.555  0.4433  0.3427  0.9291
 1180SOL     OW 3675   3.077   3.094   1.837 -0.0567 -0.0575  0.1109
 1180SOL    HW1 3676   3.020   3.024   1.806 -1.9410  0.9253  1.2015
 1180SOL    HW2 3677   3.063   3.096   1.931  2.1088 -0.0102  0.4851
 1181SOL     OW 3678   3.006   2.600   0.387  0.1857  0.4707  0.0015
 1181SOL    HW1 3679   2.942   2.592   0.316 -0.9620 -1.5456  1.1690
 1181SOL    HW2 3680   2.980   2.679   0.434 -2.2339 -0.8365  1.0841
 1182SOL     OW 3681   2.441   0.870   1.359  0.2975  0.3103 -0.0743
 1182SOL    HW1 3682   2.497   0.917   1.297  0.4654 -0.5364 -0.5867
 1182SOL    HW2 3683   2.501   0.813   1.407 -0.0589 -0.3592 -0.3998
 1183SOL     OW 3684   1.118   0.865   1.838  0.7403  0.6420 -0.2663
 1183SOL    HW1 3685   1.066   0.911   1.772  0.6014  0.8612 -0.0068
 1183SOL    HW2 3686   1.136   0.931   1.905  2.1025  0.7976 -0.7670
 1184SOL     OW 3687   3.654   2.916   1.001  0.4808  0.2322 -0.8377
 1184SOL    HW1 3688   3.670   2.842   1.059 -0.5126  0.0096 -0.8299
 1184SOL    HW2 3689   3.558   2.926   1.001  0.5425  0.8985 -1.5992
 1185SOL     OW 3690   1.382   0.117   2.782 -0.6137 -0.3495 -0.2013
 1185SOL    HW1 3691   1.377   0.198   2.733 -0.8625  0.0424  0.4529
 1185SOL    HW2 3692   1.292   0.104   2.814 -0.4731 -0.6397  0.0766
 1186SOL     OW 3693   0.063   2.711   0.177 -0.0537 -0.5239  0.1593
 1186SOL    HW1 3694   0.033   2.762   0.102 -0.0172 -1.0521 -0.2207
 1186SOL    HW2 3695   0.145   2.754   0.203 -0.8332  0.5979  0.8743
 1187SOL     OW 3696   3.112   1.182   1.865 -0.7435  0.0123  0.2766
 1187SOL    HW1 3697   3.126   1.246   1.796 -2.0284  1.1205  1.0003
 1187SOL    HW2 3698   3.030   1.138   1.840 -2.3011  1.7560  1.9959
 1188SOL     OW 3699   2.738   1.576   0.129 -1.0944 -0.2221 -0.4371
 1188SOL    HW1 3700   2.792   1.592   0.207 -2.9150  0.2333  0.7969
 1188SOL    HW2 3701   2.801   1.562   0.058  0.6742 -1.6666  1.2915
 1189SOL     OW 3702   0.501   3.682   1.636 -0.0780 -0.4391 -0.2052
 1189SOL    HW1 3703   0.414   3.717   1.656  0.4753  0.9178 -0.0409
 1189SOL    HW2 3704   0.487   3.625   1.560 -0.9997  0.3796 -0.6796
 1190SOL     OW 3705   3.274   2.309   1.685 -0.0915 -0.6571  0.9481
 1190SOL    HW1 3706   3.319   2.265   1.612 -0.5479  1.0305 -0.4161
 1190SOL    HW2 3707   3.182   2.285   1.674 -0.1385 -0.5242  1.0602
 1191SOL     OW 3708   3.680   3.112   1.218 -0.1178 -0.0538  0.1475
 1191SOL    HW1 3709   3.711   3.023   1.234 -1.4489 -0.4991  0.3694
 1191SOL    HW2 3710   3.753   3.168   1.244  0.7783 -1.0695 -0.0897
 1192SOL     OW 3711   0.225   1.626   3.181  0.1985 -0.1194 -0.3423
 1192SOL    HW1 3712   0.255   1.666   3.099  0.2026  0.3892 -0.0966
 1192SOL    HW2 3713   0.226   1.698   3.244 -2.1803  0.0854 -0.4701
 1193SOL     OW 3714   0.098   3.602   2.087  0.3345 -0.4190 -0.4263
 1193SOL    HW1 3715   0.144   3.540   2.030 -0.3429  0.1223 -1.6043
 1193SOL    HW2 3716   0.107   3.687   2.043  0.7726  0.2418  0.8759
 1194SOL     OW 3717   1.998   0.373   3.032  0.4476 -0.0438  0.4472
 1194SOL    HW1 3718   2.012   0.290   3.078 -0.3154 -0.1387  0.5222
 1194SOL    HW2 3719   2.036   0.439   3.089  1.7469 -0.4101  0.0366
 1195SOL     OW 3720   1.677   2.169   1.602 -0.1377 -0.1727  0.6651
 1195SOL    HW1 3721   1.597   2.213   1.632 -0.9943 -1.4217  0.2832
 1195SOL    HW2 3722   1.700   2.109   1.673  0.4054  0.0866  0.7172
 1196SOL     OW 3723   2.895   1.818   1.026  0.2218 -0.2983  0.7223
 1196SOL    HW1 3724   2.983   1.825   1.064  0.5424 -0.6619  0.0762
 1196SOL    HW2 3725   2.911   1.820   0.931 -0.5251  0.2923  0.6006
 1197SOL     OW 3726   0.670   0.521   0.872 -0.3720 -0.4485 -0.2552
 1197SOL    HW1 3727   0.579   0.519   0.903 -0.8753 -0.6631 -1.6573
 1197SOL    HW2 3728   0.668   0.581   0.798  0.4353 -1.1647 -0.8735
 1198SOL     OW 3729   1.276   1.249   0.557 -0.2713  0.4513 -0.3356
 1198SOL    HW1 3730   1.367   1.254   0.586 -0.5371  0.8379  0.4474
 1198SOL    HW2 3731   1.243   1.167   0.595  0.1009 -0.3733 -1.6929
 1199SOL     OW 3732   0.949   0.749   2.142 -0.4049  0.1394 -0.4749
 1199SOL    HW1 3733   0.955   0.838   2.106  2.4437  1.6669  3.1274
 1199SOL    HW2 3734   0.858   0.741   2.171 -0.6335  2.0511 -0.5266
 1200SOL     OW 3735   3.266   1.306   1.218  0.1310  0.1083  0.0179
 1200SOL    HW1 3736   3.353   1.342   1.205 -0.0156  0.4398 -0.0675
 1200SOL    HW2 3737   3.254   1.307   1.313  0.8111 -1.3763  0.1410
 1201SOL     OW 3738   0.636   1.517   3.619  0.3727 -1.0837  0.3550
 1201SOL    HW1 3739   0.541   1.514   3.608  0.1939 -1.4917  1.7620
 1201SOL    HW2 3740   0.649   1.568   3.700  1.1784 -3.3057  1.7215
 1202SOL     OW 3741   1.145   1.978   1.166 -0.9112  0.1579 -0.0186
 1202SOL    HW1 3742   1.149   2.064   1.208 -2.0340 -0.3950  1.2970
 1202SOL    HW2 3743   1.208   1.925   1.213  0.4946  0.4809 -1.4661
 1203SOL     OW 3744   1.004   1.416   1.477  0.3421  0.3856 -0.2622
 1203SOL    HW1 3745   1.038   1.375   1.397 -0.0145 -1.6000  0.5327
 1203SOL    HW2 3746   1.059   1.493   1.490  1.3480 -0.0627 -1.6302
 1204SOL     OW 3747   1.154   0.338   2.368 -0.0662 -0.3788 -0.9176
 1204SOL    HW1 3748   1.177   0.255   2.410  1.3753  1.4013  2.1400
 1204SOL    HW2 3749   1.068   0.361   2.405  1.5244  1.5473  1.9683
 1205SOL     OW 3750   1.747   3.572   3.695 -0.6709  0.3460 -0.1100
 1205SOL    HW1 3751   1.842   3.576   3.706 -0.6495  0.4067 -0.3032
 1205SOL    HW2 3752   1.734   3.525   3.613 -0.9205 -3.1360  1.7631
 1206SOL     OW 3753   2.195   1.676   0.800 -0.1700  0.0713  1.1978
 1206SOL    HW1 3754   2.231   1.698   0.886 -0.4523  1.3505  1.0154
 1206SOL    HW2 3755   2.113   1.727   0.795  0.9766  1.9014 -0.7214
 1207SOL     OW 3756   0.981   0.979   1.646  1.0095  0.7852  0.7887
 1207SOL    HW1 3757   0.995   1.073   1.658 -1.2277  1.5073 -1.5091
 1207SOL    HW2 3758   1.041   0.955   1.575 -0.5853  1.2464 -0.7876
 1208SOL     OW 3759   3.118   0.220   2.105 -0.4981  0.2219 -0.0271
 1208SOL    HW1 3760   3.068   0.299   2.124  0.0490  0.5447  0.0537
 1208SOL    HW2 3761   3.202   0.232   2.149 -0.2852 -0.2579 -0.2893
 1209SOL     OW 3762   1.053   0.623   1.354  0.0983  0.1494 -0.3109
 1209SOL    HW1 3763   1.004   0.544   1.376  1.2568 -0.2896  0.7816
 1209SOL    HW2 3764   1.074   0.613   1.261 -0.1862 -0.5950 -0.3042
 1210SOL     OW 3765   2.352   3.156   2.474  0.1035  0.1399  0.3595
 1210SOL    HW1 3766   2.430   3.102   2.463 -0.2262 -1.7927  5.3159
 1210SOL    HW2 3767   2.385   3.241   2.503  0.3671  0.7526 -1.5622
 1211SOL     OW 3768   2.229   1.038   2.760 -0.0903 -0.2238  0.6134
 1211SOL    HW1 3769   2.240   0.964   2.700  0.0859 -1.2676  1.8778
 1211SOL    HW2 3770   2.257   1.004   2.845 -2.1469  0.5849  1.6873
 1212SOL     OW 3771   2.336   2.874   1.464 -0.4670 -0.0451  0.0231
 1212SOL    HW1 3772   2.426   2.885   1.433 -0.5375 -0.6451 -0.4107
 1212SOL    HW2 3773   2.322   2.949   1.522  1.3096 -1.4904  2.5150
 1213SOL     OW 3774   2.688   1.685   0.511  0.6087  0.2211 -0.2189
 1213SOL    HW1 3775   2.657   1.677   0.601  0.2498  1.1772 -0.2496
 1213SOL    HW2 3776   2.745   1.762   0.512  1.5606 -0.4570 -0.5572
 1214SOL     OW 3777   1.552   0.459   2.817 -0.2441 -0.9524 -0.0546
 1214SOL    HW1 3778   1.580   0.399   2.748  0.6281 -0.6062 -0.0174
 1214SOL    HW2 3779   1.624   0.458   2.880 -0.4998 -0.3485  0.2595
 1215SOL     OW 3780   1.602   1.193   0.025  0.4317  0.1669 -0.1903
 1215SOL    HW1 3781   1.606   1.101  -0.001  2.5127  1.1808 -4.3809
 1215SOL    HW2 3782   1.630   1.193   0.116 -2.3579 -3.5085  0.8952
 1216SOL     OW 3783   1.999   2.806   2.048  0.5168 -0.5685 -0.3433
 1216SOL    HW1 3784   2.012   2.719   2.010 -0.0355 -0.2281 -1.3510
 1216SOL    HW2 3785   2.085   2.848   2.039  1.6944 -1.9941  2.9266
 1217SOL     OW 3786   1.926   2.986   2.232 -0.2998 -0.0911  0.3154
 1217SOL    HW1 3787   1.834   2.997   2.256 -0.4714 -0.5079 -0.1365
 1217SOL    HW2 3788   1.925   2.927   2.157  0.2463  0.9207 -0.5196
 1218SOL     OW 3789   3.064   3.606   0.637  0.0470 -0.4914  0.1030
 1218SOL    HW1 3790   3.132   3.593   0.571 -0.5335  0.1568 -0.6358
 1218SOL    HW2 3791   2.985   3.568   0.598 -0.8456  1.9201 -0.5998
 1219SOL     OW 3792   1.261   2.965   2.253  0.0356  0.1814  0.2108
 1219SOL    HW1 3793   1.297   2.877   2.261 -1.4308 -0.4222  0.6215
 1219SOL    HW2 3794   1.177   2.952   2.209 -0.4441  1.3070  0.7548
 1220SOL     OW 3795   1.738   3.614   0.679 -0.0354 -0.5457  0.2468
 1220SOL    HW1 3796   1.820   3.642   0.719 -0.9070  3.7146 -0.5131
 1220SOL    HW2 3797   1.754   3.617   0.585 -1.1067  0.7832  0.0736
 1221SOL     OW 3798   1.762   1.586   2.433  0.1122  0.2675 -0.4300
 1221SOL    HW1 3799   1.702   1.586   2.508 -0.1320  0.0688 -0.6257
 1221SOL    HW2 3800   1.842   1.625   2.467  0.3346 -0.7107  0.2065
 1222SOL     OW 3801   0.220   2.213   2.617 -0.3938  0.0497  0.6210
 1222SOL    HW1 3802   0.297   2.185   2.665  0.0711 -0.2520 -0.2680
 1222SOL    HW2 3803   0.238   2.305   2.595 -0.9258  0.4058  1.6185
 1223SOL     OW 3804   2.527   3.641   0.408  0.1529 -0.3738  0.2818
 1223SOL    HW1 3805   2.534   3.634   0.312 -0.3872 -1.5827  0.3150
 1223SOL    HW2 3806   2.492   3.729   0.423  1.8970  0.5308 -0.5237
 1224SOL     OW 3807   1.766   2.258   3.132  0.0182 -0.3823 -0.0961
 1224SOL    HW1 3808   1.740   2.193   3.197 -5.1664 -0.0527 -1.3717
 1224SOL    HW2 3809   1.743   2.342   3.172  0.7163  0.1611 -0.8053
 1225SOL     OW 3810   3.395   1.925   1.614 -0.5649  0.5440  0.2614
 1225SOL    HW1 3811   3.348   1.974   1.681  0.0566  2.8229 -0.8569
 1225SOL    HW2 3812   3.472   1.890   1.658  0.9430  3.7408  0.4472
 1226SOL     OW 3813   1.039   2.501   2.342 -0.0280  0.5130 -0.1938
 1226SOL    HW1 3814   0.981   2.456   2.280 -2.0845 -0.2780  2.1017
 1226SOL    HW2 3815   1.102   2.434   2.368 -0.4638  0.1942  0.0708
 1227SOL     OW 3816   1.595   1.791   0.652  0.3046 -0.0884  0.2474
 1227SOL    HW1 3817   1.633   1.875   0.678 -0.0488 -0.2288  1.2626
 1227SOL    HW2 3818   1.504   1.812   0.630 -0.4348 -0.5113  2.6313
 1228SOL     OW 3819   0.624   0.743   0.369 -0.4239 -0.2579 -0.4241
 1228SOL    HW1 3820   0.532   0.734   0.396  0.3220 -1.7292  1.8571
 1228SOL    HW2 3821   0.667   0.665   0.404  1.3020 -0.8818 -3.5261
 1229SOL     OW 3822   0.221   0.192   1.090  0.5209 -0.0859  0.2521
 1229SOL    HW1 3823   0.132   0.215   1.065 -0.3682 -2.4690  0.9429
 1229SOL    HW2 3824   0.249   0.262   1.148 -0.2059  1.5968 -1.3283
 1230SOL     OW 3825   0.925   2.178   0.536  0.4516  0.1463  0.9386
 1230SOL    HW1 3826   0.842   2.134   0.519  1.3747 -1.1867 -0.3158
 1230SOL    HW2 3827   0.913   2.219   0.622 -1.2386 -0.6290  1.1118
 1231SOL     OW 3828   3.559   3.320   3.092  0.5915  0.0429  0.6025
 1231SOL    HW1 3829   3.560   3.232   3.130  1.4000 -0.3268 -0.2207
 1231SOL    HW2 3830   3.652   3.342   3.083  0.4278  0.3309 -0.6168
 1232SOL     OW 3831   1.147   0.431   1.175 -0.4386  0.4236  0.0412
 1232SOL    HW1 3832   1.062   0.408   1.212 -0.9357 -1.6954 -2.1208
 1232SOL    HW2 3833   1.182   0.348   1.143  1.2690  1.6257 -1.4242
 1233SOL     OW 3834   2.009   3.423   0.953  1.0230  0.4842 -0.5347
 1233SOL    HW1 3835   2.014   3.339   0.999 -0.1870 -0.1129 -1.4247
 1233SOL    HW2 3836   2.014   3.489   1.022 -1.3057 -0.3801  0.5829
 1234SOL     OW 3837   3.715   2.051   3.474  0.1292 -0.2537  0.1928
 1234SOL    HW1 3838   3.754   2.032   3.559 -1.9992 -1.1279  1.0460
 1234SOL    HW2 3839   3.627   2.083   3.494 -1.3909 -2.8492 -1.6719
 1235SOL     OW 3840   1.795   0.184   2.088  0.0254  0.4435 -0.5390
 1235SOL    HW1 3841   1.846   0.262   2.066 -1.7818  1.0096 -3.1819
 1235SOL    HW2 3842   1.736   0.212   2.157 -0.7777  1.5457 -1.6356
 1236SOL     OW 3843   1.043   0.870   0.827 -0.0449 -0.0237  0.5312
 1236SOL    HW1 3844   1.061   0.802   0.893 -0.9345  0.5520  1.3986
 1236SOL    HW2 3845   0.956   0.902   0.849 -0.8264 -0.5318 -1.5956
 1237SOL     OW 3846   2.946   1.607   0.296 -0.1208  0.6326 -0.0196
 1237SOL    HW1 3847   2.968   1.525   0.341  1.0129  1.1249  0.3672
 1237SOL    HW2 3848   2.919   1.666   0.367 -1.8503  0.3221 -0.3963
 1238SOL     OW 3849   3.539   3.145   3.612  0.3795  0.3720  0.1135
 1238SOL    HW1 3850   3.521   3.204   3.538 -0.1228 -1.7715 -1.5811
 1238SOL    HW2 3851   3.610   3.189   3.660 -0.1909  2.4880 -0.8393
 1239SOL     OW 3852   1.511   2.688   1.746 -0.2648  0.3498  0.7256
 1239SOL    HW1 3853   1.583   2.751   1.754  0.0784 -0.1649  1.8849
 1239SOL    HW2 3854   1.450   2.712   1.816 -1.9968  1.6807 -1.1064
 1240SOL     OW 3855   2.776   2.343   0.374  0.1460  0.1439  0.1829
 1240SOL    HW1 3856   2.858   2.302   0.403  0.2306  0.7380  0.7964
 1240SOL    HW2 3857   2.800   2.432   0.351 -0.3774  0.4098  0.6402
 1241SOL     OW 3858   2.046   2.625   0.657 -0.0648  0.4219  0.2223
 1241SOL    HW1 3859   2.041   2.718   0.636 -0.8529  0.7358  1.6531
 1241SOL    HW2 3860   2.125   2.616   0.710 -0.7843  0.5728  1.3537
 1242SOL     OW 3861   1.466   0.071   2.464  0.3655  0.3265 -0.1639
 1242SOL    HW1 3862   1.522   0.024   2.402  0.7325 -0.3706  0.6758
 1242SOL    HW2 3863   1.523   0.138   2.502  0.1046  0.8410 -0.6546
 1243SOL     OW 3864   2.594   0.276   2.151  0.9062 -0.1889 -0.2024
 1243SOL    HW1 3865   2.597   0.292   2.057  1.7721  1.7115  0.0987
 1243SOL    HW2 3866   2.670   0.221   2.169  1.0223 -0.1407 -0.5386
 1244SOL     OW 3867   1.041   3.119   0.315  0.8361  0.7099  0.4685
 1244SOL    HW1 3868   0.970   3.067   0.279 -0.6559  1.6177  1.9217
 1244SOL    HW2 3869   1.056   3.188   0.250 -0.7359  1.4308  0.8300
 1245SOL     OW 3870   2.083   2.196   2.030  0.1035  0.1287 -0.1043
 1245SOL    HW1 3871   2.123   2.168   2.112 -1.2479 -0.2084  0.4617
 1245SOL    HW2 3872   1.994   2.161   2.033 -0.2784  0.9239 -1.2880
 1246SOL     OW 3873   0.838   3.242   3.403  0.2680 -0.0642 -0.1912
 1246SOL    HW1 3874   0.887   3.161   3.417 -1.5052 -1.5018 -1.7548
 1246SOL    HW2 3875   0.868   3.274   3.318  0.6368  0.6838  0.2151
 1247SOL     OW 3876   1.017   1.564   2.810 -0.1232  0.4010  0.6946
 1247SOL    HW1 3877   1.030   1.641   2.756 -1.4436 -0.8809 -1.6448
 1247SOL    HW2 3878   0.924   1.543   2.800  0.6011 -2.7159 -0.6285
 1248SOL     OW 3879   2.421   0.747   2.963 -0.0648  0.2760  0.4431
 1248SOL    HW1 3880   2.432   0.652   2.964 -1.1288  0.1178 -0.1852
 1248SOL    HW2 3881   2.484   0.780   3.027  1.7892 -0.6819 -0.8039
 1249SOL     OW 3882   2.174   1.175   1.987  0.2013 -0.7734  0.0522
 1249SOL    HW1 3883   2.154   1.269   1.984 -1.6740 -1.1372  0.2310
 1249SOL    HW2 3884   2.263   1.169   1.952  0.9878  1.2348  1.4875
 1250SOL     OW 3885   2.585   0.651   1.213  0.3727 -0.2544 -0.1177
 1250SOL    HW1 3886   2.490   0.648   1.205  0.2684 -0.7154  1.0312
 1250SOL    HW2 3887   2.615   0.688   1.130 -0.8359  0.3429 -0.3208
 1251SOL     OW 3888   3.154   2.168   3.436 -0.0398  0.4854 -0.2486
 1251SOL    HW1 3889   3.084   2.140   3.377 -1.0639 -0.1991  1.2376
 1251SOL    HW2 3890   3.133   2.260   3.455  0.3549  0.7427 -0.9968
 1252SOL     OW 3891   2.092   3.186   1.643 -0.2662  0.3843 -0.4490
 1252SOL    HW1 3892   2.023   3.229   1.593 -0.9138  1.2795  1.1204
 1252SOL    HW2 3893   2.064   3.096   1.653 -2.6446  1.2599  2.3391
 1253SOL     OW 3894   0.771   3.332   1.336 -0.2941 -0.5880 -0.0311
 1253SOL    HW1 3895   0.714   3.408   1.344  0.3352 -0.2147  1.2935
 1253SOL    HW2 3896   0.813   3.342   1.250 -1.6852 -0.5177 -0.7221
 1254SOL     OW 3897   0.189   2.449   1.687  0.0487  0.2990 -0.2383
 1254SOL    HW1 3898   0.175   2.466   1.780  0.5608 -1.4360  0.1814
 1254SOL    HW2 3899   0.177   2.535   1.646  3.1906  1.8778  1.7760
 1255SOL     OW 3900   2.676   3.018   1.571 -0.1366 -0.1368 -0.4591
 1255SOL    HW1 3901   2.593   3.065   1.569  0.5394  1.2997  1.7457
 1255SOL    HW2 3902   2.737   3.075   1.523  0.1375  0.1121  0.1671
 1256SOL     OW 3903   2.730   0.413   0.596  0.0714  0.1719 -0.1135
 1256SOL    HW1 3904   2.782   0.372   0.665 -0.2420 -2.2144 -1.1948
 1256SOL    HW2 3905   2.794   0.446   0.534  0.3367 -0.7936 -0.3636
 1257SOL     OW 3906   1.096   2.420   3.550  0.2370 -0.4155 -0.5243
 1257SOL    HW1 3907   1.122   2.377   3.469 -0.3565 -1.1015 -0.3684
 1257SOL    HW2 3908   1.028   2.363   3.586 -0.4472  0.5594 -0.2137
 1258SOL     OW 3909   0.487   1.804   3.380 -0.2398  0.2009  0.2064
 1258SOL    HW1 3910   0.432   1.843   3.311  0.3451 -0.5586 -0.7145
 1258SOL    HW2 3911   0.564   1.772   3.333 -0.3444 -1.3636  1.0488
 1259SOL     OW 3912   3.499   2.005   1.369  0.0383 -0.3902  0.2117
 1259SOL    HW1 3913   3.448   2.080   1.339  1.6284  1.1943  1.2363
 1259SOL    HW2 3914   3.448   1.967   1.440 -0.4843  0.1330  0.1185
 1260SOL     OW 3915   1.296   1.526   1.386  0.4500  0.5716  0.8603
 1260SOL    HW1 3916   1.338   1.458   1.334  1.1709  0.8724  1.0365
 1260SOL    HW2 3917   1.223   1.556   1.332  0.5037  0.0904  0.5162
 1261SOL     OW 3918   2.898   1.761   1.443 -1.4599 -0.8235  0.0144
 1261SOL    HW1 3919   2.989   1.791   1.449 -1.4577 -1.0336  1.1177
 1261SOL    HW2 3920   2.858   1.822   1.380 -0.7894 -0.1451  0.2227
 1262SOL     OW 3921   2.966   1.573   2.095  0.6514  0.1248 -0.5811
 1262SOL    HW1 3922   3.037   1.532   2.144  0.8084  0.9335 -0.1135
 1262SOL    HW2 3923   3.009   1.616   2.022  0.5625  0.0209 -0.6950
 1263SOL     OW 3924   3.400   0.318   1.570 -0.0770  0.1277  0.3289
 1263SOL    HW1 3925   3.427   0.229   1.548  0.7376  0.0306  1.5751
 1263SOL    HW2 3926   3.399   0.319   1.666 -0.5895  1.3191  0.3299
 1264SOL     OW 3927   0.093   1.863   0.899 -0.0653 -0.3216 -0.2179
 1264SOL    HW1 3928   0.120   1.796   0.961 -0.3109  0.7065  1.0575
 1264SOL    HW2 3929   0.164   1.867   0.835  2.0207  1.0129  1.9875
 1265SOL     OW 3930   2.970   0.985   2.277 -0.0350  0.5116 -0.9778
 1265SOL    HW1 3931   2.952   1.056   2.215 -0.9859 -1.0096 -2.5509
 1265SOL    HW2 3932   2.994   1.030   2.358  0.7080  2.6054 -2.2581
 1266SOL     OW 3933   2.926   0.802   1.374 -0.4147 -0.1898 -0.2584
 1266SOL    HW1 3934   2.859   0.748   1.416 -1.2594 -0.0949 -1.4225
 1266SOL    HW2 3935   2.980   0.834   1.446 -1.1887 -0.8625  0.6435
 1267SOL     OW 3936   0.498   0.258   0.345 -0.9309 -0.4994 -0.0313
 1267SOL    HW1 3937   0.532   0.316   0.413 -2.3339  0.1048  0.2073
 1267SOL    HW2 3938   0.546   0.282   0.266 -0.4884 -0.0062  0.3804
 1268SOL     OW 3939   2.440   2.610   0.842  0.3346 -0.4616  0.1841
 1268SOL    HW1 3940   2.509   2.637   0.903  2.1925 -3.8253 -0.1743
 1268SOL    HW2 3941   2.369   2.579   0.899  1.3022 -1.8238  0.7056
 1269SOL     OW 3942   1.534   1.349   3.317  0.2144  0.4525 -0.0829
 1269SOL    HW1 3943   1.525   1.409   3.392 -0.1878  1.4087 -0.8843
 1269SOL    HW2 3944   1.593   1.394   3.257  0.0247 -0.0286 -0.6380
 1270SOL     OW 3945   1.829   0.568   1.370  0.0310  0.4765 -0.0965
 1270SOL    HW1 3946   1.900   0.609   1.420 -0.7394  1.7083  0.0294
 1270SOL    HW2 3947   1.835   0.475   1.392  2.1306  0.3997 -0.7491
 1271SOL     OW 3948   2.972   1.287   0.010  0.3889  0.4006 -0.1527
 1271SOL    HW1 3949   2.999   1.286   0.101  1.7652  1.5504 -0.5237
 1271SOL    HW2 3950   3.053   1.273  -0.040 -0.3396 -0.2544 -1.2099
 1272SOL     OW 3951   1.286   2.087   2.130  0.1825 -0.0007 -0.4751
 1272SOL    HW1 3952   1.334   2.007   2.151 -1.0497 -1.6769 -3.4071
 1272SOL    HW2 3953   1.343   2.133   2.068  0.7542  1.3204  0.9744
 1273SOL     OW 3954   0.983   3.715   2.074 -0.1535 -0.3261 -0.7084
 1273SOL    HW1 3955   1.037   3.639   2.096 -0.8915 -0.2388  1.6678
 1273SOL    HW2 3956   1.032   3.790   2.108 -0.6695 -0.0211 -0.6289
 1274SOL     OW 3957   0.854   3.712   3.440  0.1390  0.1445  0.2666
 1274SOL    HW1 3958   0.850   3.758   3.524 -1.0088  0.9631 -0.2041
 1274SOL    HW2 3959   0.796   3.637   3.452  0.8782 -0.3895  0.5651
 1275SOL     OW 3960   0.202   0.369   0.371 -0.1341  0.5638  0.0871
 1275SOL    HW1 3961   0.197   0.464   0.356 -1.6074  0.8442  1.9762
 1275SOL    HW2 3962   0.293   0.353   0.393  0.3819  1.3240 -1.3326
 1276SOL     OW 3963   0.570   3.334   0.499  0.2437  0.6736  0.2161
 1276SOL    HW1 3964   0.628   3.405   0.474 -0.2139  1.7296  1.9632
 1276SOL    HW2 3965   0.543   3.355   0.589  1.8547 -2.7979  1.7365
 1277SOL     OW 3966   2.622   2.064   0.380 -0.3532  0.2084  1.0276
 1277SOL    HW1 3967   2.550   2.028   0.329 -0.3345  1.6536 -0.0692
 1277SOL    HW2 3968   2.701   2.047   0.328 -0.6023  4.0992 -0.9781
 1278SOL     OW 3969   2.907   3.126   2.054 -0.6098  0.2344 -0.0086
 1278SOL    HW1 3970   2.861   3.043   2.057  0.8186 -0.6503 -0.9824
 1278SOL    HW2 3971   2.865   3.180   2.121 -0.8727 -1.6296  1.4044
 1279SOL     OW 3972   1.281   2.624   2.804  0.0526  0.3081  0.4950
 1279SOL    HW1 3973   1.271   2.714   2.834  1.0883  1.0880 -1.3309
 1279SOL    HW2 3974   1.192   2.589   2.800 -0.3961  1.3992  0.7703
 1280SOL     OW 3975   1.398   0.381   1.860 -0.4511  0.7928  0.5906
 1280SOL    HW1 3976   1.467   0.363   1.925  0.7023 -1.0962 -1.0250
 1280SOL    HW2 3977   1.439   0.440   1.797  0.2511 -1.3460 -1.0792
 1281SOL     OW 3978   3.631   1.264   1.887 -1.2110  0.2070  0.1209
 1281SOL    HW1 3979   3.644   1.327   1.958 -0.3633 -1.3449  1.3969
 1281SOL    HW2 3980   3.708   1.276   1.831 -1.3948  0.7682 -0.0159
 1282SOL     OW 3981   2.191   0.342   3.278  0.5451  0.7145 -0.0735
 1282SOL    HW1 3982   2.162   0.255   3.250  2.7793  0.0272 -0.5037
 1282SOL    HW2 3983   2.281   0.328   3.308  0.6402  2.7407  0.7368
 1283SOL     OW 3984   3.011   2.521   3.269 -0.0122 -0.0576 -0.1482
 1283SOL    HW1 3985   2.974   2.445   3.224  0.1841 -0.1196 -0.2017
 1283SOL    HW2 3986   2.999   2.502   3.362  0.1715 -0.2212 -0.1578
 1284SOL     OW 3987   2.126   3.586   3.199  0.3996  0.2613  0.4142
 1284SOL    HW1 3988   2.049   3.538   3.169 -0.5852  0.7161  2.0960
 1284SOL    HW2 3989   2.167   3.529   3.264  3.0304 -1.1194 -2.1649
 1285SOL     OW 3990   0.816   2.701   1.751  0.7970 -0.2671 -0.0981
 1285SOL    HW1 3991   0.761   2.779   1.747 -0.9558 -1.4722 -2.4195
 1285SOL    HW2 3992   0.885   2.717   1.687  1.1786 -0.1150  0.3505
 1286SOL     OW 3993   2.806   3.264   3.477 -0.0598 -0.3706  0.2891
 1286SOL    HW1 3994   2.755   3.335   3.515  0.9122  1.1319 -1.0626
 1286SOL    HW2 3995   2.890   3.267   3.522 -0.1104 -0.8421  0.4184
 1287SOL     OW 3996   3.653   2.788   0.717  0.2019 -0.6284  0.2325
 1287SOL    HW1 3997   3.679   2.839   0.794 -0.1338 -0.7518  0.4301
 1287SOL    HW2 3998   3.560   2.808   0.706  0.8461  1.8025 -1.9725
 1288SOL     OW 3999   1.518   3.550   1.037  0.7267 -0.2556  0.3378
 1288SOL    HW1 4000   1.455   3.506   1.093  2.0265 -0.7840  1.4380
 1288SOL    HW2 4001   1.589   3.487   1.026  0.9850  0.2320 -1.0706
 1289SOL     OW 4002   1.361   0.474   0.094 -0.3847  0.0263  0.0769
 1289SOL    HW1 4003   1.431   0.536   0.075 -0.2090 -0.3352 -0.4955
 1289SOL    HW2 4004   1.398   0.417   0.162  0.0488 -0.4369 -0.5355
 1290SOL     OW 4005   2.927   3.713   2.851  0.4632  0.3411 -0.2960
 1290SOL    HW1 4006   2.962   3.635   2.895  0.0356 -0.4329 -1.2757
 1290SOL    HW2 4007   2.966   3.711   2.764 -0.5257  0.5101 -0.7617
 1291SOL     OW 4008   0.723   3.052   1.375 -0.2203 -0.8156 -0.2335
 1291SOL    HW1 4009   0.755   3.122   1.319 -3.6367  1.5731  0.4971
 1291SOL    HW2 4010   0.657   3.007   1.322 -0.9582 -0.8050  0.6401
 1292SOL     OW 4011   0.248   0.268   2.929  0.2364  0.1458  0.2325
 1292SOL    HW1 4012   0.278   0.284   3.018 -0.1114 -1.0765  0.5965
 1292SOL    HW2 4013   0.250   0.172   2.920 -2.5416  0.0329 -0.0566
 1293SOL     OW 4014   3.620   3.084   3.247  0.1301  0.0600 -0.0183
 1293SOL    HW1 4015   3.696   3.133   3.279  0.6332 -0.7631  0.1017
 1293SOL    HW2 4016   3.657   3.000   3.218 -0.6175 -0.0309 -0.7586
 1294SOL     OW 4017   2.522   3.377   2.554 -0.3034  0.0501  0.5490
 1294SOL    HW1 4018   2.556   3.429   2.627  2.5094 -0.2342 -0.4397
 1294SOL    HW2 4019   2.595   3.322   2.527 -1.9948 -1.6105 -0.9722
 1295SOL     OW 4020   0.255   0.372   2.246  0.5264  0.0509 -0.3045
 1295SOL    HW1 4021   0.216   0.286   2.230 -0.5034  0.4617 -0.0644
 1295SOL    HW2 4022   0.275   0.405   2.159 -0.3834  0.1462 -0.4919
 1296SOL     OW 4023   0.546   2.385   3.115  0.1060  0.7542  0.4071
 1296SOL    HW1 4024   0.570   2.373   3.023 -0.2586 -0.8525  0.4936
 1296SOL    HW2 4025   0.568   2.302   3.157 -0.5579  1.1511  1.5912
 1297SOL     OW 4026   0.262   0.567   2.930 -0.1685  0.2336  0.4371
 1297SOL    HW1 4027   0.267   0.472   2.921  0.5461  0.3962 -1.3698
 1297SOL    HW2 4028   0.343   0.591   2.975  0.6093  0.1222 -0.8498
 1298SOL     OW 4029   2.774   2.490   0.655  0.0738  0.1720  0.0472
 1298SOL    HW1 4030   2.865   2.519   0.647 -0.0321  0.4185 -0.2803
 1298SOL    HW2 4031   2.780   2.397   0.678  0.4210  0.5518  1.6494
 1299SOL     OW 4032   3.454   0.716   3.052  0.3496  0.2593  0.5940
 1299SOL    HW1 4033   3.548   0.702   3.043  0.3106 -0.4876  1.2469
 1299SOL    HW2 4034   3.416   0.628   3.049 -0.4257  0.6027 -0.6081
 1300SOL     OW 4035   0.442   1.981   1.926  0.6917  0.0494  0.1798
 1300SOL    HW1 4036   0.517   2.001   1.983  2.0341  1.7746 -2.0384
 1300SOL    HW2 4037   0.465   1.899   1.883  1.2952  0.5354 -0.4376
 1301SOL     OW 4038   1.339   1.741   3.626  0.2247  0.2261 -0.1162
 1301SOL    HW1 4039   1.340   1.665   3.567 -3.0522 -1.6755  1.9298
 1301SOL    HW2 4040   1.423   1.737   3.672  0.5411 -1.6030 -0.7663
 1302SOL     OW 4041   1.211   3.223   3.530 -0.2269  0.4074  0.3481
 1302SOL    HW1 4042   1.148   3.160   3.566 -0.5105 -0.0231 -0.8488
 1302SOL    HW2 4043   1.174   3.247   3.445  2.3089 -1.6329 -1.5018
 1303SOL     OW 4044   2.672   2.840   1.798 -0.1561 -0.2275 -0.6035
 1303SOL    HW1 4045   2.614   2.775   1.759 -2.0797  0.8428  0.3448
 1303SOL    HW2 4046   2.681   2.908   1.730 -0.7694  0.0319 -0.4327
 1304SOL     OW 4047   3.568   2.822   1.402 -0.2208 -0.2867 -0.2456
 1304SOL    HW1 4048   3.521   2.739   1.408 -0.9294  0.0295 -1.1237
 1304SOL    HW2 4049   3.620   2.815   1.322  0.9402 -0.4785  0.5073
 1305SOL     OW 4050   0.574   2.115   1.375  0.3695  0.6282  0.0032
 1305SOL    HW1 4051   0.581   2.089   1.467 -0.3315  1.2888  0.2494
 1305SOL    HW2 4052   0.590   2.209   1.376 -1.9261  1.0684 -0.2372
 1306SOL     OW 4053   3.703   1.215   3.404 -0.1585 -0.6583  0.4819
 1306SOL    HW1 4054   3.670   1.242   3.489 -1.7019 -0.9368  0.0170
 1306SOL    HW2 4055   3.766   1.282   3.379  0.8700 -0.9691  2.1505
 1307SOL     OW 4056   2.981   2.498   1.548  0.4099 -0.0808 -0.2651
 1307SOL    HW1 4057   2.910   2.475   1.609 -0.6715  1.8092 -0.7508
 1307SOL    HW2 4058   3.045   2.543   1.602  1.7726 -2.5709  0.3617
 1308SOL     OW 4059   0.223   2.713   1.601 -0.0612  0.8906 -0.3538
 1308SOL    HW1 4060   0.163   2.723   1.527 -1.4911  2.1667  0.8870
 1308SOL    HW2 4061   0.173   2.745   1.676  1.1153 -0.9293  1.2948
 1309SOL     OW 4062   3.108   1.373   1.668  0.3288  0.1205 -0.2775
 1309SOL    HW1 4063   3.188   1.407   1.709  1.5418 -1.9620 -0.7519
 1309SOL    HW2 4064   3.106   1.414   1.582  2.3936 -1.6830 -1.2918
 1310SOL     OW 4065   3.322   2.361   1.190 -0.2537  0.4398  0.3304
 1310SOL    HW1 4066   3.247   2.356   1.249  0.1617  0.9770  0.9166
 1310SOL    HW2 4067   3.302   2.299   1.120 -0.4042 -0.7838  1.4308
 1311SOL     OW 4068   1.160   2.081   3.029  0.2128  0.5382  0.3590
 1311SOL    HW1 4069   1.089   2.119   3.082  1.3322  4.9250 -0.9176
 1311SOL    HW2 4070   1.135   2.101   2.939  0.7880 -2.3244 -0.5196
 1312SOL     OW 4071   0.129   1.684   0.160  0.3717  0.2996  0.4048
 1312SOL    HW1 4072   0.218   1.665   0.190  0.4481 -0.0288 -0.0094
 1312SOL    HW2 4073   0.091   1.598   0.141 -0.0277  0.4399  0.5579
 1313SOL     OW 4074   0.075   2.698   2.773 -0.6489 -0.0464  0.1325
 1313SOL    HW1 4075   0.056   2.792   2.781 -0.9574 -0.1624  0.8888
 1313SOL    HW2 4076   0.144   2.682   2.838 -1.8096 -0.6549  1.2755
 1314SOL     OW 4077   1.748   0.846   0.123 -0.4138  0.0282 -0.0755
 1314SOL    HW1 4078   1.831   0.815   0.087  0.4332  1.8018  0.2078
 1314SOL    HW2 4079   1.757   0.942   0.125 -1.6703  0.1688  1.8314
 1315SOL     OW 4080   3.077   1.103   2.505  0.4352  0.1589  0.0626
 1315SOL    HW1 4081   3.113   1.049   2.576  0.4622 -0.4927 -0.4322
 1315SOL    HW2 4082   3.047   1.183   2.548  1.1144  0.0826  0.7031
 1316SOL     OW 4083   1.751   0.807   2.340 -1.2148 -0.0371 -0.0984
 1316SOL    HW1 4084   1.754   0.859   2.259 -0.1854  0.7966  0.4603
 1316SOL    HW2 4085   1.710   0.864   2.404 -0.1882  0.0519  0.4930
 1317SOL     OW 4086   0.325   2.497   1.113 -1.0255 -0.3809  0.2066
 1317SOL    HW1 4087   0.297   2.487   1.022 -0.5838 -0.7380  0.1021
 1317SOL    HW2 4088   0.366   2.413   1.134  3.3490  1.1633 -0.8811
 1318SOL     OW 4089   3.275   3.594   0.452  0.1068  0.3126  0.0277
 1318SOL    HW1 4090   3.307   3.684   0.458  1.0173  0.0672 -0.9641
 1318SOL    HW2 4091   3.354   3.540   0.455 -0.3970 -0.4298  0.0897
 1319SOL     OW 4092   0.098   1.234   2.670  0.4391  0.1804  0.1234
 1319SOL    HW1 4093   0.116   1.196   2.585  1.1597  0.5907  0.0851
 1319SOL    HW2 4094   0.009   1.206   2.691  0.0952  0.4345 -0.9522
 1320SOL     OW 4095   3.107   1.784   3.642 -0.2603 -0.4801  0.7135
 1320SOL    HW1 4096   3.112   1.789   3.737  0.9383  1.3948  0.5988
 1320SOL    HW2 4097   3.195   1.760   3.614 -0.8366 -2.0031  0.0820
 1321SOL     OW 4098   2.082   1.662   3.512  0.1657 -0.4355 -0.1668
 1321SOL    HW1 4099   2.033   1.719   3.571 -1.7729 -1.8816 -0.2521
 1321SOL    HW2 4100   2.163   1.709   3.495  0.6084  0.3332  3.1946
 1322SOL     OW 4101   2.508   0.412   3.328  0.0071  0.2468  0.4368
 1322SOL    HW1 4102   2.584   0.460   3.296  0.7266 -1.0911  0.0720
 1322SOL    HW2 4103   2.459   0.477   3.379  2.2259  0.7355  2.1092
 1323SOL     OW 4104   2.853   0.918   0.976  0.0537  0.7086  0.2708
 1323SOL    HW1 4105   2.805   0.835   0.976  1.6999 -0.2894 -0.0234
 1323SOL    HW2 4106   2.793   0.981   0.935 -1.4351 -0.1824  1.0124
 1324SOL     OW 4107   1.373   2.498   2.600  0.0874  0.0144  0.2272
 1324SOL    HW1 4108   1.345   2.564   2.664  0.3363 -0.5253  0.9097
 1324SOL    HW2 4109   1.458   2.529   2.568  1.3020 -1.0397  2.2009
 1325SOL     OW 4110   2.507   3.053   1.945  0.1056 -0.2184 -0.4577
 1325SOL    HW1 4111   2.572   3.004   1.896 -0.2551 -0.2389 -0.9242
 1325SOL    HW2 4112   2.553   3.132   1.975 -0.1393  0.7324 -2.4250
 1326SOL     OW 4113   2.015   3.628   3.683  0.4776  0.4613  0.4125
 1326SOL    HW1 4114   2.057   3.665   3.605 -1.4207 -1.4649 -1.6919
 1326SOL    HW2 4115   2.052   3.541   3.691  0.2661  0.4494  1.3479
 1327SOL     OW 4116   1.028   1.045   2.644  0.0906 -0.2078 -0.1901
 1327SOL    HW1 4117   1.073   1.013   2.723  1.2961 -1.1330 -1.2124
 1327SOL    HW2 4118   0.950   0.991   2.637 -0.5533  0.5398  0.8881
 1328SOL     OW 4119   2.005   0.477   3.482  0.7383 -0.6926 -0.0818
 1328SOL    HW1 4120   2.002   0.401   3.540 -0.0768 -0.7370 -0.1572
 1328SOL    HW2 4121   2.074   0.457   3.419 -0.6124 -2.2168 -1.1895
 1329SOL     OW 4122   0.504   3.710   3.076  0.1928 -0.2031  0.3684
 1329SOL    HW1 4123   0.534   3.620   3.058  2.0329  0.0722  1.7287
 1329SOL    HW2 4124   0.585   3.759   3.092 -0.5927  2.2452 -2.3505
 1330SOL     OW 4125   1.938   0.299   2.783  0.3812  0.1872  0.0245
 1330SOL    HW1 4126   1.937   0.325   2.875  0.7515  1.1583 -0.2285
 1330SOL    HW2 4127   1.907   0.377   2.736  2.2053  0.4462 -0.8224
 1331SOL     OW 4128   0.067   1.545   2.775 -0.9111  0.1185  0.0924
 1331SOL    HW1 4129   0.144   1.602   2.782 -0.4420 -0.5234  0.2901
 1331SOL    HW2 4130   0.077   1.502   2.691 -0.8704 -0.2217  0.2697
 1332SOL     OW 4131   0.344   2.656   0.215  0.5847  0.2409  0.2182
 1332SOL    HW1 4132   0.426   2.639   0.262  0.6333 -0.8085 -0.2145
 1332SOL    HW2 4133   0.304   2.569   0.204 -0.7167  0.7485  0.6467
 1333SOL     OW 4134   0.956   0.897   1.191  0.1093  0.5590 -0.0483
 1333SOL    HW1 4135   0.890   0.879   1.258  0.1845  1.1263  0.1898
 1333SOL    HW2 4136   1.010   0.966   1.229 -0.0664  1.1525 -0.8341
 1334SOL     OW 4137   2.912   0.588   0.440 -0.2290 -0.1278  0.2790
 1334SOL    HW1 4138   2.996   0.569   0.398  0.0012 -0.6688  0.9729
 1334SOL    HW2 4139   2.847   0.547   0.383 -0.0461  0.4364 -0.3503
 1335SOL     OW 4140   0.080   0.426   1.800  0.1430  0.0955 -0.4351
 1335SOL    HW1 4141   0.042   0.341   1.778  0.2815  0.1890 -1.0612
 1335SOL    HW2 4142   0.031   0.488   1.747 -1.3664  0.6800  1.5429
 1336SOL     OW 4143   1.997   3.683   1.094 -0.5478 -0.2299  0.0977
 1336SOL    HW1 4144   2.003   3.771   1.057  1.7168 -1.4718 -3.0476
 1336SOL    HW2 4145   2.034   3.690   1.182  0.2162  1.8422 -0.3426
 1337SOL     OW 4146   2.930   0.308   2.806 -1.0530 -0.4732  0.6831
 1337SOL    HW1 4147   2.838   0.293   2.785 -0.3527 -1.8941 -1.6783
 1337SOL    HW2 4148   2.959   0.227   2.848 -0.5264 -0.6622 -0.0162
 1338SOL     OW 4149   3.614   2.935   2.005  0.6204 -0.6161 -0.4751
 1338SOL    HW1 4150   3.579   2.847   1.987  2.7046 -1.7382  0.5446
 1338SOL    HW2 4151   3.645   2.930   2.096 -1.8792  2.1640  0.7061
 1339SOL     OW 4152   2.518   1.474   3.039 -0.9085 -0.2631 -0.5100
 1339SOL    HW1 4153   2.575   1.416   2.989 -0.5312 -1.0340  0.7716
 1339SOL    HW2 4154   2.575   1.546   3.066 -0.4283 -1.1639  0.9924
 1340SOL     OW 4155   3.045   1.183   0.269 -0.1273  0.1148 -0.4014
 1340SOL    HW1 4156   3.047   1.255   0.332  1.2010  0.6020 -0.9691
 1340SOL    HW2 4157   2.975   1.126   0.301 -1.0068  1.4907  0.2284
 1341SOL     OW 4158   2.807   0.088   0.997 -0.3577 -0.1402  0.0250
 1341SOL    HW1 4159   2.860   0.094   0.917  2.1311  0.7746  1.6148
 1341SOL    HW2 4160   2.822  -0.001   1.028 -2.6001 -1.0388 -1.2528
 1342SOL     OW 4161   3.515   2.075   0.859 -0.6247  0.1267 -0.3071
 1342SOL    HW1 4162   3.423   2.092   0.842 -1.0142 -1.2292  0.3568
 1342SOL    HW2 4163   3.516   2.000   0.919  0.8737  0.6825  0.4364
 1343SOL     OW 4164   1.771   2.126   1.037  0.1165  0.2022 -0.1177
 1343SOL    HW1 4165   1.838   2.059   1.019  2.5909  2.6661 -0.6560
 1343SOL    HW2 4166   1.706   2.113   0.967  1.4296 -0.5638 -1.2582
 1344SOL     OW 4167   1.481   0.853   3.568  0.3741 -0.1624  0.5468
 1344SOL    HW1 4168   1.457   0.766   3.601 -0.7099 -0.4010 -0.7859
 1344SOL    HW2 4169   1.429   0.914   3.620 -1.8336 -0.5731 -1.0327
 1345SOL     OW 4170   3.210   3.335   1.965 -0.2375  0.5338  0.2231
 1345SOL    HW1 4171   3.173   3.252   1.935  1.5936 -1.2631  2.5405
 1345SOL    HW2 4172   3.303   3.316   1.978 -0.2223  2.1535  3.2944
 1346SOL     OW 4173   2.047   0.992   1.811 -0.2222 -0.2574 -0.0446
 1346SOL    HW1 4174   2.116   1.044   1.852  0.8359 -0.3219 -1.6549
 1346SOL    HW2 4175   1.972   1.051   1.805  0.9689  1.1444 -1.8822
 1347SOL     OW 4176   0.709   0.647   1.100 -0.2388 -0.5639 -0.3889
 1347SOL    HW1 4177   0.645   0.716   1.082  1.1304  0.5135 -1.3848
 1347SOL    HW2 4178   0.716   0.599   1.017  0.7377 -0.2194 -0.5203
 1348SOL     OW 4179   3.201   0.128   2.870  0.5996  0.3958  0.6167
 1348SOL    HW1 4180   3.265   0.116   2.800  0.0254  0.3264  0.0918
 1348SOL    HW2 4181   3.119   0.094   2.834 -0.1100  1.9624  0.6651
 1349SOL     OW 4182   3.383   1.754   2.886  0.4442 -0.4967 -0.0543
 1349SOL    HW1 4183   3.436   1.768   2.965 -1.9268  0.8440  1.4070
 1349SOL    HW2 4184   3.400   1.831   2.832 -0.4166  0.2201  0.6770
 1350SOL     OW 4185   2.272   1.260   3.735 -0.2828  0.7440  0.4936
 1350SOL    HW1 4186   2.293   1.183   3.683  0.0224 -0.6579  2.5761
 1350SOL    HW2 4187   2.220   1.315   3.676  1.9961  0.4117 -2.0530
 1351SOL     OW 4188   0.212   1.804   0.599  0.5242  0.1406 -0.5460
 1351SOL    HW1 4189   0.118   1.800   0.616  0.6562  0.7503  0.4578
 1351SOL    HW2 4190   0.231   1.725   0.549 -0.6490  0.4029 -1.4437
 1352SOL     OW 4191   0.971   1.912   1.467  0.1623  0.7658  0.2397
 1352SOL    HW1 4192   0.921   1.832   1.478 -0.6674  1.4737  2.0264
 1352SOL    HW2 4193   1.061   1.888   1.487  0.0807  0.0965 -0.1775
 1353SOL     OW 4194   1.284   0.143   1.910 -0.9577 -0.0132  0.4332
 1353SOL    HW1 4195   1.307   0.233   1.886 -0.0363 -0.4641 -0.4426
 1353SOL    HW2 4196   1.243   0.151   1.997 -0.5762  1.2064  0.5168
 1354SOL     OW 4197   1.222   0.634   1.765 -0.2597  0.1534 -0.1609
 1354SOL    HW1 4198   1.166   0.696   1.812 -0.2149 -0.1850  0.3464
 1354SOL    HW2 4199   1.301   0.629   1.819 -0.0857 -0.0131 -0.4315
 1355SOL     OW 4200   0.243   0.667   2.152 -0.1567  0.1262  0.5588
 1355SOL    HW1 4201   0.165   0.679   2.207 -2.0633  0.0161 -1.9739
 1355SOL    HW2 4202   0.252   0.751   2.107  1.9173  0.5181  1.6005
 1356SOL     OW 4203   0.077   2.404   3.584  0.3496 -0.2288  0.1276
 1356SOL    HW1 4204  -0.011   2.411   3.621  0.0529  1.8524 -0.8192
 1356SOL    HW2 4205   0.096   2.310   3.585 -1.1598 -0.5854  1.9413
 1357SOL     OW 4206   1.859   1.641   0.174 -0.3946 -0.5629  0.6795
 1357SOL    HW1 4207   1.921   1.581   0.134 -0.4540 -0.6292  0.6865
 1357SOL    HW2 4208   1.872   1.724   0.127  0.7083 -0.1653  1.6589
 1358SOL     OW 4209   0.449   2.233   0.156 -0.2070 -0.6954  0.1566
 1358SOL    HW1 4210   0.483   2.143   0.154 -0.4870 -0.7982 -0.2124
 1358SOL    HW2 4211   0.378   2.231   0.220  0.2969 -0.5467  0.7248
 1359SOL     OW 4212   3.175   3.285   1.338 -0.1799 -0.6459 -0.5896
 1359SOL    HW1 4213   3.174   3.289   1.434  1.1228 -2.4377 -0.4540
 1359SOL    HW2 4214   3.203   3.373   1.311 -0.8824 -0.0163  0.6289
 1360SOL     OW 4215   2.315   1.842   0.589 -1.0517 -0.4202 -0.5071
 1360SOL    HW1 4216   2.319   1.808   0.500 -0.1273 -0.4301 -0.4738
 1360SOL    HW2 4217   2.280   1.770   0.641 -5.6255  0.8262 -1.4170
 1361SOL     OW 4218   3.056   0.202   1.326  0.6168  0.1994  0.5213
 1361SOL    HW1 4219   3.059   0.153   1.243 -0.4865  0.2584  0.4401
 1361SOL    HW2 4220   3.131   0.168   1.375  0.7170 -0.5434 -0.1120
 1362SOL     OW 4221   1.980   1.111   3.665 -0.1856  0.3848  0.1579
 1362SOL    HW1 4222   1.920   1.185   3.650  0.9287  1.1851 -0.4624
 1362SOL    HW2 4223   1.963   1.085   3.756 -2.2140 -0.1126 -0.3094
 1363SOL     OW 4224   1.587   0.687   1.364 -0.4559 -0.5026  0.0233
 1363SOL    HW1 4225   1.572   0.653   1.453 -0.8569 -1.0070 -0.2335
 1363SOL    HW2 4226   1.671   0.650   1.338  0.5476  1.0620  0.8579
 1364SOL     OW 4227   2.223   3.323   3.334 -0.5092  0.1692 -0.4674
 1364SOL    HW1 4228   2.139   3.295   3.371  0.4427 -1.5786  0.5062
 1364SOL    HW2 4229   2.286   3.259   3.366  1.4956  2.2541  0.0286
 1365SOL     OW 4230   2.303   2.482   3.378 -0.3423  0.1252  0.0059
 1365SOL    HW1 4231   2.237   2.418   3.350  0.7121  0.0193 -2.5209
 1365SOL    HW2 4232   2.258   2.567   3.372 -0.6969 -0.0746 -0.2204
 1366SOL     OW 4233   1.384   1.309   1.270  0.2627 -0.2362 -0.4741
 1366SOL    HW1 4234   1.443   1.273   1.336 -1.6964 -1.7630  0.5390
 1366SOL    HW2 4235   1.383   1.243   1.201 -1.4526 -1.0193  0.2578
 1367SOL     OW 4236   3.421   3.275   1.624  0.7461  0.1229  0.5336
 1367SOL    HW1 4237   3.329   3.283   1.649  0.8946 -1.4173  1.7544
 1367SOL    HW2 4238   3.420   3.227   1.541  0.3488  3.2506 -1.4075
 1368SOL     OW 4239   2.097   1.803   1.872  0.3939 -0.2077 -0.3398
 1368SOL    HW1 4240   2.008   1.787   1.905 -0.1932  2.9581 -0.1070
 1368SOL    HW2 4241   2.154   1.771   1.942 -0.6562  0.3160  0.8009
 1369SOL     OW 4242   3.105   0.047   0.836  0.1064 -0.0802  0.0428
 1369SOL    HW1 4243   3.192   0.079   0.813 -0.4004  1.2033 -0.1825
 1369SOL    HW2 4244   3.073   0.006   0.755  0.3289 -0.1632 -0.0042
 1370SOL     OW 4245   1.106   1.017   0.623 -0.1655 -0.7867  0.2556
 1370SOL    HW1 4246   1.106   0.989   0.714  0.7673 -2.8783 -0.3280
 1370SOL    HW2 4247   1.087   0.937   0.573 -0.6400  0.2994 -1.3888
 1371SOL     OW 4248   1.049   2.640   2.097  0.4577  0.8833 -0.1180
 1371SOL    HW1 4249   1.018   2.643   2.188 -0.4259  0.1196 -0.3831
 1371SOL    HW2 4250   1.107   2.565   2.094  1.3431  1.5455  0.0618
 1372SOL     OW 4251   3.127   2.507   2.426 -0.0509  0.4958 -0.3035
 1372SOL    HW1 4252   3.172   2.429   2.458  0.3395  0.4723 -0.8944
 1372SOL    HW2 4253   3.061   2.473   2.365 -1.2214  0.4905  0.8994
 1373SOL     OW 4254   1.745   3.712   0.946  0.3558 -0.6794  0.3819
 1373SOL    HW1 4255   1.670   3.669   0.987  0.9386 -0.2818  1.9693
 1373SOL    HW2 4256   1.724   3.714   0.853 -2.0517  0.2673  0.8696
 1374SOL     OW 4257   2.835   1.327   1.549 -0.0443  0.4463  0.1094
 1374SOL    HW1 4258   2.860   1.387   1.478  0.2485 -2.0888 -2.0771
 1374SOL    HW2 4259   2.915   1.317   1.601  0.5498  0.2640 -0.8201
 1375SOL     OW 4260   1.149   2.658   1.754 -0.5217 -0.2244 -0.0850
 1375SOL    HW1 4261   1.146   2.612   1.670 -2.6837  1.8663 -1.3037
 1375SOL    HW2 4262   1.099   2.602   1.813  1.9366 -2.2636  0.2440
 1376SOL     OW 4263   1.093   0.030   1.749 -0.1734  0.0370  0.2579
 1376SOL    HW1 4264   1.051  -0.030   1.810  0.1503 -1.7352 -1.1529
 1376SOL    HW2 4265   1.164   0.069   1.798  1.1136 -2.5655  0.6671
 1377SOL     OW 4266   0.572   2.108   2.860  0.0262 -0.1018 -0.2846
 1377SOL    HW1 4267   0.574   2.064   2.945 -0.1699  0.8471  0.2218
 1377SOL    HW2 4268   0.518   2.186   2.875 -0.4638 -0.2063 -1.4175
 1378SOL     OW 4269   2.443   1.199   2.681 -0.7652  0.0417 -0.0048
 1378SOL    HW1 4270   2.380   1.143   2.634 -0.9254 -1.4549  1.8940
 1378SOL    HW2 4271   2.428   1.179   2.773  0.9635  1.3711  0.5996
 1379SOL     OW 4272   3.526   0.762   0.010  0.8763 -0.0738 -0.2883
 1379SOL    HW1 4273   3.491   0.851   0.016 -0.3639 -0.6269  3.9171
 1379SOL    HW2 4274   3.615   0.768   0.044  1.0215 -0.3714 -0.6062
 1380SOL     OW 4275  -0.028   2.938   2.256 -0.2106 -0.0840 -0.5561
 1380SOL    HW1 4276   0.006   2.859   2.296  1.1581 -0.5560 -2.4990
 1380SOL    HW2 4277   0.040   3.004   2.270 -0.6681  0.3383 -0.2636
 1381SOL     OW 4278   0.335   3.094   2.950  0.0020 -0.0291  0.2136
 1381SOL    HW1 4279   0.376   3.167   2.996 -0.3690 -0.3535  1.0899
 1381SOL    HW2 4280   0.279   3.134   2.884  0.7018  0.4459 -0.0916
 1382SOL     OW 4281   0.337   1.936   0.152  0.0887  0.0427 -0.1818
 1382SOL    HW1 4282   0.326   1.841   0.157 -0.7924  0.1641  0.2911
 1382SOL    HW2 4283   0.339   1.955   0.058 -3.1072 -0.1124 -0.4071
 1383SOL     OW 4284   0.407   2.387   0.822 -0.8438 -0.0934 -0.8829
 1383SOL    HW1 4285   0.445   2.334   0.753 -2.3287 -1.6693 -0.5618
 1383SOL    HW2 4286   0.376   2.466   0.778 -0.0006 -0.1728 -1.6438
 1384SOL     OW 4287   3.377   3.272   0.694 -0.2532  0.3863 -0.3186
 1384SOL    HW1 4288   3.391   3.296   0.602 -1.0341  1.4951 -0.1718
 1384SOL    HW2 4289   3.282   3.279   0.706 -0.0612  1.4099  0.8631
 1385SOL     OW 4290   3.113   2.113   0.175  0.2272 -0.2829 -0.6407
 1385SOL    HW1 4291   3.130   2.145   0.087  0.6181 -1.3385 -0.9604
 1385SOL    HW2 4292   3.087   2.022   0.163  1.1717 -0.7128  0.3889
 1386SOL     OW 4293   0.043   0.347   0.911  0.5350 -0.1893  0.2715
 1386SOL    HW1 4294   0.030   0.365   0.818  0.1278 -0.9256  0.1821
 1386SOL    HW2 4295   0.017   0.428   0.954 -1.0461 -0.4468 -0.1404
 1387SOL     OW 4296   1.640   3.052   1.866  0.6399 -0.0704 -0.0411
 1387SOL    HW1 4297   1.709   3.108   1.832  2.4895 -1.7405  0.8122
 1387SOL    HW2 4298   1.647   2.971   1.815 -1.8790  0.2970 -1.1655
 1388SOL     OW 4299   3.313   2.341   0.081 -0.1809  0.0100 -0.1754
 1388SOL    HW1 4300   3.311   2.248   0.105 -1.6967  0.2103  0.5765
 1388SOL    HW2 4301   3.334   2.386   0.163 -1.2315  0.4325 -0.1215
 1389SOL     OW 4302   0.706   1.270   3.628 -0.1112  0.2620  0.4573
 1389SOL    HW1 4303   0.687   1.363   3.638 -0.7973  0.3936 -1.5823
 1389SOL    HW2 4304   0.782   1.266   3.570  1.2670 -0.4469  2.2310
 1390SOL     OW 4305   3.392   0.342   3.551 -0.0653 -0.2836  0.4065
 1390SOL    HW1 4306   3.349   0.360   3.468 -1.3881 -1.8752  0.6996
 1390SOL    HW2 4307   3.473   0.393   3.547 -0.8800  0.9928 -1.1291
 1391SOL     OW 4308   0.334   1.348   1.515  0.6741  0.1745 -0.0898
 1391SOL    HW1 4309   0.359   1.295   1.439  1.2724 -1.3215  1.1107
 1391SOL    HW2 4310   0.377   1.306   1.589  0.7507  2.0547  1.0067
 1392SOL     OW 4311   0.366  -0.014   0.343 -0.0758  0.6735  0.3226
 1392SOL    HW1 4312   0.285   0.004   0.295  0.7237  1.0401 -0.9625
 1392SOL    HW2 4313   0.410   0.071   0.349  0.8115  0.2687 -0.1779
 1393SOL     OW 4314   1.613   0.334   2.366 -0.4838  0.1793  0.2474
 1393SOL    HW1 4315   1.597   0.425   2.344  0.5979  0.5248  0.8033
 1393SOL    HW2 4316   1.702   0.333   2.402 -0.1898 -1.2004 -0.4120
 1394SOL     OW 4317   1.964   0.827   3.658  0.1179  0.0155  0.3117
 1394SOL    HW1 4318   2.033   0.794   3.600 -0.8029  1.8886 -2.0499
 1394SOL    HW2 4319   1.958   0.920   3.637 -4.2005 -0.3214 -0.9549
 1395SOL     OW 4320  -0.009   3.378   2.265 -0.1254  0.1609  0.0263
 1395SOL    HW1 4321  -0.020   3.468   2.236 -0.1345 -0.0659 -0.6886
 1395SOL    HW2 4322   0.035   3.334   2.192  3.1758  0.3838  1.6884
 1396SOL     OW 4323   1.629   1.506   0.034 -0.4263 -0.5691 -0.2821
 1396SOL    HW1 4324   1.678   1.481  -0.044  0.2618 -0.8758  0.2333
 1396SOL    HW2 4325   1.681   1.578   0.072 -0.2056 -1.0950  0.4309
 1397SOL     OW 4326   0.004   1.092   3.055  0.2934 -0.1152 -0.0667
 1397SOL    HW1 4327   0.041   1.013   3.094  0.5186  0.0599  0.0750
 1397SOL    HW2 4328   0.059   1.164   3.088  0.9893 -0.0400 -1.3327
 1398SOL     OW 4329   1.328   2.698   2.335  0.2726  1.2154 -0.7883
 1398SOL    HW1 4330   1.423   2.695   2.329  0.4401  0.2570  1.3789
 1398SOL    HW2 4331   1.298   2.615   2.298  0.5479  0.0999  1.3506
 1399SOL     OW 4332   2.269   0.530   2.689  0.6537 -0.0757 -0.5126
 1399SOL    HW1 4333   2.339   0.535   2.755 -0.6339  1.5704  0.8519
 1399SOL    HW2 4334   2.245   0.438   2.686  3.1049 -0.7856 -1.3540
 1400SOL     OW 4335   2.551   1.095   1.184 -0.5062  0.1242  0.2902
 1400SOL    HW1 4336   2.641   1.100   1.218  0.7519 -2.0997 -2.2943
 1400SOL    HW2 4337   2.525   1.186   1.169  1.6907  0.7946  0.2329
 1401SOL     OW 4338   2.912   0.336   3.187 -0.1837 -0.2507  0.2045
 1401SOL    HW1 4339   2.923   0.320   3.280  0.0931 -1.1974  0.0201
 1401SOL    HW2 4340   2.907   0.249   3.148  0.6486  0.1081 -0.7715
 1402SOL     OW 4341   0.115   3.035   0.284  0.4407  0.5054  0.3260
 1402SOL    HW1 4342   0.043   3.012   0.343 -2.5930  1.7715 -2.5849
 1402SOL    HW2 4343   0.193   3.030   0.339 -1.5691 -2.6105  3.3130
 1403SOL     OW 4344   1.889   0.519   2.226  0.7336 -0.3792 -0.8622
 1403SOL    HW1 4345   1.944   0.497   2.301  0.0209 -1.7434 -0.7186
 1403SOL    HW2 4346   1.842   0.598   2.254  1.0070 -0.4612 -0.1447
 1404SOL     OW 4347   0.733   3.373   2.845 -0.1684  0.0620  0.3099
 1404SOL    HW1 4348   0.715   3.412   2.759 -1.7685  0.0764  0.6133
 1404SOL    HW2 4349   0.806   3.313   2.829 -1.2712 -0.9312 -1.3770
 1405SOL     OW 4350   0.499   3.231   1.345  0.4210 -0.0803 -0.5572
 1405SOL    HW1 4351   0.453   3.163   1.393 -0.5576  0.6600 -0.4165
 1405SOL    HW2 4352   0.592   3.211   1.356  0.1570 -2.4684 -2.0677
 1406SOL     OW 4353   1.669   2.714   0.589  0.1695 -0.2384 -0.3598
 1406SOL    HW1 4354   1.679   2.743   0.498  0.3313 -1.8211 -0.8806
 1406SOL    HW2 4355   1.719   2.632   0.593  0.7487  0.1753  1.3468
 1407SOL     OW 4356   2.212   3.106   0.542  0.0415  0.3080  0.5858
 1407SOL    HW1 4357   2.175   3.021   0.567 -0.3982  0.3816  0.1947
 1407SOL    HW2 4358   2.233   3.096   0.449 -1.5687  1.1623  0.0940
 1408SOL     OW 4359   0.931   0.366   1.309 -0.5039 -0.4477 -0.3275
 1408SOL    HW1 4360   0.960   0.306   1.377 -1.8171  0.7476  1.3808
 1408SOL    HW2 4361   0.877   0.312   1.251 -0.7459 -1.1624  0.5387
 1409SOL     OW 4362   1.872   0.480   0.161  0.3326  0.9538 -0.6342
 1409SOL    HW1 4363   1.964   0.465   0.140  0.6331  2.1065 -0.2171
 1409SOL    HW2 4364   1.832   0.503   0.077  0.3049 -0.0160 -0.9030
 1410SOL     OW 4365   1.609   2.615   2.045  0.5116 -0.9733  0.2687
 1410SOL    HW1 4366   1.563   2.532   2.059  0.2927 -1.0633 -0.8710
 1410SOL    HW2 4367   1.540   2.679   2.029  0.6629 -0.4771  1.5060
 1411SOL     OW 4368   2.317   1.378   1.199  0.4540 -0.2566  0.1976
 1411SOL    HW1 4369   2.230   1.340   1.209  0.2294  0.6907  2.5035
 1411SOL    HW2 4370   2.317   1.417   1.112 -1.4255 -0.2660  0.1556
 1412SOL     OW 4371   2.428   0.032   3.605  0.1542  0.0070 -0.4853
 1412SOL    HW1 4372   2.373   0.109   3.623 -0.2592 -0.0597 -1.4196
 1412SOL    HW2 4373   2.416   0.016   3.512 -0.6976 -1.9047 -0.0919
 1413SOL     OW 4374   1.721   2.868   0.308 -0.4717 -0.6593 -0.0144
 1413SOL    HW1 4375   1.771   2.934   0.356 -1.0033 -1.8154  2.2458
 1413SOL    HW2 4376   1.671   2.918   0.244  1.5721  0.7764 -0.5746
 1414SOL     OW 4377   0.046   0.854   0.091 -0.0599 -0.1285 -0.3243
 1414SOL    HW1 4378   0.014   0.916   0.157  0.3200 -0.8979  0.6234
 1414SOL    HW2 4379   0.103   0.794   0.140  0.1846 -0.7667 -1.3481
 1415SOL     OW 4380   2.555   0.213   1.887  0.2802 -0.2171  0.5781
 1415SOL    HW1 4381   2.471   0.258   1.890  0.4543  0.2284 -0.7980
 1415SOL    HW2 4382   2.593   0.237   1.803  0.8418 -2.1222  0.2305
 1416SOL     OW 4383   2.152   2.724   2.987  0.0834 -0.1293  0.5297
 1416SOL    HW1 4384   2.064   2.756   2.970  0.2054  0.8253  1.5867
 1416SOL    HW2 4385   2.192   2.717   2.900 -1.0082 -0.5315  0.0474
 1417SOL     OW 4386   0.044   0.121   3.502  0.4654  0.4603  0.8999
 1417SOL    HW1 4387   0.095   0.187   3.455  0.6156 -0.9897 -1.1004
 1417SOL    HW2 4388  -0.047   0.138   3.477  0.6935 -1.5987 -1.8838
 1418SOL     OW 4389   0.970   2.797   3.105  0.3230  0.9990  0.2737
 1418SOL    HW1 4390   0.938   2.776   3.192  0.3968  1.0375  0.3098
 1418SOL    HW2 4391   0.987   2.711   3.064 -1.2962  0.9237 -0.2968
 1419SOL     OW 4392   0.313   0.481   0.735  0.0411 -0.6073  0.5112
 1419SOL    HW1 4393   0.312   0.506   0.642  0.8680 -1.6123  0.2149
 1419SOL    HW2 4394   0.295   0.387   0.735  1.2683 -0.8758  1.2592
 1420SOL     OW 4395   2.802   1.037   0.057 -0.3366 -0.2298 -0.4090
 1420SOL    HW1 4396   2.847   1.114   0.022 -0.6127  0.4783  0.7406
 1420SOL    HW2 4397   2.715   1.068   0.080 -0.4367 -0.8738  0.1238
 1421SOL     OW 4398   3.446   3.389   0.436 -0.5722 -0.5621  0.7552
 1421SOL    HW1 4399   3.508   3.369   0.366 -1.9125  0.2678 -0.7266
 1421SOL    HW2 4400   3.367   3.340   0.414 -1.7897  1.4159  0.3675
 1422SOL     OW 4401   1.377   2.196   3.141 -0.4341 -0.6334 -0.2922
 1422SOL    HW1 4402   1.385   2.272   3.083  0.6987 -2.1224 -2.2013
 1422SOL    HW2 4403   1.312   2.140   3.098 -0.2628 -1.3647  0.3841
 1423SOL     OW 4404   1.608   2.515   2.410 -0.0611  0.0649 -0.1859
 1423SOL    HW1 4405   1.685   2.513   2.354  0.4968  1.3195  0.5043
 1423SOL    HW2 4406   1.643   2.514   2.499 -0.9369 -1.9947  0.2102
 1424SOL     OW 4407   2.452   1.955   2.702  0.0316 -0.1892 -0.1891
 1424SOL    HW1 4408   2.359   1.942   2.723  0.1362 -3.4088 -1.2058
 1424SOL    HW2 4409   2.455   1.954   2.606  1.1747 -0.8094 -0.1580
 1425SOL     OW 4410   3.425   2.142   0.344  0.3705 -0.0468 -0.0708
 1425SOL    HW1 4411   3.520   2.150   0.336  0.4663 -0.9418  0.0715
 1425SOL    HW2 4412   3.407   2.175   0.432  0.5714 -0.0384 -0.0301
 1426SOL     OW 4413   2.833   0.206   2.235 -0.1388  0.6718  0.1285
 1426SOL    HW1 4414   2.884   0.286   2.248 -2.7638  2.4301  0.4547
 1426SOL    HW2 4415   2.840   0.159   2.318  1.0721  0.7582  0.0921
 1427SOL     OW 4416   0.767   3.583   0.767  0.4324  0.7808  0.2262
 1427SOL    HW1 4417   0.792   3.544   0.683 -0.4621 -1.7302  1.0300
 1427SOL    HW2 4418   0.781   3.677   0.755  2.3691  0.3006 -1.9957
 1428SOL     OW 4419   1.829   2.545   2.239  0.1153  0.1866 -0.7068
 1428SOL    HW1 4420   1.840   2.476   2.173 -0.1644  0.4147 -0.9911
 1428SOL    HW2 4421   1.796   2.620   2.190 -1.3596 -0.0417 -0.1134
 1429SOL     OW 4422   0.683   3.338   1.630  0.4360 -0.0698 -0.1036
 1429SOL    HW1 4423   0.742   3.413   1.636  2.3087 -1.2472 -2.0642
 1429SOL    HW2 4424   0.733   3.273   1.579 -2.2982 -1.4377 -1.2212
 1430SOL     OW 4425   1.512   3.592   1.775  0.9333 -0.3001 -0.4499
 1430SOL    HW1 4426   1.563   3.674   1.777  0.9490 -0.2845 -1.1047
 1430SOL    HW2 4427   1.450   3.601   1.847 -1.8055  2.0941 -2.8523
 1431SOL     OW 4428   2.758   3.253   2.497 -0.0015 -0.4486 -0.5695
 1431SOL    HW1 4429   2.851   3.265   2.479 -0.1286  0.8787 -0.4776
 1431SOL    HW2 4430   2.726   3.199   2.425  0.9978 -1.6408 -0.1469
 1432SOL     OW 4431   2.272   3.440   2.809  0.4820  0.0019 -0.3706
 1432SOL    HW1 4432   2.178   3.449   2.793  0.4649  1.3333  0.3698
 1432SOL    HW2 4433   2.301   3.375   2.744 -0.9445 -0.4614 -0.5792
 1433SOL     OW 4434   0.516   0.602   3.084  0.0890  1.0971  0.5476
 1433SOL    HW1 4435   0.583   0.650   3.132 -0.4092  0.7932  1.5832
 1433SOL    HW2 4436   0.525   0.512   3.115  1.7177  0.1991 -2.1302
 1434SOL     OW 4437   2.906   0.009   1.998  0.1127 -0.3294 -0.3073
 1434SOL    HW1 4438   2.975  -0.001   2.063  1.3672 -1.7900 -1.7877
 1434SOL    HW2 4439   2.867   0.095   2.017  2.1332  0.4118  0.7390
 1435SOL     OW 4440  -0.023   2.693   1.127  0.3702 -0.2230 -0.6106
 1435SOL    HW1 4441   0.065   2.688   1.165  0.4460 -0.3516 -0.8054
 1435SOL    HW2 4442  -0.028   2.618   1.068 -0.1614 -0.6998  0.0194
 1436SOL     OW 4443   2.301   1.263   2.240 -0.1216  0.2716  0.5333
 1436SOL    HW1 4444   2.265   1.250   2.152  0.2397 -1.4262  0.6005
 1436SOL    HW2 4445   2.320   1.357   2.245 -2.4330  0.8418 -0.2926
 1437SOL     OW 4446   3.518   1.874   2.333 -0.1311  0.1704  0.1553
 1437SOL    HW1 4447   3.577   1.947   2.314 -1.1005  1.1519  0.8003
 1437SOL    HW2 4448   3.478   1.852   2.249 -1.1071  1.5347  0.2429
 1438SOL     OW 4449   1.440   2.325   2.264  0.2909  0.0916 -0.3294
 1438SOL    HW1 4450   1.379   2.316   2.337  1.2342  0.2224  0.4944
 1438SOL    HW2 4451   1.508   2.385   2.296  2.0166 -1.7020 -0.3966
 1439SOL     OW 4452   1.814   0.545   0.634 -0.1465 -0.3375  0.5362
 1439SOL    HW1 4453   1.817   0.621   0.692 -1.2450  0.5530 -0.5259
 1439SOL    HW2 4454   1.721   0.522   0.627  0.0724 -1.1521  0.0451
 1440SOL     OW 4455   1.115   1.722   2.341  0.1124 -0.1825 -0.6053
 1440SOL    HW1 4456   1.183   1.670   2.298 -1.3627 -1.6767 -1.2597
 1440SOL    HW2 4457   1.070   1.766   2.269 -0.3533 -0.1354 -0.2831
 1441SOL     OW 4458   0.476   1.498   3.371 -0.1834  0.0241 -0.3493
 1441SOL    HW1 4459   0.496   1.456   3.288  0.6231 -1.0326  0.3415
 1441SOL    HW2 4460   0.437   1.582   3.348 -1.5284 -0.9530 -1.7845
 1442SOL     OW 4461   2.591   2.457   0.182 -0.2972 -0.4329  0.0556
 1442SOL    HW1 4462   2.646   2.378   0.186 -1.2425 -1.0634  1.8344
 1442SOL    HW2 4463   2.653   2.529   0.175  0.6363 -1.2629 -0.4933
 1443SOL     OW 4464   0.194   2.354   2.893 -0.2021  0.3481  0.1732
 1443SOL    HW1 4465   0.223   2.444   2.909  0.1621  0.4311 -0.8655
 1443SOL    HW2 4466   0.108   2.364   2.851 -1.0395  0.1450  1.7764
 1444SOL     OW 4467   0.236   2.720   1.264  0.5906 -0.2342  0.4015
 1444SOL    HW1 4468   0.281   2.734   1.181  0.3228  0.6295  0.3913
 1444SOL    HW2 4469   0.259   2.631   1.289 -0.1414 -0.8719 -1.1034
 1445SOL     OW 4470   1.359   3.072   1.120  0.0294  0.5536 -0.2571
 1445SOL    HW1 4471   1.350   3.088   1.026  2.5169 -0.6224 -0.7912
 1445SOL    HW2 4472   1.337   2.980   1.131 -2.0109  1.0934  0.6839
 1446SOL     OW 4473   1.152   3.298   1.444  0.0866 -0.2897 -0.2035
 1446SOL    HW1 4474   1.093   3.372   1.427 -1.1900 -1.1820  0.2354
 1446SOL    HW2 4475   1.125   3.231   1.382 -0.8787 -1.5104  1.4546
 1447SOL     OW 4476   2.046   1.224   3.228 -0.7478 -0.3439 -0.3558
 1447SOL    HW1 4477   2.010   1.198   3.143 -3.4320 -0.0812  0.5916
 1447SOL    HW2 4478   2.056   1.319   3.222 -1.6036 -0.2372 -0.1660
 1448SOL     OW 4479   0.613   3.180   0.934 -0.3500  0.1056  0.3141
 1448SOL    HW1 4480   0.700   3.198   0.897  0.7745 -1.0507  2.2639
 1448SOL    HW2 4481   0.592   3.258   0.985 -0.1965  0.1487  0.3117
 1449SOL     OW 4482   0.885   2.260   1.175  0.2872  0.5534 -0.2968
 1449SOL    HW1 4483   0.904   2.354   1.170 -4.6554  1.8054 -0.2814
 1449SOL    HW2 4484   0.886   2.240   1.269 -2.1652  1.6447  0.0396
 1450SOL     OW 4485   0.825   1.249   0.221 -0.4917  0.1164 -0.4914
 1450SOL    HW1 4486   0.807   1.175   0.163 -1.6256 -0.1093  0.1199
 1450SOL    HW2 4487   0.918   1.268   0.207 -0.3257 -1.0355 -1.1005
 1451SOL     OW 4488   1.328   1.599   1.718  0.3845  0.0837  0.3647
 1451SOL    HW1 4489   1.394   1.579   1.652 -1.1313  0.8056 -1.4637
 1451SOL    HW2 4490   1.378   1.635   1.792  2.0017  1.3438 -1.2331
 1452SOL     OW 4491   0.872   0.293   0.755  0.1886  0.1588  0.7271
 1452SOL    HW1 4492   0.778   0.279   0.764  0.0611  0.0815 -0.5244
 1452SOL    HW2 4493   0.906   0.207   0.728  0.3175  0.6525 -0.7622
 1453SOL     OW 4494   1.991   1.311   2.982  0.0301  0.0550  0.7712
 1453SOL    HW1 4495   1.957   1.318   2.893 -1.1737 -1.7871  1.0310
 1453SOL    HW2 4496   2.008   1.401   3.009 -0.8520  0.7374 -0.8288
 1454SOL     OW 4497   1.104   1.823   2.043  0.0049 -0.1985  0.0145
 1454SOL    HW1 4498   1.126   1.842   1.952  1.1164 -0.5420  0.1935
 1454SOL    HW2 4499   1.057   1.901   2.073  2.3905  1.3495  0.0398
 1455SOL     OW 4500   0.073   2.744   2.457  0.1279  0.1762 -0.0735
 1455SOL    HW1 4501   0.082   2.707   2.545  0.4422 -0.7792 -0.4940
 1455SOL    HW2 4502   0.163   2.757   2.427  0.0177  1.0115 -0.0495
 1456SOL     OW 4503   0.883   1.451   3.042  0.0372  0.0289 -0.2296
 1456SOL    HW1 4504   0.912   1.536   3.009  0.4689 -0.0901 -0.1645
 1456SOL    HW2 4505   0.874   1.464   3.136 -1.5679  0.4771 -0.4122
 1457SOL     OW 4506   2.130   0.583   1.383  0.5530  0.5364 -0.3896
 1457SOL    HW1 4507   2.142   0.518   1.314 -2.1409 -1.9640  1.2724
 1457SOL    HW2 4508   2.180   0.549   1.457 -2.4177 -0.9075  1.1250
 1458SOL     OW 4509   2.900   2.712   2.027  0.1842  0.3728  0.2402
 1458SOL    HW1 4510   2.962   2.722   2.099  0.6150  1.0205 -0.1977
 1458SOL    HW2 4511   2.879   2.619   2.025  1.0732  0.1567  0.4635
 1459SOL     OW 4512   2.432   1.616   1.268 -0.0777  0.0644 -0.5356
 1459SOL    HW1 4513   2.398   1.530   1.295 -0.7582 -0.3549 -2.5267
 1459SOL    HW2 4514   2.481   1.647   1.344 -0.7177 -1.5956  0.6352
 1460SOL     OW 4515   1.308   1.561   2.021  0.2082 -0.1008  0.2941
 1460SOL    HW1 4516   1.243   1.540   2.088 -0.2849 -0.8785 -0.4100
 1460SOL    HW2 4517   1.256   1.577   1.942  0.8359 -0.1623 -0.1356
 1461SOL     OW 4518   0.581   2.276   1.003 -0.5605 -0.1856 -0.1663
 1461SOL    HW1 4519   0.620   2.357   0.968  0.8515 -1.1913 -1.0426
 1461SOL    HW2 4520   0.506   2.259   0.946 -0.3091  0.0230 -0.5686
 1462SOL     OW 4521   2.932   2.055   3.654 -0.6563 -0.1916  0.3636
 1462SOL    HW1 4522   3.007   2.047   3.596  0.2829  2.2245  1.1372
 1462SOL    HW2 4523   2.865   2.098   3.601 -0.7627 -0.4581  0.2811
 1463SOL     OW 4524   1.982   2.632   1.651  0.5061  0.1745 -0.3988
 1463SOL    HW1 4525   2.075   2.651   1.662  0.5402 -1.2910  2.9781
 1463SOL    HW2 4526   1.978   2.538   1.634 -0.3723  0.3307 -1.1644
 1464SOL     OW 4527   2.013   1.681   2.502 -0.0482  0.6428  0.2548
 1464SOL    HW1 4528   2.078   1.641   2.445  1.1798 -2.6378  3.5709
 1464SOL    HW2 4529   2.051   1.765   2.527  0.0901  1.4328 -2.2495
 1465SOL     OW 4530   2.855   2.834   0.739  0.7078  0.1662 -0.2566
 1465SOL    HW1 4531   2.865   2.864   0.829  0.5251  1.1563 -0.5537
 1465SOL    HW2 4532   2.776   2.779   0.741 -0.2630  1.5321 -0.1231
 1466SOL     OW 4533   2.606   3.088   0.445  0.4378  0.0492 -0.6384
 1466SOL    HW1 4534   2.586   3.119   0.533  0.6122  0.9436 -0.9054
 1466SOL    HW2 4535   2.561   3.149   0.387  0.4878 -0.4163 -1.1772
 1467SOL     OW 4536   3.105   1.301   3.510 -0.6445  0.3389  0.0682
 1467SOL    HW1 4537   3.179   1.357   3.484 -0.8263  0.7321  0.3969
 1467SOL    HW2 4538   3.113   1.224   3.454 -0.1898  0.5395 -0.1476
 1468SOL     OW 4539   2.853   3.185   0.426  0.5440  0.0645 -0.2899
 1468SOL    HW1 4540   2.858   3.220   0.337 -0.1107  0.2147 -0.2785
 1468SOL    HW2 4541   2.771   3.135   0.426  1.7587 -1.9854 -0.4814
 1469SOL     OW 4542   1.637   2.417   0.933  0.1217  0.7909 -0.5031
 1469SOL    HW1 4543   1.614   2.336   0.979  1.6927  0.2168 -0.6381
 1469SOL    HW2 4544   1.688   2.467   0.997 -0.1002  1.2877 -0.7109
 1470SOL     OW 4545   1.763   3.274   2.927  0.3131 -0.0947 -0.2750
 1470SOL    HW1 4546   1.786   3.211   2.859 -0.2723  0.7303 -1.2500
 1470SOL    HW2 4547   1.688   3.322   2.892  0.1927  0.5505  0.8191
 1471SOL     OW 4548   3.730   2.230   0.978 -0.0320  0.2720  0.3382
 1471SOL    HW1 4549   3.694   2.317   0.993  0.1660  0.6917 -1.4305
 1471SOL    HW2 4550   3.661   2.182   0.932  0.7411  0.3282 -0.9490
 1472SOL     OW 4551   2.273   0.715   3.668 -0.7072 -0.0067 -0.6696
 1472SOL    HW1 4552   2.294   0.637   3.719 -1.0540 -0.0867 -0.6508
 1472SOL    HW2 4553   2.274   0.787   3.731 -0.4102  0.0026 -0.6832
 1473SOL     OW 4554   0.411   3.669   0.631 -0.2137 -0.0217 -0.5177
 1473SOL    HW1 4555   0.465   3.597   0.666 -0.9811 -0.2282  0.2854
 1473SOL    HW2 4556   0.321   3.641   0.648 -0.5137  1.5466  0.7287
 1474SOL     OW 4557   1.135   1.271   0.186 -0.2247  0.9186  0.0403
 1474SOL    HW1 4558   1.141   1.197   0.247  0.8288  1.9940  1.2832
 1474SOL    HW2 4559   1.210   1.260   0.128 -1.2541 -0.1320 -1.1761
 1475SOL     OW 4560   1.681   3.054   2.391  0.6067  0.1617  0.7596
 1475SOL    HW1 4561   1.658   3.090   2.305 -0.2963  1.3652  1.4750
 1475SOL    HW2 4562   1.719   3.128   2.438  1.6650 -0.6444  1.2013
 1476SOL     OW 4563   1.181   0.081   2.473  0.1472  0.9586  0.0117
 1476SOL    HW1 4564   1.140  -0.006   2.466  1.0080  0.4987  0.5206
 1476SOL    HW2 4565   1.275   0.063   2.480  0.4553  1.9936 -1.1311
 1477SOL     OW 4566   3.177   3.694   1.494  0.0121 -0.5933 -0.8853
 1477SOL    HW1 4567   3.238   3.760   1.526  0.5199 -1.6259  0.4012
 1477SOL    HW2 4568   3.098   3.706   1.546  0.5203 -1.7095  0.1897
 1478SOL     OW 4569   2.023   0.917   0.232 -0.1464  0.4087  0.2679
 1478SOL    HW1 4570   2.013   0.826   0.259  0.5134  0.2106 -0.1141
 1478SOL    HW2 4571   1.998   0.968   0.308 -0.1340 -0.1045  0.6189
 1479SOL     OW 4572   3.279   3.528   1.281  0.0144  0.1060 -0.2979
 1479SOL    HW1 4573   3.369   3.549   1.259  0.3939 -0.4159  0.6975
 1479SOL    HW2 4574   3.255   3.591   1.349  0.2852 -0.9450  0.8107
 1480SOL     OW 4575   1.831   1.840   3.121 -0.4893 -0.4542  0.1478
 1480SOL    HW1 4576   1.770   1.854   3.048  1.0373 -1.5994 -1.4336
 1480SOL    HW2 4577   1.878   1.923   3.128 -0.4630 -0.4163 -0.3870
 1481SOL     OW 4578   0.154   0.083   2.559 -0.1323  0.0789  0.2012
 1481SOL    HW1 4579   0.111  -0.002   2.552 -1.1721  0.6289 -0.1851
 1481SOL    HW2 4580   0.211   0.087   2.482 -0.1753 -0.2132  0.1528
 1482SOL     OW 4581   2.547   1.013   2.923 -0.7789  0.1381 -0.0168
 1482SOL    HW1 4582   2.630   0.998   2.969 -2.7415 -0.2363  3.7651
 1482SOL    HW2 4583   2.525   0.929   2.884  0.3353  0.1122 -0.6291
 1483SOL     OW 4584   2.571   0.573   1.717 -0.1617  0.1570 -0.1157
 1483SOL    HW1 4585   2.508   0.599   1.784 -1.6593 -0.2701 -1.2929
 1483SOL    HW2 4586   2.621   0.503   1.758 -2.1565 -1.2592  0.0702
 1484SOL     OW 4587   1.719   1.968   1.795 -0.2616  0.3215  0.1862
 1484SOL    HW1 4588   1.776   1.899   1.830 -0.3991  0.7756  1.3717
 1484SOL    HW2 4589   1.631   1.940   1.819 -0.4046  0.3837 -0.2681
 1485SOL     OW 4590   0.169   1.322   3.117  0.5906  0.5666  0.5528
 1485SOL    HW1 4591   0.202   1.401   3.075  0.6145  0.2250 -0.0965
 1485SOL    HW2 4592   0.214   1.318   3.201  0.2614  1.4664  0.7811
 1486SOL     OW 4593   3.704   2.232   0.141 -0.0973  0.1045 -0.1473
 1486SOL    HW1 4594   3.774   2.230   0.206  0.2530  0.9018 -0.4977
 1486SOL    HW2 4595   3.690   2.324   0.123 -1.9549  0.0164  0.6675
 1487SOL     OW 4596   1.815   2.924   1.274 -0.1912  0.1785 -0.4160
 1487SOL    HW1 4597   1.727   2.888   1.277 -0.0307 -0.3705 -1.7782
 1487SOL    HW2 4598   1.864   2.874   1.339 -0.6379 -0.1906 -0.3617
 1488SOL     OW 4599   2.616   0.169   3.263 -0.0712  0.3038 -0.3772
 1488SOL    HW1 4600   2.585   0.260   3.256  1.5709  0.7859 -2.1631
 1488SOL    HW2 4601   2.672   0.157   3.187  1.8397 -1.3832  1.2044
 1489SOL     OW 4602   0.276   0.571   3.310 -0.1417 -1.0030  0.4429
 1489SOL    HW1 4603   0.199   0.556   3.256 -1.1315  2.3725  0.6760
 1489SOL    HW2 4604   0.340   0.612   3.251 -0.3469  0.5009  1.1939
 1490SOL     OW 4605   1.138   2.217   1.007 -0.1752 -0.0797 -0.1736
 1490SOL    HW1 4606   1.121   2.235   1.100  2.0483 -1.9113  0.6923
 1490SOL    HW2 4607   1.137   2.122   1.001  3.4467 -0.1834 -1.1478
 1491SOL     OW 4608   2.819   1.950   0.215  0.0191  0.0403  0.3506
 1491SOL    HW1 4609   2.890   1.957   0.152 -0.5254  3.8187 -0.0596
 1491SOL    HW2 4610   2.750   1.903   0.167  0.2627  1.2433 -1.2650
 1492SOL     OW 4611   1.391   1.481   0.247 -0.0364  1.4200  0.3695
 1492SOL    HW1 4612   1.430   1.415   0.189  1.4951  1.1927  1.5778
 1492SOL    HW2 4613   1.448   1.558   0.237 -0.9776  2.0878  0.0387
 1493SOL     OW 4614   0.494   3.613   3.705 -0.0086 -0.8026 -1.0023
 1493SOL    HW1 4615   0.412   3.585   3.665 -1.2466 -0.0240  0.8309
 1493SOL    HW2 4616   0.523   3.536   3.755  1.0541 -1.4723 -2.5845
 1494SOL     OW 4617   2.279   2.606   0.063  0.1137 -0.0693 -0.2562
 1494SOL    HW1 4618   2.289   2.535  -0.001 -0.5234 -1.0515  0.6921
 1494SOL    HW2 4619   2.367   2.617   0.100 -0.0739 -1.5378  0.7435
 1495SOL     OW 4620   0.374   1.601   3.685  0.6659  0.1554 -0.0860
 1495SOL    HW1 4621   0.388   1.598   3.780  0.1855 -1.6480 -0.0334
 1495SOL    HW2 4622   0.370   1.694   3.664 -3.4727  0.7802  2.3685
 1496SOL     OW 4623   1.054   3.514   2.968 -0.1086 -0.4949  0.2530
 1496SOL    HW1 4624   1.144   3.503   2.936 -0.2806  0.1974 -0.4979
 1496SOL    HW2 4625   1.027   3.425   2.991  0.6750 -0.7486  0.2517
 1497SOL     OW 4626   0.706   2.947   1.660  0.0584 -0.5055  0.4229
 1497SOL    HW1 4627   0.640   2.929   1.593 -0.9885 -0.8235  1.4955
 1497SOL    HW2 4628   0.769   3.005   1.617 -0.4797 -0.8541 -0.8782
 1498SOL     OW 4629   3.012   0.654   2.747  0.8918 -0.5449 -0.2553
 1498SOL    HW1 4630   3.080   0.703   2.700 -2.3484  3.2656 -1.5023
 1498SOL    HW2 4631   2.947   0.633   2.680 -1.5865  0.7271  1.5793
 1499SOL     OW 4632   0.751   0.018   1.883  0.7279  0.9530  0.0950
 1499SOL    HW1 4633   0.781  -0.029   1.960 -1.5890  0.7560  0.9370
 1499SOL    HW2 4634   0.780   0.109   1.898 -1.2632  1.3305  2.1686
 1500SOL     OW 4635   0.788   2.212   1.826  0.3725 -0.3708  0.0766
 1500SOL    HW1 4636   0.731   2.138   1.848  0.9364 -1.1691 -1.0250
 1500SOL    HW2 4637   0.853   2.175   1.765  1.7535  0.6290  0.8829
 1501SOL     OW 4638   3.188   0.371   0.008 -0.4590 -0.3529 -0.3359
 1501SOL    HW1 4639   3.215   0.450   0.054 -0.4114  0.0116 -0.9799
 1501SOL    HW2 4640   3.264   0.346  -0.045 -0.4297 -0.9026 -0.0424
 1502SOL     OW 4641   2.954   0.778   2.096  0.4054 -0.2119  0.6306
 1502SOL    HW1 4642   2.962   0.828   2.178 -1.3433 -0.9968  1.3235
 1502SOL    HW2 4643   2.884   0.823   2.048 -0.6015 -1.4660  0.8886
 1503SOL     OW 4644   2.503   1.383   2.502 -0.4940  0.4856 -0.3758
 1503SOL    HW1 4645   2.459   1.319   2.558 -0.6905  0.7382 -0.2436
 1503SOL    HW2 4646   2.591   1.347   2.490 -0.4890  0.3707 -0.0085
 1504SOL     OW 4647   3.467   2.467   3.607  0.2483 -0.1080 -0.2200
 1504SOL    HW1 4648   3.413   2.410   3.661 -0.5603  0.6242 -0.2265
 1504SOL    HW2 4649   3.427   2.554   3.616  0.2619  0.0985 -1.7488
 1505SOL     OW 4650   0.072   3.226   2.504 -0.5419 -0.3012  0.3538
 1505SOL    HW1 4651   0.166   3.210   2.504 -0.8965 -2.6320  0.2850
 1505SOL    HW2 4652   0.056   3.274   2.423  0.5879  0.3529  0.4923
 1506SOL     OW 4653   1.164   2.087   0.641 -0.7496 -0.1134 -0.3877
 1506SOL    HW1 4654   1.115   2.090   0.559 -1.0299  0.8275 -0.1972
 1506SOL    HW2 4655   1.107   2.130   0.705 -0.4270 -0.6091  0.2439
 1507SOL     OW 4656   2.144   2.846   2.437  0.4637 -0.4470  0.2586
 1507SOL    HW1 4657   2.165   2.852   2.344 -1.4260  0.4012 -0.1616
 1507SOL    HW2 4658   2.058   2.806   2.440  0.7741 -1.0894  1.7129
 1508SOL     OW 4659   0.522   0.951   2.124 -0.2753  0.6300 -0.0843
 1508SOL    HW1 4660   0.444   0.953   2.069  1.6232  1.0578 -3.0049
 1508SOL    HW2 4661   0.523   1.035   2.168 -0.2285  1.6712 -1.9774
 1509SOL     OW 4662   1.189   3.272   3.245  0.2658  0.3778  0.2658
 1509SOL    HW1 4663   1.211   3.364   3.257  0.0503  0.2849  1.5714
 1509SOL    HW2 4664   1.272   3.230   3.220  0.0604  1.1341 -1.8611
 1510SOL     OW 4665   1.047   3.542   1.387 -0.2721 -0.2670 -0.0536
 1510SOL    HW1 4666   0.981   3.552   1.456  2.2003 -1.0843  2.6236
 1510SOL    HW2 4667   1.075   3.631   1.367 -2.4721  0.1518 -1.6807
 1511SOL     OW 4668   2.739   2.378   0.951  0.3270 -0.1437  0.8369
 1511SOL    HW1 4669   2.721   2.373   0.857 -0.4365  0.2931  0.9504
 1511SOL    HW2 4670   2.699   2.460   0.979  1.1141  0.0540  1.4321
 1512SOL     OW 4671   1.956   3.341   1.440  0.2680  0.2903 -0.9451
 1512SOL    HW1 4672   2.004   3.318   1.360  0.1637 -0.5990 -0.7650
 1512SOL    HW2 4673   1.865   3.327   1.417  0.3398 -1.8357 -0.1185
 1513SOL     OW 4674   2.474   2.100   0.900  0.6505 -0.0675 -0.2510
 1513SOL    HW1 4675   2.483   2.135   0.811  1.8266 -1.4821 -0.7320
 1513SOL    HW2 4676   2.389   2.133   0.930  1.1348  2.1112 -1.0912
 1514SOL     OW 4677   2.629   0.665   2.743  0.1943 -0.4879 -0.0197
 1514SOL    HW1 4678   2.637   0.570   2.755  0.6807 -0.3252  1.0870
 1514SOL    HW2 4679   2.608   0.675   2.651 -2.3779 -1.7922  0.3250
 1515SOL     OW 4680   3.648   3.485   0.731  0.1364  0.0823 -0.0507
 1515SOL    HW1 4681   3.556   3.501   0.750  0.1769  0.2795 -0.0169
 1515SOL    HW2 4682   3.650   3.455   0.640  0.0309 -0.0030 -0.0244
 1516SOL     OW 4683   1.554   0.304   1.604  0.2306  0.3280 -0.0401
 1516SOL    HW1 4684   1.564   0.314   1.509  3.1008  1.5642  0.2727
 1516SOL    HW2 4685   1.560   0.394   1.637 -0.6610 -0.0995  1.3326
 1517SOL     OW 4686   2.202   2.285   0.500 -0.1971  0.6653  0.3532
 1517SOL    HW1 4687   2.245   2.234   0.568  0.1929  1.6876  0.8890
 1517SOL    HW2 4688   2.209   2.376   0.529 -1.9411  0.9512  0.0298
 1518SOL     OW 4689   0.668   3.527   3.484 -0.0666  0.2655 -0.0186
 1518SOL    HW1 4690   0.718   3.459   3.528 -0.8537 -0.9930 -1.0078
 1518SOL    HW2 4691   0.619   3.570   3.555 -1.4632 -1.8483  0.3833
 1519SOL     OW 4692   0.973   0.491   0.234  0.1221  0.3886  0.4788
 1519SOL    HW1 4693   1.054   0.479   0.284  0.4116  1.9500  0.4321
 1519SOL    HW2 4694   0.956   0.585   0.239  0.0588  0.5819 -2.2244
 1520SOL     OW 4695   1.601   2.965   0.083  0.8576  0.3359  0.0186
 1520SOL    HW1 4696   1.518   2.919   0.069  0.8752  0.0214  0.8693
 1520SOL    HW2 4697   1.603   3.032   0.015 -0.1432  0.4081  0.0448
 1521SOL     OW 4698   0.670   3.655   1.321  0.0392  0.0481  0.1175
 1521SOL    HW1 4699   0.591   3.653   1.376  0.3243  0.8129  0.5617
 1521SOL    HW2 4700   0.714   3.737   1.344  0.4086  0.1521 -0.9243
 1522SOL     OW 4701   1.665   1.054   0.739  0.0845  0.4101 -0.1339
 1522SOL    HW1 4702   1.729   1.027   0.673  0.1913  0.6521 -0.1272
 1522SOL    HW2 4703   1.609   0.977   0.749 -1.4407  1.1595 -2.2854
 1523SOL     OW 4704   3.657   0.501   2.071  0.3622  0.2269 -0.0872
 1523SOL    HW1 4705   3.647   0.596   2.068 -1.8585  0.0312 -1.6320
 1523SOL    HW2 4706   3.698   0.478   1.988 -1.9056 -0.3217 -1.1461
 1524SOL     OW 4707   2.588   3.702   2.270  0.4023  0.1784  0.5781
 1524SOL    HW1 4708   2.590   3.767   2.199 -1.5211 -0.3706 -0.0373
 1524SOL    HW2 4709   2.661   3.644   2.250  2.1775  2.0840  1.1505
 1525SOL     OW 4710   0.608   3.235   3.558  0.0017  0.1901  0.3892
 1525SOL    HW1 4711   0.632   3.222   3.650 -1.3670 -1.6201  0.5308
 1525SOL    HW2 4712   0.692   3.249   3.514  1.1695 -3.0567  1.3061
 1526SOL     OW 4713   1.521   2.460   3.494  0.0521 -0.4314 -0.3488
 1526SOL    HW1 4714   1.454   2.431   3.432  1.0533 -0.8114 -1.2971
 1526SOL    HW2 4715   1.556   2.379   3.532  2.7123 -0.6371 -2.8534
 1527SOL     OW 4716   1.731   3.046   0.739 -0.4706 -0.3666 -0.1899
 1527SOL    HW1 4717   1.640   3.057   0.767  0.1950 -0.8913  2.3512
 1527SOL    HW2 4718   1.768   3.134   0.744  0.5033 -0.8204  4.1363
 1528SOL     OW 4719   0.667   1.033   0.083  0.0636 -0.0130  0.5533
 1528SOL    HW1 4720   0.679   1.098   0.014 -0.3680 -0.0127  0.4782
 1528SOL    HW2 4721   0.716   0.957   0.053 -2.3153 -1.0098 -1.0819
 1529SOL     OW 4722   2.460   2.833   0.649  0.3108  0.0555  0.5053
 1529SOL    HW1 4723   2.430   2.755   0.696 -1.2727  0.3774  0.1143
 1529SOL    HW2 4724   2.476   2.898   0.717  0.8871 -0.3727  0.7833
 1530SOL     OW 4725   0.328   2.307   3.669  0.0057 -0.5670 -0.1570
 1530SOL    HW1 4726   0.378   2.283   3.747  0.5179  0.1096 -0.2767
 1530SOL    HW2 4727   0.390   2.351   3.612 -0.4445 -0.7597 -0.8170
 1531SOL     OW 4728   0.769   2.013   3.349  0.3021  0.1823  0.9053
 1531SOL    HW1 4729   0.830   2.024   3.422  0.2976 -0.0595  0.9481
 1531SOL    HW2 4730   0.751   1.919   3.347  0.9340  0.0705  0.0810
 1532SOL     OW 4731   0.066   3.383   0.933  0.2960  0.1083 -0.7103
 1532SOL    HW1 4732  -0.002   3.417   0.875 -0.0837  0.5319 -0.0257
 1532SOL    HW2 4733   0.018   3.346   1.007  0.6946 -1.8409 -1.3592
 1533SOL     OW 4734   2.155   1.010   1.148  0.0278  0.7619  0.0493
 1533SOL    HW1 4735   2.195   1.077   1.093  0.2400  1.2480  0.7823
 1533SOL    HW2 4736   2.210   0.932   1.136  2.1713  1.8288  2.2017
 1534SOL     OW 4737   2.695   0.493   3.116 -0.2210 -0.2942  0.1734
 1534SOL    HW1 4738   2.719   0.579   3.150 -0.8104  0.2684 -0.7688
 1534SOL    HW2 4739   2.772   0.438   3.132  0.8785  0.8946 -0.8526
 1535SOL     OW 4740   1.400   3.122   2.509  0.8530  0.1715 -0.4091
 1535SOL    HW1 4741   1.448   3.060   2.563 -0.7289  0.2176  1.1454
 1535SOL    HW2 4742   1.352   3.068   2.446  0.5340 -0.1061  0.0647
 1536SOL     OW 4743   3.152   0.075   3.630  0.0532 -0.1220 -0.7238
 1536SOL    HW1 4744   3.231   0.059   3.579  1.6865 -1.8830  2.1311
 1536SOL    HW2 4745   3.182   0.123   3.707 -1.8676  0.1083 -0.0556
 1537SOL     OW 4746   3.466   3.553   1.091 -1.0395 -0.0756 -0.6930
 1537SOL    HW1 4747   3.560   3.564   1.107 -0.5268 -2.6125 -1.4875
 1537SOL    HW2 4748   3.453   3.588   1.003 -0.4575 -1.2653 -1.2739
 1538SOL     OW 4749   1.272   2.275   2.728 -0.0917  0.0808  0.5828
 1538SOL    HW1 4750   1.326   2.333   2.674  1.0218 -0.9872  0.5139
 1538SOL    HW2 4751   1.287   2.188   2.692 -0.5773 -0.4457  1.6253
 1539SOL     OW 4752   2.776   0.663   0.887  0.2690  0.6637 -0.3992
 1539SOL    HW1 4753   2.781   0.731   0.820  1.1314 -0.3665 -1.4259
 1539SOL    HW2 4754   2.687   0.630   0.881  0.0584  1.2239 -0.3809
 1540SOL     OW 4755   2.413   1.596   3.701 -0.0702 -0.2280 -0.9806
 1540SOL    HW1 4756   2.504   1.628   3.707 -0.2994  0.3993 -0.7227
 1540SOL    HW2 4757   2.382   1.632   3.618 -0.1427 -0.2810 -0.9757
 1541SOL     OW 4758   0.387   1.991   0.717  0.4075 -0.4439 -0.1049
 1541SOL    HW1 4759   0.315   1.956   0.665  0.2221 -0.1710 -0.0337
 1541SOL    HW2 4760   0.348   2.063   0.766  0.6113 -0.6254  0.3239
 1542SOL     OW 4761   1.989   1.904   0.308 -0.8132 -0.1027  0.6593
 1542SOL    HW1 4762   2.034   1.819   0.313  0.2008  0.2912 -0.9035
 1542SOL    HW2 4763   2.048   1.964   0.354 -0.3780  0.1598 -0.2169
 1543SOL     OW 4764   0.639   2.120   2.093 -0.0530  0.0569  0.3180
 1543SOL    HW1 4765   0.629   2.215   2.094  1.8305  0.3906 -2.3588
 1543SOL    HW2 4766   0.703   2.102   2.162 -0.0201  0.7932  0.4878
 1544SOL     OW 4767   1.834   2.167   0.390  0.6720 -0.5540  0.2058
 1544SOL    HW1 4768   1.859   2.086   0.347 -0.2226 -0.3720 -0.7044
 1544SOL    HW2 4769   1.757   2.197   0.342  0.8248  0.6967  0.6917
 1545SOL     OW 4770   3.482   0.433   3.005  0.1478 -0.5373  0.0518
 1545SOL    HW1 4771   3.544   0.382   2.953 -0.6911 -0.6407 -0.8788
 1545SOL    HW2 4772   3.410   0.372   3.024 -0.3800  0.0062 -0.1817
 1546SOL     OW 4773   1.609   3.336   0.145 -0.2961  0.1900 -0.2053
 1546SOL    HW1 4774   1.527   3.330   0.194 -1.1170  0.7314 -1.4532
 1546SOL    HW2 4775   1.582   3.328   0.054  0.7544  2.6394 -0.8035
 1547SOL     OW 4776   2.310   1.207   0.289 -0.3864 -0.2286  0.0945
 1547SOL    HW1 4777   2.308   1.300   0.310  0.3336 -0.1235 -0.2692
 1547SOL    HW2 4778   2.350   1.203   0.202 -0.1526 -0.8916  0.2283
 1548SOL     OW 4779   0.992   2.706   0.319 -0.0363 -0.3666  0.1860
 1548SOL    HW1 4780   0.954   2.642   0.379  0.2289  0.3232  1.1123
 1548SOL    HW2 4781   0.919   2.763   0.296  0.1300  0.1369  0.8806
 1549SOL     OW 4782   1.268   3.155   2.957  0.0683 -0.2528 -0.2702
 1549SOL    HW1 4783   1.341   3.184   3.012  1.2050 -1.6298 -0.9945
 1549SOL    HW2 4784   1.232   3.236   2.921  0.6674  0.5139  0.7938
 1550SOL     OW 4785   3.236   1.613   2.231 -0.1865 -0.0116  0.4383
 1550SOL    HW1 4786   3.232   1.569   2.316  0.6577 -2.1074 -0.5196
 1550SOL    HW2 4787   3.234   1.706   2.251 -0.3116 -0.4656  2.7229
 1551SOL     OW 4788   1.133   0.088   2.945  0.4856  0.2994 -0.8007
 1551SOL    HW1 4789   1.071   0.017   2.925 -0.3060  0.9841 -0.8273
 1551SOL    HW2 4790   1.079   0.156   2.985  1.2705  0.8187 -0.6154
 1552SOL     OW 4791   1.910   0.082   0.110  0.2234 -0.2943  0.2578
 1552SOL    HW1 4792   1.984   0.120   0.157  1.3665 -0.3573 -1.4255
 1552SOL    HW2 4793   1.945   0.004   0.068 -1.3759 -1.6167  1.2372
 1553SOL     OW 4794   1.962   2.829   3.656  0.2039 -0.0490  0.8083
 1553SOL    HW1 4795   1.873   2.798   3.674  0.8632 -2.5206  0.0661
 1553SOL    HW2 4796   2.002   2.839   3.742 -0.7140  0.9509  1.1425
 1554SOL     OW 4797   3.519   2.634   2.582  0.2810 -0.5156 -0.2950
 1554SOL    HW1 4798   3.480   2.710   2.625 -1.1686 -0.8073 -1.0146
 1554SOL    HW2 4799   3.565   2.669   2.506  0.8103 -0.2339  0.1488
 1555SOL     OW 4800   1.291   2.047   3.508 -0.1406  0.4289  0.0561
 1555SOL    HW1 4801   1.320   1.956   3.516  1.2895  0.6928 -1.4775
 1555SOL    HW2 4802   1.218   2.055   3.570  1.1544 -1.1181  1.8753
 1556SOL     OW 4803   2.205   2.641   2.654 -0.0062  0.2303  0.6901
 1556SOL    HW1 4804   2.230   2.714   2.597 -1.9210  0.2324 -0.2509
 1556SOL    HW2 4805   2.110   2.633   2.641  0.2115 -2.7073  0.4190
 1557SOL     OW 4806   2.963   1.904   2.472  0.0120  0.1656 -0.0965
 1557SOL    HW1 4807   2.878   1.899   2.516 -1.5799 -0.8631 -3.0262
 1557SOL    HW2 4808   3.010   1.973   2.519 -2.8002  1.4850  1.0431
 1558SOL     OW 4809   2.069   2.786   1.340 -0.2098 -0.3273  0.4281
 1558SOL    HW1 4810   2.026   2.812   1.422  1.4966  0.7790  1.0295
 1558SOL    HW2 4811   2.160   2.813   1.351  0.1694 -0.5741 -1.6688
 1559SOL     OW 4812   0.538   1.092   2.790  0.3565  0.2181 -0.0111
 1559SOL    HW1 4813   0.448   1.098   2.824  0.4715 -0.8047  0.5056
 1559SOL    HW2 4814   0.570   1.008   2.822  1.3160  0.3256 -0.6609
 1560SOL     OW 4815   1.818   1.572   0.454 -0.1859 -0.1811 -0.0899
 1560SOL    HW1 4816   1.883   1.577   0.383 -0.5903  0.2798 -0.4356
 1560SOL    HW2 4817   1.757   1.503   0.426 -0.3043 -0.0500 -0.1546
 1561SOL     OW 4818   2.893   3.335   1.723  0.6121 -0.7085  0.2606
 1561SOL    HW1 4819   2.915   3.289   1.804  0.3847 -2.1729 -0.4580
 1561SOL    HW2 4820   2.924   3.424   1.736  0.9123 -1.0084  1.8057
 1562SOL     OW 4821   0.605   1.230   2.159  0.3180  0.0721  0.0375
 1562SOL    HW1 4822   0.541   1.289   2.198 -0.4591 -0.0088 -1.0555
 1562SOL    HW2 4823   0.566   1.203   2.076  1.8981  0.2465 -0.8148
 1563SOL     OW 4824   2.755   0.992   2.648  0.5064  0.5371 -0.2412
 1563SOL    HW1 4825   2.815   1.033   2.710 -0.1604  2.2261 -0.6473
 1563SOL    HW2 4826   2.682   0.961   2.702  1.5901 -1.3586  0.2295
 1564SOL     OW 4827   3.025   3.346   3.130 -0.7168 -0.3483  0.3189
 1564SOL    HW1 4828   3.009   3.275   3.068 -0.9003 -0.5148  0.5593
 1564SOL    HW2 4829   3.077   3.307   3.200 -0.5871 -0.1811  0.3187
 1565SOL     OW 4830   3.300   3.064   1.133  0.4106  0.1515  0.1374
 1565SOL    HW1 4831   3.369   3.126   1.110  1.3482 -1.0040 -0.2963
 1565SOL    HW2 4832   3.244   3.112   1.193  0.8438  1.5572 -0.5332
 1566SOL     OW 4833   0.462   1.863   0.430  0.0172 -0.2585 -0.2007
 1566SOL    HW1 4834   0.521   1.801   0.473 -0.4561 -1.1598 -0.8178
 1566SOL    HW2 4835   0.396   1.808   0.389 -0.9854  0.7144  0.0686
 1567SOL     OW 4836   2.741   0.478   0.219  0.0673 -0.0175  0.1207
 1567SOL    HW1 4837   2.688   0.403   0.247 -2.4705  1.5707 -0.0674
 1567SOL    HW2 4838   2.781   0.449   0.137 -0.9678 -1.1427 -0.0163
 1568SOL     OW 4839   3.605   2.461   0.701 -0.0351  0.5514  0.4654
 1568SOL    HW1 4840   3.631   2.437   0.790  2.5815 -0.8108 -0.5720
 1568SOL    HW2 4841   3.549   2.537   0.712  1.2719  1.2253  3.2179
 1569SOL     OW 4842   1.102   0.780   0.478 -0.8266  0.0894  0.0634
 1569SOL    HW1 4843   1.027   0.721   0.477 -0.4592 -0.3852 -0.4240
 1569SOL    HW2 4844   1.165   0.737   0.536 -0.3345 -0.3047 -0.7333
 1570SOL     OW 4845   1.207   3.407   1.028  0.0289  0.5538 -0.0034
 1570SOL    HW1 4846   1.246   3.422   1.114  0.4493  2.6272 -0.4883
 1570SOL    HW2 4847   1.188   3.313   1.026  0.0182  0.4453  2.3178
 1571SOL     OW 4848   3.659   3.086   1.674  0.1551  0.5509  0.4917
 1571SOL    HW1 4849   3.633   3.166   1.720  1.7532  2.2799 -1.4257
 1571SOL    HW2 4850   3.615   3.092   1.589  2.4549  0.8544 -0.7382
 1572SOL     OW 4851   2.039   3.715   1.363  0.6197  0.1871  0.4388
 1572SOL    HW1 4852   2.088   3.797   1.354  1.7719 -0.2128  2.4665
 1572SOL    HW2 4853   2.097   3.657   1.411 -0.3356 -1.7237 -0.5891
 1573SOL     OW 4854   3.527   1.495   3.226 -0.4416 -0.0420  0.1839
 1573SOL    HW1 4855   3.548   1.512   3.134  1.5254  0.2147  0.6375
 1573SOL    HW2 4856   3.611   1.474   3.266 -1.4171 -1.2379  1.7217
 1574SOL     OW 4857   2.591   2.455   2.561 -0.7775 -0.6835  0.0118
 1574SOL    HW1 4858   2.555   2.368   2.577 -0.1864 -0.9349 -0.0127
 1574SOL    HW2 4859   2.631   2.450   2.475  0.8282 -0.9266  0.7305
 1575SOL     OW 4860   3.167   2.601   1.708 -0.4480 -0.2270 -0.2903
 1575SOL    HW1 4861   3.220   2.523   1.694 -0.3170 -0.2468  0.2973
 1575SOL    HW2 4862   3.212   2.649   1.777 -1.4770 -0.5035  0.5889
 1576SOL     OW 4863   3.667   0.657   2.350 -0.5623  0.1294  0.1029
 1576SOL    HW1 4864   3.728   0.700   2.409 -1.0005  0.0772  0.5963
 1576SOL    HW2 4865   3.690   0.564   2.355 -0.5308  0.1373  0.1058
 1577SOL     OW 4866   0.801   2.684   2.032  0.3093  0.0028  0.0259
 1577SOL    HW1 4867   0.807   2.662   1.939  0.7765  2.4954 -0.6014
 1577SOL    HW2 4868   0.892   2.685   2.062  0.4155  2.0134 -0.2582
 1578SOL     OW 4869   0.360   2.840   2.877  0.1270  0.1215 -0.0411
 1578SOL    HW1 4870   0.380   2.923   2.921  0.6542  0.7664 -1.4426
 1578SOL    HW2 4871   0.398   2.849   2.790  0.9451 -1.9391  0.0440
 1579SOL     OW 4872   3.387   1.827   3.665  0.3194 -0.2154  0.2305
 1579SOL    HW1 4873   3.338   1.907   3.684 -1.1910 -1.4816  2.1029
 1579SOL    HW2 4874   3.437   1.809   3.745  1.8801 -0.3423 -0.7241
 1580SOL     OW 4875   2.280   0.898   0.141 -0.2457 -0.0299  1.0315
 1580SOL    HW1 4876   2.298   0.991   0.126 -1.8831  0.6698  2.9473
 1580SOL    HW2 4877   2.186   0.895   0.162  0.1112 -1.9032  2.5444
 1581SOL     OW 4878   1.650   2.109   2.330 -0.4647  0.2524  0.3732
 1581SOL    HW1 4879   1.606   2.190   2.303  0.8216  1.0424  0.5627
 1581SOL    HW2 4880   1.713   2.138   2.397  1.2659 -0.6210 -0.8268
 1582SOL     OW 4881   3.338   0.869   1.061  0.2663 -0.7059 -0.1940
 1582SOL    HW1 4882   3.338   0.838   1.151 -1.5919 -1.2888 -0.3456
 1582SOL    HW2 4883   3.248   0.856   1.031  0.4368  0.9707 -1.6230
 1583SOL     OW 4884   3.669   2.495   0.092  0.1198  0.1460  0.5202
 1583SOL    HW1 4885   3.590   2.540   0.063  0.5943  0.1870 -0.7983
 1583SOL    HW2 4886   3.723   2.564   0.131  0.1382  0.4122  0.0331
 1584SOL     OW 4887   1.706   2.637   0.124  0.2548 -0.0748 -0.0913
 1584SOL    HW1 4888   1.690   2.717   0.175  2.6106  0.2339  0.2635
 1584SOL    HW2 4889   1.799   2.640   0.103  0.1858 -2.2503 -0.9388
 1585SOL     OW 4890   0.071   1.523   1.788 -0.0104 -0.0945 -0.2671
 1585SOL    HW1 4891   0.120   1.451   1.827 -0.3470  0.4684  1.2483
 1585SOL    HW2 4892   0.136   1.594   1.780 -0.4453  0.5443  1.4437
 1586SOL     OW 4893   2.912   0.449   0.979 -0.0557  0.5330 -0.2694
 1586SOL    HW1 4894   2.867   0.533   0.978 -3.8054 -1.2576 -1.4471
 1586SOL    HW2 4895   2.908   0.420   1.070 -1.7504  0.2817 -0.3922
 1587SOL     OW 4896   1.830   3.065   0.450  0.3646  0.1286  0.8475
 1587SOL    HW1 4897   1.783   3.055   0.533 -0.6308  0.5446  0.3492
 1587SOL    HW2 4898   1.837   3.160   0.438 -0.1647  0.0886  0.1067
 1588SOL     OW 4899   1.462   3.336   3.080  0.5981 -0.0955  0.0788
 1588SOL    HW1 4900   1.456   3.407   3.143  0.0929  0.1126 -0.1982
 1588SOL    HW2 4901   1.530   3.278   3.115  0.2492 -0.0425  0.8630
 1589SOL     OW 4902   2.255   3.725   2.674 -0.6238 -0.4911 -0.3058
 1589SOL    HW1 4903   2.287   3.716   2.763  0.9587 -1.1123 -0.8881
 1589SOL    HW2 4904   2.331   3.704   2.619 -1.2298  0.9842 -1.7974
 1590SOL     OW 4905   2.786   2.396   1.752  0.6028  0.2583  0.6535
 1590SOL    HW1 4906   2.802   2.442   1.835 -0.0171  0.6309  0.5700
 1590SOL    HW2 4907   2.703   2.431   1.721  0.6106 -0.2124  0.0949
 1591SOL     OW 4908   0.602   1.167   3.365  0.4935  0.3211 -0.1865
 1591SOL    HW1 4909   0.531   1.105   3.384 -0.7951  1.9545  0.5353
 1591SOL    HW2 4910   0.623   1.206   3.450  2.4486 -0.2660 -0.3479
 1592SOL     OW 4911   2.363   2.373   1.576 -0.6879 -0.1912 -0.3681
 1592SOL    HW1 4912   2.387   2.281   1.580  0.3588  0.1047  0.8014
 1592SOL    HW2 4913   2.284   2.380   1.629  0.0672 -0.1990  0.8013
 1593SOL     OW 4914   3.655   2.121   2.802 -0.1546 -0.1110  0.1062
 1593SOL    HW1 4915   3.671   2.182   2.730  0.6026  0.5265  0.7990
 1593SOL    HW2 4916   3.670   2.035   2.763  0.2109  0.2254 -0.5144
 1594SOL     OW 4917   1.666   1.691   2.681 -0.1260  0.3860  0.3720
 1594SOL    HW1 4918   1.698   1.779   2.661  2.8684 -0.7183 -0.2910
 1594SOL    HW2 4919   1.619   1.700   2.763 -0.4987  2.6957 -0.0248
 1595SOL     OW 4920   2.712   0.533   2.226  0.1389 -0.0289 -0.0126
 1595SOL    HW1 4921   2.646   0.492   2.169  1.1668  0.9839 -2.0510
 1595SOL    HW2 4922   2.683   0.624   2.234 -0.4924 -0.3475  1.9549
 1596SOL     OW 4923   1.079   2.562   0.610  0.2706 -0.0633  0.1069
 1596SOL    HW1 4924   1.025   2.513   0.549  1.4504 -1.2488 -0.0360
 1596SOL    HW2 4925   1.159   2.581   0.561  0.7114  0.0947  0.8668
 1597SOL     OW 4926   0.888   3.175   0.567 -0.1680 -0.9408  0.2655
 1597SOL    HW1 4927   0.912   3.184   0.474 -2.7493  1.7577 -0.3279
 1597SOL    HW2 4928   0.869   3.082   0.578 -1.2035 -1.1447 -2.3855
 1598SOL     OW 4929   2.834   3.282   0.174 -0.4605 -0.9746 -0.4169
 1598SOL    HW1 4930   2.747   3.257   0.143 -0.8430 -1.0018  0.6222
 1598SOL    HW2 4931   2.850   3.368   0.134 -2.2437  0.4229  1.6221
 1599SOL     OW 4932   2.154   2.070   1.677 -0.8181  0.8500 -0.0025
 1599SOL    HW1 4933   2.165   2.052   1.583 -1.3115  0.1086  0.0727
 1599SOL    HW2 4934   2.108   1.993   1.711  2.8893 -0.9187  1.6276
 1600SOL     OW 4935   0.750   1.600   2.694 -0.3105 -0.4844 -0.3115
 1600SOL    HW1 4936   0.779   1.578   2.606 -0.7395  0.2874 -0.6611
 1600SOL    HW2 4937   0.713   1.519   2.729 -0.8910 -0.5937 -1.1595
 1601SOL     OW 4938   2.324   2.473   2.398 -0.6402 -0.1296  0.7058
 1601SOL    HW1 4939   2.267   2.545   2.427 -2.2977  0.0499 -2.5797
 1601SOL    HW2 4940   2.391   2.516   2.345 -0.4987 -0.8201  0.3163
 1602SOL     OW 4941   2.871   3.019   1.237 -0.5860 -0.6003  0.0116
 1602SOL    HW1 4942   2.887   2.999   1.330  1.2979  0.3399 -0.0556
 1602SOL    HW2 4943   2.877   3.114   1.232  2.5876 -0.7283 -1.5043
 1603SOL     OW 4944   3.330   2.884   0.282 -0.2347 -0.3279 -0.3594
 1603SOL    HW1 4945   3.355   2.952   0.220 -0.8266 -0.5345 -0.8319
 1603SOL    HW2 4946   3.414   2.850   0.315  0.0885 -0.2122 -1.0423
 1604SOL     OW 4947   3.372   0.523   0.181 -0.1127  0.2131  0.2127
 1604SOL    HW1 4948   3.412   0.605   0.208 -0.4306  0.7137 -0.8082
 1604SOL    HW2 4949   3.438   0.481   0.125 -0.7777  0.7948 -1.0415
 1605SOL     OW 4950   2.394   2.811   0.387  0.2173  0.1655  0.3682
 1605SOL    HW1 4951   2.362   2.721   0.388 -0.6609  0.4705  0.5426
 1605SOL    HW2 4952   2.419   2.829   0.477  0.8903 -0.0679  0.2347
 1606SOL     OW 4953   2.421   1.927   2.170  0.3652  0.2506 -0.0493
 1606SOL    HW1 4954   2.431   1.889   2.257  0.8642 -0.2132 -0.3036
 1606SOL    HW2 4955   2.469   2.010   2.175 -0.6692  0.8444  0.4847
 1607SOL     OW 4956   1.721   2.508   3.292 -0.2060 -0.5549 -0.3791
 1607SOL    HW1 4957   1.781   2.534   3.362  0.3810  3.0958 -2.0296
 1607SOL    HW2 4958   1.637   2.547   3.316 -0.9241 -2.1239 -0.1676
 1608SOL     OW 4959   1.981   1.020   0.830  0.9010  0.3220 -0.2211
 1608SOL    HW1 4960   2.060   1.067   0.805  0.6394  0.4383 -0.8393
 1608SOL    HW2 4961   1.969   1.042   0.923  2.6556 -1.2422  0.4239
 1609SOL     OW 4962   0.820   0.823   3.686 -0.4926  0.2756  0.6393
 1609SOL    HW1 4963   0.869   0.905   3.675 -0.6244  0.3388  0.5163
 1609SOL    HW2 4964   0.887   0.756   3.696 -0.3656  0.2604 -0.2106
 1610SOL     OW 4965   1.888   3.124   0.100 -0.1417  0.1651 -0.1614
 1610SOL    HW1 4966   1.912   3.215   0.113 -2.3621  0.6957  0.4966
 1610SOL    HW2 4967   1.934   3.077   0.170 -0.7901  1.1077  0.9352
 1611SOL     OW 4968   3.551   1.039   3.614 -0.5195 -0.2360  0.1088
 1611SOL    HW1 4969   3.455   1.044   3.615 -0.5535  0.0690 -1.4591
 1611SOL    HW2 4970   3.576   1.089   3.536  0.8040 -1.9005 -0.5845
 1612SOL     OW 4971   1.413   2.162   0.726  0.0495 -0.7731 -0.1582
 1612SOL    HW1 4972   1.442   2.206   0.646  0.5014 -1.3614 -0.3223
 1612SOL    HW2 4973   1.321   2.142   0.711 -0.7036  1.6840  0.6117
 1613SOL     OW 4974   0.089   0.782   1.775 -0.6582  0.0518 -0.1565
 1613SOL    HW1 4975   0.184   0.767   1.781 -0.8301 -0.4405  3.1744
 1613SOL    HW2 4976   0.082   0.873   1.744  1.0088  0.6848  1.1066
 1614SOL     OW 4977   3.091   0.611   2.405  0.3409 -0.2700 -0.3003
 1614SOL    HW1 4978   3.027   0.542   2.424  0.3423 -0.2802 -0.3327
 1614SOL    HW2 4979   3.049   0.692   2.433  0.9516 -0.4487  1.2565
 1615SOL     OW 4980   1.162   3.524   3.504 -0.1496  0.0590  0.1378
 1615SOL    HW1 4981   1.242   3.568   3.476  1.4976 -2.1921  0.9822
 1615SOL    HW2 4982   1.116   3.503   3.423  0.2618  1.1055 -0.3792
 1616SOL     OW 4983   3.255   2.320   0.821 -0.0314  0.1836 -0.0711
 1616SOL    HW1 4984   3.243   2.225   0.822 -0.2278  0.2045 -0.3086
 1616SOL    HW2 4985   3.259   2.342   0.728  0.2850  0.3750 -0.0125
 1617SOL     OW 4986   2.999   2.205   0.429 -0.0089  0.3894 -0.2081
 1617SOL    HW1 4987   3.071   2.228   0.488 -0.4213 -1.8218  1.2808
 1617SOL    HW2 4988   3.041   2.192   0.344  1.3275 -0.4986  0.5537
 1618SOL     OW 4989   0.076   2.220   1.949 -0.0095  0.3945 -0.2525
 1618SOL    HW1 4990  -0.001   2.163   1.949 -0.7647  1.3697  0.5020
 1618SOL    HW2 4991   0.040   2.309   1.949  1.1213  0.8729 -0.2474
 1619SOL     OW 4992   2.010   0.605   1.803 -0.2041  0.5907 -0.0840
 1619SOL    HW1 4993   1.989   0.675   1.740  1.2714 -0.9783 -2.5029
 1619SOL    HW2 4994   2.099   0.580   1.780  0.3444 -0.1831  2.6402
 1620SOL     OW 4995   0.426   0.430   0.976  0.3437  0.2898  0.2575
 1620SOL    HW1 4996   0.366   0.444   0.902  1.0597 -1.9224 -0.8313
 1620SOL    HW2 4997   0.372   0.387   1.042  0.4744 -0.8119 -0.3377
 1621SOL     OW 4998   1.612   1.285   1.817  0.3421  0.1810  0.0997
 1621SOL    HW1 4999   1.603   1.363   1.871  1.3461 -0.9786  2.0517
 1621SOL    HW2 5000   1.565   1.306   1.736  0.8712  2.8957  0.4094
 1622SOL     OW 5001   0.954   0.047   0.669  0.2127  0.1160  0.0523
 1622SOL    HW1 5002   1.018   0.000   0.723  0.9618  2.3012  1.1617
 1622SOL    HW2 5003   0.946  -0.006   0.590  3.0615 -0.4622  0.0645
 1623SOL     OW 5004   0.795   3.474   0.029 -0.0934 -0.5345 -0.3445
 1623SOL    HW1 5005   0.708   3.450   0.061  0.2726 -4.0688 -1.4631
 1623SOL    HW2 5006   0.855   3.446   0.098  0.2584 -0.4998 -0.6296
 1624SOL     OW 5007   3.229   0.871   1.807 -0.0610 -0.6621  0.1738
 1624SOL    HW1 5008   3.224   0.798   1.869  1.8215  0.5323  1.8275
 1624SOL    HW2 5009   3.175   0.939   1.846 -1.3723 -0.9112 -1.1020
 1625SOL     OW 5010   2.102   1.263   2.625 -0.1942 -1.2946 -0.5448
 1625SOL    HW1 5011   2.146   1.189   2.667  0.1280 -1.2962 -0.8867
 1625SOL    HW2 5012   2.094   1.238   2.533  1.1844 -0.3203 -0.9589
 1626SOL     OW 5013   1.424   1.810   2.104  0.0633  0.2501 -0.4708
 1626SOL    HW1 5014   1.472   1.748   2.159 -1.1341  1.3667  1.9878
 1626SOL    HW2 5015   1.346   1.762   2.076 -0.3012  0.2644  0.4851
 1627SOL     OW 5016   0.916   1.903   0.768  0.1418  0.7988  0.0590
 1627SOL    HW1 5017   0.938   1.857   0.849 -0.0780  2.3049  1.0089
 1627SOL    HW2 5018   0.959   1.852   0.699 -0.0963 -0.8050  1.0470
 1628SOL     OW 5019   2.103   1.699   1.593 -0.5012  0.0641  0.7593
 1628SOL    HW1 5020   2.066   1.615   1.622 -1.4629  0.3946  0.5201
 1628SOL    HW2 5021   2.128   1.683   1.502  2.1336 -0.8480  1.5586
 1629SOL     OW 5022   1.941   2.904   0.807 -0.0631 -0.5885  0.1386
 1629SOL    HW1 5023   1.950   2.883   0.900  1.5550  3.6508  1.1712
 1629SOL    HW2 5024   1.857   2.950   0.801  0.8089  1.0748  0.0539
 1630SOL     OW 5025   0.680   2.532   0.653 -0.4378  0.2978 -0.1988
 1630SOL    HW1 5026   0.597   2.577   0.670  0.7599  1.4936  3.5036
 1630SOL    HW2 5027   0.661   2.440   0.667 -1.5119  0.3229 -1.3203
 1631SOL     OW 5028   3.180   1.058   1.293 -0.5218 -0.4468  0.0425
 1631SOL    HW1 5029   3.145   0.984   1.243 -2.4922  0.1295  0.4923
 1631SOL    HW2 5030   3.193   1.127   1.227 -0.5179 -0.5677 -0.0839
 1632SOL     OW 5031   3.619   3.199   0.205 -0.3486 -0.1797 -0.5838
 1632SOL    HW1 5032   3.709   3.180   0.233 -0.5963 -0.6610 -0.0934
 1632SOL    HW2 5033   3.567   3.128   0.242 -0.6077 -1.2340 -2.8251
 1633SOL     OW 5034   1.125   0.242   2.116  0.1855 -0.6653 -0.1802
 1633SOL    HW1 5035   1.142   0.271   2.206  2.6183 -3.3647  0.3613
 1633SOL    HW2 5036   1.145   0.319   2.062  2.3342 -0.0374  1.3863
 1634SOL     OW 5037   2.818   0.415   1.901  0.1857  0.2695  0.4190
 1634SOL    HW1 5038   2.870   0.421   1.821 -2.5028  0.3810 -1.4304
 1634SOL    HW2 5039   2.857   0.343   1.950 -0.7589 -2.9870 -3.1639
 1635SOL     OW 5040   0.165   3.071  -0.004 -0.0218  0.1041 -0.3606
 1635SOL    HW1 5041   0.118   3.028   0.068  0.3297 -1.2653 -0.9263
 1635SOL    HW2 5042   0.209   3.000  -0.050  1.4875  1.2031 -0.6798
 1636SOL     OW 5043   1.764   1.607   1.658 -0.2612 -0.0407  0.3021
 1636SOL    HW1 5044   1.679   1.569   1.639 -0.9558  2.4833 -2.0863
 1636SOL    HW2 5045   1.824   1.561   1.599 -0.6227  0.6853 -0.6409
 1637SOL     OW 5046   3.349   0.297   0.440  0.2005 -0.4817 -0.0969
 1637SOL    HW1 5047   3.402   0.376   0.441 -1.2951  0.5535 -0.4448
 1637SOL    HW2 5048   3.413   0.226   0.430  1.6220  0.6007  0.8320
 1638SOL     OW 5049   2.354   3.089   1.656  0.0436 -0.3678 -0.0281
 1638SOL    HW1 5050   2.401   3.103   1.738  1.5028  1.1200 -1.0523
 1638SOL    HW2 5051   2.273   3.139   1.666  0.0630 -0.4599  0.6209
 1639SOL     OW 5052   2.856   2.797   3.235 -0.0992 -0.1878  0.8864
 1639SOL    HW1 5053   2.919   2.730   3.258 -0.6454 -0.8173  0.5880
 1639SOL    HW2 5054   2.849   2.792   3.140  0.8564  1.2169  0.7052
 1640SOL     OW 5055   2.629   1.499   1.789 -0.0952 -0.7144  0.1233
 1640SOL    HW1 5056   2.721   1.496   1.764 -0.2501  0.3138 -0.6560
 1640SOL    HW2 5057   2.584   1.445   1.724 -0.3051  0.7226 -1.0052
 1641SOL     OW 5058   0.830   3.291   0.806  0.1040  0.2893 -0.6890
 1641SOL    HW1 5059   0.852   3.384   0.815 -0.4698  0.3080  0.9056
 1641SOL    HW2 5060   0.860   3.267   0.718 -0.5154  2.1933 -1.4712
 1642SOL     OW 5061   3.117   2.774   3.105  0.0123 -0.2751  0.3609
 1642SOL    HW1 5062   3.036   2.745   3.064  0.1524 -0.7186  0.3969
 1642SOL    HW2 5063   3.169   2.694   3.115 -0.4771 -0.3874  2.4471
 1643SOL     OW 5064   2.677   3.480   3.591 -0.2729 -0.4433 -0.2596
 1643SOL    HW1 5065   2.630   3.563   3.576  0.8642 -0.0678 -1.9360
 1643SOL    HW2 5066   2.725   3.495   3.673  1.0589  1.1294 -1.2762
 1644SOL     OW 5067   2.363   0.635   3.409  0.5340 -0.5760  0.2555
 1644SOL    HW1 5068   2.318   0.646   3.493 -1.2571 -0.2429 -0.6879
 1644SOL    HW2 5069   2.334   0.710   3.357  3.3405  0.4506 -0.0024
 1645SOL     OW 5070   3.526   2.101   1.991  0.2288  0.2788  0.5042
 1645SOL    HW1 5071   3.481   2.018   2.007 -1.1928  0.8401 -0.3645
 1645SOL    HW2 5072   3.455   2.165   1.979  1.2348  1.1836 -1.0419
 1646SOL     OW 5073   0.679   0.053   0.134 -0.2934  0.0200  0.0255
 1646SOL    HW1 5074   0.584   0.047   0.126 -0.1757  0.2094 -2.0499
 1646SOL    HW2 5075   0.712  -0.029   0.098  0.3908  1.2492 -2.3288
 1647SOL     OW 5076   3.450   0.719   1.494 -0.4939 -0.3134 -0.3367
 1647SOL    HW1 5077   3.378   0.657   1.487  0.4306 -1.6256  1.1299
 1647SOL    HW2 5078   3.529   0.665   1.494  0.4631  1.0117 -0.9882
 1648SOL     OW 5079   1.715   1.122   0.418  0.1240  0.0472  0.0471
 1648SOL    HW1 5080   1.678   1.152   0.502  0.7366  0.2528  0.2436
 1648SOL    HW2 5081   1.656   1.051   0.391 -0.5580  0.5216  0.2418
 1649SOL     OW 5082   1.629   2.019   0.803  0.2639 -0.2128  0.0476
 1649SOL    HW1 5083   1.609   1.963   0.879 -3.0435  0.5529 -0.1114
 1649SOL    HW2 5084   1.548   2.066   0.786  1.3885  0.8418 -3.0329
 1650SOL     OW 5085   2.209   0.804   1.689 -0.4660  0.7930 -0.0577
 1650SOL    HW1 5086   2.157   0.862   1.744 -1.0490 -0.2543  0.5299
 1650SOL    HW2 5087   2.187   0.830   1.599 -2.1630  0.2689  0.1683
 1651SOL     OW 5088   3.272   0.526   1.441  0.4522 -0.3582 -0.2942
 1651SOL    HW1 5089   3.338   0.479   1.493  1.4257 -0.0406 -1.2131
 1651SOL    HW2 5090   3.190   0.480   1.460  0.7205 -0.0708  1.7365
 1652SOL     OW 5091   3.313   1.495   2.748  0.0622  0.3210  0.9318
 1652SOL    HW1 5092   3.329   1.587   2.769 -3.4893  0.5182  3.7227
 1652SOL    HW2 5093   3.352   1.446   2.820  2.3177 -0.5482 -0.7525
 1653SOL     OW 5094   2.845   2.889   1.011  0.1564  0.2359  0.0021
 1653SOL    HW1 5095   2.875   2.820   1.069 -1.2834 -1.2399 -0.9303
 1653SOL    HW2 5096   2.831   2.964   1.068 -0.0016 -0.7866  1.3479
 1654SOL     OW 5097   2.587   2.282   3.658 -0.2702 -0.2900 -0.5173
 1654SOL    HW1 5098   2.653   2.313   3.720  0.2569  0.1438 -1.2666
 1654SOL    HW2 5099   2.591   2.187   3.664 -0.4929 -0.2430  0.3813
 1655SOL     OW 5100   3.029   3.678   3.222 -0.2008  0.1312  0.1846
 1655SOL    HW1 5101   3.120   3.696   3.246  0.3849 -2.1234 -0.1487
 1655SOL    HW2 5102   3.023   3.582   3.222 -2.1848  0.2041 -1.2365
 1656SOL     OW 5103   2.704   0.305   1.633 -0.0501  0.2317 -0.6611
 1656SOL    HW1 5104   2.691   0.350   1.550  0.5509 -1.3673 -1.6750
 1656SOL    HW2 5105   2.793   0.329   1.659 -0.6179  1.6133  0.1323
 1657SOL     OW 5106   1.008   0.350   2.892 -0.6182 -0.1419 -0.1455
 1657SOL    HW1 5107   0.933   0.397   2.855 -0.1982  0.5946 -0.0840
 1657SOL    HW2 5108   1.063   0.329   2.816 -1.2182 -1.3127 -0.2763
 1658SOL     OW 5109   0.579   3.409   0.178  0.4667  0.2489  0.2291
 1658SOL    HW1 5110   0.486   3.404   0.200 -0.1042  2.2184 -1.4526
 1658SOL    HW2 5111   0.622   3.435   0.259 -0.7314  1.2683  0.5625
 1659SOL     OW 5112   0.978   2.507   3.105  0.0989  0.3480  0.2589
 1659SOL    HW1 5113   0.902   2.452   3.122 -0.5356  1.5538  1.4943
 1659SOL    HW2 5114   1.046   2.475   3.164  0.8794 -1.2703 -1.4287
 1660SOL     OW 5115   1.007   0.514   0.810 -0.1185 -0.0700 -0.7964
 1660SOL    HW1 5116   0.992   0.552   0.897  2.4918 -0.3400 -0.1399
 1660SOL    HW2 5117   0.950   0.438   0.807  0.0503 -0.3001  0.8908
 1661SOL     OW 5118   0.838   3.727   1.001 -0.0244  0.8186  0.1979
 1661SOL    HW1 5119   0.814   3.687   1.084  2.3771 -1.8075 -0.2223
 1661SOL    HW2 5120   0.803   3.668   0.934  2.1042  0.2081 -0.4767
 1662SOL     OW 5121   2.297   0.805   2.627 -0.3586 -0.2195  0.1915
 1662SOL    HW1 5122   2.324   0.719   2.659 -0.9484 -0.3105  0.4589
 1662SOL    HW2 5123   2.224   0.787   2.568  0.0293  0.0358 -0.3792
 1663SOL     OW 5124   1.836   0.698   3.243  0.2433  0.0980 -0.2737
 1663SOL    HW1 5125   1.918   0.649   3.234  0.0927 -0.5953  1.6221
 1663SOL    HW2 5126   1.864   0.790   3.248  0.7846 -0.0251 -0.8431
 1664SOL     OW 5127   2.697   1.388   3.616  0.2087  0.0779  0.0101
 1664SOL    HW1 5128   2.750   1.463   3.645  1.9179 -1.3302  0.6578
 1664SOL    HW2 5129   2.759   1.331   3.570 -1.4253 -0.1520 -2.0812
 1665SOL     OW 5130   0.152   0.894   0.908  0.2497 -0.2493  0.0510
 1665SOL    HW1 5131   0.167   0.847   0.825  0.4047 -2.3149  1.1742
 1665SOL    HW2 5132   0.195   0.978   0.896 -1.7435  0.5074 -2.8191
 1666SOL     OW 5133   0.772   0.893   2.605 -0.2769 -0.3236 -0.1795
 1666SOL    HW1 5134   0.710   0.848   2.661 -0.9819  0.3410 -0.4023
 1666SOL    HW2 5135   0.738   0.881   2.516  0.0162 -0.1115 -0.3239
 1667SOL     OW 5136   1.453   2.406   1.410  0.0601  0.1889 -0.3641
 1667SOL    HW1 5137   1.438   2.311   1.412 -1.0305  0.3625  0.9732
 1667SOL    HW2 5138   1.433   2.431   1.320  3.6162 -1.2864 -1.7440
 1668SOL     OW 5139   0.527   2.408   1.753 -0.1504 -0.4505 -0.0876
 1668SOL    HW1 5140   0.434   2.386   1.754 -0.1703 -0.3464  0.7093
 1668SOL    HW2 5141   0.557   2.394   1.843 -0.4072  3.7142  0.8786
 1669SOL     OW 5142   2.623   2.866   2.459 -0.3804 -0.1795  0.1452
 1669SOL    HW1 5143   2.574   2.857   2.378 -1.1157  2.6118  0.1776
 1669SOL    HW2 5144   2.653   2.957   2.459  1.7268 -0.7894  1.8596
 1670SOL     OW 5145   2.850   2.895   2.687  0.4414  0.4436 -0.3711
 1670SOL    HW1 5146   2.853   2.893   2.783 -0.7553  1.2833 -0.2914
 1670SOL    HW2 5147   2.927   2.945   2.661  1.2094 -0.4631  0.1010
 1671SOL     OW 5148   2.403   1.081   1.849 -0.4812 -0.0754  0.0018
 1671SOL    HW1 5149   2.393   1.055   1.757  0.2149 -0.9284  0.1523
 1671SOL    HW2 5150   2.491   1.119   1.853 -1.1770  1.5773 -0.0381
 1672SOL     OW 5151   1.837   0.568   2.719 -0.1038 -0.4788 -0.5309
 1672SOL    HW1 5152   1.869   0.595   2.633  1.2860  0.2237  0.1719
 1672SOL    HW2 5153   1.897   0.610   2.781 -2.1092  0.4940  0.8585
 1673SOL     OW 5154   0.500   3.547   1.901  0.5965 -0.0656  0.0621
 1673SOL    HW1 5155   0.594   3.533   1.912  1.1649  1.5780 -2.1331
 1673SOL    HW2 5156   0.491   3.587   1.815 -2.1946 -0.6578 -0.0229
 1674SOL     OW 5157   2.232   1.185   0.908 -0.4575  0.3921  0.2836
 1674SOL    HW1 5158   2.320   1.213   0.882  0.1630  1.0646  2.8409
 1674SOL    HW2 5159   2.184   1.267   0.923 -1.4795  0.0297 -0.8449
 1675SOL     OW 5160   0.509   2.477   3.497 -0.3634 -0.2872  0.4255
 1675SOL    HW1 5161   0.447   2.459   3.427 -1.3097  0.2218  1.1135
 1675SOL    HW2 5162   0.551   2.393   3.514 -1.0787 -0.7120  0.1420
 1676SOL     OW 5163   2.915   0.269   0.768 -0.1155  0.3538  0.7591
 1676SOL    HW1 5164   2.940   0.312   0.850  1.6941  0.1524  0.3601
 1676SOL    HW2 5165   2.998   0.246   0.726 -0.8652  2.2509 -2.1106
 1677SOL     OW 5166   1.134   0.502   2.033  0.2616  0.5507 -0.2044
 1677SOL    HW1 5167   1.085   0.545   2.103  0.0267  1.7028 -1.0616
 1677SOL    HW2 5168   1.200   0.566   2.006  0.1346  0.2564 -1.2579
 1678SOL     OW 5169   0.619   2.240   3.546 -0.0170  0.8540  0.3752
 1678SOL    HW1 5170   0.668   2.205   3.620 -0.1729  1.0254  0.5596
 1678SOL    HW2 5171   0.562   2.167   3.518 -0.4146  0.9903  0.8212
 1679SOL     OW 5172   2.823   0.100   0.029 -1.3861 -0.3360 -0.0022
 1679SOL    HW1 5173   2.903   0.058   0.061 -2.6750 -1.8660  1.4035
 1679SOL    HW2 5174   2.829   0.094  -0.066  0.7119  0.7252  0.0100
 1680SOL     OW 5175   3.220   3.371   2.272  0.2853  0.4739  0.5417
 1680SOL    HW1 5176   3.271   3.300   2.233 -0.5626  0.1111  0.0452
 1680SOL    HW2 5177   3.238   3.447   2.216  0.1262  0.2932  0.2395
 1681SOL     OW 5178   1.307   1.857   0.929 -0.7240 -0.3820 -0.1119
 1681SOL    HW1 5179   1.317   1.772   0.973  0.8217  0.6971  1.7618
 1681SOL    HW2 5180   1.271   1.914   0.996 -1.5134  0.5321 -1.2861
 1682SOL     OW 5181   0.624   1.842   2.634  0.2071 -0.7599  0.2703
 1682SOL    HW1 5182   0.622   1.867   2.542  1.5409  0.2062  0.4650
 1682SOL    HW2 5183   0.695   1.777   2.640  1.1954  0.3230  0.8306
 1683SOL     OW 5184   1.781   1.709   1.326  0.6294  1.0200 -0.9821
 1683SOL    HW1 5185   1.750   1.623   1.298  1.2282  0.5951 -0.3594
 1683SOL    HW2 5186   1.708   1.746   1.375  1.3072 -0.2875  1.1459
 1684SOL     OW 5187   0.390   1.044   0.109  0.3051  0.5991  0.3500
 1684SOL    HW1 5188   0.344   1.118   0.069 -1.2669 -0.2150  0.5288
 1684SOL    HW2 5189   0.480   1.050   0.077 -0.1293  1.8112 -0.7076
 1685SOL     OW 5190   1.422   0.995   2.117  0.5690 -0.8622  0.5951
 1685SOL    HW1 5191   1.514   0.977   2.100  0.4724 -1.2663  0.4811
 1685SOL    HW2 5192   1.408   0.965   2.207  0.8533  0.3984  1.0786
 1686SOL     OW 5193   0.263   0.346   3.493 -0.1570  0.6775 -0.2681
 1686SOL    HW1 5194   0.255   0.436   3.461  0.7446  0.4891 -1.0863
 1686SOL    HW2 5195   0.315   0.354   3.573  0.0695  0.8628 -0.4328
 1687SOL     OW 5196   2.825   3.215   1.460  0.5514 -0.3811 -0.0354
 1687SOL    HW1 5197   2.835   3.278   1.389  1.5981  1.2017  1.4376
 1687SOL    HW2 5198   2.850   3.263   1.539  3.4210 -3.1800  0.9536
 1688SOL     OW 5199   2.289   1.457   0.219  0.0118 -0.1714  0.2189
 1688SOL    HW1 5200   2.276   1.402   0.142 -0.9493 -0.6259  0.6906
 1688SOL    HW2 5201   2.370   1.504   0.201  0.2181 -0.8542 -0.7198
 1689SOL     OW 5202   1.832   0.776   0.769  0.0984 -0.7904  0.0260
 1689SOL    HW1 5203   1.891   0.848   0.791  1.8565 -1.4666 -2.0497
 1689SOL    HW2 5204   1.745   0.815   0.767  0.6351  0.6082  1.6563
 1690SOL     OW 5205   2.442   2.015   3.535 -0.1528  0.4821 -0.7074
 1690SOL    HW1 5206   2.444   2.071   3.457 -2.2348 -1.0195 -1.9276
 1690SOL    HW2 5207   2.414   1.929   3.502  1.5671 -0.9549  1.3087
 1691SOL     OW 5208   2.987   2.855   1.477 -0.0587  0.2735  0.0010
 1691SOL    HW1 5209   3.072   2.834   1.515 -0.4098 -0.3813  0.4394
 1691SOL    HW2 5210   2.937   2.896   1.548  1.1814  4.4472 -1.2376
 1692SOL     OW 5211   2.382   2.903   3.556  0.0444 -0.4452 -0.2543
 1692SOL    HW1 5212   2.406   2.823   3.509 -1.1494 -1.8563  1.3894
 1692SOL    HW2 5213   2.289   2.892   3.575 -0.0068  1.0806  0.5243
 1693SOL     OW 5214   0.208   3.198   1.514  0.2119 -0.1414 -0.7731
 1693SOL    HW1 5215   0.135   3.153   1.557  0.8911 -1.5272 -1.0307
 1693SOL    HW2 5216   0.287   3.161   1.553  0.8195  1.7602 -0.0751
 1694SOL     OW 5217   2.201   3.415   0.438  0.2787  0.2857  0.0575
 1694SOL    HW1 5218   2.163   3.351   0.498 -0.3098  0.7070  0.1390
 1694SOL    HW2 5219   2.285   3.376   0.412  0.2181 -0.2214  0.5996
 1695SOL     OW 5220   2.912   1.846   0.453 -0.2268 -0.1191 -0.1063
 1695SOL    HW1 5221   2.897   1.902   0.376 -0.2947 -0.6630 -0.4964
 1695SOL    HW2 5222   2.906   1.905   0.528  2.1475  0.8893 -0.6192
 1696SOL     OW 5223   1.756   0.255   1.072 -0.2949 -0.6163 -0.2264
 1696SOL    HW1 5224   1.764   0.162   1.048  2.5096 -0.1813 -1.3547
 1696SOL    HW2 5225   1.786   0.302   0.995  0.6841  1.1646  1.1765
 1697SOL     OW 5226   3.601   0.631   0.695 -0.5773 -0.4752  0.7120
 1697SOL    HW1 5227   3.621   0.638   0.601  1.2187 -2.5645  0.8478
 1697SOL    HW2 5228   3.570   0.718   0.719  1.8097  1.0633 -1.2101
 1698SOL     OW 5229   2.723   1.111   3.142 -0.0314  0.4189  0.4638
 1698SOL    HW1 5230   2.728   1.198   3.101 -1.1413  0.9039  1.3066
 1698SOL    HW2 5231   2.806   1.103   3.190  0.3332  0.7571 -0.0928
 1699SOL     OW 5232   2.531   3.177   0.719  0.3550 -0.0573 -0.7174
 1699SOL    HW1 5233   2.615   3.211   0.690  0.2198 -0.3626 -1.5167
 1699SOL    HW2 5234   2.552   3.098   0.769  0.5969  0.5065  0.0883
 1700SOL     OW 5235   1.672   1.527   0.705  0.0542 -0.3948  0.0943
 1700SOL    HW1 5236   1.640   1.616   0.717 -1.8421 -1.0139 -0.0906
 1700SOL    HW2 5237   1.735   1.533   0.633  0.1813  0.8219  0.2960
 1701SOL     OW 5238   2.925   2.142   0.926 -0.4027 -0.1724 -0.3664
 1701SOL    HW1 5239   2.886   2.193   0.855 -1.3356 -1.3808 -0.7732
 1701SOL    HW2 5240   2.895   2.186   1.006 -0.3071  0.5292 -0.7064
 1702SOL     OW 5241   0.573   1.570   1.555 -0.1774  0.1883 -0.4798
 1702SOL    HW1 5242   0.490   1.600   1.518 -0.4977  0.4121  0.3899
 1702SOL    HW2 5243   0.549   1.493   1.608 -0.1311  1.2081  1.1083
 1703SOL     OW 5244   0.463   3.495   1.447  0.1621 -0.2885 -0.7301
 1703SOL    HW1 5245   0.477   3.406   1.415  1.2996 -0.5855  0.5045
 1703SOL    HW2 5246   0.387   3.488   1.505  0.5407 -0.5729 -0.2574
 1704SOL     OW 5247   1.096   1.773   2.614 -0.1103  0.2596  0.6636
 1704SOL    HW1 5248   1.016   1.824   2.621  0.4509  1.2235  0.3222
 1704SOL    HW2 5249   1.118   1.775   2.521 -1.0635 -2.2025  0.3276
 1705SOL     OW 5250   0.675   2.823   3.129 -0.1382  0.2160  0.0218
 1705SOL    HW1 5251   0.749   2.836   3.071  1.8700 -2.1216  1.8394
 1705SOL    HW2 5252   0.651   2.912   3.157  4.7596  1.1178  2.5003
 1706SOL     OW 5253   3.351   0.571   2.492 -0.0411  0.4258  0.1900
 1706SOL    HW1 5254   3.333   0.596   2.582 -1.2067 -0.0945  0.1096
 1706SOL    HW2 5255   3.267   0.576   2.447  0.2788 -0.5722 -0.5710
 1707SOL     OW 5256   3.021   2.584   0.676 -0.0977 -0.1398 -0.2920
 1707SOL    HW1 5257   3.063   2.504   0.643  0.5353  0.0848 -0.0514
 1707SOL    HW2 5258   3.038   2.649   0.609  0.6857  0.1674  0.1869
 1708SOL     OW 5259   0.412   1.883   3.616 -0.2224 -0.7315  0.2617
 1708SOL    HW1 5260   0.440   1.843   3.534 -1.6160 -2.8499  0.7237
 1708SOL    HW2 5261   0.378   1.969   3.591  0.7986 -0.7046 -1.1257
 1709SOL     OW 5262   2.563   1.457   2.055 -0.7844 -0.0370 -0.6608
 1709SOL    HW1 5263   2.605   1.466   1.969 -1.3842 -1.3981 -1.1080
 1709SOL    HW2 5264   2.571   1.364   2.077 -2.3164 -0.0597 -0.1085
 1710SOL     OW 5265   3.210   1.842   2.650  0.5826 -0.5091 -0.4830
 1710SOL    HW1 5266   3.184   1.933   2.664  0.2963 -0.7738  0.8707
 1710SOL    HW2 5267   3.294   1.848   2.605  1.1573  0.4506  0.6521
 1711SOL     OW 5268   0.667   0.020   0.555 -0.2063  0.7479 -0.7522
 1711SOL    HW1 5269   0.683   0.059   0.640  0.9766 -1.1003 -0.0691
 1711SOL    HW2 5270   0.574  -0.006   0.558 -0.2251  0.8676 -0.1022
 1712SOL     OW 5271   0.181   3.307   1.261 -0.6138  0.4959 -0.2476
 1712SOL    HW1 5272   0.126   3.374   1.300 -0.2570  0.5122  0.2308
 1712SOL    HW2 5273   0.217   3.259   1.335 -0.8529 -0.2201 -0.5858
 1713SOL     OW 5274   3.198   2.945   3.645  0.1612 -0.5129 -0.2581
 1713SOL    HW1 5275   3.181   3.029   3.603  1.2580 -0.4218 -0.5565
 1713SOL    HW2 5276   3.219   2.886   3.573  1.0266 -0.6159  0.0678
 1714SOL     OW 5277   0.147   2.815   2.002  0.0788  0.2484  0.1634
 1714SOL    HW1 5278   0.104   2.862   1.930 -1.5922 -1.8341 -0.2949
 1714SOL    HW2 5279   0.141   2.874   2.077 -1.1768  1.1260 -0.5931
 1715SOL     OW 5280   1.319   3.210   2.194 -0.8893 -0.3243 -0.2968
 1715SOL    HW1 5281   1.305   3.122   2.231 -2.1390  0.4785  1.2843
 1715SOL    HW2 5282   1.268   3.210   2.114 -0.2957 -1.2619 -0.6965
 1716SOL     OW 5283   0.701   0.382   0.158 -0.1120  0.4970 -0.3953
 1716SOL    HW1 5284   0.778   0.347   0.203 -2.2254  0.3013  3.4773
 1716SOL    HW2 5285   0.717   0.476   0.154  0.7785  0.3483 -0.6972
 1717SOL     OW 5286   0.148   0.674   0.280  0.5520 -0.1570  0.2517
 1717SOL    HW1 5287   0.217   0.624   0.237 -0.0351 -0.8646  0.1024
 1717SOL    HW2 5288   0.192   0.750   0.316  1.1175  0.3595 -1.4090
 1718SOL     OW 5289   3.393   2.577   1.381 -0.8960 -0.7117  0.1261
 1718SOL    HW1 5290   3.303   2.550   1.397 -0.8237 -0.3403  1.2173
 1718SOL    HW2 5291   3.420   2.526   1.304 -1.3898 -2.3234  0.9743
 1719SOL     OW 5292   1.902   2.147   1.435  0.1868 -0.7895 -0.4111
 1719SOL    HW1 5293   1.826   2.157   1.492  0.7566 -0.4461  0.2955
 1719SOL    HW2 5294   1.942   2.064   1.462  1.6431  0.3508  1.1559
 1720SOL     OW 5295   1.575   1.481   0.965 -0.2217 -0.6363 -0.0819
 1720SOL    HW1 5296   1.596   1.478   0.872 -0.4353 -0.2833 -0.1474
 1720SOL    HW2 5297   1.523   1.403   0.981 -0.2936 -0.6312 -0.2895
 1721SOL     OW 5298   2.533   0.855   2.476  0.0976 -0.3477  0.0810
 1721SOL    HW1 5299   2.532   0.941   2.434  1.0827 -0.5938 -0.4731
 1721SOL    HW2 5300   2.453   0.853   2.528 -0.1153  0.7645 -0.1799
 1722SOL     OW 5301   1.662   0.131   3.522 -0.4630  0.9361 -0.6136
 1722SOL    HW1 5302   1.607   0.145   3.599  1.9343  1.9220  1.0338
 1722SOL    HW2 5303   1.653   0.212   3.471 -1.0591  0.8003 -0.7313
 1723SOL     OW 5304   2.620   2.643   3.616 -0.0140 -0.3180  0.3435
 1723SOL    HW1 5305   2.627   2.548   3.610 -0.9719 -0.5278  1.8986
 1723SOL    HW2 5306   2.703   2.671   3.654  0.4241 -0.4855 -0.4801
 1724SOL     OW 5307   0.765   0.961   0.342  0.0511  0.1113  0.2971
 1724SOL    HW1 5308   0.707   0.887   0.362  0.4329 -0.7565 -1.6134
 1724SOL    HW2 5309   0.714   1.016   0.283 -0.3117  1.5460  1.8782
 1725SOL     OW 5310   3.736   0.557   3.184 -0.0740 -0.1781  0.7080
 1725SOL    HW1 5311   3.693   0.530   3.103 -0.5397  0.9525  0.5672
 1725SOL    HW2 5312   3.676   0.528   3.253  0.7830 -2.0313  0.7500
 1726SOL     OW 5313   2.749   0.617   3.615 -0.5039  0.2161  0.3315
 1726SOL    HW1 5314   2.731   0.524   3.627 -1.3488  0.4436  0.8455
 1726SOL    HW2 5315   2.845   0.622   3.611 -0.0563 -0.1416  5.2068
 1727SOL     OW 5316   1.859   2.223   3.650  0.1904 -0.1910  0.0858
 1727SOL    HW1 5317   1.807   2.255   3.723 -0.0377 -1.0605  0.3160
 1727SOL    HW2 5318   1.949   2.222   3.682  0.0872 -0.5968  0.3718
 1728SOL     OW 5319   3.123   1.331   2.909  0.8224  0.6165  0.2867
 1728SOL    HW1 5320   3.160   1.376   2.833 -0.3658  1.8356  0.3871
 1728SOL    HW2 5321   3.168   1.369   2.984  1.3074  0.1021  0.2672
 1729SOL     OW 5322   0.247   3.488   1.889  0.5112 -0.3899 -0.2163
 1729SOL    HW1 5323   0.339   3.501   1.911  1.0554 -1.1474 -1.9171
 1729SOL    HW2 5324   0.215   3.576   1.868  0.8992 -0.1545  0.1687
 1730SOL     OW 5325   1.267   1.176   2.659 -0.6015  0.5086  0.3243
 1730SOL    HW1 5326   1.264   1.271   2.674 -1.1319  0.9467 -2.0414
 1730SOL    HW2 5327   1.181   1.155   2.624 -0.0962 -0.6125 -0.2994
 1731SOL     OW 5328   2.168   3.203   2.992  0.2878 -0.0973 -0.7350
 1731SOL    HW1 5329   2.198   3.214   2.902  1.1024  0.4892 -0.4055
 1731SOL    HW2 5330   2.199   3.281   3.038  0.4461 -0.6930  0.2008
 1732SOL     OW 5331   1.873   0.372   0.847  0.6144 -0.0174  0.2881
 1732SOL    HW1 5332   1.860   0.410   0.760  0.1699 -0.7809  0.0045
 1732SOL    HW2 5333   1.937   0.429   0.890  0.4190  0.6829 -0.3357
 1733SOL     OW 5334   2.813   3.170   0.948 -0.4457  0.3836  0.4357
 1733SOL    HW1 5335   2.807   3.206   0.859 -0.3570 -1.9769 -0.5995
 1733SOL    HW2 5336   2.905   3.145   0.958 -1.1641 -3.1034 -0.4840
 1734SOL     OW 5337   1.461   2.047   2.834 -0.2190 -0.1034 -0.5896
 1734SOL    HW1 5338   1.399   2.075   2.766  1.5962  1.9995 -1.4855
 1734SOL    HW2 5339   1.493   2.128   2.873  0.6085 -1.1964  1.1465
 1735SOL     OW 5340   1.507   3.372   2.467  0.6416 -0.7154  0.1307
 1735SOL    HW1 5341   1.591   3.357   2.424  0.7474  0.2309 -0.0224
 1735SOL    HW2 5342   1.473   3.285   2.484  0.9719 -1.1206 -1.1456
 1736SOL     OW 5343   0.433   2.650   0.726  0.2291 -0.1634  0.3921
 1736SOL    HW1 5344   0.393   2.713   0.786 -0.3384 -0.2052  0.0657
 1736SOL    HW2 5345   0.373   2.646   0.652 -0.9372 -2.7179  1.3561
 1737SOL     OW 5346   1.565   0.601   2.281 -0.1543 -0.2500 -0.1264
 1737SOL    HW1 5347   1.473   0.604   2.309 -0.7526 -0.8324 -1.9153
 1737SOL    HW2 5348   1.599   0.688   2.302 -0.8529 -0.2805  1.2947
 1738SOL     OW 5349   3.113   2.522   1.303  0.2029 -0.2046 -0.4783
 1738SOL    HW1 5350   3.060   2.566   1.237 -1.2932  1.2078  1.5631
 1738SOL    HW2 5351   3.051   2.487   1.366  1.5776 -1.6870  0.1497
 1739SOL     OW 5352   1.767   3.617   1.246 -0.3584 -0.6571  0.3048
 1739SOL    HW1 5353   1.820   3.659   1.178 -0.2493  0.3018  0.9526
 1739SOL    HW2 5354   1.783   3.523   1.235 -0.2612 -0.5070 -0.9074
 1740SOL     OW 5355   2.439   1.968   0.153 -0.4171  0.0356 -0.0881
 1740SOL    HW1 5356   2.499   1.913   0.103 -1.0372 -0.5988 -0.1471
 1740SOL    HW2 5357   2.368   1.909   0.179  0.3931  0.0568  2.4711
 1741SOL     OW 5358   2.264   3.036   0.225 -0.3402 -0.3051 -0.0551
 1741SOL    HW1 5359   2.211   2.962   0.195  1.1365 -1.0625 -0.9314
 1741SOL    HW2 5360   2.339   2.995   0.269 -0.0830  0.7155  0.4921
 1742SOL     OW 5361   0.040   3.559   2.573 -0.4473 -1.0694 -0.2384
 1742SOL    HW1 5362   0.117   3.507   2.550 -0.6134 -2.0901  1.3712
 1742SOL    HW2 5363   0.003   3.515   2.650 -1.2387  0.8133  0.5127
 1743SOL     OW 5364   3.347   2.495   2.204  0.0017 -0.6729  0.0462
 1743SOL    HW1 5365   3.389   2.465   2.284  0.5357  0.0968  0.0725
 1743SOL    HW2 5366   3.364   2.590   2.202  1.2367 -0.8716 -1.6787
 1744SOL     OW 5367   0.792   0.303   1.029  0.2298  0.2792 -0.0115
 1744SOL    HW1 5368   0.770   0.338   0.943 -0.6587  2.0294  0.8790
 1744SOL    HW2 5369   0.873   0.253   1.015  0.3727  0.9388 -1.7459
 1745SOL     OW 5370   0.312   3.560   2.484 -0.4898  0.4825 -0.3350
 1745SOL    HW1 5371   0.285   3.644   2.447  0.4089  0.2700 -1.5496
 1745SOL    HW2 5372   0.380   3.528   2.424  1.1775  0.1799  1.5773
 1746SOL     OW 5373   2.315   3.181   2.743 -0.1987 -0.4255 -0.3322
 1746SOL    HW1 5374   2.339   3.140   2.660  0.6097  0.8614 -0.7620
 1746SOL    HW2 5375   2.397   3.183   2.793  0.0760  1.6633 -0.7815
 1747SOL     OW 5376   3.345   3.231   3.336  0.2406 -0.4382 -0.1074
 1747SOL    HW1 5377   3.405   3.166   3.299 -0.6682  0.2467 -3.0198
 1747SOL    HW2 5378   3.359   3.309   3.284  0.9956  1.7227  3.0473
 1748SOL     OW 5379   1.310   1.905   1.597 -0.0557  0.2348  0.0699
 1748SOL    HW1 5380   1.371   1.878   1.666  0.3307  2.6056  0.7465
 1748SOL    HW2 5381   1.224   1.901   1.639  0.1038  0.9747  0.4785
 1749SOL     OW 5382   3.225   1.728   1.232 -0.0679  0.5564 -0.3070
 1749SOL    HW1 5383   3.163   1.656   1.228 -0.5607  1.0112 -2.1189
 1749SOL    HW2 5384   3.296   1.697   1.289 -1.5854 -0.2472  1.2118
 1750SOL     OW 5385   2.764   3.302   0.655 -0.4624  0.2990 -0.4254
 1750SOL    HW1 5386   2.748   3.395   0.639  0.9058  0.6360  0.0032
 1750SOL    HW2 5387   2.810   3.271   0.577 -1.6919 -0.2548 -0.9531
 1751SOL     OW 5388   1.005   0.051   3.225 -0.5508 -0.3849 -0.7119
 1751SOL    HW1 5389   0.963   0.023   3.306 -2.0305  0.3739 -1.1803
 1751SOL    HW2 5390   0.940   0.035   3.157  1.0948 -2.0995 -1.9672
 1752SOL     OW 5391   2.629   1.907   3.708  1.1328  0.4432 -0.1578
 1752SOL    HW1 5392   2.681   1.854   3.647  0.7431 -1.0722  0.7890
 1752SOL    HW2 5393   2.571   1.957   3.651  0.8495 -0.8641 -1.0688
 1753SOL     OW 5394   0.381   0.546   2.498 -0.0636 -0.3815 -0.2802
 1753SOL    HW1 5395   0.367   0.588   2.583  1.8564 -0.6220  0.1961
 1753SOL    HW2 5396   0.333   0.463   2.504  0.4721 -0.6208  0.7633
 1754SOL     OW 5397   3.170   1.937   3.046 -0.4404 -0.0368  0.3084
 1754SOL    HW1 5398   3.225   1.968   2.974 -0.9728  2.5807  0.8995
 1754SOL    HW2 5399   3.232   1.908   3.113  0.0657 -3.3228 -1.3770
 1755SOL     OW 5400   0.287   3.439   0.268 -0.1446  0.1042  0.5548
 1755SOL    HW1 5401   0.307   3.518   0.319 -0.9210 -0.3859  1.6646
 1755SOL    HW2 5402   0.192   3.432   0.271 -0.2561  0.2497 -1.2996
 1756SOL     OW 5403   0.939   0.574   0.533  0.1852 -0.7273 -0.0600
 1756SOL    HW1 5404   0.961   0.563   0.626 -1.7561 -0.3993  0.5059
 1756SOL    HW2 5405   0.973   0.495   0.491  1.1160 -0.8795  0.9239
 1757SOL     OW 5406   2.866   1.211   1.111  0.1541 -0.0670  0.1675
 1757SOL    HW1 5407   2.858   1.152   1.186  0.2590 -0.5719 -0.2155
 1757SOL    HW2 5408   2.780   1.252   1.104 -0.5951 -1.7218 -0.8292
 1758SOL     OW 5409   1.105   1.677   1.547 -0.4590  0.1085 -0.4960
 1758SOL    HW1 5410   1.038   1.680   1.615 -1.3417  2.9462 -1.3753
 1758SOL    HW2 5411   1.186   1.659   1.595 -1.3976 -0.4317  0.9657
 1759SOL     OW 5412   1.819   1.176   0.189 -0.5103 -0.2108  0.3809
 1759SOL    HW1 5413   1.889   1.242   0.182 -1.6482  1.0805  0.7078
 1759SOL    HW2 5414   1.809   1.163   0.283  0.1683 -1.4001  0.3075
 1760SOL     OW 5415   0.893   2.249   0.224 -0.2591 -0.4342 -0.0759
 1760SOL    HW1 5416   0.879   2.232   0.317  0.3702  0.5426  0.2226
 1760SOL    HW2 5417   0.950   2.178   0.194  1.3105  0.3938  0.8293
 1761SOL     OW 5418   3.007   0.582   3.586  0.2096  0.0130  0.2035
 1761SOL    HW1 5419   3.043   0.580   3.498  0.9655  1.0314  0.4618
 1761SOL    HW2 5420   3.073   0.628   3.638 -0.4616 -0.0888  1.1887
 1762SOL     OW 5421   0.735   1.237   0.869  0.0769 -0.0607  0.4286
 1762SOL    HW1 5422   0.756   1.323   0.907  2.2947 -0.9053  1.2926
 1762SOL    HW2 5423   0.799   1.225   0.800  0.3543 -1.3656  0.8886
 1763SOL     OW 5424   2.676   2.126   2.424 -0.9809  0.3475 -0.0893
 1763SOL    HW1 5425   2.651   2.186   2.354  0.4569  0.6963 -0.3343
 1763SOL    HW2 5426   2.608   2.058   2.423 -1.6858  1.0426 -0.9464
 1764SOL     OW 5427   2.627   1.307   2.882  0.5862 -0.0080  0.1617
 1764SOL    HW1 5428   2.574   1.274   2.809 -2.9978  2.7038  1.2456
 1764SOL    HW2 5429   2.717   1.297   2.852 -0.5963 -0.7999 -3.7985
 1765SOL     OW 5430   0.309   3.078   2.280 -0.2732  0.0765 -0.5442
 1765SOL    HW1 5431   0.375   3.010   2.264  2.2486  2.4700 -1.1538
 1765SOL    HW2 5432   0.312   3.092   2.375 -0.1699 -0.0537 -0.5276
 1766NA      NA 5433   0.728   2.111   1.086  0.4209 -0.2047 -0.1458
 1767NA      NA 5434   1.219   2.493   0.005  0.4356 -0.2480 -0.2007
 1768NA      NA 5435   2.826   1.451   0.718  0.4363  0.0654 -0.4739
   3.72760   3.72760   3.72760
