Protein in water
 5430
    0TYR      N    1   1.692   3.139   3.271  0.2111  0.0001  0.2629
    0TYR     H1    2   1.769   3.168   3.207 -1.8360  0.7371 -2.0030
    0TYR     H2    3   1.694   3.040   3.304  2.0782 -0.2503 -0.4832
    0TYR     H3    4   1.708   3.205   3.349  0.9534 -0.2659  0.3463
    0TYR     CA    5   1.566   3.154   3.195  0.2017 -0.7344 -0.1470
    0TYR     HA    6   1.478   3.124   3.251 -0.0282 -0.0831 -0.1490
    0TYR     CB    7   1.550   3.304   3.166  0.4250 -0.4371 -0.4455
    0TYR    HB1    8   1.634   3.338   3.101 -0.5968  0.5543 -1.2869
    0TYR    HB2    9   1.566   3.360   3.261  1.6386  0.7411 -1.3019
    0TYR     CG   10   1.410   3.357   3.115  0.1403  0.2535  0.1334
    0TYR    CD1   11   1.298   3.325   3.183  0.0259 -0.1862 -0.1997
    0TYR    HD1   12   1.301   3.254   3.264 -2.5121 -3.6980 -2.8457
    0TYR    CE1   13   1.172   3.390   3.145 -0.6946  0.2491 -0.1631
    0TYR    HE1   14   1.082   3.361   3.197 -1.2573 -1.9651 -2.1995
    0TYR     CZ   15   1.175   3.504   3.060 -0.1794  0.9055  0.2470
    0TYR     OH   16   1.054   3.581   3.069  0.1268  0.1114  0.7748
    0TYR     HH   17   1.062   3.657   3.010  1.4337 -1.4778 -1.2251
    0TYR    CD2   18   1.405   3.444   3.007  0.5510 -0.1815 -0.1805
    0TYR    HD2   19   1.499   3.473   2.961  0.6568  1.3359  0.9230
    0TYR    CE2   20   1.290   3.523   2.987  0.2218  0.1341 -0.9483
    0TYR    HE2   21   1.286   3.606   2.919 -2.0066  2.4990  1.8020
    0TYR      C   22   1.569   3.070   3.067  0.8645  0.3865 -0.8836
    0TYR      O   23   1.560   2.945   3.080 -0.3421  1.1047 -0.1623
    1TYR      N   24   1.583   3.124   2.944  0.1846  0.2859 -0.0925
    1TYR     HN   25   1.590   3.223   2.937  3.1566  0.2123  0.4828
    1TYR     CA   26   1.579   3.052   2.816 -0.4578 -0.7185  0.1314
    1TYR     HA   27   1.648   2.969   2.819 -0.6780 -0.8959  0.3204
    1TYR     CB   28   1.435   2.997   2.781 -0.0056 -0.5201 -0.3301
    1TYR    HB1   29   1.383   2.941   2.862 -2.0282 -0.5611 -1.5771
    1TYR    HB2   30   1.454   2.927   2.697  0.6593  0.1320 -0.7381
    1TYR     CG   31   1.334   3.090   2.732 -0.3380  0.4036  1.0254
    1TYR    CD1   32   1.318   3.113   2.592 -0.6040  0.3113  0.3308
    1TYR    HD1   33   1.380   3.075   2.513 -1.5229  1.1039 -0.8030
    1TYR    CE1   34   1.231   3.210   2.549 -0.3394  0.1725  0.7629
    1TYR    HE1   35   1.226   3.238   2.445 -1.5796 -1.5158  0.3360
    1TYR     CZ   36   1.159   3.277   2.640 -0.0970 -1.4573  0.2898
    1TYR     OH   37   1.071   3.367   2.588 -0.4213 -0.8208  0.1808
    1TYR     HH   38   1.051   3.340   2.499 -1.2595 -1.5952  0.5829
    1TYR    CD2   39   1.251   3.153   2.820  0.5556 -0.2139 -0.8769
    1TYR    HD2   40   1.266   3.122   2.922 -1.3945  1.7830  0.0980
    1TYR    CE2   41   1.160   3.259   2.773 -0.1141 -0.7905  0.1858
    1TYR    HE2   42   1.106   3.329   2.835  4.2032  2.5389  0.7203
    1TYR      C   43   1.628   3.151   2.710  0.6867 -0.0201  0.0682
    1TYR      O   44   1.597   3.270   2.711  0.5796  0.0639  0.1582
    2ASP      N   45   1.694   3.095   2.604 -0.0563  0.0334 -0.8420
    2ASP     HN   46   1.719   3.000   2.618 -1.3822 -0.1798  0.1448
    2ASP     CA   47   1.733   3.153   2.480 -0.3712  0.9167 -0.6487
    2ASP     HA   48   1.713   3.259   2.482 -0.7042  0.8911 -1.9069
    2ASP     CB   49   1.874   3.114   2.462 -0.7109  0.1334 -0.6139
    2ASP    HB1   50   1.927   3.141   2.368  0.3550 -1.4820 -0.5207
    2ASP    HB2   51   1.888   3.005   2.479 -2.0199  0.1754  0.9542
    2ASP     CG   52   1.957   3.177   2.566 -0.2660  0.3337  0.4496
    2ASP    OD1   53   1.989   3.102   2.669  0.6833 -1.1146  0.0838
    2ASP    OD2   54   2.004   3.295   2.560  0.0214 -0.9680  0.0133
    2ASP      C   55   1.653   3.105   2.362  0.0392 -0.8720  0.6159
    2ASP      O   56   1.620   3.182   2.271  0.1014  0.4111 -0.9088
    3MET      N   57   1.628   2.980   2.354 -0.0991  0.1437 -0.3144
    3MET     HN   58   1.649   2.917   2.428  2.0232 -1.4220 -2.1180
    3MET     CA   59   1.548   2.912   2.254 -1.0413  0.3968 -0.5725
    3MET     HA   60   1.537   2.969   2.163  0.2507 -0.4555 -1.3062
    3MET     CB   61   1.625   2.783   2.202  0.2919  1.1543  0.7017
    3MET    HB1   62   1.650   2.720   2.290  3.2021 -0.6911 -1.3024
    3MET    HB2   63   1.723   2.807   2.157 -1.2059  1.3865 -2.7269
    3MET     CG   64   1.548   2.693   2.098  0.0304 -0.7989 -0.1863
    3MET    HG1   65   1.617   2.614   2.061  0.7981 -0.2749  0.1158
    3MET    HG2   66   1.459   2.639   2.138 -1.6368  1.7573 -0.2020
    3MET     SD   67   1.515   2.791   1.947 -0.0661 -0.2093 -0.1084
    3MET     CE   68   1.673   2.749   1.856 -0.7717  0.0731 -0.3265
    3MET    HE1   69   1.682   2.782   1.750  0.1088 -2.2077 -1.0304
    3MET    HE2   70   1.757   2.802   1.906 -1.3201  0.6910 -0.0401
    3MET    HE3   71   1.687   2.639   1.861 -0.3001  0.0347 -1.8320
    3MET      C   72   1.415   2.873   2.312 -0.2130 -0.1876  0.1130
    3MET      O   73   1.412   2.811   2.418  0.3489  0.0708  0.2147
    4GLU      N   74   1.294   2.907   2.254  0.2082 -0.4324  0.2613
    4GLU     HN   75   1.282   2.933   2.158  1.7337 -1.4251 -0.2293
    4GLU     CA   76   1.176   2.896   2.340 -0.3197 -0.5149 -0.2041
    4GLU     HA   77   1.195   2.946   2.434 -0.1497 -2.5973  0.9339
    4GLU     CB   78   1.079   2.980   2.273 -0.4785  0.5910 -0.5805
    4GLU    HB1   79   1.059   2.933   2.174 -0.8331 -1.1607  0.2873
    4GLU    HB2   80   1.126   3.079   2.252 -0.7436  0.5890 -1.2215
    4GLU     CG   81   0.952   3.011   2.360  0.0079  0.3918  1.4355
    4GLU    HG1   82   0.962   3.098   2.428 -1.8919  2.4192 -0.7105
    4GLU    HG2   83   0.924   2.917   2.414 -1.4857 -0.0241  0.0196
    4GLU     CD   84   0.838   3.040   2.261 -0.2072 -0.5890  0.1957
    4GLU    OE1   85   0.779   3.153   2.264  0.2492  0.4508 -0.1413
    4GLU    OE2   86   0.791   2.944   2.195  0.9904 -0.3982  0.2982
    4GLU      C   87   1.129   2.754   2.373  0.7922 -0.0557 -0.4828
    4GLU      O   88   1.092   2.713   2.485 -0.2075 -0.3685 -0.6018
    5THR      N   89   1.137   2.666   2.272 -0.1530  0.2087  0.9789
    5THR     HN   90   1.151   2.703   2.180  1.3359 -1.5537  0.4391
    5THR     CA   91   1.129   2.525   2.274  0.0839 -0.1120  0.1866
    5THR     HA   92   1.048   2.503   2.343 -1.8568  1.7736 -1.3708
    5THR     CB   93   1.089   2.465   2.139 -0.3355  0.5002 -0.0798
    5THR     HB   94   1.091   2.354   2.144 -0.7150  0.4854 -0.1893
    5THR    OG1   95   1.175   2.502   2.038  0.0303  0.0704  0.7408
    5THR    HG1   96   1.129   2.487   1.955  0.4062  2.3769  0.0341
    5THR    CG2   97   0.952   2.524   2.095  0.3892 -0.2530  0.5386
    5THR   HG21   98   0.880   2.480   2.168 -0.0740  0.1558  0.3273
    5THR   HG22   99   0.922   2.496   1.992 -0.6525 -0.9106  1.0149
    5THR   HG23  100   0.935   2.633   2.095 -4.2263 -0.7754 -1.4326
    5THR      C  101   1.257   2.452   2.323  0.5482 -0.5399  0.7627
    5THR      O  102   1.273   2.330   2.313  0.7407 -0.1489 -0.0861
    6GLY      N  103   1.344   2.525   2.380 -0.6757  0.3545  0.2526
    6GLY     HN  104   1.351   2.625   2.375  1.2861  0.5397  3.4335
    6GLY     CA  105   1.475   2.471   2.431  0.2550 -0.2946 -0.5507
    6GLY    HA1  106   1.551   2.546   2.414  0.3435 -0.1237  0.5243
    6GLY    HA2  107   1.509   2.379   2.387  2.0021  1.5948 -3.4806
    6GLY      C  108   1.482   2.437   2.576  0.4699 -0.0759 -0.6811
    6GLY      O  109   1.380   2.445   2.644 -0.1454  0.1752  0.2396
    7THR      N  110   1.592   2.400   2.645 -0.5212 -0.0359 -1.0663
    7THR     HN  111   1.682   2.403   2.602  0.1108  2.2198  0.2326
    7THR     CA  112   1.598   2.381   2.790 -0.2572  0.5931  0.7848
    7THR     HA  113   1.514   2.316   2.810 -1.5305  1.5580 -1.1433
    7THR     CB  114   1.727   2.317   2.830 -0.1803  0.7455  0.1541
    7THR     HB  115   1.816   2.378   2.806 -0.1692  1.2863  1.4803
    7THR    OG1  116   1.735   2.188   2.763  0.3246  0.3031  0.0203
    7THR    HG1  117   1.814   2.147   2.801  0.4512  1.7301  1.3809
    7THR    CG2  118   1.740   2.282   2.984 -0.1559  0.4685 -0.9560
    7THR   HG21  119   1.841   2.237   2.997 -0.5086 -0.4673 -1.3884
    7THR   HG22  120   1.664   2.205   3.007  0.6496 -0.3022 -0.8318
    7THR   HG23  121   1.731   2.367   3.055  0.6743 -0.2377  0.0168
    7THR      C  122   1.569   2.509   2.858  0.3011 -0.2442  0.7496
    7THR      O  123   1.650   2.600   2.845  0.2227  0.2023  0.0298
    8TRP      N  124   1.462   2.522   2.931  0.4763  0.0615 -0.1033
    8TRP     HN  125   1.387   2.457   2.933 -2.0973  2.8004 -0.0696
    8TRP     CA  126   1.453   2.624   3.031  0.5415  0.0907 -0.4651
    8TRP     HA  127   1.488   2.718   2.992  0.1541  0.1884 -0.5746
    8TRP     CB  128   1.306   2.651   3.087  0.1820  0.5917  0.1725
    8TRP    HB1  129   1.314   2.710   3.181  0.4798 -0.8683  1.0971
    8TRP    HB2  130   1.266   2.549   3.106  0.7433 -0.0168 -1.6716
    8TRP     CG  131   1.217   2.724   2.985  0.1181 -0.7455 -0.3743
    8TRP    CD1  132   1.212   2.706   2.849 -0.4636  0.2208  0.1214
    8TRP    HD1  133   1.281   2.643   2.795 -0.9514 -0.3450  0.1489
    8TRP    NE1  134   1.119   2.781   2.787 -0.2148 -0.5410 -0.1961
    8TRP    HE1  135   1.088   2.774   2.695  0.5724  1.5540 -0.6732
    8TRP    CE2  136   1.050   2.847   2.888 -0.8292  0.9069  0.0585
    8TRP    CD2  137   1.118   2.820   3.016  0.2211  0.3487  0.3609
    8TRP    CE3  138   1.075   2.872   3.137  0.3016 -0.9481 -0.1577
    8TRP    HE3  139   1.107   2.845   3.236 -1.0996  0.9079  0.8699
    8TRP    CZ3  140   0.974   2.968   3.123  0.5021 -0.1043 -0.0916
    8TRP    HZ3  141   0.939   3.018   3.213  3.1701 -0.9631  1.5462
    8TRP    CZ2  142   0.954   2.937   2.882  0.1489  0.5764 -0.0722
    8TRP    HZ2  143   0.907   2.961   2.788 -1.3129 -0.5621  0.3308
    8TRP    CH2  144   0.916   3.001   3.000  0.4650 -0.3069 -0.6170
    8TRP    HH2  145   0.835   3.072   3.003 -0.6853 -1.5776 -0.3526
    8TRP      C  146   1.543   2.597   3.148 -0.4489 -0.1184  0.7922
    8TRP      O  147   1.538   2.486   3.203 -0.8141 -1.0168 -0.5929
    9TYR      N  148   1.624   2.692   3.194 -0.1019  0.0397  0.1358
    9TYR     HN  149   1.593   2.784   3.171  0.5070 -0.2172 -1.8858
    9TYR     CA  150   1.724   2.666   3.303  0.8922  0.5598  0.4142
    9TYR     HA  151   1.697   2.576   3.356 -1.2478  0.6646 -0.4039
    9TYR     CB  152   1.879   2.653   3.262  0.6770  0.0387  0.0617
    9TYR    HB1  153   1.896   2.544   3.258 -0.6820 -0.3125  2.3040
    9TYR    HB2  154   1.947   2.698   3.338  0.6339  1.3802 -0.6563
    9TYR     CG  155   1.902   2.712   3.128  0.4896  0.2417  0.4835
    9TYR    CD1  156   1.938   2.632   3.021 -0.3477 -0.5843  0.4989
    9TYR    HD1  157   1.943   2.524   3.024 -1.1957 -0.6408  0.0344
    9TYR    CE1  158   1.956   2.691   2.895  0.4197 -0.1958  0.1309
    9TYR    HE1  159   1.979   2.628   2.810 -1.0739 -2.9853  1.6427
    9TYR     CZ  160   1.921   2.823   2.869  0.2752 -0.4877  0.4729
    9TYR     OH  161   1.906   2.868   2.738 -0.2376 -0.2001  0.8176
    9TYR     HH  162   1.922   2.962   2.737  0.9862 -0.3689  2.0297
    9TYR    CD2  163   1.884   2.855   3.101 -0.1150 -0.3719 -1.0775
    9TYR    HD2  164   1.864   2.911   3.190  0.2696 -2.5566  0.4694
    9TYR    CE2  165   1.892   2.910   2.974  0.1879 -0.2628 -0.2137
    9TYR    HE2  166   1.857   3.009   2.952  1.4648  0.1812 -0.3307
    9TYR      C  167   1.726   2.778   3.414  0.4475  0.1423 -0.1822
    9TYR    OT1  168   1.751   2.746   3.531 -0.7726  0.3016  0.3905
    9TYR    OT2  169   1.711   2.901   3.375  0.2087 -0.1455 -0.6451
   10SOL     OW  170   2.693   3.421   3.371 -0.2486 -0.2855  0.3875
   10SOL    HW1  171   2.777   3.443   3.329 -1.5279 -0.4865 -2.5588
   10SOL    HW2  172   2.666   3.341   3.327 -3.3090  1.3276 -0.9548
   11SOL     OW  173   3.191  -0.027   1.243  0.0820 -0.2019 -0.0160
   11SOL    HW1  174   3.166   0.026   1.167 -0.7323 -1.1878 -0.4589
   11SOL    HW2  175   3.230   0.036   1.303 -0.6911  0.8815 -0.5929
   12SOL     OW  176   1.529   2.357   0.300  0.2242 -0.4813 -0.5876
   12SOL    HW1  177   1.470   2.284   0.281 -0.2760 -0.7647  1.6799
   12SOL    HW2  178   1.614   2.328   0.266 -0.3413 -1.3075 -1.3618
   13SOL     OW  179   0.574   0.510   2.066  0.5580  0.2515 -0.4828
   13SOL    HW1  180   0.491   0.506   2.018 -0.1488  1.0307  0.6088
   13SOL    HW2  181   0.632   0.451   2.018 -0.9720 -1.2435 -0.6315
   14SOL     OW  182   3.115   2.121   3.261  0.6086 -0.1577  0.4876
   14SOL    HW1  183   3.062   2.069   3.201 -0.0857 -0.0625  0.9947
   14SOL    HW2  184   3.205   2.096   3.243  0.3469 -0.7682  0.0157
   15SOL     OW  185   0.715   2.966   0.324  0.2620  0.2821 -0.0465
   15SOL    HW1  186   0.711   2.982   0.229 -0.2490  5.1783  0.5106
   15SOL    HW2  187   0.798   3.006   0.351 -0.4750  0.6931  1.7518
   16SOL     OW  188   3.023   3.101   2.720 -0.1356  0.1749 -0.7120
   16SOL    HW1  189   2.979   3.178   2.756 -1.1904 -1.7284  2.4925
   16SOL    HW2  190   3.115   3.125   2.715 -0.2907  1.3175  1.2682
   17SOL     OW  191   0.922   1.220   1.164  0.1611 -0.0988 -0.2426
   17SOL    HW1  192   0.988   1.282   1.198 -1.1363  0.6233  1.0804
   17SOL    HW2  193   0.957   1.134   1.186  0.5387  0.2832  0.7025
   18SOL     OW  194   2.685   3.605   3.050 -0.1315  0.2908 -0.0038
   18SOL    HW1  195   2.629   3.656   2.991 -1.5832 -1.0046  0.2145
   18SOL    HW2  196   2.749   3.669   3.083 -1.5885  1.8768 -0.1030
   19SOL     OW  197   0.114   0.491   0.364 -0.0178  0.8869 -0.5602
   19SOL    HW1  198   0.141   0.407   0.402 -0.4537  1.5954  1.4722
   19SOL    HW2  199   0.057   0.467   0.291 -0.1179 -0.6022 -0.0396
   20SOL     OW  200   1.502   1.674   0.510 -0.3130 -0.4400 -0.4285
   20SOL    HW1  201   1.581   1.677   0.456 -0.4605  1.2119 -0.6004
   20SOL    HW2  202   1.430   1.685   0.447 -0.4944  1.2776  0.0373
   21SOL     OW  203   1.520   0.908   1.832 -0.1572  0.0454  0.0512
   21SOL    HW1  204   1.611   0.894   1.855 -0.4803  0.7429  1.9281
   21SOL    HW2  205   1.497   0.991   1.873 -1.2155  0.6874 -1.7273
   22SOL     OW  206   2.423   1.723   1.426 -0.8797  0.3637 -0.6407
   22SOL    HW1  207   2.503   1.752   1.381 -1.4936 -1.3830 -3.0655
   22SOL    HW2  208   2.453   1.662   1.492 -0.1343  0.5215 -0.8225
   23SOL     OW  209   0.099   1.467   3.027 -0.7076 -0.1603 -0.2476
   23SOL    HW1  210   0.110   1.385   2.979  1.5297  0.5557 -1.1406
   23SOL    HW2  211   0.013   1.499   3.001 -0.3797 -0.7798 -2.2938
   24SOL     OW  212   0.011   2.397   2.635  0.0980 -0.0084 -0.3947
   24SOL    HW1  213   0.021   2.304   2.655  1.4777  0.3301  0.6102
   24SOL    HW2  214   0.099   2.433   2.645 -0.4571  1.4399 -0.6015
   25SOL     OW  215   1.009   3.425   1.946  0.0824 -0.0675  0.2749
   25SOL    HW1  216   1.024   3.520   1.948 -0.1534  0.2073 -3.7130
   25SOL    HW2  217   1.094   3.387   1.967  0.3476  1.0160  1.2755
   26SOL     OW  218   2.438   1.084   0.170 -0.3042 -0.5549 -0.1764
   26SOL    HW1  219   2.369   1.137   0.129 -0.7739 -1.0098  0.0093
   26SOL    HW2  220   2.487   1.145   0.224 -0.3704 -0.1658 -0.5514
   27SOL     OW  221   0.108   1.553   1.801  0.2480 -0.2545 -0.8403
   27SOL    HW1  222   0.196   1.564   1.836 -0.4393 -2.2602  1.7978
   27SOL    HW2  223   0.117   1.488   1.731  0.9062 -0.0629 -0.9366
   28SOL     OW  224   3.467   2.677   2.121  0.4034 -0.2473 -0.0452
   28SOL    HW1  225   3.542   2.712   2.072 -0.8771  2.9753  0.0974
   28SOL    HW2  226   3.402   2.747   2.119 -2.0250 -2.3196  1.2158
   29SOL     OW  227   0.650   0.424   1.450 -0.0473  0.2975 -0.3104
   29SOL    HW1  228   0.696   0.474   1.517  0.6006  1.0919 -1.3172
   29SOL    HW2  229   0.585   0.373   1.498  1.5202 -0.4592  1.1091
   30SOL     OW  230   3.193   2.558   0.234 -0.0215 -0.3519 -0.5758
   30SOL    HW1  231   3.120   2.610   0.202  0.5241  0.7928 -0.0260
   30SOL    HW2  232   3.264   2.575   0.172  0.3848  0.1694  0.0206
   31SOL     OW  233   0.295   3.249   3.691 -0.0236  0.4599 -0.6351
   31SOL    HW1  234   0.319   3.222   3.602 -1.7842 -3.6658 -0.0854
   31SOL    HW2  235   0.373   3.230   3.743  0.9178  2.6382 -1.1040
   32SOL     OW  236   1.997   3.612   0.608  0.5289 -0.1859 -0.0403
   32SOL    HW1  237   1.931   3.553   0.573 -0.7162  0.1009  1.7393
   32SOL    HW2  238   1.955   3.698   0.608  1.8932  0.5386 -1.4461
   33SOL     OW  239   1.726   0.222   3.367  0.3095  0.4527 -0.0780
   33SOL    HW1  240   1.647   0.254   3.323 -0.8595 -0.4773  1.2924
   33SOL    HW2  241   1.778   0.301   3.381 -1.5071  1.4908  1.2177
   34SOL     OW  242   1.816   0.614   3.213 -0.0517  0.1187  0.3837
   34SOL    HW1  243   1.880   0.685   3.216 -1.0755  1.0750 -0.0528
   34SOL    HW2  244   1.767   0.629   3.132  0.4153 -1.7214 -0.2977
   35SOL     OW  245   0.307   1.458   2.675 -0.7056  0.2808  0.5619
   35SOL    HW1  246   0.228   1.502   2.707  0.3204  2.9123 -0.2336
   35SOL    HW2  247   0.349   1.423   2.753 -2.5167 -0.9636  1.0245
   36SOL     OW  248   0.986   0.965   1.312 -0.3657  0.1240  0.0840
   36SOL    HW1  249   0.993   1.038   1.374 -1.8124  1.2880 -1.0425
   36SOL    HW2  250   0.919   0.908   1.350  0.9437 -0.8233  1.0939
   37SOL     OW  251   0.272   0.153   3.217  0.4500  0.7473  0.3095
   37SOL    HW1  252   0.228   0.150   3.302 -1.4658  1.3662 -0.6143
   37SOL    HW2  253   0.287   0.247   3.201  2.5234  0.5480  0.7549
   38SOL     OW  254   3.537   2.254   1.659 -0.2260  0.0843 -0.4200
   38SOL    HW1  255   3.596   2.217   1.725 -1.5615  0.4411  1.0259
   38SOL    HW2  256   3.524   2.345   1.687 -0.8730  0.2205 -1.1360
   39SOL     OW  257   3.705   1.970   3.107  0.0266 -0.1327 -0.2378
   39SOL    HW1  258   3.686   1.879   3.130  0.6315  0.4006  2.6750
   39SOL    HW2  259   3.622   2.004   3.074 -0.4147 -1.4939 -0.5897
   40SOL     OW  260   0.584   0.134   3.612  0.2092 -0.3741  0.3089
   40SOL    HW1  261   0.585   0.203   3.545  2.0365  0.2551  0.9080
   40SOL    HW2  262   0.583   0.181   3.695 -1.8957 -1.1499  0.7639
   41SOL     OW  263   1.297   2.304   0.778  0.2187  0.2969  0.6039
   41SOL    HW1  264   1.222   2.297   0.837  0.5823  2.2391  1.3559
   41SOL    HW2  265   1.373   2.309   0.837  1.0241 -2.0427 -0.1494
   42SOL     OW  266   2.336   1.632   3.413 -0.6465  0.4120 -0.0057
   42SOL    HW1  267   2.291   1.649   3.496  0.1057 -2.8231  1.2164
   42SOL    HW2  268   2.271   1.588   3.359 -0.5056  0.5249 -0.2673
   43SOL     OW  269   1.449   1.319   2.870  0.1443 -0.0791  0.1218
   43SOL    HW1  270   1.488   1.307   2.784 -0.7631 -0.0750 -0.2982
   43SOL    HW2  271   1.429   1.412   2.875  0.2495 -0.0683  0.3600
   44SOL     OW  272   1.505   1.320   2.599  0.2533 -0.8403 -0.6686
   44SOL    HW1  273   1.419   1.319   2.557  0.4550  2.3331 -1.3848
   44SOL    HW2  274   1.567   1.299   2.528  0.1763 -1.7451 -0.4731
   45SOL     OW  275   3.493   1.487   1.696 -0.2977 -0.6965 -0.0603
   45SOL    HW1  276   3.532   1.514   1.780 -0.2205 -0.0000 -0.3176
   45SOL    HW2  277   3.428   1.554   1.677 -1.0294 -1.3891 -0.0696
   46SOL     OW  278   1.616   1.138   3.611  0.2475 -0.2137  0.2821
   46SOL    HW1  279   1.584   1.132   3.521  0.7596  0.8977  0.0064
   46SOL    HW2  280   1.617   1.232   3.629 -0.4112 -0.4555  1.6642
   47SOL     OW  281   1.904   1.247   1.989 -0.1102 -0.3807  0.4692
   47SOL    HW1  282   1.868   1.239   2.077 -1.5522  1.6144  0.1328
   47SOL    HW2  283   1.999   1.243   2.001 -0.2671  0.0925  2.1455
   48SOL     OW  284   1.888   0.137   1.313 -0.1255 -0.1983  0.3241
   48SOL    HW1  285   1.851   0.051   1.334  1.7437 -1.0856  0.1323
   48SOL    HW2  286   1.960   0.118   1.253 -0.3922  1.6186 -0.6258
   49SOL     OW  287   2.567   2.673   1.870 -0.3285 -0.3348  0.0336
   49SOL    HW1  288   2.479   2.686   1.832 -0.0999 -1.2927 -0.8644
   49SOL    HW2  289   2.614   2.754   1.847 -0.3716 -0.6519 -1.2828
   50SOL     OW  290   3.251   0.315   0.605  0.2196 -0.1171  0.6795
   50SOL    HW1  291   3.230   0.351   0.691  0.8617 -0.3489  0.9428
   50SOL    HW2  292   3.213   0.227   0.607  0.0625 -0.0501  0.6513
   51SOL     OW  293   3.199   1.531   3.489  0.4301  0.1250  0.1896
   51SOL    HW1  294   3.113   1.519   3.449 -0.4264 -0.3784  2.0915
   51SOL    HW2  295   3.258   1.483   3.432 -0.4140  0.9386 -1.4711
   52SOL     OW  296   3.214   0.413   0.871 -0.1022  0.3446  0.3179
   52SOL    HW1  297   3.208   0.504   0.899  1.2032 -0.1162  2.2887
   52SOL    HW2  298   3.298   0.383   0.904  0.0740 -1.2441 -1.3957
   53SOL     OW  299   1.823   2.379   2.419 -0.3622 -0.1844 -0.4340
   53SOL    HW1  300   1.859   2.353   2.334  0.6159 -1.1663  0.2674
   53SOL    HW2  301   1.847   2.472   2.427 -0.8521  0.0494 -1.4044
   54SOL     OW  302   2.803   1.118   3.287  0.2314 -0.0495 -0.1648
   54SOL    HW1  303   2.768   1.133   3.199  0.9876  0.8179 -0.3307
   54SOL    HW2  304   2.769   1.190   3.339  0.2192 -0.2670  0.1324
   55SOL     OW  305   2.484   3.162   0.861 -0.5489  0.2214  0.1468
   55SOL    HW1  306   2.524   3.080   0.833  0.3154  0.8584 -0.5390
   55SOL    HW2  307   2.425   3.186   0.790  1.3178  1.6138 -1.0276
   56SOL     OW  308   0.672   1.218   3.132 -0.2113  0.0841 -0.0878
   56SOL    HW1  309   0.701   1.135   3.094 -0.1437 -0.0611  0.2704
   56SOL    HW2  310   0.740   1.281   3.110 -1.0850  0.4712 -1.8690
   57SOL     OW  311   1.637   3.520   2.131 -0.2782 -0.6195 -0.0887
   57SOL    HW1  312   1.668   3.447   2.077  0.7582  0.3770 -0.8880
   57SOL    HW2  313   1.679   3.597   2.094  0.1453  0.1653  1.8985
   58SOL     OW  314   0.368   1.754   3.695  0.3175 -1.5859  0.1396
   58SOL    HW1  315   0.349   1.685   3.631 -0.5004 -1.1623 -0.0893
   58SOL    HW2  316   0.385   1.706   3.777  3.8834 -2.3183 -0.8481
   59SOL     OW  317   3.689   1.338   1.041  0.2997 -0.5055 -0.1395
   59SOL    HW1  318   3.771   1.289   1.047 -0.2835 -1.2897  3.4211
   59SOL    HW2  319   3.714   1.420   0.999  2.5890 -1.3064 -0.5254
   60SOL     OW  320   0.469   1.888   1.769  0.3904  0.1453  0.0855
   60SOL    HW1  321   0.390   1.938   1.792 -0.3795  0.1151 -2.2956
   60SOL    HW2  322   0.531   1.909   1.839 -1.5028  0.6149  1.7323
   61SOL     OW  323   0.461   0.540   3.552 -0.1546 -0.4111 -0.3073
   61SOL    HW1  324   0.380   0.548   3.502 -2.0796 -1.0009  2.4382
   61SOL    HW2  325   0.499   0.628   3.553 -2.3543  0.5978  0.7121
   62SOL     OW  326   0.663   2.409   2.066  0.1478 -0.4638 -0.6634
   62SOL    HW1  327   0.571   2.391   2.049 -0.3272 -1.4036  2.2996
   62SOL    HW2  328   0.664   2.447   2.154  2.5491  0.1451 -0.8756
   63SOL     OW  329   2.405   0.917   2.271 -0.7119  0.1727 -0.2225
   63SOL    HW1  330   2.447   0.997   2.300  0.9443 -0.7411  0.0175
   63SOL    HW2  331   2.408   0.859   2.347 -1.7925 -0.1654 -0.4161
   64SOL     OW  332   2.133   1.949   2.464 -0.0945 -0.2565  0.2076
   64SOL    HW1  333   2.157   1.863   2.429  0.1892 -0.5180  1.0276
   64SOL    HW2  334   2.202   2.007   2.432  1.5954 -0.9596  2.3370
   65SOL     OW  335   2.296   1.294   1.301  0.2911 -0.4178  0.0971
   65SOL    HW1  336   2.263   1.206   1.320  0.6617 -0.3302  1.2688
   65SOL    HW2  337   2.270   1.311   1.211 -0.5570 -1.3805  0.1433
   66SOL     OW  338   1.079   0.876   3.621 -0.0752  0.5335  0.6107
   66SOL    HW1  339   0.999   0.852   3.668 -0.2649  1.6661  0.9033
   66SOL    HW2  340   1.143   0.810   3.646 -0.5115  0.4428  1.5109
   67SOL     OW  341   1.564   0.063   2.984 -0.4543  0.0569  0.6597
   67SOL    HW1  342   1.603  -0.006   3.038  0.0074  0.0387  0.3055
   67SOL    HW2  343   1.629   0.081   2.917  0.3046  2.2359  1.8948
   68SOL     OW  344   3.210   0.482   1.668 -0.1201  0.7258  0.0087
   68SOL    HW1  345   3.168   0.397   1.653 -0.9301  0.9850  0.6701
   68SOL    HW2  346   3.301   0.469   1.643 -0.6926  0.3013 -2.0729
   69SOL     OW  347   1.459   2.650   0.444  0.3607 -0.2398  0.4884
   69SOL    HW1  348   1.389   2.621   0.503 -0.9255 -1.6802 -1.6167
   69SOL    HW2  349   1.443   2.602   0.362  2.1309  1.5503 -1.0087
   70SOL     OW  350   0.480   2.570   1.699  0.2133  0.4595 -0.2482
   70SOL    HW1  351   0.548   2.506   1.721 -0.8025  0.1525  2.2370
   70SOL    HW2  352   0.465   2.619   1.780  0.5554  3.5679 -1.8941
   71SOL     OW  353   1.008   0.104   0.975 -0.3166 -0.5896  0.4747
   71SOL    HW1  354   0.952   0.027   0.977 -0.1437 -0.7232  0.1648
   71SOL    HW2  355   0.965   0.164   0.914 -0.6051 -0.3205  0.9354
   72SOL     OW  356   1.438   2.416   1.868  0.0794  0.3755 -0.3440
   72SOL    HW1  357   1.485   2.336   1.890 -0.7813 -0.3522 -1.0311
   72SOL    HW2  358   1.395   2.442   1.950  1.5133  0.9818  0.2567
   73SOL     OW  359   3.461   3.008   2.370 -0.0175 -0.2027  0.3603
   73SOL    HW1  360   3.485   3.005   2.278  3.1343 -0.0101  1.0423
   73SOL    HW2  361   3.373   2.971   2.374  0.0653 -0.9496 -2.5902
   74SOL     OW  362   0.718   1.710   1.978  0.4660 -0.1723  0.5940
   74SOL    HW1  363   0.772   1.696   1.900  1.0288 -0.8553  1.1010
   74SOL    HW2  364   0.771   1.768   2.033 -1.2103  2.9781 -0.8291
   75SOL     OW  365   0.038   0.248   3.013 -0.3651  0.1063 -0.1680
   75SOL    HW1  366  -0.028   0.317   3.005 -1.8376 -1.4146 -2.8737
   75SOL    HW2  367   0.119   0.288   2.982 -1.1073  0.7664 -1.3463
   76SOL     OW  368   1.011   0.773   2.023  0.1181 -0.3492 -0.0711
   76SOL    HW1  369   0.961   0.844   2.063 -0.0091 -0.7416  0.4725
   76SOL    HW2  370   1.073   0.817   1.965  0.2361  0.2150  0.4822
   77SOL     OW  371   1.201   3.620   0.093 -0.3592  0.3060  0.1343
   77SOL    HW1  372   1.215   3.658   0.180 -0.3794 -0.8989  0.6867
   77SOL    HW2  373   1.143   3.545   0.109 -2.5919  1.6232 -1.2784
   78SOL     OW  374   3.159   3.320   0.613 -0.0279 -0.3912  0.0663
   78SOL    HW1  375   3.171   3.270   0.694 -0.6201 -0.5300  0.0695
   78SOL    HW2  376   3.150   3.254   0.545 -0.3696 -0.2860  0.0075
   79SOL     OW  377   0.750   1.063   2.908 -0.1148 -0.1748 -0.3042
   79SOL    HW1  378   0.770   0.969   2.914 -3.6125 -1.2124 -1.9141
   79SOL    HW2  379   0.823   1.100   2.860  1.9294 -1.8048  1.3518
   80SOL     OW  380   0.072   0.684   1.837 -0.3718  0.1803  0.4734
   80SOL    HW1  381   0.047   0.697   1.746  0.1648 -0.5403  0.2141
   80SOL    HW2  382   0.122   0.763   1.859 -0.8407  0.5420  0.2792
   81SOL     OW  383   3.563   3.146   1.875 -0.5618 -0.3857  0.1037
   81SOL    HW1  384   3.606   3.213   1.928 -0.7915  1.8255 -2.3141
   81SOL    HW2  385   3.622   3.132   1.801 -2.1179 -0.1962 -1.2381
   82SOL     OW  386   2.181   2.571   2.318  0.2149 -0.3413 -0.0102
   82SOL    HW1  387   2.165   2.514   2.242  0.0231  1.3038 -1.2409
   82SOL    HW2  388   2.093   2.595   2.349  0.2908  0.4562 -0.4037
   83SOL     OW  389   3.257   0.321   2.335 -0.5943 -0.1587 -0.2825
   83SOL    HW1  390   3.321   0.268   2.288  0.3189 -0.5707  1.3724
   83SOL    HW2  391   3.285   0.411   2.319  0.3500 -0.3300  0.3315
   84SOL     OW  392   0.731   0.578   0.209  0.1973 -0.1809 -0.3158
   84SOL    HW1  393   0.816   0.537   0.195 -0.3638 -1.6943  0.4675
   84SOL    HW2  394   0.750   0.671   0.218  1.4741 -0.1199 -2.6635
   85SOL     OW  395   3.020   0.432   0.126  0.5942 -0.5516 -0.6757
   85SOL    HW1  396   3.064   0.404   0.206 -0.7577 -0.5497  0.0950
   85SOL    HW2  397   2.926   0.429   0.147  0.1423 -1.5891 -2.5728
   86SOL     OW  398   1.928   0.061   2.737  0.3794  0.1454  0.4050
   86SOL    HW1  399   1.973   0.039   2.819  0.5979  1.1489  0.5624
   86SOL    HW2  400   1.855  -0.001   2.733  1.8325 -1.6354  0.0576
   87SOL     OW  401   0.846   2.333   3.346 -0.4181  0.9726 -0.0055
   87SOL    HW1  402   0.927   2.376   3.375 -1.1614  0.5475  3.1399
   87SOL    HW2  403   0.802   2.399   3.293  1.3666  1.6784 -0.6991
   88SOL     OW  404   0.489   1.100   2.870  0.1764  0.1779  0.2440
   88SOL    HW1  405   0.576   1.097   2.908  0.3184 -1.7371 -0.1288
   88SOL    HW2  406   0.503   1.085   2.777 -0.5023  0.5986  0.0677
   89SOL     OW  407   0.189   1.823   3.342  0.0515  0.1872 -0.0936
   89SOL    HW1  408   0.122   1.762   3.311 -1.2270  0.8814  1.1886
   89SOL    HW2  409   0.226   1.862   3.262 -2.4005  1.1843 -0.8156
   90SOL     OW  410   2.665   2.311   2.220 -0.2960 -0.1751  0.1293
   90SOL    HW1  411   2.656   2.216   2.234  0.2886 -0.2494  0.0191
   90SOL    HW2  412   2.716   2.318   2.139 -1.3468  0.2399 -0.5110
   91SOL     OW  413   0.831   1.416   1.498  0.2049 -0.2534 -1.2802
   91SOL    HW1  414   0.902   1.468   1.460 -0.5941 -0.5114 -3.2704
   91SOL    HW2  415   0.751   1.460   1.468 -0.4925 -0.2619  0.4786
   92SOL     OW  416   2.947   1.103   0.798  0.2757 -0.1142  0.3283
   92SOL    HW1  417   2.955   1.007   0.803  1.5021 -0.1458 -1.3245
   92SOL    HW2  418   3.014   1.129   0.734 -1.1549  1.6921 -0.5144
   93SOL     OW  419   3.106   2.274   1.815 -0.5686  0.1500  0.2024
   93SOL    HW1  420   3.176   2.226   1.859 -0.8559 -0.2143  0.2628
   93SOL    HW2  421   3.031   2.214   1.815 -0.7881  0.4175 -0.1387
   94SOL     OW  422   0.828   0.552   2.123 -0.0669  0.7934 -0.5199
   94SOL    HW1  423   0.862   0.638   2.098 -0.4318  1.9724  2.5528
   94SOL    HW2  424   0.734   0.558   2.110 -0.3082  1.5536  1.2515
   95SOL     OW  425   0.234   1.747   2.462  0.1458 -0.1799  0.2900
   95SOL    HW1  426   0.209   1.812   2.397 -0.8840  0.8480  1.6455
   95SOL    HW2  427   0.325   1.726   2.442  0.5377  1.7501 -0.1566
   96SOL     OW  428   1.979   0.794   3.095 -0.3500 -0.1263 -0.0056
   96SOL    HW1  429   1.934   0.878   3.107 -0.8730 -0.5621  1.2715
   96SOL    HW2  430   2.069   0.811   3.123 -0.5447 -0.0787  0.5983
   97SOL     OW  431   0.061   1.766   0.542 -0.4283 -0.1248  0.2363
   97SOL    HW1  432   0.053   1.672   0.555 -0.2803  0.0009  1.3750
   97SOL    HW2  433  -0.001   1.787   0.472 -1.8620 -0.7891  1.2738
   98SOL     OW  434   3.372   0.101   3.347  0.0030 -0.1905  0.8168
   98SOL    HW1  435   3.456   0.056   3.359  0.3809 -0.4987 -2.1299
   98SOL    HW2  436   3.327   0.049   3.280 -0.5038  2.4990 -1.0923
   99SOL     OW  437   0.350   2.363   0.616  0.6457  0.1850  0.2338
   99SOL    HW1  438   0.422   2.424   0.599  0.0241  0.3646 -2.1877
   99SOL    HW2  439   0.275   2.401   0.571 -0.4377 -1.0613  0.9147
  100SOL     OW  440   0.095   0.010   0.358 -0.2364 -0.8387  0.2237
  100SOL    HW1  441   0.124   0.100   0.369 -1.3783 -0.6699  2.2102
  100SOL    HW2  442   0.157  -0.027   0.295  0.5060  1.1864 -0.3207
  101SOL     OW  443   2.579   2.115   3.509 -0.3448  0.4547  0.6775
  101SOL    HW1  444   2.637   2.068   3.450 -1.3718  1.8906 -1.6251
  101SOL    HW2  445   2.611   2.095   3.596  2.2374 -0.5120 -0.4131
  102SOL     OW  446   2.517   2.738   2.162  0.0592  0.6120 -0.0155
  102SOL    HW1  447   2.436   2.769   2.121 -0.3183  1.3846  1.2683
  102SOL    HW2  448   2.570   2.705   2.088 -2.0481 -1.4719 -0.7290
  103SOL     OW  449   2.812   0.029   3.393  0.0416 -0.5468  0.1905
  103SOL    HW1  450   2.747   0.073   3.338  0.6649 -1.3352 -1.2109
  103SOL    HW2  451   2.792   0.060   3.481 -0.6074  1.2326 -0.5207
  104SOL     OW  452   3.732   2.853   1.752 -0.3952  0.4283 -0.6455
  104SOL    HW1  453   3.739   2.851   1.847  0.1857  0.1545 -0.6889
  104SOL    HW2  454   3.638   2.842   1.734 -0.4829  0.2967 -0.1123
  105SOL     OW  455   3.071   1.853   0.739 -0.1770  0.0336  0.2643
  105SOL    HW1  456   3.131   1.798   0.789  0.8824  0.6558 -0.2774
  105SOL    HW2  457   3.083   1.941   0.775 -2.4199 -0.1527  1.6546
  106SOL     OW  458   2.525   1.558   1.607 -0.5298  0.0679 -0.2590
  106SOL    HW1  459   2.481   1.496   1.665  0.3688  0.0840  0.4638
  106SOL    HW2  460   2.585   1.605   1.664  0.0643  0.3885 -1.1325
  107SOL     OW  461   0.782   3.256   3.315  0.5384 -0.3267  0.2175
  107SOL    HW1  462   0.846   3.289   3.379  1.7825 -1.8759 -0.1637
  107SOL    HW2  463   0.794   3.313   3.238 -0.0255  0.6974  0.8623
  108SOL     OW  464   3.178   2.517   2.470  0.4913 -0.6063  0.1853
  108SOL    HW1  465   3.149   2.433   2.506 -2.4638 -0.0801 -0.7521
  108SOL    HW2  466   3.170   2.578   2.542 -2.0491 -0.2436 -0.3288
  109SOL     OW  467   2.906   0.767   1.362 -0.2569  0.5310  0.5238
  109SOL    HW1  468   2.917   0.854   1.402  0.8305  0.8400 -0.3861
  109SOL    HW2  469   2.965   0.710   1.412  0.9665  0.8791 -0.4834
  110SOL     OW  470   1.557   3.545   0.745 -0.5305  0.0018 -0.3121
  110SOL    HW1  471   1.471   3.503   0.747 -0.5669  0.0121  2.8148
  110SOL    HW2  472   1.617   3.477   0.714 -1.2144 -1.0276  0.5662
  111SOL     OW  473   3.358   1.569   2.669  0.1929 -0.8117 -0.2826
  111SOL    HW1  474   3.298   1.537   2.736 -0.1385  1.6523  0.6925
  111SOL    HW2  475   3.444   1.533   2.693 -0.0040 -0.3073  1.2399
  112SOL     OW  476   3.341   2.334   2.034  0.2065  0.1835  0.1906
  112SOL    HW1  477   3.320   2.365   2.122 -3.2025 -1.0754 -0.0332
  112SOL    HW2  478   3.336   2.412   1.979 -2.6127  0.2939  0.4695
  113SOL     OW  479   2.928   3.046   3.269  0.4005  0.2753  0.0593
  113SOL    HW1  480   2.872   3.072   3.342  0.9282  0.9103  0.2501
  113SOL    HW2  481   2.972   2.966   3.300  0.1787  0.2079  0.2034
  114SOL     OW  482   2.238   3.525   2.812 -0.3447  0.5227 -0.6403
  114SOL    HW1  483   2.313   3.510   2.869 -0.2402 -0.0175 -0.9178
  114SOL    HW2  484   2.269   3.501   2.725 -1.2637 -1.1112 -0.5546
  115SOL     OW  485   0.863   0.879   0.031  0.2696  0.2448  0.4571
  115SOL    HW1  486   0.921   0.869   0.107  0.4965 -0.3156  0.2176
  115SOL    HW2  487   0.860   0.973   0.015  1.7902  0.2284 -0.0513
  116SOL     OW  488   1.019   0.385   0.785  0.2250  0.2828 -0.0761
  116SOL    HW1  489   0.947   0.398   0.848  0.9966 -1.4264  1.2549
  116SOL    HW2  490   0.989   0.427   0.705 -1.5051  1.1430  0.9648
  117SOL     OW  491   3.182   0.534   2.596  0.4194 -0.4977 -0.2163
  117SOL    HW1  492   3.096   0.532   2.636  0.9789  0.1169  1.0681
  117SOL    HW2  493   3.217   0.445   2.607  1.3176  0.0919  2.4613
  118SOL     OW  494   2.853   1.496   3.289  0.1061  0.2914 -0.6415
  118SOL    HW1  495   2.824   1.577   3.246 -0.4567  0.3584 -0.1610
  118SOL    HW2  496   2.819   1.426   3.234 -1.6154  0.3595  0.2786
  119SOL     OW  497   3.590   1.469   0.548  0.4913  0.3492 -0.5466
  119SOL    HW1  498   3.546   1.500   0.470  1.1766  0.6213 -0.8355
  119SOL    HW2  499   3.675   1.438   0.517  1.4883  2.0669  0.3009
  120SOL     OW  500   2.892   2.665   3.001  0.4714  0.2578 -0.5250
  120SOL    HW1  501   2.863   2.585   3.045  1.7313  0.0722  0.0063
  120SOL    HW2  502   2.816   2.723   3.003 -0.7182 -1.1742 -1.5804
  121SOL     OW  503   1.076   2.152   0.369  0.0064  0.1175 -0.4157
  121SOL    HW1  504   1.107   2.123   0.455  0.1180 -1.4902 -0.9754
  121SOL    HW2  505   1.124   2.233   0.354  2.6032 -1.2976 -0.4035
  122SOL     OW  506   3.495   3.059   3.304 -0.1332 -0.2715 -0.3100
  122SOL    HW1  507   3.551   3.098   3.371  0.4520 -0.1442 -0.8585
  122SOL    HW2  508   3.406   3.088   3.327 -0.1866 -1.6129  1.3784
  123SOL     OW  509   2.665   3.046   1.330 -0.0901 -0.4372  0.2753
  123SOL    HW1  510   2.589   2.991   1.346 -0.1258 -0.4482  0.0724
  123SOL    HW2  511   2.634   3.111   1.267  0.4258 -1.2447 -0.8418
  124SOL     OW  512   2.241   2.053   0.649 -0.3046 -0.1277 -0.6636
  124SOL    HW1  513   2.294   2.068   0.727 -0.7274 -0.7103 -0.2496
  124SOL    HW2  514   2.191   2.134   0.638 -0.6910 -0.2597  0.0385
  125SOL     OW  515   0.043   2.006   3.490 -0.3351  0.1592  0.5718
  125SOL    HW1  516   0.096   1.977   3.565  1.5380 -0.7665 -1.0213
  125SOL    HW2  517   0.093   1.978   3.413 -1.9353  1.5263 -1.0505
  126SOL     OW  518   0.158   1.845   2.878  0.3781  0.8134  0.1743
  126SOL    HW1  519   0.124   1.873   2.964 -1.0194 -2.8254  0.9980
  126SOL    HW2  520   0.227   1.783   2.899 -1.6856 -2.1456 -1.0823
  127SOL     OW  521   1.563   0.872   0.062 -0.2210  0.5757  0.5775
  127SOL    HW1  522   1.549   0.957   0.020 -0.7566  0.4428  0.4719
  127SOL    HW2  523   1.555   0.891   0.156 -0.0008  0.6991  0.5733
  128SOL     OW  524   0.474   0.838   3.044  0.2036 -0.0051  0.0018
  128SOL    HW1  525   0.558   0.873   3.075  2.5221 -2.7826 -2.4851
  128SOL    HW2  526   0.440   0.905   2.985  2.1406  0.0684 -1.1027
  129SOL     OW  527   0.931   3.505   0.588  0.4755  0.2280 -0.1814
  129SOL    HW1  528   0.872   3.431   0.603  1.4094 -0.4065  0.4825
  129SOL    HW2  529   0.963   3.529   0.675  1.9716 -0.1119 -0.6090
  130SOL     OW  530   2.147   2.839   2.559 -0.3896 -0.1632  0.7243
  130SOL    HW1  531   2.143   2.934   2.553 -0.5758 -0.1897  0.3857
  130SOL    HW2  532   2.064   2.814   2.600 -0.1833 -0.1576  1.1552
  131SOL     OW  533   2.156   1.851   0.457  0.9120 -0.3890  0.2170
  131SOL    HW1  534   2.197   1.868   0.372  3.5732  1.6642  1.7724
  131SOL    HW2  535   2.172   1.931   0.508 -1.6077 -1.0824  2.3225
  132SOL     OW  536   1.528   3.079   0.134  0.7346 -0.2276  0.8967
  132SOL    HW1  537   1.439   3.097   0.102  0.9656  1.9024  1.3262
  132SOL    HW2  538   1.577   3.055   0.056  0.0490 -0.3359  0.4858
  133SOL     OW  539   1.716   2.233   1.433  0.4154 -0.0648  0.2035
  133SOL    HW1  540   1.750   2.208   1.519 -0.8139  0.8451  0.9838
  133SOL    HW2  541   1.739   2.325   1.423 -0.4545  0.1565  0.0892
  134SOL     OW  542   0.353   3.267   2.648 -0.1886 -0.1873 -0.7241
  134SOL    HW1  543   0.298   3.345   2.657 -0.1912 -0.1326 -1.1676
  134SOL    HW2  544   0.335   3.236   2.559  1.0719  0.2758 -1.1659
  135SOL     OW  545   1.958   1.605   1.927  0.0154 -0.0987 -0.3265
  135SOL    HW1  546   1.866   1.579   1.935  0.3166 -1.4971 -1.0796
  135SOL    HW2  547   1.956   1.701   1.929 -1.5202 -0.0866 -0.9095
  136SOL     OW  548   2.320   0.149   1.322 -0.0868  0.0572 -0.2188
  136SOL    HW1  549   2.231   0.115   1.313 -0.8015  1.3668  1.3482
  136SOL    HW2  550   2.377   0.072   1.313 -1.4786 -1.0844  0.4177
  137SOL     OW  551   1.424   1.714   2.141 -0.0885  0.0340 -0.1220
  137SOL    HW1  552   1.510   1.691   2.176 -0.3590 -0.6887  0.0936
  137SOL    HW2  553   1.442   1.760   2.059  0.4881 -0.7696 -0.4557
  138SOL     OW  554   3.025   1.446   1.714  0.4406 -0.2165  0.1318
  138SOL    HW1  555   3.098   1.401   1.757 -0.0851 -0.1441  1.1306
  138SOL    HW2  556   3.021   1.407   1.627  1.5201 -0.3894  0.1397
  139SOL     OW  557   3.276   2.994   3.608  0.0479  0.1732 -0.0276
  139SOL    HW1  558   3.333   3.060   3.647 -0.4437  0.7105 -0.1870
  139SOL    HW2  559   3.216   2.969   3.678  1.3066 -1.3870  0.5334
  140SOL     OW  560   0.070   3.390   3.096 -1.0792  0.2915  0.1668
  140SOL    HW1  561   0.066   3.296   3.076 -0.6523 -0.1459  1.9608
  140SOL    HW2  562   0.154   3.418   3.059 -1.4790  0.1360 -0.9132
  141SOL     OW  563   3.077   1.427   3.095  0.0229 -0.1684  0.5293
  141SOL    HW1  564   3.034   1.398   3.014  0.6685  1.6490 -0.5189
  141SOL    HW2  565   3.005   1.446   3.155 -0.4533 -2.2484  0.7054
  142SOL     OW  566   1.477   2.918   0.833 -0.3142 -0.0005 -0.3237
  142SOL    HW1  567   1.424   2.857   0.884  0.2727 -0.0312  0.2579
  142SOL    HW2  568   1.456   2.898   0.741 -1.2506 -0.0540 -0.1047
  143SOL     OW  569   0.307   1.072   2.135  0.3407 -0.0118 -0.1482
  143SOL    HW1  570   0.386   1.117   2.106  1.4316 -0.0054  2.5642
  143SOL    HW2  571   0.236   1.135   2.117  1.0617  0.4186 -1.6232
  144SOL     OW  572   3.428   1.155   2.918  0.2819 -0.5723  0.0301
  144SOL    HW1  573   3.406   1.122   2.830  1.0519 -1.0062 -0.0105
  144SOL    HW2  574   3.509   1.109   2.941 -0.1097 -0.7450  1.1254
  145SOL     OW  575   2.491   3.680   2.879 -0.4118 -0.9107 -0.2057
  145SOL    HW1  576   2.477   3.713   2.791 -0.4395  0.2167  0.2122
  145SOL    HW2  577   2.437   3.735   2.935  0.0550 -1.2298  0.5863
  146SOL     OW  578   0.180   0.110   1.041 -0.2961  0.3454  0.3623
  146SOL    HW1  579   0.112   0.061   1.087 -0.7006 -0.8873 -1.4618
  146SOL    HW2  580   0.255   0.108   1.100 -0.7339 -1.3050  0.9121
  147SOL     OW  581   0.132   3.273   0.172 -0.0948 -0.1324  0.2432
  147SOL    HW1  582   0.079   3.352   0.158 -0.4765 -0.3909  0.2035
  147SOL    HW2  583   0.185   3.265   0.092  1.8821  1.5270  1.2895
  148SOL     OW  584   2.836   3.547   1.062 -0.3767 -0.0035  0.3869
  148SOL    HW1  585   2.929   3.526   1.047 -0.2651  0.7069  0.0397
  148SOL    HW2  586   2.834   3.584   1.151 -0.8262 -2.9133  1.7026
  149SOL     OW  587   3.653   0.480   3.179  0.4100 -0.1619  0.0448
  149SOL    HW1  588   3.569   0.437   3.165  0.7894 -0.4636 -1.4173
  149SOL    HW2  589   3.631   0.573   3.191 -0.2648 -0.4797  1.5857
  150SOL     OW  590   1.733   2.428   1.691 -0.2216  0.3209 -0.0957
  150SOL    HW1  591   1.758   2.336   1.683  1.0238  0.7762 -2.3930
  150SOL    HW2  592   1.645   2.432   1.654 -0.0531  0.1310 -0.5226
  151SOL     OW  593   0.372   0.248   0.107 -0.0811  0.5965 -0.0536
  151SOL    HW1  594   0.319   0.310   0.056  0.7772  1.3555 -0.0621
  151SOL    HW2  595   0.458   0.291   0.115  0.2683 -0.2014  0.7077
  152SOL     OW  596   1.073   2.539   0.814 -0.3251  0.0596  0.8401
  152SOL    HW1  597   1.067   2.456   0.861  0.5601  0.5171  1.8000
  152SOL    HW2  598   1.066   2.605   0.883 -1.7748  0.8140  0.0073
  153SOL     OW  599   0.154   2.193   0.188  0.7430  0.4641  0.1452
  153SOL    HW1  600   0.106   2.159   0.263 -2.7108  0.5697 -1.8367
  153SOL    HW2  601   0.163   2.118   0.130  0.9128  0.9984 -0.5281
  154SOL     OW  602   0.850   2.900   3.518 -0.3818  0.0926  0.1090
  154SOL    HW1  603   0.777   2.846   3.488  0.3952 -1.0003  0.1279
  154SOL    HW2  604   0.826   2.989   3.492 -1.8363 -0.2041  0.3570
  155SOL     OW  605   1.573   1.745   2.755 -0.3596  0.0673 -0.4182
  155SOL    HW1  606   1.529   1.780   2.833  1.5858 -0.0700  0.8173
  155SOL    HW2  607   1.619   1.821   2.718  2.4377 -0.6700  1.2617
  156SOL     OW  608   1.074   2.378   1.814  0.2691 -0.0312 -0.3623
  156SOL    HW1  609   1.128   2.318   1.866  1.9221  2.1005  0.5476
  156SOL    HW2  610   0.985   2.344   1.823  1.0669 -2.0444  0.4945
  157SOL     OW  611   1.127   2.196   1.175 -0.1068  0.2949  0.1856
  157SOL    HW1  612   1.122   2.100   1.173 -0.8765  0.3340 -0.1850
  157SOL    HW2  613   1.117   2.219   1.267 -5.1393  0.2076 -0.0651
  158SOL     OW  614   2.586   1.187   0.360  0.4651 -0.0735 -0.2366
  158SOL    HW1  615   2.656   1.244   0.392  1.0778 -0.2203 -1.2835
  158SOL    HW2  616   2.611   1.100   0.389 -0.3808  0.1308  1.2091
  159SOL     OW  617   0.121   1.373   0.421  0.0197 -0.7053 -0.0114
  159SOL    HW1  618   0.198   1.355   0.475 -0.1802 -0.8820  0.2157
  159SOL    HW2  619   0.099   1.289   0.382  0.7599 -0.3876 -1.1657
  160SOL     OW  620   3.161   3.635   0.209  0.0173 -0.3821 -0.1832
  160SOL    HW1  621   3.249   3.604   0.188  0.0506 -1.0954  0.9452
  160SOL    HW2  622   3.104   3.562   0.188 -0.1934 -0.2786  0.0265
  161SOL     OW  623   3.017   0.113   0.310  0.2722 -0.5303 -0.8094
  161SOL    HW1  624   3.071   0.187   0.281 -0.0628  0.7224  1.4744
  161SOL    HW2  625   3.063   0.035   0.277  3.0645  0.5099  0.3079
  162SOL     OW  626   1.884   0.366   2.607 -0.4316 -0.2951  0.0171
  162SOL    HW1  627   1.829   0.444   2.600  1.1930  0.8290 -0.6293
  162SOL    HW2  628   1.884   0.329   2.519 -0.6412 -0.6701  0.1682
  163SOL     OW  629   0.795   2.180   0.318 -0.0753 -0.2492 -0.2342
  163SOL    HW1  630   0.780   2.274   0.316 -0.7617 -0.2922  1.2587
  163SOL    HW2  631   0.889   2.171   0.334  0.0643  0.1682 -0.7988
  164SOL     OW  632   0.693   0.569   3.134  0.1613 -0.5328 -0.8898
  164SOL    HW1  633   0.788   0.574   3.145  0.2295 -0.2590 -1.5500
  164SOL    HW2  634   0.667   0.656   3.107 -0.4311 -0.3283  0.2645
  165SOL     OW  635   1.527   0.443   1.854 -0.1071  0.0151 -0.1019
  165SOL    HW1  636   1.608   0.419   1.898  0.2085  0.8316 -0.2067
  165SOL    HW2  637   1.492   0.361   1.819  0.0856 -0.5055  0.9153
  166SOL     OW  638   1.027   1.914   3.291  0.0859  0.0406 -0.0596
  166SOL    HW1  639   0.965   1.973   3.248 -1.0583  0.0519  1.5242
  166SOL    HW2  640   1.069   1.967   3.358  1.9763  0.0647 -1.1711
  167SOL     OW  641   2.670   2.370   1.591  0.2064 -0.1457 -0.2567
  167SOL    HW1  642   2.671   2.400   1.682  0.8644  3.5386 -1.3262
  167SOL    HW2  643   2.725   2.433   1.544  0.0166 -1.9853 -3.2216
  168SOL     OW  644   2.970   1.966   0.526  0.4645 -0.1079 -1.0141
  168SOL    HW1  645   3.039   1.987   0.463  0.9580  2.0796  0.1503
  168SOL    HW2  646   3.003   1.890   0.574  0.6829 -0.9478 -2.4434
  169SOL     OW  647   0.100   1.781   1.108 -0.3545 -0.0813 -0.1308
  169SOL    HW1  648   0.054   1.794   1.191  1.0075 -2.8012  1.1678
  169SOL    HW2  649   0.189   1.756   1.133  0.4591  0.2083 -2.4628
  170SOL     OW  650   1.800   0.544   1.919  0.1603  0.3751  0.3797
  170SOL    HW1  651   1.737   0.615   1.930  1.3612  1.8794 -1.5208
  170SOL    HW2  652   1.836   0.529   2.006 -0.5390  1.7232  0.9284
  171SOL     OW  653   2.899   0.504   0.760  0.0904 -0.0944  0.2541
  171SOL    HW1  654   2.864   0.425   0.719  0.9450 -0.4184  0.1340
  171SOL    HW2  655   2.918   0.478   0.850 -0.6318  0.2800  0.5265
  172SOL     OW  656   1.573   1.395   2.103  0.2654  0.1455 -0.3622
  172SOL    HW1  657   1.636   1.438   2.045  0.2730  0.7256  0.0678
  172SOL    HW2  658   1.513   1.464   2.130  1.7568  0.5547  2.3627
  173SOL     OW  659   2.598   0.523   2.296 -0.6780  0.0898 -0.1914
  173SOL    HW1  660   2.520   0.480   2.331 -1.9362  2.6438  0.4109
  173SOL    HW2  661   2.627   0.581   2.367  2.0157 -0.9844 -0.2919
  174SOL     OW  662   2.178   1.191   2.291 -0.3778 -0.2107 -0.2474
  174SOL    HW1  663   2.121   1.246   2.345 -0.7704 -1.1514  0.3338
  174SOL    HW2  664   2.144   1.102   2.305  1.2368 -0.7920  0.1152
  175SOL     OW  665   2.232   0.331   1.011  0.8704  0.1166  0.5540
  175SOL    HW1  666   2.177   0.384   1.068  2.5541  1.4069  1.0952
  175SOL    HW2  667   2.214   0.364   0.923 -0.2143 -0.4458  0.5524
  176SOL     OW  668   2.266   1.305   3.432  0.2258  0.6914 -0.5668
  176SOL    HW1  669   2.327   1.340   3.367  0.6897  0.0673 -0.4759
  176SOL    HW2  670   2.227   1.382   3.472  2.5492  1.2021  0.8980
  177SOL     OW  671   2.774   2.392   0.198  0.0438  0.0333 -0.1351
  177SOL    HW1  672   2.684   2.386   0.168  0.1217 -3.6500 -0.1088
  177SOL    HW2  673   2.792   2.485   0.204 -2.9765  0.8996 -2.4251
  178SOL     OW  674   1.289   0.884   1.309 -0.0628  0.4820  0.0748
  178SOL    HW1  675   1.229   0.953   1.281  1.1346  2.2130  1.5163
  178SOL    HW2  676   1.239   0.834   1.374 -0.4712  0.8970  0.0823
  179SOL     OW  677   3.070   3.606   3.632  0.5157 -0.3539 -0.1637
  179SOL    HW1  678   3.147   3.657   3.656  0.5823 -0.8839  0.8005
  179SOL    HW2  679   3.051   3.632   3.542  0.6991  1.1607  0.2118
  180SOL     OW  680   3.130   0.985   0.366 -0.7638 -0.3924  0.5227
  180SOL    HW1  681   3.165   0.989   0.277 -0.0257  0.1058  0.8305
  180SOL    HW2  682   3.077   0.904   0.367  2.4587 -2.6848  0.7918
  181SOL     OW  683   2.060   1.121   1.078 -0.2870 -0.3195  0.6797
  181SOL    HW1  684   2.104   1.049   1.124  0.4748 -0.3827 -0.1277
  181SOL    HW2  685   2.128   1.187   1.065 -0.8807  0.3782  1.0313
  182SOL     OW  686   3.558   1.664   2.481  0.3575 -0.8235 -0.4594
  182SOL    HW1  687   3.560   1.673   2.386 -0.5625  0.7143 -0.3580
  182SOL    HW2  688   3.465   1.664   2.504  0.5663 -1.3020  0.4384
  183SOL     OW  689   0.449   2.970   1.275  0.3916 -0.0638 -0.3409
  183SOL    HW1  690   0.486   3.059   1.277 -0.5861  0.3381  0.7332
  183SOL    HW2  691   0.522   2.913   1.300  1.6314  0.1557 -3.0713
  184SOL     OW  692   0.926   1.396   0.234  0.6148 -0.3467 -0.1783
  184SOL    HW1  693   0.952   1.483   0.204 -0.1963 -0.6686 -1.9549
  184SOL    HW2  694   0.988   1.375   0.304  0.7709  1.6704  0.3515
  185SOL     OW  695   1.069   3.263   1.240  0.6687 -0.2523  0.3154
  185SOL    HW1  696   0.991   3.302   1.199 -0.2963 -0.4861  1.8435
  185SOL    HW2  697   1.116   3.223   1.167 -0.4199  0.2597 -0.7178
  186SOL     OW  698   0.508   3.185   0.156  0.7830 -0.0208  0.1165
  186SOL    HW1  699   0.500   3.090   0.148  2.4029 -0.1373 -0.4569
  186SOL    HW2  700   0.598   3.204   0.128  0.8091  1.5802  1.1759
  187SOL     OW  701   2.878   1.587   1.454 -0.2283 -0.5344 -0.4760
  187SOL    HW1  702   2.942   1.612   1.388 -1.0192  1.6757 -0.4936
  187SOL    HW2  703   2.899   1.641   1.530 -1.8761  0.0476 -0.3886
  188SOL     OW  704   2.969   0.877   2.703  0.1701  0.2273  0.6997
  188SOL    HW1  705   3.053   0.898   2.662 -0.2984  1.3872  0.2922
  188SOL    HW2  706   2.920   0.960   2.702 -1.3722 -0.6459  0.0182
  189SOL     OW  707   0.167   0.874   1.044  1.0531 -0.4455 -0.8668
  189SOL    HW1  708   0.161   0.784   1.077  1.2548  0.0179  0.5080
  189SOL    HW2  709   0.242   0.873   0.985  2.2078 -0.8014  0.5431
  190SOL     OW  710   1.282   0.122   1.618 -0.2849  0.4025  0.0941
  190SOL    HW1  711   1.220   0.062   1.579 -0.9448  0.2173  1.3754
  190SOL    HW2  712   1.306   0.182   1.547 -1.0489 -0.2120 -0.7010
  191SOL     OW  713   0.295   3.465   2.944  0.1117 -0.0950 -0.5135
  191SOL    HW1  714   0.256   3.464   2.857  0.2969  0.7452 -0.6162
  191SOL    HW2  715   0.363   3.532   2.939 -0.9313  1.1228  0.7162
  192SOL     OW  716   0.397   2.921   2.078  0.2334  0.2608  0.1656
  192SOL    HW1  717   0.365   2.888   2.161 -0.0698 -1.2632 -0.5126
  192SOL    HW2  718   0.448   2.999   2.100  1.5331 -1.0223  1.9595
  193SOL     OW  719   2.654   0.387   1.652 -0.3346 -0.4789  0.0770
  193SOL    HW1  720   2.580   0.419   1.601  0.8103  0.1600 -1.2402
  193SOL    HW2  721   2.614   0.332   1.720 -1.9198 -1.2122 -1.3776
  194SOL     OW  722   0.413   1.429   3.140 -0.0833  0.1580 -0.5662
  194SOL    HW1  723   0.388   1.339   3.161 -0.7324  0.4766  0.0382
  194SOL    HW2  724   0.468   1.456   3.213  0.2472  0.2032 -0.8276
  195SOL     OW  725   2.097   1.672   2.248 -0.4524 -0.0725  0.4228
  195SOL    HW1  726   2.145   1.646   2.327  0.6330 -1.0860 -0.5363
  195SOL    HW2  727   2.007   1.685   2.278 -0.2048 -1.0855  1.7055
  196SOL     OW  728   3.040   3.420   2.093  0.2565 -0.2357  0.0848
  196SOL    HW1  729   2.999   3.450   2.174 -0.5042  0.0834 -0.4057
  196SOL    HW2  730   2.966   3.405   2.033  0.7779 -0.8960 -0.4070
  197SOL     OW  731   1.451   0.468   1.528  0.6102 -0.2033 -0.3562
  197SOL    HW1  732   1.449   0.535   1.596  0.5389 -1.9121  1.4104
  197SOL    HW2  733   1.544   0.457   1.507  0.6888 -0.0907 -0.0707
  198SOL     OW  734   0.444   0.735   1.034 -0.2582 -0.7386 -0.2282
  198SOL    HW1  735   0.512   0.771   0.978  0.6345 -0.0763  1.2481
  198SOL    HW2  736   0.490   0.703   1.112 -1.7161  0.8835  1.3846
  199SOL     OW  737   3.641   0.119   2.338  0.5655 -0.0453 -0.0192
  199SOL    HW1  738   3.712   0.181   2.357 -0.3451  1.2874 -0.8291
  199SOL    HW2  739   3.589   0.162   2.271 -1.1091 -0.9255  0.6620
  200SOL     OW  740   2.980   0.712   3.437  0.5697  0.1079  0.4222
  200SOL    HW1  741   2.950   0.629   3.401 -1.1475  1.0037 -0.3217
  200SOL    HW2  742   3.008   0.691   3.526 -0.3625 -1.1788  0.4341
  201SOL     OW  743   0.748   0.615   3.434  0.1608  0.0910 -0.0450
  201SOL    HW1  744   0.666   0.601   3.386 -0.2209 -2.0595  1.0859
  201SOL    HW2  745   0.720   0.643   3.521  0.6952  0.5233 -0.0067
  202SOL     OW  746   0.611   3.170   2.609 -0.1518  0.0385 -0.3369
  202SOL    HW1  747   0.525   3.209   2.621 -0.2184 -0.6127  1.6352
  202SOL    HW2  748   0.598   3.102   2.543 -1.5183 -1.0762  1.0213
  203SOL     OW  749   1.692   2.901   0.224 -0.0753 -0.7381  0.2780
  203SOL    HW1  750   1.620   2.962   0.236  1.0430  0.3428  1.8609
  203SOL    HW2  751   1.650   2.820   0.196 -2.0324 -0.4240  2.0208
  204SOL     OW  752   1.963   2.146   3.640  0.2416  0.2078  0.4137
  204SOL    HW1  753   1.913   2.084   3.692 -0.2733  0.6520  0.4573
  204SOL    HW2  754   2.053   2.112   3.641  0.0767 -0.2150  0.9189
  205SOL     OW  755   1.498   1.292   0.653  0.0740 -0.1888  0.5147
  205SOL    HW1  756   1.499   1.336   0.568  2.6393 -2.1250 -0.5952
  205SOL    HW2  757   1.579   1.320   0.695 -1.3979  1.1429  2.6547
  206SOL     OW  758   1.943   0.825   1.874  0.4343  0.1341  0.0937
  206SOL    HW1  759   1.976   0.819   1.784  0.0459  2.4016 -0.2537
  206SOL    HW2  760   1.883   0.900   1.873  0.0617 -0.0735  2.1436
  207SOL     OW  761   3.381   0.552   2.257 -0.1764  0.2098  0.2049
  207SOL    HW1  762   3.441   0.559   2.330  2.0669 -0.7651 -1.4377
  207SOL    HW2  763   3.422   0.602   2.186 -0.7808 -1.2731 -1.2614
  208SOL     OW  764   3.526   0.211   1.112  0.2166  0.5379 -0.3868
  208SOL    HW1  765   3.558   0.130   1.151 -1.6628  0.2230  0.6091
  208SOL    HW2  766   3.503   0.266   1.187  3.7662  3.1233 -0.8902
  209SOL     OW  767   2.888   1.557   1.906 -1.1998 -0.0390 -0.6547
  209SOL    HW1  768   2.954   1.557   1.837 -1.2381  0.4389 -0.6930
  209SOL    HW2  769   2.814   1.605   1.869 -0.9298  0.8892 -0.0189
  210SOL     OW  770   2.901   0.038   2.476  0.1789 -0.0137 -0.2661
  210SOL    HW1  771   2.828  -0.004   2.522 -1.0727  0.6439 -1.5482
  210SOL    HW2  772   2.978   0.014   2.526 -0.6104 -2.8129 -0.2371
  211SOL     OW  773   2.455   1.904   2.335  0.1994 -0.3461 -0.2044
  211SOL    HW1  774   2.466   1.825   2.283  0.3339 -0.3972 -0.0989
  211SOL    HW2  775   2.543   1.939   2.345  0.3944 -1.2168  1.3663
  212SOL     OW  776   3.702   1.803   1.365 -0.7874  0.2332 -0.5149
  212SOL    HW1  777   3.760   1.778   1.437  0.5802  0.1488 -1.5901
  212SOL    HW2  778   3.626   1.843   1.407 -1.4787 -2.5476  1.1348
  213SOL     OW  779   2.161   1.255   2.018 -1.0497  0.1726 -0.4133
  213SOL    HW1  780   2.195   1.231   2.105  1.5520  0.0130 -1.3810
  213SOL    HW2  781   2.193   1.344   2.004 -0.4123 -0.2349 -1.6669
  214SOL     OW  782   1.475   2.298   1.294  0.0838 -0.2510 -0.4521
  214SOL    HW1  783   1.563   2.293   1.330 -0.2631 -1.2822  0.3246
  214SOL    HW2  784   1.418   2.277   1.368 -1.0678  3.5255 -0.0537
  215SOL     OW  785   0.684   2.796   1.597  0.1218  0.3054  0.5304
  215SOL    HW1  786   0.611   2.857   1.594 -1.0735 -1.0637 -2.4001
  215SOL    HW2  787   0.669   2.742   1.674 -1.3479  0.7830  0.5954
  216SOL     OW  788   2.300   3.623   0.378 -0.5675  0.0630 -0.3917
  216SOL    HW1  789   2.231   3.614   0.313 -0.8099  0.5342 -0.2045
  216SOL    HW2  790   2.364   3.683   0.339 -1.1199  1.0057  0.1297
  217SOL     OW  791   0.097   0.196  -0.000  0.1251 -0.0719  0.2553
  217SOL    HW1  792   0.121   0.288  -0.014  0.5208 -0.2303 -0.1486
  217SOL    HW2  793   0.004   0.198   0.020 -0.1008  0.3291 -0.7870
  218SOL     OW  794   2.987   0.894   3.110  0.1021 -0.3410 -0.1803
  218SOL    HW1  795   2.946   0.961   3.165 -0.5074  0.0111 -1.0251
  218SOL    HW2  796   2.941   0.813   3.133  0.8771 -0.4993  0.8810
  219SOL     OW  797   2.765   2.009   1.233 -0.0728  0.5553  0.2471
  219SOL    HW1  798   2.797   2.097   1.256 -1.5059  0.5541  2.5784
  219SOL    HW2  799   2.809   1.951   1.295  0.4908 -0.3548 -0.9643
  220SOL     OW  800   0.307   3.268   1.861  0.1518  0.3423 -1.2649
  220SOL    HW1  801   0.392   3.272   1.816 -0.6125 -1.7996 -3.0842
  220SOL    HW2  802   0.270   3.184   1.834 -0.5027 -1.0822  3.3237
  221SOL     OW  803   1.845   1.312   1.160  0.3232  0.5567 -0.3195
  221SOL    HW1  804   1.897   1.243   1.119 -1.2239 -0.4381 -0.6746
  221SOL    HW2  805   1.906   1.386   1.167  1.6835 -0.4438 -1.0064
  222SOL     OW  806   1.158   0.634   2.202 -0.6019 -0.2900 -0.0150
  222SOL    HW1  807   1.186   0.576   2.131  1.2886  1.6738 -0.9914
  222SOL    HW2  808   1.111   0.704   2.158 -0.2264  0.4693  0.7667
  223SOL     OW  809   1.779   3.257   0.305 -0.9123  0.0241  0.5558
  223SOL    HW1  810   1.819   3.233   0.221 -2.6106 -0.9916 -0.0016
  223SOL    HW2  811   1.687   3.272   0.285 -1.0920  1.1144  2.0185
  224SOL     OW  812   1.933   0.679   0.589  0.2398 -0.3929 -0.1105
  224SOL    HW1  813   2.019   0.695   0.552 -0.0210  1.3261 -0.0551
  224SOL    HW2  814   1.951   0.640   0.675  0.9574 -0.2154 -0.1763
  225SOL     OW  815   2.956   2.058   1.023 -0.7234 -0.6461  0.5406
  225SOL    HW1  816   2.916   2.069   0.937 -1.2887 -0.7084  0.7941
  225SOL    HW2  817   2.887   2.023   1.078 -0.0996 -1.5218  0.7951
  226SOL     OW  818   3.286   0.952   1.880  0.0236 -0.0765  0.4619
  226SOL    HW1  819   3.356   1.012   1.904  0.5004 -0.9382  1.3002
  226SOL    HW2  820   3.213   0.977   1.936 -0.0690  0.2816  0.1841
  227SOL     OW  821   1.168   3.672   2.584  0.1145 -0.1304 -0.1938
  227SOL    HW1  822   1.123   3.721   2.516 -1.8175  0.2131  1.2404
  227SOL    HW2  823   1.142   3.581   2.570  0.4141 -0.1837 -0.4157
  228SOL     OW  824   0.724   2.595   1.870 -0.2524 -0.5900  0.0034
  228SOL    HW1  825   0.719   2.538   1.947  1.5090 -0.4504  0.2485
  228SOL    HW2  826   0.742   2.682   1.906  0.5099 -0.5149 -0.5497
  229SOL     OW  827   0.353   2.654   0.307 -0.5403 -0.1475  0.5622
  229SOL    HW1  828   0.421   2.599   0.346  1.6159  2.0864  0.2041
  229SOL    HW2  829   0.328   2.608   0.227  0.7758 -0.8904  0.5456
  230SOL     OW  830   1.233   2.395   0.512 -0.3323  0.2308  0.1890
  230SOL    HW1  831   1.149   2.434   0.535 -0.7960 -0.0229 -1.0144
  230SOL    HW2  832   1.264   2.354   0.593 -1.4455  0.1838  0.6003
  231SOL     OW  833   3.290   1.850   2.174 -0.1346  0.3506 -0.3438
  231SOL    HW1  834   3.365   1.893   2.135  1.0716 -1.2630  0.1045
  231SOL    HW2  835   3.320   1.823   2.261 -1.4614  0.3270  0.1300
  232SOL     OW  836   2.928   0.309   0.471 -0.3638 -0.0987 -0.0195
  232SOL    HW1  837   2.935   0.232   0.413 -2.6001 -0.9890  0.7871
  232SOL    HW2  838   2.901   0.273   0.555 -2.8188  1.6435  0.0327
  233SOL     OW  839   1.191   1.971   0.921 -0.1086  0.4437 -0.1553
  233SOL    HW1  840   1.127   2.012   0.979 -0.5462  0.1661 -0.4296
  233SOL    HW2  841   1.272   1.970   0.971 -0.8240 -1.2174  1.0785
  234SOL     OW  842   2.545   3.404   2.114  0.2967 -0.1217  0.4145
  234SOL    HW1  843   2.538   3.363   2.200 -1.1054 -1.8302 -0.4411
  234SOL    HW2  844   2.454   3.412   2.084  0.8158 -0.8682 -1.4710
  235SOL     OW  845   1.520   3.340   0.349  0.0899 -0.8878  0.0631
  235SOL    HW1  846   1.572   3.342   0.429  1.3643 -0.5762 -0.7419
  235SOL    HW2  847   1.498   3.432   0.333 -4.4757 -1.1914  2.6553
  236SOL     OW  848   1.868   0.649   0.225  0.3301  0.3198 -0.0776
  236SOL    HW1  849   1.789   0.703   0.219 -0.2708 -0.6661 -1.5578
  236SOL    HW2  850   1.938   0.711   0.245 -0.8966  1.1190  2.0226
  237SOL     OW  851   2.894   1.150   0.376 -0.1082 -0.0596  0.8702
  237SOL    HW1  852   2.851   1.073   0.413 -0.6585  0.4180  1.2318
  237SOL    HW2  853   2.987   1.127   0.374 -0.2443 -0.6461  1.1812
  238SOL     OW  854   2.540   2.904   0.795 -0.0283 -0.5220  0.6818
  238SOL    HW1  855   2.463   2.880   0.744 -0.1794 -1.0413  1.1425
  238SOL    HW2  856   2.545   2.837   0.863 -0.3883  0.6954  1.9427
  239SOL     OW  857   3.244   2.591   3.171 -0.1846 -0.0232 -0.0446
  239SOL    HW1  858   3.177   2.544   3.121 -0.7151  1.7265 -1.0960
  239SOL    HW2  859   3.260   2.670   3.119  0.2689  1.2072  1.8868
  240SOL     OW  860   0.750   1.595   0.407 -0.0873 -0.0476  0.6541
  240SOL    HW1  861   0.841   1.605   0.434  0.0937 -0.1296  0.0832
  240SOL    HW2  862   0.753   1.588   0.312 -0.7035  0.0834  0.6167
  241SOL     OW  863   2.955   2.686   1.217  0.2725 -0.5461  0.0973
  241SOL    HW1  864   2.918   2.774   1.217 -0.5424 -0.8727 -0.8250
  241SOL    HW2  865   3.050   2.700   1.225  0.2395  0.4559 -0.9683
  242SOL     OW  866   0.834   3.397   3.084 -0.0118 -0.2429  0.1733
  242SOL    HW1  867   0.880   3.480   3.099 -1.7489  1.1722 -1.7659
  242SOL    HW2  868   0.843   3.381   2.991  0.4986 -2.4321  0.5565
  243SOL     OW  869   3.572   0.594   1.087  0.1401 -0.3672 -0.1445
  243SOL    HW1  870   3.500   0.564   1.032 -0.7064  0.1392  0.6704
  243SOL    HW2  871   3.636   0.630   1.026 -0.1654 -1.0750 -0.8978
  244SOL     OW  872   2.788   1.795   2.101 -0.1574  0.0874  0.5204
  244SOL    HW1  873   2.852   1.734   2.065 -0.2670 -0.7117  1.6000
  244SOL    HW2  874   2.815   1.807   2.192 -0.6932  0.9128  0.5833
  245SOL     OW  875   2.378   3.046   0.342 -0.0818 -0.3428 -0.9191
  245SOL    HW1  876   2.457   3.028   0.291 -0.7702  1.7634 -2.9119
  245SOL    HW2  877   2.386   3.139   0.366 -0.9399 -0.6678  0.8026
  246SOL     OW  878   2.532   1.967   3.048  0.1216 -0.8684  0.3940
  246SOL    HW1  879   2.511   1.942   3.138  0.6317  1.0799  1.1021
  246SOL    HW2  880   2.474   2.041   3.029  1.6137  0.2303 -0.0270
  247SOL     OW  881   3.481   1.237   1.316  0.5738  0.0435  0.4416
  247SOL    HW1  882   3.490   1.332   1.329 -1.2779  0.2412  0.5416
  247SOL    HW2  883   3.560   1.212   1.269  0.6886  1.7979 -0.3978
  248SOL     OW  884   2.945   3.478   1.740 -0.4305  0.1442 -0.0629
  248SOL    HW1  885   2.866   3.449   1.694  0.1680  2.2487 -2.6636
  248SOL    HW2  886   2.920   3.561   1.780 -0.6912 -1.2653  2.9665
  249SOL     OW  887   2.741   1.764   0.625  0.1889  0.4955  0.4682
  249SOL    HW1  888   2.770   1.681   0.665  1.8351  0.4607 -0.6793
  249SOL    HW2  889   2.650   1.749   0.601  0.6902 -1.3299 -0.5093
  250SOL     OW  890   0.231   1.012   0.742 -0.2969  0.4018  0.0358
  250SOL    HW1  891   0.257   0.960   0.666 -0.3992 -1.1245  1.0036
  250SOL    HW2  892   0.312   1.023   0.792 -0.9359 -2.4181  1.9044
  251SOL     OW  893   1.819   3.585   0.375  0.0523  0.2789 -0.0698
  251SOL    HW1  894   1.800   3.679   0.365 -2.3653 -0.0695  0.6429
  251SOL    HW2  895   1.738   3.548   0.407  1.3833 -1.8815  1.0080
  252SOL     OW  896   1.942   3.493   2.386  0.1585 -0.0768  0.0913
  252SOL    HW1  897   1.945   3.461   2.296  1.0617 -1.3663  0.5667
  252SOL    HW2  898   1.990   3.429   2.437 -0.4925  0.5375  1.5457
  253SOL     OW  899   1.983   1.555   0.783 -0.0063 -0.2964 -0.2636
  253SOL    HW1  900   1.985   1.638   0.735  0.1406 -1.0334 -1.5917
  253SOL    HW2  901   1.946   1.577   0.868 -0.5797  1.0129 -0.8267
  254SOL     OW  902   2.095   0.227   2.020 -0.4973  0.3991  0.7862
  254SOL    HW1  903   2.061   0.277   1.946 -0.8996 -0.8810  0.0792
  254SOL    HW2  904   2.035   0.247   2.092 -0.7006  0.8518  0.4942
  255SOL     OW  905   1.933   2.116   1.875  0.1123 -0.6222 -0.1072
  255SOL    HW1  906   1.950   2.179   1.945  0.3957 -3.5062  2.6413
  255SOL    HW2  907   2.018   2.105   1.832  0.8410 -1.3510  1.4412
  256SOL     OW  908   1.960   3.258   0.046  0.4944 -0.5297  0.1167
  256SOL    HW1  909   2.039   3.273  -0.007 -1.4420  1.3970 -2.4828
  256SOL    HW2  910   1.915   3.186   0.002 -0.0634 -0.4043  0.4748
  257SOL     OW  911   2.165   1.149   3.193 -0.0267 -0.8125 -0.3072
  257SOL    HW1  912   2.250   1.184   3.218 -0.1029 -0.8657  0.0290
  257SOL    HW2  913   2.130   1.111   3.274 -0.6674 -0.1783 -0.2762
  258SOL     OW  914   0.871   3.605   0.987 -0.0840  0.4397  0.6977
  258SOL    HW1  915   0.887   3.539   0.920  2.4731  0.0754  1.5558
  258SOL    HW2  916   0.898   3.563   1.069 -0.9901  1.6360  1.6504
  259SOL     OW  917   0.425   1.256   1.454  0.2502  0.1406 -0.5207
  259SOL    HW1  918   0.496   1.198   1.485 -1.4416 -2.3502 -0.9766
  259SOL    HW2  919   0.362   1.256   1.526 -0.0024  1.0166 -0.7390
  260SOL     OW  920   2.362   0.200   3.244 -0.0318 -0.1914  0.1757
  260SOL    HW1  921   2.354   0.204   3.339  3.1650  3.0490  0.5111
  260SOL    HW2  922   2.318   0.278   3.212 -0.3787 -0.8326 -0.9886
  261SOL     OW  923   3.139   1.253   2.480 -0.6877 -0.5063 -0.6464
  261SOL    HW1  924   3.234   1.246   2.494 -1.1328 -0.8740  3.1154
  261SOL    HW2  925   3.121   1.347   2.487 -0.6269 -0.4249 -1.4703
  262SOL     OW  926   3.112   1.508   2.518 -0.2629 -0.5060 -0.3758
  262SOL    HW1  927   3.172   1.570   2.561  0.5317  0.0652 -2.2053
  262SOL    HW2  928   3.037   1.503   2.577  0.3873  0.8988  0.6488
  263SOL     OW  929   2.180   3.049   0.153  0.4850  0.6851 -0.7185
  263SOL    HW1  930   2.252   3.025   0.211 -0.6963 -0.5324  0.3267
  263SOL    HW2  931   2.141   3.127   0.193 -1.8925 -1.5472  1.7337
  264SOL     OW  932   3.130   2.236   0.248 -0.1485  0.3141  0.0937
  264SOL    HW1  933   3.159   2.253   0.158  0.5115 -0.2305  0.1963
  264SOL    HW2  934   3.209   2.252   0.301  0.9874 -4.0979  0.1235
  265SOL     OW  935   2.716   2.862   2.325  0.1210 -0.1041  0.8849
  265SOL    HW1  936   2.712   2.807   2.403 -2.3061  1.3494  1.8819
  265SOL    HW2  937   2.653   2.824   2.265  1.2164 -0.5952  0.0049
  266SOL     OW  938   2.309   2.620   0.308  0.1903  0.2215 -0.0323
  266SOL    HW1  939   2.233   2.665   0.345  0.8306  1.6946 -0.4384
  266SOL    HW2  940   2.338   2.561   0.377 -1.5089 -0.6255  0.0099
  267SOL     OW  941   2.013   1.399   0.535 -0.0629  0.4801 -0.1110
  267SOL    HW1  942   2.025   1.415   0.629  0.1713 -0.6989  0.0706
  267SOL    HW2  943   1.954   1.324   0.531  0.5688  0.0130 -0.8918
  268SOL     OW  944   2.711   2.440   3.506  0.1027  0.3892 -0.3015
  268SOL    HW1  945   2.757   2.516   3.540  2.9448 -1.0412 -0.6522
  268SOL    HW2  946   2.759   2.365   3.541 -2.0497 -1.2675 -0.6736
  269SOL     OW  947   0.536   2.962   1.006  0.2595  0.0623  0.2948
  269SOL    HW1  948   0.448   2.976   0.970  0.0863 -0.8922  0.3196
  269SOL    HW2  949   0.521   2.940   1.098  0.7710  3.9706  1.5044
  270SOL     OW  950   2.321   2.421   1.564 -0.0851  0.1293 -0.1647
  270SOL    HW1  951   2.307   2.509   1.597  1.5042 -0.0777  1.2403
  270SOL    HW2  952   2.407   2.396   1.598 -0.8153 -2.2529  0.1678
  271SOL     OW  953   0.151   0.769   0.507  0.0665 -0.4028 -0.1788
  271SOL    HW1  954   0.099   0.747   0.584  1.4252 -0.7374  0.6885
  271SOL    HW2  955   0.168   0.685   0.465  1.3421 -0.5236  0.5268
  272SOL     OW  956   3.626   1.389   0.017  0.4703  0.2988 -0.1255
  272SOL    HW1  957   3.663   1.446   0.084 -0.1894  0.1497  0.3840
  272SOL    HW2  958   3.533   1.384   0.039  0.3941 -0.4101 -0.5711
  273SOL     OW  959   0.920   1.229   0.493 -0.5042 -0.3333 -0.1350
  273SOL    HW1  960   0.841   1.283   0.497 -0.7304 -0.7292  1.2232
  273SOL    HW2  961   0.972   1.257   0.568  0.0300 -1.0231 -0.2349
  274SOL     OW  962   1.246   2.638   1.413 -0.3839  0.1703 -0.4443
  274SOL    HW1  963   1.153   2.614   1.406 -0.1373 -0.8606 -0.3326
  274SOL    HW2  964   1.270   2.613   1.502  0.1113  0.0538 -0.6122
  275SOL     OW  965   0.305   0.530   1.995 -0.7103  0.7281 -0.0873
  275SOL    HW1  966   0.319   0.618   1.961  2.1735 -0.3105 -1.8722
  275SOL    HW2  967   0.216   0.507   1.967 -1.0291  2.5803 -0.6828
  276SOL     OW  968   0.484   2.008   2.820 -0.3102 -0.2685 -0.6780
  276SOL    HW1  969   0.570   2.047   2.801 -0.5527  0.5279 -0.1662
  276SOL    HW2  970   0.504   1.918   2.847  0.4629  0.2538  0.5472
  277SOL     OW  971   2.935   1.882   1.392  0.1482  0.6645  0.0601
  277SOL    HW1  972   2.990   1.960   1.402  1.1087 -0.0594  0.5550
  277SOL    HW2  973   2.987   1.823   1.338 -0.2392  0.0477  0.3498
  278SOL     OW  974   1.748   0.615   2.640  0.3816  0.1799  0.4682
  278SOL    HW1  975   1.796   0.669   2.703  0.9267  0.5493 -0.2394
  278SOL    HW2  976   1.656   0.639   2.652  0.6830  1.9629 -0.4367
  279SOL     OW  977   0.775   1.982   2.756 -0.0121 -0.9340  0.2681
  279SOL    HW1  978   0.824   2.061   2.730 -2.4881  0.6924  0.1721
  279SOL    HW2  979   0.800   1.967   2.847 -0.2770  0.6522  0.6339
  280SOL     OW  980   3.536   1.588   0.298 -0.1053  0.7262 -0.8472
  280SOL    HW1  981   3.448   1.582   0.261 -0.0260 -0.0378 -0.9191
  280SOL    HW2  982   3.548   1.681   0.316 -0.4839  1.0023 -1.9351
  281SOL     OW  983   2.983   1.970   3.039 -0.0130  0.0357  0.0835
  281SOL    HW1  984   2.912   1.990   2.978 -0.5583  2.7133  1.4450
  281SOL    HW2  985   2.956   1.889   3.081 -1.2666 -0.0723 -0.8580
  282SOL     OW  986   3.647   1.837   0.064 -0.5267 -0.2448 -0.4109
  282SOL    HW1  987   3.658   1.857  -0.030 -1.5842 -0.0090 -0.4995
  282SOL    HW2  988   3.652   1.742   0.069  1.6411 -0.1712 -0.3975
  283SOL     OW  989   2.166   0.319   0.733  0.2144  0.3042  0.4711
  283SOL    HW1  990   2.161   0.235   0.687  3.0030  0.1883  0.2119
  283SOL    HW2  991   2.249   0.357   0.704  0.2210  1.9864  2.5017
  284SOL     OW  992   3.130   2.358   1.210 -0.1470  0.4048 -0.1670
  284SOL    HW1  993   3.185   2.280   1.200 -0.0841  0.1805  1.6568
  284SOL    HW2  994   3.089   2.347   1.295  0.2626  2.6162  0.3561
  285SOL     OW  995   0.910   0.747   0.585  0.0025  0.6715  0.1883
  285SOL    HW1  996   0.908   0.832   0.628 -0.6609 -1.0767  4.0493
  285SOL    HW2  997   1.002   0.721   0.586 -0.1342  0.0810  2.0587
  286SOL     OW  998   1.538   0.100   0.549  0.2348  0.0635  0.3445
  286SOL    HW1  999   1.501   0.164   0.610 -2.1350  0.8611 -1.7636
  286SOL    HW2 1000   1.530   0.141   0.463  0.2452 -2.3834 -0.9153
  287SOL     OW 1001   2.081   2.279   0.588 -0.7926 -0.4956  0.2869
  287SOL    HW1 1002   2.004   2.328   0.561 -0.5655 -1.0152 -1.4470
  287SOL    HW2 1003   2.121   2.249   0.505  3.0062  2.3468  0.7921
  288SOL     OW 1004   0.353   0.926   0.519  0.0543 -0.1640 -0.1387
  288SOL    HW1 1005   0.425   0.866   0.533  0.1965 -0.5000 -1.9706
  288SOL    HW2 1006   0.276   0.870   0.511 -0.0823  0.0283 -0.1927
  289SOL     OW 1007   0.250   1.175   1.711  0.1768 -0.0340  0.3862
  289SOL    HW1 1008   0.283   1.262   1.733  0.5868  0.0201 -0.3945
  289SOL    HW2 1009   0.323   1.116   1.728  0.2737 -0.0760 -0.1456
  290SOL     OW 1010   2.693   1.711   1.816 -0.1122  0.3660 -0.3221
  290SOL    HW1 1011   2.620   1.748   1.864  0.9512  3.4633 -0.8346
  290SOL    HW2 1012   2.696   1.760   1.734  0.2009 -2.4012 -2.1260
  291SOL     OW 1013   2.412   2.474   2.173 -0.2937  0.3741  0.2357
  291SOL    HW1 1014   2.439   2.564   2.192  2.5128 -0.1004 -1.0172
  291SOL    HW2 1015   2.475   2.419   2.219 -0.1725 -0.8701 -1.3030
  292SOL     OW 1016   3.131   1.368   0.814  0.4693 -0.0379 -0.5017
  292SOL    HW1 1017   3.172   1.408   0.738  0.8594 -0.2505 -0.4068
  292SOL    HW2 1018   3.158   1.276   0.809 -0.5522 -0.3308 -0.8166
  293SOL     OW 1019   1.400   0.561   3.156 -0.5397 -0.6734  0.0639
  293SOL    HW1 1020   1.434   0.475   3.184  0.2626 -0.7186 -1.0066
  293SOL    HW2 1021   1.305   0.550   3.157 -0.5099 -1.0844  1.4364
  294SOL     OW 1022   0.145   0.681   2.990 -0.0867 -0.7064  0.5149
  294SOL    HW1 1023   0.224   0.662   3.041  1.7529  1.5150 -1.2288
  294SOL    HW2 1024   0.137   0.776   2.993 -2.5391 -0.8617  0.3431
  295SOL     OW 1025   1.869   0.567   1.652 -0.4258  0.6038  0.0720
  295SOL    HW1 1026   1.964   0.573   1.659 -0.4949  3.8341 -0.3780
  295SOL    HW2 1027   1.840   0.551   1.742  0.5135 -0.3682  0.2196
  296SOL     OW 1028   3.124   1.048   2.938 -0.0361  0.0734 -0.7578
  296SOL    HW1 1029   3.096   0.979   2.998 -0.4635 -0.4368 -1.5247
  296SOL    HW2 1030   3.184   1.004   2.878  1.0349  0.7597 -0.2180
  297SOL     OW 1031   0.052   3.207   3.493  0.1420 -0.7412 -0.4277
  297SOL    HW1 1032   0.131   3.213   3.546 -1.2596  1.4979  1.6390
  297SOL    HW2 1033   0.071   3.260   3.415  0.2442  1.1269  0.7884
  298SOL     OW 1034   1.058   0.015   2.849  0.4611 -0.1996  0.2175
  298SOL    HW1 1035   1.100  -0.054   2.798  0.1553 -0.1679 -0.0804
  298SOL    HW2 1036   1.012   0.068   2.784  0.3112  0.0120  0.4966
  299SOL     OW 1037   3.576   1.968   1.980 -0.7181  0.0487 -0.3137
  299SOL    HW1 1038   3.567   1.923   1.896 -1.1175  0.9079 -0.7388
  299SOL    HW2 1039   3.650   1.925   2.022 -1.9814 -1.9948 -0.0609
  300SOL     OW 1040   3.032   1.703   2.949  0.1347 -0.3071 -0.0253
  300SOL    HW1 1041   2.987   1.629   2.908 -0.2919  0.0802 -0.2598
  300SOL    HW2 1042   3.083   1.742   2.878 -0.5892  0.3522 -0.1903
  301SOL     OW 1043   0.561   2.852   2.677  0.2201  0.6755 -0.0300
  301SOL    HW1 1044   0.624   2.923   2.689  0.5746  0.4887 -0.6976
  301SOL    HW2 1045   0.613   2.772   2.685 -0.1850  0.4914  0.7575
  302SOL     OW 1046   1.184   3.685   1.845 -0.1867  0.3349 -0.0029
  302SOL    HW1 1047   1.113   3.677   1.781 -0.3896  1.0643  0.1219
  302SOL    HW2 1048   1.185   3.778   1.869 -0.1990  0.0607  1.1410
  303SOL     OW 1049   1.637   0.170   1.425 -0.3123  1.0968  0.1303
  303SOL    HW1 1050   1.709   0.159   1.363 -2.2677  0.1518 -2.1329
  303SOL    HW2 1051   1.636   0.264   1.445  0.6757  1.3365 -0.8575
  304SOL     OW 1052   1.055   1.318   2.272 -0.4207  0.2862  0.0693
  304SOL    HW1 1053   0.997   1.381   2.314  1.9139  2.1083  0.8045
  304SOL    HW2 1054   1.118   1.372   2.224  1.9104 -1.3914  1.0181
  305SOL     OW 1055   0.583   2.935   2.976 -0.6061 -0.8877 -0.3627
  305SOL    HW1 1056   0.489   2.951   2.987 -0.4983 -0.5248  0.0457
  305SOL    HW2 1057   0.589   2.840   2.965 -0.9846 -0.9646  0.0308
  306SOL     OW 1058   1.166   2.078   0.624  0.0226 -0.2967  0.4111
  306SOL    HW1 1059   1.203   2.118   0.702 -0.5299 -1.6775  1.4273
  306SOL    HW2 1060   1.166   1.984   0.643 -0.4527 -0.6344 -1.1114
  307SOL     OW 1061   2.501   2.131   1.089  0.0630 -0.4822 -0.0294
  307SOL    HW1 1062   2.581   2.088   1.120 -2.1829 -2.8987  2.9608
  307SOL    HW2 1063   2.431   2.096   1.144 -3.0560  1.9456 -2.0713
  308SOL     OW 1064   1.979   1.230   1.483 -0.5565 -1.0327 -0.0987
  308SOL    HW1 1065   2.051   1.289   1.507 -0.9036 -1.3139  1.8015
  308SOL    HW2 1066   1.904   1.288   1.471 -0.6471 -0.9706  0.7014
  309SOL     OW 1067   2.064   1.451   3.668 -0.1886  0.2230 -0.0232
  309SOL    HW1 1068   1.986   1.464   3.615  0.1907  2.5090 -0.1162
  309SOL    HW2 1069   2.058   1.360   3.698 -2.8128  0.2863 -0.1237
  310SOL     OW 1070   2.540   1.261   1.445 -0.7053  0.0349 -0.4212
  310SOL    HW1 1071   2.511   1.195   1.508  0.2119 -1.7500 -1.7795
  310SOL    HW2 1072   2.478   1.252   1.372 -1.8118  2.1368  0.1731
  311SOL     OW 1073   1.845   1.739   2.370 -0.5754  0.1091 -0.1713
  311SOL    HW1 1074   1.812   1.825   2.395 -2.4100 -0.3364 -0.9105
  311SOL    HW2 1075   1.867   1.697   2.453 -0.0017  1.1310  0.2185
  312SOL     OW 1076   3.282   3.210   2.706  0.1119  0.0998 -1.0154
  312SOL    HW1 1077   3.287   3.305   2.699  1.8319  0.0478 -0.7571
  312SOL    HW2 1078   3.329   3.188   2.786 -1.5928 -0.8889 -0.2067
  313SOL     OW 1079   0.465   0.810   0.239  0.1268 -0.1516  0.5469
  313SOL    HW1 1080   0.432   0.763   0.163  0.4298 -1.1964  1.0554
  313SOL    HW2 1081   0.450   0.751   0.313 -0.1975  0.8536  1.3163
  314SOL     OW 1082   1.511   2.589   3.531  0.2251  0.7066 -0.4442
  314SOL    HW1 1083   1.595   2.626   3.504  0.7722  3.0377  3.5981
  314SOL    HW2 1084   1.534   2.521   3.594 -0.6505  2.9584  2.5791
  315SOL     OW 1085   1.999   2.397   0.067  0.7890  0.5616 -0.3033
  315SOL    HW1 1086   1.976   2.481   0.028 -1.0975  0.5333  0.6386
  315SOL    HW2 1087   1.994   2.335  -0.006  0.5689  1.0111 -0.6762
  316SOL     OW 1088   3.314   0.999   3.174  0.1080  0.2043 -0.1574
  316SOL    HW1 1089   3.409   0.995   3.163  0.7083  4.7941  1.2067
  316SOL    HW2 1090   3.282   1.039   3.092 -0.7378 -1.3063 -0.6095
  317SOL     OW 1091   0.853   1.618   3.526 -0.2730 -0.2840 -0.3792
  317SOL    HW1 1092   0.833   1.533   3.566 -0.3808  0.3679  1.0075
  317SOL    HW2 1093   0.771   1.667   3.533 -0.1612  0.0035 -1.0226
  318SOL     OW 1094   0.400   2.631   2.367  0.5490  0.4524 -0.1028
  318SOL    HW1 1095   0.480   2.675   2.340  0.5422  0.8428  0.4972
  318SOL    HW2 1096   0.331   2.696   2.354  0.3152  0.0915 -0.6948
  319SOL     OW 1097   2.925   2.445   1.752  0.2417 -0.1510 -0.0233
  319SOL    HW1 1098   3.007   2.397   1.769 -0.4927 -0.9934  1.3226
  319SOL    HW2 1099   2.954   2.530   1.720  1.6311 -0.7393 -0.4275
  320SOL     OW 1100   2.433   2.330   1.948 -0.1086  0.5565  0.6452
  320SOL    HW1 1101   2.516   2.370   1.921 -2.4371  4.9089 -1.2110
  320SOL    HW2 1102   2.403   2.384   2.021 -1.0677 -1.3816  1.7606
  321SOL     OW 1103   1.827   3.481   0.104 -0.1793  0.0068 -0.3085
  321SOL    HW1 1104   1.794   3.472   0.194  0.6361  0.2670  0.0271
  321SOL    HW2 1105   1.864   3.395   0.084  3.3224  0.9807  1.1505
  322SOL     OW 1106   0.790   1.106   0.878  1.1286  0.4872  0.1648
  322SOL    HW1 1107   0.866   1.160   0.899  1.4397  0.3727 -0.6291
  322SOL    HW2 1108   0.796   1.091   0.783  0.3272  0.1580  0.1527
  323SOL     OW 1109   3.142   2.092   2.832 -0.5721  0.6148 -0.0100
  323SOL    HW1 1110   3.232   2.066   2.850 -0.7007  0.9571  1.2698
  323SOL    HW2 1111   3.098   2.083   2.917 -1.7892  0.2564 -0.6603
  324SOL     OW 1112   1.005   1.533   1.327  0.0379  0.5681 -0.3373
  324SOL    HW1 1113   0.947   1.498   1.258 -0.1094  3.4643 -1.8510
  324SOL    HW2 1114   1.093   1.526   1.290  0.1658  0.4092 -0.0053
  325SOL     OW 1115   3.390   2.795   0.215 -0.7643  0.5050 -0.1392
  325SOL    HW1 1116   3.354   2.759   0.134  1.7230 -0.6458 -0.8184
  325SOL    HW2 1117   3.428   2.879   0.189 -0.2436  0.2831 -0.0927
  326SOL     OW 1118   3.434   0.358   1.336 -0.1672 -0.5460 -0.4631
  326SOL    HW1 1119   3.472   0.365   1.423  1.7029  1.4025 -1.3669
  326SOL    HW2 1120   3.426   0.448   1.305 -1.9365 -1.1145 -1.8797
  327SOL     OW 1121   0.131   1.483   1.354 -0.5913  0.1876 -0.0121
  327SOL    HW1 1122   0.036   1.493   1.351 -0.5441  1.1298  0.8332
  327SOL    HW2 1123   0.164   1.554   1.299 -0.3081  3.4091  3.8579
  328SOL     OW 1124   0.147   0.404   1.635 -0.4072  0.4144  0.5823
  328SOL    HW1 1125   0.113   0.420   1.723 -1.2322  0.1943  0.3072
  328SOL    HW2 1126   0.146   0.309   1.625  1.1485  0.3402  0.8970
  329SOL     OW 1127   1.958   2.006   2.660 -0.5759 -0.1868 -0.8974
  329SOL    HW1 1128   2.023   1.995   2.590 -0.0066 -0.5607 -0.3245
  329SOL    HW2 1129   2.006   2.050   2.730 -0.8278 -0.8213 -0.3196
  330SOL     OW 1130   1.859   2.027   0.621  0.3807 -0.2442  0.0374
  330SOL    HW1 1131   1.828   1.956   0.678  0.6118  0.8016  1.5124
  330SOL    HW2 1132   1.855   2.105   0.675  1.4216  0.6623 -1.1404
  331SOL     OW 1133   2.790   3.084   0.594  0.4483  0.0724 -0.3153
  331SOL    HW1 1134   2.712   3.087   0.649  0.9582  2.0599  0.3968
  331SOL    HW2 1135   2.786   3.165   0.544  1.4575 -0.3743 -1.1486
  332SOL     OW 1136   3.524   2.465   1.842  0.0100  0.0478 -0.6002
  332SOL    HW1 1137   3.454   2.525   1.866 -1.0513 -1.6945  0.9026
  332SOL    HW2 1138   3.567   2.443   1.925  1.4787  0.0252 -1.3277
  333SOL     OW 1139   2.259   3.509   1.383 -0.4393 -0.2862 -0.6110
  333SOL    HW1 1140   2.213   3.586   1.415 -0.1031 -0.1647 -0.4157
  333SOL    HW2 1141   2.282   3.532   1.292 -0.2487 -0.1122 -0.5211
  334SOL     OW 1142   1.071   1.310   3.281  0.0415  0.0392  0.0772
  334SOL    HW1 1143   1.041   1.392   3.320 -2.2388 -0.7468  0.1018
  334SOL    HW2 1144   1.046   1.243   3.344 -1.7039 -1.0341 -1.6392
  335SOL     OW 1145   3.463   2.416   3.519 -0.4969 -0.0683  0.3041
  335SOL    HW1 1146   3.381   2.416   3.469  0.3938 -1.4632 -1.2442
  335SOL    HW2 1147   3.507   2.336   3.492  1.3613  0.6280  1.1545
  336SOL     OW 1148   2.995   3.397   3.054  0.0995  0.2856  0.4253
  336SOL    HW1 1149   3.028   3.312   3.081 -1.2696 -0.1530  0.7920
  336SOL    HW2 1150   2.960   3.436   3.135 -1.7792  0.0053 -0.1979
  337SOL     OW 1151   0.674   3.545   1.720  0.3097  0.1537 -0.0837
  337SOL    HW1 1152   0.653   3.635   1.695  0.5095  0.6296  1.3669
  337SOL    HW2 1153   0.612   3.491   1.671  0.1577  1.0761 -0.9385
  338SOL     OW 1154   0.367   1.046   3.491 -0.2638  0.2279 -0.0085
  338SOL    HW1 1155   0.387   0.961   3.453 -0.1166  0.4876 -0.5204
  338SOL    HW2 1156   0.387   1.036   3.584  1.0391  0.0952 -0.2851
  339SOL     OW 1157   3.145   2.658   2.725 -0.3338 -0.1321 -0.0843
  339SOL    HW1 1158   3.068   2.715   2.726  0.0080  0.3311  0.1814
  339SOL    HW2 1159   3.219   2.717   2.724  0.0227 -0.5801 -0.9721
  340SOL     OW 1160   0.120   1.867   2.141 -0.0496  0.3326  0.0236
  340SOL    HW1 1161   0.078   1.938   2.190 -0.0513  1.7472 -1.9204
  340SOL    HW2 1162   0.210   1.896   2.129  0.6683 -1.1920  1.3367
  341SOL     OW 1163   2.632   3.326   1.730  0.5227  0.0886 -0.3991
  341SOL    HW1 1164   2.555   3.353   1.680  0.8676  1.0232 -0.4449
  341SOL    HW2 1165   2.666   3.251   1.681  2.2661  2.4165 -3.0960
  342SOL     OW 1166   3.612   0.679   0.491  0.1344  0.2341 -0.6830
  342SOL    HW1 1167   3.521   0.703   0.510  0.1792  0.8583 -1.2366
  342SOL    HW2 1168   3.615   0.584   0.507 -0.7441  0.1125 -1.1809
  343SOL     OW 1169   2.710   2.214   2.725  0.0640 -0.2838 -0.7263
  343SOL    HW1 1170   2.659   2.295   2.729  2.3509  1.2736 -1.1230
  343SOL    HW2 1171   2.787   2.237   2.672  1.9879 -2.0066  1.1571
  344SOL     OW 1172   1.265   0.055   0.307 -0.0196 -0.3953 -0.3476
  344SOL    HW1 1173   1.203   0.053   0.380 -0.3537  1.7279 -0.5070
  344SOL    HW2 1174   1.317   0.134   0.322  0.5763 -0.4609 -1.8845
  345SOL     OW 1175   0.882   3.524   3.447  0.1748 -0.1296  0.0267
  345SOL    HW1 1176   0.868   3.616   3.428 -2.1196 -0.3860  0.1886
  345SOL    HW2 1177   0.970   3.505   3.413 -0.6146  1.2769 -3.1816
  346SOL     OW 1178   2.725   1.675   2.375  0.2223 -0.3610  0.3390
  346SOL    HW1 1179   2.760   1.617   2.306 -1.2240 -1.6148  0.6011
  346SOL    HW2 1180   2.642   1.705   2.340  0.0748  0.0301  1.0233
  347SOL     OW 1181   1.247   1.528   3.127  0.5132  0.4214  0.5410
  347SOL    HW1 1182   1.333   1.565   3.146  1.1607 -0.2846 -0.8990
  347SOL    HW2 1183   1.215   1.498   3.212  2.1888 -0.3462  0.9461
  348SOL     OW 1184   1.589   1.922   2.029  0.0398  0.0975 -0.4517
  348SOL    HW1 1185   1.589   1.969   2.113  1.4990  0.8052 -0.8291
  348SOL    HW2 1186   1.574   1.990   1.964  2.1328  0.0974 -1.0013
  349SOL     OW 1187   1.864   3.258   3.084 -0.3055 -0.6361 -0.4030
  349SOL    HW1 1188   1.906   3.275   3.000 -0.6168  0.0837 -0.4205
  349SOL    HW2 1189   1.905   3.320   3.145  0.7355 -1.9151  0.2547
  350SOL     OW 1190   0.193   0.526   2.523  0.2632  0.4450  0.5493
  350SOL    HW1 1191   0.130   0.597   2.509  0.6147  0.5223 -0.7615
  350SOL    HW2 1192   0.146   0.462   2.576 -1.2043  0.1321 -1.0523
  351SOL     OW 1193   0.194   3.483   1.102  0.4035  0.4490 -0.2449
  351SOL    HW1 1194   0.105   3.486   1.067 -0.5736 -0.5285  1.9471
  351SOL    HW2 1195   0.207   3.391   1.125  0.9547  0.9980  1.8316
  352SOL     OW 1196   0.926   1.749   2.391  0.4644 -0.3916 -0.4919
  352SOL    HW1 1197   0.997   1.755   2.327  0.6108  1.0046 -0.2373
  352SOL    HW2 1198   0.879   1.669   2.368  1.0206 -0.3619 -1.8138
  353SOL     OW 1199   2.227   0.324   1.783 -0.7659 -0.3897  0.1264
  353SOL    HW1 1200   2.291   0.386   1.816 -0.4454 -0.0445 -1.1072
  353SOL    HW2 1201   2.148   0.376   1.767 -1.8308 -0.9989  2.7406
  354SOL     OW 1202   1.480   1.686   3.203 -0.1261  0.5875 -0.1303
  354SOL    HW1 1203   1.558   1.707   3.152  0.5695  0.8357  0.9805
  354SOL    HW2 1204   1.423   1.762   3.193 -0.2288  0.4169 -0.9224
  355SOL     OW 1205   1.548   1.983   3.377 -0.5617  0.5349  0.5872
  355SOL    HW1 1206   1.615   2.000   3.311  0.6284 -1.8293  1.0910
  355SOL    HW2 1207   1.465   1.989   3.330  0.1880  0.3635 -0.7853
  356SOL     OW 1208   1.645   1.231   1.377 -0.4107 -0.1647  0.2542
  356SOL    HW1 1209   1.715   1.290   1.351  0.4073 -1.1418  0.1654
  356SOL    HW2 1210   1.591   1.220   1.299  0.1742 -0.5444 -0.0988
  357SOL     OW 1211   0.661   1.545   1.348  0.4799  0.3859  0.1510
  357SOL    HW1 1212   0.677   1.589   1.264  0.0061  0.6840  0.2112
  357SOL    HW2 1213   0.579   1.497   1.333  1.0106 -0.5195  0.0717
  358SOL     OW 1214  -0.023   0.269   0.695 -0.1869 -0.1420  0.0568
  358SOL    HW1 1215   0.012   0.181   0.683  0.2088 -0.0463  0.4808
  358SOL    HW2 1216   0.025   0.304   0.771  0.4106  0.8164 -0.7312
  359SOL     OW 1217   0.568   2.159   0.757  0.1746  1.4044 -0.1251
  359SOL    HW1 1218   0.480   2.139   0.724 -0.1149  0.1940  1.2727
  359SOL    HW2 1219   0.614   2.193   0.681 -1.3480  1.5721 -1.0251
  360SOL     OW 1220   2.468   0.027   0.660  0.0378 -0.0324 -0.0031
  360SOL    HW1 1221   2.454   0.052   0.569  2.0722  2.1478  0.1756
  360SOL    HW2 1222   2.504  -0.061   0.656 -1.8282 -0.8075 -1.1121
  361SOL     OW 1223   0.605   3.170   3.508 -0.0876 -0.7606 -0.6785
  361SOL    HW1 1224   0.621   3.256   3.546  0.3755 -0.6119 -1.2038
  361SOL    HW2 1225   0.640   3.176   3.419  2.0656 -2.1876 -0.0043
  362SOL     OW 1226   1.178   0.370   2.677  0.2168  0.0888 -0.1305
  362SOL    HW1 1227   1.195   0.281   2.707 -1.8897 -0.0073  0.9514
  362SOL    HW2 1228   1.262   0.415   2.689  1.4224 -1.7769 -1.0059
  363SOL     OW 1229   1.702   0.567   2.355 -0.4074 -0.3191 -0.6118
  363SOL    HW1 1230   1.689   0.529   2.442 -0.1680  0.6669 -0.1375
  363SOL    HW2 1231   1.616   0.560   2.313 -0.9907  0.8037  0.3501
  364SOL     OW 1232   1.669   3.686   2.641 -0.8156  0.0606  0.2177
  364SOL    HW1 1233   1.668   3.617   2.706  2.0318 -1.1956 -0.8867
  364SOL    HW2 1234   1.673   3.640   2.557  0.2978  1.5279 -0.5912
  365SOL     OW 1235   2.329   2.156   2.268  0.7084  0.6215  0.3073
  365SOL    HW1 1236   2.265   2.162   2.197  0.1896 -0.8958  0.6198
  365SOL    HW2 1237   2.369   2.070   2.257  0.8486  0.4901  1.6636
  366SOL     OW 1238   0.025   1.103   1.826 -0.0976 -0.4266  0.2257
  366SOL    HW1 1239   0.068   1.022   1.855 -0.8733 -0.3542  1.6381
  366SOL    HW2 1240   0.091   1.146   1.772 -0.1297 -2.6413 -1.7597
  367SOL     OW 1241   0.205   0.918   1.889  0.3413  0.5571 -0.1091
  367SOL    HW1 1242   0.282   0.964   1.854  0.2083 -0.3217 -1.6681
  367SOL    HW2 1243   0.206   0.936   1.983  1.3532  2.1460 -0.4013
  368SOL     OW 1244   1.238   2.163   1.892  0.2550  0.3204 -0.3401
  368SOL    HW1 1245   1.260   2.163   1.799 -1.1991 -0.6714 -0.7008
  368SOL    HW2 1246   1.317   2.129   1.935  1.1019  1.1983 -1.1362
  369SOL     OW 1247   1.240   1.943   2.770 -0.1732  0.5430  0.1263
  369SOL    HW1 1248   1.251   1.991   2.688 -2.7472 -0.3852 -0.8752
  369SOL    HW2 1249   1.168   1.881   2.752 -2.2634  1.6768  3.6397
  370SOL     OW 1250   2.675   1.257   2.248  0.4868  0.4405 -0.0852
  370SOL    HW1 1251   2.628   1.225   2.325  0.4484  1.4669  0.3366
  370SOL    HW2 1252   2.637   1.344   2.231  0.5529  0.2737 -1.2098
  371SOL     OW 1253   3.715   2.632   3.438  0.1183 -0.0661 -0.2048
  371SOL    HW1 1254   3.621   2.650   3.430 -0.5961 -3.3440 -0.8194
  371SOL    HW2 1255   3.728   2.616   3.532  0.2217  1.0709 -0.0214
  372SOL     OW 1256   3.584   1.059   3.199  0.1222  0.0542 -0.1198
  372SOL    HW1 1257   3.647   1.008   3.147  0.3058 -1.2115  1.2642
  372SOL    HW2 1258   3.636   1.130   3.236  0.2438  0.2930 -0.7368
  373SOL     OW 1259   0.450   3.553   2.587 -0.0159 -1.1390  0.2795
  373SOL    HW1 1260   0.478   3.509   2.667  1.2374 -1.1436 -0.1481
  373SOL    HW2 1261   0.461   3.487   2.519 -3.2123 -1.9185  0.3550
  374SOL     OW 1262   2.276   1.338   1.039  0.1314 -0.7915 -0.0083
  374SOL    HW1 1263   2.262   1.430   1.017 -1.1205 -0.6985  1.0317
  374SOL    HW2 1264   2.360   1.316   0.999  1.3353  1.3008  1.1826
  375SOL     OW 1265   3.199   3.401   1.279 -0.9232 -0.3290 -0.0311
  375SOL    HW1 1266   3.202   3.466   1.208 -2.3710 -0.2732 -0.0772
  375SOL    HW2 1267   3.182   3.453   1.358 -3.3754 -0.6856 -0.2406
  376SOL     OW 1268   2.624   1.500   0.582  0.5972 -0.8776 -0.1155
  376SOL    HW1 1269   2.645   1.409   0.601 -1.7397 -1.7883 -1.4920
  376SOL    HW2 1270   2.540   1.497   0.537  0.2011  2.0164  0.2126
  377SOL     OW 1271   1.762   0.257   1.803  0.1220  0.1407 -0.3026
  377SOL    HW1 1272   1.801   0.321   1.862  0.9766  0.4577 -1.1677
  377SOL    HW2 1273   1.670   0.253   1.829  0.8591 -1.3282  2.4273
  378SOL     OW 1274   0.486   2.987   1.555  0.3420 -0.1929  0.1142
  378SOL    HW1 1275   0.414   2.999   1.492 -0.7152 -0.3453  1.2514
  378SOL    HW2 1276   0.444   2.995   1.641  1.5219 -1.1917  0.8166
  379SOL     OW 1277   0.478   2.408   3.719  0.1360  0.0004 -0.2266
  379SOL    HW1 1278   0.569   2.433   3.706 -0.0017  0.4196 -0.4182
  379SOL    HW2 1279   0.446   2.387   3.631  0.2546 -0.8940 -0.0671
  380SOL     OW 1280   2.715   1.856   1.555  0.1731  0.5893  0.5178
  380SOL    HW1 1281   2.787   1.858   1.491  0.2719  0.8143  0.6333
  380SOL    HW2 1282   2.659   1.929   1.531 -1.0468 -0.6970 -0.7313
  381SOL     OW 1283   2.148   2.747   3.612 -0.1627  0.4071  0.3320
  381SOL    HW1 1284   2.072   2.711   3.657 -1.5284  1.0370 -1.3874
  381SOL    HW2 1285   2.125   2.837   3.591  1.1072  0.6549 -0.1248
  382SOL     OW 1286   3.179   2.092   1.148 -0.0541 -0.1917  0.5766
  382SOL    HW1 1287   3.165   2.064   1.239  0.6789  0.3403  0.8592
  382SOL    HW2 1288   3.091   2.094   1.111 -0.4730  0.5333  1.5537
  383SOL     OW 1289   3.442   3.275   0.281  0.3306 -0.3026 -0.0110
  383SOL    HW1 1290   3.524   3.287   0.330  1.2116 -1.7756 -1.0538
  383SOL    HW2 1291   3.389   3.220   0.338  0.3739  0.0043  0.3312
  384SOL     OW 1292   2.895   2.257   0.438 -0.5902  0.4914  0.1727
  384SOL    HW1 1293   2.972   2.217   0.398 -1.5498 -1.9062  0.5617
  384SOL    HW2 1294   2.838   2.279   0.365 -1.1572 -1.3566 -0.0046
  385SOL     OW 1295   0.191   3.329   0.651  0.4077  0.0141  0.4276
  385SOL    HW1 1296   0.242   3.399   0.691  0.2889  0.3149  0.0577
  385SOL    HW2 1297   0.252   3.286   0.591  0.8319 -0.9715  1.5298
  386SOL     OW 1298   2.218   1.508   1.949  0.5094  0.0633 -0.1762
  386SOL    HW1 1299   2.264   1.564   2.012  1.5430 -0.0887 -0.7680
  386SOL    HW2 1300   2.126   1.524   1.966  0.6682 -1.5321  2.7945
  387SOL     OW 1301   1.223   3.676   0.717 -0.8989  0.0397  0.1688
  387SOL    HW1 1302   1.205   3.770   0.719 -0.4087  0.1328  1.1801
  387SOL    HW2 1303   1.239   3.653   0.809  1.7469 -0.4695 -0.3273
  388SOL     OW 1304   1.448   0.499   0.443  0.5887 -0.2784  0.0692
  388SOL    HW1 1305   1.479   0.473   0.530  2.4817  0.8959 -0.2100
  388SOL    HW2 1306   1.494   0.580   0.423 -0.6231  0.0695 -1.6032
  389SOL     OW 1307   0.406   0.075   0.355  0.1098 -0.2619 -1.0221
  389SOL    HW1 1308   0.389  -0.010   0.396 -0.2831  0.1846 -0.2079
  389SOL    HW2 1309   0.394   0.060   0.262  0.3820 -1.1775 -0.9186
  390SOL     OW 1310   2.930   1.230   2.181 -0.0569  0.0891  0.4735
  390SOL    HW1 1311   2.837   1.225   2.204 -0.4228  2.7609 -0.2039
  390SOL    HW2 1312   2.952   1.322   2.187  1.3425  0.2599 -3.9060
  391SOL     OW 1313   1.888   0.356   3.116 -0.2959 -0.5194  0.5120
  391SOL    HW1 1314   1.805   0.308   3.118  0.2015 -1.4429 -0.0567
  391SOL    HW2 1315   1.867   0.442   3.152 -1.8885 -0.1376 -1.1436
  392SOL     OW 1316   1.909   0.421   0.371  0.4489  0.4582 -0.0774
  392SOL    HW1 1317   1.843   0.428   0.440  0.8241  1.1975  0.2202
  392SOL    HW2 1318   1.896   0.499   0.318  0.2430 -0.0483 -0.7789
  393SOL     OW 1319   1.532   2.012   2.670  0.0051  0.3352 -0.2538
  393SOL    HW1 1320   1.459   2.015   2.731  1.1228 -0.2793  1.1679
  393SOL    HW2 1321   1.573   2.098   2.677  1.8477 -0.6426  2.1205
  394SOL     OW 1322   1.754   3.046   1.482  0.3035  0.2285 -0.1337
  394SOL    HW1 1323   1.684   3.065   1.545  0.4052 -0.6922  0.2736
  394SOL    HW2 1324   1.772   3.130   1.440 -1.2007  0.4364 -0.4201
  395SOL     OW 1325   3.513   1.532   0.788 -0.1943 -0.5628  0.5576
  395SOL    HW1 1326   3.581   1.585   0.829  0.0794  0.1544 -0.7581
  395SOL    HW2 1327   3.554   1.498   0.708 -1.3902 -0.0225 -0.3226
  396SOL     OW 1328   1.358   0.674   3.635 -0.0031 -0.0958  0.1550
  396SOL    HW1 1329   1.420   0.725   3.687  0.0633 -1.5392  1.5559
  396SOL    HW2 1330   1.332   0.602   3.692 -2.5734  0.1388 -0.5721
  397SOL     OW 1331   3.333   2.627   3.733 -0.1578 -0.5522 -0.4106
  397SOL    HW1 1332   3.253   2.627   3.681  0.3214 -3.3095 -1.2862
  397SOL    HW2 1333   3.399   2.586   3.677  0.9517 -1.5889  1.5258
  398SOL     OW 1334   0.972   0.813   0.301  0.1380 -0.0629 -0.2033
  398SOL    HW1 1335   1.054   0.766   0.287  0.9321  0.9748  0.8280
  398SOL    HW2 1336   0.941   0.783   0.386  0.4154  0.9119  0.2540
  399SOL     OW 1337   1.656   1.028   0.571 -0.0904 -0.5691  0.2835
  399SOL    HW1 1338   1.612   1.064   0.647 -0.3195 -0.6587  0.1957
  399SOL    HW2 1339   1.689   0.943   0.600  1.4028  0.1512  0.8171
  400SOL     OW 1340   0.245   3.581   2.293 -0.6400 -0.3234  0.1131
  400SOL    HW1 1341   0.270   3.499   2.250 -2.0838  0.2060 -1.8693
  400SOL    HW2 1342   0.154   3.569   2.318 -0.8358  0.6221 -0.0913
  401SOL     OW 1343   3.357   3.139   1.307 -1.1658  0.9365  0.2088
  401SOL    HW1 1344   3.298   3.214   1.297 -2.1540  0.2766  0.8926
  401SOL    HW2 1345   3.302   3.063   1.286 -0.1649  0.4007 -0.5230
  402SOL     OW 1346   0.254   3.571   1.497 -0.3351 -0.8401  0.0535
  402SOL    HW1 1347   0.224   3.645   1.550 -1.3113 -1.7770  0.8518
  402SOL    HW2 1348   0.174   3.535   1.458  0.4724  1.4769 -4.4773
  403SOL     OW 1349   1.040   2.804   0.138  0.4554 -0.0156 -0.6057
  403SOL    HW1 1350   1.071   2.767   0.055 -0.7061  2.8954 -2.5000
  403SOL    HW2 1351   0.947   2.781   0.140  0.4654 -0.0150 -0.1430
  404SOL     OW 1352   0.135   1.276   2.035 -0.3275  0.3823  0.1679
  404SOL    HW1 1353   0.089   1.264   1.951 -2.6299 -2.2328  1.6435
  404SOL    HW2 1354   0.123   1.369   2.055 -1.0167  0.7434 -1.6916
  405SOL     OW 1355   2.984   3.550   3.313 -0.6865  0.1315  0.2954
  405SOL    HW1 1356   2.935   3.627   3.343  0.2789  0.3574  1.3646
  405SOL    HW2 1357   3.049   3.585   3.252 -0.9143  0.0241 -0.0101
  406SOL     OW 1358   3.714   2.995   3.177 -0.1610 -0.3797 -0.2945
  406SOL    HW1 1359   3.629   3.003   3.221 -0.2924 -0.1431 -0.5814
  406SOL    HW2 1360   3.765   2.936   3.232  0.8749  2.4642  1.9916
  407SOL     OW 1361   0.374   0.458   0.993 -0.4703  0.3325 -0.5242
  407SOL    HW1 1362   0.448   0.467   0.934 -0.1601  0.0778 -0.1834
  407SOL    HW2 1363   0.364   0.544   1.035  0.2376  0.1055  0.1269
  408SOL     OW 1364   2.897   1.034   3.516  0.8899 -0.1580 -0.1172
  408SOL    HW1 1365   2.836   1.076   3.456  0.2464 -0.7989  0.0753
  408SOL    HW2 1366   2.972   1.011   3.461 -0.3708 -2.2300 -1.0856
  409SOL     OW 1367   1.828   0.916   3.657 -0.0116  0.5223 -0.1787
  409SOL    HW1 1368   1.777   0.989   3.622 -0.5124 -0.5165 -1.7275
  409SOL    HW2 1369   1.765   0.865   3.708  0.5611  1.6504  1.7714
  410SOL     OW 1370   0.687   0.875   0.392 -0.0827 -0.7465  0.0058
  410SOL    HW1 1371   0.771   0.878   0.345  0.7048 -1.6104  1.2990
  410SOL    HW2 1372   0.621   0.876   0.322  0.9636  0.4549 -1.0239
  411SOL     OW 1373   1.038   1.809   2.676 -0.2154 -0.5936  0.0412
  411SOL    HW1 1374   1.019   1.724   2.638  0.4565 -1.6844  2.0233
  411SOL    HW2 1375   0.952   1.844   2.699 -0.9433  1.1474 -4.2348
  412SOL     OW 1376   2.698   1.665   3.664  0.1754  0.1241  0.0109
  412SOL    HW1 1377   2.696   1.749   3.710 -1.8346  0.4392 -0.5417
  412SOL    HW2 1378   2.634   1.611   3.709  0.5480 -0.6998 -0.4186
  413SOL     OW 1379   0.132   3.138   0.402  0.5627 -0.0816  0.2920
  413SOL    HW1 1380   0.048   3.102   0.431  1.0966 -1.0401  0.7128
  413SOL    HW2 1381   0.116   3.166   0.312 -0.0025 -0.9881  0.0950
  414SOL     OW 1382   1.407   2.887   0.575 -0.2055 -0.8927 -0.0666
  414SOL    HW1 1383   1.460   2.828   0.522 -0.4431 -0.3770 -0.8888
  414SOL    HW2 1384   1.329   2.837   0.596 -1.0689 -0.4327 -1.9641
  415SOL     OW 1385   3.034   0.045   3.187 -0.2208  0.3394  0.0138
  415SOL    HW1 1386   3.056   0.138   3.192 -0.8499  0.4603  0.8394
  415SOL    HW2 1387   2.950   0.043   3.142 -0.5167  0.2334  0.5564
  416SOL     OW 1388   0.483   2.637   2.962  0.1757  0.2153 -0.0834
  416SOL    HW1 1389   0.398   2.676   2.981  0.7860 -0.1944  5.3549
  416SOL    HW2 1390   0.467   2.542   2.964  0.5319  0.1511 -0.2530
  417SOL     OW 1391   0.182   1.964  -0.005  0.2055  0.4967  0.3264
  417SOL    HW1 1392   0.251   1.898  -0.012  2.1151  2.3143  0.7503
  417SOL    HW2 1393   0.118   1.926   0.055 -0.5565 -2.2982 -1.9858
  418SOL     OW 1394   2.862   0.808   0.905  0.2357 -0.2135 -0.1610
  418SOL    HW1 1395   2.793   0.802   0.972  0.6718 -1.2228  0.2122
  418SOL    HW2 1396   2.935   0.849   0.951 -0.2810  1.4068 -0.7156
  419SOL     OW 1397   0.269   2.015   1.035  0.6062 -0.9663 -0.3019
  419SOL    HW1 1398   0.202   1.947   1.046  0.0101 -0.3937 -0.3133
  419SOL    HW2 1399   0.224   2.096   1.058  1.4379 -0.6267  0.1638
  420SOL     OW 1400   1.631   2.426   0.533 -0.3751  0.8133  0.3178
  420SOL    HW1 1401   1.578   2.401   0.457 -1.1445  1.4471  0.6338
  420SOL    HW2 1402   1.575   2.484   0.584  0.3323  0.8452  1.0926
  421SOL     OW 1403   2.286   2.015   0.271  0.5022 -0.5293 -0.5633
  421SOL    HW1 1404   2.311   2.106   0.288  0.4929 -0.6267 -0.0071
  421SOL    HW2 1405   2.364   1.975   0.234  0.3474 -0.1636 -1.2879
  422SOL     OW 1406   1.943   0.826   1.127  0.0004  0.0989 -0.2899
  422SOL    HW1 1407   1.967   0.891   1.192 -0.1642  1.1138 -1.2100
  422SOL    HW2 1408   1.878   0.771   1.171  1.7472 -0.8321  1.2157
  423SOL     OW 1409   2.878   2.396   2.553  0.1049 -0.0602  0.5250
  423SOL    HW1 1410   2.835   2.441   2.625 -0.9806 -1.2884  0.6772
  423SOL    HW2 1411   2.972   2.410   2.569 -0.1716  1.3666  1.0381
  424SOL     OW 1412   0.767   3.557   2.657  0.1117  0.2338 -0.6743
  424SOL    HW1 1413   0.679   3.540   2.691  0.9610  2.5094  3.3337
  424SOL    HW2 1414   0.824   3.496   2.705  1.0254  0.7566 -1.0647
  425SOL     OW 1415   3.284   1.830   1.171 -0.0630 -0.2293 -0.0634
  425SOL    HW1 1416   3.326   1.744   1.174  2.2757  0.8507  0.5332
  425SOL    HW2 1417   3.313   1.868   1.088  1.5139  1.1311  1.0449
  426SOL     OW 1418   3.391   2.136   0.998 -0.0216  0.1468 -0.2630
  426SOL    HW1 1419   3.374   2.225   0.966  2.5659  1.1270  0.7678
  426SOL    HW2 1420   3.315   2.115   1.052 -2.0584  0.4859 -2.7783
  427SOL     OW 1421   1.900   2.399   1.946 -0.0881 -0.2091 -0.1373
  427SOL    HW1 1422   1.821   2.380   1.997 -0.3335 -1.6233 -1.0015
  427SOL    HW2 1423   1.867   2.425   1.860  0.3770 -2.0746 -0.9126
  428SOL     OW 1424   1.114   1.478   3.735 -0.4970 -0.4194  0.2425
  428SOL    HW1 1425   1.153   1.390   3.739 -0.1855 -0.5652 -3.1027
  428SOL    HW2 1426   1.033   1.466   3.687  0.2315  1.2520 -1.5570
  429SOL     OW 1427   1.838   1.055   2.988 -0.3606 -0.2129  0.3318
  429SOL    HW1 1428   1.863   1.128   2.931  2.3585  0.1570  1.8472
  429SOL    HW2 1429   1.776   1.094   3.050 -1.6110 -0.0931 -0.9345
  430SOL     OW 1430   2.214   2.075   0.008 -0.0307  0.1534  0.1590
  430SOL    HW1 1431   2.249   2.043   0.091 -0.7115 -0.4028  0.2481
  430SOL    HW2 1432   2.188   1.996  -0.039  1.6427  0.3634 -1.2120
  431SOL     OW 1433   2.237   0.678   3.188  0.0663 -0.5282 -0.1348
  431SOL    HW1 1434   2.203   0.686   3.277  1.4707 -0.0105  0.3802
  431SOL    HW2 1435   2.332   0.684   3.197  0.2996 -1.3798 -1.5812
  432SOL     OW 1436   0.719   3.394   1.953  0.1021  0.3932  0.7236
  432SOL    HW1 1437   0.812   3.379   1.936  0.0431 -0.0646  0.7823
  432SOL    HW2 1438   0.694   3.463   1.892  0.1881 -0.3508 -0.1864
  433SOL     OW 1439   1.769   0.922   3.268 -0.1937 -0.3257 -0.1725
  433SOL    HW1 1440   1.785   1.001   3.320 -0.6009 -1.1020  1.2064
  433SOL    HW2 1441   1.705   0.873   3.320  1.0682 -2.2019 -0.2870
  434SOL     OW 1442   2.895   2.459   1.101 -0.2792 -0.0797 -0.0209
  434SOL    HW1 1443   2.985   2.428   1.106 -0.1247  0.3525 -0.1254
  434SOL    HW2 1444   2.897   2.548   1.136 -0.4039  0.4594 -1.3337
  435SOL     OW 1445   0.235   1.146   2.982 -0.0123 -0.2183 -0.1073
  435SOL    HW1 1446   0.317   1.132   2.936  0.2671  0.5901  0.1239
  435SOL    HW2 1447   0.261   1.175   3.069 -0.5393  0.1539 -0.0664
  436SOL     OW 1448   1.660   2.705   1.290  0.5870  0.0758 -0.0915
  436SOL    HW1 1449   1.588   2.648   1.317  1.2935 -0.4255  0.7636
  436SOL    HW2 1450   1.739   2.660   1.320  1.1194  2.7287  3.0578
  437SOL     OW 1451   2.182   1.740   2.743 -0.5115  0.3766  0.2036
  437SOL    HW1 1452   2.170   1.834   2.754  0.7832  0.5540  0.2971
  437SOL    HW2 1453   2.265   1.721   2.786  0.1465 -0.4924 -1.3323
  438SOL     OW 1454   3.428   0.989   2.340  0.1010  0.1800  0.6005
  438SOL    HW1 1455   3.509   0.974   2.292 -0.8621 -2.4929 -0.3798
  438SOL    HW2 1456   3.371   1.035   2.278 -0.1740 -0.7689  0.1249
  439SOL     OW 1457   1.552   2.282   0.982 -0.0278  0.3643 -0.0176
  439SOL    HW1 1458   1.627   2.330   0.946 -0.3106  2.7684  2.2679
  439SOL    HW2 1459   1.535   2.324   1.066 -2.4717 -1.6889  0.6420
  440SOL     OW 1460   0.225   3.027   1.763 -0.0603 -0.4188 -0.3503
  440SOL    HW1 1461   0.129   3.028   1.764 -0.1380 -2.6984 -0.7948
  440SOL    HW2 1462   0.248   2.938   1.737  2.2138 -0.5607  1.8006
  441SOL     OW 1463   3.619   2.659   2.873 -0.2972  0.0974 -0.6467
  441SOL    HW1 1464   3.710   2.683   2.853 -0.2854  0.1883 -0.4870
  441SOL    HW2 1465   3.585   2.624   2.791 -0.0180 -0.2386 -0.6208
  442SOL     OW 1466   0.646   1.155   1.241 -0.2873 -0.4770  0.0981
  442SOL    HW1 1467   0.643   1.169   1.335 -2.5299  1.4971 -0.1823
  442SOL    HW2 1468   0.739   1.163   1.219  0.2169 -0.4663  2.0529
  443SOL     OW 1469   1.451   1.193   1.958 -0.1609 -0.3365  0.1374
  443SOL    HW1 1470   1.495   1.267   2.001 -2.4547  3.4467 -3.2036
  443SOL    HW2 1471   1.463   1.210   1.865 -3.7355 -2.1756 -0.8471
  444SOL     OW 1472   0.915   2.597   1.656  0.5289  0.6732  0.4392
  444SOL    HW1 1473   0.857   2.576   1.729  0.5094  0.7680  0.4501
  444SOL    HW2 1474   0.985   2.531   1.661 -2.0369 -2.6345 -2.4315
  445SOL     OW 1475   1.131   3.121   0.994  0.5033 -0.0328 -0.0632
  445SOL    HW1 1476   1.197   3.058   1.021  0.3728 -0.4287 -0.6615
  445SOL    HW2 1477   1.090   3.082   0.917 -0.1955  0.3659  0.0960
  446SOL     OW 1478   0.668   1.054   1.921  0.3219 -0.0153 -0.3885
  446SOL    HW1 1479   0.646   0.976   1.972  0.0477 -0.6376 -1.4371
  446SOL    HW2 1480   0.640   1.127   1.976 -2.9534 -0.7159 -0.9456
  447SOL     OW 1481   1.954   1.689   3.014 -0.3514  0.1996  0.1961
  447SOL    HW1 1482   1.919   1.600   3.007  1.3242 -0.7127  2.2334
  447SOL    HW2 1483   1.938   1.714   3.105  1.0844  1.1311  0.2286
  448SOL     OW 1484   0.703   1.366   0.552 -0.0467  1.0667 -0.4265
  448SOL    HW1 1485   0.736   1.444   0.506  1.2465  0.7856 -0.0267
  448SOL    HW2 1486   0.635   1.400   0.609  1.7456  2.2812  1.1342
  449SOL     OW 1487   2.545   3.062   1.634 -0.3470  0.4715  0.4037
  449SOL    HW1 1488   2.521   3.041   1.724 -1.8155 -0.9612 -0.2653
  449SOL    HW2 1489   2.485   3.010   1.580  0.1615  1.6489 -1.4134
  450SOL     OW 1490   2.347   1.450   0.757 -0.4843  0.1790 -0.6002
  450SOL    HW1 1491   2.357   1.376   0.697  2.8171  1.3392 -1.7580
  450SOL    HW2 1492   2.307   1.519   0.704 -0.2345  0.3153 -0.6133
  451SOL     OW 1493   0.087   2.375   2.320 -0.0690 -0.5801 -0.6599
  451SOL    HW1 1494   0.150   2.310   2.351 -0.3416 -0.9013 -0.7709
  451SOL    HW2 1495   0.012   2.365   2.380 -0.8095 -1.5502 -1.6925
  452SOL     OW 1496   0.897   0.141   3.726  0.4556  0.0090  0.3372
  452SOL    HW1 1497   0.849   0.063   3.755  0.1457  0.5809  1.4095
  452SOL    HW2 1498   0.830   0.199   3.691  0.8477 -0.7535 -1.8116
  453SOL     OW 1499   3.321   3.092   0.427  0.1165  0.3366  0.3475
  453SOL    HW1 1500   3.297   3.077   0.518 -0.7696 -1.2877 -0.1122
  453SOL    HW2 1501   3.253   3.048   0.376  1.4535 -0.1799 -1.0748
  454SOL     OW 1502   2.838   0.869   3.723 -0.0489  1.2573  0.5879
  454SOL    HW1 1503   2.834   0.949   3.670  0.2135  0.1890 -1.1078
  454SOL    HW2 1504   2.930   0.845   3.723 -0.3512 -0.0114 -0.4618
  455SOL     OW 1505   1.750   2.261   0.714 -0.5274  0.2912 -0.3899
  455SOL    HW1 1506   1.726   2.308   0.634 -1.9934  0.1985 -0.0277
  455SOL    HW2 1507   1.781   2.329   0.774 -2.0249  0.7439 -0.0952
  456SOL     OW 1508   3.413   0.809   2.900 -0.2262 -0.4220  0.5195
  456SOL    HW1 1509   3.435   0.789   2.809  0.4645 -0.1117  0.6080
  456SOL    HW2 1510   3.355   0.738   2.927  0.0702 -0.8600  0.0230
  457SOL     OW 1511   0.427   0.966   1.703  0.0731 -0.0872 -0.4198
  457SOL    HW1 1512   0.479   0.927   1.773  0.0191  0.2054 -0.2102
  457SOL    HW2 1513   0.472   0.942   1.623  1.1784  1.0926 -0.1808
  458SOL     OW 1514   2.658   2.093   2.444  0.0306 -0.4102 -0.2804
  458SOL    HW1 1515   2.753   2.094   2.458  0.8789  2.9693 -4.0756
  458SOL    HW2 1516   2.628   2.178   2.475 -1.3774 -0.6346 -0.9335
  459SOL     OW 1517   2.456   2.445   1.340 -0.6163  0.2366 -0.4606
  459SOL    HW1 1518   2.503   2.520   1.377  1.2106 -1.8619  1.8484
  459SOL    HW2 1519   2.383   2.431   1.400 -0.2979 -0.4619 -0.2224
  460SOL     OW 1520   2.540   0.614   0.974  0.6942 -0.6833  0.0907
  460SOL    HW1 1521   2.515   0.584   1.062  2.4457 -1.4363  0.3770
  460SOL    HW2 1522   2.602   0.686   0.990 -0.7735  0.7983 -0.5783
  461SOL     OW 1523   2.242   2.662   1.244 -0.4779  0.0759 -0.1220
  461SOL    HW1 1524   2.271   2.662   1.335  1.6447 -1.2738 -0.7202
  461SOL    HW2 1525   2.229   2.755   1.224 -1.0415  0.3927  1.5512
  462SOL     OW 1526   1.654   2.301   2.102  0.2896 -0.3233  0.9243
  462SOL    HW1 1527   1.566   2.267   2.122  0.1255 -1.0461 -0.8194
  462SOL    HW2 1528   1.713   2.250   2.158 -0.3854  0.2301  2.1802
  463SOL     OW 1529   3.653   3.317   0.673 -0.1782  0.1499 -0.3491
  463SOL    HW1 1530   3.738   3.361   0.672 -0.3765  0.6989  1.9423
  463SOL    HW2 1531   3.674   3.226   0.654  0.9167  0.3031  0.0303
  464SOL     OW 1532   3.672   3.695   1.763 -0.0202  0.2404  0.4989
  464SOL    HW1 1533   3.712   3.628   1.820  2.0427  2.1548  1.4540
  464SOL    HW2 1534   3.584   3.708   1.800  0.0217 -0.9831  1.0961
  465SOL     OW 1535   0.022   2.224   1.855  0.1691  0.4612  0.4727
  465SOL    HW1 1536   0.039   2.318   1.847  1.4853  0.1818 -0.1367
  465SOL    HW2 1537  -0.032   2.217   1.934 -1.6478  1.9050 -0.5352
  466SOL     OW 1538   3.131   1.881   0.054  0.1912 -0.6312 -0.6569
  466SOL    HW1 1539   3.048   1.854   0.094  0.4717 -0.0347  0.3787
  466SOL    HW2 1540   3.111   1.892  -0.039 -0.5967 -1.6379 -0.6240
  467SOL     OW 1541   2.417   0.713   2.458  0.2934  0.1571 -0.1151
  467SOL    HW1 1542   2.489   0.714   2.521  0.6385  1.7460 -0.4884
  467SOL    HW2 1543   2.339   0.695   2.511  0.6086  1.2344  0.7613
  468SOL     OW 1544   0.799   1.013   0.602  0.4895 -0.5087  0.9290
  468SOL    HW1 1545   0.752   0.977   0.527 -0.1295 -0.0732  1.0922
  468SOL    HW2 1546   0.862   1.074   0.564  0.5604 -0.7023  0.7355
  469SOL     OW 1547   3.175   0.135   2.923 -0.2512 -0.5573 -1.4994
  469SOL    HW1 1548   3.164   0.170   3.011  0.9852  0.7952 -1.8381
  469SOL    HW2 1549   3.163   0.041   2.932  0.2151 -0.4813  0.1779
  470SOL     OW 1550   0.724   1.776   1.557  0.3144  0.2954  0.1847
  470SOL    HW1 1551   0.673   1.836   1.612  0.1538  0.2521  0.0866
  470SOL    HW2 1552   0.664   1.704   1.539  0.3352  0.3505 -0.1151
  471SOL     OW 1553   2.223   2.731   3.072  0.0360  0.0332  0.0477
  471SOL    HW1 1554   2.129   2.724   3.056 -0.0254 -1.3470  0.8255
  471SOL    HW2 1555   2.230   2.739   3.167  0.6470  1.9158 -0.1177
  472SOL     OW 1556   3.241   2.993   1.951 -0.3657  0.7319 -0.6547
  472SOL    HW1 1557   3.197   3.070   1.987  1.3423  0.8390  1.3945
  472SOL    HW2 1558   3.175   2.923   1.956 -0.6102  1.0662  1.5485
  473SOL     OW 1559   0.372   0.805   3.351 -0.2267 -0.5910  0.1264
  473SOL    HW1 1560   0.374   0.776   3.260  1.2058  0.6203 -0.2599
  473SOL    HW2 1561   0.289   0.773   3.384  0.0965 -2.8070 -1.0175
  474SOL     OW 1562   1.161   1.751   1.867 -0.6624 -0.0620 -0.4651
  474SOL    HW1 1563   1.162   1.835   1.820 -1.2520  0.0796 -0.2259
  474SOL    HW2 1564   1.085   1.704   1.832 -1.3397  0.2019  0.6044
  475SOL     OW 1565   2.488   0.949   3.072  0.2625 -0.1963 -0.7051
  475SOL    HW1 1566   2.469   1.000   3.151  1.1098  0.9415 -1.2230
  475SOL    HW2 1567   2.499   0.859   3.104  0.9360  0.3029  0.5238
  476SOL     OW 1568   1.396   2.181   2.152 -0.0232 -0.1674 -0.1373
  476SOL    HW1 1569   1.348   2.236   2.214  0.0425 -1.6087  1.2498
  476SOL    HW2 1570   1.414   2.100   2.200  1.5008 -0.6904 -1.5039
  477SOL     OW 1571   0.822   3.174   0.052 -0.3955  1.0925 -0.1886
  477SOL    HW1 1572   0.897   3.115   0.049 -0.9905  0.3559 -1.0897
  477SOL    HW2 1573   0.819   3.214  -0.035 -2.6682 -1.0157 -1.1914
  478SOL     OW 1574   1.617   3.660   1.235 -0.1158 -0.1155  0.2170
  478SOL    HW1 1575   1.607   3.607   1.156 -1.4176 -0.5254  0.6327
  478SOL    HW2 1576   1.555   3.732   1.222  2.3746  2.0207 -0.8488
  479SOL     OW 1577   3.484   2.506   1.355  0.3031  0.6390  0.0261
  479SOL    HW1 1578   3.550   2.480   1.420  0.3066  1.5461  0.4063
  479SOL    HW2 1579   3.487   2.602   1.356 -0.5062  0.6727 -0.4894
  480SOL     OW 1580   1.958   1.809   3.281  0.2440 -0.1510  0.0803
  480SOL    HW1 1581   1.875   1.777   3.316  0.9379 -0.4719  1.5150
  480SOL    HW2 1582   2.025   1.758   3.328  1.2616  0.3892 -0.7399
  481SOL     OW 1583   3.223   0.207   1.934  0.6034 -0.6034 -0.0076
  481SOL    HW1 1584   3.153   0.253   1.888  0.9770  0.3665  0.3726
  481SOL    HW2 1585   3.178   0.139   1.984  0.0378 -0.6327 -0.5471
  482SOL     OW 1586   0.705   3.338   1.496 -0.1397  0.1630 -0.2552
  482SOL    HW1 1587   0.766   3.340   1.570 -1.2617 -1.1870  0.7651
  482SOL    HW2 1588   0.619   3.346   1.537 -0.7659 -0.1846 -1.4674
  483SOL     OW 1589   2.824   1.901   3.375  0.8143 -0.2080 -0.4405
  483SOL    HW1 1590   2.751   1.841   3.390  0.9357 -0.0373  1.0426
  483SOL    HW2 1591   2.872   1.863   3.301 -0.2943 -0.7718 -0.8886
  484SOL     OW 1592   0.907   2.091   1.654  0.3677  0.3367  0.2369
  484SOL    HW1 1593   0.928   2.146   1.578  1.5995  0.5768  0.7316
  484SOL    HW2 1594   0.853   2.147   1.709 -0.6432  0.1188 -0.4996
  485SOL     OW 1595   2.716   1.309   2.629 -0.7007 -0.2692 -0.5414
  485SOL    HW1 1596   2.749   1.220   2.616 -0.8435 -0.7114  1.6816
  485SOL    HW2 1597   2.621   1.301   2.623 -0.7173 -0.2805 -0.2612
  486SOL     OW 1598   0.534   1.400   3.403  0.1272  0.1783 -0.0536
  486SOL    HW1 1599   0.578   1.317   3.418 -1.8449 -1.2695 -1.6272
  486SOL    HW2 1600   0.581   1.463   3.458  1.8738 -1.8880  0.9701
  487SOL     OW 1601   3.490   1.027   0.811 -0.0953 -0.3245  0.4064
  487SOL    HW1 1602   3.528   0.965   0.872  1.6599  1.7941  1.6300
  487SOL    HW2 1603   3.546   1.022   0.733  0.0539 -0.2727  0.5098
  488SOL     OW 1604   2.797   0.050   3.665 -0.0830  0.9512 -0.4902
  488SOL    HW1 1605   2.744   0.109   3.719  0.7132  1.9049 -0.7184
  488SOL    HW2 1606   2.886   0.084   3.673  0.1385  0.7684 -1.9278
  489SOL     OW 1607   2.646   1.778   0.959 -0.4900 -0.0795  0.1161
  489SOL    HW1 1608   2.677   1.687   0.962 -0.3076 -0.1390 -2.1557
  489SOL    HW2 1609   2.701   1.820   0.892 -1.7655  1.2399 -0.1501
  490SOL     OW 1610   2.873   1.799   0.144  0.1198 -0.0548 -0.1012
  490SOL    HW1 1611   2.829   1.845   0.215  0.8066 -0.2919  0.4965
  490SOL    HW2 1612   2.884   1.709   0.176 -2.9924 -1.2693 -2.0099
  491SOL     OW 1613   0.995   2.465   3.576 -0.0325  0.1033  0.3473
  491SOL    HW1 1614   1.071   2.523   3.581 -0.7210  1.0467  0.2131
  491SOL    HW2 1615   1.020   2.387   3.626  1.4124 -0.0601 -0.5745
  492SOL     OW 1616   3.623   1.492   2.764  0.1095 -0.0811  0.0507
  492SOL    HW1 1617   3.693   1.427   2.769  0.4573  0.3154  0.3435
  492SOL    HW2 1618   3.665   1.570   2.726 -0.2593  0.0305 -0.1298
  493SOL     OW 1619   2.043   0.146   3.018 -0.1142  0.7141  0.2092
  493SOL    HW1 1620   1.970   0.091   3.048  1.0479 -0.6867  0.5590
  493SOL    HW2 1621   2.041   0.222   3.076 -1.0129  0.4730  0.5122
  494SOL     OW 1622   1.136   1.415   2.918 -0.0106 -0.3955  0.4821
  494SOL    HW1 1623   1.177   1.449   2.997  2.6513 -1.1260 -0.4801
  494SOL    HW2 1624   1.199   1.432   2.848 -1.2448 -1.8205 -1.0962
  495SOL     OW 1625   0.029   0.397   1.271 -0.1882 -0.9710  0.2907
  495SOL    HW1 1626   0.056   0.315   1.313 -1.1813 -1.7940 -0.6216
  495SOL    HW2 1627  -0.029   0.370   1.201  0.0315  0.4878 -0.4979
  496SOL     OW 1628   3.644   1.599   1.980  0.2086 -0.5331  0.5944
  496SOL    HW1 1629   3.608   1.526   2.030 -1.3507  0.0440  0.3747
  496SOL    HW2 1630   3.717   1.561   1.931 -0.4145 -1.8975  0.6789
  497SOL     OW 1631   1.795   3.234   1.317  0.2709  0.2232  0.1768
  497SOL    HW1 1632   1.744   3.206   1.241 -0.9391  0.5393  0.8399
  497SOL    HW2 1633   1.886   3.235   1.287 -0.0279 -1.0859 -0.8304
  498SOL     OW 1634   3.447   3.700   0.757  0.0476  0.1295  0.2165
  498SOL    HW1 1635   3.516   3.684   0.693 -1.4013 -0.3103 -1.3110
  498SOL    HW2 1636   3.426   3.613   0.792  1.3444  0.4475  1.9206
  499SOL     OW 1637   0.551   1.751   2.731 -0.8821  0.5536 -0.9435
  499SOL    HW1 1638   0.512   1.664   2.717 -0.7205  0.0740  1.2056
  499SOL    HW2 1639   0.629   1.751   2.676 -0.2784 -1.1114 -0.1587
  500SOL     OW 1640   0.173   3.698   0.761  0.7381 -0.3059  0.4154
  500SOL    HW1 1641   0.244   3.633   0.755  0.5418 -0.4568 -0.3169
  500SOL    HW2 1642   0.204   3.761   0.826  2.0636  0.2485 -0.6892
  501SOL     OW 1643   3.219   1.638   1.624 -0.6326  0.1629 -0.4560
  501SOL    HW1 1644   3.196   1.713   1.679  1.0364 -0.1551  0.7712
  501SOL    HW2 1645   3.150   1.574   1.641 -0.3671  0.2248  1.0344
  502SOL     OW 1646   2.036   0.577   3.687  0.0632 -0.4119 -0.3225
  502SOL    HW1 1647   2.045   0.545   3.776 -1.7919  0.4705  0.2242
  502SOL    HW2 1648   2.028   0.498   3.634  0.3073 -0.9293  0.3984
  503SOL     OW 1649   2.674   0.744   0.710 -0.1212  0.4485  0.3641
  503SOL    HW1 1650   2.768   0.749   0.728  0.0899  1.5178 -0.8114
  503SOL    HW2 1651   2.639   0.686   0.777  1.4798 -0.5203  0.4172
  504SOL     OW 1652   2.716   2.659   0.274 -0.4249 -0.3110  0.5878
  504SOL    HW1 1653   2.653   2.727   0.299  0.0603 -0.0605  1.1363
  504SOL    HW2 1654   2.774   2.703   0.211 -1.3355 -0.7981 -0.6471
  505SOL     OW 1655   1.715   3.089   1.095  0.0833  0.4870 -0.1858
  505SOL    HW1 1656   1.681   3.028   1.160  1.8177  0.4272  0.7252
  505SOL    HW2 1657   1.640   3.143   1.070 -0.8298 -0.1358  1.1292
  506SOL     OW 1658   1.512   2.093   1.830 -0.4359  0.2100  0.4587
  506SOL    HW1 1659   1.581   2.134   1.777  1.7855 -1.4128  1.8840
  506SOL    HW2 1660   1.459   2.045   1.767  0.0774  1.0630 -0.6533
  507SOL     OW 1661   1.026   1.302   0.736 -0.2611 -0.3435 -0.1199
  507SOL    HW1 1662   1.112   1.321   0.697  0.5731 -0.2955  1.6142
  507SOL    HW2 1663   1.020   1.364   0.809 -1.3354 -1.0241  0.3836
  508SOL     OW 1664   3.667   0.686   1.597 -0.0238  0.2785  0.0557
  508SOL    HW1 1665   3.669   0.780   1.616 -0.6735  0.3847 -0.3715
  508SOL    HW2 1666   3.648   0.681   1.503  2.0366 -0.2469 -0.3939
  509SOL     OW 1667   0.399   3.324   3.169  0.2770 -0.8786  0.3118
  509SOL    HW1 1668   0.365   3.388   3.107  0.2894 -2.1981 -1.1162
  509SOL    HW2 1669   0.471   3.281   3.123  1.1931 -0.9749  1.7555
  510SOL     OW 1670   0.983   0.324   2.233 -0.3655  0.2738  0.1021
  510SOL    HW1 1671   0.992   0.418   2.218  0.0358  0.1353 -0.5818
  510SOL    HW2 1672   0.891   0.311   2.253 -0.5295  0.7457 -0.3390
  511SOL     OW 1673   0.806   2.600   2.522 -0.0516 -0.7964  0.2848
  511SOL    HW1 1674   0.765   2.607   2.608  0.2165 -0.0743  0.3592
  511SOL    HW2 1675   0.900   2.612   2.539 -0.1421  0.9447 -0.2895
  512SOL     OW 1676   0.315   1.860   0.673  0.7939  0.7973  0.5502
  512SOL    HW1 1677   0.254   1.808   0.621  0.1145 -0.2698  2.3404
  512SOL    HW2 1678   0.292   1.951   0.652 -0.6966  0.4115  0.3798
  513SOL     OW 1679   1.147   0.978   2.929  0.4694  0.4933  0.4670
  513SOL    HW1 1680   1.093   0.942   2.999 -0.4195  1.3069  0.2161
  513SOL    HW2 1681   1.093   1.047   2.890  0.4324 -0.7246 -1.8108
  514SOL     OW 1682   1.041   0.840   0.900 -0.0721  0.4337  0.2014
  514SOL    HW1 1683   1.040   0.922   0.949  2.7686 -0.0565  1.2744
  514SOL    HW2 1684   0.989   0.779   0.953 -2.6309  1.5346 -0.8509
  515SOL     OW 1685   1.358   1.091   3.070  0.1566  0.3960 -0.0503
  515SOL    HW1 1686   1.311   1.024   3.021  1.2241  0.1883 -0.8127
  515SOL    HW2 1687   1.367   1.164   3.008  2.0687 -0.1073 -0.4242
  516SOL     OW 1688   0.872   0.779   2.952 -0.1510 -0.0662  0.0072
  516SOL    HW1 1689   0.814   0.742   2.886  0.1460  2.3411 -1.7090
  516SOL    HW2 1690   0.939   0.711   2.966 -0.6529 -0.9374 -1.5776
  517SOL     OW 1691   2.321   0.438  -0.017  0.1529  0.3276  0.3140
  517SOL    HW1 1692   2.246   0.442   0.042  1.6379  1.1468  2.2494
  517SOL    HW2 1693   2.365   0.522  -0.006  1.0624  0.0809 -1.1840
  518SOL     OW 1694   0.916   1.921   3.736 -0.7253  0.1285 -0.2082
  518SOL    HW1 1695   0.838   1.890   3.782 -1.8694  1.0665 -1.4308
  518SOL    HW2 1696   0.883   1.957   3.653  0.8737  1.5630 -0.2940
  519SOL     OW 1697   3.478   2.706   2.394  0.1409 -0.0466 -0.2200
  519SOL    HW1 1698   3.469   2.759   2.314 -1.9812 -0.2184 -0.1567
  519SOL    HW2 1699   3.417   2.746   2.456  0.0910 -1.2772  0.5581
  520SOL     OW 1700   2.783   1.546   0.986  0.0857  0.3601 -0.1032
  520SOL    HW1 1701   2.862   1.506   1.022 -0.3705 -1.0266 -0.5797
  520SOL    HW2 1702   2.799   1.553   0.892 -1.3047 -2.4089 -0.6453
  521SOL     OW 1703   0.068   2.351   0.917 -0.3299 -0.0388 -0.6333
  521SOL    HW1 1704  -0.010   2.402   0.895 -3.1970 -3.2362  1.1724
  521SOL    HW2 1705   0.053   2.265   0.878  0.5591 -1.8162  2.5708
  522SOL     OW 1706   0.141   0.293   2.357  0.1026 -0.0356 -0.8163
  522SOL    HW1 1707   0.226   0.262   2.324  0.0240 -1.6678  0.3727
  522SOL    HW2 1708   0.163   0.338   2.439 -0.1553 -0.2958 -0.6039
  523SOL     OW 1709   2.305   1.660   0.203 -0.2629 -0.3918 -0.4149
  523SOL    HW1 1710   2.256   1.606   0.265 -1.0668  0.6013 -0.1652
  523SOL    HW2 1711   2.397   1.648   0.228 -0.4621 -1.3186 -0.1096
  524SOL     OW 1712   0.396   0.794   2.326 -0.0670  0.1138 -0.3035
  524SOL    HW1 1713   0.426   0.743   2.401 -1.5134  1.9364  1.6343
  524SOL    HW2 1714   0.326   0.849   2.361  0.4558  2.4093 -2.5661
  525SOL     OW 1715   1.841   3.597   1.372  0.1387 -0.7190 -0.0412
  525SOL    HW1 1716   1.748   3.607   1.354 -0.1687 -0.1369  1.7090
  525SOL    HW2 1717   1.872   3.533   1.307 -1.6725 -1.6523 -0.0354
  526SOL     OW 1718   0.587   1.785   3.028  0.1651  0.1193  0.7540
  526SOL    HW1 1719   0.671   1.748   3.056  2.0198  3.0453 -0.4627
  526SOL    HW2 1720   0.583   1.766   2.934  1.3201  2.9452  0.0234
  527SOL     OW 1721   3.432   3.150   0.026  0.2246  0.6863  0.0746
  527SOL    HW1 1722   3.436   3.190   0.113  0.0425  1.5847 -0.3127
  527SOL    HW2 1723   3.481   3.211  -0.030  1.5944 -0.6117 -0.1985
  528SOL     OW 1724   1.922   2.953   1.717  0.1616 -0.0843 -0.0812
  528SOL    HW1 1725   1.945   3.041   1.747  0.7411 -0.2149 -0.1381
  528SOL    HW2 1726   1.871   2.968   1.637  1.5949  0.1621 -0.9763
  529SOL     OW 1727   1.487   3.211   1.041 -0.1708 -0.1714  0.0967
  529SOL    HW1 1728   1.425   3.165   1.098  2.3426 -3.5221  0.4394
  529SOL    HW2 1729   1.439   3.227   0.960 -1.6095 -2.4377  0.4162
  530SOL     OW 1730   2.955   0.133   0.952  0.3842 -0.8276 -0.3781
  530SOL    HW1 1731   2.913   0.057   0.911  0.7318 -0.1186 -2.1433
  530SOL    HW2 1732   2.897   0.206   0.932  2.0214  0.0378 -2.2205
  531SOL     OW 1733   1.948   1.338   3.160  0.5233 -0.4084  0.2673
  531SOL    HW1 1734   1.959   1.377   3.074 -0.8941 -0.4532  0.0400
  531SOL    HW2 1735   2.012   1.267   3.163  1.5854  0.5087 -0.1678
  532SOL     OW 1736   3.552   2.579   2.615  0.0372  0.6490 -0.0506
  532SOL    HW1 1737   3.625   2.519   2.607  0.6641  1.3481  0.2603
  532SOL    HW2 1738   3.536   2.611   2.526 -0.2475  0.0973 -0.2027
  533SOL     OW 1739   2.408   1.414   3.696  0.6104 -0.5165  0.3412
  533SOL    HW1 1740   2.490   1.407   3.746  0.0085  0.6541  1.5588
  533SOL    HW2 1741   2.358   1.482   3.741  0.1026  0.7560 -1.9821
  534SOL     OW 1742   0.551   2.509   0.530 -0.1563  0.2076 -0.1665
  534SOL    HW1 1743   0.636   2.466   0.538 -0.0695  0.3510 -0.3274
  534SOL    HW2 1744   0.569   2.602   0.538 -0.4945  0.1662  1.4351
  535SOL     OW 1745   1.934   3.681   0.957  0.0362 -0.0427 -0.3419
  535SOL    HW1 1746   1.972   3.598   0.929 -0.9508 -0.1070 -1.5805
  535SOL    HW2 1747   1.841   3.674   0.932  0.0789  1.6753 -1.0916
  536SOL     OW 1748   2.563   3.532   0.112  0.1458  0.5101 -0.0096
  536SOL    HW1 1749   2.603   3.546   0.027  1.3990  2.1289  0.7721
  536SOL    HW2 1750   2.627   3.567   0.174 -2.3029  2.9542  1.3536
  537SOL     OW 1751   1.486   3.622   0.376 -0.3143 -0.4307 -0.1514
  537SOL    HW1 1752   1.527   3.684   0.436  1.3024 -1.5815  0.0128
  537SOL    HW2 1753   1.402   3.661   0.354 -0.1108  0.9393  1.3408
  538SOL     OW 1754   2.947   3.043   1.861  0.6301  0.5446 -0.2327
  538SOL    HW1 1755   2.953   3.040   1.957  0.7883 -2.5703 -0.2216
  538SOL    HW2 1756   2.854   3.031   1.842  0.5644  1.4000 -0.4997
  539SOL     OW 1757   2.982   1.034   1.952  0.2718 -0.1937  0.1100
  539SOL    HW1 1758   2.962   0.941   1.963 -0.8955  0.0435  0.1060
  539SOL    HW2 1759   2.965   1.072   2.038  0.1800  0.1092 -0.0435
  540SOL     OW 1760   0.423   2.712   1.905  0.0150  0.1148 -0.2674
  540SOL    HW1 1761   0.434   2.796   1.949  3.2208  0.5677 -1.6293
  540SOL    HW2 1762   0.403   2.650   1.975 -0.0671  1.6098  1.0782
  541SOL     OW 1763   2.218   1.582   0.996 -0.1278  0.1367 -0.2939
  541SOL    HW1 1764   2.281   1.650   0.971 -0.9447  2.5657  3.5319
  541SOL    HW2 1765   2.146   1.592   0.933  0.5742  1.6243 -0.9066
  542SOL     OW 1766   2.776   1.702   3.113 -0.0940 -0.2171 -0.1607
  542SOL    HW1 1767   2.829   1.707   3.033 -2.0971  0.3700 -1.5096
  542SOL    HW2 1768   2.711   1.771   3.103 -1.1511 -0.9323  1.4125
  543SOL     OW 1769   2.248   2.611   0.647  0.1489 -0.0098 -1.5751
  543SOL    HW1 1770   2.157   2.596   0.673 -0.0034 -1.4123 -2.8215
  543SOL    HW2 1771   2.246   2.694   0.600 -0.2056  0.6869 -0.3877
  544SOL     OW 1772   1.315   3.179   3.662 -0.0790 -0.2833 -0.1082
  544SOL    HW1 1773   1.248   3.164   3.729  0.9053  0.3369  1.0365
  544SOL    HW2 1774   1.271   3.232   3.595 -0.3705  1.3169  1.2942
  545SOL     OW 1775   1.586   2.406  -0.013 -0.0603  0.9105  0.3981
  545SOL    HW1 1776   1.610   2.390   0.079  0.6110  0.9618  0.2429
  545SOL    HW2 1777   1.607   2.324  -0.058 -1.6818  0.4046  0.5102
  546SOL     OW 1778   0.084   2.194   2.844  0.0552 -0.7217 -0.3718
  546SOL    HW1 1779   0.054   2.132   2.777 -0.8214  0.7791 -1.4547
  546SOL    HW2 1780   0.055   2.156   2.927 -2.2749 -0.8314 -1.1545
  547SOL     OW 1781   2.673   3.237   0.060 -0.0126 -0.6148 -0.5609
  547SOL    HW1 1782   2.713   3.323   0.075 -0.4664 -0.1204 -2.0039
  547SOL    HW2 1783   2.723   3.199  -0.012 -0.1405 -1.3421 -0.2740
  548SOL     OW 1784   0.044   2.656   3.125  0.1369 -0.0012  0.6147
  548SOL    HW1 1785   0.016   2.640   3.215 -0.0934  0.6838  0.6687
  548SOL    HW2 1786   0.039   2.570   3.083 -1.0200 -0.0864  0.9084
  549SOL     OW 1787  -0.013   2.814   2.046  0.3013  0.0320  0.3312
  549SOL    HW1 1788   0.029   2.897   2.066 -1.7508  0.8349  1.6266
  549SOL    HW2 1789   0.015   2.755   2.116  1.0495 -0.1612 -0.1057
  550SOL     OW 1790   1.364   1.372   0.365  0.2195  0.1930 -0.2151
  550SOL    HW1 1791   1.378   1.396   0.273  1.6589 -0.8195 -0.2966
  550SOL    HW2 1792   1.336   1.280   0.361  1.2367 -0.1628  0.3794
  551SOL     OW 1793   2.620   3.496   0.647 -0.3084 -0.0868 -0.3013
  551SOL    HW1 1794   2.617   3.411   0.603 -2.2854  0.1726 -0.7690
  551SOL    HW2 1795   2.698   3.539   0.613 -0.0489 -1.1790 -1.1112
  552SOL     OW 1796   1.669   2.754   2.578 -0.8720  0.6551  0.5555
  552SOL    HW1 1797   1.710   2.746   2.664 -1.0945  0.2640  0.6311
  552SOL    HW2 1798   1.595   2.693   2.582 -0.9092  0.6696  0.1039
  553SOL     OW 1799   0.541   3.138   2.195  0.7650  0.5309 -0.5043
  553SOL    HW1 1800   0.497   3.183   2.267  1.2158 -0.8862  0.7046
  553SOL    HW2 1801   0.634   3.144   2.217  0.8360 -1.0880 -0.2126
  554SOL     OW 1802   1.406   1.165   0.169 -0.1774 -0.5355 -0.1702
  554SOL    HW1 1803   1.323   1.124   0.192 -0.6020  1.1919  1.6831
  554SOL    HW2 1804   1.388   1.214   0.089 -0.9858 -0.1728  0.2154
  555SOL     OW 1805   3.420   2.080   3.157 -0.1722  0.2359  0.0834
  555SOL    HW1 1806   3.392   2.138   3.087  0.1055 -0.4280 -0.5872
  555SOL    HW2 1807   3.470   2.137   3.216 -0.1154  0.7280 -0.4303
  556SOL     OW 1808   0.974   1.802   1.409  0.1266 -0.5787  0.6397
  556SOL    HW1 1809   0.980   1.712   1.378  1.0986 -0.3119  0.0140
  556SOL    HW2 1810   0.887   1.809   1.448 -0.1573 -1.6282  0.2005
  557SOL     OW 1811   2.240   0.403   3.148 -0.2997 -0.4131 -0.1051
  557SOL    HW1 1812   2.194   0.389   3.065  1.2075 -0.2119 -1.0061
  557SOL    HW2 1813   2.221   0.494   3.170 -2.3647 -1.0056  0.8795
  558SOL     OW 1814   0.345  -0.001   2.961  0.1074  0.1632 -0.2347
  558SOL    HW1 1815   0.253   0.026   2.952 -0.7296 -2.6093 -1.1106
  558SOL    HW2 1816   0.373   0.039   3.043 -1.9357  0.9759  0.1487
  559SOL     OW 1817   1.808   0.070   0.631  0.0379 -0.3226 -0.4603
  559SOL    HW1 1818   1.775   0.160   0.635  0.2429 -0.2362  4.3798
  559SOL    HW2 1819   1.732   0.018   0.607 -1.7609  0.6640  2.6357
  560SOL     OW 1820   0.289   2.734   1.061 -0.0803 -0.5086 -0.1741
  560SOL    HW1 1821   0.294   2.659   1.002  0.2421 -0.2243 -0.5100
  560SOL    HW2 1822   0.219   2.788   1.026  0.8936  0.2472 -0.9879
  561SOL     OW 1823   0.876   0.344   3.284 -0.4138  0.2073  0.4714
  561SOL    HW1 1824   0.881   0.439   3.275 -2.3769  0.4179  1.1312
  561SOL    HW2 1825   0.794   0.329   3.330  0.3474 -1.7703  1.2773
  562SOL     OW 1826   2.411   0.895   2.694 -0.0046 -0.8019  0.3837
  562SOL    HW1 1827   2.420   0.989   2.685  1.7652 -0.8606  1.0589
  562SOL    HW2 1828   2.336   0.883   2.753  0.6163  0.2562  1.4321
  563SOL     OW 1829   1.473   1.533   0.993 -1.0985  0.6685 -0.2906
  563SOL    HW1 1830   1.504   1.548   1.082 -0.6123  1.0440 -0.5239
  563SOL    HW2 1831   1.527   1.590   0.938 -0.1976 -0.8547 -1.0319
  564SOL     OW 1832   2.006   1.127   3.674 -0.5195 -0.1757  0.3367
  564SOL    HW1 1833   1.996   1.031   3.674 -1.9824 -0.0760 -1.1875
  564SOL    HW2 1834   1.916   1.160   3.676 -0.1363  1.1222 -1.4818
  565SOL     OW 1835   0.917   0.323   2.964 -0.4186  0.5648 -0.5163
  565SOL    HW1 1836   1.008   0.297   2.978  0.6658  3.5857 -1.3116
  565SOL    HW2 1837   0.868   0.270   3.027  2.0023 -0.3735  0.7310
  566SOL     OW 1838   3.391   1.222   3.441 -0.1992  0.8617 -0.0117
  566SOL    HW1 1839   3.423   1.194   3.355 -0.5059 -2.5241  0.8231
  566SOL    HW2 1840   3.298   1.238   3.428 -0.4193 -0.4453 -0.2092
  567SOL     OW 1841   0.579   2.980   2.409  0.3325  0.3491  0.2901
  567SOL    HW1 1842   0.646   2.999   2.343  1.0365 -0.4592  0.7662
  567SOL    HW2 1843   0.575   2.885   2.413  0.1752  0.3923  1.3021
  568SOL     OW 1844   3.531   0.646   1.348 -0.0898 -0.5839 -0.1207
  568SOL    HW1 1845   3.495   0.731   1.323 -1.3945 -1.3650 -1.0763
  568SOL    HW2 1846   3.564   0.609   1.266  0.6485 -0.9289  0.3246
  569SOL     OW 1847   2.659   3.204   2.791  0.4939  0.1068  0.0694
  569SOL    HW1 1848   2.701   3.138   2.846  0.9138  1.1689  1.0597
  569SOL    HW2 1849   2.570   3.172   2.778  0.7552 -0.7530  0.3603
  570SOL     OW 1850   0.139   0.093   1.628  0.4579 -0.8852  0.1040
  570SOL    HW1 1851   0.077   0.076   1.699 -0.3207  2.0954  0.2907
  570SOL    HW2 1852   0.225   0.092   1.670 -0.1118  3.0888  1.8122
  571SOL     OW 1853   0.663   1.361   1.005 -0.9865 -0.1019 -0.6790
  571SOL    HW1 1854   0.728   1.311   1.055 -3.4017 -0.3327  2.5887
  571SOL    HW2 1855   0.709   1.441   0.979  1.1150 -1.1156 -0.2534
  572SOL     OW 1856   2.280   3.536   2.245  0.2353 -0.0168  0.0038
  572SOL    HW1 1857   2.216   3.598   2.278  0.3484  1.1062 -1.7903
  572SOL    HW2 1858   2.365   3.576   2.266  0.3727 -0.7595  0.9813
  573SOL     OW 1859   2.806   3.017   0.313  0.2461  0.2789  0.4770
  573SOL    HW1 1860   2.719   2.995   0.279  0.4222 -0.1984  0.3257
  573SOL    HW2 1861   2.799   3.001   0.407  0.1200  0.4101  0.4902
  574SOL     OW 1862   0.028   2.778   0.276 -0.1929 -0.0808 -0.1965
  574SOL    HW1 1863  -0.026   2.702   0.253  2.2239 -3.1536  3.1061
  574SOL    HW2 1864   0.074   2.800   0.195 -0.4676 -2.6341 -1.1458
  575SOL     OW 1865   3.420   0.104   0.392 -0.3204  0.4109 -0.1289
  575SOL    HW1 1866   3.347   0.044   0.407  0.2526 -0.2171  0.1481
  575SOL    HW2 1867   3.453   0.125   0.479 -0.7371  1.4280 -0.1918
  576SOL     OW 1868   2.097   2.391   2.137  0.2114 -0.1674 -0.2340
  576SOL    HW1 1869   2.151   2.316   2.111 -1.8248 -1.5492 -0.6524
  576SOL    HW2 1870   2.022   2.389   2.078 -0.5445  1.4403  0.6059
  577SOL     OW 1871   2.345   1.405   2.284 -0.3195 -0.4621  0.0625
  577SOL    HW1 1872   2.327   1.311   2.287  0.2662 -0.5662  1.5763
  577SOL    HW2 1873   2.301   1.440   2.362 -2.2969  0.8907 -1.5744
  578SOL     OW 1874   3.305   2.877   2.826 -0.6459  0.1640  0.1712
  578SOL    HW1 1875   3.228   2.895   2.879 -0.8048 -0.1899  0.0629
  578SOL    HW2 1876   3.377   2.921   2.872 -1.0125  1.0641 -0.0768
  579SOL     OW 1877   0.439   3.380   1.610 -0.2139 -0.0782 -0.3673
  579SOL    HW1 1878   0.367   3.324   1.580 -0.1954  0.2479 -1.0287
  579SOL    HW2 1879   0.404   3.469   1.605  0.1959  0.0728 -0.5787
  580SOL     OW 1880   2.852  -0.038   1.279 -0.0756 -0.2408 -0.3423
  580SOL    HW1 1881   2.788   0.029   1.254 -0.0749 -0.0477  0.1728
  580SOL    HW2 1882   2.917   0.009   1.333 -0.0830 -0.6546  0.0312
  581SOL     OW 1883   2.850   0.982   1.540 -0.0606 -0.5438 -0.0275
  581SOL    HW1 1884   2.807   1.051   1.591 -0.4180 -0.2162 -0.7545
  581SOL    HW2 1885   2.909   0.939   1.602 -0.7350 -0.3786  0.7493
  582SOL     OW 1886   0.382   3.267   0.447  0.0147 -0.4805 -0.0672
  582SOL    HW1 1887   0.330   3.210   0.390  0.1717 -0.7995  0.1047
  582SOL    HW2 1888   0.473   3.242   0.428  0.1952  0.9915 -1.3569
  583SOL     OW 1889   1.984   2.927   3.453  0.1451  0.2719  0.2048
  583SOL    HW1 1890   1.985   3.003   3.512  1.0554  1.1302 -0.8955
  583SOL    HW2 1891   1.891   2.908   3.442 -0.0964 -1.2503  3.5434
  584SOL     OW 1892   1.202   1.627   2.258  0.1930 -0.3317  0.0851
  584SOL    HW1 1893   1.127   1.642   2.201  0.2871 -2.0110 -0.5303
  584SOL    HW2 1894   1.276   1.667   2.212 -0.4991  2.9593  1.5259
  585SOL     OW 1895   2.786   3.336   1.953  0.0707  0.0042 -0.8922
  585SOL    HW1 1896   2.736   3.346   1.872  0.2790  1.0451 -0.9123
  585SOL    HW2 1897   2.721   3.314   2.020  0.1539 -3.3721 -1.7282
  586SOL     OW 1898   0.742   3.118   1.707  0.0868  0.4251  0.0835
  586SOL    HW1 1899   0.684   3.076   1.644  1.0403 -0.2237 -0.3916
  586SOL    HW2 1900   0.687   3.133   1.784 -0.2176 -2.1073  0.4388
  587SOL     OW 1901   3.501   1.908   1.712 -0.4310  0.4754  0.5162
  587SOL    HW1 1902   3.447   1.912   1.633 -0.4861  1.0469  0.5772
  587SOL    HW2 1903   3.577   1.856   1.687 -1.4307 -1.1456  0.6878
  588SOL     OW 1904   2.183   1.128   0.380 -0.4474 -0.3958 -0.0572
  588SOL    HW1 1905   2.227   1.144   0.296  1.5717 -0.6966  0.8706
  588SOL    HW2 1906   2.099   1.090   0.357  1.1107 -2.9940 -1.9479
  589SOL     OW 1907   0.067   1.016   3.702  0.5255  0.2479  0.6101
  589SOL    HW1 1908   0.041   1.105   3.679 -0.6817  0.0119  0.9767
  589SOL    HW2 1909   0.075   1.017   3.798  0.7684  0.0292  0.5940
  590SOL     OW 1910   0.769   0.469   1.712  0.3350  0.3756 -0.2591
  590SOL    HW1 1911   0.714   0.412   1.765 -0.7674  1.9828  0.3789
  590SOL    HW2 1912   0.828   0.511   1.774 -1.3948  2.7708 -0.0598
  591SOL     OW 1913   2.233   1.229   0.077  0.2905 -0.1725 -0.1665
  591SOL    HW1 1914   2.283   1.277   0.011 -0.7881 -0.8771 -1.5513
  591SOL    HW2 1915   2.155   1.198   0.030 -0.7001 -0.3752  1.5419
  592SOL     OW 1916   2.501   2.392   2.655 -0.3012  0.8129  0.0610
  592SOL    HW1 1917   2.468   2.438   2.578 -0.3927  0.5585 -0.0551
  592SOL    HW2 1918   2.423   2.352   2.694 -0.3479  1.4519  0.6380
  593SOL     OW 1919   3.347   0.552   0.025  0.0460  0.7109 -0.0433
  593SOL    HW1 1920   3.435   0.577  -0.003 -0.2757  0.7429 -1.0807
  593SOL    HW2 1921   3.322   0.619   0.090  0.7072  0.8062  0.1188
  594SOL     OW 1922   2.412   1.744   2.893 -0.5422 -0.4996 -0.8814
  594SOL    HW1 1923   2.490   1.689   2.881  0.2906  1.0835 -3.3414
  594SOL    HW2 1924   2.445   1.824   2.934 -1.5090 -1.1229  1.2576
  595SOL     OW 1925   0.628   0.421   2.585  0.3991  0.6622 -0.0691
  595SOL    HW1 1926   0.588   0.355   2.528  0.4152  1.1816 -0.6971
  595SOL    HW2 1927   0.704   0.378   2.623 -1.0287 -0.5430  1.5993
  596SOL     OW 1928   3.328   1.500   1.070 -0.5136  0.4150  0.0270
  596SOL    HW1 1929   3.309   1.532   0.982 -0.0741 -2.1013 -1.0726
  596SOL    HW2 1930   3.369   1.414   1.056  0.1161  0.2021  2.6768
  597SOL     OW 1931   1.959   3.237   1.778 -0.4958  0.0813  0.0311
  597SOL    HW1 1932   2.039   3.283   1.752  0.7692 -0.6181  2.3905
  597SOL    HW2 1933   1.888   3.285   1.733  1.2022  0.4656 -2.4704
  598SOL     OW 1934   3.593   0.019   3.677  0.5264  0.4476  0.1518
  598SOL    HW1 1935   3.598   0.099   3.625 -0.8143  0.1194 -0.5312
  598SOL    HW2 1936   3.565   0.047   3.763  3.6963  1.1205  1.1108
  599SOL     OW 1937   1.371   2.581   1.179 -0.8067 -0.0378  0.2888
  599SOL    HW1 1938   1.388   2.490   1.205 -2.1580 -1.0515 -2.0609
  599SOL    HW2 1939   1.327   2.620   1.255  1.6670 -0.6409  2.1503
  600SOL     OW 1940   3.317   1.290   0.397 -0.2074 -0.3105 -0.8774
  600SOL    HW1 1941   3.262   1.289   0.318  1.1869 -0.9673 -1.8783
  600SOL    HW2 1942   3.366   1.208   0.393  3.3403  1.6334 -1.9029
  601SOL     OW 1943   3.068   0.846   1.096  0.0072 -0.5443  0.4012
  601SOL    HW1 1944   3.003   0.806   1.154 -1.1090  0.5016 -0.0845
  601SOL    HW2 1945   3.096   0.925   1.143  1.2741 -1.2044  0.7980
  602SOL     OW 1946   1.644   1.595   1.617 -0.5152 -0.2207  0.0554
  602SOL    HW1 1947   1.684   1.512   1.595  1.0978  0.3390  0.7182
  602SOL    HW2 1948   1.561   1.572   1.660 -0.9196 -1.4055 -1.3157
  603SOL     OW 1949   0.698   1.502   2.716  0.0176 -0.1396  0.7024
  603SOL    HW1 1950   0.636   1.451   2.768 -1.3840  0.4820 -0.2861
  603SOL    HW2 1951   0.741   1.560   2.779 -2.0540  1.0213  1.1623
  604SOL     OW 1952   1.552   1.762   3.572 -0.2509 -0.8158 -0.3799
  604SOL    HW1 1953   1.476   1.706   3.587  0.1754 -0.8592  1.9732
  604SOL    HW2 1954   1.519   1.832   3.516 -1.2967 -2.2753 -1.6833
  605SOL     OW 1955   1.674   1.050   0.234  0.4233  0.4160 -0.3643
  605SOL    HW1 1956   1.659   1.044   0.328  1.0339  0.7071 -0.2433
  605SOL    HW2 1957   1.629   1.130   0.208  0.2724  0.3471 -0.3172
  606SOL     OW 1958   1.594   1.572   1.250  0.5197 -0.4528  0.0242
  606SOL    HW1 1959   1.665   1.636   1.244 -0.5702  1.1015  2.2291
  606SOL    HW2 1960   1.625   1.506   1.311  0.7992 -0.8519 -0.5416
  607SOL     OW 1961   0.402   1.205   0.394  0.1125  0.3035  0.1765
  607SOL    HW1 1962   0.378   1.266   0.463 -1.4098 -0.2189  0.1318
  607SOL    HW2 1963   0.418   1.122   0.440  0.7061  0.3576  0.0737
  608SOL     OW 1964   3.276   3.230   3.392  0.2341 -0.4178 -0.1849
  608SOL    HW1 1965   3.293   3.300   3.454  1.3964 -1.8492  1.2093
  608SOL    HW2 1966   3.196   3.188   3.423  0.5949 -0.8836  0.1356
  609SOL     OW 1967   3.500   0.406   0.523 -0.3472 -0.0024  0.2796
  609SOL    HW1 1968   3.419   0.390   0.571 -0.3574 -0.8172 -0.0017
  609SOL    HW2 1969   3.569   0.368   0.578  0.0982  2.1912  1.3814
  610SOL     OW 1970   3.498   1.239   1.600  0.8554  0.1709 -0.1703
  610SOL    HW1 1971   3.505   1.233   1.505 -0.1927 -0.7935 -0.2109
  610SOL    HW2 1972   3.486   1.332   1.617 -2.3581  0.0827 -1.2973
  611SOL     OW 1973   1.446   0.193   1.855 -0.3490  0.2331 -0.2050
  611SOL    HW1 1974   1.449   0.140   1.935  0.4989 -1.1134 -1.0759
  611SOL    HW2 1975   1.405   0.136   1.790 -1.1371  1.3513 -0.7035
  612SOL     OW 1976   3.337   2.475   2.788  0.0036 -0.5144 -0.0636
  612SOL    HW1 1977   3.267   2.539   2.797 -0.6947 -1.3990  1.0808
  612SOL    HW2 1978   3.407   2.522   2.744 -0.8644  0.7344 -0.1581
  613SOL     OW 1979   2.914   2.963   1.274 -0.6971  0.0874  0.4626
  613SOL    HW1 1980   2.827   3.002   1.271  0.1897  2.1127 -2.2239
  613SOL    HW2 1981   2.972   3.035   1.299  0.4848 -0.5570 -0.3171
  614SOL     OW 1982   2.333   0.077   2.343  0.9429 -0.0987  0.1461
  614SOL    HW1 1983   2.346   0.170   2.364  0.4693  0.5685 -2.2590
  614SOL    HW2 1984   2.242   0.060   2.367  0.4884  0.5729 -1.0307
  615SOL     OW 1985   2.426   3.272   3.649  0.0657 -0.4397  0.0774
  615SOL    HW1 1986   2.503   3.291   3.702  0.8492 -0.0662 -1.1416
  615SOL    HW2 1987   2.371   3.350   3.657 -0.5558 -0.9941  1.5246
  616SOL     OW 1988   0.534   0.337   3.145  0.0932 -0.1607  0.1121
  616SOL    HW1 1989   0.553   0.248   3.115 -0.0063 -0.3853  0.6812
  616SOL    HW2 1990   0.606   0.390   3.112  0.1111 -0.4426 -0.3007
  617SOL     OW 1991   2.582   1.072   1.640 -0.4844 -0.0783  1.1573
  617SOL    HW1 1992   2.621   1.048   1.724  0.3822  0.9761  1.0706
  617SOL    HW2 1993   2.488   1.076   1.659 -0.2572  0.7209  2.2404
  618SOL     OW 1994   1.510   0.672   1.700 -0.1082 -0.3705 -0.4962
  618SOL    HW1 1995   1.489   0.739   1.765 -0.2847 -0.2349 -0.6926
  618SOL    HW2 1996   1.536   0.596   1.751  1.1866  0.1969 -0.2667
  619SOL     OW 1997   3.190   1.832   2.741 -0.3229  0.1886 -0.4232
  619SOL    HW1 1998   3.266   1.877   2.777 -0.4510 -1.4919  2.2641
  619SOL    HW2 1999   3.128   1.902   2.722  0.3457  1.3450  1.3654
  620SOL     OW 2000   2.999   0.372   2.942 -0.8712 -0.7657  1.0525
  620SOL    HW1 2001   3.014   0.283   2.910  1.2532 -0.4999  1.1479
  620SOL    HW2 2002   2.949   0.415   2.873 -2.1877 -2.0798  1.1314
  621SOL     OW 2003   3.242   0.196   1.402 -0.4332 -0.4973  0.5716
  621SOL    HW1 2004   3.316   0.244   1.366 -2.0665 -0.5107 -3.3175
  621SOL    HW2 2005   3.235   0.227   1.493  2.1696  2.1102  0.0333
  622SOL     OW 2006   1.267   3.406   2.008 -0.1399  0.3795 -1.1734
  622SOL    HW1 2007   1.311   3.491   2.017 -1.0843  0.7698  0.1721
  622SOL    HW2 2008   1.303   3.353   2.079 -0.9116  0.3042 -0.8265
  623SOL     OW 2009   1.291   3.455   0.564 -0.1968  0.1958  0.2730
  623SOL    HW1 2010   1.349   3.490   0.496  0.7701  1.4502  1.6900
  623SOL    HW2 2011   1.260   3.532   0.611 -3.2869 -0.4053 -0.5612
  624SOL     OW 2012   3.043   1.983   3.524  0.2952  0.4092 -0.2418
  624SOL    HW1 2013   3.106   2.003   3.455  1.1156  0.5182  0.5312
  624SOL    HW2 2014   2.968   1.945   3.477  2.1966 -2.9090 -0.9470
  625SOL     OW 2015   3.738   2.976   3.618 -0.1269  0.0378  0.4326
  625SOL    HW1 2016   3.692   2.915   3.562 -1.0309  0.4860  0.6620
  625SOL    HW2 2017   3.731   3.060   3.573 -0.2249  0.2605  0.8566
  626SOL     OW 2018   0.725   2.860   1.962  0.0507  0.3959 -0.3142
  626SOL    HW1 2019   0.630   2.857   1.972  0.0327  0.0848 -0.5607
  626SOL    HW2 2020   0.757   2.897   2.044 -0.3561  1.5275 -0.6507
  627SOL     OW 2021   1.730   1.266   2.750 -0.3291  0.2418  0.0990
  627SOL    HW1 2022   1.760   1.183   2.714 -0.7882 -1.0601  2.4778
  627SOL    HW2 2023   1.662   1.296   2.690 -0.1837 -1.1182 -0.7786
  628SOL     OW 2024   0.838   0.956   2.161 -0.3900  0.4656 -0.4089
  628SOL    HW1 2025   0.888   0.949   2.243  0.8736 -2.8131 -1.3007
  628SOL    HW2 2026   0.747   0.942   2.187  0.0809 -1.3017  0.3995
  629SOL     OW 2027   3.383   0.463   3.162 -0.1422 -0.0485  0.8199
  629SOL    HW1 2028   3.364   0.490   3.072 -3.2395 -1.6521  0.8643
  629SOL    HW2 2029   3.354   0.536   3.215 -0.7502 -0.1333  0.6100
  630SOL     OW 2030   1.737   2.942   0.745 -0.0857 -0.2877  0.6289
  630SOL    HW1 2031   1.733   2.893   0.663  0.1429  0.5090  0.1252
  630SOL    HW2 2032   1.656   2.919   0.791 -1.8703  1.7292 -1.2768
  631SOL     OW 2033   0.991   0.646   2.592 -0.9247 -0.6292  0.8474
  631SOL    HW1 2034   0.961   0.556   2.600 -2.4191 -0.3298 -0.7301
  631SOL    HW2 2035   0.920   0.691   2.545  0.8654  0.7760 -0.6587
  632SOL     OW 2036   0.582   3.157   0.821 -0.5876  0.1574 -0.4708
  632SOL    HW1 2037   0.593   3.105   0.900 -0.5754 -0.0930 -0.6379
  632SOL    HW2 2038   0.620   3.104   0.751  1.5672  1.3767 -0.2878
  633SOL     OW 2039   2.432   1.184   2.698  0.6778  0.2526 -0.2990
  633SOL    HW1 2040   2.457   1.197   2.790  0.3353  1.6225 -0.3780
  633SOL    HW2 2041   2.347   1.227   2.690 -0.1243 -1.3620 -0.8639
  634SOL     OW 2042   2.033   0.989   2.781 -0.0936 -0.2564  0.2090
  634SOL    HW1 2043   2.119   0.991   2.822 -0.0821 -0.8557  0.2156
  634SOL    HW2 2044   1.978   0.941   2.842  0.0194 -1.5199 -0.6488
  635SOL     OW 2045   0.170   2.146   2.459  0.0212  0.5725 -0.6014
  635SOL    HW1 2046   0.218   2.122   2.539 -0.9914  1.1779  0.2081
  635SOL    HW2 2047   0.231   2.125   2.388  1.4395  1.1629  0.3837
  636SOL     OW 2048   1.838   1.917   2.887  0.3990  0.0374  0.5216
  636SOL    HW1 2049   1.861   1.920   2.794 -1.0064  0.3676  0.1690
  636SOL    HW2 2050   1.910   1.868   2.928  1.0047 -0.1611 -0.7360
  637SOL     OW 2051  -0.015   3.689   0.590  0.1277  0.1933  0.5913
  637SOL    HW1 2052   0.017   3.715   0.504  0.1655 -0.7615  0.3055
  637SOL    HW2 2053   0.059   3.703   0.649 -0.0314  1.2548  0.5580
  638SOL     OW 2054   3.243   2.601   1.218 -0.2343  0.2316 -0.0102
  638SOL    HW1 2055   3.329   2.569   1.244  0.2072  0.3882 -1.2038
  638SOL    HW2 2056   3.195   2.522   1.192 -0.3633  0.1683  0.4276
  639SOL     OW 2057   2.423   1.499   3.115 -0.0387 -0.0765 -0.1321
  639SOL    HW1 2058   2.355   1.565   3.106 -0.5479 -0.5332  0.3010
  639SOL    HW2 2059   2.495   1.545   3.158  0.6067  0.8591 -2.1192
  640SOL     OW 2060   1.735   1.697   3.358  0.7614 -0.5012  0.3518
  640SOL    HW1 2061   1.696   1.734   3.437  0.2134  0.5674 -0.4020
  640SOL    HW2 2062   1.664   1.645   3.319  0.0569  1.3804 -0.9799
  641SOL     OW 2063   2.400   2.263   3.674  0.6788 -0.1055  0.4024
  641SOL    HW1 2064   2.340   2.193   3.650  1.6405 -0.0925 -2.3772
  641SOL    HW2 2065   2.485   2.235   3.640  1.3713  1.7747  0.4693
  642SOL     OW 2066   0.346   2.117   1.343  0.0174  0.5648  0.3635
  642SOL    HW1 2067   0.345   2.178   1.417  1.7194  3.2408 -1.6197
  642SOL    HW2 2068   0.285   2.155   1.280 -2.2569 -2.2585  0.6746
  643SOL     OW 2069   1.266   2.651   0.197  0.2264 -0.0183  0.3620
  643SOL    HW1 2070   1.209   2.575   0.188 -0.3637  0.2761  1.4557
  643SOL    HW2 2071   1.213   2.716   0.242  1.5772  0.0512  1.9505
  644SOL     OW 2072   1.325   3.108   0.472 -0.4343  0.5193  0.0583
  644SOL    HW1 2073   1.376   3.029   0.488 -0.2666  0.6606  0.2232
  644SOL    HW2 2074   1.388   3.171   0.435 -0.2427  1.0387  1.2173
  645SOL     OW 2075   1.958   1.299   0.189 -0.0737  0.0411 -0.8955
  645SOL    HW1 2076   1.987   1.217   0.149  3.5841  1.0721 -0.6597
  645SOL    HW2 2077   1.901   1.270   0.261  1.2907 -2.3294 -0.6502
  646SOL     OW 2078  -0.014   0.505   2.209 -0.0166 -0.1635  0.3437
  646SOL    HW1 2079  -0.039   0.419   2.245 -0.3112 -1.3307 -2.3812
  646SOL    HW2 2080   0.082   0.504   2.211 -0.0311 -0.0695  1.3610
  647SOL     OW 2081   3.411   3.428   0.802 -0.2740 -0.4650  0.1306
  647SOL    HW1 2082   3.458   3.352   0.769  0.5748 -0.6701  1.6953
  647SOL    HW2 2083   3.338   3.391   0.852 -1.1888 -0.1835 -0.9707
  648SOL     OW 2084   2.237   2.573   2.701 -0.2383  0.1478  0.8106
  648SOL    HW1 2085   2.195   2.494   2.665 -0.9424 -0.4870  2.8975
  648SOL    HW2 2086   2.230   2.637   2.630 -1.1483 -1.1531 -0.3505
  649SOL     OW 2087   2.561   1.492   1.244  0.0748 -0.2405  0.0858
  649SOL    HW1 2088   2.578   1.553   1.172  0.4720  0.5037  0.7832
  649SOL    HW2 2089   2.467   1.476   1.241  0.1381 -0.4434 -0.7772
  650SOL     OW 2090   2.028   2.479   1.170  0.7042 -0.4257 -0.2915
  650SOL    HW1 2091   2.080   2.558   1.157  1.0951 -0.6270  0.0085
  650SOL    HW2 2092   2.093   2.409   1.181  0.3737 -0.9682 -1.5807
  651SOL     OW 2093   0.730   2.003   1.876 -0.4435  0.2344  0.1108
  651SOL    HW1 2094   0.810   2.010   1.928 -1.0199  1.0230  0.9386
  651SOL    HW2 2095   0.759   2.011   1.785  0.4674 -0.0359  0.3723
  652SOL     OW 2096   1.418   0.788   2.147  0.3476 -0.2334  0.3559
  652SOL    HW1 2097   1.367   0.707   2.153 -0.5937  0.2282 -0.9383
  652SOL    HW2 2098   1.373   0.849   2.206  2.2251 -1.1655  2.9217
  653SOL     OW 2099   2.251   3.035   3.617 -0.5123  0.1686  0.1098
  653SOL    HW1 2100   2.324   3.095   3.601 -0.2516 -0.1050  0.2650
  653SOL    HW2 2101   2.233   3.042   3.711 -0.3274 -0.1694  0.1719
  654SOL     OW 2102   1.090   2.829   3.594 -0.8120  0.8048  0.1913
  654SOL    HW1 2103   1.101   2.923   3.609 -0.1912  0.7736 -0.0057
  654SOL    HW2 2104   1.000   2.819   3.563 -0.1487  1.6523 -2.2368
  655SOL     OW 2105   2.229   2.374   2.907  0.7232  0.2855 -0.5474
  655SOL    HW1 2106   2.236   2.448   2.846  0.9919 -0.7869 -1.8847
  655SOL    HW2 2107   2.312   2.375   2.955 -0.4529  2.6435  1.7087
  656SOL     OW 2108   3.320   0.298   2.729 -0.2673 -0.1424 -0.8990
  656SOL    HW1 2109   3.275   0.237   2.788 -1.0590  0.4639 -0.8657
  656SOL    HW2 2110   3.367   0.241   2.668  0.5328 -0.7872  0.2598
  657SOL     OW 2111   2.301   3.476   0.045  0.6926 -0.2392 -0.2131
  657SOL    HW1 2112   2.390   3.501   0.067  0.6369 -1.1723  1.1817
  657SOL    HW2 2113   2.246   3.517   0.112  0.2241 -0.8704 -0.1936
  658SOL     OW 2114   0.662   1.925   0.126  0.3555  0.5294  0.3424
  658SOL    HW1 2115   0.607   2.004   0.119  0.0237  0.1889 -1.3286
  658SOL    HW2 2116   0.660   1.903   0.220 -0.4074  1.8923  0.6783
  659SOL     OW 2117   0.600   2.742   1.201 -0.3281 -0.5093 -0.5465
  659SOL    HW1 2118   0.504   2.750   1.199 -0.5174 -0.6698  2.6961
  659SOL    HW2 2119   0.617   2.669   1.260  1.8302 -0.3613 -0.9012
  660SOL     OW 2120   3.094   2.990   1.624 -0.5373 -0.3545 -0.2633
  660SOL    HW1 2121   3.033   2.985   1.697  0.1982 -1.1795  0.3223
  660SOL    HW2 2122   3.108   3.083   1.611 -0.7281 -0.1893  0.6169
  661SOL     OW 2123   3.229   1.134   0.739 -0.1065  0.0675 -0.5381
  661SOL    HW1 2124   3.314   1.097   0.762 -0.2309 -0.4488 -0.8766
  661SOL    HW2 2125   3.218   1.112   0.646 -0.9716 -0.6048 -0.2989
  662SOL     OW 2126   0.618   2.767   0.464  0.2482 -0.1932  0.2633
  662SOL    HW1 2127   0.526   2.790   0.451 -0.7079 -2.7060  1.8196
  662SOL    HW2 2128   0.667   2.833   0.414 -2.2647  2.4621  1.0482
  663SOL     OW 2129   0.149   2.974   0.105 -0.0038 -0.2260 -0.1845
  663SOL    HW1 2130   0.105   3.036   0.163  0.4256 -0.0707 -0.0203
  663SOL    HW2 2131   0.099   2.977   0.023  0.8113  1.3594 -0.6555
  664SOL     OW 2132   0.278   1.459   1.603 -0.2490  0.1804 -0.1660
  664SOL    HW1 2133   0.212   1.477   1.537  0.6558 -2.4373 -1.9317
  664SOL    HW2 2134   0.343   1.528   1.592  0.1642 -0.4980 -2.4927
  665SOL     OW 2135   2.241   3.176   2.699  0.4762 -0.0970 -0.6917
  665SOL    HW1 2136   2.145   3.176   2.696 -0.0092  3.1307  3.9001
  665SOL    HW2 2137   2.266   3.266   2.677  1.8041  0.6447  3.0836
  666SOL     OW 2138   3.271   0.105   3.693  0.2618  0.5801  0.0905
  666SOL    HW1 2139   3.351   0.053   3.689 -0.4497 -0.5670  0.3363
  666SOL    HW2 2140   3.293   0.188   3.650  1.1039 -0.3459 -1.3128
  667SOL     OW 2141   3.282   1.679   0.832 -0.2980 -0.3995  0.7644
  667SOL    HW1 2142   3.278   1.615   0.762  0.1459  1.0018 -0.6003
  667SOL    HW2 2143   3.375   1.698   0.842 -0.5317  1.3311 -0.1081
  668SOL     OW 2144   0.455   0.502   1.759  0.1618  0.0773 -0.2843
  668SOL    HW1 2145   0.444   0.408   1.771 -2.7258  0.6054  2.3095
  668SOL    HW2 2146   0.372   0.533   1.723  0.1426  1.9206  1.1742
  669SOL     OW 2147   2.277   1.058   3.544  0.0330 -0.1002 -0.0409
  669SOL    HW1 2148   2.258   1.146   3.513  2.7379  0.4289 -0.4100
  669SOL    HW2 2149   2.204   1.005   3.512 -0.1440  1.4435 -2.4431
  670SOL     OW 2150   3.571   1.369   2.117  0.3780  0.0874  0.0159
  670SOL    HW1 2151   3.499   1.404   2.169 -0.6466 -1.1452 -0.5436
  670SOL    HW2 2152   3.607   1.298   2.170  1.2899  0.7776  0.3496
  671SOL     OW 2153   0.704   3.744   1.157 -0.4416  0.1997  0.1138
  671SOL    HW1 2154   0.744   3.732   1.243 -0.5250 -0.0585  0.1166
  671SOL    HW2 2155   0.749   3.682   1.100 -0.6893  0.0596  0.0684
  672SOL     OW 2156   2.951   0.426   0.998 -0.3200 -0.3367  0.1206
  672SOL    HW1 2157   3.034   0.389   0.971  1.0769  2.4926  0.1842
  672SOL    HW2 2158   2.947   0.413   1.093  1.2372  1.5057  0.5013
  673SOL     OW 2159   2.487   1.748   2.592 -1.2231  0.3552  1.0553
  673SOL    HW1 2160   2.532   1.776   2.672 -0.2493  0.3610  0.5212
  673SOL    HW2 2161   2.482   1.827   2.539 -1.4338  0.2431  0.9095
  674SOL     OW 2162   2.599   1.546   2.861 -0.4724 -0.3488 -0.3351
  674SOL    HW1 2163   2.657   1.520   2.933 -0.2669  1.9834  0.3957
  674SOL    HW2 2164   2.658   1.557   2.786 -0.0047  1.5089  0.2759
  675SOL     OW 2165   2.685   0.665   3.698  0.1959  0.2571  0.1744
  675SOL    HW1 2166   2.605   0.718   3.694  0.6106  0.9699  1.0552
  675SOL    HW2 2167   2.756   0.728   3.711  0.6774 -0.5100  1.4304
  676SOL     OW 2168   0.321   2.159   2.965 -0.8012 -0.1489  0.2960
  676SOL    HW1 2169   0.371   2.098   2.909  0.4125 -0.3874  1.5700
  676SOL    HW2 2170   0.243   2.179   2.914  0.1056 -0.5716 -1.3671
  677SOL     OW 2171   0.129   0.365   0.920 -0.3474 -0.0462  0.4148
  677SOL    HW1 2172   0.195   0.422   0.959 -1.5460  0.0080  2.5071
  677SOL    HW2 2173   0.153   0.277   0.948 -0.5832 -0.1451  0.3108
  678SOL     OW 2174   2.506   1.768   0.467 -0.2032 -0.1917  0.5857
  678SOL    HW1 2175   2.431   1.754   0.525 -0.2195 -0.6723  0.4530
  678SOL    HW2 2176   2.512   1.687   0.416  2.6272 -1.7687  3.1034
  679SOL     OW 2177   1.282   1.816   0.386  0.9248  0.4152  0.4325
  679SOL    HW1 2178   1.223   1.817   0.462  0.5400 -0.1709  0.1475
  679SOL    HW2 2179   1.224   1.813   0.310  1.3154  0.6672  0.1154
  680SOL     OW 2180   0.680   1.820   1.158 -0.4627 -0.4822 -0.6340
  680SOL    HW1 2181   0.742   1.890   1.180  0.2097 -0.7049 -1.6977
  680SOL    HW2 2182   0.626   1.858   1.088 -1.0513 -0.5395 -0.2149
  681SOL     OW 2183   1.809   3.347   3.403  0.2225  0.2861  0.7521
  681SOL    HW1 2184   1.894   3.390   3.395  0.0788  0.4398 -0.1236
  681SOL    HW2 2185   1.761   3.399   3.468  0.1554  1.3017 -0.0804
  682SOL     OW 2186   3.401   2.004   3.523 -0.6742  0.0710 -0.1169
  682SOL    HW1 2187   3.377   2.032   3.435  1.1319  0.5074 -0.5256
  682SOL    HW2 2188   3.408   1.908   3.517 -0.0888  0.1370 -0.6015
  683SOL     OW 2189   1.263   0.140   3.239  0.4705  0.1172 -0.6374
  683SOL    HW1 2190   1.239   0.177   3.154  0.0680 -1.6588 -1.3383
  683SOL    HW2 2191   1.193   0.169   3.298 -0.1118  0.0508 -1.2828
  684SOL     OW 2192   0.291   3.570   3.444 -0.3871  0.4853  0.3201
  684SOL    HW1 2193   0.322   3.554   3.533  0.4184  1.0921  0.1606
  684SOL    HW2 2194   0.362   3.537   3.388 -0.6887  0.5198 -0.0843
  685SOL     OW 2195   2.677   0.539   1.302  0.6413 -0.0577 -0.1577
  685SOL    HW1 2196   2.707   0.454   1.270  0.7618 -0.2803  0.5439
  685SOL    HW2 2197   2.593   0.552   1.257  0.9359 -0.2332 -0.7799
  686SOL     OW 2198   0.452   1.438   1.209 -0.8707  0.3677  0.1516
  686SOL    HW1 2199   0.495   1.389   1.139  0.0856  0.3829  0.7204
  686SOL    HW2 2200   0.420   1.371   1.269 -0.8890  0.3897  0.1664
  687SOL     OW 2201   3.088   2.706   3.590 -0.4233  0.8465  0.1803
  687SOL    HW1 2202   3.137   2.764   3.532 -1.6464  1.4481 -0.2834
  687SOL    HW2 2203   3.022   2.666   3.533 -0.1900 -0.3150  0.6923
  688SOL     OW 2204   2.918   0.161   2.791  0.2665 -0.3698  0.0597
  688SOL    HW1 2205   2.848   0.186   2.731  1.0893  2.1188  0.0238
  688SOL    HW2 2206   2.981   0.114   2.736  0.2289  0.4258 -0.6742
  689SOL     OW 2207   3.524   2.106   2.218  0.7331  0.2303  0.1442
  689SOL    HW1 2208   3.520   2.106   2.122 -0.5888 -0.4511  0.1847
  689SOL    HW2 2209   3.602   2.054   2.238 -1.1437 -3.1809 -0.5653
  690SOL     OW 2210   3.009   2.328   1.515  0.3090 -0.3024 -0.2747
  690SOL    HW1 2211   2.929   2.361   1.555  0.5383  1.5429 -1.2203
  690SOL    HW2 2212   3.079   2.354   1.575  0.5160  1.3125 -1.1377
  691SOL     OW 2213   0.992   3.425   0.123 -0.3188  0.4102 -0.1719
  691SOL    HW1 2214   1.014   3.395   0.211 -1.1679  2.0103  0.6397
  691SOL    HW2 2215   0.947   3.351   0.083  1.5392 -0.9360  0.1032
  692SOL     OW 2216   0.169   0.846   1.578 -0.0959 -0.3097 -0.2653
  692SOL    HW1 2217   0.162   0.889   1.493 -0.5843 -1.1135 -0.6442
  692SOL    HW2 2218   0.234   0.897   1.625 -0.6592  0.8368 -0.6948
  693SOL     OW 2219   2.776   3.699   0.840 -0.4004 -0.0775 -0.4654
  693SOL    HW1 2220   2.782   3.630   0.906  1.3477 -0.2728 -0.7934
  693SOL    HW2 2221   2.716   3.663   0.774 -0.3933 -0.8178 -0.0806
  694SOL     OW 2222   2.399   0.518   1.899  0.2749  0.1659 -0.0306
  694SOL    HW1 2223   2.333   0.586   1.914 -0.0035 -0.1669  0.2341
  694SOL    HW2 2224   2.439   0.543   1.815  1.6006  1.8394  1.0223
  695SOL     OW 2225   1.684   1.317   0.328  0.1752  0.2145 -0.0940
  695SOL    HW1 2226   1.714   1.406   0.347 -1.0394  0.9944 -1.5591
  695SOL    HW2 2227   1.589   1.324   0.321  0.0729 -1.1545 -0.4665
  696SOL     OW 2228   0.273   1.573   2.057  1.2332 -0.4932 -0.1635
  696SOL    HW1 2229   0.247   1.665   2.055  0.0203 -0.8233 -0.0104
  696SOL    HW2 2230   0.279   1.552   2.151 -0.2358 -1.0281 -0.1642
  697SOL     OW 2231   2.313   3.001   3.035  0.6286  0.1376 -0.0041
  697SOL    HW1 2232   2.349   2.988   2.947  1.8924 -0.5388  0.5849
  697SOL    HW2 2233   2.269   2.919   3.056 -1.6906  1.0855 -0.8615
  698SOL     OW 2234   2.199   0.980   0.640 -0.1073  0.6672  0.0199
  698SOL    HW1 2235   2.229   0.928   0.715  1.8173 -0.4799 -1.4446
  698SOL    HW2 2236   2.164   1.060   0.679  0.0578 -0.2425  2.1741
  699SOL     OW 2237   3.353   3.340   1.941 -0.0601 -0.0630 -0.5294
  699SOL    HW1 2238   3.280   3.334   1.880 -0.6112 -0.6181  0.1757
  699SOL    HW2 2239   3.411   3.268   1.916 -1.3291 -1.6615  0.9325
  700SOL     OW 2240   1.438   1.417   3.382 -0.0540  0.1239  0.5775
  700SOL    HW1 2241   1.450   1.450   3.292  0.9961  0.5584  0.8613
  700SOL    HW2 2242   1.399   1.331   3.371  1.2494 -0.3837 -0.3726
  701SOL     OW 2243   2.074   2.132   2.850 -0.5684  0.2292  0.1173
  701SOL    HW1 2244   2.079   2.062   2.915  0.4750 -0.7982 -1.0393
  701SOL    HW2 2245   2.115   2.207   2.894  1.8098 -0.9368  0.0676
  702SOL     OW 2246   2.367   2.884   1.808  0.2266 -0.0791  0.7529
  702SOL    HW1 2247   2.340   2.888   1.900 -0.8654  0.0929  0.4417
  702SOL    HW2 2248   2.324   2.960   1.768  0.3860 -0.3701  0.0285
  703SOL     OW 2249   2.483   0.036   2.600 -0.2355 -0.4427 -0.5738
  703SOL    HW1 2250   2.443   0.028   2.513  1.4849 -0.1845 -1.4359
  703SOL    HW2 2251   2.466   0.126   2.627 -1.3217 -0.7072 -0.3406
  704SOL     OW 2252   0.302   1.268   0.633 -0.3783  0.5938  0.2009
  704SOL    HW1 2253   0.263   1.190   0.674  0.8678 -1.5882 -2.3946
  704SOL    HW2 2254   0.359   1.304   0.701  0.3627 -1.8461  1.0154
  705SOL     OW 2255   0.963   0.618   3.244  0.1940 -0.3546 -0.1729
  705SOL    HW1 2256   1.005   0.704   3.239 -1.1977  0.3341 -0.8208
  705SOL    HW2 2257   0.897   0.628   3.312  0.1909 -0.9843 -0.0858
  706SOL     OW 2258   3.135   0.628   1.448 -0.2704 -1.0143 -0.4161
  706SOL    HW1 2259   3.148   0.641   1.354  0.7466 -1.1118 -0.2978
  706SOL    HW2 2260   3.132   0.533   1.459  2.4886 -1.1346 -0.0248
  707SOL     OW 2261   3.058   0.803   0.699  0.2858 -0.2187 -0.1767
  707SOL    HW1 2262   2.995   0.818   0.628 -0.8944 -1.4421  0.5462
  707SOL    HW2 2263   3.019   0.731   0.750  0.0531  1.9138  2.8905
  708SOL     OW 2264   2.263   3.692   3.167  0.1171 -0.5521  0.7080
  708SOL    HW1 2265   2.331   3.626   3.182  1.4887  0.6789  0.1755
  708SOL    HW2 2266   2.289   3.766   3.222 -1.7522 -0.6370  1.8006
  709SOL     OW 2267   0.502   1.225   2.075 -0.3873  0.1400 -0.0094
  709SOL    HW1 2268   0.507   1.259   1.986  1.6953 -0.0150  0.0041
  709SOL    HW2 2269   0.520   1.301   2.130  1.0492 -0.3023  0.1519
  710SOL     OW 2270   0.604   3.219   3.022  0.2945 -0.0814  0.1039
  710SOL    HW1 2271   0.684   3.259   3.056 -0.6162  1.0303  1.0538
  710SOL    HW2 2272   0.631   3.133   2.992  1.5247 -0.4626  2.1150
  711SOL     OW 2273   3.107   1.502   3.747  0.6264 -0.0817  0.7100
  711SOL    HW1 2274   3.159   1.536   3.674 -0.5555 -2.1648 -1.2400
  711SOL    HW2 2275   3.020   1.489   3.710 -0.8186  1.3366  3.3064
  712SOL     OW 2276   3.283   1.049   1.370 -0.3531 -0.1974  0.0648
  712SOL    HW1 2277   3.350   1.117   1.372 -0.8932  0.5110 -2.3249
  712SOL    HW2 2278   3.298   1.005   1.286 -3.1130  0.2745 -0.7517
  713SOL     OW 2279   2.538   3.284   2.395 -0.2857 -0.2408  0.0017
  713SOL    HW1 2280   2.613   3.263   2.451 -1.4181 -2.2638  0.8530
  713SOL    HW2 2281   2.469   3.310   2.456 -0.9940 -0.6909 -0.5951
  714SOL     OW 2282   1.345   0.125   2.707 -0.2654  0.2881  0.6328
  714SOL    HW1 2283   1.306   0.065   2.643  0.6881  2.5004 -2.2466
  714SOL    HW2 2284   1.436   0.097   2.714  0.0439  1.0121 -0.2990
  715SOL     OW 2285   1.925   3.398   2.131 -0.1322  0.3517 -0.2208
  715SOL    HW1 2286   1.913   3.304   2.117  1.8995  0.0458 -0.0920
  715SOL    HW2 2287   1.973   3.428   2.054  1.4617  0.7788  0.9058
  716SOL     OW 2288   1.339   1.469   1.795  0.1108 -0.0110  0.0430
  716SOL    HW1 2289   1.414   1.410   1.783 -0.4907 -0.6523 -0.7208
  716SOL    HW2 2290   1.376   1.557   1.787  0.6595 -0.3274 -1.2246
  717SOL     OW 2291   3.363   0.836   1.201  0.3185  0.0396 -0.8844
  717SOL    HW1 2292   3.310   0.756   1.196 -0.4246  0.4288  0.2200
  717SOL    HW2 2293   3.429   0.826   1.133  1.0051 -2.0689  0.0201
  718SOL     OW 2294   2.853   0.598   2.787 -0.2237 -0.5186  0.6156
  718SOL    HW1 2295   2.768   0.635   2.812 -0.3947  0.8698 -1.7738
  718SOL    HW2 2296   2.909   0.675   2.774 -0.3518 -0.9186 -3.6762
  719SOL     OW 2297   3.469   1.132   1.917 -0.2464  0.5135 -0.0329
  719SOL    HW1 2298   3.520   1.142   1.837 -0.8806  0.2860 -0.4708
  719SOL    HW2 2299   3.504   1.200   1.976  0.8014  0.1309 -0.1867
  720SOL     OW 2300   0.501   1.050   0.846  0.1435  0.7423 -0.4609
  720SOL    HW1 2301   0.488   1.060   0.940 -0.3036  0.8506 -0.5299
  720SOL    HW2 2302   0.594   1.068   0.832  0.2681  0.4621 -0.0062
  721SOL     OW 2303   3.613   1.724   2.214  0.3948 -0.6262 -0.2966
  721SOL    HW1 2304   3.601   1.694   2.124 -0.0182 -0.9996 -0.1219
  721SOL    HW2 2305   3.702   1.758   2.217  0.1100  0.1980 -1.0706
  722SOL     OW 2306   1.030   2.011   2.452 -0.7237 -0.2047 -0.1188
  722SOL    HW1 2307   1.064   1.925   2.427  0.1607  0.3854 -1.0138
  722SOL    HW2 2308   1.104   2.056   2.492 -0.7355  0.6820 -1.0387
  723SOL     OW 2309   2.130   0.568   1.651 -0.1149 -0.0365 -0.1579
  723SOL    HW1 2310   2.218   0.595   1.676  0.9710 -1.5811 -1.9826
  723SOL    HW2 2311   2.136   0.552   1.557 -1.9935 -1.4911 -0.0952
  724SOL     OW 2312   2.451   0.422   0.696 -0.1315 -0.2472 -0.2626
  724SOL    HW1 2313   2.516   0.394   0.760  0.8960 -0.3475 -1.3352
  724SOL    HW2 2314   2.436   0.515   0.716 -2.2145 -0.9711  2.1393
  725SOL     OW 2315   3.268   1.177   2.155  0.6765  0.3135  0.0966
  725SOL    HW1 2316   3.250   1.218   2.070 -1.2522 -1.8641 -0.6492
  725SOL    HW2 2317   3.213   1.225   2.217  1.2883  1.2276 -0.0470
  726SOL     OW 2318   2.475   0.804   2.048 -0.5759 -0.1106 -0.2107
  726SOL    HW1 2319   2.439   0.846   1.970 -0.9831 -0.4473 -0.2057
  726SOL    HW2 2320   2.436   0.851   2.122 -0.1217  0.2675 -0.1996
  727SOL     OW 2321   1.300   0.233   0.844 -0.3493 -0.1447  0.0896
  727SOL    HW1 2322   1.223   0.289   0.838 -0.2252  0.0430  0.2341
  727SOL    HW2 2323   1.293   0.191   0.929  0.8397  1.5618  1.0908
  728SOL     OW 2324   0.497   0.198   2.445 -0.0684  0.2032 -0.6313
  728SOL    HW1 2325   0.430   0.168   2.507 -0.4214 -1.3328 -1.6989
  728SOL    HW2 2326   0.460   0.179   2.359  1.0209  0.9597 -1.2881
  729SOL     OW 2327   1.876   1.163   0.506  0.3761  0.1194  0.0475
  729SOL    HW1 2328   1.900   1.086   0.454  2.4447  0.4868  0.3400
  729SOL    HW2 2329   1.785   1.149   0.531  0.5964 -2.0538 -0.1924
  730SOL     OW 2330   3.212   0.567   3.382  0.8270 -0.0850 -0.0941
  730SOL    HW1 2331   3.121   0.589   3.398  0.4862 -2.1355  1.1383
  730SOL    HW2 2332   3.261   0.630   3.435  0.0644 -0.0022  0.5288
  731SOL     OW 2333   3.427   1.056   0.483  0.4090  0.3425 -0.0003
  731SOL    HW1 2334   3.353   1.001   0.509 -0.3138  0.5525 -1.5230
  731SOL    HW2 2335   3.491   0.994   0.446  0.8562  0.2066  0.9696
  732SOL     OW 2336   1.893   3.480   1.636  0.1694  0.1248  0.8205
  732SOL    HW1 2337   1.901   3.487   1.541 -0.7014 -1.7081  0.5575
  732SOL    HW2 2338   1.850   3.561   1.663  0.8075  0.8546 -0.2805
  733SOL     OW 2339   1.472   0.670   2.673  0.1520 -0.5787 -0.2267
  733SOL    HW1 2340   1.411   0.684   2.600 -0.2070  0.0800  0.1988
  733SOL    HW2 2341   1.425   0.702   2.750  1.0372 -0.0787  0.1079
  734SOL     OW 2342   0.525   0.404   0.525 -0.0249 -0.2507 -0.2368
  734SOL    HW1 2343   0.570   0.345   0.465 -1.0277 -1.0768 -0.2002
  734SOL    HW2 2344   0.493   0.346   0.595  1.3605  0.7065  1.2852
  735SOL     OW 2345   1.213   2.871   1.703 -0.2088  0.4540  0.6125
  735SOL    HW1 2346   1.231   2.777   1.699  1.9595  0.8135 -2.9164
  735SOL    HW2 2347   1.120   2.880   1.683 -0.1906 -0.9494 -0.1960
  736SOL     OW 2348   0.753   0.036   3.411 -0.2566 -0.1163 -0.9692
  736SOL    HW1 2349   0.679   0.028   3.350  0.5256 -0.0707 -1.9555
  736SOL    HW2 2350   0.714   0.066   3.493 -1.2340  0.6498 -1.6928
  737SOL     OW 2351   2.149   2.803   1.551 -0.0000  0.1098 -0.4656
  737SOL    HW1 2352   2.124   2.879   1.603  1.9858  0.9773 -0.7031
  737SOL    HW2 2353   2.085   2.736   1.575 -0.9321  1.3893  0.8291
  738SOL     OW 2354   0.674   1.176   3.387  0.1479 -0.5523 -0.8268
  738SOL    HW1 2355   0.723   1.096   3.405  0.1109 -0.4816 -0.4003
  738SOL    HW2 2356   0.665   1.178   3.292 -0.8438 -1.6610 -0.7852
  739SOL     OW 2357   1.058   3.350   0.392  0.5486  0.5662 -0.1596
  739SOL    HW1 2358   0.999   3.389   0.457 -0.3855  1.7035 -1.6220
  739SOL    HW2 2359   1.141   3.340   0.438 -1.0882 -2.8512  2.6281
  740SOL     OW 2360   2.008   1.864   1.335 -0.4529  0.5538  0.5095
  740SOL    HW1 2361   2.083   1.851   1.278 -0.3323  1.5604  0.4394
  740SOL    HW2 2362   1.938   1.895   1.277 -2.0215 -3.4002 -0.1017
  741SOL     OW 2363   0.904   2.523   2.846 -0.2425 -0.3322 -0.0454
  741SOL    HW1 2364   0.818   2.532   2.804 -1.0223 -0.1515  1.5397
  741SOL    HW2 2365   0.893   2.565   2.931  1.6640  0.3966 -0.1273
  742SOL     OW 2366   2.708   0.764   1.140 -0.3415  0.2987  0.7945
  742SOL    HW1 2367   2.750   0.702   1.200 -0.9731  0.6834  1.6516
  742SOL    HW2 2368   2.703   0.845   1.190 -2.2053  0.2332  0.7750
  743SOL     OW 2369   0.511   1.328   1.824  0.0711 -0.0756  0.2823
  743SOL    HW1 2370   0.544   1.417   1.812  1.1177 -0.0271  2.9833
  743SOL    HW2 2371   0.580   1.272   1.788  0.2488  0.1547  0.2599
  744SOL     OW 2372   3.633   2.188   1.179  0.0480 -0.0251 -0.1744
  744SOL    HW1 2373   3.562   2.198   1.116 -1.5925  2.0322  1.8447
  744SOL    HW2 2374   3.590   2.188   1.265  2.2818 -1.4376  1.0558
  745SOL     OW 2375   0.089   0.931   3.115  0.8205 -0.0039  0.0583
  745SOL    HW1 2376   0.102   0.927   3.210  1.0851  1.7075  0.1266
  745SOL    HW2 2377   0.122   1.017   3.089  0.8113 -0.4567 -1.6072
  746SOL     OW 2378   2.399   0.306   1.544 -0.4287  0.1009 -0.1603
  746SOL    HW1 2379   2.373   0.286   1.454  0.1467  1.0107 -0.5493
  746SOL    HW2 2380   2.347   0.248   1.598 -1.8776  0.5588 -1.0108
  747SOL     OW 2381   2.061   3.557   0.231  0.0252 -0.0096  0.4724
  747SOL    HW1 2382   2.003   3.577   0.305 -0.2119  0.0521  0.2713
  747SOL    HW2 2383   2.001   3.531   0.161  0.2281  0.2717  0.1946
  748SOL     OW 2384   0.343   2.091   0.364 -0.3851  0.0745  0.0351
  748SOL    HW1 2385   0.308   2.154   0.301  0.8389  0.9832  0.2186
  748SOL    HW2 2386   0.296   2.110   0.445 -0.3860  0.4033 -0.0419
  749SOL     OW 2387   0.169   0.624   1.162 -0.4241 -0.0447 -0.8998
  749SOL    HW1 2388   0.114   0.551   1.192  0.0888 -0.4417 -0.9129
  749SOL    HW2 2389   0.230   0.639   1.234  1.0937 -1.2796 -1.8457
  750SOL     OW 2390   1.446   3.536   3.618 -0.9243  0.3878  0.2676
  750SOL    HW1 2391   1.400   3.582   3.548 -0.4001  1.6262  0.7070
  750SOL    HW2 2392   1.391   3.548   3.695 -1.4735 -0.9273  0.1047
  751SOL     OW 2393   1.439   1.958   2.297 -0.2460 -0.3975 -0.5238
  751SOL    HW1 2394   1.445   1.915   2.382 -3.4533  0.6486  0.3565
  751SOL    HW2 2395   1.439   1.885   2.234  0.1336 -1.2906  0.4732
  752SOL     OW 2396   0.245   0.615   1.449  0.5182 -0.1094  0.0520
  752SOL    HW1 2397   0.216   0.701   1.480 -1.1207 -0.3485 -0.6930
  752SOL    HW2 2398   0.181   0.554   1.488  1.5875 -0.9880  0.4710
  753SOL     OW 2399   3.507   1.725   3.023 -0.5994 -0.3324 -0.2857
  753SOL    HW1 2400   3.541   1.753   2.937  0.5512 -1.0492 -0.0872
  753SOL    HW2 2401   3.555   1.644   3.042  1.0215  1.0828  2.1468
  754SOL     OW 2402   3.127   0.964   3.378 -0.1113  0.7256 -0.0566
  754SOL    HW1 2403   3.207   0.951   3.327  0.1918 -1.0269  0.7904
  754SOL    HW2 2404   3.088   0.877   3.385 -2.1560  1.5521 -0.5044
  755SOL     OW 2405   2.384   1.880   3.259  0.1651  0.5723  0.0361
  755SOL    HW1 2406   2.330   1.937   3.314  1.6162  1.2520  0.8195
  755SOL    HW2 2407   2.410   1.808   3.317  0.4711  0.5001 -0.1860
  756SOL     OW 2408   3.004   2.364   3.304 -0.0443 -0.4400  0.3452
  756SOL    HW1 2409   3.014   2.271   3.287  1.7063  0.1371 -2.7267
  756SOL    HW2 2410   2.934   2.392   3.245 -0.0050  0.3003  0.6378
  757SOL     OW 2411   3.684   3.711   1.211  0.2064  0.1296  0.6101
  757SOL    HW1 2412   3.681   3.654   1.135 -0.2741  3.4698 -2.1018
  757SOL    HW2 2413   3.632   3.665   1.278  0.4941 -2.8523 -1.0618
  758SOL     OW 2414   2.714   3.294   0.449 -0.1095  0.4696  0.2499
  758SOL    HW1 2415   2.660   3.264   0.376  0.2801  0.5677 -0.0802
  758SOL    HW2 2416   2.798   3.316   0.409  0.1470  0.3999  0.7488
  759SOL     OW 2417   0.682   0.664   2.747 -0.1033  0.6103  0.1075
  759SOL    HW1 2418   0.677   0.580   2.702 -0.2555  0.5442  0.2512
  759SOL    HW2 2419   0.611   0.716   2.710 -0.9204  0.1830  1.0604
  760SOL     OW 2420   2.097   0.449   0.172  0.3254  0.2239  0.4550
  760SOL    HW1 2421   2.029   0.383   0.179  0.3538 -0.0205 -1.1731
  760SOL    HW2 2422   2.130   0.460   0.261 -0.4610 -1.1087  0.9269
  761SOL     OW 2423   0.969   1.218   1.756  0.4591 -0.1588  0.1186
  761SOL    HW1 2424   1.032   1.286   1.731  0.3476 -0.5339 -1.2861
  761SOL    HW2 2425   0.895   1.266   1.793  0.6997  0.4432 -0.1649
  762SOL     OW 2426   1.709   0.443   1.457 -0.1245 -0.3310  0.3169
  762SOL    HW1 2427   1.758   0.482   1.529  0.3638 -0.0036 -0.1823
  762SOL    HW2 2428   1.740   0.490   1.379 -1.0013 -0.3436 -0.0422
  763SOL     OW 2429   2.048   0.966   1.649  0.2306  0.6496 -0.5295
  763SOL    HW1 2430   2.141   0.951   1.628  0.0263 -0.8021 -0.4686
  763SOL    HW2 2431   2.018   1.025   1.580  0.3658 -1.6088 -2.6596
  764SOL     OW 2432   2.325   0.607   2.235  0.0449 -0.1333  0.3626
  764SOL    HW1 2433   2.370   0.674   2.286 -0.8315  0.6092  0.1773
  764SOL    HW2 2434   2.377   0.598   2.155  0.6362 -0.2956  0.7600
  765SOL     OW 2435   1.856   1.061   2.228 -0.3651 -0.1844 -0.2905
  765SOL    HW1 2436   1.934   1.008   2.206  0.5626 -0.0812  2.3892
  765SOL    HW2 2437   1.782   1.004   2.208  0.5160 -1.3858 -0.2341
  766SOL     OW 2438   1.711   1.499   2.928 -0.0578  0.2565  0.0213
  766SOL    HW1 2439   1.717   1.568   2.862  2.0928 -0.9845 -1.2135
  766SOL    HW2 2440   1.711   1.418   2.878  0.6534 -0.7062  1.5041
  767SOL     OW 2441   1.517   0.273   3.174  0.2735  0.0521 -0.0602
  767SOL    HW1 2442   1.426   0.247   3.191  0.3964 -0.2435  0.1443
  767SOL    HW2 2443   1.542   0.223   3.097  1.2288 -2.1727  1.5841
  768SOL     OW 2444   2.075   1.405   2.921 -0.7863 -0.1103  0.2745
  768SOL    HW1 2445   2.169   1.408   2.937 -0.6741  1.3924 -0.5306
  768SOL    HW2 2446   2.067   1.373   2.831 -1.1133 -1.1822  0.6589
  769SOL     OW 2447   1.298   0.329   1.342  0.7192 -0.0769 -0.4922
  769SOL    HW1 2448   1.339   0.379   1.413 -0.4832 -1.5681  1.3823
  769SOL    HW2 2449   1.211   0.366   1.333 -0.2354 -1.7844  1.0171
  770SOL     OW 2450   0.139   0.155   1.323 -0.1382  0.2846  0.2086
  770SOL    HW1 2451   0.185   0.107   1.392 -1.9865  2.5556  3.2934
  770SOL    HW2 2452   0.072   0.094   1.293  0.8974 -0.8705  0.1573
  771SOL     OW 2453   3.460   0.230   2.168 -0.1401  0.0626  0.1128
  771SOL    HW1 2454   3.450   0.165   2.098  1.0553  0.6661 -0.6335
  771SOL    HW2 2455   3.465   0.314   2.123 -1.5328  0.7078  1.0626
  772SOL     OW 2456   1.662   1.279   2.359 -0.2657 -0.3442 -0.0913
  772SOL    HW1 2457   1.628   1.326   2.282  1.3488 -0.2312 -0.7641
  772SOL    HW2 2458   1.619   1.193   2.356 -1.3573  0.1965 -0.2510
  773SOL     OW 2459   1.903   1.713   0.990  0.2014  0.1700  0.5528
  773SOL    HW1 2460   1.953   1.786   0.953  0.8540 -0.9929 -0.9763
  773SOL    HW2 2461   1.811   1.740   0.980  0.4359  1.6220  1.9000
  774SOL     OW 2462   0.059   3.348   1.397  0.3278  0.0759 -0.1282
  774SOL    HW1 2463   0.000   3.411   1.438  2.5030  1.4050  1.1045
  774SOL    HW2 2464   0.117   3.318   1.467  2.5179  0.4819 -1.6508
  775SOL     OW 2465   0.445   0.190   0.716 -0.6130 -0.4655  0.3123
  775SOL    HW1 2466   0.489   0.105   0.722  1.6590  0.6576  0.4720
  775SOL    HW2 2467   0.459   0.231   0.801  0.5958  1.0837 -0.5793
  776SOL     OW 2468   2.408   2.477   3.111  0.6515 -0.6857  0.4629
  776SOL    HW1 2469   2.327   2.527   3.105  1.9387  1.3867 -1.0146
  776SOL    HW2 2470   2.449   2.506   3.192  0.1820 -1.3541  0.9491
  777SOL     OW 2471   0.875   2.829   1.395 -0.2994 -0.0530 -0.1324
  777SOL    HW1 2472   0.884   2.924   1.399 -2.2040  0.2150 -1.1491
  777SOL    HW2 2473   0.800   2.810   1.453  0.0725 -0.9395  0.0735
  778SOL     OW 2474   1.333   3.066   1.192 -0.6106 -0.5698 -0.3520
  778SOL    HW1 2475   1.417   3.045   1.234  0.6977  2.3179 -1.2548
  778SOL    HW2 2476   1.268   3.021   1.246  1.3524 -1.4093  1.5079
  779SOL     OW 2477   2.857   0.202   2.099 -0.2270  0.2580  0.5650
  779SOL    HW1 2478   2.775   0.225   2.144 -0.7735  1.2101 -0.8434
  779SOL    HW2 2479   2.905   0.284   2.094  0.4764 -0.1438  0.7018
  780SOL     OW 2480   2.514   3.151   1.944  0.0735  0.1420 -0.3680
  780SOL    HW1 2481   2.553   3.221   1.892  0.3434  2.0001  2.1102
  780SOL    HW2 2482   2.446   3.195   1.996 -0.1429 -1.5353  0.8553
  781SOL     OW 2483   1.565   0.866   3.048 -0.0096 -0.6449  0.7391
  781SOL    HW1 2484   1.565   0.916   2.967 -1.1355 -1.0526  0.4734
  781SOL    HW2 2485   1.614   0.921   3.110 -0.3447  0.3124  0.1754
  782SOL     OW 2486   2.439   2.832   3.534  0.0942  0.0592 -0.1574
  782SOL    HW1 2487   2.409   2.766   3.597  0.5621 -0.6359 -0.6490
  782SOL    HW2 2488   2.359   2.875   3.504 -0.0129  2.7206  3.3388
  783SOL     OW 2489   3.230   2.440   3.405 -0.5746 -0.1809 -0.7276
  783SOL    HW1 2490   3.268   2.515   3.359 -0.0044  0.3322  0.5076
  783SOL    HW2 2491   3.156   2.414   3.351 -1.1613  1.6732 -0.9104
  784SOL     OW 2492   2.576   0.257   1.877  0.4596  0.1889  0.3119
  784SOL    HW1 2493   2.484   0.258   1.904  0.8490  1.8367  1.8406
  784SOL    HW2 2494   2.623   0.227   1.955  1.2316 -0.7478 -0.4910
  785SOL     OW 2495   2.455   2.890   2.476 -0.0740  1.1332 -0.2642
  785SOL    HW1 2496   2.384   2.942   2.514  0.3208  1.3551  0.1817
  785SOL    HW2 2497   2.418   2.802   2.466 -0.2329  1.1063  0.5041
  786SOL     OW 2498   1.010   3.717   0.437 -0.6850  0.0125 -0.2725
  786SOL    HW1 2499   0.980   3.786   0.497 -1.0454  0.4449 -0.9414
  786SOL    HW2 2500   0.977   3.636   0.476 -1.3207  0.3351 -0.1300
  787SOL     OW 2501   1.989   2.974   1.350 -0.5316 -0.0673 -0.1973
  787SOL    HW1 2502   1.912   2.993   1.405  1.1753  4.1451  1.1566
  787SOL    HW2 2503   2.052   2.934   1.410 -0.2753  0.2363 -0.2612
  788SOL     OW 2504   3.027   2.639   2.292  0.5759 -0.4156 -0.4433
  788SOL    HW1 2505   3.066   2.605   2.372  0.2553  0.7782  0.2410
  788SOL    HW2 2506   2.976   2.566   2.257  0.2065 -0.7657  0.7871
  789SOL     OW 2507   3.578   3.360   2.606 -0.0456  0.3493 -0.5683
  789SOL    HW1 2508   3.577   3.279   2.658  0.4522  0.6651 -0.0566
  789SOL    HW2 2509   3.559   3.429   2.669  2.8035  0.9925 -0.3210
  790SOL     OW 2510   2.970   0.713   0.294  0.1375 -0.3921  0.3045
  790SOL    HW1 2511   2.902   0.661   0.250  0.9408 -1.7758  0.6423
  790SOL    HW2 2512   2.989   0.664   0.373 -0.5898  1.5593  1.7681
  791SOL     OW 2513   1.924   2.717   0.772  0.4658  0.1126  0.5300
  791SOL    HW1 2514   1.845   2.728   0.825  0.4062  0.7339  0.3267
  791SOL    HW2 2515   1.909   2.773   0.696  1.4288  0.8247  0.8455
  792SOL     OW 2516   0.503   1.926   0.957 -0.1728  0.1137  0.1091
  792SOL    HW1 2517   0.537   1.994   0.899 -0.2159  1.3160  1.4385
  792SOL    HW2 2518   0.416   1.957   0.982 -0.7407 -1.0971 -0.3133
  793SOL     OW 2519   1.507   3.679   1.493  0.5109  0.2878  0.3454
  793SOL    HW1 2520   1.550   3.655   1.410  2.4078  2.3173  0.6342
  793SOL    HW2 2521   1.497   3.774   1.487 -2.8995  0.0950  0.9041
  794SOL     OW 2522   1.714   3.367   0.550  0.7109 -0.8643  0.4283
  794SOL    HW1 2523   1.691   3.296   0.609  1.8687 -0.5960  1.2314
  794SOL    HW2 2524   1.765   3.325   0.480 -1.3901 -1.3258 -0.9173
  795SOL     OW 2525   0.281   2.517   0.876 -0.1537  0.3158 -0.0175
  795SOL    HW1 2526   0.276   2.489   0.785  2.1235  0.7502 -0.3438
  795SOL    HW2 2527   0.201   2.484   0.916 -1.2654  0.2125 -2.1843
  796SOL     OW 2528   3.219   0.295   0.335 -0.2836 -0.4238  0.0810
  796SOL    HW1 2529   3.312   0.279   0.317 -0.1189 -1.2041  1.5193
  796SOL    HW2 2530   3.217   0.324   0.426 -1.0703  3.4211 -0.9938
  797SOL     OW 2531   1.517   2.597   0.798  0.4952 -0.2663  0.4482
  797SOL    HW1 2532   1.535   2.547   0.877  0.0002  0.9093  1.3243
  797SOL    HW2 2533   1.422   2.589   0.786  0.5364 -0.2575  0.1016
  798SOL     OW 2534   1.096   1.905   1.664  0.0537  0.1891  0.6350
  798SOL    HW1 2535   1.034   1.978   1.669  0.5444  0.6586  0.0663
  798SOL    HW2 2536   1.084   1.869   1.577 -1.3105 -1.4541  1.4574
  799SOL     OW 2537   2.327   2.106   2.720  0.8113 -0.2193 -0.1190
  799SOL    HW1 2538   2.240   2.104   2.759  0.0351 -0.5801 -1.7503
  799SOL    HW2 2539   2.319   2.167   2.646  0.9971 -2.5364 -2.2018
  800SOL     OW 2540   0.461   1.350   3.685  0.1106  0.3095  0.1267
  800SOL    HW1 2541   0.415   1.267   3.697  1.7529 -0.7563 -0.6404
  800SOL    HW2 2542   0.425   1.387   3.604 -0.5704  0.3229  0.4322
  801SOL     OW 2543   0.225   1.054   0.243 -0.1901  0.7198  0.1911
  801SOL    HW1 2544   0.290   1.117   0.274  0.3570  0.5995 -0.6494
  801SOL    HW2 2545   0.264   0.968   0.263 -0.7277  0.6445  0.9319
  802SOL     OW 2546   0.032   1.613   3.568  0.2354 -0.7231 -0.5970
  802SOL    HW1 2547   0.011   1.525   3.601 -0.2745 -0.0897  0.8625
  802SOL    HW2 2548   0.128   1.615   3.564  0.4049 -0.5612  1.8264
  803SOL     OW 2549   0.449   1.040   1.110  0.1943  0.0609  0.0001
  803SOL    HW1 2550   0.502   1.106   1.153 -0.8402  0.5188  0.6101
  803SOL    HW2 2551   0.452   0.964   1.168  0.7014 -0.1380 -0.2850
  804SOL     OW 2552   1.806   0.126   2.431 -0.4695 -0.0285  0.2741
  804SOL    HW1 2553   1.837   0.106   2.519  2.4328  1.3166 -0.3268
  804SOL    HW2 2554   1.777   0.041   2.396  0.3652 -0.9699  1.7730
  805SOL     OW 2555   2.928   2.179   2.010 -0.4172  0.2323 -0.4356
  805SOL    HW1 2556   2.865   2.143   1.947 -0.1109  0.1814 -0.7166
  805SOL    HW2 2557   2.965   2.102   2.053  0.8309  0.1413 -1.6074
  806SOL     OW 2558   2.639   0.169   0.124  0.4795 -0.2106 -0.0345
  806SOL    HW1 2559   2.556   0.129   0.151  0.7007 -0.6509  0.0023
  806SOL    HW2 2560   2.618   0.262   0.114 -0.0256 -0.3205 -0.0577
  807SOL     OW 2561   1.614   0.281   0.083 -0.1658  0.2217  0.3331
  807SOL    HW1 2562   1.604   0.263  -0.011  0.2274  1.2551  0.0754
  807SOL    HW2 2563   1.657   0.366   0.086 -0.4536  0.3392  1.4661
  808SOL     OW 2564   3.455   1.890   0.695  0.5233 -0.2571  0.3596
  808SOL    HW1 2565   3.547   1.866   0.705  0.0537 -1.4725  2.3946
  808SOL    HW2 2566   3.419   1.885   0.784 -1.3906  0.7505 -0.2927
  809SOL     OW 2567   0.322   2.925   0.482 -0.2101  0.3776 -0.5705
  809SOL    HW1 2568   0.292   2.898   0.395 -0.5388 -3.3556  0.5345
  809SOL    HW2 2569   0.268   3.002   0.502 -1.7903 -0.0469 -2.7380
  810SOL     OW 2570   2.242   0.050   1.806  0.5600  0.6924  0.1556
  810SOL    HW1 2571   2.295   0.035   1.884  0.4357  1.2286  0.3485
  810SOL    HW2 2572   2.192   0.129   1.826 -0.4174  0.1226  0.0395
  811SOL     OW 2573   1.384   1.051   1.638  0.0422  0.0324  0.1530
  811SOL    HW1 2574   1.408   1.032   1.547 -0.2439 -2.6216  0.5556
  811SOL    HW2 2575   1.425   0.982   1.689 -2.6319 -0.5885  1.6419
  812SOL     OW 2576   0.720   0.879   2.517  0.7480 -0.0209 -0.2713
  812SOL    HW1 2577   0.721   0.786   2.540  0.7515  0.2306  0.8063
  812SOL    HW2 2578   0.644   0.913   2.565  0.0647  0.3137 -1.5669
  813SOL     OW 2579   3.414   1.236   0.970 -0.1945 -0.6019  0.1440
  813SOL    HW1 2580   3.440   1.168   0.907 -0.0688 -0.7453  0.3503
  813SOL    HW2 2581   3.495   1.262   1.012 -0.1432  0.1449 -0.3883
  814SOL     OW 2582   3.521   3.549   3.462 -0.2014 -0.1348  0.2190
  814SOL    HW1 2583   3.601   3.517   3.420 -0.5298 -1.3210  0.4534
  814SOL    HW2 2584   3.548   3.627   3.510  0.1860  1.3679 -2.2401
  815SOL     OW 2585   0.661   3.397   2.462  0.2774  0.0747  0.3457
  815SOL    HW1 2586   0.648   3.316   2.511 -1.4568 -0.0924 -0.3180
  815SOL    HW2 2587   0.706   3.456   2.523  1.8809 -1.4757  0.7157
  816SOL     OW 2588   0.615   2.987   0.628 -0.0821  0.3608  0.5264
  816SOL    HW1 2589   0.560   2.980   0.550  1.3619  0.4104 -0.5196
  816SOL    HW2 2590   0.620   2.898   0.662 -0.1317  0.2164  0.1560
  817SOL     OW 2591   3.495   1.790   2.740  0.0690  0.0099  0.3550
  817SOL    HW1 2592   3.419   1.732   2.738  1.5285 -1.9900 -0.2540
  817SOL    HW2 2593   3.520   1.799   2.648  1.6610 -0.9387  0.6627
  818SOL     OW 2594   0.724   0.034   0.819  0.4966 -0.4649  0.2320
  818SOL    HW1 2595   0.673   0.087   0.880  2.7856  0.0068  1.8974
  818SOL    HW2 2596   0.766  -0.032   0.874  2.1683 -0.4062 -0.8973
  819SOL     OW 2597   0.996   0.530   0.164 -0.7109  0.3096  0.0430
  819SOL    HW1 2598   1.047   0.479   0.226 -2.2651  0.1451  1.2430
  819SOL    HW2 2599   1.042   0.518   0.080  1.5331  0.6897  1.1450
  820SOL     OW 2600   0.246   1.291   3.495 -0.1783  0.2770 -0.4418
  820SOL    HW1 2601   0.220   1.294   3.587 -0.4836 -1.4865 -0.4264
  820SOL    HW2 2602   0.293   1.208   3.486  0.8185  0.9245 -1.6487
  821SOL     OW 2603   3.319   1.466   3.228 -0.0221  0.2701  0.0392
  821SOL    HW1 2604   3.270   1.403   3.280  1.4604 -1.2643 -0.3232
  821SOL    HW2 2605   3.252   1.514   3.178 -1.2405 -0.4528  0.9302
  822SOL     OW 2606   0.954   1.035   3.151  0.3236  0.0221  0.0547
  822SOL    HW1 2607   1.024   1.009   3.211  1.7311 -0.1819 -1.5843
  822SOL    HW2 2608   0.972   1.127   3.132 -0.6887  0.3563  0.6823
  823SOL     OW 2609   1.491   0.359   0.687  1.1273 -0.1266  0.2957
  823SOL    HW1 2610   1.407   0.348   0.731  0.7843  0.2535 -0.2541
  823SOL    HW2 2611   1.536   0.426   0.738  0.8962  0.0217  0.3080
  824SOL     OW 2612   1.851   1.474   3.514 -0.0517 -0.1977  0.7217
  824SOL    HW1 2613   1.846   1.547   3.452  0.7315  0.0281  0.9144
  824SOL    HW2 2614   1.762   1.464   3.546 -0.2077  0.5365  0.5347
  825SOL     OW 2615   0.449   0.455   2.832 -0.8358 -0.1809  0.0520
  825SOL    HW1 2616   0.489   0.369   2.824 -0.5543 -0.2702  1.9492
  825SOL    HW2 2617   0.522   0.516   2.840 -1.0363  0.2317 -1.0664
  826SOL     OW 2618   3.008   3.630   2.690 -0.1668  0.4127 -0.0119
  826SOL    HW1 2619   2.915   3.646   2.707  0.0011  3.9232 -1.5948
  826SOL    HW2 2620   3.028   3.550   2.738 -4.2858 -1.2215 -0.6260
  827SOL     OW 2621   3.696   0.886   0.338  0.4404 -0.2193  0.1011
  827SOL    HW1 2622   3.666   0.820   0.401 -1.0111  1.2563  1.0343
  827SOL    HW2 2623   3.792   0.879   0.340  0.3555 -1.8096  0.6548
  828SOL     OW 2624   0.089   0.982   3.383  0.6883 -0.2137 -0.5760
  828SOL    HW1 2625   0.163   0.985   3.443 -0.3796 -1.2832  0.8685
  828SOL    HW2 2626   0.020   1.030   3.429  0.1952 -0.0156 -1.4997
  829SOL     OW 2627   1.953   1.878   0.061 -0.2077 -0.1063 -0.3613
  829SOL    HW1 2628   1.956   1.926   0.144  2.6870 -1.0821  0.2182
  829SOL    HW2 2629   1.896   1.803   0.079 -1.3281  0.8110  0.0361
  830SOL     OW 2630   1.776   2.474   0.963  0.2394  0.6916  0.1690
  830SOL    HW1 2631   1.858   2.484   1.012  0.9359  0.5408 -0.9159
  830SOL    HW2 2632   1.731   2.557   0.975  0.1823  0.5009  1.4122
  831SOL     OW 2633   3.353   0.700   1.839  0.2085 -0.2378 -0.0272
  831SOL    HW1 2634   3.331   0.792   1.849  0.7117 -0.0310 -0.7601
  831SOL    HW2 2635   3.427   0.687   1.899 -1.2943 -0.7321  1.7973
  832SOL     OW 2636   2.645   0.148   1.452  0.3128  0.1731 -0.0677
  832SOL    HW1 2637   2.676   0.119   1.538 -1.2494 -0.7736  0.2143
  832SOL    HW2 2638   2.585   0.220   1.471 -0.1656 -0.1481 -0.3376
  833SOL     OW 2639   1.845   2.015   0.937  0.3409 -0.8816  0.1333
  833SOL    HW1 2640   1.834   2.108   0.916  3.2904 -0.3703  0.3847
  833SOL    HW2 2641   1.817   2.007   1.028 -0.9633 -0.5148 -0.2137
  834SOL     OW 2642   3.086   0.644   3.677  0.0888 -0.0588  0.0399
  834SOL    HW1 2643   3.035   0.593   3.740 -1.7751  0.9278 -0.5973
  834SOL    HW2 2644   3.169   0.597   3.670 -1.6631 -3.3352 -0.8595
  835SOL     OW 2645   2.445   0.992   1.341 -1.0324 -0.0491 -0.4619
  835SOL    HW1 2646   2.537   1.007   1.361 -1.0815 -0.4230  0.0583
  835SOL    HW2 2647   2.444   0.973   1.247 -0.8066  1.7733 -0.8663
  836SOL     OW 2648   1.807   3.405   0.862  0.4364  0.2168  0.5336
  836SOL    HW1 2649   1.888   3.407   0.811  1.5986 -0.1672  2.2691
  836SOL    HW2 2650   1.759   3.330   0.828  1.0008  0.1775 -0.2172
  837SOL     OW 2651   0.126   1.212   2.466 -0.4107  0.5375 -0.7260
  837SOL    HW1 2652   0.051   1.188   2.521 -1.1267 -0.9546 -2.2515
  837SOL    HW2 2653   0.109   1.302   2.439 -0.7789  0.7870  0.2941
  838SOL     OW 2654   1.636   1.787   0.938 -0.0370 -0.9143  0.1413
  838SOL    HW1 2655   1.608   1.877   0.927  1.9668 -0.3113 -0.3871
  838SOL    HW2 2656   1.675   1.763   0.854  1.3406 -1.5463  0.9312
  839SOL     OW 2657   0.976   0.271   1.592  0.1996  0.1776 -0.3549
  839SOL    HW1 2658   0.890   0.269   1.634  0.1487 -0.3348 -0.4743
  839SOL    HW2 2659   1.021   0.345   1.632 -0.5648  0.9185 -0.8242
  840SOL     OW 2660   1.768   2.278   0.171  0.6203  0.2720 -0.3497
  840SOL    HW1 2661   1.771   2.183   0.165  1.6943  0.2705 -0.0289
  840SOL    HW2 2662   1.857   2.306   0.149  0.2588  1.2215 -0.6844
  841SOL     OW 2663   2.169   3.277   3.491 -0.7159  0.5029  0.1413
  841SOL    HW1 2664   2.188   3.350   3.432 -1.3856  0.6472  0.0960
  841SOL    HW2 2665   2.253   3.256   3.531 -0.5530  1.4294  0.3054
  842SOL     OW 2666   3.392   3.686   1.587  0.4902 -0.1168 -0.3152
  842SOL    HW1 2667   3.406   3.594   1.612  2.1005  0.4121  0.8678
  842SOL    HW2 2668   3.385   3.684   1.491  2.0523 -1.3068 -0.4333
  843SOL     OW 2669   3.362   1.361   0.054  0.5937 -0.0165  0.6061
  843SOL    HW1 2670   3.279   1.325   0.087  0.1041  1.4727  1.0886
  843SOL    HW2 2671   3.340   1.451   0.028  1.7454 -0.0652 -0.6256
  844SOL     OW 2672   3.473   1.875   0.971 -0.3082 -0.2100 -0.1674
  844SOL    HW1 2673   3.563   1.877   1.003  0.9224  1.1493 -3.3332
  844SOL    HW2 2674   3.443   1.966   0.977 -1.3470 -0.5815  0.4857
  845SOL     OW 2675   3.054   1.659   1.239 -0.0352 -0.7929 -0.0362
  845SOL    HW1 2676   3.042   1.600   1.165  2.5812 -2.2076  0.5495
  845SOL    HW2 2677   3.121   1.721   1.211 -0.6087  0.0496  0.4038
  846SOL     OW 2678   0.121   3.140   2.296  0.3699  0.7389  0.0985
  846SOL    HW1 2679   0.111   3.080   2.222 -1.7782  1.5068 -0.2858
  846SOL    HW2 2680   0.036   3.140   2.339  0.8174  2.2733  1.0684
  847SOL     OW 2681   2.877   0.283   2.437  0.4805 -0.0445  0.1004
  847SOL    HW1 2682   2.900   0.190   2.445 -0.6884 -0.4028 -0.4973
  847SOL    HW2 2683   2.809   0.296   2.503  1.0207  0.5285  0.5523
  848SOL     OW 2684   1.923   0.994   0.834  0.0419 -0.1696  0.5943
  848SOL    HW1 2685   1.955   0.905   0.821  0.0316 -0.1440  0.3938
  848SOL    HW2 2686   1.960   1.021   0.918  0.7676 -0.0340  0.2339
  849SOL     OW 2687   0.681   3.685   2.990 -0.4692 -0.4161  0.2994
  849SOL    HW1 2688   0.768   3.724   2.984 -0.8734  0.4877 -0.0538
  849SOL    HW2 2689   0.638   3.733   3.061 -1.2107  0.2983 -0.5914
  850SOL     OW 2690   1.389   2.156   0.118 -0.4663  0.2413 -0.6136
  850SOL    HW1 2691   1.340   2.238   0.116  0.6759  0.9660  0.1648
  850SOL    HW2 2692   1.443   2.158   0.039  2.2417  1.9999  1.1269
  851SOL     OW 2693   3.554   2.364   0.050 -0.3901 -0.5369  0.3999
  851SOL    HW1 2694   3.542   2.270   0.063 -1.1029 -0.5886 -0.5461
  851SOL    HW2 2695   3.518   2.381  -0.037 -1.5412  0.8539  1.1081
  852SOL     OW 2696   1.338   3.634   2.333 -0.4092  0.4717  0.2207
  852SOL    HW1 2697   1.406   3.577   2.371 -0.7364 -0.6867 -0.8401
  852SOL    HW2 2698   1.272   3.640   2.402 -0.7743 -1.1966  0.0771
  853SOL     OW 2699   3.620   3.036   0.794  0.5224 -0.2386 -0.7741
  853SOL    HW1 2700   3.547   2.976   0.780  0.4372 -0.3176 -0.0048
  853SOL    HW2 2701   3.689   3.004   0.735 -0.1652  0.0363 -1.7498
  854SOL     OW 2702   3.719   3.347   1.678  0.1069  0.4993  0.3634
  854SOL    HW1 2703   3.627   3.373   1.667 -0.8469 -0.5003  4.4391
  854SOL    HW2 2704   3.762   3.425   1.713  0.6085  0.6219 -0.4858
  855SOL     OW 2705   0.956   2.238   2.948 -0.1534 -0.2614  0.5323
  855SOL    HW1 2706   0.963   2.206   2.858  0.1906 -1.3150  0.9289
  855SOL    HW2 2707   0.938   2.332   2.938 -1.5371 -0.6164 -0.6461
  856SOL     OW 2708   1.124   0.970   1.648 -0.4188  0.3388 -0.2170
  856SOL    HW1 2709   1.126   0.899   1.583 -0.5474  0.4885 -0.3850
  856SOL    HW2 2710   1.214   1.003   1.649 -0.8572  1.6933 -1.8258
  857SOL     OW 2711   0.767   0.874   1.471  0.5840 -0.3910  0.6495
  857SOL    HW1 2712   0.798   0.928   1.544  1.0575 -1.6534  1.4264
  857SOL    HW2 2713   0.688   0.918   1.440  1.7815  1.5725  0.2276
  858SOL     OW 2714   1.177   3.104   3.426 -0.0591 -0.5364 -0.0338
  858SOL    HW1 2715   1.251   3.056   3.465  1.8238  1.7687 -0.5726
  858SOL    HW2 2716   1.185   3.087   3.332 -0.7624 -0.9785 -0.0169
  859SOL     OW 2717   2.410   0.690   0.648 -0.6568  0.2077  0.4544
  859SOL    HW1 2718   2.502   0.707   0.630 -0.9098 -0.5853 -1.8384
  859SOL    HW2 2719   2.362   0.747   0.587 -1.6329 -0.8446  0.1987
  860SOL     OW 2720   2.625   3.566   3.566  0.0434 -0.1845 -0.9645
  860SOL    HW1 2721   2.689   3.631   3.594  0.1607 -0.5536 -0.3558
  860SOL    HW2 2722   2.671   3.513   3.501  0.9553 -1.5477  0.7294
  861SOL     OW 2723   3.440   3.644   1.068 -0.4502 -0.0867 -0.6032
  861SOL    HW1 2724   3.405   3.733   1.058  1.8919  1.2699  1.7601
  861SOL    HW2 2725   3.509   3.638   1.002  0.8437  0.7584  0.6142
  862SOL     OW 2726   0.182   0.081   3.448 -0.0481 -0.0250 -0.4108
  862SOL    HW1 2727   0.146   0.099   3.535 -0.5219  0.8069 -0.7649
  862SOL    HW2 2728   0.204  -0.012   3.450 -0.9775 -0.2500  0.2720
  863SOL     OW 2729   3.342   2.101   1.877 -0.0381  0.3503 -0.0397
  863SOL    HW1 2730   3.381   2.153   1.948  0.1481  2.6764 -1.7333
  863SOL    HW2 2731   3.400   2.025   1.869  0.4119  0.4705  1.7278
  864SOL     OW 2732   2.267   0.816   0.850 -0.0684 -0.3895 -0.2679
  864SOL    HW1 2733   2.302   0.734   0.813  0.3058 -0.1924 -0.3563
  864SOL    HW2 2734   2.178   0.794   0.875  0.4074 -1.1840  0.8466
  865SOL     OW 2735   3.529   2.880   3.010  0.0605 -0.1293  0.6952
  865SOL    HW1 2736   3.567   2.813   2.953  1.7457  2.5624 -1.5844
  865SOL    HW2 2737   3.594   2.892   3.079  1.8996  1.9543 -1.2346
  866SOL     OW 2738   0.202   2.571   1.652 -1.0972  0.1594  0.1893
  866SOL    HW1 2739   0.180   2.639   1.589 -0.2627 -0.5336 -0.8821
  866SOL    HW2 2740   0.294   2.586   1.673 -0.9382 -0.5421  0.0378
  867SOL     OW 2741   1.537   1.273   1.106 -0.3164  0.5152 -0.1808
  867SOL    HW1 2742   1.497   1.355   1.079 -1.2619 -0.6194 -2.4585
  867SOL    HW2 2743   1.631   1.285   1.087 -0.3930  1.1569 -0.1885
  868SOL     OW 2744   1.188   2.389   0.238 -0.1601  0.5794 -0.2678
  868SOL    HW1 2745   1.240   2.400   0.318  0.7319 -1.3577 -0.5229
  868SOL    HW2 2746   1.104   2.429   0.258  0.5162  1.3584  1.1464
  869SOL     OW 2747   1.922   2.959   2.027 -0.0571  0.4928  0.9579
  869SOL    HW1 2748   1.844   3.009   2.004  0.6759  0.3401 -2.2931
  869SOL    HW2 2749   1.995   3.013   1.998  0.8796 -0.9587  0.5038
  870SOL     OW 2750   1.267   0.530   0.760 -0.1654  0.3189  0.4188
  870SOL    HW1 2751   1.242   0.581   0.683 -2.7508 -0.5068  0.5785
  870SOL    HW2 2752   1.185   0.488   0.787  1.0455 -0.8095  2.5801
  871SOL     OW 2753   1.136   1.032   1.947  0.2932 -0.2927 -0.0145
  871SOL    HW1 2754   1.067   1.097   1.934  1.0180  0.9482  1.8969
  871SOL    HW2 2755   1.202   1.053   1.881 -0.4160 -0.4659 -0.7944
  872SOL     OW 2756   1.226   0.457   3.413 -0.7478 -0.2062  0.1803
  872SOL    HW1 2757   1.315   0.476   3.386 -1.2516 -1.1529 -2.3468
  872SOL    HW2 2758   1.171   0.512   3.357 -1.8286 -1.8803 -0.4888
  873SOL     OW 2759   2.554   0.292   0.474  0.4859  0.6009 -0.2047
  873SOL    HW1 2760   2.646   0.290   0.502  0.4478  3.0853  0.2735
  873SOL    HW2 2761   2.509   0.340   0.543 -1.0010  0.3203 -0.9406
  874SOL     OW 2762   1.011   1.174   1.470  0.2779  0.1530 -0.1315
  874SOL    HW1 2763   1.013   1.265   1.438 -0.7043 -0.2344 -1.3466
  874SOL    HW2 2764   0.998   1.183   1.565 -0.4786  1.2735 -0.3187
  875SOL     OW 2765   2.895   2.760   0.096  0.1276 -0.3563 -0.2434
  875SOL    HW1 2766   2.955   2.718   0.034 -1.0184 -0.7794 -1.0921
  875SOL    HW2 2767   2.846   2.823   0.042 -0.9852 -0.8351  0.1834
  876SOL     OW 2768   1.377   1.562   3.664  0.4643 -0.0617  0.0152
  876SOL    HW1 2769   1.349   1.635   3.719  0.2885  0.7200 -1.0704
  876SOL    HW2 2770   1.297   1.517   3.640  0.1316  1.5450 -2.2206
  877SOL     OW 2771   3.203   3.263   2.410  0.0355 -0.2107  0.1846
  877SOL    HW1 2772   3.141   3.319   2.458 -1.3442  0.0013 -1.7271
  877SOL    HW2 2773   3.258   3.225   2.478  0.1543  2.3995  1.6838
  878SOL     OW 2774   0.961   0.264   1.197  0.2805 -0.2078 -0.0915
  878SOL    HW1 2775   0.969   0.216   1.115 -1.3405  1.3983 -1.2707
  878SOL    HW2 2776   0.878   0.311   1.189  0.9875  1.4723  1.6645
  879SOL     OW 2777   3.294   3.247   0.965 -0.7404  0.2265  0.2698
  879SOL    HW1 2778   3.388   3.261   0.975 -0.4673  0.7970 -2.2840
  879SOL    HW2 2779   3.277   3.165   1.012  1.5457 -1.2584 -1.2606
  880SOL     OW 2780   0.728   2.471   0.198  0.1346  0.2486 -0.2144
  880SOL    HW1 2781   0.665   2.541   0.183 -0.5448 -0.3546 -0.2031
  880SOL    HW2 2782   0.750   2.440   0.110 -0.5123 -0.3483 -0.1739
  881SOL     OW 2783   0.174   0.439   3.205 -0.2550  0.6246  0.7911
  881SOL    HW1 2784   0.083   0.454   3.180  0.3396 -1.1934 -3.0818
  881SOL    HW2 2785   0.222   0.514   3.170 -0.0147  0.7302  1.3254
  882SOL     OW 2786   3.026   0.373   2.235  0.5962  0.0105 -0.3459
  882SOL    HW1 2787   3.105   0.333   2.270  0.8685  0.5920 -0.2785
  882SOL    HW2 2788   2.956   0.345   2.294  0.6387 -1.0327 -0.7766
  883SOL     OW 2789   2.243   3.401   2.501  0.6110 -0.3433 -0.0313
  883SOL    HW1 2790   2.202   3.470   2.448  1.4378  0.0540 -0.1574
  883SOL    HW2 2791   2.169   3.345   2.527  0.1213 -0.2366 -1.1370
  884SOL     OW 2792   0.577   3.433   1.099 -0.1990 -0.1631 -0.4516
  884SOL    HW1 2793   0.519   3.405   1.029 -0.3683 -0.3373 -0.2421
  884SOL    HW2 2794   0.538   3.514   1.132 -0.7661 -0.6969  0.2181
  885SOL     OW 2795   0.761   2.337   2.354 -0.0652 -0.1436  0.3604
  885SOL    HW1 2796   0.771   2.415   2.408  0.7130 -0.8792  1.3139
  885SOL    HW2 2797   0.701   2.281   2.403  1.9782 -1.5518  1.3764
  886SOL     OW 2798   2.232   3.482   3.353 -0.3748 -0.0028  0.6944
  886SOL    HW1 2799   2.304   3.487   3.289 -2.3030  0.5389 -1.5517
  886SOL    HW2 2800   2.239   3.563   3.403  0.5306  0.0653  0.4907
  887SOL     OW 2801   0.904   0.135   0.636 -0.0743 -0.0386  0.6097
  887SOL    HW1 2802   0.911   0.230   0.645 -1.0194 -0.0029  1.0857
  887SOL    HW2 2803   0.847   0.108   0.708 -0.2073 -0.9092  0.1934
  888SOL     OW 2804   2.403   2.627   2.445 -0.2225  0.0752 -0.1877
  888SOL    HW1 2805   2.323   2.592   2.407 -0.6245 -1.3516  1.8016
  888SOL    HW2 2806   2.473   2.574   2.406 -0.2109  1.1900 -1.7723
  889SOL     OW 2807   2.515   0.714   3.185  0.4780 -0.9045 -0.1905
  889SOL    HW1 2808   2.535   0.622   3.170  2.1330 -0.6531  0.2889
  889SOL    HW2 2809   2.584   0.745   3.244 -1.0644  0.2122  1.1231
  890SOL     OW 2810   0.962   0.222   0.270 -0.2713  0.2748 -0.0179
  890SOL    HW1 2811   0.941   0.205   0.178  2.9082 -0.2004 -0.7772
  890SOL    HW2 2812   0.960   0.136   0.312 -2.9329  0.6258  0.7515
  891SOL     OW 2813   3.052   0.033   2.174  0.2737  0.6942  0.4769
  891SOL    HW1 2814   2.979   0.090   2.148  1.3143  2.0489  0.4150
  891SOL    HW2 2815   3.092   0.006   2.092 -0.2502 -0.2162  0.5034
  892SOL     OW 2816   1.684   1.085   1.604 -0.0513 -0.6015  0.1951
  892SOL    HW1 2817   1.662   1.139   1.528 -0.5946 -0.9646  0.0836
  892SOL    HW2 2818   1.732   1.011   1.568  0.3558 -0.3953  0.3026
  893SOL     OW 2819   3.711   3.619   1.503 -0.5237 -0.3506  0.1731
  893SOL    HW1 2820   3.711   3.677   1.579 -1.0711 -0.4478  0.2483
  893SOL    HW2 2821   3.622   3.625   1.468 -0.3831 -0.6027 -0.2344
  894SOL     OW 2822   3.434   0.140   2.542 -0.1320 -0.3129 -0.1508
  894SOL    HW1 2823   3.372   0.090   2.490  0.2481 -0.0047 -0.9036
  894SOL    HW2 2824   3.520   0.116   2.508  0.0878  0.3814 -0.1025
  895SOL     OW 2825   0.200   0.921   2.441  0.4504 -0.0418  0.3108
  895SOL    HW1 2826   0.133   0.876   2.492 -0.8551 -0.9775 -2.0549
  895SOL    HW2 2827   0.168   1.011   2.432 -0.4190 -0.4287 -0.6220
  896SOL     OW 2828   1.941   1.624   2.647  0.2249 -0.0946  0.4879
  896SOL    HW1 2829   1.947   1.528   2.650 -1.6371 -0.2378  2.5918
  896SOL    HW2 2830   2.020   1.654   2.691  0.0001 -0.7417  1.3602
  897SOL     OW 2831   3.753   0.414   1.893 -0.2720 -0.0616 -0.3877
  897SOL    HW1 2832   3.666   0.395   1.857 -1.4151  0.4961  1.9086
  897SOL    HW2 2833   3.756   0.509   1.901 -0.0546 -0.1590  0.8859
  898SOL     OW 2834   2.263   1.014   2.932 -0.2584 -0.1377 -0.1591
  898SOL    HW1 2835   2.348   0.984   2.963  0.6174  0.8119 -1.5551
  898SOL    HW2 2836   2.253   1.101   2.970 -0.1459  0.1544 -0.7848
  899SOL     OW 2837   0.368   2.376   1.494  0.4337  0.1167 -0.2796
  899SOL    HW1 2838   0.333   2.423   1.570 -2.8024  0.3104 -1.7440
  899SOL    HW2 2839   0.365   2.439   1.422  3.0235 -0.2081 -0.7922
  900SOL     OW 2840   2.389   2.079   1.349  0.5632  0.6828 -0.0777
  900SOL    HW1 2841   2.338   2.014   1.397 -0.0517  0.7155 -0.6749
  900SOL    HW2 2842   2.393   2.155   1.408  0.3623  0.4960  0.1790
  901SOL     OW 2843   0.229   1.478   2.300 -0.0929 -0.4735  0.5062
  901SOL    HW1 2844   0.152   1.495   2.354 -0.2023  0.0722  0.1900
  901SOL    HW2 2845   0.254   1.388   2.321 -1.4832 -1.0596 -0.1918
  902SOL     OW 2846   0.424   2.540   3.367  0.2583 -0.4647  0.1576
  902SOL    HW1 2847   0.412   2.481   3.292 -1.1374  0.4520 -0.3706
  902SOL    HW2 2848   0.357   2.513   3.430 -0.3959  0.5443 -0.0909
  903SOL     OW 2849   3.721   0.746   2.551  0.4402  0.5554  0.9616
  903SOL    HW1 2850   3.643   0.716   2.503  0.6733  1.3236  0.0697
  903SOL    HW2 2851   3.690   0.762   2.640  0.0529 -1.1641  1.1669
  904SOL     OW 2852   1.700   3.616   2.375 -0.8426  0.1338 -1.0053
  904SOL    HW1 2853   1.770   3.554   2.396 -1.0392  0.3308  0.3039
  904SOL    HW2 2854   1.664   3.584   2.292 -0.0588 -0.7258 -1.0263
  905SOL     OW 2855   0.376   2.107   3.373  0.2823 -0.3768 -0.3554
  905SOL    HW1 2856   0.372   2.051   3.295  2.2921 -2.9212  1.1625
  905SOL    HW2 2857   0.440   2.063   3.430 -1.6193  0.9139  3.0670
  906SOL     OW 2858   2.287   3.358   2.016  0.2248  0.0931  0.1256
  906SOL    HW1 2859   2.247   3.420   2.077 -3.1008 -1.5889 -0.1032
  906SOL    HW2 2860   2.249   3.380   1.931  0.2601 -1.2023 -0.2474
  907SOL     OW 2861   1.275   1.245   3.649  0.3034 -0.0096  0.0340
  907SOL    HW1 2862   1.212   1.200   3.593  1.3253 -1.7426  0.2071
  907SOL    HW2 2863   1.301   1.322   3.599 -0.1801 -0.5363 -1.0582
  908SOL     OW 2864   1.893   2.516   0.575  0.1995  0.4048  0.4234
  908SOL    HW1 2865   1.892   2.599   0.623  1.5718  0.7042 -0.0140
  908SOL    HW2 2866   1.809   2.514   0.529 -1.0845  0.1883  2.6192
  909SOL     OW 2867   0.024   1.655   3.220 -0.6781  0.6467  0.2321
  909SOL    HW1 2868  -0.044   1.612   3.271 -1.6727  0.8795 -0.8711
  909SOL    HW2 2869   0.072   1.582   3.179 -1.7170  0.5411 -0.8194
  910SOL     OW 2870   2.275   0.161   2.894  1.0251  0.5656 -0.2922
  910SOL    HW1 2871   2.241   0.170   2.805  1.7699  0.6409 -0.5762
  910SOL    HW2 2872   2.199   0.137   2.947  0.7165 -0.2923 -1.0886
  911SOL     OW 2873   1.543   1.310   1.723 -0.1249 -0.2745  0.1818
  911SOL    HW1 2874   1.516   1.241   1.663  0.9661  0.9059 -1.7482
  911SOL    HW2 2875   1.638   1.313   1.716 -0.1115  1.0738  0.5986
  912SOL     OW 2876   1.993   2.594   0.310 -0.8703  0.0514 -0.2276
  912SOL    HW1 2877   1.996   2.543   0.229  0.8902 -0.1743 -0.0682
  912SOL    HW2 2878   1.952   2.535   0.373 -0.1215 -0.6630 -0.3914
  913SOL     OW 2879   2.351   2.536   3.489 -0.6755  0.0182  0.1648
  913SOL    HW1 2880   2.318   2.575   3.570  0.6770  1.3025  0.1440
  913SOL    HW2 2881   2.280   2.479   3.459 -1.1991 -0.5224  2.2511
  914SOL     OW 2882   3.462   2.811   1.731  0.0645 -0.3505 -0.2047
  914SOL    HW1 2883   3.405   2.878   1.768  0.7145  0.2418 -0.2697
  914SOL    HW2 2884   3.403   2.738   1.710 -0.4397 -0.3523  1.1580
  915SOL     OW 2885   0.532   3.736   2.035  0.0985 -0.5045  0.5371
  915SOL    HW1 2886   0.600   3.668   2.042  0.5419 -0.2908 -1.1538
  915SOL    HW2 2887   0.494   3.741   2.123  3.3908  0.5358  2.0639
  916SOL     OW 2888   3.149   2.295   2.671 -0.6489  0.1965 -0.3852
  916SOL    HW1 2889   3.153   2.219   2.728  2.3351 -0.0179 -0.7045
  916SOL    HW2 2890   3.213   2.357   2.708 -0.1583  0.9083 -2.2628
  917SOL     OW 2891   2.905   0.623   3.079 -0.1543  0.8132 -0.0219
  917SOL    HW1 2892   2.881   0.644   2.988  0.0106  0.1840 -0.2167
  917SOL    HW2 2893   2.870   0.535   3.092  0.0466  0.8044  0.4461
  918SOL     OW 2894   2.813   3.143   3.565  0.1762  0.1255 -0.3989
  918SOL    HW1 2895   2.757   3.158   3.488 -1.0331  2.3133  0.7963
  918SOL    HW2 2896   2.890   3.198   3.549 -0.9562  2.1649  0.7270
  919SOL     OW 2897   3.089   0.552   0.475  0.1847  0.1110 -0.8108
  919SOL    HW1 2898   3.045   0.468   0.468 -0.9771  0.7150 -1.0792
  919SOL    HW2 2899   3.121   0.556   0.565  2.1968 -1.5241 -1.3993
  920SOL     OW 2900   0.403   1.898   2.169  0.0766 -0.0651 -0.7077
  920SOL    HW1 2901   0.488   1.942   2.166  0.4878 -0.6447  0.8498
  920SOL    HW2 2902   0.412   1.837   2.243 -2.3978  1.3587  0.8832
  921SOL     OW 2903   0.805   2.891   1.062 -0.5217  0.1722  0.0493
  921SOL    HW1 2904   0.738   2.929   1.005 -1.2488 -0.9339  0.1411
  921SOL    HW2 2905   0.756   2.848   1.132  0.0078 -3.5299 -1.5944
  922SOL     OW 2906   0.139   2.488   0.453  0.0481  0.0793  0.3749
  922SOL    HW1 2907   0.188   2.542   0.390  1.4471 -0.7806  0.6820
  922SOL    HW2 2908   0.056   2.471   0.409  0.9164 -0.3428 -1.1863
  923SOL     OW 2909   2.629   2.861   3.310 -0.2056 -0.4188  0.0212
  923SOL    HW1 2910   2.645   2.767   3.304  0.4565 -0.4733  1.9954
  923SOL    HW2 2911   2.559   2.869   3.375 -0.7239  0.4454 -0.6151
  924SOL     OW 2912   1.259   2.188   2.567  0.6314  0.7449 -0.1777
  924SOL    HW1 2913   1.334   2.191   2.508 -2.2043  1.4814 -4.1182
  924SOL    HW2 2914   1.258   2.275   2.609  0.7800  1.5760 -1.8138
  925SOL     OW 2915   3.187   0.737   3.030 -0.1493 -0.2679 -0.4963
  925SOL    HW1 2916   3.114   0.791   3.059  0.4139  0.1601  0.1421
  925SOL    HW2 2917   3.155   0.647   3.038 -0.5952 -0.0867 -0.2034
  926SOL     OW 2918   0.694   0.335   1.205 -0.5266 -0.3025  0.0296
  926SOL    HW1 2919   0.659   0.246   1.215  2.4649 -1.3658  3.3627
  926SOL    HW2 2920   0.686   0.374   1.292  1.0894  1.5041 -0.5504
  927SOL     OW 2921   0.358   0.750   3.704 -0.1760  0.1977 -0.5413
  927SOL    HW1 2922   0.309   0.780   3.628  0.4861  0.7813 -0.7531
  927SOL    HW2 2923   0.293   0.705   3.759 -1.5757  3.2863  0.5219
  928SOL     OW 2924   3.017   3.348   3.517 -0.5190  0.5207  0.1485
  928SOL    HW1 2925   3.103   3.383   3.541  1.5514 -3.0461 -1.3046
  928SOL    HW2 2926   2.988   3.404   3.445  0.8640  1.4514  0.2770
  929SOL     OW 2927   0.956   3.652   1.700 -0.3426  0.5467 -0.2579
  929SOL    HW1 2928   1.007   3.630   1.622  1.4680  0.0380  1.0053
  929SOL    HW2 2929   0.871   3.611   1.686  0.6055 -1.2162 -1.1033
  930SOL     OW 2930   3.268   1.425   2.881 -0.1649 -0.2067  0.1273
  930SOL    HW1 2931   3.279   1.330   2.881 -2.0091 -0.5173 -2.3083
  930SOL    HW2 2932   3.234   1.445   2.968  3.8163 -1.1229  2.1400
  931SOL     OW 2933   0.163   3.509   1.878  0.4243  0.3923  0.4429
  931SOL    HW1 2934   0.188   3.418   1.862  2.3754  0.4934  2.4014
  931SOL    HW2 2935   0.233   3.560   1.837  0.1174  0.9468  0.6068
  932SOL     OW 2936   2.221   1.960   1.523  0.0116 -0.4814  0.5226
  932SOL    HW1 2937   2.132   1.944   1.493 -0.5250 -1.6325  2.5435
  932SOL    HW2 2938   2.271   1.887   1.485 -0.5082 -1.4917  1.7103
  933SOL     OW 2939   0.679   1.183   1.566 -0.0183  0.2910 -0.1981
  933SOL    HW1 2940   0.732   1.262   1.577 -0.7253  0.5248  2.0073
  933SOL    HW2 2941   0.700   1.129   1.642 -0.2714 -1.2312 -1.1754
  934SOL     OW 2942   2.217   1.323   2.550  0.3311  0.1380  0.3102
  934SOL    HW1 2943   2.266   1.395   2.588  0.5159 -0.0760  0.4827
  934SOL    HW2 2944   2.142   1.311   2.610  0.6233 -0.2002  0.6165
  935SOL     OW 2945  -0.032   0.990   0.637 -0.2166  0.3306  0.6015
  935SOL    HW1 2946   0.052   0.959   0.670  0.3690  1.5116  0.2573
  935SOL    HW2 2947  -0.013   1.074   0.596 -1.3881  0.1372 -0.4105
  936SOL     OW 2948   2.788   0.300   1.259  0.0902  0.3732 -0.4363
  936SOL    HW1 2949   2.754   0.263   1.341  1.8602 -1.1142 -0.2885
  936SOL    HW2 2950   2.735   0.262   1.190 -1.4189  1.6380 -0.0236
  937SOL     OW 2951   3.483   0.459   0.249  0.1534  0.0859  0.1206
  937SOL    HW1 2952   3.517   0.446   0.338  1.1261  1.2549 -0.0524
  937SOL    HW2 2953   3.390   0.477   0.261 -0.0867 -1.4082  0.7561
  938SOL     OW 2954   0.559   1.507   2.091  0.7703 -0.1013  0.3729
  938SOL    HW1 2955   0.613   1.568   2.041  0.1798 -1.1111 -1.5940
  938SOL    HW2 2956   0.469   1.528   2.064  0.5656 -1.9072 -0.4906
  939SOL     OW 2957   2.511   1.996   0.733  0.7036  0.0414 -0.2214
  939SOL    HW1 2958   2.597   1.980   0.771  0.0652 -1.0854  0.8096
  939SOL    HW2 2959   2.498   1.923   0.672  0.4006  0.1089 -0.2399
  940SOL     OW 2960   2.039   2.238   1.481  0.1405  0.7136 -0.3790
  940SOL    HW1 2961   2.025   2.332   1.486  1.9828  0.9938  0.2891
  940SOL    HW2 2962   2.073   2.223   1.393  2.3403  1.1066  0.3403
  941SOL     OW 2963   1.975   1.360   2.669 -0.0735  0.3855  0.3995
  941SOL    HW1 2964   1.968   1.319   2.582 -0.1018  0.0445  0.5600
  941SOL    HW2 2965   1.896   1.332   2.714  0.7776 -0.9000  1.1446
  942SOL     OW 2966   0.324   2.938   2.560  0.0251  0.3926 -0.4300
  942SOL    HW1 2967   0.361   2.979   2.482 -1.6364 -0.9113 -1.9890
  942SOL    HW2 2968   0.399   2.925   2.618  1.4945  0.4647 -2.2189
  943SOL     OW 2969   2.479   2.692   0.979  0.1988 -0.3976 -0.1074
  943SOL    HW1 2970   2.532   2.613   0.966 -1.1741 -1.6646  1.3860
  943SOL    HW2 2971   2.390   2.664   0.957 -0.1787  1.0302 -0.4510
  944SOL     OW 2972   2.643   2.271   3.041 -0.1123 -0.4296  0.3491
  944SOL    HW1 2973   2.562   2.322   3.037 -0.5023 -0.9874  0.9948
  944SOL    HW2 2974   2.614   2.181   3.054  0.5474 -0.9511 -1.5192
  945SOL     OW 2975   3.571   0.967   1.637  0.0729 -0.3027  0.4717
  945SOL    HW1 2976   3.547   1.053   1.603  0.1427 -0.2510  0.5534
  945SOL    HW2 2977   3.637   0.985   1.704  3.0320 -0.6458 -2.1106
  946SOL     OW 2978   1.010   2.499   1.414 -0.5229 -0.7165  0.2435
  946SOL    HW1 2979   0.973   2.499   1.325  0.3315  0.0122 -0.1254
  946SOL    HW2 2980   0.970   2.575   1.457 -0.1002 -0.4136  0.1113
  947SOL     OW 2981   2.013   0.861   2.175 -0.0115  0.6060 -0.4066
  947SOL    HW1 2982   2.105   0.835   2.166  0.2227  1.8485 -2.4722
  947SOL    HW2 2983   1.982   0.868   2.084 -2.3479 -0.4127  0.2586
  948SOL     OW 2984   3.661   0.895   2.836  0.6493  0.4634  0.3861
  948SOL    HW1 2985   3.568   0.913   2.851  0.8417  1.3210  0.5873
  948SOL    HW2 2986   3.694   0.868   2.922  0.4736 -0.3666  0.1974
  949SOL     OW 2987   3.354   1.058   3.648  0.7648 -0.1417 -0.2109
  949SOL    HW1 2988   3.385   1.097   3.566 -0.9008 -0.8893 -1.2717
  949SOL    HW2 2989   3.395   1.110   3.717  2.6603  0.1658 -1.4999
  950SOL     OW 2990   2.723   0.806   3.319  0.0710 -0.2017  0.7529
  950SOL    HW1 2991   2.764   0.892   3.332 -0.6522  0.3285 -0.3422
  950SOL    HW2 2992   2.783   0.744   3.360  1.5239  0.6519 -0.0025
  951SOL     OW 2993   2.632   0.441   3.111  0.8197  0.4769  0.1681
  951SOL    HW1 2994   2.584   0.387   3.048  0.0082  1.8921 -0.4832
  951SOL    HW2 2995   2.652   0.382   3.183 -0.5312 -0.5500 -0.2598
  952SOL     OW 2996   1.977   3.324   2.844  0.3573 -0.0119  0.5136
  952SOL    HW1 2997   2.057   3.297   2.888 -1.1441 -1.5419  2.4763
  952SOL    HW2 2998   1.987   3.292   2.754  1.1602 -1.8739  1.2311
  953SOL     OW 2999   1.096   1.741   0.977  0.3774 -0.7306  0.0357
  953SOL    HW1 3000   1.130   1.825   0.946 -1.0575 -0.2096 -0.2119
  953SOL    HW2 3001   1.070   1.758   1.068  1.1340 -1.2418  0.3640
  954SOL     OW 3002   2.185   3.629   3.601  0.0185 -0.0244  0.0703
  954SOL    HW1 3003   2.205   3.559   3.663  1.8440  0.3002 -0.0908
  954SOL    HW2 3004   2.097   3.658   3.625 -0.2527 -1.4909  0.9642
  955SOL     OW 3005   2.292   0.579   1.408  0.1046 -0.3876 -0.2686
  955SOL    HW1 3006   2.209   0.581   1.360  0.0166 -0.9830 -0.1471
  955SOL    HW2 3007   2.354   0.542   1.346  0.0333 -0.9771  0.0030
  956SOL     OW 3008   1.939   1.226   2.439 -0.1571  0.9692 -0.3096
  956SOL    HW1 3009   1.966   1.135   2.440  1.8380  1.5046 -0.2003
  956SOL    HW2 3010   1.857   1.227   2.389  0.8940 -0.5976 -2.2092
  957SOL     OW 3011   0.121   3.231   1.128  0.1682 -0.3470 -0.2410
  957SOL    HW1 3012   0.043   3.199   1.082 -0.4448 -1.5726  1.5426
  957SOL    HW2 3013   0.088   3.258   1.214  1.5496  0.1162  0.1568
  958SOL     OW 3014   3.666   3.551   0.939 -0.4393 -0.2422  0.1949
  958SOL    HW1 3015   3.635   3.469   0.899  1.2873 -1.2689  0.8235
  958SOL    HW2 3016   3.721   3.591   0.873  2.1437 -1.7742  1.2369
  959SOL     OW 3017   2.737   0.367   2.672  0.1376  0.0134  0.1939
  959SOL    HW1 3018   2.657   0.401   2.712  0.5507 -0.7208  1.7490
  959SOL    HW2 3019   2.807   0.421   2.708  0.3803  0.5670 -1.0597
  960SOL     OW 3020   3.274   2.828   1.348  0.3974 -0.1303 -0.2741
  960SOL    HW1 3021   3.237   2.780   1.273  0.5161  0.6942 -0.8694
  960SOL    HW2 3022   3.208   2.818   1.416 -0.3639  0.2543 -0.9270
  961SOL     OW 3023   0.712   0.317   1.956  0.1738  0.3862  0.8233
  961SOL    HW1 3024   0.779   0.253   1.930 -0.1395 -0.0735  1.1364
  961SOL    HW2 3025   0.649   0.267   2.007  0.1095  1.0174  1.3805
  962SOL     OW 3026   0.623   0.524   0.763 -0.3881 -0.7310  0.0395
  962SOL    HW1 3027   0.639   0.613   0.730 -1.2317 -0.0290  1.4050
  962SOL    HW2 3028   0.604   0.472   0.685 -2.7329  0.9375 -0.6082
  963SOL     OW 3029   2.259   3.650   1.110 -0.0050 -0.1908  0.7539
  963SOL    HW1 3030   2.208   3.728   1.130  0.9747  0.8281 -0.5845
  963SOL    HW2 3031   2.254   3.642   1.015  2.4056  0.0245  0.5481
  964SOL     OW 3032   2.701   2.909   3.687  0.2376  0.1898  0.2638
  964SOL    HW1 3033   2.733   2.989   3.645  0.8644  0.8336  1.8691
  964SOL    HW2 3034   2.627   2.882   3.633  1.6488  0.3186 -1.8639
  965SOL     OW 3035   0.355   2.406   3.118 -0.5415 -0.7964  0.2851
  965SOL    HW1 3036   0.369   2.318   3.081  0.7522 -0.2516 -0.6215
  965SOL    HW2 3037   0.276   2.437   3.075 -0.1246 -0.9251 -0.6100
  966SOL     OW 3038   0.305   2.870   3.631 -0.3066  0.0057  0.1838
  966SOL    HW1 3039   0.238   2.833   3.574 -0.0606  0.9452 -0.7617
  966SOL    HW2 3040   0.257   2.901   3.708 -0.6092 -1.5107  0.6371
  967SOL     OW 3041   3.195   3.572   2.991 -0.1540  0.6411  0.0785
  967SOL    HW1 3042   3.141   3.497   3.014  2.7177 -1.6195  0.1157
  967SOL    HW2 3043   3.233   3.601   3.074  1.5611 -0.2958 -0.3331
  968SOL     OW 3044   3.246   1.796   2.453 -0.0177  0.6971  0.2026
  968SOL    HW1 3045   3.234   1.770   2.545  1.5971  0.2915  0.3355
  968SOL    HW2 3046   3.267   1.889   2.457 -0.2993  0.7589  0.2200
  969SOL     OW 3047   0.152   2.474   1.899  0.1461  0.8757 -0.1448
  969SOL    HW1 3048   0.164   2.516   1.814 -0.9861  0.6542 -0.4313
  969SOL    HW2 3049   0.074   2.515   1.936  0.9668  1.3839  1.0585
  970SOL     OW 3050   2.275   2.513   0.949 -0.7371  0.0658  0.0634
  970SOL    HW1 3051   2.252   2.526   1.041 -0.1138  0.5755  0.1521
  970SOL    HW2 3052   2.301   2.421   0.943 -1.5415 -0.1811  0.2241
  971SOL     OW 3053   2.182   0.629   2.604  0.5288  0.1494  0.6933
  971SOL    HW1 3054   2.098   0.655   2.566  1.1009 -0.5140 -1.1292
  971SOL    HW2 3055   2.167   0.630   2.698 -1.7398 -0.5900  0.4067
  972SOL     OW 3056   2.431   0.625   1.638  0.4736  0.5579  0.1905
  972SOL    HW1 3057   2.492   0.692   1.607  1.5857  0.1824  1.4841
  972SOL    HW2 3058   2.389   0.593   1.559  2.6038  0.2190 -0.8878
  973SOL     OW 3059   2.398   3.736   3.506 -0.1105 -0.0019 -0.2802
  973SOL    HW1 3060   2.471   3.678   3.528 -0.1985  0.1959  0.5817
  973SOL    HW2 3061   2.324   3.702   3.557 -0.2618  0.6153 -0.0774
  974SOL     OW 3062   0.392   1.140   2.401 -0.2078 -0.1316 -1.0040
  974SOL    HW1 3063   0.362   1.089   2.325 -0.8271 -1.8424  0.3406
  974SOL    HW2 3064   0.312   1.156   2.452  0.4268 -0.4656  0.1248
  975SOL     OW 3065   2.894   0.909   2.333 -0.1681  0.1909  0.3555
  975SOL    HW1 3066   2.948   0.845   2.380  1.2490 -0.5563 -2.0928
  975SOL    HW2 3067   2.869   0.864   2.252 -1.6318  1.7510 -0.1206
  976SOL     OW 3068   0.158   2.257   3.257 -0.2025  0.1209  0.6952
  976SOL    HW1 3069   0.222   2.219   3.317  0.6313  1.1645  0.4898
  976SOL    HW2 3070   0.204   2.331   3.216 -1.9102  1.6683  1.4495
  977SOL     OW 3071   3.366   1.988   0.227 -0.3990 -0.3810 -0.3538
  977SOL    HW1 3072   3.421   2.028   0.160  1.0858 -0.1605  0.9389
  977SOL    HW2 3073   3.278   1.986   0.188  0.3329  0.0979 -2.1242
  978SOL     OW 3074   0.990   1.165   2.795  0.3234  0.2151 -0.6624
  978SOL    HW1 3075   0.962   1.195   2.708  0.6099  1.7741 -0.2493
  978SOL    HW2 3076   1.046   1.236   2.827 -3.6595  2.1795  2.8431
  979SOL     OW 3077   1.650   0.697   0.497  0.5343 -0.0980 -0.1099
  979SOL    HW1 3078   1.729   0.729   0.540  0.5417 -1.3534  0.8598
  979SOL    HW2 3079   1.666   0.604   0.483 -1.0937 -0.5481  0.8446
  980SOL     OW 3080   0.797   2.293   1.817 -0.1482  0.2194  0.6023
  980SOL    HW1 3081   0.740   2.299   1.741  1.8208  0.3845 -0.9506
  980SOL    HW2 3082   0.738   2.296   1.892 -2.0830  1.1690 -0.8791
  981SOL     OW 3083   0.719   2.496   3.633  0.4202  0.4105  0.5875
  981SOL    HW1 3084   0.684   2.572   3.586  1.5172  0.3926 -0.3129
  981SOL    HW2 3085   0.814   2.500   3.618  0.4710 -1.3298  0.2052
  982SOL     OW 3086   3.438   3.454   2.184  0.2386  0.4776 -0.2016
  982SOL    HW1 3087   3.433   3.388   2.253  0.5743  0.0704 -0.5670
  982SOL    HW2 3088   3.411   3.409   2.104 -3.1318  1.6657  0.0850
  983SOL     OW 3089   1.263   0.260   3.010  0.0596 -0.2573 -0.2501
  983SOL    HW1 3090   1.307   0.336   2.972 -1.3675  0.6441 -0.1966
  983SOL    HW2 3091   1.286   0.187   2.953  1.8129  0.1030 -0.0643
  984SOL     OW 3092   2.387   3.402   1.611  0.0432  0.2975  0.2857
  984SOL    HW1 3093   2.314   3.437   1.662 -0.2826  1.2187 -0.7710
  984SOL    HW2 3094   2.381   3.447   1.526 -0.6987 -2.6384 -1.3763
  985SOL     OW 3095   3.484   0.342   1.909 -0.0560  0.2786 -0.5638
  985SOL    HW1 3096   3.438   0.412   1.956  0.7216  1.4094 -1.4307
  985SOL    HW2 3097   3.415   0.279   1.888 -0.7608  0.7140  0.3454
  986SOL     OW 3098   3.086   0.116   3.440 -0.1738 -0.1061  0.3330
  986SOL    HW1 3099   3.054   0.081   3.356  0.7755 -1.3694  0.4653
  986SOL    HW2 3100   3.175   0.146   3.421 -0.3547  0.6469  0.6457
  987SOL     OW 3101   3.173   3.051   1.115  0.4935  0.2611 -0.6712
  987SOL    HW1 3102   3.122   2.983   1.069 -1.9267 -0.6259  2.8984
  987SOL    HW2 3103   3.121   3.131   1.105  0.9298  0.5075 -0.9942
  988SOL     OW 3104   3.049   1.969   2.122  0.4715  0.9522  0.0961
  988SOL    HW1 3105   3.139   1.951   2.149  0.3579  1.4490  0.8479
  988SOL    HW2 3106   2.998   1.897   2.161  0.3669  1.4280  0.8580
  989SOL     OW 3107   2.677   0.753   2.520  0.2107 -0.0095 -0.6785
  989SOL    HW1 3108   2.761   0.786   2.489  0.6153 -1.4137 -1.1294
  989SOL    HW2 3109   2.619   0.829   2.518  1.5723  1.0983  0.0953
  990SOL     OW 3110   3.277   2.609   1.879 -0.3959 -0.0246 -0.7386
  990SOL    HW1 3111   3.218   2.668   1.924  1.1513  1.7416 -0.9085
  990SOL    HW2 3112   3.238   2.596   1.793 -0.8193  0.6681 -0.6559
  991SOL     OW 3113   1.703   1.660   0.327 -0.1097 -0.0911 -1.0460
  991SOL    HW1 3114   1.787   1.615   0.329  0.6564  1.2209 -1.7215
  991SOL    HW2 3115   1.724   1.746   0.290 -1.7503  0.2672 -1.2027
  992SOL     OW 3116   0.375   3.532   0.748  0.1232  0.8160  0.0956
  992SOL    HW1 3117   0.458   3.565   0.714 -1.7209  3.0385 -2.6924
  992SOL    HW2 3118   0.400   3.463   0.809  3.9412 -0.4370 -2.5188
  993SOL     OW 3119   1.630   0.613   2.993  0.4804 -0.3150 -1.1311
  993SOL    HW1 3120   1.562   0.547   3.004  0.7440 -0.1026  4.2663
  993SOL    HW2 3121   1.585   0.696   3.008  1.2056  0.2206 -1.8342
  994SOL     OW 3122   1.936   0.997   0.276  0.3547  0.0312  0.1775
  994SOL    HW1 3123   1.850   1.017   0.239  0.4474  1.5309  0.7141
  994SOL    HW2 3124   1.974   0.933   0.215 -0.2649  0.9738 -1.2589
  995SOL     OW 3125   2.333   2.167   3.133  0.2625  0.2037  0.0232
  995SOL    HW1 3126   2.266   2.122   3.184  1.6094 -0.8123  0.9708
  995SOL    HW2 3127   2.367   2.235   3.192  1.7177 -0.8716  0.4657
  996SOL     OW 3128   1.173   2.059   3.034 -0.0151  0.4034 -0.5167
  996SOL    HW1 3129   1.187   2.003   2.958 -1.2519 -0.4611 -0.1427
  996SOL    HW2 3130   1.090   2.104   3.017 -1.1571 -0.9962  0.9575
  997SOL     OW 3131   2.852   3.085   2.445 -0.2528 -0.4783 -0.1687
  997SOL    HW1 3132   2.893   3.010   2.488 -0.4908 -0.6058 -0.1624
  997SOL    HW2 3133   2.782   3.046   2.392 -0.8411 -0.1892  0.3911
  998SOL     OW 3134   2.948   0.664   1.708  0.1696  0.1365  0.2747
  998SOL    HW1 3135   2.929   0.700   1.795 -0.4109  1.3781 -0.3371
  998SOL    HW2 3136   2.870   0.614   1.685  0.5110 -0.5750  0.6551
  999SOL     OW 3137   2.293   3.079   1.316 -0.4578  0.1848 -0.3358
  999SOL    HW1 3138   2.342   3.110   1.240 -0.9058  0.0666 -0.6794
  999SOL    HW2 3139   2.224   3.024   1.279  0.8342 -1.9629  0.3025
 1000SOL     OW 3140   0.790   1.356   1.888 -0.0076 -0.5148  0.2415
 1000SOL    HW1 3141   0.807   1.446   1.914  1.7623 -0.0315 -2.2294
 1000SOL    HW2 3142   0.840   1.303   1.950 -1.9331  0.0432  2.3944
 1001SOL     OW 3143   2.762   0.215   0.677  1.0405 -0.7020  0.0331
 1001SOL    HW1 3144   2.721   0.134   0.646 -0.6796 -0.5029  1.6013
 1001SOL    HW2 3145   2.770   0.202   0.772 -0.7402  1.5417  0.5590
 1002SOL     OW 3146   1.127   0.446   3.659 -0.0588 -0.0585  0.3603
 1002SOL    HW1 3147   1.150   0.448   3.566 -0.1141 -0.4892  0.3378
 1002SOL    HW2 3148   1.135   0.354   3.684  0.1516  0.0876  0.8324
 1003SOL     OW 3149   2.509   0.825   0.405 -0.7349  0.3794  0.0761
 1003SOL    HW1 3150   2.543   0.843   0.317  0.1927  2.4266  0.7904
 1003SOL    HW2 3151   2.426   0.779   0.390 -0.7335  0.9189 -1.8666
 1004SOL     OW 3152   0.477   1.864   1.342 -0.1783  0.3144 -0.5294
 1004SOL    HW1 3153   0.434   1.941   1.305  1.6717  1.0534 -1.2299
 1004SOL    HW2 3154   0.567   1.869   1.311  0.3049 -1.4722  0.4466
 1005SOL     OW 3155   2.533   1.386   0.939 -0.3356  0.3504  0.2508
 1005SOL    HW1 3156   2.616   1.428   0.962  0.1078 -0.6203  0.4835
 1005SOL    HW2 3157   2.497   1.440   0.869  0.1967  1.1294  0.5670
 1006SOL     OW 3158   0.572   0.088   1.669  0.0676 -0.1917  0.2065
 1006SOL    HW1 3159   0.575   0.053   1.580  3.1338  1.2622 -0.4159
 1006SOL    HW2 3160   0.522   0.169   1.662 -0.3277 -0.4517 -0.0092
 1007SOL     OW 3161   3.515   2.129   0.581 -0.1228  0.0284  0.7812
 1007SOL    HW1 3162   3.465   2.205   0.611 -0.4292  0.1580 -0.0145
 1007SOL    HW2 3163   3.472   2.054   0.621 -1.9261  0.0044 -1.0351
 1008SOL     OW 3164   0.714   1.888   2.453  0.1291  0.1480 -0.7085
 1008SOL    HW1 3165   0.806   1.863   2.446 -0.3516 -2.5079  0.8585
 1008SOL    HW2 3166   0.715   1.980   2.479  2.3015  0.2816 -1.1377
 1009SOL     OW 3167   2.176   1.827   2.028  0.2721 -0.2661  0.2334
 1009SOL    HW1 3168   2.185   1.801   2.119  2.3912  0.3976  0.2755
 1009SOL    HW2 3169   2.082   1.828   2.012 -0.0984 -2.7241  1.7050
 1010SOL     OW 3170   3.266   2.137   1.615 -0.4086 -0.2630 -0.1462
 1010SOL    HW1 3171   3.265   2.069   1.682 -0.9887  1.1254  1.3417
 1010SOL    HW2 3172   3.332   2.200   1.645 -1.3516  0.8599 -0.3417
 1011SOL     OW 3173   3.028   3.059   0.081 -0.5966  0.3962 -0.0323
 1011SOL    HW1 3174   2.950   3.037   0.132  0.1337 -0.7144  0.6571
 1011SOL    HW2 3175   2.996   3.071  -0.008 -1.4405 -0.8362  0.0861
 1012SOL     OW 3176   1.518   0.517   3.466 -0.2119  0.2821 -0.0010
 1012SOL    HW1 3177   1.475   0.438   3.498 -0.7073  0.5188 -0.0672
 1012SOL    HW2 3178   1.465   0.589   3.501 -0.9430  0.5455 -1.5619
 1013SOL     OW 3179   0.240   3.206   1.551  0.3736  0.3978  0.2388
 1013SOL    HW1 3180   0.228   3.157   1.632  0.3015 -0.7402 -0.4412
 1013SOL    HW2 3181   0.225   3.142   1.481  2.0238  0.9437 -0.6758
 1014SOL     OW 3182   0.945   0.932   2.411  0.2362 -0.1027  0.6240
 1014SOL    HW1 3183   1.008   0.938   2.483  0.8236 -1.0764  0.2122
 1014SOL    HW2 3184   0.861   0.918   2.453  0.6689 -1.3567  1.1212
 1015SOL     OW 3185   2.232   3.646   0.815 -0.2841  0.0839  0.7128
 1015SOL    HW1 3186   2.296   3.702   0.771 -2.4865  1.4191 -1.0106
 1015SOL    HW2 3187   2.153   3.653   0.761 -2.5770  0.2114  3.8300
 1016SOL     OW 3188   3.567   0.181   0.159 -0.4926 -0.1015 -0.2362
 1016SOL    HW1 3189   3.519   0.127   0.222  2.1746 -1.6843  0.6176
 1016SOL    HW2 3190   3.543   0.271   0.181 -1.5202 -0.7303  1.4098
 1017SOL     OW 3191   1.098   3.416   0.950 -0.4405  0.0965 -0.3621
 1017SOL    HW1 3192   1.088   3.333   0.997 -1.4823  1.2415  1.5845
 1017SOL    HW2 3193   1.174   3.458   0.991 -0.3352  0.4075 -0.8674
 1018SOL     OW 3194   1.014   1.698   2.069  0.8578 -0.1053 -0.1037
 1018SOL    HW1 3195   1.083   1.674   2.008  0.3641  0.8941 -1.0982
 1018SOL    HW2 3196   1.007   1.793   2.061 -0.4320 -0.1606  0.1800
 1019SOL     OW 3197   1.411   1.165   0.862 -0.4436  0.6853 -0.2031
 1019SOL    HW1 3198   1.435   1.190   0.772 -1.1632 -0.1781 -0.6520
 1019SOL    HW2 3199   1.486   1.192   0.915 -0.5953  2.4922 -0.8403
 1020SOL     OW 3200   1.831   2.492   1.352 -0.2617  0.4569  0.1000
 1020SOL    HW1 3201   1.876   2.531   1.427 -0.9914  1.8414 -0.1511
 1020SOL    HW2 3202   1.893   2.501   1.280 -0.9632  2.6236 -0.3135
 1021SOL     OW 3203   1.293   1.108   2.197  0.1707  0.0359  0.0875
 1021SOL    HW1 3204   1.346   1.150   2.130 -0.0390  2.1295  1.1724
 1021SOL    HW2 3205   1.216   1.076   2.150  0.7212  0.1220 -0.9050
 1022SOL     OW 3206   1.759   1.053   1.872  0.1816  0.4998 -0.0635
 1022SOL    HW1 3207   1.808   1.128   1.903  0.3532  0.5004 -0.3266
 1022SOL    HW2 3208   1.761   1.061   1.776  1.6671 -0.7373 -0.1849
 1023SOL     OW 3209   0.799   1.694   3.223  0.3273 -0.3172 -0.4115
 1023SOL    HW1 3210   0.882   1.734   3.249  0.1661 -0.3235  0.1320
 1023SOL    HW2 3211   0.765   1.654   3.304 -1.6392  2.2159  0.1592
 1024SOL     OW 3212   1.528   1.510   0.171 -0.2379  0.2980  0.4076
 1024SOL    HW1 3213   1.600   1.542   0.226 -0.7455  0.6863  0.8540
 1024SOL    HW2 3214   1.494   1.589   0.129 -1.1295  0.2757  1.0676
 1025SOL     OW 3215   2.090   0.149   1.127  0.1643 -0.1358 -0.0906
 1025SOL    HW1 3216   2.136   0.222   1.085  0.2088  0.3518  0.7836
 1025SOL    HW2 3217   2.042   0.107   1.055  1.7202 -0.4908 -0.9713
 1026SOL     OW 3218   2.453   1.141   2.419  0.4501 -0.5546 -0.4571
 1026SOL    HW1 3219   2.364   1.145   2.383  0.2300 -1.8991 -0.1024
 1026SOL    HW2 3220   2.445   1.178   2.507  0.1084 -1.2158 -0.2031
 1027SOL     OW 3221   1.963   2.535   1.596  0.2082 -0.7162 -0.3852
 1027SOL    HW1 3222   1.875   2.518   1.631 -0.0687  1.3356  0.0680
 1027SOL    HW2 3223   2.011   2.572   1.670  0.7313  0.3251 -1.2182
 1028SOL     OW 3224   3.262   3.030   0.707  0.3458  0.4772  0.2145
 1028SOL    HW1 3225   3.302   3.001   0.788 -0.3493  0.6850  0.6399
 1028SOL    HW2 3226   3.194   2.965   0.690  0.0333  0.8157  0.1675
 1029SOL     OW 3227   2.211   2.058   3.376  0.2141  0.5640 -0.6184
 1029SOL    HW1 3228   2.148   1.995   3.413  0.7418 -0.0962 -0.8304
 1029SOL    HW2 3229   2.210   2.132   3.438 -0.9449  0.6726 -0.7473
 1030SOL     OW 3230   0.140   1.880   0.285 -0.1920 -0.5276 -0.5014
 1030SOL    HW1 3231   0.155   1.794   0.324 -1.0216  0.4814  2.2203
 1030SOL    HW2 3232   0.179   1.942   0.347 -2.6024  1.2389 -0.6426
 1031SOL     OW 3233   2.935   2.132   2.504 -0.2373 -0.1162  0.9350
 1031SOL    HW1 3234   3.000   2.128   2.435 -1.5608  0.9431 -0.4381
 1031SOL    HW2 3235   2.936   2.223   2.533  0.8832 -0.7173  2.9389
 1032SOL     OW 3236   3.638   2.233   3.045  0.1440 -0.2604 -1.3309
 1032SOL    HW1 3237   3.595   2.318   3.049  1.1842  0.2445  0.0516
 1032SOL    HW2 3238   3.710   2.240   3.108  0.9417 -1.7789 -2.0294
 1033SOL     OW 3239   3.215   3.637   2.356  0.2158  1.0917 -0.1015
 1033SOL    HW1 3240   3.273   3.568   2.324 -2.9495 -1.3558 -1.1283
 1033SOL    HW2 3241   3.170   3.669   2.278 -1.6030  1.0117  0.8414
 1034SOL     OW 3242   0.291   2.358   3.493  0.3132  0.3745  0.3041
 1034SOL    HW1 3243   0.202   2.323   3.492  0.1268  0.8453  0.2616
 1034SOL    HW2 3244   0.346   2.283   3.472 -0.3350  0.7429 -3.4513
 1035SOL     OW 3245   0.804   2.118   3.544  0.1882  0.2593 -0.0036
 1035SOL    HW1 3246   0.798   2.213   3.547  2.8902  0.4947  1.6357
 1035SOL    HW2 3247   0.854   2.100   3.464 -0.9938  0.1353 -0.7270
 1036SOL     OW 3248   0.126   0.453   3.707 -0.3453  0.0504  0.2626
 1036SOL    HW1 3249   0.076   0.520   3.753 -0.1619 -0.6107  1.4702
 1036SOL    HW2 3250   0.079   0.440   3.625 -0.1290  1.9601 -0.2122
 1037SOL     OW 3251   0.218   2.831   2.303 -0.1218  0.4080 -0.2906
 1037SOL    HW1 3252   0.133   2.786   2.304  0.1196 -0.0918  1.3066
 1037SOL    HW2 3253   0.204   2.909   2.357  0.1571  0.9063 -0.9272
 1038SOL     OW 3254   2.109   2.284   0.290 -0.3078  0.1130  0.1763
 1038SOL    HW1 3255   2.081   2.338   0.216 -1.1445  2.2668  1.9138
 1038SOL    HW2 3256   2.205   2.293   0.291 -0.3073  0.2497 -0.4995
 1039SOL     OW 3257   0.807   0.935   3.425  0.2367  0.1002  0.0910
 1039SOL    HW1 3258   0.901   0.915   3.428  0.1320 -0.3543  0.6765
 1039SOL    HW2 3259   0.777   0.920   3.515 -0.2652  0.9198  0.0779
 1040SOL     OW 3260   2.829   1.202   1.784  0.0691  0.6712  0.0823
 1040SOL    HW1 3261   2.870   1.288   1.787 -0.5311  0.9413  1.0481
 1040SOL    HW2 3262   2.888   1.145   1.833 -0.5548  0.9987  1.2335
 1041SOL     OW 3263   2.931   0.349   1.620 -0.1540 -0.4033 -0.3750
 1041SOL    HW1 3264   2.840   0.370   1.602 -0.3957 -1.3177 -0.2303
 1041SOL    HW2 3265   2.935   0.334   1.714  0.6839  2.2139  0.1016
 1042SOL     OW 3266   3.095   2.091   1.431  0.6296 -0.1118 -0.6120
 1042SOL    HW1 3267   3.166   2.089   1.496  0.5650 -0.0677 -0.5390
 1042SOL    HW2 3268   3.054   2.176   1.444 -0.2328 -0.6331  0.2100
 1043SOL     OW 3269   1.690   0.294   2.102 -0.0783 -0.4638 -0.2555
 1043SOL    HW1 3270   1.660   0.203   2.111  0.1630 -0.5029  0.1753
 1043SOL    HW2 3271   1.631   0.344   2.159  0.1434 -0.4287 -0.0550
 1044SOL     OW 3272   1.248   0.728   0.289  0.1270 -0.0740 -0.6705
 1044SOL    HW1 3273   1.328   0.781   0.291  0.0141  0.0650  1.4882
 1044SOL    HW2 3274   1.267   0.660   0.224  2.0889 -0.1405 -0.0888
 1045SOL     OW 3275   1.362   1.565   0.751  0.0754  0.3619  0.6987
 1045SOL    HW1 3276   1.434   1.617   0.716  0.8933 -1.6915 -0.8944
 1045SOL    HW2 3277   1.392   1.538   0.838  1.9832 -1.6609 -0.4843
 1046SOL     OW 3278   3.117   2.790   0.980 -0.2985  0.8722  0.9274
 1046SOL    HW1 3279   3.135   2.723   0.915  1.5673  2.5417 -0.3887
 1046SOL    HW2 3280   3.025   2.812   0.967  0.0088  1.1084 -1.1597
 1047SOL     OW 3281   1.341   1.576   2.781 -0.1952  0.2182 -0.3538
 1047SOL    HW1 3282   1.318   1.555   2.691  1.0205  0.2639 -0.7018
 1047SOL    HW2 3283   1.407   1.645   2.772 -0.3194  0.4650  0.5867
 1048SOL     OW 3284   3.429   3.399   1.652 -0.8521  0.1529 -0.1292
 1048SOL    HW1 3285   3.414   3.421   1.744 -1.0592 -0.8053  0.0704
 1048SOL    HW2 3286   3.381   3.318   1.638 -1.7631  0.8657 -1.3832
 1049SOL     OW 3287   3.734   2.652   2.253  0.4479  0.0550  0.7090
 1049SOL    HW1 3288   3.647   2.655   2.292 -0.7194  0.4496 -1.7618
 1049SOL    HW2 3289   3.777   2.578   2.297 -0.7821  0.3820  2.5778
 1050SOL     OW 3290   2.499   0.212   3.024  0.3992  0.1501  0.4007
 1050SOL    HW1 3291   2.449   0.207   3.106 -1.1655  2.4816 -0.3123
 1050SOL    HW2 3292   2.435   0.195   2.955  0.3864  3.3454 -0.5469
 1051SOL     OW 3293   1.870   2.980   0.429  0.4629 -0.0425 -0.0490
 1051SOL    HW1 3294   1.810   2.999   0.357  1.6287 -0.9914 -1.3241
 1051SOL    HW2 3295   1.919   3.062   0.441  2.0662 -0.6146 -2.1607
 1052SOL     OW 3296   2.037   2.377   2.618  0.1002 -0.5894  0.5090
 1052SOL    HW1 3297   2.029   2.291   2.658  1.8926 -0.3140  1.5760
 1052SOL    HW2 3298   1.955   2.389   2.569 -1.3388 -1.7798  2.4811
 1053SOL     OW 3299   3.353   1.588   1.346 -0.5398 -0.3080 -0.5677
 1053SOL    HW1 3300   3.351   1.563   1.254  2.4749 -1.1113 -0.5201
 1053SOL    HW2 3301   3.263   1.573   1.377 -1.7014  0.2529 -3.3793
 1054SOL     OW 3302   0.811   1.528   2.292  0.4539  0.7617 -0.1574
 1054SOL    HW1 3303   0.752   1.457   2.316  0.7233  0.9967  1.2661
 1054SOL    HW2 3304   0.782   1.554   2.205  0.3128 -1.0343 -0.6866
 1055SOL     OW 3305   0.489   1.573   0.498  0.1442  0.0692 -0.2943
 1055SOL    HW1 3306   0.577   1.602   0.472 -0.1277  0.9518 -0.2468
 1055SOL    HW2 3307   0.466   1.630   0.572 -1.4505  1.5321 -1.8233
 1056SOL     OW 3308   3.377   2.458   2.276  0.1185 -0.7811  0.0402
 1056SOL    HW1 3309   3.326   2.495   2.348  0.8956 -2.8102  1.7506
 1056SOL    HW2 3310   3.415   2.534   2.232 -0.3524  0.5440  1.8025
 1057SOL     OW 3311   0.938   3.278   0.776  0.6180  0.3301 -0.2631
 1057SOL    HW1 3312   1.008   3.342   0.783  1.6755 -0.4942 -2.3280
 1057SOL    HW2 3313   0.901   3.272   0.865  3.0343  0.9238  0.8627
 1058SOL     OW 3314   2.617   0.781   1.518  0.6512  0.3943  0.2304
 1058SOL    HW1 3315   2.682   0.726   1.474 -1.1623 -1.9344  0.2493
 1058SOL    HW2 3316   2.663   0.862   1.536  3.1338 -0.6314 -0.9521
 1059SOL     OW 3317   2.092   1.817   1.714  0.0170 -0.5243 -0.7121
 1059SOL    HW1 3318   2.147   1.882   1.670  0.3896  1.5327  2.4815
 1059SOL    HW2 3319   2.152   1.769   1.771 -0.8384 -1.1576 -0.3205
 1060SOL     OW 3320   3.295   0.343   3.571 -0.2044 -0.4784 -0.1559
 1060SOL    HW1 3321   3.265   0.393   3.496 -0.7227 -1.1166 -0.3865
 1060SOL    HW2 3322   3.309   0.409   3.640 -0.3681  0.0305 -0.6034
 1061SOL     OW 3323   3.368   1.853   1.475  0.0208 -0.0515  0.6032
 1061SOL    HW1 3324   3.357   1.758   1.482  0.0138 -0.0433  0.7088
 1061SOL    HW2 3325   3.322   1.876   1.395 -0.6163 -0.0359  0.9670
 1062SOL     OW 3326   3.084   1.112   3.716 -0.7378  0.4261  0.8868
 1062SOL    HW1 3327   3.024   1.084   3.647 -0.5781  2.4114 -0.1224
 1062SOL    HW2 3328   3.170   1.084   3.687 -0.7287  0.8585  0.4916
 1063SOL     OW 3329   3.687   0.648   0.096 -0.6128  0.2690 -0.4821
 1063SOL    HW1 3330   3.714   0.723   0.150  1.0147 -0.0770 -0.7534
 1063SOL    HW2 3331   3.621   0.603   0.148  0.3991  0.3448  0.9377
 1064SOL     OW 3332   0.948   2.197   2.677 -0.0570  0.1184 -0.4853
 1064SOL    HW1 3333   1.007   2.165   2.608 -1.4345 -1.5668 -0.9557
 1064SOL    HW2 3334   0.935   2.290   2.656  0.2345 -0.1516 -2.0101
 1065SOL     OW 3335   0.498   2.361   2.885 -0.7632 -0.9359 -0.4766
 1065SOL    HW1 3336   0.414   2.316   2.898 -0.6119 -0.5306  3.1734
 1065SOL    HW2 3337   0.559   2.313   2.942  1.2711 -0.6154 -2.2813
 1066SOL     OW 3338   3.463   2.242   2.611  0.0925 -0.1365 -0.2253
 1066SOL    HW1 3339   3.473   2.290   2.693 -0.3709 -0.1609 -0.1512
 1066SOL    HW2 3340   3.519   2.288   2.549 -0.0719  0.2898 -0.0617
 1067SOL     OW 3341   2.216   2.191   2.000 -0.1260  0.2273  0.0301
 1067SOL    HW1 3342   2.284   2.258   2.001  1.5277 -1.3770 -0.1737
 1067SOL    HW2 3343   2.189   2.186   1.908 -0.5513  0.8893  0.1160
 1068SOL     OW 3344   3.339   1.449   2.230 -0.4248 -0.1828 -0.3598
 1068SOL    HW1 3345   3.268   1.484   2.283 -3.3145 -3.5878 -1.5580
 1068SOL    HW2 3346   3.324   1.484   2.142  2.6776  3.1818  0.2097
 1069SOL     OW 3347   0.379   2.533   2.113 -0.1741  0.2524  0.7021
 1069SOL    HW1 3348   0.296   2.498   2.082  0.9048 -2.8219  1.0152
 1069SOL    HW2 3349   0.366   2.547   2.207 -1.2821  3.0586  0.2485
 1070SOL     OW 3350   0.345   3.195   3.426  0.4810 -0.3147 -0.7624
 1070SOL    HW1 3351   0.437   3.189   3.453  0.4907  0.8336 -0.4855
 1070SOL    HW2 3352   0.349   3.215   3.332  0.4830 -1.5545 -1.0417
 1071SOL     OW 3353   0.931   3.298   1.675  0.4123 -0.3003 -0.2691
 1071SOL    HW1 3354   0.956   3.336   1.760 -1.2244  0.5816 -0.1396
 1071SOL    HW2 3355   0.871   3.227   1.697  0.3845 -0.4057 -0.6779
 1072SOL     OW 3356   1.753   0.395   0.579  0.2031 -0.2717 -0.9560
 1072SOL    HW1 3357   1.678   0.346   0.614 -0.9550  1.3440 -1.0377
 1072SOL    HW2 3358   1.790   0.439   0.655  0.1321  0.1211 -1.1485
 1073SOL     OW 3359   2.757   3.086   1.028 -0.8132 -0.3158  1.0694
 1073SOL    HW1 3360   2.693   3.152   1.002 -0.1084 -0.4295 -1.2311
 1073SOL    HW2 3361   2.839   3.135   1.038 -0.1639 -0.8311 -1.1945
 1074SOL     OW 3362   1.649   2.016   0.154  0.3516 -0.5031 -0.0726
 1074SOL    HW1 3363   1.674   1.996   0.244  1.6048  0.4673 -0.1590
 1074SOL    HW2 3364   1.554   2.025   0.156  0.3448 -0.7082  1.1071
 1075SOL     OW 3365   0.669   1.292   2.411 -0.0409 -0.1671 -0.5240
 1075SOL    HW1 3366   0.614   1.213   2.405 -0.0212 -0.0950 -1.7585
 1075SOL    HW2 3367   0.606   1.365   2.408  0.1404 -0.0397 -3.2613
 1076SOL     OW 3368   2.774   0.493   1.888 -0.3844  0.1837 -0.5287
 1076SOL    HW1 3369   2.731   0.513   1.971 -1.5196 -3.3713 -0.0909
 1076SOL    HW2 3370   2.701   0.485   1.825  0.3129  1.0122 -1.4769
 1077SOL     OW 3371   1.170   1.102   0.917 -1.1195 -0.5702 -0.7652
 1077SOL    HW1 3372   1.260   1.117   0.887 -1.4119  0.5385 -1.1634
 1077SOL    HW2 3373   1.118   1.163   0.865 -1.9952 -0.6036  0.0558
 1078SOL     OW 3374   3.654   1.209   3.543  0.8036  0.1000  0.2872
 1078SOL    HW1 3375   3.655   1.280   3.607  1.6991  1.8898 -1.5919
 1078SOL    HW2 3376   3.575   1.224   3.492  0.6954 -0.6235  0.2335
 1079SOL     OW 3377   1.432   3.568   1.717  0.4145  0.4130 -0.4646
 1079SOL    HW1 3378   1.446   3.608   1.632 -1.3502  0.5536 -0.7289
 1079SOL    HW2 3379   1.359   3.618   1.755 -1.1585 -1.8227 -0.3656
 1080SOL     OW 3380   2.278   2.300   2.511  0.8263 -0.0612 -0.2771
 1080SOL    HW1 3381   2.189   2.335   2.518  0.3837 -1.3651  1.3106
 1080SOL    HW2 3382   2.295   2.295   2.417 -1.3686 -1.1867 -0.6763
 1081SOL     OW 3383   2.396   2.757   2.857 -0.1626  0.3766  0.5610
 1081SOL    HW1 3384   2.398   2.690   2.788  0.8404 -0.7992  1.6873
 1081SOL    HW2 3385   2.310   2.747   2.898 -1.2841  1.9049 -1.2252
 1082SOL     OW 3386   1.889   0.197   3.734 -0.5421 -0.2772 -0.2674
 1082SOL    HW1 3387   1.853   0.266   3.678  0.5579 -0.6881 -1.5555
 1082SOL    HW2 3388   1.884   0.118   3.680 -0.0512 -0.8229  0.4656
 1083SOL     OW 3389   0.147   2.858   3.383 -0.5655 -0.5436 -0.1435
 1083SOL    HW1 3390   0.225   2.844   3.331 -0.2788 -1.5522  0.5316
 1083SOL    HW2 3391   0.094   2.780   3.370 -2.0864  0.6608 -1.6045
 1084SOL     OW 3392   3.384   3.149   2.962 -0.2368  0.0089  0.4138
 1084SOL    HW1 3393   3.316   3.186   3.019 -0.0744  2.2679 -0.7840
 1084SOL    HW2 3394   3.448   3.111   3.023 -0.2181  2.0710  1.7645
 1085SOL     OW 3395   3.046   2.524   0.485 -0.4114 -0.1210 -0.5332
 1085SOL    HW1 3396   3.082   2.507   0.398  0.7257 -0.4242 -0.0275
 1085SOL    HW2 3397   3.010   2.439   0.512  0.6589 -0.4464 -0.0823
 1086SOL     OW 3398   2.815   2.085   0.764 -0.0425 -0.0086 -0.4260
 1086SOL    HW1 3399   2.812   2.150   0.694  1.4692 -0.2395 -0.7456
 1086SOL    HW2 3400   2.867   2.014   0.728  0.2785 -0.3798  0.7301
 1087SOL     OW 3401   0.042   3.477   3.353 -0.1200  0.4981  0.0641
 1087SOL    HW1 3402   0.054   3.457   3.261 -0.6363 -1.0512  0.2998
 1087SOL    HW2 3403   0.127   3.509   3.383  0.9390 -1.7584 -0.3072
 1088SOL     OW 3404   2.209   0.445   2.430 -0.4005  0.5232  0.1996
 1088SOL    HW1 3405   2.245   0.477   2.348  1.9374 -0.3522  0.7786
 1088SOL    HW2 3406   2.199   0.523   2.484 -2.6005  1.1918 -1.0646
 1089SOL     OW 3407   1.548   2.968   1.307 -0.3040 -0.7358  0.2345
 1089SOL    HW1 3408   1.621   3.001   1.360  0.2607 -1.0610 -0.3242
 1089SOL    HW2 3409   1.569   2.875   1.294  0.4028 -0.3255 -1.8730
 1090SOL     OW 3410   2.430   3.343   0.351  0.1740  0.5024  0.8725
 1090SOL    HW1 3411   2.454   3.429   0.317  0.2362  0.5257  0.9746
 1090SOL    HW2 3412   2.357   3.315   0.296  2.7953 -1.2540 -1.9650
 1091SOL     OW 3413   1.363   0.130   1.176 -0.4232  0.0153 -0.7553
 1091SOL    HW1 3414   1.294   0.067   1.200  0.4420 -0.3564  0.8978
 1091SOL    HW2 3415   1.359   0.197   1.244  2.2011 -1.1359  0.6762
 1092SOL     OW 3416   1.315   1.919   3.205  0.1749  0.0948 -0.0276
 1092SOL    HW1 3417   1.240   1.869   3.237  0.5189 -2.1614 -2.3974
 1092SOL    HW2 3418   1.276   1.991   3.155 -0.5254 -1.2698 -1.5541
 1093SOL     OW 3419   2.185   1.454   1.489 -0.3900  0.3196 -0.3441
 1093SOL    HW1 3420   2.217   1.406   1.413 -0.7956  0.8869 -0.8819
 1093SOL    HW2 3421   2.261   1.463   1.546 -0.3347 -1.0893 -0.1590
 1094SOL     OW 3422   2.543   1.019   0.630  0.5430  0.4878  0.0387
 1094SOL    HW1 3423   2.580   0.958   0.693  0.3544  1.0180  0.6746
 1094SOL    HW2 3424   2.536   0.969   0.549 -1.9702 -1.1803  1.1401
 1095SOL     OW 3425   1.707   1.552   1.922 -0.0042  0.0826 -0.2490
 1095SOL    HW1 3426   1.756   1.521   1.846 -0.5656  0.7335 -0.8887
 1095SOL    HW2 3427   1.637   1.607   1.886  1.1697  2.4596  0.8248
 1096SOL     OW 3428   2.739   1.035   2.972 -0.3666 -0.1800  0.4553
 1096SOL    HW1 3429   2.735   0.969   2.902  0.5640 -1.3904  1.4971
 1096SOL    HW2 3430   2.661   1.018   3.025  0.0898 -0.7289  0.9584
 1097SOL     OW 3431   1.007   2.232   0.032  0.4840 -0.2433 -0.4151
 1097SOL    HW1 3432   1.084   2.247   0.087 -1.3142  1.2165  1.8485
 1097SOL    HW2 3433   0.958   2.163   0.077 -0.4869  0.2039 -0.7694
 1098SOL     OW 3434   2.935   0.779   1.966  0.7304  0.4337  0.2099
 1098SOL    HW1 3435   2.993   0.704   1.975  0.2764 -0.3869 -2.5146
 1098SOL    HW2 3436   2.851   0.749   2.000 -0.0743 -1.2743 -2.8850
 1099SOL     OW 3437   1.623   1.451   3.638 -0.2350 -0.2640 -0.0127
 1099SOL    HW1 3438   1.561   1.498   3.582  1.1122  0.5125 -0.9139
 1099SOL    HW2 3439   1.596   1.474   3.728 -1.3445 -0.0894 -0.3729
 1100SOL     OW 3440   3.224   0.584   1.189  0.7020 -0.9626 -0.2563
 1100SOL    HW1 3441   3.164   0.510   1.202 -1.0537  0.2662 -0.9408
 1100SOL    HW2 3442   3.225   0.598   1.094  2.3749 -1.1429 -0.2987
 1101SOL     OW 3443   1.973   2.854   2.262  0.2061 -0.2440 -0.1140
 1101SOL    HW1 3444   1.951   2.892   2.177 -0.4605 -1.6174 -0.5929
 1101SOL    HW2 3445   2.025   2.921   2.306 -1.8650  1.6955 -0.4238
 1102SOL     OW 3446   3.261   0.656   0.272  0.0196 -0.2649 -0.0714
 1102SOL    HW1 3447   3.231   0.590   0.334  0.1643 -0.2604  0.0032
 1102SOL    HW2 3448   3.182   0.705   0.249 -0.2554 -1.0198 -0.8095
 1103SOL     OW 3449   1.303   0.738   0.952  0.6086 -0.1426  0.1975
 1103SOL    HW1 3450   1.313   0.678   0.878 -0.5380  0.0241 -0.1157
 1103SOL    HW2 3451   1.228   0.792   0.929  0.8702  0.5975  1.0305
 1104SOL     OW 3452   1.900   2.638   2.443  0.6689 -0.7464  0.6326
 1104SOL    HW1 3453   1.914   2.691   2.364  0.6415 -2.2011 -0.4066
 1104SOL    HW2 3454   1.869   2.699   2.509  1.9649  0.7655 -0.0883
 1105SOL     OW 3455   2.636   0.262   3.353 -0.1688 -0.1302  0.5732
 1105SOL    HW1 3456   2.542   0.245   3.348 -0.4526  1.3063  0.6960
 1105SOL    HW2 3457   2.644   0.329   3.421  1.0105 -0.6745  0.9835
 1106SOL     OW 3458   0.083   0.071   1.985  0.3001 -0.0139 -0.0178
 1106SOL    HW1 3459   0.086  -0.021   2.010 -2.0531 -0.2311 -0.2926
 1106SOL    HW2 3460   0.008   0.078   1.926  1.4205  1.7907 -1.3315
 1107SOL     OW 3461   2.201   2.062   0.960 -0.1841  0.3235 -0.5736
 1107SOL    HW1 3462   2.117   2.107   0.965 -0.4954 -0.3588  2.8324
 1107SOL    HW2 3463   2.265   2.131   0.948 -0.9638  1.2972  0.6170
 1108SOL     OW 3464   1.973   2.876   0.082  0.0236  0.2541  0.1968
 1108SOL    HW1 3465   2.050   2.932   0.094  1.4447 -1.2598 -1.2576
 1108SOL    HW2 3466   1.915   2.900   0.154  1.0914  2.6610  0.3612
 1109SOL     OW 3467   0.908   1.246   2.534  0.5440  0.2722  0.0750
 1109SOL    HW1 3468   0.817   1.271   2.517  0.0195 -0.6876  1.3285
 1109SOL    HW2 3469   0.937   1.206   2.453  0.3301  1.8506 -0.8268
 1110SOL     OW 3470   0.008   1.972   2.681  0.0790 -0.2553 -0.0567
 1110SOL    HW1 3471  -0.070   1.926   2.711  0.0021  0.2459  0.5275
 1110SOL    HW2 3472   0.079   1.937   2.736  0.3537 -1.0172 -0.8691
 1111SOL     OW 3473   1.368   0.844   3.397  0.2653 -0.2681  0.3017
 1111SOL    HW1 3474   1.439   0.906   3.415  1.5772 -1.6402  0.1443
 1111SOL    HW2 3475   1.354   0.799   3.480 -0.5082  0.0706  0.3569
 1112SOL     OW 3476   1.971   2.065   0.265  0.4001 -0.3857  0.1998
 1112SOL    HW1 3477   2.015   2.150   0.268 -1.5544  0.6731  0.2619
 1112SOL    HW2 3478   1.993   2.024   0.349  1.2859  0.0727  0.2044
 1113SOL     OW 3479   1.360   0.303   2.351  0.2249  0.1927 -0.1816
 1113SOL    HW1 3480   1.314   0.371   2.400  1.2761  1.1954 -0.5293
 1113SOL    HW2 3481   1.305   0.226   2.360 -2.8096  1.8735 -2.5693
 1114SOL     OW 3482   1.944   0.180   1.584  0.2976  0.1213  0.2896
 1114SOL    HW1 3483   1.879   0.167   1.514 -0.1653  2.6425  0.1658
 1114SOL    HW2 3484   1.892   0.204   1.661  0.9449 -0.4687  0.9194
 1115SOL     OW 3485   0.515   1.868   0.373 -1.0615 -0.5598  0.1981
 1115SOL    HW1 3486   0.479   1.788   0.335 -1.5018 -1.3227  2.0765
 1115SOL    HW2 3487   0.449   1.935   0.358 -0.6672 -0.5060 -1.4371
 1116SOL     OW 3488   1.169   3.611   3.386 -0.0324  0.0474  0.2812
 1116SOL    HW1 3489   1.152   3.700   3.355 -0.3065 -0.4536 -1.0867
 1116SOL    HW2 3490   1.262   3.596   3.366  0.1517  0.2042  0.9994
 1117SOL     OW 3491   1.670   0.228   2.715 -0.1135  0.5026  0.2611
 1117SOL    HW1 3492   1.746   0.271   2.675 -1.0279  1.0685 -0.9460
 1117SOL    HW2 3493   1.677   0.137   2.688  0.0069  0.6013 -0.0448
 1118SOL     OW 3494   1.440   1.904   1.645 -0.0407 -0.3372 -0.1816
 1118SOL    HW1 3495   1.530   1.879   1.626  0.5150  2.1286 -1.0543
 1118SOL    HW2 3496   1.406   1.936   1.562 -1.5274 -0.5824  0.2983
 1119SOL     OW 3497   2.797   3.672   0.532 -0.4737 -0.1403 -0.0621
 1119SOL    HW1 3498   2.883   3.631   0.539  0.2784  1.4835  0.9227
 1119SOL    HW2 3499   2.778   3.672   0.438  0.7528 -0.2637 -0.3265
 1120SOL     OW 3500   1.024   0.129   3.403  0.2528 -0.4493 -0.3968
 1120SOL    HW1 3501   1.013   0.114   3.496  1.1207 -0.0059 -0.2062
 1120SOL    HW2 3502   0.973   0.208   3.384  0.5107 -0.2319 -0.1860
 1121SOL     OW 3503   1.222   2.715   1.000 -0.2617 -0.2476  0.0126
 1121SOL    HW1 3504   1.192   2.778   1.065  0.5497 -0.8981  1.0450
 1121SOL    HW2 3505   1.278   2.654   1.049  1.0412 -0.2821 -1.4338
 1122SOL     OW 3506   3.321   2.290   3.018  0.6885 -0.3190  0.0076
 1122SOL    HW1 3507   3.317   2.322   2.927  1.1933 -2.0004 -0.6432
 1122SOL    HW2 3508   3.251   2.338   3.063 -1.6176 -1.5579 -1.9934
 1123SOL     OW 3509   0.545   2.963   3.695  0.8331  0.2210  0.6156
 1123SOL    HW1 3510   0.580   3.010   3.620  1.7187  0.5590  1.2203
 1123SOL    HW2 3511   0.464   2.923   3.663  0.9235  0.7888 -0.3615
 1124SOL     OW 3512   1.787   0.488   3.445  0.5306  0.7328 -0.7093
 1124SOL    HW1 3513   1.817   0.514   3.358 -0.9611 -1.2862 -1.9201
 1124SOL    HW2 3514   1.692   0.494   3.441  0.3170 -1.3206  0.0538
 1125SOL     OW 3515   3.470   2.971   2.084 -0.4896 -0.4886 -0.2855
 1125SOL    HW1 3516   3.502   3.012   2.004 -1.9608  0.9400 -0.1963
 1125SOL    HW2 3517   3.375   2.964   2.071 -0.8636  0.4149  1.5694
 1126SOL     OW 3518   0.210   0.245   0.478 -0.7080  0.0519  0.0122
 1126SOL    HW1 3519   0.269   0.183   0.433 -0.5779  0.4194 -0.3265
 1126SOL    HW2 3520   0.262   0.280   0.550  0.9994  3.4281 -2.5828
 1127SOL     OW 3521   2.827   1.312   1.313  0.1830 -0.2872 -0.3543
 1127SOL    HW1 3522   2.901   1.251   1.314 -1.3082 -2.1735  1.2617
 1127SOL    HW2 3523   2.792   1.305   1.224  0.5591 -1.1175 -0.4482
 1128SOL     OW 3524   2.619   0.212   2.181  0.1131 -0.3001 -0.6257
 1128SOL    HW1 3525   2.624   0.116   2.181  2.0539 -0.2677 -2.3898
 1128SOL    HW2 3526   2.526   0.231   2.164 -0.1169 -1.8672 -1.3051
 1129SOL     OW 3527   2.227   0.782   0.433  0.3135 -0.6427 -0.8515
 1129SOL    HW1 3528   2.193   0.856   0.484 -1.8261 -0.4266 -2.4367
 1129SOL    HW2 3529   2.199   0.800   0.343  1.1808 -2.5708 -1.5611
 1130SOL     OW 3530   2.186   0.685   3.454 -0.1716 -0.1823  0.0219
 1130SOL    HW1 3531   2.267   0.634   3.445  0.6410  0.2482  3.5982
 1130SOL    HW2 3532   2.139   0.643   3.526 -0.6712  2.5500  1.4236
 1131SOL     OW 3533   2.921   3.017   2.134 -1.0415  0.0482 -0.0532
 1131SOL    HW1 3534   3.009   3.052   2.149  0.6529 -3.1691 -1.4853
 1131SOL    HW2 3535   2.889   2.994   2.221  0.0244  0.2518  0.4027
 1132SOL     OW 3536   1.259   0.894   0.704 -0.1806 -0.2011 -0.0512
 1132SOL    HW1 3537   1.196   0.904   0.775  0.5831  2.1649  0.3807
 1132SOL    HW2 3538   1.345   0.891   0.747  0.3372  1.8972 -0.8230
 1133SOL     OW 3539   1.210   1.736   0.103  0.1323 -0.6109 -0.5946
 1133SOL    HW1 3540   1.176   1.646   0.110  0.1605 -0.5655  0.1499
 1133SOL    HW2 3541   1.144   1.790   0.146 -0.0180 -0.2331 -1.2774
 1134SOL     OW 3542   2.731   2.065   0.039  0.3878 -0.1020 -0.1545
 1134SOL    HW1 3543   2.777   2.013   0.105  2.3637  1.2787 -0.3796
 1134SOL    HW2 3544   2.796   2.128   0.008 -1.9192  2.6799  0.2387
 1135SOL     OW 3545   2.799   0.164   3.059 -0.0625  0.1156  0.2137
 1135SOL    HW1 3546   2.823   0.191   2.971 -0.0946  1.2699  0.5431
 1135SOL    HW2 3547   2.715   0.208   3.075  0.2559  0.4453  1.0472
 1136SOL     OW 3548   0.374   1.942   3.165 -0.5920 -0.1173  0.0769
 1136SOL    HW1 3549   0.390   2.026   3.121  1.9858  0.1785  1.3897
 1136SOL    HW2 3550   0.430   1.880   3.118 -2.1592 -1.0561 -0.6093
 1137SOL     OW 3551   3.082   3.253   1.743  0.1201 -0.2675 -0.1929
 1137SOL    HW1 3552   3.031   3.186   1.789  1.5585 -1.0395  0.3486
 1137SOL    HW2 3553   3.022   3.326   1.733 -0.5947 -0.4894  1.9548
 1138SOL     OW 3554   3.518   2.492   3.092 -0.1470  0.0841  0.3297
 1138SOL    HW1 3555   3.424   2.477   3.096 -0.1163  0.0093  0.9325
 1138SOL    HW2 3556   3.528   2.572   3.040 -0.6411  0.9893  1.5900
 1139SOL     OW 3557   2.214   0.662   2.879  0.5947  0.5327  0.0698
 1139SOL    HW1 3558   2.238   0.687   2.969  1.1668 -1.5379  0.5267
 1139SOL    HW2 3559   2.135   0.609   2.890 -0.1229  1.3896 -0.8041
 1140SOL     OW 3560   0.323   3.562   0.444  0.0579  0.2721  0.5129
 1140SOL    HW1 3561   0.315   3.469   0.423  0.4209  0.6788 -1.6746
 1140SOL    HW2 3562   0.305   3.567   0.538  2.0917 -2.2567  1.1465
 1141SOL     OW 3563   0.467   1.479   2.424 -0.2921  0.4713 -0.5034
 1141SOL    HW1 3564   0.404   1.477   2.351  0.7587 -0.5076 -1.4039
 1141SOL    HW2 3565   0.415   1.452   2.500 -1.2562  0.8964 -0.9808
 1142SOL     OW 3566   3.248   2.074   2.486  0.0008  0.7111  0.6856
 1142SOL    HW1 3567   3.282   2.129   2.556 -1.1354 -0.1441  1.9529
 1142SOL    HW2 3568   3.183   2.128   2.442 -1.9666  0.1081  2.6607
 1143SOL     OW 3569   2.108   0.408   3.404  0.1007 -0.0392  0.0737
 1143SOL    HW1 3570   2.107   0.382   3.312 -0.9076 -0.8639  0.2887
 1143SOL    HW2 3571   2.199   0.396   3.431  0.0914 -1.3986 -0.4048
 1144SOL     OW 3572   0.016   3.280   2.038 -0.4812  0.3026 -0.4303
 1144SOL    HW1 3573   0.031   3.369   2.008  0.0702  0.3863  0.0626
 1144SOL    HW2 3574   0.008   3.288   2.133  2.7094 -0.5073  0.0102
 1145SOL     OW 3575   0.327   1.651   2.933  0.2305 -1.0026 -0.2168
 1145SOL    HW1 3576   0.412   1.633   2.973  0.0545 -0.5618  0.3625
 1145SOL    HW2 3577   0.267   1.589   2.975 -0.2974  0.5782  1.4870
 1146SOL     OW 3578   1.488   0.233   0.306 -0.0604  0.3001 -0.4532
 1146SOL    HW1 3579   1.477   0.317   0.351  0.5852 -0.2000  0.6883
 1146SOL    HW2 3580   1.496   0.256   0.214  1.4463  1.6154 -0.0296
 1147SOL     OW 3581   2.390   0.822   0.134 -0.6346 -0.1946  0.6444
 1147SOL    HW1 3582   2.423   0.814   0.044 -0.0471 -1.9158  0.9583
 1147SOL    HW2 3583   2.414   0.910   0.161 -2.0806  0.8981 -1.3365
 1148SOL     OW 3584   0.062   3.556   3.745 -0.0910 -0.4352  0.0144
 1148SOL    HW1 3585   0.007   3.483   3.717  0.6804 -0.5612 -1.2271
 1148SOL    HW2 3586   0.012   3.634   3.721 -0.4428 -0.5405  0.3845
 1149SOL     OW 3587   0.953   3.324   2.317  0.3836 -0.0203  0.7125
 1149SOL    HW1 3588   0.864   3.288   2.321 -1.2472  3.4514 -0.6588
 1149SOL    HW2 3589   0.987   3.293   2.233  0.2018 -0.7128  0.8845
 1150SOL     OW 3590   3.267   1.975   0.481  0.5395  0.1000 -0.3932
 1150SOL    HW1 3591   3.307   1.980   0.394 -0.8877  0.4430 -1.0774
 1150SOL    HW2 3592   3.319   1.910   0.528  2.0498  0.7413 -1.1037
 1151SOL     OW 3593   1.748   1.039   2.590  0.0204 -0.3697  0.1313
 1151SOL    HW1 3594   1.834   1.006   2.567  0.3285 -0.9099  1.9203
 1151SOL    HW2 3595   1.689   1.000   2.526  1.1494  0.5479 -1.5407
 1152SOL     OW 3596   3.130   2.906   3.396  0.3023  0.7360  0.6001
 1152SOL    HW1 3597   3.212   2.944   3.428  1.4701 -0.0919 -1.1953
 1152SOL    HW2 3598   3.158   2.839   3.334 -1.6663 -2.4299  2.8607
 1153SOL     OW 3599   3.618   2.551   1.582 -0.3127  0.6380 -1.2478
 1153SOL    HW1 3600   3.656   2.632   1.549  0.6509 -0.0570 -1.9025
 1153SOL    HW2 3601   3.599   2.570   1.674 -0.7322  1.8074 -1.5508
 1154SOL     OW 3602   2.127   1.977   3.072 -0.1113 -0.1298 -0.3209
 1154SOL    HW1 3603   2.202   1.940   3.120  0.9858  0.9392 -1.1424
 1154SOL    HW2 3604   2.059   1.986   3.138 -0.2523 -2.9675  0.0748
 1155SOL     OW 3605   1.102   2.948   0.543 -0.0178  0.3952  0.1759
 1155SOL    HW1 3606   1.029   3.005   0.568 -0.1082  1.1973 -1.7213
 1155SOL    HW2 3607   1.178   3.007   0.537 -0.0086  0.2694 -1.3361
 1156SOL     OW 3608   3.709   3.529   2.401 -0.2645  0.0225 -0.1328
 1156SOL    HW1 3609   3.639   3.476   2.362  0.6596 -3.2243  2.1230
 1156SOL    HW2 3610   3.678   3.547   2.490 -0.7770  4.0287 -0.9625
 1157SOL     OW 3611   0.924   3.082   1.929  0.2713 -0.6108 -0.2003
 1157SOL    HW1 3612   0.886   3.015   1.872 -0.1173 -0.4031 -0.1876
 1157SOL    HW2 3613   0.875   3.073   2.011  0.1334 -0.2302 -0.2408
 1158SOL     OW 3614   1.720   0.802   1.569 -0.0572 -0.2763 -0.0103
 1158SOL    HW1 3615   1.643   0.771   1.615 -0.6128 -0.4520 -1.0295
 1158SOL    HW2 3616   1.784   0.731   1.577 -0.7351 -1.0038 -0.9201
 1159SOL     OW 3617   3.364   1.799   3.236  0.4995  0.4116 -0.2715
 1159SOL    HW1 3618   3.413   1.786   3.154  0.9655  3.5183 -0.6175
 1159SOL    HW2 3619   3.414   1.750   3.302  1.8667  0.3404 -1.3172
 1160SOL     OW 3620   3.139   3.168   2.143 -0.7346  0.2631 -0.6345
 1160SOL    HW1 3621   3.114   3.250   2.100 -1.7636  0.0834 -0.4007
 1160SOL    HW2 3622   3.174   3.196   2.228  0.3220  0.5443 -1.1400
 1161SOL     OW 3623   2.102   3.127   3.245 -0.0690 -0.3692  0.2785
 1161SOL    HW1 3624   2.087   3.158   3.334  2.4150 -0.8395  0.9477
 1161SOL    HW2 3625   2.117   3.033   3.254 -1.1474 -0.6706 -0.8476
 1162SOL     OW 3626   2.395   2.267   0.873 -0.2001 -0.3038 -0.3260
 1162SOL    HW1 3627   2.448   2.292   0.798  1.2364  0.3154  0.8375
 1162SOL    HW2 3628   2.458   2.255   0.944 -1.6886  1.4377  1.3954
 1163SOL     OW 3629   1.588   0.983   2.810  0.0835  0.5829  0.3455
 1163SOL    HW1 3630   1.531   0.945   2.743  0.3238  2.5108 -1.0388
 1163SOL    HW2 3631   1.657   1.027   2.761  1.3511  0.4911  1.9377
 1164SOL     OW 3632   0.501   2.473   2.560 -0.3498 -0.8224  0.7791
 1164SOL    HW1 3633   0.483   2.380   2.547  2.5346 -1.3531 -0.1416
 1164SOL    HW2 3634   0.445   2.518   2.496 -0.7700 -2.0357  0.2790
 1165SOL     OW 3635   0.319   2.784   0.720 -0.1437  0.0159 -0.4735
 1165SOL    HW1 3636   0.242   2.728   0.722 -0.2594  0.1989  0.6740
 1165SOL    HW2 3637   0.315   2.827   0.634 -0.4781 -1.1127 -1.0367
 1166SOL     OW 3638   0.190   0.426   2.885 -1.0400  0.0711 -0.6160
 1166SOL    HW1 3639   0.283   0.420   2.864 -0.6915 -1.1940  1.1096
 1166SOL    HW2 3640   0.173   0.520   2.894  0.7012  0.2639  1.4831
 1167SOL     OW 3641   1.218   2.976   1.957 -0.8316  0.5794  0.3396
 1167SOL    HW1 3642   1.132   3.018   1.947 -0.1239  2.5078  1.7439
 1167SOL    HW2 3643   1.240   2.944   1.870 -3.2068 -0.5066  0.0551
 1168SOL     OW 3644   2.472   0.794   3.579  0.3845  0.6460  0.0678
 1168SOL    HW1 3645   2.464   0.733   3.505 -2.2313 -0.2714  1.0184
 1168SOL    HW2 3646   2.501   0.876   3.539  1.1279 -0.3891 -1.6451
 1169SOL     OW 3647   0.840   3.325   2.811 -0.4166  0.3521 -0.0133
 1169SOL    HW1 3648   0.772   3.294   2.752 -1.3963 -0.2218  1.3453
 1169SOL    HW2 3649   0.922   3.303   2.767 -1.0451  2.0834 -2.2100
 1170SOL     OW 3650   2.140   3.257   1.471 -0.0923  0.2739  0.3989
 1170SOL    HW1 3651   2.195   3.198   1.421  0.0595  0.8674 -0.1538
 1170SOL    HW2 3652   2.159   3.344   1.434 -0.4737  0.6345  1.0378
 1171SOL     OW 3653   2.913  -0.023   1.895  0.3683 -0.1766 -0.0149
 1171SOL    HW1 3654   2.901   0.045   1.830 -0.1964 -0.1215  0.1358
 1171SOL    HW2 3655   2.858   0.004   1.969  0.1507 -0.7754  0.0544
 1172SOL     OW 3656   2.056   3.549   1.926 -0.3110  0.2616  0.2727
 1172SOL    HW1 3657   2.070   3.522   1.835  0.5290 -0.3792  0.5805
 1172SOL    HW2 3658   2.096   3.636   1.931  0.1042  0.0811  0.1555
 1173SOL     OW 3659   0.770   0.635   2.431  0.3431 -0.0136 -0.1514
 1173SOL    HW1 3660   0.721   0.552   2.434 -2.1114  1.3219 -0.1691
 1173SOL    HW2 3661   0.789   0.648   2.338  1.4999 -0.9365 -0.0617
 1174SOL     OW 3662   0.154   1.205   1.301  0.0265  0.9403 -0.4717
 1174SOL    HW1 3663   0.151   1.294   1.336  1.5057  1.3391 -1.2821
 1174SOL    HW2 3664   0.162   1.217   1.206  0.5295 -0.0495 -0.5582
 1175SOL     OW 3665   3.013   0.389   1.883 -0.1384 -0.7894  0.2556
 1175SOL    HW1 3666   3.060   0.472   1.894  1.5995 -1.5078 -1.3106
 1175SOL    HW2 3667   2.921   0.414   1.877  0.3090  0.9778  0.2711
 1176SOL     OW 3668   0.371   3.280   2.351  0.0441 -0.2343  0.1861
 1176SOL    HW1 3669   0.291   3.235   2.326  1.1812 -1.6595 -1.0620
 1176SOL    HW2 3670   0.399   3.325   2.272 -0.3797  1.6694  1.0698
 1177SOL     OW 3671   0.401   0.300   1.529  0.5130  0.0730 -0.0167
 1177SOL    HW1 3672   0.310   0.327   1.543  0.2532 -1.2819  1.1058
 1177SOL    HW2 3673   0.418   0.322   1.437 -1.1267 -0.1509 -0.4088
 1178SOL     OW 3674   1.997   0.161   0.318  0.2957 -0.2941 -0.6208
 1178SOL    HW1 3675   1.918   0.107   0.307  0.6535 -0.9629  0.0485
 1178SOL    HW2 3676   1.964   0.247   0.345 -0.1957 -0.6194 -0.1726
 1179SOL     OW 3677   0.911   0.648   1.070  0.2096  0.0831 -0.8891
 1179SOL    HW1 3678   0.974   0.605   1.127  0.8878 -0.1176 -1.7551
 1179SOL    HW2 3679   0.865   0.576   1.026 -0.1420  0.2347 -0.7788
 1180SOL     OW 3680   2.902   1.463   2.852 -0.5487  0.2302  0.2400
 1180SOL    HW1 3681   2.881   1.487   2.762  2.3015 -2.5125 -1.3764
 1180SOL    HW2 3682   2.869   1.374   2.862 -1.1658  0.6188  2.1136
 1181SOL     OW 3683   0.650   3.532   2.171  0.1606 -0.0218  0.4254
 1181SOL    HW1 3684   0.663   3.479   2.249 -1.9979  0.0709  0.8960
 1181SOL    HW2 3685   0.701   3.487   2.103  2.6065  0.2494  1.9631
 1182SOL     OW 3686   1.580   3.348   1.498 -0.0313 -0.0204  0.1524
 1182SOL    HW1 3687   1.642   3.371   1.429 -0.3468 -0.8715 -0.4315
 1182SOL    HW2 3688   1.629   3.359   1.579 -0.2719  3.0926  0.0023
 1183SOL     OW 3689   0.296   2.616   1.339 -0.0071 -0.3952 -0.1432
 1183SOL    HW1 3690   0.316   2.656   1.254 -0.7538  1.1229  0.3571
 1183SOL    HW2 3691   0.240   2.680   1.383  1.3572 -0.5822  1.9949
 1184SOL     OW 3692   1.418   0.291   3.559  0.3309  0.6058  0.2652
 1184SOL    HW1 3693   1.346   0.252   3.609 -0.0516  0.0843 -0.6750
 1184SOL    HW2 3694   1.450   0.221   3.503  1.7758  0.7523  0.8679
 1185SOL     OW 3695   3.736   2.099   0.411 -0.2074 -0.3764  0.0084
 1185SOL    HW1 3696   3.674   2.109   0.483  0.7374 -1.0508  0.9531
 1185SOL    HW2 3697   3.720   2.011   0.377  1.4781 -1.3839  1.5662
 1186SOL     OW 3698   0.108   2.629   0.651  0.4144  0.2357 -0.8840
 1186SOL    HW1 3699   0.138   2.581   0.574 -0.7979 -0.8784 -0.6969
 1186SOL    HW2 3700   0.052   2.699   0.616  0.8657  0.5091 -1.0684
 1187SOL     OW 3701   0.244   2.124   0.652  0.1588 -0.4798 -0.1221
 1187SOL    HW1 3702   0.271   2.216   0.656  0.8970 -0.7003  0.1775
 1187SOL    HW2 3703   0.154   2.124   0.683  0.1196  0.1610 -0.2254
 1188SOL     OW 3704   0.665   2.601   2.774 -0.2700  0.4422 -0.1349
 1188SOL    HW1 3705   0.607   2.536   2.735  0.5090  0.9201 -2.2141
 1188SOL    HW2 3706   0.616   2.635   2.849 -2.7769  0.9635 -1.8856
 1189SOL     OW 3707   1.408   1.807   1.204 -0.6335 -0.4217 -0.5734
 1189SOL    HW1 3708   1.410   1.865   1.128  0.8493  0.6209  0.2176
 1189SOL    HW2 3709   1.484   1.750   1.193  0.7426  0.9990  1.0263
 1190SOL     OW 3710   0.494   0.930   1.420  0.2764 -0.5053  0.0598
 1190SOL    HW1 3711   0.529   0.877   1.348 -0.6908 -1.5267  0.3054
 1190SOL    HW2 3712   0.404   0.951   1.392  0.8869  1.7029 -0.3794
 1191SOL     OW 3713   3.601   0.608   2.810  0.0951  0.8146  0.3974
 1191SOL    HW1 3714   3.651   0.527   2.795  0.5321  1.1123  0.2202
 1191SOL    HW2 3715   3.649   0.653   2.879 -1.2328  0.0250  1.8717
 1192SOL     OW 3716   0.039   1.479   2.483  0.1555 -0.1977 -0.4026
 1192SOL    HW1 3717   0.083   1.515   2.560 -0.2240  0.4000 -0.4652
 1192SOL    HW2 3718  -0.039   1.533   2.471 -0.7299 -1.3685 -0.1660
 1193SOL     OW 3719   2.045   0.561   1.191 -0.4481 -0.1055  0.1914
 1193SOL    HW1 3720   1.990   0.637   1.172  2.5365  2.6794  1.7619
 1193SOL    HW2 3721   2.019   0.534   1.279 -0.4321  0.1708  0.2829
 1194SOL     OW 3722   0.899   2.129   2.215 -0.0444 -0.5386  0.3578
 1194SOL    HW1 3723   0.869   2.213   2.250  0.9259  0.2328 -0.6069
 1194SOL    HW2 3724   0.955   2.094   2.284  2.1916  1.1655 -0.4896
 1195SOL     OW 3725   1.361   3.299   2.225 -0.1982  0.1608  0.2204
 1195SOL    HW1 3726   1.377   3.351   2.304 -0.1300  0.9614 -0.3119
 1195SOL    HW2 3727   1.447   3.264   2.201  0.9229  4.0566 -2.3552
 1196SOL     OW 3728   3.585   1.811   3.521  0.4942 -0.3997 -0.2991
 1196SOL    HW1 3729   3.642   1.882   3.491 -0.7145  2.4801  3.4243
 1196SOL    HW2 3730   3.646   1.744   3.552  1.9444  1.4297  1.1021
 1197SOL     OW 3731   2.506   3.249   3.172  0.5076 -0.2852 -0.0233
 1197SOL    HW1 3732   2.412   3.243   3.189  0.6739  0.9004  1.4660
 1197SOL    HW2 3733   2.512   3.281   3.082 -0.5124  0.0002 -0.0023
 1198SOL     OW 3734   0.477   2.144   0.050 -0.4344 -0.5084 -0.6299
 1198SOL    HW1 3735   0.458   2.152   0.144 -0.0866 -0.3376 -0.5753
 1198SOL    HW2 3736   0.436   2.221   0.011  2.4211  1.3631 -0.1762
 1199SOL     OW 3737   0.868   0.127   1.886  0.1224 -0.1203 -0.5570
 1199SOL    HW1 3738   0.952   0.151   1.926  0.5318 -2.2369  0.0237
 1199SOL    HW2 3739   0.892   0.067   1.815 -0.8885 -1.2463  0.0114
 1200SOL     OW 3740   2.501   2.574   0.573  0.1138 -0.1673  0.7624
 1200SOL    HW1 3741   2.514   2.667   0.554 -0.5146 -0.2535 -0.1510
 1200SOL    HW2 3742   2.419   2.571   0.622 -0.8309 -0.3799 -0.7626
 1201SOL     OW 3743   0.215   3.032   1.360  0.6813 -0.0785 -0.1700
 1201SOL    HW1 3744   0.142   3.011   1.302  1.3959  1.1290 -1.5605
 1201SOL    HW2 3745   0.293   3.003   1.312  1.2098 -0.0671  0.6649
 1202SOL     OW 3746   2.590   1.788   1.199 -0.0352  1.2618  0.2200
 1202SOL    HW1 3747   2.605   1.794   1.104  1.6840 -0.4129  0.3276
 1202SOL    HW2 3748   2.631   1.868   1.234  1.4529  0.7537 -0.2785
 1203SOL     OW 3749   2.085   3.445   0.919 -0.0633  0.5519  0.4554
 1203SOL    HW1 3750   2.159   3.496   0.886  1.5698 -0.9517  1.6170
 1203SOL    HW2 3751   2.123   3.361   0.944 -1.9092  0.1890  2.3428
 1204SOL     OW 3752   0.706   0.020   2.343  0.0016  0.0341 -0.4843
 1204SOL    HW1 3753   0.627   0.036   2.395 -0.2710 -0.9439 -0.5661
 1204SOL    HW2 3754   0.681  -0.051   2.283  0.6443  0.3890 -1.1954
 1205SOL     OW 3755   0.109   1.641   2.686  0.6133 -0.4832  0.2852
 1205SOL    HW1 3756   0.119   1.701   2.612 -1.4371  0.4187  0.6811
 1205SOL    HW2 3757   0.155   1.684   2.758  1.4455 -0.7088 -0.0994
 1206SOL     OW 3758   3.046   2.747   1.489  0.3004  0.5634 -0.4432
 1206SOL    HW1 3759   2.980   2.724   1.423 -1.4009 -0.1783  1.4039
 1206SOL    HW2 3760   3.012   2.826   1.531  0.2876 -0.1186  0.8837
 1207SOL     OW 3761   0.175   2.232   1.139  0.5242  0.1939  0.4201
 1207SOL    HW1 3762   0.087   2.210   1.168  0.9525 -1.3649  0.6236
 1207SOL    HW2 3763   0.162   2.285   1.060 -0.5857 -0.1407  0.3698
 1208SOL     OW 3764   0.060   1.249   3.234  0.4853 -0.7848 -0.2325
 1208SOL    HW1 3765   0.071   1.327   3.179 -2.3292  0.1412  0.3405
 1208SOL    HW2 3766   0.131   1.254   3.298  0.7866  0.9213 -0.6574
 1209SOL     OW 3767   2.414   2.902   1.460 -0.1807  0.5067 -0.2495
 1209SOL    HW1 3768   2.350   2.843   1.498 -0.0458  0.4305 -0.1397
 1209SOL    HW2 3769   2.364   2.954   1.397  0.1402 -1.4057 -2.2085
 1210SOL     OW 3770   2.715   2.932   1.909  0.6563 -0.6845 -0.2312
 1210SOL    HW1 3771   2.797   2.929   1.957  0.1769 -1.3117  0.5692
 1210SOL    HW2 3772   2.651   2.966   1.971  0.7689  2.2954 -1.5847
 1211SOL     OW 3773   2.892   2.259   2.966  0.2410  0.1456 -0.3102
 1211SOL    HW1 3774   2.933   2.184   3.008  0.2181 -0.5896 -1.5607
 1211SOL    HW2 3775   2.798   2.241   2.971  0.2202  0.2465 -0.3436
 1212SOL     OW 3776   2.071   0.802   0.144 -0.0957 -0.3632 -0.5431
 1212SOL    HW1 3777   2.161   0.804   0.112  0.1832 -1.8552  0.0476
 1212SOL    HW2 3778   2.025   0.745   0.083 -0.6331  0.3196 -0.7900
 1213SOL     OW 3779   2.888   3.464   0.060  0.1762  0.2352 -0.1617
 1213SOL    HW1 3780   2.892   3.559   0.055 -0.7609  0.2104 -3.4592
 1213SOL    HW2 3781   2.938   3.434  -0.016 -2.2413 -1.7681 -1.0937
 1214SOL     OW 3782   1.683   0.840   0.780 -0.1590 -0.4446  0.3867
 1214SOL    HW1 3783   1.682   0.879   0.868  0.7144  0.5661 -0.0248
 1214SOL    HW2 3784   1.775   0.842   0.754 -0.6492  1.6646 -1.5464
 1215SOL     OW 3785   2.562   2.176   0.521  0.2714 -0.6401  0.7134
 1215SOL    HW1 3786   2.500   2.115   0.561 -0.5061 -0.3097  0.0419
 1215SOL    HW2 3787   2.614   2.121   0.462 -1.8850 -0.3854 -1.5924
 1216SOL     OW 3788   3.032   0.665   2.385 -0.0334  0.6983  0.2290
 1216SOL    HW1 3789   2.976   0.622   2.320 -0.3452  2.9433 -1.0622
 1216SOL    HW2 3790   3.069   0.592   2.436 -0.7128 -1.0717 -1.6637
 1217SOL     OW 3791   2.171   0.947   1.245  0.1111 -0.1280 -0.3546
 1217SOL    HW1 3792   2.246   0.933   1.186 -0.1268 -0.1522 -0.6569
 1217SOL    HW2 3793   2.169   0.869   1.301 -0.8309 -1.0600 -1.6100
 1218SOL     OW 3794   0.362   2.807   3.247  0.0166  0.5016 -0.1687
 1218SOL    HW1 3795   0.362   2.799   3.152 -2.0822 -0.0625 -0.1637
 1218SOL    HW2 3796   0.387   2.719   3.278  1.3065  0.8454 -0.1619
 1219SOL     OW 3797   0.569   2.754   0.805 -0.5161  0.0390 -0.4184
 1219SOL    HW1 3798   0.572   2.814   0.880 -0.1342 -1.9156  1.2028
 1219SOL    HW2 3799   0.477   2.756   0.778 -1.3607 -1.3539  1.9973
 1220SOL     OW 3800   2.003   0.730   0.865 -0.1153 -0.1372 -0.1381
 1220SOL    HW1 3801   1.993   0.635   0.861  1.5801 -0.4773  1.7541
 1220SOL    HW2 3802   1.994   0.751   0.958  2.6585  1.0578 -0.0233
 1221SOL     OW 3803   0.941   2.903   1.683 -0.8332  0.3046  0.1740
 1221SOL    HW1 3804   0.905   2.815   1.669 -1.3156  0.5598 -0.2417
 1221SOL    HW2 3805   0.863   2.960   1.688 -0.5255  0.7085  0.4234
 1222SOL     OW 3806   1.826   3.080   3.618  0.3932 -0.6856 -0.7606
 1222SOL    HW1 3807   1.781   3.064   3.535  2.3188 -1.9297 -1.6327
 1222SOL    HW2 3808   1.832   2.994   3.659 -1.4501  0.0468  1.2508
 1223SOL     OW 3809   3.051   1.467   1.054 -0.1421  0.3125 -0.1503
 1223SOL    HW1 3810   3.069   1.408   0.981 -1.0213 -2.3346  1.6045
 1223SOL    HW2 3811   3.137   1.493   1.086  0.2656  0.2042 -1.1238
 1224SOL     OW 3812   1.270   2.199   1.568  0.9275  0.5085  1.1016
 1224SOL    HW1 3813   1.180   2.227   1.585  1.8781  2.2984  3.8556
 1224SOL    HW2 3814   1.262   2.111   1.532 -1.8928  0.4115  1.7716
 1225SOL     OW 3815   2.779   2.885   1.549  0.6825  0.0131 -0.1135
 1225SOL    HW1 3816   2.805   2.962   1.500  0.5289 -0.1851 -0.5129
 1225SOL    HW2 3817   2.720   2.918   1.617 -2.2687 -0.0741 -2.4024
 1226SOL     OW 3818   2.702   0.940   0.233 -0.2720 -0.5015  0.5946
 1226SOL    HW1 3819   2.671   1.026   0.208 -3.1116 -1.4639  0.3942
 1226SOL    HW2 3820   2.731   0.899   0.152  0.2771 -0.0631  0.5631
 1227SOL     OW 3821   3.324   2.404   0.941 -1.0460  0.5807  0.1820
 1227SOL    HW1 3822   3.407   2.449   0.926 -1.5640  2.2262  1.8869
 1227SOL    HW2 3823   3.260   2.474   0.951 -2.2864 -0.5968  0.8389
 1228SOL     OW 3824   0.555   3.709   1.431  0.7646 -0.2746  0.0896
 1228SOL    HW1 3825   0.627   3.683   1.374  1.1303 -2.0319  1.2769
 1228SOL    HW2 3826   0.477   3.701   1.376  1.3543  0.6029 -0.8957
 1229SOL     OW 3827   1.189   0.371   0.279 -0.5954  0.1457 -0.3620
 1229SOL    HW1 3828   1.195   0.342   0.370 -0.5843  1.2665  0.0136
 1229SOL    HW2 3829   1.128   0.310   0.238  0.6501 -1.3885 -0.0305
 1230SOL     OW 3830   2.991   1.477   2.266  0.5664  1.1203  0.4577
 1230SOL    HW1 3831   2.974   1.470   2.360  0.3658  2.3947  0.5371
 1230SOL    HW2 3832   2.992   1.571   2.249  0.2274  0.9059 -0.8834
 1231SOL     OW 3833   0.382   0.077   2.246  0.4033  0.7770 -0.4502
 1231SOL    HW1 3834   0.325   0.129   2.189 -0.8198 -1.2730 -1.2005
 1231SOL    HW2 3835   0.338  -0.008   2.253  1.8403  0.1151  1.4747
 1232SOL     OW 3836   0.581   0.752   1.811 -0.2866  0.0085  0.7780
 1232SOL    HW1 3837   0.667   0.736   1.772 -1.3205  1.0655 -2.2368
 1232SOL    HW2 3838   0.535   0.668   1.802 -0.6205  0.3228 -0.7294
 1233SOL     OW 3839   2.903   3.335   2.486 -0.8188  0.0850  0.2143
 1233SOL    HW1 3840   2.937   3.325   2.575  1.3949  0.3342 -0.5231
 1233SOL    HW2 3841   2.891   3.245   2.455 -0.1740 -0.0338  0.2898
 1234SOL     OW 3842   0.860   2.053   1.187  0.2377 -0.2115  0.3698
 1234SOL    HW1 3843   0.849   2.104   1.267  0.2145  1.0776 -0.4274
 1234SOL    HW2 3844   0.820   2.106   1.118  1.2942 -0.7369 -0.6924
 1235SOL     OW 3845   0.630   0.343   3.410 -0.2507 -0.2058  0.2427
 1235SOL    HW1 3846   0.560   0.404   3.435  0.6398  2.4289 -2.9061
 1235SOL    HW2 3847   0.618   0.331   3.315  2.5408 -1.0406 -0.1024
 1236SOL     OW 3848   2.923   1.208   2.972  0.0802 -0.0534 -0.3121
 1236SOL    HW1 3849   2.996   1.147   2.962  0.3177  0.2164 -0.2341
 1236SOL    HW2 3850   2.846   1.152   2.980  0.2582 -0.3360 -0.5582
 1237SOL     OW 3851   0.044   0.425   3.435 -0.5144  0.2265  0.4189
 1237SOL    HW1 3852   0.115   0.405   3.375 -0.1598  1.0076  0.5666
 1237SOL    HW2 3853  -0.033   0.383   3.396  0.2220 -1.6160  0.8505
 1238SOL     OW 3854   0.684   2.494   3.119  0.6701 -0.5835  0.1803
 1238SOL    HW1 3855   0.610   2.553   3.131  1.0695  0.0328 -0.2896
 1238SOL    HW2 3856   0.758   2.552   3.102  0.9387 -1.2417 -0.9954
 1239SOL     OW 3857   3.070   1.764   3.214 -0.4065 -0.1228 -0.1645
 1239SOL    HW1 3858   3.062   1.748   3.120 -2.1114 -3.1638  0.3423
 1239SOL    HW2 3859   3.161   1.743   3.234 -0.0829  0.3334 -1.0940
 1240SOL     OW 3860   0.199   1.158   1.056 -0.5534 -0.0258 -0.2190
 1240SOL    HW1 3861   0.174   1.073   1.019 -0.0213 -1.2504  2.0231
 1240SOL    HW2 3862   0.292   1.147   1.078  0.1664  1.9649 -1.8958
 1241SOL     OW 3863   1.420   2.927   3.383 -0.6024 -0.2435 -0.8271
 1241SOL    HW1 3864   1.474   2.934   3.462  1.0316  2.2186 -2.0021
 1241SOL    HW2 3865   1.458   2.854   3.334 -0.1477 -0.3386 -0.3392
 1242SOL     OW 3866   3.586   3.022   1.189  0.7077  0.1418  0.2480
 1242SOL    HW1 3867   3.605   2.934   1.220  2.4198  0.3694 -0.0393
 1242SOL    HW2 3868   3.512   3.051   1.242  0.5704 -1.1993  0.8284
 1243SOL     OW 3869   1.627   0.063   0.849 -0.4935 -0.4126 -0.2684
 1243SOL    HW1 3870   1.586  -0.015   0.814 -1.4361 -0.3096  0.5471
 1243SOL    HW2 3871   1.556   0.127   0.854 -0.0839 -0.0035  0.5199
 1244SOL     OW 3872   1.069   0.098   1.406 -0.3987  0.1961  0.6717
 1244SOL    HW1 3873   1.067   0.151   1.326 -2.0295  1.1455  1.3033
 1244SOL    HW2 3874   1.014   0.146   1.468 -1.3951 -1.9109  1.4881
 1245SOL     OW 3875   0.576   0.770   0.637  0.4689  0.2443  0.4443
 1245SOL    HW1 3876   0.640   0.799   0.572  0.5245  2.0170  1.2281
 1245SOL    HW2 3877   0.613   0.798   0.721 -1.1214  0.9672  0.9441
 1246SOL     OW 3878   1.587   2.144   3.639  0.2873 -0.7372 -0.5902
 1246SOL    HW1 3879   1.616   2.084   3.707  0.7244  1.0054  0.8392
 1246SOL    HW2 3880   1.591   2.093   3.558  1.8715 -2.2399  0.3718
 1247SOL     OW 3881   1.253   2.610   3.557  0.0526 -0.1634 -0.0633
 1247SOL    HW1 3882   1.348   2.620   3.549 -0.1465  0.6789 -1.9393
 1247SOL    HW2 3883   1.219   2.700   3.551 -0.8748 -0.4601  0.5349
 1248SOL     OW 3884   2.299   0.884   1.528  0.0487  0.0829  0.0898
 1248SOL    HW1 3885   2.347   0.933   1.462  1.6169 -1.1628  0.2460
 1248SOL    HW2 3886   2.339   0.797   1.528 -1.0522 -0.4713  1.4773
 1249SOL     OW 3887   0.878   0.098   3.128  0.0819 -0.6640 -0.1442
 1249SOL    HW1 3888   0.899   0.028   3.190 -0.9254  0.5046  1.6196
 1249SOL    HW2 3889   0.898   0.179   3.176  0.6493  0.2996 -1.9030
 1250SOL     OW 3890   0.415   1.652   0.216 -0.0605  0.1488 -0.0919
 1250SOL    HW1 3891   0.503   1.624   0.189  0.9889  2.3117  0.8782
 1250SOL    HW2 3892   0.401   1.607   0.299  0.3545  0.1636 -0.0081
 1251SOL     OW 3893   0.265   2.065   1.775  0.0157 -0.2336  0.2038
 1251SOL    HW1 3894   0.198   2.099   1.836  1.1332  3.3611 -0.3253
 1251SOL    HW2 3895   0.224   2.073   1.689  0.1724 -0.6353  0.0933
 1252SOL     OW 3896   1.350   3.267   0.820  0.4292 -0.2265 -0.1626
 1252SOL    HW1 3897   1.315   3.326   0.753  1.0421  0.6735  0.2965
 1252SOL    HW2 3898   1.275   3.213   0.846  0.3192 -1.0468 -2.0300
 1253SOL     OW 3899   1.646   3.196   0.759 -0.1821 -0.0858 -0.0741
 1253SOL    HW1 3900   1.684   3.108   0.751 -0.9549 -0.4199 -0.2190
 1253SOL    HW2 3901   1.567   3.182   0.811  0.3453  0.7315  0.9959
 1254SOL     OW 3902   2.486   3.534   3.219  0.5353  0.4319 -0.1967
 1254SOL    HW1 3903   2.526   3.486   3.291  0.1820 -0.8650 -0.8305
 1254SOL    HW2 3904   2.554   3.536   3.151 -0.0210 -0.6896 -0.8082
 1255SOL     OW 3905   3.643   2.748   1.204 -0.6742 -0.0932  0.1771
 1255SOL    HW1 3906   3.607   2.738   1.292 -0.1933 -1.5088  0.2357
 1255SOL    HW2 3907   3.698   2.671   1.191  0.6127  0.9162 -0.7335
 1256SOL     OW 3908   2.241   2.771   3.330  0.6318 -0.1755  0.6459
 1256SOL    HW1 3909   2.185   2.799   3.403 -1.9037 -0.3348 -1.0813
 1256SOL    HW2 3910   2.271   2.684   3.354 -0.8095 -0.5459  1.1992
 1257SOL     OW 3911   3.487   2.691   3.304 -0.2708  0.2791 -0.4548
 1257SOL    HW1 3912   3.411   2.748   3.306  1.0115  2.0254  0.2358
 1257SOL    HW2 3913   3.451   2.603   3.289 -2.3185  1.1793 -1.0453
 1258SOL     OW 3914   3.160   2.131   0.791  0.5031  0.4023 -0.2531
 1258SOL    HW1 3915   3.230   2.163   0.848  2.2934  2.4799 -3.3378
 1258SOL    HW2 3916   3.091   2.197   0.799  0.9530  0.9515 -0.7905
 1259SOL     OW 3917   2.364   1.411   1.762  0.0273  0.3579  0.0174
 1259SOL    HW1 3918   2.383   1.480   1.825  0.0421  0.0936  0.3078
 1259SOL    HW2 3919   2.274   1.384   1.783  0.9727 -1.6887  1.8305
 1260SOL     OW 3920   2.292   3.120   2.334 -0.0163  0.5411 -0.6644
 1260SOL    HW1 3921   2.384   3.094   2.325 -0.1122  0.5145 -1.6769
 1260SOL    HW2 3922   2.292   3.188   2.402  0.2733 -1.8846  1.9821
 1261SOL     OW 3923   1.888   0.993   1.389 -0.0854  0.8337 -0.1369
 1261SOL    HW1 3924   1.923   1.080   1.407  0.8792  1.0295 -2.5169
 1261SOL    HW2 3925   1.806   1.009   1.342 -0.6313  0.4249  0.6554
 1262SOL     OW 3926   0.067   2.844   0.977 -0.5559 -0.7160  0.2284
 1262SOL    HW1 3927  -0.003   2.851   0.911 -1.0985  0.6726  0.9240
 1262SOL    HW2 3928   0.021   2.834   1.060  0.0499  0.7585  0.7627
 1263SOL     OW 3929   1.480   0.439   2.807 -0.0108 -0.5547 -0.4014
 1263SOL    HW1 3930   1.488   0.491   2.727 -0.3245  0.3120  0.1111
 1263SOL    HW2 3931   1.561   0.388   2.812  1.4396  1.6734  0.2980
 1264SOL     OW 3932   0.009   2.551   3.696 -0.3355  0.2032 -0.4614
 1264SOL    HW1 3933  -0.067   2.508   3.735  0.7163 -0.0687  1.3829
 1264SOL    HW2 3934   0.083   2.522   3.749  1.2860 -0.5476 -2.9446
 1265SOL     OW 3935   1.610   3.102   1.707 -0.4732 -0.2092 -0.0497
 1265SOL    HW1 3936   1.545   3.077   1.773  0.3374 -2.2314  0.0717
 1265SOL    HW2 3937   1.626   3.195   1.723  0.2225 -0.7505  3.1423
 1266SOL     OW 3938   0.214   0.957   1.348  0.1990  0.2485  0.1310
 1266SOL    HW1 3939   0.175   0.919   1.269  1.2507 -1.3647  0.3348
 1266SOL    HW2 3940   0.185   1.048   1.348 -3.4390 -0.7560  0.1931
 1267SOL     OW 3941   1.756   2.021   1.209 -0.2653  0.6366  0.4783
 1267SOL    HW1 3942   1.726   1.936   1.242 -0.7987 -0.2497 -2.0838
 1267SOL    HW2 3943   1.743   2.081   1.283 -0.4207 -1.3683  2.1674
 1268SOL     OW 3944   0.060   1.263   2.806 -0.5126  0.6123  0.1954
 1268SOL    HW1 3945   0.017   1.191   2.758 -0.1415  0.6034 -0.1261
 1268SOL    HW2 3946   0.121   1.219   2.865  0.5766  0.6921 -0.8358
 1269SOL     OW 3947   2.876   2.293   3.693 -0.5288  0.0343 -0.2150
 1269SOL    HW1 3948   2.968   2.322   3.687 -0.3414 -0.4806  0.1109
 1269SOL    HW2 3949   2.850   2.314   3.782 -0.5744 -0.2725 -0.1559
 1270SOL     OW 3950   0.393   3.331   0.932 -0.4899  0.0441 -0.0585
 1270SOL    HW1 3951   0.317   3.273   0.942 -1.0453  0.8135  0.2862
 1270SOL    HW2 3952   0.463   3.273   0.903 -0.2832 -1.3328  2.8406
 1271SOL     OW 3953   0.474   1.389   2.891 -0.3703  0.5268 -0.5314
 1271SOL    HW1 3954   0.474   1.294   2.881 -1.7663  0.5578 -0.9426
 1271SOL    HW2 3955   0.494   1.403   2.984 -1.1128 -0.2043 -0.2480
 1272SOL     OW 3956   2.782   1.498   0.349 -0.4803  0.0407  0.1296
 1272SOL    HW1 3957   2.749   1.524   0.435 -1.6564 -0.6636 -0.0831
 1272SOL    HW2 3958   2.871   1.467   0.366  0.0253  1.7349  0.7657
 1273SOL     OW 3959   2.544   0.478   2.805  0.1985 -0.0343  0.0299
 1273SOL    HW1 3960   2.454   0.453   2.826 -0.3657  0.9617 -1.1135
 1273SOL    HW2 3961   2.549   0.571   2.828  0.9942 -0.1219  0.2379
 1274SOL     OW 3962   3.553   1.450   3.033  0.0529 -0.4946  0.7581
 1274SOL    HW1 3963   3.525   1.433   2.943 -0.8351  0.6279  0.7952
 1274SOL    HW2 3964   3.502   1.390   3.086  0.9256 -1.4975  0.4970
 1275SOL     OW 3965   0.612   0.352   0.040 -0.8603  0.1895  0.4237
 1275SOL    HW1 3966   0.586   0.392  -0.043  1.3445 -0.0479 -0.4416
 1275SOL    HW2 3967   0.656   0.423   0.088  0.8451 -0.5046 -0.0641
 1276SOL     OW 3968   1.286   1.120   0.540  0.4017  0.3359 -0.7567
 1276SOL    HW1 3969   1.236   1.059   0.594 -0.4681 -0.9464 -2.8597
 1276SOL    HW2 3970   1.326   1.181   0.602 -3.5094  1.2981  1.1892
 1277SOL     OW 3971   0.521   0.156   0.986  0.3650  0.1159 -0.3440
 1277SOL    HW1 3972   0.569   0.104   1.050  0.4388 -0.2159 -0.6637
 1277SOL    HW2 3973   0.460   0.208   1.038  0.6374  0.0785  0.0169
 1278SOL     OW 3974   3.666   2.936   0.487 -0.5681 -0.4647  0.2508
 1278SOL    HW1 3975   3.692   2.904   0.401 -1.1440  1.7153 -0.8059
 1278SOL    HW2 3976   3.582   2.893   0.504 -1.4987  0.6360 -1.2830
 1279SOL     OW 3977   2.505   0.195   0.911 -0.3179 -0.3225  0.5087
 1279SOL    HW1 3978   2.415   0.195   0.945 -0.6714 -0.4437 -0.3850
 1279SOL    HW2 3979   2.502   0.135   0.837 -0.5876  2.8474 -2.2895
 1280SOL     OW 3980   2.402   1.475   2.667 -0.1804  0.2326  0.5385
 1280SOL    HW1 3981   2.443   1.504   2.749  0.3383  0.0982  0.3314
 1280SOL    HW2 3982   2.426   1.542   2.603  1.1139 -0.6667  0.0302
 1281SOL     OW 3983   0.973   1.145   0.113 -0.0304 -0.3503 -0.2204
 1281SOL    HW1 3984   1.038   1.108   0.173 -1.5415 -0.3600  1.4766
 1281SOL    HW2 3985   0.953   1.231   0.150  0.0114  0.2379 -1.5175
 1282SOL     OW 3986   2.728   1.240   0.644  0.3985 -0.7218  0.1909
 1282SOL    HW1 3987   2.796   1.182   0.678 -1.4853 -2.4466  1.2733
 1282SOL    HW2 3988   2.648   1.187   0.649 -0.7457  0.5599 -2.7461
 1283SOL     OW 3989   3.182   1.371   1.960  1.1905  0.1496  0.3100
 1283SOL    HW1 3990   3.195   1.465   1.952 -0.3089  0.3864  0.4569
 1283SOL    HW2 3991   3.105   1.361   2.015 -0.8639 -1.0437 -2.5037
 1284SOL     OW 3992   1.085   0.617   2.944 -0.2327 -0.1685 -0.0299
 1284SOL    HW1 3993   1.160   0.644   2.892 -0.4773 -0.2222 -0.4173
 1284SOL    HW2 3994   1.026   0.576   2.881 -0.8160  0.3422  0.1686
 1285SOL     OW 3995   0.923   0.650   1.486  0.5257  0.4801  0.2846
 1285SOL    HW1 3996   0.930   0.666   1.581  0.3001 -1.3214  0.6431
 1285SOL    HW2 3997   0.857   0.712   1.456 -0.9920 -0.3366  1.7288
 1286SOL     OW 3998   0.216   2.438   0.102  0.2778 -0.2098  0.4850
 1286SOL    HW1 3999   0.175   2.352   0.108  1.3864 -0.7901  0.1168
 1286SOL    HW2 4000   0.306   2.419   0.075 -0.2851  1.2249 -3.0049
 1287SOL     OW 4001   2.864   2.716   1.740  0.2092 -0.1955  0.3084
 1287SOL    HW1 4002   2.888   2.783   1.676 -0.1559 -0.0166  0.3526
 1287SOL    HW2 4003   2.774   2.692   1.717 -0.0540  0.1308  0.9603
 1288SOL     OW 4004   1.833   1.465   1.415 -0.3944 -0.0064 -0.5592
 1288SOL    HW1 4005   1.883   1.499   1.489 -0.0922 -1.9616  0.1941
 1288SOL    HW2 4006   1.888   1.483   1.338 -0.3901  1.3998 -0.2563
 1289SOL     OW 4007   2.789  -0.020   0.266  0.0317 -0.2062 -0.2353
 1289SOL    HW1 4008   2.867   0.026   0.296 -0.2783 -1.4826  2.9362
 1289SOL    HW2 4009   2.743   0.044   0.211  2.4131  1.1567 -0.7608
 1290SOL     OW 4010   2.679   2.441   1.889 -0.1263 -0.3807 -0.4671
 1290SOL    HW1 4011   2.659   2.535   1.884 -0.2219 -0.3879 -0.2450
 1290SOL    HW2 4012   2.765   2.432   1.848 -0.7117 -0.3909 -1.7526
 1291SOL     OW 4013   1.154   0.610   0.505  0.6275  0.1206 -0.1384
 1291SOL    HW1 4014   1.198   0.669   0.444  0.2964  0.5041 -0.0143
 1291SOL    HW2 4015   1.155   0.525   0.462 -0.1013  0.4994 -0.9234
 1292SOL     OW 4016   1.438   2.254   3.157  0.1512  0.0857 -0.0009
 1292SOL    HW1 4017   1.368   2.255   3.092 -1.0065  0.2715  1.2200
 1292SOL    HW2 4018   1.467   2.345   3.164  0.4396  0.0302 -0.4014
 1293SOL     OW 4019   0.615   1.179   0.215 -0.6336 -0.5182 -0.5427
 1293SOL    HW1 4020   0.700   1.222   0.201  0.3720 -2.4132 -0.6163
 1293SOL    HW2 4021   0.590   1.205   0.303  1.9772 -2.8535  1.0962
 1294SOL     OW 4022   3.225   2.853   3.148 -0.6112  0.4446  0.2286
 1294SOL    HW1 4023   3.276   2.916   3.098 -0.0316 -0.2317 -0.0517
 1294SOL    HW2 4024   3.144   2.843   3.098  0.4546 -1.1358 -1.2920
 1295SOL     OW 4025   2.644   3.590   1.876  0.9142 -0.5510  0.1367
 1295SOL    HW1 4026   2.644   3.563   1.968  4.0467 -0.9127  0.1706
 1295SOL    HW2 4027   2.644   3.508   1.827  1.9705 -0.4695 -0.0371
 1296SOL     OW 4028   3.522   0.705   2.075 -0.1582  0.3491 -0.0249
 1296SOL    HW1 4029   3.591   0.647   2.107 -0.6552 -0.4135 -0.3049
 1296SOL    HW2 4030   3.568   0.783   2.044  0.6432 -0.4264 -0.8131
 1297SOL     OW 4031   2.048   0.978   2.511  0.3944 -0.3086 -0.0296
 1297SOL    HW1 4032   2.020   0.894   2.474 -1.6790  0.0415  0.6002
 1297SOL    HW2 4033   2.083   0.956   2.597  2.9791 -0.8488 -1.1309
 1298SOL     OW 4034   1.716   0.837   2.133  0.0780  0.2662 -0.2749
 1298SOL    HW1 4035   1.628   0.844   2.095  0.3606 -1.0124 -1.2480
 1298SOL    HW2 4036   1.728   0.743   2.150  1.5248  0.2979 -0.9010
 1299SOL     OW 4037   2.963   3.244   1.091  0.0851 -0.3100 -0.6406
 1299SOL    HW1 4038   2.989   3.324   1.045  0.7791 -0.3641 -0.3558
 1299SOL    HW2 4039   2.974   3.264   1.183 -2.2784  0.1389 -0.3887
 1300SOL     OW 4040   3.603   0.840   3.612  0.6974  0.5587  0.5109
 1300SOL    HW1 4041   3.658   0.761   3.618  0.6710  0.4099 -0.9288
 1300SOL    HW2 4042   3.665   0.912   3.621  0.6454  0.4142  2.4768
 1301SOL     OW 4043   1.793   3.537   2.843  0.6501 -0.6611 -0.4469
 1301SOL    HW1 4044   1.855   3.561   2.912  0.7940 -0.8715 -0.5031
 1301SOL    HW2 4045   1.827   3.456   2.807 -0.5856 -1.7366  0.7057
 1302SOL     OW 4046   1.906   2.635   3.697 -0.1354 -0.3290 -0.5387
 1302SOL    HW1 4047   1.913   2.705   3.761  2.0403 -0.7607 -0.2422
 1302SOL    HW2 4048   1.846   2.669   3.631 -0.2846  1.2024  0.3448
 1303SOL     OW 4049   1.586   0.897   1.355  0.4599 -0.2619  0.0302
 1303SOL    HW1 4050   1.501   0.929   1.385  0.6643  1.2679 -0.8884
 1303SOL    HW2 4051   1.619   0.845   1.427 -1.0699 -0.5367  0.5684
 1304SOL     OW 4052   0.425   1.674   0.804  0.0989  0.2857  0.9504
 1304SOL    HW1 4053   0.400   1.748   0.748 -1.0498 -0.3572  0.5784
 1304SOL    HW2 4054   0.438   1.714   0.890 -0.4072  0.9470  0.7323
 1305SOL     OW 4055   1.096   0.914   2.645 -0.4888 -0.1951 -0.0528
 1305SOL    HW1 4056   1.099   0.902   2.740  0.4742 -2.2135 -0.2729
 1305SOL    HW2 4057   1.057   0.833   2.612 -3.1565  1.4634 -1.2892
 1306SOL     OW 4058   0.875   2.542   1.146  0.0755  0.5365  0.0042
 1306SOL    HW1 4059   0.906   2.633   1.138  3.9208 -0.7289 -1.4683
 1306SOL    HW2 4060   0.810   2.534   1.076 -1.1611  2.3489  0.8457
 1307SOL     OW 4061   1.555   3.238   3.531  0.0309 -0.0267  0.5770
 1307SOL    HW1 4062   1.492   3.197   3.590 -0.4466 -0.8010 -0.4330
 1307SOL    HW2 4063   1.576   3.322   3.572 -1.5988  0.2109  0.9915
 1308SOL     OW 4064   1.142   1.080   3.451  0.2439  0.0252 -0.6820
 1308SOL    HW1 4065   1.223   1.055   3.406  1.2566 -1.1445  1.6533
 1308SOL    HW2 4066   1.112   1.000   3.494 -2.2073  0.4287 -1.4518
 1309SOL     OW 4067   0.037   1.517   0.192  0.3211  0.1461 -0.4049
 1309SOL    HW1 4068   0.077   1.490   0.275 -0.0810 -2.9432 -1.1042
 1309SOL    HW2 4069  -0.050   1.548   0.217  0.6424  0.4169  0.4244
 1310SOL     OW 4070   2.624   2.090   1.759 -0.4329 -0.0035 -0.1996
 1310SOL    HW1 4071   2.621   2.181   1.787  3.4636 -0.0434  0.8603
 1310SOL    HW2 4072   2.623   2.095   1.663 -2.1380  0.9336 -0.1803
 1311SOL     OW 4073   2.090   1.882   3.556 -0.3733  0.7720  0.0883
 1311SOL    HW1 4074   2.119   1.791   3.547  0.9119  1.2149 -0.5222
 1311SOL    HW2 4075   2.033   1.882   3.633 -0.3691 -0.5424  0.1073
 1312SOL     OW 4076   2.176   3.257   2.991 -0.6992 -0.7251  0.2487
 1312SOL    HW1 4077   2.148   3.220   3.075  0.8888 -0.0733  1.1064
 1312SOL    HW2 4078   2.243   3.195   2.960  0.3743  0.2130  0.6208
 1313SOL     OW 4079   3.524   2.110   1.432 -0.0628 -0.1549 -0.0312
 1313SOL    HW1 4080   3.527   2.182   1.495  0.2144  0.2269 -0.4766
 1313SOL    HW2 4081   3.448   2.058   1.458 -1.1643  1.1230 -0.6083
 1314SOL     OW 4082   0.687   3.351   0.381 -0.4614  0.1369  0.0354
 1314SOL    HW1 4083   0.755   3.341   0.314 -0.9572  0.0946 -0.4773
 1314SOL    HW2 4084   0.627   3.417   0.344 -1.4839 -0.8948 -0.2020
 1315SOL     OW 4085   1.099   1.422   1.655  0.0165 -0.2560  0.3880
 1315SOL    HW1 4086   1.129   1.427   1.564 -1.5952 -0.8987 -0.2160
 1315SOL    HW2 4087   1.180   1.421   1.707  1.0367 -1.4574 -1.1258
 1316SOL     OW 4088   0.884   3.100   0.573 -0.2972 -0.2781 -0.3840
 1316SOL    HW1 4089   0.789   3.088   0.575 -0.1165 -2.1769 -1.0380
 1316SOL    HW2 4090   0.899   3.182   0.620 -2.2561  0.1047 -0.3377
 1317SOL     OW 4091   2.127   3.246   0.325  0.5466  0.2460 -0.3572
 1317SOL    HW1 4092   2.093   3.335   0.339  1.6751  0.4918  1.1733
 1317SOL    HW2 4093   2.112   3.201   0.409  0.2336 -0.9234 -1.0231
 1318SOL     OW 4094   2.826   2.840   0.951  0.1216  0.4024 -0.2323
 1318SOL    HW1 4095   2.824   2.897   1.028  1.0185 -1.7804  1.5234
 1318SOL    HW2 4096   2.734   2.831   0.925 -0.4570 -0.4689  1.9300
 1319SOL     OW 4097   3.353   0.745   2.614 -0.7540 -0.5600 -0.3602
 1319SOL    HW1 4098   3.287   0.676   2.619 -1.5313  0.1200 -0.8936
 1319SOL    HW2 4099   3.306   0.819   2.576 -0.9717  1.5266  3.5406
 1320SOL     OW 4100   0.136   3.037   2.044  0.5302 -0.5352  0.3636
 1320SOL    HW1 4101   0.124   3.132   2.038 -0.2997 -0.6780 -0.5179
 1320SOL    HW2 4102   0.220   3.021   2.002  1.4449 -0.0456  1.9319
 1321SOL     OW 4103   0.556   3.500   3.339  0.2458  0.0296  0.4483
 1321SOL    HW1 4104   0.648   3.483   3.358  0.2895 -0.0146  0.1936
 1321SOL    HW2 4105   0.524   3.420   3.298  0.0145 -0.0687  0.8101
 1322SOL     OW 4106   2.068   2.319   0.869 -0.1626 -0.0918  0.2929
 1322SOL    HW1 4107   2.101   2.300   0.781  1.2276 -0.6496  0.9057
 1322SOL    HW2 4108   2.117   2.397   0.897  0.6854 -0.9199  1.2127
 1323SOL     OW 4109   1.243   1.204   1.167  0.2207 -0.1118 -0.4613
 1323SOL    HW1 4110   1.210   1.167   1.085  0.6642 -0.3690 -0.5296
 1323SOL    HW2 4111   1.329   1.240   1.145 -0.6328  1.9252 -0.6304
 1324SOL     OW 4112   0.775   1.643   0.127  0.3034 -0.7419  0.3569
 1324SOL    HW1 4113   0.797   1.575   0.063  1.7925  1.0065 -1.1240
 1324SOL    HW2 4114   0.728   1.710   0.076  0.2080  0.0233  1.4161
 1325SOL     OW 4115   3.670   3.613   2.102  0.2019 -0.5041  0.3555
 1325SOL    HW1 4116   3.692   3.650   2.187  0.6953  0.3395 -0.1352
 1325SOL    HW2 4117   3.594   3.557   2.120 -1.9517  2.3278  0.7833
 1326SOL     OW 4118   0.624   2.025   2.129  0.2248 -0.0999 -0.2043
 1326SOL    HW1 4119   0.693   2.073   2.174  0.9597 -1.8985  0.7024
 1326SOL    HW2 4120   0.658   2.011   2.040  0.9780 -0.8026  0.1800
 1327SOL     OW 4121   0.963   2.480   0.359 -0.1611  0.1854  0.4074
 1327SOL    HW1 4122   0.886   2.484   0.303 -0.3381 -1.2354  0.5006
 1327SOL    HW2 4123   0.947   2.544   0.427 -0.2335  1.4897 -0.7908
 1328SOL     OW 4124   2.521   2.442   0.113 -0.1090 -0.3811  0.4680
 1328SOL    HW1 4125   2.480   2.378   0.055  1.4649  0.9736 -2.3539
 1328SOL    HW2 4126   2.481   2.526   0.088 -0.4434  0.1170  2.4622
 1329SOL     OW 4127   1.726   2.768   0.544 -0.2655  0.5852  0.2387
 1329SOL    HW1 4128   1.687   2.794   0.461 -0.8626  0.9176  0.6130
 1329SOL    HW2 4129   1.673   2.693   0.573 -0.6534  1.0388  0.7484
 1330SOL     OW 4130   0.336   3.154   2.910  0.8768 -0.0837 -0.0842
 1330SOL    HW1 4131   0.342   3.190   2.821  2.4522 -1.3712 -0.5573
 1330SOL    HW2 4132   0.408   3.195   2.957  0.2278  0.3696  0.5369
 1331SOL     OW 4133   1.952   0.723   2.444  0.0083 -0.6155  1.0921
 1331SOL    HW1 4134   1.868   0.680   2.461  0.6335 -1.9471  0.9687
 1331SOL    HW2 4135   1.949   0.747   2.352 -0.7130  0.4518  1.3880
 1332SOL     OW 4136   0.384   0.624   0.394 -0.0048  0.8908 -1.1497
 1332SOL    HW1 4137   0.451   0.569   0.436 -0.9959  0.7249  0.2844
 1332SOL    HW2 4138   0.324   0.562   0.353 -1.7672  0.7397  1.4438
 1333SOL     OW 4139   1.289   2.315   3.486 -0.0349 -0.2924  0.3876
 1333SOL    HW1 4140   1.381   2.301   3.467 -0.2924  0.1978 -1.4072
 1333SOL    HW2 4141   1.285   2.404   3.522  0.0889  0.1124 -0.5667
 1334SOL     OW 4142   0.650   3.213   1.240  0.1249 -0.0578  0.8775
 1334SOL    HW1 4143   0.621   3.296   1.202  0.6181 -0.4526 -0.4035
 1334SOL    HW2 4144   0.667   3.233   1.332  0.8982  1.4265  0.4334
 1335SOL     OW 4145   1.740   1.236   0.762  0.2406  0.3553  0.5935
 1335SOL    HW1 4146   1.797   1.289   0.818  0.4800 -1.8683  2.5721
 1335SOL    HW2 4147   1.800   1.183   0.710 -0.0182  0.8416 -0.2211
 1336SOL     OW 4148   3.247   0.121   1.003 -0.4288  0.8333  0.0456
 1336SOL    HW1 4149   3.290   0.132   0.918  0.2402 -1.3227  0.0459
 1336SOL    HW2 4150   3.156   0.148   0.988  0.0894  2.1913 -0.8528
 1337SOL     OW 4151   3.488   0.721   0.776 -0.7751  0.3678  0.1394
 1337SOL    HW1 4152   3.548   0.669   0.724 -0.7458  0.6581 -0.1177
 1337SOL    HW2 4153   3.491   0.808   0.737 -0.5718  0.6512  0.7669
 1338SOL     OW 4154   1.295   1.212   2.453 -0.7223  0.0255  0.1447
 1338SOL    HW1 4155   1.213   1.261   2.453  0.1842  1.6399 -0.9650
 1338SOL    HW2 4156   1.303   1.179   2.363 -0.6952 -1.1326  0.5493
 1339SOL     OW 4157   2.387   1.094   0.874 -0.0538 -0.4892  0.0837
 1339SOL    HW1 4158   2.379   1.187   0.855 -1.1976 -1.0936 -2.9993
 1339SOL    HW2 4159   2.375   1.051   0.790  1.9359 -3.4015  1.1275
 1340SOL     OW 4160   0.608   2.713   3.452  0.4497 -0.4131  0.4480
 1340SOL    HW1 4161   0.564   2.636   3.416  1.7436 -1.0089  0.0820
 1340SOL    HW2 4162   0.541   2.758   3.502 -0.5168 -1.3964  0.0676
 1341SOL     OW 4163   0.702   2.233   3.040  0.1456 -0.1925 -0.9049
 1341SOL    HW1 4164   0.796   2.220   3.028  0.3531 -0.7185  0.9571
 1341SOL    HW2 4165   0.694   2.321   3.077  0.0297 -0.5604 -0.0207
 1342SOL     OW 4166   3.583   2.218   3.381 -0.3249 -0.1262 -0.1578
 1342SOL    HW1 4167   3.625   2.150   3.435 -1.5245 -0.8276 -0.0815
 1342SOL    HW2 4168   3.656   2.267   3.344  0.5788 -1.5216 -0.2893
 1343SOL     OW 4169   2.551   1.973   2.720  0.2303 -0.2511  0.5581
 1343SOL    HW1 4170   2.593   2.059   2.720  1.8764 -1.0038 -0.1427
 1343SOL    HW2 4171   2.458   1.991   2.709  0.5355  1.4444  0.5630
 1344SOL     OW 4172   2.231   1.663   3.659  0.3404 -0.9304 -0.5293
 1344SOL    HW1 4173   2.157   1.602   3.659 -2.7069  2.4304 -1.5085
 1344SOL    HW2 4174   2.240   1.691   3.750  1.2378 -2.1100 -0.2185
 1345SOL     OW 4175   3.593   2.418   0.616 -0.0712 -0.5021  0.6268
 1345SOL    HW1 4176   3.515   2.465   0.587  0.5104 -0.3484 -0.7346
 1345SOL    HW2 4177   3.632   2.383   0.536  1.0374 -0.9339  1.3260
 1346SOL     OW 4178   3.567   3.538   2.802  0.8236 -0.2414 -0.3123
 1346SOL    HW1 4179   3.488   3.577   2.839  0.3810 -0.4309 -1.0503
 1346SOL    HW2 4180   3.638   3.592   2.836  0.2520  0.9480 -0.9499
 1347SOL     OW 4181   3.672   0.062   3.204 -0.3232  0.2966 -0.2577
 1347SOL    HW1 4182   3.753   0.043   3.250  0.3152  0.8017 -1.1510
 1347SOL    HW2 4183   3.699   0.105   3.123 -1.4964  0.7488 -0.4339
 1348SOL     OW 4184   0.973   1.952   2.031 -0.0217  0.5383 -0.0298
 1348SOL    HW1 4185   0.955   2.039   2.065 -1.3937  0.1732  0.2297
 1348SOL    HW2 4186   1.052   1.963   1.977 -0.3705  1.9940 -0.2790
 1349SOL     OW 4187   3.480   2.775   0.732  0.4113  0.5592 -0.2168
 1349SOL    HW1 4188   3.471   2.774   0.636 -1.0317  0.9721 -0.1048
 1349SOL    HW2 4189   3.391   2.767   0.765  0.7899  1.4521  1.0947
 1350SOL     OW 4190   2.580   3.665   2.206 -0.0722 -0.7611  0.1125
 1350SOL    HW1 4191   2.559   3.602   2.138  1.4893  1.9399 -3.1683
 1350SOL    HW2 4192   2.658   3.628   2.249 -1.1377 -2.5566  0.6191
 1351SOL     OW 4193   1.177   1.441   2.023  0.4698 -0.0738  0.0722
 1351SOL    HW1 4194   1.102   1.442   1.964  0.9701 -1.4688 -0.6291
 1351SOL    HW2 4195   1.253   1.440   1.965  0.9694 -2.5898  0.6333
 1352SOL     OW 4196   2.939   0.443   3.366 -0.4700 -0.1528  0.2921
 1352SOL    HW1 4197   3.017   0.416   3.318 -0.8555  0.5121 -0.7565
 1352SOL    HW2 4198   2.930   0.379   3.437  2.0190  0.7608  1.5363
 1353SOL     OW 4199   0.935   1.783   0.571  0.6340  0.7121  0.5745
 1353SOL    HW1 4200   0.857   1.831   0.601  1.2265  1.3266  1.1505
 1353SOL    HW2 4201   0.942   1.805   0.478  0.7096  1.4923  0.7575
 1354SOL     OW 4202   2.573   3.384   0.950  0.1601  0.3092  0.2982
 1354SOL    HW1 4203   2.521   3.311   0.916  1.6848 -0.6558 -0.0366
 1354SOL    HW2 4204   2.622   3.415   0.874 -0.0635  1.3419  0.5660
 1355SOL     OW 4205   0.919   3.099   1.421  0.7388  0.2918  0.1991
 1355SOL    HW1 4206   0.983   3.141   1.364  0.6214 -0.7346 -0.7086
 1355SOL    HW2 4207   0.912   3.158   1.496  0.2892  2.0902 -1.1897
 1356SOL     OW 4208   1.592   0.860   1.058  0.1074 -0.4709  0.4349
 1356SOL    HW1 4209   1.500   0.866   1.030  0.4278  1.0205 -0.3805
 1356SOL    HW2 4210   1.590   0.885   1.150 -0.2670 -0.1689  0.3485
 1357SOL     OW 4211   1.145   2.850   1.237  0.5521  0.5204 -0.0833
 1357SOL    HW1 4212   1.194   2.824   1.315 -0.5648 -0.8196  0.2056
 1357SOL    HW2 4213   1.057   2.870   1.270  0.5722  1.8293 -0.7439
 1358SOL     OW 4214   1.216   3.621   1.247  0.0149 -0.2218  0.4777
 1358SOL    HW1 4215   1.262   3.571   1.314  1.6937  1.4621  0.6847
 1358SOL    HW2 4216   1.140   3.658   1.293  0.2184 -0.4604  1.0159
 1359SOL     OW 4217   1.913   0.549   2.170  0.2395  0.1879  0.2883
 1359SOL    HW1 4218   1.843   0.576   2.229  0.2778 -0.5663  0.6892
 1359SOL    HW2 4219   1.952   0.472   2.211  0.9769  0.2911 -0.1841
 1360SOL     OW 4220   1.250   2.589   1.716 -0.1545  0.0257 -0.3837
 1360SOL    HW1 4221   1.329   2.570   1.766 -0.2024 -0.1002 -0.3540
 1360SOL    HW2 4222   1.180   2.545   1.764 -0.2009 -0.0922 -0.5568
 1361SOL     OW 4223   1.229   0.271   0.556  0.5148  0.5193 -0.0713
 1361SOL    HW1 4224   1.318   0.294   0.526 -0.0168  1.5730 -0.9247
 1361SOL    HW2 4225   1.242   0.234   0.643  1.9485 -0.9221 -0.8429
 1362SOL     OW 4226   2.050   0.009   2.299  0.0317  0.3300 -0.2288
 1362SOL    HW1 4227   1.995   0.083   2.273  0.5364  1.1997  1.0791
 1362SOL    HW2 4228   1.988  -0.058   2.326 -0.4260  0.4790 -0.8807
 1363SOL     OW 4229   3.063   0.374   1.262 -0.2901  0.0346 -0.7036
 1363SOL    HW1 4230   3.125   0.303   1.282 -1.5956 -0.6446  1.1641
 1363SOL    HW2 4231   2.978   0.341   1.292 -0.8431  2.6674  0.9132
 1364SOL     OW 4232   0.652   0.774   3.642 -0.0221  0.4923  0.2852
 1364SOL    HW1 4233   0.575   0.801   3.691 -0.3747  0.2896 -0.1462
 1364SOL    HW2 4234   0.726   0.798   3.697 -0.2507  3.1798 -0.4430
 1365SOL     OW 4235   1.501   3.407   2.484  0.1076 -0.4163 -0.0388
 1365SOL    HW1 4236   1.509   3.423   2.578  0.9679  3.2241 -0.5901
 1365SOL    HW2 4237   1.592   3.400   2.454 -0.1434 -0.7322 -0.7423
 1366SOL     OW 4238   3.237   2.870   2.485  0.6975  0.6538 -0.3240
 1366SOL    HW1 4239   3.155   2.827   2.459  0.0994  1.6205 -0.1212
 1366SOL    HW2 4240   3.221   2.897   2.575  1.7750 -0.3612  0.1887
 1367SOL     OW 4241   2.808   3.559   2.287 -0.4160  0.2944  0.2631
 1367SOL    HW1 4242   2.864   3.627   2.323  1.0974 -0.1025 -1.2487
 1367SOL    HW2 4243   2.833   3.480   2.335  1.2285 -0.1250 -1.1824
 1368SOL     OW 4244   2.624   1.450   0.138 -0.0111 -0.4163  0.0818
 1368SOL    HW1 4245   2.576   1.448   0.221 -1.3751 -0.3401 -0.6866
 1368SOL    HW2 4246   2.710   1.487   0.161 -0.7876  0.7460  1.2437
 1369SOL     OW 4247   2.244   1.640   2.487 -0.0716 -1.0446  0.1936
 1369SOL    HW1 4248   2.332   1.667   2.464 -0.3220 -1.1609 -0.9202
 1369SOL    HW2 4249   2.225   1.688   2.568  0.0738  0.9588 -0.8861
 1370SOL     OW 4250   0.370   3.415   2.095 -0.4375  0.1873  0.2240
 1370SOL    HW1 4251   0.363   3.374   2.009 -0.1349 -0.2956  0.4267
 1370SOL    HW2 4252   0.409   3.501   2.078  0.2393 -0.1713 -0.0470
 1371SOL     OW 4253   0.591   1.683   3.480 -0.3489 -0.0025 -0.6800
 1371SOL    HW1 4254   0.518   1.649   3.430 -1.1663 -0.6114  0.8525
 1371SOL    HW2 4255   0.570   1.775   3.494 -1.1052 -0.2946  0.1904
 1372SOL     OW 4256   2.800   3.008   3.029  0.5824  0.1668  0.0460
 1372SOL    HW1 4257   2.727   2.947   3.015 -0.7613  1.5290  0.8984
 1372SOL    HW2 4258   2.809   3.014   3.124  1.2254  0.7116 -0.0403
 1373SOL     OW 4259   3.556   1.515   3.364 -0.1458  1.1249  0.4021
 1373SOL    HW1 4260   3.481   1.523   3.305 -1.0190  1.3778  1.5078
 1373SOL    HW2 4261   3.530   1.448   3.428  1.3026 -0.1188 -0.2248
 1374SOL     OW 4262   0.073   0.864   2.166 -0.0846 -0.1947  0.4380
 1374SOL    HW1 4263   0.151   0.907   2.132  0.3766 -1.1673  0.2603
 1374SOL    HW2 4264   0.105   0.808   2.237 -0.3328 -2.0305 -0.8393
 1375SOL     OW 4265   3.576   0.878   1.025  0.0882  0.0789 -0.2726
 1375SOL    HW1 4266   3.585   0.811   0.957 -1.6338 -0.3633 -0.0974
 1375SOL    HW2 4267   3.664   0.916   1.033  0.4754 -0.2922 -2.2864
 1376SOL     OW 4268   1.543   3.491   1.028 -0.3633 -0.4801  0.5150
 1376SOL    HW1 4269   1.613   3.495   0.962 -1.6145 -0.1913 -0.8543
 1376SOL    HW2 4270   1.551   3.404   1.065 -1.1406 -1.6177 -1.8053
 1377SOL     OW 4271   3.387   1.979   2.904  0.0595 -0.1031 -0.1979
 1377SOL    HW1 4272   3.420   1.990   2.994 -0.2522 -0.5275 -0.0281
 1377SOL    HW2 4273   3.453   1.924   2.861  0.2806  0.2174 -0.2734
 1378SOL     OW 4274   1.482   0.098   2.133 -0.7371 -0.5387  0.1053
 1378SOL    HW1 4275   1.511   0.039   2.203 -1.0317 -1.7000 -0.7246
 1378SOL    HW2 4276   1.428   0.162   2.178 -0.8969 -1.2382  0.9563
 1379SOL     OW 4277   1.284   2.300   2.900 -0.3300 -0.3404 -0.0810
 1379SOL    HW1 4278   1.267   2.208   2.923 -1.4976 -0.4614 -1.3059
 1379SOL    HW2 4279   1.215   2.322   2.838  0.6518  1.0158 -0.7413
 1380SOL     OW 4280   2.313   2.869   0.548 -0.7040 -0.8184  0.3652
 1380SOL    HW1 4281   2.345   2.933   0.485 -1.3142 -0.3573  0.5029
 1380SOL    HW2 4282   2.221   2.857   0.525 -1.1442 -0.0802  1.5934
 1381SOL     OW 4283   0.446   0.958   2.609  0.4148  0.0862  0.2417
 1381SOL    HW1 4284   0.416   0.868   2.616  1.9043 -0.3938  0.8141
 1381SOL    HW2 4285   0.455   0.973   2.515  1.6138 -0.8978  0.1691
 1382SOL     OW 4286   0.996   3.606   2.385  0.2459  0.0303 -0.1005
 1382SOL    HW1 4287   0.960   3.524   2.350  0.6411 -0.5858  0.8668
 1382SOL    HW2 4288   0.920   3.657   2.410 -0.0047 -0.1413 -0.5048
 1383SOL     OW 4289   3.256   3.516   2.629  0.0868  0.5294  0.0272
 1383SOL    HW1 4290   3.185   3.576   2.652  0.9669  1.3243  0.7564
 1383SOL    HW2 4291   3.258   3.517   2.533  0.1151  1.7348  0.0248
 1384SOL     OW 4292   0.589   3.165   1.924  0.2685  0.3941  0.3104
 1384SOL    HW1 4293   0.644   3.243   1.930  0.3330  0.2635  1.9869
 1384SOL    HW2 4294   0.579   3.135   2.014 -2.6644  0.4757  0.1301
 1385SOL     OW 4295   3.060   2.752   1.963  1.1300  0.5968  0.4798
 1385SOL    HW1 4296   2.977   2.735   1.917  2.1110 -2.8799 -0.3681
 1385SOL    HW2 4297   3.040   2.734   2.055  1.1797 -1.7194  0.0960
 1386SOL     OW 4298   2.151   2.211   1.739  0.1821  0.0029  0.7856
 1386SOL    HW1 4299   2.127   2.190   1.649  3.1079 -2.8221  0.5197
 1386SOL    HW2 4300   2.209   2.287   1.732 -1.4760  1.3401  0.6502
 1387SOL     OW 4301   3.054   2.877   2.957  0.5607  0.2320 -0.2756
 1387SOL    HW1 4302   2.992   2.950   2.962  0.7815  0.3959  0.1560
 1387SOL    HW2 4303   3.002   2.803   2.927 -0.1214  0.0582  1.2585
 1388SOL     OW 4304   0.767   2.826   0.052  0.4871 -0.1807  0.3200
 1388SOL    HW1 4305   0.688   2.879   0.047  0.2197 -0.3965  1.7563
 1388SOL    HW2 4306   0.810   2.837  -0.033  0.6710  2.6852  0.6997
 1389SOL     OW 4307   2.347   1.230   0.588 -0.3069  0.1806 -0.6523
 1389SOL    HW1 4308   2.285   1.207   0.519  0.0471 -2.5418 -0.2021
 1389SOL    HW2 4309   2.424   1.176   0.570  0.6986  1.1233  0.5875
 1390SOL     OW 4310   3.617   1.042   2.138  0.1620  0.4779 -0.3392
 1390SOL    HW1 4311   3.602   1.039   2.043 -1.0886 -0.0454 -0.1317
 1390SOL    HW2 4312   3.677   0.970   2.154  0.3830  0.5677 -0.7253
 1391SOL     OW 4313   0.394   1.172   3.209  0.2670  0.2333 -0.2505
 1391SOL    HW1 4314   0.400   1.190   3.303  0.7459  0.8721 -0.3943
 1391SOL    HW2 4315   0.479   1.132   3.187  1.0031  2.0219 -0.8012
 1392SOL     OW 4316   0.132   2.040   1.530 -0.4752  0.1915 -0.7239
 1392SOL    HW1 4317   0.044   2.053   1.564 -0.3433  0.2137 -0.3914
 1392SOL    HW2 4318   0.118   2.003   1.443 -0.8052 -1.3139 -0.0613
 1393SOL     OW 4319   1.102   0.201   2.012 -0.1693  0.6217  0.3038
 1393SOL    HW1 4320   1.046   0.238   2.080 -0.6406  1.5397 -0.5448
 1393SOL    HW2 4321   1.122   0.113   2.043 -1.5716  0.4869  0.9466
 1394SOL     OW 4322   1.557   2.913   3.627  0.3718 -0.0835 -0.1174
 1394SOL    HW1 4323   1.522   2.845   3.684  0.0587 -0.8611 -1.1899
 1394SOL    HW2 4324   1.629   2.871   3.580  1.4708  0.9245  0.6187
 1395SOL     OW 4325   0.294   0.688   0.810  0.0011  0.6833 -0.0773
 1395SOL    HW1 4326   0.316   0.660   0.898 -0.7229 -0.1114 -0.1401
 1395SOL    HW2 4327   0.379   0.704   0.768  0.4194 -0.6236  0.2222
 1396SOL     OW 4328   0.844   0.368   2.703 -0.3602  0.2328 -0.0859
 1396SOL    HW1 4329   0.921   0.323   2.668 -0.2287  0.1816  0.2676
 1396SOL    HW2 4330   0.865   0.385   2.795 -1.0492 -0.4044  0.2005
 1397SOL     OW 4331   1.421   2.017   0.529  0.1672 -0.4214 -0.3192
 1397SOL    HW1 4332   1.386   1.937   0.489 -0.8936 -0.6791  1.0130
 1397SOL    HW2 4333   1.343   2.065   0.558  0.8207  0.7556 -0.4416
 1398SOL     OW 4334   2.639   2.780   3.042 -0.5572  0.1989 -0.1835
 1398SOL    HW1 4335   2.595   2.763   3.126 -0.8120 -0.4576 -0.4452
 1398SOL    HW2 4336   2.567   2.797   2.981 -0.3812  0.4352 -0.3243
 1399SOL     OW 4337   3.608   3.460   0.424 -0.0174 -0.4039 -0.0586
 1399SOL    HW1 4338   3.665   3.533   0.450 -0.4612 -0.0895  0.0406
 1399SOL    HW2 4339   3.594   3.411   0.505  0.7450 -0.9395 -0.2315
 1400SOL     OW 4340   1.151   1.905   1.214  0.2233 -0.0240 -0.0269
 1400SOL    HW1 4341   1.203   1.826   1.225 -3.0640 -2.2499  1.2539
 1400SOL    HW2 4342   1.078   1.895   1.276 -1.8160  2.6990 -1.7301
 1401SOL     OW 4343   2.171   0.112   0.538  0.4127 -0.4540  0.4412
 1401SOL    HW1 4344   2.202   0.023   0.523 -0.4323 -0.7185  0.1926
 1401SOL    HW2 4345   2.100   0.124   0.475  1.9573  1.1966 -1.0760
 1402SOL     OW 4346   3.677   1.090   2.617  0.5804 -0.2892 -0.0449
 1402SOL    HW1 4347   3.583   1.082   2.599  0.0715 -0.3183  2.3176
 1402SOL    HW2 4348   3.693   1.029   2.689  2.0209  1.0439  0.8164
 1403SOL     OW 4349   1.938   3.449   1.156  0.1676  0.5831 -0.4388
 1403SOL    HW1 4350   2.001   3.443   1.084 -0.9654 -2.8219 -1.3037
 1403SOL    HW2 4351   1.854   3.429   1.116 -1.1275  2.2953  1.2205
 1404SOL     OW 4352   3.593   3.246   2.364 -0.1930  0.8221  0.1565
 1404SOL    HW1 4353   3.522   3.182   2.368  1.1214 -0.8531 -1.1854
 1404SOL    HW2 4354   3.612   3.268   2.455 -0.3337 -1.1876  0.7228
 1405SOL     OW 4355   2.747   3.452   1.399 -0.2149  0.3840 -0.1755
 1405SOL    HW1 4356   2.823   3.500   1.366  0.1388  0.0177  0.0869
 1405SOL    HW2 4357   2.675   3.515   1.397  0.8582  1.9754  3.1062
 1406SOL     OW 4358   0.384   3.582   1.259  0.4480  0.2919 -0.0661
 1406SOL    HW1 4359   0.320   3.568   1.188 -1.0345  5.2621 -0.1349
 1406SOL    HW2 4360   0.332   3.578   1.339  0.4067  2.1338  0.0468
 1407SOL     OW 4361   1.309   3.635   0.961 -0.9301 -0.3720 -0.3365
 1407SOL    HW1 4362   1.270   3.682   1.035 -2.0571  0.6953 -1.5544
 1407SOL    HW2 4363   1.372   3.575   1.001 -0.9872  0.6766  1.4308
 1408SOL     OW 4364   2.063   0.430   2.865  0.3007  0.4949  0.5956
 1408SOL    HW1 4365   1.971   0.415   2.885  0.2635 -0.0708  0.0273
 1408SOL    HW2 4366   2.071   0.411   2.771  0.3914  3.3818 -0.0882
 1409SOL     OW 4367   1.614   3.365   1.801 -0.4024  0.0232  0.2434
 1409SOL    HW1 4368   1.671   3.439   1.824 -1.1758  1.1735 -1.3041
 1409SOL    HW2 4369   1.526   3.403   1.799 -1.0898 -1.4380  1.3787
 1410SOL     OW 4370   1.709   1.976   0.414  0.7876  0.2637  0.4600
 1410SOL    HW1 4371   1.622   2.004   0.442  0.9849  0.8006  0.5632
 1410SOL    HW2 4372   1.763   1.982   0.493  0.8637 -0.3170  0.4553
 1411SOL     OW 4373   1.802   2.122   2.227  0.1117  0.4225 -0.3918
 1411SOL    HW1 4374   1.872   2.058   2.217 -0.6219 -0.3966 -0.3880
 1411SOL    HW2 4375   1.753   2.092   2.303 -0.6107  0.6418 -0.7622
 1412SOL     OW 4376   1.721   3.522   3.576  0.2767 -0.2711  0.2183
 1412SOL    HW1 4377   1.752   3.528   3.666 -0.7392  3.6985  0.4952
 1412SOL    HW2 4378   1.625   3.528   3.582  0.1582 -0.3353 -1.0982
 1413SOL     OW 4379   0.326   1.668   1.214  1.2008  0.0572  0.4997
 1413SOL    HW1 4380   0.385   1.729   1.259  0.8205 -0.5573  1.8825
 1413SOL    HW2 4381   0.376   1.587   1.208  1.9336  0.6145 -1.8783
 1414SOL     OW 4382   0.501   2.212   2.449  0.4600  0.1707  0.0824
 1414SOL    HW1 4383   0.436   2.209   2.379  0.4262  0.1310  0.1156
 1414SOL    HW2 4384   0.477   2.140   2.507  1.5591 -0.9423 -0.8047
 1415SOL     OW 4385   1.135   3.726   2.182 -0.3152  0.2886  0.0360
 1415SOL    HW1 4386   1.070   3.691   2.243 -1.3767 -1.8760 -2.1566
 1415SOL    HW2 4387   1.218   3.689   2.212 -0.5911  0.4268  0.9867
 1416SOL     OW 4388   0.495   1.747   2.399  0.2145 -0.3889  0.0744
 1416SOL    HW1 4389   0.515   1.653   2.399 -0.1275 -0.4691 -0.6791
 1416SOL    HW2 4390   0.577   1.789   2.424  0.1495 -0.9226  1.2567
 1417SOL     OW 4391   2.442   2.283   3.344  0.0668  0.2626 -0.0204
 1417SOL    HW1 4392   2.452   2.366   3.391  2.9119  0.2699 -0.4986
 1417SOL    HW2 4393   2.480   2.217   3.403 -0.9653 -0.5381 -0.2081
 1418SOL     OW 4394   0.124   2.438   2.954 -0.0016  0.2592 -0.0270
 1418SOL    HW1 4395   0.104   2.352   2.918  0.0178  0.2938 -0.1199
 1418SOL    HW2 4396   0.136   2.494   2.877 -1.6583  0.7313  0.0106
 1419SOL     OW 4397   3.226   2.806   2.219 -0.8794  0.5035 -0.4247
 1419SOL    HW1 4398   3.158   2.740   2.231 -0.4703 -0.1520 -1.5046
 1419SOL    HW2 4399   3.229   2.853   2.302 -0.4177 -1.5549  0.8004
 1420SOL     OW 4400   1.911   2.230   3.363 -0.6265 -0.3777  0.1728
 1420SOL    HW1 4401   1.820   2.254   3.379 -0.3111  0.7911  0.2694
 1420SOL    HW2 4402   1.945   2.208   3.450 -0.6492 -0.2503  0.2131
 1421SOL     OW 4403   0.913   1.622   1.766  0.2818  0.3524  0.3936
 1421SOL    HW1 4404   0.962   1.552   1.725  1.1316  0.5770  1.0043
 1421SOL    HW2 4405   0.844   1.643   1.703  0.1685 -0.8452  0.0906
 1422SOL     OW 4406   3.454   0.340   0.914  0.3262 -0.3275  0.0641
 1422SOL    HW1 4407   3.520   0.310   0.852  2.5185 -0.2781  2.2161
 1422SOL    HW2 4408   3.480   0.301   0.998 -0.6097  2.1289  1.6204
 1423SOL     OW 4409   0.886   0.062   2.578  0.0126 -0.5906  0.1089
 1423SOL    HW1 4410   0.817   0.077   2.513  1.4111 -0.2024 -1.3305
 1423SOL    HW2 4411   0.856  -0.015   2.628 -2.6939  1.0928  1.2987
 1424SOL     OW 4412   2.283   2.843   2.079  0.4209 -0.7011 -0.3798
 1424SOL    HW1 4413   2.205   2.810   2.122 -0.1972  0.0260 -0.9081
 1424SOL    HW2 4414   2.273   2.939   2.081  2.2893 -0.4612  1.3876
 1425SOL     OW 4415   2.306   1.685   0.626 -0.7506 -0.0109 -0.0735
 1425SOL    HW1 4416   2.234   1.738   0.593  0.3936  3.0209  1.9015
 1425SOL    HW2 4417   2.306   1.700   0.720 -0.0658 -3.3124  0.5689
 1426SOL     OW 4418   1.863   0.026   3.502  0.2715 -0.0416  0.0637
 1426SOL    HW1 4419   1.806   0.079   3.446 -0.3771 -0.0361  0.7105
 1426SOL    HW2 4420   1.813  -0.054   3.518 -0.2332  0.5867  1.8654
 1427SOL     OW 4421   3.051   3.527   1.490  0.6896  0.3306 -0.5188
 1427SOL    HW1 4422   3.042   3.621   1.479  3.3019  0.5231 -1.7910
 1427SOL    HW2 4423   2.985   3.503   1.555 -0.9587  2.7815 -1.1610
 1428SOL     OW 4424   3.189   0.977   2.498  0.2278  0.0722 -0.0790
 1428SOL    HW1 4425   3.190   0.921   2.420  1.6423 -1.2821  0.8634
 1428SOL    HW2 4426   3.131   1.049   2.474 -0.5698 -1.0733 -1.8404
 1429SOL     OW 4427   0.493   0.638   1.312 -1.2116  0.1107  0.3502
 1429SOL    HW1 4428   0.551   0.572   1.351 -0.5787 -1.7534 -3.3264
 1429SOL    HW2 4429   0.413   0.632   1.363  0.0377 -0.9522  2.3446
 1430SOL     OW 4430   1.439   1.713   1.834  0.3137  0.5142  0.2905
 1430SOL    HW1 4431   1.448   1.773   1.759 -1.8259 -0.6797 -1.0147
 1430SOL    HW2 4432   1.353   1.733   1.870  0.1940 -0.7681  0.7476
 1431SOL     OW 4433   2.614   1.727   3.415 -0.1568  0.1403 -0.4548
 1431SOL    HW1 4434   2.659   1.704   3.496  0.3298 -0.8392 -0.9788
 1431SOL    HW2 4435   2.526   1.690   3.426 -0.1348  0.1296 -0.3131
 1432SOL     OW 4436   2.740   1.302   3.607  0.5704 -0.1103 -0.5895
 1432SOL    HW1 4437   2.809   1.366   3.624 -0.5966  1.3964 -1.2511
 1432SOL    HW2 4438   2.737   1.248   3.686  0.5387  1.6802  0.7079
 1433SOL     OW 4439   0.625   2.267   1.595 -0.2244  0.7848 -0.0559
 1433SOL    HW1 4440   0.546   2.322   1.588 -0.3690  0.4872 -0.8482
 1433SOL    HW2 4441   0.643   2.240   1.506  0.5455  0.5053  0.1764
 1434SOL     OW 4442   3.162   2.282   3.615 -0.4267  0.6399  0.4686
 1434SOL    HW1 4443   3.206   2.344   3.557 -0.4972 -0.8700 -1.2751
 1434SOL    HW2 4444   3.136   2.210   3.558  1.3473 -1.9539  2.6524
 1435SOL     OW 4445   2.112  -0.001   1.439  0.5454 -0.0154  0.3104
 1435SOL    HW1 4446   2.075   0.074   1.484 -0.8908 -0.0021 -0.8303
 1435SOL    HW2 4447   2.037  -0.057   1.418  1.1971 -0.2585 -1.5840
 1436SOL     OW 4448   0.538   1.956   3.534 -0.6313  0.0182  0.4147
 1436SOL    HW1 4449   0.455   1.950   3.582 -0.0634 -1.8060  1.2481
 1436SOL    HW2 4450   0.587   2.025   3.580 -0.9696 -0.1614  1.0608
 1437SOL     OW 4451   2.453   1.242   2.977  0.1856 -0.3516 -0.1593
 1437SOL    HW1 4452   2.424   1.333   2.988  3.2746  0.7467 -0.1902
 1437SOL    HW2 4453   2.454   1.207   3.066 -0.8766 -0.3420 -0.1297
 1438SOL     OW 4454   3.280   1.486   0.636  0.4793  0.0339 -0.5191
 1438SOL    HW1 4455   3.364   1.458   0.674  0.7097 -0.9164 -1.6640
 1438SOL    HW2 4456   3.282   1.451   0.547 -0.1255  2.0495 -1.3624
 1439SOL     OW 4457   1.911   1.583   0.129 -0.0463  0.1632  0.6607
 1439SOL    HW1 4458   1.978   1.587   0.060 -1.6687  1.3023 -0.9524
 1439SOL    HW2 4459   1.910   1.491   0.157  1.4899 -0.0676  0.0297
 1440SOL     OW 4460   3.182   3.325   0.110 -0.0670 -0.2418 -0.0172
 1440SOL    HW1 4461   3.127   3.248   0.093 -0.9567 -0.0196  1.6678
 1440SOL    HW2 4462   3.264   3.289   0.145 -1.5533 -0.4600  3.6808
 1441SOL     OW 4463   3.325   1.625   1.973  0.2062  0.1851 -0.0097
 1441SOL    HW1 4464   3.326   1.682   1.896 -0.5458  1.2359  0.7404
 1441SOL    HW2 4465   3.318   1.685   2.047 -0.1841 -0.8661  0.8238
 1442SOL     OW 4466   3.173   3.156   3.150 -0.3483 -0.7006  0.4074
 1442SOL    HW1 4467   3.203   3.191   3.234 -0.1759  0.1141  0.0146
 1442SOL    HW2 4468   3.090   3.112   3.170  0.2755 -1.5416  1.2098
 1443SOL     OW 4469   3.168   1.104   1.052 -0.1058  1.0023 -0.3053
 1443SOL    HW1 4470   3.259   1.132   1.049 -0.4771  2.4174  0.5219
 1443SOL    HW2 4471   3.129   1.137   0.971  0.4584 -1.0684 -1.4932
 1444SOL     OW 4472   3.576   3.558   3.109 -0.1484  0.3507  0.2029
 1444SOL    HW1 4473   3.651   3.498   3.112 -0.1397  0.2984 -0.8114
 1444SOL    HW2 4474   3.613   3.643   3.133  0.4089  0.4799 -1.0731
 1445SOL     OW 4475   3.145   1.230   3.303  0.1354 -1.1032 -0.7547
 1445SOL    HW1 4476   3.152   1.135   3.305  0.1421 -1.1258 -1.6513
 1445SOL    HW2 4477   3.117   1.251   3.214 -0.6110 -0.3084 -0.3477
 1446SOL     OW 4478   0.708   0.359   2.317  0.0329 -0.5011  0.4331
 1446SOL    HW1 4479   0.686   0.429   2.256  1.2719 -0.5580 -0.1154
 1446SOL    HW2 4480   0.628   0.307   2.325 -0.6717  0.5275  0.2522
 1447SOL     OW 4481   3.200   2.666   0.736  0.0588 -0.3439 -0.6545
 1447SOL    HW1 4482   3.105   2.672   0.721 -0.7492 -0.8867  3.2009
 1447SOL    HW2 4483   3.224   2.580   0.702 -0.4744  0.3416 -2.9173
 1448SOL     OW 4484   1.629   0.588   0.798  0.3163  0.1987 -0.0764
 1448SOL    HW1 4485   1.645   0.576   0.892 -0.6848 -1.4506 -0.0769
 1448SOL    HW2 4486   1.646   0.681   0.783  1.2599  0.3361  1.5761
 1449SOL     OW 4487   2.556   2.571   3.321 -0.1729 -0.0213 -0.1843
 1449SOL    HW1 4488   2.618   2.504   3.350 -1.5355 -0.6801  1.3266
 1449SOL    HW2 4489   2.494   2.580   3.393 -1.4680  1.1012 -1.3714
 1450SOL     OW 4490   3.658   0.360   2.630  0.0239 -0.0580 -0.2805
 1450SOL    HW1 4491   3.604   0.303   2.575 -0.3634 -1.6739  1.6565
 1450SOL    HW2 4492   3.728   0.303   2.662  0.8165  1.0938  0.1117
 1451SOL     OW 4493   3.327   3.591   3.222  0.2936  0.9821  0.4461
 1451SOL    HW1 4494   3.412   3.594   3.178  1.6582 -1.7153  2.5557
 1451SOL    HW2 4495   3.348   3.578   3.315 -2.3770 -0.4207  0.9663
 1452SOL     OW 4496   3.525   0.582   2.489 -0.3078  0.1951 -0.0983
 1452SOL    HW1 4497   3.464   0.634   2.543 -1.3752 -0.9508 -0.1607
 1452SOL    HW2 4498   3.542   0.503   2.541  2.4336  1.1579  0.6443
 1453SOL     OW 4499   1.219   2.704   0.664  0.2408 -0.8061  0.0848
 1453SOL    HW1 4500   1.156   2.773   0.643 -0.1614 -1.7460 -2.0801
 1453SOL    HW2 4501   1.167   2.624   0.666  1.0310 -1.3198  0.4498
 1454SOL     OW 4502   2.072   2.781   0.485  0.7244 -0.1900  0.4471
 1454SOL    HW1 4503   2.035   2.715   0.426  1.0001  1.3355 -1.5488
 1454SOL    HW2 4504   2.013   2.856   0.476  2.8511  1.4325 -0.9365
 1455SOL     OW 4505   1.408   2.005   1.384  0.2587 -0.4759  0.0920
 1455SOL    HW1 4506   1.396   1.923   1.335 -0.5850 -0.1347 -0.3129
 1455SOL    HW2 4507   1.418   2.072   1.315  1.0496 -0.2579  0.4194
 1456SOL     OW 4508   2.134   2.757   0.926  0.0807 -0.0702  0.1431
 1456SOL    HW1 4509   2.049   2.757   0.883  0.5806 -1.2824 -0.9218
 1456SOL    HW2 4510   2.165   2.667   0.918  1.2931  0.2592  0.8566
 1457SOL     OW 4511   2.035   3.585   2.991  0.4447  0.4158 -0.5304
 1457SOL    HW1 4512   2.100   3.640   3.033  0.0973  1.0753 -0.8281
 1457SOL    HW2 4513   2.083   3.538   2.923  0.7717  0.2601 -0.1870
 1458SOL     OW 4514   0.495   2.361   0.978  0.2705 -0.1371 -0.0712
 1458SOL    HW1 4515   0.422   2.420   0.962  0.2141  0.1803  1.2423
 1458SOL    HW2 4516   0.502   2.308   0.898 -0.6259  0.6235 -0.6709
 1459SOL     OW 4517   2.029   0.418   1.448  0.8118 -0.1412 -0.2589
 1459SOL    HW1 4518   1.949   0.447   1.493  1.0827  2.6335 -1.3531
 1459SOL    HW2 4519   2.014   0.325   1.430 -2.6791  0.5040 -1.3885
 1460SOL     OW 4520   2.174   0.999   1.926 -0.2411  0.1625  0.4277
 1460SOL    HW1 4521   2.085   0.969   1.912  0.1419  0.0893 -2.5082
 1460SOL    HW2 4522   2.166   1.093   1.943 -0.8809  0.1463  0.2232
 1461SOL     OW 4523   2.772   2.465   3.148 -0.1226  0.4822 -0.3579
 1461SOL    HW1 4524   2.761   2.404   3.076 -1.2094 -0.0477  0.2350
 1461SOL    HW2 4525   2.684   2.476   3.185  0.5439 -0.0487  1.5155
 1462SOL     OW 4526   2.537   1.078   3.556 -0.1847 -0.3793  0.2079
 1462SOL    HW1 4527   2.568   1.151   3.610 -0.8260 -0.8620  1.2736
 1462SOL    HW2 4528   2.445   1.067   3.580  0.1612 -2.2306  0.9258
 1463SOL     OW 4529   1.235   1.590   2.519  0.6102  0.4795 -0.2119
 1463SOL    HW1 4530   1.221   1.590   2.424  0.8503  0.9769 -0.2549
 1463SOL    HW2 4531   1.153   1.558   2.556  0.3009  0.8574 -0.5625
 1464SOL     OW 4532   3.207   0.665   0.926  0.1996  0.1406 -0.1356
 1464SOL    HW1 4533   3.277   0.708   0.876  0.4375 -0.8354 -0.6683
 1464SOL    HW2 4534   3.170   0.735   0.980  1.0212  0.8622 -0.4756
 1465SOL     OW 4535   2.633   0.095   1.147 -0.8374  0.3480  0.5874
 1465SOL    HW1 4536   2.591   0.010   1.132 -2.4705  1.2722 -0.3719
 1465SOL    HW2 4537   2.619   0.143   1.065 -0.0658  1.6091  1.1683
 1466SOL     OW 4538   3.692   1.171   0.350 -0.1430 -0.4550 -0.4175
 1466SOL    HW1 4539   3.598   1.187   0.358 -0.2730 -1.3107 -0.1151
 1466SOL    HW2 4540   3.698   1.079   0.324  0.5464  0.0745 -2.3471
 1467SOL     OW 4541   1.105   3.496   1.530  0.0840  0.2105 -0.0831
 1467SOL    HW1 4542   1.178   3.442   1.502 -0.0083  0.6075 -1.1360
 1467SOL    HW2 4543   1.040   3.434   1.564 -0.5819 -0.5117 -2.5209
 1468SOL     OW 4544   1.050   0.491   1.307 -0.3043 -0.5790 -0.3627
 1468SOL    HW1 4545   1.008   0.543   1.375  1.3446 -1.1839  1.1812
 1468SOL    HW2 4546   1.000   0.409   1.305  0.3214 -1.0186  0.9642
 1469SOL     OW 4547   1.970   0.469   0.814  0.2325  0.1556  0.6886
 1469SOL    HW1 4548   2.041   0.418   0.775  0.0408  0.0954  0.4148
 1469SOL    HW2 4549   1.905   0.403   0.838  0.2264  0.2202  0.8474
 1470SOL     OW 4550   0.402   2.294   1.904 -0.0021  0.6712 -0.7803
 1470SOL    HW1 4551   0.365   2.209   1.881 -1.1084  0.6755  0.8163
 1470SOL    HW2 4552   0.342   2.358   1.866 -0.8705  0.6844  0.5372
 1471SOL     OW 4553   3.108   2.943   0.326 -0.1848 -0.2610  0.3452
 1471SOL    HW1 4554   3.037   2.893   0.367 -0.7633  0.2113 -0.0794
 1471SOL    HW2 4555   3.092   2.937   0.232 -0.9456  1.6878  0.3069
 1472SOL     OW 4556   1.511   2.694   0.105 -0.1021  0.0981  0.7071
 1472SOL    HW1 4557   1.425   2.693   0.147 -0.3626  1.6884  0.2822
 1472SOL    HW2 4558   1.522   2.605   0.070 -0.3157 -0.9918  3.1821
 1473SOL     OW 4559   3.454   0.476   1.579 -0.1824  0.3231 -0.0832
 1473SOL    HW1 4560   3.533   0.500   1.629 -0.3652  0.3307  0.2076
 1473SOL    HW2 4561   3.427   0.558   1.536 -1.8369  1.1666  2.3361
 1474SOL     OW 4562   1.977   1.588   1.601 -0.2464  0.7519  0.3169
 1474SOL    HW1 4563   2.010   1.677   1.616  2.2271  0.1735 -1.1276
 1474SOL    HW2 4564   2.050   1.542   1.560 -1.7432 -1.7393  0.2502
 1475SOL     OW 4565   0.009   1.980   2.345  0.3175 -0.4844 -0.3390
 1475SOL    HW1 4566   0.054   2.047   2.397  0.8152 -0.1736 -1.1626
 1475SOL    HW2 4567  -0.052   1.940   2.407  0.3579  0.3945  0.2944
 1476SOL     OW 4568   2.551   0.284   2.475 -0.2699 -0.1724 -0.8347
 1476SOL    HW1 4569   2.597   0.248   2.398 -0.0530  2.2818 -1.9449
 1476SOL    HW2 4570   2.621   0.303   2.538 -0.4504 -2.2132  0.0683
 1477SOL     OW 4571   3.065   0.929   1.696  0.0117 -0.3575 -0.1381
 1477SOL    HW1 4572   3.041   0.957   1.784  1.2537 -1.5035  0.6072
 1477SOL    HW2 4573   3.136   0.987   1.671 -0.0658 -0.2985 -0.2224
 1478SOL     OW 4574   1.520   2.068   0.772  0.0298 -0.5126 -0.4537
 1478SOL    HW1 4575   1.570   2.149   0.758  1.4271 -1.5719 -2.0155
 1478SOL    HW2 4576   1.484   2.047   0.686 -0.8526 -1.2227  0.0777
 1479SOL     OW 4577   0.278   3.048   1.003  0.3203 -0.5204  0.6112
 1479SOL    HW1 4578   0.201   3.007   0.965 -0.1968  1.3995 -0.5466
 1479SOL    HW2 4579   0.245   3.129   1.043  1.4329 -0.6833  1.9356
 1480SOL     OW 4580   0.495   1.393   0.775  1.1585  0.4516 -0.1437
 1480SOL    HW1 4581   0.497   1.487   0.796  0.1880  0.1288  1.5860
 1480SOL    HW2 4582   0.539   1.351   0.849  3.8101 -0.3670 -2.0272
 1481SOL     OW 4583   1.988   3.464   3.233 -0.3289 -0.3883  0.9010
 1481SOL    HW1 4584   2.003   3.507   3.149 -0.6734 -0.4770  0.7957
 1481SOL    HW2 4585   2.075   3.462   3.274 -0.3382  0.5658  0.9816
 1482SOL     OW 4586   2.545   1.360   3.416  0.1491  0.2071 -0.4414
 1482SOL    HW1 4587   2.499   1.420   3.476 -1.6016 -0.5614 -0.9373
 1482SOL    HW2 4588   2.611   1.318   3.470  2.6372  3.6780 -0.3986
 1483SOL     OW 4589   3.604   3.219   0.994  0.6200 -0.2392  0.3603
 1483SOL    HW1 4590   3.583   3.163   1.068  1.5822 -0.7586  0.2511
 1483SOL    HW2 4591   3.600   3.161   0.918 -2.4919  0.7055 -0.3456
 1484SOL     OW 4592   0.855   3.192   1.023 -0.7155 -0.3270 -0.1164
 1484SOL    HW1 4593   0.762   3.186   1.045 -0.9346 -2.2910 -1.3079
 1484SOL    HW2 4594   0.890   3.106   1.048  1.1211  0.8385  1.6029
 1485SOL     OW 4595   0.635   2.576   1.438 -1.0887  0.8689 -0.2950
 1485SOL    HW1 4596   0.704   2.601   1.499 -0.5563  0.0958 -0.5697
 1485SOL    HW2 4597   0.554   2.591   1.487 -0.6742  0.2853  0.6036
 1486SOL     OW 4598   0.118   2.800   1.483 -0.5798 -0.1193 -0.1411
 1486SOL    HW1 4599   0.059   2.816   1.557 -0.3426 -0.0340  0.0320
 1486SOL    HW2 4600   0.098   2.870   1.421  0.2687  0.7246  0.5005
 1487SOL     OW 4601   0.233   2.546   2.678 -0.3666 -0.4391  0.2811
 1487SOL    HW1 4602   0.324   2.515   2.686 -0.6915 -1.3080  0.7897
 1487SOL    HW2 4603   0.237   2.638   2.705  0.5559 -0.1246 -0.8646
 1488SOL     OW 4604   3.492   1.984   2.510 -0.1711 -0.2075 -1.0676
 1488SOL    HW1 4605   3.419   2.018   2.459 -0.1763 -0.2120 -1.0631
 1488SOL    HW2 4606   3.528   2.060   2.554 -1.0957 -0.4352  0.1140
 1489SOL     OW 4607   0.885   0.712   1.770  0.0763 -0.4251 -0.6672
 1489SOL    HW1 4608   0.909   0.799   1.740  2.1953 -0.9904 -0.8040
 1489SOL    HW2 4609   0.884   0.718   1.865 -3.2001  0.5243 -0.6692
 1490SOL     OW 4610   2.809   2.544   1.443  0.6859 -0.2677  0.7426
 1490SOL    HW1 4611   2.867   2.484   1.396 -1.1541 -2.4279  1.0367
 1490SOL    HW2 4612   2.747   2.573   1.376 -0.6507 -1.6792  1.3051
 1491SOL     OW 4613   2.882   1.904   2.624  0.3601  0.5006 -0.2090
 1491SOL    HW1 4614   2.841   1.910   2.710 -2.6381 -0.3984 -1.4591
 1491SOL    HW2 4615   2.899   1.995   2.600  0.1583  0.8271  0.8163
 1492SOL     OW 4616   0.686   0.794   0.916 -0.2428 -0.0158 -0.2281
 1492SOL    HW1 4617   0.727   0.880   0.918 -0.9715  0.3262  0.9023
 1492SOL    HW2 4618   0.748   0.736   0.958  0.1538 -0.0087 -0.7926
 1493SOL     OW 4619   0.023   1.572   0.928  0.2960  0.2954  0.3609
 1493SOL    HW1 4620   0.087   1.544   0.862  0.7418 -1.2535  1.3903
 1493SOL    HW2 4621   0.067   1.643   0.976  0.9455 -0.2211  0.5487
 1494SOL     OW 4622   1.984   3.090   0.829  0.5922 -0.6587 -0.3000
 1494SOL    HW1 4623   2.001   3.080   0.922 -1.0054  1.1611  0.2499
 1494SOL    HW2 4624   1.898   3.050   0.815  0.0278  0.6060 -0.6066
 1495SOL     OW 4625   0.455   0.672   2.576 -0.4851  0.8475  0.0895
 1495SOL    HW1 4626   0.364   0.646   2.581 -0.2731 -0.3613 -1.4459
 1495SOL    HW2 4627   0.504   0.590   2.573  0.4825  1.4249 -1.1273
 1496SOL     OW 4628   2.702   0.067   1.718 -0.0430  0.1774 -0.5596
 1496SOL    HW1 4629   2.700   0.139   1.781  0.8761  0.4619 -0.8351
 1496SOL    HW2 4630   2.638   0.004   1.751 -0.8412  1.1082 -0.3049
 1497SOL     OW 4631   2.351   0.107   2.063  0.6077 -0.1896  0.0904
 1497SOL    HW1 4632   2.335   0.057   2.143 -0.3162  1.7964  1.2253
 1497SOL    HW2 4633   2.279   0.169   2.058  0.4958 -0.3996 -2.4602
 1498SOL     OW 4634   1.731   0.104   0.273  0.4921  0.0600  0.2159
 1498SOL    HW1 4635   1.636   0.104   0.260  0.7473 -3.2744 -3.4273
 1498SOL    HW2 4636   1.765   0.163   0.205  1.1048 -0.3480  0.1643
 1499SOL     OW 4637   3.111   1.297   1.478  0.0810 -0.4338  1.0772
 1499SOL    HW1 4638   3.129   1.246   1.557  2.6662 -1.4269 -0.0493
 1499SOL    HW2 4639   3.088   1.231   1.412  1.7273 -0.0162  0.0503
 1500SOL     OW 4640   2.419   1.419   0.371  0.0381  0.1008  0.1934
 1500SOL    HW1 4641   2.438   1.327   0.357 -2.4146 -0.3040 -0.8219
 1500SOL    HW2 4642   2.325   1.423   0.389 -0.0028  2.4255 -0.1222
 1501SOL     OW 4643   0.324   0.062   2.655  0.0760  0.5770 -0.8994
 1501SOL    HW1 4644   0.385  -0.003   2.620 -1.4269 -2.2807  1.4026
 1501SOL    HW2 4645   0.341   0.064   2.749 -1.5367  1.7804 -0.5718
 1502SOL     OW 4646   1.580   0.393   1.124 -0.6327  0.1585  0.1351
 1502SOL    HW1 4647   1.535   0.308   1.116 -0.0237 -0.0625 -1.2094
 1502SOL    HW2 4648   1.509   0.458   1.117 -1.0434 -0.2290  0.6339
 1503SOL     OW 4649   3.064   2.466   2.987  0.1707  0.2174  0.3717
 1503SOL    HW1 4650   3.004   2.392   2.997  0.8703 -0.2410  1.3673
 1503SOL    HW2 4651   3.014   2.531   2.937 -1.0669 -0.2491  0.9608
 1504SOL     OW 4652   2.216   1.669   3.067  0.0984 -0.0162 -0.0534
 1504SOL    HW1 4653   2.127   1.666   3.032 -0.1744 -0.1716  0.6441
 1504SOL    HW2 4654   2.270   1.693   2.992 -0.8243  2.5634  0.0030
 1505SOL     OW 4655   0.075   0.078   2.596  0.4460 -0.2782 -0.6366
 1505SOL    HW1 4656   0.168   0.059   2.606  0.5273 -1.1230 -2.5955
 1505SOL    HW2 4657   0.056   0.059   2.504 -0.5674  4.6332 -1.7166
 1506SOL     OW 4658   1.664   1.655   2.209  0.3045 -0.1340  0.2118
 1506SOL    HW1 4659   1.725   1.605   2.155 -0.0064 -2.0593  1.5308
 1506SOL    HW2 4660   1.719   1.702   2.272  0.5113 -0.6022  0.3839
 1507SOL     OW 4661   2.825   1.153   0.106  0.5309  0.5245 -0.2952
 1507SOL    HW1 4662   2.903   1.119   0.062 -0.0636 -3.2355  1.1611
 1507SOL    HW2 4663   2.850   1.160   0.198 -0.2453  1.3907 -0.1370
 1508SOL     OW 4664   0.677   0.936   3.172  0.4126 -0.0225 -0.5903
 1508SOL    HW1 4665   0.767   0.944   3.140  0.5500  0.9366 -0.0121
 1508SOL    HW2 4666   0.682   0.954   3.266 -0.4274  0.4875 -0.6234
 1509SOL     OW 4667   1.112   2.434   2.698 -0.0094  0.4003  0.2276
 1509SOL    HW1 4668   1.197   2.474   2.715 -0.7366  2.3401 -0.4821
 1509SOL    HW2 4669   1.049   2.491   2.742 -0.9032 -1.7247  1.8756
 1510SOL     OW 4670   0.972   2.534   3.105  0.2646 -0.1254  0.1223
 1510SOL    HW1 4671   1.027   2.488   3.167 -1.3832  0.1252  1.8682
 1510SOL    HW2 4672   1.027   2.605   3.071  1.2360 -0.3425  1.2017
 1511SOL     OW 4673   0.322   1.583   3.506 -0.1131 -0.4068  0.8774
 1511SOL    HW1 4674   0.293   1.637   3.432 -0.5803 -0.7933  0.7732
 1511SOL    HW2 4675   0.293   1.495   3.484 -0.9665 -0.3976  1.8867
 1512SOL     OW 4676   1.038   1.881   0.284  0.6831 -0.1039  0.2874
 1512SOL    HW1 4677   1.028   1.971   0.314  0.4835 -0.1990  0.5112
 1512SOL    HW2 4678   0.989   1.877   0.202  1.8390  0.3507 -0.4428
 1513SOL     OW 4679   3.585   3.038   1.536  0.4387 -0.1356  0.5228
 1513SOL    HW1 4680   3.650   3.108   1.529 -0.9293  1.1085 -0.7434
 1513SOL    HW2 4681   3.503   3.084   1.555 -1.0430 -0.9730 -2.9792
 1514SOL     OW 4682   2.668   2.040   2.067  0.0316  0.5588  0.0252
 1514SOL    HW1 4683   2.619   2.029   1.985  0.0684  2.1484 -0.2384
 1514SOL    HW2 4684   2.720   1.960   2.075  1.4675  1.1498 -2.5057
 1515SOL     OW 4685   2.890   3.336   2.802  0.3487  0.3887 -0.0858
 1515SOL    HW1 4686   2.894   3.373   2.890  3.0767  0.0522  0.0145
 1515SOL    HW2 4687   2.801   3.302   2.795 -0.2133  1.1604  2.2206
 1516SOL     OW 4688   1.497   0.463   2.208 -0.3207  0.4067  0.2936
 1516SOL    HW1 4689   1.465   0.416   2.285 -0.3600 -2.8576 -1.5531
 1516SOL    HW2 4690   1.421   0.469   2.150 -0.1642  2.3630  0.2274
 1517SOL     OW 4691   0.166   3.451   2.701 -0.6027  0.3111  0.5419
 1517SOL    HW1 4692   0.076   3.464   2.732 -0.8040  0.2635 -0.0089
 1517SOL    HW2 4693   0.161   3.468   2.606 -0.0317  0.3084  0.5104
 1518SOL     OW 4694   0.362   0.261   1.211 -0.6946 -0.0693 -0.7178
 1518SOL    HW1 4695   0.272   0.247   1.238 -1.0752  2.8921 -0.0870
 1518SOL    HW2 4696   0.359   0.340   1.156  1.6810  1.2055  0.7979
 1519SOL     OW 4697   2.695   2.276   1.225  0.2160  0.3703  0.1362
 1519SOL    HW1 4698   2.616   2.262   1.174 -1.0045  0.1727  1.9715
 1519SOL    HW2 4699   2.743   2.345   1.178 -0.0495 -0.8531 -2.0415
 1520SOL     OW 4700   3.307   0.854   1.564  0.3024 -0.2116  0.8953
 1520SOL    HW1 4701   3.277   0.909   1.493  0.0600 -2.7363 -1.0882
 1520SOL    HW2 4702   3.383   0.900   1.600  0.2675  1.2513 -0.8021
 1521SOL     OW 4703   3.603   1.860   0.343 -0.4615 -0.2264  0.2365
 1521SOL    HW1 4704   3.516   1.898   0.353 -1.2042 -1.8632  0.2394
 1521SOL    HW2 4705   3.629   1.884   0.254 -1.1765 -0.2171  0.0208
 1522SOL     OW 4706   3.610   0.772   3.300  0.5803  0.7480 -0.0308
 1522SOL    HW1 4707   3.621   0.866   3.312  0.1358  0.6324  1.4155
 1522SOL    HW2 4708   3.520   0.754   3.327  0.6217 -0.0810 -0.4041
 1523SOL     OW 4709   2.821   1.139   1.058  0.0216  0.4942 -0.0184
 1523SOL    HW1 4710   2.759   1.070   1.037 -1.7800  2.4188 -1.3358
 1523SOL    HW2 4711   2.867   1.156   0.976 -0.2376  1.5076  0.0372
 1524SOL     OW 4712   3.031   3.200   1.359 -0.2934 -0.5544 -0.3073
 1524SOL    HW1 4713   2.980   3.238   1.430  0.1993 -2.7599  1.3192
 1524SOL    HW2 4714   3.092   3.269   1.333 -1.0043  0.5496  0.8623
 1525SOL     OW 4715   3.308   3.411   3.598 -0.8896  0.4240  0.3499
 1525SOL    HW1 4716   3.376   3.468   3.562 -1.2033  0.4589 -0.1946
 1525SOL    HW2 4717   3.297   3.442   3.688 -1.0127  1.1860  0.0838
 1526SOL     OW 4718   0.030   0.607   0.743 -0.1802  0.2100 -0.0672
 1526SOL    HW1 4719   0.109   0.636   0.790 -1.2742 -0.8708  2.5852
 1526SOL    HW2 4720   0.055   0.523   0.704  0.7007  1.0616 -1.4260
 1527SOL     OW 4721   1.994   1.532   1.168 -0.4741  0.0629  0.2337
 1527SOL    HW1 4722   2.089   1.540   1.156 -0.4783  0.6863  0.5734
 1527SOL    HW2 4723   1.960   1.618   1.142 -0.8846  0.0414  0.6876
 1528SOL     OW 4724   1.463   2.380   1.585 -0.5949  0.4732  0.1328
 1528SOL    HW1 4725   1.462   2.383   1.681 -1.3384 -0.1088  0.1605
 1528SOL    HW2 4726   1.386   2.327   1.563 -1.2724  1.7991 -0.8406
 1529SOL     OW 4727   0.989   2.891   0.860  0.1208 -0.3606 -0.1245
 1529SOL    HW1 4728   0.930   2.846   0.920  0.4479  0.3869  0.7840
 1529SOL    HW2 4729   1.056   2.825   0.839 -0.2732 -0.7841 -0.0666
 1530SOL     OW 4730   2.373   3.281   0.641 -0.3414  0.5256  0.1444
 1530SOL    HW1 4731   2.447   3.265   0.582 -0.2549  0.3098  0.3089
 1530SOL    HW2 4732   2.311   3.333   0.589 -1.2236 -1.4211 -0.8783
 1531SOL     OW 4733   0.725   1.928   0.534 -0.0675 -0.3055  0.2012
 1531SOL    HW1 4734   0.738   2.013   0.492  1.4601  0.9669  2.9630
 1531SOL    HW2 4735   0.652   1.888   0.486  0.3138  1.7656 -2.3030
 1532SOL     OW 4736   3.567   2.303   2.401 -0.1362 -0.0216  0.2331
 1532SOL    HW1 4737   3.565   2.214   2.365 -0.0906 -0.2404  0.7630
 1532SOL    HW2 4738   3.495   2.349   2.357 -0.0943 -0.2922 -0.1170
 1533SOL     OW 4739   2.943   2.627   3.386  0.2782 -0.0180 -0.0452
 1533SOL    HW1 4740   2.863   2.633   3.334  1.4955  1.8157 -1.8577
 1533SOL    HW2 4741   2.992   2.554   3.348  0.9225  0.9745 -1.1561
 1534SOL     OW 4742   2.780   1.994   2.892  0.3828 -0.0759  0.1246
 1534SOL    HW1 4743   2.766   2.069   2.834 -0.8290 -1.5448 -1.5736
 1534SOL    HW2 4744   2.692   1.966   2.918  0.7743 -1.2332  0.2838
 1535SOL     OW 4745   1.459   0.898   0.340  0.5762 -0.7639 -0.5556
 1535SOL    HW1 4746   1.505   0.843   0.404  1.9420 -0.2418 -1.0345
 1535SOL    HW2 4747   1.465   0.987   0.376 -1.2124 -0.8231 -0.0124
 1536SOL     OW 4748   0.261   3.712   0.128 -0.0813 -0.3131  0.0463
 1536SOL    HW1 4749   0.188   3.660   0.095 -0.2362 -0.8399  1.1804
 1536SOL    HW2 4750   0.243   3.801   0.097 -0.9362 -0.5256 -0.0946
 1537SOL     OW 4751   1.241   1.790   0.661  0.4743  0.0995 -0.7651
 1537SOL    HW1 4752   1.183   1.725   0.701  1.1390  0.4815  0.8992
 1537SOL    HW2 4753   1.324   1.781   0.709  1.6366 -0.0573 -2.7163
 1538SOL     OW 4754   3.357   0.498   2.890 -0.2381 -0.1757 -0.6770
 1538SOL    HW1 4755   3.328   0.420   2.843  0.1936  0.0441 -1.3231
 1538SOL    HW2 4756   3.440   0.522   2.848 -0.0368  0.2490 -0.0514
 1539SOL     OW 4757   3.368   0.820   3.493 -0.3335 -0.2179 -0.1337
 1539SOL    HW1 4758   3.295   0.867   3.533  0.0149  0.0513  0.1976
 1539SOL    HW2 4759   3.446   0.856   3.537  0.1115  0.5207 -1.4658
 1540SOL     OW 4760   0.896   2.256   1.380  0.1237 -0.2548  0.5332
 1540SOL    HW1 4761   0.921   2.341   1.417  2.5312 -0.4241 -0.5091
 1540SOL    HW2 4762   0.812   2.273   1.337  0.0028  1.2993  1.3014
 1541SOL     OW 4763   1.889   0.004   3.208  0.5512  0.1306 -0.1197
 1541SOL    HW1 4764   1.951  -0.053   3.253 -0.1577 -0.8464 -0.3366
 1541SOL    HW2 4765   1.909   0.092   3.240  1.7157 -0.2254  0.1743
 1542SOL     OW 4766   2.661   2.122   1.483  0.4072 -0.1918  0.0154
 1542SOL    HW1 4767   2.663   2.142   1.390  2.9048 -0.4469 -0.0449
 1542SOL    HW2 4768   2.657   2.208   1.526 -0.0037 -0.0459 -0.3048
 1543SOL     OW 4769   2.674   3.128   3.330  0.2081  0.2589 -0.0621
 1543SOL    HW1 4770   2.671   3.035   3.311  1.9131  0.2350 -0.3655
 1543SOL    HW2 4771   2.606   3.167   3.275  0.7572 -0.5794 -1.3594
 1544SOL     OW 4772   0.035   1.876   0.794 -0.2919  0.1686 -0.2519
 1544SOL    HW1 4773   0.056   1.856   0.702  0.5694 -1.9215  0.3295
 1544SOL    HW2 4774   0.106   1.835   0.844 -3.5714 -4.0223  1.6342
 1545SOL     OW 4775   0.523   3.735   3.227 -0.0589  0.4711  0.0482
 1545SOL    HW1 4776   0.530   3.653   3.276  1.5167  0.4194 -0.2043
 1545SOL    HW2 4777   0.431   3.761   3.237 -0.8322 -1.7232 -0.5000
 1546SOL     OW 4778   0.253   0.252   2.078 -0.0337 -0.0741  0.1380
 1546SOL    HW1 4779   0.259   0.329   2.022  1.4376 -1.0847 -1.1639
 1546SOL    HW2 4780   0.187   0.197   2.036  1.7556 -1.2692 -1.2489
 1547SOL     OW 4781   2.362   2.719   0.070 -0.2340 -0.1472  0.4805
 1547SOL    HW1 4782   2.343   2.680   0.155 -0.4907  0.6687  0.8037
 1547SOL    HW2 4783   2.279   2.719   0.024 -0.6635  1.6495  1.1688
 1548SOL     OW 4784   0.806   1.590   0.990  0.3361  0.3333 -0.6607
 1548SOL    HW1 4785   0.892   1.621   0.964 -0.1011  2.1760 -0.0094
 1548SOL    HW2 4786   0.750   1.667   0.988 -0.8493 -0.4148  0.8922
 1549SOL     OW 4787   1.275   0.594   2.481  0.0067 -0.5114 -0.0763
 1549SOL    HW1 4788   1.195   0.596   2.534  1.2923  2.9037  2.0641
 1549SOL    HW2 4789   1.244   0.606   2.391 -1.9390  0.9686  0.7139
 1550SOL     OW 4790   3.369   3.148   1.647 -0.0989 -0.3097 -0.4356
 1550SOL    HW1 4791   3.293   3.094   1.627 -0.5515 -0.3150  1.1667
 1550SOL    HW2 4792   3.395   3.122   1.735 -0.8606  2.5949  0.7786
 1551SOL     OW 4793   0.813   2.083   3.245 -0.4095 -0.2154  0.2928
 1551SOL    HW1 4794   0.748   2.104   3.177 -0.1261 -2.3097 -0.7069
 1551SOL    HW2 4795   0.823   2.164   3.295 -2.9792  0.4923 -0.2008
 1552SOL     OW 4796   2.950   2.049   1.713  0.0157 -0.2989  0.5073
 1552SOL    HW1 4797   2.869   2.000   1.699  1.6505 -2.2684 -4.2696
 1552SOL    HW2 4798   2.965   2.094   1.630  2.7011  1.8985  2.0146
 1553SOL     OW 4799   0.848   3.652   1.419 -1.1225 -0.1288  0.1720
 1553SOL    HW1 4800   0.852   3.586   1.349 -3.0446  0.8880 -1.0032
 1553SOL    HW2 4801   0.937   3.686   1.425 -0.3641 -1.9286 -0.0488
 1554SOL     OW 4802   1.245   0.155  -0.004  0.1483  0.3363 -0.5754
 1554SOL    HW1 4803   1.196   0.174   0.076 -0.4087  0.5533 -0.9657
 1554SOL    HW2 4804   1.246   0.060  -0.009  0.3494  0.3170 -0.2106
 1555SOL     OW 4805   1.472   0.031   3.395 -0.2946  0.1401 -0.0348
 1555SOL    HW1 4806   1.399   0.076   3.352 -0.3687  0.8955  0.8430
 1555SOL    HW2 4807   1.540   0.026   3.328  0.2678  2.9139  0.2132
 1556SOL     OW 4808   1.372   0.993   2.607  0.1481 -0.8484 -0.1322
 1556SOL    HW1 4809   1.364   1.079   2.565  0.1882 -1.2736 -1.0323
 1556SOL    HW2 4810   1.282   0.964   2.620  0.1036 -0.1312  1.3442
 1557SOL     OW 4811   2.513   3.585   1.136 -0.2234  0.5433  0.2656
 1557SOL    HW1 4812   2.418   3.586   1.150  0.0535 -2.2232  3.7607
 1557SOL    HW2 4813   2.525   3.529   1.060 -1.4008 -1.0858  1.2102
 1558SOL     OW 4814   1.120   3.071   0.138 -0.2460  0.3054 -0.0411
 1558SOL    HW1 4815   1.105   3.103   0.227 -1.5317  1.1074 -0.5268
 1558SOL    HW2 4816   1.105   2.976   0.144 -2.3539  0.6039  0.2192
 1559SOL     OW 4817   0.927   1.219   2.053  0.2445 -0.1678  0.3204
 1559SOL    HW1 4818   0.895   1.134   2.084  2.7399 -1.5968 -0.7848
 1559SOL    HW2 4819   0.977   1.253   2.127  2.7685 -1.6882 -0.5847
 1560SOL     OW 4820   1.115   1.479   0.928  0.0737  0.3357 -0.0449
 1560SOL    HW1 4821   1.195   1.508   0.883  0.2661  0.4339  0.3578
 1560SOL    HW2 4822   1.087   1.556   0.978 -0.4508  0.4031 -0.4266
 1561SOL     OW 4823   0.131   0.731   3.486  0.5838 -0.1005 -0.0368
 1561SOL    HW1 4824   0.109   0.640   3.467  0.7793  0.0451 -1.0500
 1561SOL    HW2 4825   0.055   0.780   3.455  0.2217  0.0524  1.0486
 1562SOL     OW 4826   0.192   1.541   0.713  0.1057  0.3335  0.4921
 1562SOL    HW1 4827   0.281   1.576   0.713  0.6443 -0.9531 -0.6397
 1562SOL    HW2 4828   0.202   1.448   0.693 -1.5227  0.2629 -0.1815
 1563SOL     OW 4829   2.231   0.512   0.456  0.5442  0.2608  0.2621
 1563SOL    HW1 4830   2.282   0.484   0.531  3.0019  0.2683 -1.3147
 1563SOL    HW2 4831   2.210   0.604   0.473 -1.9589 -0.5850  2.4423
 1564SOL     OW 4832   2.751   1.929   0.378 -0.1092 -0.4030 -0.3413
 1564SOL    HW1 4833   2.829   1.961   0.424 -1.0933  0.8490  0.5143
 1564SOL    HW2 4834   2.714   1.863   0.437  0.6413 -1.5037 -1.0572
 1565SOL     OW 4835   2.830   2.703   0.541  0.5950  0.1158  0.3048
 1565SOL    HW1 4836   2.774   2.672   0.469  0.0244  0.5382  0.5583
 1565SOL    HW2 4837   2.900   2.639   0.545 -0.3374 -0.9313  0.5451
 1566SOL     OW 4838   1.435   1.765   2.482  0.4135  0.2489 -0.7083
 1566SOL    HW1 4839   1.353   1.720   2.501 -0.3703  2.0471  0.4518
 1566SOL    HW2 4840   1.490   1.748   2.558  0.6732  0.0337 -0.9424
 1567SOL     OW 4841   3.578   3.129   2.780 -0.1711 -0.6326  0.3108
 1567SOL    HW1 4842   3.652   3.104   2.836  1.3021  0.3820 -1.0937
 1567SOL    HW2 4843   3.510   3.156   2.842  0.7800 -1.1651  1.6449
 1568SOL     OW 4844   3.033   1.123   1.284  0.0854 -0.7295  0.3259
 1568SOL    HW1 4845   3.125   1.103   1.302  0.1676 -0.2295  0.4768
 1568SOL    HW2 4846   3.027   1.123   1.188  0.1367 -1.2195  0.3201
 1569SOL     OW 4847   2.430   1.652   2.161  0.0304  0.2132  0.9288
 1569SOL    HW1 4848   2.393   1.567   2.183 -1.2491  0.4949 -0.0463
 1569SOL    HW2 4849   2.512   1.632   2.116 -1.1053 -0.5938 -0.8737
 1570SOL     OW 4850   3.063   3.579   0.552  0.1275  0.1764 -0.1756
 1570SOL    HW1 4851   3.066   3.490   0.587  2.7269  1.3401  3.0565
 1570SOL    HW2 4852   3.123   3.576   0.477  0.3694 -0.7643  0.0296
 1571SOL     OW 4853   2.056   2.677   1.812  0.4604 -0.3392  0.0595
 1571SOL    HW1 4854   2.021   2.766   1.805 -3.1421 -1.6487 -0.6495
 1571SOL    HW2 4855   2.077   2.667   1.905 -1.4781  0.5150  0.6529
 1572SOL     OW 4856   1.008   1.501   2.622 -0.4833  0.6245 -0.2773
 1572SOL    HW1 4857   1.000   1.487   2.716 -0.5904 -2.1325 -0.6128
 1572SOL    HW2 4858   0.931   1.459   2.584  0.7930 -0.5689 -1.7095
 1573SOL     OW 4859   0.430   0.240   1.878 -0.4816 -0.3437  0.6445
 1573SOL    HW1 4860   0.495   0.171   1.864 -0.7683 -0.3744 -0.6478
 1573SOL    HW2 4861   0.388   0.217   1.960 -0.4581 -1.6227  0.3146
 1574SOL     OW 4862   0.862   0.469   0.582  0.4251  0.5638 -0.0537
 1574SOL    HW1 4863   0.824   0.557   0.590 -2.6016 -0.6881  0.6822
 1574SOL    HW2 4864   0.846   0.444   0.491  0.4193  0.4281 -0.0151
 1575SOL     OW 4865   1.072   2.302   0.941 -0.3837 -0.5173  0.1525
 1575SOL    HW1 4866   1.103   2.294   1.031  0.0530 -1.1007 -0.0470
 1575SOL    HW2 4867   0.985   2.262   0.942 -0.3581 -0.5709  0.3072
 1576SOL     OW 4868   3.599   1.496   1.299  0.4242  0.5485  0.3730
 1576SOL    HW1 4869   3.523   1.542   1.335  0.3248 -0.3441  1.3494
 1576SOL    HW2 4870   3.575   1.476   1.209  0.1963  1.7733  0.1408
 1577SOL     OW 4871   0.823   1.596   2.941 -0.0106 -0.1910  0.2223
 1577SOL    HW1 4872   0.834   1.505   2.968 -2.2905 -0.3255  0.8891
 1577SOL    HW2 4873   0.907   1.637   2.963  0.3830 -1.6920  1.8064
 1578SOL     OW 4874   1.717   3.154   2.033 -0.5075  0.5242  0.0161
 1578SOL    HW1 4875   1.649   3.170   1.968 -0.3378 -2.5101 -1.0929
 1578SOL    HW2 4876   1.669   3.141   2.115 -2.1532 -5.6484 -1.3788
 1579SOL     OW 4877   1.704   1.744   0.677 -0.4954  0.9839 -0.2818
 1579SOL    HW1 4878   1.788   1.725   0.634  0.3534 -0.4169  1.8415
 1579SOL    HW2 4879   1.638   1.707   0.618  0.4155  1.2951 -1.5428
 1580SOL     OW 4880   2.967   2.848   2.677  0.6046 -0.2604 -0.2500
 1580SOL    HW1 4881   2.871   2.843   2.681  0.4170  1.0124 -2.0109
 1580SOL    HW2 4882   2.986   2.941   2.690  1.3509  0.0096 -2.7633
 1581SOL     OW 4883   3.549   0.260   3.495  0.5856 -0.0240 -0.0496
 1581SOL    HW1 4884   3.534   0.249   3.401 -1.7155 -0.9283  0.3343
 1581SOL    HW2 4885   3.461   0.273   3.532  0.9415 -3.0039  2.3123
 1582SOL     OW 4886   0.335   2.189   2.225 -0.5024  0.7111  0.3234
 1582SOL    HW1 4887   0.315   2.242   2.147  0.1347  0.2114 -0.1961
 1582SOL    HW2 4888   0.423   2.155   2.208 -1.3111 -1.4149  0.1032
 1583SOL     OW 4889   0.118   2.807   2.736 -0.4277 -0.1833 -0.3483
 1583SOL    HW1 4890   0.073   2.884   2.771 -0.7485  0.0281 -1.1935
 1583SOL    HW2 4891   0.118   2.821   2.641 -0.6388 -1.3055 -0.5261
 1584SOL     OW 4892   3.374   1.089   2.657  0.2786 -0.5852  0.6570
 1584SOL    HW1 4893   3.318   1.029   2.607 -0.0649 -0.7139  1.1812
 1584SOL    HW2 4894   3.397   1.158   2.595  1.1959 -1.5747 -0.1319
 1585SOL     OW 4895   2.076   3.151   0.574  0.3680 -0.6180 -0.0243
 1585SOL    HW1 4896   2.060   3.103   0.655  0.5065  0.2043  0.4964
 1585SOL    HW2 4897   2.100   3.239   0.602  2.6217 -0.8866 -0.8525
 1586SOL     OW 4898   0.433   3.628   3.666  0.9638 -0.0176  0.1900
 1586SOL    HW1 4899   0.367   3.635   3.735  0.3057 -0.8778 -0.3343
 1586SOL    HW2 4900   0.481   3.710   3.670 -1.1313  1.3081 -0.4297
 1587SOL     OW 4901   2.943   3.287   0.320 -0.3933 -0.0209  0.1733
 1587SOL    HW1 4902   2.898   3.204   0.301 -1.5490  1.0371 -2.0231
 1587SOL    HW2 4903   2.997   3.303   0.244  2.4015 -0.2761  1.9552
 1588SOL     OW 4904   3.091   1.817   1.793 -0.3186 -0.3500 -0.6018
 1588SOL    HW1 4905   3.052   1.885   1.738 -3.6126 -0.6511  1.1174
 1588SOL    HW2 4906   3.101   1.859   1.879 -2.0125 -1.7903  0.3671
 1589SOL     OW 4907   0.783   3.641   0.084  0.1599 -0.1518 -0.3597
 1589SOL    HW1 4908   0.724   3.589   0.138 -0.6103 -0.0765 -1.1177
 1589SOL    HW2 4909   0.864   3.589   0.080 -0.5704 -1.2812 -1.0419
 1590SOL     OW 4910   2.670   2.811   2.638  0.3057  0.4007  0.2995
 1590SOL    HW1 4911   2.598   2.799   2.577 -0.6975 -2.8080  1.9118
 1590SOL    HW2 4912   2.628   2.837   2.720  0.9960 -0.9739  1.1250
 1591SOL     OW 4913   0.072   2.490   1.236 -0.0416  0.0243  0.4895
 1591SOL    HW1 4914   0.142   2.475   1.299  1.3494  0.6420 -0.8594
 1591SOL    HW2 4915   0.057   2.404   1.196  0.5837  0.0565  0.1678
 1592SOL     OW 4916   0.258   2.798   2.988 -0.1799  0.0431 -1.1470
 1592SOL    HW1 4917   0.185   2.805   3.050 -0.0754 -3.2618 -0.4747
 1592SOL    HW2 4918   0.218   2.815   2.903 -1.2081  0.6395 -0.5766
 1593SOL     OW 4919   0.643   2.743   2.319 -0.3165 -0.5590  0.0746
 1593SOL    HW1 4920   0.698   2.692   2.379  0.1274  0.6318  0.7171
 1593SOL    HW2 4921   0.706   2.793   2.267 -0.7637 -0.0872 -0.0147
 1594SOL     OW 4922   1.913   0.280   2.245 -0.2389 -0.3937  0.4039
 1594SOL    HW1 4923   1.834   0.284   2.192 -1.0260 -0.2758  1.5463
 1594SOL    HW2 4924   1.890   0.225   2.319  0.5647  0.1156  1.0564
 1595SOL     OW 4925   1.797   1.168   3.359  0.8047 -0.2533 -0.3931
 1595SOL    HW1 4926   1.829   1.239   3.414 -1.4870 -1.4302  2.6972
 1595SOL    HW2 4927   1.767   1.212   3.279  1.6224  1.9320  0.4212
 1596SOL     OW 4928   2.239   1.766   1.225 -0.4372  0.3768  0.2724
 1596SOL    HW1 4929   2.268   1.751   1.135  2.0307 -0.2412  1.0948
 1596SOL    HW2 4930   2.312   1.736   1.279 -1.6649  1.1601  2.4892
 1597SOL     OW 4931   3.342   3.555   0.446 -0.2370 -0.4686 -0.0320
 1597SOL    HW1 4932   3.434   3.559   0.420  0.1218  1.7951  1.2943
 1597SOL    HW2 4933   3.341   3.495   0.521  0.1117 -0.7005 -0.2092
 1598SOL     OW 4934   3.144   1.272   0.178  1.0490 -0.5107 -0.1221
 1598SOL    HW1 4935   3.126   1.207   0.110  0.4417 -1.1901  0.6727
 1598SOL    HW2 4936   3.098   1.351   0.148 -0.4380 -1.2271  0.1823
 1599SOL     OW 4937   3.190   3.627   1.914 -0.3143  0.7125 -0.3399
 1599SOL    HW1 4938   3.190   3.542   1.958 -0.2453  1.3551  0.9512
 1599SOL    HW2 4939   3.101   3.636   1.880 -1.0842  1.1344  1.6318
 1600SOL     OW 4940   3.414   3.517   0.148 -0.6638  0.0183  0.0865
 1600SOL    HW1 4941   3.493   3.468   0.123 -1.3439 -1.6099  1.0138
 1600SOL    HW2 4942   3.398   3.491   0.238 -2.1858  0.4438 -0.0491
 1601SOL     OW 4943   0.907   2.700   0.519 -0.0301  0.4246  0.6563
 1601SOL    HW1 4944   0.823   2.697   0.565 -0.0131  0.7043  0.7064
 1601SOL    HW2 4945   0.939   2.789   0.533  0.4305  0.2189  0.9112
 1602SOL     OW 4946   2.113   2.396   3.449 -0.2898 -0.2775  0.3109
 1602SOL    HW1 4947   2.045   2.453   3.486  0.2675  0.9038 -0.4335
 1602SOL    HW2 4948   2.065   2.336   3.392 -0.9703 -1.0597  1.6727
 1603SOL     OW 4949   2.177   0.137   0.124  0.0549 -0.0525  0.6241
 1603SOL    HW1 4950   2.117   0.184   0.067  0.5829 -1.7546 -1.4515
 1603SOL    HW2 4951   2.121   0.093   0.188 -0.9452 -1.3489 -1.0828
 1604SOL     OW 4952   1.753   0.495   3.731 -0.3115 -0.2785 -0.8057
 1604SOL    HW1 4953   1.810   0.562   3.767 -2.0159  0.2437  1.1612
 1604SOL    HW2 4954   1.769   0.496   3.637  0.9890  1.6360 -0.6018
 1605SOL     OW 4955   1.743   1.970   2.468 -0.0684  0.5601 -0.3933
 1605SOL    HW1 4956   1.664   1.961   2.521  0.3101 -1.3337 -0.0910
 1605SOL    HW2 4957   1.809   2.001   2.529 -0.2745  0.9698 -0.3745
 1606SOL     OW 4958   3.309   0.779   0.552  0.0634  0.4977  0.0808
 1606SOL    HW1 4959   3.229   0.763   0.601  0.2000 -0.5240  0.0026
 1606SOL    HW2 4960   3.291   0.744   0.464  0.4824  0.5533 -0.0303
 1607SOL     OW 4961   2.419   0.109   0.270 -0.0140  0.3667 -0.7155
 1607SOL    HW1 4962   2.359   0.167   0.224  1.3457  0.8675 -1.9173
 1607SOL    HW2 4963   2.464   0.166   0.333  0.0900  0.2477 -0.6813
 1608SOL     OW 4964   0.720   1.420   3.648  0.4852  0.3684  0.8841
 1608SOL    HW1 4965   0.633   1.390   3.672  1.1100 -0.7174  1.8783
 1608SOL    HW2 4966   0.765   1.342   3.616  1.0086  0.9749  0.1120
 1609SOL     OW 4967   2.454   0.523   0.270 -0.4523 -0.0220  0.1044
 1609SOL    HW1 4968   2.361   0.523   0.293 -0.6052 -0.4335 -0.4793
 1609SOL    HW2 4969   2.492   0.451   0.319 -0.3854  0.3190  0.5552
 1610SOL     OW 4970   2.241   2.294   1.180 -0.7015 -0.1087 -0.4711
 1610SOL    HW1 4971   2.321   2.340   1.207 -0.7660  0.1942 -0.8019
 1610SOL    HW2 4972   2.265   2.201   1.185 -0.9749 -0.1311  1.5205
 1611SOL     OW 4973   3.262   0.177   1.675 -0.4992 -0.2160  0.3374
 1611SOL    HW1 4974   3.316   0.107   1.638  0.6987  0.3755  0.9189
 1611SOL    HW2 4975   3.296   0.189   1.764  0.5887  2.3043 -0.3270
 1612SOL     OW 4976   2.984   1.738   2.306  0.1257 -0.0299 -0.9169
 1612SOL    HW1 4977   2.944   1.763   2.388 -0.5351  0.8379 -1.4871
 1612SOL    HW2 4978   3.076   1.763   2.315  0.4475 -1.4481  0.1518
 1613SOL     OW 4979   1.303   3.065   1.513 -0.1093 -0.4168 -0.0942
 1613SOL    HW1 4980   1.304   3.116   1.594 -0.2647 -1.2390  0.4429
 1613SOL    HW2 4981   1.260   2.983   1.538 -2.1062  0.1106 -1.4967
 1614SOL     OW 4982   2.714   1.319   3.106 -0.0022 -0.2168  0.0998
 1614SOL    HW1 4983   2.790   1.315   3.047  1.4665 -1.9394  1.9755
 1614SOL    HW2 4984   2.643   1.281   3.054  0.2929  1.5545 -1.7522
 1615SOL     OW 4985   3.515   2.780   1.433 -0.0280 -0.3817  0.1553
 1615SOL    HW1 4986   3.430   2.796   1.392  0.8156 -0.4989 -1.7766
 1615SOL    HW2 4987   3.530   2.857   1.488 -1.1373 -0.0876  0.0727
 1616SOL     OW 4988   1.847   0.713   2.863  0.4209 -0.3506  0.3473
 1616SOL    HW1 4989   1.767   0.674   2.898  1.1307 -0.3683  2.1055
 1616SOL    HW2 4990   1.890   0.751   2.940  2.9507 -1.8718 -0.1817
 1617SOL     OW 4991   1.569   1.008   2.369  0.1829  0.4475  0.1834
 1617SOL    HW1 4992   1.494   1.027   2.425 -1.3623  0.9566 -1.9000
 1617SOL    HW2 4993   1.536   0.940   2.309  1.5370  0.3963 -0.5232
 1618SOL     OW 4994   2.588   2.703   1.441  0.4023  0.6150  0.5979
 1618SOL    HW1 4995   2.513   2.761   1.451  0.1822  0.6614 -1.1440
 1618SOL    HW2 4996   2.662   2.762   1.426  0.5626  0.5137  0.9696
 1619SOL     OW 4997   2.979   0.127   1.461 -0.0853 -0.2218  1.0321
 1619SOL    HW1 4998   2.937   0.153   1.544 -2.1179  1.0819 -0.3083
 1619SOL    HW2 4999   3.063   0.173   1.462  0.1121 -0.5575  2.5347
 1620SOL     OW 5000   3.085   0.597   2.064 -0.3551  0.0234  0.3141
 1620SOL    HW1 5001   3.066   0.509   2.098  1.0168 -0.2250  0.5126
 1620SOL    HW2 5002   3.167   0.621   2.106  0.0538  0.7790 -0.8830
 1621SOL     OW 5003   2.736   0.520   0.190  0.0299 -0.1431  0.6203
 1621SOL    HW1 5004   2.720   0.567   0.108  1.5189  0.3074  0.5526
 1621SOL    HW2 5005   2.649   0.506   0.227 -0.5486  1.2516 -0.1410
 1622SOL     OW 5006   2.359   0.274   3.517 -0.2542 -0.1477 -0.7784
 1622SOL    HW1 5007   2.307   0.298   3.593 -0.5624  0.9702 -1.3126
 1622SOL    HW2 5008   2.381   0.182   3.530 -2.3615 -0.6654 -0.5319
 1623SOL     OW 5009   1.814   3.710   2.004 -0.3833  0.2420  0.5844
 1623SOL    HW1 5010   1.770   3.680   1.925  0.7017  1.0002 -0.3540
 1623SOL    HW2 5011   1.892   3.655   2.011 -0.1630  0.5693  0.7827
 1624SOL     OW 5012   3.232   1.211   1.727  0.4592 -0.0477  0.7609
 1624SOL    HW1 5013   3.235   1.225   1.822  0.4490  0.5835  0.6674
 1624SOL    HW2 5014   3.324   1.197   1.703  0.5253  0.3538  0.7783
 1625SOL     OW 5015   0.800   2.211   0.951 -0.1939  0.7093  0.2572
 1625SOL    HW1 5016   0.738   2.175   0.888  0.3589  0.2807 -0.0499
 1625SOL    HW2 5017   0.763   2.296   0.975 -0.7926  0.5497 -0.0718
 1626SOL     OW 5018   2.995   2.911   0.667  0.2494 -0.1909  0.2802
 1626SOL    HW1 5019   2.950   2.829   0.649 -0.6625 -0.0659  1.7810
 1626SOL    HW2 5020   2.933   2.979   0.643  1.1763  0.1067 -1.4037
 1627SOL     OW 5021   0.754   2.343   0.657  0.3180 -0.1639 -0.1027
 1627SOL    HW1 5022   0.844   2.310   0.650 -0.0889 -1.5320  0.7106
 1627SOL    HW2 5023   0.752   2.388   0.741  0.3331  0.1453 -0.2694
 1628SOL     OW 5024   2.547   2.883   0.180 -0.4380  0.0439 -0.0431
 1628SOL    HW1 5025   2.602   2.914   0.108 -0.0398 -0.1564  0.1675
 1628SOL    HW2 5026   2.489   2.819   0.140  1.2502 -1.7317  0.1653
 1629SOL     OW 5027   1.650   3.615   3.191 -0.3441  0.4872 -0.2322
 1629SOL    HW1 5028   1.737   3.644   3.164 -0.5617  0.9373 -0.4589
 1629SOL    HW2 5029   1.664   3.574   3.277 -0.2723  2.9109  1.0162
 1630SOL     OW 5030   2.597   1.325   1.954 -0.2480 -0.0439 -0.2324
 1630SOL    HW1 5031   2.661   1.262   1.921  0.8206  1.3382 -0.9250
 1630SOL    HW2 5032   2.528   1.326   1.887 -0.5524 -0.8546  0.0554
 1631SOL     OW 5033   3.633   2.349   2.089 -0.8835 -0.2886  0.1910
 1631SOL    HW1 5034   3.546   2.342   2.127 -0.8963  1.0540  0.4469
 1631SOL    HW2 5035   3.690   2.373   2.162  0.0704 -2.9060  0.4181
 1632SOL     OW 5036   1.331   3.360   1.430  0.0532  0.4447 -0.0021
 1632SOL    HW1 5037   1.420   3.331   1.451  0.4953 -0.3278 -2.5405
 1632SOL    HW2 5038   1.282   3.279   1.416 -1.3394  0.8382  2.1650
 1633SOL     OW 5039   3.474   3.543   1.342 -0.6746 -0.3688  0.5287
 1633SOL    HW1 5040   3.456   3.576   1.254  2.5258 -0.8904 -0.4538
 1633SOL    HW2 5041   3.412   3.471   1.354 -3.2268  1.6172  0.0254
 1634SOL     OW 5042   0.424   1.692   1.567 -0.2644  0.6674 -0.4602
 1634SOL    HW1 5043   0.432   1.754   1.640 -2.7574  1.8839 -1.1104
 1634SOL    HW2 5044   0.443   1.744   1.489  0.2583 -0.0859 -0.8473
 1635SOL     OW 5045   1.298   0.454   2.020 -0.1002  0.1640 -0.2422
 1635SOL    HW1 5046   1.240   0.392   1.976  2.4514 -2.5253 -0.1060
 1635SOL    HW2 5047   1.372   0.464   1.961  0.1965  2.0794  0.3867
 1636SOL     OW 5048   1.184   1.781   3.554  0.0125 -0.0730 -0.3944
 1636SOL    HW1 5049   1.180   1.875   3.537  2.4356 -0.0749 -1.3167
 1636SOL    HW2 5050   1.152   1.771   3.644 -1.0421  1.5089 -0.5576
 1637SOL     OW 5051   0.396   1.989   2.563  0.1769  0.3706  0.2546
 1637SOL    HW1 5052   0.410   1.922   2.496 -1.9505  1.0730 -1.0286
 1637SOL    HW2 5053   0.417   1.946   2.646  0.7974 -1.2260 -0.6862
 1638SOL     OW 5054   1.401   0.567   1.135  0.5437  0.1157  0.1798
 1638SOL    HW1 5055   1.362   0.630   1.075  0.3059  0.8533  1.0831
 1638SOL    HW2 5056   1.347   0.573   1.214  1.9035  0.4637  1.1135
 1639SOL     OW 5057   0.703   0.228   0.403 -0.0810  0.0582  0.4143
 1639SOL    HW1 5058   0.796   0.214   0.384  0.5013  0.6223  2.5744
 1639SOL    HW2 5059   0.662   0.143   0.387  1.2968 -0.9348  1.9466
 1640SOL     OW 5060   1.256   1.551   1.225  0.7128 -0.3346 -0.3198
 1640SOL    HW1 5061   1.308   1.610   1.170  0.0703  0.2826 -0.2767
 1640SOL    HW2 5062   1.293   1.561   1.312  1.0546 -0.5175 -0.4442
 1641SOL     OW 5063   1.194   1.046   0.288 -0.4237 -0.3236 -0.3246
 1641SOL    HW1 5064   1.154   0.959   0.293 -0.1940 -0.4490 -0.7309
 1641SOL    HW2 5065   1.209   1.070   0.380  0.0968 -0.9786 -0.2305
 1642SOL     OW 5066   2.549   1.918   0.179 -0.0682 -0.1609  0.1729
 1642SOL    HW1 5067   2.588   1.980   0.117  0.0217 -0.8147 -0.4374
 1642SOL    HW2 5068   2.605   1.922   0.256  0.0015  0.4281  0.0955
 1643SOL     OW 5069   1.819   1.395   1.738 -0.6080 -0.2345 -0.4784
 1643SOL    HW1 5070   1.863   1.342   1.804 -1.3609 -1.4121 -0.8888
 1643SOL    HW2 5071   1.888   1.448   1.699  0.1805 -1.0023 -0.1349
 1644SOL     OW 5072   0.607   0.227   2.818 -0.5271  0.0862  0.2221
 1644SOL    HW1 5073   0.621   0.141   2.778 -0.3058  0.7800 -1.2559
 1644SOL    HW2 5074   0.671   0.284   2.775 -2.3925  1.5589 -0.7461
 1645SOL     OW 5075   3.335   2.501   0.486  0.0579  0.0608 -0.1395
 1645SOL    HW1 5076   3.291   2.431   0.535 -0.7608  1.7677  1.7143
 1645SOL    HW2 5077   3.274   2.524   0.416 -0.5351  0.1526  0.3919
 1646SOL     OW 5078   3.463   3.752   1.925  0.4815 -0.2422 -0.5889
 1646SOL    HW1 5079   3.369   3.753   1.910  0.0472  1.1090  1.7358
 1646SOL    HW2 5080   3.479   3.670   1.972  0.6718 -0.9473 -1.8332
 1647SOL     OW 5081   0.523   3.545   0.223 -0.2640 -0.3170 -0.0066
 1647SOL    HW1 5082   0.470   3.597   0.283 -1.7315 -1.4424 -0.2558
 1647SOL    HW2 5083   0.459   3.507   0.162  0.9504 -0.9700 -0.9129
 1648SOL     OW 5084   1.045   1.578   0.461 -0.0625  0.1013  0.2873
 1648SOL    HW1 5085   1.032   1.655   0.516 -0.6098  0.4180 -0.2819
 1648SOL    HW2 5086   1.085   1.514   0.520 -0.5084  0.4787  1.0202
 1649SOL     OW 5087   2.922   1.623   0.738  0.2041  0.0673  0.2361
 1649SOL    HW1 5088   2.975   1.699   0.715  1.1653 -1.1376 -1.8319
 1649SOL    HW2 5089   2.985   1.552   0.747 -0.7856 -0.7386  0.9774
 1650SOL     OW 5090   2.363   2.894   1.115  0.1286  0.2541  0.6862
 1650SOL    HW1 5091   2.423   2.822   1.094  0.9040  1.0637  0.0824
 1650SOL    HW2 5092   2.332   2.925   1.030  0.3883  1.1245  0.8988
 1651SOL     OW 5093   2.270   3.105   1.661 -0.3313  0.0641 -0.1096
 1651SOL    HW1 5094   2.357   3.140   1.644 -0.3893  0.1876 -0.1456
 1651SOL    HW2 5095   2.211   3.161   1.611 -0.7144  1.6560  1.9820
 1652SOL     OW 5096   3.548   1.002   0.124 -0.0874  0.2712  0.2910
 1652SOL    HW1 5097   3.536   0.937   0.055  1.2990  0.7869 -0.4793
 1652SOL    HW2 5098   3.635   0.983   0.160  0.0714  1.2911  0.4802
 1653SOL     OW 5099   3.458   2.747   0.471  0.1661  0.1838  0.0002
 1653SOL    HW1 5100   3.452   2.652   0.484  0.2452 -0.0087 -1.2130
 1653SOL    HW2 5101   3.414   2.762   0.387  2.2764  0.8761 -1.0464
 1654SOL     OW 5102   1.182   0.828   3.182 -0.2989 -0.2059  0.7428
 1654SOL    HW1 5103   1.223   0.773   3.114  0.6548  1.8342 -0.4200
 1654SOL    HW2 5104   1.249   0.836   3.249  0.4287  1.2612 -0.1069
 1655SOL     OW 5105   1.069   0.418   1.807  0.9049  0.0824  0.9417
 1655SOL    HW1 5106   1.081   0.327   1.834  0.3530 -0.7980 -1.5253
 1655SOL    HW2 5107   0.998   0.451   1.862  0.4368 -1.2900  1.1879
 1656SOL     OW 5108   1.451   3.144   1.922  0.0941  0.3652  0.4352
 1656SOL    HW1 5109   1.373   3.103   1.960 -0.6652  1.0996 -0.2929
 1656SOL    HW2 5110   1.422   3.176   1.837  0.8680  1.7042  0.6469
 1657SOL     OW 5111   2.916   1.116   2.558  0.4216 -0.3564  0.0549
 1657SOL    HW1 5112   2.980   1.172   2.514  0.5105 -0.3665  0.1715
 1657SOL    HW2 5113   2.882   1.060   2.488 -0.2537  0.3771 -0.2195
 1658SOL     OW 5114   2.736   2.535   2.713  0.1485  0.1580 -0.4692
 1658SOL    HW1 5115   2.653   2.487   2.711 -0.9456  1.5991  2.7824
 1658SOL    HW2 5116   2.716   2.621   2.676  0.6631 -0.0081 -1.1683
 1659SOL     OW 5117   2.725   0.679   2.101 -0.3099 -0.1485  0.3852
 1659SOL    HW1 5118   2.699   0.615   2.168  1.3637 -0.3194  0.9058
 1659SOL    HW2 5119   2.644   0.727   2.082 -1.2422 -1.3371  1.1574
 1660SOL     OW 5120   3.015   2.424   2.092 -0.1105  0.4753 -0.6786
 1660SOL    HW1 5121   3.039   2.462   2.008 -0.6128  0.3276 -0.8900
 1660SOL    HW2 5122   3.000   2.331   2.073  0.5016  0.2911 -0.2847
 1661SOL     OW 5123   2.515   3.385   2.935 -0.0017  0.1931 -0.3781
 1661SOL    HW1 5124   2.538   3.477   2.927  0.2076  0.0820 -1.0565
 1661SOL    HW2 5125   2.582   3.338   2.886 -0.6803 -0.2582 -0.8944
 1662SOL     OW 5126   2.319   1.089   1.717  0.2991  0.4204 -0.7247
 1662SOL    HW1 5127   2.274   1.042   1.788  0.1011  1.1940 -0.3273
 1662SOL    HW2 5128   2.316   1.028   1.643 -1.3734  0.4250 -0.7032
 1663SOL     OW 5129   0.072   3.041   2.899  0.2328 -0.6847  0.0691
 1663SOL    HW1 5130   0.051   3.045   2.993 -0.1859  1.4170 -0.0719
 1663SOL    HW2 5131   0.161   3.075   2.894 -0.4572  1.1211 -0.4683
 1664SOL     OW 5132   1.123   2.110   3.509  0.0724 -0.2540 -0.2348
 1664SOL    HW1 5133   1.065   2.121   3.584 -0.6977  0.5326 -0.9121
 1664SOL    HW2 5134   1.186   2.182   3.516 -0.5261  0.3436 -0.7783
 1665SOL     OW 5135   2.675   0.398   3.577  0.2465 -1.0630  0.2815
 1665SOL    HW1 5136   2.706   0.478   3.619 -0.4701 -2.4103  3.7728
 1665SOL    HW2 5137   2.752   0.342   3.571  1.0747  0.1953 -3.4879
 1666SOL     OW 5138   2.406   1.818   1.852  0.1114  0.2063 -1.0993
 1666SOL    HW1 5139   2.402   1.908   1.818  0.2426  0.3253 -0.8094
 1666SOL    HW2 5140   2.327   1.811   1.907 -0.3763 -0.1570 -1.8328
 1667SOL     OW 5141   2.210   3.196   1.012 -0.5766 -0.1653  0.7575
 1667SOL    HW1 5142   2.264   3.137   0.959 -0.9567 -0.0325  0.2040
 1667SOL    HW2 5143   2.148   3.137   1.056 -1.0472 -0.1777  0.0954
 1668SOL     OW 5144   0.045   1.786   1.674 -0.9708 -0.3712 -0.4712
 1668SOL    HW1 5145   0.112   1.854   1.683 -2.5671  1.0471  1.8059
 1668SOL    HW2 5146   0.084   1.709   1.715 -0.9159  0.6326  1.4936
 1669SOL     OW 5147   0.073  -0.001   2.887  0.5235 -0.5326  0.3160
 1669SOL    HW1 5148   0.038   0.083   2.916 -1.0986 -1.0825  0.0819
 1669SOL    HW2 5149   0.076   0.006   2.792  2.2215 -0.0798  0.3796
 1670SOL     OW 5150   1.666   1.251   3.112  0.3760 -0.7462  0.3710
 1670SOL    HW1 5151   1.612   1.244   3.032 -0.3555  1.8579  0.5653
 1670SOL    HW2 5152   1.743   1.300   3.084  0.8272 -1.1234  0.9513
 1671SOL     OW 5153   1.696   3.636   1.758 -0.6829 -0.0082  0.6965
 1671SOL    HW1 5154   1.616   3.603   1.718  0.9595 -0.8354 -2.1173
 1671SOL    HW2 5155   1.694   3.730   1.741 -0.8292 -0.0957  0.2246
 1672SOL     OW 5156   1.242   1.335   1.434 -0.1082  0.4183 -0.1708
 1672SOL    HW1 5157   1.256   1.327   1.340 -2.3407  0.4238 -0.5528
 1672SOL    HW2 5158   1.233   1.245   1.465  3.3518  0.1956  0.6116
 1673SOL     OW 5159   3.374   1.642   3.653 -0.2355  0.7519  0.4850
 1673SOL    HW1 5160   3.307   1.643   3.585  0.5242 -0.1573 -0.3117
 1673SOL    HW2 5161   3.444   1.698   3.618  1.7487 -2.5430 -1.2510
 1674SOL     OW 5162   2.712   1.009   1.269  0.3793  0.0497  0.0681
 1674SOL    HW1 5163   2.758   1.013   1.353  2.7599  0.4335 -1.1889
 1674SOL    HW2 5164   2.746   1.083   1.219  0.7475 -1.4613 -2.0726
 1675SOL     OW 5165   2.675   2.369   0.713 -0.3632 -0.8724  0.0786
 1675SOL    HW1 5166   2.630   2.299   0.666 -0.9733 -0.3467 -0.1476
 1675SOL    HW2 5167   2.646   2.449   0.668 -1.1649 -0.3262  1.4941
 1676SOL     OW 5168   0.977   3.231   3.553 -0.5783  0.0678  0.1434
 1676SOL    HW1 5169   1.032   3.295   3.598 -2.0540  0.0838  2.0776
 1676SOL    HW2 5170   1.038   3.180   3.500  1.2206  0.4740  1.7063
 1677SOL     OW 5171   0.374   0.595   3.128 -0.0372  0.5022 -0.3201
 1677SOL    HW1 5172   0.400   0.677   3.086 -3.2325  1.3443 -0.9690
 1677SOL    HW2 5173   0.416   0.526   3.076  1.7432  1.6566 -0.4893
 1678SOL     OW 5174   1.061   1.555   3.374  0.1509 -0.7705  0.0580
 1678SOL    HW1 5175   0.975   1.583   3.405  0.5098 -0.2901  0.6453
 1678SOL    HW2 5176   1.123   1.609   3.423  0.8414 -2.1006  0.7216
 1679SOL     OW 5177   0.863   1.942   3.013 -0.0342  0.2174  0.0486
 1679SOL    HW1 5178   0.843   2.023   3.060 -1.0457 -1.3066  2.3758
 1679SOL    HW2 5179   0.841   1.872   3.074  0.4870 -1.8604 -2.0091
 1680SOL     OW 5180   0.637   2.304   1.293 -0.3797  0.2216 -0.0900
 1680SOL    HW1 5181   0.626   2.315   1.199  0.5053  0.0693 -0.2165
 1680SOL    HW2 5182   0.611   2.388   1.331 -2.1676 -0.1699 -0.3284
 1681SOL     OW 5183   1.336   0.765   2.899  0.6975  0.2267 -0.0161
 1681SOL    HW1 5184   1.273   0.838   2.899 -0.8089 -1.0285  0.2022
 1681SOL    HW2 5185   1.397   0.787   2.969 -1.3647 -0.0038  1.9837
 1682SOL     OW 5186   1.494   1.144   3.321  0.5541 -0.1954 -0.7189
 1682SOL    HW1 5187   1.440   1.124   3.244 -2.8170  2.8628  0.5330
 1682SOL    HW2 5188   1.562   1.203   3.287  0.3859 -0.5278 -1.6694
 1683SOL     OW 5189   3.148   0.303   3.149 -0.0598 -0.4357  0.0304
 1683SOL    HW1 5190   3.224   0.362   3.156 -0.7167  0.4969 -0.4663
 1683SOL    HW2 5191   3.097   0.340   3.077 -1.0250 -1.0140  0.4106
 1684SOL     OW 5192   0.800   0.420   0.942  0.2456  0.0101 -0.1241
 1684SOL    HW1 5193   0.761   0.370   1.014  0.2643  0.4384  0.1940
 1684SOL    HW2 5194   0.728   0.432   0.880 -0.1366  0.7444  0.4319
 1685SOL     OW 5195   1.758   0.305   0.878 -0.2975 -0.4162  0.3739
 1685SOL    HW1 5196   1.708   0.350   0.946 -0.2766 -0.4817  0.4327
 1685SOL    HW2 5197   1.755   0.212   0.903  0.9649 -0.2831  1.0984
 1686SOL     OW 5198   0.915   1.343   3.048 -0.1236  0.0583 -0.1986
 1686SOL    HW1 5199   0.984   1.376   2.990  1.1980  0.7555  1.6893
 1686SOL    HW2 5200   0.958   1.334   3.133 -1.6684 -2.1554  0.4257
 1687SOL     OW 5201   3.624   2.453   0.320  0.0868  0.0259  0.0561
 1687SOL    HW1 5202   3.640   2.412   0.235  0.7693  2.2719 -0.9710
 1687SOL    HW2 5203   3.530   2.440   0.335  0.4925 -3.1081  0.5417
 1688SOL     OW 5204   2.189   3.441   0.550 -0.0445  0.2208 -0.4615
 1688SOL    HW1 5205   2.264   3.482   0.506  2.1802 -2.0813  0.8596
 1688SOL    HW2 5206   2.125   3.511   0.559  1.0235  1.7950 -3.5856
 1689SOL     OW 5207   1.161   3.456   3.604 -0.7544 -0.2668 -0.1746
 1689SOL    HW1 5208   1.166   3.520   3.533 -1.0331  0.1154  0.1456
 1689SOL    HW2 5209   1.137   3.508   3.681  0.9616 -0.4509  0.5066
 1690SOL     OW 5210   0.722   3.384   3.611  0.7188 -0.5224 -0.6754
 1690SOL    HW1 5211   0.678   3.448   3.667  2.7568  1.2268 -0.9337
 1690SOL    HW2 5212   0.775   3.437   3.551  1.6305 -2.4501 -1.6649
 1691SOL     OW 5213   2.933   2.633   0.798  0.3246  0.2559 -0.4216
 1691SOL    HW1 5214   2.860   2.623   0.737  0.3016 -1.8973 -0.1416
 1691SOL    HW2 5215   2.914   2.712   0.848  1.2514  3.2496 -4.3349
 1692SOL     OW 5216   2.499   3.201   1.185 -0.0810 -0.1948  0.4564
 1692SOL    HW1 5217   2.496   3.295   1.201  1.6392 -0.1404  0.6207
 1692SOL    HW2 5218   2.502   3.192   1.090  0.0516 -0.0645  0.4478
 1693SOL     OW 5219   1.120   2.400   3.292  0.0918  0.0880 -0.0038
 1693SOL    HW1 5220   1.180   2.329   3.267  1.5286  0.5276  2.0064
 1693SOL    HW2 5221   1.162   2.443   3.366 -1.9694  1.4565  0.4670
 1694SOL     OW 5222   1.188   0.738   1.514 -0.1994 -0.8026 -0.2954
 1694SOL    HW1 5223   1.099   0.704   1.508 -1.6868  1.7952  3.5854
 1694SOL    HW2 5224   1.239   0.666   1.550 -1.3301 -1.5150 -0.0772
 1695SOL     OW 5225   2.715   1.513   2.149 -0.1984 -0.4878 -0.1366
 1695SOL    HW1 5226   2.787   1.542   2.092 -0.2435 -0.2481 -0.0718
 1695SOL    HW2 5227   2.666   1.451   2.095  2.6147 -4.3139  1.2398
 1696SOL     OW 5228   2.902   1.526   3.567  0.2456 -0.5983  0.4180
 1696SOL    HW1 5229   2.835   1.571   3.618  0.2990 -0.3755  0.2930
 1696SOL    HW2 5230   2.868   1.524   3.477  1.5863  2.0122 -0.2547
 1697SOL     OW 5231   2.468   1.149   3.274  0.7223 -0.1042 -0.5596
 1697SOL    HW1 5232   2.431   1.098   3.346 -0.0168  0.7394 -0.3140
 1697SOL    HW2 5233   2.495   1.231   3.315  1.9463 -0.2984 -0.9309
 1698SOL     OW 5234   0.556   0.844   2.113 -0.2817  0.4351  0.8549
 1698SOL    HW1 5235   0.545   0.768   2.056 -1.0032  1.4062 -0.3700
 1698SOL    HW2 5236   0.494   0.830   2.185  1.1460 -1.1535  1.8428
 1699SOL     OW 5237   2.064   2.979   1.084 -0.4086  0.0747  0.6874
 1699SOL    HW1 5238   2.054   2.887   1.060 -4.6638  0.6715 -0.6472
 1699SOL    HW2 5239   2.036   2.983   1.176  0.1708  0.0342  0.8731
 1700SOL     OW 5240   1.960   1.693   0.546  0.2482  0.3561 -0.0321
 1700SOL    HW1 5241   2.008   1.764   0.503  2.4963 -1.3951 -0.6028
 1700SOL    HW2 5242   2.015   1.616   0.533 -1.5310 -1.2812  1.5794
 1701SOL     OW 5243   2.662   2.457   0.958 -0.2695  0.4752 -0.0767
 1701SOL    HW1 5244   2.674   2.429   0.867 -0.9429  1.6672 -0.5495
 1701SOL    HW2 5245   2.751   2.469   0.991  0.0457 -1.4487 -0.0607
 1702SOL     OW 5246   2.702   3.621   2.678  0.0632  0.2658 -0.3877
 1702SOL    HW1 5247   2.638   3.683   2.644 -0.3407  0.6998  1.0846
 1702SOL    HW2 5248   2.650   3.547   2.708  0.1161  0.9756  1.5884
 1703SOL     OW 5249   1.282   3.289   1.737  0.1599  0.6745  0.3813
 1703SOL    HW1 5250   1.317   3.372   1.704 -1.4953  1.3990  0.3748
 1703SOL    HW2 5251   1.248   3.310   1.824  0.9454 -0.3403  0.9714
 1704SOL     OW 5252   2.648   2.490   2.414  1.0378  0.3279 -0.0881
 1704SOL    HW1 5253   2.704   2.443   2.476  2.3097  0.9122 -0.7436
 1704SOL    HW2 5254   2.652   2.436   2.334  0.2421  0.1082  0.0181
 1705SOL     OW 5255   3.592   3.364   3.655  0.3666  0.0252 -0.7565
 1705SOL    HW1 5256   3.550   3.397   3.576 -1.0054 -1.4886 -0.7146
 1705SOL    HW2 5257   3.666   3.312   3.623 -1.0208 -1.7811 -1.1979
 1706SOL     OW 5258   1.646   2.287   3.361  0.0430 -0.1044  0.1526
 1706SOL    HW1 5259   1.571   2.242   3.323  1.6099 -1.5868 -1.3628
 1706SOL    HW2 5260   1.630   2.380   3.344 -2.3293 -0.1640  1.6148
 1707SOL     OW 5261   3.117   2.241   2.296  0.0091  0.5604  0.4534
 1707SOL    HW1 5262   3.037   2.289   2.275 -0.9227 -1.6020 -1.3576
 1707SOL    HW2 5263   3.169   2.243   2.216  0.4228 -0.5106  0.6703
 1708SOL     OW 5264   2.809   1.644   2.650 -0.3972  0.4175  0.7624
 1708SOL    HW1 5265   2.858   1.723   2.630  0.7266 -0.8041 -1.7040
 1708SOL    HW2 5266   2.748   1.634   2.576 -0.6987 -0.8751  1.1586
 1709SOL     OW 5267   2.256   2.963   0.851 -0.7038 -0.5550 -0.2404
 1709SOL    HW1 5268   2.196   3.000   0.787 -0.4912 -0.0581 -0.1588
 1709SOL    HW2 5269   2.221   2.876   0.871 -1.0740 -0.4890 -0.6158
 1710SOL     OW 5270   1.764   1.850   1.635  0.2460 -0.4823  0.5845
 1710SOL    HW1 5271   1.731   1.760   1.641 -0.9091 -0.0236  1.3975
 1710SOL    HW2 5272   1.855   1.844   1.665  0.5085 -1.5402 -0.3545
 1711SOL     OW 5273   3.331   1.704   0.173  0.3576  0.1136 -0.2809
 1711SOL    HW1 5274   3.278   1.783   0.160 -0.4579 -0.4916 -0.6415
 1711SOL    HW2 5275   3.358   1.678   0.085 -0.2569 -0.6131 -0.2564
 1712SOL     OW 5276   3.555   2.540   0.859 -0.2254 -0.1428  0.1887
 1712SOL    HW1 5277   3.540   2.634   0.847 -1.7852 -0.6020 -2.0552
 1712SOL    HW2 5278   3.595   2.512   0.777  0.0324 -1.4831  0.7585
 1713SOL     OW 5279   3.374   2.946   0.963 -0.3867  0.1346 -0.3690
 1713SOL    HW1 5280   3.454   2.958   1.014  0.4269  0.2366 -1.6188
 1713SOL    HW2 5281   3.316   2.895   1.020  1.0586 -1.0547  0.1062
 1714SOL     OW 5282   1.103   0.174   2.417  0.0283  0.4135 -0.2133
 1714SOL    HW1 5283   1.041   0.167   2.489  0.2183  0.1371 -0.0751
 1714SOL    HW2 5284   1.052   0.212   2.346 -0.9366 -1.7986 -0.8195
 1715SOL     OW 5285   3.450   1.348   2.498 -0.2161  0.5114  0.0009
 1715SOL    HW1 5286   3.456   1.375   2.407  1.2020 -0.1862 -0.1288
 1715SOL    HW2 5287   3.497   1.415   2.547 -0.1857  0.4062  0.1180
 1716SOL     OW 5288   2.054   0.926   3.435  0.4511 -0.2166  0.3819
 1716SOL    HW1 5289   1.978   0.913   3.491 -0.4247 -2.4472 -1.2035
 1716SOL    HW2 5290   2.091   0.839   3.422  0.5256  0.1337 -2.5664
 1717SOL     OW 5291   1.060   1.726   2.947 -0.2396 -0.5402  0.3552
 1717SOL    HW1 5292   1.035   1.793   2.885 -1.0113 -1.1478  0.0021
 1717SOL    HW2 5293   1.154   1.739   2.960 -0.4348  0.8156  0.5655
 1718SOL     OW 5294   2.825   0.896   0.478 -0.1146  0.3387 -0.0736
 1718SOL    HW1 5295   2.774   0.848   0.543 -0.7880  0.7416 -0.2994
 1718SOL    HW2 5296   2.789   0.869   0.394  0.4281  0.1973 -0.2670
 1719SOL     OW 5297   3.155   0.065   0.702  0.2518  0.2969 -0.2216
 1719SOL    HW1 5298   3.239   0.019   0.707  0.2831  0.4048  0.3082
 1719SOL    HW2 5299   3.098   0.006   0.651  0.9151  0.6499 -1.4061
 1720SOL     OW 5300   2.013   0.738   1.414  0.3031 -0.2940 -0.2741
 1720SOL    HW1 5301   1.969   0.823   1.410 -1.8990 -1.2911  0.7507
 1720SOL    HW2 5302   2.013   0.715   1.507 -1.6496 -2.5505 -0.7168
 1721SOL     OW 5303   0.690   2.543   0.948 -0.3542 -0.2994  0.4115
 1721SOL    HW1 5304   0.666   2.600   0.875  0.3938 -0.9115 -0.3408
 1721SOL    HW2 5305   0.611   2.492   0.965  0.0349 -1.6435 -1.4263
 1722SOL     OW 5306   2.369   1.801   0.987  0.6984 -0.2148 -0.2697
 1722SOL    HW1 5307   2.345   1.894   0.985  0.9712 -0.0245  2.1350
 1722SOL    HW2 5308   2.462   1.799   0.967  0.2598 -0.2295 -2.4921
 1723SOL     OW 5309   2.084   1.842   0.814  0.4009  0.4837 -0.0251
 1723SOL    HW1 5310   2.138   1.888   0.879 -0.3006  0.0163  0.9257
 1723SOL    HW2 5311   2.011   1.901   0.796 -0.1936  0.0061  0.7587
 1724SOL     OW 5312   1.223   1.407   0.600  0.2883  0.1901 -0.1294
 1724SOL    HW1 5313   1.270   1.399   0.517  0.3154 -0.1718 -0.0793
 1724SOL    HW2 5314   1.275   1.471   0.650  1.8547 -1.6324  0.6819
 1725SOL     OW 5315   1.867   1.879   1.989  0.0164 -0.1986  0.2989
 1725SOL    HW1 5316   1.890   1.961   1.945  0.1350 -0.3698  0.0363
 1725SOL    HW2 5317   1.772   1.872   1.980  0.1425 -0.6928 -0.7548
 1726SOL     OW 5318   3.675   2.945   2.546 -0.3229  0.4275 -0.3632
 1726SOL    HW1 5319   3.648   2.976   2.633 -0.6711  0.2462 -0.4033
 1726SOL    HW2 5320   3.598   2.959   2.491 -0.3282 -0.0645 -0.4902
 1727SOL     OW 5321   2.945   0.291   3.595  0.2305 -0.3399 -0.0568
 1727SOL    HW1 5322   3.017   0.318   3.652  0.1105  1.5553 -0.7193
 1727SOL    HW2 5323   2.979   0.218   3.545  1.1085 -0.5605  0.8426
 1728SOL     OW 5324   2.318   2.628   1.740 -0.3336 -0.0259 -0.0610
 1728SOL    HW1 5325   2.311   2.723   1.732 -0.9390 -0.0093  0.5681
 1728SOL    HW2 5326   2.228   2.599   1.754 -0.3043 -0.8018 -1.3099
 1729SOL     OW 5327   0.837   3.453   1.238  0.1144 -0.0371  0.2383
 1729SOL    HW1 5328   0.761   3.416   1.194  0.4318  0.4449 -0.7362
 1729SOL    HW2 5329   0.843   3.404   1.320 -0.7906 -0.5959 -0.0150
 1730SOL     OW 5330   3.727   2.128   0.797 -0.3201 -0.2434  0.7937
 1730SOL    HW1 5331   3.712   2.035   0.810 -1.2143  0.0062  1.7192
 1730SOL    HW2 5332   3.698   2.145   0.707 -0.9087 -0.7241  0.8854
 1731SOL     OW 5333   2.150   3.128   2.107 -1.0642  0.0257 -0.1452
 1731SOL    HW1 5334   2.183   3.125   2.197 -0.2728 -0.0025 -0.4243
 1731SOL    HW2 5335   2.145   3.221   2.086  1.3211  0.0619 -0.9446
 1732SOL     OW 5336   0.441   1.065   0.028  0.2202 -0.6717  0.2810
 1732SOL    HW1 5337   0.521   1.079   0.078  0.1479 -2.1084  0.8397
 1732SOL    HW2 5338   0.374   1.049   0.095 -0.7277  1.2554 -0.1342
 1733SOL     OW 5339   0.651   3.398   0.691 -0.1109 -0.2593  0.0876
 1733SOL    HW1 5340   0.648   3.381   0.597  1.1201  0.4957 -0.1078
 1733SOL    HW2 5341   0.646   3.311   0.731 -0.0867 -0.6269 -0.6855
 1734SOL     OW 5342   2.160   1.447   0.316 -0.3746 -0.6751  0.7699
 1734SOL    HW1 5343   2.108   1.445   0.396 -0.0571 -1.3914  0.9681
 1734SOL    HW2 5344   2.118   1.384   0.257 -0.6387 -0.1125  0.3470
 1735SOL     OW 5345   2.174   3.546   1.686 -0.3337 -0.7905 -0.0040
 1735SOL    HW1 5346   2.095   3.566   1.636  0.6859 -0.4978 -1.5760
 1735SOL    HW2 5347   2.216   3.631   1.700  1.0468 -1.1495 -1.5929
 1736SOL     OW 5348   2.440   3.028   2.786  0.3473 -0.1969  0.2198
 1736SOL    HW1 5349   2.429   2.933   2.775 -0.6464  0.1288 -2.1671
 1736SOL    HW2 5350   2.358   3.066   2.755  0.5559  1.4600  1.5552
 1737SOL     OW 5351   1.438   2.041   1.028  0.8248  0.4513  0.0121
 1737SOL    HW1 5352   1.494   2.108   1.066  0.5162  0.2864  0.7696
 1737SOL    HW2 5353   1.453   2.048   0.933  5.1107 -2.1068  0.2181
 1738SOL     OW 5354   2.423   0.437   1.196  0.0619 -0.2600  0.1166
 1738SOL    HW1 5355   2.472   0.357   1.175 -1.1010 -1.4298  1.6929
 1738SOL    HW2 5356   2.335   0.420   1.164  0.1473  1.0255 -0.8767
 1739SOL     OW 5357   0.844   0.970   1.721 -0.2439 -0.3617 -0.3187
 1739SOL    HW1 5358   0.919   1.030   1.727  0.3296 -1.1590  1.1204
 1739SOL    HW2 5359   0.784   1.001   1.789 -0.1624 -1.1107  0.1032
 1740SOL     OW 5360   1.734   1.799   1.374  0.0495  0.0531  0.2302
 1740SOL    HW1 5361   1.808   1.801   1.435 -1.1836 -1.6430  1.8863
 1740SOL    HW2 5362   1.661   1.764   1.425 -1.2138 -0.9266 -2.0771
 1741SOL     OW 5363   2.422   0.518   3.443  0.1916 -0.0335  0.2148
 1741SOL    HW1 5364   2.495   0.468   3.407  0.5563  0.9317 -0.4303
 1741SOL    HW2 5365   2.400   0.473   3.525  1.9470  0.0461  0.7735
 1742SOL     OW 5366   3.224   2.259   0.538  0.3368  0.0459 -0.0527
 1742SOL    HW1 5367   3.188   2.241   0.625  0.8821 -0.9040 -0.0099
 1742SOL    HW2 5368   3.257   2.174   0.508 -1.6037 -0.1077 -2.0406
 1743SOL     OW 5369   0.201   1.296   0.062  0.1685 -0.3218  0.0681
 1743SOL    HW1 5370   0.263   1.352   0.108  0.8899 -2.2300  1.5741
 1743SOL    HW2 5371   0.115   1.324   0.095  0.2882  1.3208 -0.8948
 1744SOL     OW 5372   3.505   2.101   3.759 -0.7400 -0.3373 -0.3204
 1744SOL    HW1 5373   3.592   2.073   3.731 -1.0285  1.0990 -2.9327
 1744SOL    HW2 5374   3.447   2.072   3.689 -1.9908  0.9295  0.1451
 1745SOL     OW 5375   3.206   2.577   1.620 -0.7357  0.1964  0.5786
 1745SOL    HW1 5376   3.265   2.577   1.544 -1.9187 -1.0725 -0.4082
 1745SOL    HW2 5377   3.135   2.636   1.595 -0.3174  1.0842  1.4223
 1746SOL     OW 5378   0.569   3.477   2.812  0.2121  0.3583  0.8715
 1746SOL    HW1 5379   0.585   3.404   2.871 -0.3062  0.2386  0.8651
 1746SOL    HW2 5380   0.570   3.554   2.869  2.2348  0.5402  0.6865
 1747SOL     OW 5381   3.066   3.449   0.934 -0.3281  0.1262  0.0035
 1747SOL    HW1 5382   3.101   3.524   0.888 -1.3577  0.8586  0.3765
 1747SOL    HW2 5383   3.139   3.387   0.939  1.2616  2.0256  1.7710
 1748SOL     OW 5384   1.744   2.776   1.040  0.3905 -0.0600  0.0957
 1748SOL    HW1 5385   1.717   2.868   1.035 -2.0148 -0.7086  0.1772
 1748SOL    HW2 5386   1.702   2.743   1.120  0.1909 -1.5327 -0.5895
 1749SOL     OW 5387   1.764   2.124   1.668  0.1863  0.4643  0.5660
 1749SOL    HW1 5388   1.769   2.045   1.615 -0.2096  0.2159  0.8909
 1749SOL    HW2 5389   1.823   2.108   1.742  0.1524  0.4991  0.6010
 1750SOL     OW 5390   2.799   3.219   1.535 -0.2125  0.8561  0.0409
 1750SOL    HW1 5391   2.759   3.148   1.486  0.7214  1.3913 -1.5750
 1750SOL    HW2 5392   2.762   3.299   1.496 -0.1348  1.2936  0.8319
 1751SOL     OW 5393   1.684   0.641   1.244 -0.1980 -0.1947  0.8619
 1751SOL    HW1 5394   1.619   0.572   1.231  0.2088 -0.3918 -0.2699
 1751SOL    HW2 5395   1.633   0.718   1.269 -1.1788  0.2661 -2.1704
 1752SOL     OW 5396   2.383   0.931   1.081 -0.7645 -0.4652  0.5866
 1752SOL    HW1 5397   2.396   1.000   1.016 -1.0431 -1.5715 -0.6836
 1752SOL    HW2 5398   2.367   0.852   1.029 -1.1803 -1.3451  2.0086
 1753SOL     OW 5399   1.614   1.858   3.004 -0.5806 -0.5182 -0.0913
 1753SOL    HW1 5400   1.701   1.857   2.964 -0.8181  0.1622 -0.6600
 1753SOL    HW2 5401   1.602   1.949   3.032 -0.5094 -0.9269  1.3576
 1754SOL     OW 5402   0.362   3.673   1.785 -0.2029  0.0987  0.3180
 1754SOL    HW1 5403   0.384   3.711   1.870  2.6559 -1.8709  0.6013
 1754SOL    HW2 5404   0.436   3.694   1.728 -0.9058 -0.7089 -0.9667
 1755SOL     OW 5405   2.182   0.270   2.640 -0.0841 -0.0020 -1.0498
 1755SOL    HW1 5406   2.224   0.336   2.585 -0.6100  1.0985 -0.1818
 1755SOL    HW2 5407   2.095   0.259   2.601 -0.4559  0.7756 -0.4776
 1756SOL     OW 5408   2.623   0.756   2.799 -0.0414 -0.2973 -0.2235
 1756SOL    HW1 5409   2.659   0.740   2.711 -3.2262 -1.4722 -1.4622
 1756SOL    HW2 5410   2.540   0.801   2.783 -2.1146 -3.0010  1.8652
 1757SOL     OW 5411   2.154   0.692   1.933 -0.4641  0.1735 -0.0385
 1757SOL    HW1 5412   2.126   0.659   2.018 -0.3075  0.2859  0.0565
 1757SOL    HW2 5413   2.085   0.755   1.909 -0.8353 -0.3218 -0.2854
 1758SOL     OW 5414   3.156   0.111   2.537  0.8731 -0.2261  0.4745
 1758SOL    HW1 5415   3.162   0.187   2.479  0.5188 -0.9979 -0.5852
 1758SOL    HW2 5416   3.166   0.035   2.480 -2.6486 -1.1521  0.8609
 1759SOL     OW 5417   2.116   1.562   3.292 -0.0797 -1.1165 -0.2344
 1759SOL    HW1 5418   2.137   1.606   3.210 -1.1778  0.1147  0.1242
 1759SOL    HW2 5419   2.033   1.517   3.275 -1.5158  0.9864  0.8017
 1760SOL     OW 5420   1.368   0.514   0.120  0.2411  0.0859 -0.3189
 1760SOL    HW1 5421   1.334   0.453   0.185 -1.0789  2.4373  1.3506
 1760SOL    HW2 5422   1.447   0.472   0.086 -0.4762 -2.3842  0.9022
 1761SOL     OW 5423   2.993   2.360   0.791  0.0167  0.0889 -0.5950
 1761SOL    HW1 5424   3.001   2.455   0.796 -1.0634  0.2191 -1.1218
 1761SOL    HW2 5425   2.904   2.345   0.761  0.7483 -1.0428 -2.3483
 1762SOL     OW 5426   2.396   2.275   0.313 -0.2140 -0.3497  0.4734
 1762SOL    HW1 5427   2.458   2.280   0.386 -1.7786  4.0312  1.8276
 1762SOL    HW2 5428   2.427   2.341   0.251 -1.0948 -1.2634 -0.9996
 1763NA      NA 5429   3.161   0.708   1.675 -0.2315  0.0478  0.0257
 1764NA      NA 5430   2.684   1.461   1.429 -0.1680  0.1671  0.5716
   3.72790   3.72790   3.72790
