Protein in water
 5438
    0TYR      N    1   2.350   3.329   2.815 -0.1420  0.3629 -0.4129
    0TYR     H1    2   2.346   3.414   2.875  2.5695 -0.6828  1.4123
    0TYR     H2    3   2.268   3.270   2.839 -0.8733  2.3144  2.4535
    0TYR     H3    4   2.331   3.363   2.719  0.9284  0.6034 -0.5487
    0TYR     CA    5   2.474   3.253   2.833 -0.9249 -0.8731 -0.2020
    0TYR     HA    6   2.545   3.325   2.794 -0.6474 -0.4185  1.0795
    0TYR     CB    7   2.515   3.234   2.987  0.6762 -0.4046 -1.4180
    0TYR    HB1    8   2.485   3.318   3.053 -0.9081 -1.3290 -0.9077
    0TYR    HB2    9   2.626   3.224   2.991  0.7107  0.0473 -1.2312
    0TYR     CG   10   2.448   3.109   3.046 -0.3745 -0.9320  0.3520
    0TYR    CD1   11   2.526   2.988   3.041  0.1734  0.3814 -0.2464
    0TYR    HD1   12   2.627   2.988   3.002  0.1326  1.0787 -0.3701
    0TYR    CE1   13   2.463   2.866   3.093 -0.2843 -0.1657  0.1344
    0TYR    HE1   14   2.509   2.769   3.082  2.6535  1.2852 -1.5798
    0TYR     CZ   15   2.340   2.873   3.155 -0.0082  0.4280 -0.2568
    0TYR     OH   16   2.279   2.750   3.183  0.4227 -0.7820 -0.4491
    0TYR     HH   17   2.332   2.679   3.145  0.9256  0.3970 -2.0382
    0TYR    CD2   18   2.320   3.103   3.104 -0.3163 -0.2576 -0.2636
    0TYR    HD2   19   2.255   3.188   3.089  0.5686  0.2952 -1.0606
    0TYR    CE2   20   2.266   2.989   3.165 -0.1417 -0.3593 -0.1210
    0TYR    HE2   21   2.163   2.991   3.197 -0.6345  1.2237 -1.6807
    0TYR      C   22   2.486   3.122   2.751 -0.5822 -0.2841  0.7040
    0TYR      O   23   2.378   3.072   2.720  0.3844  0.9578  0.2463
    1TYR      N   24   2.609   3.068   2.719 -0.1233 -0.7155  0.1895
    1TYR     HN   25   2.692   3.112   2.752 -0.5235  1.5311 -1.5467
    1TYR     CA   26   2.639   2.950   2.626  0.1888 -0.2676 -0.5853
    1TYR     HA   27   2.547   2.905   2.590 -0.4577  0.5748 -0.0256
    1TYR     CB   28   2.736   2.998   2.515  1.2155 -0.7137 -0.2112
    1TYR    HB1   29   2.833   3.023   2.563  2.4055 -2.3409 -1.6792
    1TYR    HB2   30   2.698   3.088   2.461 -1.6054  0.7683  3.7453
    1TYR     CG   31   2.759   2.900   2.414 -0.9335 -0.0970 -0.7285
    1TYR    CD1   32   2.886   2.852   2.384 -0.0458  0.1301  0.1303
    1TYR    HD1   33   2.971   2.883   2.444 -0.6148 -0.4405  1.2601
    1TYR    CE1   34   2.900   2.757   2.281 -0.7560  0.1825  0.3737
    1TYR    HE1   35   3.002   2.737   2.255 -1.4967 -0.1195 -2.6697
    1TYR     CZ   36   2.794   2.720   2.202  0.2954  0.5070 -0.8156
    1TYR     OH   37   2.820   2.635   2.103  0.8916 -0.1669  0.8473
    1TYR     HH   38   2.912   2.608   2.112  0.4039 -2.9997 -1.1706
    1TYR    CD2   39   2.653   2.863   2.337  0.2344 -0.0109 -0.2003
    1TYR    HD2   40   2.555   2.906   2.351 -0.4107 -1.2529 -0.7793
    1TYR    CE2   41   2.670   2.773   2.230 -0.0327  0.1352  0.2318
    1TYR    HE2   42   2.589   2.741   2.165  1.3388  0.3175 -1.6403
    1TYR      C   43   2.710   2.855   2.712  0.4200  0.4570  0.1372
    1TYR      O   44   2.813   2.881   2.777  0.1918  0.1291  0.0680
    2ASP      N   45   2.643   2.735   2.708  0.1607 -0.2966  0.0571
    2ASP     HN   46   2.559   2.709   2.660  1.1895  0.7847 -2.4889
    2ASP     CA   47   2.692   2.635   2.794 -0.7152  0.6289  0.5724
    2ASP     HA   48   2.754   2.678   2.872  0.2666  2.1431 -0.9485
    2ASP     CB   49   2.568   2.567   2.844  0.5268  0.6508 -0.3974
    2ASP    HB1   50   2.511   2.515   2.764  4.0886 -2.3086 -1.2754
    2ASP    HB2   51   2.493   2.629   2.897 -0.0344  0.2326 -0.6960
    2ASP     CG   52   2.610   2.452   2.943 -0.2445  0.1301 -0.7839
    2ASP    OD1   53   2.722   2.463   3.002 -1.0292 -0.1325 -0.1416
    2ASP    OD2   54   2.537   2.353   2.957  0.2375 -0.2568 -0.4921
    2ASP      C   55   2.784   2.552   2.700 -0.2014  0.5114  0.3599
    2ASP      O   56   2.737   2.473   2.619  0.5920 -0.4416  0.7531
    3PRO      N   57   2.915   2.571   2.705  0.7687 -0.0136  0.5089
    3PRO     CD   58   2.991   2.609   2.825  0.0159 -0.2422  0.2034
    3PRO    HD1   59   2.969   2.715   2.849  1.9712  0.9868 -2.9031
    3PRO    HD2   60   2.960   2.546   2.911  0.8276 -2.4803 -1.0676
    3PRO     CA   61   2.999   2.559   2.586 -0.2081  0.6467 -0.4254
    3PRO     HA   62   2.952   2.617   2.508  0.8597  1.6664 -0.3310
    3PRO     CB   63   3.130   2.625   2.637  0.4451 -0.3290  0.5284
    3PRO    HB1   64   3.098   2.731   2.623 -0.2206 -0.1222  3.0698
    3PRO    HB2   65   3.223   2.590   2.588  2.7651  1.0784  3.6101
    3PRO     CG   66   3.135   2.587   2.786  0.1634 -0.2250  0.3815
    3PRO    HG1   67   3.195   2.656   2.850 -0.6312  0.9142 -0.0703
    3PRO    HG2   68   3.167   2.481   2.799  3.1449  0.6304  0.6636
    3PRO      C   69   3.013   2.422   2.526 -0.1342  0.1449  0.1846
    3PRO      O   70   3.060   2.421   2.409  0.0547 -0.0531  0.3868
    4GLU      N   71   2.984   2.312   2.602  0.1577  0.3521 -0.2535
    4GLU     HN   72   2.952   2.324   2.696 -1.3439  1.5336 -0.8628
    4GLU     CA   73   3.004   2.181   2.555 -0.5467 -0.4167  0.2982
    4GLU     HA   74   3.054   2.192   2.460  0.0018  2.7017  0.8324
    4GLU     CB   75   3.083   2.106   2.670  0.0646  0.8627  0.4888
    4GLU    HB1   76   3.019   2.113   2.760  1.1901 -0.1555  1.4101
    4GLU    HB2   77   3.176   2.164   2.688 -0.4508  1.9564 -0.2702
    4GLU     CG   78   3.123   1.965   2.629 -0.2381  0.0816 -0.4510
    4GLU    HG1   79   3.202   1.966   2.551  1.9128 -1.0458  1.5918
    4GLU    HG2   80   3.029   1.918   2.589 -1.7048  2.2044  0.3569
    4GLU     CD   81   3.179   1.871   2.744 -0.2914 -0.7058  0.3403
    4GLU    OE1   82   3.276   1.911   2.812 -0.1165 -0.2031 -0.7157
    4GLU    OE2   83   3.121   1.761   2.763  0.0841 -0.1115  0.5142
    4GLU      C   84   2.882   2.107   2.520 -0.1840  0.1750  0.2085
    4GLU      O   85   2.887   2.025   2.426  0.7042 -0.3818  0.3768
    5ASP      N   86   2.769   2.140   2.589  0.1164  0.5941  0.0177
    5ASP     HN   87   2.760   2.211   2.658  0.4041  1.2274 -0.5865
    5ASP     CA   88   2.634   2.100   2.542 -0.9024 -1.3192 -0.3168
    5ASP     HA   89   2.637   1.995   2.515 -1.9556 -2.4016  3.2466
    5ASP     CB   90   2.538   2.125   2.653  0.8072  0.0772  0.3442
    5ASP    HB1   91   2.571   2.082   2.750  0.8809 -0.0863  0.2492
    5ASP    HB2   92   2.523   2.232   2.674 -0.5234 -0.7082  4.1643
    5ASP     CG   93   2.400   2.061   2.614 -0.7088 -0.1635 -0.0432
    5ASP    OD1   94   2.382   1.935   2.620  0.7687 -0.3210 -0.1468
    5ASP    OD2   95   2.307   2.144   2.593  0.1202 -0.2800 -0.2782
    5ASP      C   96   2.599   2.180   2.410 -0.5556  0.2221  0.2705
    5ASP      O   97   2.522   2.128   2.325 -0.1799 -0.0186 -0.3838
    6GLY      N   98   2.644   2.308   2.396 -0.2902 -0.1096 -0.2370
    6GLY     HN   99   2.703   2.342   2.469  0.8209 -1.9662 -0.2256
    6GLY     CA  100   2.632   2.386   2.277  0.0011 -0.4768 -0.5930
    6GLY    HA1  101   2.647   2.324   2.190  0.4689  0.6729 -1.3585
    6GLY    HA2  102   2.705   2.464   2.292 -1.0451  0.1109  1.8993
    6GLY      C  103   2.489   2.444   2.272  0.0507 -0.4293  0.5381
    6GLY      O  104   2.431   2.431   2.172  0.0405  0.6218  0.8006
    7THR      N  105   2.441   2.502   2.385  0.2672  0.6443  0.1019
    7THR     HN  106   2.502   2.531   2.458  3.7260 -1.8993 -1.5084
    7THR     CA  107   2.304   2.554   2.399  0.8981  0.3247 -0.0350
    7THR     HA  108   2.241   2.552   2.311  0.6149 -1.4770  0.1702
    7THR     CB  109   2.232   2.500   2.521 -0.6338 -0.0682 -0.0097
    7THR     HB  110   2.297   2.513   2.610  0.6261 -2.6242 -0.4415
    7THR    OG1  111   2.207   2.360   2.507 -0.1699 -0.4571 -0.3418
    7THR    HG1  112   2.274   2.298   2.539  0.3683 -0.4369 -1.3667
    7THR    CG2  113   2.088   2.559   2.536 -0.0464  0.2469  0.6012
    7THR   HG21  114   2.029   2.486   2.595 -0.9857  1.3909  1.1182
    7THR   HG22  115   2.039   2.575   2.437  2.0794 -1.9015 -0.8934
    7THR   HG23  116   2.086   2.660   2.583 -0.3612 -0.0298  1.1895
    7THR      C  117   2.319   2.698   2.426 -0.1943 -0.9642 -0.5554
    7THR      O  118   2.407   2.727   2.501  0.1690 -0.0803  0.2817
    8TRP      N  119   2.233   2.796   2.379 -0.5534 -0.4679 -0.5038
    8TRP     HN  120   2.157   2.782   2.316 -0.7351  0.6937 -0.5661
    8TRP     CA  121   2.240   2.936   2.415  0.0715  0.5977  0.5114
    8TRP     HA  122   2.330   2.970   2.463  0.4698 -0.4673  0.5400
    8TRP     CB  123   2.216   3.021   2.282  0.1722 -0.0317  0.4297
    8TRP    HB1  124   2.214   3.126   2.320 -1.5867 -0.1736  0.7977
    8TRP    HB2  125   2.112   3.006   2.246 -0.1377  2.6320  0.0003
    8TRP     CG  126   2.323   3.010   2.177 -0.4926 -0.2965 -0.7554
    8TRP    CD1  127   2.326   2.930   2.068  0.8070  0.0283 -0.7637
    8TRP    HD1  128   2.245   2.862   2.048  1.3878 -0.7664 -0.4219
    8TRP    NE1  129   2.450   2.948   2.005 -0.2374 -0.1053 -0.0774
    8TRP    HE1  130   2.486   2.898   1.929  2.7702  0.5693  0.7831
    8TRP    CE2  131   2.525   3.036   2.073 -0.1534  0.5313 -0.6019
    8TRP    CD2  132   2.447   3.083   2.184 -0.3362  0.3284 -0.0196
    8TRP    CE3  133   2.494   3.180   2.269  0.2197 -0.2323 -0.6642
    8TRP    HE3  134   2.437   3.226   2.348 -1.2796  1.3321 -2.5622
    8TRP    CZ3  135   2.627   3.229   2.247  0.2191 -0.2851  0.0774
    8TRP    HZ3  136   2.672   3.301   2.314 -5.1897  2.4382  1.4412
    8TRP    CZ2  137   2.657   3.080   2.056 -0.8991 -0.2468 -0.0226
    8TRP    HZ2  138   2.719   3.050   1.973 -0.2929 -0.0394  0.3430
    8TRP    CH2  139   2.703   3.183   2.144 -0.2948  0.2356 -0.6359
    8TRP    HH2  140   2.804   3.222   2.131  0.3465 -0.6363  1.4068
    8TRP      C  141   2.126   2.959   2.500  0.0500 -0.4825 -0.6482
    8TRP      O  142   2.012   2.943   2.455 -0.2070 -0.3294 -0.1504
    9TYR      N  143   2.144   2.998   2.624 -0.0051  0.0089 -0.3209
    9TYR     HN  144   2.237   3.006   2.660  0.5976 -4.3294 -0.4161
    9TYR     CA  145   2.037   3.020   2.730 -0.0849 -0.0269 -0.7589
    9TYR     HA  146   1.941   2.982   2.699 -1.5171  1.9367  1.0425
    9TYR     CB  147   2.084   2.974   2.865 -0.6230  0.2971 -0.1418
    9TYR    HB1  148   2.020   3.016   2.945 -1.2562 -3.5779  1.5989
    9TYR    HB2  149   2.189   3.008   2.881 -0.0238 -0.7390 -1.5774
    9TYR     CG  150   2.075   2.823   2.870 -0.8555 -0.8663 -0.2454
    9TYR    CD1  151   1.948   2.755   2.867 -0.2747 -0.8659  1.0647
    9TYR    HD1  152   1.864   2.820   2.849  0.9157  0.1291 -1.3344
    9TYR    CE1  153   1.949   2.618   2.859  0.1227  0.6202  0.1422
    9TYR    HE1  154   1.860   2.558   2.845  2.7678 -3.7588  0.3033
    9TYR     CZ  155   2.067   2.545   2.875  0.3890  0.0435 -0.2297
    9TYR     OH  156   2.067   2.405   2.876 -0.0000  0.8735 -0.2801
    9TYR     HH  157   2.159   2.377   2.870 -0.1867 -1.1677  3.4023
    9TYR    CD2  158   2.194   2.750   2.878  1.0261  0.1800  0.2590
    9TYR    HD2  159   2.289   2.800   2.868  1.3511 -0.4815 -0.0505
    9TYR    CE2  160   2.189   2.615   2.888 -0.6081 -0.0050  0.2374
    9TYR    HE2  161   2.277   2.555   2.906 -1.5794 -1.4869  0.2607
    9TYR      C  162   2.012   3.163   2.755 -0.2852  0.4254 -0.3511
    9TYR    OT1  163   2.093   3.230   2.826 -0.2111 -0.2442 -0.3738
    9TYR    OT2  164   1.907   3.217   2.712 -0.6104 -0.4202 -1.2319
   10SOL     OW  165   2.909   0.143   3.173  0.2308  0.1185 -0.1253
   10SOL    HW1  166   2.824   0.099   3.167 -1.2799  2.9091 -0.8837
   10SOL    HW2  167   2.891   0.224   3.220  2.6291  0.5772  0.1533
   11SOL     OW  168   3.581   0.863   2.644 -0.5451  0.1666  0.1259
   11SOL    HW1  169   3.488   0.864   2.624 -1.6907  2.1509  4.3374
   11SOL    HW2  170   3.608   0.772   2.631 -3.7488 -1.0822  1.1918
   12SOL     OW  171   0.216   2.042   2.676  0.1132  0.0166 -0.6702
   12SOL    HW1  172   0.190   1.950   2.678 -2.8878  0.7636  0.6700
   12SOL    HW2  173   0.283   2.047   2.608 -0.8246 -2.8388 -1.9452
   13SOL     OW  174   2.415   1.961   0.384  0.0502  0.1466  0.1038
   13SOL    HW1  175   2.401   2.051   0.415  0.7956  0.0013  0.8781
   13SOL    HW2  176   2.496   1.966   0.333  0.3248 -0.1662  0.5045
   14SOL     OW  177   1.671   2.732   3.387 -0.3059  0.1955 -0.0351
   14SOL    HW1  178   1.675   2.763   3.297 -0.6895  0.0685 -0.0959
   14SOL    HW2  179   1.763   2.723   3.414 -0.1772 -0.9519 -0.8133
   15SOL     OW  180   2.113   2.218   1.297  0.3998  0.7062 -0.0596
   15SOL    HW1  181   2.156   2.303   1.309  3.0108 -0.3068 -1.4133
   15SOL    HW2  182   2.034   2.223   1.351  1.4554  3.2643  1.4249
   16SOL     OW  183   0.236   2.932   1.696 -0.5735  0.1516  0.5256
   16SOL    HW1  184   0.246   2.844   1.731  0.6154  0.8340  2.0232
   16SOL    HW2  185   0.317   2.947   1.646 -0.3184  0.7425  1.1081
   17SOL     OW  186   0.241   1.629   0.704  0.3646  0.0391 -0.6065
   17SOL    HW1  187   0.152   1.662   0.696  0.6972  1.5471  1.1595
   17SOL    HW2  188   0.272   1.620   0.614 -1.6449 -0.8532 -1.2765
   18SOL     OW  189   2.946   3.544   0.512 -0.0674 -0.1393 -0.1462
   18SOL    HW1  190   2.968   3.570   0.423  0.3432 -0.2683 -0.0842
   18SOL    HW2  191   2.950   3.448   0.510  0.0835 -0.1380  0.0426
   19SOL     OW  192   3.003   2.011   0.056 -0.3635  0.0385 -0.0678
   19SOL    HW1  193   2.989   2.061  -0.025  0.0890 -2.8437 -2.0819
   19SOL    HW2  194   2.933   2.040   0.114 -3.7643 -1.0573 -3.2100
   20SOL     OW  195   2.011   3.252   3.296 -0.1469  0.0617  0.1613
   20SOL    HW1  196   2.026   3.332   3.246  0.1458 -0.2675 -0.2787
   20SOL    HW2  197   2.079   3.252   3.363 -0.3544  0.3468  0.3798
   21SOL     OW  198   1.713   0.162   3.548  0.4152  0.1088 -0.8145
   21SOL    HW1  199   1.712   0.258   3.547  1.9890  0.1568 -0.5195
   21SOL    HW2  200   1.784   0.140   3.608  0.4463 -1.2474 -1.3254
   22SOL     OW  201   3.112   3.054   0.324 -0.5173  0.4218 -0.3711
   22SOL    HW1  202   3.120   3.007   0.240 -1.4969 -0.1188 -0.1736
   22SOL    HW2  203   3.199   3.089   0.339  0.6332 -2.2977  0.0143
   23SOL     OW  204   3.001   2.511   0.734 -0.0005  0.1368  0.5160
   23SOL    HW1  205   3.007   2.542   0.824 -2.0897 -0.4739  0.9177
   23SOL    HW2  206   2.998   2.416   0.741 -4.3261  0.0629  0.2748
   24SOL     OW  207   0.989   1.861   0.747  0.5513 -0.4192  0.6121
   24SOL    HW1  208   1.050   1.923   0.788  1.7328 -1.1517  0.0475
   24SOL    HW2  209   1.020   1.853   0.657 -0.6233 -0.5452  0.2036
   25SOL     OW  210   3.198   1.441   3.112 -0.7124 -0.3759 -0.4806
   25SOL    HW1  211   3.133   1.444   3.182 -1.2996 -1.9501 -0.9103
   25SOL    HW2  212   3.169   1.507   3.049 -0.0388  1.2257  0.8331
   26SOL     OW  213   0.849   1.114   2.555 -0.4824  0.2989 -1.2228
   26SOL    HW1  214   0.823   1.102   2.646 -0.0635 -0.8940 -1.2408
   26SOL    HW2  215   0.895   1.198   2.553 -1.0321  0.6240 -0.4659
   27SOL     OW  216   3.453   1.353   0.652 -0.7533  0.2006  0.0955
   27SOL    HW1  217   3.456   1.353   0.748  0.2117 -0.3397  0.0711
   27SOL    HW2  218   3.524   1.295   0.625  0.1433  1.7491 -0.9959
   28SOL     OW  219   3.653   3.205   1.750  0.2503  0.4677 -0.1961
   28SOL    HW1  220   3.711   3.202   1.674 -0.8915  1.1605 -1.1491
   28SOL    HW2  221   3.695   3.264   1.812  0.9830  0.2546 -0.4896
   29SOL     OW  222   2.194   0.422   0.333 -0.4845  0.4625  0.1817
   29SOL    HW1  223   2.249   0.358   0.288 -0.1007  0.8321  0.1245
   29SOL    HW2  224   2.111   0.375   0.347 -0.8661  0.5390 -1.5238
   30SOL     OW  225   1.081   2.601   2.768 -0.8695 -0.0409  0.3777
   30SOL    HW1  226   1.049   2.527   2.717  0.9794 -0.0345 -0.8675
   30SOL    HW2  227   1.054   2.581   2.858 -1.7735 -1.4243 -0.1679
   31SOL     OW  228   0.587   3.707   1.928  0.6425  0.2784  0.1318
   31SOL    HW1  229   0.612   3.797   1.909  1.6109 -0.3671 -1.8942
   31SOL    HW2  230   0.543   3.677   1.849  1.9237 -1.5696  0.0591
   32SOL     OW  231   1.971   1.937   1.799  0.2125 -0.5080  0.2713
   32SOL    HW1  232   1.876   1.928   1.802 -0.0386  1.0375 -1.4824
   32SOL    HW2  233   1.992   1.998   1.870  0.1368 -2.0831  1.7186
   33SOL     OW  234   0.204   1.229   0.110 -0.5750  0.1430  0.3993
   33SOL    HW1  235   0.276   1.198   0.055 -1.8794 -1.4228 -0.5301
   33SOL    HW2  236   0.144   1.271   0.049 -1.1659  0.0683  0.9244
   34SOL     OW  237   2.790   3.425   0.860  0.8676 -0.1083 -0.1213
   34SOL    HW1  238   2.755   3.355   0.916  0.5356 -0.3578 -0.6358
   34SOL    HW2  239   2.883   3.428   0.882  1.3190 -2.1135 -1.5457
   35SOL     OW  240   2.816   2.061   0.575 -0.0288 -0.5648  0.0923
   35SOL    HW1  241   2.756   2.032   0.644  0.2126 -2.0577 -0.2977
   35SOL    HW2  242   2.767   2.129   0.528 -0.3982  0.0895  1.3870
   36SOL     OW  243   0.825   2.960   0.616  0.0386 -0.0173 -0.3228
   36SOL    HW1  244   0.902   2.991   0.569  1.8303  0.2187  2.5323
   36SOL    HW2  245   0.794   3.037   0.665 -0.4155 -0.7477  0.5731
   37SOL     OW  246   2.866   2.023   3.319  0.4738  0.5444 -0.0606
   37SOL    HW1  247   2.840   2.035   3.411 -1.9300 -0.7336 -0.4850
   37SOL    HW2  248   2.954   1.986   3.324  0.5871  0.9546  1.7125
   38SOL     OW  249   1.982   2.525   1.383 -0.6814 -0.2922  0.2640
   38SOL    HW1  250   1.975   2.487   1.470 -0.6633  0.2223  0.4918
   38SOL    HW2  251   1.919   2.596   1.382  0.4444  0.7527  0.4187
   39SOL     OW  252   1.763   2.345   0.901 -1.1459 -0.1447  0.2959
   39SOL    HW1  253   1.763   2.269   0.960  3.0761  0.1958  1.0462
   39SOL    HW2  254   1.749   2.420   0.959 -1.6384 -0.1191  0.1408
   40SOL     OW  255   1.822   3.027   1.069 -0.7630  0.0659 -0.1292
   40SOL    HW1  256   1.783   3.029   0.982  1.6502 -1.6530 -1.4009
   40SOL    HW2  257   1.875   2.947   1.069  2.5641  2.0194  1.3830
   41SOL     OW  258   3.648   2.607   0.540 -0.3882  0.2346 -0.2232
   41SOL    HW1  259   3.719   2.612   0.604  0.8754 -0.8216 -1.4650
   41SOL    HW2  260   3.571   2.583   0.591  0.3097  0.6396  1.0581
   42SOL     OW  261   1.550   1.914   3.012  0.7706  0.0943  0.3890
   42SOL    HW1  262   1.485   1.902   3.081  0.2921  2.0791  0.3628
   42SOL    HW2  263   1.510   1.977   2.952  2.1293  0.2431 -0.4123
   43SOL     OW  264   1.342   3.654   2.460 -0.7997 -0.8009  0.2611
   43SOL    HW1  265   1.381   3.571   2.432 -0.1472 -0.3990 -0.0544
   43SOL    HW2  266   1.255   3.653   2.421 -0.6116 -1.1141 -0.1725
   44SOL     OW  267   2.683   2.865   3.619 -0.3335  0.0089  0.0369
   44SOL    HW1  268   2.634   2.858   3.537 -3.7143  1.2465  1.7504
   44SOL    HW2  269   2.648   2.794   3.674  0.4584  0.3941  1.0703
   45SOL     OW  270   1.401   2.667   1.831 -0.5527  0.0710  0.5776
   45SOL    HW1  271   1.477   2.725   1.832  0.5474 -1.3126  0.4238
   45SOL    HW2  272   1.350   2.692   1.908 -0.6547  1.9026 -0.0372
   46SOL     OW  273   3.138   0.560   3.236 -0.5692  0.4235  0.3782
   46SOL    HW1  274   3.114   0.471   3.213 -0.1272  0.6121 -0.8919
   46SOL    HW2  275   3.231   0.555   3.259 -0.5348  0.5587  0.2723
   47SOL     OW  276   0.657   0.599   3.193  0.1031 -0.0889 -0.0342
   47SOL    HW1  277   0.669   0.542   3.269  1.5607  0.2617  0.0269
   47SOL    HW2  278   0.729   0.577   3.134  0.1347  0.9973 -0.4330
   48SOL     OW  279   1.858   0.446   1.070  0.5837 -0.2657  0.4521
   48SOL    HW1  280   1.871   0.526   1.019 -0.8383 -0.5041 -0.3601
   48SOL    HW2  281   1.864   0.474   1.161 -0.4778  0.9203  0.1935
   49SOL     OW  282   0.525   0.193   0.124 -0.2361  0.6280  0.4931
   49SOL    HW1  283   0.447   0.152   0.160  0.3566  0.5826  1.7843
   49SOL    HW2  284   0.593   0.125   0.131  0.8743  1.8570  3.0735
   50SOL     OW  285   2.556   2.352   1.194  0.9429 -0.4945  0.1955
   50SOL    HW1  286   2.625   2.289   1.215  0.3514 -2.2351 -2.6024
   50SOL    HW2  287   2.580   2.387   1.109  0.5483  2.2009  1.0746
   51SOL     OW  288   3.216   0.118   1.098 -0.4303  0.0150  0.3972
   51SOL    HW1  289   3.163   0.040   1.087  1.3278 -1.3522  1.2059
   51SOL    HW2  290   3.190   0.175   1.025 -2.1333 -1.0581  0.1195
   52SOL     OW  291   3.498   0.746   0.573  0.2623 -0.1188 -0.3666
   52SOL    HW1  292   3.481   0.695   0.652  1.8509  0.1681  0.1927
   52SOL    HW2  293   3.469   0.689   0.501 -2.9493  0.3288  0.4055
   53SOL     OW  294   1.799   1.425   2.023 -0.5343  0.1903  0.4706
   53SOL    HW1  295   1.733   1.366   1.986  0.0719 -0.0244 -0.2894
   53SOL    HW2  296   1.835   1.378   2.098 -2.0028  0.7623  1.5874
   54SOL     OW  297   3.130   2.062   2.196 -0.4046  0.0663  0.2521
   54SOL    HW1  298   3.046   2.054   2.240  0.1927  1.9611  1.8818
   54SOL    HW2  299   3.194   2.071   2.267  1.2148 -1.3607 -0.9348
   55SOL     OW  300   2.445   3.527   2.039  0.1043 -0.1291 -0.2056
   55SOL    HW1  301   2.381   3.466   2.075 -0.5112 -0.5576 -1.9163
   55SOL    HW2  302   2.394   3.588   1.986  0.9975  0.2320 -0.6830
   56SOL     OW  303   3.574   2.357   1.894  0.3898  0.2329  0.2830
   56SOL    HW1  304   3.480   2.340   1.902 -0.3299  3.8565  1.2740
   56SOL    HW2  305   3.584   2.404   1.811  0.7345  2.5644  1.5501
   57SOL     OW  306   3.432   2.922   0.855  0.1310 -0.3777 -0.4389
   57SOL    HW1  307   3.369   2.903   0.925 -2.3337 -1.4770 -2.8013
   57SOL    HW2  308   3.399   3.002   0.814  2.3645  1.0978  0.4135
   58SOL     OW  309   2.296   2.678   0.838 -0.0859  0.4466 -0.6776
   58SOL    HW1  310   2.224   2.639   0.789 -0.1621  1.0829 -1.0803
   58SOL    HW2  311   2.265   2.766   0.859  0.5624  0.7085 -0.8196
   59SOL     OW  312   0.300   0.080   0.230  0.4517 -0.3868 -0.7313
   59SOL    HW1  313   0.301  -0.012   0.203 -0.4112 -0.9490  0.9952
   59SOL    HW2  314   0.270   0.078   0.321 -0.0329  1.6495 -0.7967
   60SOL     OW  315   2.227   1.415   0.345 -0.0268  0.9819  0.2825
   60SOL    HW1  316   2.232   1.509   0.330  0.2372  1.0549  0.8338
   60SOL    HW2  317   2.144   1.389   0.304  0.6462  1.1802 -1.2779
   61SOL     OW  318   3.261   1.026   0.650  0.1500 -0.3907 -0.1487
   61SOL    HW1  319   3.288   0.956   0.709  0.1798  0.4756  0.8897
   61SOL    HW2  320   3.323   1.022   0.578  0.6672 -0.8839  0.3178
   62SOL     OW  321   2.827   3.278   2.845  0.2880 -0.1389 -0.0533
   62SOL    HW1  322   2.862   3.367   2.838  2.2362 -0.7734  0.8624
   62SOL    HW2  323   2.852   3.249   2.933  0.0302 -1.7369 -0.4792
   63SOL     OW  324   1.704   0.710   1.731 -0.2150 -0.1380 -0.0037
   63SOL    HW1  325   1.775   0.689   1.670  2.1673  3.1550  1.3643
   63SOL    HW2  326   1.684   0.801   1.713 -0.6900  0.4128  2.8982
   64SOL     OW  327   2.253   2.610   1.993  0.0185  0.2060 -0.2834
   64SOL    HW1  328   2.220   2.520   1.988 -0.0417  0.2883 -1.6046
   64SOL    HW2  329   2.260   2.627   2.087 -0.0992 -1.1275 -0.0106
   65SOL     OW  330   1.894   1.142   0.783  0.5122 -0.0391 -0.3103
   65SOL    HW1  331   1.846   1.101   0.711  0.5032 -1.8011  0.6505
   65SOL    HW2  332   1.902   1.234   0.757 -1.2530 -0.2006 -1.6157
   66SOL     OW  333   3.521   0.538   2.748  0.3778 -0.2574  0.0101
   66SOL    HW1  334   3.484   0.568   2.831 -1.8744 -0.1350 -0.9812
   66SOL    HW2  335   3.615   0.532   2.765 -0.0189 -0.2685  2.5597
   67SOL     OW  336   3.320   1.690   0.995 -0.2917 -0.2149 -0.0461
   67SOL    HW1  337   3.406   1.668   0.959  0.0041 -1.2779  1.2248
   67SOL    HW2  338   3.338   1.719   1.085 -1.1709  0.5426 -0.0965
   68SOL     OW  339   3.533   0.427   0.499  0.0376 -0.0516  0.0607
   68SOL    HW1  340   3.608   0.485   0.487 -0.0242  0.0102 -0.0214
   68SOL    HW2  341   3.481   0.436   0.419  0.7444 -1.2719 -0.5741
   69SOL     OW  342   0.218   0.521   2.218 -0.7648 -0.9007 -0.3116
   69SOL    HW1  343   0.201   0.445   2.274 -2.9573  0.3760  0.9137
   69SOL    HW2  344   0.155   0.514   2.147  0.5477 -1.3501 -1.4919
   70SOL     OW  345   1.406   0.014   2.149  0.2554 -0.2015 -0.4765
   70SOL    HW1  346   1.340  -0.025   2.207  0.6956 -0.3483 -0.0728
   70SOL    HW2  347   1.388   0.108   2.151  0.1980 -0.2187 -0.1941
   71SOL     OW  348   0.896   1.952   2.332 -0.8818  0.3754  0.7100
   71SOL    HW1  349   0.925   1.949   2.423  1.5886 -1.0743 -0.0264
   71SOL    HW2  350   0.906   1.862   2.301 -1.7651  0.8218 -0.9748
   72SOL     OW  351   3.688   3.565   1.611 -0.1091 -0.7597 -0.1034
   72SOL    HW1  352   3.686   3.629   1.540 -0.2835  1.7120  1.9501
   72SOL    HW2  353   3.600   3.568   1.648 -0.0941 -2.1785  0.0831
   73SOL     OW  354   3.699   1.596   0.705  0.4437  0.4712 -0.0849
   73SOL    HW1  355   3.721   1.624   0.794 -0.4231 -0.8153  0.5640
   73SOL    HW2  356   3.734   1.507   0.698 -2.4174 -0.8216  0.2415
   74SOL     OW  357   0.988   1.532   2.075 -0.4435 -0.1845  0.2825
   74SOL    HW1  358   1.062   1.579   2.036 -0.1497 -0.3205  0.6728
   74SOL    HW2  359   0.950   1.483   2.002  0.6348 -1.1204  0.3280
   75SOL     OW  360   2.000   3.417   0.377  0.1940  0.1701 -0.5695
   75SOL    HW1  361   1.907   3.406   0.358  0.2016 -1.1515  0.0236
   75SOL    HW2  362   2.020   3.506   0.350 -1.4593  0.8116  0.1973
   76SOL     OW  363   1.955   0.550   1.328 -0.4180 -1.0025  0.5182
   76SOL    HW1  364   2.033   0.601   1.306 -2.2015  2.0271  0.6575
   76SOL    HW2  365   1.946   0.559   1.423 -2.5051  1.3497  0.1936
   77SOL     OW  366   0.800   2.096   2.723  0.2542  0.3013  0.0684
   77SOL    HW1  367   0.750   2.115   2.644  0.0581 -0.3598  0.0271
   77SOL    HW2  368   0.795   2.177   2.774 -0.9942  0.2001  0.1316
   78SOL     OW  369   3.140   3.403   0.286 -0.0170 -0.0176  0.6185
   78SOL    HW1  370   3.047   3.380   0.288  0.2097 -1.0648  0.0575
   78SOL    HW2  371   3.177   3.346   0.218  0.9939  0.5343  0.6927
   79SOL     OW  372   3.312   3.271   0.071  0.3421 -0.6818 -0.3649
   79SOL    HW1  373   3.255   3.209   0.026 -1.0109  1.0786 -1.2208
   79SOL    HW2  374   3.319   3.345   0.011  1.7634  0.0821  0.6758
   80SOL     OW  375   1.443   1.986   3.450 -0.3055  0.2519  0.1567
   80SOL    HW1  376   1.501   1.992   3.526  1.2556  0.7993 -1.0242
   80SOL    HW2  377   1.430   2.076   3.423  1.0927  0.0077 -1.5708
   81SOL     OW  378   1.519   2.856   1.210 -0.4860 -0.4090  0.2373
   81SOL    HW1  379   1.474   2.932   1.246 -0.3000 -0.3962  0.4412
   81SOL    HW2  380   1.533   2.879   1.118  2.8104  1.4026  1.0242
   82SOL     OW  381   3.401   2.640   2.966  0.0770 -0.2579 -0.3052
   82SOL    HW1  382   3.383   2.546   2.968  1.8790 -0.6372  0.0457
   82SOL    HW2  383   3.469   2.653   3.032  0.2169  1.2086 -0.6925
   83SOL     OW  384   1.292   2.456   1.436  0.3320 -0.6672  0.3786
   83SOL    HW1  385   1.281   2.542   1.477  1.9625 -0.5168  0.5464
   83SOL    HW2  386   1.338   2.474   1.354  1.2722 -1.4263  0.7209
   84SOL     OW  387   1.514   0.558   0.989 -0.4212  0.1209 -0.0514
   84SOL    HW1  388   1.504   0.520   1.076  3.2604 -1.3978 -0.1188
   84SOL    HW2  389   1.559   0.641   1.004  0.0785 -0.0702 -0.4700
   85SOL     OW  390   0.317   0.846   0.887 -0.0399  0.2549  0.2117
   85SOL    HW1  391   0.225   0.873   0.887 -0.5181 -1.1883 -1.4558
   85SOL    HW2  392   0.325   0.787   0.812  2.2491  0.2980  0.3417
   86SOL     OW  393   3.654   0.615   1.445 -0.4128  0.2327  0.0764
   86SOL    HW1  394   3.680   0.622   1.537  1.5894  1.2110 -0.4915
   86SOL    HW2  395   3.561   0.639   1.444  0.4831  4.5371  1.3804
   87SOL     OW  396   1.525   0.174   0.341 -0.1727  0.0690  0.1166
   87SOL    HW1  397   1.600   0.222   0.376  0.6667 -1.4888  0.5619
   87SOL    HW2  398   1.564   0.099   0.296 -1.4128  0.0515 -0.9631
   88SOL     OW  399   3.445   0.115   2.548 -0.2732  0.1048  0.4586
   88SOL    HW1  400   3.444   0.162   2.465  1.0222 -1.6073 -0.5901
   88SOL    HW2  401   3.353   0.095   2.566 -0.4660 -0.9553 -1.4734
   89SOL     OW  402   1.587   1.956  -0.012  0.5173  0.2371  0.3151
   89SOL    HW1  403   1.494   1.968   0.007  0.0483 -0.0533 -1.5763
   89SOL    HW2  404   1.632   2.014   0.049 -0.9892  1.4782  0.3068
   90SOL     OW  405   2.807   1.211   2.121 -0.8476  0.2973  0.7629
   90SOL    HW1  406   2.736   1.235   2.062 -1.2561  0.8259  1.4487
   90SOL    HW2  407   2.800   1.273   2.194 -0.9400 -0.8988  1.8166
   91SOL     OW  408   0.252   2.107   3.231  0.0761 -0.0934  0.0458
   91SOL    HW1  409   0.223   2.046   3.163 -1.4942  0.6661 -0.0054
   91SOL    HW2  410   0.203   2.188   3.214  0.3046  0.3966  1.5407
   92SOL     OW  411   3.032   2.966   3.197 -0.3743  0.0929 -0.3147
   92SOL    HW1  412   3.029   3.036   3.132  2.4866  1.8326  1.2216
   92SOL    HW2  413   3.086   2.899   3.157  0.3481  0.6132 -0.2273
   93SOL     OW  414   0.825   2.467   3.633 -0.4219  0.3307  0.0478
   93SOL    HW1  415   0.799   2.463   3.541  0.8204  0.1402 -0.3216
   93SOL    HW2  416   0.820   2.376   3.663 -0.3613  0.3174  0.0196
   94SOL     OW  417   0.516   2.835   3.161 -0.3053  0.1074  0.7023
   94SOL    HW1  418   0.503   2.904   3.227 -0.4831  0.9682 -0.2215
   94SOL    HW2  419   0.606   2.806   3.175  0.1850  1.3815  0.3125
   95SOL     OW  420   3.113   0.638   0.417  0.0205  0.0949  0.8231
   95SOL    HW1  421   3.167   0.621   0.494  2.2828 -0.4836 -0.7700
   95SOL    HW2  422   3.052   0.564   0.414 -0.3393  0.3103  2.2269
   96SOL     OW  423   1.723   0.710   3.299 -0.1481  1.0113  0.2425
   96SOL    HW1  424   1.702   0.622   3.331 -1.2298  1.0632 -0.2733
   96SOL    HW2  425   1.818   0.708   3.284 -0.2634 -0.3266 -0.5117
   97SOL     OW  426   0.656   2.528   2.334 -0.2913 -0.1544 -0.6311
   97SOL    HW1  427   0.588   2.463   2.349 -1.6416  0.7772 -2.4625
   97SOL    HW2  428   0.738   2.478   2.340 -1.1979 -1.6701 -0.3633
   98SOL     OW  429   1.385   0.461   2.985  0.4350  0.2847  0.0347
   98SOL    HW1  430   1.443   0.487   3.056 -0.8309  1.2436  0.7701
   98SOL    HW2  431   1.298   0.488   3.014 -0.6272 -2.3107 -0.4097
   99SOL     OW  432   0.403   2.470   1.854 -0.9438 -0.9248  0.0985
   99SOL    HW1  433   0.470   2.498   1.917 -2.6011  0.8376  1.1818
   99SOL    HW2  434   0.447   2.404   1.800  2.2452  1.3858 -0.4447
  100SOL     OW  435   1.711   1.772   2.388 -0.4318  0.2744 -0.0713
  100SOL    HW1  436   1.791   1.734   2.425 -0.7516  1.4421  1.9917
  100SOL    HW2  437   1.661   1.697   2.358  0.2437 -0.7217  1.1714
  101SOL     OW  438   3.333   2.679   0.344  0.0578  0.8987  0.2618
  101SOL    HW1  439   3.248   2.690   0.388 -0.2532  1.3691 -0.4403
  101SOL    HW2  440   3.376   2.764   0.356 -0.1163  1.0987 -0.5232
  102SOL     OW  441   3.141   2.700   1.954  0.6278  0.1293 -0.1104
  102SOL    HW1  442   3.194   2.667   2.027  1.0813 -0.0728 -0.5258
  102SOL    HW2  443   3.122   2.623   1.901  0.8745  0.3811 -0.5696
  103SOL     OW  444   3.523   1.320   0.923 -0.1920  0.0399 -0.6011
  103SOL    HW1  445   3.569   1.248   0.880  0.7437  0.4842 -0.3658
  103SOL    HW2  446   3.431   1.293   0.922  0.0152 -0.6918 -1.4214
  104SOL     OW  447   2.931   3.330   3.196 -0.1924 -0.0528 -0.0226
  104SOL    HW1  448   2.905   3.289   3.279  0.4292  1.5132  0.9929
  104SOL    HW2  449   3.015   3.373   3.216  0.3330 -0.2599 -1.6725
  105SOL     OW  450   2.113   1.419   2.710 -1.1044  0.0790 -0.8639
  105SOL    HW1  451   2.039   1.371   2.672 -0.2656 -1.9007 -0.1391
  105SOL    HW2  452   2.169   1.351   2.746  0.6749  1.5918 -0.6498
  106SOL     OW  453   1.320   0.893   0.987 -0.4526  0.1154  0.2167
  106SOL    HW1  454   1.235   0.852   1.000  0.6386 -2.6904 -0.6400
  106SOL    HW2  455   1.303   0.987   0.989 -3.2732 -0.3273  1.6514
  107SOL     OW  456   3.431   2.353   2.562 -1.2217  0.0594  0.2970
  107SOL    HW1  457   3.406   2.414   2.631  0.7415  1.4959 -0.1818
  107SOL    HW2  458   3.526   2.358   2.558 -1.0973 -1.9901 -0.7508
  108SOL     OW  459   0.179   1.628   0.286 -0.4098  0.0732  0.2666
  108SOL    HW1  460   0.103   1.681   0.312 -0.7412  0.2905 -1.1010
  108SOL    HW2  461   0.146   1.572   0.216  0.2083 -1.2418  0.9893
  109SOL     OW  462   0.996   2.754   3.175 -0.3504 -0.4225  0.3011
  109SOL    HW1  463   0.914   2.717   3.141 -0.9341  0.4138  0.7352
  109SOL    HW2  464   1.061   2.735   3.108 -1.3983  0.9699 -1.1996
  110SOL     OW  465   2.276   0.015   1.921  0.1516  0.2100  0.4726
  110SOL    HW1  466   2.338   0.078   1.886  0.5760 -0.0555  0.7361
  110SOL    HW2  467   2.264   0.040   2.012  0.9425 -0.5525  0.8055
  111SOL     OW  468   2.644   0.371   2.356 -0.3339  0.0170  0.2809
  111SOL    HW1  469   2.693   0.293   2.382  1.2999  0.0461 -2.3689
  111SOL    HW2  470   2.688   0.443   2.403 -0.8037 -0.4306  1.4538
  112SOL     OW  471   0.439   1.790   0.182 -0.9070  0.2844 -0.0387
  112SOL    HW1  472   0.413   1.858   0.120 -0.5835 -0.8618 -1.5035
  112SOL    HW2  473   0.359   1.740   0.198 -0.5704 -0.6611 -1.1860
  113SOL     OW  474   0.672   0.319   1.231  0.2720  0.1938 -0.1965
  113SOL    HW1  475   0.712   0.277   1.306  1.1725  1.5555  0.1121
  113SOL    HW2  476   0.704   0.409   1.233  0.4606  0.2325 -2.3058
  114SOL     OW  477   0.737   0.357   2.817  0.3801 -0.0781 -0.6070
  114SOL    HW1  478   0.773   0.279   2.859  2.4256  0.8397 -0.5487
  114SOL    HW2  479   0.813   0.411   2.797 -0.9670  1.8948 -0.6987
  115SOL     OW  480   3.055   1.078   2.166  0.0531  0.5882 -0.2486
  115SOL    HW1  481   3.037   1.063   2.259 -0.9164 -0.0032 -0.5178
  115SOL    HW2  482   2.978   1.126   2.134  0.3644  0.7607 -0.7481
  116SOL     OW  483   0.539   1.618   1.060 -0.3705 -0.0252 -0.3842
  116SOL    HW1  484   0.556   1.636   0.968  0.5941  0.1154 -0.1870
  116SOL    HW2  485   0.606   1.669   1.107 -1.2935  0.4847  0.4240
  117SOL     OW  486   3.402   1.380   0.024 -0.7871  0.3927  0.0151
  117SOL    HW1  487   3.384   1.464  -0.018  0.0152  0.7013  0.2764
  117SOL    HW2  488   3.477   1.396   0.080  0.6869 -0.9678 -1.4589
  118SOL     OW  489   2.630   0.925   3.173  0.0281 -0.0582 -0.2808
  118SOL    HW1  490   2.695   0.995   3.180 -1.4668  1.3411 -0.0518
  118SOL    HW2  491   2.546   0.968   3.185 -1.2238 -1.3319 -3.5120
  119SOL     OW  492   1.079   0.247   0.890 -0.2535 -0.5338  0.5650
  119SOL    HW1  493   1.116   0.169   0.848  0.2067 -0.1631  0.2598
  119SOL    HW2  494   1.131   0.257   0.970  0.3699  0.0229  0.1053
  120SOL     OW  495   1.630   3.536   1.461  0.1961  0.0249  0.3226
  120SOL    HW1  496   1.700   3.601   1.453 -0.5878  0.8084 -0.2807
  120SOL    HW2  497   1.549   3.585   1.449 -0.4592 -0.9213  0.7115
  121SOL     OW  498   2.163   0.355   2.019 -0.6012  0.1902 -0.5608
  121SOL    HW1  499   2.131   0.293   2.084 -1.9724 -0.3923 -1.7236
  121SOL    HW2  500   2.160   0.307   1.936  0.3916  1.1335 -1.1714
  122SOL     OW  501   2.711   1.391   2.303  0.1073 -0.4790  0.0886
  122SOL    HW1  502   2.719   1.460   2.368  0.6452 -1.0491  0.6427
  122SOL    HW2  503   2.701   1.437   2.219 -0.4591  0.2574  0.5543
  123SOL     OW  504   1.003   1.693   1.390 -0.3310  0.6727  0.1791
  123SOL    HW1  505   1.048   1.669   1.471 -0.5331 -1.5265 -0.2999
  123SOL    HW2  506   1.065   1.671   1.321 -0.9707  0.5174 -0.3493
  124SOL     OW  507   2.422   0.300   1.680  0.6122  0.3773  0.7326
  124SOL    HW1  508   2.441   0.277   1.771  0.7360 -0.6055  0.4739
  124SOL    HW2  509   2.486   0.368   1.658  2.1239 -0.9773  0.7006
  125SOL     OW  510   3.101   2.680   3.312 -0.1404 -0.5495  0.1934
  125SOL    HW1  511   3.125   2.705   3.223 -0.1693  0.1854  0.3857
  125SOL    HW2  512   3.016   2.637   3.303 -0.1674 -0.4280 -0.1293
  126SOL     OW  513   0.160   2.344   0.791 -0.2563 -0.0899 -0.3442
  126SOL    HW1  514   0.145   2.272   0.852 -0.9801 -0.0029 -0.4075
  126SOL    HW2  515   0.072   2.378   0.773  0.0473  0.5722 -0.5966
  127SOL     OW  516   0.344   2.146   1.659 -0.1458 -0.0009  0.3859
  127SOL    HW1  517   0.297   2.074   1.701 -1.3217  0.4706 -0.0758
  127SOL    HW2  518   0.415   2.104   1.610 -0.7588 -0.8396  0.2031
  128SOL     OW  519   2.619   3.686   0.819  0.3594 -0.6078  0.2589
  128SOL    HW1  520   2.643   3.779   0.820 -1.3890 -0.0214  3.6275
  128SOL    HW2  521   2.703   3.640   0.815  1.2774  1.0685 -1.0730
  129SOL     OW  522   0.333   0.638   2.754  0.0067  0.1225  0.1666
  129SOL    HW1  523   0.420   0.608   2.778  0.1644 -1.3776 -2.0225
  129SOL    HW2  524   0.333   0.640   2.659 -1.8332  1.7849  0.1201
  130SOL     OW  525   0.448   1.968   3.452 -0.4105 -0.2982 -0.3838
  130SOL    HW1  526   0.364   1.946   3.492 -1.2766 -0.7765 -2.3225
  130SOL    HW2  527   0.434   2.054   3.414  0.4959  0.2936  0.5861
  131SOL     OW  528   2.749   1.036   3.608 -0.4167  0.3900 -0.0550
  131SOL    HW1  529   2.666   1.081   3.592 -2.6537 -3.5315 -1.0150
  131SOL    HW2  530   2.756   0.973   3.536  1.1814 -2.2673  2.2062
  132SOL     OW  531   2.892   2.338   0.953 -0.3688 -0.4464 -0.3963
  132SOL    HW1  532   2.803   2.326   0.922 -0.2751  0.0301 -0.8476
  132SOL    HW2  533   2.947   2.299   0.885 -0.1283  1.2197 -1.2052
  133SOL     OW  534   1.065   2.707   1.747  0.5504  0.3606  0.8520
  133SOL    HW1  535   0.975   2.724   1.776  0.2118  0.6835 -0.3294
  133SOL    HW2  536   1.083   2.617   1.775 -1.3174 -0.9329 -1.6124
  134SOL     OW  537   2.330   1.817   3.243  0.3433 -0.0737 -0.3391
  134SOL    HW1  538   2.422   1.793   3.246  0.3029 -0.1683  1.5352
  134SOL    HW2  539   2.325   1.886   3.177  1.8949  0.4358  0.0360
  135SOL     OW  540   3.678   1.516   1.211  0.0241 -0.4498  0.1503
  135SOL    HW1  541   3.659   1.431   1.252  0.7499 -0.9752 -0.5858
  135SOL    HW2  542   3.735   1.561   1.274 -1.2309 -0.0272  1.0511
  136SOL     OW  543   1.920   0.801   1.116  0.5216 -0.3334  0.0189
  136SOL    HW1  544   1.981   0.729   1.130 -0.0395 -0.7910  0.1159
  136SOL    HW2  545   1.942   0.865   1.184  0.3030 -0.8897  0.6191
  137SOL     OW  546   0.421   0.384   0.579  0.0443  0.8288 -0.0427
  137SOL    HW1  547   0.474   0.367   0.501 -1.7094  4.8386 -2.4330
  137SOL    HW2  548   0.335   0.348   0.558 -0.6836  2.7039 -0.4505
  138SOL     OW  549   1.487   1.612   3.010 -0.3714 -0.2736 -0.6975
  138SOL    HW1  550   1.565   1.630   2.957 -0.9245  1.2816 -1.0197
  138SOL    HW2  551   1.521   1.593   3.097  0.3282  3.6477  0.0583
  139SOL     OW  552   3.531   2.399   3.658 -0.0719  0.5632 -0.1182
  139SOL    HW1  553   3.461   2.413   3.721 -0.1153  0.2662 -0.1028
  139SOL    HW2  554   3.487   2.394   3.573 -0.3134 -1.7458  0.0860
  140SOL     OW  555   2.510   0.168   1.433  0.1199 -0.1461 -0.4692
  140SOL    HW1  556   2.445   0.217   1.484  1.5640  1.3172  0.0473
  140SOL    HW2  557   2.537   0.228   1.364  2.0172 -0.1205  0.2395
  141SOL     OW  558   0.640   0.989   2.414  0.7159 -0.0112  0.4449
  141SOL    HW1  559   0.712   1.043   2.448  0.2037  0.7973  0.2727
  141SOL    HW2  560   0.572   1.052   2.390 -0.0088 -0.7562  0.4958
  142SOL     OW  561   1.461   2.084   2.812 -0.5436 -0.2328 -0.1203
  142SOL    HW1  562   1.555   2.091   2.824 -0.6274  0.3961  0.2030
  142SOL    HW2  563   1.429   2.174   2.817 -1.3768 -0.5752  1.5662
  143SOL     OW  564   2.746   1.073   0.219  0.0519  0.0926 -0.0117
  143SOL    HW1  565   2.834   1.107   0.233  0.8116 -1.1055 -1.5942
  143SOL    HW2  566   2.756   0.978   0.216 -1.6816 -0.2436  2.0654
  144SOL     OW  567   2.029   0.437   3.481  0.3705  0.3274  0.2804
  144SOL    HW1  568   2.084   0.453   3.558  0.1576  0.9774  0.3088
  144SOL    HW2  569   2.033   0.343   3.467 -0.3727  0.0695  1.6812
  145SOL     OW  570   2.407   2.919   1.494 -0.0459 -0.3315 -0.4429
  145SOL    HW1  571   2.364   3.000   1.521 -0.9533 -0.5644 -1.1637
  145SOL    HW2  572   2.491   2.921   1.540 -0.2472  0.7889 -0.0852
  146SOL     OW  573   3.484   3.580   2.724 -0.1802 -0.5353  0.3375
  146SOL    HW1  574   3.396   3.572   2.687 -0.1779  0.8011  0.0056
  146SOL    HW2  575   3.522   3.657   2.681  1.9636 -2.2842 -1.1043
  147SOL     OW  576   1.738   0.970   2.204 -0.4156  0.1302  0.5405
  147SOL    HW1  577   1.766   0.990   2.293  0.1479  0.8804  0.1967
  147SOL    HW2  578   1.710   1.054   2.167  0.2934  0.0127 -0.3161
  148SOL     OW  579   0.434   0.598   1.602  0.0608  0.1442 -0.6695
  148SOL    HW1  580   0.455   0.640   1.686  3.0306 -1.4148 -0.4903
  148SOL    HW2  581   0.448   0.667   1.537  0.2283  0.6887 -0.0736
  149SOL     OW  582   2.114   3.650   1.428  0.3376  0.4238 -0.1580
  149SOL    HW1  583   2.187   3.678   1.373 -0.2325 -0.4104 -1.3625
  149SOL    HW2  584   2.145   3.666   1.518  2.1586 -0.2517 -0.6135
  150SOL     OW  585   3.230   0.840   3.103 -0.4056  0.4255  0.4390
  150SOL    HW1  586   3.219   0.745   3.102  2.7669 -0.0760  1.4322
  150SOL    HW2  587   3.248   0.864   3.012  1.2107 -0.3346  0.5370
  151SOL     OW  588   3.430   0.568   3.205 -0.0403  0.9561 -0.7586
  151SOL    HW1  589   3.467   0.643   3.158  0.8879  0.0691 -1.4941
  151SOL    HW2  590   3.454   0.492   3.152 -0.9281  0.1193 -0.0147
  152SOL     OW  591   1.102   3.493   2.725  0.5739 -0.2992 -0.4139
  152SOL    HW1  592   1.052   3.529   2.652  0.5456 -0.6342 -0.5603
  152SOL    HW2  593   1.103   3.563   2.790 -0.8507 -0.6039 -0.0375
  153SOL     OW  594   0.539   2.210   1.035  0.2409 -0.6314 -0.1976
  153SOL    HW1  595   0.477   2.166   0.977 -0.3392 -0.5140  0.3107
  153SOL    HW2  596   0.615   2.153   1.037 -0.3634 -1.4555  0.1817
  154SOL     OW  597   3.431   1.326   2.889  0.1271  0.1270 -0.0847
  154SOL    HW1  598   3.471   1.250   2.931 -0.0274 -0.7057 -1.3795
  154SOL    HW2  599   3.383   1.370   2.959  0.5553 -0.7404  0.7730
  155SOL     OW  600   2.983   3.687   3.464 -0.2692 -0.1296  0.4198
  155SOL    HW1  601   2.967   3.774   3.500  1.7961 -0.3073  1.9856
  155SOL    HW2  602   2.971   3.628   3.538 -1.3935 -1.1793 -0.5587
  156SOL     OW  603   3.688   2.681   3.568  0.8746 -0.7140  0.0726
  156SOL    HW1  604   3.594   2.674   3.579  0.7084 -0.9288 -1.2386
  156SOL    HW2  605   3.709   2.618   3.498  1.5996  1.0580 -1.3913
  157SOL     OW  606   1.547   0.813   1.114  0.2966  0.1591  0.5130
  157SOL    HW1  607   1.614   0.861   1.065 -1.5302  0.9846 -1.3099
  157SOL    HW2  608   1.464   0.837   1.072 -0.9804 -2.3918  1.3616
  158SOL     OW  609   2.185   2.100   0.870  0.3755 -0.8971 -0.0966
  158SOL    HW1  610   2.273   2.133   0.851 -0.0115 -0.9851 -2.2189
  158SOL    HW2  611   2.131   2.178   0.881  0.1796 -0.8092 -1.5632
  159SOL     OW  612   3.235   0.264   2.202  0.3168 -0.2634 -0.3694
  159SOL    HW1  613   3.175   0.336   2.183  0.5780  0.5303  1.5872
  159SOL    HW2  614   3.184   0.185   2.184 -0.8409  0.3974 -0.1098
  160SOL     OW  615   2.049   2.316   0.914 -0.5225  0.7169  0.2863
  160SOL    HW1  616   1.956   2.321   0.890 -0.1780 -0.0290 -1.3797
  160SOL    HW2  617   2.056   2.366   0.994 -2.0880  2.1651 -0.4236
  161SOL     OW  618   3.324   1.063   2.127 -0.0917 -0.0948 -0.3746
  161SOL    HW1  619   3.357   1.066   2.037  0.1759  1.2033 -0.2483
  161SOL    HW2  620   3.229   1.062   2.118 -0.0693 -0.9606 -0.6743
  162SOL     OW  621   0.558   3.563   2.150 -0.0745 -0.3568 -0.0590
  162SOL    HW1  622   0.551   3.626   2.223 -0.1212 -1.3541  0.8189
  162SOL    HW2  623   0.571   3.618   2.073 -3.5398  0.9548  0.1425
  163SOL     OW  624   1.602   1.132   1.399  0.3332  0.3969 -0.1860
  163SOL    HW1  625   1.682   1.086   1.372  3.1245  2.9424  2.8478
  163SOL    HW2  626   1.634   1.212   1.441 -3.8873  1.5586  1.2355
  164SOL     OW  627   2.043   2.007   1.099 -0.3838  0.2236 -0.3217
  164SOL    HW1  628   2.074   2.053   1.176 -0.8875  0.4514 -0.2497
  164SOL    HW2  629   2.083   2.052   1.025  1.6186 -1.1458 -0.1494
  165SOL     OW  630   2.685   0.709   1.462  0.3411  0.3860 -0.9239
  165SOL    HW1  631   2.668   0.773   1.393 -1.3270  0.4803 -0.4651
  165SOL    HW2  632   2.711   0.630   1.415  3.0117  1.5100 -1.4746
  166SOL     OW  633   3.098   0.810   2.855  0.4658 -0.3362 -0.1139
  166SOL    HW1  634   3.113   0.724   2.817 -0.4773 -0.8336  0.5975
  166SOL    HW2  635   3.032   0.795   2.923 -0.7010  1.1550 -0.8565
  167SOL     OW  636   1.930   0.596   1.601 -0.3025 -0.4245  0.2351
  167SOL    HW1  637   2.020   0.615   1.629  0.0598 -0.8631 -0.5973
  167SOL    HW2  638   1.898   0.532   1.665 -0.4220  0.5345  1.1736
  168SOL     OW  639   1.805   1.713   2.042 -0.5211 -0.5454 -0.0893
  168SOL    HW1  640   1.870   1.734   2.109 -0.4288 -1.3320  0.0816
  168SOL    HW2  641   1.782   1.621   2.059 -2.0638 -0.1354  0.1713
  169SOL     OW  642   2.815   0.216   2.526 -0.5268  0.2486  0.1896
  169SOL    HW1  643   2.877   0.267   2.474 -0.1996  0.3279  0.6530
  169SOL    HW2  644   2.830   0.244   2.616 -0.6434 -0.3534  0.4039
  170SOL     OW  645   2.305   0.419   2.488  0.2485  0.0024 -0.2955
  170SOL    HW1  646   2.220   0.443   2.452  0.7835 -0.2471 -1.8345
  170SOL    HW2  647   2.329   0.339   2.441  2.2654  1.2320 -1.5406
  171SOL     OW  648   0.327   3.074   0.045 -0.3013 -0.5059  0.6465
  171SOL    HW1  649   0.311   3.035  -0.041 -1.6800 -0.1029  0.6897
  171SOL    HW2  650   0.330   3.000   0.105  1.0808 -0.8256  0.2251
  172SOL     OW  651   1.831   3.028   0.348 -0.4609  0.1357  0.1635
  172SOL    HW1  652   1.796   3.067   0.268 -1.6599 -1.3217 -0.0690
  172SOL    HW2  653   1.828   2.934   0.332  3.1291 -0.1368  0.3766
  173SOL     OW  654   2.197   2.346   2.048 -0.5904  0.2140  0.2295
  173SOL    HW1  655   2.229   2.327   2.137  0.0544  2.4759  0.5578
  173SOL    HW2  656   2.275   2.345   1.994 -0.3882  2.3721  0.3984
  174SOL     OW  657   3.175   0.654   2.395 -0.0875 -0.4354  0.0752
  174SOL    HW1  658   3.231   0.722   2.357 -0.0366 -0.7395 -0.4077
  174SOL    HW2  659   3.128   0.618   2.320 -2.1502  0.8983  0.6390
  175SOL     OW  660   1.606   2.413   2.992 -0.2374  0.2671 -0.3875
  175SOL    HW1  661   1.687   2.369   3.017  0.1118  1.5476  0.8542
  175SOL    HW2  662   1.549   2.343   2.962  0.8456 -0.8309  0.0451
  176SOL     OW  663   3.294   3.066   3.277 -0.1624  0.4867 -0.7815
  176SOL    HW1  664   3.282   2.980   3.317  1.1215  1.4878  2.0298
  176SOL    HW2  665   3.313   3.048   3.185 -1.1159 -2.1206 -0.5441
  177SOL     OW  666   2.608   3.451   2.535  0.5087 -0.2449 -0.3083
  177SOL    HW1  667   2.528   3.487   2.497  1.2549 -1.2559 -3.0273
  177SOL    HW2  668   2.677   3.509   2.505  1.0002 -0.2166  0.8205
  178SOL     OW  669   2.343   0.138   3.735  0.1566 -0.3241 -0.3657
  178SOL    HW1  670   2.323   0.105   3.648  1.2548  1.3751 -1.3264
  178SOL    HW2  671   2.348   0.060   3.790 -0.5145 -1.4353 -1.8266
  179SOL     OW  672   2.961   0.755   0.743  0.3938 -0.4433 -0.7771
  179SOL    HW1  673   3.041   0.704   0.733  2.0738  2.0860 -1.4203
  179SOL    HW2  674   2.946   0.795   0.657  0.3853  1.6715  0.1269
  180SOL     OW  675   1.864   3.123   1.603  0.2044 -0.3020 -0.6052
  180SOL    HW1  676   1.870   3.067   1.526  0.5030  0.8290 -1.4375
  180SOL    HW2  677   1.832   3.207   1.569 -1.7190 -0.3918  0.8390
  181SOL     OW  678   2.060   1.444   2.320 -0.5353  0.3347 -0.1084
  181SOL    HW1  679   2.150   1.441   2.354 -1.0724 -0.0806  1.3017
  181SOL    HW2  680   2.022   1.523   2.358 -1.1630 -0.1615  0.2982
  182SOL     OW  681   3.097   1.346   2.734 -0.3105 -0.4231  0.2413
  182SOL    HW1  682   3.077   1.335   2.641 -0.9117 -1.6738  0.5030
  182SOL    HW2  683   3.074   1.262   2.774 -0.0414  0.0882  1.5202
  183SOL     OW  684   0.044   0.908   3.000  0.0281 -0.2895 -0.0575
  183SOL    HW1  685   0.019   0.962   3.074 -2.2718 -1.4335  0.0638
  183SOL    HW2  686   0.122   0.952   2.964  0.0447  1.3537  1.8285
  184SOL     OW  687   0.101   0.711   1.714  0.5218 -0.4110 -0.4602
  184SOL    HW1  688   0.012   0.711   1.750  0.0637 -1.5890 -1.5195
  184SOL    HW2  689   0.135   0.798   1.734 -1.3061  0.4982 -1.0727
  185SOL     OW  690   3.061   3.443   1.252 -0.2274  0.3843  0.5625
  185SOL    HW1  691   3.013   3.403   1.325  0.3551 -0.9321  0.2599
  185SOL    HW2  692   3.152   3.441   1.279  0.0458 -0.5149 -0.3402
  186SOL     OW  693   0.550   2.225   2.212 -0.2981 -0.2663 -0.1195
  186SOL    HW1  694   0.629   2.274   2.188 -0.4009 -0.0448 -0.0088
  186SOL    HW2  695   0.509   2.278   2.280 -1.4903  0.5588 -1.4199
  187SOL     OW  696   3.484   3.293   3.168 -0.1192 -0.1720 -0.0371
  187SOL    HW1  697   3.533   3.285   3.250  0.9586 -3.3214 -0.8490
  187SOL    HW2  698   3.394   3.269   3.192  0.2588 -1.4073  0.1797
  188SOL     OW  699   2.459   3.370   0.450  0.0198  0.6409 -0.5465
  188SOL    HW1  700   2.411   3.317   0.513  0.5219  0.4182 -0.3396
  188SOL    HW2  701   2.543   3.386   0.492  0.6387 -0.1029 -1.4356
  189SOL     OW  702   2.005   3.266   2.467  0.2892 -0.0071  0.0218
  189SOL    HW1  703   1.979   3.250   2.558 -0.0758 -1.6027 -0.3465
  189SOL    HW2  704   1.987   3.184   2.422  0.1244  0.8796 -1.5867
  190SOL     OW  705   0.994   1.680   2.744  0.2969  0.4249 -0.1901
  190SOL    HW1  706   1.028   1.652   2.828 -2.6499  2.1860  1.7754
  190SOL    HW2  707   1.016   1.773   2.738 -2.6868  1.2826  0.5348
  191SOL     OW  708   1.826   1.688   0.699  0.4612 -0.0105  0.6590
  191SOL    HW1  709   1.876   1.768   0.717 -1.2457  1.2145  0.2163
  191SOL    HW2  710   1.739   1.720   0.673  0.2172 -1.9664 -1.1622
  192SOL     OW  711   3.254   3.639   0.353 -0.0843  0.1844  0.5032
  192SOL    HW1  712   3.315   3.659   0.282 -0.7002  2.8672  0.6248
  192SOL    HW2  713   3.211   3.558   0.325  1.8630 -0.5193 -0.6605
  193SOL     OW  714   0.439   1.028   2.990  0.1001 -0.0854 -0.1597
  193SOL    HW1  715   0.439   1.122   3.007 -0.8098  0.1971 -1.5750
  193SOL    HW2  716   0.404   0.989   3.070  1.8952  0.6134  1.0339
  194SOL     OW  717   2.241   0.472   1.168  0.8839 -0.5528  0.0645
  194SOL    HW1  718   2.332   0.484   1.142  0.7944 -1.3183 -0.6215
  194SOL    HW2  719   2.241   0.389   1.215  0.4213 -0.8531 -0.4753
  195SOL     OW  720   1.899   0.015   0.462  0.4213  0.4887  0.1588
  195SOL    HW1  721   1.970  -0.022   0.515  1.4538  0.4447 -1.1733
  195SOL    HW2  722   1.838   0.052   0.525  1.2379 -0.1869  1.3865
  196SOL     OW  723   0.356   1.684   3.045 -0.5457  0.1090 -0.1490
  196SOL    HW1  724   0.331   1.613   2.985  2.0137  0.1889 -1.4531
  196SOL    HW2  725   0.321   1.763   3.005  0.0828  0.0193 -0.8930
  197SOL     OW  726   0.622   0.675   2.223 -0.2538 -0.4297  0.0011
  197SOL    HW1  727   0.630   0.605   2.157  0.7355  0.9826 -1.4552
  197SOL    HW2  728   0.533   0.707   2.212 -0.2761 -0.5751 -0.2737
  198SOL     OW  729   3.328   0.208   1.924 -1.1149 -0.3918  0.3248
  198SOL    HW1  730   3.274   0.228   1.848 -3.0912 -1.2725  1.4228
  198SOL    HW2  731   3.301   0.272   1.991  0.3836  0.1884  0.4284
  199SOL     OW  732   3.254   3.061   3.015 -0.2429  0.7115 -0.1865
  199SOL    HW1  733   3.325   3.094   2.960  0.2799  1.4153  0.8876
  199SOL    HW2  734   3.174   3.085   2.967  0.1578  2.6100  0.0142
  200SOL     OW  735   1.770   2.713   1.391 -0.5365 -0.3895  0.2227
  200SOL    HW1  736   1.710   2.742   1.322  1.0479  1.1475 -0.5806
  200SOL    HW2  737   1.721   2.726   1.473 -0.9758  1.7904 -0.3307
  201SOL     OW  738   2.270   0.377   2.850  0.1361 -0.0539 -0.1705
  201SOL    HW1  739   2.347   0.331   2.817  1.2212 -0.0758  2.1794
  201SOL    HW2  740   2.197   0.339   2.802  1.5638  0.2114 -2.7525
  202SOL     OW  741   2.889   0.814   0.483  0.6623  0.4090 -0.0581
  202SOL    HW1  742   2.970   0.788   0.438  1.6517 -1.7607  2.6495
  202SOL    HW2  743   2.845   0.731   0.502 -1.5765  1.4841 -0.3003
  203SOL     OW  744   3.574   0.667   1.789  0.5258  0.3267  0.5582
  203SOL    HW1  745   3.568   0.579   1.752 -2.5908  0.9619 -0.7247
  203SOL    HW2  746   3.493   0.677   1.840  1.3291  2.0950  1.5680
  204SOL     OW  747   0.638   2.571   1.213 -0.7353 -0.3828 -0.1543
  204SOL    HW1  748   0.567   2.631   1.236 -0.9271  0.9161 -3.5239
  204SOL    HW2  749   0.594   2.501   1.163 -0.1645 -2.1031  1.6095
  205SOL     OW  750   1.072   1.127   0.524  0.1757 -0.5148 -0.0218
  205SOL    HW1  751   1.117   1.173   0.453 -1.7050  0.6775 -0.5225
  205SOL    HW2  752   1.113   1.040   0.527  0.2228 -0.6652 -2.6808
  206SOL     OW  753   3.231   2.861   3.447 -0.0796  0.0101 -0.1285
  206SOL    HW1  754   3.175   2.933   3.474 -1.3664 -1.6889  2.0722
  206SOL    HW2  755   3.172   2.796   3.410  0.9981 -0.1770 -1.6514
  207SOL     OW  756   2.793   0.635   2.762 -0.0406 -0.4263 -0.2393
  207SOL    HW1  757   2.712   0.587   2.776 -0.5423  0.3159 -0.5565
  207SOL    HW2  758   2.778   0.721   2.802  0.5778 -0.2706 -0.3266
  208SOL     OW  759   0.042   1.121   2.787  0.1427 -0.2845  0.0332
  208SOL    HW1  760  -0.041   1.151   2.749 -0.6089 -1.7034  0.4650
  208SOL    HW2  761   0.072   1.053   2.727  1.3259  0.6225 -0.4344
  209SOL     OW  762   1.080   0.356   2.785 -0.3136  0.4990  0.7986
  209SOL    HW1  763   1.146   0.424   2.778 -1.3417  1.5727  1.2590
  209SOL    HW2  764   1.015   0.378   2.718 -0.0217 -0.8053  0.0311
  210SOL     OW  765   3.296   2.151   2.410 -0.4334 -0.9676 -0.1060
  210SOL    HW1  766   3.296   2.236   2.454 -1.7898 -0.2725 -1.3432
  210SOL    HW2  767   3.361   2.099   2.458  2.1301  1.4545 -0.6991
  211SOL     OW  768   2.941   2.821   3.574  0.2584  0.2511 -0.0511
  211SOL    HW1  769   2.990   2.897   3.540  1.8763  0.7631  3.0414
  211SOL    HW2  770   2.858   2.858   3.604 -0.6552  0.0063 -2.0991
  212SOL     OW  771   1.105   3.371   2.410  0.0177 -0.2672  0.2327
  212SOL    HW1  772   1.034   3.364   2.475 -2.4540  1.3543 -2.0382
  212SOL    HW2  773   1.075   3.317   2.337 -1.0812  3.4855 -2.4008
  213SOL     OW  774   1.279   2.979   1.793  0.5640  0.0288 -0.2663
  213SOL    HW1  775   1.368   2.970   1.759  0.7487 -3.2804  0.7501
  213SOL    HW2  776   1.231   2.906   1.754 -1.6704  1.5004 -0.4649
  214SOL     OW  777   1.570   3.182   0.581 -0.3243 -0.0290  0.1689
  214SOL    HW1  778   1.638   3.236   0.623 -0.4921  0.9677 -0.7844
  214SOL    HW2  779   1.578   3.203   0.487 -2.8208  1.1792  0.1487
  215SOL     OW  780   2.857   0.143   2.874 -0.3101 -0.6114 -1.1633
  215SOL    HW1  781   2.899   0.157   2.959  1.3196 -1.5302 -1.7701
  215SOL    HW2  782   2.767   0.174   2.886  0.4889  1.4187  0.2227
  216SOL     OW  783   2.266   0.839   3.135 -0.0451 -0.0429 -0.8280
  216SOL    HW1  784   2.314   0.848   3.053  0.5254  0.6634 -0.4273
  216SOL    HW2  785   2.283   0.749   3.164 -0.6768 -0.4734 -1.7313
  217SOL     OW  786   2.009   3.111   0.712 -0.4868  0.0670  0.5090
  217SOL    HW1  787   2.072   3.120   0.783 -1.7636 -0.4141  1.7385
  217SOL    HW2  788   2.059   3.074   0.640  0.8160  0.4892  1.1699
  218SOL     OW  789   1.574   0.574   0.148  0.4982 -0.1120 -0.7675
  218SOL    HW1  790   1.555   0.597   0.239 -2.2983 -1.4821 -0.9255
  218SOL    HW2  791   1.656   0.525   0.152  1.4441  1.4975  0.7226
  219SOL     OW  792   0.423  -0.017   1.174  0.5169  0.2556  0.8009
  219SOL    HW1  793   0.471   0.032   1.108  3.1703 -1.1782  1.5131
  219SOL    HW2  794   0.365   0.047   1.215 -0.6838  1.3519 -2.3167
  220SOL     OW  795   1.004   1.377   2.328  0.0833  0.2080  0.4671
  220SOL    HW1  796   1.081   1.428   2.352  1.2299 -0.7800 -0.9484
  220SOL    HW2  797   0.984   1.403   2.238  1.4313 -2.5758 -0.7556
  221SOL     OW  798   0.396   0.086   0.539  0.0683 -0.0463 -0.1443
  221SOL    HW1  799   0.315   0.035   0.531  0.1558 -0.2970  0.4500
  221SOL    HW2  800   0.392   0.122   0.628  1.7296 -2.0750  0.8274
  222SOL     OW  801   1.011   1.912   3.715  0.1156 -0.0245  0.0896
  222SOL    HW1  802   0.953   1.921   3.639 -3.4186 -0.7115  2.4646
  222SOL    HW2  803   1.073   1.984   3.705 -0.4385  0.1902 -3.1735
  223SOL     OW  804   1.842   3.602   1.699  0.6872 -0.0096  0.2950
  223SOL    HW1  805   1.876   3.568   1.617 -0.0705 -1.8710  0.7048
  223SOL    HW2  806   1.757   3.641   1.677  1.1390  0.8042 -0.0269
  224SOL     OW  807   3.441   3.667   1.388  0.4831 -0.3732  0.4363
  224SOL    HW1  808   3.529   3.663   1.349  0.9752  2.1604  1.0935
  224SOL    HW2  809   3.407   3.752   1.360 -0.9896 -0.4972  1.7422
  225SOL     OW  810   3.560   0.603   3.629 -0.1017 -0.3777  0.2843
  225SOL    HW1  811   3.486   0.611   3.569 -0.9725 -0.7116  1.2593
  225SOL    HW2  812   3.626   0.555   3.580 -1.6528 -2.7042  0.2995
  226SOL     OW  813   2.525   0.346   2.697 -0.2734 -0.2967  0.0291
  226SOL    HW1  814   2.449   0.400   2.677  0.1954  0.5350  0.4438
  226SOL    HW2  815   2.546   0.304   2.613 -1.4554 -0.9151  0.0183
  227SOL     OW  816   2.301   1.149   2.870 -0.0506  0.4099 -0.1115
  227SOL    HW1  817   2.322   1.212   2.939  1.8021  1.0442 -1.1865
  227SOL    HW2  818   2.350   1.071   2.893  0.3120  0.5119 -0.5300
  228SOL     OW  819   3.401   3.684   1.985 -0.0063  0.1413 -0.3316
  228SOL    HW1  820   3.390   3.684   2.080  0.5334  0.9007 -0.2546
  228SOL    HW2  821   3.376   3.772   1.958  0.6716  0.2040 -0.7803
  229SOL     OW  822   2.625   3.061   0.586  0.7391  0.1877  0.4863
  229SOL    HW1  823   2.713   3.052   0.549  0.8229 -0.5262  0.8621
  229SOL    HW2  824   2.595   3.146   0.553  1.6425  0.5298  0.5214
  230SOL     OW  825   3.695   1.504   2.353 -0.7696 -0.6109 -0.2384
  230SOL    HW1  826   3.664   1.549   2.431  2.2866 -0.1271  0.8528
  230SOL    HW2  827   3.787   1.485   2.371  0.3597  0.3034 -4.0558
  231SOL     OW  828   0.375   3.330   3.128 -1.2113  0.3019  0.7531
  231SOL    HW1  829   0.330   3.404   3.087 -0.6210  0.2459 -0.0140
  231SOL    HW2  830   0.446   3.370   3.179  0.1660  0.2077 -1.0037
  232SOL     OW  831   2.589   1.813   0.968  0.4867  0.0692 -0.2021
  232SOL    HW1  832   2.507   1.788   1.011  1.0032  0.2607  0.9473
  232SOL    HW2  833   2.657   1.785   1.029  1.1958  1.8106 -0.1322
  233SOL     OW  834   0.728   0.855   0.738  0.3485  0.3477 -0.5019
  233SOL    HW1  835   0.778   0.777   0.760  1.1962  0.7603 -0.9006
  233SOL    HW2  836   0.755   0.877   0.649 -0.1151  0.9122 -0.5157
  234SOL     OW  837   2.034   1.347   3.085 -0.0534  0.6974  0.2565
  234SOL    HW1  838   2.013   1.287   3.014  0.7230  1.0520 -0.2834
  234SOL    HW2  839   2.083   1.418   3.043  1.7140  0.1831  1.3708
  235SOL     OW  840   1.104   0.160   1.559  0.1790  0.3343  0.2862
  235SOL    HW1  841   1.182   0.149   1.505 -1.4377  0.1909 -2.2079
  235SOL    HW2  842   1.036   0.112   1.512 -2.3137  3.6394  0.1900
  236SOL     OW  843   0.715   1.181   3.681 -0.5564 -0.1783 -0.3439
  236SOL    HW1  844   0.766   1.130   3.618  0.3513  0.9663 -0.5656
  236SOL    HW2  845   0.757   1.164   3.766 -0.8384 -0.5212 -0.2687
  237SOL     OW  846   1.100   3.500   3.257 -0.1197 -0.2160  0.1859
  237SOL    HW1  847   1.008   3.528   3.260  0.0200  0.1504  1.3022
  237SOL    HW2  848   1.150   3.581   3.248  0.1282 -0.3798  0.0603
  238SOL     OW  849   0.481   0.985   0.707  0.7514 -0.7268  1.1842
  238SOL    HW1  850   0.551   0.919   0.709  1.3901 -0.0900  0.7041
  238SOL    HW2  851   0.439   0.978   0.792  0.8444 -1.7115  1.1672
  239SOL     OW  852   1.277   3.010   3.611 -0.2958 -0.1641  0.6045
  239SOL    HW1  853   1.339   2.941   3.634 -0.2202 -0.6493 -0.9509
  239SOL    HW2  854   1.257   2.995   3.518 -1.4483  0.9946  0.6335
  240SOL     OW  855   0.031   3.519   0.311  0.0040  0.9226 -0.0640
  240SOL    HW1  856  -0.059   3.522   0.344  0.4730 -1.7100  1.7188
  240SOL    HW2  857   0.030   3.450   0.245  1.1497 -1.1273  1.8923
  241SOL     OW  858   2.017   1.020   3.329 -0.3437 -0.2338 -0.3664
  241SOL    HW1  859   1.934   0.982   3.359 -0.8088  1.1412  0.1753
  241SOL    HW2  860   2.036   0.974   3.247  0.0302 -2.8118  1.0547
  242SOL     OW  861   0.894   1.858   0.309  0.3813 -0.2706  0.1308
  242SOL    HW1  862   0.798   1.859   0.318  0.4455 -0.8487  1.0197
  242SOL    HW2  863   0.909   1.860   0.215 -0.5243 -0.9078 -0.0441
  243SOL     OW  864   0.599   2.629   0.749 -0.4230 -0.3231 -0.4464
  243SOL    HW1  865   0.580   2.540   0.719  1.5489 -1.2415  0.7724
  243SOL    HW2  866   0.685   2.649   0.712 -0.1147  0.4113  0.6038
  244SOL     OW  867   3.113   2.511   3.584  0.6178  0.0553  0.0654
  244SOL    HW1  868   3.072   2.592   3.555  0.3061 -0.3812 -0.7414
  244SOL    HW2  869   3.161   2.536   3.663  0.2995  0.9620 -0.0120
  245SOL     OW  870   1.465   3.343   1.272 -0.2830 -0.6077 -0.6016
  245SOL    HW1  871   1.411   3.347   1.351 -0.5948 -0.6939 -0.8067
  245SOL    HW2  872   1.527   3.414   1.282  0.0732 -0.9905  0.0044
  246SOL     OW  873   1.750   1.184   0.254  0.0584  1.1481 -0.2112
  246SOL    HW1  874   1.824   1.241   0.276  0.4154  0.7522 -0.3435
  246SOL    HW2  875   1.776   1.098   0.287  0.6477  0.5168 -2.1637
  247SOL     OW  876   0.251   0.968   3.607 -0.1316  0.3067 -0.2339
  247SOL    HW1  877   0.261   0.875   3.627  2.7684  0.3655 -0.8439
  247SOL    HW2  878   0.157   0.984   3.610 -0.7893 -2.7980 -0.8040
  248SOL     OW  879   0.922   3.326   1.294  0.1954 -0.2983 -0.0355
  248SOL    HW1  880   0.964   3.397   1.246  0.0725 -0.2604 -0.0869
  248SOL    HW2  881   0.865   3.370   1.357  2.2666 -0.2680  1.9432
  249SOL     OW  882   2.425   1.310   2.659 -0.4740  0.2835  0.3201
  249SOL    HW1  883   2.516   1.307   2.630 -0.4884 -0.4196  0.3293
  249SOL    HW2  884   2.427   1.275   2.749 -0.6364  1.0505  0.6249
  250SOL     OW  885   1.962   2.818   0.967  0.5870  0.0275  0.2818
  250SOL    HW1  886   2.013   2.816   1.048  2.7689  0.2169 -1.0020
  250SOL    HW2  887   2.025   2.795   0.899 -0.7274  1.6975 -1.5943
  251SOL     OW  888   0.952   0.378   0.624 -0.1810 -0.3869 -0.1808
  251SOL    HW1  889   1.013   0.416   0.561 -1.8628  1.3459 -0.8615
  251SOL    HW2  890   1.006   0.354   0.699  1.1232  3.1368  0.1654
  252SOL     OW  891   2.838   1.784   1.945  0.1124 -0.2869  1.2743
  252SOL    HW1  892   2.913   1.742   1.903  0.2438  0.2563  0.9663
  252SOL    HW2  893   2.869   1.808   2.032  0.8878  1.6090  0.5149
  253SOL     OW  894   1.619   3.036   2.603  0.1079 -0.4551  0.2027
  253SOL    HW1  895   1.608   3.131   2.605 -0.9222 -0.5657  0.1813
  253SOL    HW2  896   1.712   3.024   2.583  0.6695  0.5404  1.9617
  254SOL     OW  897   1.649   0.142   2.563 -0.0507  0.0977  0.1233
  254SOL    HW1  898   1.584   0.196   2.609 -0.0765  0.4883 -0.3718
  254SOL    HW2  899   1.620   0.052   2.580 -3.4743  0.1583 -3.7888
  255SOL     OW  900   2.012   0.047   2.958  0.2282 -0.3078 -0.0127
  255SOL    HW1  901   2.070   0.009   3.023  0.5466 -1.3700 -0.8805
  255SOL    HW2  902   2.034   0.002   2.877 -1.4576 -0.3694 -0.4777
  256SOL     OW  903   0.100   0.765   1.118  0.2611  0.0939  0.1804
  256SOL    HW1  904   0.119   0.711   1.041  2.6867  0.8389  0.1757
  256SOL    HW2  905   0.126   0.711   1.192 -0.2923  0.0893  0.3751
  257SOL     OW  906   1.911   0.605   0.863  0.3048 -0.0081  0.1626
  257SOL    HW1  907   1.992   0.653   0.880  1.3109 -0.7818 -2.0992
  257SOL    HW2  908   1.870   0.653   0.791  0.1149 -1.1609 -0.5076
  258SOL     OW  909   1.011   1.866   1.915 -0.2942 -0.3693  0.7056
  258SOL    HW1  910   0.927   1.821   1.909 -0.6132  0.3286 -0.7451
  258SOL    HW2  911   0.989   1.959   1.905  0.7217 -0.2561 -0.8312
  259SOL     OW  912   3.005   3.055   1.163  0.4351 -0.8211  0.1860
  259SOL    HW1  913   2.917   3.085   1.139 -0.0021 -0.6806  1.8725
  259SOL    HW2  914   2.991   2.967   1.198  0.7357 -0.2527  1.8182
  260SOL     OW  915   1.327   1.965   0.040  0.4860  0.3001 -0.0335
  260SOL    HW1  916   1.315   1.921   0.124 -1.7613  1.1355  0.1621
  260SOL    HW2  917   1.295   1.903  -0.025 -0.4532  0.7135  0.0203
  261SOL     OW  918   0.726   3.001   3.058 -0.3564  0.7254 -0.3584
  261SOL    HW1  919   0.807   3.039   3.026  0.6574 -0.2374  0.9713
  261SOL    HW2  920   0.658   3.041   3.004  1.0189  1.2666 -1.7583
  262SOL     OW  921   0.085   1.290   3.552 -0.1450  0.7871  0.3844
  262SOL    HW1  922   0.012   1.351   3.540  0.0907  0.9128 -0.4072
  262SOL    HW2  923   0.151   1.318   3.489  0.1862  0.0505  0.3956
  263SOL     OW  924   1.829  -0.000   0.747  0.4726 -0.1272  0.9779
  263SOL    HW1  925   1.741   0.028   0.723  1.1238  0.0928 -1.3184
  263SOL    HW2  926   1.855   0.060   0.817 -0.2533  1.4498 -0.0486
  264SOL     OW  927   0.628   0.465   2.067 -0.2333 -0.5755 -0.2195
  264SOL    HW1  928   0.567   0.478   1.994  0.7103  0.7460 -0.8261
  264SOL    HW2  929   0.700   0.415   2.029  1.3640  2.0340 -0.9275
  265SOL     OW  930   1.825   2.278   3.059  0.1820  1.3627  0.0591
  265SOL    HW1  931   1.835   2.210   3.126 -0.2499  0.8944 -0.3452
  265SOL    HW2  932   1.913   2.314   3.048  0.6422  0.1411 -0.4666
  266SOL     OW  933   3.546   2.166   0.564 -0.0647 -0.3983 -0.1951
  266SOL    HW1  934   3.599   2.193   0.489 -0.0464 -1.0983 -0.4446
  266SOL    HW2  935   3.566   2.073   0.576  2.4368  0.3698  2.7421
  267SOL     OW  936   3.336   1.148   2.651 -0.3873 -0.2046  0.8065
  267SOL    HW1  937   3.329   1.209   2.578 -3.2018 -0.4786  0.7308
  267SOL    HW2  938   3.351   1.205   2.727  1.3059  0.1768  0.2240
  268SOL     OW  939   0.904   1.404   1.359  0.1585 -0.5817 -0.6574
  268SOL    HW1  940   0.884   1.313   1.338 -0.3930 -0.6593  0.1801
  268SOL    HW2  941   0.973   1.399   1.425  0.5276 -0.3743 -1.0204
  269SOL     OW  942   1.554   0.899   0.610 -0.4514 -0.1779  0.4813
  269SOL    HW1  943   1.474   0.872   0.656 -0.0664 -2.7300 -0.2258
  269SOL    HW2  944   1.527   0.905   0.518 -0.6824  2.7529  0.6477
  270SOL     OW  945   1.309   3.035   2.235  0.5595 -0.4849 -0.8483
  270SOL    HW1  946   1.291   2.997   2.321 -3.3122 -1.4570 -1.8870
  270SOL    HW2  947   1.397   3.004   2.213  0.9608 -1.6546  1.9936
  271SOL     OW  948   1.365   1.776   0.656  0.9279  0.5750 -0.4599
  271SOL    HW1  949   1.344   1.723   0.732 -0.6509  0.8173 -0.6803
  271SOL    HW2  950   1.283   1.779   0.606  1.4284  1.8964 -1.2519
  272SOL     OW  951   1.837   0.932   1.589  1.0591  0.0143 -0.6851
  272SOL    HW1  952   1.932   0.945   1.591  1.1463 -0.3884 -1.5667
  272SOL    HW2  953   1.821   0.892   1.503  0.2886 -1.4416  0.1043
  273SOL     OW  954   3.217   0.814   1.195  0.0195 -0.1548 -0.9093
  273SOL    HW1  955   3.298   0.849   1.232 -0.8921  1.3510 -0.2753
  273SOL    HW2  956   3.208   0.857   1.110 -0.0492 -0.4247 -1.0407
  274SOL     OW  957   2.936   0.856   3.138 -0.7160 -0.1288  0.0592
  274SOL    HW1  958   3.024   0.894   3.130 -0.6641 -0.3862 -0.6882
  274SOL    HW2  959   2.886   0.923   3.184 -0.9594  1.4589 -2.3305
  275SOL     OW  960   2.845   2.157   2.176  0.1547 -0.1740  0.7671
  275SOL    HW1  961   2.845   2.100   2.253  2.3154 -0.4440  0.6330
  275SOL    HW2  962   2.763   2.138   2.131  0.0080 -1.8443  1.6825
  276SOL     OW  963   3.520   2.432   2.284  0.3700 -0.3330  0.4204
  276SOL    HW1  964   3.558   2.492   2.220 -0.7922 -0.4033 -0.3685
  276SOL    HW2  965   3.487   2.489   2.353  1.8265 -0.2704  1.0935
  277SOL     OW  966   1.612   1.650   2.689 -0.0086 -0.1043 -0.7019
  277SOL    HW1  967   1.693   1.624   2.734  0.1922 -0.5314 -1.2971
  277SOL    HW2  968   1.629   1.740   2.661  0.2702 -0.1949 -0.8340
  278SOL     OW  969   1.802   1.760   0.098  0.2368  0.4340  0.4852
  278SOL    HW1  970   1.851   1.817   0.156 -0.3784  1.0139  0.4493
  278SOL    HW2  971   1.801   1.806   0.014 -0.3513  0.4239  0.4843
  279SOL     OW  972   1.498   2.366   0.535  0.4135  0.3972  0.0023
  279SOL    HW1  973   1.563   2.345   0.468  1.3764 -1.5624  1.4221
  279SOL    HW2  974   1.546   2.419   0.599 -0.6060  2.6141 -0.9567
  280SOL     OW  975   2.898   1.005   2.398  0.6022 -0.2610 -0.1604
  280SOL    HW1  976   2.904   1.006   2.493  1.1359  1.5071 -0.1786
  280SOL    HW2  977   2.806   0.988   2.380  0.2281  0.7573  0.7094
  281SOL     OW  978   1.920   1.524   1.474  0.1552  0.3912  0.0891
  281SOL    HW1  979   1.923   1.432   1.502 -1.4637  0.1492 -0.4178
  281SOL    HW2  980   1.987   1.567   1.527  1.1883 -1.1314  0.0913
  282SOL     OW  981   1.816   1.934   2.760 -0.2868 -0.1583 -1.0882
  282SOL    HW1  982   1.848   1.848   2.733 -0.4603  0.1836 -2.4468
  282SOL    HW2  983   1.871   1.997   2.714  0.0937  0.4795  0.2019
  283SOL     OW  984   1.346   3.606   0.409 -0.3154  0.0342 -0.3613
  283SOL    HW1  985   1.293   3.567   0.340 -0.8820  0.4266 -0.1605
  283SOL    HW2  986   1.285   3.663   0.457  0.3913  0.8633 -0.4160
  284SOL     OW  987   1.833   0.496   2.568 -0.8723  0.2493  0.0648
  284SOL    HW1  988   1.881   0.568   2.528  3.1973 -0.7148  2.5915
  284SOL    HW2  989   1.875   0.417   2.535 -2.1534 -0.7925  0.8090
  285SOL     OW  990   2.094   3.350   1.610  0.2249 -0.6707  0.0354
  285SOL    HW1  991   2.077   3.260   1.637 -1.2915 -0.7482 -1.0666
  285SOL    HW2  992   2.030   3.367   1.541 -1.5974  2.2316  2.1917
  286SOL     OW  993   0.283   1.613   1.602 -0.1281 -0.9080  0.0281
  286SOL    HW1  994   0.261   1.523   1.625 -1.3522 -0.2678  1.5380
  286SOL    HW2  995   0.360   1.634   1.654  0.4984 -1.2353 -0.7446
  287SOL     OW  996   3.452   1.960   2.511 -0.7081 -0.1984  0.2267
  287SOL    HW1  997   3.389   1.891   2.532 -0.1403 -0.1993  2.1439
  287SOL    HW2  998   3.493   1.981   2.595  1.1821  0.4528 -0.7933
  288SOL     OW  999   0.311   1.843   2.367 -0.6515 -0.2306 -0.3092
  288SOL    HW1 1000   0.390   1.799   2.337 -0.5687 -0.5851  0.4074
  288SOL    HW2 1001   0.274   1.883   2.288  0.5060  0.3649 -0.5775
  289SOL     OW 1002   0.884   2.184   0.169  0.1632  0.3963  0.1411
  289SOL    HW1 1003   0.825   2.177   0.245  1.3145  2.4574  1.3170
  289SOL    HW2 1004   0.826   2.179   0.093 -1.4511  1.3993  1.2366
  290SOL     OW 1005   2.836   1.427   0.018  0.0092 -0.3960  0.2590
  290SOL    HW1 1006   2.873   1.433   0.106  0.1199 -0.3350  0.2084
  290SOL    HW2 1007   2.748   1.391   0.031 -0.4303  0.7454  0.4980
  291SOL     OW 1008   1.681   1.639   1.220  0.5250 -0.2605 -0.2339
  291SOL    HW1 1009   1.734   1.667   1.146  2.0231  0.0108  0.8970
  291SOL    HW2 1010   1.682   1.714   1.280  1.6158 -1.3915  1.2438
  292SOL     OW 1011   0.930   0.089   2.006  0.1063 -0.6281  0.3539
  292SOL    HW1 1012   0.900   0.042   2.083  1.5141 -1.2785  0.5232
  292SOL    HW2 1013   0.897   0.038   1.932  1.5070 -1.8446  0.5370
  293SOL     OW 1014   1.749   2.078   1.614 -0.3796 -0.0973 -0.2888
  293SOL    HW1 1015   1.719   2.161   1.652 -1.4156 -1.4943  2.2759
  293SOL    HW2 1016   1.745   2.017   1.688 -0.1141 -2.5336 -2.1931
  294SOL     OW 1017   0.329   3.089   3.025  0.2896 -0.2432  0.5508
  294SOL    HW1 1018   0.357   3.010   3.071 -0.9010 -0.0700  1.6127
  294SOL    HW2 1019   0.321   3.155   3.094  1.0109  0.7536 -0.2849
  295SOL     OW 1020   3.252   3.041   0.653  0.2730 -0.1949  0.0553
  295SOL    HW1 1021   3.225   2.959   0.692  1.1026 -0.0348  0.9944
  295SOL    HW2 1022   3.175   3.098   0.661 -0.5583 -1.0780 -1.2706
  296SOL     OW 1023   0.143   1.003   1.768  0.3391  0.5449 -0.7510
  296SOL    HW1 1024   0.058   1.031   1.800  1.1170  1.3395  0.7253
  296SOL    HW2 1025   0.203   1.072   1.797  1.5223 -0.1240 -1.5390
  297SOL     OW 1026   1.300   1.643   0.887  0.5994 -0.2544 -0.1006
  297SOL    HW1 1027   1.357   1.578   0.928 -0.8135 -0.5854  1.4225
  297SOL    HW2 1028   1.252   1.683   0.960 -0.6437  0.4822 -1.2709
  298SOL     OW 1029   2.950   1.284   1.447  0.4877 -0.4282 -0.5300
  298SOL    HW1 1030   3.022   1.342   1.474  0.2634 -0.5243  0.3210
  298SOL    HW2 1031   2.913   1.325   1.370 -0.1001  0.9425  0.4523
  299SOL     OW 1032   2.065   3.643   0.022 -0.2107  0.4909  0.0692
  299SOL    HW1 1033   2.010   3.640  -0.056 -0.2288  1.5204  0.0298
  299SOL    HW2 1034   2.006   3.622   0.094 -0.4029  0.4671 -0.0942
  300SOL     OW 1035   2.686   3.263   1.655  0.3961  0.4171  0.3861
  300SOL    HW1 1036   2.684   3.358   1.645  2.7586  0.3611 -1.3728
  300SOL    HW2 1037   2.639   3.247   1.737 -0.9958  2.9784  0.1817
  301SOL     OW 1038   3.614   1.210   0.487  0.2142 -0.4150 -1.0667
  301SOL    HW1 1039   3.655   1.263   0.419  0.5450  1.6015  0.6208
  301SOL    HW2 1040   3.562   1.145   0.439 -0.4635  1.6343 -3.2510
  302SOL     OW 1041   0.448   3.681   3.626 -0.9113 -0.3659  0.3160
  302SOL    HW1 1042   0.359   3.714   3.633 -1.2165 -1.1677  0.3746
  302SOL    HW2 1043   0.476   3.666   3.717 -1.1187 -1.1196  0.2659
  303SOL     OW 1044   3.501   0.904   1.052 -0.4675  0.4570  0.0181
  303SOL    HW1 1045   3.586   0.935   1.084  0.2729 -0.0939 -1.3269
  303SOL    HW2 1046   3.441   0.977   1.068  0.2641  0.8799  0.9201
  304SOL     OW 1047   2.245   1.293   1.720  0.1529 -0.0825 -0.3510
  304SOL    HW1 1048   2.266   1.379   1.757  1.8539 -0.7256  0.2583
  304SOL    HW2 1049   2.217   1.241   1.795 -1.6223  0.1024 -0.8261
  305SOL     OW 1050   0.721   0.952   1.333  0.0399 -0.1465 -0.4153
  305SOL    HW1 1051   0.817   0.957   1.328  0.0037  0.3443 -0.6844
  305SOL    HW2 1052   0.692   0.960   1.242 -0.3125  1.2889 -0.2002
  306SOL     OW 1053   1.603   0.502   1.516 -0.8900  0.0012  0.4799
  306SOL    HW1 1054   1.684   0.496   1.567  0.2203 -0.2373 -1.2317
  306SOL    HW2 1055   1.537   0.461   1.571  0.4766 -1.1902  1.2869
  307SOL     OW 1056   2.124   1.549   2.939 -0.2619  0.7988 -0.7030
  307SOL    HW1 1057   2.199   1.608   2.938  0.6408 -0.2730  0.4609
  307SOL    HW2 1058   2.119   1.514   2.850  2.6497 -1.5316 -0.0926
  308SOL     OW 1059   0.321   0.952   1.195 -0.0102  1.0670  0.4827
  308SOL    HW1 1060   0.253   0.893   1.161  1.9177 -1.2270  0.3109
  308SOL    HW2 1061   0.291   0.975   1.283 -1.4885  0.9976  0.0343
  309SOL     OW 1062   1.498   3.184   0.212  0.4200 -0.1781  0.0614
  309SOL    HW1 1063   1.509   3.134   0.131 -0.4425 -1.4417  0.6870
  309SOL    HW2 1064   1.470   3.119   0.276 -2.2125  1.3330  0.5888
  310SOL     OW 1065   2.812   2.847   3.339 -0.1191  0.6051  0.0849
  310SOL    HW1 1066   2.879   2.879   3.278  0.6057 -1.1538 -0.0998
  310SOL    HW2 1067   2.858   2.837   3.422 -0.3144  0.0767  0.1356
  311SOL     OW 1068   2.568   1.737   1.860  0.5615 -0.4912  0.0819
  311SOL    HW1 1069   2.518   1.813   1.830 -0.4226 -0.3528  1.9036
  311SOL    HW2 1070   2.659   1.762   1.846  0.2057  0.3745 -0.8146
  312SOL     OW 1071   2.156   2.754   3.486 -0.7851 -0.0775  0.3725
  312SOL    HW1 1072   2.152   2.662   3.460 -1.4612 -0.0304  0.3050
  312SOL    HW2 1073   2.178   2.801   3.406 -1.1674 -0.1059  0.2515
  313SOL     OW 1074   2.567   2.074   2.984 -0.3915 -0.1341  0.5013
  313SOL    HW1 1075   2.663   2.072   2.985 -0.3914 -2.3154  0.7104
  313SOL    HW2 1076   2.545   2.167   2.978  1.7298  0.4695  1.1666
  314SOL     OW 1077   2.015   1.090   0.136  0.1914  0.2711 -0.0906
  314SOL    HW1 1078   2.051   1.097   0.224 -1.8816  1.1284  0.7728
  314SOL    HW2 1079   1.948   1.022   0.143  0.7810 -0.4550 -1.3135
  315SOL     OW 1080   2.705   1.527   2.040 -0.2418  0.6749  0.1027
  315SOL    HW1 1081   2.798   1.537   2.016 -0.0018  1.3597  1.2617
  315SOL    HW2 1082   2.662   1.600   1.996 -0.4356 -0.2684 -1.3429
  316SOL     OW 1083   2.227   3.237   3.468 -0.2590  0.5998 -0.4387
  316SOL    HW1 1084   2.305   3.203   3.511 -0.6551 -1.8726 -1.5089
  316SOL    HW2 1085   2.190   3.300   3.530 -0.1773 -1.9214  2.3707
  317SOL     OW 1086   0.663   2.388   0.469 -0.3066 -0.4268  0.3644
  317SOL    HW1 1087   0.615   2.344   0.398 -1.6839 -1.4039  1.8339
  317SOL    HW2 1088   0.753   2.356   0.460  0.0235  0.8413 -1.9697
  318SOL     OW 1089   1.806   2.042   2.392 -0.3740  0.1100 -0.1159
  318SOL    HW1 1090   1.788   1.949   2.408  0.6110  0.1113  1.1882
  318SOL    HW2 1091   1.721   2.084   2.396 -0.5803 -0.4102  1.8059
  319SOL     OW 1092   0.146   0.169   1.298 -0.1197  0.1883 -0.3933
  319SOL    HW1 1093   0.210   0.191   1.366 -0.7227 -0.8682  0.5538
  319SOL    HW2 1094   0.097   0.250   1.285 -0.5332  0.2121  1.0502
  320SOL     OW 1095   0.171   1.170   2.427  0.3223 -0.2497 -0.0859
  320SOL    HW1 1096   0.207   1.134   2.508  0.1768 -0.7980 -0.2618
  320SOL    HW2 1097   0.092   1.119   2.411  0.3185 -0.1019 -0.5436
  321SOL     OW 1098   1.213   1.732   2.032 -0.1789  0.6633  0.2612
  321SOL    HW1 1099   1.215   1.763   2.122 -0.4588  0.0526  0.4854
  321SOL    HW2 1100   1.142   1.781   1.991 -0.9505 -0.0185  0.7485
  322SOL     OW 1101   1.924   1.453   0.304 -0.3163  0.3063  0.0576
  322SOL    HW1 1102   1.837   1.488   0.287 -0.2997 -0.3788 -1.6299
  322SOL    HW2 1103   1.977   1.482   0.229  1.0268  1.0125  1.2138
  323SOL     OW 1104   3.538   3.646   2.345 -0.4858  0.3805  0.9621
  323SOL    HW1 1105   3.539   3.739   2.367  2.5551  0.7500 -0.3103
  323SOL    HW2 1106   3.621   3.612   2.378 -1.0281 -1.6497  0.4090
  324SOL     OW 1107   2.495   3.554   3.003 -0.2446 -0.3172  0.5738
  324SOL    HW1 1108   2.542   3.563   2.920 -2.5832 -0.0920 -0.8245
  324SOL    HW2 1109   2.561   3.524   3.065  1.4548 -1.1830 -1.5215
  325SOL     OW 1110   2.001   3.197   1.185  0.1479 -0.0960 -0.8786
  325SOL    HW1 1111   2.022   3.129   1.249  1.2135  1.1578  0.1529
  325SOL    HW2 1112   1.925   3.163   1.138  0.2037 -1.6677  0.1083
  326SOL     OW 1113   0.705   0.182   2.603  0.5422  0.1001  0.0608
  326SOL    HW1 1114   0.748   0.253   2.651  0.5730  0.4601 -0.5009
  326SOL    HW2 1115   0.777   0.133   2.564  0.4937  0.0495  0.0348
  327SOL     OW 1116   1.218   3.534   2.180 -0.2188  0.1501  0.3579
  327SOL    HW1 1117   1.312   3.516   2.183 -0.2629 -0.0110  0.8749
  327SOL    HW2 1118   1.182   3.489   2.257 -1.1053 -1.9967 -1.1897
  328SOL     OW 1119   1.086   0.570   1.257 -0.2537 -0.2017  0.4979
  328SOL    HW1 1120   1.157   0.585   1.320 -1.0976 -0.0682  1.4376
  328SOL    HW2 1121   1.055   0.658   1.236 -0.9538 -0.3069  1.0545
  329SOL     OW 1122   1.152   1.364   1.447 -0.3364  0.0622 -0.1097
  329SOL    HW1 1123   1.186   1.453   1.434 -0.2335 -0.0144 -0.3725
  329SOL    HW2 1124   1.167   1.347   1.540  0.1781  0.1029 -0.1798
  330SOL     OW 1125   1.731   3.291   2.890 -0.1124  0.3716  0.2933
  330SOL    HW1 1126   1.729   3.384   2.864  0.7431  1.0734  2.5151
  330SOL    HW2 1127   1.807   3.255   2.845 -0.1489  0.8885 -0.1892
  331SOL     OW 1128   3.269   0.228   1.583  0.8537 -0.0865  0.2787
  331SOL    HW1 1129   3.319   0.229   1.501 -0.5581 -1.4620 -0.6601
  331SOL    HW2 1130   3.194   0.286   1.566  0.6006 -0.3102  0.6104
  332SOL     OW 1131   3.531   0.316   0.742 -0.5472  0.1075 -0.3956
  332SOL    HW1 1132   3.518   0.221   0.733 -1.4374  0.1379  0.3912
  332SOL    HW2 1133   3.534   0.348   0.652 -0.9476 -0.5830 -0.6668
  333SOL     OW 1134   2.442   1.465   3.326  0.5485  0.0595 -0.6214
  333SOL    HW1 1135   2.495   1.539   3.295 -0.5923  0.4545 -1.7525
  333SOL    HW2 1136   2.394   1.500   3.401  3.7401 -1.0595  2.1916
  334SOL     OW 1137   0.166   1.092   0.597  0.0706 -0.8894 -0.1693
  334SOL    HW1 1138   0.153   1.002   0.568 -1.6843  0.0613 -2.7571
  334SOL    HW2 1139   0.259   1.109   0.582  0.5137 -2.3551  0.7425
  335SOL     OW 1140   2.842   1.079   1.162 -0.1484 -0.1678 -0.0206
  335SOL    HW1 1141   2.770   1.087   1.224 -0.9272 -0.7966 -0.8194
  335SOL    HW2 1142   2.800   1.064   1.077  0.9167 -0.7809 -0.4676
  336SOL     OW 1143   3.314   2.911   2.324  1.2580 -0.0894  0.0693
  336SOL    HW1 1144   3.392   2.965   2.339 -0.5992  3.4646 -1.6716
  336SOL    HW2 1145   3.296   2.921   2.231 -1.1210 -1.0232  0.3545
  337SOL     OW 1146   0.893   1.982   3.466 -0.2346 -0.2448  0.0628
  337SOL    HW1 1147   0.894   2.077   3.450  0.3260 -0.4863 -1.5065
  337SOL    HW2 1148   0.941   1.945   3.392  2.9629 -1.5123  2.5402
  338SOL     OW 1149   0.722   3.094   0.228  0.4454  0.4168  0.4631
  338SOL    HW1 1150   0.702   3.060   0.315  0.1187 -2.1333 -0.5273
  338SOL    HW2 1151   0.644   3.143   0.203 -0.9661 -1.8071  0.2622
  339SOL     OW 1152   0.421   2.231   3.604 -0.1348  0.0807 -0.9918
  339SOL    HW1 1153   0.326   2.224   3.594 -0.5354  0.9191  1.6667
  339SOL    HW2 1154   0.446   2.305   3.548 -1.2838  0.8471 -0.5007
  340SOL     OW 1155   0.903   1.564   0.346 -0.0970 -0.2341 -0.0975
  340SOL    HW1 1156   0.818   1.520   0.346 -0.2386  0.0166  0.8972
  340SOL    HW2 1157   0.881   1.657   0.354  0.2042  0.0453 -2.0006
  341SOL     OW 1158   2.982   0.167   1.382 -0.4943 -0.0542  0.2547
  341SOL    HW1 1159   2.941   0.114   1.313 -0.2936  1.0031 -0.7063
  341SOL    HW2 1160   2.909   0.194   1.438 -0.4900 -2.1647  1.3981
  342SOL     OW 1161   2.085   1.593   0.667 -0.8923  0.4089  0.4988
  342SOL    HW1 1162   1.992   1.616   0.668 -1.2494 -0.9017 -0.3943
  342SOL    HW2 1163   2.087   1.498   0.676  0.3279  0.3274 -0.3116
  343SOL     OW 1164   2.870   0.183   1.764  0.1326  0.3699 -0.6971
  343SOL    HW1 1165   2.946   0.134   1.733  0.5587  0.2657  0.4668
  343SOL    HW2 1166   2.811   0.117   1.800 -0.8312  0.3778 -2.1666
  344SOL     OW 1167   3.223   2.907   0.114  0.3235 -0.1735  0.0436
  344SOL    HW1 1168   3.180   2.987   0.086  0.3469  0.1239  0.8282
  344SOL    HW2 1169   3.155   2.840   0.109 -0.5414  0.4679  2.1696
  345SOL     OW 1170   3.305   2.506   1.080 -0.1415  0.1787 -0.6140
  345SOL    HW1 1171   3.376   2.494   1.144 -1.6621 -1.7847  0.8322
  345SOL    HW2 1172   3.323   2.443   1.011 -0.7003 -0.6526 -0.0124
  346SOL     OW 1173   2.658   2.495   0.171 -0.1342  0.3700 -0.0231
  346SOL    HW1 1174   2.668   2.552   0.247 -2.6568  2.2405 -0.9564
  346SOL    HW2 1175   2.709   2.537   0.102  0.1444  0.0280 -0.0286
  347SOL     OW 1176   0.042   1.911   3.677 -0.0526 -0.4393 -0.3266
  347SOL    HW1 1177  -0.028   1.964   3.638 -0.3689 -0.1537  0.6109
  347SOL    HW2 1178  -0.002   1.833   3.711  0.3225 -1.0175 -1.1401
  348SOL     OW 1179   0.978   3.485   1.610 -0.0352  0.1246  0.1762
  348SOL    HW1 1180   1.053   3.439   1.646  0.6480  1.8995  1.1442
  348SOL    HW2 1181   0.908   3.420   1.610  1.0083 -1.0480  0.9865
  349SOL     OW 1182   2.268   3.557   0.365  0.0330 -0.4025 -0.0293
  349SOL    HW1 1183   2.210   3.596   0.429 -1.6484 -0.4870 -1.4162
  349SOL    HW2 1184   2.311   3.485   0.411  0.4113  0.7803  1.5220
  350SOL     OW 1185   1.083   1.144   0.108 -0.1188  0.2878  0.0713
  350SOL    HW1 1186   1.144   1.134   0.181  0.6465  0.3909 -0.5428
  350SOL    HW2 1187   1.099   1.233   0.076 -1.0795  0.5673  0.3261
  351SOL     OW 1188   3.509   0.446   1.609 -0.3763  0.3248 -0.1601
  351SOL    HW1 1189   3.414   0.448   1.618 -0.2605 -0.5596  2.1771
  351SOL    HW2 1190   3.534   0.358   1.639  1.2168  0.8390  0.1579
  352SOL     OW 1191   2.541   2.821   0.693  0.5465 -0.4721  0.1642
  352SOL    HW1 1192   2.579   2.897   0.649  2.3257 -0.7471  1.1633
  352SOL    HW2 1193   2.456   2.810   0.650 -0.3559  2.7919  0.7970
  353SOL     OW 1194   0.770   0.815   0.195  0.3750 -0.1248 -0.0308
  353SOL    HW1 1195   0.684   0.845   0.164 -0.6054 -1.0060  1.6754
  353SOL    HW2 1196   0.791   0.872   0.269  0.9296 -0.3614 -0.0004
  354SOL     OW 1197   1.529   1.682   3.730  0.2964  0.0763  0.0496
  354SOL    HW1 1198   1.461   1.740   3.695  1.4556  1.0215 -0.7065
  354SOL    HW2 1199   1.604   1.739   3.744  0.7585 -0.8295  1.4810
  355SOL     OW 1200   3.420   2.362   2.978  0.1592  0.2160  0.0149
  355SOL    HW1 1201   3.412   2.306   3.056  2.1971  0.2222  0.2827
  355SOL    HW2 1202   3.409   2.302   2.904  0.1932 -0.1465  0.3017
  356SOL     OW 1203   3.452   1.936   1.446  0.2130  0.2365 -0.7964
  356SOL    HW1 1204   3.459   1.848   1.409 -0.7223 -0.2435  0.0905
  356SOL    HW2 1205   3.399   1.984   1.383  1.3925  0.4066 -1.6730
  357SOL     OW 1206   2.877   2.943   0.890 -0.0337 -0.1819 -0.5857
  357SOL    HW1 1207   2.784   2.960   0.879  0.0069  0.9278  0.5611
  357SOL    HW2 1208   2.881   2.888   0.969  0.2722 -0.4598 -0.7923
  358SOL     OW 1209   0.491   1.677   3.552 -0.0257 -0.0126  0.4444
  358SOL    HW1 1210   0.561   1.727   3.593 -1.1803  1.3893  0.7973
  358SOL    HW2 1211   0.493   1.703   3.460 -1.5293  1.8976  0.8811
  359SOL     OW 1212   0.961   2.308   1.185  0.0357  0.0375  0.0936
  359SOL    HW1 1213   0.879   2.261   1.174 -0.2807  0.0401  1.9620
  359SOL    HW2 1214   0.940   2.376   1.249  0.5739  2.5041 -2.1747
  360SOL     OW 1215   0.076   2.394   2.447 -0.2110 -0.9469 -0.4939
  360SOL    HW1 1216   0.062   2.485   2.473 -0.2322 -0.9250 -0.5805
  360SOL    HW2 1217   0.140   2.400   2.376  2.1154 -1.2016  1.4395
  361SOL     OW 1218   2.530   1.687   1.517  0.4987 -1.0380  0.6247
  361SOL    HW1 1219   2.539   1.771   1.562  1.6520 -0.4461 -0.6106
  361SOL    HW2 1220   2.436   1.676   1.505  0.3336  0.2188  0.6084
  362SOL     OW 1221   0.488   1.505   0.752  0.0413 -0.2524 -0.1556
  362SOL    HW1 1222   0.420   1.561   0.714  0.0233 -0.7346 -0.8529
  362SOL    HW2 1223   0.570   1.552   0.738  0.1709 -0.9071 -1.7991
  363SOL     OW 1224   0.756   1.455   1.938  0.1154 -0.3111 -0.2973
  363SOL    HW1 1225   0.703   1.535   1.941  0.2716 -0.2155 -0.0620
  363SOL    HW2 1226   0.695   1.387   1.909  0.1698  0.0449 -1.3066
  364SOL     OW 1227   2.432   3.039   1.113  0.7131 -0.2603 -0.5402
  364SOL    HW1 1228   2.437   2.973   1.183 -1.3438 -1.1808 -1.1931
  364SOL    HW2 1229   2.424   3.122   1.160  1.9689 -0.5735  0.2972
  365SOL     OW 1230   2.276   1.002   0.306 -0.3011  0.2362 -0.3815
  365SOL    HW1 1231   2.243   1.032   0.391 -1.8241 -2.3518  0.0322
  365SOL    HW2 1232   2.276   1.081   0.252 -1.8353  1.4683  1.2705
  366SOL     OW 1233   1.314   0.254   1.369 -0.4289  0.0854  0.2726
  366SOL    HW1 1234   1.312   0.345   1.399 -1.7885  0.3463 -0.5258
  366SOL    HW2 1235   1.298   0.259   1.275 -0.9852 -1.0046  0.2922
  367SOL     OW 1236   1.322   2.119   1.840  0.5195  0.2714 -0.4022
  367SOL    HW1 1237   1.327   2.209   1.871 -1.5936  1.0108 -1.9480
  367SOL    HW2 1238   1.384   2.071   1.894  2.7098  2.8711 -0.3957
  368SOL     OW 1239   2.312   3.683   1.008 -0.4177 -0.1285  0.4141
  368SOL    HW1 1240   2.358   3.631   0.942  0.0598  1.0400 -0.2189
  368SOL    HW2 1241   2.343   3.772   0.993 -0.3625  0.1839  2.1769
  369SOL     OW 1242   2.919   0.660   3.354 -0.8377 -0.1159  0.3339
  369SOL    HW1 1243   2.932   0.728   3.289  1.2532 -0.0587  0.7283
  369SOL    HW2 1244   2.989   0.596   3.336 -1.6116 -1.2169  1.1093
  370SOL     OW 1245   0.770   1.717   1.227  0.1953 -0.6248 -0.0999
  370SOL    HW1 1246   0.814   1.707   1.143  0.8834 -0.7765  0.2677
  370SOL    HW2 1247   0.836   1.692   1.292  0.1946  0.9860  0.5761
  371SOL     OW 1248   2.890   1.891   1.607 -0.3637  0.2837 -0.7139
  371SOL    HW1 1249   2.859   1.814   1.654  0.3684 -0.7074 -1.7876
  371SOL    HW2 1250   2.839   1.964   1.642  1.7420  0.0799  3.3237
  372SOL     OW 1251   2.346   0.235   0.972 -0.3960 -0.1147  0.4289
  372SOL    HW1 1252   2.302   0.205   0.893  0.9992 -0.7014 -0.1580
  372SOL    HW2 1253   2.422   0.283   0.940 -0.4159  0.6188  1.4171
  373SOL     OW 1254   1.371   0.218   0.593  0.3528 -0.3916  0.9309
  373SOL    HW1 1255   1.306   0.149   0.605 -1.8488  1.4659  0.3048
  373SOL    HW2 1256   1.417   0.193   0.512  0.7310 -1.9284  1.5843
  374SOL     OW 1257   1.018   3.279   3.716 -0.3093  0.1049  0.2213
  374SOL    HW1 1258   0.975   3.362   3.737 -0.2524 -0.0144  0.8341
  374SOL    HW2 1259   1.048   3.290   3.626  1.1595  1.3844  0.8104
  375SOL     OW 1260   2.416   0.848   3.679  0.2321 -0.2079  0.4624
  375SOL    HW1 1261   2.325   0.877   3.685  0.1753 -0.6033  2.1240
  375SOL    HW2 1262   2.462   0.919   3.636 -1.1013 -0.6112 -1.7760
  376SOL     OW 1263   1.448   2.558   1.202  0.6121 -0.1741 -0.7098
  376SOL    HW1 1264   1.478   2.644   1.230 -2.0702  0.2743  1.1648
  376SOL    HW2 1265   1.422   2.570   1.110  0.6774  0.8788 -0.5940
  377SOL     OW 1266   3.219   1.359   1.349  0.2912  0.0994  0.1989
  377SOL    HW1 1267   3.252   1.272   1.370  1.1985  0.5973  0.8688
  377SOL    HW2 1268   3.268   1.418   1.406 -0.6441  1.0083  0.0825
  378SOL     OW 1269   2.661   2.818   1.263 -0.1396  0.6807 -0.1090
  378SOL    HW1 1270   2.712   2.890   1.300  1.8717 -1.6757  2.1192
  378SOL    HW2 1271   2.720   2.776   1.201 -0.3730 -0.4343  0.4025
  379SOL     OW 1272   0.380   0.684   0.668 -0.3489 -0.0744  0.2276
  379SOL    HW1 1273   0.466   0.680   0.627 -0.4639 -2.0750  0.0854
  379SOL    HW2 1274   0.319   0.670   0.596 -0.6256 -1.9283  0.7914
  380SOL     OW 1275   3.475   3.602   3.484  0.0025  0.2932 -0.2397
  380SOL    HW1 1276   3.400   3.631   3.433 -0.0840  0.5841  0.0481
  380SOL    HW2 1277   3.485   3.668   3.553 -0.3862 -0.5062  0.6183
  381SOL     OW 1278   2.792   2.139   3.562 -0.2909  0.1384  0.4554
  381SOL    HW1 1279   2.756   2.227   3.566 -1.4612 -0.1420 -1.9841
  381SOL    HW2 1280   2.723   2.083   3.596  0.9806  0.1780  3.3818
  382SOL     OW 1281   0.503   1.460   1.785 -0.0014 -0.4665 -0.5223
  382SOL    HW1 1282   0.516   1.555   1.774 -1.1930 -0.3880 -1.4477
  382SOL    HW2 1283   0.418   1.452   1.827 -0.9622 -1.1657 -2.4889
  383SOL     OW 1284   1.665   0.112   1.645  0.3954  0.0694  0.1513
  383SOL    HW1 1285   1.596   0.092   1.582  1.3357 -2.1059 -0.2948
  383SOL    HW2 1286   1.619   0.140   1.724 -0.9200  0.1386 -0.6178
  384SOL     OW 1287   3.042   2.718   0.114  0.4088  0.5551 -0.4342
  384SOL    HW1 1288   2.981   2.741   0.185 -2.3108 -0.1199 -2.4002
  384SOL    HW2 1289   3.066   2.627   0.132  0.2857  0.6036  0.0007
  385SOL     OW 1290   3.526   2.614   3.236 -0.0225 -0.0560 -1.0457
  385SOL    HW1 1291   3.595   2.619   3.302 -2.5534 -0.4010  1.8385
  385SOL    HW2 1292   3.495   2.704   3.227 -0.1255 -0.1182 -1.3296
  386SOL     OW 1293   1.729   3.305   3.314  0.0251 -0.2417  0.1004
  386SOL    HW1 1294   1.698   3.388   3.280  1.1894  0.7245  1.2749
  386SOL    HW2 1295   1.812   3.290   3.269  0.1108 -0.4561  0.3239
  387SOL     OW 1296   1.414   1.416   0.987 -0.2102  0.4797 -0.2931
  387SOL    HW1 1297   1.354   1.343   1.004 -0.0064  0.5819  0.9235
  387SOL    HW2 1298   1.463   1.426   1.068  1.1471  0.6976 -1.1107
  388SOL     OW 1299   3.129   3.363   2.917 -0.1785  0.2802  0.2245
  388SOL    HW1 1300   3.222   3.339   2.919 -0.8413 -2.6660  3.2247
  388SOL    HW2 1301   3.115   3.411   2.999 -1.6013 -0.7248  0.5930
  389SOL     OW 1302   2.098   0.983   1.268  0.1478  0.0122 -0.2478
  389SOL    HW1 1303   2.132   1.056   1.320 -2.2976  0.2594  1.1454
  389SOL    HW2 1304   2.122   0.905   1.317  0.4331  0.0426 -0.3352
  390SOL     OW 1305   0.630   0.123   2.347  0.2796  0.5950 -0.2931
  390SOL    HW1 1306   0.567   0.184   2.310 -1.9432 -0.7139  1.1204
  390SOL    HW2 1307   0.681   0.176   2.409 -0.4583  1.3667 -0.3276
  391SOL     OW 1308   0.559   1.344   3.517  0.2610  0.4530 -0.4560
  391SOL    HW1 1309   0.623   1.411   3.540 -0.3353  0.1516  2.3477
  391SOL    HW2 1310   0.590   1.264   3.559 -1.2512 -0.0100 -0.1375
  392SOL     OW 1311   3.671   3.451   3.001  0.2034  0.0871 -0.8165
  392SOL    HW1 1312   3.622   3.399   2.937 -0.1421 -1.8670  0.9199
  392SOL    HW2 1313   3.618   3.449   3.080  2.4503 -1.1066  0.7906
  393SOL     OW 1314   0.054   2.559   3.352  0.1840 -0.5511 -0.0918
  393SOL    HW1 1315   0.133   2.605   3.322  0.3682 -0.5794  0.3396
  393SOL    HW2 1316   0.050   2.481   3.297  1.4648 -1.4754  1.0319
  394SOL     OW 1317   0.641   2.382   1.724  0.5399 -0.1195 -0.3628
  394SOL    HW1 1318   0.641   2.391   1.820 -0.6445 -3.0047  0.0205
  394SOL    HW2 1319   0.731   2.358   1.703  0.4271 -1.2225  0.3043
  395SOL     OW 1320   3.631   1.151   2.183 -0.5649  0.4348  0.0980
  395SOL    HW1 1321   3.719   1.178   2.159 -0.8269  1.4752  0.2712
  395SOL    HW2 1322   3.644   1.085   2.251  0.1046 -0.4202 -0.8308
  396SOL     OW 1323   3.613   1.477   3.445  0.9763  0.2205 -0.2429
  396SOL    HW1 1324   3.682   1.504   3.384 -0.3659  0.1948 -1.8375
  396SOL    HW2 1325   3.531   1.492   3.397 -0.0893 -0.7317  1.1986
  397SOL     OW 1326   2.187   1.332   0.591 -0.9380  0.7461 -0.6768
  397SOL    HW1 1327   2.223   1.382   0.518 -0.2152  0.4862 -0.5056
  397SOL    HW2 1328   2.220   1.243   0.578 -1.8506  0.4002 -0.7372
  398SOL     OW 1329   1.355   3.289   3.623  0.0470 -0.1160 -0.1294
  398SOL    HW1 1330   1.297   3.313   3.550 -0.6999 -0.2629  0.4076
  398SOL    HW2 1331   1.333   3.198   3.642  1.8327 -0.8125 -1.1882
  399SOL     OW 1332   3.432   0.626   0.317  0.1410  0.0993 -0.3753
  399SOL    HW1 1333   3.401   0.578   0.240  0.2512  3.3229 -2.6087
  399SOL    HW2 1334   3.503   0.682   0.285  0.1364  1.6847  2.0472
  400SOL     OW 1335   2.493   1.246   2.298 -0.3686 -0.5667 -0.3139
  400SOL    HW1 1336   2.576   1.287   2.324 -0.6082 -0.2783  0.0161
  400SOL    HW2 1337   2.453   1.309   2.239 -1.2192  0.1740  1.0108
  401SOL     OW 1338   1.236   2.680   3.037 -0.2640  0.4601 -0.1957
  401SOL    HW1 1339   1.244   2.704   2.944  1.6692 -0.6420 -0.3536
  401SOL    HW2 1340   1.298   2.737   3.082 -1.6582  1.4406  0.5543
  402SOL     OW 1341   1.781   2.488   1.151  0.0135 -0.0003  0.2389
  402SOL    HW1 1342   1.775   2.489   1.247  1.3887  0.2355  0.3428
  402SOL    HW2 1343   1.873   2.506   1.133 -0.1403 -0.5102 -1.1296
  403SOL     OW 1344   3.243   2.477   2.049  0.5291  0.0795 -0.9133
  403SOL    HW1 1345   3.156   2.442   2.067  0.7508 -0.3688 -0.7009
  403SOL    HW2 1346   3.301   2.428   2.107  1.1367 -0.7173 -2.1617
  404SOL     OW 1347   1.877   0.531   1.878 -0.0363  0.1108  0.2881
  404SOL    HW1 1348   1.893   0.624   1.893 -0.0146  0.3638 -1.0984
  404SOL    HW2 1349   1.789   0.515   1.912 -0.6277  1.0023 -0.7491
  405SOL     OW 1350   1.171   3.036   2.637 -0.1369 -0.6393  0.1131
  405SOL    HW1 1351   1.131   3.123   2.633  2.0952  0.4249 -1.5771
  405SOL    HW2 1352   1.106   2.977   2.599 -1.9825  0.0851  1.9264
  406SOL     OW 1353   0.380   2.018   0.899  1.3154  0.3407 -1.0520
  406SOL    HW1 1354   0.288   1.993   0.897  1.1876  0.5037  0.8349
  406SOL    HW2 1355   0.421   1.951   0.954  1.7088  1.9484  0.7262
  407SOL     OW 1356   0.002   3.757   0.167 -0.4808 -0.6489 -0.5130
  407SOL    HW1 1357   0.022   3.684   0.226  1.8861 -0.4544 -0.9869
  407SOL    HW2 1358   0.038   3.731   0.082 -2.4656 -0.2603 -1.5488
  408SOL     OW 1359   0.422   3.171   2.306 -0.1305 -0.3441 -0.0284
  408SOL    HW1 1360   0.418   3.234   2.235 -3.4040 -0.5713 -0.1657
  408SOL    HW2 1361   0.373   3.211   2.378 -1.8854 -2.4199  0.0506
  409SOL     OW 1362   0.727   1.527   3.123 -0.2781 -0.4093  0.2691
  409SOL    HW1 1363   0.799   1.544   3.184 -0.0326  1.3587 -0.4535
  409SOL    HW2 1364   0.663   1.594   3.144 -0.7355 -0.5710 -0.5970
  410SOL     OW 1365   1.536   3.624   0.982 -0.1478  0.4557  0.1595
  410SOL    HW1 1366   1.578   3.705   1.012  0.0670 -0.5376  2.8575
  410SOL    HW2 1367   1.597   3.555   1.007  1.5483 -0.5728 -5.4418
  411SOL     OW 1368   1.575   2.849   2.817 -0.5426  0.3024  0.2437
  411SOL    HW1 1369   1.597   2.884   2.730  2.0904  2.2349  1.5534
  411SOL    HW2 1370   1.527   2.921   2.859  0.2110  0.2875  1.1465
  412SOL     OW 1371   0.335   2.385   1.505  0.3219 -0.3932  0.3380
  412SOL    HW1 1372   0.400   2.358   1.440 -0.4275 -1.9698  0.1988
  412SOL    HW2 1373   0.371   2.354   1.589 -0.7755 -2.3920  0.1207
  413SOL     OW 1374   3.445   2.903   0.438  0.1329  0.3908  0.4650
  413SOL    HW1 1375   3.419   2.940   0.522  1.1663  1.9727  0.1391
  413SOL    HW2 1376   3.539   2.922   0.431 -0.0827  0.9763 -1.3710
  414SOL     OW 1377   1.282   2.146   2.284 -0.5042  0.0040  0.0980
  414SOL    HW1 1378   1.355   2.088   2.264  0.7566  1.2076  1.0008
  414SOL    HW2 1379   1.323   2.231   2.302 -2.2782  1.2108 -1.2017
  415SOL     OW 1380   2.824   1.655   0.485 -0.3410 -0.2096 -0.5624
  415SOL    HW1 1381   2.813   1.697   0.570  0.1139  0.4463 -0.8194
  415SOL    HW2 1382   2.903   1.694   0.449 -0.3642 -0.6983 -1.1625
  416SOL     OW 1383   1.954   3.487   2.755  0.1351  0.5378  0.0613
  416SOL    HW1 1384   1.972   3.483   2.849  1.7944  1.5493 -0.1669
  416SOL    HW2 1385   1.961   3.396   2.726  3.9031  0.5762  0.2877
  417SOL     OW 1386   2.159   0.339   0.003 -0.0901 -1.0873 -0.1752
  417SOL    HW1 1387   2.205   0.410   0.047 -1.9769 -1.0636  1.9286
  417SOL    HW2 1388   2.203   0.259   0.034 -0.6198 -1.0048  0.8247
  418SOL     OW 1389   3.631   1.674   2.151 -0.0020 -0.6226  0.6760
  418SOL    HW1 1390   3.642   1.626   2.233  1.0566 -2.0389 -0.2353
  418SOL    HW2 1391   3.580   1.752   2.175  2.4893  0.4017  3.1636
  419SOL     OW 1392   1.675   3.371   1.784 -0.1503 -0.6217 -0.0624
  419SOL    HW1 1393   1.658   3.458   1.820 -1.7219 -0.9172 -0.0482
  419SOL    HW2 1394   1.770   3.369   1.772 -0.1798  1.4774 -1.0482
  420SOL     OW 1395   1.145   2.472   3.489  0.4754 -0.8008  0.0331
  420SOL    HW1 1396   1.176   2.427   3.568  0.3362  1.0624  1.1958
  420SOL    HW2 1397   1.058   2.505   3.512  0.6502  0.2285 -0.7009
  421SOL     OW 1398   0.983   1.776   1.004 -0.2855  0.1411 -0.8388
  421SOL    HW1 1399   0.986   1.804   0.913  1.2117 -0.7385 -1.0965
  421SOL    HW2 1400   1.005   1.682   1.001 -0.3845  0.0582  0.4112
  422SOL     OW 1401   3.043   3.125   3.746 -0.1564 -0.7354  0.5921
  422SOL    HW1 1402   3.052   3.103   3.653 -1.1610  0.2487  0.2380
  422SOL    HW2 1403   2.955   3.094   3.769 -0.9258  1.2760  0.5223
  423SOL     OW 1404   3.637   2.422   0.768  0.2284 -0.1638 -0.8912
  423SOL    HW1 1405   3.615   2.339   0.810 -0.3460  0.3373 -0.1702
  423SOL    HW2 1406   3.623   2.488   0.836  3.1220  0.3316 -0.6361
  424SOL     OW 1407   0.690   3.736   3.094  0.3284  0.0499 -1.0717
  424SOL    HW1 1408   0.659   3.767   3.179 -2.0657  0.7111 -2.1082
  424SOL    HW2 1409   0.709   3.643   3.108  1.9594  0.5815  0.6374
  425SOL     OW 1410   0.211   0.995   1.423  0.3843  0.6433  0.1969
  425SOL    HW1 1411   0.206   1.090   1.420 -1.9763  0.5581  0.0819
  425SOL    HW2 1412   0.127   0.967   1.458  0.4219 -1.4639 -1.2141
  426SOL     OW 1413   0.520   2.182   3.256  0.6607  0.0359 -0.7344
  426SOL    HW1 1414   0.554   2.096   3.231 -0.7395 -0.9259  0.5343
  426SOL    HW2 1415   0.429   2.182   3.226 -0.0092  0.1955  1.1863
  427SOL     OW 1416   0.139   3.027   2.458  0.8823 -0.1570  0.7450
  427SOL    HW1 1417   0.087   2.955   2.421  1.0419  0.0289  0.1410
  427SOL    HW2 1418   0.176   2.990   2.538  1.2635 -0.8779  0.2531
  428SOL     OW 1419   2.008   1.977   0.249 -0.0832  0.2539 -0.3462
  428SOL    HW1 1420   2.022   1.929   0.330  2.6453  1.2868 -0.0909
  428SOL    HW2 1421   2.096   1.996   0.217 -0.9398  4.2817 -0.8906
  429SOL     OW 1422   3.604   0.950   1.910 -0.1268 -0.0728 -0.1444
  429SOL    HW1 1423   3.615   1.015   1.979 -1.4027  0.4374 -0.3878
  429SOL    HW2 1424   3.520   0.973   1.869  0.5763 -0.3952 -1.8268
  430SOL     OW 1425   0.785   2.966   3.311 -0.4021 -0.1056 -0.2218
  430SOL    HW1 1426   0.876   2.938   3.322 -0.1431 -0.1759 -2.1584
  430SOL    HW2 1427   0.773   2.970   3.216 -2.2984  0.3291  0.0024
  431SOL     OW 1428   3.548   0.200   1.749 -0.6920  0.7239  0.4475
  431SOL    HW1 1429   3.579   0.120   1.707 -0.7621  0.8578  0.1351
  431SOL    HW2 1430   3.477   0.172   1.806 -1.4173  0.6925 -0.4505
  432SOL     OW 1431   0.577   2.241   1.309 -0.4443 -0.1852  0.1009
  432SOL    HW1 1432   0.646   2.196   1.358  0.2477  1.2146  0.4498
  432SOL    HW2 1433   0.597   2.223   1.217 -1.5312 -2.5062  0.2442
  433SOL     OW 1434   2.076   1.646   0.988  0.5268  0.0962  0.1641
  433SOL    HW1 1435   2.098   1.557   0.961  1.4418 -0.2873  2.0504
  433SOL    HW2 1436   2.138   1.702   0.941 -1.0224 -0.0280 -2.2436
  434SOL     OW 1437   1.698   3.345   2.215 -0.2214 -0.2882 -0.1240
  434SOL    HW1 1438   1.736   3.398   2.145 -0.1849 -0.1436  0.0059
  434SOL    HW2 1439   1.741   3.376   2.295 -1.3662  0.5991  0.1737
  435SOL     OW 1440   1.621   2.672   3.104  0.9304 -0.4375  0.1196
  435SOL    HW1 1441   1.592   2.590   3.064  0.6567 -0.6290  0.7059
  435SOL    HW2 1442   1.675   2.714   3.036  0.6852 -0.8769 -0.3525
  436SOL     OW 1443   0.673   2.120   2.486 -0.4462 -0.4910 -0.0069
  436SOL    HW1 1444   0.707   2.183   2.423 -0.8708 -1.9517 -1.7969
  436SOL    HW2 1445   0.579   2.134   2.486 -0.2871  0.8518  1.8947
  437SOL     OW 1446   0.990   2.394   2.625  0.1422 -0.6040 -0.2595
  437SOL    HW1 1447   0.964   2.391   2.533  0.8409  1.1824 -0.5655
  437SOL    HW2 1448   1.054   2.323   2.634 -2.3013 -2.9680 -0.2625
  438SOL     OW 1449   3.645   3.320   1.433  0.5050  0.3340  0.1400
  438SOL    HW1 1450   3.691   3.364   1.362  2.1526 -0.0380  0.9243
  438SOL    HW2 1451   3.669   3.370   1.512  1.2722 -1.0854  0.8466
  439SOL     OW 1452   3.030   3.346   0.972 -0.3674 -0.3733 -0.0257
  439SOL    HW1 1453   2.998   3.377   1.057  0.4604 -0.5049  0.3505
  439SOL    HW2 1454   3.124   3.364   0.974 -0.2445 -0.8889 -0.6905
  440SOL     OW 1455   0.411   0.883   2.753 -0.3004 -0.2509 -0.3514
  440SOL    HW1 1456   0.400   0.913   2.844  0.3725 -0.6997 -0.1180
  440SOL    HW2 1457   0.400   0.788   2.758  2.2014 -0.5877 -0.3077
  441SOL     OW 1458   0.497   1.710   2.669 -0.1213 -0.7980  0.0213
  441SOL    HW1 1459   0.559   1.745   2.605 -0.9090  0.2642 -0.1908
  441SOL    HW2 1460   0.546   1.709   2.751  0.4728 -0.8693 -0.3303
  442SOL     OW 1461   2.048   2.071   2.597  0.6572 -0.3374 -0.1931
  442SOL    HW1 1462   2.137   2.099   2.574  1.1793 -1.8613 -0.1890
  442SOL    HW2 1463   1.991   2.126   2.545  1.6272  0.3801 -0.5279
  443SOL     OW 1464   3.138   1.460   3.624  0.2718  0.9081 -0.1469
  443SOL    HW1 1465   3.063   1.447   3.681 -0.3521 -0.0737 -1.1419
  443SOL    HW2 1466   3.213   1.469   3.683 -0.5038  1.0341  0.8348
  444SOL     OW 1467   3.414   3.088   1.842 -0.2991 -0.6346 -0.0842
  444SOL    HW1 1468   3.344   3.148   1.816 -0.3076 -1.9264 -3.5363
  444SOL    HW2 1469   3.493   3.128   1.806  0.6127  0.0117  2.4274
  445SOL     OW 1470   2.702   3.269   0.004 -0.2452 -0.0964  0.4578
  445SOL    HW1 1471   2.616   3.227  -0.006 -0.7218  1.1309 -1.2586
  445SOL    HW2 1472   2.749   3.214   0.066 -1.8722 -1.4559  0.5673
  446SOL     OW 1473   1.289   1.843   3.271  0.5039 -0.2054  0.0331
  446SOL    HW1 1474   1.358   1.886   3.321  2.2368 -0.3726 -2.0558
  446SOL    HW2 1475   1.328   1.759   3.244 -0.2736 -0.0556 -1.6796
  447SOL     OW 1476   0.082   2.218   1.930 -0.6131  0.8264 -0.1327
  447SOL    HW1 1477   0.136   2.277   1.878  0.7620  0.8233  1.2286
  447SOL    HW2 1478   0.032   2.275   1.988  1.3968  0.7204  1.8349
  448SOL     OW 1479   2.333   3.305   1.506 -0.2673  0.1867  0.5025
  448SOL    HW1 1480   2.334   3.225   1.558 -2.4796 -0.6576 -0.5957
  448SOL    HW2 1481   2.248   3.345   1.526 -0.6561  0.4508 -1.4978
  449SOL     OW 1482   1.726   2.324   0.314 -0.7087  0.3658 -0.4644
  449SOL    HW1 1483   1.770   2.301   0.396 -0.6309 -4.0293 -1.5001
  449SOL    HW2 1484   1.797   2.348   0.255 -0.3256 -0.4944 -0.3658
  450SOL     OW 1485   0.771   1.676   2.182  0.0403 -0.1417  0.4254
  450SOL    HW1 1486   0.855   1.631   2.166 -0.4567 -1.5090  1.4626
  450SOL    HW2 1487   0.751   1.658   2.274 -1.8636 -0.6772 -0.0496
  451SOL     OW 1488   2.580   1.195   2.943 -0.3734 -0.0645  0.5500
  451SOL    HW1 1489   2.645   1.196   3.013 -0.7756  0.8170  0.9294
  451SOL    HW2 1490   2.505   1.243   2.979 -0.4807  0.6546 -0.5789
  452SOL     OW 1491   0.338   2.626   0.828 -0.5310 -0.6556 -0.0523
  452SOL    HW1 1492   0.426   2.635   0.792 -0.2809  0.2339  0.7344
  452SOL    HW2 1493   0.347   2.562   0.899 -0.8014 -1.5546 -0.7978
  453SOL     OW 1494   0.793   2.079   1.422  0.3346  0.1634  0.2398
  453SOL    HW1 1495   0.861   2.051   1.361  0.4662  0.9168  0.0305
  453SOL    HW2 1496   0.838   2.087   1.506  0.2856 -0.2917  0.3102
  454SOL     OW 1497   1.087   3.307   3.060 -0.0786  0.8084  0.4412
  454SOL    HW1 1498   1.064   3.386   3.108 -2.4907  0.0979  0.5956
  454SOL    HW2 1499   1.083   3.237   3.126  1.6684  0.4759  0.2334
  455SOL     OW 1500   0.433   0.799   3.147  0.0829  0.4787  0.0303
  455SOL    HW1 1501   0.518   0.757   3.139 -0.2317 -0.0033 -0.9448
  455SOL    HW2 1502   0.419   0.806   3.242  1.2215  0.6257  0.1965
  456SOL     OW 1503   3.234   3.093   1.045  0.0017  0.7598  0.0618
  456SOL    HW1 1504   3.151   3.081   1.091  0.1946 -0.2738  0.1823
  456SOL    HW2 1505   3.226   3.177   1.001 -1.0250  0.7692  0.2514
  457SOL     OW 1506   0.154   0.110   1.026 -0.2401  0.2776 -0.4566
  457SOL    HW1 1507   0.091   0.038   1.024 -1.6293  1.4489 -0.4879
  457SOL    HW2 1508   0.147   0.146   1.114 -1.8196  2.2558 -1.3243
  458SOL     OW 1509   3.699   2.042   3.023 -0.4449  0.5884  0.1037
  458SOL    HW1 1510   3.610   2.029   2.991 -0.8553  0.1749  1.3619
  458SOL    HW2 1511   3.721   2.132   2.997 -1.4185  0.8718  0.2109
  459SOL     OW 1512   0.487   2.973   1.595 -0.6041 -0.0751 -0.2909
  459SOL    HW1 1513   0.551   3.007   1.657  0.7132 -0.9535 -1.1226
  459SOL    HW2 1514   0.513   3.009   1.511 -0.7813 -0.9857 -0.7471
  460SOL     OW 1515   0.593   1.756   1.453 -0.2266 -0.0283 -0.6834
  460SOL    HW1 1516   0.503   1.787   1.441  0.0384  0.1311 -2.6328
  460SOL    HW2 1517   0.634   1.769   1.367  2.3199  2.0399  0.6989
  461SOL     OW 1518   1.294   0.610   0.112 -0.6140  0.4964  0.6152
  461SOL    HW1 1519   1.307   0.635   0.021  0.4984 -1.3284  0.2258
  461SOL    HW2 1520   1.374   0.563   0.136 -2.0406 -1.5515  1.6185
  462SOL     OW 1521   3.036   3.048   3.453  0.0767 -0.3431  0.1358
  462SOL    HW1 1522   2.958   3.103   3.468  0.4045  0.0342  0.4775
  462SOL    HW2 1523   3.043   3.043   3.357 -1.6386 -2.2128  0.0401
  463SOL     OW 1524   3.395   1.808   3.075 -0.5519 -0.1358  0.1699
  463SOL    HW1 1525   3.382   1.860   2.995 -0.6956  0.1397  0.3713
  463SOL    HW2 1526   3.487   1.782   3.072 -0.0009  1.5677  0.9241
  464SOL     OW 1527   0.578   2.936   0.458 -0.1521  0.0713 -0.1128
  464SOL    HW1 1528   0.597   2.989   0.535 -1.0938  0.0504  0.1406
  464SOL    HW2 1529   0.589   2.846   0.488 -0.3260  0.0689 -0.0568
  465SOL     OW 1530   2.571   2.392   1.821  0.8390  0.2568 -0.2199
  465SOL    HW1 1531   2.639   2.343   1.867  0.6754 -1.1437 -1.3712
  465SOL    HW2 1532   2.490   2.345   1.840 -0.0806  2.5313  2.0349
  466SOL     OW 1533   0.799   2.640   2.985  0.1646 -0.1901 -0.2109
  466SOL    HW1 1534   0.705   2.626   2.988  0.0854  0.0197 -1.3920
  466SOL    HW2 1535   0.812   2.703   2.914  1.4286 -2.4785 -2.1684
  467SOL     OW 1536   2.086   2.097   3.446 -0.4455 -0.1723 -0.3761
  467SOL    HW1 1537   2.174   2.072   3.473 -1.5205 -2.0446  1.7659
  467SOL    HW2 1538   2.085   2.084   3.351  1.7758  0.7085 -0.5643
  468SOL     OW 1539   2.696   1.212   1.744  0.5438  0.8490  0.2987
  468SOL    HW1 1540   2.650   1.208   1.828 -1.4290 -0.5394 -0.7604
  468SOL    HW2 1541   2.630   1.244   1.682  2.1549  2.5562 -0.6508
  469SOL     OW 1542   1.827   0.837   3.659 -0.1839  1.0925 -0.1173
  469SOL    HW1 1543   1.898   0.782   3.626  0.3755  1.3241  0.6865
  469SOL    HW2 1544   1.855   0.863   3.747 -1.2079  1.2888  0.1604
  470SOL     OW 1545   1.408   1.922   2.566  0.2286  0.1176 -0.1915
  470SOL    HW1 1546   1.404   1.930   2.661 -0.8605  0.2413 -0.2316
  470SOL    HW2 1547   1.462   1.996   2.538  0.8287 -0.1117  0.3448
  471SOL     OW 1548   1.965   1.262   1.550  0.0875  0.0673 -0.0686
  471SOL    HW1 1549   1.947   1.224   1.464 -0.7890 -0.9167  0.5377
  471SOL    HW2 1550   2.020   1.198   1.594 -2.6406 -1.3141  1.5295
  472SOL     OW 1551   0.878   0.325   0.358 -0.7747  0.0496 -0.1867
  472SOL    HW1 1552   0.882   0.417   0.384 -2.7481  0.1088  0.0477
  472SOL    HW2 1553   0.891   0.277   0.440 -1.2230  0.1457 -0.0583
  473SOL     OW 1554   2.008   1.678   2.422  0.0149 -0.5543 -0.5541
  473SOL    HW1 1555   2.084   1.731   2.396 -0.9814  0.0591 -2.3836
  473SOL    HW2 1556   2.001   1.692   2.516 -0.4439  2.9749 -0.9790
  474SOL     OW 1557   3.168   2.918   1.730  0.0391 -0.0596  0.3514
  474SOL    HW1 1558   3.216   2.979   1.786 -3.2695  1.5956  1.7094
  474SOL    HW2 1559   3.234   2.857   1.698  2.4457 -0.2830  4.9232
  475SOL     OW 1560   0.928   1.176   2.151 -0.2781  0.1397 -0.1413
  475SOL    HW1 1561   0.938   1.220   2.236  0.0831  0.9507 -0.5902
  475SOL    HW2 1562   0.865   1.106   2.167 -1.2038  1.0960  0.4964
  476SOL     OW 1563   1.958   1.190   1.040  0.1154 -0.5212 -0.2925
  476SOL    HW1 1564   2.022   1.259   1.022 -0.4991 -0.1152 -0.9776
  476SOL    HW2 1565   1.938   1.153   0.954 -0.7853 -0.4442 -0.1215
  477SOL     OW 1566   2.717   0.126   3.500 -0.2566 -0.5076 -1.1518
  477SOL    HW1 1567   2.736   0.041   3.538 -2.3571 -0.9570 -0.9579
  477SOL    HW2 1568   2.779   0.186   3.542  0.7550 -1.8106 -0.7447
  478SOL     OW 1569   3.300   2.769   1.064  0.4056  0.2114  0.0628
  478SOL    HW1 1570   3.278   2.678   1.081 -0.9223  0.8166  1.8405
  478SOL    HW2 1571   3.271   2.816   1.142  1.0990  2.1665 -0.7899
  479SOL     OW 1572   1.024   0.859   1.292  0.6052 -0.2364 -0.0037
  479SOL    HW1 1573   1.078   0.935   1.315  0.7089 -0.6427  1.1395
  479SOL    HW2 1574   1.021   0.860   1.196 -0.5642  2.0285  0.0029
  480SOL     OW 1575   1.849   3.350   1.451  0.1756 -0.1915  0.1884
  480SOL    HW1 1576   1.832   3.313   1.364 -0.2539 -1.5917  0.8371
  480SOL    HW2 1577   1.791   3.427   1.456 -0.0153 -0.2680 -0.6447
  481SOL     OW 1578   0.144   1.325   2.192  0.1499 -0.2810  0.3988
  481SOL    HW1 1579   0.230   1.365   2.187 -0.3191  0.7537  0.3161
  481SOL    HW2 1580   0.137   1.293   2.282  0.9455 -1.1523  0.1597
  482SOL     OW 1581   3.572   3.100   2.949  0.0377 -0.0963 -0.4260
  482SOL    HW1 1582   3.553   3.159   3.022  1.3661 -0.0591 -0.0698
  482SOL    HW2 1583   3.565   3.155   2.871 -0.2641  0.1512 -0.2254
  483SOL     OW 1584   3.125   2.232   3.044 -0.0232  0.2161  0.4371
  483SOL    HW1 1585   3.134   2.326   3.036  2.0270  0.1150  1.0048
  483SOL    HW2 1586   3.085   2.204   2.962  1.6091  1.3322 -0.7960
  484SOL     OW 1587   1.091   2.066   1.661 -0.2712  0.5768 -0.0368
  484SOL    HW1 1588   1.116   2.125   1.590  1.9375 -0.3854 -0.1365
  484SOL    HW2 1589   1.150   2.089   1.733 -0.5630 -0.3473  0.5091
  485SOL     OW 1590   0.365   2.641   2.288  0.6285 -0.3920  0.0407
  485SOL    HW1 1591   0.354   2.677   2.200 -0.8994 -0.7155  0.0833
  485SOL    HW2 1592   0.355   2.717   2.346  1.1900 -0.2557 -0.0362
  486SOL     OW 1593   2.031   2.730   2.158  0.3387 -0.4592  0.3435
  486SOL    HW1 1594   1.965   2.796   2.178  1.2809  1.3529 -2.0919
  486SOL    HW2 1595   1.981   2.649   2.145 -0.8395 -0.3373  3.3554
  487SOL     OW 1596   3.356   1.289   2.399  0.1216  0.8509 -0.4105
  487SOL    HW1 1597   3.398   1.230   2.336  0.5178  1.2629 -0.5295
  487SOL    HW2 1598   3.427   1.318   2.457 -0.1962  0.6663  0.0802
  488SOL     OW 1599   0.064   0.796   2.009 -0.1344  0.1115 -0.3275
  488SOL    HW1 1600   0.127   0.867   1.995 -0.5598  0.8685  1.4247
  488SOL    HW2 1601  -0.002   0.810   1.941  0.7643  0.2312 -1.2042
  489SOL     OW 1602   1.602   0.546   1.947 -0.6632  0.1334  0.4105
  489SOL    HW1 1603   1.625   0.596   1.868 -0.6011  0.1776  0.4561
  489SOL    HW2 1604   1.548   0.605   1.998 -0.8930  0.0222  0.2953
  490SOL     OW 1605   2.093   1.773   0.478  0.1010  0.2577  1.0927
  490SOL    HW1 1606   2.092   1.692   0.528 -1.4746 -0.2536  0.2930
  490SOL    HW2 1607   2.102   1.842   0.543  1.1147 -0.5107  1.8060
  491SOL     OW 1608   0.434   3.231   1.119  0.4980 -0.4202  0.4581
  491SOL    HW1 1609   0.357   3.202   1.069 -0.9236  0.8187  1.8427
  491SOL    HW2 1610   0.481   3.288   1.058 -1.5918  1.6617  0.6228
  492SOL     OW 1611   3.272   3.706   2.248  0.1894 -0.2806 -0.0221
  492SOL    HW1 1612   3.231   3.760   2.315 -0.1042 -1.3406  0.6749
  492SOL    HW2 1613   3.362   3.695   2.278 -0.1419 -1.3879  0.6248
  493SOL     OW 1614   3.232   2.675   1.616 -0.6721  0.4695 -0.1019
  493SOL    HW1 1615   3.143   2.654   1.644 -0.3784 -1.2102 -0.3063
  493SOL    HW2 1616   3.267   2.592   1.583  0.6602  1.3021 -0.8848
  494SOL     OW 1617   2.249   2.462   0.249 -0.0147  0.1948 -0.1610
  494SOL    HW1 1618   2.202   2.518   0.186 -2.4306  1.8077  2.7748
  494SOL    HW2 1619   2.180   2.411   0.291  1.1330  0.8050  2.6488
  495SOL     OW 1620   2.223   3.387   0.026  0.6281 -0.2815 -0.1327
  495SOL    HW1 1621   2.206   3.481   0.031  1.4917 -0.1626  0.8999
  495SOL    HW2 1622   2.317   3.378   0.042  0.5703 -1.3172 -0.2697
  496SOL     OW 1623   1.910   1.269   2.218  0.1560 -0.5171  0.1129
  496SOL    HW1 1624   1.966   1.202   2.179  0.8228  0.9768 -1.6800
  496SOL    HW2 1625   1.972   1.329   2.261 -0.1896  0.1651 -0.3176
  497SOL     OW 1626   1.015   0.276   1.225 -0.4451  0.3855  0.7509
  497SOL    HW1 1627   1.036   0.300   1.315  1.4878 -1.8004  0.9615
  497SOL    HW2 1628   1.015   0.359   1.178  0.3091  1.3824  2.4098
  498SOL     OW 1629   2.880   3.008   0.430  0.1029  0.4677  0.1359
  498SOL    HW1 1630   2.871   2.930   0.484  0.7359  0.2318 -0.0977
  498SOL    HW2 1631   2.963   2.997   0.384 -1.9895 -1.1115 -3.7021
  499SOL     OW 1632   1.404   0.652   2.467  0.3520  0.5754 -0.3594
  499SOL    HW1 1633   1.335   0.712   2.495  0.2542  0.6602 -0.7794
  499SOL    HW2 1634   1.451   0.631   2.548 -1.3309 -1.0127  0.2756
  500SOL     OW 1635   2.545   3.485   1.454  0.5576 -0.1844  0.4439
  500SOL    HW1 1636   2.468   3.444   1.493 -0.3266  0.4259 -0.6046
  500SOL    HW2 1637   2.577   3.420   1.390  0.4952 -0.1561  0.3838
  501SOL     OW 1638   2.311   2.934   3.662  0.4901 -0.1628  0.4552
  501SOL    HW1 1639   2.275   2.938   3.751  4.1673 -2.9274  2.3686
  501SOL    HW2 1640   2.266   2.860   3.622  1.0451 -1.0182  1.3353
  502SOL     OW 1641   3.085   1.707   1.842 -0.7930  0.5440 -0.3299
  502SOL    HW1 1642   3.137   1.753   1.907 -0.1485 -0.2135 -0.2881
  502SOL    HW2 1643   3.139   1.708   1.763 -0.1437 -1.2652  0.0357
  503SOL     OW 1644   1.430   1.481   0.305  0.0096  0.0344  0.0489
  503SOL    HW1 1645   1.438   1.522   0.390 -2.0471  1.5557 -0.4168
  503SOL    HW2 1646   1.343   1.507   0.273  0.1403 -1.6230 -1.9109
  504SOL     OW 1647   1.917   0.075   2.595  0.9074  0.0040  0.2377
  504SOL    HW1 1648   1.952   0.091   2.507 -0.6832 -0.6547 -0.5786
  504SOL    HW2 1649   1.825   0.102   2.588  0.2350 -1.8523  1.1043
  505SOL     OW 1650   3.668   2.152   2.618  0.6559  0.0471 -0.1952
  505SOL    HW1 1651   3.750   2.113   2.646  0.3401 -0.9596 -0.6306
  505SOL    HW2 1652   3.691   2.203   2.540  1.2462  1.5865  0.9343
  506SOL     OW 1653   3.479   2.922   0.151  0.7500 -0.3317  0.3379
  506SOL    HW1 1654   3.386   2.912   0.131  0.8672  1.4148 -1.3384
  506SOL    HW2 1655   3.485   2.900   0.244 -1.8457  2.0342  1.2262
  507SOL     OW 1656   0.674   1.369   2.205 -0.3486 -0.6056  0.0672
  507SOL    HW1 1657   0.709   1.385   2.293  1.8854 -2.0364 -0.4894
  507SOL    HW2 1658   0.737   1.410   2.146 -0.2213 -2.1710 -0.9421
  508SOL     OW 1659   3.406   1.610   2.386 -0.0866  0.5170 -0.4320
  508SOL    HW1 1660   3.452   1.547   2.331 -0.3636  0.2293 -0.3443
  508SOL    HW2 1661   3.395   1.565   2.470 -0.3344  0.6602 -0.3845
  509SOL     OW 1662   1.153   2.144   3.576  0.7912 -0.3953 -0.2997
  509SOL    HW1 1663   1.155   2.103   3.489  1.1473 -1.9366  0.3969
  509SOL    HW2 1664   1.245   2.160   3.597  0.6942  0.1305 -0.2720
  510SOL     OW 1665   1.495   3.488   1.992  0.0922  0.3987  0.3698
  510SOL    HW1 1666   1.472   3.395   1.983 -0.1681  0.5693 -0.9723
  510SOL    HW2 1667   1.426   3.535   1.945 -0.0614  1.3266  1.4772
  511SOL     OW 1668   3.392   2.149   3.148  0.2426 -0.4518  0.3244
  511SOL    HW1 1669   3.300   2.137   3.125  0.1334  0.8013  0.0388
  511SOL    HW2 1670   3.440   2.105   3.077 -0.0942 -2.8483  1.4889
  512SOL     OW 1671   0.653   2.157   3.722  1.2940 -0.0695 -0.7684
  512SOL    HW1 1672   0.646   2.062   3.726  1.3051 -0.0393  2.4425
  512SOL    HW2 1673   0.567   2.187   3.692 -0.2938 -1.0257  2.3900
  513SOL     OW 1674   3.641   3.138   0.144 -0.5877 -0.3625 -0.1766
  513SOL    HW1 1675   3.579   3.203   0.177 -1.0168 -1.3375  1.0070
  513SOL    HW2 1676   3.593   3.056   0.146  0.6405 -1.0887  0.5021
  514SOL     OW 1677   0.228   3.367   2.388  0.0520  0.3276  0.6050
  514SOL    HW1 1678   0.212   3.435   2.323 -2.7677  2.5592  3.3118
  514SOL    HW2 1679   0.170   3.295   2.363 -0.7015  0.9911  0.4124
  515SOL     OW 1680   2.238   3.593   2.668  0.4219 -0.2135 -0.2488
  515SOL    HW1 1681   2.148   3.622   2.682  0.5672  0.1988 -0.1341
  515SOL    HW2 1682   2.235   3.540   2.589 -0.0439 -0.7954  0.1508
  516SOL     OW 1683   0.377   2.885   3.529  0.1949 -0.0851  0.0503
  516SOL    HW1 1684   0.425   2.802   3.527 -0.0804 -0.2496  0.1443
  516SOL    HW2 1685   0.417   2.938   3.461  1.6408  0.4185  1.2388
  517SOL     OW 1686   0.902   0.881   2.764  0.2897  0.0475 -0.0424
  517SOL    HW1 1687   0.882   0.848   2.677 -2.2386 -1.1275  0.8974
  517SOL    HW2 1688   0.848   0.829   2.823  3.2789 -0.5332  2.5001
  518SOL     OW 1689   1.284   3.322   2.644  0.6903  0.3365 -0.3678
  518SOL    HW1 1690   1.262   3.333   2.551  0.9733  0.3430 -0.4334
  518SOL    HW2 1691   1.222   3.380   2.689  1.1416  1.0203 -0.6105
  519SOL     OW 1692   2.584   1.830   2.298  0.6549 -0.0544  0.0233
  519SOL    HW1 1693   2.551   1.849   2.210  1.6126  3.2047  0.2513
  519SOL    HW2 1694   2.593   1.916   2.339  1.9123 -1.3712  2.7183
  520SOL     OW 1695   1.514   0.065   3.377 -0.1107  0.1110  0.0109
  520SOL    HW1 1696   1.579   0.113   3.428 -0.8333  1.9146 -0.6762
  520SOL    HW2 1697   1.503   0.117   3.298 -1.5219 -0.7853 -0.4086
  521SOL     OW 1698   1.886   1.127   1.320 -0.6199 -0.0823  0.2724
  521SOL    HW1 1699   1.879   1.156   1.229 -0.5738 -1.2585 -0.1343
  521SOL    HW2 1700   1.970   1.079   1.323 -0.9892 -0.7176  0.7208
  522SOL     OW 1701   3.531   2.656   2.142 -0.9041 -0.1698  0.1936
  522SOL    HW1 1702   3.505   2.656   2.050 -1.5219 -1.8180  0.3286
  522SOL    HW2 1703   3.448   2.652   2.190 -0.5529 -2.7203  0.6991
  523SOL     OW 1704   1.353   3.309   2.943  0.1303 -0.9667 -0.3359
  523SOL    HW1 1705   1.277   3.290   2.998  0.5477 -1.7610 -0.0297
  523SOL    HW2 1706   1.372   3.401   2.959 -1.0569 -0.6268 -0.7743
  524SOL     OW 1707   2.683   1.471   0.728  0.4016  0.3079  0.0939
  524SOL    HW1 1708   2.654   1.550   0.682  2.1636  0.9611  0.0091
  524SOL    HW2 1709   2.645   1.399   0.678 -2.5903  1.0432  1.0909
  525SOL     OW 1710   0.969   0.261   2.424 -0.8844  0.2356  0.6033
  525SOL    HW1 1711   1.047   0.285   2.473  0.6194 -1.6233 -0.7327
  525SOL    HW2 1712   0.987   0.286   2.334 -2.4103  0.9642  0.4635
  526SOL     OW 1713   3.406   1.936   3.736 -0.0326  0.3386  0.1815
  526SOL    HW1 1714   3.443   1.975   3.657 -0.6038 -1.4188 -1.0232
  526SOL    HW2 1715   3.322   1.899   3.708  0.8736 -2.5662  0.8813
  527SOL     OW 1716   3.145   1.337   0.188  0.7867  1.1214 -0.7784
  527SOL    HW1 1717   3.084   1.410   0.182 -0.8523  0.1569  1.9993
  527SOL    HW2 1718   3.222   1.374   0.232  0.0636  1.2912  0.3978
  528SOL     OW 1719   1.418   2.369   2.319  0.0684 -0.0764  0.2987
  528SOL    HW1 1720   1.449   2.449   2.362  1.0443 -0.3283  0.0795
  528SOL    HW2 1721   1.447   2.377   2.228 -1.1170 -0.0076 -0.0979
  529SOL     OW 1722   3.077   0.617   1.770  0.1465  0.1104  0.7185
  529SOL    HW1 1723   2.989   0.653   1.772  0.0782 -0.0379  0.3938
  529SOL    HW2 1724   3.068   0.531   1.728  0.7925  1.1168 -1.6714
  530SOL     OW 1725   1.142   2.342   0.035  0.5438 -0.1317  0.0479
  530SOL    HW1 1726   1.082   2.375   0.103  0.5331  2.1955 -0.9795
  530SOL    HW2 1727   1.085   2.299  -0.028 -0.0060  1.2801 -0.4699
  531SOL     OW 1728   3.648   0.130   2.755  0.3002 -0.5913 -0.0219
  531SOL    HW1 1729   3.709   0.197   2.725 -0.3516  0.6906  1.4159
  531SOL    HW2 1730   3.580   0.127   2.688  0.5172 -0.0807 -0.2672
  532SOL     OW 1731   2.518   2.106   0.021  0.2124 -0.9595  0.3467
  532SOL    HW1 1732   2.511   2.185   0.074  0.7696 -0.3594 -0.4410
  532SOL    HW2 1733   2.427   2.083   0.000  0.0412 -0.5622  0.6352
  533SOL     OW 1734   1.038   1.634   3.651 -0.1900 -0.7407  0.0987
  533SOL    HW1 1735   0.953   1.597   3.675  1.0428 -2.2443  2.6330
  533SOL    HW2 1736   1.044   1.714   3.704 -0.1501 -0.4818 -0.2985
  534SOL     OW 1737   1.328   2.711   1.543  0.0645 -0.2659 -0.0097
  534SOL    HW1 1738   1.361   2.801   1.537  2.1595 -1.0024 -0.2640
  534SOL    HW2 1739   1.337   2.688   1.635  2.3246 -1.1616 -0.4065
  535SOL     OW 1740   2.585   0.900   1.310  0.1539  0.2136  0.4120
  535SOL    HW1 1741   2.622   0.974   1.358 -0.5130  0.7608  0.0864
  535SOL    HW2 1742   2.531   0.940   1.242  2.1777 -0.5028 -1.7338
  536SOL     OW 1743   0.339   2.004   0.036  0.2252 -0.0923 -0.6949
  536SOL    HW1 1744   0.360   2.096   0.019 -2.7047  0.8176  0.0885
  536SOL    HW2 1745   0.244   2.000   0.035  0.2536 -3.1725 -0.7772
  537SOL     OW 1746   2.407   3.556   2.378 -0.2335  0.4644 -0.0792
  537SOL    HW1 1747   2.480   3.610   2.348 -0.3362  0.8740  0.4142
  537SOL    HW2 1748   2.352   3.544   2.299  0.4706 -0.0353 -0.5063
  538SOL     OW 1749   1.907   2.591   3.556  0.0659 -0.1391 -0.3799
  538SOL    HW1 1750   1.846   2.535   3.603  0.2472  0.3304  0.4303
  538SOL    HW2 1751   1.949   2.532   3.493  1.5898 -1.3966  1.6698
  539SOL     OW 1752   1.045   2.260   0.690 -0.3760  0.2165 -0.3959
  539SOL    HW1 1753   1.105   2.188   0.672  0.5609  0.6596  0.8055
  539SOL    HW2 1754   1.099   2.326   0.736 -2.0141  0.0809  1.9202
  540SOL     OW 1755   2.288   3.074   0.662  0.7370 -0.3326 -0.4546
  540SOL    HW1 1756   2.249   3.140   0.605 -1.3515 -0.7766  0.4002
  540SOL    HW2 1757   2.353   3.031   0.606  1.0779  1.3954 -1.4871
  541SOL     OW 1758   1.140   3.706   0.564  0.2965 -0.5676  0.0559
  541SOL    HW1 1759   1.088   3.669   0.493  1.6503 -1.2831 -0.6034
  541SOL    HW2 1760   1.085   3.699   0.641 -1.0444 -0.1546 -0.8359
  542SOL     OW 1761   2.569   0.393   3.423 -0.1083  0.4524 -0.3338
  542SOL    HW1 1762   2.547   0.458   3.490  0.6447 -0.4653  0.8483
  542SOL    HW2 1763   2.586   0.313   3.473  1.5391  0.0112 -1.5269
  543SOL     OW 1764   1.608   1.430   0.769 -0.3380 -0.1004  0.2312
  543SOL    HW1 1765   1.547   1.459   0.837  0.6970  0.1838  1.0715
  543SOL    HW2 1766   1.692   1.422   0.814  0.9696  2.4670 -1.4917
  544SOL     OW 1767   2.100   1.384   0.890  0.0460 -0.1011 -0.4187
  544SOL    HW1 1768   2.194   1.397   0.877  0.3581  0.0482  1.6557
  544SOL    HW2 1769   2.069   1.345   0.808  1.7990  0.3710 -1.3446
  545SOL     OW 1770   1.039   3.691   2.487 -0.3757 -0.3379  0.0685
  545SOL    HW1 1771   0.959   3.652   2.521 -0.7348  2.2675  2.5771
  545SOL    HW2 1772   1.010   3.744   2.412 -0.6925 -0.7788 -0.1235
  546SOL     OW 1773   0.281   0.991   2.099  0.2359  0.3123  0.0729
  546SOL    HW1 1774   0.332   1.041   2.036  1.2206 -0.4477  0.2346
  546SOL    HW2 1775   0.310   1.023   2.185  1.0325 -0.6513  0.1828
  547SOL     OW 1776   1.718   1.296   2.854  0.0396 -0.1028 -0.1921
  547SOL    HW1 1777   1.767   1.300   2.936 -1.9178 -1.1077  1.1305
  547SOL    HW2 1778   1.699   1.202   2.843 -3.6346  0.3552  0.8032
  548SOL     OW 1779   0.835   2.969   2.667  0.0026  0.2723 -0.0712
  548SOL    HW1 1780   0.823   2.877   2.640 -1.0578  0.0528  1.0630
  548SOL    HW2 1781   0.821   2.968   2.761  0.7656  1.4946  0.0716
  549SOL     OW 1782   2.583   1.737   2.559  0.2099 -0.6773  0.1358
  549SOL    HW1 1783   2.595   1.761   2.467  0.5266 -0.1526  0.3060
  549SOL    HW2 1784   2.521   1.802   2.592 -0.0410 -0.9732  0.2480
  550SOL     OW 1785   3.696   1.979   1.964  0.2596  0.0591 -0.3890
  550SOL    HW1 1786   3.716   2.070   1.944  0.9255  0.2359  0.9301
  550SOL    HW2 1787   3.686   1.937   1.879 -2.1347  1.7592 -1.0759
  551SOL     OW 1788   1.539   1.989   1.308 -0.4431  0.0237 -0.4997
  551SOL    HW1 1789   1.489   1.974   1.388 -0.3335  2.9842  0.2465
  551SOL    HW2 1790   1.624   1.949   1.325 -0.8967 -0.6481  0.2636
  552SOL     OW 1791   3.662   1.451   1.475  0.0025 -0.1885  0.7977
  552SOL    HW1 1792   3.657   1.385   1.544  0.3518 -1.2466 -0.1693
  552SOL    HW2 1793   3.664   1.535   1.522 -0.8859 -0.8306  2.0267
  553SOL     OW 1794   0.218   3.672   1.639 -0.3131 -0.3318  0.4558
  553SOL    HW1 1795   0.129   3.644   1.620 -0.5915  1.5591 -1.4468
  553SOL    HW2 1796   0.217   3.766   1.624  2.0128 -0.2572  0.3945
  554SOL     OW 1797   1.251   3.652   1.644 -0.1933  0.0731 -0.4932
  554SOL    HW1 1798   1.246   3.630   1.737 -0.6191 -0.2234 -0.5847
  554SOL    HW2 1799   1.178   3.712   1.629  0.4771  0.9326 -0.4234
  555SOL     OW 1800   1.113  -0.014   2.883 -0.8517  0.1889 -0.2184
  555SOL    HW1 1801   1.172  -0.039   2.954 -1.2117  0.1811  0.0793
  555SOL    HW2 1802   1.156   0.061   2.842 -1.2824  1.0459  0.8462
  556SOL     OW 1803   2.658   0.529   2.120 -0.2004 -0.2960  0.6316
  556SOL    HW1 1804   2.705   0.605   2.154  0.9890 -1.0292  0.6665
  556SOL    HW2 1805   2.650   0.469   2.195 -0.3439 -0.5897  0.3861
  557SOL     OW 1806   2.178   3.472   2.245 -0.4282  0.5824 -0.0172
  557SOL    HW1 1807   2.101   3.524   2.222 -0.8346 -0.3433 -0.8349
  557SOL    HW2 1808   2.158   3.384   2.212  0.7593  0.2075  0.2257
  558SOL     OW 1809   2.613   3.419   3.407  0.9399  0.3059 -0.4950
  558SOL    HW1 1810   2.557   3.345   3.433  1.5269  0.0855  0.1838
  558SOL    HW2 1811   2.590   3.489   3.468  1.1050  0.3537 -0.4870
  559SOL     OW 1812   0.414   1.453   0.044 -0.8574  0.5130  0.2851
  559SOL    HW1 1813   0.338   1.509   0.028  1.0443  2.7075 -1.7381
  559SOL    HW2 1814   0.467   1.460  -0.035  0.9466 -1.8580  1.1510
  560SOL     OW 1815   0.255   0.253   3.314 -0.0995  0.2359  0.2734
  560SOL    HW1 1816   0.221   0.195   3.246 -1.1828  0.1016  0.9030
  560SOL    HW2 1817   0.244   0.341   3.279  0.8441  0.1163 -0.3702
  561SOL     OW 1818   0.773   0.960   2.143  0.2938 -0.1693 -0.1242
  561SOL    HW1 1819   0.731   0.927   2.065  1.7305  0.7904 -1.3729
  561SOL    HW2 1820   0.724   0.922   2.216 -0.0838 -2.3854 -1.4627
  562SOL     OW 1821   0.094   3.411   3.741 -0.1526 -0.0726  0.3789
  562SOL    HW1 1822   0.083   3.336   3.683 -1.6525  0.5001 -0.1378
  562SOL    HW2 1823   0.079   3.488   3.686 -0.6631  0.5217  1.3034
  563SOL     OW 1824   2.551   0.371  -0.011  0.2288 -0.4323  0.0179
  563SOL    HW1 1825   2.475   0.318   0.011 -2.6030  2.9648 -0.7020
  563SOL    HW2 1826   2.567   0.424   0.067  0.3807  0.4609 -0.6062
  564SOL     OW 1827   1.204   2.649   0.174 -0.1530  0.1364  0.8371
  564SOL    HW1 1828   1.192   2.605   0.257 -1.8953  0.4802  0.8007
  564SOL    HW2 1829   1.117   2.647   0.133  0.0323  2.3482  0.2339
  565SOL     OW 1830   0.810   0.048   0.160 -0.2524  0.4231 -0.4561
  565SOL    HW1 1831   0.759  -0.024   0.123 -2.0747  2.0139 -1.2617
  565SOL    HW2 1832   0.805   0.035   0.254 -0.7208 -0.4058 -0.5833
  566SOL     OW 1833   0.821   1.493   0.020 -0.7396  0.0702  0.4483
  566SOL    HW1 1834   0.870   1.414  -0.000  0.7659  0.5815  1.8369
  566SOL    HW2 1835   0.740   1.462   0.060  0.3512 -0.8035  2.0905
  567SOL     OW 1836   3.189   0.628   2.657 -0.0773  0.0168 -0.4191
  567SOL    HW1 1837   3.197   0.723   2.666  1.5914  0.0905 -2.0842
  567SOL    HW2 1838   3.178   0.614   2.563 -1.1066 -1.4140 -0.1182
  568SOL     OW 1839   0.664   1.891   3.598 -0.4022  0.0047 -0.3280
  568SOL    HW1 1840   0.591   1.900   3.536  1.0750  0.5675 -2.0789
  568SOL    HW2 1841   0.742   1.905   3.545  0.9633  0.3156  1.6581
  569SOL     OW 1842   1.707   1.037   2.917 -0.1651  0.2284  0.2247
  569SOL    HW1 1843   1.770   0.967   2.933 -1.2455 -0.5245  1.3799
  569SOL    HW2 1844   1.693   1.077   3.003 -0.6126  0.9349 -0.1710
  570SOL     OW 1845   3.439   3.423   1.846 -0.6123 -0.8893  0.8046
  570SOL    HW1 1846   3.379   3.352   1.827  0.3904 -2.5156  3.3037
  570SOL    HW2 1847   3.402   3.467   1.922  0.4097 -0.7508  1.2341
  571SOL     OW 1848   0.950   1.122   3.228 -0.6223 -1.0964 -0.0998
  571SOL    HW1 1849   0.855   1.109   3.226 -0.9176  0.7637 -2.1797
  571SOL    HW2 1850   0.973   1.140   3.137  0.9967  3.0307  0.9050
  572SOL     OW 1851   0.603   2.441   0.168 -0.7149  0.1084  0.0139
  572SOL    HW1 1852   0.550   2.467   0.092 -0.3082  0.4006 -0.1786
  572SOL    HW2 1853   0.584   2.348   0.179 -0.5231 -0.0229 -0.6673
  573SOL     OW 1854   0.320   2.434   3.097  0.2769  1.0215 -0.7365
  573SOL    HW1 1855   0.239   2.385   3.100 -0.7151  2.5154 -1.6713
  573SOL    HW2 1856   0.294   2.525   3.111  1.8713  1.4717 -0.4124
  574SOL     OW 1857   3.148   2.674   0.553 -1.0178  0.4012  0.3248
  574SOL    HW1 1858   3.227   2.704   0.599  0.0900 -0.4266 -0.9473
  574SOL    HW2 1859   3.098   2.628   0.620 -0.1887  0.5396  1.0662
  575SOL     OW 1860   1.700   1.938   1.878 -0.3733  0.2776  0.1639
  575SOL    HW1 1861   1.732   1.852   1.905  1.9380  0.8020 -0.6563
  575SOL    HW2 1862   1.643   1.967   1.950 -1.3674 -1.9909  0.3493
  576SOL     OW 1863   2.633   0.664   0.667  0.0221  0.2148  0.1953
  576SOL    HW1 1864   2.667   0.753   0.669  1.3025 -0.2752  1.4431
  576SOL    HW2 1865   2.707   0.611   0.637 -0.4080 -0.5676  0.4987
  577SOL     OW 1866   2.313   2.009   3.034  0.3653  0.2303 -0.2459
  577SOL    HW1 1867   2.403   2.026   3.007  0.4800 -0.7847 -0.5341
  577SOL    HW2 1868   2.268   1.983   2.953 -0.2365  0.9154 -0.1402
  578SOL     OW 1869   3.253   2.963   2.055 -0.5314  0.0669 -0.0849
  578SOL    HW1 1870   3.317   2.995   1.992 -0.5325  0.4656  0.1192
  578SOL    HW2 1871   3.194   2.908   2.003  1.8679 -3.0975  0.2274
  579SOL     OW 1872   0.872   0.602   0.339  0.1267  0.3781 -0.3591
  579SOL    HW1 1873   0.827   0.653   0.272 -1.2819  0.1661  0.3877
  579SOL    HW2 1874   0.965   0.609   0.317 -0.3409 -2.1848 -4.1620
  580SOL     OW 1875   1.127   3.156   1.392  0.0686 -0.4506  0.2182
  580SOL    HW1 1876   1.085   3.106   1.462 -0.6026  1.0394  0.9060
  580SOL    HW2 1877   1.057   3.169   1.327  0.5306 -1.3030 -0.4835
  581SOL     OW 1878   2.402   2.366   3.640  0.3726 -0.0789  0.7893
  581SOL    HW1 1879   2.350   2.427   3.588 -0.0982 -0.9594  0.2158
  581SOL    HW2 1880   2.474   2.340   3.582  1.8239  1.5416  1.7453
  582SOL     OW 1881   1.891   3.378   3.621 -0.0998 -0.3226  0.0640
  582SOL    HW1 1882   1.936   3.295   3.608  0.5643 -0.1212  0.9979
  582SOL    HW2 1883   1.841   3.367   3.702  0.6925  0.4679  0.6800
  583SOL     OW 1884   0.142   1.916   0.920  0.3510  0.1378 -0.6000
  583SOL    HW1 1885   0.049   1.897   0.904 -0.1086  0.3228  1.5360
  583SOL    HW2 1886   0.170   1.845   0.978  0.3546  2.3187  2.2458
  584SOL     OW 1887   0.827   3.686   1.521  0.1769 -0.1237  0.3409
  584SOL    HW1 1888   0.886   3.628   1.568  2.2359 -0.3235 -2.2714
  584SOL    HW2 1889   0.775   3.628   1.465  0.1788  0.3278 -0.1392
  585SOL     OW 1890   2.506   3.680   1.690  0.2382  0.0333 -0.0197
  585SOL    HW1 1891   2.536   3.686   1.600  0.9798 -1.1623  0.1294
  585SOL    HW2 1892   2.412   3.663   1.683  0.2376  0.2663 -0.5657
  586SOL     OW 1893   3.688   3.141   1.176  0.0487  0.3310 -0.5012
  586SOL    HW1 1894   3.638   3.077   1.125 -0.5762  1.9607 -2.0093
  586SOL    HW2 1895   3.686   3.107   1.265 -0.6209 -1.5241 -1.1818
  587SOL     OW 1896   0.552   1.258   1.614  0.5761 -0.2011  1.0051
  587SOL    HW1 1897   0.520   1.293   1.697 -2.4102 -0.6620  0.1518
  587SOL    HW2 1898   0.566   1.335   1.559 -1.7153 -0.0426  0.5616
  588SOL     OW 1899   2.399   3.275   1.196  0.1597  0.0550 -0.1463
  588SOL    HW1 1900   2.349   3.310   1.269 -0.3443  0.8487 -0.8570
  588SOL    HW2 1901   2.443   3.351   1.158  1.0315 -0.4620 -0.2076
  589SOL     OW 1902   2.833   1.754   1.088  0.6511 -0.4329 -0.2828
  589SOL    HW1 1903   2.806   1.737   1.178  1.2460 -0.1782 -0.0462
  589SOL    HW2 1904   2.922   1.719   1.083  0.5889 -0.5259 -0.8003
  590SOL     OW 1905   1.910   3.568   2.250 -0.1671 -0.2360  0.2844
  590SOL    HW1 1906   1.827   3.609   2.224 -1.0122 -1.3849  1.0175
  590SOL    HW2 1907   1.888   3.522   2.332  1.5872  0.6832  1.3239
  591SOL     OW 1908   1.250   1.177   0.313 -0.7010 -0.0035  0.2672
  591SOL    HW1 1909   1.340   1.181   0.282 -1.0698  0.1640 -0.7994
  591SOL    HW2 1910   1.248   1.235   0.389  0.3962 -1.0338  1.1174
  592SOL     OW 1911   0.652   2.001   1.949 -0.5182 -0.1758 -0.0726
  592SOL    HW1 1912   0.695   2.056   1.884 -0.1161 -0.1078  0.2499
  592SOL    HW2 1913   0.565   2.041   1.960 -0.1932  0.4635  0.2403
  593SOL     OW 1914   2.992   1.352   2.448  0.0155 -0.5155  0.4198
  593SOL    HW1 1915   2.949   1.277   2.406 -0.3851 -0.5923  0.9435
  593SOL    HW2 1916   3.059   1.380   2.387 -0.9242 -0.2680 -0.5242
  594SOL     OW 1917   1.919   2.338   2.387 -0.5769 -0.0896  0.3331
  594SOL    HW1 1918   2.000   2.309   2.429 -1.0971  2.3176  3.2535
  594SOL    HW2 1919   1.904   2.426   2.420 -3.0337  0.6115 -2.2216
  595SOL     OW 1920   3.071   1.253   1.067  0.1428 -0.0919 -0.2700
  595SOL    HW1 1921   2.995   1.221   1.116  0.4727 -1.9953 -0.9243
  595SOL    HW2 1922   3.071   1.348   1.083 -0.7771 -0.3915  1.9546
  596SOL     OW 1923   2.744   0.700   3.047 -0.5504  0.4928 -0.1696
  596SOL    HW1 1924   2.686   0.772   3.073 -0.8255  0.3161 -0.2849
  596SOL    HW2 1925   2.832   0.731   3.068 -0.6347  1.0277 -0.6070
  597SOL     OW 1926   2.630   1.694   3.179 -0.4162  0.0440  0.1444
  597SOL    HW1 1927   2.676   1.711   3.096 -2.3776  0.0717 -1.0002
  597SOL    HW2 1928   2.689   1.727   3.246  1.3373 -0.1500 -1.2183
  598SOL     OW 1929   0.427   1.337   0.299  0.1123  0.3795  0.4508
  598SOL    HW1 1930   0.381   1.254   0.289  1.0181 -0.0276 -0.5732
  598SOL    HW2 1931   0.436   1.371   0.210 -0.9442  1.9980  0.9125
  599SOL     OW 1932   3.114   0.307   3.143 -0.4475  0.2915 -0.4606
  599SOL    HW1 1933   3.170   0.273   3.073  0.1961  2.0349 -0.8629
  599SOL    HW2 1934   3.043   0.244   3.151  0.8406 -1.2676 -0.9002
  600SOL     OW 1935   2.228   0.831   1.033 -0.0482 -0.2161  0.3773
  600SOL    HW1 1936   2.221   0.893   1.106 -1.0415 -0.9826  0.9635
  600SOL    HW2 1937   2.314   0.847   0.996 -0.2143  1.3894  0.6212
  601SOL     OW 1938   1.374   0.325   0.093  0.4531  0.2884 -0.5969
  601SOL    HW1 1939   1.390   0.248   0.038 -1.1986 -1.2558  0.9452
  601SOL    HW2 1940   1.425   0.309   0.173 -0.8484  0.1492  0.2403
  602SOL     OW 1941   1.068   1.960   1.216 -0.3056  0.1147  0.8666
  602SOL    HW1 1942   1.036   1.899   1.150 -1.8781  0.5074  1.2303
  602SOL    HW2 1943   1.095   1.905   1.289 -0.4735 -0.2111  0.6857
  603SOL     OW 1944   0.223   1.707   1.067  0.0214  0.0273  0.7132
  603SOL    HW1 1945   0.236   1.642   0.998  2.8737  1.8883 -0.6992
  603SOL    HW2 1946   0.188   1.656   1.141  1.5526 -3.0201 -0.4763
  604SOL     OW 1947   1.764   0.955   3.412  0.2157 -0.3799  0.7882
  604SOL    HW1 1948   1.727   0.874   3.376  1.4998 -0.6184 -0.0440
  604SOL    HW2 1949   1.782   0.935   3.503 -1.7465 -0.2269  1.2659
  605SOL     OW 1950   3.157   1.832   1.332  0.9188  0.4486 -0.2798
  605SOL    HW1 1951   3.101   1.758   1.353  2.7464 -0.6933  0.8020
  605SOL    HW2 1952   3.155   1.837   1.236  0.3164 -0.6073 -0.3399
  606SOL     OW 1953   3.136   1.459   2.248  0.4103  0.5501  0.2105
  606SOL    HW1 1954   3.096   1.525   2.305 -0.0010 -0.2673  0.8986
  606SOL    HW2 1955   3.217   1.434   2.292 -0.5070 -0.9725  1.1114
  607SOL     OW 1956   2.267   3.700   3.101 -0.0545 -0.3804  0.3608
  607SOL    HW1 1957   2.294   3.791   3.104 -0.6241 -0.1764 -0.4980
  607SOL    HW2 1958   2.328   3.659   3.040 -0.2868 -0.4091  0.1491
  608SOL     OW 1959   0.518   1.134   1.059 -0.2772 -0.6414 -0.3478
  608SOL    HW1 1960   0.439   1.089   1.090 -0.4915 -1.0707 -1.4846
  608SOL    HW2 1961   0.503   1.226   1.083 -0.4359 -0.9392  0.7824
  609SOL     OW 1962   0.761   0.404   0.080 -0.1140  0.2280 -0.2533
  609SOL    HW1 1963   0.729   0.456   0.007 -1.5051  0.1966  0.3020
  609SOL    HW2 1964   0.696   0.417   0.150 -0.8451 -2.6159 -0.2536
  610SOL     OW 1965   0.834   1.468   2.625 -0.6674 -0.4498  0.0232
  610SOL    HW1 1966   0.849   1.553   2.666 -0.0940  0.2897 -1.6189
  610SOL    HW2 1967   0.801   1.412   2.695 -3.4295  1.7653  0.6288
  611SOL     OW 1968   0.165   3.338   1.251  0.4752  0.3521 -0.0346
  611SOL    HW1 1969   0.256   3.313   1.237  0.4973  0.2212  0.3147
  611SOL    HW2 1970   0.114   3.266   1.214  0.5328 -0.0447  0.6443
  612SOL     OW 1971   3.588   2.614   0.282 -0.1296  0.3266 -0.5012
  612SOL    HW1 1972   3.619   2.600   0.371  1.6592 -0.5616 -1.2126
  612SOL    HW2 1973   3.494   2.629   0.292 -0.0804 -0.3420  1.4762
  613SOL     OW 1974   0.247   0.077   2.600  0.1092 -0.1594 -0.2111
  613SOL    HW1 1975   0.322   0.131   2.626  0.0675 -0.2339  0.0589
  613SOL    HW2 1976   0.185   0.085   2.672  0.6889 -1.7316  0.5028
  614SOL     OW 1977   1.084   2.740   2.479 -0.4167 -0.1389 -0.3224
  614SOL    HW1 1978   1.135   2.703   2.552  0.1155  4.0879  1.7149
  614SOL    HW2 1979   0.996   2.751   2.514 -0.4553  0.8740 -0.7281
  615SOL     OW 1980   3.321   0.902   2.550 -0.3845 -0.1091  0.6468
  615SOL    HW1 1981   3.304   0.985   2.594 -0.5656 -0.1342  0.6218
  615SOL    HW2 1982   3.329   0.926   2.457 -1.2345 -0.2343  0.5385
  616SOL     OW 1983   2.337   2.035   1.308 -0.0144  0.2890  0.0641
  616SOL    HW1 1984   2.252   2.078   1.293 -0.6185 -0.6074  0.7718
  616SOL    HW2 1985   2.317   1.941   1.303  1.1607  0.0624 -0.8455
  617SOL     OW 1986   1.949   0.806   1.924  0.0999 -0.3862  0.6571
  617SOL    HW1 1987   2.029   0.806   1.871 -0.3056  1.3476 -0.0406
  617SOL    HW2 1988   1.888   0.860   1.875 -0.9861 -0.4113  1.9191
  618SOL     OW 1989   2.440   3.656   0.159 -0.3742  1.0136  0.3644
  618SOL    HW1 1990   2.379   3.621   0.224  0.2641  0.8732  0.8949
  618SOL    HW2 1991   2.506   3.588   0.150  0.1068  1.4827  0.3433
  619SOL     OW 1992   1.388   0.430   1.663  0.8877 -0.8017  0.3400
  619SOL    HW1 1993   1.374   0.504   1.723 -1.8931  1.4570 -2.7805
  619SOL    HW2 1994   1.325   0.364   1.691  0.5657 -0.3318  0.7442
  620SOL     OW 1995   3.186   3.336   3.309  0.3813  0.3027  0.3088
  620SOL    HW1 1996   3.216   3.338   3.400  0.0189 -3.1285  0.6572
  620SOL    HW2 1997   3.201   3.245   3.281  0.9966  1.3614 -3.2793
  621SOL     OW 1998   3.212   0.905   3.511 -0.1417  0.2621  0.6583
  621SOL    HW1 1999   3.146   0.845   3.545 -0.4387  1.5851  2.5498
  621SOL    HW2 2000   3.224   0.971   3.580  1.8091  1.1173 -0.3900
  622SOL     OW 2001   2.189   0.941   3.545  0.1530 -0.3466 -0.3489
  622SOL    HW1 2002   2.137   1.016   3.574 -0.5138 -0.0028 -2.2887
  622SOL    HW2 2003   2.165   0.930   3.453  3.7653 -0.0009 -1.4537
  623SOL     OW 2004   3.573   3.265   3.442  0.1791 -0.1407  0.2203
  623SOL    HW1 2005   3.529   3.199   3.496  0.1630  0.6053  1.1595
  623SOL    HW2 2006   3.654   3.285   3.489  1.4647 -1.3428 -1.3899
  624SOL     OW 2007   2.295   1.687   0.314  0.7935 -0.4475  0.7948
  624SOL    HW1 2008   2.223   1.740   0.348 -1.7871 -1.8672 -1.9524
  624SOL    HW2 2009   2.348   1.748   0.263 -0.5343  0.0402 -0.0458
  625SOL     OW 2010   0.699   1.653   2.867  0.4674 -0.1971  0.1702
  625SOL    HW1 2011   0.713   1.573   2.917 -1.2874 -0.2935  0.5570
  625SOL    HW2 2012   0.787   1.691   2.857  1.5674 -2.8562 -1.2697
  626SOL     OW 2013   2.112   3.222   0.222 -0.1093 -0.6370 -0.6861
  626SOL    HW1 2014   2.138   3.276   0.148 -1.1633  1.4540  0.3661
  626SOL    HW2 2015   2.053   3.279   0.273  0.6770 -1.9189  1.8113
  627SOL     OW 2016   3.323   0.032   0.587  0.2645  0.4472 -0.6628
  627SOL    HW1 2017   3.250   0.008   0.643  0.7880  1.2352  0.3961
  627SOL    HW2 2018   3.306  -0.013   0.504 -0.4406 -0.8939  0.1699
  628SOL     OW 2019   1.619   0.256   1.917  0.1882  0.0299  0.6189
  628SOL    HW1 2020   1.710   0.258   1.946  0.5198 -0.7577 -0.2983
  628SOL    HW2 2021   1.596   0.348   1.902  2.2325  0.1228 -3.1923
  629SOL     OW 2022   2.506   2.995   0.190  0.2396  0.1090  0.2437
  629SOL    HW1 2023   2.487   2.902   0.177 -0.2993  0.2424  0.0470
  629SOL    HW2 2024   2.447   3.040   0.130  1.8707  0.5156 -1.1230
  630SOL     OW 2025   3.500   3.193   2.128 -0.0494  0.2533 -0.1544
  630SOL    HW1 2026   3.419   3.238   2.153  0.1484  0.9002 -0.6598
  630SOL    HW2 2027   3.481   3.154   2.043 -0.3018 -0.8634  0.3905
  631SOL     OW 2028   3.723   1.343   3.028 -0.3380  0.0903  0.0363
  631SOL    HW1 2029   3.758   1.304   2.948 -0.8586  0.5972 -0.4475
  631SOL    HW2 2030   3.643   1.294   3.046  1.0384 -1.7127  1.6792
  632SOL     OW 2031   0.224   2.489   0.226  0.5074  0.5595 -0.1855
  632SOL    HW1 2032   0.247   2.398   0.248 -0.3964  1.0550  3.3896
  632SOL    HW2 2033   0.146   2.480   0.170  0.0863 -0.8856  0.5658
  633SOL     OW 2034   3.382   2.382   0.600  0.1065  0.5326  0.7794
  633SOL    HW1 2035   3.432   2.454   0.638  1.2010  0.8349 -1.0923
  633SOL    HW2 2036   3.448   2.313   0.585 -0.2512  0.4682 -0.6088
  634SOL     OW 2037   2.150   2.547   1.712 -0.3632 -0.1062  1.1386
  634SOL    HW1 2038   2.069   2.499   1.693  0.4150 -1.6819  1.5674
  634SOL    HW2 2039   2.140   2.576   1.803  0.0936 -1.5426  1.6779
  635SOL     OW 2040   1.049   0.820   0.497 -0.0148 -0.3929  0.1069
  635SOL    HW1 2041   1.073   0.755   0.431  0.3371  1.8762 -2.1986
  635SOL    HW2 2042   0.958   0.841   0.477 -0.4984 -0.9593  1.5862
  636SOL     OW 2043   0.862   2.693   0.692 -0.0774  0.2664 -0.7278
  636SOL    HW1 2044   0.943   2.670   0.647 -0.2703  0.4890 -1.1976
  636SOL    HW2 2045   0.837   2.777   0.655 -0.4069  0.3027 -0.4274
  637SOL     OW 2046   2.858   2.723   1.059 -0.2371 -0.3291 -0.9427
  637SOL    HW1 2047   2.906   2.647   1.093 -1.0780 -0.4477  0.0261
  637SOL    HW2 2048   2.809   2.688   0.984  0.3043 -0.4656 -1.2373
  638SOL     OW 2049   1.915   2.361   0.103  0.2463 -0.4250  0.9093
  638SOL    HW1 2050   1.982   2.295   0.084  1.9907  1.3410  0.6121
  638SOL    HW2 2051   1.853   2.353   0.031 -0.1560 -2.3789  1.4063
  639SOL     OW 2052   1.365   3.066   1.295 -0.4548  0.1918 -0.7565
  639SOL    HW1 2053   1.280   3.100   1.323  0.4328 -0.2940  3.0979
  639SOL    HW2 2054   1.406   3.140   1.249 -2.0572  1.2175 -0.6262
  640SOL     OW 2055   0.901   0.422   3.057  0.1810  0.2625  0.4887
  640SOL    HW1 2056   0.928   0.332   3.044 -2.5423 -0.4195 -1.4628
  640SOL    HW2 2057   0.981   0.474   3.048  1.4364 -1.7794 -0.6727
  641SOL     OW 2058   0.449   2.358   2.447  0.3873 -0.0293  0.9574
  641SOL    HW1 2059   0.403   2.442   2.444  0.4414 -0.0197 -1.0214
  641SOL    HW2 2060   0.435   2.326   2.536 -1.0213  1.3099  1.2611
  642SOL     OW 2061   1.559   2.762   0.649 -0.7611 -0.0773 -0.1070
  642SOL    HW1 2062   1.563   2.673   0.684  0.7150  0.2709  0.7535
  642SOL    HW2 2063   1.638   2.805   0.685 -1.1746  1.4245 -0.8908
  643SOL     OW 2064   3.484   3.346   0.282 -0.3625 -0.2200 -0.4799
  643SOL    HW1 2065   3.449   3.357   0.194 -2.0478 -0.4857  0.1281
  643SOL    HW2 2066   3.407   3.336   0.338  0.4805  3.0061  1.5171
  644SOL     OW 2067   2.452   2.071   1.866  0.3274 -0.8058 -0.1685
  644SOL    HW1 2068   2.378   2.011   1.883 -0.2149  0.0024  0.4086
  644SOL    HW2 2069   2.413   2.144   1.819  0.7736 -0.4075  0.0734
  645SOL     OW 2070   1.787   2.391   2.103 -0.3690 -0.1196  0.2031
  645SOL    HW1 2071   1.824   2.367   2.188  1.1742  0.9622 -0.1316
  645SOL    HW2 2072   1.724   2.461   2.123  1.2287  1.3483  0.3312
  646SOL     OW 2073   3.512   2.606   2.705  0.1430 -0.4681 -0.1400
  646SOL    HW1 2074   3.608   2.612   2.710  0.0762 -0.2177  1.1729
  646SOL    HW2 2075   3.486   2.576   2.792 -0.8042 -2.9823 -1.2061
  647SOL     OW 2076  -0.020   0.398   0.204 -0.0184 -0.0033 -0.0389
  647SOL    HW1 2077   0.061   0.354   0.231  1.3129  1.7242 -0.9918
  647SOL    HW2 2078   0.010   0.471   0.150 -2.2508  0.6005 -0.5410
  648SOL     OW 2079   2.813   0.809   1.951 -0.5517 -0.0962  0.7690
  648SOL    HW1 2080   2.763   0.732   1.922  0.0236 -0.3454  0.4174
  648SOL    HW2 2081   2.863   0.779   2.026 -1.3556  0.3110  1.4863
  649SOL     OW 2082   3.052   0.688   3.599  0.0121 -0.0597 -0.1104
  649SOL    HW1 2083   3.000   0.694   3.518  0.0146  2.4184 -0.0175
  649SOL    HW2 2084   2.987   0.672   3.667 -0.2956  0.1889 -0.3371
  650SOL     OW 2085   0.686   3.333   2.120 -0.3347 -0.1507  0.2288
  650SOL    HW1 2086   0.646   3.417   2.143  0.4569  0.1305  0.6181
  650SOL    HW2 2087   0.701   3.339   2.026 -0.8885 -0.1304  0.1347
  651SOL     OW 2088   2.563   1.268   0.557  0.4307 -0.2202  0.0840
  651SOL    HW1 2089   2.598   1.303   0.475 -1.4191 -1.0768 -1.1451
  651SOL    HW2 2090   2.557   1.173   0.542 -0.5514 -0.3130  0.9463
  652SOL     OW 2091   1.622   3.238   3.573  0.8457 -0.2915  0.8021
  652SOL    HW1 2092   1.530   3.248   3.549  0.7754 -1.1415  0.6994
  652SOL    HW2 2093   1.670   3.283   3.504  0.4630  2.0116  1.9322
  653SOL     OW 2094   1.248   2.989   3.053  0.0077  0.0412  0.0392
  653SOL    HW1 2095   1.315   2.936   3.094 -0.3869  0.7003  1.6190
  653SOL    HW2 2096   1.292   3.033   2.981  1.2881  0.4393  1.0326
  654SOL     OW 2097   0.219   3.352   0.496 -0.0112  0.5652 -0.4058
  654SOL    HW1 2098   0.174   3.305   0.425 -0.3396 -0.9513  0.7442
  654SOL    HW2 2099   0.151   3.365   0.562  0.9735 -1.0416  1.0230
  655SOL     OW 2100   0.644   1.725   0.343 -0.4809  0.4360  0.0695
  655SOL    HW1 2101   0.659   1.635   0.314 -0.2423  0.3209  0.5415
  655SOL    HW2 2102   0.587   1.762   0.276 -1.0171 -0.2244  0.1490
  656SOL     OW 2103   3.608   3.551   3.258 -0.0755 -0.0374 -0.7911
  656SOL    HW1 2104   3.583   3.631   3.212 -1.4151 -0.0181 -0.0657
  656SOL    HW2 2105   3.567   3.558   3.344  0.3499 -1.2001 -0.4683
  657SOL     OW 2106   3.290   0.272   0.380  0.3489  0.0489 -0.8619
  657SOL    HW1 2107   3.245   0.249   0.299  1.9434  2.4737 -2.5820
  657SOL    HW2 2108   3.297   0.189   0.428 -1.9373 -1.1964 -2.4876
  658SOL     OW 2109   1.447   3.480   3.234 -0.1471 -0.1557  0.6509
  658SOL    HW1 2110   1.395   3.410   3.275  1.6957 -1.6777  0.5502
  658SOL    HW2 2111   1.454   3.547   3.302 -1.0194 -0.5515  1.1568
  659SOL     OW 2112   3.561   3.730   0.723  0.5712 -0.5105 -0.0406
  659SOL    HW1 2113   3.489   3.733   0.661  2.2412  0.1797 -2.0520
  659SOL    HW2 2114   3.607   3.648   0.705  1.4040 -0.0404 -0.1446
  660SOL     OW 2115   3.259   3.646   2.958 -0.8944  0.1837 -0.6206
  660SOL    HW1 2116   3.269   3.739   2.940 -0.6560  0.4707  0.8885
  660SOL    HW2 2117   3.283   3.603   2.876 -0.7427  1.4314 -1.2534
  661SOL     OW 2118   2.761   1.345   1.006  0.3787 -0.4836 -1.0317
  661SOL    HW1 2119   2.715   1.381   0.930 -0.2432  0.4525 -0.2415
  661SOL    HW2 2120   2.851   1.333   0.976  0.2447  0.2984 -1.7897
  662SOL     OW 2121   3.352   3.389   1.266 -0.2790  0.5355 -0.0756
  662SOL    HW1 2122   3.375   3.322   1.330 -1.1286  0.3346  0.0415
  662SOL    HW2 2123   3.403   3.466   1.292  0.8778 -0.1196 -0.3483
  663SOL     OW 2124   3.051   1.070   2.892 -0.4277 -0.9045  0.6909
  663SOL    HW1 2125   3.107   1.093   2.967 -0.8715  0.2098  0.7101
  663SOL    HW2 2126   3.096   0.998   2.849  1.4755  0.4961  0.2216
  664SOL     OW 2127   2.987   1.623   1.349  0.1809  0.0908  0.2003
  664SOL    HW1 2128   2.913   1.573   1.316  0.9527 -1.6828  1.0485
  664SOL    HW2 2129   2.989   1.606   1.443  1.2541  0.6535  0.3061
  665SOL     OW 2130   3.285   3.372   0.982  0.3231 -0.3026  0.2985
  665SOL    HW1 2131   3.332   3.386   1.064  0.4512  0.4834  0.1019
  665SOL    HW2 2132   3.337   3.419   0.917  0.9129 -1.9483 -0.4632
  666SOL     OW 2133   0.670   0.138   3.548  0.0329  0.1021  0.6080
  666SOL    HW1 2134   0.619   0.058   3.560  1.1699 -0.5628  1.0899
  666SOL    HW2 2135   0.612   0.207   3.582 -0.8505 -0.5333  0.4356
  667SOL     OW 2136   1.252   3.104   0.730  0.2317  0.0635 -0.3567
  667SOL    HW1 2137   1.318   3.161   0.691 -0.1817  0.5506 -0.3538
  667SOL    HW2 2138   1.199   3.162   0.785  1.4481 -0.7783  1.8274
  668SOL     OW 2139   0.969   0.703   1.979  0.5572 -0.1140  0.0795
  668SOL    HW1 2140   1.017   0.700   2.062  0.7128 -0.7178 -0.0329
  668SOL    HW2 2141   0.899   0.639   1.990 -1.1493  1.7494  0.8059
  669SOL     OW 2142   2.525   3.476   1.076  0.2867 -0.1445  0.4036
  669SOL    HW1 2143   2.536   3.435   0.990 -0.2638  0.6369 -0.0440
  669SOL    HW2 2144   2.535   3.569   1.060  1.8596 -0.0878  1.4786
  670SOL     OW 2145   1.421   3.663   3.001 -0.4934  0.6973  0.3632
  670SOL    HW1 2146   1.512   3.646   2.975 -0.5978  0.8137 -0.0865
  670SOL    HW2 2147   1.413   3.625   3.089  0.2061  1.3431  0.7221
  671SOL     OW 2148   2.824   2.221   1.252  0.3087 -0.4220  0.1536
  671SOL    HW1 2149   2.844   2.271   1.174  3.4204 -1.8060 -0.0932
  671SOL    HW2 2150   2.765   2.152   1.222  0.1858  0.0101 -0.6132
  672SOL     OW 2151   1.768   0.795   0.710 -0.3332  0.0887 -0.3280
  672SOL    HW1 2152   1.676   0.805   0.685  0.2891  1.3038 -2.3792
  672SOL    HW2 2153   1.804   0.736   0.644  0.4681 -0.0638  0.2311
  673SOL     OW 2154   2.460   2.719   0.084 -0.0827 -0.7141  0.1503
  673SOL    HW1 2155   2.435   2.758   0.001 -1.9400 -0.6789  0.6833
  673SOL    HW2 2156   2.459   2.624   0.067  0.9992 -0.6693 -0.2311
  674SOL     OW 2157   3.189   3.231   1.751  0.3153 -0.0943 -0.7052
  674SOL    HW1 2158   3.147   3.307   1.791  0.8330 -0.7189  1.1428
  674SOL    HW2 2159   3.118   3.184   1.707 -0.2509  0.7441 -0.6962
  675SOL     OW 2160   2.717   1.954   0.302 -0.4849  0.4814 -0.1098
  675SOL    HW1 2161   2.735   2.044   0.329 -3.1300  0.6558  1.3466
  675SOL    HW2 2162   2.758   1.900   0.369 -2.1226  0.7628  1.1727
  676SOL     OW 2163   3.432   2.388   1.296  0.1384  0.2036  0.4616
  676SOL    HW1 2164   3.377   2.433   1.361  0.4105  1.4710 -0.1643
  676SOL    HW2 2165   3.516   2.375   1.341 -0.0368  0.0418  0.7459
  677SOL     OW 2166   1.132   0.068   2.199  0.2179 -0.5494 -0.8400
  677SOL    HW1 2167   1.081   0.100   2.124  0.2872 -0.0634 -0.6848
  677SOL    HW2 2168   1.151  -0.023   2.178 -0.6467 -0.7133 -0.9314
  678SOL     OW 2169   3.065   0.384   1.560 -0.8505  0.5693  0.2236
  678SOL    HW1 2170   3.054   0.439   1.483  0.1535  0.4137 -0.0497
  678SOL    HW2 2171   3.013   0.306   1.542 -0.4689  0.4552 -0.3822
  679SOL     OW 2172   0.934   2.437   2.355 -0.2906 -0.4645  0.6322
  679SOL    HW1 2173   0.965   2.350   2.328  0.2017 -0.0237 -0.2830
  679SOL    HW2 2174   0.957   2.494   2.282 -1.9021  0.1827  0.5723
  680SOL     OW 2175   1.129   1.368   3.696  0.4474  0.0401 -0.4474
  680SOL    HW1 2176   1.086   1.451   3.719  0.0094 -0.7487  1.9219
  680SOL    HW2 2177   1.105   1.353   3.605 -2.6955  0.6490  0.1699
  681SOL     OW 2178   0.155   1.647   1.344 -0.2788 -0.0422  0.2841
  681SOL    HW1 2179   0.140   1.740   1.357 -2.8207 -0.4694  0.9921
  681SOL    HW2 2180   0.178   1.613   1.430 -0.3309 -0.2032  0.2364
  682SOL     OW 2181   0.746   0.782   2.965  0.3250 -0.6580 -0.1884
  682SOL    HW1 2182   0.709   0.745   2.885 -0.1213 -1.0120  0.1761
  682SOL    HW2 2183   0.692   0.746   3.036 -1.5879  2.3523  0.0797
  683SOL     OW 2184   0.466   1.273   0.586  0.2545  0.3247  0.5369
  683SOL    HW1 2185   0.415   1.301   0.509 -2.0063  1.6558  2.3947
  683SOL    HW2 2186   0.480   1.353   0.636  3.2307 -0.2103  0.7605
  684SOL     OW 2187   1.413   2.825   3.207 -0.7282 -0.3978  0.1813
  684SOL    HW1 2188   1.477   2.763   3.173 -1.1028 -0.4670 -0.4112
  684SOL    HW2 2189   1.372   2.780   3.281  0.9209  0.2015  1.5087
  685SOL     OW 2190   2.939   1.480   0.261  0.1353  0.4271  0.1977
  685SOL    HW1 2191   2.939   1.457   0.354 -2.9708  0.4301  0.2851
  685SOL    HW2 2192   2.948   1.575   0.260  0.7688  0.3788  0.4266
  686SOL     OW 2193   0.253   2.134   2.272  0.0724 -0.1321 -0.2621
  686SOL    HW1 2194   0.163   2.102   2.267 -0.1774  0.7382 -2.0635
  686SOL    HW2 2195   0.246   2.229   2.267  1.0080  0.0849  1.6391
  687SOL     OW 2196   3.052   2.250   3.529  0.8241 -0.6768  0.1237
  687SOL    HW1 2197   2.978   2.243   3.590  0.3994 -1.7969 -0.4930
  687SOL    HW2 2198   3.083   2.340   3.540 -1.9810  0.5743 -1.1151
  688SOL     OW 2199   3.348   2.186   1.679  0.1393  0.2323  0.1540
  688SOL    HW1 2200   3.333   2.182   1.774 -0.2840  1.2862  0.1412
  688SOL    HW2 2201   3.297   2.112   1.645 -1.8866  1.3821  0.5175
  689SOL     OW 2202   0.191   0.966   2.618 -0.1717 -0.1419 -0.5847
  689SOL    HW1 2203   0.187   0.914   2.537 -0.5691 -2.2086  0.6896
  689SOL    HW2 2204   0.277   0.946   2.655  0.0353  0.8422 -0.5274
  690SOL     OW 2205   3.742   2.023   2.259 -0.2420  0.1954 -0.3576
  690SOL    HW1 2206   3.698   2.019   2.174  0.5101 -1.8422 -0.7144
  690SOL    HW2 2207   3.689   1.968   2.316  0.7620 -0.7414 -0.2876
  691SOL     OW 2208   1.428   0.025   1.478  0.5325 -0.2769 -0.1789
  691SOL    HW1 2209   1.387   0.098   1.433  1.9430  0.1115 -0.9051
  691SOL    HW2 2210   1.358  -0.015   1.529 -0.2686  1.5792  0.2376
  692SOL     OW 2211   1.933   0.874   2.935 -0.0402  0.1413 -0.3092
  692SOL    HW1 2212   2.001   0.807   2.934 -0.6625 -0.5062 -1.0785
  692SOL    HW2 2213   1.979   0.956   2.954  0.9919 -0.2374 -1.1032
  693SOL     OW 2214   1.152   0.587   3.020  0.3478  0.0057 -0.6646
  693SOL    HW1 2215   1.137   0.587   2.925 -1.1388  0.6076 -0.4463
  693SOL    HW2 2216   1.127   0.674   3.049  0.5972 -0.2362  0.3250
  694SOL     OW 2217   0.449   1.106   1.920  0.0494 -0.2074  0.5657
  694SOL    HW1 2218   0.534   1.148   1.934 -1.0092  1.0335  4.3052
  694SOL    HW2 2219   0.468   1.036   1.857  2.7597  3.0509 -2.6818
  695SOL     OW 2220   1.190   3.428   1.156  0.2730 -0.1750  0.1750
  695SOL    HW1 2221   1.232   3.506   1.192 -1.0570 -0.3990  2.4079
  695SOL    HW2 2222   1.235   3.355   1.197 -0.3329 -0.5006  0.2689
  696SOL     OW 2223   2.841   0.569   0.918  0.7435 -0.0328  0.2072
  696SOL    HW1 2224   2.851   0.645   0.862 -1.0636  0.9918  1.1741
  696SOL    HW2 2225   2.782   0.598   0.988  1.4414 -1.7877  1.6097
  697SOL     OW 2226   1.103   1.249   3.418 -0.2378 -1.2003 -0.7429
  697SOL    HW1 2227   1.052   1.196   3.357 -1.4225  0.9622 -1.7458
  697SOL    HW2 2228   1.192   1.248   3.384 -0.2357 -2.4897 -0.7384
  698SOL     OW 2229   1.992   2.138   1.999  0.4947 -0.3249 -0.0399
  698SOL    HW1 2230   1.944   2.157   2.079 -0.2021 -0.0077 -0.5166
  698SOL    HW2 2231   2.035   2.220   1.976 -0.3255 -0.0462 -0.6495
  699SOL     OW 2232   1.267   1.522   2.919  0.5709  0.3866 -0.3549
  699SOL    HW1 2233   1.340   1.568   2.959 -0.2662  1.1013  0.3786
  699SOL    HW2 2234   1.190   1.550   2.968 -0.3392  0.3944 -1.7176
  700SOL     OW 2235   2.247   1.736   1.345 -0.0049  0.2008  0.0967
  700SOL    HW1 2236   2.152   1.729   1.333 -0.4105  2.3115  1.6376
  700SOL    HW2 2237   2.270   1.658   1.396 -1.1809  0.4817  1.0970
  701SOL     OW 2238   1.581   3.673   0.229  0.4948 -0.3072 -0.1093
  701SOL    HW1 2239   1.559   3.662   0.136  0.0247 -0.4171  0.0087
  701SOL    HW2 2240   1.500   3.648   0.275  1.8208 -4.1465  0.5041
  702SOL     OW 2241   1.491   0.635   2.742 -0.0316  0.2049  0.1737
  702SOL    HW1 2242   1.494   0.577   2.818 -1.4722 -0.2438 -0.0703
  702SOL    HW2 2243   1.582   0.659   2.726  0.7938 -2.8310 -0.3255
  703SOL     OW 2244   3.086   0.039   2.051 -0.7109  0.0245 -0.4489
  703SOL    HW1 2245   3.120   0.028   1.962  0.8604 -0.6345  0.1891
  703SOL    HW2 2246   3.154   0.001   2.107 -2.1136 -0.4838  0.9775
  704SOL     OW 2247   2.922   3.335   1.437  0.0700  1.0423 -0.2208
  704SOL    HW1 2248   2.876   3.291   1.509  1.0921  0.7006  0.2443
  704SOL    HW2 2249   2.856   3.343   1.368 -0.4655 -0.1785  0.1169
  705SOL     OW 2250   1.746   0.937   0.951  0.4327 -0.0411 -0.1022
  705SOL    HW1 2251   1.766   0.904   0.864  0.7043 -0.0173 -0.0501
  705SOL    HW2 2252   1.810   0.894   1.008  0.9774  0.7944 -0.0738
  706SOL     OW 2253   2.358   0.629   0.437 -0.4610 -0.5113 -0.0122
  706SOL    HW1 2254   2.370   0.589   0.351 -0.8526  1.9544 -1.2934
  706SOL    HW2 2255   2.265   0.652   0.441 -0.1776  0.6056  0.4918
  707SOL     OW 2256   2.973   0.395   2.404  0.0994  0.1626 -0.1088
  707SOL    HW1 2257   3.028   0.443   2.342  0.6659  0.0589  0.3028
  707SOL    HW2 2258   2.908   0.459   2.432 -0.1036  0.2387 -0.7297
  708SOL     OW 2259   0.491   3.065   0.860 -0.6594  0.8311  0.0230
  708SOL    HW1 2260   0.403   3.041   0.830 -0.7378  0.7969  0.2757
  708SOL    HW2 2261   0.501   3.020   0.943 -1.1720  2.3854  0.9788
  709SOL     OW 2262   2.412   1.097   1.185  0.2366  0.1663 -0.4253
  709SOL    HW1 2263   2.349   1.164   1.213 -0.2439 -0.2420 -0.5097
  709SOL    HW2 2264   2.424   1.115   1.091 -1.1561 -0.8557 -0.8310
  710SOL     OW 2265   2.506   3.368   0.176 -0.1526 -0.2882  0.1567
  710SOL    HW1 2266   2.598   3.349   0.162 -0.3322 -1.4498  0.4597
  710SOL    HW2 2267   2.492   3.358   0.270 -0.4848  0.3854  0.1889
  711SOL     OW 2268   1.151   2.415   3.223  0.3981 -0.2125 -0.0590
  711SOL    HW1 2269   1.196   2.496   3.198  1.9289 -0.7675  0.7440
  711SOL    HW2 2270   1.147   2.418   3.319 -0.2009 -0.7537 -0.0571
  712SOL     OW 2271   1.550   2.567   0.293  0.0807 -0.2174 -0.1102
  712SOL    HW1 2272   1.482   2.532   0.235  0.6460 -0.5472 -0.5888
  712SOL    HW2 2273   1.588   2.490   0.335  0.2631 -0.0495  0.0335
  713SOL     OW 2274   1.466   0.257   0.910 -0.5396  0.1849 -0.0589
  713SOL    HW1 2275   1.503   0.218   0.831  0.5653 -0.6467  0.8482
  713SOL    HW2 2276   1.464   0.351   0.891 -2.5491 -0.1467 -1.9813
  714SOL     OW 2277   0.535   2.016   2.830 -0.2501  0.0353 -0.0732
  714SOL    HW1 2278   0.630   2.009   2.834  0.0465  1.6681 -2.2003
  714SOL    HW2 2279   0.512   1.975   2.746 -1.5239 -0.8388  0.6644
  715SOL     OW 2280   0.342   3.530   1.361 -0.3948 -0.0307  0.1036
  715SOL    HW1 2281   0.364   3.598   1.298  1.3659 -0.7669 -0.1390
  715SOL    HW2 2282   0.297   3.463   1.310 -1.3493  0.5419  0.1749
  716SOL     OW 2283   3.092   0.353   1.929 -0.2440  0.2164 -0.2290
  716SOL    HW1 2284   3.053   0.272   1.963 -0.4574  0.7824  0.8917
  716SOL    HW2 2285   3.056   0.360   1.840  0.9116 -1.6778 -0.9103
  717SOL     OW 2286   0.415   0.093   0.851  0.1114 -0.5441 -0.5690
  717SOL    HW1 2287   0.331   0.054   0.874  0.3546 -1.8528 -1.8242
  717SOL    HW2 2288   0.425   0.165   0.914 -2.6523  0.6623 -1.3233
  718SOL     OW 2289   1.762   1.877   1.419 -0.2272 -0.2737  0.0364
  718SOL    HW1 2290   1.783   1.933   1.494  0.1272 -1.9341  1.2252
  718SOL    HW2 2291   1.847   1.852   1.383 -0.2946 -1.7052  0.8109
  719SOL     OW 2292   0.755   0.205   1.478 -0.5453  0.1943 -0.2748
  719SOL    HW1 2293   0.810   0.251   1.541 -2.3577 -0.2498  1.7588
  719SOL    HW2 2294   0.791   0.116   1.476 -0.0797  0.3820 -0.3782
  720SOL     OW 2295   1.371   3.083   2.824 -0.3256  0.2948  0.2680
  720SOL    HW1 2296   1.294   3.082   2.766  0.0826  0.0386 -0.2792
  720SOL    HW2 2297   1.370   3.170   2.863 -0.8907  0.2975  0.2619
  721SOL     OW 2298   2.531   1.543   3.668 -0.0224  0.6444  0.0205
  721SOL    HW1 2299   2.587   1.472   3.701  1.4929  2.1681  0.8645
  721SOL    HW2 2300   2.461   1.551   3.733  1.0360  1.3512  1.1133
  722SOL     OW 2301   2.919   3.542   2.817  0.0081 -0.1389 -0.1284
  722SOL    HW1 2302   3.003   3.507   2.788  0.0771 -3.5716  3.3737
  722SOL    HW2 2303   2.940   3.593   2.896 -1.0195  0.7594 -0.4069
  723SOL     OW 2304   2.628   2.267   0.912 -0.2440  0.0930  0.2126
  723SOL    HW1 2305   2.590   2.325   0.846  0.1678  0.4875  0.3165
  723SOL    HW2 2306   2.614   2.179   0.878  1.7376  0.3277 -1.4076
  724SOL     OW 2307   1.615   1.183   0.975 -0.0015 -0.2507 -0.1596
  724SOL    HW1 2308   1.664   1.101   0.977 -0.3883 -0.6552 -2.9691
  724SOL    HW2 2309   1.678   1.250   1.002  1.7162 -0.9595 -2.1640
  725SOL     OW 2310   0.739   0.611   1.181 -0.5883  0.1485  0.1497
  725SOL    HW1 2311   0.742   0.701   1.150 -0.2233  0.1258  0.1151
  725SOL    HW2 2312   0.646   0.590   1.187 -0.6680  0.4494 -0.0663
  726SOL     OW 2313   0.697   1.011   3.147  0.1475  0.1868 -0.2687
  726SOL    HW1 2314   0.618   1.064   3.161  0.0735  0.1150 -0.4092
  726SOL    HW2 2315   0.678   0.962   3.067 -0.5001 -1.3609  0.7927
  727SOL     OW 2316   1.271   1.378   2.634 -0.1850 -0.2654  0.0132
  727SOL    HW1 2317   1.264   1.291   2.595 -1.5986 -0.7793  1.2923
  727SOL    HW2 2318   1.356   1.379   2.678  0.1685 -0.7062 -0.6584
  728SOL     OW 2319   3.708   2.861   0.370  0.1685  1.0974  0.3509
  728SOL    HW1 2320   3.697   2.768   0.387 -0.9292  1.1168 -0.1611
  728SOL    HW2 2321   3.769   2.865   0.296  0.8280  0.8268  0.8734
  729SOL     OW 2322   3.300   3.409   3.578 -0.3397  0.7699  0.4125
  729SOL    HW1 2323   3.234   3.475   3.598 -3.6465 -1.5069 -2.0406
  729SOL    HW2 2324   3.364   3.455   3.523 -2.1647  2.1233 -0.6827
  730SOL     OW 2325   2.045   1.680   1.713  0.1720  0.4341  0.1857
  730SOL    HW1 2326   1.976   1.625   1.749 -0.7611 -0.0225 -2.1240
  730SOL    HW2 2327   2.027   1.767   1.748  0.3770 -0.2440  2.1422
  731SOL     OW 2328   2.940   2.308   3.295  0.5500 -0.3012  0.0161
  731SOL    HW1 2329   2.962   2.230   3.244 -2.3391 -1.3782  0.2144
  731SOL    HW2 2330   2.959   2.284   3.385 -1.0105 -1.1484  0.1647
  732SOL     OW 2331   1.155   0.039   3.696 -0.2209 -0.2213  0.4342
  732SOL    HW1 2332   1.081   0.090   3.663 -0.1274 -0.9548 -0.9862
  732SOL    HW2 2333   1.218   0.039   3.624 -0.2537 -2.3793  0.3421
  733SOL     OW 2334   0.130   0.608   3.381 -0.1759  0.5307 -0.2386
  733SOL    HW1 2335   0.086   0.693   3.387  0.3109  0.8654 -1.2463
  733SOL    HW2 2336   0.102   0.562   3.460 -0.3206  1.6839  0.4102
  734SOL     OW 2337   2.642   2.377   3.487 -0.0543 -0.1819 -0.1963
  734SOL    HW1 2338   2.643   2.344   3.397  0.1128  1.8141 -0.9872
  734SOL    HW2 2339   2.647   2.472   3.477  2.1195  0.0184  1.9902
  735SOL     OW 2340   3.039   1.554   2.891  0.0259 -0.0281 -0.4122
  735SOL    HW1 2341   3.051   1.484   2.827 -1.0393  0.4488 -1.1803
  735SOL    HW2 2342   3.072   1.632   2.847 -0.0514  0.1789 -0.1058
  736SOL     OW 2343   2.945   1.375   1.758  0.2196 -1.3460 -0.0390
  736SOL    HW1 2344   2.862   1.327   1.751 -0.4690 -0.2004  0.0082
  736SOL    HW2 2345   2.944   1.411   1.847  1.2368 -2.1337  0.3079
  737SOL     OW 2346   0.476   0.349   2.271  0.5282  0.4553  0.0245
  737SOL    HW1 2347   0.532   0.395   2.208  1.4536 -2.2467 -1.3158
  737SOL    HW2 2348   0.387   0.376   2.249  0.9795  0.9940 -1.2064
  738SOL     OW 2349   1.993   1.778   1.231 -0.3133 -0.4853  0.0072
  738SOL    HW1 2350   2.009   1.863   1.189  1.2034 -1.1922 -0.9357
  738SOL    HW2 2351   2.002   1.714   1.161  2.9321 -1.7637  1.3889
  739SOL     OW 2352   1.239   3.346   0.182  0.5729  0.7787  0.4322
  739SOL    HW1 2353   1.219   3.343   0.088 -0.4537  2.3701  0.5520
  739SOL    HW2 2354   1.315   3.288   0.192 -0.2424 -0.6564 -1.1065
  740SOL     OW 2355   0.123   3.484   3.383  0.1535 -0.0255 -0.6547
  740SOL    HW1 2356   0.039   3.468   3.340 -1.0418  0.9018  1.2085
  740SOL    HW2 2357   0.168   3.546   3.325 -1.2976  0.9985 -0.7499
  741SOL     OW 2358   0.153   0.166   3.052 -0.3880 -0.6898  0.2570
  741SOL    HW1 2359   0.094   0.097   3.020  0.2998 -0.6945 -1.0810
  741SOL    HW2 2360   0.238   0.144   3.013 -0.1036  0.7716  0.0150
  742SOL     OW 2361   2.439   0.232   1.937  0.1044  0.1448 -0.2403
  742SOL    HW1 2362   2.405   0.305   1.988 -0.3255 -0.8984  1.0310
  742SOL    HW2 2363   2.527   0.218   1.972  0.8514  1.0972 -1.6448
  743SOL     OW 2364   2.118   2.092   3.183  0.3952 -0.2406  0.7234
  743SOL    HW1 2365   2.055   2.043   3.129  1.3283  0.1579 -0.8052
  743SOL    HW2 2366   2.203   2.073   3.143  0.9257  1.5443  0.9298
  744SOL     OW 2367   2.535   2.565   0.939 -0.6021 -0.5675  0.2089
  744SOL    HW1 2368   2.502   2.504   1.004 -0.8770 -1.0678 -0.3861
  744SOL    HW2 2369   2.456   2.601   0.898 -0.4315 -0.6588 -0.2103
  745SOL     OW 2370   2.081   3.534   3.237  0.1179 -0.1057 -0.1385
  745SOL    HW1 2371   2.154   3.586   3.204  1.5704 -1.2277  1.1686
  745SOL    HW2 2372   2.026   3.518   3.161  1.7057  0.0147 -1.3607
  746SOL     OW 2373   3.569   0.353   3.083 -0.2479 -0.3003 -0.0182
  746SOL    HW1 2374   3.577   0.312   3.169  0.1154 -1.1214 -0.4305
  746SOL    HW2 2375   3.643   0.414   3.078  0.6464 -1.3854 -0.3440
  747SOL     OW 2376   2.853   0.554   0.560  0.2107  0.6999 -0.1827
  747SOL    HW1 2377   2.844   0.491   0.488  0.4424 -0.1679  0.5319
  747SOL    HW2 2378   2.892   0.504   0.631 -0.9937  1.2810  0.9254
  748SOL     OW 2379   3.183   2.825   1.306 -0.0993 -0.5199  0.1203
  748SOL    HW1 2380   3.212   2.897   1.362 -2.2604  2.2482 -2.0159
  748SOL    HW2 2381   3.125   2.773   1.361 -1.8679  1.8966  0.6767
  749SOL     OW 2382   3.677   2.627   1.317 -0.7720 -0.4309 -0.5753
  749SOL    HW1 2383   3.593   2.656   1.354 -0.9366  0.1991 -1.4171
  749SOL    HW2 2384   3.731   2.608   1.393 -1.6701 -0.8203 -0.0171
  750SOL     OW 2385   2.270   0.094   1.594  0.4260  0.1222 -0.6044
  750SOL    HW1 2386   2.331   0.055   1.531  2.3541  0.6820  0.8084
  750SOL    HW2 2387   2.325   0.150   1.648 -1.3233  0.3911  0.9841
  751SOL     OW 2388   0.586   2.360   0.719  0.5471  0.0088  0.1625
  751SOL    HW1 2389   0.617   2.384   0.632  2.0724  1.2963  0.9889
  751SOL    HW2 2390   0.494   2.335   0.707  0.8971 -0.4412 -1.8748
  752SOL     OW 2391   1.038   3.211   2.200  0.6577  0.6598  0.0335
  752SOL    HW1 2392   0.959   3.187   2.151 -0.0880  2.5185  0.2224
  752SOL    HW2 2393   1.095   3.134   2.194 -0.8671 -0.4576 -0.7236
  753SOL     OW 2394   2.889   3.586   0.228  0.1935 -0.3027  0.3738
  753SOL    HW1 2395   2.892   3.550   0.139 -1.8872 -1.9261  0.8778
  753SOL    HW2 2396   2.864   3.677   0.216 -0.3592 -0.5849 -0.7077
  754SOL     OW 2397   0.137   0.617   0.815 -0.0444  0.0746  0.9673
  754SOL    HW1 2398   0.188   0.633   0.736 -1.6221  0.5092 -0.0246
  754SOL    HW2 2399   0.167   0.532   0.847  1.9512  0.7416  1.0121
  755SOL     OW 2400   1.917   0.018   2.042  0.0607 -0.0371 -0.0374
  755SOL    HW1 2401   1.823   0.020   2.060  0.3686  2.2591  1.7579
  755SOL    HW2 2402   1.943   0.110   2.038  2.9502 -0.4257  4.0320
  756SOL     OW 2403   1.626   2.492   2.576  0.3414 -0.0697  0.2983
  756SOL    HW1 2404   1.552   2.501   2.637  1.1184  0.2401  1.2252
  756SOL    HW2 2405   1.688   2.435   2.622  0.5055 -0.6691 -0.6454
  757SOL     OW 2406   2.361   3.693   1.298 -0.4554 -0.2029 -0.4237
  757SOL    HW1 2407   2.353   3.697   1.203  1.8181 -1.8464 -0.7757
  757SOL    HW2 2408   2.454   3.709   1.315 -0.0553 -3.4412  1.1656
  758SOL     OW 2409   0.013   2.347   0.419 -0.3153  0.3061  0.3674
  758SOL    HW1 2410   0.095   2.395   0.403  0.1908 -0.2011  1.3697
  758SOL    HW2 2411  -0.008   2.366   0.510 -1.3246  0.4192  0.1254
  759SOL     OW 2412   1.311   1.591   1.578  0.7168  0.0951 -0.0592
  759SOL    HW1 2413   1.240   1.647   1.609  1.6620  2.6914 -2.1619
  759SOL    HW2 2414   1.360   1.568   1.657  0.8490  3.1538  0.8711
  760SOL     OW 2415   0.087   0.507   1.966  0.0284  0.2480 -0.0090
  760SOL    HW1 2416   0.087   0.603   1.957 -0.2924  0.4795  2.0959
  760SOL    HW2 2417   0.153   0.478   1.904  0.2278  1.8429 -0.6039
  761SOL     OW 2418   1.788   2.128   3.571 -0.0502  1.0151 -0.1070
  761SOL    HW1 2419   1.873   2.091   3.550 -0.6617  0.3947 -1.6257
  761SOL    HW2 2420   1.734   2.054   3.597 -0.5650  1.1723 -0.6919
  762SOL     OW 2421   0.905   2.337   1.590  0.1212 -0.1306  0.3661
  762SOL    HW1 2422   0.974   2.278   1.557 -0.2101 -0.4954  0.3256
  762SOL    HW2 2423   0.902   2.407   1.525 -0.3209 -0.6948 -0.2284
  763SOL     OW 2424   1.383   2.585   3.685  0.6598 -0.1624 -0.1026
  763SOL    HW1 2425   1.421   2.664   3.724 -2.6015  1.3508  0.3295
  763SOL    HW2 2426   1.317   2.556   3.748 -0.1141 -1.6282 -1.5075
  764SOL     OW 2427   3.142   1.707   0.550 -0.1660  0.2246  0.6876
  764SOL    HW1 2428   3.097   1.682   0.631  0.9029  0.5579  1.4028
  764SOL    HW2 2429   3.170   1.624   0.512 -1.8609 -0.0342 -0.0763
  765SOL     OW 2430   3.565   3.076   2.637 -0.0410 -0.4764 -0.2401
  765SOL    HW1 2431   3.649   3.104   2.602  0.2028  0.2108  0.8449
  765SOL    HW2 2432   3.500   3.128   2.588  0.1950 -0.5456 -0.6310
  766SOL     OW 2433   1.123   2.328   0.961 -0.0930 -0.3512  0.2849
  766SOL    HW1 2434   1.085   2.412   0.933  2.0851 -0.1057 -2.3657
  766SOL    HW2 2435   1.081   2.310   1.045 -1.4569  2.8261  0.4497
  767SOL     OW 2436   2.776   2.780   0.273 -0.6303 -0.1048  0.0324
  767SOL    HW1 2437   2.838   2.753   0.340 -0.5048  0.4049  0.1250
  767SOL    HW2 2438   2.690   2.756   0.309 -0.5429 -0.1146  0.2351
  768SOL     OW 2439   0.826   2.974   2.088  0.0426 -0.4104 -0.4495
  768SOL    HW1 2440   0.826   2.883   2.117  0.5614  0.0205  0.9875
  768SOL    HW2 2441   0.893   2.978   2.020  1.3725 -0.7431  0.7889
  769SOL     OW 2442   2.082   2.615   0.093  0.2690 -0.0510 -0.1456
  769SOL    HW1 2443   2.083   2.620  -0.002  0.4857 -1.5256 -0.2444
  769SOL    HW2 2444   2.004   2.564   0.114  0.5917 -0.3205  0.4221
  770SOL     OW 2445   1.911   3.597   3.480  0.1831  0.5756  0.5011
  770SOL    HW1 2446   1.964   3.579   3.403 -0.2102 -0.5031  0.4667
  770SOL    HW2 2447   1.907   3.513   3.527 -0.3685  0.9777  1.1966
  771SOL     OW 2448   0.406   0.377   2.924  0.1421  0.0933  0.4667
  771SOL    HW1 2449   0.348   0.407   2.993  1.9764  1.4701  1.5214
  771SOL    HW2 2450   0.494   0.399   2.956  1.0671  0.8137 -2.2909
  772SOL     OW 2451   3.249   3.661   3.323  0.0130 -0.7466 -0.5560
  772SOL    HW1 2452   3.248   3.571   3.289 -1.7522 -1.0051  0.0574
  772SOL    HW2 2453   3.161   3.673   3.359 -0.8926  2.2647 -3.2983
  773SOL     OW 2454   2.804   0.524   1.245 -0.6568 -0.1406  0.8497
  773SOL    HW1 2455   2.838   0.600   1.200 -1.3500 -0.3958 -0.1298
  773SOL    HW2 2456   2.877   0.462   1.247  0.0454  0.6670  2.0260
  774SOL     OW 2457   1.055   3.078   1.935  0.1943 -0.1382 -0.0939
  774SOL    HW1 2458   1.071   3.170   1.956  0.6802 -0.4879  1.1832
  774SOL    HW2 2459   1.136   3.047   1.896  0.8799 -0.5799  1.5856
  775SOL     OW 2460   0.408   2.071   2.488 -0.2099 -0.2638 -0.3713
  775SOL    HW1 2461   0.379   1.995   2.438 -1.4331  0.4904 -0.8510
  775SOL    HW2 2462   0.402   2.145   2.427 -0.3999  0.4472  0.4843
  776SOL     OW 2463   2.961   2.872   1.512  0.2311  0.4769 -0.2718
  776SOL    HW1 2464   3.034   2.885   1.572 -0.9959  0.2112  1.3649
  776SOL    HW2 2465   2.883   2.883   1.567 -0.9680  0.8550 -1.9726
  777SOL     OW 2466   0.923   2.519   0.149  0.2188  0.6834 -0.1869
  777SOL    HW1 2467   0.891   2.458   0.215  2.8202 -1.1604 -0.4707
  777SOL    HW2 2468   0.854   2.521   0.083 -1.0433  0.0882  1.0631
  778SOL     OW 2469   1.781   2.610   2.396 -0.0558  0.0089  0.1837
  778SOL    HW1 2470   1.719   2.576   2.461 -0.9180  0.6116 -0.2911
  778SOL    HW2 2471   1.726   2.657   2.333  0.5847 -1.6372 -1.7270
  779SOL     OW 2472   0.117   2.187   0.115 -0.2450 -0.0525 -0.4479
  779SOL    HW1 2473   0.070   2.107   0.136  0.0827 -0.2662 -0.5183
  779SOL    HW2 2474   0.052   2.243   0.074 -0.3173 -0.5410 -1.0130
  780SOL     OW 2475   3.311   2.311   0.099  0.9360  1.6193  0.1635
  780SOL    HW1 2476   3.289   2.244   0.034 -0.1413  0.4894  1.6160
  780SOL    HW2 2477   3.342   2.261   0.175  0.2121  2.7735  1.2488
  781SOL     OW 2478   1.331   0.700   3.565  0.3244  0.0264  0.3688
  781SOL    HW1 2479   1.419   0.735   3.559  0.6705 -1.0319 -1.6665
  781SOL    HW2 2480   1.280   0.752   3.504  0.2824 -1.3042 -0.7907
  782SOL     OW 2481   0.219   1.752   2.598 -0.4782  0.5951 -0.2596
  782SOL    HW1 2482   0.300   1.718   2.634 -1.5100 -2.3672 -0.4680
  782SOL    HW2 2483   0.245   1.796   2.517  0.8471 -1.4820 -1.0451
  783SOL     OW 2484   0.224   1.267   1.289  0.3971 -0.5341  0.0779
  783SOL    HW1 2485   0.306   1.303   1.255  0.7257 -1.8759 -0.6327
  783SOL    HW2 2486   0.156   1.303   1.233  0.6234 -0.3231 -0.0616
  784SOL     OW 2487   0.164   2.714   0.625 -0.3592 -0.0682  0.3211
  784SOL    HW1 2488   0.206   2.739   0.543 -0.3292  0.1432  0.4004
  784SOL    HW2 2489   0.235   2.677   0.678 -0.3508 -0.0767  0.3038
  785SOL     OW 2490   0.594   0.630   0.418  0.1154  0.6953  0.1361
  785SOL    HW1 2491   0.553   0.544   0.409 -1.1899  1.4350 -1.5796
  785SOL    HW2 2492   0.688   0.614   0.408 -0.2287 -0.3675 -1.7323
  786SOL     OW 2493   2.266   1.893   1.933  0.4118 -0.5393 -0.2329
  786SOL    HW1 2494   2.269   1.806   1.973  0.7708  0.2406  1.5365
  786SOL    HW2 2495   2.219   1.947   1.997 -1.6818  0.1448 -2.2265
  787SOL     OW 2496   2.745   1.788   1.349 -0.8055  0.3069 -0.1271
  787SOL    HW1 2497   2.664   1.762   1.391 -0.2231  0.5442  1.1888
  787SOL    HW2 2498   2.811   1.785   1.418  0.2987  0.1928 -1.1458
  788SOL     OW 2499   2.076   0.949   0.769 -0.1304  0.1956  0.3169
  788SOL    HW1 2500   2.013   1.019   0.755  0.7263  0.8497 -0.3927
  788SOL    HW2 2501   2.081   0.941   0.864 -1.8644 -0.4344  0.3863
  789SOL     OW 2502   0.374   1.444   2.186  0.1149  0.5921  0.2868
  789SOL    HW1 2503   0.359   1.538   2.183  0.5108  0.6792  0.7637
  789SOL    HW2 2504   0.443   1.428   2.121 -0.4220  0.5279 -0.2739
  790SOL     OW 2505   1.474   0.859   1.387 -0.4668  0.3790  0.5203
  790SOL    HW1 2506   1.489   0.841   1.295  0.6653 -0.0317  0.7705
  790SOL    HW2 2507   1.456   0.953   1.391  0.5391  0.6068  0.0018
  791SOL     OW 2508   0.284   2.688   3.230  0.6319 -0.1994 -0.3601
  791SOL    HW1 2509   0.255   2.697   3.139  1.9532 -1.7440 -1.0071
  791SOL    HW2 2510   0.367   2.736   3.234  0.9201 -0.6966 -0.1829
  792SOL     OW 2511   2.536   3.239   0.907 -0.4620 -0.1101 -0.3722
  792SOL    HW1 2512   2.466   3.258   0.845  0.7023  4.0123 -0.7211
  792SOL    HW2 2513   2.492   3.201   0.982 -3.0117  1.5793 -0.8990
  793SOL     OW 2514   1.837   2.884   1.824 -0.0850  0.5929  0.2051
  793SOL    HW1 2515   1.775   2.833   1.771 -0.4158  0.2219  0.9411
  793SOL    HW2 2516   1.880   2.942   1.761 -1.3363  1.0181 -0.2878
  794SOL     OW 2517   0.302   3.257   3.451  0.4569  0.1840  0.2788
  794SOL    HW1 2518   0.232   3.307   3.408  0.0323 -1.2029 -0.7116
  794SOL    HW2 2519   0.312   3.298   3.537 -2.7620 -0.5941  1.1438
  795SOL     OW 2520   0.311   3.513   0.181  0.1130  0.2119  0.4855
  795SOL    HW1 2521   0.327   3.444   0.247  2.7795  0.0641 -0.1769
  795SOL    HW2 2522   0.237   3.481   0.130  0.1747 -1.3352  1.3052
  796SOL     OW 2523   1.854   0.862   0.206  0.6459 -0.4679  0.0134
  796SOL    HW1 2524   1.927   0.801   0.214  1.2535  0.2877  0.4717
  796SOL    HW2 2525   1.782   0.821   0.254  2.0395  0.6327  3.3514
  797SOL     OW 2526   1.476   2.959   1.530  0.0614 -0.0595 -0.2531
  797SOL    HW1 2527   1.442   2.967   1.441 -0.5148 -2.1407 -0.2843
  797SOL    HW2 2528   1.515   3.044   1.549  0.0047  0.5054 -2.4086
  798SOL     OW 2529   2.821   3.219   3.485  0.0303 -0.3899 -0.1196
  798SOL    HW1 2530   2.780   3.225   3.571 -2.3645 -2.9525 -0.9648
  798SOL    HW2 2531   2.772   3.281   3.431  1.3623  1.0220  0.2121
  799SOL     OW 2532   3.006   0.374   1.206  0.0175  0.2710  0.7132
  799SOL    HW1 2533   3.088   0.421   1.192  0.7646 -1.5047 -1.5977
  799SOL    HW2 2534   3.030   0.300   1.263 -0.5182  1.0130  1.9363
  800SOL     OW 2535   2.889   1.837   2.210  0.0373  0.3447  0.3640
  800SOL    HW1 2536   2.829   1.775   2.251  1.3928 -0.4672  1.1901
  800SOL    HW2 2537   2.916   1.895   2.281  0.7834  0.2405  0.1765
  801SOL     OW 2538   2.651   2.432   1.463  0.8229  0.2387  0.1534
  801SOL    HW1 2539   2.640   2.420   1.368 -1.2612 -0.7909  0.4755
  801SOL    HW2 2540   2.586   2.498   1.487  1.0964  0.2351  0.9407
  802SOL     OW 2541   0.124   2.781   1.175  0.7360  0.0064 -0.5005
  802SOL    HW1 2542   0.062   2.729   1.225 -0.3947  0.1214 -1.7115
  802SOL    HW2 2543   0.175   2.828   1.241 -1.6409  1.2547  0.5621
  803SOL     OW 2544   1.079   0.979   2.463  0.5696  0.0339  0.3097
  803SOL    HW1 2545   1.014   1.012   2.525  0.2872 -1.7842  1.0509
  803SOL    HW2 2546   1.141   1.051   2.452 -0.6762  1.2421  0.8332
  804SOL     OW 2547   0.448   0.230   2.648  0.7811 -0.1156 -0.0824
  804SOL    HW1 2548   0.431   0.324   2.642 -0.1842 -0.2174  0.7432
  804SOL    HW2 2549   0.539   0.220   2.620  0.1813  0.7666 -2.6288
  805SOL     OW 2550   3.533   1.131   3.085 -0.2166 -0.9008 -0.0163
  805SOL    HW1 2551   3.456   1.087   3.121 -0.2345 -0.4151  0.5468
  805SOL    HW2 2552   3.605   1.104   3.142 -0.4710  0.9425  1.2715
  806SOL     OW 2553   2.261   0.612   3.356  0.1393  0.2298 -0.0545
  806SOL    HW1 2554   2.266   0.553   3.281 -3.2197 -0.8366  0.3812
  806SOL    HW2 2555   2.319   0.574   3.421  3.1043  1.1571 -1.9677
  807SOL     OW 2556   3.684   1.008   1.496  0.4735  0.3222  0.5269
  807SOL    HW1 2557   3.665   1.089   1.544 -0.6248  0.9619 -0.9047
  807SOL    HW2 2558   3.629   0.942   1.539 -2.5243  1.4174 -1.2972
  808SOL     OW 2559   0.314   2.713   2.048  0.6216 -0.5107 -0.7411
  808SOL    HW1 2560   0.221   2.736   2.047  1.1672  2.0019  0.0027
  808SOL    HW2 2561   0.320   2.636   1.992 -1.9058 -0.7900 -0.7396
  809SOL     OW 2562   2.628   2.934   0.930  0.5843 -0.0704  0.3333
  809SOL    HW1 2563   2.564   2.981   0.983  0.3596 -0.0016  0.0073
  809SOL    HW2 2564   2.576   2.871   0.880  0.8976 -0.7615  0.8604
  810SOL     OW 2565   3.028   3.425   1.883 -0.1784  0.3581 -0.3868
  810SOL    HW1 2566   3.089   3.462   1.947  0.9312 -2.1601  0.1250
  810SOL    HW2 2567   2.947   3.410   1.933 -0.2611  0.9910 -0.3198
  811SOL     OW 2568   3.441   2.733   1.440 -0.1619  0.3883  0.1667
  811SOL    HW1 2569   3.347   2.721   1.452 -0.1051  0.0866  0.3106
  811SOL    HW2 2570   3.448   2.810   1.384 -0.5116  0.0938 -0.2860
  812SOL     OW 2571   1.003   1.513   1.116  0.5621 -0.4442 -0.0687
  812SOL    HW1 2572   0.966   1.505   1.204 -0.8412  1.4918 -0.4100
  812SOL    HW2 2573   0.972   1.434   1.070 -0.9331 -0.1989  0.4494
  813SOL     OW 2574   2.589   2.011   0.748 -0.0199  0.2302 -0.2073
  813SOL    HW1 2575   2.514   1.999   0.689 -0.6549 -0.9765  0.8172
  813SOL    HW2 2576   2.588   1.934   0.805  1.4354  0.6713  0.4585
  814SOL     OW 2577   0.330   3.447   2.627 -0.2405  0.3364 -0.3886
  814SOL    HW1 2578   0.321   3.431   2.533  0.7954 -1.2816 -0.2510
  814SOL    HW2 2579   0.280   3.377   2.668  0.5376  0.1464  0.2591
  815SOL     OW 2580   1.640   2.755   1.665 -0.0068  0.1419 -0.2878
  815SOL    HW1 2581   1.587   2.826   1.629  0.2183  0.7464  0.5543
  815SOL    HW2 2582   1.582   2.679   1.664 -0.5238  0.5360 -0.4103
  816SOL     OW 2583   1.710   3.561   2.867  0.1777  0.2358  0.5953
  816SOL    HW1 2584   1.759   3.643   2.866  1.9227 -0.7494  1.3804
  816SOL    HW2 2585   1.653   3.566   2.791 -0.6170  2.6615  1.2716
  817SOL     OW 2586   0.153   1.857   0.511  0.0070  0.0387 -0.6400
  817SOL    HW1 2587   0.231   1.879   0.562 -1.7507  0.3154  2.0898
  817SOL    HW2 2588   0.081   1.899   0.557 -1.6841  0.8618 -3.7818
  818SOL     OW 2589   1.547   3.310   2.622  0.0274  0.1135 -0.0900
  818SOL    HW1 2590   1.454   3.310   2.644  0.0581  1.3030  0.0621
  818SOL    HW2 2591   1.591   3.323   2.706  0.4279 -1.9369  0.0874
  819SOL     OW 2592   1.355   2.338   2.845  0.0306  0.0733  0.3940
  819SOL    HW1 2593   1.268   2.375   2.858 -0.8035 -1.6891  0.1926
  819SOL    HW2 2594   1.412   2.413   2.830 -1.5072  1.2424  0.2267
  820SOL     OW 2595   0.602   1.873   1.014 -0.6461  0.5268  0.5766
  820SOL    HW1 2596   0.665   1.935   1.051 -0.8091  0.5261  0.8546
  820SOL    HW2 2597   0.639   1.849   0.929  0.2117 -0.2342  1.1622
  821SOL     OW 2598   2.246   0.106   0.293  0.5262 -0.0042  0.1409
  821SOL    HW1 2599   2.184   0.034   0.299 -0.1149  0.5460  0.2348
  821SOL    HW2 2600   2.312   0.087   0.359 -1.0337  0.8161  2.0427
  822SOL     OW 2601   2.383   1.570   2.258 -0.0273  0.1169 -0.3086
  822SOL    HW1 2602   2.358   1.493   2.309  3.8551 -1.6734 -0.7067
  822SOL    HW2 2603   2.366   1.644   2.316 -3.1242 -1.0157  0.4033
  823SOL     OW 2604   3.028   1.496   3.335  0.0313  0.1659 -0.5538
  823SOL    HW1 2605   2.947   1.450   3.356  0.8268 -0.9359  0.1491
  823SOL    HW2 2606   3.086   1.480   3.409  0.2994  2.4527 -0.1949
  824SOL     OW 2607   2.517   1.143   0.928  0.6300 -0.0362  0.0114
  824SOL    HW1 2608   2.590   1.196   0.960 -1.0345  2.2074  0.3444
  824SOL    HW2 2609   2.470   1.201   0.868 -0.9533 -1.3780 -0.1092
  825SOL     OW 2610   1.815   0.445   2.237 -0.0409 -0.1049 -0.6293
  825SOL    HW1 2611   1.829   0.537   2.216  1.3295 -0.0838  0.3188
  825SOL    HW2 2612   1.720   0.438   2.249 -0.1767  1.1446 -0.8373
  826SOL     OW 2613   2.820   1.729   3.005  0.0357  0.1870 -0.0892
  826SOL    HW1 2614   2.814   1.781   2.925  0.6736  2.1286  1.0239
  826SOL    HW2 2615   2.909   1.693   3.004  0.0360  0.1958 -0.2799
  827SOL     OW 2616   1.243   0.397   0.741 -0.8641 -0.1121  0.3341
  827SOL    HW1 2617   1.194   0.362   0.816 -0.8369 -2.7668 -0.7629
  827SOL    HW2 2618   1.298   0.324   0.712  0.2469  1.3057 -1.3738
  828SOL     OW 2619   3.093   1.076   1.367 -0.2891 -0.4113  0.1445
  828SOL    HW1 2620   3.047   1.159   1.379  0.8260  0.1479  0.7787
  828SOL    HW2 2621   3.143   1.088   1.287 -0.1849 -0.5021  0.1962
  829SOL     OW 2622   3.724   3.586   1.005 -0.1414  0.3877 -0.0928
  829SOL    HW1 2623   3.724   3.491   1.001 -0.1289  0.2857  1.5155
  829SOL    HW2 2624   3.632   3.611   1.001 -0.2587  0.1896  0.9441
  830SOL     OW 2625   3.465   1.196   1.458  0.2155  0.0410  0.0176
  830SOL    HW1 2626   3.482   1.222   1.368 -0.1895 -1.8788 -0.6440
  830SOL    HW2 2627   3.492   1.105   1.463 -0.4978 -0.1156  1.6288
  831SOL     OW 2628   3.377   1.865   0.425 -0.8415 -0.3515 -0.2456
  831SOL    HW1 2629   3.403   1.812   0.349 -1.2082 -1.0566  0.1125
  831SOL    HW2 2630   3.318   1.808   0.475 -0.5822  0.0960  0.5844
  832SOL     OW 2631   0.239   0.340   0.293  0.7732 -0.0045 -0.0980
  832SOL    HW1 2632   0.196   0.308   0.372  0.3439 -1.8865 -1.0418
  832SOL    HW2 2633   0.270   0.261   0.248 -0.7149  0.8061 -2.7624
  833SOL     OW 2634   2.241   2.941   0.906 -0.0398  0.3424  0.0018
  833SOL    HW1 2635   2.276   2.999   0.838 -0.1033  1.4453  0.8641
  833SOL    HW2 2636   2.296   2.959   0.983 -1.9748  1.6069  1.1882
  834SOL     OW 2637   1.012   2.188   3.209 -0.0417 -0.4345 -0.4424
  834SOL    HW1 2638   0.932   2.240   3.206  0.1081 -0.2475 -1.6381
  834SOL    HW2 2639   1.083   2.252   3.204  0.1444 -0.7180 -1.7618
  835SOL     OW 2640   1.196   1.011   2.061  0.4508 -0.1701 -0.3018
  835SOL    HW1 2641   1.139   0.945   2.101 -0.7958  1.4270  0.6869
  835SOL    HW2 2642   1.137   1.063   2.006  1.1937  0.7300 -0.2719
  836SOL     OW 2643   1.470   3.593   2.684  0.2834 -0.2104 -0.7531
  836SOL    HW1 2644   1.406   3.624   2.620 -0.3958  0.5811  0.2741
  836SOL    HW2 2645   1.417   3.554   2.754  0.6560  2.5023  1.2547
  837SOL     OW 2646   1.356   1.815   0.259  0.3582  0.6693  0.2285
  837SOL    HW1 2647   1.328   1.791   0.348 -0.5083  1.3777  0.1655
  837SOL    HW2 2648   1.449   1.833   0.268  0.5178 -0.3601  0.7571
  838SOL     OW 2649   0.040   2.799   2.008 -1.1476 -0.1315  0.0013
  838SOL    HW1 2650   0.069   2.888   1.989 -1.5617 -0.0859 -0.4216
  838SOL    HW2 2651  -0.050   2.795   1.976 -1.4365 -0.4405  0.8074
  839SOL     OW 2652   2.848   2.448   0.455  0.1745 -0.1691 -0.1892
  839SOL    HW1 2653   2.868   2.506   0.528 -1.7304  0.2839  0.0211
  839SOL    HW2 2654   2.921   2.459   0.394 -0.0213  2.2811 -0.0530
  840SOL     OW 2655   1.870   1.505   1.788 -0.8782  0.3622  0.2292
  840SOL    HW1 2656   1.862   1.422   1.741 -1.6128 -0.4104  1.6599
  840SOL    HW2 2657   1.838   1.486   1.876 -0.4364  2.0068  0.7787
  841SOL     OW 2658   2.001   3.530   1.902 -0.1210 -0.0975  0.3250
  841SOL    HW1 2659   1.999   3.590   1.977 -0.1355 -1.2047  1.2458
  841SOL    HW2 2660   1.954   3.576   1.833 -1.5700  0.2961  1.5224
  842SOL     OW 2661   0.550   1.335   3.038 -0.0405 -0.3186  0.2195
  842SOL    HW1 2662   0.538   1.425   3.009 -0.3234 -0.1272  0.9130
  842SOL    HW2 2663   0.545   1.339   3.133  2.3042 -0.7265  0.4172
  843SOL     OW 2664   0.288   2.530   2.761  0.6834 -0.3571 -0.1372
  843SOL    HW1 2665   0.365   2.548   2.707  0.7117 -1.0210 -0.3311
  843SOL    HW2 2666   0.248   2.452   2.721  0.8718 -1.0525  0.9713
  844SOL     OW 2667   3.505   1.784   0.200 -0.8286 -0.8423  0.3455
  844SOL    HW1 2668   3.597   1.808   0.196 -0.5431 -1.7489  1.1634
  844SOL    HW2 2669   3.466   1.826   0.123  0.1232  0.0981  0.3629
  845SOL     OW 2670   3.595   1.891   0.579 -0.6390 -0.1618  0.3103
  845SOL    HW1 2671   3.597   1.807   0.626 -0.8362 -0.8020 -0.7924
  845SOL    HW2 2672   3.517   1.885   0.524 -1.7018  1.5040  1.5472
  846SOL     OW 2673   2.659   2.291   3.213 -0.1689 -0.0219 -0.1044
  846SOL    HW1 2674   2.638   2.335   3.131 -0.1775 -0.2398 -0.2190
  846SOL    HW2 2675   2.753   2.305   3.225 -0.5584  1.9438  0.9899
  847SOL     OW 2676   3.078   2.237   1.371 -0.4979 -0.8573  0.0092
  847SOL    HW1 2677   2.988   2.248   1.340 -1.4036  0.0002  2.6343
  847SOL    HW2 2678   3.075   2.155   1.421 -0.4501  0.2476  1.9110
  848SOL     OW 2679   2.918   1.674   3.651  0.4577 -0.3866 -0.2382
  848SOL    HW1 2680   2.888   1.584   3.650  1.6594 -0.8098 -2.0279
  848SOL    HW2 2681   3.008   1.671   3.619  0.7961  1.3739  0.3768
  849SOL     OW 2682   3.729   0.693   0.111 -0.5280  0.0149  0.8987
  849SOL    HW1 2683   3.681   0.665   0.034  0.3471 -0.5256  0.5378
  849SOL    HW2 2684   3.720   0.789   0.112  1.2364  0.2778 -1.1116
  850SOL     OW 2685   1.956   0.179   3.679 -0.2197 -0.3230  0.3247
  850SOL    HW1 2686   2.018   0.250   3.691 -1.9502  1.1420  1.0100
  850SOL    HW2 2687   2.008   0.099   3.690  2.2646  0.6820 -2.7092
  851SOL     OW 2688   3.548   2.872   3.200 -0.1097 -0.0059  0.5583
  851SOL    HW1 2689   3.594   2.879   3.116  1.4984 -2.0797  1.1784
  851SOL    HW2 2690   3.590   2.937   3.255  0.0177  0.1881  0.2356
  852SOL     OW 2691   0.827   2.297   2.883  0.1324  0.5183  0.2284
  852SOL    HW1 2692   0.813   2.367   2.820 -0.1377  1.0062  0.8295
  852SOL    HW2 2693   0.917   2.310   2.914  0.8968 -0.7253 -1.2728
  853SOL     OW 2694   3.393   0.429   2.417 -0.0631  0.5468 -0.8063
  853SOL    HW1 2695   3.356   0.397   2.499 -1.4747  0.6653 -1.3686
  853SOL    HW2 2696   3.330   0.494   2.386  0.8634  1.1126 -1.5732
  854SOL     OW 2697   3.315   0.606   3.515 -0.2914  0.2442  0.0483
  854SOL    HW1 2698   3.332   0.627   3.607  1.6869  1.6860 -0.6055
  854SOL    HW2 2699   3.278   0.686   3.478  0.6355  0.2867 -0.8258
  855SOL     OW 2700   0.823   2.042   1.728 -0.1421 -0.1186 -0.2838
  855SOL    HW1 2701   0.918   2.055   1.735 -0.1924 -0.1767  0.6167
  855SOL    HW2 2702   0.814   1.958   1.684  0.2822 -1.3513  1.8237
  856SOL     OW 2703   0.549   3.284   0.073 -1.0667  0.1857 -0.0201
  856SOL    HW1 2704   0.565   3.295  -0.020 -0.4399  0.4384  0.1116
  856SOL    HW2 2705   0.461   3.248   0.078 -1.2873  0.6218 -0.6857
  857SOL     OW 2706   1.628   1.220   3.398  0.3751  0.3757  0.2257
  857SOL    HW1 2707   1.664   1.297   3.441 -2.8576  2.0625  0.2170
  857SOL    HW2 2708   1.653   1.147   3.455 -1.8330  2.2330  3.9248
  858SOL     OW 2709   2.628   1.872   3.493  0.0523  0.9382 -0.2091
  858SOL    HW1 2710   2.666   1.843   3.575  1.5128 -0.6172 -1.3649
  858SOL    HW2 2711   2.695   1.854   3.427 -1.4762  1.1088 -1.9085
  859SOL     OW 2712   1.150   2.052   0.893 -0.3108  0.3281  0.0340
  859SOL    HW1 2713   1.161   2.141   0.928 -0.1175 -0.3262  1.6782
  859SOL    HW2 2714   1.221   2.002   0.932 -1.4078 -0.9429  0.4519
  860SOL     OW 2715   1.992   0.694   2.458 -0.1445  0.2435  0.2929
  860SOL    HW1 2716   2.087   0.706   2.454 -0.0801 -0.5018 -2.2645
  860SOL    HW2 2717   1.966   0.684   2.367 -2.9535  2.3214  0.7445
  861SOL     OW 2718   1.669   3.670   2.152  0.4879 -0.0694 -0.4989
  861SOL    HW1 2719   1.645   3.745   2.207  0.2259  0.9431 -1.9443
  861SOL    HW2 2720   1.586   3.644   2.111  0.4219 -1.6761  0.5772
  862SOL     OW 2721   3.687   3.685   1.881  0.0446  0.9764  0.4756
  862SOL    HW1 2722   3.593   3.671   1.867  0.3332  1.1949 -2.0386
  862SOL    HW2 2723   3.729   3.626   1.818  1.5947  1.4057  1.0825
  863SOL     OW 2724   1.175   2.196   2.643 -0.4662 -0.4915 -0.1102
  863SOL    HW1 2725   1.260   2.167   2.610 -0.1801  0.2337 -0.0327
  863SOL    HW2 2726   1.170   2.159   2.732 -0.1025 -0.2917 -0.0049
  864SOL     OW 2727   3.445   2.114   2.858  0.3809 -0.4255  0.3246
  864SOL    HW1 2728   3.382   2.055   2.816  1.0602  0.4788 -2.0949
  864SOL    HW2 2729   3.521   2.114   2.800 -0.2316  4.1303 -0.8745
  865SOL     OW 2730   1.142   3.315   3.447  0.3790 -0.3113 -0.3103
  865SOL    HW1 2731   1.139   3.231   3.402  0.5040  0.7154 -2.4050
  865SOL    HW2 2732   1.130   3.380   3.377 -1.1515  1.3833  1.4025
  866SOL     OW 2733   0.495   2.293   2.752  0.3315 -0.0187  0.1939
  866SOL    HW1 2734   0.536   2.218   2.795 -1.9787 -0.2721  2.1385
  866SOL    HW2 2735   0.402   2.286   2.775 -0.4716  1.7665 -2.1246
  867SOL     OW 2736   2.594   1.927   1.640  0.4027 -0.7646 -0.2391
  867SOL    HW1 2737   2.613   1.980   1.562  1.2183 -1.9483 -0.8733
  867SOL    HW2 2738   2.587   1.991   1.711  1.6264  0.1825 -0.9267
  868SOL     OW 2739   0.434   0.313   1.064 -0.0258 -0.1903  0.2434
  868SOL    HW1 2740   0.495   0.282   1.131 -0.7595 -2.2436  0.0251
  868SOL    HW2 2741   0.403   0.397   1.097  0.6669 -0.5124  1.8070
  869SOL     OW 2742   1.004   3.275   0.292 -0.0221  0.1804 -0.4620
  869SOL    HW1 2743   1.090   3.275   0.249 -0.8988 -2.9139 -2.5121
  869SOL    HW2 2744   1.010   3.207   0.359 -1.1888 -1.0599 -1.5499
  870SOL     OW 2745   2.518   3.609   3.584 -0.1937 -0.3772  0.3070
  870SOL    HW1 2746   2.493   3.621   3.675 -0.4163  1.0095  0.0873
  870SOL    HW2 2747   2.458   3.665   3.535 -0.4897 -1.5798 -0.7600
  871SOL     OW 2748   0.544   1.702   3.256 -0.4175 -0.0282 -0.8134
  871SOL    HW1 2749   0.588   1.787   3.256 -1.1111  0.3445 -0.8004
  871SOL    HW2 2750   0.471   1.714   3.196 -2.3413  0.3734  1.4453
  872SOL     OW 2751   0.707   3.625   1.150  0.0046  0.3563 -0.2416
  872SOL    HW1 2752   0.620   3.665   1.147  0.7927  2.1744 -0.0485
  872SOL    HW2 2753   0.706   3.571   1.229 -1.0330  0.1151 -0.4028
  873SOL     OW 2754   3.290   2.573   0.070  0.3665  0.0022  0.1370
  873SOL    HW1 2755   3.297   2.484   0.104  0.4556  0.1614  0.5475
  873SOL    HW2 2756   3.332   2.628   0.137  1.2898  0.2379 -0.6043
  874SOL     OW 2757   1.452   1.358   2.801  0.1644  0.2981 -0.4370
  874SOL    HW1 2758   1.385   1.395   2.858 -0.7147 -1.1033 -0.4944
  874SOL    HW2 2759   1.529   1.349   2.857 -0.4051 -0.1901  0.2942
  875SOL     OW 2760   0.439   0.579   1.193  0.4579 -0.3688 -0.1875
  875SOL    HW1 2761   0.464   0.668   1.168  0.5488 -0.0477  0.9470
  875SOL    HW2 2762   0.361   0.591   1.247  0.9183 -0.8879  0.6266
  876SOL     OW 2763   2.215   0.440   3.131  0.2261  0.4967  0.4874
  876SOL    HW1 2764   2.271   0.430   3.054  0.4187 -0.7974  0.7778
  876SOL    HW2 2765   2.127   0.420   3.099  0.6861 -3.6863  1.2228
  877SOL     OW 2766   3.479   1.593   0.511  0.0428 -0.5002 -0.0318
  877SOL    HW1 2767   3.574   1.604   0.514 -0.0492  0.6480 -0.8670
  877SOL    HW2 2768   3.457   1.553   0.596  1.0388  1.0455  0.9966
  878SOL     OW 2769   1.887   3.480   0.840 -0.7742 -0.1784  0.1734
  878SOL    HW1 2770   1.907   3.564   0.797  0.3400 -0.4917  0.0465
  878SOL    HW2 2771   1.959   3.469   0.903  0.1167 -1.9017 -1.0730
  879SOL     OW 2772   2.556   0.501   3.126  0.0298 -0.8985  0.0800
  879SOL    HW1 2773   2.634   0.554   3.108  0.0735 -1.5384 -1.8795
  879SOL    HW2 2774   2.559   0.485   3.220  0.5166  1.7491  0.5739
  880SOL     OW 2775   0.801   1.189   0.200 -0.6593  0.1114 -0.7934
  880SOL    HW1 2776   0.891   1.160   0.211 -0.5597  1.1445  1.8176
  880SOL    HW2 2777   0.753   1.145   0.270 -1.4380  2.2829  0.1263
  881SOL     OW 2778   3.270   1.262   0.850  0.0922  0.5753 -0.2994
  881SOL    HW1 2779   3.242   1.184   0.803 -0.6763  0.7927 -0.2199
  881SOL    HW2 2780   3.193   1.290   0.898  0.7711  0.5417  0.8489
  882SOL     OW 2781   2.209   1.196   3.259 -0.3982 -0.8730 -0.1273
  882SOL    HW1 2782   2.141   1.158   3.316 -0.6858 -0.7990 -0.4209
  882SOL    HW2 2783   2.161   1.237   3.188 -0.0903  0.0917  0.2098
  883SOL     OW 2784   3.648   3.357   2.460 -0.9682  0.6955 -0.2532
  883SOL    HW1 2785   3.569   3.305   2.466 -2.0754  2.4638  2.1712
  883SOL    HW2 2786   3.617   3.448   2.452  0.8620  1.2267 -2.5657
  884SOL     OW 2787   1.753   0.401   2.793 -0.2103  0.3053 -0.3450
  884SOL    HW1 2788   1.784   0.444   2.713 -0.9466  0.3095 -0.6347
  884SOL    HW2 2789   1.669   0.363   2.769  0.3676 -1.2370 -0.0780
  885SOL     OW 2790   1.678   1.685   1.630 -0.6511  0.2775 -0.7400
  885SOL    HW1 2791   1.722   1.758   1.588 -0.7362  2.3674  2.4960
  885SOL    HW2 2792   1.749   1.629   1.661 -0.3677  1.4349  0.7750
  886SOL     OW 2793   3.039   2.456   0.252  0.0012  0.0633  0.6187
  886SOL    HW1 2794   2.991   2.387   0.207 -0.9843  0.5356  0.9095
  886SOL    HW2 2795   3.119   2.414   0.283  0.4499 -0.4072 -1.0647
  887SOL     OW 2796   1.151   3.651   1.361 -0.1918 -0.5790 -0.2877
  887SOL    HW1 2797   1.163   3.566   1.405  0.8103 -0.0761  0.4358
  887SOL    HW2 2798   1.219   3.654   1.294 -0.2769 -0.3740 -0.3663
  888SOL     OW 2799   3.586   2.879   1.114 -0.9273  0.6191 -0.3674
  888SOL    HW1 2800   3.527   2.847   1.045  0.5289 -1.6695 -0.6803
  888SOL    HW2 2801   3.639   2.803   1.136  1.8979  2.5092 -0.0860
  889SOL     OW 2802   0.164   0.201   3.577 -0.5529 -0.5737 -0.7098
  889SOL    HW1 2803   0.218   0.213   3.499 -1.3189 -0.7514 -1.2808
  889SOL    HW2 2804   0.211   0.247   3.647 -0.2317  0.2181 -1.4378
  890SOL     OW 2805   1.663   2.415   1.446  0.1694  0.3262  0.1518
  890SOL    HW1 2806   1.601   2.387   1.379  1.3500  0.5869 -1.1082
  890SOL    HW2 2807   1.611   2.422   1.526 -0.9722 -1.5400 -0.3614
  891SOL     OW 2808   1.342   2.923   0.257  0.2804  0.1729  0.2855
  891SOL    HW1 2809   1.314   2.831   0.260 -1.8659  0.7896  0.3692
  891SOL    HW2 2810   1.365   2.943   0.348 -0.1180 -0.0339  0.4364
  892SOL     OW 2811   3.693   2.288   1.334 -0.0017 -0.0383  0.1088
  892SOL    HW1 2812   3.731   2.205   1.305  0.8736  0.4722 -0.2585
  892SOL    HW2 2813   3.706   2.288   1.429 -0.0485 -0.3346  0.1175
  893SOL     OW 2814   1.748   0.465   3.422  0.0394  0.8580  0.1018
  893SOL    HW1 2815   1.716   0.467   3.513  0.2106  1.9862  0.1560
  893SOL    HW2 2816   1.843   0.474   3.430 -0.0258  1.9511 -0.2112
  894SOL     OW 2817   2.583   0.491   1.610  0.2460  0.6225 -0.0834
  894SOL    HW1 2818   2.616   0.504   1.699 -1.1171 -0.1064  0.5494
  894SOL    HW2 2819   2.607   0.572   1.565  2.1839  0.4494  0.5274
  895SOL     OW 2820   3.383   0.171   2.874 -0.5246 -0.2295  0.2334
  895SOL    HW1 2821   3.462   0.140   2.829 -1.0332  0.5899 -1.2758
  895SOL    HW2 2822   3.345   0.236   2.815 -0.2737  2.2543  2.5845
  896SOL     OW 2823   0.645   3.506   1.407  0.3928 -0.1830 -0.0919
  896SOL    HW1 2824   0.664   3.420   1.442  1.6006 -0.2005 -0.7366
  896SOL    HW2 2825   0.549   3.513   1.409  0.3556 -0.8863  1.4564
  897SOL     OW 2826   2.999   1.138   0.311 -0.2775  0.4034  0.7484
  897SOL    HW1 2827   3.058   1.189   0.256  0.5534 -1.0287  0.2773
  897SOL    HW2 2828   2.992   1.188   0.392 -0.2588  1.7386 -0.0453
  898SOL     OW 2829   3.293   1.122   1.161 -0.1171  0.4144 -0.5047
  898SOL    HW1 2830   3.225   1.185   1.138 -0.3049  1.0577  1.5659
  898SOL    HW2 2831   3.371   1.176   1.178 -0.4131  0.2161  1.7891
  899SOL     OW 2832   1.966   1.963   0.656  0.7073 -0.8305 -0.1644
  899SOL    HW1 2833   1.907   2.021   0.704  0.1347 -0.1214 -1.6357
  899SOL    HW2 2834   2.038   2.019   0.628  0.2300 -0.8224 -1.4598
  900SOL     OW 2835   1.922   2.423   1.645  0.4870  0.0379 -0.3283
  900SOL    HW1 2836   1.893   2.366   1.574 -0.0940  0.4551 -0.4346
  900SOL    HW2 2837   1.862   2.403   1.718  0.8086 -0.0839 -0.0976
  901SOL     OW 2838   2.206   0.757   1.761  0.1811  0.5499  0.2252
  901SOL    HW1 2839   2.254   0.715   1.690 -1.7304 -2.1311  0.3915
  901SOL    HW2 2840   2.220   0.701   1.836  0.2971  2.1243  1.4356
  902SOL     OW 2841   0.550   0.476   3.601 -0.3389 -0.1213 -0.0789
  902SOL    HW1 2842   0.467   0.461   3.646  0.1816 -0.2683  0.8743
  902SOL    HW2 2843   0.544   0.426   3.520 -0.8495 -0.8223  0.3882
  903SOL     OW 2844   0.964   3.546   3.730 -0.0529 -0.3651 -0.1484
  903SOL    HW1 2845   0.898   3.567   3.665  0.1851 -0.9801 -0.6072
  903SOL    HW2 2846   1.033   3.611   3.718 -0.6764  0.4409  0.5110
  904SOL     OW 2847   1.008   1.052   1.601 -0.0468  0.0426 -0.4348
  904SOL    HW1 2848   1.038   1.091   1.683  2.8766  2.5935 -2.5210
  904SOL    HW2 2849   0.922   1.092   1.586  0.0227  0.6543  0.6686
  905SOL     OW 2850   0.071   2.522   2.017  1.1909  0.5369  0.3239
  905SOL    HW1 2851  -0.017   2.499   1.988  1.7045 -1.3976  0.1414
  905SOL    HW2 2852   0.060   2.604   2.064 -0.4662  1.1193 -0.9656
  906SOL     OW 2853   1.511   0.186   3.124  0.0172  0.1285  0.0747
  906SOL    HW1 2854   1.511   0.281   3.123 -3.4752  0.2322 -0.5871
  906SOL    HW2 2855   1.489   0.160   3.035  0.8627 -1.3383  0.2526
  907SOL     OW 2856   3.605   1.119   0.765  0.1595 -0.4625  0.0937
  907SOL    HW1 2857   3.599   1.029   0.796 -1.7210 -0.6460 -0.6458
  907SOL    HW2 2858   3.670   1.116   0.694 -0.5629 -1.4552 -0.5564
  908SOL     OW 2859   2.663   3.649   0.514  0.5041  0.0365  0.3058
  908SOL    HW1 2860   2.670   3.630   0.420  3.8917  1.4135  0.1506
  908SOL    HW2 2861   2.715   3.582   0.557 -1.4553 -0.9074  1.3594
  909SOL     OW 2862   2.935   0.782   1.243 -0.4840  0.4687  0.3669
  909SOL    HW1 2863   3.021   0.823   1.242 -0.5507  1.1267 -4.6048
  909SOL    HW2 2864   2.874   0.854   1.227 -1.6453 -0.3979  0.7638
  910SOL     OW 2865   0.861   1.507   0.804 -0.2621 -0.0428 -0.2794
  910SOL    HW1 2866   0.799   1.440   0.833 -0.6106  0.2033 -0.4517
  910SOL    HW2 2867   0.822   1.590   0.832 -0.4675  0.1820 -1.1912
  911SOL     OW 2868   1.209   1.513   2.391 -0.5609  0.7794 -0.4904
  911SOL    HW1 2869   1.287   1.569   2.390 -0.8013  1.1359 -2.1527
  911SOL    HW2 2870   1.192   1.497   2.484  1.1774  1.1217 -0.0891
  912SOL     OW 2871   0.999   2.956   2.932  0.0256  0.7167  0.4660
  912SOL    HW1 2872   1.058   2.970   2.859  0.7824  1.3307  1.1740
  912SOL    HW2 2873   1.053   2.970   3.010 -0.2692 -1.7724  1.2134
  913SOL     OW 2874   2.974   0.195   3.579  0.1646 -0.5969 -0.1009
  913SOL    HW1 2875   3.000   0.255   3.509 -1.7455  1.0975  0.5401
  913SOL    HW2 2876   3.033   0.216   3.651  0.7072 -0.8185 -0.4705
  914SOL     OW 2877   1.741   2.661   0.940 -0.1742 -0.2104  0.5051
  914SOL    HW1 2878   1.816   2.721   0.948  1.4094 -1.8159 -1.3350
  914SOL    HW2 2879   1.703   2.660   1.028  1.1788  1.6278  1.1950
  915SOL     OW 2880   3.354   3.218   2.545 -0.1853  0.0035  0.4652
  915SOL    HW1 2881   3.291   3.171   2.492 -3.6243  2.2021  2.2529
  915SOL    HW2 2882   3.344   3.310   2.520  0.8621  0.6621  2.2241
  916SOL     OW 2883   1.014   1.053   2.960  0.0196  0.4985 -0.3061
  916SOL    HW1 2884   0.998   1.013   2.874 -0.9643 -0.3060  0.2251
  916SOL    HW2 2885   1.049   1.140   2.940 -0.6568  0.5102 -1.5331
  917SOL     OW 2886   0.719   1.163   1.855  0.1397  1.2687 -0.4190
  917SOL    HW1 2887   0.704   1.153   1.761 -3.6898 -1.0986  0.2481
  917SOL    HW2 2888   0.762   1.081   1.881 -0.2327  1.2251  0.0794
  918SOL     OW 2889   0.052   3.075   1.950 -0.3934 -0.4890 -0.3240
  918SOL    HW1 2890   0.046   3.163   1.988  0.5727 -0.2268 -0.7600
  918SOL    HW2 2891  -0.000   3.080   1.870 -1.7343 -0.8059  0.4918
  919SOL     OW 2892   3.628   0.627   2.491 -0.5376  0.0790  0.2050
  919SOL    HW1 2893   3.601   0.602   2.402 -1.1869 -2.7325  1.1091
  919SOL    HW2 2894   3.570   0.579   2.549 -1.6313  3.5605  2.2830
  920SOL     OW 2895   1.655   3.543   3.500  0.2287  0.0636  0.7797
  920SOL    HW1 2896   1.636   3.619   3.446 -0.8391 -1.9019 -1.8298
  920SOL    HW2 2897   1.750   3.533   3.495  0.0898 -0.5877 -1.6248
  921SOL     OW 2898   3.111   1.999   0.971  0.1237  0.1769 -0.4110
  921SOL    HW1 2899   3.021   2.024   0.994 -0.0376 -0.4666 -0.3201
  921SOL    HW2 2900   3.162   2.078   0.986 -0.3912  0.4847 -0.2407
  922SOL     OW 2901   3.468   1.254   3.477 -0.4915 -0.2375 -0.0917
  922SOL    HW1 2902   3.528   1.327   3.466 -2.5518  1.4881 -0.6179
  922SOL    HW2 2903   3.452   1.248   3.571  0.0004 -0.2871 -0.0117
  923SOL     OW 2904   0.194   1.632   3.686 -0.1817  0.1311 -0.3283
  923SOL    HW1 2905   0.242   1.709   3.715  0.6088 -0.3134 -0.4079
  923SOL    HW2 2906   0.110   1.665   3.656  0.5258  1.0928 -1.3236
  924SOL     OW 2907   3.605   3.450   2.154  0.5961 -0.2262 -0.3508
  924SOL    HW1 2908   3.583   3.358   2.142 -1.0470  0.1785 -0.6882
  924SOL    HW2 2909   3.531   3.498   2.117 -0.9203  1.2148  3.9423
  925SOL     OW 2910   1.236   1.327   2.097  0.1438  0.3965  0.3736
  925SOL    HW1 2911   1.182   1.250   2.078  0.3154  0.3190  0.1876
  925SOL    HW2 2912   1.237   1.334   2.192 -0.5421  0.6497  0.3619
  926SOL     OW 2913   2.716   1.252   2.631  0.1895  0.9215 -0.2695
  926SOL    HW1 2914   2.745   1.180   2.687 -0.6751  0.5583 -0.2841
  926SOL    HW2 2915   2.769   1.243   2.551  2.3263  2.1750  0.9090
  927SOL     OW 2916   0.621   3.079   1.834  0.2702 -0.2767 -0.2472
  927SOL    HW1 2917   0.540   3.114   1.871  0.6105  0.5438 -0.2665
  927SOL    HW2 2918   0.661   3.030   1.906  0.1156 -0.0619 -0.0126
  928SOL     OW 2919   0.319   2.408   0.581 -0.3894  0.3969  0.6597
  928SOL    HW1 2920   0.296   2.490   0.537 -1.8645 -0.7893 -0.8980
  928SOL    HW2 2921   0.263   2.406   0.659 -0.5500  0.7588  0.5560
  929SOL     OW 2922   0.689   3.269   1.502 -0.3047 -0.3849 -0.3017
  929SOL    HW1 2923   0.601   3.233   1.492  0.1402 -2.4743  2.2262
  929SOL    HW2 2924   0.744   3.193   1.520  1.4679  1.1579  1.2016
  930SOL     OW 2925   0.782   3.251   3.331 -0.2177 -0.2445  0.1276
  930SOL    HW1 2926   0.876   3.253   3.346 -0.0901 -1.5905 -0.3551
  930SOL    HW2 2927   0.758   3.158   3.338 -1.8427  0.2695  2.1449
  931SOL     OW 2928   1.010   3.245   2.805  1.0823  0.0740 -0.3832
  931SOL    HW1 2929   1.026   3.265   2.897  1.9807  1.1895 -0.7604
  931SOL    HW2 2930   1.013   3.330   2.761 -2.2279 -0.0073 -1.0804
  932SOL     OW 2931   3.490   2.272   3.375 -0.0912 -0.0367  0.3503
  932SOL    HW1 2932   3.433   2.348   3.388 -0.7370 -0.1377 -1.6572
  932SOL    HW2 2933   3.446   2.219   3.310  1.0986 -1.4060  0.5988
  933SOL     OW 2934   2.538   2.684   0.394  0.0390 -0.2958 -0.7253
  933SOL    HW1 2935   2.470   2.683   0.326 -0.4930 -1.8414 -0.2045
  933SOL    HW2 2936   2.507   2.622   0.460 -0.0130  1.9408  1.5090
  934SOL     OW 2937   2.427   1.577   0.544  0.6087  0.2815  0.0388
  934SOL    HW1 2938   2.452   1.500   0.494  1.0586  0.7572 -0.4928
  934SOL    HW2 2939   2.362   1.622   0.489 -0.4860 -0.2816  0.8425
  935SOL     OW 2940   1.139   0.741   2.524 -0.0920  0.6817 -0.1984
  935SOL    HW1 2941   1.107   0.700   2.443 -0.3839 -0.3012  0.3926
  935SOL    HW2 2942   1.140   0.835   2.505  0.4395  0.4303 -1.5508
  936SOL     OW 2943   3.128   0.872   1.974  0.1245  0.6118 -0.1912
  936SOL    HW1 2944   3.115   0.914   2.059  0.1863  1.0309 -0.3870
  936SOL    HW2 2945   3.067   0.917   1.915 -0.5723 -0.2909 -0.1731
  937SOL     OW 2946   2.996   1.501   1.991 -0.1986 -0.0562  0.0326
  937SOL    HW1 2947   3.031   1.574   1.940 -1.2170  0.5502  0.1661
  937SOL    HW2 2948   3.058   1.491   2.063  0.3933  0.1268 -0.4374
  938SOL     OW 2949   2.590   0.902   2.563  0.4795  1.1408 -0.1226
  938SOL    HW1 2950   2.615   0.900   2.656  0.2286  1.4503 -0.0503
  938SOL    HW2 2951   2.495   0.913   2.564  0.4866  1.2127 -0.4197
  939SOL     OW 2952   2.995   3.051   2.910  0.5518 -0.1659 -0.2143
  939SOL    HW1 2953   3.011   3.088   2.822 -1.3488  0.8566 -0.1774
  939SOL    HW2 2954   2.933   2.980   2.895 -2.6269  2.2527  0.5649
  940SOL     OW 2955   0.870   3.221   1.014  0.0798 -0.5290 -0.0278
  940SOL    HW1 2956   0.853   3.163   1.088 -1.4355  0.3025  0.3092
  940SOL    HW2 2957   0.946   3.273   1.041 -0.3718 -0.3308  0.9059
  941SOL     OW 2958   2.223   1.830   0.851 -0.2468  0.0965  0.0671
  941SOL    HW1 2959   2.219   1.803   0.759 -2.0992 -1.8459  0.6619
  941SOL    HW2 2960   2.191   1.921   0.850  0.7434  0.4690 -1.2971
  942SOL     OW 2961   2.296   0.572   1.544 -0.4647 -0.0186  0.1458
  942SOL    HW1 2962   2.375   0.534   1.583 -0.0818 -0.0611 -0.6374
  942SOL    HW2 2963   2.231   0.502   1.546  0.0178 -0.5088 -0.6457
  943SOL     OW 2964   3.296   3.218   0.437 -0.0234  0.3982  0.2758
  943SOL    HW1 2965   3.300   3.182   0.525  0.6790 -0.4038 -0.0742
  943SOL    HW2 2966   3.245   3.299   0.447 -0.4880  0.0023  1.2999
  944SOL     OW 2967   3.056   3.191   2.391 -0.4436 -0.3725 -0.2296
  944SOL    HW1 2968   3.091   3.119   2.444  1.0826  0.3035 -0.2835
  944SOL    HW2 2969   3.019   3.251   2.456  1.0334  0.2447  0.0799
  945SOL     OW 2970   0.829   0.505   3.522  0.2197  0.1163  0.1745
  945SOL    HW1 2971   0.852   0.567   3.591 -0.0458 -0.9498  1.2493
  945SOL    HW2 2972   0.734   0.500   3.526  0.2343 -0.2813  0.0155
  946SOL     OW 2973   3.650   1.596   2.863  0.5533 -0.3099  0.3314
  946SOL    HW1 2974   3.687   1.510   2.882  2.2596  0.3213 -0.0017
  946SOL    HW2 2975   3.639   1.637   2.948  2.8727  0.3692  0.3626
  947SOL     OW 2976   0.045   2.310   3.249  0.4662 -0.9448 -0.3260
  947SOL    HW1 2977  -0.047   2.296   3.228 -0.0032 -0.8664  1.5267
  947SOL    HW2 2978   0.052   2.292   3.342  1.7440  1.7005  0.1988
  948SOL     OW 2979   1.684   1.487   0.176  0.3026 -0.3601 -0.1793
  948SOL    HW1 2980   1.599   1.468   0.216 -0.2435  1.5862 -0.3404
  948SOL    HW2 2981   1.668   1.561   0.119  2.1504  0.1441 -0.1079
  949SOL     OW 2982   2.247   1.060   0.580 -0.0274  0.2809 -0.0274
  949SOL    HW1 2983   2.186   1.034   0.649 -0.3484 -2.0628 -1.0724
  949SOL    HW2 2984   2.314   0.991   0.581  2.8977  2.9011  1.2755
  950SOL     OW 2985   3.098   1.825   3.047  0.4211 -0.0832 -0.2000
  950SOL    HW1 2986   3.111   1.834   2.952 -0.1216 -0.6405 -0.3317
  950SOL    HW2 2987   3.186   1.809   3.081  0.6927  0.6362 -0.5429
  951SOL     OW 2988   2.866   0.315   0.409 -0.2248 -0.3215 -0.4285
  951SOL    HW1 2989   2.862   0.301   0.315 -0.5279 -0.1028 -0.4511
  951SOL    HW2 2990   2.947   0.272   0.437  0.2165  0.2073 -0.8901
  952SOL     OW 2991   0.313   2.849   0.977  0.0583 -0.2706  0.3981
  952SOL    HW1 2992   0.252   2.837   1.050 -2.7023 -1.1871 -1.8541
  952SOL    HW2 2993   0.305   2.768   0.926 -0.3265  1.4215 -2.4057
  953SOL     OW 2994   0.928   1.657   2.431 -0.5031 -0.5832  0.1669
  953SOL    HW1 2995   1.018   1.681   2.450 -0.6159  0.1777 -0.2280
  953SOL    HW2 2996   0.916   1.572   2.473  0.6319 -1.0548 -0.4276
  954SOL     OW 2997   2.706   3.688   1.413 -0.2325  0.2519 -0.9346
  954SOL    HW1 2998   2.658   3.771   1.410  0.2126  0.6551  1.2577
  954SOL    HW2 2999   2.638   3.621   1.418 -0.5905  0.4508 -2.5411
  955SOL     OW 3000   1.910   0.258   1.385  0.8364 -0.0823  0.6990
  955SOL    HW1 3001   1.919   0.345   1.346  0.6722  0.9118  2.7671
  955SOL    HW2 3002   1.888   0.275   1.477 -0.0342 -2.3205  0.9562
  956SOL     OW 3003   2.559   1.818   2.882  0.2716 -0.2267 -0.1597
  956SOL    HW1 3004   2.625   1.805   2.815  0.9394  0.0723  0.4261
  956SOL    HW2 3005   2.539   1.912   2.879  1.2475  0.0437  0.8936
  957SOL     OW 3006   2.748   1.178   3.140  0.0542  0.5118 -1.5128
  957SOL    HW1 3007   2.765   1.270   3.120 -0.3599  0.9350 -0.0721
  957SOL    HW2 3008   2.823   1.150   3.191 -1.2296  1.0286  0.8136
  958SOL     OW 3009   0.664   1.452   0.248 -0.3234 -0.0766  0.2412
  958SOL    HW1 3010   0.586   1.412   0.287 -1.0838  0.1056 -1.0351
  958SOL    HW2 3011   0.709   1.379   0.205 -0.2639 -0.0227  0.2116
  959SOL     OW 3012   0.764   1.764   1.927 -0.7213  0.7010  0.4021
  959SOL    HW1 3013   0.721   1.848   1.910  0.5935  1.3115 -0.0727
  959SOL    HW2 3014   0.755   1.752   2.022 -3.7174 -0.2474  0.0806
  960SOL     OW 3015   3.339   3.468   2.417 -0.2243  0.0697  0.0153
  960SOL    HW1 3016   3.404   3.537   2.402 -1.5266  1.3277  0.0476
  960SOL    HW2 3017   3.255   3.512   2.413 -1.0254 -1.1440  2.0256
  961SOL     OW 3018   1.003   1.188   1.887 -0.1641 -0.1237  0.1704
  961SOL    HW1 3019   0.915   1.200   1.851 -0.1016 -3.0358 -1.3199
  961SOL    HW2 3020   0.990   1.179   1.981 -1.0128  2.4331  0.3728
  962SOL     OW 3021   0.164   3.664   0.494  0.5677  0.2600  0.5522
  962SOL    HW1 3022   0.139   3.609   0.420 -1.3925  1.9158 -0.0945
  962SOL    HW2 3023   0.130   3.618   0.570 -4.2935  2.0298 -0.2205
  963SOL     OW 3024   3.252   3.367   0.663  0.1584  0.5732 -0.4093
  963SOL    HW1 3025   3.193   3.423   0.713  0.0590  0.3989 -0.3304
  963SOL    HW2 3026   3.335   3.372   0.710 -0.0266  0.1420 -0.0346
  964SOL     OW 3027   2.868   2.705   0.549  0.2691  0.3904  1.0390
  964SOL    HW1 3028   2.956   2.714   0.588  0.5752 -2.2826  1.2017
  964SOL    HW2 3029   2.815   2.666   0.619 -0.3332 -0.4206  0.1598
  965SOL     OW 3030   1.403   0.539   0.442 -0.0066 -0.6049  0.4389
  965SOL    HW1 3031   1.428   0.480   0.512 -0.1800 -4.1561 -2.2387
  965SOL    HW2 3032   1.310   0.558   0.457 -0.3462 -2.2739  0.6087
  966SOL     OW 3033   3.202   1.327   0.593  0.3061  0.0169 -0.1680
  966SOL    HW1 3034   3.202   1.232   0.601  1.4450 -0.0298 -0.6409
  966SOL    HW2 3035   3.286   1.355   0.629  0.4298  0.7537 -0.9971
  967SOL     OW 3036   0.764   3.405   0.231 -0.1763 -0.2064  0.3790
  967SOL    HW1 3037   0.703   3.348   0.184  0.2827  0.3435 -0.9305
  967SOL    HW2 3038   0.839   3.349   0.250 -1.0741 -0.9086  2.0712
  968SOL     OW 3039   3.400   0.920   2.839  0.7195  0.0697  0.8474
  968SOL    HW1 3040   3.485   0.889   2.806  0.9526 -1.8517  2.9708
  968SOL    HW2 3041   3.381   0.998   2.787  1.1162 -2.3984 -3.5558
  969SOL     OW 3042   1.140   2.176   0.308 -0.3203  0.1555 -0.5260
  969SOL    HW1 3043   1.218   2.206   0.261 -0.8606  1.5578 -0.5784
  969SOL    HW2 3044   1.076   2.157   0.239 -0.7392  1.1206 -0.4135
  970SOL     OW 3045   3.357   0.189   3.279 -0.5023 -0.2096  0.1112
  970SOL    HW1 3046   3.337   0.099   3.304 -0.9223  0.1525  1.1396
  970SOL    HW2 3047   3.275   0.224   3.245 -0.8753  0.3651  1.5378
  971SOL     OW 3048   1.125   1.464   0.692  0.1053  0.3648 -1.0198
  971SOL    HW1 3049   1.164   1.494   0.774 -0.6621 -0.3453 -0.3900
  971SOL    HW2 3050   1.031   1.477   0.704 -0.1784 -1.3868 -1.0887
  972SOL     OW 3051   2.728   2.169   1.693  0.1517  0.3862  0.3011
  972SOL    HW1 3052   2.731   2.257   1.655 -0.1359  0.5197  0.5826
  972SOL    HW2 3053   2.728   2.184   1.787  0.8564  0.0564  0.3647
  973SOL     OW 3054   0.391   3.321   1.534 -0.1599 -0.3179 -0.0630
  973SOL    HW1 3055   0.308   3.273   1.539 -0.6956  0.6624  0.9351
  973SOL    HW2 3056   0.368   3.404   1.492 -0.3935  1.2605  2.9064
  974SOL     OW 3057   0.170   2.149   3.495 -0.7264 -0.7739  0.6552
  974SOL    HW1 3058   0.158   2.102   3.413  1.3603 -2.0609  1.0336
  974SOL    HW2 3059   0.148   2.085   3.563  1.2783 -0.9897  1.1544
  975SOL     OW 3060   2.733   3.494   2.083  0.3058 -0.4029 -0.6519
  975SOL    HW1 3061   2.641   3.518   2.068  0.5084  0.1725 -0.9758
  975SOL    HW2 3062   2.728   3.423   2.147 -0.2978  0.5184  0.3619
  976SOL     OW 3063   0.882   2.505   1.362 -0.2392 -0.2730  0.6078
  976SOL    HW1 3064   0.929   2.551   1.293 -1.5696 -0.0803 -0.1911
  976SOL    HW2 3065   0.803   2.557   1.377 -0.0751 -0.4223  2.1434
  977SOL     OW 3066   2.809   1.796   2.718  0.6133 -0.3332  0.3560
  977SOL    HW1 3067   2.747   1.764   2.653 -1.5868  0.4738  1.9243
  977SOL    HW2 3068   2.895   1.778   2.681 -0.5249 -0.1530 -2.6082
  978SOL     OW 3069   1.480   0.600   0.715  0.3874  0.5991  0.4376
  978SOL    HW1 3070   1.477   0.583   0.809  0.2392  1.0793  0.5256
  978SOL    HW2 3071   1.392   0.632   0.694  0.1141 -0.4497 -0.0535
  979SOL     OW 3072   0.786   2.080   1.062 -1.0170 -0.0037 -0.3666
  979SOL    HW1 3073   0.781   2.119   0.975 -0.4932 -2.2135 -1.4669
  979SOL    HW2 3074   0.864   2.026   1.060 -1.7176 -1.1518  1.0244
  980SOL     OW 3075   0.021   1.909   0.284 -0.6312  0.5179  0.2852
  980SOL    HW1 3076  -0.037   1.984   0.298 -0.6019  0.4550  0.7388
  980SOL    HW2 3077   0.062   1.893   0.369  0.1285  0.6199 -0.0536
  981SOL     OW 3078   0.829   3.285   2.548 -0.3093  0.2962 -0.4285
  981SOL    HW1 3079   0.857   3.210   2.599 -0.4192 -0.1604 -1.0315
  981SOL    HW2 3080   0.772   3.249   2.479 -2.3148  1.1627  0.6664
  982SOL     OW 3081   1.180   2.073   2.875  0.2395 -0.1381  0.0592
  982SOL    HW1 3082   1.226   2.093   2.956  0.1172  2.6737 -0.4427
  982SOL    HW2 3083   1.242   2.022   2.823  1.4648  0.6028  0.7607
  983SOL     OW 3084   0.237   2.406   2.223 -0.1586 -0.2262 -0.5138
  983SOL    HW1 3085   0.182   2.431   2.149  0.9869  1.6218 -0.7799
  983SOL    HW2 3086   0.290   2.483   2.242  0.6005 -1.1314  1.3254
  984SOL     OW 3087   1.018   1.922   3.225  0.0323  0.3960  0.5056
  984SOL    HW1 3088   1.105   1.886   3.245 -0.2694  0.4851  2.1510
  984SOL    HW2 3089   1.031   2.016   3.219 -0.3130  0.7345  3.4666
  985SOL     OW 3090   3.017   1.409   0.781  0.3463  0.1376  0.2179
  985SOL    HW1 3091   3.048   1.439   0.866  0.5535 -2.5047  1.1683
  985SOL    HW2 3092   3.093   1.417   0.724  0.5879  0.6871  0.6070
  986SOL     OW 3093   0.814   3.591   0.558  0.2763  0.4909  0.1476
  986SOL    HW1 3094   0.747   3.648   0.521  0.6199  0.0550 -1.2097
  986SOL    HW2 3095   0.822   3.519   0.495  1.4854  0.1440  0.6593
  987SOL     OW 3096   3.698   1.046   3.610  0.2220  0.0994 -0.1437
  987SOL    HW1 3097   3.655   1.079   3.689 -0.6889  0.0523 -0.6088
  987SOL    HW2 3098   3.757   1.116   3.584 -1.2532  1.1423 -0.7804
  988SOL     OW 3099   1.273   1.157   2.407  0.4915 -0.5031 -0.2704
  988SOL    HW1 3100   1.268   1.101   2.329 -1.0080 -0.5427 -0.1709
  988SOL    HW2 3101   1.339   1.223   2.385 -0.9110  0.3615 -2.1695
  989SOL     OW 3102   3.327   0.691   1.902 -0.4174  0.0682  0.1566
  989SOL    HW1 3103   3.247   0.642   1.882 -0.1866 -0.4859  0.5551
  989SOL    HW2 3104   3.297   0.777   1.928 -0.7764  0.5942 -1.8330
  990SOL     OW 3105   3.000   2.545   1.736  0.2704  0.2814  1.0386
  990SOL    HW1 3106   3.026   2.456   1.760  1.2257 -0.1410 -1.3300
  990SOL    HW2 3107   2.959   2.536   1.650 -1.9430  1.8444  1.8263
  991SOL     OW 3108   3.425   3.566   0.103  0.0370  0.4836  0.0330
  991SOL    HW1 3109   3.457   3.648   0.064 -0.6208  0.0536 -1.4780
  991SOL    HW2 3110   3.491   3.501   0.080  0.8202  0.6477  1.6701
  992SOL     OW 3111   2.336   0.834   2.860  0.3055 -0.0765  0.5381
  992SOL    HW1 3112   2.283   0.755   2.849 -0.3569  0.2649  1.1376
  992SOL    HW2 3113   2.332   0.877   2.775 -0.1110 -0.2339  0.4721
  993SOL     OW 3114   3.360   0.852   2.292 -0.4401 -0.0045 -0.0794
  993SOL    HW1 3115   3.450   0.822   2.282 -0.4907  0.1806 -1.3644
  993SOL    HW2 3116   3.356   0.932   2.239 -1.2702  0.1741  0.2345
  994SOL     OW 3117   2.948   1.063   3.311  0.3141  0.5555  0.0469
  994SOL    HW1 3118   2.939   1.104   3.397 -1.3944  0.3656  0.0011
  994SOL    HW2 3119   3.039   1.080   3.285  0.9787  0.3155  2.0263
  995SOL     OW 3120   0.389  -0.007   2.357 -0.3995  0.0480  0.1533
  995SOL    HW1 3121   0.480   0.022   2.367 -0.4549  0.0841  0.5498
  995SOL    HW2 3122   0.346   0.020   2.438 -0.5477 -0.7877  0.3571
  996SOL     OW 3123   1.508   0.946   2.480 -0.0834  0.7505 -0.0060
  996SOL    HW1 3124   1.459   1.008   2.534 -1.1402  0.3931 -0.5232
  996SOL    HW2 3125   1.442   0.908   2.421  0.7019 -0.2197 -0.2928
  997SOL     OW 3126   0.752   1.747   0.814  0.2004 -0.4702  0.0593
  997SOL    HW1 3127   0.824   1.808   0.799 -0.4358  0.3249  0.1823
  997SOL    HW2 3128   0.686   1.771   0.749 -1.0104  0.5335  1.5740
  998SOL     OW 3129   0.547   0.349   1.605  0.3560  0.0782 -0.0885
  998SOL    HW1 3130   0.518   0.434   1.574  1.9250  1.2092  1.3411
  998SOL    HW2 3131   0.611   0.320   1.539  1.1011  0.8435  0.2760
  999SOL     OW 3132   1.163   3.512   1.897 -0.0329  0.1665  0.1045
  999SOL    HW1 3133   1.068   3.522   1.899 -0.0882  1.9230 -3.3740
  999SOL    HW2 3134   1.192   3.544   1.982 -2.4265  2.0472  0.3285
 1000SOL     OW 3135   1.987   1.464   1.214 -0.2304 -0.1940 -0.0041
 1000SOL    HW1 3136   1.953   1.519   1.284 -0.0900 -0.1882  0.0593
 1000SOL    HW2 3137   1.932   1.385   1.216 -0.9819  0.2983 -0.6401
 1001SOL     OW 3138   3.529   0.740   3.028  0.2958 -0.0603 -0.4782
 1001SOL    HW1 3139   3.460   0.785   2.981  0.0471  0.2975  0.2212
 1001SOL    HW2 3140   3.610   0.782   2.999 -0.0051  1.6889  1.0524
 1002SOL     OW 3141   1.527   0.859   0.064 -0.3509 -0.2118  0.2804
 1002SOL    HW1 3142   1.614   0.863   0.026 -0.2427  0.0879  0.5575
 1002SOL    HW2 3143   1.524   0.774   0.108 -0.3460 -0.3983 -0.0792
 1003SOL     OW 3144   1.486   1.945   2.271 -0.1865  0.2524  0.0049
 1003SOL    HW1 3145   1.538   2.004   2.215 -0.2269  0.2660 -0.0187
 1003SOL    HW2 3146   1.550   1.904   2.328 -0.5115  3.7590  3.3146
 1004SOL     OW 3147   1.038   2.887   3.414  0.6495  0.3020  0.5666
 1004SOL    HW1 3148   1.016   2.833   3.490  0.4889  0.2620  0.4900
 1004SOL    HW2 3149   1.059   2.825   3.345  1.8068  0.3261  0.8634
 1005SOL     OW 3150   2.755   1.521   2.537  0.2235  0.7330 -0.1080
 1005SOL    HW1 3151   2.735   1.462   2.609  1.6409 -0.2696 -0.5061
 1005SOL    HW2 3152   2.682   1.583   2.536 -0.5684 -0.1384  1.2198
 1006SOL     OW 3153   3.322   2.193   1.940  0.8379  0.0225 -0.0468
 1006SOL    HW1 3154   3.228   2.188   1.958  1.0680  1.9836  2.2280
 1006SOL    HW2 3155   3.363   2.167   2.022  2.2736  0.0857 -0.7191
 1007SOL     OW 3156   3.156   1.135   1.640 -0.5204  0.9797 -0.8023
 1007SOL    HW1 3157   3.068   1.148   1.676 -0.5153  0.9922 -0.7942
 1007SOL    HW2 3158   3.142   1.099   1.553 -0.5224 -0.0398 -0.3965
 1008SOL     OW 3159   3.012   2.221   0.725 -0.4252 -0.1508 -0.1386
 1008SOL    HW1 3160   2.968   2.137   0.712  1.0063 -1.0696  0.5433
 1008SOL    HW2 3161   3.106   2.199   0.720 -0.0015  1.1679  1.2917
 1009SOL     OW 3162   0.088   1.498   3.260 -0.5800  0.0084 -0.1239
 1009SOL    HW1 3163   0.155   1.458   3.315  0.2089 -1.6736 -2.1358
 1009SOL    HW2 3164   0.083   1.440   3.184 -1.9426  1.9235 -1.5884
 1010SOL     OW 3165   1.772   0.633   2.956  0.4317 -0.1207  0.2439
 1010SOL    HW1 3166   1.829   0.711   2.961  1.2547 -0.4346 -2.4570
 1010SOL    HW2 3167   1.780   0.604   2.865 -2.9742 -1.0720  0.1253
 1011SOL     OW 3168   0.363   3.100   1.970  0.2635  0.1161  0.4724
 1011SOL    HW1 3169   0.347   3.190   2.000  0.0949  0.0750  0.5054
 1011SOL    HW2 3170   0.276   3.062   1.962  0.3111  0.1118 -0.0381
 1012SOL     OW 3171   1.747   2.729   0.024 -0.3013 -0.3701  0.1420
 1012SOL    HW1 3172   1.776   2.672   0.095 -1.2031 -0.5918  0.3465
 1012SOL    HW2 3173   1.819   2.727  -0.039 -0.0279 -1.1817  0.4634
 1013SOL     OW 3174   2.812   0.591   3.719  0.2737 -0.4488 -0.8135
 1013SOL    HW1 3175   2.751   0.564   3.650 -1.3475 -3.8270  1.6253
 1013SOL    HW2 3176   2.756   0.607   3.795  2.2020 -1.5481  0.9391
 1014SOL     OW 3177   0.367   2.667   0.420  0.3402  1.1468 -0.1146
 1014SOL    HW1 3178   0.453   2.657   0.380  0.5379  0.1153  0.5303
 1014SOL    HW2 3179   0.305   2.656   0.348  0.7365  3.1229 -0.8170
 1015SOL     OW 3180   3.710   1.971   3.298  0.3921 -0.0784  0.1219
 1015SOL    HW1 3181   3.789   1.919   3.283  0.3434 -0.6794  1.7420
 1015SOL    HW2 3182   3.685   2.003   3.211 -0.1195 -3.5202 -1.1451
 1016SOL     OW 3183   2.709   2.241   0.353  0.0175 -0.2792  0.1006
 1016SOL    HW1 3184   2.635   2.272   0.302  0.3744  0.9428  0.2867
 1016SOL    HW2 3185   2.754   2.321   0.381  1.2659 -0.9866  0.1933
 1017SOL     OW 3186   2.825   0.975   0.904 -0.7509 -0.4587 -0.2329
 1017SOL    HW1 3187   2.882   1.037   0.858 -1.0241 -0.0651 -0.0536
 1017SOL    HW2 3188   2.787   0.921   0.836 -0.2924 -0.6107 -0.3689
 1018SOL     OW 3189   3.060   3.553   2.430 -0.3987  0.0413  0.0960
 1018SOL    HW1 3190   3.011   3.477   2.462  0.4892 -0.5821  0.0008
 1018SOL    HW2 3191   3.014   3.578   2.349 -1.3975  0.3468  0.7369
 1019SOL     OW 3192   0.566   3.610   0.147  0.4357  0.5273 -0.6985
 1019SOL    HW1 3193   0.479   3.570   0.160  0.4299  0.1454 -1.8366
 1019SOL    HW2 3194   0.627   3.543   0.180  0.3361  0.4354 -0.6973
 1020SOL     OW 3195   2.175   0.224   3.316  0.2829 -0.6033 -0.0503
 1020SOL    HW1 3196   2.101   0.173   3.283 -0.5935 -0.4461  1.5626
 1020SOL    HW2 3197   2.171   0.307   3.267  0.4578 -1.2383 -1.1817
 1021SOL     OW 3198   2.510   1.501   1.056 -0.0672  0.3023  0.4208
 1021SOL    HW1 3199   2.449   1.572   1.078 -2.2159 -1.9311  2.3437
 1021SOL    HW2 3200   2.556   1.483   1.138  1.6224  0.4757 -0.4575
 1022SOL     OW 3201   1.124   0.665   1.726  0.2583  1.3959  0.7020
 1022SOL    HW1 3202   1.074   0.672   1.807 -0.6631 -0.2268  0.3173
 1022SOL    HW2 3203   1.065   0.698   1.658  0.6451  1.7889  0.5533
 1023SOL     OW 3204   1.988   1.947   2.984 -0.4512  0.1576 -0.1587
 1023SOL    HW1 3205   2.065   1.930   2.930 -0.1472 -1.4875  0.7159
 1023SOL    HW2 3206   1.915   1.952   2.922  0.3692  2.1676 -1.0385
 1024SOL     OW 3207   0.589   3.321   3.525 -0.3650  0.1160  0.4248
 1024SOL    HW1 3208   0.667   3.324   3.470  0.0590 -0.2644  0.9982
 1024SOL    HW2 3209   0.520   3.361   3.471 -0.2715 -1.3757 -0.8720
 1025SOL     OW 3210   2.332   1.286   2.064  0.2433 -0.4002  0.4789
 1025SOL    HW1 3211   2.330   1.375   2.028  1.1940 -1.1062 -1.5089
 1025SOL    HW2 3212   2.242   1.256   2.058 -0.1404  0.5002  1.4186
 1026SOL     OW 3213   2.176   1.969   2.805  0.3272 -0.2172  0.7429
 1026SOL    HW1 3214   2.255   1.967   2.751 -0.5842 -2.6432 -0.6577
 1026SOL    HW2 3215   2.116   2.026   2.757  1.1280  1.5880  1.7830
 1027SOL     OW 3216   0.412   0.901   1.700  0.6308 -0.5745  0.2988
 1027SOL    HW1 3217   0.413   0.877   1.608  0.0720  0.0717  0.1126
 1027SOL    HW2 3218   0.332   0.953   1.710  0.7939 -0.4693  1.1008
 1028SOL     OW 3219   2.616   1.293   0.109 -0.2796 -0.5134 -0.5292
 1028SOL    HW1 3220   2.647   1.204   0.124  0.4782  0.0188  1.2751
 1028SOL    HW2 3221   2.522   1.289   0.124 -0.1056 -0.8143  0.5310
 1029SOL     OW 3222   2.377   2.804   1.265 -0.6652  0.2864 -0.3416
 1029SOL    HW1 3223   2.371   2.853   1.347 -1.9345  2.0146 -1.3765
 1029SOL    HW2 3224   2.467   2.774   1.261  0.1755  2.4607  0.4643
 1030SOL     OW 3225   3.257   0.706   1.591 -0.1845  0.0959 -0.2263
 1030SOL    HW1 3226   3.198   0.699   1.666 -1.7063  2.3676 -1.0928
 1030SOL    HW2 3227   3.206   0.673   1.517  0.7662 -0.7617 -0.5198
 1031SOL     OW 3228   2.619   2.373   0.664  0.5686 -0.4414  0.1384
 1031SOL    HW1 3229   2.567   2.449   0.636  0.5808 -0.7596 -0.7857
 1031SOL    HW2 3230   2.707   2.391   0.630  0.2815 -1.4470 -1.2260
 1032SOL     OW 3231   0.543   2.048   1.531 -0.0316 -0.5177 -0.1031
 1032SOL    HW1 3232   0.512   2.084   1.448  0.6220 -2.8989 -1.4910
 1032SOL    HW2 3233   0.635   2.027   1.515  0.1468 -0.8445  1.2863
 1033SOL     OW 3234   3.063   0.532   2.173 -0.0531 -0.4191  0.1236
 1033SOL    HW1 3235   3.067   0.521   2.078 -0.7332 -1.9220  0.2358
 1033SOL    HW2 3236   2.996   0.599   2.187 -0.1308 -0.3691 -0.4540
 1034SOL     OW 3237   1.986   0.365   2.995 -0.2802 -0.0999  0.1676
 1034SOL    HW1 3238   1.892   0.375   3.011 -0.3560 -0.0635 -0.2941
 1034SOL    HW2 3239   1.991   0.316   2.912  0.0941 -1.3458  0.8932
 1035SOL     OW 3240   0.229   1.232   1.871 -0.4987  0.0587 -0.4686
 1035SOL    HW1 3241   0.242   1.327   1.878 -0.4312  0.0717 -0.7420
 1035SOL    HW2 3242   0.302   1.194   1.920 -1.4900  0.1487  1.1608
 1036SOL     OW 3243   3.525   1.232   1.199  0.5049 -0.2241 -0.0482
 1036SOL    HW1 3244   3.601   1.173   1.205  1.0675  0.4458 -0.3616
 1036SOL    HW2 3245   3.549   1.294   1.130  1.2018  2.1207  2.1406
 1037SOL     OW 3246   0.902   0.026   0.740 -0.6417  0.4209 -0.4788
 1037SOL    HW1 3247   0.843   0.095   0.708 -0.0003  0.6140 -1.2706
 1037SOL    HW2 3248   0.896  -0.043   0.674  0.8430  0.9035 -1.1765
 1038SOL     OW 3249   0.900   3.121   1.664 -0.4662  0.7900 -0.4864
 1038SOL    HW1 3250   0.939   3.138   1.749 -2.2019  0.5100  0.4242
 1038SOL    HW2 3251   0.950   3.048   1.628  0.2162  0.8372  0.3483
 1039SOL     OW 3252   3.400   3.040   1.277 -0.2628 -0.2476 -0.1471
 1039SOL    HW1 3253   3.461   3.016   1.208 -0.6530  0.2967 -0.6990
 1039SOL    HW2 3254   3.321   3.068   1.230 -0.6026 -0.0616  0.5233
 1040SOL     OW 3255   0.666   0.052   0.445  0.0969 -0.1403  0.4463
 1040SOL    HW1 3256   0.670   0.112   0.520 -1.9512  0.4490  0.1413
 1040SOL    HW2 3257   0.576   0.021   0.444  0.4886 -1.3492 -0.8771
 1041SOL     OW 3258   2.693   2.610   1.868  1.2672  0.1861  0.0650
 1041SOL    HW1 3259   2.643   2.531   1.850 -0.3539  1.2354 -0.3524
 1041SOL    HW2 3260   2.745   2.589   1.945  3.2985 -2.2660 -1.8244
 1042SOL     OW 3261   2.208   0.107   2.182  0.3284  0.0995 -0.2298
 1042SOL    HW1 3262   2.277   0.118   2.247  0.7906  0.1920 -0.7309
 1042SOL    HW2 3263   2.138   0.060   2.229  0.4173  0.6599  0.4887
 1043SOL     OW 3264   0.820   3.658   3.496 -0.1603 -0.2620  0.0048
 1043SOL    HW1 3265   0.830   3.617   3.410 -1.0054  0.6104 -0.5189
 1043SOL    HW2 3266   0.790   3.747   3.478  1.6918  0.6553  1.1214
 1044SOL     OW 3267   1.433   2.271   3.685  0.3488  0.1790  0.5561
 1044SOL    HW1 3268   1.357   2.324   3.710  1.2941  1.9510 -0.1307
 1044SOL    HW2 3269   1.499   2.290   3.752  0.2749 -1.2573  1.0823
 1045SOL     OW 3270   0.721   3.293   0.576 -0.0844  0.5595 -0.6363
 1045SOL    HW1 3271   0.725   3.252   0.663  0.3301  1.0807 -0.4019
 1045SOL    HW2 3272   0.645   3.252   0.534  2.8546 -4.0477 -2.2941
 1046SOL     OW 3273   1.880   0.304   2.028 -0.4683  0.1084  0.2927
 1046SOL    HW1 3274   1.847   0.356   2.102 -0.5104  1.0981 -0.4012
 1046SOL    HW2 3275   1.913   0.369   1.966  0.7261 -0.7719 -0.0201
 1047SOL     OW 3276   0.654   2.111   0.350  0.5395 -0.5838 -0.4190
 1047SOL    HW1 3277   0.659   2.049   0.422  0.4441 -1.6881 -1.3280
 1047SOL    HW2 3278   0.562   2.135   0.345  0.5165 -0.6444 -0.2899
 1048SOL     OW 3279   1.550   1.278   0.540  0.2851  0.2988 -0.3392
 1048SOL    HW1 3280   1.556   1.333   0.462 -0.6581 -0.3529 -0.8882
 1048SOL    HW2 3281   1.569   1.337   0.613  0.3014  1.1150 -0.9942
 1049SOL     OW 3282   1.771   1.062   0.543 -0.2438  0.0503 -0.2465
 1049SOL    HW1 3283   1.711   0.999   0.583  1.7502 -0.0060  3.0279
 1049SOL    HW2 3284   1.720   1.143   0.538 -1.2960 -0.5442  0.3018
 1050SOL     OW 3285   2.778   0.577   2.477  0.1915  0.2625 -0.3628
 1050SOL    HW1 3286   2.778   0.624   2.560 -1.3704 -1.3533  0.6377
 1050SOL    HW2 3287   2.717   0.626   2.422 -0.8707 -0.1285  0.4199
 1051SOL     OW 3288   2.105   2.998   1.861  0.2160 -0.1824  0.1812
 1051SOL    HW1 3289   2.069   2.911   1.845 -0.2722 -0.1543  1.1000
 1051SOL    HW2 3290   2.033   3.048   1.899  0.6530  0.4680  0.1849
 1052SOL     OW 3291   1.502   0.803   3.184  0.3584  0.2145 -0.2544
 1052SOL    HW1 3292   1.587   0.778   3.222  0.2929  2.5357  1.6143
 1052SOL    HW2 3293   1.467   0.868   3.244 -3.2941 -1.3879 -0.3806
 1053SOL     OW 3294   2.043   0.646   0.225  0.7685  0.3339 -0.0185
 1053SOL    HW1 3295   2.108   0.639   0.155  0.6442 -0.7536 -0.0523
 1053SOL    HW2 3296   2.072   0.584   0.292 -0.9718 -1.3353 -0.6875
 1054SOL     OW 3297   0.651   2.657   0.341  0.3933 -0.3847 -0.3591
 1054SOL    HW1 3298   0.681   2.606   0.416  0.6605  0.3667  0.0593
 1054SOL    HW2 3299   0.633   2.592   0.273 -1.4276 -1.2505  0.8586
 1055SOL     OW 3300   2.346   1.463   0.805  0.3433 -0.8217 -0.5093
 1055SOL    HW1 3301   2.368   1.512   0.726  0.4803 -2.9099 -1.8472
 1055SOL    HW2 3302   2.402   1.501   0.873 -0.2286  1.4397 -1.2124
 1056SOL     OW 3303   3.609   0.249   1.050 -0.6374 -0.0988 -0.3125
 1056SOL    HW1 3304   3.565   0.275   0.969 -4.5352  1.3767  1.9659
 1056SOL    HW2 3305   3.578   0.160   1.067 -1.2160  0.2140  0.3290
 1057SOL     OW 3306   1.876   1.395   0.630  0.3962 -0.4670  0.6788
 1057SOL    HW1 3307   1.828   1.478   0.630 -0.3103 -0.8612  0.1294
 1057SOL    HW2 3308   1.921   1.392   0.546  0.3733 -0.6651  0.6725
 1058SOL     OW 3309   1.904   0.217   0.909 -0.2115  0.4181 -0.0646
 1058SOL    HW1 3310   1.844   0.162   0.958 -0.5716 -0.4296 -1.4168
 1058SOL    HW2 3311   1.898   0.303   0.951 -1.8560  0.1766  0.2536
 1059SOL     OW 3312   0.791   3.506   3.229 -0.5476 -0.2791  0.3107
 1059SOL    HW1 3313   0.720   3.522   3.290 -2.8295 -0.7295 -2.0466
 1059SOL    HW2 3314   0.785   3.413   3.207  1.7903 -0.7021  1.1584
 1060SOL     OW 3315   0.619   3.373   0.994  0.0104  0.2764 -0.0893
 1060SOL    HW1 3316   0.649   3.463   1.002 -0.5554  0.5119 -0.5931
 1060SOL    HW2 3317   0.700   3.322   0.985  0.3825  0.6074  1.2160
 1061SOL     OW 3318   3.068   0.904   0.130 -0.2604 -0.5490  0.2520
 1061SOL    HW1 3319   3.029   0.966   0.069 -0.6025 -0.5293  0.4834
 1061SOL    HW2 3320   3.075   0.952   0.212 -0.4077 -0.7719  0.3991
 1062SOL     OW 3321   1.587   1.203   3.084  0.3688  0.8285  0.2415
 1062SOL    HW1 3322   1.597   1.248   3.167 -1.6912  1.1043  0.3875
 1062SOL    HW2 3323   1.502   1.159   3.090  0.3485  0.5356 -1.5669
 1063SOL     OW 3324   3.013   1.731   0.231 -0.2198 -0.7067 -0.0740
 1063SOL    HW1 3325   3.022   1.788   0.154  1.3635 -0.6162  0.1385
 1063SOL    HW2 3326   2.985   1.790   0.301 -2.8847 -1.0020 -0.8068
 1064SOL     OW 3327   1.171   1.541   0.231  0.4842 -0.0062 -0.6187
 1064SOL    HW1 3328   1.154   1.449   0.255 -1.2874 -0.2802 -2.6591
 1064SOL    HW2 3329   1.098   1.589   0.269  0.5784  0.3420 -0.8762
 1065SOL     OW 3330   1.523   3.501   0.587  0.0906  0.0082  0.0563
 1065SOL    HW1 3331   1.595   3.471   0.532  0.3860  0.0270  0.4309
 1065SOL    HW2 3332   1.461   3.541   0.526 -0.9698 -2.5384 -0.6733
 1066SOL     OW 3333   0.733   1.193   0.779 -0.7322 -0.0602  0.3413
 1066SOL    HW1 3334   0.663   1.139   0.741 -1.8055  0.4248  1.5478
 1066SOL    HW2 3335   0.770   1.240   0.704 -1.6617 -0.3844 -0.3472
 1067SOL     OW 3336   0.106   2.534   1.504 -0.8513 -0.4350  0.1427
 1067SOL    HW1 3337   0.181   2.476   1.516 -0.7246 -0.2480  0.2767
 1067SOL    HW2 3338   0.137   2.619   1.536  0.7392  1.0440 -4.5517
 1068SOL     OW 3339   3.181   0.656   0.150 -0.3114  0.8717 -0.0793
 1068SOL    HW1 3340   3.188   0.647   0.245  1.5137  0.2768 -0.2245
 1068SOL    HW2 3341   3.107   0.715   0.137 -1.0090  0.4561  1.6790
 1069SOL     OW 3342   0.996   1.960   2.572  0.7057  0.8916  0.3495
 1069SOL    HW1 3343   0.912   1.979   2.614 -0.9073 -0.3676 -2.0578
 1069SOL    HW2 3344   1.043   2.044   2.572  0.5373  1.1332  3.7918
 1070SOL     OW 3345   3.004   0.458   2.777  0.4700  0.8185 -0.9952
 1070SOL    HW1 3346   2.922   0.500   2.805  0.3948  0.5790 -0.8601
 1070SOL    HW2 3347   3.046   0.524   2.721 -0.3939  0.4781 -2.0716
 1071SOL     OW 3348   0.851   2.814   0.203 -0.4264 -0.4077 -0.4457
 1071SOL    HW1 3349   0.789   2.747   0.233 -1.7149  0.6776 -0.6066
 1071SOL    HW2 3350   0.796   2.889   0.180  1.0388  1.1031  0.7325
 1072SOL     OW 3351   2.483   0.624   3.551 -0.0144  0.0726 -0.6875
 1072SOL    HW1 3352   2.552   0.657   3.495 -0.2384  0.8647 -0.5140
 1072SOL    HW2 3353   2.445   0.702   3.591 -1.2232 -0.3095 -1.0314
 1073SOL     OW 3354   2.450   1.817   0.107  0.2100 -0.5427 -0.0186
 1073SOL    HW1 3355   2.503   1.895   0.123  0.4120 -0.6207 -0.3025
 1073SOL    HW2 3356   2.501   1.766   0.044  1.0101 -1.8361  1.6033
 1074SOL     OW 3357   2.808   3.040   0.143  0.9451 -0.1008  0.8489
 1074SOL    HW1 3358   2.789   3.003   0.229  3.2540 -3.0687  0.2774
 1074SOL    HW2 3359   2.745   2.998   0.084  1.7367 -1.0019  0.6145
 1075SOL     OW 3360   0.148   0.689   2.411  0.3430  0.3069 -0.1923
 1075SOL    HW1 3361   0.168   0.635   2.335 -1.5769 -0.1167 -0.4471
 1075SOL    HW2 3362   0.068   0.651   2.447  2.1620 -0.6790  3.1837
 1076SOL     OW 3363   2.843   1.432   3.072  0.0788 -0.2810 -0.2624
 1076SOL    HW1 3364   2.799   1.505   3.030 -0.1656 -0.7469 -0.8408
 1076SOL    HW2 3365   2.930   1.430   3.031  0.7596  0.7973  1.0623
 1077SOL     OW 3366   1.760   1.862   3.209  0.3202  0.3057 -0.0596
 1077SOL    HW1 3367   1.694   1.868   3.140 -0.2061 -0.0097  0.4098
 1077SOL    HW2 3368   1.830   1.810   3.169 -0.4849 -0.8741  0.0104
 1078SOL     OW 3369   1.092   1.280   2.828 -0.0321 -0.6383 -0.2678
 1078SOL    HW1 3370   1.169   1.336   2.822  0.3745 -1.2708 -1.2905
 1078SOL    HW2 3371   1.018   1.341   2.820  0.3997 -0.2209 -1.3422
 1079SOL     OW 3372   1.466   2.952   0.937  0.5955  0.5043 -0.1255
 1079SOL    HW1 3373   1.450   3.042   0.967  3.4338  0.7372  1.0074
 1079SOL    HW2 3374   1.522   2.961   0.861  1.5999 -0.2767  0.4891
 1080SOL     OW 3375   0.250   0.513   3.166 -0.1131  0.5086  0.0726
 1080SOL    HW1 3376   0.284   0.583   3.110 -0.2887  1.6201  1.3241
 1080SOL    HW2 3377   0.214   0.558   3.242 -2.5653 -0.7686 -0.2582
 1081SOL     OW 3378   0.417   2.896   2.449  0.6138 -0.6933 -0.0443
 1081SOL    HW1 3379   0.351   2.963   2.432  1.7799  0.4540 -0.2557
 1081SOL    HW2 3380   0.495   2.928   2.403  1.4559 -1.7635  0.5964
 1082SOL     OW 3381   3.388   0.287   3.527  0.9778  0.2323 -0.3360
 1082SOL    HW1 3382   3.370   0.380   3.544  1.1162  0.0243  1.0594
 1082SOL    HW2 3383   3.372   0.276   3.433 -0.4655  1.3517 -0.2574
 1083SOL     OW 3384   2.911   2.518   1.479  0.7770  0.1890  0.3467
 1083SOL    HW1 3385   2.940   2.494   1.391  0.7533  1.1278  0.0669
 1083SOL    HW2 3386   2.815   2.510   1.475  0.6919  1.1898 -0.0362
 1084SOL     OW 3387   3.359   1.529   1.540 -0.2404 -0.8345 -0.3505
 1084SOL    HW1 3388   3.335   1.612   1.582  1.3041  0.3957 -1.7882
 1084SOL    HW2 3389   3.430   1.495   1.594  0.0682 -0.5103 -0.5501
 1085SOL     OW 3390   2.635   0.292   1.235  0.7037 -0.3425 -0.1892
 1085SOL    HW1 3391   2.701   0.350   1.274  0.3005 -0.1290  0.1983
 1085SOL    HW2 3392   2.599   0.342   1.162  1.9123 -0.9994 -1.2593
 1086SOL     OW 3393   1.230   0.119   3.419  0.2942 -0.0272  0.0020
 1086SOL    HW1 3394   1.228   0.212   3.443 -1.2784  0.4513 -1.7771
 1086SOL    HW2 3395   1.322   0.094   3.426  0.5013  1.1202  2.3600
 1087SOL     OW 3396   0.488   1.760   1.756 -0.4025 -0.5181 -0.3078
 1087SOL    HW1 3397   0.504   1.759   1.850 -0.4012 -2.3728 -0.2944
 1087SOL    HW2 3398   0.565   1.804   1.720 -0.4100  0.2306  0.5491
 1088SOL     OW 3399   1.518   3.741   0.714  0.2361  0.3800 -0.2314
 1088SOL    HW1 3400   1.439   3.721   0.765  0.6300 -0.3655  0.1069
 1088SOL    HW2 3401   1.552   3.655   0.689  0.8830  0.7010 -0.4721
 1089SOL     OW 3402   3.628   0.307   2.003  0.0963 -0.4314 -0.4093
 1089SOL    HW1 3403   3.678   0.384   1.977 -1.2685  1.1419  1.3017
 1089SOL    HW2 3404   3.596   0.270   1.921  2.5838 -0.5264 -1.4258
 1090SOL     OW 3405   1.352   1.105   1.583  0.7736  0.0882  0.2144
 1090SOL    HW1 3406   1.435   1.152   1.567  0.3036  1.7087  2.1329
 1090SOL    HW2 3407   1.300   1.122   1.504  1.1759  1.6187  0.2357
 1091SOL     OW 3408   2.415   1.038   3.241  0.3040  0.3538  0.1716
 1091SOL    HW1 3409   2.346   1.097   3.270  0.0792 -1.3006  3.5029
 1091SOL    HW2 3410   2.368   0.964   3.202  0.4464  0.8346 -0.9701
 1092SOL     OW 3411   1.927   0.131   3.284 -0.7380 -0.2855 -0.0308
 1092SOL    HW1 3412   1.865   0.101   3.218  0.0021 -2.4906  0.2138
 1092SOL    HW2 3413   1.906   0.080   3.362 -0.1835  0.6991  0.7875
 1093SOL     OW 3414   0.181   3.102   1.012  0.5329 -0.0121  0.0043
 1093SOL    HW1 3415   0.210   3.011   1.011 -0.4138 -0.3184 -0.7008
 1093SOL    HW2 3416   0.119   3.106   1.086  2.8300  0.8253  2.0097
 1094SOL     OW 3417   1.638   1.388   2.590 -0.3624  0.2482  0.1380
 1094SOL    HW1 3418   1.585   1.336   2.650  0.3343 -0.0287  0.5198
 1094SOL    HW2 3419   1.638   1.476   2.627  0.0924  0.0719  0.5727
 1095SOL     OW 3420   2.496   0.794   1.991  0.5619 -0.1018 -0.0461
 1095SOL    HW1 3421   2.527   0.821   1.905 -0.7890  0.3678 -0.4233
 1095SOL    HW2 3422   2.563   0.825   2.052  0.7876  0.9799 -0.8053
 1096SOL     OW 3423   3.714   2.570   2.981  0.7485 -0.2472 -0.3417
 1096SOL    HW1 3424   3.778   2.641   2.984 -0.4722  0.9287 -0.9525
 1096SOL    HW2 3425   3.663   2.581   3.062 -0.5321  0.6939 -1.2224
 1097SOL     OW 3426   3.457   1.895   2.222 -0.6214  0.4279 -0.2921
 1097SOL    HW1 3427   3.456   1.986   2.192  0.7668  1.1738  1.6563
 1097SOL    HW2 3428   3.387   1.891   2.287 -1.0574 -0.0587 -0.7932
 1098SOL     OW 3429   3.549   2.041   3.513 -0.1131 -0.4888 -0.1518
 1098SOL    HW1 3430   3.545   2.130   3.478 -0.9406 -0.3467  0.2808
 1098SOL    HW2 3431   3.609   1.994   3.455 -0.0807  0.2130 -0.6867
 1099SOL     OW 3432   1.044   2.831   2.219 -0.5068  0.1670  0.1909
 1099SOL    HW1 3433   1.058   2.926   2.221  2.2491 -0.1649  0.7288
 1099SOL    HW2 3434   1.041   2.805   2.311 -2.1834 -0.2004  0.0606
 1100SOL     OW 3435   2.827   0.375   3.309  0.3681 -0.4264 -0.2349
 1100SOL    HW1 3436   2.821   0.469   3.291  0.5418 -0.3058  0.3189
 1100SOL    HW2 3437   2.743   0.353   3.349 -0.1738 -0.7768 -1.5208
 1101SOL     OW 3438   0.244   0.618   0.162 -0.3433 -0.0815 -0.1723
 1101SOL    HW1 3439   0.152   0.644   0.152 -0.2568  1.0922  1.6738
 1101SOL    HW2 3440   0.264   0.634   0.254  1.7044 -0.3991 -0.5096
 1102SOL     OW 3441   3.511   3.453   0.778  0.2748  0.3921  0.1688
 1102SOL    HW1 3442   3.570   3.417   0.844  0.5154 -0.2837 -0.4032
 1102SOL    HW2 3443   3.533   3.406   0.698 -0.5497  0.6473 -0.2177
 1103SOL     OW 3444   1.082   3.067   0.495 -0.5586 -0.3971 -0.1983
 1103SOL    HW1 3445   1.163   3.076   0.545  0.4744  1.5634 -1.9985
 1103SOL    HW2 3446   1.085   2.978   0.460  2.0124  0.2308 -1.9334
 1104SOL     OW 3447   3.320   0.484   1.202 -0.3791 -0.4036  0.1746
 1104SOL    HW1 3448   3.322   0.526   1.116 -0.5991 -1.8040 -0.5251
 1104SOL    HW2 3449   3.364   0.547   1.260  2.3831 -0.6274 -1.4960
 1105SOL     OW 3450   2.243   3.371   2.509 -0.4546  1.0058  0.6073
 1105SOL    HW1 3451   2.157   3.333   2.492  0.3023 -1.5756  2.0707
 1105SOL    HW2 3452   2.264   3.419   2.429 -1.3573 -2.0488 -1.6397
 1106SOL     OW 3453   0.587   1.475   2.476 -0.1151  0.3175 -0.5263
 1106SOL    HW1 3454   0.557   1.548   2.531 -0.9655 -2.5234  3.1617
 1106SOL    HW2 3455   0.683   1.477   2.486 -0.1669  0.6455 -0.0113
 1107SOL     OW 3456   2.248   0.591   0.902  0.2750 -0.2441  0.5398
 1107SOL    HW1 3457   2.286   0.658   0.958  1.9847 -0.3991 -0.3602
 1107SOL    HW2 3458   2.231   0.517   0.961 -1.5133  0.8767  1.5122
 1108SOL     OW 3459   1.169   0.026   3.183  0.1007 -0.8210 -0.3374
 1108SOL    HW1 3460   1.183   0.105   3.131  0.6607 -0.7686 -0.1214
 1108SOL    HW2 3461   1.173   0.056   3.274 -1.6189 -0.7880 -0.2451
 1109SOL     OW 3462   3.413   3.305   2.810  0.7786  0.5981 -0.1648
 1109SOL    HW1 3463   3.464   3.382   2.786 -0.3840  1.2819 -0.5270
 1109SOL    HW2 3464   3.388   3.265   2.727  1.0104  0.0695  0.0142
 1110SOL     OW 3465   2.914   3.466   3.700  0.4287 -0.0657  0.0083
 1110SOL    HW1 3466   2.830   3.419   3.704  0.2283  0.3533  1.2712
 1110SOL    HW2 3467   2.980   3.397   3.690 -0.0216 -0.4403 -0.4258
 1111SOL     OW 3468   1.005   1.589   3.011  0.1780 -0.2968 -0.6005
 1111SOL    HW1 3469   0.942   1.521   3.035  1.0947 -0.9707 -0.0467
 1111SOL    HW2 3470   0.969   1.669   3.048 -0.9425 -0.4576 -1.3007
 1112SOL     OW 3471   1.109   3.108   3.287 -0.0921 -0.3517  0.5418
 1112SOL    HW1 3472   1.169   3.070   3.223  0.0242 -0.9745  1.0051
 1112SOL    HW2 3473   1.081   3.034   3.340  1.4966  0.4179  2.6040
 1113SOL     OW 3474   3.680   1.681   1.617 -0.3467 -0.4244  0.1097
 1113SOL    HW1 3475   3.707   1.770   1.597 -0.9005 -0.6080 -1.6460
 1113SOL    HW2 3476   3.649   1.684   1.708 -0.6617  1.2332 -0.0337
 1114SOL     OW 3477   3.700   3.672   1.285  0.1322 -0.3841  0.2976
 1114SOL    HW1 3478   3.768   3.739   1.284 -1.3945  1.3624 -2.2476
 1114SOL    HW2 3479   3.714   3.623   1.204 -0.8565 -0.7684  0.3415
 1115SOL     OW 3480   3.610   2.598   1.699 -0.2288  0.2390 -0.3881
 1115SOL    HW1 3481   3.647   2.682   1.672  0.7353 -0.2231 -0.5309
 1115SOL    HW2 3482   3.610   2.546   1.619  0.2758 -0.2902 -0.0446
 1116SOL     OW 3483   3.665   1.643   3.665 -0.2082 -0.2746  0.4617
 1116SOL    HW1 3484   3.593   1.619   3.606 -0.1348 -0.4724  0.4529
 1116SOL    HW2 3485   3.647   1.594   3.745  1.7115 -3.0434 -0.6230
 1117SOL     OW 3486   3.530   0.059   3.095  0.1847 -0.4523  0.0953
 1117SOL    HW1 3487   3.578   0.140   3.080  1.1233 -1.1865 -1.1609
 1117SOL    HW2 3488   3.455   0.064   3.036 -0.0012 -0.2991  0.3469
 1118SOL     OW 3489   2.862   2.283   0.079 -0.0792 -0.1451 -0.0803
 1118SOL    HW1 3490   2.814   2.363   0.055 -1.3674 -0.9771 -0.3948
 1118SOL    HW2 3491   2.795   2.226   0.116  0.8419 -1.0663  0.1959
 1119SOL     OW 3492   2.644   0.748   2.341  0.1283  0.4059  0.1907
 1119SOL    HW1 3493   2.583   0.789   2.278  0.0539 -0.2995 -0.2127
 1119SOL    HW2 3494   2.630   0.796   2.422  1.0190  2.0898 -0.5893
 1120SOL     OW 3495   1.220   0.580   2.730  0.9770  0.7105 -0.0716
 1120SOL    HW1 3496   1.177   0.649   2.678  0.7958  0.7031  0.0660
 1120SOL    HW2 3497   1.313   0.600   2.723  0.8901  1.3833  0.5459
 1121SOL     OW 3498   0.559   3.083   1.341 -0.5995  0.1076  0.1578
 1121SOL    HW1 3499   0.560   3.010   1.280  0.5126  0.8137 -0.7234
 1121SOL    HW2 3500   0.533   3.158   1.288  0.1722  0.6943  0.5804
 1122SOL     OW 3501   0.492   2.543   3.669 -0.5031 -0.4175  0.2913
 1122SOL    HW1 3502   0.544   2.555   3.589  0.3656  0.2634  0.9310
 1122SOL    HW2 3503   0.404   2.521   3.638 -0.3962  0.6789 -0.8694
 1123SOL     OW 3504   1.742   1.739   3.465 -0.1438  0.2133 -0.0069
 1123SOL    HW1 3505   1.749   1.792   3.386  2.4107 -0.4073 -0.2723
 1123SOL    HW2 3506   1.811   1.770   3.523 -0.5987 -0.7572  1.1236
 1124SOL     OW 3507   1.744   0.760   1.382 -0.1309 -0.6392 -0.4780
 1124SOL    HW1 3508   1.755   0.672   1.344  1.5974 -0.5990 -0.1638
 1124SOL    HW2 3509   1.652   0.764   1.406  0.1675 -3.2855  1.6520
 1125SOL     OW 3510   0.235   1.256   3.204 -0.0915 -0.1260 -0.8233
 1125SOL    HW1 3511   0.170   1.188   3.224 -1.0842  1.2410  0.9474
 1125SOL    HW2 3512   0.233   1.264   3.109 -0.0115 -2.4667 -1.0792
 1126SOL     OW 3513   0.190   1.909   1.707 -0.2437  0.0778  0.4847
 1126SOL    HW1 3514   0.258   1.853   1.669  0.9102  0.6164  1.6435
 1126SOL    HW2 3515   0.155   1.857   1.779 -3.1664 -1.3792 -1.7848
 1127SOL     OW 3516   2.242   1.975   0.058  1.0351  0.4514 -0.0480
 1127SOL    HW1 3517   2.281   1.895   0.091 -0.7979 -0.5678 -0.1998
 1127SOL    HW2 3518   2.280   1.987  -0.029 -0.2134 -1.4822 -0.9324
 1128SOL     OW 3519   1.232   0.464   2.025  1.3132 -0.1252  0.2874
 1128SOL    HW1 3520   1.271   0.539   1.980 -5.4084  2.5956 -2.2921
 1128SOL    HW2 3521   1.222   0.398   1.957 -1.7972  0.9262 -0.4627
 1129SOL     OW 3522   0.938   3.025   2.431 -0.6057 -0.0211 -0.2025
 1129SOL    HW1 3523   0.858   3.049   2.384 -0.4302 -0.3180 -0.6605
 1129SOL    HW2 3524   0.913   3.027   2.523 -1.6292 -1.7763 -0.3829
 1130SOL     OW 3525   1.073   2.357   2.945  0.1374  0.4460 -0.5084
 1130SOL    HW1 3526   1.099   2.265   2.937 -0.0156  0.3503  0.0735
 1130SOL    HW2 3527   1.100   2.382   3.033  1.0027  1.2301 -0.9700
 1131SOL     OW 3528   1.210   1.517   3.439 -0.3578 -0.5239 -0.0044
 1131SOL    HW1 3529   1.192   1.430   3.404  0.1425 -0.4289 -0.5294
 1131SOL    HW2 3530   1.244   1.501   3.527 -3.2657 -0.6730  1.1699
 1132SOL     OW 3531   1.367   3.586   3.609 -0.7601 -0.0256  0.2155
 1132SOL    HW1 3532   1.461   3.569   3.596 -0.1762  2.6895  0.3020
 1132SOL    HW2 3533   1.325   3.503   3.586  1.5254 -0.8578 -1.4280
 1133SOL     OW 3534   2.886   0.744   2.247 -0.0991 -0.9655  0.2757
 1133SOL    HW1 3535   2.950   0.797   2.295  0.7785 -0.4246 -1.4292
 1133SOL    HW2 3536   2.803   0.762   2.291  0.5621  0.0062  1.1829
 1134SOL     OW 3537   1.898   1.348   3.318 -0.7012  0.3846  0.0518
 1134SOL    HW1 3538   1.947   1.363   3.237  1.4536  0.0024  1.1951
 1134SOL    HW2 3539   1.870   1.257   3.313  0.1952  0.0908  0.0776
 1135SOL     OW 3540   0.313   3.674   3.243 -1.1628 -0.0170  0.4013
 1135SOL    HW1 3541   0.339   3.764   3.223  0.0266 -0.3941  0.2206
 1135SOL    HW2 3542   0.308   3.631   3.158 -1.1425 -0.2795  0.5314
 1136SOL     OW 3543   2.091   1.206   1.919  0.1036  0.2664  0.2901
 1136SOL    HW1 3544   2.102   1.136   1.983  1.4692 -0.7314 -0.9815
 1136SOL    HW2 3545   1.997   1.204   1.897 -1.1736  2.6590  4.3768
 1137SOL     OW 3546   2.033   1.574   3.444 -0.2765 -0.2499  0.4584
 1137SOL    HW1 3547   2.015   1.604   3.355 -0.3550 -1.5074  0.0254
 1137SOL    HW2 3548   1.975   1.499   3.456 -1.6713  1.0398  2.2772
 1138SOL     OW 3549   0.061   3.338   1.996 -0.2142  0.4113  0.8325
 1138SOL    HW1 3550   0.118   3.414   1.982 -0.5218  0.3091 -1.2612
 1138SOL    HW2 3551  -0.003   3.368   2.060  0.0384  1.7388  0.4993
 1139SOL     OW 3552   0.838   0.544   1.446 -0.3652  0.3051  0.2337
 1139SOL    HW1 3553   0.926   0.530   1.410 -0.7751  0.2901 -0.7996
 1139SOL    HW2 3554   0.783   0.561   1.369 -1.4970 -0.8551  0.7442
 1140SOL     OW 3555   3.242   1.111   3.343  0.7055 -0.3776  1.2310
 1140SOL    HW1 3556   3.317   1.150   3.388 -0.4415 -0.0826  2.9427
 1140SOL    HW2 3557   3.223   1.030   3.392 -1.1304  0.4144  1.9143
 1141SOL     OW 3558   1.822   3.041   3.212 -0.2391 -0.0884  0.0452
 1141SOL    HW1 3559   1.861   3.108   3.268  0.4889  0.6015 -1.2299
 1141SOL    HW2 3560   1.736   3.075   3.190 -0.8612 -0.7474  1.3763
 1142SOL     OW 3561   0.791   2.713   1.868 -0.0339 -0.8857  0.6692
 1142SOL    HW1 3562   0.726   2.777   1.838  1.1243  1.9423  3.5614
 1142SOL    HW2 3563   0.755   2.679   1.950  1.2907 -0.5996  1.3977
 1143SOL     OW 3564   0.031   3.617   2.532  0.1375 -0.0323 -0.1707
 1143SOL    HW1 3565   0.103   3.673   2.562  0.9872 -1.7938  1.2979
 1143SOL    HW2 3566   0.073   3.535   2.508 -1.2910 -0.8039 -0.1398
 1144SOL     OW 3567   1.857   0.289   1.656  0.1458  0.5550 -0.2846
 1144SOL    HW1 3568   1.933   0.243   1.693  2.0061  1.5991 -2.5386
 1144SOL    HW2 3569   1.783   0.233   1.676  1.7044 -1.2520  0.7874
 1145SOL     OW 3570   1.752   2.036   0.841 -0.1623 -0.1197 -0.7263
 1145SOL    HW1 3571   1.669   2.051   0.795 -0.1789 -1.6555 -1.2237
 1145SOL    HW2 3572   1.742   2.083   0.924 -2.4103 -1.9899  0.1718
 1146SOL     OW 3573   3.446   1.681   1.294  0.0269  0.0793  0.2821
 1146SOL    HW1 3574   3.420   1.623   1.366 -0.1534  1.1127  1.0705
 1146SOL    HW2 3575   3.526   1.641   1.260  0.5259 -0.0428  1.5391
 1147SOL     OW 3576   2.934   3.261   0.524  0.3655 -0.2288  0.2868
 1147SOL    HW1 3577   2.926   3.172   0.488  2.1109 -0.5626  0.6239
 1147SOL    HW2 3578   2.968   3.248   0.612 -1.7279  0.6996  1.2863
 1148SOL     OW 3579   2.278   0.936   2.618  0.2413  0.6900 -0.0759
 1148SOL    HW1 3580   2.184   0.951   2.633 -0.3609  0.3380 -2.9642
 1148SOL    HW2 3581   2.282   0.854   2.570  2.0878  0.6203  0.1167
 1149SOL     OW 3582   3.632   3.043   1.439  1.1191  0.1964  0.0151
 1149SOL    HW1 3583   3.540   3.047   1.413  0.9759  0.8250  0.5790
 1149SOL    HW2 3584   3.647   3.125   1.486  1.8773 -0.0519  0.2199
 1150SOL     OW 3585   3.214   3.466   2.088  0.0013 -0.2990  0.1085
 1150SOL    HW1 3586   3.201   3.525   2.162  0.7017  1.2633 -0.9663
 1150SOL    HW2 3587   3.201   3.379   2.125 -0.3596  0.4663  1.9084
 1151SOL     OW 3588   0.083   3.544   0.729  0.1129 -0.1913  0.3018
 1151SOL    HW1 3589   0.110   3.565   0.818 -0.2705  0.1688  0.3337
 1151SOL    HW2 3590   0.081   3.449   0.726  0.3838 -0.2068  0.5984
 1152SOL     OW 3591   3.590   0.479   2.203  0.2010 -0.6212  0.2471
 1152SOL    HW1 3592   3.604   0.428   2.123 -0.0228 -0.5676  0.1749
 1152SOL    HW2 3593   3.546   0.418   2.262  0.3665 -0.6609  0.3310
 1153SOL     OW 3594   2.634   0.979   2.164  0.0643 -0.6393 -0.3501
 1153SOL    HW1 3595   2.564   1.031   2.203  1.5637  0.2634  1.2709
 1153SOL    HW2 3596   2.686   1.041   2.114 -0.3286 -1.3376 -1.6959
 1154SOL     OW 3597   1.462   0.854   2.894  0.2833 -0.3074  0.2675
 1154SOL    HW1 3598   1.470   0.781   2.833 -1.7315 -0.3441 -0.0163
 1154SOL    HW2 3599   1.472   0.815   2.981 -4.5081 -1.7965  0.4190
 1155SOL     OW 3600   0.222   2.098   0.371  0.5230  0.1283 -0.9736
 1155SOL    HW1 3601   0.151   2.127   0.314  0.7306  0.1834 -1.2071
 1155SOL    HW2 3602   0.236   2.007   0.347  0.6974  0.1885 -1.1028
 1156SOL     OW 3603   2.916   3.131   1.755  0.0653  0.1154  0.4144
 1156SOL    HW1 3604   2.827   3.165   1.743 -0.9572 -1.3928  2.8932
 1156SOL    HW2 3605   2.903   3.038   1.776  2.4494 -0.8137 -1.7340
 1157SOL     OW 3606   2.483   0.863   0.947 -0.1925 -0.2356 -0.2319
 1157SOL    HW1 3607   2.508   0.954   0.932 -0.1319  0.2585  2.3770
 1157SOL    HW2 3608   2.443   0.834   0.865  0.4601  1.8901 -1.3548
 1158SOL     OW 3609   0.427   2.266   0.354  0.5072  0.4740 -0.5253
 1158SOL    HW1 3610   0.391   2.304   0.434  1.1410  1.2381 -0.5961
 1158SOL    HW2 3611   0.358   2.207   0.322 -0.1059  0.8480  0.0933
 1159SOL     OW 3612   2.380   1.833   0.614  0.2764  0.2291  0.3964
 1159SOL    HW1 3613   2.397   1.864   0.525 -1.1887  0.2108  0.0977
 1159SOL    HW2 3614   2.414   1.744   0.616  0.9347  0.4695  0.0730
 1160SOL     OW 3615   3.308   2.636   2.344 -0.5288 -0.2151  0.1507
 1160SOL    HW1 3616   3.231   2.603   2.390 -0.0357  0.5659  1.5658
 1160SOL    HW2 3617   3.303   2.731   2.354 -0.2785 -0.0363 -1.2288
 1161SOL     OW 3618   3.485   3.025   3.588  0.1458  0.6013  0.2499
 1161SOL    HW1 3619   3.510   2.960   3.654  1.0229 -0.2102 -0.8503
 1161SOL    HW2 3620   3.403   2.992   3.552  1.1945 -0.5764 -1.1466
 1162SOL     OW 3621   0.119   1.003   3.260  0.4202 -0.3661  0.5973
 1162SOL    HW1 3622   0.042   0.974   3.310 -0.1104  3.8526  2.7379
 1162SOL    HW2 3623   0.183   0.933   3.272 -1.5670 -2.0062  2.6236
 1163SOL     OW 3624   2.292   2.301   1.751 -0.4853 -0.2316 -0.6784
 1163SOL    HW1 3625   2.293   2.281   1.658 -1.0249 -0.4304 -0.6436
 1163SOL    HW2 3626   2.233   2.376   1.759  0.5791  0.6260 -0.6544
 1164SOL     OW 3627   2.651   2.619   3.318 -0.2579 -0.1698  0.8571
 1164SOL    HW1 3628   2.724   2.680   3.308 -1.4973  1.1386 -0.6664
 1164SOL    HW2 3629   2.614   2.610   3.230  0.2531 -3.6964  0.8562
 1165SOL     OW 3630   0.837   3.550   2.554 -0.2509 -0.6938  0.3616
 1165SOL    HW1 3631   0.828   3.457   2.573  0.5455 -0.4674  2.0463
 1165SOL    HW2 3632   0.750   3.586   2.568 -0.8377 -1.3211 -1.3949
 1166SOL     OW 3633   0.444   0.089   3.015  0.4072  0.5021 -0.6202
 1166SOL    HW1 3634   0.535   0.061   3.022  0.2397 -0.6947 -2.5002
 1166SOL    HW2 3635   0.441   0.138   2.932 -0.7189  0.2827 -0.7201
 1167SOL     OW 3636   2.869   1.585   1.592 -0.7047  0.1280  0.5755
 1167SOL    HW1 3637   2.921   1.520   1.638  0.3559 -0.4821 -1.3562
 1167SOL    HW2 3638   2.779   1.568   1.619 -0.0581  0.5551  3.2290
 1168SOL     OW 3639   2.974   1.035   0.646  0.5815 -0.0734 -0.5154
 1168SOL    HW1 3640   2.927   0.990   0.576 -1.0006 -2.7301  2.0145
 1168SOL    HW2 3641   3.066   1.027   0.623  0.3113 -3.6265 -0.9022
 1169SOL     OW 3642   3.502   0.855   1.621 -0.1806  0.1485 -0.6945
 1169SOL    HW1 3643   3.533   0.816   1.702 -0.1557  2.3959  0.4549
 1169SOL    HW2 3644   3.415   0.817   1.608  0.0425 -0.6516  0.0568
 1170SOL     OW 3645   2.019   1.674   3.183 -0.7024 -0.0391  0.5707
 1170SOL    HW1 3646   2.088   1.736   3.206 -0.1059 -0.9552  1.3088
 1170SOL    HW2 3647   2.043   1.642   3.096 -0.5273  0.0860  0.5724
 1171SOL     OW 3648   0.116   3.556   2.225 -0.4579 -0.2699 -0.1496
 1171SOL    HW1 3649   0.094   3.645   2.197 -0.9722 -0.1202  0.7084
 1171SOL    HW2 3650   0.040   3.503   2.201  0.1744 -0.6557 -1.3998
 1172SOL     OW 3651   1.788   3.455   2.460 -0.0760 -0.3936 -0.0580
 1172SOL    HW1 3652   1.852   3.421   2.523 -0.3492  1.9857  1.6356
 1172SOL    HW2 3653   1.712   3.479   2.513 -0.4161  1.4419 -1.3029
 1173SOL     OW 3654   0.289   1.470   3.445 -0.1330  0.0962 -0.2374
 1173SOL    HW1 3655   0.271   1.519   3.525  0.7235  1.5158 -0.8914
 1173SOL    HW2 3656   0.376   1.497   3.418  0.5255 -2.0421 -0.4682
 1174SOL     OW 3657   3.004   3.623   3.061  0.3007  0.4096  0.5983
 1174SOL    HW1 3658   2.989   3.713   3.090  1.5173  0.5484  0.8562
 1174SOL    HW2 3659   3.099   3.615   3.059  0.2004 -0.7749  0.2554
 1175SOL     OW 3660   0.816   2.207   0.838  0.2850  0.0900  0.6455
 1175SOL    HW1 3661   0.783   2.297   0.840  0.9079  0.3120  1.4163
 1175SOL    HW2 3662   0.905   2.214   0.803 -0.5549 -0.5582 -1.8510
 1176SOL     OW 3663   1.294   2.640   0.954  0.1872 -0.7326  0.1849
 1176SOL    HW1 3664   1.210   2.609   0.988 -0.5245  2.0040  1.2308
 1176SOL    HW2 3665   1.272   2.716   0.901  1.9178 -0.8662 -0.8191
 1177SOL     OW 3666   0.074   2.659   2.571  0.0489 -0.4320  0.7103
 1177SOL    HW1 3667   0.119   2.736   2.606  1.1887 -0.6427 -0.2350
 1177SOL    HW2 3668   0.030   2.691   2.492 -0.2615 -0.5479  0.8361
 1178SOL     OW 3669   0.527   0.797   1.460  0.9483  0.3679  0.5841
 1178SOL    HW1 3670   0.509   0.807   1.366  0.3424  1.2857  0.7808
 1178SOL    HW2 3671   0.600   0.857   1.476  0.9144  0.3666  0.7424
 1179SOL     OW 3672   0.352   2.022   0.631 -0.1237  0.2670 -0.2571
 1179SOL    HW1 3673   0.281   2.086   0.632 -0.7636 -0.3115  3.0434
 1179SOL    HW2 3674   0.393   2.030   0.717  0.6514 -2.7888 -0.2330
 1180SOL     OW 3675   0.768   0.954   0.994  0.2207  0.0076 -0.2412
 1180SOL    HW1 3676   0.772   0.923   0.903  1.5232 -0.4771 -0.0413
 1180SOL    HW2 3677   0.724   1.039   0.988  2.8713  1.4450 -1.7751
 1181SOL     OW 3678   1.021   0.354   3.423 -0.0760  0.3917  0.2082
 1181SOL    HW1 3679   1.062   0.420   3.367 -0.1549 -0.1220 -0.4706
 1181SOL    HW2 3680   0.950   0.400   3.468  1.7493  1.5452  2.1071
 1182SOL     OW 3681   2.119   2.831   0.630 -0.0007 -0.2697  0.8167
 1182SOL    HW1 3682   2.131   2.882   0.549 -0.4654 -0.0458  0.8802
 1182SOL    HW2 3683   2.149   2.889   0.700 -0.7380  0.0170  0.9097
 1183SOL     OW 3684   0.546   0.783   1.034  0.0162 -0.0801 -0.1842
 1183SOL    HW1 3685   0.465   0.780   0.983 -0.4756  1.5759  0.4379
 1183SOL    HW2 3686   0.582   0.871   1.018  1.3791 -0.5693  0.0298
 1184SOL     OW 3687   1.060   3.587   0.285  0.3880  0.1953  0.1244
 1184SOL    HW1 3688   1.089   3.497   0.300 -2.5125 -0.5387  2.0179
 1184SOL    HW2 3689   0.992   3.580   0.218  1.1891  1.2352 -0.8400
 1185SOL     OW 3690   1.895   2.649   0.525 -0.1287  0.9928 -0.5428
 1185SOL    HW1 3691   1.916   2.723   0.582 -1.6261  1.5416 -0.6608
 1185SOL    HW2 3692   1.812   2.673   0.484 -1.2643 -1.2328  0.2881
 1186SOL     OW 3693   2.805   2.295   1.932  0.5339  0.1411  0.5707
 1186SOL    HW1 3694   2.841   2.277   2.019  0.2675  0.4064  0.7369
 1186SOL    HW2 3695   2.881   2.319   1.879  0.5096  1.4908  1.1236
 1187SOL     OW 3696   1.817   1.531   2.829  0.0499 -0.7029 -0.1924
 1187SOL    HW1 3697   1.822   1.541   2.924 -1.0289 -0.4755 -0.1462
 1187SOL    HW2 3698   1.800   1.438   2.816  3.0434 -1.3445 -0.3239
 1188SOL     OW 3699   3.372   1.067   1.826 -0.1972  0.6798 -0.2736
 1188SOL    HW1 3700   3.289   1.021   1.816 -0.0381 -0.0253  1.3542
 1188SOL    HW2 3701   3.391   1.101   1.739 -0.2707 -2.4210 -1.6352
 1189SOL     OW 3702   0.924   1.149   1.239 -0.2125  0.6554  0.0967
 1189SOL    HW1 3703   0.943   1.179   1.151  1.2047 -2.3608 -0.7254
 1189SOL    HW2 3704   1.006   1.162   1.288 -0.4267  0.6052  0.4779
 1190SOL     OW 3705   2.855   2.056   3.011 -0.5186 -0.2036  0.0309
 1190SOL    HW1 3706   2.939   2.057   3.056  0.8241 -2.4718 -2.1773
 1190SOL    HW2 3707   2.826   1.965   3.016 -1.7877  0.1055 -1.0593
 1191SOL     OW 3708   0.438   1.114   3.736  0.4470 -0.6548  0.1329
 1191SOL    HW1 3709   0.400   1.041   3.685  0.1857 -0.0347 -0.5846
 1191SOL    HW2 3710   0.528   1.120   3.705  0.3311 -0.3727 -0.1534
 1192SOL     OW 3711   2.908   3.354   2.578  0.1317 -0.0217 -0.6748
 1192SOL    HW1 3712   2.824   3.379   2.540  0.1117  0.0943 -0.5569
 1192SOL    HW2 3713   2.887   3.319   2.664  0.1521 -0.5458 -0.8796
 1193SOL     OW 3714   2.820   1.737   0.756  0.2714  0.2867 -0.2158
 1193SOL    HW1 3715   2.761   1.689   0.815 -0.2494  0.7244 -0.3760
 1193SOL    HW2 3716   2.905   1.734   0.800 -0.4295  1.9685  1.3711
 1194SOL     OW 3717   0.730   3.123   2.296  0.6487  0.2641 -0.0326
 1194SOL    HW1 3718   0.764   3.051   2.243  0.7378 -0.7810  1.3950
 1194SOL    HW2 3719   0.681   3.177   2.234 -0.4539 -1.6661 -0.9380
 1195SOL     OW 3720   0.089   3.261   0.731  0.0472  0.1111 -0.4044
 1195SOL    HW1 3721   0.164   3.238   0.787 -0.6631 -1.1086  0.0810
 1195SOL    HW2 3722   0.104   3.213   0.650  0.1609  0.4566 -0.5893
 1196SOL     OW 3723   1.862   3.638   0.216 -0.2655  0.3905 -0.2414
 1196SOL    HW1 3724   1.851   3.688   0.298  1.7085  0.2002  0.1887
 1196SOL    HW2 3725   1.773   3.623   0.185 -1.0456  0.9496  1.5944
 1197SOL     OW 3726   2.041   1.031   2.132  0.2169  0.2159  0.0630
 1197SOL    HW1 3727   2.010   0.942   2.113 -0.2758  0.0454  1.5173
 1197SOL    HW2 3728   2.095   1.021   2.211  3.1374  0.6861 -1.7060
 1198SOL     OW 3729   3.607   2.141   0.264 -0.3123  0.3296 -0.3858
 1198SOL    HW1 3730   3.513   2.153   0.256 -0.4650 -0.7503 -0.2915
 1198SOL    HW2 3731   3.640   2.227   0.289 -1.4884  0.3047  1.4356
 1199SOL     OW 3732   0.495   0.317   3.402  0.2255  0.3079  0.7048
 1199SOL    HW1 3733   0.414   0.280   3.367 -0.6931  1.8514  1.1316
 1199SOL    HW2 3734   0.561   0.298   3.335 -0.2748 -1.6943  0.7197
 1200SOL     OW 3735   1.356   0.651   1.840 -0.1370  0.9419 -0.2798
 1200SOL    HW1 3736   1.273   0.655   1.792 -1.1238 -0.9024  1.1674
 1200SOL    HW2 3737   1.398   0.735   1.821 -2.8761  2.4747 -0.0788
 1201SOL     OW 3738   1.104   1.910   0.501  0.0981  0.5938  0.0101
 1201SOL    HW1 3739   1.146   1.996   0.500 -1.1787  1.2408 -0.4864
 1201SOL    HW2 3740   1.056   1.905   0.418  1.0840 -1.0999 -0.5152
 1202SOL     OW 3741   2.847   3.733   2.217 -0.1822 -0.2267 -0.1164
 1202SOL    HW1 3742   2.832   3.663   2.154  0.9954 -1.4060  0.8409
 1202SOL    HW2 3743   2.915   3.788   2.177  0.1298 -0.6310 -0.1488
 1203SOL     OW 3744   0.736   0.195   0.998  0.3623  0.3111  0.9603
 1203SOL    HW1 3745   0.686   0.236   1.069 -3.9462  2.2427 -2.6729
 1203SOL    HW2 3746   0.762   0.268   0.942  2.4176 -1.2326 -0.2410
 1204SOL     OW 3747   3.559   2.276   1.078 -0.2181  0.1436  0.1952
 1204SOL    HW1 3748   3.645   2.236   1.072  0.2266  0.7700  1.9823
 1204SOL    HW2 3749   3.568   2.344   1.145 -1.5893  1.5473 -0.9585
 1205SOL     OW 3750   3.612   1.505   0.151  0.4061 -0.3239 -0.4829
 1205SOL    HW1 3751   3.581   1.560   0.222  1.7510  1.3890 -1.1572
 1205SOL    HW2 3752   3.653   1.430   0.194 -1.1625 -0.6670  0.4620
 1206SOL     OW 3753   0.600   1.105   0.433 -0.8238 -0.4444 -0.2206
 1206SOL    HW1 3754   0.538   1.032   0.434 -1.5966  0.1995 -0.4902
 1206SOL    HW2 3755   0.560   1.171   0.490 -1.0537  0.5119 -1.4506
 1207SOL     OW 3756   0.596   3.666   2.717  0.3767 -0.1493 -0.5142
 1207SOL    HW1 3757   0.510   3.663   2.674 -0.8588  1.0909  1.6849
 1207SOL    HW2 3758   0.618   3.759   2.720 -0.4639  0.0663  2.9481
 1208SOL     OW 3759   0.658   2.076   0.627  0.7556 -0.2215  0.1193
 1208SOL    HW1 3760   0.712   2.077   0.705  0.0353  2.0525  0.6465
 1208SOL    HW2 3761   0.611   2.159   0.628 -1.3364 -1.2699 -1.3050
 1209SOL     OW 3762   1.323   1.483   1.853 -0.4667 -0.0080 -1.5772
 1209SOL    HW1 3763   1.310   1.454   1.943  1.5558  0.3117 -1.1335
 1209SOL    HW2 3764   1.410   1.523   1.853 -0.0969 -0.6772 -3.8271
 1210SOL     OW 3765   2.171   3.698   0.582 -0.0801 -0.1513  0.6116
 1210SOL    HW1 3766   2.177   3.761   0.654 -1.8044  1.8197 -0.8353
 1210SOL    HW2 3767   2.255   3.707   0.536  0.5220 -0.4973  1.6168
 1211SOL     OW 3768   2.631   1.499   0.364 -0.3732  0.6239 -0.4778
 1211SOL    HW1 3769   2.617   1.553   0.287  1.2836 -0.7379 -1.8089
 1211SOL    HW2 3770   2.701   1.544   0.412 -0.8688  1.0642 -0.1609
 1212SOL     OW 3771   2.476   0.035   2.618  0.0185 -0.2433 -0.9014
 1212SOL    HW1 3772   2.508   0.018   2.706  0.2397  0.0252 -0.9269
 1212SOL    HW2 3773   2.386   0.003   2.618  0.5049 -1.6955 -1.0530
 1213SOL     OW 3774   0.600   0.599   2.774 -0.9472 -0.5161  0.3395
 1213SOL    HW1 3775   0.585   0.587   2.681  1.7357 -0.9054 -0.1295
 1213SOL    HW2 3776   0.640   0.517   2.803 -0.3233  0.1651  1.4882
 1214SOL     OW 3777   0.239   2.742   2.955 -0.3944  0.4663 -0.3172
 1214SOL    HW1 3778   0.271   2.703   2.874  2.4693  2.1073 -0.1307
 1214SOL    HW2 3779   0.192   2.821   2.927 -0.7142  0.2272 -0.4504
 1215SOL     OW 3780   0.218   1.821   3.274 -0.4518  0.1201 -0.0597
 1215SOL    HW1 3781   0.312   1.835   3.280 -0.5153  0.6030 -0.1765
 1215SOL    HW2 3782   0.206   1.728   3.296  0.1155 -0.1110 -0.6885
 1216SOL     OW 3783   0.989   2.549   0.897  0.2868 -0.5427  0.0948
 1216SOL    HW1 3784   0.916   2.520   0.950  0.3462  1.0270  1.0808
 1216SOL    HW2 3785   0.949   2.588   0.819  0.1194 -0.6072  0.1496
 1217SOL     OW 3786   3.474   3.700   0.981 -0.0382  0.2654  0.0036
 1217SOL    HW1 3787   3.383   3.718   1.004  0.4410  1.1732  1.2630
 1217SOL    HW2 3788   3.483   3.732   0.891 -0.9965  0.0186 -0.1910
 1218SOL     OW 3789   2.759   3.079   1.413 -0.6840 -0.3501  0.0992
 1218SOL    HW1 3790   2.692   3.134   1.453 -0.0593 -0.2616  1.0252
 1218SOL    HW2 3791   2.829   3.074   1.477  0.1582 -0.5480 -0.8083
 1219SOL     OW 3792   1.601   3.131   3.084  0.0937 -0.4877  0.2230
 1219SOL    HW1 3793   1.527   3.191   3.096  0.4126 -0.0561  0.0695
 1219SOL    HW2 3794   1.658   3.176   3.021 -0.2014 -1.4550 -0.7663
 1220SOL     OW 3795   2.883   0.963   2.659  0.3968 -0.0750  0.1995
 1220SOL    HW1 3796   2.835   0.947   2.740  0.6439  0.8636  0.5453
 1220SOL    HW2 3797   2.974   0.972   2.686  0.3083  1.7321  0.0538
 1221SOL     OW 3798   0.320   2.799   0.109 -0.2646  0.0846  0.7498
 1221SOL    HW1 3799   0.328   2.706   0.133 -0.2418 -0.1922 -0.3015
 1221SOL    HW2 3800   0.226   2.814   0.102 -0.2426 -0.0653  0.1342
 1222SOL     OW 3801   3.099   1.775   0.834  0.0051  0.2865 -0.7680
 1222SOL    HW1 3802   3.176   1.743   0.880  0.3281  0.1663 -1.3845
 1222SOL    HW2 3803   3.069   1.849   0.887 -0.1498 -0.3754  0.1071
 1223SOL     OW 3804   3.558   3.005   2.329 -0.2987 -0.0866 -0.2718
 1223SOL    HW1 3805   3.553   3.062   2.252  0.2127 -0.6257 -0.7180
 1223SOL    HW2 3806   3.643   3.025   2.368 -1.4439  1.7684  1.4442
 1224SOL     OW 3807   2.452   2.720   3.503  0.4600  0.6863 -0.0941
 1224SOL    HW1 3808   2.492   2.740   3.419  1.0575  1.3168  0.3324
 1224SOL    HW2 3809   2.381   2.659   3.482  1.3470 -0.0916 -0.9161
 1225SOL     OW 3810   0.764   0.797   2.554  0.2576 -0.5417 -0.1528
 1225SOL    HW1 3811   0.793   0.730   2.492  0.0444 -1.9191  1.1770
 1225SOL    HW2 3812   0.702   0.851   2.505  0.1167 -1.5710 -1.1415
 1226SOL     OW 3813   1.180   3.728   0.873 -0.4417  0.7412 -0.2059
 1226SOL    HW1 3814   1.182   3.638   0.839 -0.0421  1.1195 -1.2303
 1226SOL    HW2 3815   1.151   3.719   0.964  3.5992 -0.8860  1.1450
 1227SOL     OW 3816   0.198   0.236   2.316  0.7200  0.2863  0.4095
 1227SOL    HW1 3817   0.281   0.196   2.290  0.2022  0.1954 -1.2065
 1227SOL    HW2 3818   0.168   0.184   2.391  2.6005  0.9711  1.7204
 1228SOL     OW 3819   1.419   1.865   1.860 -0.0027 -0.1143 -0.8999
 1228SOL    HW1 3820   1.339   1.820   1.887 -0.0377  0.2184 -0.4453
 1228SOL    HW2 3821   1.404   1.889   1.769 -0.6974  0.5714 -0.6061
 1229SOL     OW 3822   2.620   0.951   2.858 -0.4603  0.3588  0.2171
 1229SOL    HW1 3823   2.551   0.909   2.909 -0.2482  0.9061  0.9836
 1229SOL    HW2 3824   2.613   1.044   2.881  0.9561  0.3373  0.8541
 1230SOL     OW 3825   1.487   1.349   2.372  0.1559 -0.4776  0.1487
 1230SOL    HW1 3826   1.543   1.363   2.448 -0.2925 -0.3978  0.4670
 1230SOL    HW2 3827   1.482   1.435   2.330 -0.9944 -0.1114  0.9982
 1231SOL     OW 3828   1.327   1.923   1.511 -0.6495 -0.4268 -0.1120
 1231SOL    HW1 3829   1.235   1.935   1.490 -1.3618 -1.6850  1.9764
 1231SOL    HW2 3830   1.335   1.830   1.531  1.2465 -0.4843 -0.8941
 1232SOL     OW 3831   3.347   1.548   2.680 -0.0931  0.3390  0.2807
 1232SOL    HW1 3832   3.324   1.487   2.750  1.6197 -3.1302 -1.9390
 1232SOL    HW2 3833   3.284   1.620   2.690 -1.7574 -1.3325  3.5421
 1233SOL     OW 3834   3.705   0.893   0.500  0.3105  0.0959 -0.5865
 1233SOL    HW1 3835   3.627   0.838   0.506  0.8311 -0.6254 -0.1839
 1233SOL    HW2 3836   3.704   0.947   0.579  0.2388  0.0594 -0.5631
 1234SOL     OW 3837   3.110   0.963   0.970  0.5794  0.4850 -0.3355
 1234SOL    HW1 3838   3.078   1.038   1.020  0.0487  0.1721 -0.1956
 1234SOL    HW2 3839   3.034   0.934   0.920  0.7653 -0.0109 -0.3299
 1235SOL     OW 3840   3.076   0.582   1.374 -0.5430 -0.6530  0.0454
 1235SOL    HW1 3841   3.134   0.611   1.303  1.5449  1.5790  2.4490
 1235SOL    HW2 3842   2.991   0.621   1.352 -0.3078 -1.0854 -1.8219
 1236SOL     OW 3843   1.746   2.377   1.841 -0.4202 -0.6684  0.5255
 1236SOL    HW1 3844   1.657   2.395   1.813  0.4474  0.8884 -1.5084
 1236SOL    HW2 3845   1.751   2.411   1.930 -0.8952  2.9078 -0.6344
 1237SOL     OW 3846   0.919   0.364   1.672  0.0842 -0.1455  0.5617
 1237SOL    HW1 3847   1.007   0.380   1.639 -0.8314 -1.4687 -2.9817
 1237SOL    HW2 3848   0.877   0.450   1.672  0.3465  0.0262 -1.3395
 1238SOL     OW 3849   2.754   2.662   0.804  0.3570  0.0110  0.0944
 1238SOL    HW1 3850   2.698   2.609   0.862  0.7910 -0.3503  0.1930
 1238SOL    HW2 3851   2.693   2.717   0.755 -0.0279  0.2175  0.7913
 1239SOL     OW 3852   0.990   0.449   2.182 -0.2640 -0.0281  0.7980
 1239SOL    HW1 3853   1.081   0.474   2.166 -0.2537 -0.0607  0.8056
 1239SOL    HW2 3854   0.955   0.430   2.095 -0.8448  1.9425  0.5724
 1240SOL     OW 3855   0.012   3.063   3.262 -0.4911  0.0296  0.4095
 1240SOL    HW1 3856  -0.021   3.150   3.285  1.5024  0.3715  2.3459
 1240SOL    HW2 3857   0.029   3.021   3.346  1.8629 -0.8938 -0.4430
 1241SOL     OW 3858   0.697   0.173   1.777  0.2525  0.0512  0.2924
 1241SOL    HW1 3859   0.632   0.230   1.736 -0.5391 -0.8376  0.2934
 1241SOL    HW2 3860   0.710   0.103   1.713  0.7944 -0.0817  0.5451
 1242SOL     OW 3861   0.813   2.780   1.388  0.7374  0.0174  0.7549
 1242SOL    HW1 3862   0.718   2.779   1.376  0.6450  2.5314  0.5874
 1242SOL    HW2 3863   0.848   2.728   1.315 -0.4773 -0.3349  0.4068
 1243SOL     OW 3864   3.450   2.037   1.148  0.3154  0.1186  0.4674
 1243SOL    HW1 3865   3.500   2.117   1.129 -0.7626  0.3028 -2.0497
 1243SOL    HW2 3866   3.360   2.060   1.127 -0.6753 -0.6975  3.3526
 1244SOL     OW 3867   3.397   2.841   2.582 -0.1677  0.5049  0.6880
 1244SOL    HW1 3868   3.453   2.914   2.608  0.8099  0.3060 -0.7109
 1244SOL    HW2 3869   3.439   2.764   2.620  1.1415  0.2387 -1.1638
 1245SOL     OW 3870   1.432   3.089   3.358  0.6969  0.1591 -0.5562
 1245SOL    HW1 3871   1.434   2.993   3.367  2.0345  0.3265  1.6346
 1245SOL    HW2 3872   1.518   3.111   3.321  0.4880  0.5398 -0.8192
 1246SOL     OW 3873   3.138   2.857   0.809  0.0826 -0.7365 -0.6140
 1246SOL    HW1 3874   3.058   2.908   0.818  0.4655 -0.2304  0.0658
 1246SOL    HW2 3875   3.168   2.843   0.899  2.6910  2.2536 -0.8204
 1247SOL     OW 3876   3.452   2.719   1.899  0.2271 -0.3572  0.4935
 1247SOL    HW1 3877   3.490   2.676   1.823 -2.8492  1.7855 -2.4968
 1247SOL    HW2 3878   3.362   2.687   1.904 -0.7952  2.3347  0.8444
 1248SOL     OW 3879   3.151   2.005   1.541  0.1339 -0.1501 -0.4626
 1248SOL    HW1 3880   3.174   1.937   1.478  0.7401 -0.9609  0.5992
 1248SOL    HW2 3881   3.068   1.976   1.578  0.8234 -0.8060  0.6273
 1249SOL     OW 3882   0.989   2.577   2.153  0.7776  0.1113  0.0167
 1249SOL    HW1 3883   0.991   2.671   2.170 -1.3763  0.3067 -0.5713
 1249SOL    HW2 3884   1.073   2.559   2.110  0.9622  1.8768 -0.4267
 1250SOL     OW 3885   3.173   0.292   0.064 -0.6160  0.3286 -0.0203
 1250SOL    HW1 3886   3.200   0.209   0.025 -2.2509  0.0345 -0.6043
 1250SOL    HW2 3887   3.254   0.343   0.070  0.4959 -1.3935  0.6440
 1251SOL     OW 3888   2.299   2.273   3.298 -0.5420 -0.1449 -0.6950
 1251SOL    HW1 3889   2.365   2.205   3.282 -0.3305 -0.5379  1.5758
 1251SOL    HW2 3890   2.217   2.235   3.268 -0.0285 -0.3411 -1.9009
 1252SOL     OW 3891   3.305   1.768   1.675 -0.0447 -0.0310 -0.2457
 1252SOL    HW1 3892   3.350   1.817   1.744  3.0436 -0.4934 -1.7561
 1252SOL    HW2 3893   3.330   1.813   1.594 -1.3916 -1.0690 -1.2746
 1253SOL     OW 3894   0.670   1.769   2.471  0.1838  0.1857 -0.3431
 1253SOL    HW1 3895   0.656   1.858   2.438  0.2323  0.4310  0.2924
 1253SOL    HW2 3896   0.763   1.753   2.454  0.1832  0.2665 -0.4297
 1254SOL     OW 3897   2.266   3.105   1.667 -0.2399 -0.5599 -0.5554
 1254SOL    HW1 3898   2.198   3.064   1.721 -0.7856  1.9250  0.8273
 1254SOL    HW2 3899   2.335   3.127   1.730  0.5036 -0.3537 -1.4270
 1255SOL     OW 3900   3.146   0.142   2.467  0.2493  0.4399 -0.8257
 1255SOL    HW1 3901   3.103   0.213   2.419 -3.5446 -1.8779 -1.3035
 1255SOL    HW2 3902   3.122   0.156   2.558  0.1855  0.2571 -0.8129
 1256SOL     OW 3903   0.461   1.175   3.310 -0.2958  0.1359 -0.2430
 1256SOL    HW1 3904   0.376   1.213   3.286 -0.0295  1.1728  0.4045
 1256SOL    HW2 3905   0.492   1.229   3.383  0.0600 -1.4020  0.7875
 1257SOL     OW 3906   2.699   3.492   3.163 -0.1974 -0.0805  0.2889
 1257SOL    HW1 3907   2.791   3.467   3.159 -0.0186  0.6468 -0.3268
 1257SOL    HW2 3908   2.671   3.466   3.251  0.0097 -2.2250 -0.2346
 1258SOL     OW 3909   2.366   1.346   3.046  0.0743 -0.4559 -0.5764
 1258SOL    HW1 3910   2.411   1.339   3.130  1.3165 -0.6673 -1.2355
 1258SOL    HW2 3911   2.373   1.439   3.023 -0.1605 -0.4195 -0.4971
 1259SOL     OW 3912   1.481   2.028   0.733  0.0622 -0.2283 -0.7667
 1259SOL    HW1 3913   1.435   1.945   0.728  0.4146 -0.4551 -0.3152
 1259SOL    HW2 3914   1.416   2.093   0.706  0.2999 -0.8176 -2.9247
 1260SOL     OW 3915   3.699   1.305   1.710 -0.1334  0.4441  0.3111
 1260SOL    HW1 3916   3.688   1.321   1.804 -0.7755 -0.8053  0.4680
 1260SOL    HW2 3917   3.792   1.325   1.694 -0.4277  2.4231  0.8107
 1261SOL     OW 3918   2.160   0.104   0.829  0.2754 -0.7857  0.1485
 1261SOL    HW1 3919   2.128   0.017   0.852  1.6985 -1.4204 -0.2014
 1261SOL    HW2 3920   2.081   0.158   0.828 -0.8508 -2.3476 -0.9769
 1262SOL     OW 3921   2.304   1.327   3.539 -0.0108  0.8609  0.4133
 1262SOL    HW1 3922   2.225   1.274   3.537 -1.1430  2.4919 -1.5937
 1262SOL    HW2 3923   2.325   1.343   3.447  3.2990 -0.3494  0.7965
 1263SOL     OW 3924   2.476   1.274   1.591  0.3920 -0.1204  0.2634
 1263SOL    HW1 3925   2.390   1.278   1.634 -1.0182 -1.0284 -2.2192
 1263SOL    HW2 3926   2.479   1.186   1.553  2.1308  0.1460 -0.2868
 1264SOL     OW 3927   1.497   1.567   0.547  0.0961  0.6216 -0.1875
 1264SOL    HW1 3928   1.562   1.543   0.613  1.1641  3.7270  0.0298
 1264SOL    HW2 3929   1.447   1.638   0.586 -0.5066  1.2507 -1.9872
 1265SOL     OW 3930   2.945   1.371   0.517  0.4160  0.6091  0.1616
 1265SOL    HW1 3931   3.012   1.346   0.581  0.6237  0.0906 -0.2439
 1265SOL    HW2 3932   2.873   1.405   0.569  1.0483  1.3146  0.6031
 1266SOL     OW 3933   2.214   1.655   3.623  0.2869 -0.2405 -0.0490
 1266SOL    HW1 3934   2.305   1.670   3.598  0.1964  3.9895  1.4592
 1266SOL    HW2 3935   2.172   1.624   3.542  2.3123  1.4896 -1.8937
 1267SOL     OW 3936   3.096   3.626   0.733 -0.0651  0.4516 -0.4491
 1267SOL    HW1 3937   3.039   3.594   0.663 -0.8695 -1.9300  1.1817
 1267SOL    HW2 3938   3.037   3.667   0.796  0.0735 -1.1087  0.7572
 1268SOL     OW 3939   1.212   2.678   2.039 -0.2821 -0.0962 -0.5435
 1268SOL    HW1 3940   1.191   2.737   2.111 -1.7545 -0.8785 -0.2821
 1268SOL    HW2 3941   1.156   2.707   1.967  0.5353  0.1352 -1.0945
 1269SOL     OW 3942   1.600   1.390   1.508 -0.4240  0.6021 -0.0726
 1269SOL    HW1 3943   1.601   1.373   1.602 -1.2982  1.1825  0.0552
 1269SOL    HW2 3944   1.646   1.473   1.497 -1.1486  1.0122 -0.0445
 1270SOL     OW 3945   1.150   0.872   3.433 -0.1388 -0.1721 -0.0410
 1270SOL    HW1 3946   1.068   0.835   3.399 -0.6855  2.0441 -1.3396
 1270SOL    HW2 3947   1.134   0.882   3.527 -0.7173 -1.2721 -0.0012
 1271SOL     OW 3948   2.251   1.812   2.418 -0.4788  0.5454  0.0773
 1271SOL    HW1 3949   2.203   1.878   2.368 -1.5334  0.4513  0.9124
 1271SOL    HW2 3950   2.285   1.859   2.494 -1.2310  0.1501  0.6752
 1272SOL     OW 3951   1.572   0.838   2.056 -0.4314 -0.0349 -0.0908
 1272SOL    HW1 3952   1.530   0.890   1.987 -2.0175 -1.3625 -0.1907
 1272SOL    HW2 3953   1.612   0.903   2.114 -0.2300  1.1689 -1.5154
 1273SOL     OW 3954   3.008   2.365   2.164  0.4708  0.2800  0.3930
 1273SOL    HW1 3955   2.938   2.302   2.182  0.6483  0.0075  0.1351
 1273SOL    HW2 3956   3.034   2.396   2.251 -2.5530  3.2848  0.4116
 1274SOL     OW 3957   3.734   0.070   2.132 -0.2681 -0.5946 -0.0033
 1274SOL    HW1 3958   3.722   0.035   2.044 -1.7892  0.7318 -0.3827
 1274SOL    HW2 3959   3.705   0.162   2.125 -0.2506 -0.4161  1.8231
 1275SOL     OW 3960   3.565   1.356   2.618 -0.6249 -0.2535  0.3885
 1275SOL    HW1 3961   3.642   1.412   2.619 -1.9461  1.6566  0.6130
 1275SOL    HW2 3962   3.505   1.396   2.681 -2.6189 -0.4460 -1.2781
 1276SOL     OW 3963   1.437   2.594   2.778 -0.0893  0.2229 -0.4488
 1276SOL    HW1 3964   1.496   2.659   2.817 -1.0592 -0.6954  2.8743
 1276SOL    HW2 3965   1.364   2.645   2.745  0.7615  1.0605 -1.0926
 1277SOL     OW 3966   2.204   0.704   1.320  0.2248  0.0859 -0.1710
 1277SOL    HW1 3967   2.251   0.656   1.388 -1.9457 -0.5705  0.9526
 1277SOL    HW2 3968   2.222   0.655   1.240  1.5146 -0.0630  0.1888
 1278SOL     OW 3969   2.598   3.012   3.350 -0.4800 -0.0176  0.5175
 1278SOL    HW1 3970   2.590   3.029   3.256  0.3527 -0.7217  0.3085
 1278SOL    HW2 3971   2.676   2.958   3.359 -0.3472  0.3209  1.6615
 1279SOL     OW 3972   3.225   1.800   2.062  0.0143 -0.1159  0.6952
 1279SOL    HW1 3973   3.197   1.810   2.153 -2.2634 -1.6504  0.2382
 1279SOL    HW2 3974   3.290   1.730   2.064 -0.0073 -0.1228  1.1325
 1280SOL     OW 3975   2.626   0.621   0.193 -0.2061 -0.3869 -0.1141
 1280SOL    HW1 3976   2.561   0.687   0.218 -0.3649 -0.5544 -0.0851
 1280SOL    HW2 3977   2.623   0.557   0.264  0.7469  0.1434  0.4294
 1281SOL     OW 3978   0.008   0.408   3.522  1.3074 -0.0966  0.0449
 1281SOL    HW1 3979  -0.056   0.363   3.467 -0.0412 -0.6175  1.9429
 1281SOL    HW2 3980   0.063   0.337   3.557  3.2713  0.3764 -1.8843
 1282SOL     OW 3981   1.626   0.196   1.313 -0.7175  0.3529 -0.1602
 1282SOL    HW1 3982   1.718   0.173   1.329 -1.1828 -1.4228  0.1349
 1282SOL    HW2 3983   1.577   0.140   1.373 -2.0553  0.3468 -1.2211
 1283SOL     OW 3984   0.222   3.541   3.027  0.1196  0.6047  0.5431
 1283SOL    HW1 3985   0.212   3.585   2.943  1.2247 -1.8254 -0.9703
 1283SOL    HW2 3986   0.135   3.506   3.046  0.3789 -0.9744 -0.9355
 1284SOL     OW 3987   0.263   2.930   1.338 -0.1578  0.0085  0.0293
 1284SOL    HW1 3988   0.352   2.962   1.319 -0.7124  0.4545 -2.0939
 1284SOL    HW2 3989   0.277   2.844   1.378  1.2742  1.3111  2.5455
 1285SOL     OW 3990   0.751   2.235   3.446  0.3410  0.2139  0.6474
 1285SOL    HW1 3991   0.732   2.190   3.529 -0.7442 -2.4843 -0.9147
 1285SOL    HW2 3992   0.672   2.222   3.394  0.5509  2.8527 -0.4713
 1286SOL     OW 3993   2.885   2.832   1.830  0.3387 -0.0678  0.2825
 1286SOL    HW1 3994   2.857   2.741   1.836 -1.1881  0.2906 -0.8573
 1286SOL    HW2 3995   2.980   2.827   1.817  0.2715 -1.4850  0.2058
 1287SOL     OW 3996   2.299   2.438   1.266  0.3837 -0.4632 -0.1262
 1287SOL    HW1 3997   2.391   2.421   1.245  0.4823 -0.2460  0.1241
 1287SOL    HW2 3998   2.299   2.461   1.359  0.3619  1.6606 -0.5957
 1288SOL     OW 3999   2.956   0.404   0.160 -0.1414  0.0269 -0.3259
 1288SOL    HW1 4000   2.924   0.463   0.091 -0.4032  0.6054  0.2762
 1288SOL    HW2 4001   3.039   0.371   0.127  0.4635  1.4581 -0.2832
 1289SOL     OW 4002   1.352   1.055   3.115  0.1029  0.5215  0.4036
 1289SOL    HW1 4003   1.385   0.982   3.062  0.5933  1.4495 -0.5898
 1289SOL    HW2 4004   1.258   1.056   3.098  0.1216  0.2334  0.2742
 1290SOL     OW 4005   3.709   0.949   0.237 -0.5325 -0.1726 -0.4923
 1290SOL    HW1 4006   3.666   1.030   0.210 -2.0663 -0.1425  1.7652
 1290SOL    HW2 4007   3.679   0.935   0.327  0.8119 -2.5054 -0.3341
 1291SOL     OW 4008   1.665   1.488   3.526  0.0660 -0.5764  0.6571
 1291SOL    HW1 4009   1.685   1.577   3.496 -0.8291 -0.5438  0.1165
 1291SOL    HW2 4010   1.593   1.500   3.588 -1.4756 -1.0726 -0.9555
 1292SOL     OW 4011   2.145   0.345   1.527  0.0661  0.2504 -0.1216
 1292SOL    HW1 4012   2.138   0.307   1.614  1.4682  1.3973  0.5269
 1292SOL    HW2 4013   2.091   0.289   1.472  2.2155 -2.9090  0.6950
 1293SOL     OW 4014   0.212   0.660   1.368  0.2752 -0.1712  0.0165
 1293SOL    HW1 4015   0.182   0.749   1.383 -0.6964 -0.4284 -0.3137
 1293SOL    HW2 4016   0.148   0.604   1.411  1.4509 -0.7058  1.1488
 1294SOL     OW 4017   3.358   0.217   1.330 -0.0561  0.1731  0.4799
 1294SOL    HW1 4018   3.319   0.167   1.258 -3.4771  0.8273  1.7053
 1294SOL    HW2 4019   3.354   0.308   1.300 -0.1683  0.3195  0.9343
 1295SOL     OW 4020   1.470   0.282   2.747 -0.1331 -0.3895 -0.2903
 1295SOL    HW1 4021   1.427   0.322   2.823  2.7823  1.4265  0.5653
 1295SOL    HW2 4022   1.404   0.224   2.710 -2.7411  1.0764  1.7396
 1296SOL     OW 4023   0.526   2.605   2.941 -0.4624 -0.0382  0.4896
 1296SOL    HW1 4024   0.491   2.674   2.997 -2.0249 -1.0002  0.7580
 1296SOL    HW2 4025   0.461   2.535   2.945 -0.5217 -0.2387 -2.3718
 1297SOL     OW 4026   1.301   2.693   3.423 -0.2489 -0.3756 -0.2373
 1297SOL    HW1 4027   1.231   2.629   3.430 -1.6989  1.1095 -0.4283
 1297SOL    HW2 4028   1.348   2.686   3.505 -1.1989 -0.7756  0.2894
 1298SOL     OW 4029   1.522   2.951   1.927  0.2152  0.1038  0.6488
 1298SOL    HW1 4030   1.576   2.884   1.968 -1.0595 -1.6022 -0.3363
 1298SOL    HW2 4031   1.517   3.021   1.992  0.0418 -1.5515  2.5012
 1299SOL     OW 4032   0.235   1.480   0.908  0.4200 -0.2618 -0.3309
 1299SOL    HW1 4033   0.275   1.533   0.838 -0.6268  2.6304  1.0903
 1299SOL    HW2 4034   0.300   1.412   0.925  1.7466  0.3143 -2.5228
 1300SOL     OW 4035   0.802   2.714   2.549 -0.1429  0.2154 -0.0319
 1300SOL    HW1 4036   0.845   2.630   2.566  2.7336  1.3552 -0.9129
 1300SOL    HW2 4037   0.728   2.692   2.492  1.3786 -1.6425 -1.4478
 1301SOL     OW 4038   3.750   1.929   1.279  1.0901 -0.1586 -0.0407
 1301SOL    HW1 4039   3.663   1.912   1.243  1.2795 -1.0899 -0.0853
 1301SOL    HW2 4040   3.743   1.910   1.372  0.7354  1.7528  0.3531
 1302SOL     OW 4041   2.910   0.008   0.905 -0.2579  0.1143  0.3408
 1302SOL    HW1 4042   2.835   0.065   0.888 -0.3853  0.0260  0.5975
 1302SOL    HW2 4043   2.902  -0.015   0.998  0.0233  0.0130  0.3411
 1303SOL     OW 4044   1.324   0.852   2.283  0.6971  0.3713  0.2433
 1303SOL    HW1 4045   1.343   0.874   2.191  0.0914 -2.2896 -0.6265
 1303SOL    HW2 4046   1.370   0.768   2.297 -0.0747  0.2121  2.0459
 1304SOL     OW 4047   1.719   1.139   2.449  0.4653  0.4589  0.5137
 1304SOL    HW1 4048   1.681   1.214   2.495  2.1654  1.4384  0.4126
 1304SOL    HW2 4049   1.646   1.079   2.437 -0.7652  1.7101  1.3852
 1305SOL     OW 4050   0.799   2.979   3.679 -0.3098  0.5514  0.2434
 1305SOL    HW1 4051   0.825   2.910   3.618 -0.8119 -0.6282  1.3211
 1305SOL    HW2 4052   0.712   2.954   3.710  0.2586  0.6495  2.0671
 1306SOL     OW 4053   2.921   1.025   1.779  0.3773 -0.5189  0.4960
 1306SOL    HW1 4054   2.849   1.087   1.777  0.3344 -0.5742 -0.7081
 1306SOL    HW2 4055   2.884   0.946   1.819  0.5061  0.2791  2.2757
 1307SOL     OW 4056   2.826   2.005   0.968 -0.2463  0.3131  0.3331
 1307SOL    HW1 4057   2.822   1.930   1.027  2.3346 -0.4119 -0.2706
 1307SOL    HW2 4058   2.752   1.994   0.908 -1.8928  0.1400  2.2828
 1308SOL     OW 4059   3.246   2.238   1.155  0.1090  0.0271 -0.4892
 1308SOL    HW1 4060   3.198   2.251   1.237  2.6127  1.3577  0.9059
 1308SOL    HW2 4061   3.321   2.298   1.162  1.1261 -0.7932 -3.1905
 1309SOL     OW 4062   1.436   1.092   2.719 -0.1329  0.0661 -0.0798
 1309SOL    HW1 4063   1.409   1.171   2.766  0.5753 -0.1995  0.8154
 1309SOL    HW2 4064   1.442   1.025   2.787  1.6861 -0.1396 -0.3987
 1310SOL     OW 4065   0.944   1.633   3.297 -0.4598 -0.2098 -0.3770
 1310SOL    HW1 4066   0.974   1.571   3.364  0.1754 -1.3462 -1.6812
 1310SOL    HW2 4067   1.013   1.699   3.293 -0.6553  0.0446  0.2995
 1311SOL     OW 4068   2.465   0.819   0.237 -0.4016  0.3904 -0.0831
 1311SOL    HW1 4069   2.388   0.861   0.276  0.2815  0.1705  1.6039
 1311SOL    HW2 4070   2.452   0.826   0.143 -3.1389 -0.8281  0.1256
 1312SOL     OW 4071   3.503   0.140   0.225 -0.7804  0.1056 -0.4297
 1312SOL    HW1 4072   3.501   0.221   0.277 -2.4799 -0.9126  1.1805
 1312SOL    HW2 4073   3.596   0.119   0.218 -0.1825  2.7201 -1.8173
 1313SOL     OW 4074   0.081   3.653   2.841  0.6845  0.1608  0.0501
 1313SOL    HW1 4075   0.024   3.723   2.808  0.6675 -0.9850 -2.6297
 1313SOL    HW2 4076   0.022   3.595   2.888 -0.1740 -0.2498 -1.4440
 1314SOL     OW 4077   0.936   1.245   0.961  0.2521 -0.4601 -0.2048
 1314SOL    HW1 4078   0.857   1.208   0.923  0.1089 -0.7876  0.3967
 1314SOL    HW2 4079   1.007   1.215   0.905 -0.0770  0.1171 -0.9478
 1315SOL     OW 4080   2.199   2.967   0.178 -0.5109  0.6700 -0.5242
 1315SOL    HW1 4081   2.185   2.919   0.260  0.5558  1.4485  0.1347
 1315SOL    HW2 4082   2.139   3.041   0.184 -1.4439 -0.0078 -1.1018
 1316SOL     OW 4083   1.651   1.221   2.140 -0.2294 -0.0487 -0.1636
 1316SOL    HW1 4084   1.743   1.203   2.164  0.2396  1.6305 -0.6176
 1316SOL    HW2 4085   1.622   1.286   2.204 -0.7249  0.3414 -0.7828
 1317SOL     OW 4086   3.349   0.905   0.164 -0.0365 -0.3183  0.3165
 1317SOL    HW1 4087   3.271   0.960   0.156 -0.7733 -1.1188  1.6115
 1317SOL    HW2 4088   3.316   0.816   0.147  0.7385 -0.5891  0.2098
 1318SOL     OW 4089   0.939   3.386   0.739 -0.1153  0.2506  0.5838
 1318SOL    HW1 4090   0.901   3.448   0.677 -0.1985  0.1847  0.5693
 1318SOL    HW2 4091   0.898   3.303   0.718  0.7727 -0.0319 -0.1099
 1319SOL     OW 4092   2.757   3.704   1.831  0.2488  0.2368  0.2291
 1319SOL    HW1 4093   2.818   3.657   1.775  0.8746  0.6301  0.5718
 1319SOL    HW2 4094   2.670   3.673   1.804  0.5532  0.2729 -0.8044
 1320SOL     OW 4095   2.632   1.991   2.057  0.0722 -0.0265 -0.1209
 1320SOL    HW1 4096   2.560   2.015   1.998 -1.8314 -0.8463  1.7276
 1320SOL    HW2 4097   2.689   1.936   2.004 -1.4606 -0.5942 -1.2683
 1321SOL     OW 4098   3.076   0.190   2.719  0.4135 -0.6880  0.0109
 1321SOL    HW1 4099   3.107   0.280   2.725  0.5444 -0.7073 -0.4191
 1321SOL    HW2 4100   3.000   0.187   2.778 -1.3199  0.4291 -2.0542
 1322SOL     OW 4101   2.722   3.165   1.131  0.1241  0.4761 -0.0852
 1322SOL    HW1 4102   2.680   3.142   1.049  1.4436 -2.4715 -0.0390
 1322SOL    HW2 4103   2.683   3.106   1.196  0.8338  1.0743  0.9268
 1323SOL     OW 4104   2.056   0.365   2.364 -0.4848  0.4942  0.0990
 1323SOL    HW1 4105   2.010   0.397   2.287  1.6068 -1.6199 -2.2120
 1323SOL    HW2 4106   2.015   0.281   2.384 -1.1596  1.1183  1.5034
 1324SOL     OW 4107   1.741   3.027   0.775 -0.0655  0.2412 -0.3288
 1324SOL    HW1 4108   1.725   3.112   0.734  1.8147  0.8013  0.0006
 1324SOL    HW2 4109   1.836   3.023   0.786 -0.1763 -1.6043  0.3308
 1325SOL     OW 4110   0.265   3.010   0.681  0.1428 -0.5859 -0.5961
 1325SOL    HW1 4111   0.177   2.983   0.705  0.0662 -0.4966 -0.7817
 1325SOL    HW2 4112   0.270   2.998   0.587  0.2221 -0.2859 -0.6322
 1326SOL     OW 4113   3.600   0.745   2.224 -0.0363  0.1454 -0.4247
 1326SOL    HW1 4114   3.636   0.767   2.138 -1.7677 -0.1131 -1.2609
 1326SOL    HW2 4115   3.597   0.649   2.225  0.9296  0.1193  0.3445
 1327SOL     OW 4116   2.749   1.055   1.471  0.5085  0.4081  0.2192
 1327SOL    HW1 4117   2.713   1.080   1.556 -0.3521 -3.4395  1.1811
 1327SOL    HW2 4118   2.840   1.085   1.473  0.2200  1.3052  2.0405
 1328SOL     OW 4119   0.053   0.576   2.817 -0.1635  0.1692  0.2932
 1328SOL    HW1 4120   0.143   0.594   2.789 -0.1436 -1.2733 -0.6859
 1328SOL    HW2 4121   0.035   0.641   2.885  1.4110  0.8503  0.0900
 1329SOL     OW 4122   1.765   1.552   3.117 -0.4605 -0.0839  0.4032
 1329SOL    HW1 4123   1.842   1.594   3.156 -0.4169 -1.4533  1.8517
 1329SOL    HW2 4124   1.708   1.531   3.191 -2.5933  1.4678 -0.6665
 1330SOL     OW 4125   2.845   1.714   3.377  0.2165  0.5766  0.2901
 1330SOL    HW1 4126   2.888   1.671   3.451 -0.7294 -0.6181  0.1865
 1330SOL    HW2 4127   2.883   1.673   3.300 -0.8380 -0.2622  0.1941
 1331SOL     OW 4128   2.480   1.123   3.625 -0.0707  0.1811 -0.3815
 1331SOL    HW1 4129   2.456   1.182   3.553 -0.5928 -1.8585 -1.9650
 1331SOL    HW2 4130   2.422   1.148   3.697 -0.8361  1.0620 -1.2690
 1332SOL     OW 4131   2.030   1.141   2.887  0.3269  0.2336  0.1219
 1332SOL    HW1 4132   1.997   1.160   2.799  0.9036  1.7299  0.1944
 1332SOL    HW2 4133   2.121   1.114   2.874 -0.5639 -3.1863 -0.0112
 1333SOL     OW 4134   1.524   2.435   1.676  0.2198 -0.6124  0.0641
 1333SOL    HW1 4135   1.495   2.347   1.651  2.3988 -0.9982 -1.4128
 1333SOL    HW2 4136   1.444   2.482   1.699 -0.9868 -2.9955  0.9962
 1334SOL     OW 4137   3.445   2.180   2.179  0.3267 -0.4863 -0.3394
 1334SOL    HW1 4138   3.497   2.255   2.206  0.2818 -1.0473  1.4192
 1334SOL    HW2 4139   3.374   2.175   2.244 -0.0917 -1.5951 -0.8525
 1335SOL     OW 4140   1.719   3.551   3.188  0.2976 -0.3901  0.1714
 1335SOL    HW1 4141   1.749   3.614   3.124 -0.2095 -0.8322 -0.5174
 1335SOL    HW2 4142   1.624   3.544   3.173  0.1279 -0.3252  1.1223
 1336SOL     OW 4143   0.601   3.356   2.750 -0.1015  0.1476  0.0203
 1336SOL    HW1 4144   0.633   3.446   2.761  0.7575 -0.3288  2.0637
 1336SOL    HW2 4145   0.532   3.362   2.685  0.6853  2.1059 -0.7092
 1337SOL     OW 4146   2.132   2.499   0.719  0.3101 -0.3290 -0.2795
 1337SOL    HW1 4147   2.117   2.414   0.760  0.3454 -1.7145 -2.9016
 1337SOL    HW2 4148   2.090   2.492   0.633  0.6161  2.2008 -0.7192
 1338SOL     OW 4149   2.279   3.427   1.805  0.4647  0.0659 -0.6491
 1338SOL    HW1 4150   2.274   3.517   1.836  0.5223 -0.0544 -0.2850
 1338SOL    HW2 4151   2.198   3.414   1.756 -0.8158 -0.4910  1.4861
 1339SOL     OW 4152  -0.007   2.584   1.012 -0.0564  0.2152  0.2371
 1339SOL    HW1 4153   0.012   2.537   1.093  1.1341  1.0090  0.4375
 1339SOL    HW2 4154   0.069   2.639   0.997 -1.1609  1.6694 -0.2879
 1340SOL     OW 4155   0.764   3.300   3.011 -0.5236  0.4247 -0.1867
 1340SOL    HW1 4156   0.840   3.311   2.954  0.9569 -0.5071  1.4954
 1340SOL    HW2 4157   0.693   3.276   2.952  0.8688 -0.2399 -1.6740
 1341SOL     OW 4158   3.680   0.857   3.411 -0.2469  0.0695  0.6111
 1341SOL    HW1 4159   3.663   0.925   3.476 -0.8723  0.6046 -0.0870
 1341SOL    HW2 4160   3.594   0.836   3.375 -0.1626 -1.6424  1.3319
 1342SOL     OW 4161   0.947   0.187   3.640  0.3914 -0.4690 -0.0052
 1342SOL    HW1 4162   0.970   0.248   3.569 -1.8458  2.8178  1.7878
 1342SOL    HW2 4163   0.855   0.164   3.623  0.4088 -1.1812  0.8074
 1343SOL     OW 4164   2.008   2.358   3.459  0.2875 -0.3916 -0.1491
 1343SOL    HW1 4165   2.020   2.264   3.466  2.4583 -0.1776 -0.2793
 1343SOL    HW2 4166   1.947   2.370   3.387 -0.8584 -1.7146  0.5767
 1344SOL     OW 4167   1.795   3.287   0.679  0.1456 -0.0832 -0.6199
 1344SOL    HW1 4168   1.883   3.251   0.688  1.0881  1.5288 -2.5327
 1344SOL    HW2 4169   1.797   3.370   0.726  0.2568  0.8066 -2.1138
 1345SOL     OW 4170   1.309   3.212   2.028  0.0140  0.2836 -0.7445
 1345SOL    HW1 4171   1.279   3.286   2.081  0.2432  1.7456 -2.5677
 1345SOL    HW2 4172   1.313   3.138   2.089 -1.7418  1.3922  0.7769
 1346SOL     OW 4173   1.107   2.253   1.456  0.2695 -0.2506  0.1805
 1346SOL    HW1 4174   1.196   2.288   1.453 -0.3062  1.3792  1.2005
 1346SOL    HW2 4175   1.070   2.274   1.370  0.3723  0.5042  0.3118
 1347SOL     OW 4176   2.480   3.147   3.559  0.1910  0.6592  0.3799
 1347SOL    HW1 4177   2.433   3.068   3.586 -1.7447  0.9615 -1.7802
 1347SOL    HW2 4178   2.549   3.115   3.501  0.3068  0.4659  0.6218
 1348SOL     OW 4179   0.503   0.719   1.846 -0.1419  0.5195 -0.5919
 1348SOL    HW1 4180   0.488   0.733   1.940  1.6126  0.0683 -0.2029
 1348SOL    HW2 4181   0.470   0.798   1.804  1.8500  2.1793  0.7309
 1349SOL     OW 4182   1.202   1.146   1.307 -0.5481  0.2033  0.1852
 1349SOL    HW1 4183   1.270   1.145   1.240 -0.6806 -0.8186  0.0624
 1349SOL    HW2 4184   1.205   1.236   1.342  0.7493  0.2284  0.0730
 1350SOL     OW 4185   2.252   0.606   1.959 -0.6426 -0.4450 -0.2718
 1350SOL    HW1 4186   2.212   0.520   1.972 -1.5829 -0.0255 -0.3572
 1350SOL    HW2 4187   2.342   0.595   1.992 -1.4110 -0.8381  1.8820
 1351SOL     OW 4188   0.202   1.653   2.143 -0.0539  0.3199 -0.2260
 1351SOL    HW1 4189   0.201   1.747   2.130 -0.8506  0.3311 -0.1423
 1351SOL    HW2 4190   0.113   1.632   2.174  0.6318 -0.2025  1.5077
 1352SOL     OW 4191   2.582   0.858   1.718  0.0046 -0.0980  0.4252
 1352SOL    HW1 4192   2.574   0.796   1.645 -0.0693 -0.8938  1.0878
 1352SOL    HW2 4193   2.671   0.892   1.712 -0.5006  1.0565 -0.9650
 1353SOL     OW 4194   1.350   2.392   1.924  0.1677 -0.1472 -0.1215
 1353SOL    HW1 4195   1.262   2.422   1.903  0.1851 -0.5979 -0.8707
 1353SOL    HW2 4196   1.397   2.471   1.950 -0.0214  0.3485 -1.2471
 1354SOL     OW 4197   1.923   1.283   2.579  0.8812  0.4994  0.6365
 1354SOL    HW1 4198   1.831   1.306   2.571  0.3064 -1.4672  1.0448
 1354SOL    HW2 4199   1.934   1.207   2.521  1.8218 -0.3704  1.8980
 1355SOL     OW 4200   1.212   0.261   1.835 -0.6352 -0.1954  0.4415
 1355SOL    HW1 4201   1.273   0.188   1.846 -0.6548 -0.0582  1.5193
 1355SOL    HW2 4202   1.157   0.235   1.761  2.0835  0.6250 -2.0865
 1356SOL     OW 4203   2.008   0.670   3.261 -0.4851 -0.3397 -0.7282
 1356SOL    HW1 4204   2.095   0.691   3.295 -0.1249 -0.5588 -1.4990
 1356SOL    HW2 4205   2.016   0.581   3.226 -1.9155 -1.8334  2.2631
 1357SOL     OW 4206   3.515   1.388   2.175  0.4019 -0.0322 -0.1997
 1357SOL    HW1 4207   3.559   1.420   2.254 -1.5455 -1.4060  1.5469
 1357SOL    HW2 4208   3.539   1.296   2.170  0.2443 -0.0291 -1.0214
 1358SOL     OW 4209   2.198   1.592   2.051  0.0458  0.3324 -0.0089
 1358SOL    HW1 4210   2.126   1.537   2.080 -0.3046 -0.2114 -1.7955
 1358SOL    HW2 4211   2.261   1.589   2.123 -1.1088 -0.2476  1.0251
 1359SOL     OW 4212   0.737   2.452   2.004 -0.0994  0.4443  0.3019
 1359SOL    HW1 4213   0.707   2.526   2.057  0.7056  0.0734  1.2914
 1359SOL    HW2 4214   0.833   2.455   2.010 -0.0547 -1.7938  1.9633
 1360SOL     OW 4215   1.975   3.146   3.619  0.1640  0.6558  0.3123
 1360SOL    HW1 4216   1.929   3.070   3.585  0.1249  0.6628  0.3496
 1360SOL    HW2 4217   2.067   3.131   3.596 -0.1117  1.6745 -1.7004
 1361SOL     OW 4218   1.669   0.420   3.685  0.9630  0.3650  0.1406
 1361SOL    HW1 4219   1.718   0.386   3.760  1.7496  0.4687 -0.3187
 1361SOL    HW2 4220   1.603   0.477   3.724 -0.4790 -1.7216  0.9423
 1362SOL     OW 4221   2.364   2.484   0.529 -0.0618 -0.0401  0.4156
 1362SOL    HW1 4222   2.303   2.511   0.598 -0.5598 -1.0531  0.3912
 1362SOL    HW2 4223   2.313   2.489   0.448  0.3791  0.6837  0.1783
 1363SOL     OW 4224   3.170   1.858   3.615  0.4038 -0.3079 -0.1513
 1363SOL    HW1 4225   3.160   1.904   3.532 -1.2887 -2.0951 -1.0080
 1363SOL    HW2 4226   3.089   1.876   3.663  1.8407  1.7313  1.7631
 1364SOL     OW 4227   0.863   1.929   2.935  0.3509 -0.6394 -0.2481
 1364SOL    HW1 4228   0.947   1.963   2.968  1.0417 -1.5463 -1.0287
 1364SOL    HW2 4229   0.861   1.955   2.843 -1.1828  1.1384  0.2229
 1365SOL     OW 4230   1.279   0.124   2.640  0.0571 -0.1949  0.6481
 1365SOL    HW1 4231   1.260   0.062   2.569 -0.8426  0.0050  0.6947
 1365SOL    HW2 4232   1.236   0.205   2.612  2.3759  0.8697 -0.0752
 1366SOL     OW 4233   0.234   3.175   2.789 -0.1490  0.0568  0.5983
 1366SOL    HW1 4234   0.140   3.188   2.782 -0.3808 -2.0382 -1.1050
 1366SOL    HW2 4235   0.248   3.150   2.881 -1.4931 -1.0704  0.5307
 1367SOL     OW 4236   2.894   0.788   1.612  0.0215 -0.3276 -0.2914
 1367SOL    HW1 4237   2.854   0.773   1.526 -1.0694 -1.1873  0.3398
 1367SOL    HW2 4238   2.928   0.877   1.607  0.8390 -0.6960 -1.9322
 1368SOL     OW 4239   1.394   3.205   0.986  0.5086 -0.1739  0.0129
 1368SOL    HW1 4240   1.346   3.233   0.907 -0.6302 -1.4097  0.2330
 1368SOL    HW2 4241   1.435   3.285   1.018 -0.5380  0.7347 -0.8109
 1369SOL     OW 4242   1.206   0.246   3.036  0.2457 -0.6895 -0.3175
 1369SOL    HW1 4243   1.145   0.282   2.972  1.0642  1.8066  0.1999
 1369SOL    HW2 4244   1.290   0.285   3.013  0.4856  0.6683  2.4894
 1370SOL     OW 4245   1.478   2.233   3.306 -0.4163  0.3047  0.3816
 1370SOL    HW1 4246   1.481   2.315   3.355  0.7164 -1.0257  2.6820
 1370SOL    HW2 4247   1.568   2.203   3.303 -1.0788 -2.0539  1.7947
 1371SOL     OW 4248   0.690   2.465   2.711  0.0534 -0.2933 -0.3928
 1371SOL    HW1 4249   0.626   2.536   2.710  1.3898  1.0264  0.9065
 1371SOL    HW2 4250   0.644   2.391   2.750 -0.2941  1.1164  2.0885
 1372SOL     OW 4251   1.709   2.154   2.858 -0.3712 -0.5041  0.5427
 1372SOL    HW1 4252   1.753   2.178   2.939  1.8840 -2.2193 -0.0909
 1372SOL    HW2 4253   1.743   2.067   2.836 -0.4879  0.0912 -2.4904
 1373SOL     OW 4254   0.214   2.900   2.697  0.3481  0.3543  0.0469
 1373SOL    HW1 4255   0.301   2.860   2.697 -0.2054 -0.9117  0.8513
 1373SOL    HW2 4256   0.229   2.989   2.730  1.6364  0.9723 -2.0427
 1374SOL     OW 4257   2.620   2.042   1.271  0.3156  0.6196  0.5297
 1374SOL    HW1 4258   2.662   1.959   1.297  1.3162  0.4131 -1.4864
 1374SOL    HW2 4259   2.527   2.029   1.290  0.0792 -1.8996 -1.6929
 1375SOL     OW 4260   2.697   0.184   2.029 -0.1776 -0.1359  0.7843
 1375SOL    HW1 4261   2.720   0.132   1.952 -1.8163 -0.3930  0.4386
 1375SOL    HW2 4262   2.775   0.182   2.084  1.4278  0.9130 -1.3048
 1376SOL     OW 4263   2.043   0.277   2.742  0.1341  0.1646  0.3848
 1376SOL    HW1 4264   2.056   0.183   2.730  1.0660  0.0724  1.9310
 1376SOL    HW2 4265   1.957   0.294   2.702  0.9812 -0.8783 -2.0539
 1377SOL     OW 4266   1.301   1.563   1.309 -0.2168 -0.0571  0.0474
 1377SOL    HW1 4267   1.315   1.568   1.403  0.3315  2.3258 -0.1041
 1377SOL    HW2 4268   1.371   1.505   1.277  1.1367  1.0518  0.8640
 1378SOL     OW 4269   3.053   1.623   2.516 -0.3273 -0.4567  0.0136
 1378SOL    HW1 4270   2.976   1.568   2.530  0.8771 -2.3278 -0.4047
 1378SOL    HW2 4271   3.065   1.668   2.600 -2.6191  0.9418 -0.3246
 1379SOL     OW 4272   2.941   0.327   0.913 -0.8695 -0.3601 -0.6657
 1379SOL    HW1 4273   2.907   0.417   0.911  2.9906  1.3266 -0.9914
 1379SOL    HW2 4274   2.977   0.318   1.002 -1.9912 -2.0055 -0.3361
 1380SOL     OW 4275   3.444   3.656   1.658 -0.0071  0.6105 -0.0550
 1380SOL    HW1 4276   3.418   3.675   1.568 -1.4141  1.9122  0.5789
 1380SOL    HW2 4277   3.395   3.576   1.681  1.8488 -0.8827 -1.0179
 1381SOL     OW 4278   2.341   1.710   1.084 -0.0358  0.3034  0.0048
 1381SOL    HW1 4279   2.307   1.743   1.167 -1.5437 -0.5631 -0.2491
 1381SOL    HW2 4280   2.289   1.755   1.018 -2.8830 -3.1021 -0.3614
 1382SOL     OW 4281   1.275   1.324   0.522 -0.3753 -0.0855  0.0403
 1382SOL    HW1 4282   1.359   1.305   0.564  0.1580  0.1551 -0.8804
 1382SOL    HW2 4283   1.229   1.380   0.584 -0.1915 -0.8589  0.9021
 1383SOL     OW 4284   2.310   2.286   2.830  0.0599 -0.1370 -0.5065
 1383SOL    HW1 4285   2.396   2.311   2.864 -0.7228  1.1569  0.6253
 1383SOL    HW2 4286   2.329   2.247   2.745  1.5835  2.8527 -1.7099
 1384SOL     OW 4287   0.404   2.692   1.387 -0.2841 -0.7227  0.0249
 1384SOL    HW1 4288   0.340   2.622   1.381  2.3096 -3.1895 -0.9153
 1384SOL    HW2 4289   0.448   2.677   1.471 -0.1353  0.2384  0.1333
 1385SOL     OW 4290   0.026   0.595   0.506  0.0980 -0.3750  0.4783
 1385SOL    HW1 4291   0.088   0.547   0.451  0.6858  0.7181  0.1728
 1385SOL    HW2 4292   0.051   0.686   0.497 -1.2340  0.0394  0.7743
 1386SOL     OW 4293   0.252   3.537   1.939 -0.2111 -0.2849 -0.9469
 1386SOL    HW1 4294   0.285   3.614   1.984  0.2487 -0.8165 -0.3769
 1386SOL    HW2 4295   0.275   3.551   1.847 -1.6073  1.0427 -1.1454
 1387SOL     OW 4296   0.366   2.110   1.995 -0.0640 -0.1416  0.1035
 1387SOL    HW1 4297   0.329   2.142   2.078 -3.1910 -4.6034  0.8236
 1387SOL    HW2 4298   0.321   2.161   1.928 -2.1081 -0.4305  1.1663
 1388SOL     OW 4299   1.038   2.827   0.391 -0.4587 -0.4010 -0.6237
 1388SOL    HW1 4300   0.988   2.801   0.313 -0.6904 -1.7819 -0.0595
 1388SOL    HW2 4301   1.056   2.744   0.436  2.7247 -0.0095 -0.9872
 1389SOL     OW 4302   0.088   2.173   0.991  0.1158  0.0398  0.1950
 1389SOL    HW1 4303   0.110   2.160   1.083  0.5699 -0.5932  0.0068
 1389SOL    HW2 4304   0.089   2.084   0.954 -0.9908  0.1755 -0.2156
 1390SOL     OW 4305   3.544   1.121   0.096  0.2941  0.3217  0.0971
 1390SOL    HW1 4306   3.492   1.042   0.113 -0.6642  0.9947  0.4411
 1390SOL    HW2 4307   3.480   1.184   0.063  1.3922  0.3403 -2.2190
 1391SOL     OW 4308   0.360   3.359   2.116 -0.0015 -0.2494 -0.1365
 1391SOL    HW1 4309   0.417   3.432   2.140 -2.1136  1.7252 -0.6958
 1391SOL    HW2 4310   0.297   3.397   2.055 -0.0785 -3.0317 -2.0053
 1392SOL     OW 4311   1.099   0.409   0.082  0.9206 -0.6071 -0.2331
 1392SOL    HW1 4312   1.088   0.504   0.085 -0.2249 -0.7023 -0.9590
 1392SOL    HW2 4313   1.191   0.395   0.104  0.8853  0.6047  0.7992
 1393SOL     OW 4314   2.616   0.972   0.694  0.1066  0.3564 -0.4090
 1393SOL    HW1 4315   2.602   0.969   0.599 -1.3893  2.3054 -0.3250
 1393SOL    HW2 4316   2.618   1.066   0.715  2.3547  0.0181  1.2606
 1394SOL     OW 4317   2.630   0.108   0.106  0.3133 -0.5585 -0.5847
 1394SOL    HW1 4318   2.563   0.068   0.161  1.9664 -3.1841 -0.3136
 1394SOL    HW2 4319   2.581   0.154   0.037 -1.7380  0.1138  1.2303
 1395SOL     OW 4320   1.422   2.181   1.583  0.6876  0.1011 -0.7784
 1395SOL    HW1 4321   1.375   2.150   1.660  0.8909  1.2204 -0.1900
 1395SOL    HW2 4322   1.407   2.113   1.517  1.9518 -1.7572  0.7453
 1396SOL     OW 4323   3.665   0.855   0.789 -0.6393  0.1600  0.2898
 1396SOL    HW1 4324   3.657   0.828   0.881 -1.0667  0.4050  0.3301
 1396SOL    HW2 4325   3.717   0.786   0.748 -0.9819 -0.2796  0.5812
 1397SOL     OW 4326   1.211   0.365   2.523 -0.1637  0.2721  0.2836
 1397SOL    HW1 4327   1.259   0.368   2.440 -0.6098 -3.0427 -0.2193
 1397SOL    HW2 4328   1.231   0.449   2.565  2.7913  0.6918 -1.6644
 1398SOL     OW 4329   3.521   0.534   0.907 -0.2762 -0.4864 -0.1153
 1398SOL    HW1 4330   3.565   0.516   0.990  0.7839  0.9384 -0.3260
 1398SOL    HW2 4331   3.578   0.495   0.840 -0.1900 -0.0960 -0.2758
 1399SOL     OW 4332   0.597   1.076   2.764 -0.2105 -0.2720  0.3559
 1399SOL    HW1 4333   0.574   0.998   2.714  0.9530 -0.9237  0.8014
 1399SOL    HW2 4334   0.569   1.056   2.853  0.6031 -0.4157  0.5810
 1400SOL     OW 4335   2.434   2.734   1.808 -0.5449  0.3844 -0.0649
 1400SOL    HW1 4336   2.507   2.680   1.840 -0.0287  0.2517 -1.3797
 1400SOL    HW2 4337   2.359   2.708   1.861  0.6442  1.5741  2.3544
 1401SOL     OW 4338   2.014   0.111   1.764 -0.2174  0.0451  0.4941
 1401SOL    HW1 4339   1.936   0.056   1.763 -0.3435  0.1688 -2.3679
 1401SOL    HW2 4340   2.083   0.054   1.798 -0.8629 -1.0830 -0.0403
 1402SOL     OW 4341   1.819   1.445   0.953  0.7363  0.1335  0.5249
 1402SOL    HW1 4342   1.837   1.538   0.938  0.2080  0.5364  2.1674
 1402SOL    HW2 4343   1.905   1.404   0.949  0.8106  0.3399 -2.0651
 1403SOL     OW 4344   2.759   3.411   1.237 -0.5580  0.1641  0.4872
 1403SOL    HW1 4345   2.774   3.332   1.184  0.2067 -0.2756  1.3400
 1403SOL    HW2 4346   2.716   3.472   1.177  1.4085  0.1524 -1.0475
 1404SOL     OW 4347   1.990   1.718   2.716  0.0766  0.0034  0.0885
 1404SOL    HW1 4348   2.072   1.672   2.733  0.4257  1.2096  1.9266
 1404SOL    HW2 4349   1.924   1.669   2.765 -0.2758 -0.7568 -1.1001
 1405SOL     OW 4350   3.704   1.394   1.960  0.1139  0.4427  0.2528
 1405SOL    HW1 4351   3.771   1.349   2.012  0.2674  0.4728  0.0799
 1405SOL    HW2 4352   3.644   1.431   2.025  0.0476  0.0812  0.3994
 1406SOL     OW 4353   0.454   3.029   3.330  0.1969 -0.3605  0.2646
 1406SOL    HW1 4354   0.411   3.105   3.370  0.3141 -0.8723  1.4102
 1406SOL    HW2 4355   0.530   3.066   3.284 -0.4348  0.3456 -0.2407
 1407SOL     OW 4356   0.791   3.334   1.838 -0.4476  0.0756 -0.0243
 1407SOL    HW1 4357   0.815   3.247   1.805 -0.7994 -0.4207  0.9902
 1407SOL    HW2 4358   0.699   3.344   1.813 -0.9425 -0.6274  1.4334
 1408SOL     OW 4359   1.182   3.266   1.727 -0.1706  0.4183  0.4848
 1408SOL    HW1 4360   1.204   3.329   1.796  2.3182 -0.8034  0.9399
 1408SOL    HW2 4361   1.234   3.189   1.749  0.0929 -0.3017 -2.3205
 1409SOL     OW 4362   0.226   1.900   2.067  0.0397 -0.6929  0.7840
 1409SOL    HW1 4363   0.138   1.917   2.033 -0.7104 -2.3192  1.7891
 1409SOL    HW2 4364   0.272   1.983   2.056 -2.0728  0.6947  1.6427
 1410SOL     OW 4365   1.574   0.445   1.233  0.1896 -0.0644 -0.9227
 1410SOL    HW1 4366   1.591   0.359   1.271  1.0439 -0.0151 -1.1885
 1410SOL    HW2 4367   1.573   0.505   1.308  0.2034 -0.2104 -0.8065
 1411SOL     OW 4368   0.466   1.373   1.205  0.2751 -0.3583 -0.4497
 1411SOL    HW1 4369   0.490   1.379   1.298 -0.2384  1.3893 -0.3775
 1411SOL    HW2 4370   0.500   1.454   1.167 -3.2185  1.1540 -0.8098
 1412SOL     OW 4371   0.444   3.240   0.573  0.0772 -0.0805 -0.1874
 1412SOL    HW1 4372   0.423   3.176   0.640 -0.5794 -1.4706 -1.6549
 1412SOL    HW2 4373   0.361   3.285   0.556 -0.1874 -0.9352 -1.2566
 1413SOL     OW 4374   3.731   2.901   0.697 -0.3341 -0.5313  0.1339
 1413SOL    HW1 4375   3.789   2.826   0.686 -0.1145 -0.5346  1.1970
 1413SOL    HW2 4376   3.652   2.866   0.738 -0.7879 -0.3990 -0.6089
 1414SOL     OW 4377   1.970   0.951   2.642  0.1312 -0.4206  0.3504
 1414SOL    HW1 4378   1.950   0.862   2.612  0.4427 -0.7467  1.0710
 1414SOL    HW2 4379   1.919   0.961   2.722  1.1093 -0.4529  1.0007
 1415SOL     OW 4380   2.311   1.682   2.689  0.6453 -0.3287 -0.1168
 1415SOL    HW1 4381   2.389   1.637   2.722  0.8794  0.8254  1.0120
 1415SOL    HW2 4382   2.340   1.772   2.673 -0.0205 -0.3338 -1.4644
 1416SOL     OW 4383   1.419   2.914   2.494 -0.2420 -0.4302 -0.0165
 1416SOL    HW1 4384   1.347   2.937   2.553 -0.4061 -4.7099  1.8135
 1416SOL    HW2 4385   1.498   2.947   2.537 -0.7724  1.5613 -0.4674
 1417SOL     OW 4386   2.812   1.360   3.468  0.1628  0.3055 -0.2899
 1417SOL    HW1 4387   2.729   1.331   3.430  0.9801  0.8900 -2.7256
 1417SOL    HW2 4388   2.787   1.408   3.546 -1.8136  0.5174 -0.9975
 1418SOL     OW 4389   1.292   0.274   2.263  0.2232  0.6412  0.4404
 1418SOL    HW1 4390   1.218   0.215   2.276  1.4343 -0.8291  1.0380
 1418SOL    HW2 4391   1.267   0.330   2.190 -1.6436  0.4997  0.9360
 1419SOL     OW 4392   1.170   1.845   2.316  0.0053 -0.3943 -0.5852
 1419SOL    HW1 4393   1.149   1.867   2.407  0.8332 -3.0877  0.3780
 1419SOL    HW2 4394   1.235   1.909   2.289 -0.0211  0.2641  0.8427
 1420SOL     OW 4395   1.119   0.124   0.278 -0.5216 -0.7001 -0.0585
 1420SOL    HW1 4396   1.081   0.036   0.287  0.5591 -1.3229 -1.2852
 1420SOL    HW2 4397   1.193   0.113   0.219  0.7916  0.7243  1.2141
 1421SOL     OW 4398   1.719   0.403   3.102  0.2828 -0.7658  0.1464
 1421SOL    HW1 4399   1.728   0.412   3.197 -0.3279 -1.5009  0.2753
 1421SOL    HW2 4400   1.735   0.492   3.069  3.7118 -1.0526  0.6532
 1422SOL     OW 4401   1.721   2.380   3.635 -0.4108 -0.3611  0.8235
 1422SOL    HW1 4402   1.648   2.399   3.577  0.5804 -0.4248 -0.4939
 1422SOL    HW2 4403   1.750   2.293   3.610 -0.3845 -0.6732  1.8886
 1423SOL     OW 4404   0.901   0.670   3.717  0.2627 -0.0108 -0.1834
 1423SOL    HW1 4405   0.971   0.709   3.664  0.0361  1.7173  0.7191
 1423SOL    HW2 4406   0.863   0.744   3.765  0.7511 -1.5209  2.7499
 1424SOL     OW 4407   0.112   0.102   0.747  0.0710 -0.4354  0.2858
 1424SOL    HW1 4408   0.073   0.016   0.733  1.1127 -0.8828 -0.0021
 1424SOL    HW2 4409   0.044   0.153   0.790 -1.2487 -0.8036 -1.2953
 1425SOL     OW 4410   0.774   0.630   1.691 -0.2189 -0.0713 -0.2280
 1425SOL    HW1 4411   0.702   0.637   1.628  0.8076  0.2718 -1.4070
 1425SOL    HW2 4412   0.847   0.676   1.649 -0.0533  1.9827  2.0965
 1426SOL     OW 4413   1.827   2.912   2.254 -0.3550  0.1513 -0.2080
 1426SOL    HW1 4414   1.860   2.919   2.343  0.7898 -0.5432 -0.5486
 1426SOL    HW2 4415   1.814   3.003   2.226  0.0821  0.4040  0.3917
 1427SOL     OW 4416   1.667   0.175   2.300 -0.6919 -0.5646  0.0914
 1427SOL    HW1 4417   1.621   0.257   2.282  0.0614  0.2170  1.5496
 1427SOL    HW2 4418   1.665   0.167   2.396  1.6436 -0.8130  0.1779
 1428SOL     OW 4419   0.359   1.221   0.848 -0.3826  0.1472  0.2083
 1428SOL    HW1 4420   0.437   1.189   0.893 -0.9289 -2.6735 -0.6572
 1428SOL    HW2 4421   0.385   1.226   0.756 -1.0540 -0.2447 -0.0074
 1429SOL     OW 4422   2.386   0.833   2.249 -0.4820  0.0347  0.8355
 1429SOL    HW1 4423   2.338   0.916   2.247 -1.1499 -0.3351  0.9160
 1429SOL    HW2 4424   2.382   0.801   2.159 -0.7243 -0.1722  0.9148
 1430SOL     OW 4425   2.662   0.772   3.415 -0.1302 -0.5776  0.1590
 1430SOL    HW1 4426   2.648   0.820   3.333 -3.0115 -2.1310 -0.4029
 1430SOL    HW2 4427   2.746   0.729   3.403  0.2158  0.4392 -1.3541
 1431SOL     OW 4428   0.546   1.931   2.216  0.4976  0.4653 -0.1726
 1431SOL    HW1 4429   0.640   1.941   2.199  0.6743  0.4084  0.7287
 1431SOL    HW2 4430   0.512   2.020   2.214  0.5565  0.4814 -0.5590
 1432SOL     OW 4431   0.889   3.549   1.953 -0.7338 -0.0882  0.3795
 1432SOL    HW1 4432   0.862   3.469   1.909  0.2592 -0.1572 -0.1403
 1432SOL    HW2 4433   0.844   3.547   2.037  0.7313 -2.1881  1.1926
 1433SOL     OW 4434   0.971   3.527   0.966  0.2870  0.1029 -0.4283
 1433SOL    HW1 4435   0.948   3.464   0.898 -1.3026  0.9747 -0.7603
 1433SOL    HW2 4436   1.058   3.500   0.996  0.9460 -0.4203 -2.6355
 1434SOL     OW 4437   2.382   2.568   1.507 -0.7826 -0.2685 -0.0281
 1434SOL    HW1 4438   2.413   2.658   1.501 -1.1229 -0.1723 -0.3807
 1434SOL    HW2 4439   2.335   2.565   1.591 -2.2101  0.3457 -0.7725
 1435SOL     OW 4440   2.294   0.586   0.050  0.5554 -0.6255  0.0992
 1435SOL    HW1 4441   2.344   0.662   0.081 -2.4103  1.8243 -0.6264
 1435SOL    HW2 4442   2.343   0.556  -0.026  3.0064 -0.9670  1.6842
 1436SOL     OW 4443   0.169   3.206   0.228  0.6297  0.2603 -0.2931
 1436SOL    HW1 4444   0.080   3.189   0.196  0.8696 -2.5747  0.3207
 1436SOL    HW2 4445   0.226   3.171   0.161  1.3412  1.8075 -0.5438
 1437SOL     OW 4446   0.162   3.150   1.578  0.3276  0.1049  0.0453
 1437SOL    HW1 4447   0.141   3.117   1.491 -2.2755 -1.8224  1.2619
 1437SOL    HW2 4448   0.192   3.073   1.627  1.7865  1.1583  0.8791
 1438SOL     OW 4449   0.293   2.149   1.191  0.5158  0.5521  0.5238
 1438SOL    HW1 4450   0.285   2.056   1.213 -0.8802  0.7354  0.8964
 1438SOL    HW2 4451   0.388   2.164   1.186  0.8229 -0.4766  2.2602
 1439SOL     OW 4452   2.826   1.439   1.261 -0.0675 -0.7549 -0.1923
 1439SOL    HW1 4453   2.751   1.444   1.321  0.2091  2.3001  0.0441
 1439SOL    HW2 4454   2.788   1.413   1.177 -1.8736  2.7756 -0.6278
 1440SOL     OW 4455   2.515   0.470   1.066  0.2635 -0.3236 -0.0490
 1440SOL    HW1 4456   2.495   0.465   0.973  1.3531 -0.1892 -0.3083
 1440SOL    HW2 4457   2.576   0.543   1.074  1.4040 -1.2873  0.5304
 1441SOL     OW 4458   2.353   1.554   1.803 -0.5870 -0.0477 -0.7074
 1441SOL    HW1 4459   2.424   1.619   1.809 -0.8714  0.6265 -3.2832
 1441SOL    HW2 4460   2.284   1.589   1.859 -0.4988  1.6031 -1.5555
 1442SOL     OW 4461   1.359   1.158   3.606  0.4941  0.2433 -0.5109
 1442SOL    HW1 4462   1.403   1.137   3.688  0.2912  1.3784 -0.0871
 1442SOL    HW2 4463   1.357   1.254   3.604 -2.1677  0.2746 -0.3649
 1443SOL     OW 4464   2.275   1.424   2.457  0.0683  0.1948  0.4708
 1443SOL    HW1 4465   2.332   1.401   2.531 -2.2107 -3.3712  1.3774
 1443SOL    HW2 4466   2.209   1.482   2.496  1.0611  1.5718  0.1960
 1444SOL     OW 4467   1.786   1.122   1.840  0.2236 -0.1488  0.1877
 1444SOL    HW1 4468   1.794   1.055   1.771  0.1601  0.1350 -0.0985
 1444SOL    HW2 4469   1.705   1.168   1.818 -0.4080 -0.7901  1.1060
 1445SOL     OW 4470   2.056   3.267   1.979 -0.0720  0.0539  0.7741
 1445SOL    HW1 4471   2.031   3.357   1.959 -1.2494 -0.5969 -0.8290
 1445SOL    HW2 4472   2.145   3.259   1.943 -0.6596  0.0671 -0.7461
 1446SOL     OW 4473   0.488   2.911   2.183  0.2549 -0.5853 -0.2593
 1446SOL    HW1 4474   0.473   3.000   2.215 -0.4087 -1.3577  1.7438
 1446SOL    HW2 4475   0.428   2.901   2.110 -0.8749  0.0951  0.5428
 1447SOL     OW 4476   0.549   2.475   3.253 -0.6434  0.7128  1.0098
 1447SOL    HW1 4477   0.473   2.478   3.194  0.3918  1.5947 -0.3411
 1447SOL    HW2 4478   0.579   2.384   3.248  0.2606  1.0597 -0.9860
 1448SOL     OW 4479   1.821   3.154   1.997 -0.5848  0.3342 -0.0786
 1448SOL    HW1 4480   1.904   3.201   2.005 -1.1823  1.3904  0.2305
 1448SOL    HW2 4481   1.783   3.186   1.916 -0.7717 -0.0127 -0.1296
 1449SOL     OW 4482   1.512   2.160   2.498  0.4887  0.1623 -0.4359
 1449SOL    HW1 4483   1.587   2.207   2.535 -1.0428  1.1956  1.6166
 1449SOL    HW2 4484   1.467   2.225   2.444  1.8104 -0.8872 -2.9793
 1450SOL     OW 4485   1.404   0.072   1.897 -0.0232  0.8463  0.4335
 1450SOL    HW1 4486   1.414   0.037   1.985  0.4308  0.5157  0.2544
 1450SOL    HW2 4487   1.461   0.149   1.895  0.9907  0.1008  0.0278
 1451SOL     OW 4488   0.151   0.411   0.990 -0.1352 -0.0053  0.1383
 1451SOL    HW1 4489   0.075   0.366   1.027 -1.6789  0.1541 -2.5523
 1451SOL    HW2 4490   0.201   0.341   0.947 -0.2899  0.2525 -0.4745
 1452SOL     OW 4491   0.070   1.363   0.307 -0.0444  0.2110 -0.0966
 1452SOL    HW1 4492   0.125   1.311   0.249  0.9202 -0.1103  1.0532
 1452SOL    HW2 4493   0.130   1.392   0.376 -0.6916  2.3340 -0.3667
 1453SOL     OW 4494   3.176   1.152   3.099  0.1891 -0.0345  0.3869
 1453SOL    HW1 4495   3.205   1.242   3.080  1.0216 -0.6777 -1.7670
 1453SOL    HW2 4496   3.222   1.128   3.179  3.7815 -0.0499 -1.4319
 1454SOL     OW 4497   1.894   0.615   0.516  0.4188  0.3060  0.0652
 1454SOL    HW1 4498   1.908   0.520   0.525  0.1181  0.4259  2.1267
 1454SOL    HW2 4499   1.976   0.654   0.545 -0.4866  0.7259  2.2134
 1455SOL     OW 4500   1.823   2.348   2.682  0.0941 -0.0266 -0.2243
 1455SOL    HW1 4501   1.910   2.367   2.716 -0.5779  2.5271  0.2650
 1455SOL    HW2 4502   1.792   2.275   2.736  1.1900  0.3229  0.9280
 1456SOL     OW 4503   0.379   0.716   2.095 -0.0614  0.0763  0.2680
 1456SOL    HW1 4504   0.335   0.800   2.109 -1.5348 -0.4927 -0.6759
 1456SOL    HW2 4505   0.316   0.651   2.127  0.3060 -0.7486 -0.6340
 1457SOL     OW 4506   1.346   2.664   2.347 -0.0174  0.3218  0.0581
 1457SOL    HW1 4507   1.251   2.669   2.362  0.0674  0.9765  0.4299
 1457SOL    HW2 4508   1.381   2.742   2.390  0.7050  0.0339  0.0053
 1458SOL     OW 4509   2.075   2.484   1.124  0.0925 -0.2090  0.0412
 1458SOL    HW1 4510   2.055   2.459   1.214  0.7990 -1.3494 -0.1033
 1458SOL    HW2 4511   2.168   2.465   1.114 -0.0309 -0.3202 -1.0026
 1459SOL     OW 4512   2.479   0.097   2.916  0.1595 -0.8244 -0.4212
 1459SOL    HW1 4513   2.531   0.021   2.942 -0.9975 -1.5190 -0.0594
 1459SOL    HW2 4514   2.468   0.147   2.997  4.0487  1.8430 -1.2233
 1460SOL     OW 4515   3.409   2.715   3.604  0.2219 -0.3428  0.0970
 1460SOL    HW1 4516   3.335   2.756   3.559  1.6158  1.1533 -0.9425
 1460SOL    HW2 4517   3.369   2.666   3.676 -1.8799 -0.7024 -1.2213
 1461SOL     OW 4518   3.597   1.603   0.963  0.1028  0.0874 -0.1427
 1461SOL    HW1 4519   3.604   1.527   0.905 -2.9849 -0.6199  0.2139
 1461SOL    HW2 4520   3.655   1.582   1.036  0.4942 -1.2008 -0.7825
 1462SOL     OW 4521   1.282   2.829   0.714 -0.3321 -0.0957  0.1744
 1462SOL    HW1 4522   1.273   2.923   0.731  0.1776 -0.2045  1.1278
 1462SOL    HW2 4523   1.376   2.817   0.702 -0.1890 -0.7423  1.7563
 1463SOL     OW 4524   1.543   2.561   2.116  0.3141 -0.2619  0.0565
 1463SOL    HW1 4525   1.598   2.624   2.070  0.3120 -1.1707 -1.2357
 1463SOL    HW2 4526   1.475   2.614   2.157  1.2309  0.7210  0.3556
 1464SOL     OW 4527   0.741   0.331   3.260 -0.0916  0.3680  0.3797
 1464SOL    HW1 4528   0.790   0.323   3.342  1.9979  1.1399 -0.7259
 1464SOL    HW2 4529   0.808   0.341   3.192 -1.6811 -1.2335 -1.5931
 1465SOL     OW 4530   1.398   1.988   1.021 -0.3057 -0.1638 -0.4283
 1465SOL    HW1 4531   1.473   1.970   0.964  0.7114  2.5999 -0.0914
 1465SOL    HW2 4532   1.434   1.987   1.109 -1.2958 -1.5609 -0.0035
 1466SOL     OW 4533   2.698   0.485   1.847  0.6564  0.6488 -1.1987
 1466SOL    HW1 4534   2.741   0.399   1.841 -0.4010 -0.0847  0.9324
 1466SOL    HW2 4535   2.675   0.494   1.939 -2.4404  1.6495 -1.9697
 1467SOL     OW 4536   3.165   2.324   0.452 -0.2276 -0.8880 -0.4222
 1467SOL    HW1 4537   3.093   2.299   0.510 -0.6925 -1.5696 -1.2450
 1467SOL    HW2 4538   3.231   2.363   0.509 -1.0588 -0.6725  0.4163
 1468SOL     OW 4539   2.892   2.559   3.172  0.4975  0.1706  0.0023
 1468SOL    HW1 4540   2.826   2.535   3.106  0.9858 -0.4763 -0.2614
 1468SOL    HW2 4541   2.902   2.480   3.225  2.1731 -0.2654 -0.9116
 1469SOL     OW 4542   2.650   0.198   0.560 -0.0075 -0.0077 -0.0266
 1469SOL    HW1 4543   2.729   0.230   0.517 -1.3002 -0.5827 -3.0792
 1469SOL    HW2 4544   2.670   0.107   0.582  0.7303  0.3383  0.7733
 1470SOL     OW 4545   1.969   3.503   1.222  0.0094 -0.9439  0.5125
 1470SOL    HW1 4546   2.041   3.552   1.260  1.5664 -1.3265 -1.7473
 1470SOL    HW2 4547   2.002   3.414   1.212 -0.6205 -1.0633 -0.8145
 1471SOL     OW 4548   0.163   0.309   2.777  0.0999  0.0347 -0.3691
 1471SOL    HW1 4549   0.100   0.363   2.825  0.1056 -1.0217  0.8605
 1471SOL    HW2 4550   0.249   0.338   2.808  0.2865  1.5970 -2.1743
 1472SOL     OW 4551   1.446   3.416   2.323 -0.4298 -0.2175 -0.6687
 1472SOL    HW1 4552   1.538   3.399   2.301  0.4313  1.4966  1.2487
 1472SOL    HW2 4553   1.438   3.386   2.414 -1.3640  0.9181 -0.3625
 1473SOL     OW 4554   1.528   1.401   1.238 -0.0739 -0.1697 -0.0627
 1473SOL    HW1 4555   1.561   1.352   1.314  0.4997  0.1903 -0.0717
 1473SOL    HW2 4556   1.590   1.474   1.229 -1.3650  1.0319  0.4563
 1474SOL     OW 4557   2.171   3.212   0.912  0.0493  0.4318 -0.2071
 1474SOL    HW1 4558   2.202   3.142   0.970  0.8411  1.3982  0.5810
 1474SOL    HW2 4559   2.147   3.283   0.971 -0.5612  0.9064 -1.0053
 1475SOL     OW 4560   0.469   2.860   2.812 -0.2609  0.8574  0.0921
 1475SOL    HW1 4561   0.477   2.826   2.901  1.5405  1.4204  0.1963
 1475SOL    HW2 4562   0.530   2.934   2.809  1.9854 -0.8651 -2.3688
 1476SOL     OW 4563   0.098   2.921   3.492  0.3846  0.1400  0.0567
 1476SOL    HW1 4564   0.193   2.912   3.503  0.5021  0.7895 -0.3683
 1476SOL    HW2 4565   0.065   2.831   3.499  0.6788  0.1383  3.1125
 1477SOL     OW 4566   1.019   2.902   1.544  0.3018  0.1729 -0.0457
 1477SOL    HW1 4567   0.949   2.875   1.486  0.2251  0.9751 -0.3445
 1477SOL    HW2 4568   1.036   2.826   1.599 -0.8795  0.0069  0.1147
 1478SOL     OW 4569   3.711   2.839   1.611  0.1165 -0.7574  0.0415
 1478SOL    HW1 4570   3.676   2.898   1.544 -0.3388  0.0725  0.9671
 1478SOL    HW2 4571   3.798   2.875   1.632  0.2594 -1.0149 -0.1056
 1479SOL     OW 4572   1.205   2.905   1.062 -0.1629 -0.5506  0.7288
 1479SOL    HW1 4573   1.290   2.883   1.025 -0.6968  0.2329 -1.1139
 1479SOL    HW2 4574   1.216   2.993   1.098 -0.5469  0.2596 -1.0009
 1480SOL     OW 4575   3.333   2.325   0.878 -0.0589  0.3275 -0.1894
 1480SOL    HW1 4576   3.269   2.259   0.851  1.1834 -1.0158  0.0145
 1480SOL    HW2 4577   3.413   2.276   0.893  0.3566  1.5768  2.1466
 1481SOL     OW 4578   2.793   0.310   1.489 -0.0223  0.4233 -0.0531
 1481SOL    HW1 4579   2.717   0.368   1.480 -0.7759 -0.5029  0.0927
 1481SOL    HW2 4580   2.791   0.282   1.580  0.4573  0.3430 -0.0662
 1482SOL     OW 4581   0.937   2.262   1.979 -0.1708  0.0272  0.5591
 1482SOL    HW1 4582   0.969   2.236   2.065  0.0489 -1.9995 -0.0753
 1482SOL    HW2 4583   0.842   2.247   1.983 -0.1105 -0.4543  0.3560
 1483SOL     OW 4584   1.964   2.944   1.398  0.1808 -0.0455 -0.3098
 1483SOL    HW1 4585   2.019   2.899   1.462 -0.0426 -0.5904 -0.4988
 1483SOL    HW2 4586   1.944   2.878   1.332 -0.6998  0.1516 -0.2530
 1484SOL     OW 4587   0.335   0.720   3.660  0.3341  0.2506  0.0503
 1484SOL    HW1 4588   0.375   0.649   3.610  2.1750 -0.2143  2.0352
 1484SOL    HW2 4589   0.317   0.681   3.746 -3.0647  0.8988 -0.2204
 1485SOL     OW 4590   2.837   2.538   3.721 -0.2634 -0.0876 -0.2521
 1485SOL    HW1 4591   2.905   2.604   3.737 -1.1285  0.8112 -0.1688
 1485SOL    HW2 4592   2.805   2.557   3.633 -0.4712 -0.4490 -0.2553
 1486SOL     OW 4593   2.065   1.185   3.629 -0.1490 -0.1237 -0.6131
 1486SOL    HW1 4594   1.989   1.241   3.615 -0.3918 -0.3234 -0.1206
 1486SOL    HW2 4595   2.060   1.161   3.721 -0.6944 -1.8881 -1.0558
 1487SOL     OW 4596   0.983   0.793   1.550 -0.7826  0.7610 -0.2625
 1487SOL    HW1 4597   1.000   0.782   1.456  5.2794 -1.4000  0.5845
 1487SOL    HW2 4598   0.993   0.887   1.565  3.5640  0.7225 -1.4474
 1488SOL     OW 4599   1.402   1.169   0.763  0.1714  0.3573 -0.3687
 1488SOL    HW1 4600   1.455   1.171   0.843 -0.5809  1.4295  0.1420
 1488SOL    HW2 4601   1.466   1.163   0.692  0.9322  0.6385  0.2703
 1489SOL     OW 4602   3.713   2.776   2.334 -0.1641 -0.0331  0.3149
 1489SOL    HW1 4603   3.714   2.755   2.241  1.5697  0.4085  0.1966
 1489SOL    HW2 4604   3.633   2.827   2.347 -0.1250  0.4076 -1.0471
 1490SOL     OW 4605   3.456   0.058   3.663 -0.2763 -0.2767 -0.2207
 1490SOL    HW1 4606   3.467   0.098   3.750  1.0209 -1.6601  0.2984
 1490SOL    HW2 4607   3.435   0.132   3.605  2.9391  1.3876  0.5078
 1491SOL     OW 4608   0.858   1.282   0.512 -0.4171  0.4515 -0.0447
 1491SOL    HW1 4609   0.927   1.224   0.543 -0.6855  0.1485 -0.0141
 1491SOL    HW2 4610   0.903   1.365   0.494  0.2377 -0.2142 -1.5554
 1492SOL     OW 4611   2.587   1.268   1.979 -0.1821  0.3079 -0.2672
 1492SOL    HW1 4612   2.492   1.259   1.991 -0.1348 -1.5661 -0.9369
 1492SOL    HW2 4613   2.605   1.359   2.002 -1.7360  0.0452  2.4654
 1493SOL     OW 4614   2.974   1.885   0.429 -0.1907 -0.4017  0.3538
 1493SOL    HW1 4615   2.937   1.944   0.495  0.2192 -1.5467  1.6551
 1493SOL    HW2 4616   3.040   1.835   0.476 -1.6177 -3.0536 -0.2612
 1494SOL     OW 4617   1.097   1.400   1.716  0.1978 -0.0476 -0.2811
 1494SOL    HW1 4618   1.157   1.453   1.767  0.9114  0.3661 -1.5206
 1494SOL    HW2 4619   1.081   1.323   1.771  0.4966  0.6251  0.7866
 1495SOL     OW 4620   1.505   1.251   1.782  0.5537  0.7151  0.2135
 1495SOL    HW1 4621   1.458   1.176   1.817  1.4401  0.3421  0.6237
 1495SOL    HW2 4622   1.454   1.327   1.810  0.1744  0.3130  0.6169
 1496SOL     OW 4623   1.834   2.485   3.288  0.3164 -0.4555  0.1441
 1496SOL    HW1 4624   1.890   2.563   3.283 -0.1548 -0.1991 -1.5379
 1496SOL    HW2 4625   1.767   2.499   3.221 -1.0605 -1.3245  1.2917
 1497SOL     OW 4626   2.377   2.226   0.467  0.0962  0.3016  0.2383
 1497SOL    HW1 4627   2.402   2.296   0.527 -2.2844  1.3742  0.1047
 1497SOL    HW2 4628   2.391   2.262   0.380 -1.7882  0.9458  0.1613
 1498SOL     OW 4629   0.335   1.020   0.274 -0.0228  0.3034  0.7632
 1498SOL    HW1 4630   0.275   1.071   0.219 -1.5901 -1.2255  0.9455
 1498SOL    HW2 4631   0.394   0.977   0.212 -1.1265 -0.5981  0.2939
 1499SOL     OW 4632   0.739   3.159   0.796  0.3795  0.4211 -0.0658
 1499SOL    HW1 4633   0.791   3.139   0.873 -0.9045 -1.5460  0.3534
 1499SOL    HW2 4634   0.648   3.143   0.822 -0.3292  2.0073 -1.3079
 1500SOL     OW 4635   0.217   2.414   1.215  0.1170  0.4082  0.0000
 1500SOL    HW1 4636   0.253   2.326   1.211 -0.8314 -0.0022  0.2825
 1500SOL    HW2 4637   0.136   2.405   1.265  0.6261  1.6525  1.1225
 1501SOL     OW 4638   3.183   1.783   2.351 -0.0733 -0.3368 -0.1636
 1501SOL    HW1 4639   3.261   1.728   2.351  0.6739  0.6858  0.2620
 1501SOL    HW2 4640   3.125   1.744   2.416 -0.8917 -2.3833 -2.0071
 1502SOL     OW 4641   2.675   3.361   0.616  0.5158 -0.5203  0.1999
 1502SOL    HW1 4642   2.668   3.382   0.709  0.4096  0.1825  0.0412
 1502SOL    HW2 4643   2.765   3.332   0.604  0.3149 -1.3634  0.6639
 1503SOL     OW 4644   0.757   1.090   1.556  0.0321  0.3911  0.2285
 1503SOL    HW1 4645   0.731   1.033   1.483 -1.8827 -1.2060  1.9973
 1503SOL    HW2 4646   0.688   1.157   1.559 -1.1954 -0.8491  1.8151
 1504SOL     OW 4647   3.752   2.490   0.063 -0.0659  0.1433 -0.1438
 1504SOL    HW1 4648   3.719   2.537   0.139  0.3060  3.8006 -2.0384
 1504SOL    HW2 4649   3.677   2.484   0.004  0.4709  0.5659 -0.8884
 1505SOL     OW 4650   1.649   2.109   2.089 -0.5239 -0.2180 -0.5441
 1505SOL    HW1 4651   1.730   2.110   2.141  0.5505 -2.3954 -2.0073
 1505SOL    HW2 4652   1.647   2.195   2.047 -0.5028  0.9243  1.6465
 1506SOL     OW 4653   0.839   0.978   0.446 -0.7517  0.3007 -0.1003
 1506SOL    HW1 4654   0.913   1.039   0.434 -0.0989 -0.3093  0.6691
 1506SOL    HW2 4655   0.763   1.035   0.453 -1.1579  0.8758 -5.3116
 1507SOL     OW 4656   1.414   1.170   1.147  0.1223 -0.3266 -0.0825
 1507SOL    HW1 4657   1.471   1.149   1.074  0.9254 -3.7133  1.3233
 1507SOL    HW2 4658   1.456   1.245   1.189  0.3080  0.8863 -2.3010
 1508SOL     OW 4659   3.483   0.169   2.272  0.6862  0.1702  0.1364
 1508SOL    HW1 4660   3.542   0.185   2.198  1.2279 -0.7900  0.3516
 1508SOL    HW2 4661   3.403   0.217   2.249  0.1252 -1.6245 -1.9678
 1509SOL     OW 4662   0.847   0.157   2.927  0.1675 -0.0571 -0.8046
 1509SOL    HW1 4663   0.790   0.113   2.991 -0.0102  1.6133  0.2645
 1509SOL    HW2 4664   0.924   0.101   2.921  0.1322 -0.3392  0.8034
 1510SOL     OW 4665   0.453   1.733   2.026  0.2718  0.0978 -0.0813
 1510SOL    HW1 4666   0.365   1.768   2.015  0.5902  0.4317 -1.7499
 1510SOL    HW2 4667   0.486   1.777   2.105 -0.1605  1.9000 -0.8464
 1511SOL     OW 4668   1.046   2.658   1.148 -0.3949 -0.0596  0.3203
 1511SOL    HW1 4669   1.116   2.691   1.205 -1.7443  0.7740  1.5396
 1511SOL    HW2 4670   1.041   2.723   1.077 -1.8713  1.5170  1.7947
 1512SOL     OW 4671   3.156   3.215   2.143  0.5621  0.2905  0.3632
 1512SOL    HW1 4672   3.134   3.194   2.234  1.1954 -0.5051  0.3537
 1512SOL    HW2 4673   3.170   3.129   2.102  0.7821  0.6618 -0.3528
 1513SOL     OW 4674   2.532   2.057   3.252  0.2020 -0.0396  0.5465
 1513SOL    HW1 4675   2.590   2.130   3.275 -0.7194  0.9173 -0.0737
 1513SOL    HW2 4676   2.549   2.041   3.159 -0.0089 -0.2529  0.5439
 1514SOL     OW 4677   0.815   0.568   2.378  0.1064 -0.3832 -0.0473
 1514SOL    HW1 4678   0.887   0.552   2.317  0.8577  1.3223  0.3334
 1514SOL    HW2 4679   0.739   0.585   2.321  0.6774  0.6559 -0.5257
 1515SOL     OW 4680   1.869   2.315   0.563 -0.1622 -0.1448  0.6868
 1515SOL    HW1 4681   1.830   2.260   0.631  1.1608 -0.1697  1.4711
 1515SOL    HW2 4682   1.895   2.395   0.610 -3.4182  1.9232 -0.6856
 1516SOL     OW 4683   2.423   0.204   2.360  0.2601  0.2590 -0.1671
 1516SOL    HW1 4684   2.445   0.129   2.414  0.4626 -0.4738 -1.2400
 1516SOL    HW2 4685   2.507   0.244   2.337  0.2342  0.0494 -0.6479
 1517SOL     OW 4686   1.719   1.826   0.505  0.6516  0.0215 -0.8709
 1517SOL    HW1 4687   1.749   1.762   0.441  0.4300 -1.7810  0.7581
 1517SOL    HW2 4688   1.799   1.857   0.547  0.7974  1.2069 -1.9476
 1518SOL     OW 4689   3.304   2.467   3.390 -0.4384 -0.4313  0.2858
 1518SOL    HW1 4690   3.316   2.549   3.342  2.8713 -0.3343  1.0539
 1518SOL    HW2 4691   3.216   2.475   3.427 -1.0904  1.7597 -1.4422
 1519SOL     OW 4692   0.882   1.058   3.541  0.1948 -0.3660  0.0465
 1519SOL    HW1 4693   0.960   1.113   3.545  1.8901 -2.5138 -0.9202
 1519SOL    HW2 4694   0.902   0.995   3.471 -2.4388 -0.9855 -0.2280
 1520SOL     OW 4695   0.423   2.475   1.039  0.5138  0.6290 -0.4981
 1520SOL    HW1 4696   0.475   2.395   1.036  1.0858  0.9935 -0.5699
 1520SOL    HW2 4697   0.351   2.456   1.099  0.7517  0.1267 -0.3720
 1521SOL     OW 4698   1.666   3.426   0.061  0.4784 -0.5820  0.1792
 1521SOL    HW1 4699   1.614   3.350   0.086  0.7584 -0.4146  1.3683
 1521SOL    HW2 4700   1.633   3.451  -0.026 -2.4522  0.3665  1.4076
 1522SOL     OW 4701   1.758   2.149   3.299 -0.0705 -0.0849 -0.1696
 1522SOL    HW1 4702   1.767   2.056   3.276 -0.3155  0.2405 -1.6933
 1522SOL    HW2 4703   1.752   2.149   3.394 -0.4507 -1.6682 -0.1593
 1523SOL     OW 4704   1.627   2.086   0.494  0.5113 -1.3233  0.0563
 1523SOL    HW1 4705   1.557   2.108   0.556  0.7760 -1.2979  0.3479
 1523SOL    HW2 4706   1.633   1.991   0.497 -1.3494 -1.5956 -1.9814
 1524SOL     OW 4707   2.504   3.264   1.846  0.4742  0.1976  0.6930
 1524SOL    HW1 4708   2.459   3.209   1.909  0.3769 -0.8558 -0.2670
 1524SOL    HW2 4709   2.436   3.322   1.811 -0.4408 -2.0436 -1.4707
 1525SOL     OW 4710   0.997   2.182   2.243  0.0429  0.1575  0.0017
 1525SOL    HW1 4711   1.084   2.164   2.279 -0.0327  1.1447  0.7229
 1525SOL    HW2 4712   0.945   2.104   2.266  0.7453 -0.4773 -0.5122
 1526SOL     OW 4713   1.726   3.081   3.766  0.1512  0.5096 -0.1398
 1526SOL    HW1 4714   1.682   3.141   3.706 -2.9298 -0.3381  1.0948
 1526SOL    HW2 4715   1.776   3.022   3.709 -1.4068  0.6824 -1.7572
 1527SOL     OW 4716   0.702   0.224   0.643 -0.1313 -0.2072 -0.0708
 1527SOL    HW1 4717   0.754   0.304   0.642 -1.1175  0.4540  0.2607
 1527SOL    HW2 4718   0.633   0.240   0.708 -0.6688 -1.1096 -0.3879
 1528SOL     OW 4719   1.552   1.498   3.281  0.0082  0.1340  0.9030
 1528SOL    HW1 4720   1.610   1.474   3.354  0.5463  0.0833  0.4670
 1528SOL    HW2 4721   1.466   1.465   3.307 -0.2914  2.0271  2.4888
 1529SOL     OW 4722   0.295   0.049   2.062  0.6206  0.3773  0.3248
 1529SOL    HW1 4723   0.302   0.031   2.155 -0.5301 -0.3902  0.2857
 1529SOL    HW2 4724   0.202   0.064   2.047  0.7982  0.5752 -0.6856
 1530SOL     OW 4725   1.270   0.312   1.097  0.3385 -0.3003  0.3990
 1530SOL    HW1 4726   1.252   0.405   1.106  1.9066  0.3275 -2.2224
 1530SOL    HW2 4727   1.355   0.307   1.054 -0.5407 -2.8902 -1.2703
 1531SOL     OW 4728   0.642   1.447   1.428  0.8338  0.0951 -0.3242
 1531SOL    HW1 4729   0.718   1.439   1.371  1.2897 -1.0442  0.4064
 1531SOL    HW2 4730   0.631   1.541   1.441  1.5961  0.3052 -1.1290
 1532SOL     OW 4731   2.019   0.701   3.554  0.2116 -0.3080  0.0807
 1532SOL    HW1 4732   2.019   0.647   3.476  0.2295  0.8832 -0.7666
 1532SOL    HW2 4733   2.103   0.746   3.552  0.8654 -1.3742  1.5993
 1533SOL     OW 4734   0.742   2.455   0.963 -0.7482  0.3445  0.0402
 1533SOL    HW1 4735   0.664   2.480   0.914 -0.5323  1.8553  0.4161
 1533SOL    HW2 4736   0.729   2.491   1.050 -0.0201 -0.1662  0.3711
 1534SOL     OW 4737   0.281   1.480   2.465  0.2385  0.5928 -0.7012
 1534SOL    HW1 4738   0.371   1.448   2.469  0.0223 -0.0119 -0.5008
 1534SOL    HW2 4739   0.284   1.555   2.406  0.7899  0.2905 -1.0648
 1535SOL     OW 4740   0.824   1.799   1.611  0.0461  0.3923  0.0505
 1535SOL    HW1 4741   0.749   1.776   1.556 -0.0379  2.2640 -0.6953
 1535SOL    HW2 4742   0.831   1.727   1.673 -2.4442  0.2040  0.2212
 1536SOL     OW 4743   3.545   2.362   1.565 -0.2316 -0.2152  0.2436
 1536SOL    HW1 4744   3.625   2.314   1.587 -0.6632 -0.9105  0.3084
 1536SOL    HW2 4745   3.482   2.335   1.631 -0.9270 -0.7395 -0.6210
 1537SOL     OW 4746   3.142   3.723   0.005 -0.5762  0.3537  0.1374
 1537SOL    HW1 4747   3.228   3.705   0.042  0.0207  0.7837 -0.9935
 1537SOL    HW2 4748   3.080   3.700   0.075  0.5012  1.3366  1.4571
 1538SOL     OW 4749   0.221   0.473   1.751 -0.3164  0.5915  0.0333
 1538SOL    HW1 4750   0.185   0.556   1.720 -2.0631 -1.2919 -3.7475
 1538SOL    HW2 4751   0.314   0.477   1.727 -0.5736  1.1473 -0.9257
 1539SOL     OW 4752   2.119   0.970   1.612  0.0748 -0.5832 -0.1559
 1539SOL    HW1 4753   2.196   1.023   1.635 -1.1013  1.2478 -0.2868
 1539SOL    HW2 4754   2.131   0.889   1.662  1.0387  0.5216  1.5241
 1540SOL     OW 4755   1.718   2.051   0.214  0.6151 -0.0305  0.3150
 1540SOL    HW1 4756   1.803   2.092   0.199 -0.4334  1.1851 -3.4682
 1540SOL    HW2 4757   1.696   2.075   0.304  4.2006 -0.4328  1.4587
 1541SOL     OW 4758   0.246   0.784   0.438  0.0053 -0.5758  0.2532
 1541SOL    HW1 4759   0.172   0.834   0.404  0.1904  0.7987  1.7245
 1541SOL    HW2 4760   0.322   0.819   0.393 -0.1032 -1.2223 -0.4533
 1542SOL     OW 4761   1.321   1.810   2.823 -0.1723  0.2643 -0.0055
 1542SOL    HW1 4762   1.323   1.741   2.756  0.7716  0.9503 -0.7129
 1542SOL    HW2 4763   1.382   1.780   2.890  0.7661  0.7031 -0.6384
 1543SOL     OW 4764   3.221   2.398   1.510 -0.3232 -0.2452 -0.1357
 1543SOL    HW1 4765   3.288   2.333   1.533 -1.0078 -0.5877  0.9389
 1543SOL    HW2 4766   3.158   2.350   1.457 -0.7959 -0.4476  0.6051
 1544SOL     OW 4767   2.870   3.293   0.256  0.0668 -0.3844  0.4289
 1544SOL    HW1 4768   2.862   3.283   0.350 -0.8098  1.0399  0.5319
 1544SOL    HW2 4769   2.891   3.205   0.224 -3.6627 -1.9004  1.5311
 1545SOL     OW 4770   1.385   1.460   3.651  0.1862 -0.1434 -0.6748
 1545SOL    HW1 4771   1.426   1.533   3.698 -1.6305  1.1470 -1.0043
 1545SOL    HW2 4772   1.315   1.430   3.709  0.6752 -1.4252 -0.7046
 1546SOL     OW 4773   0.087   1.332   0.705 -0.0528 -0.4356  0.1187
 1546SOL    HW1 4774   0.097   1.243   0.671  0.8180 -0.0745 -0.6131
 1546SOL    HW2 4775   0.143   1.334   0.783  1.4005 -0.0251 -0.8875
 1547SOL     OW 4776   0.799   0.883   1.860 -0.6978  0.2267 -0.0927
 1547SOL    HW1 4777   0.766   0.820   1.796 -0.1569  1.3031 -1.4999
 1547SOL    HW2 4778   0.869   0.837   1.906  0.5762  0.1399 -1.9879
 1548SOL     OW 4779   1.967   0.283   0.385  0.1874  0.0235  0.2279
 1548SOL    HW1 4780   1.958   0.192   0.358  2.1216 -0.5289  1.2881
 1548SOL    HW2 4781   1.942   0.283   0.478 -0.9436  0.8162 -0.0579
 1549SOL     OW 4782   1.763   2.154   1.112  0.7545 -0.1491  0.1573
 1549SOL    HW1 4783   1.685   2.186   1.158 -0.1169 -0.8210 -0.7904
 1549SOL    HW2 4784   1.835   2.167   1.174  0.0423  1.2841  0.7388
 1550SOL     OW 4785   0.796   0.602   0.789  0.5980  0.0089 -0.5167
 1550SOL    HW1 4786   0.850   0.567   0.718  1.9924  0.0065  0.4972
 1550SOL    HW2 4787   0.735   0.531   0.810  0.1375  0.0279 -1.7165
 1551SOL     OW 4788   3.560   3.320   0.559  0.5759  0.7018  0.0283
 1551SOL    HW1 4789   3.507   3.314   0.479 -0.0298 -0.3950  0.4848
 1551SOL    HW2 4790   3.623   3.248   0.552 -0.7661 -0.6881  1.4070
 1552SOL     OW 4791   3.251   1.138   0.009 -0.0052  0.2443  0.1457
 1552SOL    HW1 4792   3.159   1.118   0.023  0.3912 -0.8992  1.3273
 1552SOL    HW2 4793   3.261   1.229   0.038 -0.4560 -0.1347  1.5683
 1553SOL     OW 4794   0.910   2.727   3.639 -0.3556 -0.3115  0.2482
 1553SOL    HW1 4795   0.879   2.638   3.656  1.0747 -0.5843  1.6954
 1553SOL    HW2 4796   0.898   2.773   3.723  1.5510  0.0092  0.3951
 1554SOL     OW 4797   2.630   2.869   1.651 -0.3313  1.1544  0.4157
 1554SOL    HW1 4798   2.709   2.850   1.702  1.1601  2.3761 -1.3243
 1554SOL    HW2 4799   2.562   2.818   1.694  1.2799  0.4111  2.2782
 1555SOL     OW 4800   3.686   0.968   2.375 -0.8932  0.2933  0.7073
 1555SOL    HW1 4801   3.676   0.960   2.469 -2.0092  1.5959  0.7202
 1555SOL    HW2 4802   3.666   0.881   2.341 -2.2855  0.2648  1.5490
 1556SOL     OW 4803   2.703   0.217   0.873 -0.2015  0.2808 -0.4654
 1556SOL    HW1 4804   2.791   0.253   0.869  0.4714 -1.1435  0.4701
 1556SOL    HW2 4805   2.646   0.292   0.887  1.1658  0.9972  1.7229
 1557SOL     OW 4806   0.021   2.915   2.993  0.8186 -0.2454  0.1054
 1557SOL    HW1 4807   0.065   2.954   3.069 -0.3543  0.0911  0.6224
 1557SOL    HW2 4808  -0.056   2.968   2.979  0.8737 -0.4599 -1.1866
 1558SOL     OW 4809   0.281   0.209   1.593  0.0807  0.2653  0.0399
 1558SOL    HW1 4810   0.243   0.281   1.643 -0.2159 -0.6130  1.1232
 1558SOL    HW2 4811   0.375   0.223   1.599 -0.0047  1.2961 -0.8890
 1559SOL     OW 4812   1.524   2.497   3.463 -0.4966 -0.4336 -0.5156
 1559SOL    HW1 4813   1.556   2.577   3.423  1.1599 -0.8206 -0.0463
 1559SOL    HW2 4814   1.485   2.525   3.546 -0.8367 -0.0220 -0.8104
 1560SOL     OW 4815   2.608   0.028   1.102  0.0116 -0.4798 -0.5943
 1560SOL    HW1 4816   2.617   0.050   1.010 -1.1745  0.0867 -0.5964
 1560SOL    HW2 4817   2.600   0.113   1.146 -1.2561 -0.7827 -0.2013
 1561SOL     OW 4818   2.642   0.690   1.082  0.0439 -0.7214  1.0188
 1561SOL    HW1 4819   2.681   0.749   1.147 -0.3956 -1.0405  1.5770
 1561SOL    HW2 4820   2.590   0.748   1.026  0.8621 -0.3655  0.5947
 1562SOL     OW 4821   2.182   1.238   1.355 -0.1585 -0.2792  0.3198
 1562SOL    HW1 4822   2.199   1.299   1.284  1.4299 -1.9743 -0.8689
 1562SOL    HW2 4823   2.204   1.286   1.434  1.7595  0.4905 -0.6225
 1563SOL     OW 4824   0.850   0.359   1.961 -1.2616 -0.6118 -0.0184
 1563SOL    HW1 4825   0.798   0.328   1.887 -0.1941 -0.0243 -1.0538
 1563SOL    HW2 4826   0.904   0.284   1.986 -0.9982 -0.5594 -0.4179
 1564SOL     OW 4827   1.114   1.749   1.652  0.0955  0.5029 -0.0860
 1564SOL    HW1 4828   1.096   1.843   1.662  3.4306  1.4922 -1.9681
 1564SOL    HW2 4829   1.038   1.707   1.691 -1.6211  3.9601  0.7642
 1565SOL     OW 4830   3.215   1.433   1.754 -0.6790 -0.2827  0.2228
 1565SOL    HW1 4831   3.221   1.429   1.658  0.9373  2.0418  0.1330
 1565SOL    HW2 4832   3.129   1.397   1.774 -1.1602 -0.6232 -2.1182
 1566SOL     OW 4833   0.406   1.157   2.296  0.4920  0.1034  0.2852
 1566SOL    HW1 4834   0.331   1.173   2.354 -1.1830  0.1032 -1.7574
 1566SOL    HW2 4835   0.409   1.235   2.239  0.8585 -0.7152 -0.8572
 1567SOL     OW 4836   2.120   0.674   0.637  0.3815 -0.2995  0.4882
 1567SOL    HW1 4837   2.131   0.762   0.675  0.5844 -0.4710  0.8316
 1567SOL    HW2 4838   2.172   0.617   0.694 -0.5264 -0.7918  0.8317
 1568SOL     OW 4839   0.722   2.785   0.977 -0.3492  0.2890 -0.4135
 1568SOL    HW1 4840   0.796   2.725   0.962  0.2682  1.0564 -0.5223
 1568SOL    HW2 4841   0.679   2.791   0.892  1.3101  2.2191 -1.2088
 1569SOL     OW 4842   2.083   1.523   0.093 -0.6295  0.2040  0.4224
 1569SOL    HW1 4843   2.138   1.583   0.042  1.1635 -1.1392  0.6594
 1569SOL    HW2 4844   2.017   1.492   0.031 -1.9205  2.7005  0.4147
 1570SOL     OW 4845   0.640   2.621   3.437 -0.6359 -0.8278 -0.1489
 1570SOL    HW1 4846   0.733   2.616   3.415 -0.7429  0.1030 -0.8553
 1570SOL    HW2 4847   0.597   2.574   3.366 -0.8161  0.2640 -0.7910
 1571SOL     OW 4848   0.292   2.976   0.418 -0.3672  0.0105  1.1440
 1571SOL    HW1 4849   0.315   3.060   0.378 -0.6735 -0.1678  0.5954
 1571SOL    HW2 4850   0.357   2.915   0.385 -1.9113 -0.6344 -0.9027
 1572SOL     OW 4851   2.042   2.461   0.437 -0.0283  0.0743 -0.4035
 1572SOL    HW1 4852   1.978   2.391   0.446  1.3421 -0.9454  4.1139
 1572SOL    HW2 4853   1.992   2.541   0.452 -0.7155 -0.4930  0.4270
 1573SOL     OW 4854   1.483   0.111   3.710  0.8647 -0.1012  0.2688
 1573SOL    HW1 4855   1.440   0.030   3.684  2.0909 -0.6469 -0.1170
 1573SOL    HW2 4856   1.557   0.120   3.650  1.9733  0.2047  1.6161
 1574SOL     OW 4857   0.897   1.592   1.738 -0.2185 -0.4799 -0.3176
 1574SOL    HW1 4858   0.952   1.520   1.708  0.5018  0.0855 -0.3857
 1574SOL    HW2 4859   0.852   1.558   1.815  0.5451 -0.8101 -0.0159
 1575SOL     OW 4860   0.644   3.653   0.841  0.6067 -0.1091  0.1495
 1575SOL    HW1 4861   0.552   3.680   0.839  0.7638  0.3861 -0.7531
 1575SOL    HW2 4862   0.659   3.612   0.756  1.3968  0.4367  0.0108
 1576SOL     OW 4863   2.866   3.582   1.597  0.2969 -0.2973  0.3842
 1576SOL    HW1 4864   2.947   3.546   1.560  0.2383 -0.1558  0.1164
 1576SOL    HW2 4865   2.810   3.598   1.521 -0.5857 -1.8478  0.6612
 1577SOL     OW 4866   0.571   3.122   2.861  0.3045  0.1162 -0.3043
 1577SOL    HW1 4867   0.605   3.200   2.818  0.4754  1.1453  1.5729
 1577SOL    HW2 4868   0.489   3.150   2.902  0.0785 -0.8405 -0.0625
 1578SOL     OW 4869   2.422   2.498   3.155  0.1878 -0.3479  0.4850
 1578SOL    HW1 4870   2.465   2.447   3.087  1.7485  0.6505  0.6798
 1578SOL    HW2 4871   2.384   2.433   3.214 -0.0262 -1.2287 -0.6009
 1579SOL     OW 4872   1.464   1.083   1.991 -0.9815 -0.0318  0.1937
 1579SOL    HW1 4873   1.372   1.080   2.017 -1.8119  0.6924 -2.3279
 1579SOL    HW2 4874   1.501   1.155   2.043 -2.4186  1.0892 -0.2534
 1580SOL     OW 4875   3.335   0.864   0.841  0.1900 -0.4842  1.1637
 1580SOL    HW1 4876   3.267   0.902   0.897 -1.3482 -1.1749 -0.1557
 1580SOL    HW2 4877   3.414   0.865   0.895 -0.7502  0.7570  2.5963
 1581SOL     OW 4878   0.833   2.415   3.135  0.1502  0.1599 -0.2501
 1581SOL    HW1 4879   0.818   2.494   3.084  2.3275  0.0808 -1.1057
 1581SOL    HW2 4880   0.790   2.345   3.085  0.7649  0.3503 -1.0555
 1582SOL     OW 4881  -0.012   1.604   2.603 -0.6497  0.4976 -0.3277
 1582SOL    HW1 4882   0.080   1.630   2.597  0.0595 -2.1082 -2.4092
 1582SOL    HW2 4883  -0.033   1.609   2.697  0.6078  4.0268 -0.0912
 1583SOL     OW 4884   1.340   0.413   3.534  0.6509 -0.3142 -0.3503
 1583SOL    HW1 4885   1.327   0.508   3.534  0.3617 -0.3463  0.3201
 1583SOL    HW2 4886   1.365   0.393   3.625 -1.5805 -1.1726  0.1292
 1584SOL     OW 4887   1.823   0.462   0.188  0.6683 -0.1259  0.0813
 1584SOL    HW1 4888   1.886   0.513   0.137 -0.0664 -0.2382 -0.9579
 1584SOL    HW2 4889   1.867   0.447   0.271  0.9696  2.0999  0.4024
 1585SOL     OW 4890   2.442   2.280   0.209 -0.2159 -0.0603 -0.7038
 1585SOL    HW1 4891   2.349   2.298   0.203 -0.3316  0.2432  1.4634
 1585SOL    HW2 4892   2.484   2.360   0.175 -0.6883 -0.6130 -2.7049
 1586SOL     OW 4893   3.139   2.014   3.416  0.5055 -0.3211 -0.3890
 1586SOL    HW1 4894   3.224   2.048   3.388  0.3349 -0.2548 -0.8491
 1586SOL    HW2 4895   3.096   2.088   3.458  0.6968 -0.3689 -0.1109
 1587SOL     OW 4896   2.999   3.173   0.756  0.3241 -0.2583  0.4565
 1587SOL    HW1 4897   3.005   3.234   0.830 -0.4369 -2.3402  2.3452
 1587SOL    HW2 4898   2.963   3.093   0.794 -1.0278 -1.1272 -2.3944
 1588SOL     OW 4899   1.146   0.611   0.343  0.0916 -0.0988  0.4098
 1588SOL    HW1 4900   1.196   0.633   0.265 -2.3131 -1.8116 -1.7763
 1588SOL    HW2 4901   1.169   0.520   0.363  0.2051  0.1171  1.3453
 1589SOL     OW 4902   3.242   2.073   0.744  0.0133  0.3135  0.0865
 1589SOL    HW1 4903   3.222   1.980   0.754  0.3148  0.0710 -1.2784
 1589SOL    HW2 4904   3.317   2.075   0.684  0.3534  1.4187  0.5260
 1590SOL     OW 4905   3.619   1.945   1.688 -0.7911  0.2245 -0.0088
 1590SOL    HW1 4906   3.566   1.951   1.608 -1.4326  3.1094  0.5024
 1590SOL    HW2 4907   3.556   1.960   1.759  0.2714  1.0478  0.7882
 1591SOL     OW 4908   1.355   1.275   3.307  0.0614 -0.1474  0.7141
 1591SOL    HW1 4909   1.350   1.208   3.238 -1.9951  0.0953  0.5649
 1591SOL    HW2 4910   1.436   1.255   3.353  0.1445 -1.9774 -0.1116
 1592SOL     OW 4911   3.590   1.919   0.932 -0.5130  0.0745 -0.2186
 1592SOL    HW1 4912   3.554   1.960   1.011  0.8362  0.7400  0.0808
 1592SOL    HW2 4913   3.564   1.827   0.939  0.0165  0.0097  1.2708
 1593SOL     OW 4914   0.234   2.667   1.752  0.0001  0.3302 -0.2922
 1593SOL    HW1 4915   0.156   2.655   1.805 -0.5598  2.0313 -0.6721
 1593SOL    HW2 4916   0.290   2.592   1.773 -0.3961  0.6994  2.3072
 1594SOL     OW 4917   0.712   1.912   3.178 -0.1184  0.5863  0.3339
 1594SOL    HW1 4918   0.793   1.902   3.229 -0.7130 -1.0246  0.9930
 1594SOL    HW2 4919   0.743   1.932   3.089  0.9546  1.7410  0.9249
 1595SOL     OW 4920   1.967   1.846   3.613 -0.1180  0.5587 -0.5817
 1595SOL    HW1 4921   1.994   1.755   3.625 -1.3645  0.3338  0.8764
 1595SOL    HW2 4922   2.045   1.897   3.632 -0.3421 -0.0874  2.5652
 1596SOL     OW 4923   0.443   0.271   1.938 -1.1672  0.1034 -0.1312
 1596SOL    HW1 4924   0.393   0.194   1.967 -0.7719  0.2638  1.0327
 1596SOL    HW2 4925   0.510   0.283   2.006  0.6215 -0.2345 -1.7519
 1597SOL     OW 4926   2.205   3.340   0.617  0.0721  0.3586 -0.4477
 1597SOL    HW1 4927   2.176   3.298   0.698 -0.2009  2.7057  0.7594
 1597SOL    HW2 4928   2.124   3.357   0.568 -0.3276  2.9906  0.9382
 1598SOL     OW 4929   3.422   0.982   0.433 -0.4463  0.1396 -0.7862
 1598SOL    HW1 4930   3.385   0.951   0.351  1.8773  0.7299 -2.1451
 1598SOL    HW2 4931   3.459   0.903   0.474  2.5826  0.4231 -2.6825
 1599SOL     OW 4932   2.017   0.328   0.660 -0.6527  0.4908 -0.2347
 1599SOL    HW1 4933   2.041   0.416   0.688 -0.7997  0.2059  0.8269
 1599SOL    HW2 4934   1.935   0.309   0.707 -1.6966  0.5269 -1.9412
 1600SOL     OW 4935   1.543   1.588   2.187  0.9344 -0.0248 -0.2347
 1600SOL    HW1 4936   1.469   1.648   2.200  1.9258  1.6557 -1.8366
 1600SOL    HW2 4937   1.573   1.607   2.098  1.7746 -2.4366 -0.5310
 1601SOL     OW 4938   1.426   2.987   0.495  0.2315 -0.1166 -0.7050
 1601SOL    HW1 4939   1.442   2.914   0.556 -0.4292 -1.2660 -1.8607
 1601SOL    HW2 4940   1.460   3.064   0.541 -4.2451 -0.0309  3.1746
 1602SOL     OW 4941   0.031   2.150   1.568 -0.2925 -0.9664  0.0482
 1602SOL    HW1 4942  -0.001   2.072   1.614 -0.3997 -0.0799  1.5354
 1602SOL    HW2 4943   0.125   2.151   1.585 -0.2780 -0.8191 -0.0387
 1603SOL     OW 4944   0.949   3.013   1.212 -0.0897  0.6933  0.0678
 1603SOL    HW1 4945   1.023   2.951   1.212 -0.3400  0.3823 -0.5742
 1603SOL    HW2 4946   0.873   2.960   1.235 -0.0645  1.0859  1.0781
 1604SOL     OW 4947   0.901   2.557   3.360  0.2815 -0.4984 -0.2396
 1604SOL    HW1 4948   0.943   2.625   3.307 -3.7148  1.3098 -1.4310
 1604SOL    HW2 4949   0.875   2.490   3.297  0.1741 -0.9183  0.2432
 1605SOL     OW 4950   2.330   1.246   0.128 -0.2375  0.7025  0.0808
 1605SOL    HW1 4951   2.294   1.284   0.208  0.1330 -0.1944  0.6905
 1605SOL    HW2 4952   2.258   1.248   0.065 -0.8700  0.3772  0.7901
 1606SOL     OW 4953   3.290   0.305   0.880  0.6145  0.5828  0.6318
 1606SOL    HW1 4954   3.217   0.303   0.818 -0.3612 -0.0216  1.7438
 1606SOL    HW2 4955   3.364   0.339   0.830 -0.3250  0.8163 -0.6442
 1607SOL     OW 4956   3.578   1.688   1.878 -0.2837  0.1607 -0.2051
 1607SOL    HW1 4957   3.612   1.666   1.965 -0.8183 -0.1903 -0.0774
 1607SOL    HW2 4958   3.494   1.642   1.874 -1.3359  1.9873 -0.0322
 1608SOL     OW 4959   2.109   0.591   2.890 -0.2260 -0.6532 -0.2269
 1608SOL    HW1 4960   2.175   0.523   2.902  0.7090  0.4284  1.0751
 1608SOL    HW2 4961   2.043   0.551   2.834  1.2210 -1.9787 -1.0570
 1609SOL     OW 4962   0.900   0.425   2.612 -0.3871 -0.1850 -0.0842
 1609SOL    HW1 4963   0.849   0.500   2.581  0.8432  1.8500  2.4297
 1609SOL    HW2 4964   0.899   0.363   2.539 -1.6863  2.1625 -2.1963
 1610SOL     OW 4965   3.324   0.617   0.743  0.0182  0.3466  0.4608
 1610SOL    HW1 4966   3.398   0.582   0.792 -0.5776 -0.5958  0.7088
 1610SOL    HW2 4967   3.289   0.687   0.799 -0.4541 -0.5024  1.2629
 1611SOL     OW 4968   2.247   2.483   3.462  0.0005  0.2157 -0.1385
 1611SOL    HW1 4969   2.164   2.441   3.487 -0.9209  1.0035 -1.6946
 1611SOL    HW2 4970   2.277   2.433   3.386  0.2415  0.7609 -0.4087
 1612SOL     OW 4971   2.252   2.747   0.353  0.6730  0.0827  0.1599
 1612SOL    HW1 4972   2.235   2.673   0.295  0.3053  0.3551 -0.0817
 1612SOL    HW2 4973   2.196   2.732   0.429 -0.0620  0.5554 -0.2732
 1613SOL     OW 4974   0.006   3.359   2.728  0.5477  0.0518 -0.4900
 1613SOL    HW1 4975  -0.007   3.375   2.634  3.1100 -1.7924 -1.2497
 1613SOL    HW2 4976   0.044   3.441   2.760 -2.3826  1.5398 -0.4576
 1614SOL     OW 4977   0.184   2.308   2.668 -0.3176 -0.4528 -0.4016
 1614SOL    HW1 4978   0.136   2.332   2.588  0.2391 -2.3509 -1.3636
 1614SOL    HW2 4979   0.192   2.213   2.663 -0.4329 -0.6357  2.0531
 1615SOL     OW 4980   2.134   2.136   0.556 -0.3276 -0.0925  0.0915
 1615SOL    HW1 4981   2.225   2.161   0.569 -0.5065  0.0592  1.2113
 1615SOL    HW2 4982   2.102   2.193   0.487 -0.0263  1.0425  0.8567
 1616SOL     OW 4983   0.580   2.608   1.567  0.0071 -0.2099  0.0646
 1616SOL    HW1 4984   0.609   2.518   1.581 -0.1595 -0.4412 -0.9827
 1616SOL    HW2 4985   0.604   2.654   1.648 -2.0423 -1.7062  1.6412
 1617SOL     OW 4986   2.571   1.014   0.421 -0.5796  0.2932 -0.1471
 1617SOL    HW1 4987   2.521   0.957   0.362 -0.9658  0.0947  0.3692
 1617SOL    HW2 4988   2.630   1.062   0.363  0.4804 -1.3469 -0.5006
 1618SOL     OW 4989   3.345   1.567   1.966  0.4473 -0.7283 -0.1548
 1618SOL    HW1 4990   3.312   1.540   1.880 -1.4538 -2.1448  0.9264
 1618SOL    HW2 4991   3.370   1.485   2.008 -1.4743 -0.4542  1.6925
 1619SOL     OW 4992   3.022   2.522   1.118 -1.4621  0.4778 -0.0983
 1619SOL    HW1 4993   2.972   2.450   1.081 -0.7640 -0.4124  0.6428
 1619SOL    HW2 4994   3.114   2.500   1.100 -1.2662  1.6346 -0.6497
 1620SOL     OW 4995   1.438   0.957   3.433  0.6400  0.3917 -0.8026
 1620SOL    HW1 4996   1.346   0.956   3.406  0.6734 -2.1028 -1.0931
 1620SOL    HW2 4997   1.444   1.028   3.496 -1.7777 -0.1001  0.0892
 1621SOL     OW 4998   3.218   2.815   3.075  0.1174  0.0263  0.0661
 1621SOL    HW1 4999   3.241   2.906   3.054 -0.5543  0.1479 -0.1825
 1621SOL    HW2 5000   3.294   2.764   3.047  1.2718  0.6728  1.8734
 1622SOL     OW 5001   2.879   0.121   0.164  0.6847 -0.1125  0.0980
 1622SOL    HW1 5002   2.788   0.102   0.143  1.0655 -0.2802 -1.5425
 1622SOL    HW2 5003   2.904   0.192   0.104  1.9333 -0.8203 -0.2694
 1623SOL     OW 5004   1.668   0.413   0.773  0.1006  0.1716 -0.8116
 1623SOL    HW1 5005   1.617   0.490   0.746 -0.0388  0.0479 -0.9051
 1623SOL    HW2 5006   1.733   0.447   0.834 -0.4097  0.2504 -0.3139
 1624SOL     OW 5007   0.454   2.674   2.608 -0.2842 -0.1180 -0.2976
 1624SOL    HW1 5008   0.451   2.731   2.685  0.8619  0.0948 -0.3984
 1624SOL    HW2 5009   0.422   2.729   2.536  1.8696  0.8095 -0.6158
 1625SOL     OW 5010   3.221   3.637   2.649  0.0463  0.2957  0.3608
 1625SOL    HW1 5011   3.167   3.606   2.577  0.8294 -1.9701  0.6666
 1625SOL    HW2 5012   3.160   3.675   2.711 -1.2429 -1.9571  0.5849
 1626SOL     OW 5013   1.596   3.091   2.143  0.1324  0.0978  0.2825
 1626SOL    HW1 5014   1.610   3.165   2.202  1.8237 -0.9908  1.3481
 1626SOL    HW2 5015   1.661   3.104   2.073  0.6667 -0.5247  0.6516
 1627SOL     OW 5016   1.927   0.128   2.316 -0.2681  0.2757 -0.1604
 1627SOL    HW1 5017   1.847   0.176   2.294  0.5314  0.3723 -3.3708
 1627SOL    HW2 5018   1.927   0.053   2.257  2.1189  0.4295 -0.4521
 1628SOL     OW 5019   1.272   2.144   0.554 -0.8010 -0.2059  0.0018
 1628SOL    HW1 5020   1.361   2.170   0.577  0.1466 -3.0626 -0.0689
 1628SOL    HW2 5021   1.266   2.161   0.460 -0.8838  1.3158  0.2521
 1629SOL     OW 5022   1.669   0.856   2.680 -1.0385 -0.3066 -1.0331
 1629SOL    HW1 5023   1.622   0.884   2.602 -2.2823  0.3553 -0.0909
 1629SOL    HW2 5024   1.654   0.926   2.744  1.2516 -0.0631 -0.6615
 1630SOL     OW 5025   3.011   0.158   0.569 -0.2749  0.3232 -0.2059
 1630SOL    HW1 5026   3.012   0.070   0.607  1.5808 -0.0872 -1.0869
 1630SOL    HW2 5027   3.071   0.208   0.625  0.0980  0.5250 -0.7795
 1631SOL     OW 5028   0.603   1.794   0.599 -0.1275 -0.3624  0.1412
 1631SOL    HW1 5029   0.614   1.780   0.505  0.8670 -1.1147  0.3477
 1631SOL    HW2 5030   0.584   1.887   0.608  0.6073 -0.1111 -0.7473
 1632SOL     OW 5031   1.503   2.827   3.607 -0.6004  0.2172  0.5644
 1632SOL    HW1 5032   1.568   2.826   3.677 -0.6519 -2.6026  0.6593
 1632SOL    HW2 5033   1.552   2.805   3.528 -0.9636  0.9920  0.1081
 1633SOL     OW 5034   2.733   3.664   2.464  0.5856 -0.4650  0.2352
 1633SOL    HW1 5035   2.754   3.732   2.528  0.8473 -0.0288 -0.3088
 1633SOL    HW2 5036   2.772   3.695   2.382 -4.2240  1.6884 -1.5596
 1634SOL     OW 5037   0.539   3.569   3.386  0.5706  0.1472 -0.2839
 1634SOL    HW1 5038   0.457   3.593   3.343  1.1967 -0.0991 -1.6960
 1634SOL    HW2 5039   0.524   3.585   3.479 -1.8403 -1.9808 -0.1988
 1635SOL     OW 5040   0.083   3.647   3.621 -0.5584  0.4139 -0.0833
 1635SOL    HW1 5041   0.076   3.738   3.593  0.1130  0.1593 -1.1560
 1635SOL    HW2 5042   0.106   3.599   3.541 -0.6458 -0.6625  0.5105
 1636SOL     OW 5043   2.380   0.776   0.726 -0.5712  0.5203  0.3477
 1636SOL    HW1 5044   2.456   0.743   0.677  0.1037  1.7470  0.5410
 1636SOL    HW2 5045   2.335   0.697   0.755  0.5614 -0.2394  0.1169
 1637SOL     OW 5046   3.078   1.547   1.076  0.5821 -0.1176  0.4171
 1637SOL    HW1 5047   3.168   1.567   1.053  1.3093 -1.4902  1.8877
 1637SOL    HW2 5048   3.073   1.560   1.171 -0.2938 -1.6643  0.6189
 1638SOL     OW 5049   2.872   2.284   2.871 -0.1060 -0.2146 -0.2963
 1638SOL    HW1 5050   2.855   2.204   2.921  1.0924 -1.3763 -1.6513
 1638SOL    HW2 5051   2.814   2.350   2.910 -2.4369 -2.1534 -0.2560
 1639SOL     OW 5052   2.090   2.770   1.202  0.6893  0.0159  0.1752
 1639SOL    HW1 5053   2.076   2.677   1.219 -2.1511  0.2550 -0.2165
 1639SOL    HW2 5054   2.185   2.781   1.201  1.2845 -3.4486 -2.7555
 1640SOL     OW 5055   0.325   0.384  -0.010  0.0451  0.2092  0.3936
 1640SOL    HW1 5056   0.392   0.344   0.046  1.5708  1.2160 -0.6319
 1640SOL    HW2 5057   0.297   0.462   0.037 -0.2429 -0.0817  0.7112
 1641SOL     OW 5058   1.287   0.578   1.419  0.0544  0.1003  0.2950
 1641SOL    HW1 5059   1.328   0.572   1.505 -0.5625 -1.1365  0.5228
 1641SOL    HW2 5060   1.330   0.653   1.377  0.1645  0.9167  1.7799
 1642SOL     OW 5061   3.392   1.560   3.293  0.7555 -0.1898 -0.7696
 1642SOL    HW1 5062   3.365   1.652   3.293 -3.7100 -1.1953  1.5144
 1642SOL    HW2 5063   3.361   1.526   3.209  2.9896  0.4045 -1.8992
 1643SOL     OW 5064   3.683   3.325   0.958  0.3667 -0.0654  0.0112
 1643SOL    HW1 5065   3.738   3.283   0.892 -1.7734  0.5889 -2.3658
 1643SOL    HW2 5066   3.667   3.257   1.023  1.0597 -1.3541 -1.1178
 1644SOL     OW 5067   1.674   3.382   1.039 -0.3711 -0.5565 -0.6380
 1644SOL    HW1 5068   1.693   3.316   1.107  1.1473 -0.9688 -1.4348
 1644SOL    HW2 5069   1.715   3.348   0.960  0.2518  1.2365 -1.1375
 1645SOL     OW 5070   1.274   3.380   1.445  0.0174  0.0191 -0.3414
 1645SOL    HW1 5071   1.297   3.415   1.531  0.3825  0.2130 -0.5177
 1645SOL    HW2 5072   1.212   3.309   1.464 -0.0493  0.1849  0.0675
 1646SOL     OW 5073   3.432   0.438   0.097 -0.2475  0.3676 -0.1139
 1646SOL    HW1 5074   3.509   0.407   0.145  0.4142  0.6847 -0.9423
 1646SOL    HW2 5075   3.468   0.478   0.018 -1.1883  1.5604  0.0327
 1647SOL     OW 5076   3.144   3.004   2.538  0.1147  0.5933 -0.0768
 1647SOL    HW1 5077   3.192   2.950   2.474 -1.0199  0.1605 -0.5915
 1647SOL    HW2 5078   3.126   2.944   2.610 -2.3741 -0.2061 -1.2464
 1648SOL     OW 5079   0.296   1.944   2.963 -0.1278 -0.2220  0.5412
 1648SOL    HW1 5080   0.232   2.000   2.920 -1.1385 -2.8245 -1.5201
 1648SOL    HW2 5081   0.372   1.945   2.905 -0.2900 -1.2425  0.2957
 1649SOL     OW 5082   1.275   1.751   3.574  0.4575  0.0127  0.7749
 1649SOL    HW1 5083   1.266   1.793   3.489 -0.4656  0.6547  1.1827
 1649SOL    HW2 5084   1.204   1.687   3.577  0.4464  0.0391  1.0906
 1650SOL     OW 5085   1.166   0.354   0.440  0.0019 -0.4175  0.0237
 1650SOL    HW1 5086   1.228   0.336   0.511 -0.3014  1.0168  0.6918
 1650SOL    HW2 5087   1.162   0.272   0.390  1.5583 -0.8880  0.6200
 1651SOL     OW 5088   1.892   2.893   3.535  0.5752  0.5211  0.1522
 1651SOL    HW1 5089   1.963   2.831   3.527 -0.6848 -1.0633  0.7239
 1651SOL    HW2 5090   1.862   2.907   3.445 -0.1488 -0.9745  0.1390
 1652SOL     OW 5091   1.697   0.198   0.585 -0.0519 -0.3595 -0.1359
 1652SOL    HW1 5092   1.614   0.152   0.569  0.3920 -0.5053 -2.3269
 1652SOL    HW2 5093   1.674   0.267   0.647 -1.5663 -1.0768  0.1634
 1653SOL     OW 5094   1.260   0.908   0.248 -0.4609 -0.2309 -0.1747
 1653SOL    HW1 5095   1.295   0.906   0.160 -0.0056 -1.7109  0.0193
 1653SOL    HW2 5096   1.290   0.991   0.284  2.0532 -1.0031 -0.3381
 1654SOL     OW 5097   2.148   3.487   0.939 -0.0913 -0.6399 -0.3700
 1654SOL    HW1 5098   2.235   3.453   0.918  0.1645 -1.6915  2.0171
 1654SOL    HW2 5099   2.163   3.577   0.967 -0.1152 -0.0703 -2.0931
 1655SOL     OW 5100   0.788   1.373   2.906 -0.3072  0.2841 -0.5607
 1655SOL    HW1 5101   0.744   1.291   2.883  2.2093 -1.4654  0.4185
 1655SOL    HW2 5102   0.757   1.393   2.994  2.0397 -1.9950  0.9258
 1656SOL     OW 5103   0.030   2.305   2.917  0.1211  0.1928  0.0147
 1656SOL    HW1 5104   0.002   2.396   2.926  2.4106  1.0930 -1.0138
 1656SOL    HW2 5105   0.080   2.304   2.835  2.3510 -1.3470  1.2991
 1657SOL     OW 5106   0.539   1.310   2.684  0.0356  0.1612 -0.3109
 1657SOL    HW1 5107   0.542   1.324   2.590 -1.5256  0.2083 -0.3787
 1657SOL    HW2 5108   0.565   1.219   2.696  0.4347  0.2132 -0.7693
 1658SOL     OW 5109   1.172   0.555   3.307  0.4111  0.4110 -0.3411
 1658SOL    HW1 5110   1.150   0.569   3.215 -0.6365  3.3458  0.2524
 1658SOL    HW2 5111   1.267   0.554   3.309  0.4577 -1.0429 -1.5738
 1659SOL     OW 5112   1.971   2.778   3.243 -0.6623 -0.1110 -0.5491
 1659SOL    HW1 5113   2.058   2.784   3.203 -0.4333 -0.5282 -0.1333
 1659SOL    HW2 5114   1.920   2.846   3.201 -0.8388 -1.3873 -2.5518
 1660SOL     OW 5115   0.340   1.489   2.844 -0.0116  0.2794  0.2031
 1660SOL    HW1 5116   0.322   1.501   2.751 -1.1665  0.7018  0.4551
 1660SOL    HW2 5117   0.428   1.453   2.848  0.2740  0.7965 -1.0238
 1661SOL     OW 5118   1.274   2.138   1.248 -0.0299  0.2519  0.5263
 1661SOL    HW1 5119   1.336   2.065   1.259  0.7021  1.0594  2.2044
 1661SOL    HW2 5120   1.191   2.095   1.226  0.7354 -0.9709 -0.0999
 1662SOL     OW 5121   2.244   1.415   1.157  0.2122  0.4979  0.2009
 1662SOL    HW1 5122   2.149   1.425   1.170 -0.4404 -2.9282 -0.7692
 1662SOL    HW2 5123   2.264   1.474   1.085 -1.6557 -0.0962 -0.8883
 1663SOL     OW 5124   2.242   1.111   2.315 -0.2647  0.5631  0.8515
 1663SOL    HW1 5125   2.319   1.160   2.285 -1.0251  0.9802 -0.5450
 1663SOL    HW2 5126   2.235   1.131   2.408  0.5548  1.5718  0.7136
 1664SOL     OW 5127   0.524   2.888   1.131  0.0738  0.1584  0.0203
 1664SOL    HW1 5128   0.598   2.847   1.086  0.0921 -0.3218  0.4916
 1664SOL    HW2 5129   0.448   2.867   1.076  0.1908  0.1128 -0.1246
 1665SOL     OW 5130   2.535   0.418   0.812  0.2194 -0.5238 -0.0236
 1665SOL    HW1 5131   2.601   0.470   0.766 -0.1878  1.3857  1.4196
 1665SOL    HW2 5132   2.457   0.424   0.757 -0.3289  1.9086  0.9016
 1666SOL     OW 5133   3.307   0.385   2.662  0.6907  0.0748 -0.2389
 1666SOL    HW1 5134   3.264   0.470   2.654  2.5543  1.2631  1.3547
 1666SOL    HW2 5135   3.390   0.405   2.705  0.2872 -2.8290  2.1265
 1667SOL     OW 5136   1.333   3.704   1.137 -0.4545  0.2057  0.4119
 1667SOL    HW1 5137   1.385   3.662   1.068 -1.0753 -1.6117  0.9820
 1667SOL    HW2 5138   1.352   3.797   1.128 -0.1568 -0.0086 -1.9084
 1668SOL     OW 5139   3.544   0.678   1.195 -0.2724  0.0014 -0.3842
 1668SOL    HW1 5140   3.513   0.757   1.150 -0.4332 -0.4340 -1.0585
 1668SOL    HW2 5141   3.639   0.683   1.189 -0.2751  0.2206 -0.2841
 1669SOL     OW 5142   0.270   1.324   1.570 -0.6972 -0.4365  0.3291
 1669SOL    HW1 5143   0.360   1.294   1.582 -0.6662 -0.0804  1.0144
 1669SOL    HW2 5144   0.254   1.316   1.475  1.1259  2.4387 -0.3320
 1670SOL     OW 5145   1.684   2.773   2.048 -0.6293  0.2307  0.6324
 1670SOL    HW1 5146   1.723   2.811   2.127  0.0939  0.9479 -0.0510
 1670SOL    HW2 5147   1.741   2.801   1.977 -1.1295 -0.6143 -0.1280
 1671SOL     OW 5148   1.481   1.118   0.186  0.3130 -0.1482  0.0358
 1671SOL    HW1 5149   1.481   1.031   0.146  0.6041 -0.3330  0.4329
 1671SOL    HW2 5150   1.568   1.126   0.225 -0.2499 -0.3199  1.3927
 1672SOL     OW 5151   0.856   0.827   3.337 -0.4605 -0.6599  0.4042
 1672SOL    HW1 5152   0.826   0.892   3.274  2.6906  1.1818  0.5620
 1672SOL    HW2 5153   0.779   0.773   3.355 -2.6733  1.6234 -1.4488
 1673SOL     OW 5154   0.598   0.355   0.340  0.1231 -0.9412 -0.1987
 1673SOL    HW1 5155   0.688   0.326   0.352  0.0577 -1.1965 -0.3331
 1673SOL    HW2 5156   0.552   0.279   0.304 -0.5889 -1.4443  1.6402
 1674SOL     OW 5157   1.141   3.036   0.121 -0.2965 -0.1457  0.4685
 1674SOL    HW1 5158   1.209   3.002   0.179 -1.6249  0.1609  2.3112
 1674SOL    HW2 5159   1.181   3.036   0.034  1.5474 -1.2980  1.2527
 1675SOL     OW 5160   0.008   1.045   1.155 -0.8862  0.3352  0.4153
 1675SOL    HW1 5161   0.029   0.991   1.231  0.3857  0.0256 -0.1203
 1675SOL    HW2 5162   0.092   1.057   1.111 -1.7229 -0.2464 -1.4285
 1676SOL     OW 5163   0.487   3.660   1.687 -0.0790 -0.0948  0.1400
 1676SOL    HW1 5164   0.532   3.701   1.614  1.0106 -3.5552 -1.3496
 1676SOL    HW2 5165   0.395   3.658   1.661  0.0760  0.0494 -0.4369
 1677SOL     OW 5166   1.537   1.635   1.912 -0.2675  0.0329 -0.8784
 1677SOL    HW1 5167   1.602   1.637   1.842  1.6326  2.3179  0.7938
 1677SOL    HW2 5168   1.492   1.719   1.905  1.3844  1.2717  1.7507
 1678SOL     OW 5169   3.401   2.682   0.695 -0.0348  0.4945  0.2999
 1678SOL    HW1 5170   3.406   2.778   0.696  0.1843  0.4993 -0.7609
 1678SOL    HW2 5171   3.349   2.661   0.773 -2.5237  1.6349 -0.9149
 1679SOL     OW 5172   0.588   0.399   0.826  0.3542  0.7176  0.2019
 1679SOL    HW1 5173   0.513   0.386   0.884 -0.4810 -0.6683 -1.0969
 1679SOL    HW2 5174   0.559   0.465   0.763  0.8569  1.4109  0.6834
 1680SOL     OW 5175   1.038   0.907   1.006  0.4286 -0.0016 -0.4140
 1680SOL    HW1 5176   1.076   0.974   0.949  1.2301  2.0234  2.3135
 1680SOL    HW2 5177   0.943   0.918   0.996  0.5548  1.1222 -0.4601
 1681SOL     OW 5178   3.353   1.624   3.650  0.3506  0.1629  0.0928
 1681SOL    HW1 5179   3.330   1.605   3.559  0.5759 -0.4180  0.1521
 1681SOL    HW2 5180   3.305   1.704   3.671 -1.6644 -1.0399  0.2513
 1682SOL     OW 5181   1.413   2.312   0.942 -0.1342  0.0865  0.4627
 1682SOL    HW1 5182   1.322   2.329   0.916 -0.2012 -0.5626  0.2483
 1682SOL    HW2 5183   1.406   2.249   1.014  0.0961  1.1412  1.4259
 1683SOL     OW 5184   1.592   2.493   0.765 -0.5707 -0.2984  0.4066
 1683SOL    HW1 5185   1.561   2.420   0.818 -3.1754 -0.6057 -1.3431
 1683SOL    HW2 5186   1.661   2.533   0.817 -0.0771 -3.0783  2.0904
 1684SOL     OW 5187   2.367   2.243   1.482  0.4362 -1.1604 -0.1666
 1684SOL    HW1 5188   2.341   2.176   1.418 -1.3116  0.4397 -1.2412
 1684SOL    HW2 5189   2.458   2.263   1.460  0.1182 -1.2335 -1.6485
 1685SOL     OW 5190   3.418   1.903   1.883  0.4168  0.6753 -0.3735
 1685SOL    HW1 5191   3.480   1.834   1.906  1.4350  1.8967  0.6854
 1685SOL    HW2 5192   3.341   1.886   1.936  0.3649 -0.0814 -0.6903
 1686SOL     OW 5193   1.983   3.417   3.019 -0.1507  0.0475  0.3518
 1686SOL    HW1 5194   2.036   3.357   2.967  0.6656  1.2376 -0.2252
 1686SOL    HW2 5195   1.897   3.417   2.975  0.4823  0.9336 -0.9339
 1687SOL     OW 5196   2.285   2.208   2.281  0.3899 -0.5255  0.2430
 1687SOL    HW1 5197   2.377   2.183   2.274  0.3544 -0.6919  0.3664
 1687SOL    HW2 5198   2.279   2.257   2.363  0.6455  0.7184 -0.4589
 1688SOL     OW 5199   1.064   0.832   3.099 -0.1976  0.3625  0.2558
 1688SOL    HW1 5200   1.043   0.891   3.027  2.2391  1.2603  0.1857
 1688SOL    HW2 5201   1.003   0.858   3.169 -0.6254  1.4761 -0.4961
 1689SOL     OW 5202   0.039   2.788   0.102  0.3327 -0.4331  0.8073
 1689SOL    HW1 5203   0.026   2.782   0.008  1.8943  2.9024  0.2462
 1689SOL    HW2 5204  -0.048   2.807   0.137  0.2312  1.6571 -0.4254
 1690SOL     OW 5205   2.129   2.807   1.566  0.5897  0.8356  0.0278
 1690SOL    HW1 5206   2.214   2.845   1.544  0.2963  0.0696 -2.9137
 1690SOL    HW2 5207   2.150   2.721   1.602  1.0841  0.8342 -0.2508
 1691SOL     OW 5208   2.631   3.580   2.790 -0.5262 -0.3422 -0.7221
 1691SOL    HW1 5209   2.644   3.588   2.695  0.0289 -0.6725 -0.6819
 1691SOL    HW2 5210   2.719   3.583   2.826 -0.7557  0.0983 -0.1830
 1692SOL     OW 5211   1.328   2.083   3.127 -0.2223  0.1161  0.0434
 1692SOL    HW1 5212   1.308   2.000   3.170 -0.5119 -0.1357 -0.5692
 1692SOL    HW2 5213   1.394   2.124   3.184 -0.4847 -0.2734  0.6430
 1693SOL     OW 5214   2.396   2.944   0.441  1.3434 -0.3313 -0.6247
 1693SOL    HW1 5215   2.346   2.867   0.416  0.6244  0.1311 -0.6409
 1693SOL    HW2 5216   2.469   2.946   0.380  1.0227 -0.6525 -1.0274
 1694SOL     OW 5217   1.129   1.087   0.816  0.4395 -0.3441 -0.1405
 1694SOL    HW1 5218   1.218   1.066   0.786  0.7028  0.1445  0.2710
 1694SOL    HW2 5219   1.088   1.130   0.741 -0.1387 -2.3495 -1.0263
 1695SOL     OW 5220   2.093   3.066   0.469  0.0202 -0.0192 -0.0185
 1695SOL    HW1 5221   2.001   3.068   0.444  0.3764  0.3237 -1.3987
 1695SOL    HW2 5222   2.138   3.117   0.401  1.6208 -2.7672 -1.2405
 1696SOL     OW 5223   1.669   3.422   0.362  0.4867  0.3440 -0.0625
 1696SOL    HW1 5224   1.679   3.509   0.323 -0.2669  0.9945  1.1401
 1696SOL    HW2 5225   1.662   3.363   0.288 -5.6520  1.9597 -1.3207
 1697SOL     OW 5226   1.439   0.408   3.261  0.0418  0.4348 -0.0616
 1697SOL    HW1 5227   1.523   0.421   3.306  0.9293 -0.8364 -1.2796
 1697SOL    HW2 5228   1.379   0.384   3.331  1.3578 -1.3511  0.5412
 1698SOL     OW 5229   1.291   2.430   0.695 -0.3424  0.2877  0.0285
 1698SOL    HW1 5230   1.357   2.390   0.638 -1.0250 -0.7110 -0.0840
 1698SOL    HW2 5231   1.342   2.484   0.755  0.5557 -0.1649 -0.2932
 1699SOL     OW 5232   0.828   3.692   2.266 -0.1329 -0.0677  0.0171
 1699SOL    HW1 5233   0.823   3.625   2.334 -1.1404  1.6499  1.7251
 1699SOL    HW2 5234   0.764   3.758   2.292  1.1145  1.7900 -1.3539
 1700SOL     OW 5235   2.915   3.664   1.168  0.3419 -0.2439 -0.2746
 1700SOL    HW1 5236   2.837   3.659   1.223  0.2151 -0.2540 -0.4521
 1700SOL    HW2 5237   2.971   3.592   1.198  0.6953  0.3220  0.4742
 1701SOL     OW 5238   3.642   0.207   3.319  0.8946 -0.0165 -0.3337
 1701SOL    HW1 5239   3.546   0.196   3.322  0.8308  0.7405  1.0823
 1701SOL    HW2 5240   3.675   0.118   3.306  0.1214 -0.9838  3.1704
 1702SOL     OW 5241   1.538   2.296   1.221  0.1311  0.3811 -0.2234
 1702SOL    HW1 5242   1.448   2.275   1.247  0.4083  0.1183  0.5476
 1702SOL    HW2 5243   1.532   2.385   1.185 -0.7909 -0.3750 -2.1250
 1703SOL     OW 5244   1.020   0.836   2.227  0.0585 -0.6732  0.4367
 1703SOL    HW1 5245   1.057   0.878   2.304  1.7361  0.7063 -1.0568
 1703SOL    HW2 5246   0.933   0.875   2.219  0.6010  0.6033  0.5505
 1704SOL     OW 5247   3.318   1.431   0.366 -0.2323 -0.2623  0.0387
 1704SOL    HW1 5248   3.359   1.509   0.402 -0.2349 -0.2617  0.0401
 1704SOL    HW2 5249   3.312   1.371   0.440 -1.7699  0.3527  0.4607
 1705SOL     OW 5250   0.993   0.024   1.139  0.2347 -0.4772  0.0541
 1705SOL    HW1 5251   0.990   0.118   1.158 -0.1339  0.0420 -2.2873
 1705SOL    HW2 5252   1.022  -0.016   1.221 -0.2782  1.5999  1.3225
 1706SOL     OW 5253   2.666   0.358   2.920 -0.5511 -0.2788  0.4785
 1706SOL    HW1 5254   2.621   0.352   2.836  0.6092 -3.2288 -0.0412
 1706SOL    HW2 5255   2.612   0.419   2.972 -2.1823  0.3496 -1.8130
 1707SOL     OW 5256   2.422   0.193   3.174 -0.5427 -0.0782  0.2138
 1707SOL    HW1 5257   2.396   0.276   3.215  1.2566  0.4943  0.2523
 1707SOL    HW2 5258   2.510   0.176   3.205 -1.4086 -2.8998  1.4960
 1708SOL     OW 5259   1.467   0.875   1.697  0.3292  0.1249 -0.1269
 1708SOL    HW1 5260   1.492   0.842   1.610  1.0757  0.3987 -0.0185
 1708SOL    HW2 5261   1.413   0.951   1.678 -2.6841 -1.9066 -0.4256
 1709SOL     OW 5262   1.238   0.702   0.688  0.0967 -0.0356 -0.4089
 1709SOL    HW1 5263   1.190   0.652   0.753 -1.1620  0.8461 -0.6135
 1709SOL    HW2 5264   1.171   0.733   0.627  0.9587  1.0229 -0.8621
 1710SOL     OW 5265   2.314   0.029   3.458 -0.5097  0.2434 -0.4184
 1710SOL    HW1 5266   2.292   0.114   3.420 -0.3983  0.9962  1.1147
 1710SOL    HW2 5267   2.248  -0.030   3.424 -3.4570  1.8774  1.9088
 1711SOL     OW 5268   0.656   2.704   2.113 -0.4805 -0.4020 -0.0860
 1711SOL    HW1 5269   0.606   2.785   2.124 -2.0025 -1.4841  1.7421
 1711SOL    HW2 5270   0.622   2.647   2.182 -0.0344 -2.8697 -1.7956
 1712SOL     OW 5271   2.407   0.064   0.502  0.8568  0.5517 -0.7490
 1712SOL    HW1 5272   2.464  -0.008   0.532  1.4948  1.4061  0.1817
 1712SOL    HW2 5273   2.464   0.142   0.505  0.1701  1.1126 -1.6958
 1713SOL     OW 5274   2.112   1.983   2.278 -0.6695  0.1462  0.4101
 1713SOL    HW1 5275   2.158   2.065   2.262 -1.3020  0.5396  0.5743
 1713SOL    HW2 5276   2.021   2.009   2.293 -0.6358 -0.4571  1.7962
 1714SOL     OW 5277   0.137   0.277   0.533 -0.0133  0.1291  0.1090
 1714SOL    HW1 5278   0.158   0.214   0.602  0.6587  0.3985  0.1577
 1714SOL    HW2 5279   0.042   0.285   0.535 -0.1275 -1.0267 -0.0159
 1715SOL     OW 5280   3.705   0.378   1.303  0.0384  0.2981 -0.2060
 1715SOL    HW1 5281   3.623   0.344   1.269 -0.5644  0.7711  0.7543
 1715SOL    HW2 5282   3.681   0.428   1.381  1.2173  0.5557  0.0187
 1716SOL     OW 5283   1.076   0.881  -0.011 -0.0045  0.3052  0.3649
 1716SOL    HW1 5284   1.103   0.842   0.072  0.4097  1.4425  0.7828
 1716SOL    HW2 5285   1.030   0.961   0.015 -2.8688 -0.9669 -0.3493
 1717SOL     OW 5286   2.340   1.976   3.520  0.4193  0.7044  0.2718
 1717SOL    HW1 5287   2.432   2.002   3.511  0.4134  0.5686 -0.1797
 1717SOL    HW2 5288   2.329   1.905   3.457 -0.2264  1.3031 -0.3075
 1718SOL     OW 5289   1.048   2.448   1.822  0.3111  0.3218 -0.0630
 1718SOL    HW1 5290   1.021   2.397   1.898  0.9496  1.7097  1.1442
 1718SOL    HW2 5291   1.006   2.404   1.747 -1.3328 -0.3686  1.2016
 1719SOL     OW 5292   3.113   0.049   1.740 -0.3967 -0.2745  0.1450
 1719SOL    HW1 5293   3.127  -0.042   1.712 -1.9895  0.1596 -2.3056
 1719SOL    HW2 5294   3.181   0.099   1.695  1.4929 -0.3147  2.7038
 1720SOL     OW 5295   0.435   0.893   3.407  0.2610  0.4881 -0.2176
 1720SOL    HW1 5296   0.378   0.913   3.481  0.0952  0.1061 -0.2409
 1720SOL    HW2 5297   0.471   0.978   3.381  0.0876  0.6633  0.1107
 1721SOL     OW 5298   2.369   1.023   1.778 -0.6184 -0.0219 -0.0649
 1721SOL    HW1 5299   2.459   0.991   1.771 -0.0685  1.0550  1.6033
 1721SOL    HW2 5300   2.319   0.948   1.810 -0.3049 -0.5744 -0.8355
 1722SOL     OW 5301   1.427   1.677   2.459  0.2998  0.1196  0.3810
 1722SOL    HW1 5302   1.403   1.770   2.459 -1.7261 -0.3527  0.7269
 1722SOL    HW2 5303   1.487   1.668   2.533  0.0067  1.0463  0.7444
 1723SOL     OW 5304   0.406   0.740   2.458 -0.3302 -0.1163 -0.6142
 1723SOL    HW1 5305   0.311   0.729   2.449 -0.7661  2.0619  0.6122
 1723SOL    HW2 5306   0.424   0.823   2.414  0.7575  0.2150  0.4158
 1724SOL     OW 5307   3.644   1.688   3.135  0.0971 -0.0635 -0.1383
 1724SOL    HW1 5308   3.737   1.711   3.137 -0.6368  3.3701  0.0725
 1724SOL    HW2 5309   3.631   1.632   3.211  1.5756  1.5340  1.3682
 1725SOL     OW 5310   2.563   1.239   3.384  0.3807  0.1171 -0.8719
 1725SOL    HW1 5311   2.498   1.309   3.371 -1.1513 -0.8576  0.9547
 1725SOL    HW2 5312   2.527   1.163   3.338  1.0082 -0.0333 -1.1267
 1726SOL     OW 5313   0.560   3.365   1.737  0.3863  0.0959  0.3481
 1726SOL    HW1 5314   0.517   3.336   1.657  2.0706 -1.0457 -0.2147
 1726SOL    HW2 5315   0.570   3.459   1.726 -0.3310  0.1030 -0.3113
 1727SOL     OW 5316   3.064   2.068   1.913  1.3859 -0.1277  0.2126
 1727SOL    HW1 5317   3.057   1.975   1.892  0.5321 -0.4634  1.8208
 1727SOL    HW2 5318   3.056   2.072   2.008 -2.7649  1.8774 -0.0014
 1728SOL     OW 5319   0.242   2.503   3.620 -0.0021 -0.1814 -0.0707
 1728SOL    HW1 5320   0.196   2.517   3.537 -1.3823  0.0675  0.7068
 1728SOL    HW2 5321   0.181   2.535   3.687  0.9579 -0.6548  1.0683
 1729SOL     OW 5322   1.427   2.137   0.233  0.0925  0.6784  0.3473
 1729SOL    HW1 5323   1.438   2.097   0.147  0.0470 -1.4785  1.2745
 1729SOL    HW2 5324   1.512   2.129   0.275  0.2683  2.2164  0.3342
 1730SOL     OW 5325   3.067   2.277   1.742  0.2872  0.0343 -0.0456
 1730SOL    HW1 5326   3.085   2.201   1.799  0.9217  1.4678  1.7699
 1730SOL    HW2 5327   3.135   2.272   1.675 -0.2600 -1.5149 -0.5406
 1731SOL     OW 5328   2.970   1.114   0.014  0.0470  0.0934 -0.1296
 1731SOL    HW1 5329   2.941   1.186   0.069 -0.0916 -0.9077  1.1702
 1731SOL    HW2 5330   2.891   1.087  -0.034  0.2166  1.1052 -1.0226
 1732SOL     OW 5331   0.405   1.875   1.222  0.2913 -0.0730  0.0240
 1732SOL    HW1 5332   0.343   1.803   1.213 -0.4802  0.4735  0.8201
 1732SOL    HW2 5333   0.468   1.862   1.151 -1.5453  0.1878 -1.7145
 1733SOL     OW 5334   3.190   0.413   0.623 -0.0560  0.1578  0.1004
 1733SOL    HW1 5335   3.245   0.481   0.663  0.6912 -0.7369  0.6306
 1733SOL    HW2 5336   3.251   0.362   0.569 -1.0636  1.4869 -2.4795
 1734SOL     OW 5337   2.011   1.148   0.440  0.0723 -0.1691 -0.1728
 1734SOL    HW1 5338   2.062   1.206   0.496 -1.0556  1.1372 -0.4371
 1734SOL    HW2 5339   1.937   1.121   0.495  0.3656 -1.0381 -0.1897
 1735SOL     OW 5340   2.386   3.511   0.766 -0.3040  0.1618 -0.8180
 1735SOL    HW1 5341   2.438   3.586   0.739  0.3628 -0.7647 -2.2148
 1735SOL    HW2 5342   2.328   3.493   0.692 -1.4034  0.0966  0.0173
 1736SOL     OW 5343   1.867   0.698   2.175 -0.6326  0.3950 -0.1343
 1736SOL    HW1 5344   1.896   0.738   2.093 -1.9071  0.3032 -0.6623
 1736SOL    HW2 5345   1.786   0.745   2.197 -1.1835 -0.6793  0.1862
 1737SOL     OW 5346   1.660   0.130   1.052 -0.1405  0.1074  0.8233
 1737SOL    HW1 5347   1.679   0.168   1.138  0.5895  3.8104 -0.7618
 1737SOL    HW2 5348   1.605   0.196   1.009 -0.1053 -1.4085 -1.7228
 1738SOL     OW 5349   2.502   0.385   0.358  0.7034 -0.1977 -0.0182
 1738SOL    HW1 5350   2.541   0.327   0.424 -1.3334  0.1327  1.5814
 1738SOL    HW2 5351   2.466   0.458   0.408 -2.2760 -0.6545 -1.2392
 1739SOL     OW 5352   1.849   1.397   3.705  0.8897 -0.2516  0.3294
 1739SOL    HW1 5353   1.799   1.441   3.636  0.3851 -2.3462 -0.7096
 1739SOL    HW2 5354   1.804   1.422   3.786 -0.2889 -0.0401 -0.3643
 1740SOL     OW 5355   0.595   2.818   0.033 -0.1491 -0.1860 -0.1748
 1740SOL    HW1 5356   0.607   2.738  -0.019 -0.4712  0.7195 -1.7114
 1740SOL    HW2 5357   0.500   2.826   0.042 -0.0912 -0.3995  0.6858
 1741SOL     OW 5358   1.802   1.818   0.995  0.3166 -0.0365  0.4271
 1741SOL    HW1 5359   1.874   1.873   1.025  1.1543 -0.2780 -1.0318
 1741SOL    HW2 5360   1.767   1.864   0.919  0.1185 -0.8086  0.0364
 1742SOL     OW 5361   1.543   0.443   2.279 -0.7066 -0.1813  0.0053
 1742SOL    HW1 5362   1.470   0.480   2.229  0.1475  1.0873 -0.3449
 1742SOL    HW2 5363   1.513   0.443   2.370 -1.3774 -0.2917 -0.2123
 1743SOL     OW 5364   2.270   0.695   2.480 -0.6678  0.7799 -0.2673
 1743SOL    HW1 5365   2.312   0.611   2.498  0.2868  1.3691  0.3132
 1743SOL    HW2 5366   2.322   0.733   2.409 -1.6472  0.4981 -1.1616
 1744SOL     OW 5367   3.444   0.954   3.273 -0.3734 -0.3505 -0.4907
 1744SOL    HW1 5368   3.372   0.896   3.249 -1.9193 -0.2375  3.1961
 1744SOL    HW2 5369   3.406   1.014   3.338  2.3232  1.7873 -0.6758
 1745SOL     OW 5370   1.532   3.203   1.613  0.6585  0.6144 -0.4062
 1745SOL    HW1 5371   1.572   3.231   1.695  1.7568 -1.6324 -0.1079
 1745SOL    HW2 5372   1.568   3.263   1.547  2.6339  0.2246  0.2439
 1746SOL     OW 5373   0.940   2.314   0.425  0.0565  0.5081 -0.0874
 1746SOL    HW1 5374   1.003   2.259   0.379 -0.2827 -0.2398  0.3176
 1746SOL    HW2 5375   0.945   2.285   0.516 -0.4050  0.8906  0.0646
 1747SOL     OW 5376   0.376   1.602   0.454  0.5527 -0.4410 -0.1720
 1747SOL    HW1 5377   0.300   1.603   0.396  0.9713 -2.5389 -0.8152
 1747SOL    HW2 5378   0.444   1.648   0.406 -0.6698  3.1384  1.1292
 1748SOL     OW 5379   3.350   2.152   0.327  0.0527  0.2169  0.6724
 1748SOL    HW1 5380   3.356   2.060   0.353  0.8211  0.3177  0.8783
 1748SOL    HW2 5381   3.300   2.193   0.398  0.2356  0.0744  0.8845
 1749SOL     OW 5382   2.595   1.436   1.411  0.0534 -0.8419 -0.0998
 1749SOL    HW1 5383   2.545   1.365   1.451  1.4922 -0.7389  1.9965
 1749SOL    HW2 5384   2.570   1.514   1.460 -1.2759  0.1542 -2.1777
 1750SOL     OW 5385   2.721   1.820   0.024  0.0135  0.3975  0.2286
 1750SOL    HW1 5386   2.801   1.774  -0.003 -0.7500 -0.8178 -0.0131
 1750SOL    HW2 5387   2.743   1.858   0.109  2.7030  4.8209 -2.0636
 1751SOL     OW 5388   1.370   3.439   0.818 -0.4440  0.2283  0.0862
 1751SOL    HW1 5389   1.415   3.465   0.738  0.0896 -1.9733 -0.4079
 1751SOL    HW2 5390   1.410   3.493   0.886  1.9071 -0.5106 -0.5800
 1752SOL     OW 5391   2.149   2.246   0.014 -0.7244 -0.2394 -0.7074
 1752SOL    HW1 5392   2.223   2.278  -0.036  0.7753 -0.6433  1.1273
 1752SOL    HW2 5393   2.173   2.157   0.041 -0.5914  0.5615  2.1744
 1753SOL     OW 5394   1.758   0.104   2.996  0.1403  0.2419 -0.0378
 1753SOL    HW1 5395   1.852   0.091   3.011 -0.4931 -0.8485  4.7080
 1753SOL    HW2 5396   1.739   0.189   3.037 -0.9613  0.5917 -1.2113
 1754SOL     OW 5397   1.675   2.799   0.382 -0.5509 -0.5062  0.3629
 1754SOL    HW1 5398   1.632   2.728   0.333 -1.9433  1.0318 -0.7462
 1754SOL    HW2 5399   1.610   2.824   0.448 -0.2502  0.0418  0.4490
 1755SOL     OW 5400   1.129   2.648   0.590  0.5844  0.3333  0.1329
 1755SOL    HW1 5401   1.195   2.712   0.617 -0.2242  0.2631  2.5208
 1755SOL    HW2 5402   1.163   2.564   0.621 -0.5517  0.2903  1.3309
 1756SOL     OW 5403   2.299   0.354   0.629  0.2143  0.1364  0.2402
 1756SOL    HW1 5404   2.227   0.295   0.649  0.1270  0.3665  0.6181
 1756SOL    HW2 5405   2.270   0.404   0.553  0.3749 -0.4536 -0.2095
 1757SOL     OW 5406   0.069   3.181   3.615  0.3971 -0.0551 -0.1939
 1757SOL    HW1 5407   0.064   3.102   3.562 -1.5568  0.6916 -1.2323
 1757SOL    HW2 5408   0.053   3.151   3.705  2.4950 -1.1674 -0.1510
 1758SOL     OW 5409   2.227   1.544   1.562  0.0180  0.2047 -0.6318
 1758SOL    HW1 5410   2.277   1.486   1.619  0.6510  0.2679 -1.1161
 1758SOL    HW2 5411   2.194   1.613   1.620  1.9498  1.1411 -0.5799
 1759SOL     OW 5412   1.840   3.681   1.405 -0.1888 -0.5838  0.5112
 1759SOL    HW1 5413   1.882   3.631   1.335 -1.1267 -1.2179  0.3799
 1759SOL    HW2 5414   1.900   3.753   1.422 -0.6290  0.4660 -1.9756
 1760SOL     OW 5415   2.666   0.042   3.201 -0.5212 -0.8004  0.3704
 1760SOL    HW1 5416   2.669  -0.054   3.198  0.7902 -0.8982  2.6186
 1760SOL    HW2 5417   2.670   0.064   3.294  0.3531  1.4503 -0.1179
 1761SOL     OW 5418   1.840   2.221   1.390 -0.0004 -0.0681  0.0725
 1761SOL    HW1 5419   1.816   2.168   1.466 -1.3029  1.2533  0.6321
 1761SOL    HW2 5420   1.775   2.291   1.388 -0.7082 -0.6707 -2.9607
 1762SOL     OW 5421   3.736   3.115   0.493 -0.2196 -0.2444  0.4397
 1762SOL    HW1 5422   3.736   3.062   0.413  0.2009 -0.9533  0.8980
 1762SOL    HW2 5423   3.711   3.054   0.562 -2.5659  0.7999  0.5980
 1763SOL     OW 5424   0.480   0.495   2.534  0.3854  0.4982 -0.0338
 1763SOL    HW1 5425   0.474   0.589   2.518 -1.0989  0.2439 -1.2700
 1763SOL    HW2 5426   0.488   0.456   2.447 -0.1118 -0.5672  0.3746
 1764SOL     OW 5427   2.374   1.628   3.009  0.5375 -0.3623 -0.0704
 1764SOL    HW1 5428   2.343   1.651   3.097  2.1413 -1.2328  0.7788
 1764SOL    HW2 5429   2.443   1.691   2.990  0.6880 -0.6151 -0.3866
 1765SOL     OW 5430   1.668   0.680   0.405  0.4765 -0.1499 -0.5309
 1765SOL    HW1 5431   1.591   0.642   0.448 -0.5664  2.0771 -0.3159
 1765SOL    HW2 5432   1.743   0.638   0.448 -0.5945 -0.8348  0.7252
 1766SOL     OW 5433   0.243   1.496   1.910  0.4767 -0.6687  0.1080
 1766SOL    HW1 5434   0.151   1.493   1.882  0.0759 -0.4024  1.3319
 1766SOL    HW2 5435   0.246   1.564   1.977  1.6718 -0.3519 -0.2379
 1767NA      NA 5436   0.916   3.098   0.107 -0.0470  0.4505 -0.0230
 1768NA      NA 5437   0.823   3.724   0.967  0.2602 -0.5975  0.0299
 1769NA      NA 5438   0.939   0.246   0.124 -0.1896 -0.1220  0.5041
   3.72950   3.72950   3.72950
