Protein in water
 5429
    0TYR      N    1   1.292   2.453   0.666 -0.0317 -0.3839 -0.1263
    0TYR     H1    2   1.259   2.540   0.713 -0.3192 -0.5174 -0.0762
    0TYR     H2    3   1.294   2.374   0.733 -0.0989  0.6527  1.1429
    0TYR     H3    4   1.236   2.431   0.581 -2.0347 -2.4405  1.6133
    0TYR     CA    5   1.428   2.476   0.621 -0.0511 -0.5280  0.3112
    0TYR     HA    6   1.471   2.380   0.597  0.1801 -1.1165  2.7610
    0TYR     CB    7   1.425   2.570   0.494  0.5044  0.1427 -0.3796
    0TYR    HB1    8   1.419   2.680   0.512 -2.1360  0.4530 -2.5547
    0TYR    HB2    9   1.337   2.541   0.433 -1.3758  2.1025  1.2104
    0TYR     CG   10   1.548   2.542   0.400  0.6839  0.3828  0.1651
    0TYR    CD1   11   1.628   2.643   0.350 -0.0481  0.0663  0.0261
    0TYR    HD1   12   1.606   2.745   0.377  0.6942 -0.2223  1.8260
    0TYR    CE1   13   1.740   2.613   0.264  0.0469  0.0286 -0.0143
    0TYR    HE1   14   1.806   2.691   0.230  3.1421 -2.4490 -0.1658
    0TYR     CZ   15   1.769   2.483   0.227 -0.0793 -0.5622  0.5665
    0TYR     OH   16   1.872   2.460   0.136  0.2964 -0.9633 -0.4477
    0TYR     HH   17   1.920   2.541   0.119 -1.2641  0.3949  1.1890
    0TYR    CD2   18   1.576   2.411   0.365 -0.2071  0.3354  0.9068
    0TYR    HD2   19   1.514   2.328   0.396 -1.1102 -0.1189 -1.8690
    0TYR    CE2   20   1.688   2.376   0.285 -0.0910 -0.1897 -0.4734
    0TYR    HE2   21   1.703   2.273   0.256 -1.3498 -0.1653 -1.2790
    0TYR      C   22   1.511   2.537   0.735 -0.2354  0.4361 -1.1279
    0TYR      O   23   1.467   2.539   0.851 -0.2554  0.0994 -0.3320
    1TYR      N   24   1.634   2.591   0.717  0.4866  0.0535  0.1262
    1TYR     HN   25   1.676   2.597   0.627 -1.3203  1.1210 -0.7035
    1TYR     CA   26   1.717   2.634   0.823  0.8908 -0.4448  0.1390
    1TYR     HA   27   1.679   2.603   0.919 -0.7149 -4.0363 -1.4509
    1TYR     CB   28   1.873   2.579   0.810  0.2574 -0.9129 -0.1485
    1TYR    HB1   29   1.867   2.470   0.789 -0.0301 -0.6820 -1.3648
    1TYR    HB2   30   1.937   2.577   0.900  0.0759 -5.0568  0.0787
    1TYR     CG   31   1.940   2.630   0.682 -0.5708  0.1374  0.0390
    1TYR    CD1   32   1.948   2.554   0.558 -0.0643 -0.0713  1.0007
    1TYR    HD1   33   1.900   2.457   0.556 -0.7574  0.2627 -1.7842
    1TYR    CE1   34   2.017   2.613   0.451 -0.1917  0.0147 -0.2170
    1TYR    HE1   35   2.014   2.564   0.355 -0.7919 -0.5083  0.0589
    1TYR     CZ   36   2.086   2.730   0.465 -0.8219  0.6438  0.3706
    1TYR     OH   37   2.148   2.809   0.358  0.2854  0.2167 -0.1457
    1TYR     HH   38   2.212   2.871   0.395  0.0742  1.8593 -2.3676
    1TYR    CD2   39   2.010   2.749   0.692 -0.0734  0.3131 -0.0815
    1TYR    HD2   40   2.008   2.796   0.789  2.4313  0.5134 -0.0568
    1TYR    CE2   41   2.082   2.803   0.586 -0.5782  0.3903 -0.0696
    1TYR    HE2   42   2.125   2.900   0.600 -1.4752  0.6509  1.0249
    1TYR      C   43   1.703   2.787   0.837  0.0500  0.3166 -0.5043
    1TYR      O   44   1.680   2.856   0.738  0.0174 -0.3951 -0.0523
    2ASP      N   45   1.720   2.852   0.956 -0.2133 -0.2825  0.4066
    2ASP     HN   46   1.728   2.809   1.045 -0.1094  0.9280  1.0108
    2ASP     CA   47   1.711   2.992   0.966  0.7788  0.0254 -0.3924
    2ASP     HA   48   1.610   3.020   0.938  0.4334  0.0683  0.8273
    2ASP     CB   49   1.724   3.016   1.123 -0.3864 -0.6806  0.6691
    2ASP    HB1   50   1.824   2.990   1.164  0.8824  1.0021 -1.1613
    2ASP    HB2   51   1.649   2.955   1.177 -0.2329 -0.1254  1.5274
    2ASP     CG   52   1.688   3.160   1.160  0.7765  0.3870 -0.5970
    2ASP    OD1   53   1.754   3.253   1.112 -0.4548  0.3090 -0.4264
    2ASP    OD2   54   1.587   3.178   1.233 -0.8480  0.2818  0.1964
    2ASP      C   55   1.810   3.073   0.885 -0.1041 -0.4607  0.0066
    2ASP      O   56   1.927   3.041   0.895 -0.6015  0.2055 -0.0833
    3PRO      N   57   1.779   3.167   0.802 -0.2201 -0.3246 -0.1008
    3PRO     CD   58   1.647   3.199   0.744 -0.3319  0.6435  0.3160
    3PRO    HD1   59   1.582   3.112   0.720 -1.5988  1.2912  1.2568
    3PRO    HD2   60   1.583   3.269   0.802  0.8783  0.9112  1.3750
    3PRO     CA   61   1.881   3.246   0.738 -0.2775 -0.8921  0.5145
    3PRO     HA   62   1.946   3.183   0.680  1.0926  2.0046 -1.3195
    3PRO     CB   63   1.797   3.340   0.642  0.4145  0.7284  0.1762
    3PRO    HB1   64   1.842   3.363   0.543  0.1629 -1.2084 -0.4515
    3PRO    HB2   65   1.771   3.433   0.697  0.2102 -0.1337  1.5791
    3PRO     CG   66   1.667   3.262   0.608  0.3174  1.0232 -0.0529
    3PRO    HG1   67   1.700   3.194   0.527 -0.7161 -0.4689  0.7125
    3PRO    HG2   68   1.574   3.320   0.593 -1.0805 -0.9749  0.5099
    3PRO      C   69   1.985   3.319   0.829 -0.2768 -0.3263 -0.5022
    3PRO      O   70   2.094   3.342   0.776  0.5299  0.1829 -0.1781
    4GLU      N   71   1.956   3.343   0.956  0.2534  0.6425 -0.0627
    4GLU     HN   72   1.884   3.300   1.012  0.6124  2.6650  2.1261
    4GLU     CA   73   2.051   3.422   1.038 -0.1673 -0.4320 -0.0011
    4GLU     HA   74   2.117   3.484   0.980 -2.6920  1.7173 -0.7727
    4GLU     CB   75   1.970   3.520   1.117  0.6330 -0.5530 -0.9024
    4GLU    HB1   76   1.887   3.465   1.165  1.5807 -0.4927  0.9219
    4GLU    HB2   77   1.929   3.584   1.036 -1.7893 -1.4071 -0.4209
    4GLU     CG   78   2.062   3.593   1.218  0.7663 -0.1279  0.0927
    4GLU    HG1   79   2.148   3.644   1.169  0.2653 -1.5018 -2.3826
    4GLU    HG2   80   2.101   3.529   1.299  0.5595 -1.5121 -0.8666
    4GLU     CD   81   1.972   3.699   1.282  0.2575 -0.2576  0.1105
    4GLU    OE1   82   1.871   3.672   1.358 -0.1369  0.4982  0.9217
    4GLU    OE2   83   1.997   3.823   1.256 -0.1171 -0.2709  0.3481
    4GLU      C   84   2.133   3.325   1.133  0.3990  0.2460  0.4151
    4GLU      O   85   2.252   3.337   1.139  0.0437  0.1479 -0.4419
    5THR      N   86   2.067   3.231   1.202  0.5712  0.1347  0.2572
    5THR     HN   87   1.969   3.240   1.217  0.9812  0.4676  3.6349
    5THR     CA   88   2.138   3.146   1.300 -0.2554 -0.2778 -0.1299
    5THR     HA   89   2.237   3.184   1.323 -0.5497  0.2583  0.2897
    5THR     CB   90   2.058   3.142   1.422 -0.0806 -0.2585 -0.1835
    5THR     HB   91   2.087   3.056   1.486 -1.1460  0.3243  1.1235
    5THR    OG1   92   1.921   3.125   1.397 -0.4285  0.0672  0.2162
    5THR    HG1   93   1.905   3.037   1.432  2.2466 -0.7164 -0.2827
    5THR    CG2   94   2.073   3.277   1.486  0.5192  0.6888 -0.0282
    5THR   HG21   95   2.180   3.306   1.494  0.8672 -0.9348  2.5012
    5THR   HG22   96   2.037   3.275   1.591  1.0042  1.9010  0.1734
    5THR   HG23   97   2.008   3.354   1.440 -2.7094 -2.4156 -1.1762
    5THR      C   98   2.156   3.007   1.259 -0.8729  0.6825 -0.0196
    5THR      O   99   2.229   2.935   1.326 -0.9362  0.4976 -0.4979
    6GLY      N  100   2.088   2.966   1.149  0.7132 -0.0684  0.5111
    6GLY     HN  101   2.021   3.022   1.101 -0.2336  0.1516  2.0098
    6GLY     CA  102   2.115   2.834   1.089 -1.1867  0.6237 -0.0783
    6GLY    HA1  103   2.220   2.809   1.086 -1.7795 -2.1914  0.0040
    6GLY    HA2  104   2.082   2.842   0.986 -1.5564 -2.6454 -0.3190
    6GLY      C  105   2.045   2.713   1.147 -0.5589 -0.0065  0.4196
    6GLY      O  106   2.064   2.594   1.108 -0.2984 -0.0667 -0.2303
    7ASP      N  107   1.958   2.731   1.249 -0.1329 -0.3069  0.0233
    7ASP     HN  108   1.930   2.818   1.290  0.5442 -0.4988  0.9438
    7ASP     CA  109   1.882   2.624   1.315 -0.4827  0.0033  0.4563
    7ASP     HA  110   1.940   2.534   1.300  2.2527  1.3819  1.8172
    7ASP     CB  111   1.856   2.636   1.465  0.0172 -0.5600  0.9557
    7ASP    HB1  112   1.750   2.659   1.489  0.7729  3.5452  1.1088
    7ASP    HB2  113   1.877   2.539   1.515 -2.0963 -1.5805 -0.0141
    7ASP     CG  114   1.924   2.753   1.530 -0.4045 -0.2027  0.2539
    7ASP    OD1  115   2.007   2.745   1.626 -0.4396  0.1844  0.2586
    7ASP    OD2  116   1.902   2.869   1.489 -0.1961  0.1717 -0.0677
    7ASP      C  117   1.764   2.581   1.232 -0.0628  0.5264 -0.0402
    7ASP      O  118   1.715   2.654   1.148 -0.2551  0.5123  0.2323
    8TRP      N  119   1.718   2.453   1.233 -0.5786 -0.1278 -0.3794
    8TRP     HN  120   1.772   2.392   1.291  0.9970  1.1894 -0.3929
    8TRP     CA  121   1.626   2.396   1.142 -0.1841  0.1126  0.0572
    8TRP     HA  122   1.628   2.451   1.049 -0.0290  0.2261  0.1277
    8TRP     CB  123   1.657   2.249   1.113 -0.1770  0.1688  0.4487
    8TRP    HB1  124   1.577   2.197   1.056  1.0982 -2.4926  0.8997
    8TRP    HB2  125   1.656   2.192   1.208  0.5028  3.8631  2.8462
    8TRP     CG  126   1.781   2.229   1.019 -0.0447  0.5854  0.0886
    8TRP    CD1  127   1.912   2.216   1.072 -0.6943 -0.0816  0.5239
    8TRP    HD1  128   1.935   2.213   1.178 -3.5292 -1.0685  1.1905
    8TRP    NE1  129   2.006   2.215   0.970  0.0617 -0.6485 -0.3671
    8TRP    HE1  130   2.099   2.244   0.959 -0.9552  1.9608 -4.0757
    8TRP    CE2  131   1.934   2.217   0.847  0.5753 -0.2702 -0.2713
    8TRP    CD2  132   1.795   2.217   0.880 -0.6880  0.3860  0.4163
    8TRP    CE3  133   1.697   2.202   0.783  0.0596 -0.3465 -0.4392
    8TRP    HE3  134   1.597   2.199   0.825  0.1998  1.0146  0.0668
    8TRP    CZ3  135   1.734   2.203   0.646 -0.8953 -0.5285  0.1794
    8TRP    HZ3  136   1.666   2.210   0.563 -1.6048  0.8582  0.8445
    8TRP    CZ2  137   1.974   2.203   0.716  0.1026  0.0947  0.2815
    8TRP    HZ2  138   2.077   2.198   0.683 -0.2985  1.8728 -1.4281
    8TRP    CH2  139   1.874   2.202   0.613 -0.3462  0.3294  0.1980
    8TRP    HH2  140   1.903   2.193   0.509  2.6694  0.0847  0.9548
    8TRP      C  141   1.482   2.396   1.197 -0.2151 -0.2029 -0.0321
    8TRP      O  142   1.449   2.338   1.301  0.1089  0.5010  0.0767
    9TYR      N  143   1.392   2.469   1.127  0.1534  0.2264  0.1256
    9TYR     HN  144   1.420   2.504   1.038  1.8283  0.3436  0.6639
    9TYR     CA  145   1.254   2.492   1.163 -0.2239 -0.6488  0.0320
    9TYR     HA  146   1.231   2.453   1.261 -2.5108 -0.9543 -0.5759
    9TYR     CB  147   1.232   2.647   1.168  0.0725  0.2121  0.2084
    9TYR    HB1  148   1.123   2.666   1.168  0.2384  1.3174  1.2846
    9TYR    HB2  149   1.289   2.686   1.081  2.4019 -0.0597  1.5154
    9TYR     CG  150   1.296   2.712   1.289  0.4949  0.1430 -0.6476
    9TYR    CD1  151   1.252   2.684   1.418 -0.6827  0.1038 -0.0923
    9TYR    HD1  152   1.168   2.619   1.435  1.4494 -2.3264  2.3106
    9TYR    CE1  153   1.309   2.751   1.524  0.1647 -0.2743 -0.2605
    9TYR    HE1  154   1.266   2.732   1.621  1.6170  0.0063  0.4675
    9TYR     CZ  155   1.405   2.846   1.511 -0.0629  0.1407  0.2662
    9TYR     OH  156   1.452   2.903   1.629 -0.2435 -0.2897  0.3625
    9TYR     HH  157   1.538   2.942   1.612 -1.0800  0.7210 -1.7580
    9TYR    CD2  158   1.404   2.805   1.271  0.6557  0.2007  0.2105
    9TYR    HD2  159   1.432   2.825   1.168  0.4746 -0.5907  0.0024
    9TYR    CE2  160   1.451   2.872   1.381 -0.2166 -0.9344 -0.1241
    9TYR    HE2  161   1.518   2.952   1.353 -0.8568 -1.0173 -1.9784
    9TYR      C  162   1.153   2.426   1.067  0.3050 -0.3785  0.2808
    9TYR    OT1  163   1.174   2.429   0.939  0.4047  0.1399  0.2346
    9TYR    OT2  164   1.059   2.358   1.110  0.1705  0.4150 -0.2228
   10SOL     OW  165   0.094   2.798   2.734 -0.2385 -0.1650 -0.1151
   10SOL    HW1  166   0.133   2.756   2.811  3.1838  1.4429 -0.7994
   10SOL    HW2  167   0.062   2.724   2.681 -1.6331 -1.3567  2.2040
   11SOL     OW  168   0.923   3.374   2.660  0.6429  0.8671  0.1051
   11SOL    HW1  169   0.992   3.412   2.713  0.4447  1.2984  0.0587
   11SOL    HW2  170   0.842   3.403   2.701  0.3598 -2.3455  2.2225
   12SOL     OW  171   1.619   1.381   0.754  0.7075  0.4856  0.2238
   12SOL    HW1  172   1.622   1.424   0.669 -0.5927  1.0944  0.4501
   12SOL    HW2  173   1.636   1.289   0.735  1.7072  0.8077 -0.5093
   13SOL     OW  174   1.214   1.224   3.336 -0.1387  0.7015 -0.1851
   13SOL    HW1  175   1.173   1.275   3.266  0.3526 -0.0694 -1.0562
   13SOL    HW2  176   1.234   1.140   3.296  1.0726  0.5889  0.6100
   14SOL     OW  177   1.224   1.658   2.667  0.0794 -0.1745  0.0826
   14SOL    HW1  178   1.190   1.571   2.691 -2.1421  0.1615 -1.5176
   14SOL    HW2  179   1.301   1.640   2.613  0.2893 -1.0999  0.6619
   15SOL     OW  180   2.965   0.056   1.184 -0.0823  0.0263 -0.3868
   15SOL    HW1  181   2.954  -0.028   1.139  1.1989  0.1797 -1.0387
   15SOL    HW2  182   2.976   0.033   1.276  1.1888 -0.6294 -0.6676
   16SOL     OW  183   3.703   0.458   3.054  0.1197 -0.1579 -0.4859
   16SOL    HW1  184   3.722   0.525   2.988 -2.9295  0.3486 -0.9806
   16SOL    HW2  185   3.704   0.376   3.006 -1.3163  0.1266 -1.0259
   17SOL     OW  186   3.429   1.301   3.626 -0.8288  0.0255  0.4374
   17SOL    HW1  187   3.515   1.332   3.598 -1.5404  0.5586 -1.3036
   17SOL    HW2  188   3.424   1.211   3.595 -0.8879 -0.0150  0.5636
   18SOL     OW  189   1.039   0.300   3.619  0.0354 -0.0520  0.3413
   18SOL    HW1  190   1.090   0.291   3.538 -0.2789 -1.9369  0.3066
   18SOL    HW2  191   1.048   0.393   3.643  3.0195 -0.1656  0.0344
   19SOL     OW  192   0.884   3.193   0.516  0.4232 -0.0813 -0.7853
   19SOL    HW1  193   0.965   3.241   0.495  0.9834 -0.1972  0.9578
   19SOL    HW2  194   0.913   3.104   0.535 -0.2807 -0.4307 -1.2935
   20SOL     OW  195   1.112   3.494   0.037 -0.0791  0.1169  0.6583
   20SOL    HW1  196   1.093   3.551   0.112 -2.0270 -0.8645  0.9918
   20SOL    HW2  197   1.060   3.530  -0.034  1.6870  0.9826 -0.2423
   21SOL     OW  198   2.193   1.046   1.376 -1.1600 -0.0953 -1.0773
   21SOL    HW1  199   2.261   1.021   1.439 -0.8182  1.0827 -0.9499
   21SOL    HW2  200   2.161   1.130   1.408  0.1290  1.3357 -3.2894
   22SOL     OW  201   1.041   1.962   0.559 -0.1357 -0.1844  0.1572
   22SOL    HW1  202   1.097   1.989   0.632 -1.4771  1.2370  0.7273
   22SOL    HW2  203   1.087   1.992   0.481  0.9130 -0.9691  0.4507
   23SOL     OW  204   0.858   2.756   0.117 -0.1371 -0.6051 -0.6091
   23SOL    HW1  205   0.883   2.845   0.092 -0.5888 -0.7239 -1.4881
   23SOL    HW2  206   0.857   2.707   0.035  2.2157 -1.9732  0.0574
   24SOL     OW  207   0.626   0.857   1.314 -0.0754  0.1313  0.1086
   24SOL    HW1  208   0.629   0.762   1.326  0.5850  0.2778  1.2265
   24SOL    HW2  209   0.688   0.892   1.378 -1.1243  1.3799  0.4994
   25SOL     OW  210   0.973   0.561   3.435 -0.6725 -0.4126 -0.2832
   25SOL    HW1  211   0.972   0.555   3.340 -2.0043 -1.1331 -0.2503
   25SOL    HW2  212   0.894   0.515   3.463  0.2750 -1.2303  1.2332
   26SOL     OW  213   1.633   1.351   1.731  0.1509 -0.1312 -0.0206
   26SOL    HW1  214   1.592   1.407   1.665  2.9355 -0.5275 -2.2739
   26SOL    HW2  215   1.609   1.262   1.705  0.9851 -0.2686 -0.3684
   27SOL     OW  216   1.029   3.112   3.451 -0.1397  0.1417 -0.4060
   27SOL    HW1  217   1.050   3.143   3.539 -1.9854  0.7394 -0.1139
   27SOL    HW2  218   0.995   3.190   3.406  1.1627 -0.0560 -1.8066
   28SOL     OW  219   3.333   2.027   3.288  0.2097 -0.0890  0.0275
   28SOL    HW1  220   3.320   2.005   3.196 -3.4413  2.2946 -0.2440
   28SOL    HW2  221   3.252   1.999   3.331  1.2476  0.1198  2.2893
   29SOL     OW  222   0.449   2.554   3.595  0.4355 -0.4844 -0.0513
   29SOL    HW1  223   0.459   2.459   3.594  1.1082 -0.4859  1.8758
   29SOL    HW2  224   0.484   2.581   3.681 -0.7888  1.3741 -0.0701
   30SOL     OW  225   1.878   0.198   3.211  0.1134 -0.3404  0.6606
   30SOL    HW1  226   1.908   0.182   3.300 -2.0681 -1.1532  1.3088
   30SOL    HW2  227   1.938   0.265   3.177  0.4151  0.6909  3.0579
   31SOL     OW  228   1.024   0.029   1.497 -0.5218 -0.3590 -0.8047
   31SOL    HW1  229   1.005  -0.002   1.409 -0.2859  1.2217 -1.4643
   31SOL    HW2  230   1.116   0.058   1.492 -0.1511 -1.2915  0.2907
   32SOL     OW  231   2.719   2.744   3.219 -0.4024 -0.4816 -0.5585
   32SOL    HW1  232   2.728   2.712   3.309  1.8752 -2.1985 -1.3057
   32SOL    HW2  233   2.654   2.685   3.179 -1.5925  0.4267 -0.0395
   33SOL     OW  234   0.225   1.751   1.746 -0.2181  0.4881  0.5496
   33SOL    HW1  235   0.293   1.706   1.797 -1.1878 -0.5561  0.9513
   33SOL    HW2  236   0.274   1.801   1.680  0.9143 -0.8504  0.3253
   34SOL     OW  237   3.435   0.027   2.283 -0.8005  0.4940 -0.6342
   34SOL    HW1  238   3.459   0.001   2.372 -0.7385  0.0023 -0.7905
   34SOL    HW2  239   3.515   0.063   2.246 -0.9824  1.2767 -0.2904
   35SOL     OW  240   1.832   0.360   1.922 -0.0032  0.3845 -0.1324
   35SOL    HW1  241   1.901   0.326   1.865  0.2461  1.5388 -0.5520
   35SOL    HW2  242   1.758   0.377   1.864  0.2628  1.5945 -0.1517
   36SOL     OW  243   2.574   1.589   2.152 -0.6303  0.2333 -0.2737
   36SOL    HW1  244   2.535   1.672   2.179  0.4447 -0.1412  2.7796
   36SOL    HW2  245   2.667   1.608   2.143 -0.5635 -0.3546 -0.9284
   37SOL     OW  246   0.519   1.022   2.667  0.1706 -0.1695  0.3625
   37SOL    HW1  247   0.428   1.000   2.683 -0.0733 -0.9285 -1.7617
   37SOL    HW2  248   0.527   1.114   2.693 -1.5182  0.2679 -0.5255
   38SOL     OW  249   1.411   1.124   0.033  0.7271 -0.0146 -0.2037
   38SOL    HW1  250   1.453   1.160   0.111  2.8155 -1.7750 -0.4456
   38SOL    HW2  251   1.354   1.055   0.067  2.1961 -1.2858 -0.2256
   39SOL     OW  252   3.171   1.893   3.658  0.2050 -0.3847  0.5792
   39SOL    HW1  253   3.172   1.915   3.565  1.2820 -0.0756  0.6460
   39SOL    HW2  254   3.204   1.972   3.702  2.0405 -1.3389  1.0117
   40SOL     OW  255   1.386   3.391   1.957 -0.0853  0.8536  0.4283
   40SOL    HW1  256   1.473   3.389   1.917 -1.2662  1.7079 -2.4367
   40SOL    HW2  257   1.326   3.368   1.886 -2.2575  0.4843  2.2567
   41SOL     OW  258   3.491   1.309   2.780 -0.6454  0.3181 -0.0012
   41SOL    HW1  259   3.491   1.361   2.861 -1.3532 -1.5184  1.2275
   41SOL    HW2  260   3.486   1.375   2.711 -1.6897  1.9137  1.4859
   42SOL     OW  261   0.270   2.807   0.618  0.8434  0.4112  0.5237
   42SOL    HW1  262   0.228   2.827   0.535  0.7837 -1.5345  0.0573
   42SOL    HW2  263   0.348   2.863   0.619 -0.1159  1.8316  0.0492
   43SOL     OW  264   2.495   3.211   0.692  0.0355  0.0711  0.1461
   43SOL    HW1  265   2.461   3.287   0.645  0.1764 -0.8005 -1.4181
   43SOL    HW2  266   2.423   3.183   0.748 -0.7354  0.1339 -0.7900
   44SOL     OW  267   1.675   0.148   0.265  0.1971 -0.3274  0.1003
   44SOL    HW1  268   1.634   0.152   0.351  2.5556  1.7620  1.2340
   44SOL    HW2  269   1.691   0.055   0.250 -0.4332 -0.7426  1.7973
   45SOL     OW  270   0.687   2.228   1.055 -0.2473  0.3786  0.6524
   45SOL    HW1  271   0.672   2.181   1.137 -1.3317 -1.2451 -0.4158
   45SOL    HW2  272   0.599   2.249   1.023  0.0958 -0.1288 -0.6869
   46SOL     OW  273   2.968   0.322   1.195 -0.2518  0.2948 -0.2383
   46SOL    HW1  274   3.024   0.342   1.270 -2.0632 -0.4784  1.4003
   46SOL    HW2  275   2.983   0.229   1.178  0.5114  0.5757 -1.1836
   47SOL     OW  276   2.517   3.193   2.817 -0.1450  0.4080 -0.2627
   47SOL    HW1  277   2.486   3.186   2.726 -1.2795  0.4698  0.1126
   47SOL    HW2  278   2.480   3.275   2.849 -0.7974 -0.2185  0.6441
   48SOL     OW  279   0.024   1.327   2.038 -0.7646 -0.5068  0.1132
   48SOL    HW1  280  -0.049   1.385   2.059  0.1829  0.6487  0.2894
   48SOL    HW2  281   0.082   1.380   1.983  0.0941 -1.3110  0.2226
   49SOL     OW  282   1.968   1.950   1.778  0.0248  0.2474 -0.1599
   49SOL    HW1  283   1.920   1.869   1.798 -1.2245  1.0304  0.1136
   49SOL    HW2  284   1.899   2.014   1.760  1.0084  0.9948 -1.4360
   50SOL     OW  285   3.457   1.525   2.969  0.1623 -0.1153  0.4138
   50SOL    HW1  286   3.516   1.513   3.043 -2.2816  0.1364  2.5368
   50SOL    HW2  287   3.509   1.572   2.904  3.3220 -2.8865  0.6724
   51SOL     OW  288   2.126   2.167   2.750 -0.5091 -0.1413  0.3683
   51SOL    HW1  289   2.045   2.121   2.771  0.1784 -0.3110  2.9381
   51SOL    HW2  290   2.170   2.111   2.686 -0.9530 -1.6813  1.3587
   52SOL     OW  291   3.585   0.998   1.289 -0.8463 -0.8554 -0.1626
   52SOL    HW1  292   3.506   1.049   1.271  0.1429  1.7806  2.2238
   52SOL    HW2  293   3.636   1.004   1.208 -1.5554  0.5015 -0.5362
   53SOL     OW  294   1.974   3.748   1.902 -0.1039 -0.0766  0.0853
   53SOL    HW1  295   2.046   3.724   1.961 -1.2028 -1.5302  0.9061
   53SOL    HW2  296   1.993   3.699   1.822  0.3085  0.2799 -0.0371
   54SOL     OW  297   2.925   0.482   0.990 -0.3892 -0.5247  0.1262
   54SOL    HW1  298   2.911   0.431   0.910  0.7296 -1.3300  0.4081
   54SOL    HW2  299   2.955   0.418   1.054 -2.3211 -0.0946  1.5561
   55SOL     OW  300   1.438   3.392   3.435 -0.0486  0.1246  0.2405
   55SOL    HW1  301   1.439   3.314   3.379 -0.6481  0.5204 -0.3372
   55SOL    HW2  302   1.521   3.436   3.416 -1.0141  1.2065 -1.7373
   56SOL     OW  303   1.850   1.796   0.643 -0.2973 -0.5367  0.9585
   56SOL    HW1  304   1.760   1.770   0.664 -0.2540  0.4713  2.6107
   56SOL    HW2  305   1.886   1.826   0.726  1.5621 -0.8277  0.3131
   57SOL     OW  306   3.310   0.101   1.176 -0.3017 -0.3728  0.9318
   57SOL    HW1  307   3.248   0.160   1.132  1.2481  0.6778  0.0076
   57SOL    HW2  308   3.274   0.014   1.163 -0.8046  0.0673 -0.9694
   58SOL     OW  309   0.307   0.400   2.336 -0.2697 -0.4273 -0.8021
   58SOL    HW1  310   0.402   0.394   2.337 -0.3035 -1.0698  0.4109
   58SOL    HW2  311   0.286   0.462   2.405 -0.6952  0.8079 -1.9997
   59SOL     OW  312   2.164   3.163   2.229 -0.0840 -0.1507 -0.6580
   59SOL    HW1  313   2.156   3.074   2.197 -0.8189 -0.1873 -0.3913
   59SOL    HW2  314   2.079   3.203   2.211 -0.7178 -0.3193  1.6523
   60SOL     OW  315   1.689   3.199   1.995 -0.1721 -0.1389 -0.3878
   60SOL    HW1  316   1.685   3.268   1.929  2.3749  0.2952 -0.1830
   60SOL    HW2  317   1.672   3.118   1.946 -0.1558  0.3489 -1.2171
   61SOL     OW  318   1.737   1.129   0.700 -0.2206 -0.5841 -0.3796
   61SOL    HW1  319   1.739   1.040   0.665 -1.2684 -0.5527 -0.5337
   61SOL    HW2  320   1.828   1.159   0.692  0.4837 -2.1688  1.1145
   62SOL     OW  321   3.254   2.727   3.284 -0.0107 -0.4037 -0.2709
   62SOL    HW1  322   3.237   2.673   3.208  2.1113 -1.2098 -0.2557
   62SOL    HW2  323   3.171   2.770   3.304 -1.0443 -1.5750 -1.9217
   63SOL     OW  324   2.667   1.455   0.280  0.0663 -0.3200 -0.0715
   63SOL    HW1  325   2.594   1.463   0.219 -1.0112 -3.1083  0.6844
   63SOL    HW2  326   2.659   1.366   0.316  3.0550 -0.2681  1.0628
   64SOL     OW  327   1.139   1.860   1.939 -0.4928  0.2603  0.4079
   64SOL    HW1  328   1.110   1.807   1.865  0.2980  0.7812 -0.2954
   64SOL    HW2  329   1.184   1.798   1.997 -1.0506 -0.1369  0.4209
   65SOL     OW  330   1.955   3.387   1.788  0.1853  0.1467 -0.4403
   65SOL    HW1  331   1.868   3.373   1.751  0.9961 -0.1643 -2.3180
   65SOL    HW2  332   1.974   3.306   1.837 -0.7260  0.3976  0.3598
   66SOL     OW  333   0.858   3.057   3.158 -0.0950 -0.3451  0.7232
   66SOL    HW1  334   0.927   3.121   3.179  1.0516 -1.0594 -0.6492
   66SOL    HW2  335   0.781   3.110   3.139  0.0690  0.4843  2.1984
   67SOL     OW  336   0.756   1.826   0.763  0.7468 -0.8061 -0.8642
   67SOL    HW1  337   0.694   1.887   0.803  0.0790 -0.8819 -1.7541
   67SOL    HW2  338   0.822   1.810   0.831  0.3198  0.0305 -0.2395
   68SOL     OW  339   2.632   3.416   2.197 -0.5148 -0.6239  0.3279
   68SOL    HW1  340   2.556   3.383   2.246 -0.6488 -1.7509 -0.5843
   68SOL    HW2  341   2.649   3.348   2.131  0.1739  0.4495 -0.6392
   69SOL     OW  342   1.656   2.907   0.008 -0.1329  0.1234 -0.2873
   69SOL    HW1  343   1.591   2.961  -0.036 -0.8232 -0.4536 -0.0045
   69SOL    HW2  344   1.687   2.961   0.081 -0.7577  0.1878 -0.0545
   70SOL     OW  345   2.470   0.458   3.235  0.0648 -0.4840 -0.1715
   70SOL    HW1  346   2.401   0.521   3.252  0.2572 -0.6566  1.4352
   70SOL    HW2  347   2.529   0.502   3.173 -0.4866  0.3891 -0.0893
   71SOL     OW  348   3.186   2.494   2.660  0.7712 -0.2748  0.4479
   71SOL    HW1  349   3.232   2.562   2.710  0.5542  0.5650 -0.4494
   71SOL    HW2  350   3.238   2.415   2.673  4.4276  1.2068 -2.9579
   72SOL     OW  351   0.550   3.617   3.527 -0.8832 -0.5920 -0.1034
   72SOL    HW1  352   0.631   3.586   3.567 -0.5028  1.2190  0.6242
   72SOL    HW2  353   0.485   3.613   3.597 -0.4905  1.4885  0.4452
   73SOL     OW  354   2.222   2.845   2.523  0.2693  0.8628  0.3885
   73SOL    HW1  355   2.179   2.787   2.460 -2.2813  0.8214  2.0037
   73SOL    HW2  356   2.229   2.929   2.478  0.5106  0.2916 -0.6669
   74SOL     OW  357   2.177   0.915   3.569  0.4779  0.4526  0.4321
   74SOL    HW1  358   2.163   0.967   3.648  0.5967  1.3161 -0.1038
   74SOL    HW2  359   2.272   0.915   3.557  0.6129 -1.1093  1.2166
   75SOL     OW  360   0.861   0.860   0.467  0.0843  0.2718 -0.5031
   75SOL    HW1  361   0.894   0.770   0.472 -0.5822  0.0730  1.1232
   75SOL    HW2  362   0.921   0.911   0.521 -0.6397  0.4233  0.1768
   76SOL     OW  363   0.468   0.108   3.371  0.3434  0.4143  0.6449
   76SOL    HW1  364   0.501   0.030   3.416  1.9886  0.2011 -0.8201
   76SOL    HW2  365   0.472   0.085   3.278 -0.3102  1.8211  0.2457
   77SOL     OW  366   1.145   2.878   2.195 -0.1966 -0.0243  0.2497
   77SOL    HW1  367   1.183   2.808   2.141 -0.7479  0.7365 -1.1697
   77SOL    HW2  368   1.171   2.856   2.285  0.3890 -1.5578 -0.2684
   78SOL     OW  369   2.049   3.017   2.744  0.3150  0.5409  0.2767
   78SOL    HW1  370   2.072   3.068   2.667  3.2476  2.3544  2.1485
   78SOL    HW2  371   1.975   3.065   2.783 -0.0389  0.6141 -0.4802
   79SOL     OW  372   0.553   2.547   0.887 -0.2788 -0.3461 -0.0290
   79SOL    HW1  373   0.590   2.521   0.971  0.6489  0.4415 -0.1809
   79SOL    HW2  374   0.494   2.619   0.908  2.2581  1.9958 -0.3158
   80SOL     OW  375   3.414   0.279   0.150  0.3675 -0.0956  0.0240
   80SOL    HW1  376   3.369   0.215   0.095  1.2182 -0.7273  0.0497
   80SOL    HW2  377   3.461   0.336   0.088  1.8651 -1.2102  0.0818
   81SOL     OW  378   3.483   3.033   0.488  0.8068 -0.1164  0.1219
   81SOL    HW1  379   3.486   3.120   0.528 -0.3057  0.2394 -0.5165
   81SOL    HW2  380   3.573   3.001   0.494  1.6030  1.7066 -0.9810
   82SOL     OW  381   1.042   2.896   0.732  0.4523 -0.2530  0.2487
   82SOL    HW1  382   1.074   2.806   0.740  0.1882 -0.3719  0.0065
   82SOL    HW2  383   0.962   2.897   0.784 -1.1223 -0.9555 -1.9847
   83SOL     OW  384   2.226   0.587   1.677  0.0633  0.2260  0.5124
   83SOL    HW1  385   2.171   0.615   1.604 -0.3089  0.7088  0.9771
   83SOL    HW2  386   2.261   0.502   1.649 -1.1279 -0.2156  0.3351
   84SOL     OW  387   2.817   2.164   2.542  0.0136  0.4875  0.4006
   84SOL    HW1  388   2.844   2.238   2.597 -2.3440  1.9447 -0.2639
   84SOL    HW2  389   2.733   2.191   2.506  0.9949 -0.7950 -3.1971
   85SOL     OW  390   1.691   1.811   1.617  0.2064  0.3405  0.0266
   85SOL    HW1  391   1.740   1.889   1.591  1.1562 -0.4426 -0.5906
   85SOL    HW2  392   1.750   1.738   1.597 -0.8327 -0.5651  0.2000
   86SOL     OW  393   0.052   2.563   0.295 -0.1586  0.2761 -0.6474
   86SOL    HW1  394   0.035   2.469   0.291  1.7853 -0.0941 -0.8968
   86SOL    HW2  395   0.029   2.595   0.207  0.4346 -0.2031 -0.9840
   87SOL     OW  396   2.312   0.780   1.961 -0.6134  0.2364  0.1646
   87SOL    HW1  397   2.292   0.717   1.892  1.5427 -0.7371  0.3654
   87SOL    HW2  398   2.345   0.857   1.915  3.6056 -1.4261  0.0159
   88SOL     OW  399   1.643   2.440   2.489 -0.4239  0.2350  0.8366
   88SOL    HW1  400   1.554   2.465   2.461  0.5188 -0.2420 -3.3082
   88SOL    HW2  401   1.701   2.490   2.431  1.9790 -0.7736  2.2369
   89SOL     OW  402   1.683   2.853   2.667  0.0401  0.3400 -0.2449
   89SOL    HW1  403   1.616   2.821   2.606 -0.2610  0.6808 -0.0973
   89SOL    HW2  404   1.766   2.841   2.621 -0.2370  1.2575 -1.0147
   90SOL     OW  405   0.471   3.633   0.550  0.6395 -0.4374 -0.3979
   90SOL    HW1  406   0.416   3.557   0.571  0.8941 -0.8972 -1.3306
   90SOL    HW2  407   0.543   3.629   0.613  0.8793 -1.2343 -0.7061
   91SOL     OW  408   3.151   2.897   3.025 -0.0811  0.5006  0.0791
   91SOL    HW1  409   3.107   2.858   3.100  0.9114  0.2704  0.5556
   91SOL    HW2  410   3.242   2.906   3.053  0.5131 -0.4659 -1.4138
   92SOL     OW  411   1.717   0.148   2.367 -0.1255  0.1532  0.4897
   92SOL    HW1  412   1.627   0.125   2.345  0.2332  0.3122 -1.2965
   92SOL    HW2  413   1.760   0.158   2.282  1.8850 -1.0913  1.3050
   93SOL     OW  414   2.015   2.490   3.357 -0.5185 -0.6178 -0.5504
   93SOL    HW1  415   2.074   2.554   3.397 -1.8846  0.1898  0.2764
   93SOL    HW2  416   2.060   2.407   3.364  0.1195 -0.1789  0.9326
   94SOL     OW  417   2.196   1.928   0.931 -0.1160 -0.2130 -0.1025
   94SOL    HW1  418   2.185   1.911   0.837  0.3805 -1.4260  0.0498
   94SOL    HW2  419   2.280   1.889   0.953 -0.2898 -0.0510  0.8921
   95SOL     OW  420   2.883   0.090   0.884  0.1286  0.3296 -0.1327
   95SOL    HW1  421   2.919   0.097   0.972  0.8657 -0.9541 -0.3058
   95SOL    HW2  422   2.860  -0.003   0.874  2.7314 -0.2200 -2.2448
   96SOL     OW  423   2.871   3.261   3.673 -0.2487 -0.0192 -0.3873
   96SOL    HW1  424   2.782   3.249   3.706 -0.4551 -3.0484 -1.7981
   96SOL    HW2  425   2.913   3.317   3.739 -3.5254  2.8766 -0.4331
   97SOL     OW  426   0.269   1.363   3.095 -0.4200  0.1106  0.3401
   97SOL    HW1  427   0.324   1.286   3.105 -1.6713 -0.8221  0.3451
   97SOL    HW2  428   0.329   1.434   3.074  0.7077 -0.9602 -0.1196
   98SOL     OW  429   3.140   1.010   0.318  0.4767 -0.5079  0.2945
   98SOL    HW1  430   3.200   0.986   0.247 -1.8653 -0.7378 -1.7205
   98SOL    HW2  431   3.084   0.934   0.329  1.1219 -0.7013  2.8791
   99SOL     OW  432   1.411   3.555   2.202  0.5912  0.4466 -0.2374
   99SOL    HW1  433   1.372   3.499   2.270 -0.9168  1.4685 -0.2090
   99SOL    HW2  434   1.394   3.507   2.121 -0.9655  0.9454 -0.2463
  100SOL     OW  435   2.219   2.464   0.201  0.0786  0.1832  0.0101
  100SOL    HW1  436   2.157   2.391   0.206  0.4324 -0.2118 -1.0205
  100SOL    HW2  437   2.164   2.542   0.192 -0.2971  0.0128  0.7703
  101SOL     OW  438   2.341   2.331   1.822 -0.5228  0.0882  0.1663
  101SOL    HW1  439   2.269   2.328   1.885 -0.3839 -1.0600  0.2909
  101SOL    HW2  440   2.315   2.397   1.758 -1.0139  0.7267  1.0014
  102SOL     OW  441   2.781   1.686   0.407  0.0326  0.5285 -0.4210
  102SOL    HW1  442   2.760   1.594   0.389  0.4005  0.5818 -1.1295
  102SOL    HW2  443   2.746   1.734   0.332 -0.1693  0.9736 -0.0476
  103SOL     OW  444   2.745   2.540   2.780 -0.2411  0.1571 -0.2114
  103SOL    HW1  445   2.811   2.579   2.837  0.0770 -1.6269  0.6786
  103SOL    HW2  446   2.672   2.518   2.838 -0.6584 -0.0449 -0.7992
  104SOL     OW  447   0.924   2.431   3.468 -0.1123  0.5959  0.2176
  104SOL    HW1  448   0.963   2.411   3.383  0.8797 -1.6526  1.1206
  104SOL    HW2  449   0.839   2.388   3.467 -0.6995  1.7148 -0.0915
  105SOL     OW  450   2.383   0.278   1.682  0.0577  0.2659  0.2336
  105SOL    HW1  451   2.359   0.204   1.739  0.8291 -1.2699 -1.3404
  105SOL    HW2  452   2.413   0.237   1.601  0.1302  2.3493 -0.8577
  106SOL     OW  453   3.545   1.659   0.916 -0.1950 -0.7046 -0.2177
  106SOL    HW1  454   3.480   1.713   0.872 -1.2336 -3.0473 -1.7858
  106SOL    HW2  455   3.506   1.637   1.000  0.0569  0.5864  0.2496
  107SOL     OW  456   1.423   3.197   2.162 -0.0315  0.3214  0.2314
  107SOL    HW1  457   1.514   3.189   2.133  0.0108  1.7128 -0.0712
  107SOL    HW2  458   1.381   3.254   2.097 -0.7652  0.8188  1.1067
  108SOL     OW  459   2.720   3.535   3.130 -0.0655  0.0654 -0.4607
  108SOL    HW1  460   2.768   3.612   3.098  1.0900  1.0449  3.1346
  108SOL    HW2  461   2.776   3.499   3.198 -2.3041 -1.7075  0.5769
  109SOL     OW  462   3.494   2.643   1.633 -0.4255 -1.0835  0.4532
  109SOL    HW1  463   3.399   2.637   1.639 -0.6118  0.5703 -0.1907
  109SOL    HW2  464   3.515   2.621   1.542 -0.0697 -2.3645  0.8213
  110SOL     OW  465   0.443   2.769   1.071 -0.1247 -0.0154  0.6286
  110SOL    HW1  466   0.419   2.833   1.138 -1.1292  0.6890 -0.3758
  110SOL    HW2  467   0.472   2.822   0.997  1.8812 -0.7886  0.7749
  111SOL     OW  468   0.983   3.678   1.761  0.3381 -0.7219 -0.3954
  111SOL    HW1  469   1.062   3.634   1.793  0.8052  0.4003  0.0580
  111SOL    HW2  470   1.011   3.726   1.684  0.2951  0.2970  0.2049
  112SOL     OW  471   2.454   2.808   1.227  0.3106  0.3220  0.2265
  112SOL    HW1  472   2.445   2.877   1.161  1.7016 -1.3539 -1.8776
  112SOL    HW2  473   2.378   2.818   1.284 -0.9516  1.9154 -1.6055
  113SOL     OW  474   2.244   1.376   2.140 -0.2100 -0.5130 -0.2839
  113SOL    HW1  475   2.195   1.365   2.059 -0.5321 -0.9467 -0.0358
  113SOL    HW2  476   2.328   1.332   2.124 -0.7443 -1.6904  0.0289
  114SOL     OW  477   3.544   2.985   1.067  0.0212 -0.2260 -0.9874
  114SOL    HW1  478   3.615   3.042   1.096 -1.6530  1.3410  0.2701
  114SOL    HW2  479   3.525   3.014   0.977  1.2973 -1.0278 -1.5305
  115SOL     OW  480   1.399   2.918   3.604 -0.2101  0.1387 -0.0618
  115SOL    HW1  481   1.455   2.994   3.589  0.8813  0.0388  2.7694
  115SOL    HW2  482   1.423   2.857   3.534  2.2833  0.6589  0.2188
  116SOL     OW  483   1.050   2.975   1.576  0.5551 -0.6268 -0.1777
  116SOL    HW1  484   1.014   2.887   1.591 -1.1266 -0.2751 -1.7551
  116SOL    HW2  485   1.023   3.025   1.653 -2.6047 -0.3698 -1.3072
  117SOL     OW  486   3.517   2.188   2.010 -0.3169 -0.0955  0.0004
  117SOL    HW1  487   3.507   2.275   1.970 -1.7279 -0.5604 -0.7065
  117SOL    HW2  488   3.454   2.133   1.964 -1.5501 -0.8381  2.3854
  118SOL     OW  489   0.379   1.454   1.471  0.2807  0.1646 -0.0074
  118SOL    HW1  490   0.444   1.457   1.401 -2.1630  2.9514 -2.4352
  118SOL    HW2  491   0.303   1.411   1.431  0.6488 -3.8834  3.0090
  119SOL     OW  492   3.621   0.734   3.568 -0.6050 -0.2623 -0.1297
  119SOL    HW1  493   3.535   0.694   3.554 -0.5645 -0.0817 -0.8919
  119SOL    HW2  494   3.615   0.772   3.656 -0.7407 -1.6951  0.5227
  120SOL     OW  495   0.551   0.869   3.564  0.7438 -0.0087  0.1104
  120SOL    HW1  496   0.589   0.922   3.494 -0.2776  2.0145  1.0120
  120SOL    HW2  497   0.613   0.877   3.636 -0.3842  1.7919  0.9594
  121SOL     OW  498   2.928   0.713   2.973 -0.2649  0.1516 -0.2365
  121SOL    HW1  499   2.919   0.794   3.022 -3.1787  0.9388 -1.8298
  121SOL    HW2  500   2.888   0.646   3.030  1.0660 -0.0046  0.5665
  122SOL     OW  501   1.667   0.620   1.651  0.4259  0.2715 -0.2374
  122SOL    HW1  502   1.676   0.634   1.745  0.0202 -2.0635  0.1897
  122SOL    HW2  503   1.749   0.578   1.625  0.3466  0.4856 -0.8478
  123SOL     OW  504   1.539   1.314   2.337  0.1607 -0.3192  0.0411
  123SOL    HW1  505   1.506   1.367   2.264 -2.7688 -2.6797 -0.5586
  123SOL    HW2  506   1.543   1.376   2.411  0.4266  1.4993 -1.4217
  124SOL     OW  507   3.379   0.942   0.146  0.5564 -0.3818 -0.1464
  124SOL    HW1  508   3.455   0.965   0.199  0.5084 -0.1863 -0.1631
  124SOL    HW2  509   3.383   0.846   0.139  1.6583 -0.2772 -1.4247
  125SOL     OW  510   3.518   1.749   1.348  0.3385 -0.3451 -0.6458
  125SOL    HW1  511   3.543   1.661   1.322  0.5065 -0.4916 -0.0150
  125SOL    HW2  512   3.465   1.737   1.427  0.7808  0.1405 -0.2612
  126SOL     OW  513   0.680   1.382   3.671 -0.0180  0.0266 -0.0932
  126SOL    HW1  514   0.665   1.398   3.578  0.3603 -0.9432 -0.3376
  126SOL    HW2  515   0.719   1.294   3.674  0.2126  0.1530  0.9606
  127SOL     OW  516   1.421   0.199   3.572  0.3405 -0.3663 -0.3321
  127SOL    HW1  517   1.326   0.198   3.573  0.3424 -0.7419 -0.1251
  127SOL    HW2  518   1.446   0.106   3.574  0.7046 -0.2842 -0.8560
  128SOL     OW  519   2.287   1.767   1.903  0.3676 -0.0337  0.1665
  128SOL    HW1  520   2.351   1.699   1.884  0.7801  0.7291 -1.2844
  128SOL    HW2  521   2.223   1.725   1.961  0.6143 -1.6419 -0.6857
  129SOL     OW  522   0.716   0.374   2.172 -0.0825 -0.2909  0.0814
  129SOL    HW1  523   0.802   0.342   2.143 -0.4312 -0.4445 -0.8257
  129SOL    HW2  524   0.656   0.343   2.105 -0.9743 -0.8566  1.1182
  130SOL     OW  525   1.152   0.903   3.424  0.7428  0.1754 -0.5446
  130SOL    HW1  526   1.132   0.831   3.484 -3.7169  0.8782 -0.8098
  130SOL    HW2  527   1.126   0.982   3.472  0.8120  1.1353 -2.0196
  131SOL     OW  528   2.209   2.520   1.687 -0.3691  0.0770  0.3579
  131SOL    HW1  529   2.260   2.576   1.745 -1.5524  0.9432  0.6116
  131SOL    HW2  530   2.176   2.580   1.619 -0.8490 -0.4967  0.0751
  132SOL     OW  531   0.593   1.603   1.617 -0.3882 -0.0147 -0.3063
  132SOL    HW1  532   0.531   1.533   1.598  0.1883 -1.5839  2.8979
  132SOL    HW2  533   0.677   1.558   1.629 -0.1789  0.9801  2.7165
  133SOL     OW  534   1.393   2.516   2.460  0.9467  0.2551  0.6374
  133SOL    HW1  535   1.350   2.433   2.440 -1.3789  1.6929 -0.7522
  133SOL    HW2  536   1.365   2.536   2.550  1.2994 -0.3029  0.8778
  134SOL     OW  537   0.158   3.288   3.049 -0.6919  0.2264  0.1447
  134SOL    HW1  538   0.152   3.239   2.967  0.3737  0.7485 -0.2556
  134SOL    HW2  539   0.107   3.367   3.034  0.9854  1.1994 -0.6908
  135SOL     OW  540   0.910   2.910   1.296 -0.6861 -0.4225  0.5493
  135SOL    HW1  541   0.905   2.832   1.352  1.2916 -0.0502  1.3198
  135SOL    HW2  542   0.856   2.975   1.341  0.0694 -0.4449  1.5097
  136SOL     OW  543   2.086   1.556   3.109  0.3722 -0.9769  0.0226
  136SOL    HW1  544   2.000   1.596   3.120  1.5063  1.3282  1.2639
  136SOL    HW2  545   2.117   1.542   3.199  2.7698  1.8137 -0.2056
  137SOL     OW  546   2.823   0.125   1.914  0.0686  0.0944 -0.1261
  137SOL    HW1  547   2.804   0.075   1.994 -1.8289 -0.2587 -0.7603
  137SOL    HW2  548   2.832   0.215   1.944  1.9054 -0.3276  0.7947
  138SOL     OW  549   0.007   1.499   3.080 -0.3282 -0.0940 -0.8859
  138SOL    HW1  550  -0.006   1.500   3.175  0.1736  3.8606 -0.6931
  138SOL    HW2  551   0.086   1.446   3.067  0.0272 -0.1070  0.9888
  139SOL     OW  552   2.706   1.641   3.453 -0.2260  0.5358  0.1335
  139SOL    HW1  553   2.777   1.644   3.389 -0.1759 -1.0388  0.0796
  139SOL    HW2  554   2.627   1.659   3.402  0.0996  2.4573  0.2199
  140SOL     OW  555   3.700   1.077   3.284  0.0655  0.3080 -0.1113
  140SOL    HW1  556   3.646   1.100   3.208 -0.0809 -0.1488 -0.1506
  140SOL    HW2  557   3.788   1.063   3.248  0.2709  1.2713 -0.0151
  141SOL     OW  558   2.690   0.108   1.198 -0.0209 -0.4715 -0.4522
  141SOL    HW1  559   2.780   0.099   1.167 -0.1147 -2.2977 -0.2684
  141SOL    HW2  560   2.695   0.095   1.292 -0.5542 -1.3708 -0.5349
  142SOL     OW  561   3.533   2.408   0.896  0.5034  0.2590 -0.1675
  142SOL    HW1  562   3.596   2.347   0.933  0.1500  0.7263  1.2935
  142SOL    HW2  563   3.553   2.492   0.939 -2.1014  0.0709  1.6335
  143SOL     OW  564   0.163   3.459   2.232  0.4980  0.1307 -0.3017
  143SOL    HW1  565   0.249   3.432   2.264  0.9486 -0.4908 -1.9664
  143SOL    HW2  566   0.119   3.494   2.310  1.5312 -1.2968  0.9852
  144SOL     OW  567   2.630   3.355   2.615  0.0572 -0.5140 -0.5448
  144SOL    HW1  568   2.608   3.428   2.556  0.8638 -1.4719 -2.0985
  144SOL    HW2  569   2.711   3.382   2.657 -0.5240  0.1789  0.1717
  145SOL     OW  570   2.977   3.380   1.287 -0.1758  0.3673  0.3098
  145SOL    HW1  571   3.064   3.345   1.306  0.5498  0.9036 -1.6956
  145SOL    HW2  572   2.920   3.304   1.285  0.4806 -0.1367  0.5272
  146SOL     OW  573   2.800   2.552   2.011  0.7901 -0.3438  0.2764
  146SOL    HW1  574   2.843   2.504   2.082 -0.7059  0.3712  1.7371
  146SOL    HW2  575   2.748   2.486   1.966 -0.2283 -0.3993  1.4604
  147SOL     OW  576   1.073   1.180   0.436  0.0287 -0.1099  0.5628
  147SOL    HW1  577   1.166   1.202   0.444 -0.0292 -0.2320  1.8466
  147SOL    HW2  578   1.052   1.196   0.344  1.5676 -1.0930  0.0018
  148SOL     OW  579   0.328   0.651   3.315  0.0790  0.6404  0.0170
  148SOL    HW1  580   0.243   0.693   3.326  0.6343  2.0586 -0.8303
  148SOL    HW2  581   0.392   0.723   3.320  1.1579 -0.2606 -0.2873
  149SOL     OW  582   1.272   1.558   1.020  0.1363  0.3788 -0.2111
  149SOL    HW1  583   1.272   1.484   0.960  0.1006  0.2734 -0.0834
  149SOL    HW2  584   1.312   1.523   1.100  0.8208  0.7035 -0.4054
  150SOL     OW  585   3.006   1.056   2.501 -0.1935 -0.2469  0.2719
  150SOL    HW1  586   3.034   1.124   2.561  0.8982 -0.7238  0.3433
  150SOL    HW2  587   2.938   1.096   2.448 -0.3284  0.5460  1.0330
  151SOL     OW  588   2.303   1.054   2.166 -0.3724  0.0635  0.1958
  151SOL    HW1  589   2.324   0.961   2.171  0.9304  0.3854  3.1877
  151SOL    HW2  590   2.213   1.056   2.133 -0.4113 -2.2524 -0.0194
  152SOL     OW  591   1.983   0.680   2.364 -0.3109  0.7075 -0.0968
  152SOL    HW1  592   1.997   0.756   2.308 -0.4807  0.3897 -0.5842
  152SOL    HW2  593   1.888   0.665   2.362 -0.1735 -0.1919 -0.9412
  153SOL     OW  594   0.439   1.572   3.016 -0.3358 -0.2351 -0.2015
  153SOL    HW1  595   0.413   1.605   2.930 -0.7748 -1.4862 -0.5736
  153SOL    HW2  596   0.520   1.620   3.037 -0.0647 -0.1237 -1.4353
  154SOL     OW  597   1.277   3.592   1.759  0.0981  0.0220  0.6252
  154SOL    HW1  598   1.289   3.499   1.739  0.2581 -0.0464  1.0328
  154SOL    HW2  599   1.288   3.598   1.854 -2.5364  0.0162  1.0017
  155SOL     OW  600   2.481   1.438   0.920 -0.2385 -0.0972  0.9677
  155SOL    HW1  601   2.492   1.424   1.014  1.7673  0.6980  0.8971
  155SOL    HW2  602   2.545   1.506   0.898 -1.8608  0.9962 -0.6821
  156SOL     OW  603   0.829   2.123   2.288  0.1847  0.2696  0.2909
  156SOL    HW1  604   0.922   2.139   2.276 -0.2025  0.8321 -2.5219
  156SOL    HW2  605   0.786   2.200   2.251 -1.4410 -0.9698 -0.5216
  157SOL     OW  606   3.402   3.720   0.541 -0.0686 -0.2513 -0.2602
  157SOL    HW1  607   3.476   3.770   0.574  0.2456  0.7117 -2.2633
  157SOL    HW2  608   3.441   3.643   0.501 -0.4308 -1.3032  1.3053
  158SOL     OW  609   1.131   1.315   1.975 -0.0879 -0.3075 -0.2559
  158SOL    HW1  610   1.134   1.255   1.900  2.5407 -2.0355  1.0710
  158SOL    HW2  611   1.095   1.263   2.047  2.2617 -0.4244  0.9295
  159SOL     OW  612   2.069   1.893   0.446  0.0881  0.4968  0.1388
  159SOL    HW1  613   2.015   1.878   0.523  0.5829 -2.3573  0.0582
  159SOL    HW2  614   2.060   1.812   0.395  0.0554  2.1204 -2.6607
  160SOL     OW  615   2.222   1.645   3.685  0.2075 -0.1121  0.6709
  160SOL    HW1  616   2.223   1.738   3.662  1.0400  0.2097  1.9270
  160SOL    HW2  617   2.307   1.612   3.654  0.1187 -0.3462  0.6744
  161SOL     OW  618   2.443   2.609   1.820  0.2522 -0.1413  0.6324
  161SOL    HW1  619   2.490   2.669   1.878  0.0920 -0.6463  1.2917
  161SOL    HW2  620   2.512   2.557   1.779  0.4040  0.6040 -0.0780
  162SOL     OW  621   1.220   0.524   2.325  0.2789 -0.3636 -0.0670
  162SOL    HW1  622   1.130   0.502   2.304  0.0717  0.9769 -0.7079
  162SOL    HW2  623   1.269   0.443   2.313 -0.8764 -1.1787  0.5850
  163SOL     OW  624   2.983   2.443   0.087  0.3848  0.1522 -0.7795
  163SOL    HW1  625   2.997   2.408   0.175  2.2855  2.7198  0.0828
  163SOL    HW2  626   2.891   2.468   0.085  0.7177  1.8247  1.2707
  164SOL     OW  627   1.747   1.553   0.905  0.1336 -0.1537  0.1914
  164SOL    HW1  628   1.688   1.621   0.938 -0.2496 -0.7044  0.6494
  164SOL    HW2  629   1.691   1.494   0.855  0.5359  0.0857 -0.5554
  165SOL     OW  630   2.489   2.226   1.322 -0.1826 -0.2316  0.1717
  165SOL    HW1  631   2.423   2.161   1.298 -1.4203  1.2986 -0.7725
  165SOL    HW2  632   2.473   2.300   1.263  3.4496 -0.3631 -1.2803
  166SOL     OW  633   0.895   0.828   3.323 -0.8889  0.9887  0.1418
  166SOL    HW1  634   0.987   0.846   3.342 -0.6378 -0.4217  0.4480
  166SOL    HW2  635   0.856   0.810   3.409 -1.0473 -0.0059 -0.1187
  167SOL     OW  636   1.918   0.591   2.624  0.1604 -0.0771  0.0215
  167SOL    HW1  637   1.996   0.536   2.623  2.0043  2.3714 -1.4908
  167SOL    HW2  638   1.944   0.671   2.577 -2.6345  1.6937  1.2253
  168SOL     OW  639   2.550   2.363   2.939  0.5826 -0.2609 -0.1944
  168SOL    HW1  640   2.581   2.297   3.001  1.1790 -1.8664 -2.0997
  168SOL    HW2  641   2.481   2.320   2.889  0.0919  0.9948 -0.6561
  169SOL     OW  642   0.997   2.902   1.002  0.1508  0.1580  0.3602
  169SOL    HW1  643   0.989   2.982   1.054  1.5421 -0.6770  1.9661
  169SOL    HW2  644   0.936   2.840   1.044 -0.2172  0.0758 -0.2841
  170SOL     OW  645   1.906   1.512   3.659  0.1558 -0.2682  0.0477
  170SOL    HW1  646   1.923   1.606   3.663  2.0847 -0.3236 -2.9010
  170SOL    HW2  647   1.826   1.504   3.608 -0.1341 -0.2198  0.4958
  171SOL     OW  648   2.156   0.098   0.821 -0.0625 -0.0019 -0.0273
  171SOL    HW1  649   2.221   0.028   0.828  2.3755  2.2076  0.8887
  171SOL    HW2  650   2.155   0.139   0.908 -1.4780  1.0978 -0.5211
  172SOL     OW  651   1.901   1.578   2.900 -0.5179  0.0175 -0.4546
  172SOL    HW1  652   1.912   1.672   2.911 -0.2889  0.0006 -0.5415
  172SOL    HW2  653   1.972   1.539   2.951 -0.6556 -0.1111 -0.3576
  173SOL     OW  654   1.477   1.720   1.370 -0.2537 -0.0451 -0.1526
  173SOL    HW1  655   1.425   1.799   1.383  1.1701  0.6433  2.2752
  173SOL    HW2  656   1.561   1.752   1.337  0.8881 -0.2407  2.3161
  174SOL     OW  657   0.256   0.975   0.045 -0.6704 -0.8862 -0.5041
  174SOL    HW1  658   0.266   0.894   0.095 -0.3688 -0.5163  0.0535
  174SOL    HW2  659   0.345   1.004   0.029 -0.7591  0.3127  0.9536
  175SOL     OW  660   0.646   1.059   2.416 -0.3186  0.4920 -0.8708
  175SOL    HW1  661   0.606   1.009   2.345  0.7928 -2.0991  0.2224
  175SOL    HW2  662   0.593   1.037   2.493  0.8605  0.1067 -0.1558
  176SOL     OW  663   2.779   0.716   1.702 -0.0414  0.4703  0.2720
  176SOL    HW1  664   2.799   0.703   1.795  0.1745 -1.4732  0.0052
  176SOL    HW2  665   2.701   0.661   1.687  0.5401 -0.0580 -0.9004
  177SOL     OW  666   2.652   1.487   3.087  0.0142  0.0038 -0.4124
  177SOL    HW1  667   2.564   1.448   3.091 -0.6970  1.5815  0.3157
  177SOL    HW2  668   2.658   1.522   2.998 -1.8270  3.4650  0.6180
  178SOL     OW  669   2.009   3.665   0.651  0.3817  0.0771 -0.2990
  178SOL    HW1  670   2.056   3.670   0.734 -0.0639 -1.2733  0.0698
  178SOL    HW2  671   1.920   3.692   0.673  0.5693  0.9850 -0.6298
  179SOL     OW  672   2.030   0.567   0.314  0.2677  0.4014  0.4764
  179SOL    HW1  673   2.080   0.599   0.390 -3.3025  0.5761  2.9880
  179SOL    HW2  674   2.039   0.471   0.318  2.0134  0.4736 -0.4445
  180SOL     OW  675   2.640   3.554   1.116 -0.0337  0.0624  0.1421
  180SOL    HW1  676   2.732   3.552   1.088 -0.2841 -0.0058 -0.7032
  180SOL    HW2  677   2.629   3.475   1.168  0.4112  0.1180  0.3241
  181SOL     OW  678   2.403   2.554   2.158  0.4784  0.1577 -0.2470
  181SOL    HW1  679   2.355   2.601   2.090 -1.1116 -1.7493 -0.5192
  181SOL    HW2  680   2.336   2.513   2.212  1.7627 -2.2279 -0.3340
  182SOL     OW  681   0.285   0.744   0.179 -0.3925 -0.4922  0.4322
  182SOL    HW1  682   0.354   0.688   0.214  1.6520  1.6262  0.0517
  182SOL    HW2  683   0.208   0.687   0.174  1.1674 -2.8402  1.3194
  183SOL     OW  684   0.827   0.454   1.177  0.5164 -0.1911  0.0669
  183SOL    HW1  685   0.894   0.482   1.239  1.2787  1.4593 -1.4350
  183SOL    HW2  686   0.747   0.496   1.209  1.0696  1.3724 -0.4960
  184SOL     OW  687   1.083   1.269   1.343 -0.0444  0.0724  0.4130
  184SOL    HW1  688   1.001   1.250   1.389  0.6801 -0.9065  1.3573
  184SOL    HW2  689   1.142   1.199   1.371  0.7524  0.0610 -1.2048
  185SOL     OW  690   2.368   3.014   1.801  0.3996  0.4271  0.8462
  185SOL    HW1  691   2.396   2.957   1.873  0.3814 -0.3018  0.2901
  185SOL    HW2  692   2.422   2.987   1.727 -1.8816 -1.2332 -0.3470
  186SOL     OW  693   3.039   1.649   1.244  0.2014  0.4873  0.1604
  186SOL    HW1  694   3.105   1.595   1.287  1.1000  0.9778 -0.5762
  186SOL    HW2  695   3.082   1.734   1.231 -0.6643  0.8976 -0.1070
  187SOL     OW  696   0.563   0.769   2.766  0.1363  0.1541  0.4650
  187SOL    HW1  697   0.658   0.761   2.756  0.0397  0.3670 -0.7178
  187SOL    HW2  698   0.545   0.860   2.742 -0.1950  0.6001  2.2284
  188SOL     OW  699   2.826   3.390   1.808  0.0020  0.2018  0.3677
  188SOL    HW1  700   2.743   3.429   1.837 -0.0785 -0.4277  0.9998
  188SOL    HW2  701   2.881   3.390   1.886  0.3239 -0.1110  0.1444
  189SOL     OW  702   1.595   1.086   2.041  0.1488 -0.1112  0.3270
  189SOL    HW1  703   1.649   1.141   1.985  0.4823  1.3261  1.9891
  189SOL    HW2  704   1.517   1.067   1.988 -0.2540  2.4566 -0.1068
  190SOL     OW  705   0.318   1.559   2.738  0.0683 -0.0282 -0.8759
  190SOL    HW1  706   0.259   1.484   2.746 -1.4874  1.3392  3.0234
  190SOL    HW2  707   0.265   1.628   2.697 -0.5801  0.6416  0.9728
  191SOL     OW  708   0.888   1.957   1.755  0.3528  0.7288 -0.4423
  191SOL    HW1  709   0.904   1.979   1.663 -0.2201  0.2469 -0.6675
  191SOL    HW2  710   0.799   1.922   1.756  0.7334 -0.2618  0.1237
  192SOL     OW  711   1.331   1.793   0.890  0.0917 -0.7674  0.4492
  192SOL    HW1  712   1.368   1.766   0.806 -0.8269 -1.5307  0.2718
  192SOL    HW2  713   1.371   1.734   0.953  0.8461 -0.1389  0.5706
  193SOL     OW  714   2.048   0.761   2.920 -0.0266 -0.3233 -0.2282
  193SOL    HW1  715   2.113   0.692   2.907 -0.4977 -0.6921 -0.6513
  193SOL    HW2  716   1.969   0.715   2.948 -0.7895 -0.1315 -1.9362
  194SOL     OW  717   3.550   2.349   3.663  0.3457  0.9571  0.0360
  194SOL    HW1  718   3.582   2.274   3.713 -1.1809  0.5554  0.4480
  194SOL    HW2  719   3.517   2.311   3.581 -0.1406  1.2173  0.1082
  195SOL     OW  720   0.250   2.662   0.876 -0.0387  0.1692 -0.1995
  195SOL    HW1  721   0.282   2.703   0.957 -0.7037 -0.1234  0.2165
  195SOL    HW2  722   0.259   2.731   0.810 -3.2376  1.8340  0.9084
  196SOL     OW  723   2.211   2.584   3.517 -0.2302 -0.1471 -0.5687
  196SOL    HW1  724   2.222   2.583   3.612 -2.9240  0.2175 -0.1791
  196SOL    HW2  725   2.271   2.652   3.486  0.3880  0.0085  0.8966
  197SOL     OW  726   3.292   1.667   1.839  0.5702 -0.9653 -0.3394
  197SOL    HW1  727   3.355   1.594   1.838 -0.0783 -1.5282 -0.6087
  197SOL    HW2  728   3.209   1.626   1.862  0.2994 -0.2210  0.0177
  198SOL     OW  729   3.239   0.416   0.690  0.3086  0.8567 -0.1081
  198SOL    HW1  730   3.311   0.444   0.634  0.1031 -0.5057 -1.1270
  198SOL    HW2  731   3.254   0.322   0.703 -0.0091  1.0109  1.6120
  199SOL     OW  732   1.906   0.138   3.490  0.2115  0.2815  0.1755
  199SOL    HW1  733   1.965   0.063   3.490 -1.4644 -1.1256 -0.4288
  199SOL    HW2  734   1.864   0.135   3.576  1.3655  1.6184  0.8263
  200SOL     OW  735   0.423   2.905   1.302 -0.1596 -0.2250  0.5901
  200SOL    HW1  736   0.331   2.893   1.327  0.1610 -0.7728  1.5157
  200SOL    HW2  737   0.469   2.920   1.384  0.4239  1.2162  0.0486
  201SOL     OW  738   0.622   0.162   3.638 -0.2737  1.0025 -1.1322
  201SOL    HW1  739   0.556   0.150   3.707  0.4511 -3.2953 -0.8987
  201SOL    HW2  740   0.573   0.155   3.556 -0.3434 -0.9669 -0.9609
  202SOL     OW  741   2.087   0.821   2.652 -0.1919  0.3513 -0.1520
  202SOL    HW1  742   2.073   0.775   2.735  2.3051 -1.5925 -0.6938
  202SOL    HW2  743   2.171   0.789   2.621 -0.1043  2.5540 -2.4864
  203SOL     OW  744   3.134   3.213   3.627  0.0385 -0.1534  0.0427
  203SOL    HW1  745   3.041   3.237   3.629 -0.6174 -2.4391  1.8629
  203SOL    HW2  746   3.158   3.214   3.534 -2.0605 -0.3902 -0.5452
  204SOL     OW  747   2.012   2.283   1.885  0.0324 -0.0072 -1.0479
  204SOL    HW1  748   2.026   2.220   1.815 -1.9079 -2.8526  0.9054
  204SOL    HW2  749   1.942   2.340   1.853  0.6141  0.0860 -2.1849
  205SOL     OW  750   2.526   3.085   2.355  0.0415  0.3412 -0.2783
  205SOL    HW1  751   2.477   3.092   2.437 -0.9640  0.3970 -0.8556
  205SOL    HW2  752   2.493   3.157   2.302  0.1607 -0.1106 -0.9793
  206SOL     OW  753   3.060   0.751   0.160  0.6132 -0.0987  0.0753
  206SOL    HW1  754   3.115   0.675   0.177  1.2868  0.5468  0.8790
  206SOL    HW2  755   2.994   0.749   0.229 -0.5021 -0.9421 -0.9577
  207SOL     OW  756   2.317   1.556   0.736  0.3444 -0.6503 -0.4592
  207SOL    HW1  757   2.333   1.506   0.815 -0.2974  0.1745  0.2048
  207SOL    HW2  758   2.229   1.592   0.746 -0.3107 -1.6661 -2.1782
  208SOL     OW  759   3.323   0.709   3.543  0.2695  0.1154  0.2464
  208SOL    HW1  760   3.257   0.704   3.612 -0.6054  1.6292 -0.4357
  208SOL    HW2  761   3.274   0.736   3.465  1.5665  0.5440 -0.4467
  209SOL     OW  762   0.664   0.980   2.962  0.0992  0.2402  0.0518
  209SOL    HW1  763   0.691   0.937   2.881  0.3455 -0.9255  0.7298
  209SOL    HW2  764   0.741   0.976   3.018 -0.9021 -1.6355  1.3969
  210SOL     OW  765   1.889   1.787   3.653 -0.2822  0.1213  0.2554
  210SOL    HW1  766   1.831   1.850   3.696 -0.5052 -0.6021  1.0507
  210SOL    HW2  767   1.946   1.840   3.598 -1.1011  0.9281  0.1625
  211SOL     OW  768   2.012   1.379   2.457  0.2958  0.5310 -0.1071
  211SOL    HW1  769   1.995   1.384   2.363  1.7348 -1.4904 -0.5585
  211SOL    HW2  770   1.927   1.359   2.496 -0.1759  0.6378 -1.0629
  212SOL     OW  771   2.423   0.058   1.217 -0.3002 -0.2864 -0.3660
  212SOL    HW1  772   2.411   0.069   1.312  0.9039 -0.7234 -0.1441
  212SOL    HW2  773   2.518   0.062   1.205 -0.4585  0.0766 -1.6023
  213SOL     OW  774   0.087   0.646   2.840  0.3688 -0.1714 -0.0849
  213SOL    HW1  775   0.124   0.657   2.753 -1.2999  4.3247 -0.5290
  213SOL    HW2  776   0.135   0.708   2.894 -0.9426 -0.3067  1.3088
  214SOL     OW  777   3.365   1.914   2.704 -0.5759 -0.2376  0.2245
  214SOL    HW1  778   3.274   1.944   2.703 -0.7349 -0.6539  1.0268
  214SOL    HW2  779   3.393   1.916   2.613 -0.7058  1.9264  0.1933
  215SOL     OW  780   1.201   0.057   2.940 -0.1499 -0.5226  0.0875
  215SOL    HW1  781   1.178   0.045   2.848 -0.8056  2.2552 -0.1974
  215SOL    HW2  782   1.297   0.058   2.940 -0.1008 -2.2709 -0.2525
  216SOL     OW  783   1.156   3.283   0.444 -0.1785 -0.7293 -0.2234
  216SOL    HW1  784   1.209   3.290   0.365  1.6087  1.4846  1.0438
  216SOL    HW2  785   1.205   3.222   0.500  0.3829  0.2836  0.4248
  217SOL     OW  786   3.302   2.832   2.676 -0.1417  0.4914  0.4200
  217SOL    HW1  787   3.214   2.850   2.643 -0.6614 -1.6072  0.5105
  217SOL    HW2  788   3.351   2.802   2.599  1.1641  3.5277 -0.0629
  218SOL     OW  789   0.474   0.899   2.282  0.5614  0.1018  0.6698
  218SOL    HW1  790   0.453   0.809   2.306 -0.2947 -0.1883 -0.9927
  218SOL    HW2  791   0.390   0.937   2.254  0.8876  1.4475  1.3997
  219SOL     OW  792   2.406   1.875   1.374 -0.2913 -0.6923  0.2812
  219SOL    HW1  793   2.389   1.922   1.293 -0.9111  1.8404  1.7561
  219SOL    HW2  794   2.384   1.784   1.356  0.6942 -0.4335 -2.6734
  220SOL     OW  795   3.416   0.496   2.720 -0.0253  0.3792 -0.3952
  220SOL    HW1  796   3.445   0.577   2.763 -0.4097  1.3025 -1.8092
  220SOL    HW2  797   3.497   0.448   2.702  0.2108  0.4759  0.3737
  221SOL     OW  798   3.579   1.337   1.288  0.1639 -0.1967  0.2597
  221SOL    HW1  799   3.622   1.420   1.268  0.0756 -0.2108  0.0113
  221SOL    HW2  800   3.627   1.303   1.364  1.3422 -0.7499 -0.6949
  222SOL     OW  801   3.106   2.026   3.420  0.2570 -0.1891  0.3137
  222SOL    HW1  802   3.010   2.027   3.422  0.1816 -0.7267  3.6155
  222SOL    HW2  803   3.131   2.114   3.447  0.9893  1.4237 -4.5936
  223SOL     OW  804   3.186   2.218   0.066  0.0069 -0.0728  0.5687
  223SOL    HW1  805   3.266   2.214   0.118  0.9472  1.8165 -0.6055
  223SOL    HW2  806   3.117   2.189   0.125  1.6198 -2.7006  1.3555
  224SOL     OW  807   2.791   2.372   2.234  0.1426 -0.2036  0.1225
  224SOL    HW1  808   2.730   2.364   2.307 -0.0272 -1.4651 -0.1254
  224SOL    HW2  809   2.775   2.293   2.182 -0.8576  1.3871 -2.1397
  225SOL     OW  810   0.372   1.565   0.208  0.1389 -0.5974  0.3825
  225SOL    HW1  811   0.283   1.598   0.215  0.9310  1.8469 -0.1478
  225SOL    HW2  812   0.375   1.491   0.268 -1.9928 -0.2148  1.0351
  226SOL     OW  813   0.613   2.810   3.036 -0.5962  0.0967 -0.0240
  226SOL    HW1  814   0.654   2.737   3.083 -2.2599 -1.3003 -0.6280
  226SOL    HW2  815   0.655   2.811   2.950 -1.1679 -0.7520 -0.3266
  227SOL     OW  816   0.236   1.678   0.546 -0.0181  0.0011  0.2508
  227SOL    HW1  817   0.284   1.596   0.539 -1.0971 -0.7706  1.4122
  227SOL    HW2  818   0.263   1.716   0.630 -2.3304 -1.1260  1.6169
  228SOL     OW  819   3.419   0.285   3.480 -0.2458  0.3302  0.1987
  228SOL    HW1  820   3.358   0.340   3.430 -0.1105  0.4457  0.1594
  228SOL    HW2  821   3.502   0.292   3.433  0.1332  1.2107  0.9571
  229SOL     OW  822   2.083   2.893   1.832 -0.3966  0.3465  0.3588
  229SOL    HW1  823   2.065   2.849   1.749 -1.7416  0.7009  0.4492
  229SOL    HW2  824   1.998   2.899   1.876  0.4638 -0.8611  2.2887
  230SOL     OW  825   1.314   2.981   1.958  0.0003  0.5620 -0.3870
  230SOL    HW1  826   1.288   3.005   2.047 -1.7623 -0.3994 -0.6067
  230SOL    HW2  827   1.251   2.915   1.931  0.7657  0.5152 -2.2088
  231SOL     OW  828   1.716   0.430   2.547  0.1859 -0.1811  0.1552
  231SOL    HW1  829   1.669   0.458   2.469  1.0149  0.7339 -0.0356
  231SOL    HW2  830   1.794   0.486   2.550  1.4859 -1.8923  0.2348
  232SOL     OW  831   3.503   1.764   2.467 -0.1278  0.0373  0.2319
  232SOL    HW1  832   3.555   1.841   2.487 -3.7174  2.4135  1.4512
  232SOL    HW2  833   3.471   1.779   2.378  1.0493 -1.3079 -0.4505
  233SOL     OW  834   0.346   1.851   0.103  0.1975 -0.0301 -0.0404
  233SOL    HW1  835   0.363   1.766   0.061 -2.2747  0.3191 -1.9554
  233SOL    HW2  836   0.344   1.831   0.197 -2.2257 -2.5371 -0.5031
  234SOL     OW  837   3.231   2.536   3.521  0.1816  0.1599 -0.2123
  234SOL    HW1  838   3.252   2.611   3.466  3.0638 -1.0703 -0.9615
  234SOL    HW2  839   3.266   2.558   3.607 -0.9729  0.5449  0.1764
  235SOL     OW  840   1.598   2.648   3.633 -0.1560  0.2379 -0.3143
  235SOL    HW1  841   1.632   2.728   3.675 -1.1152 -0.5015  2.0034
  235SOL    HW2  842   1.674   2.590   3.628 -0.3174 -0.2490  1.9604
  236SOL     OW  843   0.552   2.190   0.665 -0.0782 -0.6512 -0.4297
  236SOL    HW1  844   0.551   2.254   0.594  0.0137  1.4204  1.2988
  236SOL    HW2  845   0.615   2.123   0.637  0.7446  0.6470 -1.8340
  237SOL     OW  846   0.632   0.095   0.733 -0.2214 -0.1053 -1.0780
  237SOL    HW1  847   0.704   0.158   0.738  2.3531 -2.8453 -0.8637
  237SOL    HW2  848   0.620   0.065   0.823 -0.8682 -0.4674 -1.2802
  238SOL     OW  849   1.087   3.385   0.807  0.1887  0.2070  0.2083
  238SOL    HW1  850   1.164   3.387   0.863 -0.2575 -0.6222  0.8811
  238SOL    HW2  851   1.092   3.299   0.764 -1.6465 -0.9979  2.1904
  239SOL     OW  852   0.767   3.424   3.601 -0.0301  0.3793  0.1828
  239SOL    HW1  853   0.742   3.344   3.554  0.9684  0.1788 -0.0273
  239SOL    HW2  854   0.857   3.442   3.573  0.1289  0.9900  1.0209
  240SOL     OW  855   0.645   2.738   0.299  0.0884  0.4348 -0.3388
  240SOL    HW1  856   0.720   2.748   0.241  0.4923 -1.1066 -0.1255
  240SOL    HW2  857   0.683   2.727   0.387 -0.4127  0.5568 -0.1031
  241SOL     OW  858   1.868   1.254   1.499 -0.5482  0.4892  0.2851
  241SOL    HW1  859   1.803   1.322   1.482 -2.2589 -0.6703  1.8875
  241SOL    HW2  860   1.938   1.300   1.545  0.5238  2.0289 -2.6078
  242SOL     OW  861   2.416   1.802   2.531  0.2718  0.7761 -0.2304
  242SOL    HW1  862   2.498   1.822   2.577 -0.4389  0.1437  1.4131
  242SOL    HW2  863   2.378   1.730   2.582 -0.8944  0.4915 -1.4647
  243SOL     OW  864   0.168   3.506   0.727  0.9266 -0.3807 -1.0037
  243SOL    HW1  865   0.197   3.453   0.652  0.7307  0.2464 -1.5310
  243SOL    HW2  866   0.117   3.577   0.688 -1.4692 -1.4950 -0.1377
  244SOL     OW  867   2.037   0.861   2.166  0.5750  0.0978 -0.0768
  244SOL    HW1  868   1.957   0.847   2.116  0.5919  1.1732 -0.4279
  244SOL    HW2  869   2.068   0.948   2.139 -0.5229  1.6705  3.2464
  245SOL     OW  870   2.983   2.132   2.275 -0.3486  0.2665 -0.4352
  245SOL    HW1  871   2.936   2.149   2.356 -0.2622 -0.6209 -0.1806
  245SOL    HW2  872   2.915   2.124   2.208 -0.3818  1.6222 -0.5806
  246SOL     OW  873   0.153   0.485   2.088  0.4126  0.2902 -0.2686
  246SOL    HW1  874   0.171   0.434   2.166  1.1663  0.5892 -0.2386
  246SOL    HW2  875   0.239   0.515   2.058  0.0079  1.3524 -0.4085
  247SOL     OW  876   1.889   3.648   3.192 -0.3328 -0.1430  0.9536
  247SOL    HW1  877   1.865   3.741   3.186 -2.6494 -0.4721  3.2667
  247SOL    HW2  878   1.844   3.607   3.118 -0.2210  0.4215  0.5663
  248SOL     OW  879   2.947   3.162   3.100 -0.3937  0.6547 -0.5759
  248SOL    HW1  880   2.967   3.250   3.069  0.3856  0.3744 -0.9207
  248SOL    HW2  881   3.008   3.147   3.172  0.3436 -0.0325 -1.3108
  249SOL     OW  882   3.376   2.273   0.712  0.5346 -1.1449 -0.1409
  249SOL    HW1  883   3.296   2.325   0.718 -1.3262 -3.7781 -0.1472
  249SOL    HW2  884   3.428   2.299   0.787 -1.2609 -0.7230  1.0168
  250SOL     OW  885   0.120   1.747   3.005  0.6503 -0.4262  0.0723
  250SOL    HW1  886   0.210   1.767   2.979  0.5678  2.4361  1.5655
  250SOL    HW2  887   0.121   1.655   3.028  3.2297 -0.4417  0.1137
  251SOL     OW  888   0.303   0.543   1.434 -0.6734  0.1264 -0.1572
  251SOL    HW1  889   0.321   0.548   1.528  1.0418  0.0767 -0.4446
  251SOL    HW2  890   0.278   0.632   1.409  0.7701  0.6131  0.0307
  252SOL     OW  891   1.767   3.483   1.569  0.0237  0.3490  0.6404
  252SOL    HW1  892   1.671   3.486   1.574  0.0088 -0.3487  1.0855
  252SOL    HW2  893   1.790   3.542   1.498 -0.9209 -1.4851 -1.3272
  253SOL     OW  894   2.938   2.374   2.660 -0.0168 -0.4213  0.0661
  253SOL    HW1  895   3.019   2.412   2.626  0.1596 -0.8214  0.0366
  253SOL    HW2  896   2.886   2.450   2.687  0.1223 -0.1321 -0.4607
  254SOL     OW  897   3.020   2.254   0.339 -0.5201 -0.0277  0.1758
  254SOL    HW1  898   3.080   2.189   0.377 -0.7051 -0.3041 -0.0015
  254SOL    HW2  899   3.039   2.335   0.387  1.1519  0.3020 -0.9879
  255SOL     OW  900   1.960   0.089   0.199  0.3351  0.3883 -0.2757
  255SOL    HW1  901   1.932   0.163   0.253 -0.8468 -1.0679  1.2061
  255SOL    HW2  902   1.889   0.075   0.138  0.5337  0.4317 -0.5187
  256SOL     OW  903   1.129   0.737   1.631 -0.0799  0.4510  0.1537
  256SOL    HW1  904   1.055   0.763   1.686 -0.5144 -0.2511 -0.0920
  256SOL    HW2  905   1.140   0.643   1.649  0.5801  0.4970 -0.0083
  257SOL     OW  906   2.474   2.622   1.470  0.0724 -0.4094  0.3882
  257SOL    HW1  907   2.477   2.650   1.378  1.2505  1.7928  1.0462
  257SOL    HW2  908   2.388   2.649   1.501 -0.0682 -0.5448  0.1204
  258SOL     OW  909   1.734   0.636   0.508  0.1266 -0.1944  0.1567
  258SOL    HW1  910   1.817   0.601   0.477 -0.1420  0.0837 -0.9380
  258SOL    HW2  911   1.673   0.619   0.436 -0.4311  0.8604  0.3625
  259SOL     OW  912   0.210   1.134   2.173 -0.0198  0.1367  0.3056
  259SOL    HW1  913   0.272   1.206   2.162  0.1748 -0.2772 -1.6625
  259SOL    HW2  914   0.131   1.176   2.209  0.1145  1.3439 -0.7186
  260SOL     OW  915   1.931   0.771   1.584  0.6315 -0.4791 -0.0804
  260SOL    HW1  916   1.865   0.839   1.569 -1.4263 -2.1029  1.0504
  260SOL    HW2  917   1.960   0.747   1.496 -0.8486 -0.2032 -0.6801
  261SOL     OW  918   1.267   0.416   0.688  0.4774  0.1536  0.3312
  261SOL    HW1  919   1.172   0.421   0.692  0.4962  2.2467 -0.6670
  261SOL    HW2  920   1.292   0.364   0.765 -1.4031  0.2954  1.0755
  262SOL     OW  921   0.487   0.591   3.535 -0.0249  0.3045  0.2074
  262SOL    HW1  922   0.528   0.674   3.561  1.3797 -0.3382  0.1233
  262SOL    HW2  923   0.424   0.616   3.467 -1.4413  1.6061  1.8812
  263SOL     OW  924   0.295   2.212   2.536  0.2035 -0.8437 -0.1317
  263SOL    HW1  925   0.364   2.223   2.471  0.6447 -0.9752  0.3089
  263SOL    HW2  926   0.217   2.250   2.495  1.0368  1.4970  0.2735
  264SOL     OW  927   0.076   0.532   0.473 -0.7581  0.1731  0.4572
  264SOL    HW1  928  -0.013   0.553   0.502 -0.8411  0.2705  0.1272
  264SOL    HW2  929   0.067   0.449   0.426 -0.6740  0.1895  0.4123
  265SOL     OW  930   1.731   3.239   0.112  0.9738 -0.0611 -0.3994
  265SOL    HW1  931   1.696   3.161   0.155  0.9392  0.2518  0.1492
  265SOL    HW2  932   1.812   3.258   0.159  0.8877  0.3394 -0.4098
  266SOL     OW  933   1.025   0.374   0.738  0.2980  0.4996 -1.4585
  266SOL    HW1  934   0.973   0.347   0.662  0.3848 -0.9281 -1.0376
  266SOL    HW2  935   0.967   0.431   0.788 -1.1210 -1.5123 -0.7019
  267SOL     OW  936   1.957   1.628   1.977  0.1859 -0.3471 -0.5563
  267SOL    HW1  937   1.901   1.688   1.928 -0.9355 -0.7059  0.2499
  267SOL    HW2  938   1.897   1.565   2.015  0.8744  0.5471  2.2096
  268SOL     OW  939   2.220   2.868   2.904 -0.0257  0.5480  0.3640
  268SOL    HW1  940   2.305   2.896   2.870 -0.2093 -0.8862 -1.4217
  268SOL    HW2  941   2.156   2.916   2.852 -0.3095 -0.4640 -0.2340
  269SOL     OW  942   1.528   2.046   3.445 -0.1139 -0.5576 -0.5324
  269SOL    HW1  943   1.443   2.070   3.408 -1.4989 -0.7615  2.2668
  269SOL    HW2  944   1.580   2.018   3.370 -1.7401  1.6544 -2.6386
  270SOL     OW  945   2.039   0.578   1.416 -0.1502  0.9828  0.4194
  270SOL    HW1  946   2.106   0.510   1.421 -2.0965 -1.0264  0.6621
  270SOL    HW2  947   2.053   0.620   1.331 -0.5283 -1.5627 -0.9719
  271SOL     OW  948   2.398   3.003   1.027  0.2523 -0.5364 -0.0258
  271SOL    HW1  949   2.392   3.033   0.936  2.7049  1.2112  0.3017
  271SOL    HW2  950   2.461   3.063   1.068  0.8722 -2.6201  2.2777
  272SOL     OW  951   0.108   3.334   3.332 -0.0657 -0.2599 -0.6591
  272SOL    HW1  952   0.124   3.300   3.243 -0.8524  2.2767 -1.8512
  272SOL    HW2  953   0.162   3.413   3.337 -0.1730 -0.2618  1.1071
  273SOL     OW  954   0.541   3.268   0.640  0.1798 -0.1355 -0.0147
  273SOL    HW1  955   0.504   3.352   0.667  1.6515  0.6174 -0.2078
  273SOL    HW2  956   0.631   3.269   0.674  0.4438 -1.3477 -0.6015
  274SOL     OW  957   1.803   1.731   1.299  0.1874  0.2552  0.2097
  274SOL    HW1  958   1.815   1.649   1.251 -1.5400  1.3107 -2.2433
  274SOL    HW2  959   1.880   1.783   1.277 -0.5386  0.6863 -1.4301
  275SOL     OW  960   1.030   1.505   0.383 -0.5047 -0.2878 -0.4122
  275SOL    HW1  961   1.072   1.456   0.455  2.2266 -0.1780 -1.8051
  275SOL    HW2  962   0.978   1.573   0.427  2.8954  1.2725  1.5653
  276SOL     OW  963   3.539   3.176   3.123 -0.4163 -0.1053 -0.5193
  276SOL    HW1  964   3.595   3.171   3.200 -0.0132 -2.5075 -0.8893
  276SOL    HW2  965   3.491   3.093   3.122  0.5531 -0.7741 -3.4967
  277SOL     OW  966   3.169   3.204   3.361 -0.1683  1.1429 -0.1782
  277SOL    HW1  967   3.232   3.134   3.341 -0.1566  1.0409  0.2219
  277SOL    HW2  968   3.211   3.284   3.326  0.5063  1.1870  0.7001
  278SOL     OW  969   3.416   2.921   3.096 -0.4601  0.4370  0.5288
  278SOL    HW1  970   3.416   2.907   3.191  0.1850 -1.1747  0.3185
  278SOL    HW2  971   3.497   2.880   3.066  0.1213  2.2460 -0.5613
  279SOL     OW  972   1.581   0.659   3.602 -0.2016 -0.2776 -0.1236
  279SOL    HW1  973   1.569   0.718   3.676 -0.3985 -0.1015 -0.2946
  279SOL    HW2  974   1.518   0.589   3.616 -0.7745  0.1484 -0.5176
  280SOL     OW  975   3.397   2.320   0.188  0.1314 -0.1102 -0.1146
  280SOL    HW1  976   3.418   2.359   0.273  1.3108 -0.4088 -0.2507
  280SOL    HW2  977   3.482   2.304   0.147 -0.2442 -2.9626 -0.0012
  281SOL     OW  978   2.952   0.568   1.518 -0.3582  0.4337  0.1221
  281SOL    HW1  979   2.869   0.572   1.566 -1.6263 -0.2651 -1.8950
  281SOL    HW2  980   2.966   0.474   1.502  0.9846  0.5183  0.6703
  282SOL     OW  981   3.252   0.141   0.741  0.1963  0.4419 -0.2276
  282SOL    HW1  982   3.298   0.077   0.795 -0.4879  0.3053  0.2013
  282SOL    HW2  983   3.271   0.114   0.651  1.1012  0.5005 -0.0667
  283SOL     OW  984   0.722   0.682   1.744 -0.3672  0.1087  0.5332
  283SOL    HW1  985   0.768   0.765   1.734  1.7431 -0.9228  0.9621
  283SOL    HW2  986   0.725   0.664   1.838  0.7324 -1.2245  0.2732
  284SOL     OW  987   3.639   3.042   3.400  0.4013  1.1180 -0.2454
  284SOL    HW1  988   3.553   3.003   3.389  1.9880 -2.5418 -1.1632
  284SOL    HW2  989   3.639   3.075   3.490 -1.5765  0.1805  0.1553
  285SOL     OW  990   2.489   2.094   0.945 -0.5666  0.5277  0.5001
  285SOL    HW1  991   2.426   2.117   0.877  0.5116 -0.6100 -0.9610
  285SOL    HW2  992   2.569   2.073   0.897 -0.0270 -1.2121  2.0284
  286SOL     OW  993   0.990   2.345   1.424  0.1314 -0.7561  0.8053
  286SOL    HW1  994   1.078   2.312   1.444 -0.1771 -0.9502  1.9092
  286SOL    HW2  995   1.004   2.407   1.353  1.2352 -0.4237  1.2829
  287SOL     OW  996   2.934   1.940   1.856 -0.8559 -0.2597 -0.1497
  287SOL    HW1  997   2.963   2.023   1.893  2.8911 -1.3637 -0.2016
  287SOL    HW2  998   2.971   1.939   1.768 -1.6007 -1.6041 -0.4736
  288SOL     OW  999   0.781   0.258   1.396 -0.8054  0.0535  0.2987
  288SOL    HW1 1000   0.877   0.264   1.406 -0.6613  1.8537 -1.4603
  288SOL    HW2 1001   0.747   0.308   1.469 -0.5456 -2.3000  2.1421
  289SOL     OW 1002   1.370   1.718   3.252 -0.3623 -0.3471  0.0076
  289SOL    HW1 1003   1.335   1.632   3.277 -0.7271  0.6156  3.2720
  289SOL    HW2 1004   1.449   1.698   3.201  0.7226 -2.6941  2.3801
  290SOL     OW 1005   1.489  -0.007   2.590  0.0855 -0.3773 -0.3050
  290SOL    HW1 1006   1.477   0.079   2.550 -0.3682 -0.3245 -0.0685
  290SOL    HW2 1007   1.400  -0.036   2.612  0.3204 -0.3529  0.7569
  291SOL     OW 1008   2.707   0.786   2.482 -0.1815  0.1320 -0.1422
  291SOL    HW1 1009   2.682   0.694   2.492  0.0197  0.0779 -0.1281
  291SOL    HW2 1010   2.777   0.799   2.546  0.5506 -0.0055 -0.8912
  292SOL     OW 1011   3.429   2.164   2.477 -0.3134 -0.3368 -0.5672
  292SOL    HW1 1012   3.339   2.164   2.509 -0.6161 -0.5382 -1.3933
  292SOL    HW2 1013   3.474   2.229   2.531 -0.9674 -0.1754 -0.2048
  293SOL     OW 1014   0.826   1.277   1.428 -0.7077 -0.3283 -0.1322
  293SOL    HW1 1015   0.801   1.362   1.392 -0.8755 -0.4773 -0.3703
  293SOL    HW2 1016   0.801   1.214   1.360  0.2220 -0.4933 -0.3361
  294SOL     OW 1017   0.478   1.870   1.381  0.6305 -0.0902 -0.4621
  294SOL    HW1 1018   0.397   1.876   1.431 -0.6789 -1.1796 -2.3675
  294SOL    HW2 1019   0.475   1.784   1.339  1.8497  0.6130 -2.1236
  295SOL     OW 1020   0.073   0.882   3.040 -0.1133 -0.1419 -0.0643
  295SOL    HW1 1021   0.062   0.972   3.011  0.6813 -0.2008 -0.5760
  295SOL    HW2 1022   0.155   0.882   3.090 -0.3101 -0.4972  0.2624
  296SOL     OW 1023   0.740   3.028   1.069  0.3814  0.0937  0.1040
  296SOL    HW1 1024   0.768   2.972   1.141 -0.2605 -1.4217 -0.7744
  296SOL    HW2 1025   0.799   3.103   1.073  1.8610 -1.0526  0.7900
  297SOL     OW 1026   3.257   1.413   3.425 -0.2641 -0.2876  0.7664
  297SOL    HW1 1027   3.315   1.480   3.388 -0.8280  0.4307  1.1572
  297SOL    HW2 1028   3.304   1.381   3.503  0.2999 -0.8234  0.2155
  298SOL     OW 1029   2.087   0.343   3.180 -0.3394 -0.0524 -0.4848
  298SOL    HW1 1030   2.065   0.436   3.184  0.6346  0.1569  0.4666
  298SOL    HW2 1031   2.161   0.338   3.119  0.2609 -0.0487  0.2236
  299SOL     OW 1032   0.508   1.295   2.756  0.2267 -0.0183 -0.3309
  299SOL    HW1 1033   0.476   1.321   2.669 -0.3878  0.4522  0.0216
  299SOL    HW2 1034   0.454   1.346   2.817 -0.1675 -1.2194  0.3584
  300SOL     OW 1035   0.285   0.263   2.918  0.2097 -1.0644 -0.5191
  300SOL    HW1 1036   0.367   0.275   2.965  0.0566  0.7569 -0.6360
  300SOL    HW2 1037   0.226   0.224   2.982  1.0714 -2.1946 -0.3760
  301SOL     OW 1038   2.908   0.940   0.008 -0.4288 -0.1861 -0.4958
  301SOL    HW1 1039   2.964   0.878   0.055 -0.1687  0.2731 -0.1902
  301SOL    HW2 1040   2.819   0.913   0.029 -0.3192  0.2790  0.6412
  302SOL     OW 1041   1.785   3.572   0.191  1.1217 -0.1712 -0.3340
  302SOL    HW1 1042   1.858   3.570   0.130  1.2213  1.1168 -0.2896
  302SOL    HW2 1043   1.825   3.575   0.277  1.0356  0.8981 -0.3224
  303SOL     OW 1044   0.051   2.459   1.412 -0.4037  0.7481  0.2351
  303SOL    HW1 1045   0.047   2.380   1.359  0.2896 -0.2285  1.6057
  303SOL    HW2 1046  -0.041   2.487   1.420 -0.9343 -1.1886  1.5863
  304SOL     OW 1047   3.584   3.725   3.107  0.0003  0.0366 -0.1340
  304SOL    HW1 1048   3.564   3.641   3.149  0.9597 -0.1524 -0.0260
  304SOL    HW2 1049   3.518   3.785   3.141 -0.7322 -0.6854 -0.2560
  305SOL     OW 1050   3.160   2.637   2.436  0.4789 -0.3766 -0.6276
  305SOL    HW1 1051   3.123   2.584   2.366  0.9849 -0.8366 -0.5560
  305SOL    HW2 1052   3.164   2.579   2.511  0.0586  0.0766 -0.2465
  306SOL     OW 1053   3.340   0.843   0.628  0.3192  0.0476  0.2374
  306SOL    HW1 1054   3.365   0.796   0.707  0.6303  0.1934  0.2285
  306SOL    HW2 1055   3.278   0.910   0.658  1.8375  1.3274  0.6617
  307SOL     OW 1056   0.302   0.633   2.617 -0.3333 -0.2095  0.2719
  307SOL    HW1 1057   0.381   0.677   2.648 -0.6846  1.0931 -0.6166
  307SOL    HW2 1058   0.307   0.545   2.656 -0.2997  0.9953  3.2290
  308SOL     OW 1059   2.756   1.033   3.290 -0.6606  0.8779  0.1640
  308SOL    HW1 1060   2.698   1.001   3.359 -1.7070  3.1640  0.4312
  308SOL    HW2 1061   2.720   1.119   3.267  0.8557  1.0359 -1.8255
  309SOL     OW 1062   1.854   1.496   1.152 -0.1429 -1.2833  0.7533
  309SOL    HW1 1063   1.931   1.443   1.173 -0.6143 -2.1108  0.4056
  309SOL    HW2 1064   1.836   1.476   1.060  0.6471  0.7176  0.1043
  310SOL     OW 1065   0.942   2.334   2.966  0.6330  0.2806 -0.3849
  310SOL    HW1 1066   1.021   2.306   2.919  0.7814 -0.2240  0.1540
  310SOL    HW2 1067   0.911   2.255   3.010  0.9437  0.9064  1.0110
  311SOL     OW 1068   0.415   0.348   3.658  0.5883  0.4547 -0.7078
  311SOL    HW1 1069   0.430   0.437   3.624 -1.4713  0.4524 -1.7770
  311SOL    HW2 1070   0.382   0.299   3.583 -2.4567 -0.0434  0.8217
  312SOL     OW 1071   2.241   3.532   3.701 -0.4992 -0.1962 -0.1314
  312SOL    HW1 1072   2.300   3.510   3.773  0.9174 -0.4270 -1.3074
  312SOL    HW2 1073   2.268   3.619   3.673 -1.4127  0.1265 -0.0395
  313SOL     OW 1074   3.006   1.915   1.587  0.0681  0.0961 -0.9322
  313SOL    HW1 1075   3.033   1.836   1.543 -0.0125 -0.2023 -0.4572
  313SOL    HW2 1076   2.911   1.918   1.575  0.1694  0.5492 -1.6398
  314SOL     OW 1077   1.865   1.987   1.452 -0.0981 -0.3161  0.7653
  314SOL    HW1 1078   1.950   2.010   1.415  1.0743 -0.3093  3.2496
  314SOL    HW2 1079   1.813   1.958   1.377  0.4633  4.0062 -1.6258
  315SOL     OW 1080   1.854   2.097   3.552  0.8921 -0.2460  0.1381
  315SOL    HW1 1081   1.832   2.123   3.462  1.5223  0.6106  0.2211
  315SOL    HW2 1082   1.913   2.165   3.583  0.3353 -0.2987  1.3658
  316SOL     OW 1083   2.251   3.249   3.692  0.7396  0.3400 -0.2891
  316SOL    HW1 1084   2.231   3.342   3.689 -3.8851 -0.2711  2.6462
  316SOL    HW2 1085   2.266   3.225   3.601 -3.5812  3.0721 -2.0230
  317SOL     OW 1086   3.725   1.837   0.799  0.8458  0.0158 -0.1735
  317SOL    HW1 1087   3.719   1.814   0.706  0.8274 -0.2203 -0.1152
  317SOL    HW2 1088   3.692   1.759   0.844  0.5969  0.2343  0.0202
  318SOL     OW 1089   3.192   2.228   3.052 -0.0492  0.4940  0.4326
  318SOL    HW1 1090   3.209   2.141   3.016 -0.6744  0.4672  0.1916
  318SOL    HW2 1091   3.167   2.212   3.143 -1.4325  0.2942  0.0442
  319SOL     OW 1092   3.628   3.267   0.632  0.1794 -0.7776 -0.1817
  319SOL    HW1 1093   3.689   3.310   0.572  2.0364 -1.1102  1.3231
  319SOL    HW2 1094   3.606   3.334   0.696 -0.8995 -0.7297 -0.5825
  320SOL     OW 1095   0.581   0.217   3.090  1.0812 -0.1745 -0.0172
  320SOL    HW1 1096   0.555   0.303   3.124 -0.3282 -0.9687  1.0351
  320SOL    HW2 1097   0.651   0.189   3.149  2.6901  0.8781 -1.3222
  321SOL     OW 1098   0.199   2.902   0.374  0.2764 -0.0759 -0.2068
  321SOL    HW1 1099   0.147   2.939   0.303  0.0900 -1.1475 -0.6567
  321SOL    HW2 1100   0.283   2.881   0.334  0.9281  1.2362  0.4098
  322SOL     OW 1101   0.575   1.491   2.042  0.0976 -0.3255  0.0626
  322SOL    HW1 1102   0.647   1.547   2.069  3.5441 -3.1624 -2.2508
  322SOL    HW2 1103   0.548   1.447   2.123  0.2772  1.4801  1.1471
  323SOL     OW 1104   1.307   2.548   1.815  0.3025 -0.1029  0.8153
  323SOL    HW1 1105   1.235   2.557   1.754  0.3849 -2.0188  0.3773
  323SOL    HW2 1106   1.266   2.547   1.902 -0.4615 -2.8418  0.5100
  324SOL     OW 1107   3.681   0.134   2.147  0.6305  0.1548 -0.4822
  324SOL    HW1 1108   3.774   0.149   2.131  0.3693 -0.0881 -2.4355
  324SOL    HW2 1109   3.670   0.040   2.133 -0.0082  0.2826 -0.8546
  325SOL     OW 1110   3.365   2.647   2.857  0.3873 -0.3434 -0.4816
  325SOL    HW1 1111   3.356   2.711   2.786  1.7722 -0.2841 -0.6361
  325SOL    HW2 1112   3.296   2.670   2.919 -0.4024  0.0457 -1.4732
  326SOL     OW 1113   2.649   0.195   2.195 -0.0057  0.2002 -0.7804
  326SOL    HW1 1114   2.613   0.198   2.106 -1.0727 -2.2374 -0.4994
  326SOL    HW2 1115   2.732   0.149   2.186 -0.4842 -0.7446 -0.4265
  327SOL     OW 1116   0.343   2.202   1.964 -0.4963 -0.4144  0.1972
  327SOL    HW1 1117   0.275   2.269   1.954 -1.8722 -1.5699  1.4026
  327SOL    HW2 1118   0.295   2.119   1.959  1.1321 -1.3306 -0.9793
  328SOL     OW 1119   3.646   2.585   3.756 -0.4388 -0.2276  0.0927
  328SOL    HW1 1120   3.682   2.630   3.679  0.6576 -2.3560 -0.7064
  328SOL    HW2 1121   3.597   2.512   3.720  1.4433 -2.2575  1.3801
  329SOL     OW 1122   0.909   1.496   1.921 -0.1560  0.5350 -0.3364
  329SOL    HW1 1123   0.988   1.441   1.921  0.3506  1.2549 -0.7258
  329SOL    HW2 1124   0.923   1.559   1.991 -0.3600  0.6936 -0.4376
  330SOL     OW 1125   0.540   2.397   3.170  0.3526  0.0505  0.0392
  330SOL    HW1 1126   0.474   2.368   3.106 -0.3514  2.1400 -0.2477
  330SOL    HW2 1127   0.492   2.404   3.252  0.8261 -0.7736  0.4050
  331SOL     OW 1128   2.611   2.780   1.976  0.4472 -0.2161 -0.0541
  331SOL    HW1 1129   2.670   2.705   1.979  0.0153 -0.6036 -0.8542
  331SOL    HW2 1130   2.575   2.787   2.064  0.8252 -0.6709  0.1372
  332SOL     OW 1131   0.760   2.719   1.106 -0.2943 -0.2467 -0.1654
  332SOL    HW1 1132   0.791   2.628   1.106 -1.3361 -0.7174  2.8977
  332SOL    HW2 1133   0.664   2.711   1.107 -0.3962  0.8474  0.5231
  333SOL     OW 1134   1.177   1.918   2.254  0.7511 -0.2084  0.4437
  333SOL    HW1 1135   1.189   2.000   2.207  0.1922 -0.7292 -0.6420
  333SOL    HW2 1136   1.231   1.928   2.333  2.2525  0.4285 -0.6056
  334SOL     OW 1137   0.939   1.792   0.986 -0.2728 -0.5140 -0.6287
  334SOL    HW1 1138   1.019   1.778   1.037 -0.6768 -2.0842 -0.3520
  334SOL    HW2 1139   0.871   1.809   1.052 -0.0777  1.4471 -0.8960
  335SOL     OW 1140   3.010   1.165   2.210  0.3919 -0.0430 -0.4343
  335SOL    HW1 1141   2.938   1.225   2.228  1.3999  1.5304 -1.3370
  335SOL    HW2 1142   2.983   1.081   2.247 -0.3068  1.3945  2.5604
  336SOL     OW 1143   1.099   3.379   1.568  0.6393  0.0496 -0.2318
  336SOL    HW1 1144   1.193   3.390   1.582  0.8550 -2.8911  1.5393
  336SOL    HW2 1145   1.072   3.316   1.635 -2.5718  0.6079 -0.8440
  337SOL     OW 1146   1.990   2.469   2.864 -0.6249 -0.3068  0.1062
  337SOL    HW1 1147   1.902   2.434   2.848 -0.5783 -0.0334 -0.8276
  337SOL    HW2 1148   1.999   2.540   2.800  0.9615 -1.5451 -1.1161
  338SOL     OW 1149   3.135   3.667   2.004 -0.4050 -0.0841  0.1098
  338SOL    HW1 1150   3.171   3.751   1.975 -0.0149 -0.4945 -0.6397
  338SOL    HW2 1151   3.203   3.631   2.061 -0.5571  0.0876  0.4026
  339SOL     OW 1152   1.865   1.120   2.315 -0.7943  0.5758 -0.2238
  339SOL    HW1 1153   1.883   1.174   2.238 -0.9185 -0.5143 -1.0423
  339SOL    HW2 1154   1.772   1.100   2.309 -0.8325  0.6032  0.2823
  340SOL     OW 1155   2.375   3.716   2.981 -0.2300 -0.5694  0.2049
  340SOL    HW1 1156   2.282   3.738   2.979 -0.5318 -1.4842  1.9719
  340SOL    HW2 1157   2.380   3.633   2.934 -0.4129 -0.7948  0.5740
  341SOL     OW 1158   3.069   1.171   1.939  0.0149  0.1176 -0.1403
  341SOL    HW1 1159   3.057   1.162   2.034  0.4436 -0.0870 -0.0978
  341SOL    HW2 1160   3.150   1.123   1.921 -0.0359  0.1974 -0.6047
  342SOL     OW 1161   1.102   1.651   1.754  0.7761 -0.0178 -0.8882
  342SOL    HW1 1162   1.034   1.600   1.708  3.4042 -1.7492 -3.2432
  342SOL    HW2 1163   1.157   1.584   1.796  1.6243  1.2284  0.0441
  343SOL     OW 1164   3.057   0.198   3.512 -0.3805 -0.4486  0.1211
  343SOL    HW1 1165   3.044   0.277   3.459  1.9704  0.4790  0.8106
  343SOL    HW2 1166   3.101   0.137   3.453  0.6052 -0.0790  0.4599
  344SOL     OW 1167   0.046   1.116   0.319  0.4377 -0.3985  0.0658
  344SOL    HW1 1168  -0.045   1.148   0.315  0.7662  1.1481  2.5418
  344SOL    HW2 1169   0.063   1.106   0.413  2.9432 -0.2830 -0.3226
  345SOL     OW 1170   1.740   3.020   2.250  0.0555 -0.6488  0.1880
  345SOL    HW1 1171   1.738   3.112   2.225 -0.2472 -0.7600 -0.2227
  345SOL    HW2 1172   1.676   3.012   2.321  0.3884 -0.4655  0.5107
  346SOL     OW 1173   0.709   0.719   3.143 -0.3162 -0.3110 -0.0559
  346SOL    HW1 1174   0.727   0.788   3.079  2.8626 -0.7657  0.1546
  346SOL    HW2 1175   0.779   0.727   3.208  0.3703 -3.7895 -0.1380
  347SOL     OW 1176   0.317   3.024   0.937 -0.4118 -0.3888 -0.0317
  347SOL    HW1 1177   0.317   3.072   1.020 -1.3339  0.0523 -0.2828
  347SOL    HW2 1178   0.227   3.030   0.905  0.0968  0.1130 -1.4455
  348SOL     OW 1179   0.297   2.587   1.489 -0.2399 -0.2451  0.2107
  348SOL    HW1 1180   0.216   2.581   1.438 -0.2028  1.0777 -0.0377
  348SOL    HW2 1181   0.276   2.645   1.561  0.4410 -0.0292  0.2393
  349SOL     OW 1182   2.407   1.541   3.547  0.3689 -0.1329  0.0432
  349SOL    HW1 1183   2.382   1.471   3.487 -0.5338 -0.6713  1.0063
  349SOL    HW2 1184   2.493   1.516   3.580 -1.2387 -2.5665  2.8337
  350SOL     OW 1185   2.886   3.093   1.293 -0.1848 -0.2033 -0.2325
  350SOL    HW1 1186   2.815   3.071   1.354  1.3979 -2.5703  0.9127
  350SOL    HW2 1187   2.851   3.071   1.206 -1.0579 -0.8523  0.2665
  351SOL     OW 1188   1.931   2.256   3.090  1.0725  0.2911  0.1710
  351SOL    HW1 1189   1.970   2.338   3.059  1.3969  0.8436  1.9659
  351SOL    HW2 1190   1.876   2.227   3.016  1.1015  2.0047 -0.5799
  352SOL     OW 1191   3.557   1.210   1.050 -0.5751 -0.1199 -0.2740
  352SOL    HW1 1192   3.581   1.280   0.990 -0.2527 -1.3086 -1.5681
  352SOL    HW2 1193   3.568   1.249   1.137  3.6720  0.2362 -0.7617
  353SOL     OW 1194   2.985   0.459   3.431 -0.4250 -0.6379  0.2878
  353SOL    HW1 1195   3.081   0.461   3.430 -0.4445  0.3438 -0.2250
  353SOL    HW2 1196   2.960   0.520   3.501 -0.6806 -0.9579  0.4792
  354SOL     OW 1197   0.550   0.083   0.985 -0.0149  0.4173 -0.0182
  354SOL    HW1 1198   0.548   0.017   1.054  2.9847 -0.2920 -0.4429
  354SOL    HW2 1199   0.572   0.164   1.031  0.3551  0.2787  0.0521
  355SOL     OW 1200   1.141   1.218   0.161 -0.6928  0.1406  0.0054
  355SOL    HW1 1201   1.076   1.280   0.129 -0.9249  0.3225  0.7999
  355SOL    HW2 1202   1.225   1.255   0.134 -0.9204 -0.3328 -1.4337
  356SOL     OW 1203   2.217   1.580   2.597 -0.2267  0.1683 -0.3319
  356SOL    HW1 1204   2.221   1.485   2.592 -1.8588  0.0261  0.2898
  356SOL    HW2 1205   2.125   1.601   2.580 -0.4497  1.4374  2.0249
  357SOL     OW 1206   1.265   1.481   3.354  0.3971  0.6691  0.4395
  357SOL    HW1 1207   1.361   1.478   3.355  0.4324  0.7547 -1.2858
  357SOL    HW2 1208   1.239   1.392   3.377  0.9668 -0.3366 -2.4545
  358SOL     OW 1209   1.657   0.726   3.006  0.1366  0.4803 -0.7644
  358SOL    HW1 1210   1.703   0.708   3.088 -1.6862 -0.7438  0.0581
  358SOL    HW2 1211   1.700   0.670   2.941  0.2193 -0.1676 -0.1635
  359SOL     OW 1212   0.982   1.768   2.973  0.3979  0.0184 -0.1048
  359SOL    HW1 1213   0.993   1.801   2.884 -0.1820 -1.5194 -0.7762
  359SOL    HW2 1214   1.047   1.816   3.024  1.6021  0.0392 -1.5856
  360SOL     OW 1215   2.309   3.473   2.696 -0.0556  0.4372  0.3669
  360SOL    HW1 1216   2.342   3.473   2.606  0.0572 -3.5678  0.2560
  360SOL    HW2 1217   2.388   3.471   2.750 -0.0477  4.5550  0.8393
  361SOL     OW 1218   0.463   1.227   2.070  0.2970 -0.5120  0.0667
  361SOL    HW1 1219   0.501   1.305   2.028 -1.1728 -0.3088 -0.9832
  361SOL    HW2 1220   0.530   1.197   2.130  2.3050 -0.4428 -2.0092
  362SOL     OW 1221   3.673   0.438   2.636  0.0058 -0.3346  0.3238
  362SOL    HW1 1222   3.756   0.453   2.682  0.2100  0.5666 -0.3024
  362SOL    HW2 1223   3.665   0.514   2.578  0.4234 -2.0921 -2.1403
  363SOL     OW 1224   0.163   1.318   1.380  0.0390 -0.2026  0.2296
  363SOL    HW1 1225   0.103   1.302   1.452 -1.6840  1.9219 -0.6566
  363SOL    HW2 1226   0.130   1.262   1.309 -0.9706  0.9922 -0.2693
  364SOL     OW 1227   1.508   1.946   2.071 -0.1215  0.0777  0.4784
  364SOL    HW1 1228   1.511   1.850   2.066  0.2554  0.0676  0.7939
  364SOL    HW2 1229   1.599   1.971   2.087 -0.2336  0.4854  0.4742
  365SOL     OW 1230   2.761   0.548   1.229 -0.4750  0.0285 -0.2523
  365SOL    HW1 1231   2.832   0.504   1.183 -0.5711  0.2928 -0.6588
  365SOL    HW2 1232   2.805   0.605   1.292 -0.2847  0.9765 -1.2122
  366SOL     OW 1233   2.078   0.198   2.777  0.4887  0.4757 -0.6075
  366SOL    HW1 1234   2.086   0.272   2.717 -0.9881  0.6268 -0.6513
  366SOL    HW2 1235   2.158   0.148   2.764  0.7540  1.1684 -1.7976
  367SOL     OW 1236   3.416   1.550   2.174 -0.4447 -0.0832  0.6403
  367SOL    HW1 1237   3.494   1.520   2.220 -0.7379 -0.5423  0.8477
  367SOL    HW2 1238   3.370   1.605   2.238 -0.8749 -0.7573  0.9214
  368SOL     OW 1239   2.634   3.188   2.058  0.2436  0.4375 -0.1880
  368SOL    HW1 1240   2.600   3.100   2.074 -1.2067  0.7436 -1.3581
  368SOL    HW2 1241   2.729   3.177   2.054  0.0345 -1.2779 -1.4191
  369SOL     OW 1242   1.214   3.691   2.390 -0.5819 -0.4679 -0.3026
  369SOL    HW1 1243   1.209   3.603   2.354 -0.3279 -0.7095  0.2570
  369SOL    HW2 1244   1.300   3.724   2.362 -0.0295 -0.9635  0.7794
  370SOL     OW 1245   1.638   1.944   3.693 -0.4264  0.5274 -0.1520
  370SOL    HW1 1246   1.628   1.890   3.614 -0.2396  0.4006 -0.0898
  370SOL    HW2 1247   1.684   2.023   3.663  1.0182 -0.1790  0.0965
  371SOL     OW 1248   1.301   0.557   3.327 -0.1749  0.2885  0.5086
  371SOL    HW1 1249   1.377   0.527   3.276 -0.1787 -0.2809  0.8281
  371SOL    HW2 1250   1.228   0.552   3.266 -0.4801 -1.9203  0.9780
  372SOL     OW 1251   0.828   3.664   2.667 -0.9062  0.7103  0.3575
  372SOL    HW1 1252   0.842   3.680   2.760  0.1613  0.6356  0.2193
  372SOL    HW2 1253   0.771   3.587   2.664  0.5402 -0.4299  0.9512
  373SOL     OW 1254   3.171   3.508   0.348  0.5652  0.5668  0.2751
  373SOL    HW1 1255   3.121   3.462   0.281  0.5408  0.2216  0.5262
  373SOL    HW2 1256   3.252   3.459   0.357  0.8353  0.9694  0.0622
  374SOL     OW 1257   0.613   1.765   0.291  0.1849  0.1872 -0.2829
  374SOL    HW1 1258   0.611   1.672   0.271  0.5932 -0.0300  0.6353
  374SOL    HW2 1259   0.525   1.783   0.326 -0.1388  0.3162 -1.1409
  375SOL     OW 1260   0.070   0.316   1.581 -0.3058 -0.3372 -0.4498
  375SOL    HW1 1261   0.087   0.233   1.624  0.0832  0.4439  0.9949
  375SOL    HW2 1262   0.057   0.294   1.489 -0.7467 -2.0349 -0.0077
  376SOL     OW 1263   3.342   0.828   0.906  0.9470 -0.5673 -0.0383
  376SOL    HW1 1264   3.293   0.806   0.985  0.8102 -0.2307 -0.0277
  376SOL    HW2 1265   3.327   0.921   0.893  1.1015 -0.5849 -0.3714
  377SOL     OW 1266   3.404   2.455   0.416  0.4998 -0.4448  0.9067
  377SOL    HW1 1267   3.464   2.467   0.490 -0.2113 -0.6071  1.5303
  377SOL    HW2 1268   3.322   2.494   0.447  0.7791  1.5417 -0.6523
  378SOL     OW 1269   2.076   3.128   0.379 -0.3540 -0.0472 -0.0897
  378SOL    HW1 1270   2.115   3.215   0.366  3.5614 -1.8639 -2.1339
  378SOL    HW2 1271   2.052   3.099   0.291 -1.7546 -0.9970  0.5832
  379SOL     OW 1272   2.333   1.273   2.412  0.0155 -0.2475  0.3475
  379SOL    HW1 1273   2.242   1.304   2.409 -0.4947 -1.7607 -0.8901
  379SOL    HW2 1274   2.349   1.235   2.326  1.9752  0.3161  0.4077
  380SOL     OW 1275   0.597   2.537   2.896  0.5066 -0.2459 -0.1291
  380SOL    HW1 1276   0.643   2.512   2.977  0.1087 -1.6127 -0.2908
  380SOL    HW2 1277   0.609   2.461   2.838  1.1189  0.8617 -1.5121
  381SOL     OW 1278   0.519   0.510   2.798  0.0181  0.5956 -0.1530
  381SOL    HW1 1279   0.523   0.518   2.893  1.8608  0.8620 -0.2330
  381SOL    HW2 1280   0.533   0.599   2.766  1.2175  0.2230 -0.6973
  382SOL     OW 1281   0.115   0.544   1.028 -0.2913  0.2682  0.3042
  382SOL    HW1 1282   0.208   0.557   1.044 -0.5043  1.9050  0.4552
  382SOL    HW2 1283   0.083   0.499   1.106 -0.0482  1.9374  1.4237
  383SOL     OW 1284   0.450   3.529   2.298  0.2563  0.6017  0.2563
  383SOL    HW1 1285   0.430   3.462   2.363  0.9108  1.5671  1.4970
  383SOL    HW2 1286   0.517   3.489   2.242 -0.1310 -0.1576  0.3324
  384SOL     OW 1287   1.072   0.307   1.274 -0.6828  0.5537 -0.0195
  384SOL    HW1 1288   1.075   0.304   1.178 -0.3436 -0.7512  0.0195
  384SOL    HW2 1289   1.064   0.216   1.301 -1.0968  0.9289  1.1975
  385SOL     OW 1290   0.637   2.539   1.377 -0.0854  0.8366  0.1557
  385SOL    HW1 1291   0.546   2.538   1.348 -0.2017 -1.5359  0.3653
  385SOL    HW2 1292   0.681   2.600   1.317 -1.2846 -0.0970 -1.7903
  386SOL     OW 1293   1.814   2.640   3.249 -0.0869 -0.5623 -0.4654
  386SOL    HW1 1294   1.808   2.716   3.307 -0.9033 -0.4023 -0.7451
  386SOL    HW2 1295   1.892   2.593   3.279 -0.3996 -0.3897  0.6455
  387SOL     OW 1296   1.263   3.008   3.338 -0.0143  0.4076 -0.3445
  387SOL    HW1 1297   1.188   3.054   3.375  0.2890  0.0508  0.7620
  387SOL    HW2 1298   1.235   2.917   3.332 -0.1051  0.4781 -1.1543
  388SOL     OW 1299   3.143   2.739   1.344  0.1298 -0.2202  0.0684
  388SOL    HW1 1300   3.167   2.682   1.271 -2.1373 -1.1255 -0.0609
  388SOL    HW2 1301   3.085   2.804   1.305 -0.3328 -0.1354  0.8852
  389SOL     OW 1302   2.272   0.701   3.232 -0.0002  0.7780 -0.0436
  389SOL    HW1 1303   2.226   0.784   3.245  1.1898  1.5620 -0.6356
  389SOL    HW2 1304   2.204   0.640   3.206 -1.0388  1.3424  1.2423
  390SOL     OW 1305   1.145   1.881   2.766  0.7851  0.1611  0.0093
  390SOL    HW1 1306   1.169   1.791   2.743  1.4783  0.2096  0.5181
  390SOL    HW2 1307   1.226   1.931   2.756  0.3326  0.7994 -0.5673
  391SOL     OW 1308   3.635   1.943   3.021 -0.3690  0.1696 -0.2482
  391SOL    HW1 1309   3.654   2.003   3.093 -2.3355 -1.7637  2.0279
  391SOL    HW2 1310   3.699   1.872   3.031  0.6712  0.8376 -1.7326
  392SOL     OW 1311   0.595   1.883   2.918  0.1711 -0.1832 -0.3545
  392SOL    HW1 1312   0.630   1.810   2.969 -1.3902 -0.7962 -0.0967
  392SOL    HW2 1313   0.667   1.946   2.914  1.5595 -1.7140 -0.5735
  393SOL     OW 1314   0.041   3.349   1.391 -0.6948 -0.2681 -0.9139
  393SOL    HW1 1315   0.097   3.283   1.434  0.3082  0.1440 -1.5624
  393SOL    HW2 1316  -0.030   3.363   1.454 -0.2033 -0.9774 -0.1654
  394SOL     OW 1317   3.021   2.501   0.470 -0.7008 -0.9501 -0.8282
  394SOL    HW1 1318   3.102   2.551   0.474 -0.1861 -1.7041 -1.4066
  394SOL    HW2 1319   2.964   2.551   0.412 -1.1991  0.3061  0.6684
  395SOL     OW 1320   0.499   3.146   1.108 -0.0264 -0.2232 -0.1896
  395SOL    HW1 1321   0.501   3.145   1.204  1.6510  1.8172 -0.1170
  395SOL    HW2 1322   0.575   3.094   1.083  0.1836  0.1539 -0.3507
  396SOL     OW 1323   3.491   2.032   3.508  0.3547 -0.3651 -0.1239
  396SOL    HW1 1324   3.408   2.061   3.470  1.1744  1.3450 -0.6974
  396SOL    HW2 1325   3.523   1.964   3.448  0.0132 -0.0684 -0.6504
  397SOL     OW 1326   1.098   3.253   3.193 -0.2846 -0.8076 -0.0265
  397SOL    HW1 1327   1.113   3.346   3.180  0.7261 -0.4575  2.8563
  397SOL    HW2 1328   1.175   3.211   3.154  0.6753 -0.1857  1.1499
  398SOL     OW 1329   2.263   0.386   2.988  0.4270 -0.3928  0.7172
  398SOL    HW1 1330   2.348   0.424   3.009  1.0409 -1.3873  0.0793
  398SOL    HW2 1331   2.264   0.376   2.893 -0.8833  0.6784  0.5466
  399SOL     OW 1332   0.754   2.518  -0.005  0.5967  0.3520  0.0214
  399SOL    HW1 1333   0.772   2.475   0.079  2.0213  0.7867 -0.0231
  399SOL    HW2 1334   0.830   2.495  -0.060 -1.1136 -1.4142 -1.8039
  400SOL     OW 1335   1.832   2.933   1.958  0.6761  0.2008  0.0191
  400SOL    HW1 1336   1.832   2.960   2.050 -1.0440  1.0121 -0.1882
  400SOL    HW2 1337   1.812   2.839   1.961  0.2386  0.3053  0.4502
  401SOL     OW 1338   1.700   0.977   0.425  0.3160 -0.8405 -0.5978
  401SOL    HW1 1339   1.662   0.980   0.337 -1.7250 -1.0471  0.2325
  401SOL    HW2 1340   1.625   0.983   0.484  1.7543  1.1299  1.1772
  402SOL     OW 1341   2.616   2.396   0.801  0.5669  0.0233  0.3170
  402SOL    HW1 1342   2.527   2.376   0.773  0.9301 -0.9934 -0.1387
  402SOL    HW2 1343   2.657   2.433   0.723  0.3888  1.0399  0.6880
  403SOL     OW 1344   1.513   2.076   1.538 -0.7727  0.3135  0.9501
  403SOL    HW1 1345   1.501   2.001   1.597 -2.1459 -0.5549 -0.3447
  403SOL    HW2 1346   1.454   2.143   1.571 -0.9596  0.1168  1.0149
  404SOL     OW 1347   1.767   2.898   3.394 -0.2672  0.8961 -0.6113
  404SOL    HW1 1348   1.679   2.906   3.356  0.0469 -0.5451 -1.7538
  404SOL    HW2 1349   1.813   2.976   3.362 -0.6120  0.7345 -1.5518
  405SOL     OW 1350   3.262   1.396   1.263 -0.3567  0.3114 -0.3226
  405SOL    HW1 1351   3.222   1.327   1.316 -0.5702  0.1937 -0.6319
  405SOL    HW2 1352   3.356   1.386   1.277 -0.3181 -0.7792 -1.2598
  406SOL     OW 1353   0.576   0.600   2.247  0.4657 -0.2736  0.0382
  406SOL    HW1 1354   0.507   0.586   2.182  0.6643  0.9228 -0.4659
  406SOL    HW2 1355   0.642   0.534   2.227  0.7963  0.4341 -1.3976
  407SOL     OW 1356   1.258   2.938   0.960 -0.6849 -0.2731 -0.5040
  407SOL    HW1 1357   1.300   3.011   1.005 -0.9474 -0.1122 -0.5186
  407SOL    HW2 1358   1.168   2.937   0.993 -0.8073 -0.3121 -0.8320
  408SOL     OW 1359   2.379   1.005   2.443  0.1103  0.0941 -0.4031
  408SOL    HW1 1360   2.318   1.032   2.374 -0.0847 -1.4866 -0.8989
  408SOL    HW2 1361   2.344   0.922   2.475  1.1007 -0.0161  0.4605
  409SOL     OW 1362   1.452   1.684   2.461  0.0303 -0.0674  0.0400
  409SOL    HW1 1363   1.505   1.616   2.501 -0.2894  0.3495  1.2269
  409SOL    HW2 1364   1.483   1.689   2.370 -0.3963 -2.2197 -0.2633
  410SOL     OW 1365   3.216   1.273   2.605 -0.2023  0.1110  0.1693
  410SOL    HW1 1366   3.254   1.316   2.683  2.1631 -0.7702 -0.4156
  410SOL    HW2 1367   3.145   1.219   2.640  0.5571  0.0268  1.6846
  411SOL     OW 1368   2.868   1.758   2.347  0.1010  1.0293  0.1924
  411SOL    HW1 1369   2.915   1.767   2.264  1.4368  1.2793  0.9498
  411SOL    HW2 1370   2.880   1.666   2.371  0.3075  1.1231  0.4482
  412SOL     OW 1371   1.182   1.416   1.543 -0.2203 -0.0232  0.5868
  412SOL    HW1 1372   1.126   1.494   1.542 -1.6956 -1.0164 -0.9557
  412SOL    HW2 1373   1.157   1.368   1.465  1.6628 -1.3728  0.7443
  413SOL     OW 1374   1.769   1.600   2.226  0.0132 -0.0194  0.8092
  413SOL    HW1 1375   1.777   1.689   2.260 -0.8635 -0.7248  2.9998
  413SOL    HW2 1376   1.676   1.591   2.204  0.0137 -0.5504  1.0219
  414SOL     OW 1377   1.838   3.376   2.889 -0.3891 -0.1375 -0.8952
  414SOL    HW1 1378   1.914   3.362   2.833 -0.4678  1.0074 -1.3234
  414SOL    HW2 1379   1.815   3.468   2.875 -0.8374 -0.0141  0.4828
  415SOL     OW 1380   1.360   3.626   1.300  0.0301  0.0228 -0.0107
  415SOL    HW1 1381   1.370   3.536   1.331 -0.8239 -0.3812 -0.8717
  415SOL    HW2 1382   1.306   3.619   1.221 -2.8466  1.5490  1.6483
  416SOL     OW 1383   1.498   2.708   2.822  0.5544 -0.3829 -0.2763
  416SOL    HW1 1384   1.552   2.754   2.758  1.8941 -1.4981 -0.0045
  416SOL    HW2 1385   1.464   2.776   2.879  1.5314  0.3729 -0.5764
  417SOL     OW 1386   3.112   3.328   2.251  0.5848 -0.2726 -0.5466
  417SOL    HW1 1387   3.174   3.399   2.231  0.6785  0.4436  1.9141
  417SOL    HW2 1388   3.164   3.248   2.243  0.9823  0.0689 -1.5286
  418SOL     OW 1389   1.975   3.559   3.441  0.1213  0.1250  0.6421
  418SOL    HW1 1390   1.900   3.589   3.388 -0.1944 -0.7289  0.5940
  418SOL    HW2 1391   2.052   3.587   3.391 -0.1218  2.1660  1.3240
  419SOL     OW 1392   0.697   3.266   3.059 -0.1061 -0.4123  0.0917
  419SOL    HW1 1393   0.754   3.342   3.069  0.3149 -0.3481 -2.1913
  419SOL    HW2 1394   0.611   3.302   3.039  0.1382 -0.4989 -1.1969
  420SOL     OW 1395   0.409   0.939   1.761  0.2872 -0.0995  0.3243
  420SOL    HW1 1396   0.398   0.945   1.856 -0.6623 -0.3858  0.2466
  420SOL    HW2 1397   0.333   0.889   1.731  1.3349 -1.2990 -0.4344
  421SOL     OW 1398   0.494   3.704   2.725 -0.1467  0.0656  0.4359
  421SOL    HW1 1399   0.513   3.797   2.715 -0.5943  0.2594  1.3192
  421SOL    HW2 1400   0.544   3.662   2.655  0.4912  0.9104  0.3696
  422SOL     OW 1401   1.810   1.588   2.649  0.0861  0.4020  0.0321
  422SOL    HW1 1402   1.841   1.587   2.739 -1.0002  0.7002  0.4343
  422SOL    HW2 1403   1.854   1.663   2.609  1.6302 -0.5315 -0.1143
  423SOL     OW 1404   1.780   1.347   3.239 -0.0719 -0.1143 -0.5555
  423SOL    HW1 1405   1.771   1.360   3.145 -1.1700  0.2247 -0.4122
  423SOL    HW2 1406   1.761   1.254   3.253 -2.9330  0.4219 -0.3521
  424SOL     OW 1407   2.884   2.617   1.646  0.4160 -0.0421 -0.5972
  424SOL    HW1 1408   2.885   2.698   1.697  1.0707 -0.6558  0.4108
  424SOL    HW2 1409   2.827   2.559   1.696  0.1516 -0.2883 -1.1820
  425SOL     OW 1410   3.286   3.437   1.375 -0.9732 -0.1067  0.3198
  425SOL    HW1 1411   3.380   3.431   1.393 -1.0023 -1.3843  0.1187
  425SOL    HW2 1412   3.258   3.517   1.419  0.0226 -0.2284  1.2000
  426SOL     OW 1413   0.272   0.349   1.829 -0.4142  0.6734 -0.3178
  426SOL    HW1 1414   0.222   0.336   1.749 -0.0478  0.6636 -0.5458
  426SOL    HW2 1415   0.307   0.438   1.822  0.2869  0.3847 -0.5453
  427SOL     OW 1416   2.814   3.076   2.350  0.0943  0.6214 -0.0193
  427SOL    HW1 1417   2.723   3.104   2.341 -0.0493  0.4473  0.8292
  427SOL    HW2 1418   2.823   3.050   2.442  0.2565 -2.0001 -0.7198
  428SOL     OW 1419   3.576   0.478   2.335 -0.0449  0.7873  0.1632
  428SOL    HW1 1420   3.586   0.392   2.377 -0.2737  0.8721  0.3873
  428SOL    HW2 1421   3.573   0.458   2.241  2.0750  0.7254  0.0597
  429SOL     OW 1422   2.264   0.316   0.423 -0.0782  0.2865 -0.0986
  429SOL    HW1 1423   2.239   0.293   0.334 -0.3953 -0.8011  0.2570
  429SOL    HW2 1424   2.240   0.239   0.475  0.2004  0.8660  0.9051
  430SOL     OW 1425   1.078   3.371   2.169 -0.8227 -0.0578 -0.2208
  430SOL    HW1 1426   1.160   3.348   2.213  0.5090  1.8347 -1.5246
  430SOL    HW2 1427   1.023   3.294   2.177  0.7328 -1.0587  1.5217
  431SOL     OW 1428   2.291   0.641   1.000  0.1676  0.0367  0.2120
  431SOL    HW1 1429   2.287   0.548   0.981 -1.1119  0.1844 -0.3596
  431SOL    HW2 1430   2.381   0.666   0.980  0.1312 -0.7861 -1.0632
  432SOL     OW 1431   2.031   3.378   2.669 -0.1433 -0.3854  0.5307
  432SOL    HW1 1432   2.119   3.403   2.642  0.0582 -3.1686 -1.9590
  432SOL    HW2 1433   1.978   3.455   2.652  1.1076 -0.0295 -2.3774
  433SOL     OW 1434   3.749   2.440   2.464 -0.3280 -0.8185 -0.4713
  433SOL    HW1 1435   3.710   2.461   2.549 -1.2036 -0.8080 -0.8565
  433SOL    HW2 1436   3.680   2.389   2.419 -0.3497  0.1943 -1.6291
  434SOL     OW 1437   1.627   0.197   3.160  0.4393  0.5370 -0.2701
  434SOL    HW1 1438   1.719   0.208   3.183  0.7383  2.2926 -2.0279
  434SOL    HW2 1439   1.586   0.281   3.182 -0.9237 -0.4490  1.1279
  435SOL     OW 1440   0.180   0.393   3.298 -0.5723 -0.3273  0.1006
  435SOL    HW1 1441   0.121   0.436   3.236 -1.6081  0.5060  1.6075
  435SOL    HW2 1442   0.243   0.460   3.323 -0.6600 -0.4126  0.5655
  436SOL     OW 1443   3.327   2.034   2.946  0.1032 -0.1419  0.2847
  436SOL    HW1 1444   3.405   2.083   2.971 -0.3237  0.1408  1.0793
  436SOL    HW2 1445   3.352   1.990   2.865  1.4334 -0.8959  1.0783
  437SOL     OW 1446   1.247   1.675   2.191  0.3065  0.8434 -0.4000
  437SOL    HW1 1447   1.190   1.614   2.238  0.4458  0.0834 -1.2062
  437SOL    HW2 1448   1.223   1.761   2.226  1.8319  0.1923  2.6166
  438SOL     OW 1449   2.982   2.801   3.236  0.4718 -1.2222 -0.0517
  438SOL    HW1 1450   2.888   2.801   3.215  0.6096 -0.5564 -0.7097
  438SOL    HW2 1451   2.986   2.834   3.325  0.2663  2.1304 -1.1373
  439SOL     OW 1452   0.540   1.830   3.501  0.1061 -0.2785 -0.4546
  439SOL    HW1 1453   0.530   1.744   3.542  0.5190  0.1087  0.4788
  439SOL    HW2 1454   0.589   1.882   3.565 -0.8633  0.9069 -0.6314
  440SOL     OW 1455   1.349   3.693   0.104 -0.3403  0.9153 -0.4004
  440SOL    HW1 1456   1.264   3.700   0.060 -1.5119  0.9416  1.7044
  440SOL    HW2 1457   1.349   3.606   0.143  1.6003  0.0479 -2.1474
  441SOL     OW 1458   0.090   3.215   2.480 -0.0115  0.0169 -0.2113
  441SOL    HW1 1459   0.052   3.277   2.417  0.9678  0.7120 -0.1402
  441SOL    HW2 1460   0.021   3.151   2.495 -0.6725  0.4949 -1.1099
  442SOL     OW 1461   2.970   0.632   0.540 -0.1050 -0.6907 -0.2815
  442SOL    HW1 1462   2.951   0.543   0.510 -0.7359 -0.2356 -1.2810
  442SOL    HW2 1463   3.023   0.620   0.619 -0.8101 -1.9667  0.0283
  443SOL     OW 1464   2.125   1.800   3.342  0.0872  0.1796 -0.1092
  443SOL    HW1 1465   2.148   1.887   3.307 -3.0642  0.6641 -1.3256
  443SOL    HW2 1466   2.127   1.811   3.437  0.1218  1.4963 -0.2435
  444SOL     OW 1467   0.468   3.122   3.491 -0.3774  0.6950 -0.3646
  444SOL    HW1 1468   0.527   3.054   3.458 -1.4953 -0.2457 -0.5084
  444SOL    HW2 1469   0.441   3.170   3.413  0.0058  0.9751 -0.3273
  445SOL     OW 1470   3.589   0.236   2.472 -0.4981 -0.1234  0.0020
  445SOL    HW1 1471   3.532   0.176   2.521 -2.3967  1.4286 -0.1727
  445SOL    HW2 1472   3.605   0.308   2.533  0.4086 -0.0184 -0.3467
  446SOL     OW 1473   0.721   3.617   0.051 -0.3195 -0.1176 -0.6390
  446SOL    HW1 1474   0.797   3.666   0.082 -0.4143  0.3370 -1.1046
  446SOL    HW2 1475   0.757   3.548  -0.004 -0.2412  0.1139 -0.8805
  447SOL     OW 1476   2.136   2.052   1.392 -0.5535  0.8837  0.1693
  447SOL    HW1 1477   2.217   2.013   1.425  0.8157  2.2811 -1.3636
  447SOL    HW2 1478   2.132   2.137   1.436 -2.0308  0.2342  1.3709
  448SOL     OW 1479   0.659   1.043   3.397 -0.5368 -0.7121 -0.1925
  448SOL    HW1 1480   0.753   1.057   3.399  0.0259 -3.9378  1.9626
  448SOL    HW2 1481   0.622   1.131   3.403  2.3616  0.5198  2.1786
  449SOL     OW 1482   3.299   0.921   1.565  0.0316 -0.4467 -0.0552
  449SOL    HW1 1483   3.247   0.878   1.632 -0.1963  0.0591  0.1020
  449SOL    HW2 1484   3.390   0.915   1.596  0.0410 -1.1095 -0.2075
  450SOL     OW 1485   1.955   2.707   2.140  0.4272  0.3863 -0.0790
  450SOL    HW1 1486   1.899   2.699   2.217 -0.4880  2.1276 -0.5128
  450SOL    HW2 1487   1.911   2.654   2.073 -0.3886  1.2228 -0.2267
  451SOL     OW 1488   0.483   3.354   2.015  0.0432 -0.3680  1.0148
  451SOL    HW1 1489   0.550   3.360   2.083 -0.0076  0.0468  1.0321
  451SOL    HW2 1490   0.428   3.280   2.042  0.0137 -0.1976  1.4365
  452SOL     OW 1491   0.032   1.555   2.803  0.6681 -0.0263 -0.3437
  452SOL    HW1 1492  -0.028   1.630   2.799 -2.3034 -2.1270  1.0822
  452SOL    HW2 1493   0.066   1.557   2.892 -0.8135 -1.2967  0.2804
  453SOL     OW 1494   1.008   1.491   2.234  0.7440 -0.2815  0.1170
  453SOL    HW1 1495   0.949   1.442   2.290 -0.0982 -1.6818 -1.8589
  453SOL    HW2 1496   1.048   1.425   2.177 -0.9384  1.2289 -3.1146
  454SOL     OW 1497   2.496   3.578   3.311 -0.9880  0.2400  0.7989
  454SOL    HW1 1498   2.559   3.550   3.245 -1.7022 -0.2002  0.2886
  454SOL    HW2 1499   2.462   3.662   3.277 -2.6011 -0.7935 -0.3027
  455SOL     OW 1500   1.747   1.890   2.371  0.5753  0.0892 -0.1699
  455SOL    HW1 1501   1.723   1.875   2.462  0.8755 -0.3493 -0.1603
  455SOL    HW2 1502   1.787   1.977   2.370  0.3309  0.2047  0.0670
  456SOL     OW 1503   0.054   0.526   1.776 -0.9199  0.5121 -0.5339
  456SOL    HW1 1504   0.034   0.458   1.712 -2.1473 -0.2469  0.6065
  456SOL    HW2 1505   0.052   0.481   1.861 -0.9057  1.7852  0.1669
  457SOL     OW 1506   1.313   2.269   2.493  0.3334 -0.0304 -0.3295
  457SOL    HW1 1507   1.333   2.192   2.439 -0.2995 -0.2939 -0.2017
  457SOL    HW2 1508   1.220   2.258   2.517 -0.0359  1.2444 -1.0747
  458SOL     OW 1509   1.237   1.478   2.423 -0.0317  0.3412  0.2725
  458SOL    HW1 1510   1.143   1.498   2.425  0.0412  0.8294 -0.4355
  458SOL    HW2 1511   1.274   1.549   2.370  0.6080 -0.3437 -0.2088
  459SOL     OW 1512   1.773   0.998   1.546  0.1217 -0.0014 -0.5321
  459SOL    HW1 1513   1.790   0.960   1.460 -0.3823 -0.2159 -0.5413
  459SOL    HW2 1514   1.806   1.087   1.541  0.1948 -0.0499 -0.9112
  460SOL     OW 1515   1.678   0.360   2.138 -0.4640 -0.2340  0.0966
  460SOL    HW1 1516   1.614   0.300   2.099  0.8027 -0.7374 -1.2671
  460SOL    HW2 1517   1.747   0.367   2.073  1.2382 -0.2722  1.8236
  461SOL     OW 1518   1.968   1.939   0.178  0.5258 -0.6998  0.0714
  461SOL    HW1 1519   1.981   1.854   0.135  0.6144 -0.9153  0.5208
  461SOL    HW2 1520   2.030   1.938   0.251 -1.9502 -1.7420  2.2918
  462SOL     OW 1521   3.380   3.191   2.555  0.2635  0.3366  0.6166
  462SOL    HW1 1522   3.318   3.150   2.494  0.6427 -1.2891  1.2753
  462SOL    HW2 1523   3.325   3.249   2.609 -0.3489  0.4504 -0.1046
  463SOL     OW 1524   3.070   2.988   2.584 -0.1629 -0.1002  0.6568
  463SOL    HW1 1525   3.001   2.922   2.571 -0.7136  0.5504  0.1611
  463SOL    HW2 1526   3.041   3.039   2.659 -0.9738  1.0733 -0.4129
  464SOL     OW 1527   3.523   1.193   1.800  1.2144 -0.0567  0.6982
  464SOL    HW1 1528   3.515   1.117   1.742 -0.5108  1.0303 -0.5828
  464SOL    HW2 1529   3.617   1.212   1.802  1.9500 -3.2206  2.4867
  465SOL     OW 1530   1.934   2.760   3.579 -0.2675 -0.4943  0.2959
  465SOL    HW1 1531   1.893   2.674   3.570 -0.4527 -0.3925  0.1576
  465SOL    HW2 1532   1.884   2.816   3.520 -3.3857  0.8872  3.8699
  466SOL     OW 1533   2.496   3.408   1.618  0.4820  0.4016  0.0900
  466SOL    HW1 1534   2.469   3.384   1.707 -1.6272  0.2557 -0.5588
  466SOL    HW2 1535   2.428   3.467   1.586  0.1767 -1.0080 -2.0920
  467SOL     OW 1536   0.435   1.118   1.056  0.5051  0.0662 -0.1783
  467SOL    HW1 1537   0.512   1.152   1.011 -0.6247 -1.0132 -3.1871
  467SOL    HW2 1538   0.371   1.189   1.053  0.6465  0.2283  0.4149
  468SOL     OW 1539   0.267   1.076   2.428 -0.2774  0.2606  0.1804
  468SOL    HW1 1540   0.191   1.076   2.486  0.2924  2.0432  1.0112
  468SOL    HW2 1541   0.230   1.079   2.340 -1.2690  2.6332  0.5922
  469SOL     OW 1542   2.495   2.913   2.804  0.2960  0.4143  0.7116
  469SOL    HW1 1543   2.540   2.994   2.826 -0.8611  0.8031  1.8019
  469SOL    HW2 1544   2.460   2.881   2.887 -1.8809  0.4353 -0.1122
  470SOL     OW 1545   0.680  -0.009   0.358 -0.3846 -0.4063 -0.0873
  470SOL    HW1 1546   0.697   0.067   0.414 -0.0664  0.8403 -1.7974
  470SOL    HW2 1547   0.600  -0.047   0.393 -0.3716  0.5341  1.0135
  471SOL     OW 1548   0.583   0.302   1.162 -0.1751 -0.4097  0.3756
  471SOL    HW1 1549   0.575   0.306   1.258 -1.5090  1.4058  0.2396
  471SOL    HW2 1550   0.675   0.325   1.146  0.1373 -1.0013  1.2217
  472SOL     OW 1551   1.141   1.874   3.154  0.3086 -0.3026  0.2605
  472SOL    HW1 1552   1.106   1.930   3.223 -1.0969  0.4831 -1.0441
  472SOL    HW2 1553   1.210   1.824   3.197 -0.1398  0.5695  2.0878
  473SOL     OW 1554   1.700   0.800   0.084  0.1528  0.0425 -0.8442
  473SOL    HW1 1555   1.694   0.895   0.092  1.5716  0.0356  0.9688
  473SOL    HW2 1556   1.794   0.781   0.087 -0.0691 -1.3908 -1.7713
  474SOL     OW 1557   3.324   2.308   1.303  0.5627 -0.2493  0.1388
  474SOL    HW1 1558   3.383   2.252   1.252  2.7108 -1.0725  3.2589
  474SOL    HW2 1559   3.242   2.258   1.307 -0.9390  1.2115 -4.8448
  475SOL     OW 1560   1.502   3.407   2.541 -1.0501  0.2699 -0.0671
  475SOL    HW1 1561   1.541   3.362   2.616 -3.3062 -0.5076  0.7074
  475SOL    HW2 1562   1.537   3.496   2.547 -0.3162 -0.0708  1.2578
  476SOL     OW 1563   0.001   2.082   3.219 -0.2126 -0.1417  0.4760
  476SOL    HW1 1564   0.083   2.047   3.255  0.2903  0.3037 -0.2119
  476SOL    HW2 1565   0.017   2.176   3.211 -1.0279  0.0465  0.9373
  477SOL     OW 1566   3.039   1.315   3.237  0.1656 -0.2788  0.1550
  477SOL    HW1 1567   3.052   1.246   3.302  1.3182 -0.5379 -0.3387
  477SOL    HW2 1568   3.114   1.373   3.247  0.3483 -0.3071 -0.9278
  478SOL     OW 1569   0.992   0.384   2.635  0.1167  0.1746 -0.1436
  478SOL    HW1 1570   1.076   0.343   2.656 -0.2359  0.2652  1.5529
  478SOL    HW2 1571   0.946   0.319   2.583  0.2964 -0.8665  0.9513
  479SOL     OW 1572   2.304   3.335   0.547  0.5524 -0.1005 -0.1485
  479SOL    HW1 1573   2.213   3.355   0.568  0.3623  0.9509 -1.7162
  479SOL    HW2 1574   2.314   3.365   0.456  2.8217  1.0946  0.4142
  480SOL     OW 1575   2.416   1.029   1.885 -0.0459  0.1937  0.2164
  480SOL    HW1 1576   2.352   1.083   1.931  0.0070 -0.3335  0.9157
  480SOL    HW2 1577   2.492   1.026   1.943  1.4339  2.4249 -1.4324
  481SOL     OW 1578   2.369   1.787   2.251 -0.2295 -0.2510 -0.5144
  481SOL    HW1 1579   2.379   1.787   2.346 -1.0120  1.5140 -0.3907
  481SOL    HW2 1580   2.300   1.724   2.233  1.3651 -2.1808 -0.1416
  482SOL     OW 1581   1.714   0.445   0.248  0.5390  0.2863  0.2098
  482SOL    HW1 1582   1.777   0.416   0.181 -0.8635 -3.3223  0.2496
  482SOL    HW2 1583   1.629   0.430   0.207 -0.3192  0.8237  1.7591
  483SOL     OW 1584   3.225   1.680   2.825  0.7214  0.3049 -0.5797
  483SOL    HW1 1585   3.186   1.724   2.750 -0.1044 -0.8880 -0.8828
  483SOL    HW2 1586   3.294   1.625   2.788  0.9740  0.4540 -0.3388
  484SOL     OW 1587   2.159   1.310   1.895  0.4602 -0.0930  1.0301
  484SOL    HW1 1588   2.122   1.380   1.841 -0.9680 -1.0356  0.7226
  484SOL    HW2 1589   2.207   1.255   1.833 -1.1768 -1.1734  0.6571
  485SOL     OW 1590   2.574   1.970   2.246  0.3186  0.2665 -0.1047
  485SOL    HW1 1591   2.507   1.911   2.212  0.4374  0.2046 -0.2331
  485SOL    HW2 1592   2.611   1.924   2.321  0.2125  0.3040 -0.0287
  486SOL     OW 1593   3.674   0.801   0.752  0.3232 -0.1803  0.6175
  486SOL    HW1 1594   3.763   0.835   0.757  0.1136  0.3034  1.2954
  486SOL    HW2 1595   3.628   0.861   0.694 -0.3744  1.5388  2.7937
  487SOL     OW 1596   1.251   2.109   2.065  0.3045 -0.5178 -0.2650
  487SOL    HW1 1597   1.320   2.044   2.051 -0.1570 -0.7801 -1.3477
  487SOL    HW2 1598   1.214   2.124   1.979  0.8140  1.6621 -0.1712
  488SOL     OW 1599   3.378   2.406   3.290 -0.0027  0.1392  0.1701
  488SOL    HW1 1600   3.332   2.488   3.272 -1.8568 -1.2974 -2.3063
  488SOL    HW2 1601   3.315   2.354   3.340  0.8232 -0.1374  0.9567
  489SOL     OW 1602   1.054   2.416   3.227 -0.8119 -0.1701  0.0558
  489SOL    HW1 1603   1.023   2.432   3.138  1.9592 -1.0675 -1.1749
  489SOL    HW2 1604   1.143   2.384   3.216  0.3381  1.4940  3.2691
  490SOL     OW 1605   2.923   2.758   2.570  0.2556  0.0733 -0.1169
  490SOL    HW1 1606   2.971   2.683   2.535 -0.4984 -0.3684 -0.2232
  490SOL    HW2 1607   2.843   2.720   2.606  1.4371  0.3106  3.1220
  491SOL     OW 1608   1.364   2.781   0.133  0.4307  0.0717  0.3554
  491SOL    HW1 1609   1.346   2.833   0.055 -0.4570 -1.7004 -0.6537
  491SOL    HW2 1610   1.441   2.729   0.111 -0.2851 -1.0119  0.3351
  492SOL     OW 1611   2.844   2.763   1.365 -0.0262 -0.7583 -0.1802
  492SOL    HW1 1612   2.778   2.704   1.400  0.0925 -0.7524  0.0626
  492SOL    HW2 1613   2.907   2.773   1.437 -0.6627  0.6062  0.2196
  493SOL     OW 1614   0.826   2.387   0.225  0.6589 -0.3266  0.3299
  493SOL    HW1 1615   0.917   2.360   0.211  0.6666 -0.2117  0.1423
  493SOL    HW2 1616   0.799   2.344   0.306  1.0633  0.0996  0.6951
  494SOL     OW 1617   2.969   2.876   0.443  0.5398  1.2877 -0.3750
  494SOL    HW1 1618   3.058   2.884   0.409  0.4916  1.2776 -0.5042
  494SOL    HW2 1619   2.940   2.790   0.413  1.9857 -0.6623  3.1682
  495SOL     OW 1620   1.194   2.050   3.710 -0.1133  0.0974  1.0935
  495SOL    HW1 1621   1.201   1.997   3.630 -1.3359 -0.7327  1.5175
  495SOL    HW2 1622   1.283   2.049   3.747  0.2288 -0.3483  0.2833
  496SOL     OW 1623   2.234   2.684   1.985 -0.3078 -0.2635 -0.8862
  496SOL    HW1 1624   2.284   2.626   1.928  0.7759  0.3829 -0.6379
  496SOL    HW2 1625   2.207   2.756   1.929  3.0224  1.7598 -0.2013
  497SOL     OW 1626   3.421   2.185   1.075 -0.5314  0.1751 -0.9941
  497SOL    HW1 1627   3.405   2.254   1.010 -1.8754  0.1314 -0.7238
  497SOL    HW2 1628   3.440   2.108   1.022  1.1983  0.7655 -1.3017
  498SOL     OW 1629   0.380   0.483   1.045 -0.1669 -0.3476 -0.1144
  498SOL    HW1 1630   0.446   0.546   1.013 -1.2355 -0.4960 -2.8673
  498SOL    HW2 1631   0.432   0.407   1.073  0.9219  0.2285 -0.4919
  499SOL     OW 1632   2.393   3.318   2.241  0.3377 -0.2577  0.1164
  499SOL    HW1 1633   2.324   3.283   2.186  0.5969  0.3135 -0.5843
  499SOL    HW2 1634   2.347   3.367   2.309  0.0304 -0.5983  0.1529
  500SOL     OW 1635   0.955   2.919   0.481 -0.5195  0.0512 -0.1274
  500SOL    HW1 1636   0.989   2.898   0.568  0.8146 -1.5904 -0.9913
  500SOL    HW2 1637   0.936   2.834   0.441 -0.4036  0.7272 -1.7158
  501SOL     OW 1638   1.559   2.264   3.609  0.0164  0.5366  0.1805
  501SOL    HW1 1639   1.568   2.325   3.535 -0.1936  0.9615  0.5024
  501SOL    HW2 1640   1.567   2.177   3.569 -1.6248  0.7025 -0.5690
  502SOL     OW 1641   0.062   1.419   2.581 -0.1350  0.0904  0.0837
  502SOL    HW1 1642   0.077   1.334   2.622  0.6248 -0.0331 -0.4363
  502SOL    HW2 1643   0.058   1.480   2.655  0.5560 -0.2235  0.3955
  503SOL     OW 1644   2.442   0.021   2.287  0.3455 -0.0208  0.2592
  503SOL    HW1 1645   2.490   0.042   2.207 -0.8586 -3.6451 -1.6344
  503SOL    HW2 1646   2.360   0.071   2.280  0.3569 -0.1145 -0.6750
  504SOL     OW 1647   2.702   0.821   0.123  0.1857 -0.9032  0.5439
  504SOL    HW1 1648   2.728   0.800   0.213 -0.8457 -1.5917  0.6922
  504SOL    HW2 1649   2.632   0.760   0.103 -1.1966  0.7616  0.0910
  505SOL     OW 1650   1.002   1.591   3.438 -0.2796  0.7887  0.4634
  505SOL    HW1 1651   0.987   1.616   3.529  1.2848 -1.5909  1.4425
  505SOL    HW2 1652   1.092   1.559   3.436 -0.0448  1.3707 -2.1031
  506SOL     OW 1653   1.825   1.613   3.208 -0.2512  0.1778  0.0263
  506SOL    HW1 1654   1.814   1.666   3.287 -0.8999 -0.7466  0.5753
  506SOL    HW2 1655   1.795   1.526   3.233  0.3892 -0.3536 -0.9836
  507SOL     OW 1656   3.185   2.513   1.146 -0.7269 -0.0114 -0.0976
  507SOL    HW1 1657   3.093   2.509   1.170 -0.5582 -2.5614  0.4047
  507SOL    HW2 1658   3.229   2.455   1.208  1.3967  1.7759  0.2276
  508SOL     OW 1659   2.454   1.176   3.254 -0.1476 -0.0627 -0.1495
  508SOL    HW1 1660   2.483   1.267   3.263  1.1428 -0.4057 -0.6702
  508SOL    HW2 1661   2.380   1.169   3.314 -2.0010  2.0570 -1.9642
  509SOL     OW 1662   0.790   3.134   1.387 -0.5058  0.0480  0.2808
  509SOL    HW1 1663   0.724   3.169   1.448 -0.9030 -1.1613  0.5812
  509SOL    HW2 1664   0.854   3.204   1.377 -0.1109  0.0913  2.5702
  510SOL     OW 1665   3.002   1.451   2.908  0.2127  0.3510  0.3905
  510SOL    HW1 1666   2.963   1.419   2.989  0.1223 -0.6299 -0.0227
  510SOL    HW2 1667   3.069   1.513   2.936  1.2302 -1.0864  1.3180
  511SOL     OW 1668   3.002   2.997   0.687  0.4819  0.5871  0.7443
  511SOL    HW1 1669   2.983   2.988   0.593  0.7774 -0.7945  0.7998
  511SOL    HW2 1670   3.098   2.991   0.692  0.3801 -0.9424  1.2726
  512SOL     OW 1671   1.182   0.043   3.632  0.2686 -0.2041 -0.3011
  512SOL    HW1 1672   1.153  -0.039   3.593 -1.0390  0.4064 -0.6920
  512SOL    HW2 1673   1.102   0.096   3.637  0.7759  0.4574  1.4331
  513SOL     OW 1674   2.875   1.606   3.210 -0.0926  0.2135 -0.0029
  513SOL    HW1 1675   2.860   1.699   3.193  0.1226  0.7726  2.4991
  513SOL    HW2 1676   2.806   1.562   3.161 -1.0577  1.7995 -0.1439
  514SOL     OW 1677   0.196   1.563   2.050  0.4892  0.1659  0.6966
  514SOL    HW1 1678   0.248   1.579   1.972 -0.6775  3.9309  0.5025
  514SOL    HW2 1679   0.229   1.625   2.115 -3.4684  2.8173  0.5546
  515SOL     OW 1680   1.100   0.999   0.917 -0.3140  0.2469  0.2093
  515SOL    HW1 1681   1.195   0.990   0.909 -0.5026 -0.4410 -1.6582
  515SOL    HW2 1682   1.087   1.088   0.951  0.9570  1.0904 -1.3675
  516SOL     OW 1683   1.202   2.281   2.775 -0.3141 -0.0436 -0.5349
  516SOL    HW1 1684   1.153   2.275   2.693 -1.2907  1.3607 -0.0959
  516SOL    HW2 1685   1.246   2.365   2.770 -0.0334 -0.1425  0.1914
  517SOL     OW 1686   3.219   0.170   2.315  0.5903  0.1993 -0.8114
  517SOL    HW1 1687   3.225   0.182   2.410 -1.6303 -0.8194 -0.4830
  517SOL    HW2 1688   3.293   0.113   2.294  1.5210  0.9784  0.1610
  518SOL     OW 1689   0.750   2.593   3.139 -0.2655  0.1034  1.0198
  518SOL    HW1 1690   0.688   2.527   3.168 -0.8502  0.0043 -0.3882
  518SOL    HW2 1691   0.761   2.651   3.215 -0.0275 -1.3739  2.1436
  519SOL     OW 1692   2.112   0.025   2.988  0.4458 -0.0735 -0.2258
  519SOL    HW1 1693   2.024  -0.006   3.008  0.2242  0.3533 -0.5115
  519SOL    HW2 1694   2.099   0.099   2.930  1.0295 -0.7273 -1.2328
  520SOL     OW 1695   0.514   1.124   0.030  0.0326 -0.4305 -0.3150
  520SOL    HW1 1696   0.488   1.172  -0.049  0.1135 -1.5300 -1.0386
  520SOL    HW2 1697   0.610   1.132   0.032 -0.0385  0.3543  0.1824
  521SOL     OW 1698   3.245   0.532   2.410 -0.7105  0.0925 -0.5351
  521SOL    HW1 1699   3.338   0.535   2.432 -0.7067 -1.0634 -0.3208
  521SOL    HW2 1700   3.215   0.623   2.417  0.0343  0.2569  1.0308
  522SOL     OW 1701   0.698   1.521   1.012 -0.2563 -0.1636 -0.2986
  522SOL    HW1 1702   0.632   1.559   0.955  0.2127 -0.6110 -1.1613
  522SOL    HW2 1703   0.747   1.460   0.956  0.3284 -0.4870  0.5327
  523SOL     OW 1704   3.248   2.061   2.228 -0.0347  0.2865  0.1754
  523SOL    HW1 1705   3.295   2.116   2.290 -0.2968 -0.3144  0.9184
  523SOL    HW2 1706   3.159   2.094   2.228 -0.6477 -1.1907  1.9606
  524SOL     OW 1707   0.167   1.198   2.717  1.1274 -0.2173  0.0743
  524SOL    HW1 1708   0.216   1.116   2.717  2.1710  0.3878  0.4993
  524SOL    HW2 1709   0.115   1.195   2.797  0.8287 -0.6434 -0.1292
  525SOL     OW 1710   1.515   2.820   2.461 -0.0466  0.1762 -0.1969
  525SOL    HW1 1711   1.480   2.748   2.408  0.3922 -0.3741  0.2484
  525SOL    HW2 1712   1.462   2.896   2.436 -0.7475 -0.3747 -0.4181
  526SOL     OW 1713   3.241   0.652   0.411 -0.4996  0.0860 -0.4261
  526SOL    HW1 1714   3.259   0.726   0.469  0.4637 -1.3961  1.2592
  526SOL    HW2 1715   3.173   0.603   0.457  0.8201 -1.5242 -0.1346
  527SOL     OW 1716   2.751   1.113   1.470  0.4019 -0.2917  0.2219
  527SOL    HW1 1717   2.837   1.103   1.511  0.2131 -1.8560  0.3206
  527SOL    HW2 1718   2.768   1.108   1.376  0.6640  1.8075  0.1191
  528SOL     OW 1719   2.211   2.445   1.295  0.3457 -0.0735  0.6704
  528SOL    HW1 1720   2.296   2.434   1.252  0.0730 -0.5199  0.2350
  528SOL    HW2 1721   2.161   2.499   1.234  0.8273  1.5433  1.6395
  529SOL     OW 1722   2.990   3.459   1.614  0.1574 -0.9236  0.0289
  529SOL    HW1 1723   2.959   3.400   1.546  2.3436 -2.0350 -0.0786
  529SOL    HW2 1724   2.948   3.428   1.694 -1.1696 -0.6172 -0.5300
  530SOL     OW 1725   0.864   3.253   2.288  0.4548  0.7685 -0.4689
  530SOL    HW1 1726   0.917   3.237   2.366 -0.3469  2.3652  0.4602
  530SOL    HW2 1727   0.896   3.189   2.224  2.6960  0.8948  0.4094
  531SOL     OW 1728   1.625   0.572   1.244  0.0960 -0.3670  0.1540
  531SOL    HW1 1729   1.542   0.530   1.222  0.4077 -0.0877 -1.7070
  531SOL    HW2 1730   1.668   0.584   1.160  2.0004 -0.4299  1.0857
  532SOL     OW 1731   3.362   0.159   3.165 -0.0571  0.0992  0.1936
  532SOL    HW1 1732   3.328   0.151   3.255  1.2820  1.2313  0.8395
  532SOL    HW2 1733   3.325   0.242   3.133  0.2153  0.1697  0.0582
  533SOL     OW 1734   0.488   3.600   1.715 -0.4892 -0.0466  0.2631
  533SOL    HW1 1735   0.573   3.561   1.695 -0.6758 -0.6218  0.5843
  533SOL    HW2 1736   0.509   3.690   1.740  0.0414 -0.2265  0.4795
  534SOL     OW 1737   0.767   0.235   2.874  0.2176 -0.4375  0.0641
  534SOL    HW1 1738   0.711   0.231   2.796 -0.6777  1.1533  0.5646
  534SOL    HW2 1739   0.706   0.246   2.947  1.1373  2.0331  0.5580
  535SOL     OW 1740   1.162   3.073   1.352  0.5353 -0.5667  0.0254
  535SOL    HW1 1741   1.139   3.072   1.445 -0.3621  1.8298 -0.0895
  535SOL    HW2 1742   1.097   3.017   1.310 -0.4871  0.1344  0.6144
  536SOL     OW 1743   0.888   0.829   1.424  0.3404 -0.0046  0.5140
  536SOL    HW1 1744   0.953   0.762   1.443  0.6055 -0.0062 -0.3487
  536SOL    HW2 1745   0.937   0.897   1.377  0.4990  1.6869  2.8928
  537SOL     OW 1746   3.501   3.089   0.825  0.2240 -0.3754 -0.0740
  537SOL    HW1 1747   3.419   3.136   0.839  0.2680  0.1315 -1.3735
  537SOL    HW2 1748   3.541   3.132   0.749  0.4156 -2.3213 -1.1372
  538SOL     OW 1749   0.600   2.499   2.520  0.0753  0.5144 -0.7064
  538SOL    HW1 1750   0.528   2.524   2.578 -0.6787  1.5446 -2.0021
  538SOL    HW2 1751   0.644   2.427   2.565 -0.3316  1.4012  1.2032
  539SOL     OW 1752   0.968   0.448   2.296  0.3809 -0.4053  0.0754
  539SOL    HW1 1753   0.944   0.358   2.318  0.0938 -0.6197 -1.0299
  539SOL    HW2 1754   0.885   0.491   2.277  0.6533 -0.5911 -1.7667
  540SOL     OW 1755   0.495   1.551   1.228  0.0956  0.1986  0.2422
  540SOL    HW1 1756   0.478   1.627   1.172 -0.3292  0.2951  0.4955
  540SOL    HW2 1757   0.590   1.543   1.230  0.2007  1.2932  0.9500
  541SOL     OW 1758   1.744   2.624   2.311  0.9837  0.9534  0.1727
  541SOL    HW1 1759   1.673   2.629   2.246  0.6537  0.6502  0.5018
  541SOL    HW2 1760   1.748   2.712   2.348 -1.8372  0.1309  2.8539
  542SOL     OW 1761   3.194   3.664   2.671  0.1147 -0.1908 -0.3683
  542SOL    HW1 1762   3.112   3.640   2.628  0.3787  1.2068 -1.7465
  542SOL    HW2 1763   3.189   3.760   2.680  1.3415 -0.1504  0.0434
  543SOL     OW 1764   2.733   2.936   3.685  0.6920  0.3117 -0.4031
  543SOL    HW1 1765   2.718   3.021   3.645  0.0609  1.5906  2.3025
  543SOL    HW2 1766   2.671   2.932   3.758  2.6349 -1.2220  1.2972
  544SOL     OW 1767   0.034   3.684   3.606 -0.2569  0.0152 -0.0912
  544SOL    HW1 1768   0.020   3.634   3.687 -3.4253 -0.0336 -0.5212
  544SOL    HW2 1769   0.075   3.766   3.635 -0.1108 -0.5537  1.3895
  545SOL     OW 1770   2.139   3.144   1.907  0.0914 -0.6741  0.2382
  545SOL    HW1 1771   2.223   3.115   1.872 -0.4204 -1.0365 -0.7343
  545SOL    HW2 1772   2.075   3.085   1.867 -0.8232  0.8491 -0.6150
  546SOL     OW 1773   0.820   3.555   1.146  0.3189 -0.0101  0.4919
  546SOL    HW1 1774   0.768   3.489   1.101  2.1903 -0.7796 -0.6598
  546SOL    HW2 1775   0.857   3.508   1.221 -1.6044  0.8776  2.0720
  547SOL     OW 1776   2.637   1.302   2.228  0.4668 -0.1207 -0.4424
  547SOL    HW1 1777   2.602   1.391   2.233  2.3032  0.5958  0.6438
  547SOL    HW2 1778   2.695   1.302   2.152  1.9463  0.2321  0.6305
  548SOL     OW 1779   1.593   0.368   1.787  0.3570  0.7552 -0.0145
  548SOL    HW1 1780   1.583   0.325   1.702 -1.8502  0.8985  0.1340
  548SOL    HW2 1781   1.585   0.462   1.767  0.9708  0.8611  0.2189
  549SOL     OW 1782   3.331   2.284   2.755 -0.0889 -0.1234  0.5779
  549SOL    HW1 1783   3.369   2.292   2.843  1.1421  1.1520 -0.0269
  549SOL    HW2 1784   3.256   2.226   2.767  1.2139 -1.6051  2.0895
  550SOL     OW 1785   0.126   3.492   1.157 -0.4847 -0.0125 -0.0981
  550SOL    HW1 1786   0.209   3.446   1.168 -0.6895 -0.7081 -1.2954
  550SOL    HW2 1787   0.090   3.499   1.245 -0.4664 -2.1886  0.1253
  551SOL     OW 1788   1.667   0.247   0.583  0.2202  0.1813 -0.3038
  551SOL    HW1 1789   1.707   0.300   0.651  0.9658 -0.7320 -0.0146
  551SOL    HW2 1790   1.708   0.161   0.591  0.6494  0.1636 -2.1762
  552SOL     OW 1791   2.701   3.074   0.594  0.4862 -0.4248  0.1319
  552SOL    HW1 1792   2.635   3.135   0.627  0.1988 -1.3149  1.2857
  552SOL    HW2 1793   2.731   3.113   0.512  1.0572  1.8173  1.3153
  553SOL     OW 1794   1.734   2.523   2.775 -0.2843 -0.5218 -0.1643
  553SOL    HW1 1795   1.714   2.504   2.684  0.3940  0.1355 -0.4698
  553SOL    HW2 1796   1.650   2.518   2.820 -0.8564  0.4864 -1.0761
  554SOL     OW 1797   1.849   2.283   2.579 -0.1440  0.2049  0.6051
  554SOL    HW1 1798   1.926   2.338   2.589  0.5200 -0.8741  1.6053
  554SOL    HW2 1799   1.778   2.344   2.561  1.0532  1.1689 -1.1013
  555SOL     OW 1800   1.094   1.197   2.819  0.6750 -0.6811 -0.4417
  555SOL    HW1 1801   1.017   1.173   2.871 -0.9885 -0.4793 -2.6341
  555SOL    HW2 1802   1.081   1.289   2.797  0.9199 -0.9292 -1.7607
  556SOL     OW 1803   0.853   1.362   0.855  0.2867 -0.3439 -0.6643
  556SOL    HW1 1804   0.912   1.437   0.857  0.7872 -0.7558  0.5240
  556SOL    HW2 1805   0.862   1.327   0.766  1.9050 -0.4398 -0.4910
  557SOL     OW 1806   1.073   2.801   1.935 -0.6219  0.7418  0.1528
  557SOL    HW1 1807   1.061   2.728   1.874 -2.2255 -0.4950  1.8477
  557SOL    HW2 1808   0.985   2.820   1.967  0.0913  1.8131  1.5825
  558SOL     OW 1809   2.529   0.629   0.032  0.1718  0.6995 -0.3797
  558SOL    HW1 1810   2.598   0.575  -0.007 -0.8077 -1.0363  0.1602
  558SOL    HW2 1811   2.467   0.565   0.068 -0.8206  2.2164  0.7064
  559SOL     OW 1812   0.229   3.603   2.704 -0.5016 -1.1460  0.4403
  559SOL    HW1 1813   0.156   3.629   2.760 -1.3096  3.7227 -2.3072
  559SOL    HW2 1814   0.295   3.672   2.716  2.0804 -3.3640 -0.0036
  560SOL     OW 1815   3.006   0.383   0.150 -0.1358  0.0876  0.3055
  560SOL    HW1 1816   2.997   0.293   0.119  2.9376 -0.1864 -0.1170
  560SOL    HW2 1817   3.085   0.382   0.205 -0.3114  2.4203  0.7111
  561SOL     OW 1818   3.539   0.769   2.294  0.5621  0.0155 -0.7510
  561SOL    HW1 1819   3.494   0.811   2.367 -0.3319 -0.6189 -0.9113
  561SOL    HW2 1820   3.552   0.679   2.323 -0.6911 -0.5117 -1.7170
  562SOL     OW 1821   2.560   0.620   0.929 -0.5285 -0.0029  0.1832
  562SOL    HW1 1822   2.641   0.652   0.970 -0.3168  1.4266 -1.2806
  562SOL    HW2 1823   2.590   0.554   0.866 -0.4631  0.6419 -0.4743
  563SOL     OW 1824   0.423   2.978   3.119  0.0549  0.3890 -0.3972
  563SOL    HW1 1825   0.474   2.913   3.072  2.2023  1.7894 -0.1490
  563SOL    HW2 1826   0.356   3.005   3.056 -1.5393 -2.6391 -0.1749
  564SOL     OW 1827   2.530   1.957   2.788  0.1517  0.7664 -0.3382
  564SOL    HW1 1828   2.497   2.035   2.743 -1.0826  0.7001  0.4151
  564SOL    HW2 1829   2.591   1.992   2.854 -1.3831  1.2512  0.8904
  565SOL     OW 1830   0.276   2.193   1.556  0.0052  0.4478 -1.0255
  565SOL    HW1 1831   0.216   2.228   1.621  0.3486  0.1326 -0.5306
  565SOL    HW2 1832   0.349   2.255   1.555  1.2484 -0.8732  0.8164
  566SOL     OW 1833   3.138   1.731   2.554 -0.0555 -0.2664 -0.1445
  566SOL    HW1 1834   3.056   1.681   2.559  0.0078 -0.6298 -2.1444
  566SOL    HW2 1835   3.137   1.771   2.468 -0.1528  3.4258  1.3774
  567SOL     OW 1836   2.965   2.367   0.783 -0.2406  0.1589  0.3871
  567SOL    HW1 1837   3.038   2.390   0.725 -0.6761  2.6492  0.6811
  567SOL    HW2 1838   2.896   2.337   0.723  1.3081 -3.5090  0.1970
  568SOL     OW 1839   0.553   1.411   2.299 -0.3183  0.2931 -0.0837
  568SOL    HW1 1840   0.569   1.501   2.325 -1.1505  0.4014  0.0877
  568SOL    HW2 1841   0.494   1.376   2.366  1.0495 -0.8069  0.6060
  569SOL     OW 1842   1.805   0.405   1.389  0.2049  0.0451 -0.5910
  569SOL    HW1 1843   1.728   0.440   1.345  0.9920  0.1356 -1.9498
  569SOL    HW2 1844   1.865   0.479   1.394 -0.1587  0.2548  1.4098
  570SOL     OW 1845   0.950   1.823   2.384 -0.4365  0.2506 -0.5430
  570SOL    HW1 1846   0.882   1.827   2.317 -0.0888  1.6951 -0.8402
  570SOL    HW2 1847   1.028   1.858   2.341 -0.4635  2.2240  0.8835
  571SOL     OW 1848   3.665   1.413   0.900  0.0747  0.0161 -0.1328
  571SOL    HW1 1849   3.642   1.506   0.901 -0.2139 -0.0584  0.3699
  571SOL    HW2 1850   3.759   1.411   0.879 -0.2227  0.3497 -1.6270
  572SOL     OW 1851   2.388   3.303   3.122 -0.3290  0.7790 -0.6341
  572SOL    HW1 1852   2.343   3.224   3.153  1.8211  0.6961  2.7676
  572SOL    HW2 1853   2.318   3.363   3.097 -2.0573 -1.7031 -2.3161
  573SOL     OW 1854   0.134   1.124   1.817  0.3103 -1.0044  0.3533
  573SOL    HW1 1855   0.170   1.077   1.892  1.2121  0.5065  0.9108
  573SOL    HW2 1856   0.181   1.089   1.742  1.4949 -0.4927  0.8397
  574SOL     OW 1857   0.554   0.935   0.369  0.3298 -0.3962 -0.8712
  574SOL    HW1 1858   0.617   0.912   0.436 -1.6244 -1.4543  0.6995
  574SOL    HW2 1859   0.469   0.933   0.413 -1.1663 -2.0682 -3.5518
  575SOL     OW 1860   2.622   1.278   0.716  0.6861  0.0467 -0.0004
  575SOL    HW1 1861   2.575   1.196   0.701  0.6786 -0.4446  2.3103
  575SOL    HW2 1862   2.583   1.313   0.796  2.3723  1.0511  0.4266
  576SOL     OW 1863   3.037   1.818   0.402 -0.5502 -0.4188 -0.0374
  576SOL    HW1 1864   2.952   1.778   0.382 -0.8613 -0.5264  1.4425
  576SOL    HW2 1865   3.101   1.753   0.373 -0.8605  0.3942 -2.8525
  577SOL     OW 1866   0.602   0.402   1.891  0.1077  0.0505  0.2903
  577SOL    HW1 1867   0.568   0.374   1.806  0.8588  0.3144 -0.1036
  577SOL    HW2 1868   0.697   0.400   1.881  0.2788 -1.7651  1.7250
  578SOL     OW 1869   0.388   0.798   0.746 -0.0206 -0.2460  0.3953
  578SOL    HW1 1870   0.364   0.705   0.737 -0.9388  0.1976 -2.7473
  578SOL    HW2 1871   0.325   0.832   0.810 -2.5626 -0.9496 -1.5387
  579SOL     OW 1872   3.623   3.446   2.708  0.3587 -0.0716  0.0932
  579SOL    HW1 1873   3.614   3.508   2.780  0.1170 -0.3257  0.2839
  579SOL    HW2 1874   3.630   3.360   2.751 -2.7112 -0.5915 -0.2064
  580SOL     OW 1875   0.587   0.260   2.417 -0.4142  0.1749  0.0386
  580SOL    HW1 1876   0.600   0.194   2.349 -1.9419  1.7109 -1.8666
  580SOL    HW2 1877   0.623   0.341   2.379 -0.7025  0.9321  1.3146
  581SOL     OW 1878   0.105   0.282   3.676 -0.2147  0.3881  0.2418
  581SOL    HW1 1879   0.163   0.234   3.616  0.1582  0.0505  0.8574
  581SOL    HW2 1880   0.129   0.374   3.664 -2.0338  0.6563 -2.1282
  582SOL     OW 1881   1.301   2.215   0.816  0.2630  0.4942  0.4723
  582SOL    HW1 1882   1.264   2.270   0.885 -1.8478  0.6718 -0.7174
  582SOL    HW2 1883   1.249   2.134   0.820  0.6396  0.2046 -0.3985
  583SOL     OW 1884   2.540   1.365   1.206 -0.4663 -0.2913  0.3454
  583SOL    HW1 1885   2.474   1.316   1.255 -0.3551  0.1318  0.9287
  583SOL    HW2 1886   2.607   1.386   1.271  0.6456 -1.3881 -0.4096
  584SOL     OW 1887   3.476   2.737   1.190  0.3337  0.1553  0.7752
  584SOL    HW1 1888   3.504   2.828   1.182  0.4243  0.1246  0.7332
  584SOL    HW2 1889   3.405   2.739   1.254 -1.5381  0.6495 -1.1887
  585SOL     OW 1890   3.024   0.360   0.490  0.1348  0.3014  0.1261
  585SOL    HW1 1891   3.114   0.335   0.506 -0.2218 -1.5512 -0.5590
  585SOL    HW2 1892   2.977   0.277   0.479 -1.5314  1.2318 -0.1477
  586SOL     OW 1893   1.043   2.234   2.582  0.4621  0.9938  0.2878
  586SOL    HW1 1894   0.986   2.296   2.537  1.0275  1.4843  0.2197
  586SOL    HW2 1895   0.993   2.154   2.588  0.5997  0.7049 -1.8151
  587SOL     OW 1896   2.424   2.834   3.427  0.1640  0.4333  0.7233
  587SOL    HW1 1897   2.413   2.909   3.368  0.1448 -0.6034 -0.6421
  587SOL    HW2 1898   2.427   2.872   3.515  0.3315  2.0415  0.0460
  588SOL     OW 1899   3.161   0.193   1.918 -0.1399 -0.4571  0.1588
  588SOL    HW1 1900   3.211   0.267   1.953  1.4145 -2.0278  1.4703
  588SOL    HW2 1901   3.082   0.190   1.973  0.3457 -0.4643  0.8759
  589SOL     OW 1902   0.597   2.641   3.402  0.1387  0.4466  0.1049
  589SOL    HW1 1903   0.682   2.668   3.437  1.2678 -1.9022 -0.5901
  589SOL    HW2 1904   0.548   2.612   3.479  0.6163  0.1959  0.3206
  590SOL     OW 1905   1.986   1.220   1.257 -0.6214 -0.2225 -0.0664
  590SOL    HW1 1906   1.919   1.211   1.326 -0.0836  0.4737  0.5712
  590SOL    HW2 1907   1.982   1.138   1.209 -4.5552  1.0779 -2.4675
  591SOL     OW 1908   3.549   2.039   0.860  0.1611  0.0069 -0.0564
  591SOL    HW1 1909   3.554   2.071   0.770  2.7820 -0.1113 -0.0310
  591SOL    HW2 1910   3.614   1.968   0.864 -0.4988 -0.5590  1.7233
  592SOL     OW 1911   0.191   0.315   0.322  0.1835  0.1311 -0.3498
  592SOL    HW1 1912   0.236   0.242   0.365 -1.5106 -0.6238  0.2215
  592SOL    HW2 1913   0.250   0.341   0.252  1.9715 -0.1284  0.9694
  593SOL     OW 1914   0.203   1.454   3.655  0.1250  0.1431  0.3503
  593SOL    HW1 1915   0.286   1.452   3.608 -0.2098  1.1245 -0.3026
  593SOL    HW2 1916   0.214   1.390   3.726  1.3383  0.0769  0.1170
  594SOL     OW 1917   1.200   3.608   0.568  0.4186 -0.1339 -0.1523
  594SOL    HW1 1918   1.179   3.524   0.527  1.4309 -1.0729  1.1664
  594SOL    HW2 1919   1.296   3.612   0.566  0.3869  0.9264 -0.0502
  595SOL     OW 1920   0.914   2.598   1.837 -0.6394  0.8501  0.4735
  595SOL    HW1 1921   0.828   2.621   1.802 -0.0150 -0.2093 -1.9293
  595SOL    HW2 1922   0.897   2.528   1.899 -1.3744 -0.8491 -1.5508
  596SOL     OW 1923   1.693   1.452   2.989  0.2056 -0.3536  0.3258
  596SOL    HW1 1924   1.765   1.506   2.956  2.4566 -1.0917  3.5777
  596SOL    HW2 1925   1.681   1.384   2.922  1.5042  0.6247 -0.9588
  597SOL     OW 1926   2.347   1.996   1.156  0.1425  0.4058  0.1384
  597SOL    HW1 1927   2.272   1.979   1.098  0.4828 -1.4787  0.1746
  597SOL    HW2 1928   2.418   2.019   1.096  0.6444 -2.0761 -0.3464
  598SOL     OW 1929   3.218   2.821   2.219  0.0334 -0.1724 -0.1734
  598SOL    HW1 1930   3.130   2.857   2.204 -0.2291 -0.9074 -0.4617
  598SOL    HW2 1931   3.213   2.783   2.307  0.8532  2.0274  0.9070
  599SOL     OW 1932   0.183   2.342   3.222  0.6604  0.2004  0.2505
  599SOL    HW1 1933   0.270   2.333   3.259  0.9275 -1.7914 -0.6763
  599SOL    HW2 1934   0.123   2.325   3.295  1.1687 -3.1445  0.0828
  600SOL     OW 1935   1.057   2.293   0.044 -0.1058 -0.5691  0.3555
  600SOL    HW1 1936   1.104   2.210   0.044 -0.8667 -1.0708  2.4631
  600SOL    HW2 1937   1.124   2.359   0.024  1.0638 -1.4644  1.1513
  601SOL     OW 1938   3.266   2.938   0.957 -0.4352 -0.1567  0.0786
  601SOL    HW1 1939   3.308   3.010   1.004 -2.0742  0.5244  0.5804
  601SOL    HW2 1940   3.301   2.859   0.998  1.0177  0.3459 -0.1428
  602SOL     OW 1941   1.151   0.239   3.382 -0.0621  0.1338  0.4105
  602SOL    HW1 1942   1.142   0.260   3.289  0.0846 -2.7787 -0.3593
  602SOL    HW2 1943   1.246   0.239   3.398 -0.0283 -0.4626  0.2424
  603SOL     OW 1944   2.477   1.407   1.972  0.2887  0.6032  0.2954
  603SOL    HW1 1945   2.484   1.486   2.025  0.1609  0.3853  0.6425
  603SOL    HW2 1946   2.482   1.438   1.882  2.5568  0.8098  0.4310
  604SOL     OW 1947   3.277   3.413   2.681 -0.0433  0.2615 -0.0614
  604SOL    HW1 1948   3.278   3.508   2.667  2.6987  0.5903  1.5301
  604SOL    HW2 1949   3.328   3.401   2.761 -1.1479 -2.5221  0.3250
  605SOL     OW 1950   2.255   3.125   0.809 -0.2640  0.4691  0.2414
  605SOL    HW1 1951   2.211   3.210   0.810  2.8949  2.3423 -1.1043
  605SOL    HW2 1952   2.185   3.061   0.815 -3.0969  3.1160 -1.4943
  606SOL     OW 1953   1.155   1.765   1.157  0.0908 -0.0633 -0.3748
  606SOL    HW1 1954   1.214   1.708   1.107 -0.9494 -0.2361 -1.4676
  606SOL    HW2 1955   1.213   1.816   1.213  1.2570 -0.4309 -1.1909
  607SOL     OW 1956   2.683   3.057   3.023 -0.4863  0.2856  0.1850
  607SOL    HW1 1957   2.633   3.123   2.976 -1.4713  0.7590  1.8029
  607SOL    HW2 1958   2.742   3.107   3.080  0.1398 -0.2493  0.0212
  608SOL     OW 1959   0.367   1.327   0.366 -0.7764 -0.5337 -0.3989
  608SOL    HW1 1960   0.327   1.278   0.439 -0.3350 -1.4811 -0.7746
  608SOL    HW2 1961   0.314   1.304   0.290 -0.9254  0.0521 -0.4767
  609SOL     OW 1962   2.453   3.487   0.127 -0.3691 -0.4167 -0.2284
  609SOL    HW1 1963   2.474   3.488   0.221 -3.1623  0.7882  0.4710
  609SOL    HW2 1964   2.469   3.577   0.098  0.2077 -0.7173 -0.8683
  610SOL     OW 1965   1.379   0.848   1.653 -0.0576  0.0471 -0.2805
  610SOL    HW1 1966   1.297   0.799   1.652  1.7164 -3.2051 -0.6658
  610SOL    HW2 1967   1.429   0.813   1.580  1.4964  2.4056 -0.4711
  611SOL     OW 1968   0.805   1.218   2.874  0.1221  0.1510  0.0266
  611SOL    HW1 1969   0.765   1.140   2.913 -1.2103  1.2252  0.9232
  611SOL    HW2 1970   0.732   1.265   2.835  0.8251  1.1793 -0.0783
  612SOL     OW 1971   2.024   0.690   0.621  0.0721 -0.1728  0.0816
  612SOL    HW1 1972   2.106   0.644   0.605  0.3606  0.4555 -0.2945
  612SOL    HW2 1973   2.026   0.711   0.714 -0.1139 -1.0134  0.2779
  613SOL     OW 1974   0.763   3.231   3.424 -0.0864 -0.7433  0.8520
  613SOL    HW1 1975   0.717   3.148   3.428  0.1952 -1.0090 -0.9276
  613SOL    HW2 1976   0.723   3.278   3.351  0.5293  0.2195  1.1057
  614SOL     OW 1977   2.551   2.732   0.311  0.3734  0.4798  0.3296
  614SOL    HW1 1978   2.471   2.744   0.362  0.6539  1.6277  0.5234
  614SOL    HW2 1979   2.573   2.820   0.280  2.0905  0.3576  1.0918
  615SOL     OW 1980   3.042   3.484   0.842 -0.3616  0.1666  0.1344
  615SOL    HW1 1981   3.017   3.393   0.826  0.7548  0.0219 -0.9634
  615SOL    HW2 1982   3.066   3.518   0.756  1.7010  0.7098  0.8614
  616SOL     OW 1983   3.052   1.488   1.777  0.7837  0.1302 -0.3560
  616SOL    HW1 1984   3.080   1.400   1.802  0.2219  0.5132  1.7811
  616SOL    HW2 1985   2.986   1.512   1.842 -1.9018  0.6787 -3.0582
  617SOL     OW 1986   2.857   1.894   0.864  0.0391  0.0038  0.2710
  617SOL    HW1 1987   2.950   1.911   0.877 -0.4966  2.2895  1.6391
  617SOL    HW2 1988   2.830   1.958   0.798 -0.4409 -1.1726 -0.7123
  618SOL     OW 1989   2.937   2.450   1.274  0.5643 -0.0461  0.1420
  618SOL    HW1 1990   2.891   2.472   1.194  0.2173  0.9576  0.5995
  618SOL    HW2 1991   2.879   2.479   1.344  0.6507 -1.3244  0.7732
  619SOL     OW 1992   2.446   1.813   0.329  0.1551  0.0382 -0.5150
  619SOL    HW1 1993   2.451   1.729   0.374 -2.4332  0.1792  0.1774
  619SOL    HW2 1994   2.533   1.825   0.291  2.0035 -0.8401  3.0503
  620SOL     OW 1995   3.220   2.280   3.530 -0.2051  0.1685 -0.8502
  620SOL    HW1 1996   3.244   2.372   3.517 -0.4943  0.0770 -2.2014
  620SOL    HW2 1997   3.205   2.272   3.624 -1.7150  1.9126 -0.8753
  621SOL     OW 1998   1.013   3.571   3.511  0.5437 -0.7404  0.4641
  621SOL    HW1 1999   1.070   3.538   3.440 -2.5490 -1.4813 -1.9019
  621SOL    HW2 2000   0.962   3.640   3.470 -2.1108 -1.9152  1.6051
  622SOL     OW 2001   0.264   1.941   1.062 -0.0186 -0.0091  0.4284
  622SOL    HW1 2002   0.234   2.009   1.002 -1.8366 -1.0666  0.0773
  622SOL    HW2 2003   0.296   1.990   1.139 -1.2169  1.2602  0.1611
  623SOL     OW 2004   0.457   3.254   3.233  0.5676 -0.3016  0.9082
  623SOL    HW1 2005   0.403   3.297   3.166 -0.5497  0.3192  2.1551
  623SOL    HW2 2006   0.474   3.167   3.198  0.7597  0.3071 -0.5654
  624SOL     OW 2007   1.540   3.674   3.597 -0.3332 -0.2109  0.5312
  624SOL    HW1 2008   1.584   3.591   3.582  0.2355  0.1094  0.4114
  624SOL    HW2 2009   1.477   3.655   3.667 -0.3439 -0.7853  0.3703
  625SOL     OW 2010   1.891   3.293   3.560  0.4183 -0.3386 -0.0765
  625SOL    HW1 2011   1.932   3.379   3.553 -2.4130  1.1546  0.3925
  625SOL    HW2 2012   1.920   3.260   3.645  1.6889  0.0268 -0.3463
  626SOL     OW 2013   2.097   0.547   2.082 -0.4041  0.2521 -0.1186
  626SOL    HW1 2014   2.099   0.628   2.132 -0.1466  0.4420 -0.4256
  626SOL    HW2 2015   2.075   0.574   1.993 -1.9033 -0.2002  0.0970
  627SOL     OW 2016   0.729   0.077   2.226  0.5380  0.4621  0.1095
  627SOL    HW1 2017   0.693   0.088   2.138  1.3687  4.6280  0.0525
  627SOL    HW2 2018   0.799   0.012   2.216  0.6434  0.8798 -2.3631
  628SOL     OW 2019   0.275   0.917   2.027 -0.1608  0.1210 -0.9252
  628SOL    HW1 2020   0.274   1.005   2.067  1.1698 -0.9623  1.7352
  628SOL    HW2 2021   0.197   0.874   2.063 -1.4404  0.4827 -3.1029
  629SOL     OW 2022   2.801   3.098   2.644 -0.2520 -0.1874 -0.4598
  629SOL    HW1 2023   2.735   3.163   2.668 -0.5843 -0.1412 -1.4779
  629SOL    HW2 2024   2.800   3.036   2.718 -0.1686  0.7592  0.3586
  630SOL     OW 2025   2.477   3.065   3.303 -0.0784 -0.0739 -0.2025
  630SOL    HW1 2026   2.564   3.077   3.342  0.6366  2.7051 -2.2909
  630SOL    HW2 2027   2.494   3.018   3.222 -1.1124 -2.8171  1.0656
  631SOL     OW 2028   2.668   1.765   1.124  0.5058  0.2339  0.6057
  631SOL    HW1 2029   2.615   1.843   1.137 -0.2238 -0.1027 -0.2404
  631SOL    HW2 2030   2.640   1.730   1.039  3.5504  1.2187 -0.9607
  632SOL     OW 2031   1.694   0.180   2.655  0.0037 -0.1303 -0.8849
  632SOL    HW1 2032   1.707   0.264   2.612  1.5012  0.2659  0.2692
  632SOL    HW2 2033   1.616   0.143   2.613 -0.6863  1.8208 -1.4019
  633SOL     OW 2034   0.303   3.049   2.541 -0.1770 -0.2538  0.1153
  633SOL    HW1 2035   0.225   3.097   2.511  0.9379  1.5478 -0.0796
  633SOL    HW2 2036   0.286   2.958   2.516 -1.5789  0.3207 -1.2457
  634SOL     OW 2037   2.458   1.447   3.286 -0.4444  0.0798  0.1139
  634SOL    HW1 2038   2.419   1.529   3.255 -0.1831 -0.3473 -1.4185
  634SOL    HW2 2039   2.551   1.466   3.294 -0.3966 -0.0461 -0.1531
  635SOL     OW 2040   0.880   1.034   0.263 -0.2801  0.3688  0.3688
  635SOL    HW1 2041   0.853   0.990   0.343 -1.4362  1.6197  0.6973
  635SOL    HW2 2042   0.952   0.980   0.229 -1.1469 -1.3304  1.1301
  636SOL     OW 2043   1.243   1.570   0.167  0.0076 -0.1834  0.3403
  636SOL    HW1 2044   1.216   1.661   0.179  1.0695 -0.0334  1.7368
  636SOL    HW2 2045   1.168   1.518   0.198 -0.2756  0.2026  0.3060
  637SOL     OW 2046   1.021   1.568   0.890 -0.6578  0.3738 -0.3686
  637SOL    HW1 2047   0.992   1.653   0.922  1.7828  1.2495 -0.2538
  637SOL    HW2 2048   1.100   1.549   0.941 -1.5411 -2.3512  0.1359
  638SOL     OW 2049   3.050   0.813   1.682 -0.2743 -0.2379  0.4068
  638SOL    HW1 2050   2.971   0.760   1.675 -1.3572  1.3227  0.1888
  638SOL    HW2 2051   3.017   0.903   1.688  1.4972  0.4497  0.2478
  639SOL     OW 2052   0.146   1.005   1.556  0.3335 -0.6190 -0.5634
  639SOL    HW1 2053   0.157   1.016   1.462  1.4051  0.3817 -0.3470
  639SOL    HW2 2054   0.197   0.926   1.577  1.1440 -0.1375 -0.6587
  640SOL     OW 2055   3.656   1.380   0.454 -0.3203  0.4991 -0.5618
  640SOL    HW1 2056   3.694   1.354   0.538 -1.6077  0.5363  0.0542
  640SOL    HW2 2057   3.694   1.319   0.391 -0.0582 -0.1447  0.1947
  641SOL     OW 2058   1.504   1.417   2.066  0.3372  0.5409 -0.1363
  641SOL    HW1 2059   1.453   1.456   1.995  0.1859 -0.2017 -0.4417
  641SOL    HW2 2060   1.495   1.322   2.053  2.6241  0.3619 -0.8082
  642SOL     OW 2061   1.632   3.560   3.338 -0.1513 -0.5453 -0.0282
  642SOL    HW1 2062   1.665   3.646   3.366  1.9627 -1.7102  1.3090
  642SOL    HW2 2063   1.658   3.553   3.246  2.3683 -0.9089  0.6483
  643SOL     OW 2064   1.745   1.781   1.889 -0.2174  0.5087 -0.0562
  643SOL    HW1 2065   1.741   1.827   1.973 -1.1040 -0.5093  0.4735
  643SOL    HW2 2066   1.654   1.766   1.865  0.0437 -0.2158 -0.6285
  644SOL     OW 2067   2.028   2.246  -0.024  0.1934 -0.5622 -0.6075
  644SOL    HW1 2068   2.012   2.278   0.065 -1.0166 -0.5188 -0.8258
  644SOL    HW2 2069   2.121   2.265  -0.040  0.3224 -0.2053  0.4911
  645SOL     OW 2070   2.145   1.514   3.358 -0.0681  0.2467 -0.3428
  645SOL    HW1 2071   2.142   1.610   3.358  0.1703  0.2526 -0.3393
  645SOL    HW2 2072   2.055   1.488   3.381 -0.7524  0.4408 -2.6070
  646SOL     OW 2073   0.146   0.303   1.314 -0.9601  0.4015 -0.5873
  646SOL    HW1 2074   0.087   0.372   1.283  0.6658  1.1237 -2.3011
  646SOL    HW2 2075   0.226   0.350   1.339 -1.0319 -0.5570  1.6046
  647SOL     OW 2076   0.620   3.298   0.082 -0.1015  0.0547 -0.1890
  647SOL    HW1 2077   0.684   3.271   0.148 -0.2044  1.5635  0.5759
  647SOL    HW2 2078   0.665   3.368   0.033 -0.4040 -0.3450 -1.0587
  648SOL     OW 2079   2.731   3.231   1.005  0.1465  0.3180 -0.0212
  648SOL    HW1 2080   2.644   3.226   1.043  0.5819  0.4885  1.0486
  648SOL    HW2 2081   2.762   3.141   1.000 -0.1759  0.2380 -0.6218
  649SOL     OW 2082   0.618   1.483   0.498  0.2734  0.2032  0.0375
  649SOL    HW1 2083   0.571   1.401   0.490 -0.6278  0.6405  0.6590
  649SOL    HW2 2084   0.610   1.524   0.412 -0.2786  0.1548  0.0596
  650SOL     OW 2085   2.521   1.610   0.517 -0.2315 -0.3654 -0.3964
  650SOL    HW1 2086   2.485   1.555   0.588 -0.4520  1.5776  1.0720
  650SOL    HW2 2087   2.604   1.568   0.494 -1.6191 -2.8788 -1.3143
  651SOL     OW 2088   2.691   1.897   2.513  0.0621 -1.0596 -0.5336
  651SOL    HW1 2089   2.750   1.848   2.456 -1.8890 -2.4650 -1.4517
  651SOL    HW2 2090   2.729   1.985   2.517  2.8579 -2.1796 -0.0497
  652SOL     OW 2091   1.198   0.339   1.859  0.3494  0.1309 -0.4388
  652SOL    HW1 2092   1.169   0.430   1.855 -0.1883  0.0401  0.8442
  652SOL    HW2 2093   1.181   0.304   1.771  0.5458  1.2488 -0.9371
  653SOL     OW 2094   3.084   1.252   1.404  0.2451  0.5743  0.2949
  653SOL    HW1 2095   3.129   1.234   1.487 -1.3006 -1.9682  0.6792
  653SOL    HW2 2096   3.012   1.311   1.427  1.0517  1.5691  0.3435
  654SOL     OW 2097   0.842   2.037   1.272  0.1270 -0.8083 -0.3389
  654SOL    HW1 2098   0.881   2.090   1.202  1.3677  0.9517  1.5638
  654SOL    HW2 2099   0.786   2.098   1.320 -0.8122 -2.0188  0.1477
  655SOL     OW 2100   0.770   1.513   1.286  0.4321 -0.6044  0.4410
  655SOL    HW1 2101   0.859   1.543   1.305  0.4327 -0.0783 -0.3677
  655SOL    HW2 2102   0.765   1.512   1.191 -0.7373  0.2923  0.4817
  656SOL     OW 2103   2.600   0.840   1.423  0.2391  0.7719  0.7545
  656SOL    HW1 2104   2.602   0.869   1.514 -1.0398  2.6064  0.2622
  656SOL    HW2 2105   2.672   0.888   1.381  1.4160 -0.7551  0.9251
  657SOL     OW 2106   2.742   2.125   0.225 -0.1647  0.5189  0.4270
  657SOL    HW1 2107   2.825   2.169   0.205 -0.3320  0.8298  0.4131
  657SOL    HW2 2108   2.685   2.195   0.258 -0.8979  0.5756 -0.9297
  658SOL     OW 2109   0.590   2.202   1.811  0.4710  0.0180 -0.0523
  658SOL    HW1 2110   0.513   2.215   1.866  0.6484 -1.5326  0.6084
  658SOL    HW2 2111   0.555   2.182   1.724  0.1604  0.5555 -0.0561
  659SOL     OW 2112   3.613   0.871   1.018 -0.2220  0.0168  0.4881
  659SOL    HW1 2113   3.646   0.827   0.939  2.7851  1.8806  0.5376
  659SOL    HW2 2114   3.524   0.897   0.996 -0.3174 -1.6686 -1.3587
  660SOL     OW 2115   3.220   1.769   2.274  0.5666  0.0823 -0.1261
  660SOL    HW1 2116   3.247   1.861   2.274  1.4086 -0.1501 -0.8615
  660SOL    HW2 2117   3.182   1.755   2.188 -0.2486 -0.0730  0.2531
  661SOL     OW 2118   1.003   3.180   1.790  0.2592 -0.2278 -0.0897
  661SOL    HW1 2119   0.970   3.256   1.836  0.6638 -0.1430  0.0613
  661SOL    HW2 2120   1.087   3.160   1.832  0.4494 -0.3814 -0.5308
  662SOL     OW 2121   2.179   3.396   0.308 -0.7824 -0.1340  0.0813
  662SOL    HW1 2122   2.219   3.460   0.249  0.5397  0.9360  2.0361
  662SOL    HW2 2123   2.099   3.439   0.338 -0.1409  0.4561  1.0155
  663SOL     OW 2124   1.603   1.747   0.160  0.6027  0.8785 -0.2082
  663SOL    HW1 2125   1.691   1.722   0.188  0.0374  0.8063  1.7073
  663SOL    HW2 2126   1.604   1.843   0.163  0.1783  0.8703  1.5217
  664SOL     OW 2127   1.527   0.734   1.457  0.0826  0.0938 -0.4727
  664SOL    HW1 2128   1.580   0.705   1.382  0.8837 -2.8107  1.0763
  664SOL    HW2 2129   1.581   0.716   1.533  0.0334  4.6194  0.9031
  665SOL     OW 2130   1.229   0.349   2.759 -0.0229 -0.1262  0.8142
  665SOL    HW1 2131   1.248   0.435   2.796  0.9280 -0.3463  0.8898
  665SOL    HW2 2132   1.315   0.305   2.757 -0.2013 -0.4664 -0.7706
  666SOL     OW 2133   1.029   1.952   3.411  0.0804  0.4755  0.7240
  666SOL    HW1 2134   1.016   2.040   3.444 -0.5473  0.7577 -0.2154
  666SOL    HW2 2135   1.106   1.919   3.458 -0.2511  1.1574  1.7835
  667SOL     OW 2136   3.548   0.027   1.534 -0.5075  0.1436 -0.6155
  667SOL    HW1 2137   3.514   0.115   1.524 -1.9502 -0.2178  0.7798
  667SOL    HW2 2138   3.628   0.038   1.586 -1.7588  0.4920  1.3266
  668SOL     OW 2139   3.336   3.188   1.531  0.8927  0.2241 -0.2230
  668SOL    HW1 2140   3.297   3.274   1.521  0.6253  0.3129  1.2661
  668SOL    HW2 2141   3.266   3.133   1.566  1.5328 -0.1309  0.5535
  669SOL     OW 2142   2.679   2.097   0.711  0.3280  0.6823  0.6796
  669SOL    HW1 2143   2.616   2.164   0.739 -0.4917  0.4681 -0.5766
  669SOL    HW2 2144   2.736   2.143   0.649  1.0379  0.7089  1.3320
  670SOL     OW 2145   2.729   0.506   0.292  0.0812 -0.0968 -0.1930
  670SOL    HW1 2146   2.798   0.443   0.271 -0.5110 -1.6646  2.1404
  670SOL    HW2 2147   2.659   0.453   0.330 -1.2520  1.7738  0.0944
  671SOL     OW 2148   2.501   2.886   3.087  0.4150 -0.3542  0.1251
  671SOL    HW1 2149   2.579   2.925   3.047 -0.0458 -0.9994 -1.4629
  671SOL    HW2 2150   2.535   2.815   3.142  0.9312 -0.8962 -0.8785
  672SOL     OW 2151   2.143   2.935   3.442 -0.4623  0.1353 -0.8699
  672SOL    HW1 2152   2.169   2.890   3.361  0.8156 -1.6068  0.4321
  672SOL    HW2 2153   2.085   2.873   3.487  0.5209  0.1644  0.4978
  673SOL     OW 2154   3.136   0.958   3.161 -0.0841  0.2297  0.3946
  673SOL    HW1 2155   3.049   0.958   3.121  0.2252  0.0629 -0.2841
  673SOL    HW2 2156   3.196   0.944   3.088  0.6713  2.4085  0.5171
  674SOL     OW 2157   2.173   3.472   2.985  0.2150  0.2034  0.9457
  674SOL    HW1 2158   2.118   3.550   2.972 -0.8320 -0.7655 -0.8757
  674SOL    HW2 2159   2.211   3.455   2.898  0.0350 -1.5732  1.1807
  675SOL     OW 2160   0.659   2.965   3.371  0.2067  0.8970 -0.0186
  675SOL    HW1 2161   0.620   2.922   3.295 -0.2839 -0.4711  0.9637
  675SOL    HW2 2162   0.743   2.920   3.384 -1.2324 -1.4222  2.3006
  676SOL     OW 2163   0.646   1.948  -0.004  0.1377 -0.1875 -0.0937
  676SOL    HW1 2164   0.609   1.876   0.046  0.3076 -0.0367  0.2523
  676SOL    HW2 2165   0.635   2.025   0.052  0.5977 -0.0689 -0.1624
  677SOL     OW 2166   0.740   3.108   2.620 -0.2574  0.6289 -0.3709
  677SOL    HW1 2167   0.648   3.106   2.593 -0.7088 -1.0165  1.0744
  677SOL    HW2 2168   0.744   3.178   2.686 -1.2857 -1.3215  1.9155
  678SOL     OW 2169   1.177   3.469   2.808 -0.7070  0.1217  0.0012
  678SOL    HW1 2170   1.223   3.385   2.794  3.4582  2.2477 -0.7105
  678SOL    HW2 2171   1.181   3.482   2.902  2.7496  1.3033 -0.1346
  679SOL     OW 2172   1.856   2.127   2.313 -0.0350 -0.9516 -0.1725
  679SOL    HW1 2173   1.938   2.116   2.265  0.0749  0.1224 -0.2760
  679SOL    HW2 2174   1.854   2.221   2.334 -1.0032 -1.0571  0.2485
  680SOL     OW 2175   0.604   2.033   1.544 -0.5658  0.2649  0.5041
  680SOL    HW1 2176   0.567   1.977   1.476 -1.2609 -0.4567  1.4557
  680SOL    HW2 2177   0.588   1.986   1.626 -0.0549  1.2768  1.2118
  681SOL     OW 2178  -0.001   1.501   3.368  0.3296  0.1775 -0.3105
  681SOL    HW1 2179  -0.036   1.434   3.426 -1.3136  0.7508 -0.5721
  681SOL    HW2 2180   0.053   1.556   3.424  0.6910 -0.6468  0.1611
  682SOL     OW 2181   2.291   2.039   0.431  0.5380 -0.2835 -0.1975
  682SOL    HW1 2182   2.343   1.963   0.405 -0.2711 -1.3387  1.1279
  682SOL    HW2 2183   2.203   2.019   0.401  0.0132 -0.5887  1.4313
  683SOL     OW 2184   0.134   1.638   0.280  0.3679 -0.1260 -0.8175
  683SOL    HW1 2185   0.064   1.688   0.238  0.8536  1.1389 -0.1712
  683SOL    HW2 2186   0.138   1.673   0.369  0.3066 -1.7695 -0.1194
  684SOL     OW 2187   0.692   3.349   1.015 -0.3658 -0.4367 -0.0668
  684SOL    HW1 2188   0.605   3.333   1.051 -1.4489  1.0545 -1.8323
  684SOL    HW2 2189   0.677   3.364   0.922  1.7090  0.3813 -0.3260
  685SOL     OW 2190   0.022   3.186   2.108  0.4846 -0.1875 -0.0191
  685SOL    HW1 2191   0.108   3.172   2.149  0.7684 -1.3060 -0.9372
  685SOL    HW2 2192   0.035   3.161   2.016 -0.7904 -0.2228 -0.2101
  686SOL     OW 2193   0.995   2.036   1.501  0.0695 -0.1734  0.7562
  686SOL    HW1 2194   1.062   2.081   1.450  1.1057 -1.1408  1.2320
  686SOL    HW2 2195   0.935   2.000   1.434 -0.8047  1.8680  0.3734
  687SOL     OW 2196   2.942   3.031   1.884  0.1210 -0.4670  0.1300
  687SOL    HW1 2197   2.946   3.076   1.968  1.1536 -3.4108  1.7713
  687SOL    HW2 2198   2.983   2.947   1.899  0.7997 -0.9577 -3.4873
  688SOL     OW 2199   0.889   1.190   3.376 -0.6974  0.5522  0.0784
  688SOL    HW1 2200   0.985   1.193   3.374 -0.6055 -1.5864 -1.2783
  688SOL    HW2 2201   0.863   1.281   3.389  1.5143  1.2174  0.2439
  689SOL     OW 2202   0.129   1.698   1.041 -0.5299  0.5292 -0.0789
  689SOL    HW1 2203   0.184   1.773   1.063  0.5049 -0.0656 -0.5437
  689SOL    HW2 2204   0.093   1.719   0.954 -0.7322  0.7490  0.0569
  690SOL     OW 2205   2.869   1.198   3.587  0.1917 -0.3334  0.1834
  690SOL    HW1 2206   2.859   1.266   3.654 -1.0889 -1.6456  1.4150
  690SOL    HW2 2207   2.865   1.116   3.637 -0.9688 -1.3666 -1.5206
  691SOL     OW 2208   3.384   0.607   1.596 -1.0353 -0.6960 -0.3826
  691SOL    HW1 2209   3.452   0.579   1.657 -0.0238  0.2812 -1.0084
  691SOL    HW2 2210   3.302   0.602   1.646 -0.3563 -0.8450  0.7384
  692SOL     OW 2211   0.571   2.005   2.231 -0.5340  0.1543  0.2522
  692SOL    HW1 2212   0.512   2.049   2.293  0.6140  0.3613  1.2367
  692SOL    HW2 2213   0.655   2.049   2.243  0.1298 -0.9475 -0.2409
  693SOL     OW 2214   0.550   1.687   2.359  0.2582 -0.2502  0.3167
  693SOL    HW1 2215   0.553   1.765   2.304 -0.6698 -1.3691 -1.4198
  693SOL    HW2 2216   0.485   1.707   2.426 -0.8935  0.0495 -0.8487
  694SOL     OW 2217   3.554   1.666   0.446  0.0033  0.7587  0.2391
  694SOL    HW1 2218   3.625   1.601   0.448 -0.8526 -0.2841 -1.0011
  694SOL    HW2 2219   3.480   1.618   0.409 -0.7477  2.3894 -0.4565
  695SOL     OW 2220   3.686   1.081   2.442 -0.3673 -0.2940  0.2666
  695SOL    HW1 2221   3.647   1.032   2.369  0.1458 -0.6933  0.2593
  695SOL    HW2 2222   3.627   1.155   2.454 -0.5381 -0.2970 -0.4647
  696SOL     OW 2223   3.247   3.077   2.042  0.6626  0.2193 -0.4689
  696SOL    HW1 2224   3.306   3.058   2.115 -0.7055  1.0888  0.9242
  696SOL    HW2 2225   3.184   3.004   2.043 -0.3116  1.0332  0.2986
  697SOL     OW 2226   2.670   3.001   0.222  0.1398 -0.2854 -0.2575
  697SOL    HW1 2227   2.649   3.095   0.229 -1.9064 -0.8158  1.9844
  697SOL    HW2 2228   2.761   2.995   0.250  0.1769  0.9947 -0.0072
  698SOL     OW 2229   2.542   1.621   1.496 -0.1425 -0.5684  0.0963
  698SOL    HW1 2230   2.637   1.615   1.503 -0.0355 -1.9403 -1.5731
  698SOL    HW2 2231   2.525   1.627   1.402 -1.6962  0.3377  0.3880
  699SOL     OW 2232   2.741   2.143   2.111  0.3043  0.0670 -0.2461
  699SOL    HW1 2233   2.665   2.100   2.151  1.6072 -1.1523  1.0222
  699SOL    HW2 2234   2.744   2.108   2.022 -0.7828  0.3702 -0.4132
  700SOL     OW 2235   0.280   3.401   0.484 -0.1681 -0.4821  0.6145
  700SOL    HW1 2236   0.321   3.346   0.417  0.2460  0.8284 -0.2484
  700SOL    HW2 2237   0.200   3.433   0.443  0.4007  0.8321  0.4680
  701SOL     OW 2238   1.685   3.358   2.280  0.0525  0.5277 -0.0807
  701SOL    HW1 2239   1.607   3.380   2.229 -0.0553 -0.3248 -0.2970
  701SOL    HW2 2240   1.738   3.438   2.280 -1.4380  1.5824  1.2202
  702SOL     OW 2241   2.369   2.211   0.725  0.0077  0.5271 -0.2717
  702SOL    HW1 2242   2.312   2.260   0.784 -0.9556  0.0178 -0.7578
  702SOL    HW2 2243   2.333   2.227   0.638  0.1727 -0.3796 -0.5195
  703SOL     OW 2244   2.235   2.589   2.964 -0.3153 -0.2754 -0.5072
  703SOL    HW1 2245   2.156   2.535   2.967  0.7670 -1.9123  0.6232
  703SOL    HW2 2246   2.205   2.675   2.934 -2.7376 -0.4246  1.2194
  704SOL     OW 2247   0.397   1.325   2.514  0.1481  0.2725 -0.5781
  704SOL    HW1 2248   0.319   1.379   2.502  0.1781  0.3310 -0.5103
  704SOL    HW2 2249   0.367   1.236   2.496  0.0372  0.2799 -0.4307
  705SOL     OW 2250   0.118   2.549   0.610 -0.7176  0.7966 -0.2888
  705SOL    HW1 2251   0.156   2.624   0.656 -1.4972  1.2937 -0.4332
  705SOL    HW2 2252   0.145   2.559   0.519  1.6085 -0.6916  0.1688
  706SOL     OW 2253   1.211   0.768   0.609 -0.4577 -0.0587 -0.2598
  706SOL    HW1 2254   1.169   0.852   0.595  0.2022  0.1541 -1.0487
  706SOL    HW2 2255   1.164   0.729   0.683 -0.1056  1.4378  0.7846
  707SOL     OW 2256   0.984   1.443   0.112 -0.4279  0.3895  0.3963
  707SOL    HW1 2257   0.899   1.465   0.072 -1.0986  0.1774  1.6347
  707SOL    HW2 2258   0.980   1.482   0.199  0.7136  0.2690  0.5178
  708SOL     OW 2259   0.925   1.964   2.632  0.5161 -0.3265 -0.4412
  708SOL    HW1 2260   1.004   1.939   2.680  0.3012 -2.1391 -0.9712
  708SOL    HW2 2261   0.949   1.955   2.540  0.0781  0.4307 -0.6434
  709SOL     OW 2262   0.358   2.004   3.135 -0.9031 -0.2156  0.0217
  709SOL    HW1 2263   0.353   1.951   3.056 -0.3110  0.9082 -0.8081
  709SOL    HW2 2264   0.447   1.991   3.167 -0.6114  0.5666 -0.4276
  710SOL     OW 2265   1.649   3.593   3.057 -0.1946 -0.2020  0.3263
  710SOL    HW1 2266   1.618   3.676   3.021  0.8139  0.2689  0.4747
  710SOL    HW2 2267   1.576   3.533   3.047 -1.0793  0.7967  0.5334
  711SOL     OW 2268   1.091   0.306   1.001 -0.1037  1.1474 -0.4685
  711SOL    HW1 2269   1.031   0.236   1.026  0.6722  1.6910  3.5886
  711SOL    HW2 2270   1.072   0.322   0.908  0.1860 -4.7856 -1.9210
  712SOL     OW 2271   0.348   1.846   2.910  0.5530  0.1592 -0.0258
  712SOL    HW1 2272   0.438   1.877   2.921  0.2056  1.1837  0.0667
  712SOL    HW2 2273   0.310   1.907   2.846  0.6971 -1.8749 -2.1943
  713SOL     OW 2274   1.180   0.718   2.094  0.3104 -1.1979 -0.9721
  713SOL    HW1 2275   1.210   0.796   2.139  2.7640 -1.1924 -2.4531
  713SOL    HW2 2276   1.190   0.648   2.158 -3.3085 -0.2736  0.8902
  714SOL     OW 2277   3.585   0.398   0.923 -0.1408  0.1201  0.2781
  714SOL    HW1 2278   3.627   0.484   0.930 -0.6220  0.2960  1.2244
  714SOL    HW2 2279   3.494   0.413   0.949 -0.5910 -0.4221 -0.9027
  715SOL     OW 2280   1.743   0.116  -0.013 -0.5709 -0.2955 -0.8300
  715SOL    HW1 2281   1.687   0.144   0.060  0.6556 -1.0337  0.4268
  715SOL    HW2 2282   1.729   0.022  -0.019  1.0276 -0.5992 -0.0552
  716SOL     OW 2283   0.881   2.648   0.517  0.4191 -0.6360  0.4998
  716SOL    HW1 2284   0.846   2.675   0.602 -0.3952  0.5961 -0.1883
  716SOL    HW2 2285   0.861   2.555   0.511 -0.6446 -0.4681  1.1368
  717SOL     OW 2286   3.039   1.357   0.468  0.0309  0.0633 -0.8210
  717SOL    HW1 2287   3.011   1.303   0.394  1.2491  0.3320 -1.5149
  717SOL    HW2 2288   2.964   1.359   0.527 -0.2782 -1.8465 -1.0767
  718SOL     OW 2289   3.399   1.426   1.812  0.3590  0.2640 -0.3168
  718SOL    HW1 2290   3.437   1.340   1.831 -0.4759 -0.3251 -1.2351
  718SOL    HW2 2291   3.471   1.476   1.774  0.4433 -0.6052 -1.3611
  719SOL     OW 2292   2.221   1.992   2.554 -0.3327  0.0262  0.3323
  719SOL    HW1 2293   2.180   2.017   2.471 -2.4636  0.8914  1.5579
  719SOL    HW2 2294   2.284   1.924   2.531  0.0484  1.1279 -2.1294
  720SOL     OW 2295   2.062   1.720   1.497 -0.6571  0.5357  0.6242
  720SOL    HW1 2296   2.136   1.770   1.530 -0.1748  0.3730 -0.1691
  720SOL    HW2 2297   1.988   1.780   1.500 -0.9883  0.1360  3.2645
  721SOL     OW 2298   0.144   2.609   2.285 -0.7338  0.1034 -0.5470
  721SOL    HW1 2299   0.101   2.572   2.208 -3.6764 -0.1157  1.0692
  721SOL    HW2 2300   0.100   2.569   2.359 -0.9281  3.3251  1.2784
  722SOL     OW 2301   2.552   2.038   0.067  0.2058 -0.5648  0.3504
  722SOL    HW1 2302   2.622   2.066   0.126  0.2770 -0.9473  0.4480
  722SOL    HW2 2303   2.596   2.020  -0.016  0.3131 -1.3349  0.5642
  723SOL     OW 2304   3.724   1.050   3.559 -0.2006  1.1567  0.3375
  723SOL    HW1 2305   3.705   1.035   3.467 -1.2406  1.8979  0.4105
  723SOL    HW2 2306   3.674   0.982   3.605  1.4186 -0.1048  0.3221
  724SOL     OW 2307   1.609   0.355   3.445 -0.3810  0.4486 -0.2258
  724SOL    HW1 2308   1.531   0.307   3.470 -0.3995  0.9710  0.7655
  724SOL    HW2 2309   1.643   0.391   3.527  0.1741  1.2994 -0.8087
  725SOL     OW 2310   3.605   2.247   2.262  0.6230 -0.3011 -0.2061
  725SOL    HW1 2311   3.583   2.182   2.329 -1.1829  0.6373  0.1907
  725SOL    HW2 2312   3.556   2.219   2.184 -0.4027  0.6863  0.0510
  726SOL     OW 2313   0.837   0.179   2.560  0.1160 -0.5699 -0.0102
  726SOL    HW1 2314   0.744   0.195   2.540  0.3157  3.3736  1.2286
  726SOL    HW2 2315   0.837   0.095   2.605 -2.7945 -0.9775 -0.5253
  727SOL     OW 2316   0.414   0.541   2.016 -0.2893 -0.1239 -0.3247
  727SOL    HW1 2317   0.487   0.492   1.979 -0.1415  2.1062 -3.4463
  727SOL    HW2 2318   0.447   0.631   2.023 -1.8760  0.4081  0.8311
  728SOL     OW 2319   1.919   1.030   2.946 -0.7297 -0.0487 -0.2680
  728SOL    HW1 2320   1.977   0.955   2.934 -0.5953  0.1339 -0.7980
  728SOL    HW2 2321   1.831   0.993   2.947 -0.5945 -0.3846  1.0216
  729SOL     OW 2322   1.036   1.471   2.820  0.2311  0.3661 -0.2496
  729SOL    HW1 2323   0.955   1.501   2.862 -0.0065 -0.2274 -0.2689
  729SOL    HW2 2324   1.018   1.480   2.726  0.3173  0.5697 -0.2456
  730SOL     OW 2325   2.674   0.012   3.446  0.4428 -0.2892  0.1332
  730SOL    HW1 2326   2.634   0.099   3.448  0.4983 -0.2121 -1.2532
  730SOL    HW2 2327   2.603  -0.046   3.417 -0.4459 -1.2523  3.7172
  731SOL     OW 2328   1.009   3.115   2.089  0.0713  0.0603  0.2108
  731SOL    HW1 2329   1.079   3.055   2.115  1.7431  2.0976  0.6326
  731SOL    HW2 2330   0.942   3.058   2.051  1.5323 -2.0646  0.6451
  732SOL     OW 2331   1.676   1.059   3.257 -0.1420  0.1071  0.1958
  732SOL    HW1 2332   1.624   0.982   3.281  0.0938  0.3988  1.7667
  732SOL    HW2 2333   1.611   1.123   3.229 -0.5104 -0.0112  0.7655
  733SOL     OW 2334   1.261   3.616   1.044  0.6111  0.0594  0.2235
  733SOL    HW1 2335   1.349   3.590   1.016  1.1317  0.1662  1.6693
  733SOL    HW2 2336   1.210   3.621   0.963  1.8703 -0.2510 -0.6104
  734SOL     OW 2337   2.764   0.079   2.464  0.5335 -0.1281 -0.9919
  734SOL    HW1 2338   2.709   0.115   2.394  0.9410  0.8114 -0.8293
  734SOL    HW2 2339   2.845   0.128   2.459 -0.0150  1.1272  1.2062
  735SOL     OW 2340   1.384   1.488   1.843 -0.2429  0.1048 -0.1345
  735SOL    HW1 2341   1.393   1.448   1.757  2.2787 -2.0241  0.9595
  735SOL    HW2 2342   1.437   1.568   1.838  1.0702 -0.7373 -0.2226
  736SOL     OW 2343   2.913   1.217   0.301  1.3753  0.9811  0.5591
  736SOL    HW1 2344   2.820   1.232   0.287  1.3165  0.4812  0.3742
  736SOL    HW2 2345   2.930   1.132   0.261  2.4292  2.1372 -1.6494
  737SOL     OW 2346   3.325   0.629   2.105 -0.8617 -0.2242 -0.3735
  737SOL    HW1 2347   3.348   0.620   2.197 -1.0705 -0.6013 -0.3594
  737SOL    HW2 2348   3.319   0.724   2.091  0.9796 -0.0801 -0.4401
  738SOL     OW 2349   1.572   2.752   1.910 -0.5105  0.0418 -0.1593
  738SOL    HW1 2350   1.616   2.763   1.826  1.4600 -0.3808  0.7452
  738SOL    HW2 2351   1.498   2.812   1.907 -1.1400 -0.7553 -2.5909
  739SOL     OW 2352   3.721   2.437   2.116  0.4023  0.2823  0.1536
  739SOL    HW1 2353   3.646   2.481   2.076  1.0699  1.2596 -0.0384
  739SOL    HW2 2354   3.682   2.378   2.181 -0.5682  0.2591 -0.4296
  740SOL     OW 2355   2.879   0.620   2.261  0.3202  0.4420  0.3293
  740SOL    HW1 2356   2.840   0.704   2.235  0.4272  0.6853  0.9562
  740SOL    HW2 2357   2.970   0.641   2.280  0.0753  0.4053  1.6001
  741SOL     OW 2358   3.197   0.409   2.841 -0.0947  0.0199 -0.0888
  741SOL    HW1 2359   3.286   0.400   2.808  1.1605  1.3579  2.6806
  741SOL    HW2 2360   3.177   0.502   2.833 -0.8613 -0.1081  0.2418
  742SOL     OW 2361   2.582   2.381   1.947 -0.2123 -0.0118  0.1205
  742SOL    HW1 2362   2.554   2.381   2.039  0.5332 -0.0702  0.3506
  742SOL    HW2 2363   2.502   2.361   1.899 -0.8025  0.9067  0.6932
  743SOL     OW 2364   1.703   3.225   3.375 -0.1827  0.4672 -0.0197
  743SOL    HW1 2365   1.744   3.247   3.291 -0.0325  3.8144  0.7735
  743SOL    HW2 2366   1.774   3.235   3.439 -0.9083  0.6681  0.7629
  744SOL     OW 2367   2.737   2.877   1.746  0.0110 -0.1051  0.3654
  744SOL    HW1 2368   2.785   2.958   1.764  1.0160 -0.2924 -1.2430
  744SOL    HW2 2369   2.700   2.852   1.830 -0.2086  1.9490  0.9256
  745SOL     OW 2370   0.468   2.951   0.273 -0.0880  0.6009  0.3292
  745SOL    HW1 2371   0.481   2.979   0.182 -0.5979  0.7078  0.2882
  745SOL    HW2 2372   0.507   2.864   0.277 -1.2249  0.0513 -0.3249
  746SOL     OW 2373   0.594   3.457   3.304  0.4795  0.3289  0.4364
  746SOL    HW1 2374   0.529   3.397   3.268  1.3513 -1.0254  1.0420
  746SOL    HW2 2375   0.564   3.472   3.394  0.8310 -0.0677  0.6240
  747SOL     OW 2376   0.654   2.205   0.126  0.1238 -0.4240  0.0427
  747SOL    HW1 2377   0.638   2.179   0.216  0.3666 -2.0290 -0.3442
  747SOL    HW2 2378   0.715   2.279   0.132 -1.0084  0.4557  1.2173
  748SOL     OW 2379   3.590   2.888   0.165  0.0581 -0.0914  0.6967
  748SOL    HW1 2380   3.578   2.839   0.246 -0.8081 -0.6690  0.2362
  748SOL    HW2 2381   3.684   2.909   0.163  0.1486 -0.3552  1.6699
  749SOL     OW 2382   3.532   1.205   0.195  0.1590 -0.5811  0.1781
  749SOL    HW1 2383   3.509   1.196   0.103 -1.7694  1.1028  0.4218
  749SOL    HW2 2384   3.469   1.150   0.241 -0.6502  0.6716  0.6151
  750SOL     OW 2385   3.147   0.828   2.486 -0.3619  0.1329 -0.0979
  750SOL    HW1 2386   3.086   0.902   2.496 -1.2877 -0.5801 -0.3676
  750SOL    HW2 2387   3.210   0.858   2.420  2.2494  2.5697  3.1215
  751SOL     OW 2388   0.114   2.645   3.259  0.1489 -0.0847  0.1315
  751SOL    HW1 2389   0.124   2.555   3.229 -0.1186 -0.6928  1.7315
  751SOL    HW2 2390   0.203   2.679   3.264  0.3124 -0.5168  0.2112
  752SOL     OW 2391   2.431   1.884   3.092 -0.2118 -0.3864 -0.0939
  752SOL    HW1 2392   2.420   1.899   3.186  0.2074  1.0521 -0.2479
  752SOL    HW2 2393   2.422   1.789   3.082 -0.1130 -0.5879  1.4128
  753SOL     OW 2394   0.332   2.763   1.726  0.6558 -0.3907 -0.1952
  753SOL    HW1 2395   0.271   2.798   1.791 -0.9130  0.3794 -1.9817
  753SOL    HW2 2396   0.357   2.678   1.761 -1.0736 -0.5332  0.8537
  754SOL     OW 2397   1.373   0.660   1.866  0.0756 -0.2247 -0.0204
  754SOL    HW1 2398   1.377   0.740   1.813  1.7001 -1.4493 -1.8631
  754SOL    HW2 2399   1.305   0.679   1.932 -2.0860  1.4107 -2.4989
  755SOL     OW 2400   2.911  -0.010   3.054 -0.2242  0.2195 -0.4794
  755SOL    HW1 2401   2.914   0.083   3.034 -2.1708  0.8422  1.6383
  755SOL    HW2 2402   3.002  -0.040   3.044  0.5993  2.5107 -0.4249
  756SOL     OW 2403   2.631   2.350   0.331 -0.8232 -0.0466 -0.3365
  756SOL    HW1 2404   2.571   2.398   0.388 -1.8154 -0.6636 -0.8396
  756SOL    HW2 2405   2.648   2.410   0.259 -2.1922 -0.4879 -1.0482
  757SOL     OW 2406   0.915   2.822   3.313  0.0228  0.3159 -0.2213
  757SOL    HW1 2407   1.011   2.815   3.312 -0.0746 -3.1400 -1.6243
  757SOL    HW2 2408   0.895   2.898   3.259  1.9783  1.1124  0.1074
  758SOL     OW 2409   3.240   0.420   3.096 -0.0633  0.0553 -0.1830
  758SOL    HW1 2410   3.213   0.402   3.006 -1.4992 -0.0362  0.2343
  758SOL    HW2 2411   3.286   0.503   3.091 -1.2217  0.6891 -0.8435
  759SOL     OW 2412   1.358   0.200   0.522 -0.1032  0.1993 -0.6784
  759SOL    HW1 2413   1.364   0.291   0.552 -1.8783  0.1726 -0.1112
  759SOL    HW2 2414   1.264   0.186   0.509  0.0614 -1.8101  0.0555
  760SOL     OW 2415   0.045   3.010   0.574  0.6304  0.4635  0.3458
  760SOL    HW1 2416   0.097   2.997   0.495  1.3569  2.4515  0.4514
  760SOL    HW2 2417   0.104   3.054   0.635 -1.4764  4.3390 -0.0597
  761SOL     OW 2418   1.030   0.213   2.098  0.0540  0.1748 -0.2940
  761SOL    HW1 2419   1.015   0.187   2.189  3.8783 -1.7093  0.0028
  761SOL    HW2 2420   1.109   0.267   2.101  0.0225  0.4288 -2.4692
  762SOL     OW 2421   1.475   1.788   0.617  0.4406 -0.0785  0.6123
  762SOL    HW1 2422   1.520   1.724   0.561  0.8903 -0.6821  1.6322
  762SOL    HW2 2423   1.383   1.784   0.588  0.8689  0.6419 -1.0002
  763SOL     OW 2424   1.563   0.760   2.161 -0.2215 -0.1690  0.5415
  763SOL    HW1 2425   1.500   0.832   2.155  0.6287  0.5825  0.3072
  763SOL    HW2 2426   1.545   0.705   2.085 -0.2719  0.3075  0.2037
  764SOL     OW 2427   0.672   1.178   0.968  0.7723  0.0044  0.6006
  764SOL    HW1 2428   0.660   1.106   0.906 -0.0949 -0.3137  1.1201
  764SOL    HW2 2429   0.740   1.233   0.928 -0.9419  0.7504 -1.4931
  765SOL     OW 2430   0.324   1.232   0.620 -0.3836 -0.2192  0.3281
  765SOL    HW1 2431   0.417   1.218   0.603 -0.1765  1.0724  0.3205
  765SOL    HW2 2432   0.321   1.286   0.700 -1.0757  0.6188 -0.2404
  766SOL     OW 2433   3.436   1.422   0.691 -0.3016  0.0699 -0.6323
  766SOL    HW1 2434   3.441   1.466   0.776  1.0661  4.3448 -2.6656
  766SOL    HW2 2435   3.377   1.477   0.639  1.5745 -0.3746 -3.4386
  767SOL     OW 2436   0.701   3.710   1.421  0.0739  0.3756  0.0683
  767SOL    HW1 2437   0.755   3.787   1.408  1.0697 -0.2539  0.3508
  767SOL    HW2 2438   0.736   3.645   1.360 -0.0735 -0.1729  0.5510
  768SOL     OW 2439   1.941   0.301   0.393  0.1128 -1.0016 -0.1327
  768SOL    HW1 2440   1.959   0.290   0.486 -0.2192 -3.0588 -0.2633
  768SOL    HW2 2441   1.874   0.370   0.389 -1.0779 -2.0205  1.2892
  769SOL     OW 2442   2.148   0.613   0.042 -0.2667 -0.2091 -0.1109
  769SOL    HW1 2443   2.136   0.591   0.135  2.2059 -1.8813 -0.1055
  769SOL    HW2 2444   2.072   0.668   0.021 -1.5858 -0.8439  2.5364
  770SOL     OW 2445   0.817   2.935   1.997  0.0043 -0.1854 -0.5978
  770SOL    HW1 2446   0.737   2.952   1.948  0.6318 -1.6933 -2.2497
  770SOL    HW2 2447   0.788   2.915   2.086 -1.4953 -1.0607 -1.2541
  771SOL     OW 2448   1.322   3.140   1.150  0.2802  0.2492  0.1985
  771SOL    HW1 2449   1.413   3.123   1.173  0.3788  1.5908  0.8974
  771SOL    HW2 2450   1.272   3.124   1.230 -0.2377 -1.2762 -0.3882
  772SOL     OW 2451   1.058   2.696   0.283  0.0920  0.2798  0.5103
  772SOL    HW1 2452   0.991   2.704   0.215 -0.1195  0.2169  0.7138
  772SOL    HW2 2453   1.023   2.632   0.345  1.2422 -1.3944 -0.4737
  773SOL     OW 2454   0.278   0.940   2.749 -0.2076  0.2521  0.0345
  773SOL    HW1 2455   0.296   0.916   2.839  0.9969 -1.2117 -0.5577
  773SOL    HW2 2456   0.184   0.925   2.738 -0.0865 -1.0710  0.6389
  774SOL     OW 2457   3.591   3.486   0.855 -0.1590  0.3960 -0.5769
  774SOL    HW1 2458   3.574   3.444   0.939 -0.7139  1.5061 -0.1219
  774SOL    HW2 2459   3.538   3.565   0.856  0.7801  1.0678 -1.4536
  775SOL     OW 2460   0.000   1.733   1.912 -0.1579  0.5389  0.7006
  775SOL    HW1 2461   0.039   1.682   1.983 -0.3721 -2.4809 -1.1976
  775SOL    HW2 2462   0.068   1.737   1.845 -1.1370  0.2504 -0.3370
  776SOL     OW 2463   1.764   2.757   3.008  0.2829  0.0636 -0.4377
  776SOL    HW1 2464   1.749   2.695   2.937  0.2276 -0.1544 -0.2362
  776SOL    HW2 2465   1.775   2.702   3.086 -1.9448  0.3776  0.1595
  777SOL     OW 2466   0.646   0.755   2.020  0.7054  0.4058 -0.4581
  777SOL    HW1 2467   0.651   0.765   2.115 -1.6745  2.6002 -0.4517
  777SOL    HW2 2468   0.657   0.844   1.987 -0.8639  0.0559 -2.0686
  778SOL     OW 2469   0.609   0.126   1.975 -0.0709  0.2946  0.0697
  778SOL    HW1 2470   0.596   0.190   1.905  1.5740  0.6753  0.0593
  778SOL    HW2 2471   0.529   0.074   1.976 -2.1295  3.2526  1.0517
  779SOL     OW 2472   2.744   1.796   1.994  0.0885  0.5019  0.6574
  779SOL    HW1 2473   2.780   1.817   1.907 -2.7230  0.4551 -0.6338
  779SOL    HW2 2474   2.690   1.872   2.016 -0.7569 -0.3093  1.4639
  780SOL     OW 2475   3.115   0.392   2.193  0.6344  0.1343  0.3055
  780SOL    HW1 2476   3.151   0.308   2.224  0.9648 -0.0705 -0.6121
  780SOL    HW2 2477   3.168   0.458   2.238  1.3434 -0.1593 -0.0781
  781SOL     OW 2478   1.244   0.473   0.379  0.7475 -0.2732 -0.3478
  781SOL    HW1 2479   1.202   0.405   0.326  2.6714 -1.1674 -0.7977
  781SOL    HW2 2480   1.333   0.442   0.393  1.1614  1.3369  0.9623
  782SOL     OW 2481   2.229   1.190   3.432  0.3158 -0.0680 -0.1141
  782SOL    HW1 2482   2.224   1.188   3.527  0.1407 -0.1744 -0.1253
  782SOL    HW2 2483   2.147   1.231   3.404 -0.8206 -2.3687 -0.3290
  783SOL     OW 2484   1.465   0.899   1.230  0.3713 -0.3525  0.0866
  783SOL    HW1 2485   1.456   0.900   1.326  0.5948 -0.5544  0.1127
  783SOL    HW2 2486   1.547   0.852   1.215  0.4483 -0.1260 -0.1975
  784SOL     OW 2487   3.180   2.048   0.416 -0.0986  0.6512  0.1154
  784SOL    HW1 2488   3.247   2.027   0.481 -1.0083 -0.3444  0.7617
  784SOL    HW2 2489   3.135   1.965   0.400 -0.9520  1.2293 -0.5676
  785SOL     OW 2490   0.422   3.295   1.360 -0.0615 -0.1612  1.0492
  785SOL    HW1 2491   0.398   3.367   1.418 -0.6877 -0.6555  1.4163
  785SOL    HW2 2492   0.359   3.226   1.380 -0.4231 -0.2683 -0.3734
  786SOL     OW 2493   0.917   1.577   3.169  0.2297  0.2453 -0.0148
  786SOL    HW1 2494   0.964   1.643   3.117  1.1371  0.6740  1.2934
  786SOL    HW2 2495   0.950   1.589   3.258 -0.3261 -1.3341  0.4322
  787SOL     OW 2496   0.501   1.596   3.649  0.6262 -0.2705 -0.0418
  787SOL    HW1 2497   0.459   1.591   3.735  0.1674  0.6225 -0.2020
  787SOL    HW2 2498   0.572   1.531   3.653  1.2335  0.4235  1.3552
  788SOL     OW 2499   1.496   0.640   0.954 -0.2497  0.3228 -0.7070
  788SOL    HW1 2500   1.430   0.578   0.985  1.0079 -1.3532 -1.2102
  788SOL    HW2 2501   1.492   0.634   0.858  1.1643 -0.4666 -0.7510
  789SOL     OW 2502   1.325   2.525   2.731  0.1137 -0.2374 -0.0597
  789SOL    HW1 2503   1.249   2.532   2.789  0.4055 -2.1491  0.6322
  789SOL    HW2 2504   1.382   2.597   2.757 -1.2422  0.9939 -0.3158
  790SOL     OW 2505   3.359   3.022   1.810  0.0922 -0.0329 -0.5065
  790SOL    HW1 2506   3.315   3.046   1.892 -1.0729 -0.6889 -0.9160
  790SOL    HW2 2507   3.390   3.105   1.774  1.5899  0.1711  1.0979
  791SOL     OW 2508   1.930   1.899   3.006  0.1400  0.4571 -0.1213
  791SOL    HW1 2509   1.966   1.895   3.095  0.7498  0.5821 -0.3585
  791SOL    HW2 2510   2.007   1.890   2.949 -0.0880  1.6855 -0.6422
  792SOL     OW 2511   0.554   0.129   1.627 -0.3591  0.2724 -0.4487
  792SOL    HW1 2512   0.566   0.057   1.565  0.3484 -1.6400  1.7368
  792SOL    HW2 2513   0.643   0.163   1.640  0.2247 -1.8361  2.1441
  793SOL     OW 2514   1.743   1.397   0.128 -0.5166 -0.1306  0.2364
  793SOL    HW1 2515   1.795   1.408   0.048  0.4319 -1.7454  0.5829
  793SOL    HW2 2516   1.731   1.486   0.161 -0.2198  0.4886 -1.2583
  794SOL     OW 2517   3.299   3.305   0.605  0.2460  0.1639 -0.2939
  794SOL    HW1 2518   3.362   3.367   0.568  0.8867  0.9507  1.9416
  794SOL    HW2 2519   3.214   3.335   0.572  0.8771 -0.0989 -2.2724
  795SOL     OW 2520   1.507   1.236   3.102 -0.0172  0.3217 -0.2832
  795SOL    HW1 2521   1.518   1.316   3.052  2.9982 -0.0077 -0.2762
  795SOL    HW2 2522   1.436   1.189   3.057 -0.8813  2.3213 -1.0950
  796SOL     OW 2523   2.274   3.667   0.245  0.6160  0.3234  0.0741
  796SOL    HW1 2524   2.285   3.739   0.182 -2.7506  0.0247 -1.0572
  796SOL    HW2 2525   2.255   3.711   0.328  3.9715  0.6995  0.7769
  797SOL     OW 2526   3.102   3.602   0.590 -0.0580 -0.1923 -0.2813
  797SOL    HW1 2527   3.190   3.636   0.574  0.4326  0.1071  2.5272
  797SOL    HW2 2528   3.084   3.546   0.514  1.3363  1.9478 -2.3389
  798SOL     OW 2529   0.186   0.903   0.906 -0.0649  0.0753 -0.4858
  798SOL    HW1 2530   0.163   0.993   0.883  1.1816  0.5145 -0.0851
  798SOL    HW2 2531   0.193   0.903   1.001 -1.7225 -0.8858 -0.3170
  799SOL     OW 2532   0.199   1.409   0.845  0.2768  0.1699  0.2375
  799SOL    HW1 2533   0.236   1.378   0.928  0.3787  0.9974  0.5150
  799SOL    HW2 2534   0.247   1.490   0.827 -0.0377  0.2122 -0.4189
  800SOL     OW 2535   2.020   0.948   1.812  0.3510 -0.3810 -0.5216
  800SOL    HW1 2536   2.088   0.964   1.746 -0.2952  1.2930 -0.8367
  800SOL    HW2 2537   1.938   0.946   1.763  0.0765 -1.4283 -0.0327
  801SOL     OW 2538   0.483   2.378   1.534  0.1674  0.2054 -0.0194
  801SOL    HW1 2539   0.421   2.424   1.477  0.9312  0.4415 -0.6765
  801SOL    HW2 2540   0.569   2.413   1.509  0.8488 -2.0037 -0.9527
  802SOL     OW 2541   1.090   0.918   3.021 -0.2096 -0.2625  1.2072
  802SOL    HW1 2542   1.019   0.979   3.039  0.3271  1.1147 -0.9366
  802SOL    HW2 2543   1.165   0.953   3.069 -0.0416  0.5021  0.4103
  803SOL     OW 2544   2.309   2.307  -0.001 -0.4135 -0.1272 -0.0371
  803SOL    HW1 2545   2.358   2.246   0.054  1.5390  1.1209 -0.2944
  803SOL    HW2 2546   2.289   2.380   0.056 -0.3314  0.1984 -0.4220
  804SOL     OW 2547   0.245   3.194   0.694  0.0281 -0.0990  0.1723
  804SOL    HW1 2548   0.323   3.146   0.721  0.3820  0.7471  0.6668
  804SOL    HW2 2549   0.274   3.249   0.621 -0.0835  0.2914  0.4196
  805SOL     OW 2550   2.708   0.667   3.291 -0.2704  0.6448 -0.0905
  805SOL    HW1 2551   2.719   0.732   3.361  1.1096  0.5995 -0.2303
  805SOL    HW2 2552   2.636   0.702   3.238 -0.7163  1.1575  0.8148
  806SOL     OW 2553   0.457   2.252   0.935 -0.8213 -0.2474  0.1650
  806SOL    HW1 2554   0.496   2.224   0.853 -2.2285 -0.8223 -0.3366
  806SOL    HW2 2555   0.365   2.271   0.914 -1.2624 -0.5759  1.6269
  807SOL     OW 2556   2.716   2.374   3.297 -0.2968  0.6903 -0.4871
  807SOL    HW1 2557   2.684   2.285   3.282  0.5317  0.0088  1.4145
  807SOL    HW2 2558   2.648   2.417   3.348  0.4712  0.1786  1.0451
  808SOL     OW 2559   3.660   3.197   2.797 -0.2797 -0.1993 -0.3512
  808SOL    HW1 2560   3.590   3.138   2.769 -0.3230 -1.8459  2.8201
  808SOL    HW2 2561   3.736   3.140   2.810  0.2546  0.7493  0.9069
  809SOL     OW 2562   3.404   3.581   0.045  0.0023  0.2902  0.0999
  809SOL    HW1 2563   3.350   3.597  -0.033  0.4994 -0.6071 -0.4536
  809SOL    HW2 2564   3.363   3.506   0.087  0.7061 -0.3016 -0.2422
  810SOL     OW 2565   0.048   3.549   0.375 -0.7286  0.3118  0.7835
  810SOL    HW1 2566   0.063   3.629   0.324  0.3253  0.2836  1.0276
  810SOL    HW2 2567  -0.032   3.513   0.338  0.2105  0.0619 -1.2041
  811SOL     OW 2568   1.642   1.259   2.811 -0.5330 -0.4707  0.1823
  811SOL    HW1 2569   1.710   1.256   2.744 -1.2058 -0.8461 -0.5022
  811SOL    HW2 2570   1.643   1.172   2.851 -1.1639 -0.7541 -0.4030
  812SOL     OW 2571   1.524   0.210   1.573  0.1551 -0.0802  0.2793
  812SOL    HW1 2572   1.594   0.212   1.507 -1.3058 -2.1561 -1.4593
  812SOL    HW2 2573   1.443   0.200   1.523 -1.1001 -1.1615  2.3688
  813SOL     OW 2574   3.399   3.087   0.111 -0.0032 -0.5187  0.3739
  813SOL    HW1 2575   3.351   3.089   0.194  0.2030  1.4123  0.4997
  813SOL    HW2 2576   3.459   3.013   0.119  0.4150 -0.0213  2.1908
  814SOL     OW 2577   2.450   2.504   0.460  0.0210 -0.3794 -0.0115
  814SOL    HW1 2578   2.356   2.489   0.459 -0.2505  1.1532 -0.0137
  814SOL    HW2 2579   2.460   2.597   0.483  1.4321  0.0294 -1.9326
  815SOL     OW 2580   1.502   1.237   0.248  0.4188 -0.3653  0.3109
  815SOL    HW1 2581   1.561   1.312   0.251  1.9619 -1.5472  0.7154
  815SOL    HW2 2582   1.425   1.265   0.298 -0.7649  2.2522 -2.6260
  816SOL     OW 2583   1.808   2.233   1.622 -0.0454 -0.1725 -0.4680
  816SOL    HW1 2584   1.764   2.158   1.582 -1.8486 -0.7861  2.3785
  816SOL    HW2 2585   1.887   2.246   1.569 -0.5077 -3.0047 -2.0439
  817SOL     OW 2586   3.653   2.676   0.937  0.6200  0.1125  0.2455
  817SOL    HW1 2587   3.615   2.693   0.851  0.0071  1.5664  0.7753
  817SOL    HW2 2588   3.747   2.692   0.925  0.6878 -0.6468 -0.3631
  818SOL     OW 2589   1.182   2.710   3.355 -0.0294 -0.9428  0.0407
  818SOL    HW1 2590   1.261   2.717   3.408 -1.0882  3.4853  1.4547
  818SOL    HW2 2591   1.136   2.633   3.389  2.1321 -1.7627  1.2965
  819SOL     OW 2592   1.425   3.138   1.773  0.2491  0.3189 -0.2027
  819SOL    HW1 2593   1.444   3.075   1.704 -1.9584  0.3760 -0.9202
  819SOL    HW2 2594   1.373   3.089   1.837  0.5681  0.7961  0.4420
  820SOL     OW 2595   3.595   0.798   3.201 -0.8140  0.8582 -0.0265
  820SOL    HW1 2596   3.649   0.836   3.132  0.1321  1.0533  0.7797
  820SOL    HW2 2597   3.592   0.866   3.269 -2.1726  0.8795 -0.0950
  821SOL     OW 2598   1.879   1.597   0.493 -0.5033  0.0646 -0.0576
  821SOL    HW1 2599   1.868   1.669   0.556 -1.1130 -0.5287  0.5378
  821SOL    HW2 2600   1.971   1.573   0.500 -0.0322  1.4608 -1.0316
  822SOL     OW 2601   1.282   1.934   1.652  0.3781  0.1304  0.5261
  822SOL    HW1 2602   1.253   2.011   1.701 -0.5055  1.9062 -2.5480
  822SOL    HW2 2603   1.203   1.881   1.642  0.4277  0.0632  0.4885
  823SOL     OW 2604   2.818   3.103   3.440 -0.3301 -0.7360  0.1562
  823SOL    HW1 2605   2.851   3.168   3.378  0.8115 -1.8232 -0.3974
  823SOL    HW2 2606   2.774   3.155   3.508  1.9087  0.7277  0.5625
  824SOL     OW 2607   1.107   2.244   2.263 -0.2892 -0.0735  0.1826
  824SOL    HW1 2608   1.165   2.195   2.205  3.4025 -0.3187  3.6952
  824SOL    HW2 2609   1.138   2.334   2.257  0.5590 -0.2036  2.1057
  825SOL     OW 2610   3.725   3.215   1.852 -0.0702 -0.5034  0.0043
  825SOL    HW1 2611   3.657   3.249   1.910  0.2508  0.3583 -0.1156
  825SOL    HW2 2612   3.752   3.290   1.799  0.4193 -1.0224 -0.4950
  826SOL     OW 2613   2.476   0.298   1.951 -0.2503 -0.3779  0.0288
  826SOL    HW1 2614   2.465   0.364   2.020  2.4706  0.1268  0.1278
  826SOL    HW2 2615   2.479   0.348   1.870  0.8069 -0.4388  0.0086
  827SOL     OW 2616   2.280   0.061   3.558  0.6791 -0.6246 -0.1875
  827SOL    HW1 2617   2.288   0.152   3.530  0.5405 -0.5058  0.1619
  827SOL    HW2 2618   2.243   0.016   3.481  0.3000 -0.2962 -0.2010
  828SOL     OW 2619   1.655   0.969   2.897  0.8750 -0.2644 -0.1787
  828SOL    HW1 2620   1.650   0.882   2.937  2.5443 -0.0714  0.5177
  828SOL    HW2 2621   1.696   0.954   2.812  2.5608 -0.0251  0.5505
  829SOL     OW 2622   0.842   0.498   1.561 -1.0133  0.1980 -0.7766
  829SOL    HW1 2623   0.795   0.555   1.621 -1.6109 -0.9741 -0.1051
  829SOL    HW2 2624   0.914   0.552   1.527  0.2923  0.4607  2.1569
  830SOL     OW 2625   0.053   1.685   3.630  0.0447 -0.1383 -0.2075
  830SOL    HW1 2626   0.085   1.596   3.646  0.3246  0.2209  1.2958
  830SOL    HW2 2627   0.108   1.716   3.557  1.9357 -0.1844  1.1273
  831SOL     OW 2628   1.460   0.081   2.243 -0.1050 -0.1669  0.1495
  831SOL    HW1 2629   1.479   0.096   2.151  1.6725  2.0690  0.7986
  831SOL    HW2 2630   1.482  -0.012   2.257 -1.4896 -0.8560 -1.8563
  832SOL     OW 2631   0.317   3.576   1.445  0.9713 -0.2119  0.1073
  832SOL    HW1 2632   0.363   3.585   1.529 -0.0637 -2.0335  0.9282
  832SOL    HW2 2633   0.249   3.642   1.449  0.3104 -0.9191  1.1766
  833SOL     OW 2634   0.716   0.584   0.695 -0.6721 -0.6644 -0.1342
  833SOL    HW1 2635   0.803   0.575   0.655 -1.2777 -1.0498 -1.4069
  833SOL    HW2 2636   0.658   0.534   0.638 -1.5093 -1.6858  1.5479
  834SOL     OW 2637   3.622   0.384   2.054 -0.5089  0.5429  0.0759
  834SOL    HW1 2638   3.703   0.435   2.048 -0.1301 -0.0289  0.1960
  834SOL    HW2 2639   3.650   0.300   2.092 -1.3605  0.7890  1.2883
  835SOL     OW 2640   1.260   3.566   3.344  0.2707 -0.1826  0.3631
  835SOL    HW1 2641   1.307   3.488   3.374 -0.7047 -0.9904 -0.1537
  835SOL    HW2 2642   1.320   3.639   3.363  2.5650 -1.3084 -1.9552
  836SOL     OW 2643   3.481   2.838   3.654 -0.1151  0.2616  0.4731
  836SOL    HW1 2644   3.545   2.811   3.588 -1.2917  0.3853 -0.7569
  836SOL    HW2 2645   3.529   2.835   3.737  1.9430  1.8134 -0.5688
  837SOL     OW 2646   0.118   0.798   1.153  0.0255  0.4552 -0.2832
  837SOL    HW1 2647   0.125   0.708   1.122 -0.2075 -0.2040  1.4707
  837SOL    HW2 2648   0.036   0.830   1.116 -1.9675 -1.4088  2.1217
  838SOL     OW 2649   1.750   3.607   2.322 -0.1018 -0.3819  0.0282
  838SOL    HW1 2650   1.740   3.684   2.378  0.7086 -0.3243  0.1066
  838SOL    HW2 2651   1.788   3.641   2.241 -0.0824 -0.6434 -0.0739
  839SOL     OW 2652   1.560   3.669   1.646  0.0917 -0.3120  0.7213
  839SOL    HW1 2653   1.474   3.659   1.688 -2.2735  2.7688 -2.7565
  839SOL    HW2 2654   1.566   3.762   1.626  3.7598 -0.6339 -0.3707
  840SOL     OW 2655   2.927   3.539   1.073  0.3786 -0.4097 -0.9268
  840SOL    HW1 2656   2.950   3.479   1.145  0.5434 -0.2631 -0.8544
  840SOL    HW2 2657   2.974   3.504   0.997 -0.8873 -1.3620 -1.3004
  841SOL     OW 2658   1.316   1.928   2.461 -0.2108 -0.2675 -0.0094
  841SOL    HW1 2659   1.369   1.849   2.455  0.6745  0.3629 -0.6249
  841SOL    HW2 2660   1.326   1.957   2.552  1.4357  0.4751 -0.4072
  842SOL     OW 2661   3.079   0.642   2.764  0.2111 -0.3422  0.0973
  842SOL    HW1 2662   3.028   0.636   2.684 -1.8391  3.4305  0.9006
  842SOL    HW2 2663   3.014   0.649   2.834  1.8507  1.1314  1.5752
  843SOL     OW 2664   2.037   2.687   0.086  0.1547 -0.4945 -0.0690
  843SOL    HW1 2665   2.034   2.767   0.139  0.9611 -0.4845 -0.0340
  843SOL    HW2 2666   2.007   2.714  -0.000  2.8376  0.4645 -0.8108
  844SOL     OW 2667   2.141   1.297   0.933  0.0104  0.2744 -0.4951
  844SOL    HW1 2668   2.181   1.335   1.011 -3.1632 -1.7077  2.3854
  844SOL    HW2 2669   2.188   1.215   0.920  0.0699  0.2533 -0.1701
  845SOL     OW 2670   3.164   1.427   2.372  0.0908 -0.0205  0.2538
  845SOL    HW1 2671   3.220   1.396   2.443  0.4414 -0.6451 -0.2842
  845SOL    HW2 2672   3.076   1.432   2.410  0.1994 -0.7777  0.6110
  846SOL     OW 2673   3.446   1.224   2.454  0.1096  0.1197  0.4646
  846SOL    HW1 2674   3.397   1.235   2.372 -1.0314 -1.5093  0.8852
  846SOL    HW2 2675   3.380   1.230   2.523  0.9308  0.6179  1.2372
  847SOL     OW 2676   3.158   3.079   1.233  0.8493 -0.4045  0.2671
  847SOL    HW1 2677   3.062   3.079   1.237  0.7969  2.5641  0.5823
  847SOL    HW2 2678   3.185   3.045   1.318 -0.0036  2.2020  1.6678
  848SOL     OW 2679   2.918   2.153   3.555  0.0374 -0.5052 -0.2721
  848SOL    HW1 2680   2.952   2.243   3.557  0.9074 -0.8397  0.1900
  848SOL    HW2 2681   2.823   2.164   3.548  0.1114  0.4554  0.0736
  849SOL     OW 2682  -0.004   0.951   0.110 -0.0042 -0.0121  0.2072
  849SOL    HW1 2683   0.072   0.952   0.052 -0.3114 -0.2230 -0.2102
  849SOL    HW2 2684   0.020   1.008   0.183  0.2955  0.4793 -0.2643
  850SOL     OW 2685   0.800   1.455   1.653 -0.1513  0.3823  0.3719
  850SOL    HW1 2686   0.790   1.363   1.628 -2.3123  0.4126  0.9190
  850SOL    HW2 2687   0.841   1.452   1.740 -1.0181 -0.1172  0.7728
  851SOL     OW 2688   2.146   1.356   3.674 -0.1488  0.0027 -0.0152
  851SOL    HW1 2689   2.176   1.447   3.664  0.6668 -0.2312  0.2278
  851SOL    HW2 2690   2.057   1.356   3.638 -0.5570  1.1264  0.9445
  852SOL     OW 2691   1.315   1.035   2.566  0.1267  0.7784 -0.5278
  852SOL    HW1 2692   1.391   0.990   2.530  0.2089  1.5125 -1.3058
  852SOL    HW2 2693   1.266   0.967   2.613  0.8844  0.1542 -0.6307
  853SOL     OW 2694   0.384   3.304   3.715 -0.0463 -0.2215  0.5733
  853SOL    HW1 2695   0.470   3.292   3.755  0.0287 -2.8587 -0.2132
  853SOL    HW2 2696   0.382   3.242   3.642 -2.3974  0.2150  0.1808
  854SOL     OW 2697   3.244   2.535   0.076 -0.0204 -0.0144 -0.2118
  854SOL    HW1 2698   3.152   2.509   0.081 -0.4660  1.0806 -1.8007
  854SOL    HW2 2699   3.291   2.469   0.126 -1.7602 -0.0466  1.4719
  855SOL     OW 2700   2.626   2.700   1.010  0.3996 -0.6241 -0.4322
  855SOL    HW1 2701   2.570   2.729   1.082  0.3805  1.6087 -1.2706
  855SOL    HW2 2702   2.574   2.715   0.932  0.8966 -1.8465 -1.0301
  856SOL     OW 2703   3.342   0.424   1.948  0.0151  0.4635 -0.4491
  856SOL    HW1 2704   3.434   0.401   1.958 -0.1051  0.5195  0.9494
  856SOL    HW2 2705   3.328   0.494   2.011 -1.0297  0.3243 -0.5104
  857SOL     OW 2706   0.813   2.336   1.628  0.0431 -0.3505 -0.1148
  857SOL    HW1 2707   0.855   2.313   1.545 -0.3755  1.3615 -0.8351
  857SOL    HW2 2708   0.729   2.290   1.626  1.0180 -2.3086  0.5172
  858SOL     OW 2709   0.960   0.469   2.877  0.1848  0.4312  0.2447
  858SOL    HW1 2710   0.883   0.416   2.858  1.6953 -1.3907 -1.0996
  858SOL    HW2 2711   1.014   0.464   2.798  0.9978  2.9761  0.5406
  859SOL     OW 2712   0.578   2.807   2.497 -0.7359 -0.1778 -0.4548
  859SOL    HW1 2713   0.494   2.783   2.536 -0.0745  0.7641  1.6851
  859SOL    HW2 2714   0.631   2.727   2.504 -1.1232 -0.4735 -0.8676
  860SOL     OW 2715   3.410   3.339   2.932  0.0738 -0.5356 -0.0217
  860SOL    HW1 2716   3.450   3.304   3.011  0.4643 -0.6271 -0.2583
  860SOL    HW2 2717   3.415   3.268   2.868  1.3376  0.0948 -0.6612
  861SOL     OW 2718   0.478   1.226   3.456  0.0038 -0.0210 -0.5948
  861SOL    HW1 2719   0.430   1.308   3.446 -0.2257  0.0635  0.9937
  861SOL    HW2 2720   0.411   1.158   3.453  0.0851 -0.0941 -0.8780
  862SOL     OW 2721   3.444   1.472   0.285 -0.4415  0.1826 -0.1209
  862SOL    HW1 2722   3.416   1.381   0.285 -0.1135  0.0636 -1.2313
  862SOL    HW2 2723   3.538   1.468   0.271 -0.0283  0.6310  2.1415
  863SOL     OW 2724   1.477   0.458   3.090  0.1872 -0.3673  0.0140
  863SOL    HW1 2725   1.413   0.420   3.030  0.7848 -0.2627 -0.7029
  863SOL    HW2 2726   1.532   0.513   3.035  0.1722  0.4741  0.8214
  864SOL     OW 2727   2.778   0.681   1.982 -0.6005  0.0033 -0.9396
  864SOL    HW1 2728   2.872   0.699   1.977 -0.8068  1.2884 -0.5449
  864SOL    HW2 2729   2.747   0.733   2.057 -1.5326 -0.8541 -0.6974
  865SOL     OW 2730   2.868   3.635   1.407  0.3237  0.4803  0.3663
  865SOL    HW1 2731   2.834   3.561   1.357  2.1764  0.0729 -0.3433
  865SOL    HW2 2732   2.892   3.598   1.492 -2.0581  1.0168  1.3638
  866SOL     OW 2733   1.319   0.953   0.257 -0.2358 -0.7789 -0.6195
  866SOL    HW1 2734   1.321   1.019   0.327 -3.0085  0.4122 -1.5312
  866SOL    HW2 2735   1.397   0.901   0.272  0.0915  0.3652  2.4422
  867SOL     OW 2736   3.360   2.627   0.985  0.0250  0.3057 -0.3468
  867SOL    HW1 2737   3.301   2.581   1.045  0.6960 -2.1146 -1.4044
  867SOL    HW2 2738   3.414   2.683   1.042  0.7025 -1.9640  1.3927
  868SOL     OW 2739   2.871   0.494   3.173  0.4460  0.3291  0.0900
  868SOL    HW1 2740   2.928   0.471   3.246 -1.8595 -2.0226  1.3039
  868SOL    HW2 2741   2.799   0.544   3.213 -0.6443 -0.6379 -0.5840
  869SOL     OW 2742   0.152   3.050   2.813 -0.5994  0.1922 -0.0251
  869SOL    HW1 2743   0.220   3.072   2.749 -1.5020  1.1494 -0.6994
  869SOL    HW2 2744   0.118   2.965   2.784 -1.0182  0.6338 -0.8386
  870SOL     OW 2745   1.539   0.183   1.981  0.1197 -0.4138  0.2921
  870SOL    HW1 2746   1.473   0.124   1.946 -0.7536  0.3678  0.5886
  870SOL    HW2 2747   1.543   0.256   1.919  1.4719 -0.9346 -0.2828
  871SOL     OW 2748   2.286   3.494   2.410  0.6660  0.0662 -0.8729
  871SOL    HW1 2749   2.210   3.531   2.455  1.4317  0.0759  0.4902
  871SOL    HW2 2750   2.329   3.569   2.369  0.3555  0.1787 -0.9894
  872SOL     OW 2751   2.829   3.510   2.755  0.4829  0.5085  0.7178
  872SOL    HW1 2752   2.883   3.461   2.817  3.1334  4.0170  1.5358
  872SOL    HW2 2753   2.821   3.597   2.794  0.6222  2.3461 -2.9122
  873SOL     OW 2754   2.124   2.847   3.188  0.0542  0.4691  0.0051
  873SOL    HW1 2755   2.048   2.898   3.159 -0.0231  0.0162 -0.6137
  873SOL    HW2 2756   2.176   2.835   3.108  0.3208  0.0072  0.2471
  874SOL     OW 2757   0.756   1.241   2.060  0.0055  0.2673 -0.0968
  874SOL    HW1 2758   0.813   1.234   2.137  0.3688  0.9757 -0.2881
  874SOL    HW2 2759   0.761   1.333   2.035  1.0808 -0.2059 -1.8447
  875SOL     OW 2760   0.337   2.157   0.374 -0.1857  0.0197 -0.0190
  875SOL    HW1 2761   0.429   2.142   0.395  0.4845  2.1245 -1.1268
  875SOL    HW2 2762   0.292   2.155   0.458  0.9090 -0.7270  0.5753
  876SOL     OW 2763   2.209   1.143   0.311  0.7923  0.1304  0.7808
  876SOL    HW1 2764   2.203   1.120   0.218  0.5638 -0.6991  0.9983
  876SOL    HW2 2765   2.261   1.072   0.350  0.8330  0.4421  1.3010
  877SOL     OW 2766   2.820   2.993   1.028  0.2121  0.1364 -0.5834
  877SOL    HW1 2767   2.888   2.932   1.057  0.9363  0.3196 -1.8464
  877SOL    HW2 2768   2.750   2.937   0.995  0.4521 -0.0274 -0.8169
  878SOL     OW 2769   1.673   3.433   3.634 -0.2370  0.3575 -0.5548
  878SOL    HW1 2770   1.701   3.410   3.722  0.2349 -0.4421 -0.8968
  878SOL    HW2 2771   1.728   3.380   3.576 -1.2565  0.0538 -1.2981
  879SOL     OW 2772   3.560   0.750   1.413 -0.3250  0.2029 -0.2142
  879SOL    HW1 2773   3.533   0.832   1.370 -0.3051 -0.9152 -2.5174
  879SOL    HW2 2774   3.481   0.720   1.458 -0.7264  0.7850 -0.5099
  880SOL     OW 2775   0.323   3.357   2.474  0.2766 -0.2676 -0.4526
  880SOL    HW1 2776   0.287   3.434   2.518  0.6865 -1.6767  2.6171
  880SOL    HW2 2777   0.262   3.287   2.494  2.1825 -1.6781  0.7843
  881SOL     OW 2778   1.627   3.361   1.805 -0.0697 -0.3384 -0.3389
  881SOL    HW1 2779   1.627   3.442   1.754 -2.7647 -0.4898 -0.7253
  881SOL    HW2 2780   1.627   3.291   1.740 -0.3260 -0.5937 -0.0721
  882SOL     OW 2781   3.635   2.079   3.738 -0.8764  0.1196  0.4345
  882SOL    HW1 2782   3.723   2.060   3.705 -0.1494  0.0438  2.2994
  882SOL    HW2 2783   3.577   2.040   3.673  0.4285  0.6973 -1.1627
  883SOL     OW 2784   1.430   0.225   2.485 -0.0651  0.1307 -0.1273
  883SOL    HW1 2785   1.373   0.298   2.511 -0.3591  0.1707 -0.8424
  883SOL    HW2 2786   1.408   0.210   2.393  1.4839  0.5183 -0.5877
  884SOL     OW 2787   0.875   2.406   2.018  0.4438  0.0569  0.2102
  884SOL    HW1 2788   0.879   2.312   2.001  2.3662  0.1825 -0.2347
  884SOL    HW2 2789   0.814   2.414   2.092  0.7955 -1.6149  0.7282
  885SOL     OW 2790   3.332   0.191   1.508 -0.1355 -0.0699  0.4732
  885SOL    HW1 2791   3.346   0.237   1.590 -0.1374 -1.6662  1.4165
  885SOL    HW2 2792   3.246   0.150   1.518  0.4276 -1.3722  0.2453
  886SOL     OW 2793   1.158   2.762   3.662  0.2890 -0.2472  0.3601
  886SOL    HW1 2794   1.153   2.833   3.597 -3.0615 -2.2331 -1.8443
  886SOL    HW2 2795   1.130   2.803   3.744  0.0857  1.3555 -0.4607
  887SOL     OW 2796   3.319   3.265   1.108 -0.0317  0.3243 -0.0031
  887SOL    HW1 2797   3.289   3.262   1.017  2.9134 -1.4496 -1.0508
  887SOL    HW2 2798   3.255   3.213   1.156 -1.3193  0.8035 -1.1102
  888SOL     OW 2799   2.480   2.770   2.576  0.3804  0.0107 -0.3120
  888SOL    HW1 2800   2.498   2.820   2.656  1.6541  1.3552 -1.3747
  888SOL    HW2 2801   2.393   2.799   2.548  0.4913  0.5523 -0.1131
  889SOL     OW 2802   1.577   2.569   2.089  0.2324 -0.1781 -0.3273
  889SOL    HW1 2803   1.596   2.635   2.023  1.1609 -0.7346 -0.6389
  889SOL    HW2 2804   1.529   2.501   2.042 -0.9606  0.3779  0.0519
  890SOL     OW 2805   2.892   0.327   2.364 -0.2235  0.4102 -0.3281
  890SOL    HW1 2806   2.985   0.347   2.351  0.5956 -2.0630  1.0256
  890SOL    HW2 2807   2.862   0.297   2.278  0.3783  0.6671 -0.6345
  891SOL     OW 2808   3.049   1.634   1.544 -0.3795  0.5192  0.3445
  891SOL    HW1 2809   2.968   1.616   1.496  0.6363  1.8043 -2.0298
  891SOL    HW2 2810   3.067   1.553   1.592 -0.9770 -1.3262 -2.2969
  892SOL     OW 2811   1.565   1.478   2.623 -0.1287  0.0952 -0.1538
  892SOL    HW1 2812   1.660   1.493   2.618  0.0533 -0.4650  1.2788
  892SOL    HW2 2813   1.554   1.420   2.698 -1.5564 -0.4081 -0.7310
  893SOL     OW 2814   1.471   2.322   2.887 -0.1777  0.7316  1.3002
  893SOL    HW1 2815   1.402   2.331   2.821  0.3084  0.7351  0.7865
  893SOL    HW2 2816   1.538   2.269   2.845  0.9187  2.1665  1.1577
  894SOL     OW 2817   0.426   2.252   2.293 -0.3932 -0.0785  0.0473
  894SOL    HW1 2818   0.383   2.218   2.215 -2.9124  0.8668  0.9383
  894SOL    HW2 2819   0.435   2.346   2.276 -1.5224  0.2394  1.1080
  895SOL     OW 2820   1.974   3.596   0.376 -0.1182  0.1368 -1.0438
  895SOL    HW1 2821   1.979   3.631   0.465  1.0552 -2.4132 -0.0124
  895SOL    HW2 2822   1.972   3.673   0.320 -0.8807  1.8343  1.1625
  896SOL     OW 2823   2.285   3.183   3.413  0.6577 -0.6038 -0.4796
  896SOL    HW1 2824   2.361   3.142   3.372  0.6392 -2.1488  0.9426
  896SOL    HW2 2825   2.217   3.116   3.412 -0.6641  0.6791 -1.5318
  897SOL     OW 2826   0.769   2.102   2.833  0.3533  0.5793  0.2114
  897SOL    HW1 2827   0.809   2.060   2.758 -0.9690 -0.7918  0.2259
  897SOL    HW2 2828   0.840   2.109   2.898  0.9625 -0.2292 -0.3554
  898SOL     OW 2829   2.507   1.867   1.651  0.6753  0.4389  0.2904
  898SOL    HW1 2830   2.551   1.788   1.622  0.9800  0.1359  1.5266
  898SOL    HW2 2831   2.441   1.885   1.583  0.5701 -0.8872  0.0207
  899SOL     OW 2832   1.355   3.373   1.617 -0.0411  0.1049  0.0307
  899SOL    HW1 2833   1.392   3.399   1.533 -0.2645 -0.5961 -0.2874
  899SOL    HW2 2834   1.400   3.292   1.640 -1.2028 -0.6617 -0.2693
  900SOL     OW 2835   2.904   2.244   1.123 -0.4604 -0.5155 -0.1154
  900SOL    HW1 2836   2.861   2.294   1.055  1.1563  0.6074 -0.3749
  900SOL    HW2 2837   2.928   2.309   1.189  0.8629 -1.0682 -0.0197
  901SOL     OW 2838   2.964   0.257   3.033 -0.0146  0.1452 -0.1042
  901SOL    HW1 2839   3.039   0.310   3.006 -0.0497  0.1595 -0.1712
  901SOL    HW2 2840   2.919   0.311   3.098 -0.2857  0.3682 -0.4816
  902SOL     OW 2841   0.482   0.328   0.173 -0.7846  0.1709 -0.2328
  902SOL    HW1 2842   0.467   0.362   0.085  0.8355 -1.8466 -1.3583
  902SOL    HW2 2843   0.451   0.237   0.170 -1.1076  0.1804  1.4418
  903SOL     OW 2844   2.570   0.089   0.497  0.5569  0.3027  0.3486
  903SOL    HW1 2845   2.572   0.150   0.423  2.1689 -0.9445 -0.6838
  903SOL    HW2 2846   2.583   0.145   0.574  0.9260  1.3760 -0.4689
  904SOL     OW 2847   2.080   2.173   2.135  0.3217 -0.1251  0.9438
  904SOL    HW1 2848   2.042   2.202   2.053  1.4902 -0.5264  0.2481
  904SOL    HW2 2849   2.148   2.111   2.110  1.1051  0.1959  2.1783
  905SOL     OW 2850   1.464   2.767   3.401  0.3069  0.1205 -0.7614
  905SOL    HW1 2851   1.514   2.701   3.449 -2.0280 -1.6327 -0.5842
  905SOL    HW2 2852   1.488   2.754   3.310  0.7791 -0.1363 -0.6056
  906SOL     OW 2853   0.948   0.978   2.023 -0.1375 -0.2359 -0.0183
  906SOL    HW1 2854   0.868   1.029   2.030  0.1860  0.0303  2.5428
  906SOL    HW2 2855   1.003   1.008   2.096  1.3250 -2.0802 -0.2651
  907SOL     OW 2856   3.009   0.854   2.147  0.5524  0.3094  0.2830
  907SOL    HW1 2857   3.047   0.817   2.067  1.0458 -1.6371  1.3263
  907SOL    HW2 2858   3.082   0.898   2.190  0.5833  0.3301  0.2089
  908SOL     OW 2859   2.123   0.337   3.469  0.0870 -0.7109  0.1317
  908SOL    HW1 2860   2.117   0.312   3.377 -0.7656  0.9027 -0.2917
  908SOL    HW2 2861   2.037   0.315   3.505 -1.5991  3.3796 -0.8174
  909SOL     OW 2862   1.186   0.872   2.757 -0.0945 -0.1524  0.3113
  909SOL    HW1 2863   1.158   0.963   2.759  0.2240 -0.0334 -0.3808
  909SOL    HW2 2864   1.166   0.839   2.845 -0.7805  0.4080  0.3802
  910SOL     OW 2865   1.699   2.013   0.260  0.6734 -0.0664  0.3575
  910SOL    HW1 2866   1.780   1.963   0.250  0.4560 -0.2349 -0.7582
  910SOL    HW2 2867   1.706   2.083   0.194  0.2944  0.4498  0.8519
  911SOL     OW 2868   0.104   3.168   1.186  0.7303 -0.2174 -0.5610
  911SOL    HW1 2869   0.098   3.242   1.247 -1.7558 -3.0604  3.1208
  911SOL    HW2 2870   0.062   3.095   1.233  0.3672 -3.2724 -5.0424
  912SOL     OW 2871   2.369   0.835   0.097 -0.1476 -0.4155  0.4423
  912SOL    HW1 2872   2.409   0.749   0.085  0.4580  0.0033 -0.7245
  912SOL    HW2 2873   2.308   0.843   0.024 -0.7652 -0.1606  0.9850
  913SOL     OW 2874   3.035   2.146   2.749  0.5030  0.3269 -0.2113
  913SOL    HW1 2875   2.994   2.089   2.814  1.9943 -0.2680  0.2576
  913SOL    HW2 2876   2.977   2.222   2.744 -0.5772 -0.4120  0.4827
  914SOL     OW 2877   2.789   1.884   3.612  0.5532  0.3615  0.2126
  914SOL    HW1 2878   2.765   1.876   3.520  0.5284  0.2389  0.2287
  914SOL    HW2 2879   2.855   1.952   3.614  0.0532  0.8509  0.1961
  915SOL     OW 2880   0.134   3.306   0.929 -0.4927 -0.0891  0.3187
  915SOL    HW1 2881   0.139   3.264   0.842 -1.0792  0.1318  0.1737
  915SOL    HW2 2882   0.123   3.233   0.990  4.1350 -0.7403  0.7566
  916SOL     OW 2883   1.913   0.114   1.574 -0.0795 -0.3059  0.1155
  916SOL    HW1 2884   1.906   0.160   1.658 -0.7655 -0.3119  0.0634
  916SOL    HW2 2885   1.943   0.026   1.598 -2.0640 -0.9089  0.5583
  917SOL     OW 2886   0.895   1.849   0.316 -0.2969  0.3899  0.0634
  917SOL    HW1 2887   0.802   1.830   0.329 -0.8051  2.9421  0.6442
  917SOL    HW2 2888   0.929   1.866   0.404  0.4417  0.6258 -0.2557
  918SOL     OW 2889   3.621   1.126   2.149  0.0304 -0.1455 -0.1246
  918SOL    HW1 2890   3.667   1.048   2.117 -0.7749 -0.6912  0.0194
  918SOL    HW2 2891   3.672   1.199   2.115  2.2473 -0.7059  1.8206
  919SOL     OW 2892   0.253   1.762   2.219 -0.4175 -0.0349  0.1246
  919SOL    HW1 2893   0.251   1.800   2.306 -0.4975  1.2617 -0.4223
  919SOL    HW2 2894   0.317   1.815   2.171 -1.2967  0.0744 -0.9554
  920SOL     OW 2895  -0.003   0.026   1.003  0.3387  0.2660 -0.9327
  920SOL    HW1 2896   0.059   0.099   1.003  0.0025  0.5521 -0.2689
  920SOL    HW2 2897  -0.015   0.004   1.095 -0.0732 -0.1941 -1.0942
  921SOL     OW 2898   1.593   0.111   1.284 -0.0439 -0.3698 -0.3828
  921SOL    HW1 2899   1.533   0.177   1.250 -0.1372 -0.6566 -0.7905
  921SOL    HW2 2900   1.568   0.031   1.238 -0.2633 -0.8015  0.4632
  922SOL     OW 2901   1.063   0.857   0.182  0.2840  0.0903 -0.1168
  922SOL    HW1 2902   1.158   0.860   0.194  0.1454  0.0148  1.1208
  922SOL    HW2 2903   1.033   0.788   0.241 -0.6328  0.7450  0.2193
  923SOL     OW 2904   1.142   2.657   0.811 -0.1408 -0.0387 -0.1908
  923SOL    HW1 2905   1.149   2.577   0.863  0.9781 -0.3242 -0.7355
  923SOL    HW2 2906   1.161   2.727   0.873  0.8631 -0.3524 -0.1205
  924SOL     OW 2907   2.325   0.524   3.564 -0.3513 -0.7281  0.3156
  924SOL    HW1 2908   2.249   0.559   3.611 -0.1496 -1.9549  1.6436
  924SOL    HW2 2909   2.288   0.463   3.501 -0.6339  1.0247 -1.2987
  925SOL     OW 2910   2.209   1.128   0.048 -0.9748  0.1872 -0.4353
  925SOL    HW1 2911   2.148   1.198   0.023 -0.6638  0.3117 -0.8477
  925SOL    HW2 2912   2.293   1.173   0.059 -1.1607  0.2064  1.1954
  926SOL     OW 2913   2.053   2.637   2.425  0.1116  0.0615 -0.0208
  926SOL    HW1 2914   2.081   2.590   2.346 -1.3910  0.9268 -1.1251
  926SOL    HW2 2915   2.070   2.576   2.497  1.0431 -0.9504 -1.0565
  927SOL     OW 2916   2.516   3.535   0.407 -0.2599  0.0215  0.2697
  927SOL    HW1 2917   2.465   3.555   0.485 -0.4208  0.4467  0.0602
  927SOL    HW2 2918   2.556   3.618   0.382 -0.6157  0.0066 -0.3888
  928SOL     OW 2919   3.116   1.174   0.681 -0.3936 -0.2877 -0.8446
  928SOL    HW1 2920   3.088   1.083   0.675 -0.2395 -0.2418 -3.7651
  928SOL    HW2 2921   3.102   1.210   0.594  1.0646  2.0455 -0.2327
  929SOL     OW 2922   0.875   2.690   2.594 -0.1218 -0.0721  0.2557
  929SOL    HW1 2923   0.913   2.772   2.626  0.5810  0.1866 -1.1418
  929SOL    HW2 2924   0.877   2.631   2.670  1.4235  0.5190  0.7233
  930SOL     OW 2925   0.981   1.555   2.550 -0.3145  0.5829  0.0988
  930SOL    HW1 2926   0.908   1.514   2.503 -0.9485  0.9852  0.7175
  930SOL    HW2 2927   0.963   1.649   2.545  0.2597  0.6991  0.1056
  931SOL     OW 2928   3.251   1.254   0.269 -0.7961  0.1526  0.1876
  931SOL    HW1 2929   3.223   1.171   0.308  0.6233  0.2796  1.5545
  931SOL    HW2 2930   3.211   1.320   0.325 -0.8666  0.3742 -0.1268
  932SOL     OW 2931   0.213   2.835   3.508  0.8120  0.3233 -0.0979
  932SOL    HW1 2932   0.207   2.767   3.575  2.4414  0.4789  0.2352
  932SOL    HW2 2933   0.264   2.796   3.437  3.0590  1.6057  0.7119
  933SOL     OW 2934   0.632   0.591   1.327  0.6142  0.8414 -0.4349
  933SOL    HW1 2935   0.668   0.545   1.403 -0.2909  2.0485  0.7817
  933SOL    HW2 2936   0.560   0.535   1.298  0.0358  1.0496  0.5348
  934SOL     OW 2937   0.401   1.632   1.896  0.2090  0.7762 -0.0642
  934SOL    HW1 2938   0.421   1.583   1.817 -1.1049  0.3345 -0.1484
  934SOL    HW2 2939   0.475   1.614   1.955 -0.3245 -1.5644  0.0126
  935SOL     OW 2940   1.115   1.180   1.746  0.5240  0.1038  0.0067
  935SOL    HW1 2941   1.158   1.256   1.706  0.8224  0.6856  1.3811
  935SOL    HW2 2942   1.038   1.164   1.692  2.1492 -0.6627 -2.2535
  936SOL     OW 2943   0.771   1.658   2.155  0.3690 -0.1559  0.0629
  936SOL    HW1 2944   0.835   1.610   2.209 -0.0633  0.5270  1.2263
  936SOL    HW2 2945   0.818   1.737   2.128 -0.3006  0.9771  1.9686
  937SOL     OW 2946   3.282   2.744   1.843 -0.3949 -0.0473  0.6364
  937SOL    HW1 2947   3.272   2.699   1.759  0.3628 -0.5137  0.7804
  937SOL    HW2 2948   3.324   2.827   1.820  0.5524 -0.5121  0.6160
  938SOL     OW 2949   0.910   3.079   2.889 -0.5363 -0.7847  0.6164
  938SOL    HW1 2950   0.980   3.080   2.954 -1.3057  0.4265  1.4632
  938SOL    HW2 2951   0.832   3.105   2.937 -1.8318 -3.1144 -0.0664
  939SOL     OW 2952   0.793   2.634   0.809  0.0582 -0.2998 -0.3093
  939SOL    HW1 2953   0.713   2.585   0.822  0.9784 -1.6484  0.5039
  939SOL    HW2 2954   0.768   2.726   0.821 -1.8372 -0.4292 -2.4773
  940SOL     OW 2955   1.059   1.672   1.432  0.2436  0.5991  0.1909
  940SOL    HW1 2956   0.967   1.689   1.448  0.0369 -0.1696 -0.1539
  940SOL    HW2 2957   1.091   1.752   1.389  0.4931  2.1275  2.9883
  941SOL     OW 2958   1.019   0.159   2.366 -0.0142  0.1403  1.0095
  941SOL    HW1 2959   0.960   0.137   2.438  0.3885 -0.7876  1.0625
  941SOL    HW2 2960   1.091   0.096   2.373  0.1303  0.1693 -0.0887
  942SOL     OW 2961   0.104   0.267   0.926 -0.2348 -0.8815  0.0596
  942SOL    HW1 2962   0.095   0.346   0.980  0.9254 -0.5439 -0.2140
  942SOL    HW2 2963   0.020   0.261   0.879 -0.7437 -0.4229  0.8796
  943SOL     OW 2964   3.090   1.023   0.960  0.4243 -0.2547 -0.2560
  943SOL    HW1 2965   3.100   0.985   0.873 -0.6753  1.4393 -1.1767
  943SOL    HW2 2966   3.005   1.067   0.958  0.7169  0.5006  1.4166
  944SOL     OW 2967   2.075   0.297   1.788 -0.3483  0.0220 -0.4244
  944SOL    HW1 2968   2.075   0.246   1.868 -1.2607 -0.0620 -0.4669
  944SOL    HW2 2969   2.159   0.343   1.788  0.4140 -1.3158 -0.2917
  945SOL     OW 2970   3.333   2.095   1.808 -0.1602  0.0898  0.0271
  945SOL    HW1 2971   3.311   2.128   1.721  1.3699 -1.3349 -0.9798
  945SOL    HW2 2972   3.369   2.007   1.791 -0.9244 -0.7050  2.2181
  946SOL     OW 2973   2.891   0.808   1.318  0.2425  0.1377 -0.3294
  946SOL    HW1 2974   2.949   0.884   1.325 -0.7952  1.2811 -2.8618
  946SOL    HW2 2975   2.942   0.735   1.353  1.9890  1.6492  0.4264
  947SOL     OW 2976   3.059   0.695   1.923 -0.0507 -0.4746  0.6365
  947SOL    HW1 2977   3.144   0.651   1.925 -0.3498 -1.1126 -0.2818
  947SOL    HW2 2978   3.061   0.749   1.845 -1.1133 -1.8349 -0.3969
  948SOL     OW 2979   1.594   1.706   3.086  0.7230  0.0731  0.2937
  948SOL    HW1 2980   1.604   1.620   3.045  0.7526 -1.0867  2.5567
  948SOL    HW2 2981   1.677   1.720   3.132  0.7489  1.3676 -0.1227
  949SOL     OW 2982   0.122   2.895   1.582  0.2083  0.4005  0.0054
  949SOL    HW1 2983   0.199   2.864   1.630 -0.6393 -0.7850  0.6713
  949SOL    HW2 2984   0.062   2.924   1.651 -0.1444  0.8121 -0.4748
  950SOL     OW 2985   1.181   3.123   0.745  0.0373 -0.3180  0.2076
  950SOL    HW1 2986   1.257   3.094   0.797 -0.1253  1.6993  1.6991
  950SOL    HW2 2987   1.130   3.043   0.731  1.8804 -1.5512  0.0588
  951SOL     OW 2988   0.047   2.200   1.338 -0.0253 -0.0478 -0.0831
  951SOL    HW1 2989   0.101   2.181   1.415  1.6406 -0.8890 -1.3637
  951SOL    HW2 2990  -0.003   2.120   1.323 -0.4571  0.1688  0.2269
  952SOL     OW 2991   3.459   2.482   2.447 -0.5334 -0.7655  0.4365
  952SOL    HW1 2992   3.456   2.480   2.351 -0.1490 -1.5848  0.4263
  952SOL    HW2 2993   3.377   2.440   2.474  0.3220 -2.5499  0.4202
  953SOL     OW 2994   2.906   2.316   2.964  0.2415  0.4250 -0.0470
  953SOL    HW1 2995   2.893   2.396   2.912 -2.9258  0.3434  0.4756
  953SOL    HW2 2996   3.000   2.317   2.984  1.1126  1.8624 -3.4270
  954SOL     OW 2997   2.515   0.230   3.461 -0.1391  0.3788  0.3820
  954SOL    HW1 2998   2.513   0.295   3.391 -4.4280  2.0900  1.7946
  954SOL    HW2 2999   2.549   0.278   3.537  0.5367 -0.2739  0.5051
  955SOL     OW 3000   0.777   1.723   2.606  0.9479 -0.4090  0.1991
  955SOL    HW1 3001   0.822   1.804   2.585  2.0671 -0.9191  0.5845
  955SOL    HW2 3002   0.710   1.714   2.538 -0.5684  1.8506  1.2681
  956SOL     OW 3003   2.649   1.189   0.347  0.4692  0.4663 -0.3713
  956SOL    HW1 3004   2.608   1.136   0.278 -0.5472  0.4241  0.2531
  956SOL    HW2 3005   2.621   1.147   0.429  0.4798  1.3743  0.1028
  957SOL     OW 3006   0.748   0.428   3.515 -0.1780 -0.1399  0.5956
  957SOL    HW1 3007   0.689   0.486   3.563  0.3151  0.6521  0.2585
  957SOL    HW2 3008   0.736   0.342   3.556 -0.5462  0.2988  1.4196
  958SOL     OW 3009   0.301   2.824   2.385 -0.0013  0.7258 -0.2237
  958SOL    HW1 3010   0.225   2.784   2.343  0.4694 -0.9441  0.4343
  958SOL    HW2 3011   0.372   2.815   2.321  0.2986 -0.2782  0.2229
  959SOL     OW 3012   0.202   0.743   1.685 -0.3763 -0.3307  0.0942
  959SOL    HW1 3013   0.148   0.674   1.724 -1.2077  0.3771  0.2259
  959SOL    HW2 3014   0.175   0.746   1.593  0.1075 -0.5942 -0.0623
  960SOL     OW 3015   3.590   3.175   3.675 -0.3852 -0.6496  0.4482
  960SOL    HW1 3016   3.540   3.115   3.729  0.4406  0.5482  2.6523
  960SOL    HW2 3017   3.681   3.162   3.701 -0.1064  0.8939  0.3564
  961SOL     OW 3018   2.567   2.521   2.541 -0.2513 -0.0479 -0.5216
  961SOL    HW1 3019   2.645   2.535   2.595  0.5244  0.6999 -1.7789
  961SOL    HW2 3020   2.542   2.609   2.513 -1.0664 -0.3639 -0.8039
  962SOL     OW 3021   0.412   3.691   3.007 -0.7721  0.3567  0.0249
  962SOL    HW1 3022   0.478   3.755   3.033  0.3281 -0.6997 -0.0783
  962SOL    HW2 3023   0.428   3.675   2.914  2.3844 -3.7113  0.9568
  963SOL     OW 3024   0.868   2.406   2.558  0.0662 -0.2260 -0.2563
  963SOL    HW1 3025   0.852   2.495   2.526 -0.6996 -0.2860 -0.0683
  963SOL    HW2 3026   0.846   2.409   2.651  1.2458 -0.3148  0.0437
  964SOL     OW 3027   2.485   3.453   2.906  0.3642 -0.2865 -0.1427
  964SOL    HW1 3028   2.563   3.509   2.906  0.3612 -0.2798 -0.3346
  964SOL    HW2 3029   2.491   3.403   2.987 -0.1962  0.7586  0.5599
  965SOL     OW 3030   0.375   1.863   0.385  0.0838  0.5880  0.0194
  965SOL    HW1 3031   0.335   1.813   0.456 -1.4785 -0.9511 -1.8539
  965SOL    HW2 3032   0.326   1.945   0.382 -2.2472 -0.7614 -1.4278
  966SOL     OW 3033   1.879   0.863   3.215 -0.2873 -0.2409  0.2416
  966SOL    HW1 3034   1.970   0.891   3.217  0.0524 -1.1255 -1.3358
  966SOL    HW2 3035   1.829   0.941   3.240  0.8324  0.5630  0.0280
  967SOL     OW 3036   1.159   2.479   2.023  0.2897  0.1417 -0.8934
  967SOL    HW1 3037   1.068   2.452   2.012 -0.0807  1.5838 -1.6712
  967SOL    HW2 3038   1.162   2.520   2.110  1.3309 -3.9819  1.2484
  968SOL     OW 3039   2.793   0.894   0.761 -0.3651  0.1537 -0.4319
  968SOL    HW1 3040   2.801   0.988   0.775 -0.6917  0.0305  0.6642
  968SOL    HW2 3041   2.810   0.855   0.846  0.4085 -0.8312 -1.0137
  969SOL     OW 3042   0.043   1.685   1.543 -0.0367  0.1577 -0.2416
  969SOL    HW1 3043  -0.025   1.621   1.564  0.1947 -0.6463 -1.7787
  969SOL    HW2 3044   0.105   1.679   1.616 -0.2673 -1.0355 -0.1274
  970SOL     OW 3045   2.292   0.387   0.933  0.0119 -0.2005 -0.2577
  970SOL    HW1 3046   2.311   0.326   0.861  1.5435  0.2926 -0.2929
  970SOL    HW2 3047   2.338   0.351   1.009 -0.3126  0.1139  0.0928
  971SOL     OW 3048   1.811   3.633   2.798 -0.0803 -0.6272  0.5732
  971SOL    HW1 3049   1.768   3.717   2.785  3.5845  1.6475  1.7010
  971SOL    HW2 3050   1.788   3.582   2.720  0.0067  2.6240 -1.7728
  972SOL     OW 3051   3.186   1.558   0.623 -0.3385  0.3902  0.1397
  972SOL    HW1 3052   3.201   1.519   0.537  0.0395  1.5340 -0.3468
  972SOL    HW2 3053   3.111   1.512   0.658 -1.5293  0.9607 -1.5113
  973SOL     OW 3054   3.000   1.492   3.491 -0.2987 -0.2335 -0.3510
  973SOL    HW1 3055   3.092   1.465   3.492  0.0797  0.7390 -2.5074
  973SOL    HW2 3056   2.965   1.455   3.410 -1.9976 -1.0803  0.7301
  974SOL     OW 3057   2.303   1.653   2.984 -0.1953 -0.7278  0.5345
  974SOL    HW1 3058   2.238   1.644   3.054  0.7355  2.9539  2.1249
  974SOL    HW2 3059   2.260   1.710   2.919  0.5845 -0.1760  0.4846
  975SOL     OW 3060   0.351   2.505   2.123  0.0116 -0.0240 -0.4564
  975SOL    HW1 3061   0.308   2.481   2.041 -0.0266 -0.3301 -0.3502
  975SOL    HW2 3062   0.284   2.553   2.172 -0.0538 -0.0804 -0.4899
  976SOL     OW 3063   2.469   2.179   2.649  0.0522  0.2457 -0.5272
  976SOL    HW1 3064   2.472   2.169   2.554 -0.7053 -2.5794 -0.3355
  976SOL    HW2 3065   2.414   2.256   2.663 -0.7469  0.0695 -2.3457
  977SOL     OW 3066   1.958   0.297   0.680  0.0488  0.2964  0.4587
  977SOL    HW1 3067   1.928   0.230   0.741  0.3303 -1.7173 -1.4873
  977SOL    HW2 3068   2.037   0.333   0.720  0.5618 -1.3810  1.0322
  978SOL     OW 3069   1.863   1.283   0.942  0.0240  0.0099  0.1157
  978SOL    HW1 3070   1.955   1.289   0.914 -0.2166  1.3209 -0.4855
  978SOL    HW2 3071   1.814   1.324   0.871 -1.0167 -0.4717  0.5396
  979SOL     OW 3072   1.529   1.955   2.975 -0.3776  0.6142 -0.3533
  979SOL    HW1 3073   1.505   1.977   3.065 -1.5615 -0.2298 -0.4413
  979SOL    HW2 3074   1.555   1.863   2.979 -1.1605  0.3536 -0.9893
  980SOL     OW 3075   3.487   0.429   0.586  0.0602  0.0973  0.7340
  980SOL    HW1 3076   3.536   0.428   0.668 -0.5272  0.1422  1.0914
  980SOL    HW2 3077   3.486   0.338   0.558  0.8686  0.1791  0.4008
  981SOL     OW 3078   1.750   1.045   1.035  0.2166 -0.3380 -0.1659
  981SOL    HW1 3079   1.785   1.116   0.982  1.6822 -0.9342 -0.0442
  981SOL    HW2 3080   1.706   0.988   0.972  0.6424 -0.2721 -0.5323
  982SOL     OW 3081   1.494   0.446   0.095 -0.1207 -0.1091 -0.7520
  982SOL    HW1 3082   1.501   0.354   0.119 -0.9549  0.2002  0.7671
  982SOL    HW2 3083   1.449   0.445   0.010 -1.7095 -1.0519  0.0584
  983SOL     OW 3084   3.679   3.445   3.008  0.0604  0.1864  0.0170
  983SOL    HW1 3085   3.607   3.490   3.052  0.0877 -0.5499  0.8435
  983SOL    HW2 3086   3.643   3.361   2.981  0.2281  0.3689 -0.8252
  984SOL     OW 3087   1.060   3.198   0.034  0.8909  1.1823  0.2235
  984SOL    HW1 3088   1.053   3.173   0.126  2.3199  0.4662  0.1676
  984SOL    HW2 3089   1.094   3.288   0.037  1.1069  1.0967  0.3912
  985SOL     OW 3090   1.830   2.515   3.589 -0.2559  0.1346 -0.1791
  985SOL    HW1 3091   1.797   2.471   3.511  3.0364  0.6509 -2.0159
  985SOL    HW2 3092   1.867   2.445   3.642  1.2368  0.1635 -1.1280
  986SOL     OW 3093   0.010   0.117   0.134 -0.1703 -0.1381  0.2892
  986SOL    HW1 3094   0.040   0.162   0.056 -0.7417 -0.9358 -0.4131
  986SOL    HW2 3095   0.015   0.182   0.204  2.2143  0.0507  0.0218
  987SOL     OW 3096   3.224   1.260   1.664 -0.0397 -0.5403  0.1706
  987SOL    HW1 3097   3.308   1.253   1.618  0.0381 -0.7319  0.3414
  987SOL    HW2 3098   3.240   1.326   1.732 -0.2468 -0.0223 -0.2793
  988SOL     OW 3099   2.883   1.557   1.992  0.4796  0.2519  0.4414
  988SOL    HW1 3100   2.966   1.575   2.038 -0.0527 -0.5948  1.7828
  988SOL    HW2 3101   2.832   1.637   2.003  1.5712  1.2959 -1.5309
  989SOL     OW 3102   3.699   1.979   2.108  0.4409 -0.6887 -0.2945
  989SOL    HW1 3103   3.654   1.896   2.126 -1.0221 -0.2503 -1.6849
  989SOL    HW2 3104   3.631   2.036   2.074  1.1402  1.5591  1.8277
  990SOL     OW 3105   1.766   1.187   3.553 -0.3224 -0.2379  0.2380
  990SOL    HW1 3106   1.752   1.134   3.632  0.7641 -1.8294 -0.6011
  990SOL    HW2 3107   1.678   1.195   3.515 -1.0230  1.2681  1.9792
  991SOL     OW 3108   3.612   1.863   3.336 -0.5603 -0.0807 -0.1602
  991SOL    HW1 3109   3.692   1.827   3.376  0.0181  1.4676  0.1608
  991SOL    HW2 3110   3.644   1.932   3.278 -1.6569  0.4650 -0.1409
  992SOL     OW 3111   2.370   0.948   0.363 -0.0900 -0.1028  0.5966
  992SOL    HW1 3112   2.380   0.887   0.291  0.1647  1.8031 -1.0611
  992SOL    HW2 3113   2.459   0.976   0.384 -0.2522  0.2548  0.8271
  993SOL     OW 3114   2.847   0.356   2.047  0.0662 -0.2052  0.1607
  993SOL    HW1 3115   2.918   0.415   2.075  0.3030 -0.0094 -0.8049
  993SOL    HW2 3116   2.775   0.415   2.025  0.3873 -0.2331 -1.0501
  994SOL     OW 3117   0.436   2.597   0.141 -0.0219  0.0025 -0.1979
  994SOL    HW1 3118   0.433   2.517   0.193 -0.1652  1.0802  1.5138
  994SOL    HW2 3119   0.494   2.655   0.189 -0.2409  1.0777 -1.1945
  995SOL     OW 3120   0.935   3.509   1.365  0.1634  0.0083 -0.1911
  995SOL    HW1 3121   1.003   3.487   1.302 -0.2098  1.9522 -1.3483
  995SOL    HW2 3122   0.981   3.520   1.448  1.1647  0.6249 -0.8100
  996SOL     OW 3123   0.277   1.379   1.109  0.2069 -0.6262  0.5960
  996SOL    HW1 3124   0.198   1.394   1.161 -0.4526  1.6923 -0.9475
  996SOL    HW2 3125   0.338   1.447   1.136  0.6026 -0.6383 -0.2255
  997SOL     OW 3126   0.627   0.971   0.742  0.1883  0.1265  0.1303
  997SOL    HW1 3127   0.699   0.915   0.769  2.6356  2.7264 -0.4887
  997SOL    HW2 3128   0.556   0.911   0.721  1.6696 -2.5108  2.1008
  998SOL     OW 3129   2.547   3.632   2.502 -0.6784 -0.3617  0.0623
  998SOL    HW1 3130   2.635   3.668   2.503 -0.1761 -1.5053 -0.5973
  998SOL    HW2 3131   2.505   3.673   2.426 -0.6036 -0.0622  0.1835
  999SOL     OW 3132   1.873   1.906   0.880  0.0813 -0.3212  0.5088
  999SOL    HW1 3133   1.785   1.889   0.914  0.1956  0.1389  1.0446
  999SOL    HW2 3134   1.892   1.996   0.904  0.8682 -0.5460  0.7897
 1000SOL     OW 3135   1.255   1.937   1.362  0.2382  0.8289  0.3016
 1000SOL    HW1 3136   1.244   1.947   1.457 -0.5629  0.2752  0.2812
 1000SOL    HW2 3137   1.253   2.027   1.328 -3.0282  0.9749  0.4840
 1001SOL     OW 3138   0.291   0.867   0.501 -0.1586 -0.5065 -0.1092
 1001SOL    HW1 3139   0.229   0.938   0.517 -0.3608 -0.4363 -1.1289
 1001SOL    HW2 3140   0.327   0.847   0.588  1.5795  2.3371 -0.0520
 1002SOL     OW 3141   2.436   2.076   3.475 -0.0084 -0.0536  0.0677
 1002SOL    HW1 3142   2.472   2.165   3.469  0.2613 -0.1543  0.1863
 1002SOL    HW2 3143   2.341   2.090   3.477  0.0000  0.1812 -0.7569
 1003SOL     OW 3144   0.738   2.360   0.479  0.1633 -0.2868 -0.1912
 1003SOL    HW1 3145   0.687   2.440   0.492 -1.6117 -1.4419  0.3815
 1003SOL    HW2 3146   0.763   2.333   0.568 -0.9188 -1.3614 -0.1872
 1004SOL     OW 3147   2.706   3.652   2.124 -0.2810  0.2741  0.0212
 1004SOL    HW1 3148   2.775   3.612   2.072 -0.3377 -0.2420  0.3347
 1004SOL    HW2 3149   2.650   3.579   2.149 -0.7051  0.6297  0.1251
 1005SOL     OW 3150   1.500   1.524   0.229  0.3753 -0.0752  0.4316
 1005SOL    HW1 3151   1.407   1.542   0.214  0.4163 -0.4184 -0.2972
 1005SOL    HW2 3152   1.544   1.604   0.199  0.4289 -0.6096 -1.0039
 1006SOL     OW 3153   3.366   2.988   3.406 -0.5264 -0.2091 -0.2911
 1006SOL    HW1 3154   3.368   3.004   3.501 -1.8286  0.9662 -0.4161
 1006SOL    HW2 3155   3.303   2.917   3.395 -1.5022  0.6229 -0.3354
 1007SOL     OW 3156   2.869   1.398   0.687  0.2032 -0.0979  0.3661
 1007SOL    HW1 3157   2.881   1.491   0.674  0.3745 -0.3239 -1.2820
 1007SOL    HW2 3158   2.786   1.391   0.735 -1.0053  0.8220 -1.4965
 1008SOL     OW 3159   3.360   2.004   1.434 -0.3027 -0.4096 -0.3080
 1008SOL    HW1 3160   3.330   1.920   1.470  0.9888 -1.8535 -2.3853
 1008SOL    HW2 3161   3.452   1.988   1.411  0.2199  1.8668  0.0204
 1009SOL     OW 3162   0.447   3.622   1.190 -0.1229  0.1409 -0.2535
 1009SOL    HW1 3163   0.417   3.630   1.281  1.0071  0.7152  0.0882
 1009SOL    HW2 3164   0.426   3.532   1.166  0.1562 -0.2334  0.8143
 1010SOL     OW 3165   3.399   1.169   1.483  0.1938 -0.2442 -0.1212
 1010SOL    HW1 3166   3.394   1.157   1.388 -1.1936  2.6865 -0.5296
 1010SOL    HW2 3167   3.354   1.093   1.519  1.0255 -1.5743 -1.7535
 1011SOL     OW 3168   3.600   0.726   1.852  0.1700 -0.3259  0.4832
 1011SOL    HW1 3169   3.652   0.657   1.811 -0.1467  0.1647 -0.8156
 1011SOL    HW2 3170   3.645   0.746   1.934  1.3681 -0.6948 -0.0703
 1012SOL     OW 3171   0.953   1.717   3.660  0.9846  0.3991 -0.1170
 1012SOL    HW1 3172   0.883   1.766   3.704  1.3241  0.9918 -0.2308
 1012SOL    HW2 3173   1.023   1.781   3.648  1.5716 -0.2070  0.0494
 1013SOL     OW 3174   0.159   1.771   3.404  0.1183 -0.5388  0.0766
 1013SOL    HW1 3175   0.234   1.752   3.348 -1.2171 -0.1273 -1.9561
 1013SOL    HW2 3176   0.175   1.860   3.436  1.6468 -1.3306  1.7301
 1014SOL     OW 3177   3.649   2.561   2.800 -0.5324  0.1199 -0.0194
 1014SOL    HW1 3178   3.560   2.590   2.814 -1.0716 -0.0499 -2.6203
 1014SOL    HW2 3179   3.672   2.514   2.880 -3.5354 -1.6606 -0.0760
 1015SOL     OW 3180   3.187   0.776   3.340  0.2886  0.2776  0.3664
 1015SOL    HW1 3181   3.097   0.767   3.371  0.5677 -0.0413  1.0935
 1015SOL    HW2 3182   3.191   0.864   3.302 -0.1578  0.5289  0.8920
 1016SOL     OW 3183   3.157   1.826   3.037  0.3393 -0.4467 -0.0674
 1016SOL    HW1 3184   3.218   1.899   3.029  0.6999 -0.5632  1.2962
 1016SOL    HW2 3185   3.188   1.761   2.975  1.5672 -0.4597  0.5365
 1017SOL     OW 3186   0.339   3.576   3.673  0.3876 -0.4189 -0.0935
 1017SOL    HW1 3187   0.297   3.568   3.588  0.8435 -1.4694 -0.2394
 1017SOL    HW2 3188   0.344   3.486   3.707  1.1146 -0.1444  0.5870
 1018SOL     OW 3189   2.252   1.422   0.305 -0.3766  0.2816 -0.1513
 1018SOL    HW1 3190   2.338   1.423   0.264  0.4334 -0.3531  1.4357
 1018SOL    HW2 3191   2.245   1.334   0.343 -1.4392  0.5599  0.3243
 1019SOL     OW 3192   0.858   2.109   3.617  0.1983 -0.3011  0.0685
 1019SOL    HW1 3193   0.811   2.045   3.670  1.5228 -0.8002  0.6813
 1019SOL    HW2 3194   0.918   2.152   3.678 -0.5346  1.4244 -0.3732
 1020SOL     OW 3195   2.327   0.045   1.814 -0.2300 -0.1559  0.0007
 1020SOL    HW1 3196   2.278   0.008   1.887 -0.0461 -0.9542 -0.2680
 1020SOL    HW2 3197   2.318  -0.019   1.743 -2.7046  1.8131 -1.6599
 1021SOL     OW 3198   1.331   0.516   3.583 -0.2694 -0.3592  0.4984
 1021SOL    HW1 3199   1.324   0.529   3.488 -0.9306  0.0610  0.5953
 1021SOL    HW2 3200   1.281   0.588   3.620  0.8062  0.0427  1.2005
 1022SOL     OW 3201   0.528   0.487   3.138 -0.2021 -0.0301  0.8341
 1022SOL    HW1 3202   0.441   0.508   3.171 -0.1892  0.5369  0.5161
 1022SOL    HW2 3203   0.585   0.555   3.174  0.2622 -0.8517  1.6972
 1023SOL     OW 3204   1.729   1.088   0.165  0.1108  0.3490 -0.1958
 1023SOL    HW1 3205   1.819   1.122   0.165 -0.0164  0.9297 -3.2338
 1023SOL    HW2 3206   1.674   1.167   0.169 -0.2693  0.0677  0.1670
 1024SOL     OW 3207   3.633   2.297   3.369 -0.2494  0.4512 -0.7508
 1024SOL    HW1 3208   3.629   2.202   3.372  0.7154  0.3474 -2.0261
 1024SOL    HW2 3209   3.553   2.323   3.323 -0.3739  0.2435 -0.6538
 1025SOL     OW 3210   2.845   0.847   2.713 -0.5404 -1.1344 -0.3381
 1025SOL    HW1 3211   2.895   0.797   2.777 -1.2192 -1.0348  0.2806
 1025SOL    HW2 3212   2.901   0.921   2.691 -0.2463 -1.2464  0.0294
 1026SOL     OW 3213   0.575   2.685   2.058 -0.3781  0.2681  0.3044
 1026SOL    HW1 3214   0.518   2.608   2.053 -0.7496  0.5232  0.5336
 1026SOL    HW2 3215   0.611   2.695   1.970 -2.4410  1.4195 -0.4892
 1027SOL     OW 3216   1.266   2.857   0.363  0.4935 -0.2430  0.2863
 1027SOL    HW1 3217   1.179   2.846   0.324  0.3675 -0.3564  0.5885
 1027SOL    HW2 3218   1.327   2.849   0.290  0.2160  0.4636 -0.0307
 1028SOL     OW 3219   3.635   1.967   1.228 -0.1550  0.3179  0.3035
 1028SOL    HW1 3220   3.635   1.888   1.281  0.6285  0.4951  0.5748
 1028SOL    HW2 3221   3.542   1.988   1.216 -0.3499  0.2256  1.5295
 1029SOL     OW 3222  -0.032   1.321   3.569  0.9272  0.0406 -0.6731
 1029SOL    HW1 3223   0.042   1.365   3.610  0.9687 -0.8485  0.2559
 1029SOL    HW2 3224  -0.004   1.230   3.560  0.3069 -0.1064 -1.1946
 1030SOL     OW 3225   2.826   1.143   1.196  0.0665  0.4839  0.6434
 1030SOL    HW1 3226   2.758   1.114   1.136 -1.1252  1.3481  1.5356
 1030SOL    HW2 3227   2.885   1.196   1.142  0.5222 -0.9328 -0.3082
 1031SOL     OW 3228   2.008   2.701   2.726  0.4817  0.1630  0.1284
 1031SOL    HW1 3229   2.058   2.771   2.685 -1.5238  1.6065  0.0498
 1031SOL    HW2 3230   1.925   2.741   2.750  0.9205 -0.9697  4.2593
 1032SOL     OW 3231   2.193   0.484   2.366  0.4901 -0.1693 -0.3572
 1032SOL    HW1 3232   2.185   0.463   2.273 -0.8822 -1.0410 -0.0679
 1032SOL    HW2 3233   2.128   0.553   2.381 -0.8835 -1.5905  0.3914
 1033SOL     OW 3234   1.780   3.487   2.583  0.2041  0.5433  0.2601
 1033SOL    HW1 3235   1.799   3.505   2.491 -0.8708  0.1099 -0.0561
 1033SOL    HW2 3236   1.780   3.392   2.590 -2.0071  0.4785  0.1712
 1034SOL     OW 3237   2.470   1.234   3.703  0.2775  0.5622  0.4117
 1034SOL    HW1 3238   2.530   1.163   3.726  0.5197  0.6082 -0.0645
 1034SOL    HW2 3239   2.523   1.294   3.650 -0.3613  0.2465 -0.6216
 1035SOL     OW 3240   0.132   2.917   0.088  0.6142 -0.5420 -0.0251
 1035SOL    HW1 3241   0.154   2.983   0.023  3.1891 -0.6371  0.6564
 1035SOL    HW2 3242   0.170   2.835   0.054 -3.1029 -1.9858 -1.2055
 1036SOL     OW 3243   2.110   1.190   2.814  0.5642 -0.1362 -0.0746
 1036SOL    HW1 3244   2.091   1.168   2.723  0.3820 -1.4151  0.2514
 1036SOL    HW2 3245   2.049   1.136   2.865  0.5729  0.6539  0.8044
 1037SOL     OW 3246   0.352   1.630   0.803 -0.0428  0.3439 -0.1844
 1037SOL    HW1 3247   0.435   1.618   0.757 -0.6733  0.4748 -1.4006
 1037SOL    HW2 3248   0.376   1.676   0.883  0.8782  1.8169 -1.2511
 1038SOL     OW 3249   2.090   0.744   1.186  0.0104  0.0025  0.5282
 1038SOL    HW1 3250   2.173   0.715   1.148 -0.7789  0.2171 -1.4907
 1038SOL    HW2 3251   2.068   0.823   1.138 -0.9395  0.4629  1.6714
 1039SOL     OW 3252   0.253   3.328   2.764 -0.8188  0.1893  0.4838
 1039SOL    HW1 3253   0.172   3.297   2.723 -0.8506  0.1021  0.6101
 1039SOL    HW2 3254   0.257   3.421   2.742 -0.0454 -0.1674 -1.0459
 1040SOL     OW 3255   3.253   1.098   2.896  0.6612 -0.2703 -0.0136
 1040SOL    HW1 3256   3.253   1.003   2.885  0.5414 -0.3781  0.8674
 1040SOL    HW2 3257   3.160   1.123   2.893  0.6807 -0.1984 -0.0415
 1041SOL     OW 3258   1.467   3.054   2.928  0.5175 -0.2323 -0.4197
 1041SOL    HW1 3259   1.413   3.082   2.854 -1.4284 -1.2319  0.5416
 1041SOL    HW2 3260   1.532   3.123   2.938 -0.7612  1.1893 -1.4757
 1042SOL     OW 3261   1.215   0.276   0.164  0.3763  0.4817  0.0308
 1042SOL    HW1 3262   1.266   0.205   0.201  1.8972  1.5719  0.1146
 1042SOL    HW2 3263   1.218   0.262   0.070 -0.5411 -0.3337  0.1060
 1043SOL     OW 3264   3.334   3.531   2.129 -0.2189 -0.1189  0.3189
 1043SOL    HW1 3265   3.365   3.609   2.174 -0.2664 -0.2981  0.6689
 1043SOL    HW2 3266   3.411   3.475   2.122 -0.0237  0.2465 -0.5589
 1044SOL     OW 3267   0.625   0.260   0.409  0.4519 -0.2015 -0.2001
 1044SOL    HW1 3268   0.563   0.314   0.459  0.6200 -0.9822  0.9068
 1044SOL    HW2 3269   0.594   0.266   0.319 -1.7162 -1.1544  0.3981
 1045SOL     OW 3270   1.271   3.415   2.382  0.3291  0.8564  0.5009
 1045SOL    HW1 3271   1.338   3.416   2.450  0.0312 -0.0181  0.8207
 1045SOL    HW2 3272   1.209   3.347   2.411  0.1459  0.5455 -0.5919
 1046SOL     OW 3273   0.379   3.682   2.068 -0.2138 -0.1236  0.2615
 1046SOL    HW1 3274   0.364   3.591   2.042  1.5477 -0.7105  1.1578
 1046SOL    HW2 3275   0.402   3.678   2.160  0.4582  1.1757  0.1764
 1047SOL     OW 3276   3.495   3.040   2.262  0.2011  0.6088 -0.3226
 1047SOL    HW1 3277   3.556   3.025   2.190  0.0617  2.9564 -1.0300
 1047SOL    HW2 3278   3.550   3.062   2.337  0.2815  0.9426 -0.4781
 1048SOL     OW 3279   2.348   0.546   2.748  0.5031 -0.4335 -0.2347
 1048SOL    HW1 3280   2.394   0.507   2.675 -0.5134 -4.5368  1.0481
 1048SOL    HW2 3281   2.410   0.543   2.821  0.7791  1.5448 -0.3497
 1049SOL     OW 3282   0.149   1.948   3.685 -0.1597  0.1311  0.0482
 1049SOL    HW1 3283   0.108   1.862   3.688  0.9652 -0.4109  0.1515
 1049SOL    HW2 3284   0.239   1.933   3.714  0.3030  1.1826 -0.7870
 1050SOL     OW 3285   2.245   1.490   1.500  0.3299 -0.4406 -0.5810
 1050SOL    HW1 3286   2.316   1.544   1.466  0.4322 -0.2463 -0.0674
 1050SOL    HW2 3287   2.175   1.552   1.519  0.6312 -0.3960  0.5003
 1051SOL     OW 3288   2.723   0.691   0.613 -0.5540 -0.7820  0.1203
 1051SOL    HW1 3289   2.810   0.651   0.620 -0.7879 -1.6654 -1.3323
 1051SOL    HW2 3290   2.732   0.777   0.653  0.9452 -0.9334  0.1724
 1052SOL     OW 3291   3.342   1.255   2.195 -0.5160 -0.3986  0.0455
 1052SOL    HW1 3292   3.339   1.262   2.099 -0.8967 -1.1719 -0.0073
 1052SOL    HW2 3293   3.296   1.333   2.226  2.0028  1.3393 -0.3262
 1053SOL     OW 3294   1.522   0.882   2.504  0.2946  0.8093  0.1414
 1053SOL    HW1 3295   1.608   0.885   2.546 -0.0655 -0.6648  1.0652
 1053SOL    HW2 3296   1.541   0.866   2.412  1.0233  1.2057  0.2148
 1054SOL     OW 3297   0.735   1.813   1.160  0.0394  0.2807 -0.1233
 1054SOL    HW1 3298   0.758   1.774   1.244  0.6279  1.5355  0.3162
 1054SOL    HW2 3299   0.734   1.907   1.176 -2.7826  0.4663 -0.7980
 1055SOL     OW 3300   3.258   0.046   3.385  0.3627 -0.3085  0.5116
 1055SOL    HW1 3301   3.260  -0.021   3.317  0.0577 -0.5114  0.7036
 1055SOL    HW2 3302   3.346   0.044   3.423  0.6190 -0.0032 -0.0612
 1056SOL     OW 3303   1.924   3.021   3.155 -0.6524  0.1591 -0.1026
 1056SOL    HW1 3304   1.935   3.033   3.061  1.7726 -1.0444 -0.0452
 1056SOL    HW2 3305   1.934   3.109   3.192  1.0892  0.2918 -0.8065
 1057SOL     OW 3306   0.837   1.363   2.390 -0.0775  0.6913 -0.1422
 1057SOL    HW1 3307   0.860   1.312   2.467  1.0896  2.3512  0.6478
 1057SOL    HW2 3308   0.745   1.341   2.374 -0.1630 -0.1592  1.3209
 1058SOL     OW 3309   0.777   2.926   0.812  0.3319 -0.3828  0.2700
 1058SOL    HW1 3310   0.752   2.952   0.901  3.5125 -1.2925  1.5760
 1058SOL    HW2 3311   0.733   2.989   0.755 -0.8826  0.9631  2.5570
 1059SOL     OW 3312   1.789   0.903   2.060 -0.0987  0.4780  0.7297
 1059SOL    HW1 3313   1.738   0.828   2.092  1.2404 -0.6754  0.2758
 1059SOL    HW2 3314   1.723   0.968   2.035 -1.4030 -1.1437 -0.3352
 1060SOL     OW 3315   2.396   3.022   0.467 -0.1677 -0.2760 -0.0836
 1060SOL    HW1 3316   2.370   3.097   0.519 -4.8832  1.1681 -3.8274
 1060SOL    HW2 3317   2.465   3.055   0.410 -0.6012  0.5477 -0.1416
 1061SOL     OW 3318   2.872   1.168   0.831  0.3723  0.1964 -0.3624
 1061SOL    HW1 3319   2.791   1.208   0.862  1.4498  1.4867  0.9775
 1061SOL    HW2 3320   2.917   1.238   0.784  1.1924 -0.1490 -0.1199
 1062SOL     OW 3321   2.041   0.408   1.061 -0.5710  0.6104  0.2639
 1062SOL    HW1 3322   2.112   0.466   1.088 -0.6575  0.2787  1.2526
 1062SOL    HW2 3323   2.080   0.321   1.060 -0.7329  0.5383 -0.1123
 1063SOL     OW 3324   2.740   1.141   2.823 -0.0942  0.4699  0.3283
 1063SOL    HW1 3325   2.674   1.160   2.756 -0.1102  1.1746  0.5299
 1063SOL    HW2 3326   2.689   1.126   2.903 -0.0171  1.0714  0.4966
 1064SOL     OW 3327   3.502   3.195   1.299 -0.1758 -0.0718  0.1150
 1064SOL    HW1 3328   3.462   3.209   1.385 -0.1143  0.8069  0.0075
 1064SOL    HW2 3329   3.431   3.210   1.237  0.1740  1.0017 -0.0524
 1065SOL     OW 3330   1.533   2.828   3.124 -0.2397 -0.6113 -0.1385
 1065SOL    HW1 3331   1.506   2.908   3.079 -1.5789 -0.3998  0.9948
 1065SOL    HW2 3332   1.624   2.815   3.096 -0.3168  0.7349 -1.1200
 1066SOL     OW 3333   0.946   3.082   0.261 -0.0920  0.4706  0.0696
 1066SOL    HW1 3334   0.866   3.131   0.281 -1.2806 -0.4403 -2.1083
 1066SOL    HW2 3335   0.974   3.046   0.345 -1.8322  1.0203  0.9340
 1067SOL     OW 3336   0.396   2.290   2.978  0.3897 -0.3272  0.2912
 1067SOL    HW1 3337   0.437   2.278   2.892  0.5648 -0.4283  0.3881
 1067SOL    HW2 3338   0.345   2.210   2.992 -0.6602  0.2206 -0.2713
 1068SOL     OW 3339   1.977   3.568   3.715  0.7550  0.8485 -0.3699
 1068SOL    HW1 3340   1.960   3.584   3.622 -0.1598  1.5453 -0.0985
 1068SOL    HW2 3341   2.072   3.564   3.722  0.8089 -1.3019 -1.6618
 1069SOL     OW 3342   3.614   1.177   0.696 -0.2437  0.2785  0.1788
 1069SOL    HW1 3343   3.562   1.122   0.755 -0.0953  0.7100  0.7235
 1069SOL    HW2 3344   3.559   1.253   0.679 -0.4831 -0.0661 -0.6424
 1070SOL     OW 3345   3.090   2.137   1.979 -0.1501  0.4169  0.2815
 1070SOL    HW1 3346   3.141   2.086   1.916 -1.3074  0.6240 -0.8767
 1070SOL    HW2 3347   3.150   2.204   2.010  0.6224 -0.0674 -0.1398
 1071SOL     OW 3348   1.672   3.524   1.260  0.3379 -0.2146  0.1384
 1071SOL    HW1 3349   1.726   3.602   1.268 -0.3790  0.2326  0.7797
 1071SOL    HW2 3350   1.724   3.453   1.298 -0.1484  0.5090  2.2535
 1072SOL     OW 3351   0.183   2.076   2.279  0.2074  0.4039  0.5282
 1072SOL    HW1 3352   0.184   2.005   2.344 -3.4437  1.4704  2.0133
 1072SOL    HW2 3353   0.100   2.065   2.233  0.6882  2.3001 -0.9309
 1073SOL     OW 3354  -0.009   1.570   1.244 -0.0261  0.3188  0.2163
 1073SOL    HW1 3355   0.019   1.592   1.333 -0.5199  1.7054  0.0481
 1073SOL    HW2 3356   0.060   1.604   1.188  0.5492 -1.0327  0.0764
 1074SOL     OW 3357   1.200   2.117   1.146 -0.3322 -0.3279 -0.3390
 1074SOL    HW1 3358   1.116   2.082   1.116 -1.0241  2.4542 -2.0283
 1074SOL    HW2 3359   1.184   2.211   1.159  2.5149  0.3103 -0.7547
 1075SOL     OW 3360   2.902   3.499   2.330  0.3703 -0.2038 -0.0398
 1075SOL    HW1 3361   2.822   3.467   2.288  1.1447 -0.9167 -1.0079
 1075SOL    HW2 3362   2.960   3.423   2.333  1.7370  0.7449 -1.1115
 1076SOL     OW 3363   2.569   0.999   3.484 -0.6516 -0.2099  0.6106
 1076SOL    HW1 3364   2.506   1.071   3.486 -1.3738 -0.7679 -0.7871
 1076SOL    HW2 3365   2.516   0.920   3.490 -0.4815 -0.8266 -3.1232
 1077SOL     OW 3366   1.069   0.035   1.217 -0.1838  0.2017 -0.1669
 1077SOL    HW1 3367   1.144  -0.005   1.172 -1.3689 -2.3150 -0.0841
 1077SOL    HW2 3368   1.004   0.047   1.148 -0.4971  0.3078  0.1438
 1078SOL     OW 3369   0.565   0.590   0.219 -0.3691 -0.1273 -0.1374
 1078SOL    HW1 3370   0.528   0.625   0.300  0.4814 -0.4569  0.4079
 1078SOL    HW2 3371   0.526   0.503   0.210  2.1671 -1.6101  1.8733
 1079SOL     OW 3372   2.217   1.612   1.018 -0.0364  0.3320 -0.0929
 1079SOL    HW1 3373   2.139   1.646   0.975 -0.8550  0.0103  1.0876
 1079SOL    HW2 3374   2.185   1.541   1.074  1.1239  0.0741  0.2818
 1080SOL     OW 3375   2.378   2.719   0.854 -0.4473  0.3567  0.6324
 1080SOL    HW1 3376   2.431   2.790   0.889  0.8655 -0.3768  0.1970
 1080SOL    HW2 3377   2.421   2.694   0.773 -0.3307 -1.5302  1.2146
 1081SOL     OW 3378   0.912   0.106   1.002 -0.1622  0.2365  0.4127
 1081SOL    HW1 3379   0.861   0.034   1.039  0.2061 -0.3413 -0.1530
 1081SOL    HW2 3380   0.948   0.069   0.921  0.0522  1.0608  0.1252
 1082SOL     OW 3381   1.742   2.394   1.812  0.7241 -0.0188 -0.1167
 1082SOL    HW1 3382   1.657   2.431   1.787  0.2355 -0.6896  0.5290
 1082SOL    HW2 3383   1.765   2.336   1.740 -0.0976 -1.0055  0.3950
 1083SOL     OW 3384   3.280   2.936   0.689 -0.4911  0.0629  0.0722
 1083SOL    HW1 3385   3.344   3.001   0.658 -1.5542 -0.1317 -2.8035
 1083SOL    HW2 3386   3.287   2.940   0.785  1.8035  2.0315 -0.0686
 1084SOL     OW 3387   2.225   2.499   0.878  0.1250 -0.7733 -0.0319
 1084SOL    HW1 3388   2.274   2.582   0.872  0.4335 -0.9952 -0.6336
 1084SOL    HW2 3389   2.134   2.526   0.883  0.2202 -0.3929 -0.2515
 1085SOL     OW 3390   3.487   3.686   2.546 -0.1982 -0.1322  0.2694
 1085SOL    HW1 3391   3.550   3.618   2.572  1.0863  0.9675  0.1247
 1085SOL    HW2 3392   3.404   3.658   2.585  0.3402 -1.6686  0.3869
 1086SOL     OW 3393   2.671   1.712   2.772 -0.4519  0.1495 -0.7603
 1086SOL    HW1 3394   2.602   1.647   2.784 -0.1108 -0.8483 -3.4976
 1086SOL    HW2 3395   2.624   1.794   2.756 -0.9027  0.2488  0.8966
 1087SOL     OW 3396   0.175   0.053   0.639 -0.5571 -0.4115  0.3392
 1087SOL    HW1 3397   0.173   0.050   0.543 -1.5156  0.6806  0.3120
 1087SOL    HW2 3398   0.261   0.090   0.660  0.6241 -2.7437  0.0137
 1088SOL     OW 3399   1.086   3.213   2.463 -0.1681 -0.0374  0.0859
 1088SOL    HW1 3400   1.102   3.120   2.479 -2.0771 -0.7203 -1.4809
 1088SOL    HW2 3401   1.025   3.239   2.533 -1.6481 -0.6957 -0.9065
 1089SOL     OW 3402   1.440   0.056   3.335 -0.2122 -0.0055 -0.2077
 1089SOL    HW1 3403   1.486   0.052   3.419  0.3840 -0.3787 -0.5446
 1089SOL    HW2 3404   1.501   0.100   3.276 -0.6919  0.4014 -0.4087
 1090SOL     OW 3405   2.871   0.858   0.388 -0.1922 -1.0659  0.0691
 1090SOL    HW1 3406   2.810   0.911   0.439 -1.0908 -1.6603 -0.3495
 1090SOL    HW2 3407   2.905   0.794   0.450  0.3111 -0.4929  0.3946
 1091SOL     OW 3408   1.254   2.107   0.346  0.6877  0.2877  0.3234
 1091SOL    HW1 3409   1.331   2.068   0.388  1.7571  1.9914  0.0326
 1091SOL    HW2 3410   1.283   2.128   0.258 -0.8215 -1.0496 -0.5498
 1092SOL     OW 3411   2.652   0.465   0.725 -0.3915  0.1409  0.0030
 1092SOL    HW1 3412   2.738   0.422   0.725 -0.1026  0.5643  2.6268
 1092SOL    HW2 3413   2.665   0.545   0.673  0.3872 -0.4910 -0.8115
 1093SOL     OW 3414   2.783   2.748   3.490 -0.0133  0.5339  0.2433
 1093SOL    HW1 3415   2.754   2.813   3.554  1.1922 -0.5413  1.9628
 1093SOL    HW2 3416   2.865   2.783   3.456 -0.0790  0.5691  0.1202
 1094SOL     OW 3417   0.857   1.051   3.153  0.5940  0.2420 -0.1606
 1094SOL    HW1 3418   0.870   1.124   3.214 -0.2468  0.9700 -0.8223
 1094SOL    HW2 3419   0.860   0.973   3.208 -1.8962  0.9584  1.1596
 1095SOL     OW 3420   0.059   2.025   0.258 -0.3475  0.1509  0.1394
 1095SOL    HW1 3421   0.035   1.999   0.347  2.6295  1.4623  1.4388
 1095SOL    HW2 3422   0.003   1.971   0.202 -1.9331 -1.1330  2.7673
 1096SOL     OW 3423   3.321   1.105   1.193 -0.6308  0.1824 -0.0563
 1096SOL    HW1 3424   3.229   1.080   1.193 -0.8970  1.1178  0.5344
 1096SOL    HW2 3425   3.328   1.172   1.125 -0.5066  0.5315  0.2986
 1097SOL     OW 3426   2.604   0.975   2.274 -0.1832 -0.1879  0.1449
 1097SOL    HW1 3427   2.626   0.909   2.340 -1.1680 -2.5869 -1.7766
 1097SOL    HW2 3428   2.531   1.024   2.312 -0.2948 -1.0453  1.0742
 1098SOL     OW 3429   2.923   0.863   3.464  0.4120 -0.3709  0.5422
 1098SOL    HW1 3430   2.875   0.919   3.403 -2.0545 -2.0635  0.7849
 1098SOL    HW2 3431   2.954   0.922   3.533 -0.1801  0.9900 -0.3378
 1099SOL     OW 3432   0.896   2.646   1.513  0.0545 -0.2246  0.0483
 1099SOL    HW1 3433   0.930   2.557   1.514 -1.3171 -0.7768 -0.3957
 1099SOL    HW2 3434   0.803   2.637   1.530 -0.2102  1.0837 -0.5553
 1100SOL     OW 3435   1.327   3.352   0.936 -0.6187  0.3202 -0.0712
 1100SOL    HW1 3436   1.311   3.286   1.003  0.5120  0.2330  0.1290
 1100SOL    HW2 3437   1.420   3.371   0.943 -0.7945  1.4456 -0.5809
 1101SOL     OW 3438   1.525   0.723   0.313 -0.5264 -0.1100  0.0541
 1101SOL    HW1 3439   1.589   0.751   0.247  0.6802 -1.9244  0.3865
 1101SOL    HW2 3440   1.454   0.685   0.262 -1.8090  2.6289 -0.3615
 1102SOL     OW 3441   2.122   1.661   0.218  0.4630  0.6150 -0.0736
 1102SOL    HW1 3442   2.186   1.603   0.259 -0.5273 -0.8322 -0.4921
 1102SOL    HW2 3443   2.144   1.660   0.125 -1.0786 -1.2014 -0.4781
 1103SOL     OW 3444   1.897   2.681   1.851 -0.5834  0.5778 -0.0300
 1103SOL    HW1 3445   1.817   2.631   1.834 -0.5068  0.3496  0.2486
 1103SOL    HW2 3446   1.944   2.680   1.768 -0.2240 -0.4910  0.1642
 1104SOL     OW 3447   0.204   3.159   1.515 -0.7264 -0.5013  0.1970
 1104SOL    HW1 3448   0.171   3.074   1.546 -1.6554  0.0249  0.6974
 1104SOL    HW2 3449   0.209   3.212   1.594  1.5335 -0.5959  0.1751
 1105SOL     OW 3450   3.690   2.986   1.344 -0.2593 -0.1888  0.1242
 1105SOL    HW1 3451   3.731   2.979   1.430 -1.6886 -2.8333  0.6991
 1105SOL    HW2 3452   3.611   3.038   1.358 -0.4873 -0.6131  0.4096
 1106SOL     OW 3453   1.475   0.072   2.942 -0.3651 -0.2655  0.5942
 1106SOL    HW1 3454   1.544   0.134   2.967  0.6605 -0.9275 -0.4847
 1106SOL    HW2 3455   1.481   0.066   2.847 -0.6337 -1.7869  0.6422
 1107SOL     OW 3456   1.231   0.603   2.949 -0.2649 -0.7323 -0.3511
 1107SOL    HW1 3457   1.205   0.641   2.866 -0.6801  0.4485  0.2955
 1107SOL    HW2 3458   1.296   0.664   2.985 -1.1493 -0.4507  0.8279
 1108SOL     OW 3459   2.934   0.095   0.543 -0.5030  0.3504  0.5690
 1108SOL    HW1 3460   3.001   0.028   0.535  0.1379  1.0009  0.3377
 1108SOL    HW2 3461   2.899   0.084   0.632  2.2077  2.0489  1.9923
 1109SOL     OW 3462   2.589   1.052   3.038 -0.0924  0.0960  0.2260
 1109SOL    HW1 3463   2.585   0.975   3.096  2.3742 -0.3053 -0.0092
 1109SOL    HW2 3464   2.538   1.119   3.083 -2.0889 -1.5684  0.5692
 1110SOL     OW 3465   0.063   2.297   2.989 -0.4043  0.5014  0.1878
 1110SOL    HW1 3466   0.116   2.336   3.059 -0.3223 -0.7955  0.8676
 1110SOL    HW2 3467   0.107   2.325   2.908  0.2052  1.0153  0.6787
 1111SOL     OW 3468   2.970   3.608   2.559  0.2432 -1.1772  0.0409
 1111SOL    HW1 3469   2.949   3.572   2.474 -1.7232  0.0435 -0.0443
 1111SOL    HW2 3470   2.900   3.579   2.617 -0.4076  0.8563  0.3846
 1112SOL     OW 3471   1.520   1.658   2.182 -0.0809  0.7434 -0.2154
 1112SOL    HW1 3472   1.426   1.671   2.172 -0.0781  2.3004  1.3240
 1112SOL    HW2 3473   1.541   1.585   2.124 -2.1478  0.6707 -0.9292
 1113SOL     OW 3474   1.483   1.761   1.770 -0.2258 -0.2839 -0.6043
 1113SOL    HW1 3475   1.403   1.795   1.729 -0.9575 -2.6373 -1.3020
 1113SOL    HW2 3476   1.550   1.770   1.703  0.4277  2.6080  0.3167
 1114SOL     OW 3477   0.979   1.157   2.495 -0.6666 -0.7251  0.0624
 1114SOL    HW1 3478   0.999   1.151   2.588  0.1718  0.2878 -0.0357
 1114SOL    HW2 3479   0.979   1.066   2.465  4.0041 -0.9637  0.0572
 1115SOL     OW 3480   0.806   1.104   1.211  0.6739 -0.9067  0.1641
 1115SOL    HW1 3481   0.849   1.031   1.166  1.1115  0.4545 -1.7518
 1115SOL    HW2 3482   0.733   1.128   1.154 -1.7591 -2.0845  2.5381
 1116SOL     OW 3483   1.445   1.510   1.565 -0.4324  1.1206 -0.0351
 1116SOL    HW1 3484   1.484   1.541   1.484  0.5303 -2.1599 -0.9796
 1116SOL    HW2 3485   1.355   1.485   1.541  0.4669 -1.8448 -0.8158
 1117SOL     OW 3486   0.089   2.931   3.213 -0.4110  0.5447  0.1928
 1117SOL    HW1 3487   0.044   2.990   3.273 -0.6780  1.8296 -1.2157
 1117SOL    HW2 3488   0.062   2.843   3.242 -0.3341  1.0961  2.0628
 1118SOL     OW 3489   1.138   1.839   0.197 -0.7046 -1.0129 -0.0577
 1118SOL    HW1 3490   1.148   1.910   0.134  1.3452 -0.0401  1.2685
 1118SOL    HW2 3491   1.047   1.845   0.226 -1.2017 -0.4399 -1.6893
 1119SOL     OW 3492   0.086   1.162   0.947  0.1971 -0.5231 -0.3045
 1119SOL    HW1 3493  -0.000   1.135   0.976  0.2174  0.0545  0.3135
 1119SOL    HW2 3494   0.069   1.228   0.879  0.1411  0.2993  0.4933
 1120SOL     OW 3495   0.321   3.181   2.181 -0.2448  0.0534  0.0394
 1120SOL    HW1 3496   0.353   3.198   2.269  0.4041 -0.7153 -0.0352
 1120SOL    HW2 3497   0.360   3.097   2.157 -0.9256 -0.0595 -0.7340
 1121SOL     OW 3498   2.776   2.363   1.758 -0.0589  0.3766 -0.4464
 1121SOL    HW1 3499   2.741   2.325   1.677  0.9261 -2.2067  0.2553
 1121SOL    HW2 3500   2.709   2.344   1.824  0.3908 -0.0449 -0.1083
 1122SOL     OW 3501   3.552   3.680   0.237 -0.4725 -0.7814 -0.3292
 1122SOL    HW1 3502   3.504   3.651   0.159 -1.1856 -1.9484  0.5084
 1122SOL    HW2 3503   3.634   3.716   0.202 -0.8853 -1.0219 -1.6287
 1123SOL     OW 3504   2.144   1.646   2.162 -0.4492  0.3212  0.6392
 1123SOL    HW1 3505   2.066   1.628   2.110 -1.1851  1.8114  1.1671
 1123SOL    HW2 3506   2.169   1.561   2.198 -0.7934 -0.4769 -0.9122
 1124SOL     OW 3507   0.930   0.001   2.904  0.3301 -0.3486  0.0663
 1124SOL    HW1 3508   1.015   0.028   2.939  0.6623  1.3446 -1.8059
 1124SOL    HW2 3509   0.872   0.076   2.921 -0.1448 -0.5205 -0.7174
 1125SOL     OW 3510   2.919   2.435   3.513  0.1870 -0.5880  0.0426
 1125SOL    HW1 3511   2.836   2.421   3.467 -0.8681  0.4887  1.5083
 1125SOL    HW2 3512   2.975   2.480   3.450 -1.3994  1.3418 -0.0841
 1126SOL     OW 3513   1.823   0.545   1.011 -0.2155  0.5575 -0.2037
 1126SOL    HW1 3514   1.899   0.490   1.033 -2.0296 -2.2867 -0.4774
 1126SOL    HW2 3515   1.807   0.528   0.918 -1.0712  1.2658 -0.1964
 1127SOL     OW 3516   3.199   2.517   3.086 -0.3299  0.0896 -0.5712
 1127SOL    HW1 3517   3.244   2.434   3.077  1.2194  0.7377  0.7008
 1127SOL    HW2 3518   3.114   2.494   3.123 -0.4386 -1.0147 -1.4479
 1128SOL     OW 3519   1.336   1.270   1.103  0.0282  1.0020 -0.1137
 1128SOL    HW1 3520   1.241   1.258   1.101  0.0268  0.9598  0.1420
 1128SOL    HW2 3521   1.350   1.338   1.168  0.1815  0.9331 -0.0749
 1129SOL     OW 3522   0.204   2.283   0.620 -0.1131 -0.1823 -0.1396
 1129SOL    HW1 3523   0.229   2.299   0.711  0.6737 -0.4273 -0.3042
 1129SOL    HW2 3524   0.187   2.370   0.584 -0.4846 -0.0907  0.2514
 1130SOL     OW 3525   2.902   0.982   3.025 -0.3336 -0.2131  0.0642
 1130SOL    HW1 3526   2.826   1.003   3.079  0.0111 -0.6569  0.7275
 1130SOL    HW2 3527   2.867   0.978   2.936 -1.0663 -0.2904  0.3441
 1131SOL     OW 3528   2.381   3.509   1.309  0.2791 -0.1556 -0.4727
 1131SOL    HW1 3529   2.350   3.460   1.232  0.1532  0.5741 -0.8969
 1131SOL    HW2 3530   2.391   3.599   1.277  0.0285  0.1965  0.4161
 1132SOL     OW 3531   1.562   0.516   0.719  0.5911 -0.0085  0.3826
 1132SOL    HW1 3532   1.500   0.459   0.673  0.2063  0.4279  0.3629
 1132SOL    HW2 3533   1.615   0.554   0.649  1.0480 -0.5693  0.4159
 1133SOL     OW 3534   1.939   3.532   2.088 -0.0847  0.1663 -0.2967
 1133SOL    HW1 3535   1.993   3.469   2.039  0.3121 -0.7905  1.2910
 1133SOL    HW2 3536   1.957   3.616   2.047  0.1092 -0.6024 -1.8774
 1134SOL     OW 3537   2.745   2.030   3.360  0.3844 -0.2139 -0.2709
 1134SOL    HW1 3538   2.663   2.072   3.335  1.0981  0.4836 -1.5233
 1134SOL    HW2 3539   2.776   1.988   3.280  0.4883 -1.8453  0.5707
 1135SOL     OW 3540   0.478   2.089   1.206  0.1279  0.1315 -0.1649
 1135SOL    HW1 3541   0.471   2.012   1.262  0.4237 -0.5347 -1.0014
 1135SOL    HW2 3542   0.537   2.147   1.252 -2.4427  1.2423  1.9463
 1136SOL     OW 3543   0.152   0.195   2.438 -0.1115 -1.0691 -0.2922
 1136SOL    HW1 3544   0.058   0.208   2.450 -0.1371 -0.7158 -0.8511
 1136SOL    HW2 3545   0.176   0.256   2.368  0.6845 -0.5714  0.3982
 1137SOL     OW 3546   2.426   3.638   0.666 -0.0185 -0.2869  0.6455
 1137SOL    HW1 3547   2.445   3.647   0.760  1.2582 -2.4439  0.6698
 1137SOL    HW2 3548   2.488   3.697   0.624  3.3846 -3.1970  1.0249
 1138SOL     OW 3549   0.674   1.725   3.121 -0.3624 -0.0671 -0.1618
 1138SOL    HW1 3550   0.723   1.643   3.116 -1.5718 -0.8367  0.1157
 1138SOL    HW2 3551   0.708   1.769   3.198  0.5105 -0.1523 -0.4874
 1139SOL     OW 3552   3.561   3.389   2.439  0.4083 -0.2222 -0.3491
 1139SOL    HW1 3553   3.603   3.415   2.521  0.2826 -0.8041 -0.0980
 1139SOL    HW2 3554   3.481   3.345   2.466  1.2115 -1.9934 -0.6979
 1140SOL     OW 3555   3.322   2.321   1.626 -0.2044  0.5108  0.0073
 1140SOL    HW1 3556   3.358   2.287   1.544 -0.5750  0.0864  0.0178
 1140SOL    HW2 3557   3.229   2.336   1.607 -0.0587  1.4912  0.0124
 1141SOL     OW 3558   0.626   3.308   1.566  0.8261 -1.0689  0.0701
 1141SOL    HW1 3559   0.589   3.316   1.478  0.5810 -0.2866  0.2411
 1141SOL    HW2 3560   0.658   3.396   1.586 -1.2876 -0.6101  1.7313
 1142SOL     OW 3561   1.028   0.632   1.890  0.1318  0.1801 -0.1830
 1142SOL    HW1 3562   0.988   0.710   1.852  1.6595  1.4907  0.7447
 1142SOL    HW2 3563   1.074   0.665   1.968  0.8115 -1.6498  0.2387
 1143SOL     OW 3564   0.556   0.253   2.692  0.2944  0.1461  0.4530
 1143SOL    HW1 3565   0.548   0.268   2.598  0.5552 -1.3429  0.1726
 1143SOL    HW2 3566   0.520   0.332   2.732  0.0810  0.7538 -0.8887
 1144SOL     OW 3567   1.321   1.003   1.938 -0.4840 -0.8325  0.3881
 1144SOL    HW1 3568   1.259   0.990   2.010  0.0083 -0.5053  0.8775
 1144SOL    HW2 3569   1.272   1.055   1.874 -0.6017 -0.2473  0.9375
 1145SOL     OW 3570   1.923   0.389   0.067  0.2175  0.1172 -0.6703
 1145SOL    HW1 3571   1.957   0.469   0.027 -1.6181  0.5141 -1.5830
 1145SOL    HW2 3572   1.866   0.352  -0.000 -1.5132 -0.2099  0.8968
 1146SOL     OW 3573   2.522   0.286   2.701 -0.0258 -0.5793  0.4770
 1146SOL    HW1 3574   2.539   0.375   2.672  1.3255 -1.3549 -1.3322
 1146SOL    HW2 3575   2.552   0.284   2.792  2.2217  0.2323 -0.1910
 1147SOL     OW 3576   3.180   2.419   2.097  0.7280  0.4963  0.6355
 1147SOL    HW1 3577   3.127   2.492   2.130 -0.7121 -0.6343  0.8928
 1147SOL    HW2 3578   3.152   2.410   2.006  1.5592  0.8185  0.3383
 1148SOL     OW 3579   1.705   0.525   3.248 -0.4043  0.5392  0.6060
 1148SOL    HW1 3580   1.706   0.502   3.341  0.8381  0.7326  0.6580
 1148SOL    HW2 3581   1.627   0.481   3.213  0.1027 -1.0354  1.3551
 1149SOL     OW 3582   0.249   2.074   3.373  0.4500 -0.4346 -0.6297
 1149SOL    HW1 3583   0.284   2.084   3.284  0.8877  0.5957 -0.3621
 1149SOL    HW2 3584   0.319   2.107   3.429 -1.3212  2.9600 -0.1325
 1150SOL     OW 3585   3.478   3.491   1.591 -0.1316  0.3190 -0.1688
 1150SOL    HW1 3586   3.428   3.466   1.669 -0.4678  0.6497 -0.2800
 1150SOL    HW2 3587   3.499   3.583   1.604  1.5182 -0.0997  0.4645
 1151SOL     OW 3588   2.210   2.387   2.268  0.2657  0.4263  0.2583
 1151SOL    HW1 3589   2.133   2.350   2.226  1.9399 -1.3704 -1.4225
 1151SOL    HW2 3590   2.200   2.365   2.361 -1.7634  1.2839  0.2935
 1152SOL     OW 3591   2.111   0.281   2.069 -0.9788 -0.0161 -0.4077
 1152SOL    HW1 3592   2.088   0.371   2.092 -1.3568  0.0384 -0.9558
 1152SOL    HW2 3593   2.207   0.279   2.070 -0.8911  0.9033 -2.1521
 1153SOL     OW 3594   1.815   1.340   1.934 -0.3437  0.3384  0.0257
 1153SOL    HW1 3595   1.879   1.296   1.878 -1.3413 -2.4882  0.9648
 1153SOL    HW2 3596   1.742   1.360   1.875  0.2028  0.9794 -0.4535
 1154SOL     OW 3597   2.505   1.639   1.822 -0.5047 -0.1237  0.8441
 1154SOL    HW1 3598   2.506   1.726   1.782 -2.2837 -0.3887  0.1163
 1154SOL    HW2 3599   2.596   1.610   1.818  0.3193  2.0369  1.9299
 1155SOL     OW 3600   0.702   1.493   0.232  0.5456  0.4651 -0.5946
 1155SOL    HW1 3601   0.722   1.399   0.240 -1.7713 -0.1289 -0.9421
 1155SOL    HW2 3602   0.669   1.502   0.143  0.3243  1.5293 -0.4100
 1156SOL     OW 3603   1.021   0.529   0.077  0.1484  0.5642  0.1198
 1156SOL    HW1 3604   1.069   0.458   0.119 -0.4143  0.0856 -0.0365
 1156SOL    HW2 3605   0.949   0.549   0.137 -0.1979  0.4139 -0.2392
 1157SOL     OW 3606   3.438   0.865   2.535 -0.9511  0.5566  0.1583
 1157SOL    HW1 3607   3.483   0.943   2.568  1.0552 -0.4214 -0.1373
 1157SOL    HW2 3608   3.355   0.865   2.582  0.3094  1.1419  2.5888
 1158SOL     OW 3609   0.692   1.427   3.413  0.2702 -0.5680  0.3494
 1158SOL    HW1 3610   0.738   1.508   3.391 -1.6150  0.9508  1.6543
 1158SOL    HW2 3611   0.665   1.391   3.329 -1.5641  1.8684 -0.2100
 1159SOL     OW 3612   3.650   1.756   0.145  0.2131 -0.6246 -0.4821
 1159SOL    HW1 3613   3.558   1.728   0.146 -1.6221  4.4286 -1.0831
 1159SOL    HW2 3614   3.681   1.730   0.058 -1.4568 -0.3900 -1.2022
 1160SOL     OW 3615   2.004   1.453   1.716 -0.7992 -0.7205 -0.3004
 1160SOL    HW1 3616   1.999   1.521   1.783 -0.2020 -0.4332 -0.5421
 1160SOL    HW2 3617   1.946   1.484   1.647 -0.3579 -0.3348 -0.5084
 1161SOL     OW 3618   2.240   0.377   1.394  0.1367  0.3014  0.0480
 1161SOL    HW1 3619   2.238   0.284   1.415 -0.3046  0.2876 -0.0376
 1161SOL    HW2 3620   2.326   0.392   1.355  0.6746  0.1708  1.1549
 1162SOL     OW 3621   2.192   1.939   3.595  0.2162 -0.2517 -0.3305
 1162SOL    HW1 3622   2.146   2.021   3.575 -1.0478 -0.9725 -0.5424
 1162SOL    HW2 3623   2.240   1.957   3.675  0.2985  0.8205 -0.6014
 1163SOL     OW 3624   2.039   1.865   2.301  0.1915  0.2338 -0.1734
 1163SOL    HW1 3625   2.108   1.838   2.241 -0.5751 -2.0159 -0.1283
 1163SOL    HW2 3626   1.958   1.843   2.256 -0.4823  1.7169  0.2731
 1164SOL     OW 3627   2.384   2.942   3.725 -0.0323  0.3353 -0.0900
 1164SOL    HW1 3628   2.295   2.913   3.704  0.8182 -1.2962 -1.7073
 1164SOL    HW2 3629   2.379   3.038   3.726 -1.5390  0.3035 -1.4668
 1165SOL     OW 3630   1.429   3.410   3.062 -0.5627  0.7662 -0.0805
 1165SOL    HW1 3631   1.343   3.438   3.095 -0.9514  0.2373 -0.6174
 1165SOL    HW2 3632   1.462   3.351   3.130 -1.4044 -0.4017 -0.6527
 1166SOL     OW 3633   0.716   1.361   3.098  0.3053  0.9229 -0.2527
 1166SOL    HW1 3634   0.743   1.307   3.024  1.7214  0.8381  0.2894
 1166SOL    HW2 3635   0.779   1.433   3.099  2.7059 -0.9350  2.9433
 1167SOL     OW 3636   1.323   2.154   3.298 -0.3717  0.1700 -0.1537
 1167SOL    HW1 3637   1.293   2.213   3.229  1.2027 -0.3201 -1.2875
 1167SOL    HW2 3638   1.260   2.167   3.369 -1.0142  1.9782 -1.0031
 1168SOL     OW 3639   0.934   2.406   0.825 -0.0968  0.4927 -0.1885
 1168SOL    HW1 3640   1.006   2.431   0.882 -0.3421  1.3279 -0.2360
 1168SOL    HW2 3641   0.879   2.484   0.819 -0.5142  0.1598 -0.8959
 1169SOL     OW 3642   0.494   2.874   0.785  0.6257 -0.3108 -0.3292
 1169SOL    HW1 3643   0.431   2.935   0.823  1.3137  0.0390  0.2699
 1169SOL    HW2 3644   0.529   2.920   0.709 -0.0864 -0.6467 -0.8716
 1170SOL     OW 3645   2.461   1.456   0.120 -0.6713  0.0270 -0.2963
 1170SOL    HW1 3646   2.521   1.500   0.060 -1.3818  0.2601 -0.8470
 1170SOL    HW2 3647   2.439   1.374   0.077  0.7993 -0.9959  0.8165
 1171SOL     OW 3648   3.030   1.860   2.114  0.1938 -0.4136 -0.2902
 1171SOL    HW1 3649   2.992   1.867   2.027  0.7913 -2.6763 -0.7926
 1171SOL    HW2 3650   3.087   1.937   2.122 -0.5067  0.2643 -1.5329
 1172SOL     OW 3651   1.413   2.858   0.736 -0.1987 -0.9353  1.1064
 1172SOL    HW1 3652   1.356   2.860   0.813 -0.9003 -1.2258  0.6043
 1172SOL    HW2 3653   1.501   2.847   0.772 -0.2388  1.1823  1.9788
 1173SOL     OW 3654   1.130   0.113   0.408 -0.9037 -0.4368 -0.3512
 1173SOL    HW1 3655   1.214   0.073   0.429  0.0801  1.6512  0.0101
 1173SOL    HW2 3656   1.068   0.072   0.468  0.1069 -1.1361  0.2410
 1174SOL     OW 3657   3.443   2.522   2.181  0.3031  0.2998  0.3188
 1174SOL    HW1 3658   3.436   2.606   2.135 -1.4971 -0.6677 -1.3254
 1174SOL    HW2 3659   3.362   2.476   2.159  1.6738 -2.2919  0.3030
 1175SOL     OW 3660   1.611   1.504   0.492 -0.0798 -1.0408  0.0402
 1175SOL    HW1 3661   1.565   1.518   0.409 -1.3971  1.1240  1.0530
 1175SOL    HW2 3662   1.703   1.519   0.472 -0.6326  2.1826 -0.5872
 1176SOL     OW 3663   0.717   2.385   2.276 -0.3780 -0.3844  0.3476
 1176SOL    HW1 3664   0.782   2.455   2.273 -0.2713 -0.5069 -0.4659
 1176SOL    HW2 3665   0.647   2.419   2.331 -1.3230  1.2345 -1.7440
 1177SOL     OW 3666   0.842   0.855   0.826  0.4925 -0.2414  0.1803
 1177SOL    HW1 3667   0.895   0.927   0.860  2.2712 -1.4776  0.1489
 1177SOL    HW2 3668   0.897   0.816   0.757 -0.6995 -1.2335 -0.2344
 1178SOL     OW 3669   3.340   0.821   1.842  0.1870  0.4034  0.9019
 1178SOL    HW1 3670   3.424   0.781   1.822  0.3128  1.8833 -2.0917
 1178SOL    HW2 3671   3.362   0.905   1.883  0.1598  0.6471  0.4189
 1179SOL     OW 3672   2.915   1.648   1.006  0.4442 -0.1419  0.1875
 1179SOL    HW1 3673   2.867   1.727   0.984 -1.4689 -0.5352  2.5596
 1179SOL    HW2 3674   2.960   1.669   1.088  0.8192 -1.1436  0.2530
 1180SOL     OW 3675   1.003   1.200   2.218  0.0809  0.6750 -0.1861
 1180SOL    HW1 3676   1.090   1.200   2.258 -0.4608 -1.0571  1.0970
 1180SOL    HW2 3677   0.942   1.200   2.291 -0.9717 -0.1377 -1.0128
 1181SOL     OW 3678   3.686   2.807   2.144 -0.0372 -0.1047 -0.0740
 1181SOL    HW1 3679   3.592   2.794   2.129 -0.0608 -1.5261  1.1012
 1181SOL    HW2 3680   3.709   2.741   2.209  1.5634  0.9556  0.4816
 1182SOL     OW 3681   2.445   0.926   0.908  0.1562  0.1058 -0.1020
 1182SOL    HW1 3682   2.472   0.839   0.880  0.8465  0.2434  0.1108
 1182SOL    HW2 3683   2.406   0.913   0.995 -1.3834 -0.2261 -0.8016
 1183SOL     OW 3684   2.536   2.917   1.576 -0.2629  0.4610 -0.5732
 1183SOL    HW1 3685   2.618   2.898   1.622  0.6930  1.2578 -1.9019
 1183SOL    HW2 3686   2.482   2.840   1.594 -0.1580  0.9214  2.2747
 1184SOL     OW 3687   3.223   3.218   0.865 -0.2270 -0.1718 -0.4980
 1184SOL    HW1 3688   3.244   3.267   0.786 -0.6603  0.7114 -0.0747
 1184SOL    HW2 3689   3.128   3.207   0.862 -0.0168 -2.4846 -1.4357
 1185SOL     OW 3690   0.875   1.892   2.081  0.1565  0.3507 -0.7878
 1185SOL    HW1 3691   0.963   1.881   2.044  0.8463  1.7362  0.3132
 1185SOL    HW2 3692   0.849   1.980   2.056  0.7782  1.4805  2.0919
 1186SOL     OW 3693   0.785   3.651   1.942  0.0914  0.9838 -0.2373
 1186SOL    HW1 3694   0.724   3.725   1.942  0.9985  1.7510 -0.4424
 1186SOL    HW2 3695   0.862   3.684   1.897  1.0260  0.3226  0.8367
 1187SOL     OW 3696   0.654   2.688   1.761  0.1518 -0.8389 -0.6348
 1187SOL    HW1 3697   0.576   2.633   1.754  0.8335 -2.0539  0.7314
 1187SOL    HW2 3698   0.628   2.771   1.720 -1.3076 -1.7416 -1.6644
 1188SOL     OW 3699   2.605   0.795   2.866  0.8494  0.0299  0.8312
 1188SOL    HW1 3700   2.521   0.833   2.838 -0.3292 -0.6173  3.2304
 1188SOL    HW2 3701   2.669   0.835   2.808 -1.0150  1.1777 -0.5763
 1189SOL     OW 3702   1.082   2.935   2.723 -0.0901 -0.4770 -0.0393
 1189SOL    HW1 3703   1.078   2.857   2.778 -3.7931 -1.1162 -0.9512
 1189SOL    HW2 3704   1.031   3.001   2.770  1.7713  1.0361  0.0259
 1190SOL     OW 3705   2.494   0.642   0.456 -0.0651  0.2771  0.3497
 1190SOL    HW1 3706   2.554   0.661   0.528 -0.3347 -0.8808  0.9074
 1190SOL    HW2 3707   2.550   0.609   0.386  0.3049  2.2350 -0.3306
 1191SOL     OW 3708   2.697   1.604   0.866  0.3532 -0.1874  0.5190
 1191SOL    HW1 3709   2.683   1.686   0.819 -1.0003 -1.2204 -0.9399
 1191SOL    HW2 3710   2.792   1.591   0.862  0.4895  0.8238 -0.0428
 1192SOL     OW 3711   1.468   2.975   0.489 -0.5698 -0.0690  0.3753
 1192SOL    HW1 3712   1.482   2.915   0.563 -0.2413 -2.2172 -1.3354
 1192SOL    HW2 3713   1.379   2.956   0.459 -0.9331  1.2417  0.5753
 1193SOL     OW 3714   0.015   0.771   2.094 -0.5435 -0.3897  0.0873
 1193SOL    HW1 3715  -0.033   0.796   2.173  1.3500  0.5392  1.0083
 1193SOL    HW2 3716   0.054   0.687   2.116 -0.2821 -0.2836  0.0322
 1194SOL     OW 3717   0.591   1.169   1.606  0.1668 -0.5156  1.1243
 1194SOL    HW1 3718   0.527   1.100   1.589  0.4809 -1.1386  2.3415
 1194SOL    HW2 3719   0.615   1.202   1.520 -2.0198 -0.0468  0.6288
 1195SOL     OW 3720   1.684   1.838   2.641 -0.7633  0.2571  0.3579
 1195SOL    HW1 3721   1.594   1.863   2.662 -1.4171 -1.9374  0.4242
 1195SOL    HW2 3722   1.689   1.745   2.664  1.8413  0.5568  1.3327
 1196SOL     OW 3723   3.078   2.733   0.768  0.3936  0.5766 -0.3868
 1196SOL    HW1 3724   3.088   2.758   0.860 -0.0456  1.5356 -0.5853
 1196SOL    HW2 3725   3.118   2.805   0.719 -0.7166  0.8023 -0.9816
 1197SOL     OW 3726   2.997   1.194   2.751 -0.2649 -0.3128 -0.2601
 1197SOL    HW1 3727   2.991   1.287   2.771  0.0327 -0.7717  2.3139
 1197SOL    HW2 3728   2.910   1.159   2.772  0.1772 -0.8982  0.6688
 1198SOL     OW 3729   1.828   1.648   0.241  0.2962  0.0591 -0.0628
 1198SOL    HW1 3730   1.918   1.664   0.213 -0.0411  3.0259  0.2929
 1198SOL    HW2 3731   1.835   1.618   0.331  0.9062  0.5596  0.0563
 1199SOL     OW 3732   2.910   1.380   0.077  0.2659  0.1966 -0.0977
 1199SOL    HW1 3733   2.905   1.362   0.171  0.2809  1.5732  0.1932
 1199SOL    HW2 3734   3.003   1.393   0.060  0.0755  2.2259  0.1940
 1200SOL     OW 3735   0.704   2.848   2.243  0.9206  0.2368 -0.3828
 1200SOL    HW1 3736   0.648   2.859   2.319  0.8934  1.5491 -0.5723
 1200SOL    HW2 3737   0.651   2.799   2.181  0.2074  0.8982 -0.3131
 1201SOL     OW 3738   1.370   3.396   3.724  0.1907 -0.3986  0.4422
 1201SOL    HW1 3739   1.293   3.403   3.669  1.4017  1.5156 -1.1440
 1201SOL    HW2 3740   1.444   3.399   3.663  1.5575 -1.1428  1.9672
 1202SOL     OW 3741   2.840   0.747   1.002  0.0212  0.3420  0.7846
 1202SOL    HW1 3742   2.859   0.799   1.081  1.7088  0.3055  0.4298
 1202SOL    HW2 3743   2.864   0.657   1.026  0.6258  0.3444  0.2013
 1203SOL     OW 3744   3.239   2.661   1.583  0.0554 -0.4921 -0.2458
 1203SOL    HW1 3745   3.200   2.574   1.584 -1.7180  0.2170 -1.7031
 1203SOL    HW2 3746   3.208   2.700   1.502 -0.1602  1.9330  0.9216
 1204SOL     OW 3747   3.388   0.682   0.103  0.4890  0.5137 -0.0145
 1204SOL    HW1 3748   3.429   0.641   0.179  1.8021  1.0228 -0.4180
 1204SOL    HW2 3749   3.413   0.627   0.030  0.7744  1.0366 -0.3181
 1205SOL     OW 3750   1.409   1.959   0.094 -0.1221  0.4046  0.2801
 1205SOL    HW1 3751   1.493   1.966   0.050  0.9207  0.0883  2.1375
 1205SOL    HW2 3752   1.398   1.866   0.111 -1.8597  0.1646 -1.7123
 1206SOL     OW 3753   1.332   1.083   2.931  0.1232  0.7455 -0.6294
 1206SOL    HW1 3754   1.383   1.095   2.851  0.8828  2.8097  0.0780
 1206SOL    HW2 3755   1.251   1.131   2.915 -0.5229 -0.3886 -0.8139
 1207SOL     OW 3756   3.207   2.925   3.684  0.1948 -0.4000  0.1918
 1207SOL    HW1 3757   3.259   3.004   3.671  0.1581  0.0414  2.3489
 1207SOL    HW2 3758   3.271   2.859   3.714 -0.3372  0.0777  2.6119
 1208SOL     OW 3759   0.439   0.064   0.140 -0.3635  0.0715  0.7940
 1208SOL    HW1 3760   0.525   0.025   0.156  1.1687  2.2186 -1.5438
 1208SOL    HW2 3761   0.404   0.017   0.065  0.6803  1.8389 -0.8714
 1209SOL     OW 3762   1.997   1.681   0.870  0.1236  0.0319  0.3160
 1209SOL    HW1 3763   1.957   1.768   0.881 -0.9558 -0.4791  0.4778
 1209SOL    HW2 3764   1.929   1.619   0.895  1.1587 -0.8604  1.0237
 1210SOL     OW 3765   0.801   3.358   0.731  0.1108 -0.5645  0.0833
 1210SOL    HW1 3766   0.874   3.372   0.791  0.4567  0.5894 -0.5700
 1210SOL    HW2 3767   0.840   3.309   0.658 -0.1082 -1.2165  0.4033
 1211SOL     OW 3768   2.600   0.189   0.769 -0.4381 -0.6109  0.3114
 1211SOL    HW1 3769   2.610   0.284   0.763  1.2822 -0.8398 -1.2660
 1211SOL    HW2 3770   2.658   0.163   0.841 -0.7608 -0.4923  0.6161
 1212SOL     OW 3771   0.518   0.359   1.449  0.4089  0.0852 -0.3256
 1212SOL    HW1 3772   0.450   0.422   1.470  0.6860  0.3737 -0.2939
 1212SOL    HW2 3773   0.495   0.281   1.499  0.1471  0.2079 -0.2550
 1213SOL     OW 3774   2.198   1.893   1.641  0.1131 -0.3719 -0.4968
 1213SOL    HW1 3775   2.112   1.910   1.679  0.0640  1.1245 -1.2225
 1213SOL    HW2 3776   2.254   1.873   1.717 -1.2638 -3.4696 -0.1611
 1214SOL     OW 3777   1.654   1.793   0.996 -0.3540  0.6593  0.5861
 1214SOL    HW1 3778   1.683   1.780   1.086 -0.1204  2.5071  0.8060
 1214SOL    HW2 3779   1.586   1.860   1.002 -1.4780 -0.3399 -0.4496
 1215SOL     OW 3780   2.674   1.371   3.483 -0.2796  0.0033 -0.2279
 1215SOL    HW1 3781   2.683   1.458   3.521  1.1631  0.7679 -2.2244
 1215SOL    HW2 3782   2.764   1.339   3.471 -0.7656 -1.7680  0.4122
 1216SOL     OW 3783   0.916   0.857   1.777  0.3661  0.2304 -0.1752
 1216SOL    HW1 3784   0.930   0.924   1.710 -0.6025  0.6745  0.0378
 1216SOL    HW2 3785   0.922   0.905   1.860 -0.8336  0.1770 -0.0340
 1217SOL     OW 3786   2.368   0.946   2.823 -0.4383 -0.5687 -0.2743
 1217SOL    HW1 3787   2.321   1.010   2.770 -1.3198 -1.3162 -0.4226
 1217SOL    HW2 3788   2.346   0.969   2.913 -0.8591 -0.7513 -0.3324
 1218SOL     OW 3789   0.860   0.847   3.595  0.1769 -0.4608 -0.1842
 1218SOL    HW1 3790   0.801   0.836   3.669 -2.3657  2.5340 -1.5045
 1218SOL    HW2 3791   0.945   0.866   3.634 -0.4444 -1.5703  1.8627
 1219SOL     OW 3792   3.523   0.728   2.832 -0.4418 -0.3668  0.8153
 1219SOL    HW1 3793   3.612   0.704   2.857 -0.5675  0.6560  2.3443
 1219SOL    HW2 3794   3.532   0.764   2.743  0.5082 -1.0997  0.5965
 1220SOL     OW 3795   1.801   0.846   0.677 -0.3254  0.1575 -0.2069
 1220SOL    HW1 3796   1.765   0.784   0.613  1.0414 -0.7519 -0.1266
 1220SOL    HW2 3797   1.895   0.829   0.677  0.0246  1.8798  0.2227
 1221SOL     OW 3798   0.064   3.657   2.902  0.0309 -0.2686  0.1196
 1221SOL    HW1 3799  -0.021   3.700   2.915 -0.1888 -1.1325  1.8089
 1221SOL    HW2 3800   0.060   3.578   2.956  2.8630  0.9960  2.4941
 1222SOL     OW 3801   1.288   0.049   1.513 -0.1256  0.3626 -0.2428
 1222SOL    HW1 3802   1.321   0.005   1.434 -1.9153  0.0658 -0.8621
 1222SOL    HW2 3803   1.298  -0.017   1.582  0.7786  0.3688 -0.3485
 1223SOL     OW 3804   3.061   3.082   2.838 -0.1474 -0.1755  0.1176
 1223SOL    HW1 3805   3.140   3.042   2.877 -0.0777  2.1298  2.6923
 1223SOL    HW2 3806   2.992   3.064   2.902 -0.4783  2.1693  0.5010
 1224SOL     OW 3807   3.042   2.438   1.871  0.1415  0.2574  0.2889
 1224SOL    HW1 3808   2.959   2.399   1.842  0.0235 -0.1979  1.2019
 1224SOL    HW2 3809   3.104   2.419   1.800 -0.2322 -0.4891  0.1495
 1225SOL     OW 3810   0.446   3.487   0.783  0.3825 -0.0415 -0.8593
 1225SOL    HW1 3811   0.387   3.563   0.783 -0.4029 -0.6410 -1.8350
 1225SOL    HW2 3812   0.443   3.455   0.873 -0.2193  0.3701 -0.7254
 1226SOL     OW 3813   2.511   2.321   3.529  0.1272 -0.3671 -0.5305
 1226SOL    HW1 3814   2.457   2.300   3.606  0.2627 -0.0711 -0.3513
 1226SOL    HW2 3815   2.515   2.417   3.529  0.1940 -0.3715 -0.8610
 1227SOL     OW 3816   2.640   3.269   0.371 -0.1248 -0.4050 -0.6356
 1227SOL    HW1 3817   2.694   3.332   0.323  0.7970 -0.4152  0.3528
 1227SOL    HW2 3818   2.591   3.323   0.433  0.4613 -0.6080  0.0209
 1228SOL     OW 3819   1.143   2.344   0.484  0.3728  0.2608 -0.2547
 1228SOL    HW1 3820   1.050   2.337   0.508  0.6495  0.4182  0.9283
 1228SOL    HW2 3821   1.161   2.263   0.436  0.1852 -0.8979  1.5259
 1229SOL     OW 3822   0.899   2.973   2.403  0.0273 -0.5658  0.4400
 1229SOL    HW1 3823   0.859   3.029   2.470 -0.4553 -0.5537  0.1429
 1229SOL    HW2 3824   0.827   2.948   2.346  0.7876  1.3260 -1.4549
 1230SOL     OW 3825   2.458   0.498   2.496  0.6406 -0.0996 -0.4409
 1230SOL    HW1 3826   2.531   0.493   2.434  1.0942  1.2201 -0.0464
 1230SOL    HW2 3827   2.381   0.479   2.443  1.1497 -0.2665 -1.1395
 1231SOL     OW 3828   2.032   1.202   3.162 -0.1379  0.1460  0.1331
 1231SOL    HW1 3829   2.002   1.137   3.097  1.7530 -1.5726  0.8799
 1231SOL    HW2 3830   2.085   1.263   3.111 -1.3989  0.7964 -0.4638
 1232SOL     OW 3831   2.185   3.400   2.009  0.3006  0.7911 -0.9602
 1232SOL    HW1 3832   2.273   3.402   1.970  1.5501  0.7975  1.6536
 1232SOL    HW2 3833   2.157   3.309   2.000  0.2335  0.9266 -2.4102
 1233SOL     OW 3834   0.495   2.273   3.653 -0.1131  0.3071  0.2566
 1233SOL    HW1 3835   0.421   2.229   3.694  0.3764 -1.6044 -0.8132
 1233SOL    HW2 3836   0.569   2.256   3.711  0.1791 -0.7694 -0.3996
 1234SOL     OW 3837   2.204   1.385   1.184  0.1967  0.0625 -0.2525
 1234SOL    HW1 3838   2.119   1.344   1.198 -0.1094  0.8493  0.2757
 1234SOL    HW2 3839   2.268   1.316   1.204 -0.3091 -0.3031  0.1385
 1235SOL     OW 3840   3.508   3.661   3.474  0.3830  0.3366  0.2070
 1235SOL    HW1 3841   3.497   3.566   3.473 -0.5904  0.4392 -0.2688
 1235SOL    HW2 3842   3.589   3.675   3.523  0.0499 -0.6954  1.1177
 1236SOL     OW 3843   2.946   0.075   2.222  0.1548  0.0382  0.5054
 1236SOL    HW1 3844   2.920  -0.013   2.248 -2.0458  0.8947  1.4870
 1236SOL    HW2 3845   3.018   0.098   2.282  0.1804 -0.7817  0.7950
 1237SOL     OW 3846   0.143   2.359   3.546  0.2823 -0.4955 -0.2496
 1237SOL    HW1 3847   0.131   2.347   3.640 -1.0078  0.8894 -0.2066
 1237SOL    HW2 3848   0.062   2.399   3.516  0.8213 -0.5602 -1.9010
 1238SOL     OW 3849   0.386   0.958   1.266  0.0673 -0.2634 -0.9357
 1238SOL    HW1 3850   0.404   1.015   1.191  0.7481 -0.4400 -0.9117
 1238SOL    HW2 3851   0.468   0.914   1.283 -0.1864 -0.5122 -0.3190
 1239SOL     OW 3852   0.141   2.843   1.923  0.3175  0.0413 -0.0946
 1239SOL    HW1 3853   0.103   2.841   2.011 -0.1416 -0.6202 -0.2982
 1239SOL    HW2 3854   0.065   2.836   1.865  0.7640 -1.9788 -0.5098
 1240SOL     OW 3855   0.694   3.690   3.212  0.3082  0.5941  0.2074
 1240SOL    HW1 3856   0.658   3.612   3.254  1.4440 -0.5602 -0.8695
 1240SOL    HW2 3857   0.744   3.733   3.281 -0.2005  0.3077  0.7720
 1241SOL     OW 3858   0.226   2.024   2.732 -0.3359  0.5204 -0.0928
 1241SOL    HW1 3859   0.133   2.046   2.738  0.2019  2.4912  2.1931
 1241SOL    HW2 3860   0.261   2.085   2.666 -0.6042 -0.1461 -0.8706
 1242SOL     OW 3861   2.484   1.194   1.410  0.3954 -0.2314  0.2526
 1242SOL    HW1 3862   2.444   1.204   1.496  1.9253  0.3815  0.9242
 1242SOL    HW2 3863   2.571   1.160   1.427  0.0132 -2.1324 -1.2138
 1243SOL     OW 3864   3.140   0.204   2.662  0.4220 -0.6083 -0.7027
 1243SOL    HW1 3865   3.047   0.193   2.640  0.3848 -0.5226 -0.5903
 1243SOL    HW2 3866   3.143   0.288   2.708  0.2402 -1.5249  1.0576
 1244SOL     OW 3867   2.073   3.664   2.566 -0.0769  0.2061 -0.4241
 1244SOL    HW1 3868   2.121   3.732   2.613 -2.4044  2.6274 -1.2399
 1244SOL    HW2 3869   2.025   3.712   2.498 -3.1476 -1.9705 -0.0298
 1245SOL     OW 3870   2.588   3.275   3.729 -0.2062  0.6633 -0.4967
 1245SOL    HW1 3871   2.527   3.312   3.792  0.5099  0.7642  0.1435
 1245SOL    HW2 3872   2.560   3.311   3.645 -0.9947  0.7434 -0.2036
 1246SOL     OW 3873   1.274   0.985   3.215  0.1121 -0.4199  0.5879
 1246SOL    HW1 3874   1.358   0.942   3.202  0.4378  0.2793  0.2923
 1246SOL    HW2 3875   1.235   0.940   3.290  1.5406  0.3917  1.8813
 1247SOL     OW 3876   2.959   3.224   0.841  0.4966 -0.6005  0.0633
 1247SOL    HW1 3877   2.879   3.238   0.891  0.6403 -1.3209  0.5130
 1247SOL    HW2 3878   2.940   3.146   0.788  0.6464 -0.3379 -0.3859
 1248SOL     OW 3879   0.895   0.518   0.914 -0.5360  0.0397  0.6301
 1248SOL    HW1 3880   0.803   0.540   0.901 -1.0760 -1.6790  1.2479
 1248SOL    HW2 3881   0.897   0.475   0.999  0.6318 -1.0690  0.0692
 1249SOL     OW 3882   2.619   1.370   1.708  0.4600 -0.7962  0.9402
 1249SOL    HW1 3883   2.634   1.356   1.801  0.5439 -0.8482  0.9189
 1249SOL    HW2 3884   2.690   1.429   1.681 -0.6815  0.8375  1.3332
 1250SOL     OW 3885   2.317   3.615   1.556  0.1623  0.5005 -0.3119
 1250SOL    HW1 3886   2.320   3.564   1.475 -0.6886  0.4729 -0.3363
 1250SOL    HW2 3887   2.286   3.702   1.529  1.8101  1.1281 -0.3035
 1251SOL     OW 3888   0.476   2.986   0.540  0.7090  0.1243  0.3643
 1251SOL    HW1 3889   0.500   3.076   0.559  0.8554  0.2973 -0.5793
 1251SOL    HW2 3890   0.493   2.976   0.446  0.8400 -0.9281  0.4910
 1252SOL     OW 3891   1.644   3.032   0.274  0.1183 -0.1070  0.0434
 1252SOL    HW1 3892   1.708   2.986   0.328  0.8117 -1.6134 -1.9306
 1252SOL    HW2 3893   1.567   3.041   0.330 -0.6999 -5.1930  0.2230
 1253SOL     OW 3894   2.954   0.292   1.518 -0.2454 -0.3453 -0.1725
 1253SOL    HW1 3895   2.981   0.232   1.587 -0.9986  1.0521  1.4142
 1253SOL    HW2 3896   2.884   0.246   1.472 -1.0554 -0.5762  1.2323
 1254SOL     OW 3897   3.674   1.445   1.630  0.2957  0.4581  0.1744
 1254SOL    HW1 3898   3.662   1.351   1.618 -0.0546  0.4757  0.3844
 1254SOL    HW2 3899   3.750   1.452   1.687  0.1647  0.2938  0.3713
 1255SOL     OW 3900   0.193   3.585   3.412  0.0643  0.3411 -0.3044
 1255SOL    HW1 3901   0.120   3.612   3.468  0.2865  0.9077 -0.2735
 1255SOL    HW2 3902   0.200   3.655   3.347  1.5558  1.1087  0.6214
 1256SOL     OW 3903   2.521   2.824   2.211 -0.2924 -0.1581 -0.2515
 1256SOL    HW1 3904   2.494   2.907   2.252  0.6351 -0.4776  1.0777
 1256SOL    HW2 3905   2.478   2.756   2.263  1.2275 -0.5885  0.5028
 1257SOL     OW 3906   2.885   1.508   2.439 -0.2346  0.3668  0.6039
 1257SOL    HW1 3907   2.845   1.423   2.422 -0.5232  0.5756  0.2027
 1257SOL    HW2 3908   2.904   1.508   2.532  0.4761 -0.4413  0.4665
 1258SOL     OW 3909   1.459   1.125   0.608  0.0593  0.3431  0.6466
 1258SOL    HW1 3910   1.545   1.127   0.649  1.0626  1.8470 -1.3392
 1258SOL    HW2 3911   1.441   1.033   0.593  2.0967  0.0523 -0.3486
 1259SOL     OW 3912   3.153   1.141   3.674 -0.6526  0.4636  0.1963
 1259SOL    HW1 3913   3.063   1.168   3.655 -0.8535  0.3468  0.9726
 1259SOL    HW2 3914   3.150   1.106   3.763 -0.3160 -1.7269 -0.5758
 1260SOL     OW 3915   2.676   1.569   3.694 -0.3318  0.3819 -0.3640
 1260SOL    HW1 3916   2.740   1.559   3.764 -0.8165  4.4243  0.9197
 1260SOL    HW2 3917   2.721   1.620   3.627 -1.5962  1.7062 -0.2504
 1261SOL     OW 3918   0.143   1.379   1.775 -0.3980 -0.4264 -0.1136
 1261SOL    HW1 3919   0.236   1.371   1.756 -0.3238 -1.4068  0.6043
 1261SOL    HW2 3920   0.116   1.291   1.801 -1.0806  0.2703  1.6323
 1262SOL     OW 3921   3.298   1.742   0.805  0.7077 -0.4515 -0.1424
 1262SOL    HW1 3922   3.227   1.800   0.831  1.7746  0.7842  0.1651
 1262SOL    HW2 3923   3.263   1.691   0.732 -0.3441  0.4644 -0.3040
 1263SOL     OW 3924   1.363   3.083   2.674  1.0520 -0.3563 -0.1181
 1263SOL    HW1 3925   1.357   3.098   2.580 -1.0211 -0.7751 -0.0865
 1263SOL    HW2 3926   1.434   3.020   2.683  1.2673 -0.3281 -1.3907
 1264SOL     OW 3927   0.335   1.437   3.372 -0.7290 -0.3057  0.2032
 1264SOL    HW1 3928   0.359   1.529   3.358 -1.7037  0.1792  1.5550
 1264SOL    HW2 3929   0.284   1.414   3.294 -0.9948  0.4991  0.1254
 1265SOL     OW 3930   1.800   1.557   1.548  0.8003  1.0169  0.2520
 1265SOL    HW1 3931   1.736   1.505   1.500  0.3540  0.8252  1.0389
 1265SOL    HW2 3932   1.848   1.606   1.480  1.5406 -0.7421 -0.5577
 1266SOL     OW 3933   1.724   1.968   3.236 -0.1908 -0.5274  0.2983
 1266SOL    HW1 3934   1.748   2.046   3.285 -2.7977  1.8127 -1.8173
 1266SOL    HW2 3935   1.791   1.961   3.168  0.3185 -0.4324  0.7837
 1267SOL     OW 3936   0.655   2.181   3.451 -0.2855  0.3222  0.1310
 1267SOL    HW1 3937   0.636   2.232   3.530  1.7517  1.7388 -0.1869
 1267SOL    HW2 3938   0.743   2.146   3.467  0.5791  1.4598 -1.8613
 1268SOL     OW 3939   0.186   2.082   0.841  0.7600 -0.1744  0.5699
 1268SOL    HW1 3940   0.171   2.106   0.749  0.7942  0.0222  0.6137
 1268SOL    HW2 3941   0.113   2.024   0.863  0.5055  0.1299  0.5441
 1269SOL     OW 3942   0.646   2.893   1.545 -0.3784  0.0453 -0.3075
 1269SOL    HW1 3943   0.665   2.970   1.599 -2.5454  1.0985 -0.9316
 1269SOL    HW2 3944   0.703   2.903   1.469  2.1590 -1.0649  1.3307
 1270SOL     OW 3945   0.871   0.787   1.084  0.3674 -0.5731  0.2781
 1270SOL    HW1 3946   0.838   0.787   0.995  1.5603 -0.1238 -0.1928
 1270SOL    HW2 3947   0.800   0.751   1.137 -0.7319  0.0881 -0.7100
 1271SOL     OW 3948   3.410   3.058   2.824  0.3888  0.0227  0.0342
 1271SOL    HW1 3949   3.340   3.006   2.783 -1.3081  0.9092  1.6377
 1271SOL    HW2 3950   3.454   2.997   2.883 -0.1145 -0.1738  0.2180
 1272SOL     OW 3951   0.607   3.622   2.500  0.2896  0.4573 -0.5036
 1272SOL    HW1 3952   0.675   3.673   2.457 -0.8752  1.8325 -0.7838
 1272SOL    HW2 3953   0.546   3.599   2.429  0.9682 -1.7074 -0.4632
 1273SOL     OW 3954   1.802   1.993   2.079  0.7936 -0.5795  0.2698
 1273SOL    HW1 3955   1.804   2.086   2.056 -2.1134 -0.6026 -0.4322
 1273SOL    HW2 3956   1.786   1.992   2.173  0.3293 -0.3549  0.1954
 1274SOL     OW 3957   1.576   1.089   1.693 -0.3849 -0.0599  0.4764
 1274SOL    HW1 3958   1.632   1.053   1.625  0.3019 -0.9673  1.4725
 1274SOL    HW2 3959   1.514   1.018   1.713 -0.4448  0.1111  0.9247
 1275SOL     OW 3960   3.667   0.490   1.271  0.2749 -0.3224  0.6610
 1275SOL    HW1 3961   3.651   0.560   1.334  0.2907 -0.8490  1.2692
 1275SOL    HW2 3962   3.585   0.483   1.222 -0.6866 -1.5609  2.3143
 1276SOL     OW 3963   2.894   1.902   3.134  0.4661 -0.0752 -0.1519
 1276SOL    HW1 3964   2.972   1.855   3.105  0.5312  0.3466 -0.6771
 1276SOL    HW2 3965   2.894   1.982   3.082 -1.7405 -1.2525 -2.1577
 1277SOL     OW 3966   1.657   0.315   0.902  0.1672 -0.2497 -0.0285
 1277SOL    HW1 3967   1.629   0.393   0.853 -1.3216 -1.4288 -1.1258
 1277SOL    HW2 3968   1.587   0.299   0.965 -1.1805 -2.4851 -1.9439
 1278SOL     OW 3969   0.626   1.575   0.755  0.2315  0.1235  0.3177
 1278SOL    HW1 3970   0.645   1.556   0.664 -1.0636  1.1882 -0.2122
 1278SOL    HW2 3971   0.681   1.650   0.777  1.5657 -0.9735  0.8634
 1279SOL     OW 3972   2.195   3.678   2.024  0.0083 -0.3758 -0.2810
 1279SOL    HW1 3973   2.198   3.583   2.039 -1.1073 -0.3198  0.3952
 1279SOL    HW2 3974   2.202   3.716   2.111  1.6341  0.2238 -0.6432
 1280SOL     OW 3975   1.569   0.821   3.342 -0.6077  0.4182  0.3423
 1280SOL    HW1 3976   1.613   0.785   3.419  0.9670 -4.2904 -2.3537
 1280SOL    HW2 3977   1.503   0.756   3.320 -0.9609  1.5636 -2.3312
 1281SOL     OW 3978   2.426   0.741   2.228  0.4774 -0.2280  0.3484
 1281SOL    HW1 3979   2.495   0.807   2.224  0.3914  0.0741  2.5181
 1281SOL    HW2 3980   2.393   0.734   2.138  0.6728  2.4697  0.0004
 1282SOL     OW 3981   2.462   3.160   1.444  0.4415 -0.1992 -0.7955
 1282SOL    HW1 3982   2.469   3.239   1.497 -3.6797  1.2553 -2.0146
 1282SOL    HW2 3983   2.485   3.089   1.504  2.0170  1.7277  1.0216
 1283SOL     OW 3984   2.663   0.217   3.695 -0.0803  0.4901 -0.3577
 1283SOL    HW1 3985   2.661   0.312   3.704  0.5508  0.5548 -0.8065
 1283SOL    HW2 3986   2.757   0.195   3.691 -0.1750 -0.2740  0.9691
 1284SOL     OW 3987   3.384   0.347   1.286  0.5750  0.0121 -0.0673
 1284SOL    HW1 3988   3.381   0.314   1.375  1.2872 -0.1626 -0.0974
 1284SOL    HW2 3989   3.371   0.270   1.231 -0.2803  0.1820 -0.1196
 1285SOL     OW 3990   3.623   0.351   3.327 -0.5453  1.0082  0.2176
 1285SOL    HW1 3991   3.710   0.335   3.365 -0.6155  2.9927  1.3585
 1285SOL    HW2 3992   3.639   0.361   3.234 -0.1214 -2.2832 -0.1796
 1286SOL     OW 3993   2.220   2.287   3.406  0.1670 -0.4544 -0.1752
 1286SOL    HW1 3994   2.250   2.345   3.336 -0.0758 -0.6024 -0.4057
 1286SOL    HW2 3995   2.220   2.342   3.485 -2.5316  0.6749 -0.8256
 1287SOL     OW 3996   2.056   1.105   2.049  0.0764  0.5470  0.1106
 1287SOL    HW1 3997   2.064   1.195   2.016 -0.5712  0.3288 -0.6696
 1287SOL    HW2 3998   2.017   1.056   1.977  1.8639 -0.7267 -0.0725
 1288SOL     OW 3999   2.000   0.865   0.416  0.2140  0.0547  0.5931
 1288SOL    HW1 4000   1.986   0.777   0.450  0.0380 -0.2155 -0.1463
 1288SOL    HW2 4001   1.916   0.909   0.426 -0.1521 -0.3750 -0.4660
 1289SOL     OW 4002   2.266   1.339   3.010 -1.0049 -0.5036  0.0152
 1289SOL    HW1 4003   2.237   1.387   2.932 -1.4208 -1.6134 -0.5355
 1289SOL    HW2 4004   2.252   1.400   3.083  1.6691  1.4667 -0.9883
 1290SOL     OW 4005   1.056   0.983   0.632 -0.1047 -0.1597 -0.0160
 1290SOL    HW1 4006   1.043   1.045   0.560  0.7377  0.8609  0.6764
 1290SOL    HW2 4007   1.108   1.032   0.696  1.6023 -1.9475  0.0488
 1291SOL     OW 4008   1.651   1.414   1.332  0.2089 -0.0585  0.0447
 1291SOL    HW1 4009   1.658   1.322   1.305  0.6259  0.0979 -0.3882
 1291SOL    HW2 4010   1.708   1.461   1.271  1.0019  0.3314  1.0447
 1292SOL     OW 4011   1.635   1.151   1.274 -0.1046 -0.0117  0.1534
 1292SOL    HW1 4012   1.678   1.115   1.196  2.4452  1.1407  0.9142
 1292SOL    HW2 4013   1.542   1.131   1.261 -0.0072  1.0886 -3.7239
 1293SOL     OW 4014   2.914   3.148   2.127  0.2775  0.0940 -0.2691
 1293SOL    HW1 4015   2.885   3.126   2.216  1.8628 -1.5890 -0.0933
 1293SOL    HW2 4016   2.979   3.218   2.140  1.7506 -1.2977  0.1172
 1294SOL     OW 4017   2.534   0.325   0.343  0.2877 -0.1194 -0.3177
 1294SOL    HW1 4018   2.454   0.357   0.383  1.8204  0.7512  2.2767
 1294SOL    HW2 4019   2.516   0.326   0.249 -2.8246 -0.3492  0.1815
 1295SOL     OW 4020   3.570   1.744   2.813 -0.5407 -0.1006 -0.4924
 1295SOL    HW1 4021   3.521   1.805   2.758  1.9169  1.8284 -0.6686
 1295SOL    HW2 4022   3.599   1.797   2.887  2.1735 -0.8545 -0.9403
 1296SOL     OW 4023   3.598   2.813   0.678  0.4054 -0.2506 -0.2765
 1296SOL    HW1 4024   3.515   2.859   0.692  0.6514  0.0619  0.1663
 1296SOL    HW2 4025   3.661   2.883   0.660  1.0497 -0.2939  1.6355
 1297SOL     OW 4026   2.702   3.663   0.229  0.4268  0.1154  0.2750
 1297SOL    HW1 4027   2.645   3.732   0.263  1.6190  0.2231  2.2155
 1297SOL    HW2 4028   2.741   3.701   0.150  0.5248  1.3935  0.9185
 1298SOL     OW 4029   0.931   3.697   0.525  0.3971 -0.9268  0.0284
 1298SOL    HW1 4030   0.880   3.704   0.605 -0.3049  0.3238 -0.5139
 1298SOL    HW2 4031   0.876   3.647   0.465  1.0271 -2.0903  0.3740
 1299SOL     OW 4032   0.816   2.458   1.117 -0.3034 -0.4047 -0.0115
 1299SOL    HW1 4033   0.906   2.426   1.129  0.6605  1.3916 -1.7802
 1299SOL    HW2 4034   0.772   2.388   1.068 -0.0724 -1.5259  1.3181
 1300SOL     OW 4035   2.558   2.152   3.190 -0.5514 -0.2256 -0.6651
 1300SOL    HW1 4036   2.470   2.148   3.152  0.0511 -0.9472 -2.0788
 1300SOL    HW2 4037   2.614   2.112   3.123  0.5403 -1.8447  1.1219
 1301SOL     OW 4038   0.772   1.767   1.424 -0.7816 -0.1134 -0.2805
 1301SOL    HW1 4039   0.721   1.690   1.449 -0.6659 -0.7303 -1.8174
 1301SOL    HW2 4040   0.737   1.838   1.478 -1.7975 -0.9615  0.2145
 1302SOL     OW 4041   2.242   1.017   1.654 -0.0668 -0.3656  0.1846
 1302SOL    HW1 4042   2.317   1.002   1.710 -0.4940  2.0744  1.5525
 1302SOL    HW2 4043   2.238   1.112   1.643 -2.6042 -0.4350 -0.2715
 1303SOL     OW 4044   1.323   1.348   0.441 -0.1280 -0.0330 -0.9130
 1303SOL    HW1 4045   1.310   1.421   0.502 -1.4624 -2.0231  1.3679
 1303SOL    HW2 4046   1.374   1.285   0.491 -2.3848 -2.3047 -1.3059
 1304SOL     OW 4047   2.952   1.660   3.704  0.1769 -0.1390 -0.3149
 1304SOL    HW1 4048   2.958   1.596   3.633 -0.0133 -0.2401 -0.2396
 1304SOL    HW2 4049   2.903   1.733   3.665  0.2628 -0.1027 -0.3547
 1305SOL     OW 4050   3.466   1.023   0.451 -0.0761  0.0964  0.0802
 1305SOL    HW1 4051   3.444   0.946   0.503 -1.5480 -0.2477 -0.9741
 1305SOL    HW2 4052   3.450   1.097   0.509  2.2394 -0.3611  1.4143
 1306SOL     OW 4053   1.538   2.516   1.669 -0.1041  0.4666  0.2935
 1306SOL    HW1 4054   1.538   2.556   1.582  0.9969  2.1243  0.9991
 1306SOL    HW2 4055   1.459   2.548   1.711  0.0133  0.6964  0.3396
 1307SOL     OW 4056   1.869   2.815   2.465 -0.0787  0.0924 -0.4807
 1307SOL    HW1 4057   1.891   2.890   2.409  1.5900  0.3607  0.4681
 1307SOL    HW2 4058   1.943   2.755   2.455 -0.3650 -0.4358  0.4286
 1308SOL     OW 4059   0.435   1.765   2.604  0.0960 -0.0161 -0.3778
 1308SOL    HW1 4060   0.498   1.822   2.649 -0.1938  0.4396 -0.5481
 1308SOL    HW2 4061   0.429   1.688   2.660 -0.4186  0.6368  0.4827
 1309SOL     OW 4062   2.274   1.880   0.663 -0.9467  0.5576  0.5682
 1309SOL    HW1 4063   2.369   1.884   0.648 -0.1453 -0.5352  4.2420
 1309SOL    HW2 4064   2.236   1.930   0.591  2.1357 -1.5418 -2.8799
 1310SOL     OW 4065   0.637   2.196   2.513 -0.1322  0.0404  0.3158
 1310SOL    HW1 4066   0.602   2.219   2.427 -0.6098 -1.2586  0.1387
 1310SOL    HW2 4067   0.728   2.174   2.497 -0.1732 -0.0257  0.1720
 1311SOL     OW 4068   2.192   0.034   3.306 -0.5387  0.4960 -0.6144
 1311SOL    HW1 4069   2.150  -0.021   3.241 -0.3869  2.3950 -2.4061
 1311SOL    HW2 4070   2.223   0.111   3.258  1.8165  0.8653  1.2382
 1312SOL     OW 4071   1.835   0.285   2.842  0.4254  0.4691  0.0334
 1312SOL    HW1 4072   1.918   0.242   2.821  0.4707 -0.6483  2.1935
 1312SOL    HW2 4073   1.770   0.239   2.790  1.0148  0.6079 -0.8398
 1313SOL     OW 4074   0.361   0.821   2.997  0.0817 -0.6498  0.1370
 1313SOL    HW1 4075   0.431   0.793   2.937 -1.8424 -1.8069 -1.7448
 1313SOL    HW2 4076   0.399   0.814   3.084  1.5849 -3.7182 -0.6325
 1314SOL     OW 4077   3.376   1.108   0.861 -0.1840  0.0622 -0.2233
 1314SOL    HW1 4078   3.441   1.150   0.918  1.3312  0.8088 -2.3689
 1314SOL    HW2 4079   3.302   1.169   0.860  0.0232  0.3337  0.4747
 1315SOL     OW 4080   3.342   1.552   2.589  0.4481 -0.6742 -0.3747
 1315SOL    HW1 4081   3.413   1.594   2.542  1.1029  0.5431  1.5732
 1315SOL    HW2 4082   3.265   1.607   2.572  0.8024  0.0656  0.3932
 1316SOL     OW 4083   3.501   2.438   1.831 -0.2817 -0.1831 -0.3820
 1316SOL    HW1 4084   3.438   2.397   1.773  1.0198 -1.0998 -1.2011
 1316SOL    HW2 4085   3.534   2.513   1.781  0.1590 -0.4213 -0.4500
 1317SOL     OW 4086   1.245   2.486   0.081 -0.2507  0.3695  0.2965
 1317SOL    HW1 4087   1.259   2.549   0.151  1.8232  0.7096 -0.3647
 1317SOL    HW2 4088   1.196   2.535   0.015 -0.3809  0.6802  0.6191
 1318SOL     OW 4089   3.590   2.321   2.704  0.0165  0.0616  0.4502
 1318SOL    HW1 4090   3.611   2.413   2.722 -2.1919  0.4111  1.5792
 1318SOL    HW2 4091   3.499   2.311   2.733  0.1322 -2.4447  0.1481
 1319SOL     OW 4092   1.693   3.177   3.056  0.2918 -0.2236  0.4868
 1319SOL    HW1 4093   1.747   3.243   3.013 -2.8612  0.9435 -2.0462
 1319SOL    HW2 4094   1.726   3.094   3.022  0.0537  0.4921 -1.6367
 1320SOL     OW 4095   3.662   1.740   2.216  0.0553 -0.0694 -0.1258
 1320SOL    HW1 4096   3.715   1.773   2.289 -0.6923 -0.1643  0.4651
 1320SOL    HW2 4097   3.682   1.647   2.213  0.0505 -0.0749 -0.0066
 1321SOL     OW 4098   3.416   0.628   3.110  0.8333  0.4265 -0.2952
 1321SOL    HW1 4099   3.422   0.698   3.176  0.8218  0.4833 -0.3539
 1321SOL    HW2 4100   3.506   0.597   3.101  0.8392  0.4361 -0.2705
 1322SOL     OW 4101   3.512   1.035   2.721  0.3242 -0.1817  0.0336
 1322SOL    HW1 4102   3.447   1.025   2.791 -1.2918  0.3065 -1.3346
 1322SOL    HW2 4103   3.524   1.129   2.713  0.0114 -0.2035 -0.7543
 1323SOL     OW 4104   0.226   1.856   2.469 -0.2514  0.0612  0.0327
 1323SOL    HW1 4105   0.297   1.818   2.520 -0.5577  0.4405  0.7700
 1323SOL    HW2 4106   0.186   1.919   2.529 -2.3891 -1.4595  0.3244
 1324SOL     OW 4107   1.810   0.087   2.113 -0.2431  0.5588 -0.5270
 1324SOL    HW1 4108   1.738   0.099   2.051  0.9573  0.4932 -1.9820
 1324SOL    HW2 4109   1.888   0.112   2.064  0.9284 -0.9854  0.4725
 1325SOL     OW 4110   2.987   0.663   3.610 -0.2847  0.5699  0.0394
 1325SOL    HW1 4111   3.000   0.667   3.704  1.5964 -1.8579 -0.0308
 1325SOL    HW2 4112   2.936   0.741   3.589 -0.8414  1.1081  3.0507
 1326SOL     OW 4113   3.493   2.123   0.375 -0.1174  0.8358  0.1704
 1326SOL    HW1 4114   3.568   2.181   0.383 -0.4700  1.3829 -0.4151
 1326SOL    HW2 4115   3.420   2.181   0.354 -0.4617  0.1863 -0.4894
 1327SOL     OW 4116   2.002   0.693   1.893  0.3734 -0.6801 -0.6879
 1327SOL    HW1 4117   2.023   0.683   1.801  0.9573  1.0858 -0.7877
 1327SOL    HW2 4118   2.002   0.788   1.907 -2.8760 -0.7250  0.3949
 1328SOL     OW 4119   3.121   1.975   0.769 -0.5994  0.3907  0.1841
 1328SOL    HW1 4120   3.090   2.062   0.747 -1.7658 -0.4812 -1.9700
 1328SOL    HW2 4121   3.213   1.975   0.742 -0.6810  0.8685 -0.1012
 1329SOL     OW 4122   0.056   3.632   2.020 -0.4554  0.0313 -0.3472
 1329SOL    HW1 4123   0.108   3.565   2.063  0.7311  1.3967  0.4296
 1329SOL    HW2 4124   0.093   3.639   1.932  1.5048  1.7319  0.5228
 1330SOL     OW 4125   1.896   2.409   2.267  0.3186  0.6360  0.3745
 1330SOL    HW1 4126   1.865   2.376   2.183 -0.9066 -0.3946  1.1824
 1330SOL    HW2 4127   1.862   2.498   2.272 -0.0831  0.5036  0.0114
 1331SOL     OW 4128   3.034   3.222   0.295  0.3996 -0.2665  0.5410
 1331SOL    HW1 4129   3.062   3.286   0.360  0.4547  1.5164 -1.1466
 1331SOL    HW2 4130   3.106   3.159   0.290  1.0824  0.4566  1.0789
 1332SOL     OW 4131   2.191   0.227   0.165 -0.0939 -0.3166 -0.3972
 1332SOL    HW1 4132   2.157   0.282   0.094 -0.1670 -1.4084 -1.2471
 1332SOL    HW2 4133   2.113   0.188   0.204 -0.0819  0.5846  0.5736
 1333SOL     OW 4134   0.880   2.621   2.339 -0.5425  0.1824 -0.3926
 1333SOL    HW1 4135   0.862   2.703   2.292  1.6544  1.8804  1.4875
 1333SOL    HW2 4136   0.879   2.646   2.432 -0.9550 -2.2173  0.3213
 1334SOL     OW 4137   2.057   3.630   1.668  0.0624  0.2792  0.2876
 1334SOL    HW1 4138   2.010   3.548   1.657  0.4484  0.1554 -0.5246
 1334SOL    HW2 4139   2.149   3.605   1.669  0.2118  0.7579 -0.6089
 1335SOL     OW 4140   1.113   1.984   0.824  0.2148 -0.5029  0.0742
 1335SOL    HW1 4141   1.157   1.899   0.831  0.7257 -0.2685 -0.1903
 1335SOL    HW2 4142   1.043   1.980   0.889 -1.1592 -1.9534 -1.4231
 1336SOL     OW 4143   0.404   1.345   1.724 -0.6988  0.2791  0.2886
 1336SOL    HW1 4144   0.475   1.283   1.743 -0.7184 -0.0988 -0.7797
 1336SOL    HW2 4145   0.409   1.358   1.629 -0.8668  1.7164  0.4542
 1337SOL     OW 4146   3.623   1.422   2.305 -0.1893  0.2029 -0.0991
 1337SOL    HW1 4147   3.641   1.470   2.385  1.1444  0.5999 -0.6069
 1337SOL    HW2 4148   3.603   1.333   2.334  0.1481  0.3750  0.6827
 1338SOL     OW 4149   0.200   0.782   1.393  0.1112 -0.3591 -0.5020
 1338SOL    HW1 4150   0.134   0.786   1.324  1.5309  0.3156 -1.8776
 1338SOL    HW2 4151   0.262   0.851   1.371  2.0456 -1.8789 -0.0778
 1339SOL     OW 4152   1.297   0.622   1.234 -0.1438  0.1015  0.7501
 1339SOL    HW1 4153   1.243   0.701   1.235 -0.7547 -0.1167 -2.8956
 1339SOL    HW2 4154   1.344   0.626   1.150  1.4459 -2.3776  1.4160
 1340SOL     OW 4155   2.894   0.337   0.739  0.2105  0.0838 -0.5673
 1340SOL    HW1 4156   2.907   0.251   0.779 -0.9646  0.6986  1.2461
 1340SOL    HW2 4157   2.969   0.347   0.679  0.1707 -2.3332 -1.1382
 1341SOL     OW 4158   2.490   1.505   2.842  0.5154  0.0797  0.0782
 1341SOL    HW1 4159   2.441   1.466   2.769  0.7584 -2.7576  1.3165
 1341SOL    HW2 4160   2.425   1.556   2.890 -0.5947 -1.2535  0.0579
 1342SOL     OW 4161   1.713   0.648   1.936 -0.8312 -0.6701 -0.3041
 1342SOL    HW1 4162   1.802   0.680   1.917 -0.7067  1.1256  2.7107
 1342SOL    HW2 4163   1.724   0.589   2.011 -2.1954 -0.1545  0.3302
 1343SOL     OW 4164   1.032   1.255   1.039 -0.2731  0.1592  0.1382
 1343SOL    HW1 4165   0.986   1.260   1.123 -0.7136  3.1767 -0.1685
 1343SOL    HW2 4166   0.986   1.317   0.983  2.6258  1.4600 -0.9737
 1344SOL     OW 4167   2.493   0.115   1.503 -0.0463  0.2050 -0.0386
 1344SOL    HW1 4168   2.546   0.067   1.567 -0.6424 -0.1546  0.1985
 1344SOL    HW2 4169   2.554   0.176   1.461  0.7238 -0.7108 -0.2932
 1345SOL     OW 4170   1.173   2.979   3.044  0.1923 -0.1862  0.0302
 1345SOL    HW1 4171   1.158   2.973   3.138 -0.6567 -0.8291 -0.1318
 1345SOL    HW2 4172   1.268   2.981   3.035  0.3589 -2.3105  0.8136
 1346SOL     OW 4173   0.931   2.140   1.004  0.0377 -0.1674 -0.6869
 1346SOL    HW1 4174   0.977   2.217   1.039 -0.0685 -0.6168  0.4974
 1346SOL    HW2 4175   0.840   2.168   0.997 -1.4404 -1.7556  5.6120
 1347SOL     OW 4176   2.982   2.570   2.238 -0.2819 -0.1537 -0.2260
 1347SOL    HW1 4177   2.956   2.662   2.233  0.8250  0.1789  0.0158
 1347SOL    HW2 4178   2.899   2.522   2.238 -0.8544  0.8034 -1.0480
 1348SOL     OW 4179   0.185   2.369   2.772  0.6058 -0.3763 -0.3586
 1348SOL    HW1 4180   0.137   2.410   2.701 -0.3797 -1.1973 -0.1970
 1348SOL    HW2 4181   0.269   2.344   2.733  0.6770  0.5355 -0.8085
 1349SOL     OW 4182   2.942   2.628   2.936  0.4589  0.2286  0.1188
 1349SOL    HW1 4183   3.023   2.585   2.962 -0.7466 -1.0422  2.0286
 1349SOL    HW2 4184   2.964   2.721   2.931  2.5738 -0.3139 -1.8112
 1350SOL     OW 4185   2.582   2.574   3.473 -0.0606  0.6883  0.4288
 1350SOL    HW1 4186   2.500   2.622   3.461 -0.1484  0.4154 -0.0902
 1350SOL    HW2 4187   2.650   2.642   3.470 -0.2599  0.9069  0.7905
 1351SOL     OW 4188   1.828   1.247   2.643 -0.1759 -0.1420 -0.3591
 1351SOL    HW1 4189   1.896   1.277   2.703  0.2459  1.1346 -1.4057
 1351SOL    HW2 4190   1.874   1.190   2.581 -0.2074  0.1124 -0.6185
 1352SOL     OW 4191   0.051   2.974   0.923  0.2696  0.0100  0.5251
 1352SOL    HW1 4192  -0.035   2.936   0.901 -1.5052  3.3186  1.1403
 1352SOL    HW2 4193   0.077   2.930   1.004 -1.7058  0.0730  1.2507
 1353SOL     OW 4194   1.259   0.658   0.178 -0.3567  0.2492  0.1151
 1353SOL    HW1 4195   1.169   0.645   0.148 -0.2765  0.7370 -0.3366
 1353SOL    HW2 4196   1.274   0.586   0.240 -0.8519 -0.1870 -0.2658
 1354SOL     OW 4197   1.413   2.343   2.040 -0.1656 -0.4851  0.0821
 1354SOL    HW1 4198   1.394   2.253   2.065  0.9113 -0.2345  2.0216
 1354SOL    HW2 4199   1.328   2.380   2.016 -0.9332 -1.4636  1.2051
 1355SOL     OW 4200   2.056   2.095   3.263  0.5974  0.4820 -0.3368
 1355SOL    HW1 4201   2.112   2.154   3.315 -0.1573  1.5745 -0.7305
 1355SOL    HW2 4202   2.018   2.151   3.196  0.6909 -0.6926 -1.4001
 1356SOL     OW 4203   0.446   1.731   1.032 -0.2410 -0.6765 -0.1425
 1356SOL    HW1 4204   0.524   1.786   1.024 -0.1442 -0.7647  0.1590
 1356SOL    HW2 4205   0.374   1.792   1.041 -0.1409 -0.5976  0.1293
 1357SOL     OW 4206   2.760   2.028   1.613 -0.0724 -0.4581 -0.0184
 1357SOL    HW1 4207   2.751   2.111   1.660 -2.4956 -0.2467 -0.7312
 1357SOL    HW2 4208   2.671   1.997   1.601  0.7927 -3.4108  0.5393
 1358SOL     OW 4209   1.756   2.231   3.333 -0.9329  0.6244  0.5445
 1358SOL    HW1 4210   1.821   2.270   3.275 -0.0180 -0.0864  1.0516
 1358SOL    HW2 4211   1.672   2.258   3.297 -0.4049  0.1627 -1.1462
 1359SOL     OW 4212   3.401   1.619   1.129 -0.2505  0.4799  0.1927
 1359SOL    HW1 4213   3.333   1.555   1.145 -1.6571  1.9087  0.1865
 1359SOL    HW2 4214   3.375   1.695   1.181 -0.2559  2.0939 -2.0356
 1360SOL     OW 4215   2.170   1.028   0.568 -0.3152 -0.2050  0.4005
 1360SOL    HW1 4216   2.162   0.961   0.499  1.1215 -2.5568  2.3492
 1360SOL    HW2 4217   2.086   1.073   0.567 -0.8656 -1.1024 -1.9072
 1361SOL     OW 4218   2.851   3.229   1.598 -0.0134 -0.3836  0.0389
 1361SOL    HW1 4219   2.790   3.249   1.527  1.1361 -0.0402 -0.8991
 1361SOL    HW2 4220   2.816   3.275   1.674 -0.6822  0.1675 -0.5909
 1362SOL     OW 4221   1.557   2.190   2.622 -0.0857 -0.0889  0.5331
 1362SOL    HW1 4222   1.522   2.256   2.561 -0.0780  0.0499  0.6796
 1362SOL    HW2 4223   1.652   2.203   2.619 -0.0610 -0.3102  0.3139
 1363SOL     OW 4224   2.531   3.339   3.486 -0.1298  0.1615  0.2896
 1363SOL    HW1 4225   2.443   3.301   3.488  0.3788 -1.0160  1.7980
 1363SOL    HW2 4226   2.524   3.413   3.425 -2.1027 -0.0390  0.2219
 1364SOL     OW 4227   0.733   3.089   1.704  0.1107 -0.1012 -0.2599
 1364SOL    HW1 4228   0.705   3.178   1.680  0.1771  0.0479  0.2067
 1364SOL    HW2 4229   0.815   3.102   1.752  0.0240 -0.4027 -0.0313
 1365SOL     OW 4230   2.387   1.615   1.257  0.3413 -0.0716  0.0891
 1365SOL    HW1 4231   2.352   1.642   1.172  2.4140  0.0426 -0.7906
 1365SOL    HW2 4232   2.437   1.536   1.237 -0.0090 -0.6544  1.4248
 1366SOL     OW 4233   0.829   2.142   1.963  0.1040  0.4693  0.5920
 1366SOL    HW1 4234   0.858   2.088   1.889  0.9302 -1.4355  2.1999
 1366SOL    HW2 4235   0.742   2.173   1.938 -0.0302 -0.8976 -0.7741
 1367SOL     OW 4236   3.276   3.531   1.036  0.6774 -0.8980  0.2541
 1367SOL    HW1 4237   3.264   3.455   1.093 -0.2580 -1.2134 -0.3242
 1367SOL    HW2 4238   3.213   3.517   0.965  1.4443 -0.2543 -0.5751
 1368SOL     OW 4239   2.224   0.051   0.515 -0.4199 -0.3830  0.6024
 1368SOL    HW1 4240   2.283   0.005   0.574  0.5695  0.2535  0.1242
 1368SOL    HW2 4241   2.137   0.035   0.551 -0.2266 -3.3814 -0.0125
 1369SOL     OW 4242   3.343   2.737   0.241 -0.2889  0.4045  0.8080
 1369SOL    HW1 4243   3.302   2.680   0.177 -0.3247  1.6326 -0.2978
 1369SOL    HW2 4244   3.426   2.694   0.262  0.4376  0.7280 -1.2309
 1370SOL     OW 4245   1.313   0.309   2.147 -0.4575  0.0401 -0.3238
 1370SOL    HW1 4246   1.379   0.242   2.166 -0.0306  0.8865  1.4016
 1370SOL    HW2 4247   1.339   0.344   2.062 -0.5006 -1.7097 -1.1174
 1371SOL     OW 4248   2.559   0.534   1.667 -0.1468 -0.3207  0.4970
 1371SOL    HW1 4249   2.488   0.598   1.657  1.4571  1.6151  0.7579
 1371SOL    HW2 4250   2.529   0.457   1.619 -1.8882  0.8764 -0.4492
 1372SOL     OW 4251   1.500   1.437   3.634 -0.2444  0.2829  0.2299
 1372SOL    HW1 4252   1.455   1.404   3.712  2.1998  0.0305  1.6496
 1372SOL    HW2 4253   1.489   1.368   3.569  1.7210 -1.8576  1.9781
 1373SOL     OW 4254   1.107   0.307   3.097 -0.0896 -0.5190 -0.2056
 1373SOL    HW1 4255   1.150   0.257   3.028  0.1655 -1.0495  0.3224
 1373SOL    HW2 4256   1.077   0.387   3.054 -0.1834 -0.9618 -0.9854
 1374SOL     OW 4257   2.278   1.086   3.047  0.1627  0.2620 -0.2324
 1374SOL    HW1 4258   2.280   1.181   3.031  0.3927  0.7081  2.1219
 1374SOL    HW2 4259   2.272   1.078   3.142 -3.3881 -2.0665 -0.4556
 1375SOL     OW 4260   2.730   1.831   0.189  0.2281  0.7743 -0.6452
 1375SOL    HW1 4261   2.726   1.860   0.098  0.0817  2.2188 -0.2125
 1375SOL    HW2 4262   2.748   1.911   0.238 -1.3364  0.3302  0.7439
 1376SOL     OW 4263   3.581   2.436   0.606  0.3079  0.3269  0.3260
 1376SOL    HW1 4264   3.534   2.454   0.688  0.1318 -1.6670  0.7161
 1376SOL    HW2 4265   3.669   2.469   0.621 -0.1083  1.2498  0.7884
 1377SOL     OW 4266   1.168   1.455   0.649  0.6191 -0.5589  0.3631
 1377SOL    HW1 4267   1.128   1.522   0.704  2.3941  0.1084  0.9064
 1377SOL    HW2 4268   1.198   1.388   0.710 -1.2037 -1.9456 -0.1811
 1378SOL     OW 4269   2.688   0.313   1.410 -0.6801 -0.2668  0.5387
 1378SOL    HW1 4270   2.719   0.345   1.326  2.4660 -2.1222  0.8223
 1378SOL    HW2 4271   2.653   0.390   1.455  1.7503  1.7040 -0.7317
 1379SOL     OW 4272   1.985   1.275   3.428  0.1735  0.0101  0.6302
 1379SOL    HW1 4273   1.917   1.249   3.491 -0.6346  0.5764  0.0135
 1379SOL    HW2 4274   1.960   1.231   3.347  0.7107  0.0035  0.4631
 1380SOL     OW 4275   1.991   1.794   2.576  0.2688  0.1610 -0.2227
 1380SOL    HW1 4276   1.986   1.889   2.580 -0.4703  0.2489 -2.2248
 1380SOL    HW2 4277   1.992   1.774   2.483  3.3860 -1.6880  0.0550
 1381SOL     OW 4278   0.920   3.202   1.093  0.6030 -0.1240 -0.3947
 1381SOL    HW1 4279   0.978   3.257   1.145 -0.0808 -1.2834  1.7353
 1381SOL    HW2 4280   0.868   3.264   1.041  2.4097  0.9973 -0.9417
 1382SOL     OW 4281   1.892   1.369   2.187 -0.1559 -0.0608  0.5652
 1382SOL    HW1 4282   1.859   1.354   2.099  0.2342  1.7641  0.0575
 1382SOL    HW2 4283   1.852   1.453   2.213 -1.2559 -1.1459  2.6385
 1383SOL     OW 4284   2.736   0.507   3.634  0.2170 -0.6120  0.3813
 1383SOL    HW1 4285   2.807   0.553   3.678 -0.4127 -1.5105  2.4172
 1383SOL    HW2 4286   2.774   0.481   3.550  2.2409 -0.9006  1.3297
 1384SOL     OW 4287   0.882   3.396   1.884 -0.1101  0.4596 -0.1554
 1384SOL    HW1 4288   0.900   3.476   1.932  0.6510  0.2214 -0.0364
 1384SOL    HW2 4289   0.812   3.420   1.823  0.3136  1.2880 -0.3251
 1385SOL     OW 4290   2.416   0.382   0.073  0.3874 -0.5460  0.2247
 1385SOL    HW1 4291   2.376   0.409  -0.010 -1.5006 -2.6119  0.3670
 1385SOL    HW2 4292   2.436   0.289   0.061 -1.0839 -1.2295  2.4254
 1386SOL     OW 4293   0.392   2.346   3.393  0.3231 -0.3598 -0.2984
 1386SOL    HW1 4294   0.456   2.294   3.441 -1.2742 -1.5212  0.6658
 1386SOL    HW2 4295   0.312   2.342   3.447 -0.2435  2.0697 -0.8047
 1387SOL     OW 4296   0.030   0.898   2.659  0.1728 -0.2904 -0.2549
 1387SOL    HW1 4297  -0.045   0.920   2.714  1.3769  0.7841  1.0252
 1387SOL    HW2 4298   0.045   0.975   2.604  0.6982 -0.2613 -0.0807
 1388SOL     OW 4299   0.515   1.211   1.315  0.1504  0.1844  0.0502
 1388SOL    HW1 4300   0.452   1.140   1.328 -0.7095  1.0588  0.8197
 1388SOL    HW2 4301   0.523   1.219   1.219  0.7093 -1.3120 -0.0463
 1389SOL     OW 4302   1.976   1.254   0.667 -0.1611 -0.2253 -0.3320
 1389SOL    HW1 4303   2.065   1.283   0.687  1.0928 -3.2696 -0.9292
 1389SOL    HW2 4304   1.962   1.282   0.576 -0.7970  2.2128  0.4260
 1390SOL     OW 4305   2.852   2.670   0.303  0.1779  0.3269  0.5867
 1390SOL    HW1 4306   2.908   2.693   0.229  0.0076  2.1641  0.9879
 1390SOL    HW2 4307   2.763   2.685   0.272 -0.0306 -1.0611  0.4633
 1391SOL     OW 4308   1.723   2.132   2.932  0.0938 -0.2361  0.7904
 1391SOL    HW1 4309   1.779   2.090   2.867 -0.2265  0.3506  0.1269
 1391SOL    HW2 4310   1.663   2.063   2.960 -0.0821 -0.3730  0.0997
 1392SOL     OW 4311   1.435   3.192   3.240  1.0018 -0.0125  0.3797
 1392SOL    HW1 4312   1.521   3.154   3.225 -0.1930 -2.7576 -0.2071
 1392SOL    HW2 4313   1.384   3.122   3.281 -1.2122  1.1697 -0.1521
 1393SOL     OW 4314   3.460   3.306   1.910  0.1556  0.0011  0.3752
 1393SOL    HW1 4315   3.396   3.375   1.890  0.2270 -0.4597 -1.5899
 1393SOL    HW2 4316   3.484   3.322   2.002 -0.3886  2.1200  0.2050
 1394SOL     OW 4317   1.856   0.845   1.330  0.4453 -0.7003 -0.0313
 1394SOL    HW1 4318   1.793   0.791   1.281  1.3154 -0.4717 -1.4549
 1394SOL    HW2 4319   1.937   0.838   1.280  0.1353  3.5155 -1.5379
 1395SOL     OW 4320   0.252   0.537   0.750  0.1790 -0.1006 -0.4837
 1395SOL    HW1 4321   0.199   0.502   0.822  0.1873 -0.2365 -0.5425
 1395SOL    HW2 4322   0.194   0.535   0.674 -0.0512  0.7001 -0.3318
 1396SOL     OW 4323   0.865   2.528   2.812  0.6683 -0.1117  0.2650
 1396SOL    HW1 4324   0.898   2.472   2.882  2.0021  1.0143  0.5843
 1396SOL    HW2 4325   0.809   2.592   2.858 -0.7087 -1.0248 -0.0751
 1397SOL     OW 4326   0.075   1.154   2.964  0.3993 -0.2731 -0.8441
 1397SOL    HW1 4327  -0.015   1.166   2.993  1.0087 -0.0077  1.1038
 1397SOL    HW2 4328   0.126   1.210   3.023  2.1410 -2.9266  0.3514
 1398SOL     OW 4329   3.028   2.179   1.451 -0.4852 -0.1701 -0.6067
 1398SOL    HW1 4330   2.972   2.114   1.494  0.0127 -0.9179 -1.0748
 1398SOL    HW2 4331   2.971   2.220   1.386 -0.8641  0.0374 -0.1598
 1399SOL     OW 4332   2.627   3.573   1.885  0.2141 -0.0252 -0.9373
 1399SOL    HW1 4333   2.653   3.631   1.956  1.6666 -0.4035 -1.1337
 1399SOL    HW2 4334   2.638   3.625   1.805  2.7429 -0.8877 -1.2311
 1400SOL     OW 4335   0.788   2.143   3.144  0.3177 -0.6627 -0.1808
 1400SOL    HW1 4336   0.748   2.220   3.184 -0.8371 -0.8421 -0.9432
 1400SOL    HW2 4337   0.733   2.070   3.172  0.6702 -1.0502 -0.4779
 1401SOL     OW 4338   2.142   2.890   2.166 -0.0627  0.0466  0.1146
 1401SOL    HW1 4339   2.199   2.835   2.112 -0.6096 -0.2840 -0.1333
 1401SOL    HW2 4340   2.060   2.840   2.173  0.0303  0.0526  1.3151
 1402SOL     OW 4341   1.803   0.552   2.856  0.1010  0.1571  0.6550
 1402SOL    HW1 4342   1.790   0.460   2.877 -3.1765 -0.0306 -1.4276
 1402SOL    HW2 4343   1.847   0.551   2.771 -0.2716  0.4545  0.4511
 1403SOL     OW 4344   0.043   0.675   2.512 -0.3723  0.7896 -0.1706
 1403SOL    HW1 4345   0.013   0.738   2.578  0.8654 -0.4045  1.6576
 1403SOL    HW2 4346   0.138   0.686   2.511 -0.1727 -0.6650 -0.1491
 1404SOL     OW 4347   0.268   1.267   0.125  0.2016  0.0141 -0.1039
 1404SOL    HW1 4348   0.205   1.195   0.134 -1.0692  0.8900 -1.5731
 1404SOL    HW2 4349   0.349   1.224   0.098 -0.2680 -0.9683  0.0012
 1405SOL     OW 4350   3.139   1.524   2.088  0.8687  0.2931 -0.1413
 1405SOL    HW1 4351   3.233   1.519   2.072  0.7029 -0.5042 -0.9152
 1405SOL    HW2 4352   3.130   1.498   2.180  1.2580 -1.2574 -0.5219
 1406SOL     OW 4353   3.082   2.417   1.599  0.4302  0.0514 -0.4009
 1406SOL    HW1 4354   3.017   2.485   1.614  0.8298  0.1532  0.9564
 1406SOL    HW2 4355   3.044   2.363   1.530 -0.2148  1.2165 -0.9858
 1407SOL     OW 4356   0.956   2.743   2.980  0.4369  0.2643  0.4515
 1407SOL    HW1 4357   0.876   2.789   2.955 -0.1013 -0.9188 -0.0385
 1407SOL    HW2 4358   0.939   2.712   3.069 -1.0655 -2.9154 -0.7943
 1408SOL     OW 4359   3.729   0.649   0.215  0.2370  0.2141 -0.5614
 1408SOL    HW1 4360   3.686   0.733   0.205 -1.2877 -0.5800 -0.9149
 1408SOL    HW2 4361   3.679   0.603   0.282  1.6683 -0.0491  0.3727
 1409SOL     OW 4362   1.185   3.518   3.082 -0.7337 -0.3802 -0.0305
 1409SOL    HW1 4363   1.134   3.593   3.052  1.2542  0.5533 -1.2904
 1409SOL    HW2 4364   1.236   3.552   3.156 -0.6448 -0.8134  0.1110
 1410SOL     OW 4365   2.665   2.551   0.120 -0.2506 -0.0088  0.3562
 1410SOL    HW1 4366   2.618   2.615   0.173  1.4445  1.8372 -0.2174
 1410SOL    HW2 4367   2.645   2.576   0.030 -1.1066 -1.5528  0.0835
 1411SOL     OW 4368   1.979   1.209   0.174 -0.0629  0.9922 -0.0882
 1411SOL    HW1 4369   2.057   1.220   0.228 -1.8500  0.3970  2.8895
 1411SOL    HW2 4370   1.941   1.297   0.168 -1.3599  0.6937  2.3083
 1412SOL     OW 4371   0.291   2.451   0.366 -0.1588  0.3708 -0.3359
 1412SOL    HW1 4372   0.223   2.494   0.314  1.5829  0.7915 -2.4243
 1412SOL    HW2 4373   0.294   2.361   0.332 -1.3162 -0.4264  1.5055
 1413SOL     OW 4374   2.555   1.037   0.147  0.6014 -0.1436  0.3521
 1413SOL    HW1 4375   2.483   0.974   0.142  0.1692  0.3717 -0.3298
 1413SOL    HW2 4376   2.633   0.984   0.157  0.0206 -0.6676  2.6943
 1414SOL     OW 4377   1.504   0.481   2.758  0.3902 -0.3909 -0.0130
 1414SOL    HW1 4378   1.573   0.470   2.693  0.6905  2.3205 -0.2389
 1414SOL    HW2 4379   1.433   0.523   2.711  0.0455  0.2845  1.0721
 1415SOL     OW 4380   3.570   3.367   3.487 -0.3819 -0.7049 -0.0808
 1415SOL    HW1 4381   3.563   3.306   3.559 -0.5541  1.4328  1.8369
 1415SOL    HW2 4382   3.658   3.353   3.452  0.4906 -0.4737  1.8708
 1416SOL     OW 4383   0.545   2.585   0.578  0.0295 -0.7392 -0.5304
 1416SOL    HW1 4384   0.515   2.595   0.668 -0.7839 -0.3068 -0.8396
 1416SOL    HW2 4385   0.465   2.584   0.526  0.5379  0.3582 -1.3726
 1417SOL     OW 4386   3.410   1.045   1.975  0.7349 -0.2069 -0.0254
 1417SOL    HW1 4387   3.453   1.074   2.056  0.0155 -0.7814  0.5825
 1417SOL    HW2 4388   3.433   1.111   1.910 -1.2653  2.0706  1.4185
 1418SOL     OW 4389   0.857   0.641   0.270  0.3327  0.0355 -0.3797
 1418SOL    HW1 4390   0.812   0.725   0.279  0.5022  0.0055  0.8420
 1418SOL    HW2 4391   0.796   0.576   0.304  0.9873 -0.0917  0.5762
 1419SOL     OW 4392   3.723   2.268   1.043  0.4706 -0.0667 -0.1774
 1419SOL    HW1 4393   3.724   2.189   0.988 -1.2820 -0.5330  0.4068
 1419SOL    HW2 4394   3.715   2.235   1.132 -1.6038  0.7408 -0.0105
 1420SOL     OW 4395  -0.004   2.290   0.206  0.3573  0.5158  0.2731
 1420SOL    HW1 4396  -0.002   2.196   0.221 -0.9415  0.1986 -1.1765
 1420SOL    HW2 4397   0.055   2.304   0.132  2.1092  1.1716  1.7324
 1421SOL     OW 4398   1.113   0.707   3.598  0.1600 -0.1221 -0.0845
 1421SOL    HW1 4399   1.076   0.668   3.678  1.5101 -1.7355 -0.1882
 1421SOL    HW2 4400   1.081   0.651   3.527  2.1443 -1.1594 -0.2359
 1422SOL     OW 4401   2.819   1.272   1.962 -0.5720 -0.1491  0.1401
 1422SOL    HW1 4402   2.840   1.364   1.945  0.0891 -0.4895 -0.9754
 1422SOL    HW2 4403   2.900   1.224   1.944 -0.4140 -0.8095  2.3159
 1423SOL     OW 4404   3.636   1.968   2.510 -0.4088 -0.2490 -0.1441
 1423SOL    HW1 4405   3.590   2.051   2.500  1.6307  0.9280 -0.3328
 1423SOL    HW2 4406   3.691   1.980   2.588  0.8830 -0.9167 -0.9064
 1424SOL     OW 4407   1.061   2.401   1.713  0.2896 -0.2464  0.5372
 1424SOL    HW1 4408   1.048   2.488   1.752  3.4947 -0.0696  1.5882
 1424SOL    HW2 4409   0.977   2.379   1.674 -0.8723  3.0020  0.8714
 1425SOL     OW 4410   1.419   1.972   1.064  0.3807  0.1384  0.1978
 1425SOL    HW1 4411   1.373   1.923   0.996 -1.4826 -0.0327  1.5013
 1425SOL    HW2 4412   1.355   2.036   1.095  1.8335  1.5225  0.4706
 1426SOL     OW 4413   3.603   0.028   1.262 -0.2681  0.4169  0.5390
 1426SOL    HW1 4414   3.568   0.062   1.344 -0.1403  0.2326  0.6702
 1426SOL    HW2 4415   3.535  -0.031   1.230  0.2260 -0.4928  1.1539
 1427SOL     OW 4416   1.421   1.971   2.716 -0.4537  0.1334  0.0078
 1427SOL    HW1 4417   1.450   1.965   2.807 -0.9990  0.1229  0.1811
 1427SOL    HW2 4418   1.434   2.063   2.693 -0.9019  0.2695  0.2940
 1428SOL     OW 4419   0.767   0.796   2.449  0.1248 -0.3435 -0.2625
 1428SOL    HW1 4420   0.692   0.736   2.451 -1.3858  1.0158 -4.6456
 1428SOL    HW2 4421   0.730   0.880   2.476  0.5159  0.0012 -0.8071
 1429SOL     OW 4422   2.339   2.127   3.023  0.3306 -0.1812 -0.1399
 1429SOL    HW1 4423   2.357   2.034   3.038 -0.1256 -0.0064  1.7390
 1429SOL    HW2 4424   2.256   2.128   2.976 -0.3960 -0.7140  1.0894
 1430SOL     OW 4425   3.157   3.683   1.550  0.1394  0.5509 -0.4368
 1430SOL    HW1 4426   3.107   3.609   1.515 -2.4049  1.7575  0.3262
 1430SOL    HW2 4427   3.107   3.711   1.627  0.6786  3.3191 -0.9687
 1431SOL     OW 4428   0.368   2.751   3.275 -0.0335 -0.8300 -0.4555
 1431SOL    HW1 4429   0.443   2.696   3.300 -0.8057 -2.2332 -1.0984
 1431SOL    HW2 4430   0.406   2.836   3.254  1.5632 -1.8265 -1.8899
 1432SOL     OW 4431   2.140   2.363   2.556 -0.5214  0.4806  0.3602
 1432SOL    HW1 4432   2.203   2.415   2.607  0.2403  1.5253 -1.5435
 1432SOL    HW2 4433   2.111   2.295   2.617  2.7593 -0.3279  1.2309
 1433SOL     OW 4434   2.356   1.285   1.640 -0.7037  0.2247  0.5724
 1433SOL    HW1 4435   2.443   1.322   1.655 -0.1036 -0.6971 -0.4737
 1433SOL    HW2 4436   2.310   1.352   1.590  0.2310 -0.1834 -0.9297
 1434SOL     OW 4437   1.595   2.310   3.124 -0.1901 -0.3816 -0.1538
 1434SOL    HW1 4438   1.667   2.273   3.074  1.4689  1.0025  1.0758
 1434SOL    HW2 4439   1.531   2.339   3.059  1.3659  0.3262 -1.4261
 1435SOL     OW 4440   2.051   2.297   1.534 -0.5512 -0.1387 -0.1959
 1435SOL    HW1 4441   2.078   2.355   1.463  0.2400 -0.9840 -0.5957
 1435SOL    HW2 4442   2.087   2.338   1.613 -0.6343  0.3056 -0.3851
 1436SOL     OW 4443   1.058   0.562   1.400 -0.3702  0.3767  0.0219
 1436SOL    HW1 4444   1.080   0.480   1.355  1.9021 -1.3118  3.6802
 1436SOL    HW2 4445   1.141   0.591   1.439 -2.2879  0.2484  4.9179
 1437SOL     OW 4446   0.799   1.118  -0.010  0.2081  0.4949  0.5153
 1437SOL    HW1 4447   0.888   1.116  -0.044  0.1771  0.1833  0.4441
 1437SOL    HW2 4448   0.799   1.055   0.062 -0.2685 -0.4947 -0.3077
 1438SOL     OW 4449   2.413   1.089   0.696  0.1649  0.0518 -0.0992
 1438SOL    HW1 4450   2.425   1.028   0.769  1.1251 -1.2315 -1.2836
 1438SOL    HW2 4451   2.335   1.058   0.651 -0.8861  1.3124  0.7871
 1439SOL     OW 4452   3.198   3.488   3.284 -0.1157  0.1780 -0.0860
 1439SOL    HW1 4453   3.203   3.481   3.188  2.0187  0.1823 -0.0196
 1439SOL    HW2 4454   3.104   3.481   3.303 -0.3946 -3.9565 -1.8601
 1440SOL     OW 4455   0.397   2.486   1.237 -0.5424 -0.2722  0.4374
 1440SOL    HW1 4456   0.385   2.508   1.144 -1.5404 -1.4742  0.2527
 1440SOL    HW2 4457   0.324   2.529   1.281  0.3784  0.9570  0.7962
 1441SOL     OW 4458   0.324   2.562   2.976 -0.0791 -0.3940 -0.5003
 1441SOL    HW1 4459   0.419   2.574   2.971 -0.2263  0.7599 -0.8487
 1441SOL    HW2 4460   0.311   2.468   2.966  1.0039 -0.5281 -0.7858
 1442SOL     OW 4461   3.516   0.432   3.690 -0.1544  0.2262  0.1311
 1442SOL    HW1 4462   3.484   0.372   3.622  0.3767 -1.3625  1.2231
 1442SOL    HW2 4463   3.611   0.422   3.687  0.0545  2.1724 -0.6545
 1443SOL     OW 4464   0.203   2.807   2.996 -0.5310  0.3500  0.2797
 1443SOL    HW1 4465   0.271   2.740   2.998 -1.7623 -1.0512 -1.1979
 1443SOL    HW2 4466   0.202   2.844   3.084  0.7702 -0.9928  0.8976
 1444SOL     OW 4467   2.233   0.573   0.499 -0.0417  0.5091  0.0360
 1444SOL    HW1 4468   2.316   0.619   0.484 -1.1922  1.9456 -2.8092
 1444SOL    HW2 4469   2.252   0.482   0.476  0.5566  1.0181 -1.6646
 1445SOL     OW 4470   2.963   2.794   0.076 -0.2651  0.3559 -0.4160
 1445SOL    HW1 4471   2.904   2.862   0.043  0.7371  1.9316  0.9003
 1445SOL    HW2 4472   3.051   2.827   0.060  0.2627  0.2804  1.8832
 1446SOL     OW 4473   1.733   2.945   1.686  0.2853 -0.5223  0.0708
 1446SOL    HW1 4474   1.777   2.955   1.771  2.4698  0.8112 -1.1288
 1446SOL    HW2 4475   1.793   2.889   1.635 -0.5372 -0.5288 -0.9015
 1447SOL     OW 4476   3.157   0.243   0.972  0.4355  0.4030  0.1746
 1447SOL    HW1 4477   3.218   0.315   0.955 -0.3075  0.8829 -0.5604
 1447SOL    HW2 4478   3.163   0.188   0.895  0.8791 -0.2504  0.6661
 1448SOL     OW 4479   1.119   2.126   1.819  0.4902  0.3745  0.2084
 1448SOL    HW1 4480   1.053   2.057   1.808  0.1190  0.9028 -1.1727
 1448SOL    HW2 4481   1.079   2.203   1.778  1.7555  0.8384 -0.1980
 1449SOL     OW 4482   1.087   0.857   1.203 -0.8491  0.9191 -0.6451
 1449SOL    HW1 4483   1.002   0.840   1.162 -0.9600  2.7413 -1.2530
 1449SOL    HW2 4484   1.146   0.874   1.130 -0.1145  0.3377 -0.1931
 1450SOL     OW 4485   3.099   3.134   1.651 -0.6119 -0.1948  0.2512
 1450SOL    HW1 4486   3.024   3.187   1.623 -0.2824  0.4406  0.5660
 1450SOL    HW2 4487   3.065   3.081   1.723 -0.7592  0.0948  0.3969
 1451SOL     OW 4488   0.137   3.087   3.599  0.0678 -0.2411 -0.4084
 1451SOL    HW1 4489   0.177   3.016   3.548 -0.9838 -0.1413 -1.4139
 1451SOL    HW2 4490   0.126   3.158   3.536 -2.1477 -0.4542 -0.3369
 1452SOL     OW 4491   1.696   1.590   3.458  0.0887 -0.1560 -0.9793
 1452SOL    HW1 4492   1.615   1.629   3.423  0.3816  0.7406 -0.6718
 1452SOL    HW2 4493   1.666   1.522   3.518 -0.4861  1.2414  0.3832
 1453SOL     OW 4494   3.381   2.035   0.605 -0.1252  0.2268 -0.3094
 1453SOL    HW1 4495   3.451   2.033   0.540  0.2470 -0.8963  0.1085
 1453SOL    HW2 4496   3.379   2.126   0.636  0.1863  0.5942 -1.3463
 1454SOL     OW 4497   0.150   3.250   0.183 -0.0321 -0.2786 -0.0457
 1454SOL    HW1 4498   0.236   3.241   0.225  0.2464  0.4237 -0.4602
 1454SOL    HW2 4499   0.170   3.272   0.092 -0.5751  4.6369  0.7724
 1455SOL     OW 4500   1.034   2.077   2.959 -1.3088  0.1459  0.3662
 1455SOL    HW1 4501   1.047   2.041   3.047 -1.4393  1.8519  1.1310
 1455SOL    HW2 4502   1.111   2.049   2.910  0.2385  1.5317  1.8793
 1456SOL     OW 4503   2.254   2.335   3.155 -0.1792 -1.0786  0.3094
 1456SOL    HW1 4504   2.285   2.265   3.096 -2.9678 -0.7147 -1.7995
 1456SOL    HW2 4505   2.225   2.405   3.096  0.6350  1.0893  2.3051
 1457SOL     OW 4506   3.177   3.083   2.342 -0.8229 -0.1465 -0.4807
 1457SOL    HW1 4507   3.126   3.077   2.423 -0.3432  1.1860 -0.0579
 1457SOL    HW2 4508   3.226   3.001   2.338  0.1429  0.3012  1.2800
 1458SOL     OW 4509   2.966   3.624   3.369  0.1719 -0.1515  0.4658
 1458SOL    HW1 4510   3.033   3.669   3.420 -0.7481  1.2207  0.5183
 1458SOL    HW2 4511   2.903   3.692   3.347 -0.4984 -1.1279 -0.7723
 1459SOL     OW 4512   0.149   2.389   1.881  0.7649  0.3914 -0.6458
 1459SOL    HW1 4513   0.093   2.322   1.840  2.2654 -1.3841  0.0684
 1459SOL    HW2 4514   0.101   2.415   1.959  1.2172 -1.6926  0.3932
 1460SOL     OW 4515   1.597   1.068   2.299  0.2238  0.0968  0.1472
 1460SOL    HW1 4516   1.576   1.068   2.205  0.3513 -1.0441  0.1033
 1460SOL    HW2 4517   1.583   1.158   2.326 -0.3871  0.3234 -0.8459
 1461SOL     OW 4518   3.501   3.499   3.199 -0.5974 -0.5498 -0.1632
 1461SOL    HW1 4519   3.565   3.440   3.239 -0.5616  2.1416  4.4125
 1461SOL    HW2 4520   3.424   3.493   3.255 -0.4884  3.7430  0.8175
 1462SOL     OW 4521   1.756   0.071   0.793  0.0294 -0.6938  0.1737
 1462SOL    HW1 4522   1.682   0.018   0.825  0.8452 -1.3595  1.0053
 1462SOL    HW2 4523   1.736   0.160   0.821 -0.8519 -0.7189 -0.3282
 1463SOL     OW 4524   2.654   1.994   1.341 -0.5949  0.0419  0.2382
 1463SOL    HW1 4525   2.621   2.083   1.353 -0.2891  0.0194  1.3494
 1463SOL    HW2 4526   2.577   1.938   1.349 -0.5720  0.1127  1.0309
 1464SOL     OW 4527   2.869   1.931   2.808 -0.3391 -0.3736 -0.1089
 1464SOL    HW1 4528   2.837   1.925   2.718  0.1846 -0.4655 -0.2887
 1464SOL    HW2 4529   2.885   1.840   2.834  1.0860 -0.2438 -0.4933
 1465SOL     OW 4530   2.148   2.181   0.245  0.5007  0.3425 -0.7710
 1465SOL    HW1 4531   2.094   2.103   0.237  0.9636 -0.6450  3.4228
 1465SOL    HW2 4532   2.238   2.148   0.245  0.6725  0.5103  2.4539
 1466SOL     OW 4533   0.409   2.925   2.076 -0.1130 -0.5544  0.4867
 1466SOL    HW1 4534   0.332   2.904   2.023  0.2997  0.5328 -0.6077
 1466SOL    HW2 4535   0.445   2.840   2.101 -0.6725 -1.0909 -0.4701
 1467SOL     OW 4536   3.638   3.143   1.602  0.0208 -0.8209 -0.1327
 1467SOL    HW1 4537   3.653   3.151   1.696  1.3528  0.4593 -0.4094
 1467SOL    HW2 4538   3.582   3.066   1.592 -1.8326  0.1730  1.8580
 1468SOL     OW 4539   0.837   3.471   0.352  0.2715 -0.2148  0.3661
 1468SOL    HW1 4540   0.771   3.539   0.345  0.2797 -0.2592 -0.2175
 1468SOL    HW2 4541   0.921   3.516   0.339  0.2458 -0.3999 -0.5530
 1469SOL     OW 4542   2.000   1.065   2.576  0.4388  0.0749 -0.3796
 1469SOL    HW1 4543   1.999   1.073   2.481 -0.6003  0.5225 -0.3429
 1469SOL    HW2 4544   2.044   0.982   2.593  2.8658  1.1282 -1.1411
 1470SOL     OW 4545   1.006   0.582   3.147 -0.0684  0.2172  0.1347
 1470SOL    HW1 4546   0.940   0.542   3.091  0.8479 -1.5005  0.1961
 1470SOL    HW2 4547   1.060   0.634   3.088 -1.4900  1.7303  0.1014
 1471SOL     OW 4548   2.376   3.102   2.600  0.3800  0.3862  0.8733
 1471SOL    HW1 4549   2.288   3.132   2.578  0.2911  1.5784  2.6067
 1471SOL    HW2 4550   2.362   3.023   2.653  0.5605 -1.8491 -2.1391
 1472SOL     OW 4551   2.425   2.448   1.133  0.6225  0.7166  0.1083
 1472SOL    HW1 4552   2.360   2.452   1.063  1.7776  1.5523 -0.9474
 1472SOL    HW2 4553   2.508   2.467   1.091  1.4296  0.7177  1.6184
 1473SOL     OW 4554   1.277   1.458   2.945  0.2461 -0.2119 -0.2077
 1473SOL    HW1 4555   1.337   1.430   2.876 -1.1684 -0.3813 -1.4225
 1473SOL    HW2 4556   1.195   1.476   2.900 -0.2392  1.4337  1.1770
 1474SOL     OW 4557   0.210   0.204   2.060 -0.6358  0.4879  0.0362
 1474SOL    HW1 4558   0.217   0.274   1.994 -0.0013  1.3294  0.9584
 1474SOL    HW2 4559   0.287   0.150   2.047 -0.5598  0.6002  0.0208
 1475SOL     OW 4560   3.209   2.308   2.380 -0.3698 -0.1266 -0.0236
 1475SOL    HW1 4561   3.162   2.235   2.421 -0.4034 -0.3322 -0.4197
 1475SOL    HW2 4562   3.200   2.292   2.286  2.8185 -1.7273 -0.1707
 1476SOL     OW 4563   2.574   2.242   1.608 -0.2272  0.1651  0.1066
 1476SOL    HW1 4564   2.546   2.278   1.524 -0.1961  1.5842  0.6757
 1476SOL    HW2 4565   2.497   2.251   1.664 -0.1165 -0.3936  0.3583
 1477SOL     OW 4566   1.965   0.606   3.191 -0.0258 -0.0485  0.1726
 1477SOL    HW1 4567   1.944   0.699   3.180  0.7976  0.2641  1.0597
 1477SOL    HW2 4568   1.883   0.567   3.221 -0.0988  0.6186  0.8900
 1478SOL     OW 4569   0.397   2.525   1.829 -0.4194  0.1107  0.2434
 1478SOL    HW1 4570   0.305   2.499   1.837 -0.1735 -1.0187 -0.4649
 1478SOL    HW2 4571   0.441   2.449   1.792  0.5170  1.1839 -0.9614
 1479SOL     OW 4572   1.565   1.970   1.298 -0.0366 -0.5575 -0.0699
 1479SOL    HW1 4573   1.549   2.024   1.376 -0.0674 -0.4655 -0.1395
 1479SOL    HW2 4574   1.496   1.995   1.237  2.5285  2.7935 -1.9500
 1480SOL     OW 4575   0.281   3.685   0.951 -0.6787 -0.2741 -0.6473
 1480SOL    HW1 4576   0.345   3.752   0.925 -0.6532 -0.5055 -1.1901
 1480SOL    HW2 4577   0.284   3.686   1.047 -0.6612  0.4840 -0.6483
 1481SOL     OW 4578   2.464   3.691   0.929  0.1278  0.0283 -0.1838
 1481SOL    HW1 4579   2.490   3.783   0.943  1.5774 -0.3834  0.0067
 1481SOL    HW2 4580   2.506   3.644   1.001 -2.3493 -0.5383  0.9860
 1482SOL     OW 4581   2.555   1.189   2.585  0.1786  0.1879 -0.2322
 1482SOL    HW1 4582   2.501   1.126   2.538  0.1908 -0.5604  0.7189
 1482SOL    HW2 4583   2.493   1.253   2.619 -0.3452 -1.3457  1.9232
 1483SOL     OW 4584   2.674   1.031   2.009 -0.3249 -0.3947 -0.9937
 1483SOL    HW1 4585   2.720   1.113   1.993 -1.1812  0.4360  0.5331
 1483SOL    HW2 4586   2.652   1.033   2.102 -3.1148 -0.8976 -1.5439
 1484SOL     OW 4587   3.534   1.191   3.087  0.1937  0.3350 -0.1253
 1484SOL    HW1 4588   3.490   1.204   3.003  1.4564  0.5052 -0.7884
 1484SOL    HW2 4589   3.463   1.173   3.149 -0.7144 -0.5657 -1.3676
 1485SOL     OW 4590   3.316   0.484   1.026 -0.4062  0.6434 -0.5959
 1485SOL    HW1 4591   3.302   0.575   1.003 -1.0153  0.3775 -1.3151
 1485SOL    HW2 4592   3.310   0.481   1.121 -2.0347  1.0909 -0.6578
 1486SOL     OW 4593   1.788   0.890   2.657  0.6139 -0.3493  0.5025
 1486SOL    HW1 4594   1.822   0.980   2.660 -0.5032  0.0669  2.2240
 1486SOL    HW2 4595   1.866   0.835   2.658  1.3136  0.5909 -0.1099
 1487SOL     OW 4596   1.344   0.619   2.562 -0.5266 -0.1769 -0.4358
 1487SOL    HW1 4597   1.390   0.703   2.553  0.4955 -0.8432 -1.8306
 1487SOL    HW2 4598   1.286   0.616   2.486  1.8438 -2.1142 -2.3226
 1488SOL     OW 4599   2.495   2.594   3.110 -0.6937  0.2815  0.5840
 1488SOL    HW1 4600   2.403   2.602   3.084  0.0860  1.4027 -2.2495
 1488SOL    HW2 4601   2.526   2.515   3.064  0.3464  1.3674 -0.6689
 1489SOL     OW 4602   1.232   0.966   2.222 -0.2549  0.6219  0.6684
 1489SOL    HW1 4603   1.256   1.059   2.227 -0.3461  0.8149 -1.4505
 1489SOL    HW2 4604   1.167   0.954   2.291 -0.3564  2.1760  0.8792
 1490SOL     OW 4605   3.594   2.740   0.394 -0.0467  1.1218 -0.5016
 1490SOL    HW1 4606   3.599   2.768   0.486 -1.9279  3.5710 -1.0508
 1490SOL    HW2 4607   3.663   2.674   0.386  0.2205  0.8480  2.6373
 1491SOL     OW 4608   0.822   0.740   2.726 -0.1960  0.0271 -0.6476
 1491SOL    HW1 4609   0.869   0.753   2.644  2.7328  1.5393  1.1063
 1491SOL    HW2 4610   0.865   0.666   2.768  0.9711  1.6268  1.1425
 1492SOL     OW 4611   0.573   0.651   0.961 -0.3371 -0.2779 -0.4118
 1492SOL    HW1 4612   0.601   0.740   0.942  0.4909 -0.6446 -0.9658
 1492SOL    HW2 4613   0.564   0.610   0.875  0.7871 -1.1634 -0.1335
 1493SOL     OW 4614   0.889   0.393   1.921 -0.1733  0.5620 -0.1277
 1493SOL    HW1 4615   0.943   0.331   1.970 -2.2008 -0.9624  0.3318
 1493SOL    HW2 4616   0.935   0.476   1.927  0.7108 -0.0507  2.5886
 1494SOL     OW 4617   0.148   1.075   1.191 -0.1735  0.1483 -0.3712
 1494SOL    HW1 4618   0.132   1.102   1.101  0.4258 -2.2251 -1.2479
 1494SOL    HW2 4619   0.226   1.021   1.187 -0.0942  0.0331  1.6026
 1495SOL     OW 4620   2.948   1.974   1.142 -0.7727 -0.3090  0.5785
 1495SOL    HW1 4621   2.881   1.934   1.086 -2.3953  0.2498  2.0572
 1495SOL    HW2 4622   2.932   2.068   1.134  1.2633 -0.0076 -0.7223
 1496SOL     OW 4623   3.647   1.946   1.553 -0.3665  0.3745 -0.0940
 1496SOL    HW1 4624   3.611   1.946   1.642 -0.3066  1.0810 -0.0608
 1496SOL    HW2 4625   3.681   1.857   1.541  2.5909  1.0911  1.8330
 1497SOL     OW 4626   3.701   1.887   0.504  0.1991  0.5412 -0.3103
 1497SOL    HW1 4627   3.654   1.937   0.571 -1.7767  1.2388 -2.1082
 1497SOL    HW2 4628   3.637   1.824   0.471  1.3849 -0.3592 -0.9926
 1498SOL     OW 4629   3.186   1.884   1.257  0.5516 -0.3432  0.3230
 1498SOL    HW1 4630   3.112   1.938   1.228  0.8380 -0.0144  0.1984
 1498SOL    HW2 4631   3.243   1.945   1.304  0.0755 -0.8746  1.6205
 1499SOL     OW 4632   3.498   2.301   3.009  0.5046  0.3366 -0.5412
 1499SOL    HW1 4633   3.469   2.283   3.099 -0.2862 -0.2262 -0.8903
 1499SOL    HW2 4634   3.589   2.273   3.007 -0.0095 -1.5080 -0.4134
 1500SOL     OW 4635   3.694   2.028   2.781 -0.0125 -1.0240  0.7175
 1500SOL    HW1 4636   3.683   2.013   2.874 -1.6497 -0.3152  0.6758
 1500SOL    HW2 4637   3.653   2.113   2.765 -0.6190 -1.5553 -0.7822
 1501SOL     OW 4638   0.363   3.331   1.761  0.2390 -0.1461 -0.1236
 1501SOL    HW1 4639   0.353   3.376   1.845  2.0748 -2.0555  1.2425
 1501SOL    HW2 4640   0.457   3.336   1.742  0.1908 -1.6545 -0.9059
 1502SOL     OW 4641   0.213   1.431   2.289  0.0598  0.6995  0.2684
 1502SOL    HW1 4642   0.137   1.479   2.322 -1.2000 -0.2727 -1.0672
 1502SOL    HW2 4643   0.233   1.471   2.205 -0.1400 -0.1966 -0.2220
 1503SOL     OW 4644   0.806   1.811   3.335 -0.4620 -0.5126  0.3231
 1503SOL    HW1 4645   0.825   1.763   3.416  1.5752 -0.6711 -0.1888
 1503SOL    HW2 4646   0.886   1.860   3.318 -1.6442  1.2114 -0.4644
 1504SOL     OW 4647   1.248   2.305   3.059 -0.8516  0.2662 -0.1584
 1504SOL    HW1 4648   1.326   2.323   3.006 -1.9870  0.3713 -1.8545
 1504SOL    HW2 4649   1.190   2.256   3.001 -2.3214  0.7399  0.8469
 1505SOL     OW 4650   0.770   3.529   3.007 -0.6587 -0.0034  0.6224
 1505SOL    HW1 4651   0.829   3.585   2.956  0.7605  0.3979  2.6034
 1505SOL    HW2 4652   0.752   3.579   3.087 -0.2960 -1.8602  1.9236
 1506SOL     OW 4653   0.683   3.414   2.170  0.3136  0.4545 -0.1013
 1506SOL    HW1 4654   0.740   3.361   2.226  0.6089  0.9119  0.0286
 1506SOL    HW2 4655   0.727   3.498   2.162  0.1662  0.4715 -0.8472
 1507SOL     OW 4656   1.582   2.473   3.350  0.3465  0.5761  0.4418
 1507SOL    HW1 4657   1.636   2.537   3.303  1.5208  0.0061  0.9650
 1507SOL    HW2 4658   1.544   2.418   3.282  1.5642  0.1159  0.1059
 1508SOL     OW 4659   1.554   3.314   2.806  0.2827  0.1523  0.1729
 1508SOL    HW1 4660   1.507   3.337   2.886  1.1311 -1.5686  1.2309
 1508SOL    HW2 4661   1.646   3.333   2.826  0.7823 -2.2698  0.4459
 1509SOL     OW 4662   2.052   3.072   0.075  0.2409  0.4500 -0.3434
 1509SOL    HW1 4663   2.015   3.050  -0.011 -1.1599  1.2040  0.0333
 1509SOL    HW2 4664   2.116   3.141   0.056 -0.1426  0.6953 -0.7763
 1510SOL     OW 4665   0.853   0.231   3.214 -0.0599 -0.1538  0.2465
 1510SOL    HW1 4666   0.826   0.316   3.250  0.0747 -0.2337  0.5447
 1510SOL    HW2 4667   0.942   0.246   3.182 -0.4133  0.0790 -0.6283
 1511SOL     OW 4668   1.500   3.155   2.429  0.0619  0.6834  0.2562
 1511SOL    HW1 4669   1.501   3.168   2.334 -1.6477 -0.3870  0.0448
 1511SOL    HW2 4670   1.500   3.244   2.464  0.7467  1.0980 -0.7332
 1512SOL     OW 4671   3.035   3.375   2.882  0.7512  0.5435  0.5869
 1512SOL    HW1 4672   3.116   3.407   2.844  0.0164  2.0614  0.1972
 1512SOL    HW2 4673   3.028   3.284   2.853  0.1088  1.6378 -3.2596
 1513SOL     OW 4674   2.510   0.532   1.398  0.5155  0.2063  0.3491
 1513SOL    HW1 4675   2.547   0.610   1.437 -0.7703  0.2318  1.5732
 1513SOL    HW2 4676   2.541   0.534   1.307  1.2519  1.6306  0.6052
 1514SOL     OW 4677   3.461   1.623   3.449  0.3465 -0.2424 -0.0983
 1514SOL    HW1 4678   3.406   1.650   3.375 -2.3795  3.0203  2.7338
 1514SOL    HW2 4679   3.531   1.688   3.452  0.6167 -0.5394 -0.0093
 1515SOL     OW 4680   3.636   2.651   3.473 -0.6049 -0.1068 -0.3807
 1515SOL    HW1 4681   3.690   2.654   3.394  0.0481 -1.3941 -0.0002
 1515SOL    HW2 4682   3.559   2.599   3.449 -0.5931 -0.1730 -0.2765
 1516SOL     OW 4683   0.992   0.633   0.530 -0.0264  0.1916  0.1890
 1516SOL    HW1 4684   1.071   0.679   0.556 -0.5338  1.1948  0.0027
 1516SOL    HW2 4685   1.019   0.577   0.457  0.7343 -0.3122  0.8482
 1517SOL     OW 4686   1.351   2.471   3.498  0.1748  0.6034 -0.3313
 1517SOL    HW1 4687   1.368   2.499   3.588 -1.3084 -0.2476  0.2429
 1517SOL    HW2 4688   1.436   2.478   3.455  0.4148  3.5959  0.3845
 1518SOL     OW 4689   2.417   0.773   3.506 -0.0160 -0.6709 -0.2386
 1518SOL    HW1 4690   2.434   0.716   3.581 -2.6437 -0.2732  0.7363
 1518SOL    HW2 4691   2.354   0.724   3.453 -0.8089  0.4864 -0.3962
 1519SOL     OW 4692   3.021   3.273   0.547 -0.0442  0.3260 -0.5972
 1519SOL    HW1 4693   2.937   3.297   0.509 -0.6427 -1.3422 -0.4166
 1519SOL    HW2 4694   3.005   3.188   0.588  1.3136  0.7477  0.8946
 1520SOL     OW 4695   3.016   2.916   3.469 -0.2601  0.1131 -0.5039
 1520SOL    HW1 4696   2.948   2.981   3.486 -0.0220  1.2824 -3.3575
 1520SOL    HW2 4697   3.077   2.926   3.542  0.1463  3.7340 -1.1157
 1521SOL     OW 4698   1.850   1.257   0.433 -0.3830  0.2123 -0.3629
 1521SOL    HW1 4699   1.773   1.207   0.462  0.2863 -1.3877 -1.1914
 1521SOL    HW2 4700   1.837   1.268   0.339  0.7436 -0.7886 -0.6623
 1522SOL     OW 4701   1.783   2.986   2.887 -0.6036  0.4581  0.4335
 1522SOL    HW1 4702   1.796   2.906   2.939 -0.4726  0.5361  0.5202
 1522SOL    HW2 4703   1.736   2.956   2.809  0.8484  0.0301 -0.2995
 1523SOL     OW 4704   2.473   1.785   3.371 -0.3591 -0.3377  0.0509
 1523SOL    HW1 4705   2.473   1.858   3.432  1.0074 -0.4854  0.2709
 1523SOL    HW2 4706   2.419   1.718   3.413 -2.1483  0.7250 -0.4403
 1524SOL     OW 4707   3.252   0.790   1.156  0.0060 -0.2486 -1.0739
 1524SOL    HW1 4708   3.204   0.857   1.205 -0.0176 -0.2316 -1.1204
 1524SOL    HW2 4709   3.241   0.710   1.208  0.1506 -0.1857 -0.9468
 1525SOL     OW 4710   0.729   2.008   0.559 -0.0951 -0.5124  0.0055
 1525SOL    HW1 4711   0.804   2.058   0.589 -0.8990  0.5655  0.2733
 1525SOL    HW2 4712   0.745   1.919   0.591  2.1048 -0.8508 -1.8027
 1526SOL     OW 4713   2.758   1.539   1.242 -1.0662  0.1066 -0.2992
 1526SOL    HW1 4714   2.771   1.630   1.214 -0.4001  0.5929  1.4100
 1526SOL    HW2 4715   2.745   1.490   1.161 -0.8842  1.6396 -1.2985
 1527SOL     OW 4716   2.923   1.667   0.674  0.2174 -0.1746 -0.0865
 1527SOL    HW1 4717   2.959   1.694   0.590  0.8899 -0.2175  0.1882
 1527SOL    HW2 4718   2.919   1.747   0.725  1.2913 -0.4117  0.3855
 1528SOL     OW 4719   1.365   0.992   0.973 -0.5966  0.2325 -0.7330
 1528SOL    HW1 4720   1.398   0.987   1.063 -1.6506  0.1967 -0.3403
 1528SOL    HW2 4721   1.433   0.948   0.921 -0.0848  0.0412  0.0723
 1529SOL     OW 4722   1.521   1.431   3.312  0.1160 -0.1177 -0.5933
 1529SOL    HW1 4723   1.508   1.371   3.239  1.2835 -0.1732 -0.7765
 1529SOL    HW2 4724   1.611   1.416   3.339 -0.0156  0.5678  0.2620
 1530SOL     OW 4725   0.079   0.713   3.361  0.3344  0.1190  0.0908
 1530SOL    HW1 4726   0.032   0.713   3.445  0.1428  0.7681 -0.0108
 1530SOL    HW2 4727   0.010   0.714   3.295  0.4523 -1.6437 -0.1218
 1531SOL     OW 4728   1.387   1.483   1.267 -0.3424  0.0261 -0.2354
 1531SOL    HW1 4729   1.380   1.568   1.309 -1.6163  0.6553 -1.6587
 1531SOL    HW2 4730   1.457   1.438   1.316 -0.3817  1.4527  1.2169
 1532SOL     OW 4731   3.611   3.033   2.523  0.4964  0.4242  0.7536
 1532SOL    HW1 4732   3.534   3.088   2.538 -0.8102 -0.1659 -2.9091
 1532SOL    HW2 4733   3.578   2.943   2.527  1.1900  0.1318  0.1650
 1533SOL     OW 4734   2.449   1.754   0.901  0.4567 -0.3463  0.2420
 1533SOL    HW1 4735   2.472   1.803   0.822 -1.0594  0.3237  0.1761
 1533SOL    HW2 4736   2.381   1.693   0.872  0.5824 -0.7689  0.8301
 1534SOL     OW 4737   0.467   1.169   3.098  0.1135 -0.2475 -0.3826
 1534SOL    HW1 4738   0.484   1.110   3.024  0.7376 -1.1398  0.4464
 1534SOL    HW2 4739   0.548   1.220   3.107  0.2958 -0.6186  0.1049
 1535SOL     OW 4740   1.570   3.140   3.614  0.1570  0.3821 -0.4018
 1535SOL    HW1 4741   1.598   3.219   3.660  0.7095  0.3986 -0.7591
 1535SOL    HW2 4742   1.599   3.154   3.524 -0.5816  0.1866 -0.6764
 1536SOL     OW 4743   2.127   3.163   2.530  0.0800 -0.2662  0.2581
 1536SOL    HW1 4744   2.076   3.237   2.564 -0.3361 -0.9374  1.1363
 1536SOL    HW2 4745   2.145   3.186   2.439 -0.2037  0.8282  0.4631
 1537SOL     OW 4746   2.017   0.977   1.078 -0.0971 -0.1716 -0.2537
 1537SOL    HW1 4747   1.925   0.999   1.064 -0.1075  0.5609  0.8760
 1537SOL    HW2 4748   2.065   1.036   1.019 -0.3614 -1.1509 -1.4928
 1538SOL     OW 4749   0.264   2.219   0.100  0.4941 -0.0255  0.0078
 1538SOL    HW1 4750   0.295   2.193   0.187 -0.4745  1.9865  1.0163
 1538SOL    HW2 4751   0.242   2.136   0.057  0.8798 -1.0714  1.7291
 1539SOL     OW 4752   1.983   0.924   0.118 -0.0672 -0.2806  0.2897
 1539SOL    HW1 4753   1.987   1.018   0.100  0.3435 -0.6667 -1.7949
 1539SOL    HW2 4754   2.014   0.916   0.208 -0.1427  1.5678  0.5255
 1540SOL     OW 4755   1.704   0.596   2.318 -0.2142  0.2231  0.1652
 1540SOL    HW1 4756   1.736   0.530   2.257 -0.4433  1.1215 -0.9599
 1540SOL    HW2 4757   1.626   0.632   2.276 -2.4107 -1.4149  2.5167
 1541SOL     OW 4758   1.287   0.067   1.950  0.3983 -0.6143 -0.4191
 1541SOL    HW1 4759   1.243   0.142   1.910  0.5125 -0.6685 -0.6482
 1541SOL    HW2 4760   1.216   0.014   1.986  0.2506 -0.8409 -1.0289
 1542SOL     OW 4761   2.775   3.558   3.614 -0.0731 -0.1379  0.1009
 1542SOL    HW1 4762   2.697   3.531   3.662  0.9274  1.5226  2.8851
 1542SOL    HW2 4763   2.745   3.629   3.557 -1.0270 -1.2270 -0.7998
 1543SOL     OW 4764   0.844   0.061   3.434 -0.2521 -0.1138  0.4150
 1543SOL    HW1 4765   0.872   0.127   3.371  0.3280 -0.8584 -0.1246
 1543SOL    HW2 4766   0.797   0.111   3.501  0.3932  0.8815  0.1604
 1544SOL     OW 4767   0.216   2.657   3.719  0.3617 -0.2128 -0.2687
 1544SOL    HW1 4768   0.297   2.640   3.767  1.0451 -0.0405 -1.3431
 1544SOL    HW2 4769   0.210   2.585   3.656 -0.7585 -0.6798  0.3463
 1545SOL     OW 4770   0.396   3.224   0.303 -0.1198  0.0277 -0.1439
 1545SOL    HW1 4771   0.489   3.245   0.313 -0.5937  2.3002  0.1166
 1545SOL    HW2 4772   0.395   3.138   0.262  2.0930 -0.2065  0.1693
 1546SOL     OW 4773   1.142   2.529   2.286 -0.1564 -0.2181 -0.1111
 1546SOL    HW1 4774   1.186   2.607   2.319 -1.6903 -0.0159  1.6315
 1546SOL    HW2 4775   1.053   2.535   2.319 -0.5400 -2.3333 -0.5664
 1547SOL     OW 4776   0.361   3.387   1.028 -0.5336 -0.5628 -0.8813
 1547SOL    HW1 4777   0.283   3.354   0.983 -0.5688 -1.5547 -0.1350
 1547SOL    HW2 4778   0.411   3.309   1.050 -0.2168 -0.0731  0.2416
 1548SOL     OW 4779   0.463   2.960   3.713  0.9993  0.5992  0.2701
 1548SOL    HW1 4780   0.383   2.916   3.684 -0.9090  2.4075  2.3579
 1548SOL    HW2 4781   0.490   3.012   3.638  0.3450 -0.2001 -0.5465
 1549SOL     OW 4782   1.152   2.551   2.914 -0.2814 -0.4132 -0.2138
 1549SOL    HW1 4783   1.135   2.488   2.984  0.3952  0.3968  0.7007
 1549SOL    HW2 4784   1.077   2.611   2.917  0.6270  0.7254  1.0943
 1550SOL     OW 4785   0.655   1.008   1.928  0.1908 -0.3092  0.1216
 1550SOL    HW1 4786   0.632   1.092   1.969 -0.3740 -0.3926 -0.0175
 1550SOL    HW2 4787   0.592   0.999   1.857  1.0793 -0.2339 -0.6818
 1551SOL     OW 4788   0.453   3.393   2.977 -0.9116 -0.8694 -0.4930
 1551SOL    HW1 4789   0.367   3.375   2.938 -1.5230 -0.0432  0.4161
 1551SOL    HW2 4790   0.447   3.483   3.008 -0.5017 -1.4977  1.5746
 1552SOL     OW 4791   2.160   0.113   2.266 -0.0532 -0.2775 -0.4003
 1552SOL    HW1 4792   2.094   0.140   2.330  0.0238 -0.2204 -0.3466
 1552SOL    HW2 4793   2.133   0.155   2.184 -0.0456 -0.2012 -0.3627
 1553SOL     OW 4794   0.447   2.809   2.758 -1.5872  0.2993  0.4253
 1553SOL    HW1 4795   0.496   2.785   2.836  1.4622 -0.5678 -1.6013
 1553SOL    HW2 4796   0.449   2.905   2.758 -0.5527  0.2906  0.7939
 1554SOL     OW 4797   0.542   1.973   0.870 -0.4895  0.1044 -0.6687
 1554SOL    HW1 4798   0.523   2.020   0.951  2.4573  0.2348  0.0408
 1554SOL    HW2 4799   0.486   2.016   0.804 -3.7755 -0.7211  1.3464
 1555SOL     OW 4800   3.435   2.754   2.068 -0.0769 -0.3077  0.6399
 1555SOL    HW1 4801   3.387   2.726   1.990  1.1531  0.5341 -0.4665
 1555SOL    HW2 4802   3.368   2.791   2.126 -0.7427  1.3224 -1.0692
 1556SOL     OW 4803   3.004   0.086   1.724  0.2857 -0.0720  0.4369
 1556SOL    HW1 4804   2.935   0.090   1.790  0.4101  2.9703  0.5124
 1556SOL    HW2 4805   3.076   0.137   1.761  0.4994  1.4179 -1.8156
 1557SOL     OW 4806   2.702   3.396   0.774 -0.3609 -0.1958  0.1087
 1557SOL    HW1 4807   2.726   3.368   0.863 -0.0925 -0.1700  0.0457
 1557SOL    HW2 4808   2.613   3.365   0.763 -0.2276 -0.6219  0.2108
 1558SOL     OW 4809   0.286   1.014   3.485 -0.2390  0.1502 -0.2426
 1558SOL    HW1 4810   0.342   0.946   3.522 -1.6884 -1.7967 -1.4372
 1558SOL    HW2 4811   0.215   1.023   3.548  0.3967  1.2665  0.3526
 1559SOL     OW 4812   3.652   2.855   2.966  0.0669 -0.4629  0.1406
 1559SOL    HW1 4813   3.701   2.864   2.884 -0.2557  0.5662  0.0491
 1559SOL    HW2 4814   3.714   2.880   3.034 -0.8231  2.8757 -0.1107
 1560SOL     OW 4815   1.629   0.863   0.887 -0.1601 -0.9776 -0.3844
 1560SOL    HW1 4816   1.663   0.828   0.805  0.6677 -1.8387  0.3054
 1560SOL    HW2 4817   1.597   0.786   0.934 -0.5994 -0.4947  0.1239
 1561SOL     OW 4818   1.429   1.685   3.653 -0.3310 -0.4393 -0.0032
 1561SOL    HW1 4819   1.439   1.591   3.639 -0.5391 -0.6125  0.9143
 1561SOL    HW2 4820   1.511   1.712   3.694 -0.4000 -0.2847  0.0340
 1562SOL     OW 4821   1.596   3.451   0.998  0.0261 -0.6985 -0.1952
 1562SOL    HW1 4822   1.617   3.393   1.071  0.3915 -0.8354 -0.4089
 1562SOL    HW2 4823   1.673   3.506   0.988  1.0381 -2.3287 -2.0749
 1563SOL     OW 4824   2.794   2.719   0.666 -0.6254  0.1159  0.3496
 1563SOL    HW1 4825   2.849   2.642   0.677 -0.8095 -0.3102 -1.4159
 1563SOL    HW2 4826   2.848   2.781   0.616 -0.7667  0.8376  1.0549
 1564SOL     OW 4827   0.552   1.826   2.039 -0.6003 -0.1114 -0.2251
 1564SOL    HW1 4828   0.646   1.819   2.019 -1.1000 -0.6514 -2.8167
 1564SOL    HW2 4829   0.546   1.896   2.103  1.7342 -1.3586  1.5142
 1565SOL     OW 4830   0.108   1.086   0.579  0.2324 -0.0176 -0.2402
 1565SOL    HW1 4831   0.173   1.153   0.601  0.9577  0.2789 -2.9182
 1565SOL    HW2 4832   0.030   1.112   0.627  1.3147  1.1704  0.9422
 1566SOL     OW 4833   0.770   0.283   1.686  0.0481 -0.0085 -0.4980
 1566SOL    HW1 4834   0.820   0.305   1.765  0.5656  0.4667 -0.9447
 1566SOL    HW2 4835   0.790   0.354   1.625  0.6752 -1.0199 -1.4992
 1567SOL     OW 4836   2.546   1.847   0.662  0.5672 -0.8205 -0.0861
 1567SOL    HW1 4837   2.543   1.788   0.587 -1.3525  0.3247 -0.9804
 1567SOL    HW2 4838   2.614   1.911   0.640  0.0724 -0.5394 -0.8552
 1568SOL     OW 4839   1.333   1.359   2.691 -0.6283 -0.1586  0.4237
 1568SOL    HW1 4840   1.339   1.397   2.604  2.0275  1.2717  1.1222
 1568SOL    HW2 4841   1.313   1.266   2.676 -1.3174  0.2887 -1.6208
 1569SOL     OW 4842   0.221   3.573   1.809  0.1313  0.0506  0.5789
 1569SOL    HW1 4843   0.309   3.571   1.772  0.6184  0.1958  1.7062
 1569SOL    HW2 4844   0.175   3.501   1.765  0.7092  0.1714 -0.2423
 1570SOL     OW 4845   2.819   1.757   1.419  0.6740  0.1032 -0.3947
 1570SOL    HW1 4846   2.765   1.829   1.388  1.7784  1.9394  1.6503
 1570SOL    HW2 4847   2.896   1.759   1.362  1.7512  2.1232  1.0071
 1571SOL     OW 4848   1.339   1.330   0.831 -0.1024  0.0577  0.9043
 1571SOL    HW1 4849   1.425   1.367   0.809  0.2272 -0.4764  1.2571
 1571SOL    HW2 4850   1.352   1.291   0.917 -1.0070  0.9374  1.4600
 1572SOL     OW 4851   2.671   0.275   2.952  0.3106 -0.5281  0.3036
 1572SOL    HW1 4852   2.764   0.250   2.944 -0.3266 -2.6721 -1.2692
 1572SOL    HW2 4853   2.640   0.227   3.029  0.2328 -0.7166  0.1544
 1573SOL     OW 4854   3.256   3.483   1.790  0.2548  0.7438  0.0515
 1573SOL    HW1 4855   3.170   3.452   1.761  0.5889 -0.3222  0.1438
 1573SOL    HW2 4856   3.236   3.552   1.853 -0.5444  0.4472  0.1390
 1574SOL     OW 4857   2.555   0.512   2.916 -0.1733  0.0127 -0.1652
 1574SOL    HW1 4858   2.604   0.595   2.912 -1.1092  0.6599  0.9887
 1574SOL    HW2 4859   2.622   0.445   2.923  0.5842  0.7374 -0.2714
 1575SOL     OW 4860   3.248   1.000   2.231  0.5146 -0.1482 -0.1859
 1575SOL    HW1 4861   3.340   1.002   2.204  0.4348  0.9974 -0.4255
 1575SOL    HW2 4862   3.223   1.092   2.237 -0.2097 -0.4048  1.3030
 1576SOL     OW 4863   0.388   2.571   2.651 -0.9801 -0.2056  0.6936
 1576SOL    HW1 4864   0.314   2.613   2.607 -0.6636  0.7474  1.0470
 1576SOL    HW2 4865   0.413   2.632   2.720 -0.4848 -0.9701  1.2155
 1577SOL     OW 4866   2.410   0.839   1.205  0.4162  0.7547  0.0779
 1577SOL    HW1 4867   2.328   0.864   1.246 -0.2997 -1.1439 -0.0849
 1577SOL    HW2 4868   2.474   0.842   1.276 -0.0162  1.2179  0.4537
 1578SOL     OW 4869   2.164   1.019   0.868  0.1261  0.2860 -0.1050
 1578SOL    HW1 4870   2.122   1.004   0.783 -1.4465 -3.4152  1.0835
 1578SOL    HW2 4871   2.249   0.975   0.861 -0.5817 -1.2572  0.5779
 1579SOL     OW 4872   2.868   1.399   1.476  0.2456 -0.0777 -0.3904
 1579SOL    HW1 4873   2.821   1.468   1.428 -2.8669  0.1023  2.5632
 1579SOL    HW2 4874   2.825   1.318   1.450  0.0880 -0.2316  0.3264
 1580SOL     OW 4875   1.170   1.419   3.657 -0.7081  0.4085  0.1158
 1580SOL    HW1 4876   1.088   1.447   3.696 -0.8189 -1.0288  0.9717
 1580SOL    HW2 4877   1.238   1.461   3.711 -0.8663 -1.2360  1.6947
 1581SOL     OW 4878   2.800   0.108   2.726  0.4252 -0.4198 -0.2302
 1581SOL    HW1 4879   2.736   0.172   2.754 -0.6334 -1.1823 -0.8313
 1581SOL    HW2 4880   2.767   0.076   2.642  1.0085 -1.6154 -0.0269
 1582SOL     OW 4881   0.087   2.799   1.180 -0.4050  0.0755  0.0160
 1582SOL    HW1 4882   0.019   2.753   1.130 -0.6942  0.6457 -0.1275
 1582SOL    HW2 4883   0.038   2.862   1.233 -0.0143  0.2388  0.1831
 1583SOL     OW 4884   2.038   3.437   2.314 -0.4273  0.0387  0.0276
 1583SOL    HW1 4885   2.105   3.394   2.261 -1.2579  0.6351 -1.5909
 1583SOL    HW2 4886   1.990   3.492   2.252 -2.1297 -0.0264  1.2157
 1584SOL     OW 4887   0.651   2.238   1.347  0.6166  0.2368  0.2640
 1584SOL    HW1 4888   0.636   2.209   1.437 -0.2627  0.9114  0.3471
 1584SOL    HW2 4889   0.603   2.320   1.340 -0.4007 -0.4388 -1.1899
 1585SOL     OW 4890   0.585   2.074   0.342  0.0764  0.1062 -0.4178
 1585SOL    HW1 4891   0.621   2.057   0.429 -0.0657  1.8532  0.0255
 1585SOL    HW2 4892   0.567   1.988   0.306  0.5947 -0.6685  1.0944
 1586SOL     OW 4893   0.882   1.657   0.541 -0.2293 -0.0303 -0.5652
 1586SOL    HW1 4894   0.879   1.724   0.610 -0.4838 -0.7320  0.1270
 1586SOL    HW2 4895   0.803   1.605   0.556 -0.7069  0.2698 -1.8863
 1587SOL     OW 4896   2.214   3.448   3.325  0.1043  0.3205 -0.2750
 1587SOL    HW1 4897   2.306   3.462   3.303  0.6875  1.6200  2.4306
 1587SOL    HW2 4898   2.211   3.362   3.367  0.2615  0.5766  0.2769
 1588SOL     OW 4899   1.363   2.263   1.701 -0.1645 -0.0979  0.7404
 1588SOL    HW1 4900   1.284   2.246   1.751 -0.5124 -0.2874  0.1265
 1588SOL    HW2 4901   1.385   2.354   1.722 -0.9686  0.2000  0.3341
 1589SOL     OW 4902   3.114   0.973   1.344  0.2249 -0.5949 -0.2350
 1589SOL    HW1 4903   3.076   1.055   1.377 -0.0815 -1.1884  0.9349
 1589SOL    HW2 4904   3.169   0.942   1.415 -0.8432 -2.1758 -0.0565
 1590SOL     OW 4905   2.855   2.535   1.003 -0.8719  0.1469 -0.2666
 1590SOL    HW1 4906   2.896   2.471   0.945  0.3879  0.0913  0.6458
 1590SOL    HW2 4907   2.768   2.549   0.966 -0.7298 -1.1898 -1.1578
 1591SOL     OW 4908   0.189   2.382   0.874 -0.2093 -0.0759 -0.6275
 1591SOL    HW1 4909   0.116   2.359   0.932 -1.6732 -0.8566 -2.6626
 1591SOL    HW2 4910   0.196   2.477   0.880 -3.0043  0.3243 -2.0763
 1592SOL     OW 4911   1.382   0.827   3.011  0.0982  0.4467  0.5598
 1592SOL    HW1 4912   1.362   0.916   2.983  3.2245  1.2884  0.7130
 1592SOL    HW2 4913   1.477   0.823   3.016  0.1893 -3.3214 -0.7148
 1593SOL     OW 4914   3.174   3.639   3.016  0.2427 -0.1790 -0.1117
 1593SOL    HW1 4915   3.124   3.609   2.940  0.7437  0.1662 -0.5844
 1593SOL    HW2 4916   3.211   3.723   2.988 -2.2135  1.6365  1.6106
 1594SOL     OW 4917   2.302   1.117   1.133  0.6660  0.5167  0.8905
 1594SOL    HW1 4918   2.230   1.082   1.187  0.9051  0.7090  1.3360
 1594SOL    HW2 4919   2.381   1.092   1.180  0.9068  0.0735  0.2637
 1595SOL     OW 4920   0.093   0.042   1.414  0.4328  0.5500 -0.1476
 1595SOL    HW1 4921   0.013   0.031   1.364  1.3654  0.6881 -1.7586
 1595SOL    HW2 4922   0.134   0.120   1.377  1.2611  0.5516  0.7192
 1596SOL     OW 4923   2.327   1.322   2.680 -0.0715 -0.2797  0.2651
 1596SOL    HW1 4924   2.275   1.269   2.740  0.5518 -0.0162  1.0583
 1596SOL    HW2 4925   2.296   1.297   2.593 -1.1106 -0.5365  0.6995
 1597SOL     OW 4926   1.081   1.335   3.124 -0.7840  0.1461  0.3746
 1597SOL    HW1 4927   1.021   1.409   3.129 -0.2437  0.7572 -1.4301
 1597SOL    HW2 4928   1.156   1.368   3.073 -0.5255 -1.6106 -0.4598
 1598SOL     OW 4929   3.430   3.469   0.412  0.9944 -0.3364 -0.1156
 1598SOL    HW1 4930   3.435   3.555   0.372  0.8145 -0.5262 -0.5551
 1598SOL    HW2 4931   3.500   3.419   0.371  0.1214 -0.8579 -1.0139
 1599SOL     OW 4932   2.706   0.036   1.657 -0.0330 -0.3451 -0.2783
 1599SOL    HW1 4933   2.782   0.025   1.599  0.7760  0.5186  0.5861
 1599SOL    HW2 4934   2.743   0.067   1.739 -1.1725 -1.5112  0.7085
 1600SOL     OW 4935   1.951   3.282   3.148 -0.2299  0.1369 -0.0658
 1600SOL    HW1 4936   1.933   3.329   3.066  0.1596 -0.2387 -0.3704
 1600SOL    HW2 4937   2.008   3.341   3.197 -1.5911  0.9965  0.5685
 1601SOL     OW 4938   2.471   0.018   3.751 -0.1809 -0.0208  0.0449
 1601SOL    HW1 4939   2.541   0.073   3.713 -0.2876 -0.9899 -1.6332
 1601SOL    HW2 4940   2.395   0.034   3.695 -0.1153 -2.1262 -0.7188
 1602SOL     OW 4941   1.347   2.245   0.121 -0.2290  0.5644  0.2902
 1602SOL    HW1 4942   1.437   2.248   0.089 -0.8091 -0.5277 -1.5958
 1602SOL    HW2 4943   1.318   2.336   0.120  0.5750  0.8263  0.1219
 1603SOL     OW 4944   0.373   0.239   0.696 -0.0637 -0.9545 -0.5705
 1603SOL    HW1 4945   0.423   0.158   0.704  2.0283  0.3887  1.3077
 1603SOL    HW2 4946   0.322   0.245   0.777 -2.3981 -1.6483 -1.8902
 1604SOL     OW 4947   1.016   0.903   2.374  0.1233 -0.2558  0.0499
 1604SOL    HW1 4948   0.922   0.892   2.382  0.2683 -0.5356  1.8147
 1604SOL    HW2 4949   1.052   0.815   2.387  0.6816  0.0992  1.0454
 1605SOL     OW 4950   3.295   3.353   0.128 -0.5775 -0.0368 -0.0357
 1605SOL    HW1 4951   3.364   3.289   0.109 -0.8322  0.1284 -1.6903
 1605SOL    HW2 4952   3.216   3.313   0.091 -0.8708  0.9043 -0.4459
 1606SOL     OW 4953   3.002   1.098   1.642 -0.2306 -0.4694 -0.4610
 1606SOL    HW1 4954   2.939   1.151   1.692 -0.2275 -1.8814  1.1111
 1606SOL    HW2 4955   3.086   1.138   1.661 -0.4545  0.4537 -1.2995
 1607SOL     OW 4956   3.179   1.394   0.051  0.1548  0.1315 -0.4783
 1607SOL    HW1 4957   3.189   1.354  -0.035 -2.8066 -3.3811  0.5953
 1607SOL    HW2 4958   3.243   1.349   0.106  0.1991  0.4336 -0.2802
 1608SOL     OW 4959   3.688   0.242   2.873  0.3040 -0.0127 -0.3375
 1608SOL    HW1 4960   3.599   0.210   2.886  0.8707 -2.3945 -1.8542
 1608SOL    HW2 4961   3.693   0.264   2.780  1.1328  0.7201 -0.1375
 1609SOL     OW 4962   2.596   2.269   2.420  0.0816  0.0587  0.1645
 1609SOL    HW1 4963   2.546   2.234   2.346  0.0435 -0.3900  0.3994
 1609SOL    HW2 4964   2.547   2.347   2.448 -1.3014 -1.1561  1.2954
 1610SOL     OW 4965   2.676   2.443   1.408 -0.1378 -0.2206  0.1059
 1610SOL    HW1 4966   2.618   2.397   1.347 -0.4910  1.3762 -0.8385
 1610SOL    HW2 4967   2.620   2.506   1.453  0.5112  0.0552  0.5592
 1611SOL     OW 4968   2.314   0.735   2.510  0.0704  0.0841 -0.3074
 1611SOL    HW1 4969   2.368   0.677   2.563 -0.5387  1.6985  2.2999
 1611SOL    HW2 4970   2.329   0.708   2.420 -0.3368 -4.1970  0.7153
 1612SOL     OW 4971   2.160   1.856   2.808  0.4715 -0.1621  0.3980
 1612SOL    HW1 4972   2.090   1.826   2.749  1.1010 -0.5809 -0.1549
 1612SOL    HW2 4973   2.222   1.901   2.750 -0.1303  1.6514  1.1236
 1613SOL     OW 4974   2.752   2.103   2.978  0.0249  0.6174 -0.1500
 1613SOL    HW1 4975   2.793   2.180   2.939 -3.2456  1.3080 -2.6663
 1613SOL    HW2 4976   2.783   2.030   2.924  0.3196  0.6751 -0.0612
 1614SOL     OW 4977   2.668   0.472   2.344 -0.3624  0.5022  0.2143
 1614SOL    HW1 4978   2.717   0.391   2.359 -1.0846  0.1849  0.9612
 1614SOL    HW2 4979   2.728   0.528   2.296  0.1583 -0.4689 -0.2901
 1615SOL     OW 4980   1.128   1.077   3.632  0.7245 -0.6445 -0.0029
 1615SOL    HW1 4981   1.120   1.047   3.723  0.0055  0.0489  0.1743
 1615SOL    HW2 4982   1.168   1.164   3.639  0.7868 -0.6442 -0.3613
 1616SOL     OW 4983   3.439   3.718   0.906 -0.7825 -0.1659 -0.1585
 1616SOL    HW1 4984   3.500   3.764   0.963  0.7748  0.9016 -2.5094
 1616SOL    HW2 4985   3.384   3.667   0.965 -0.2367  1.9483  2.3448
 1617SOL     OW 4986   1.472   3.385   1.372 -0.2145 -0.0636  0.2362
 1617SOL    HW1 4987   1.542   3.450   1.365 -0.2475  0.0106  0.5527
 1617SOL    HW2 4988   1.497   3.316   1.311 -0.1413  0.2121 -0.0508
 1618SOL     OW 4989   1.814   0.542   3.550  0.0623 -0.4226 -0.0358
 1618SOL    HW1 4990   1.735   0.591   3.571  0.7906  1.4495 -1.3650
 1618SOL    HW2 4991   1.876   0.609   3.520  1.4852 -2.0527 -0.9016
 1619SOL     OW 4992   1.254   1.204   2.364 -0.3277 -0.2557  0.5783
 1619SOL    HW1 4993   1.286   1.289   2.393 -0.6135 -0.1841  0.6819
 1619SOL    HW2 4994   1.250   1.151   2.443 -3.2817  0.6106  1.1254
 1620SOL     OW 4995   0.555   1.878   1.747 -0.2489  0.3257  0.6745
 1620SOL    HW1 4996   0.513   1.864   1.831 -0.9447 -0.9270  0.1413
 1620SOL    HW2 4997   0.590   1.792   1.723 -1.7086  0.1797 -1.1696
 1621SOL     OW 4998   3.270   0.162   3.650 -0.0704  0.2364  0.0028
 1621SOL    HW1 4999   3.340   0.186   3.590 -0.7233 -0.1177 -0.9149
 1621SOL    HW2 5000   3.189   0.177   3.601 -0.5541 -2.7216 -0.2822
 1622SOL     OW 5001   2.134   1.535   0.519 -0.1481  0.1492  0.5702
 1622SOL    HW1 5002   2.216   1.530   0.569  0.1388  0.4257  0.1293
 1622SOL    HW2 5003   2.157   1.501   0.433 -0.3949  0.6152  0.3179
 1623SOL     OW 5004   2.006   1.877   1.173  0.4211 -0.3123 -0.2553
 1623SOL    HW1 5005   2.066   1.877   1.098  2.6842 -0.6699  1.4786
 1623SOL    HW2 5006   2.056   1.915   1.245 -0.9966 -1.7827  1.6174
 1624SOL     OW 5007   2.197   0.108   1.444  0.1638  0.5086  0.1130
 1624SOL    HW1 5008   2.139   0.105   1.521  1.2723  0.4906  0.9635
 1624SOL    HW2 5009   2.137   0.110   1.369 -0.9671 -1.9335  0.8417
 1625SOL     OW 5010   3.251   2.964   0.361 -0.0391  0.5206 -0.3495
 1625SOL    HW1 5011   3.323   2.988   0.419  0.4042  2.4293 -1.5996
 1625SOL    HW2 5012   3.276   2.880   0.324  0.9780  0.6013  0.1235
 1626SOL     OW 5013   3.008   2.750   1.919  0.2441 -0.4507  0.1555
 1626SOL    HW1 5014   3.096   2.721   1.896 -0.1870 -2.9415  1.4117
 1626SOL    HW2 5015   2.954   2.672   1.912 -1.9063  1.0051 -0.5240
 1627SOL     OW 5016   3.159   0.611   1.346 -0.7870  0.2936 -0.3959
 1627SOL    HW1 5017   3.225   0.559   1.393  0.2831  1.2364 -0.7960
 1627SOL    HW2 5018   3.089   0.623   1.410 -1.4886 -2.3048 -0.5537
 1628SOL     OW 5019   0.055   2.160   1.742 -0.0155 -0.3301  0.3695
 1628SOL    HW1 5020  -0.013   2.122   1.687 -1.2058  0.8546  0.9796
 1628SOL    HW2 5021   0.070   2.095   1.810 -1.2215 -0.1949  0.7695
 1629SOL     OW 5022   0.248   1.914   1.521  0.4808  0.6548 -0.0706
 1629SOL    HW1 5023   0.158   1.887   1.541  1.1377 -0.5739  1.4417
 1629SOL    HW2 5024   0.248   2.009   1.533 -0.9212  0.8734 -1.4472
 1630SOL     OW 5025   0.236   0.355   2.666 -0.6804  0.3383  0.4590
 1630SOL    HW1 5026   0.254   0.277   2.614 -2.5839 -0.8480  1.4293
 1630SOL    HW2 5027   0.227   0.323   2.756 -0.6961  1.8069  1.0193
 1631SOL     OW 5028   1.470   3.685   0.589 -0.1981 -0.1449  0.4319
 1631SOL    HW1 5029   1.434   3.772   0.571 -0.9101 -0.8573 -1.9988
 1631SOL    HW2 5030   1.513   3.660   0.508  1.5472 -1.3913  1.6706
 1632SOL     OW 5031   2.343   2.453   2.718  0.0008 -0.4811 -0.3559
 1632SOL    HW1 5032   2.309   2.487   2.801 -1.4573 -1.0464 -0.6972
 1632SOL    HW2 5033   2.407   2.519   2.690  0.2437 -0.0960  1.0222
 1633SOL     OW 5034   3.520   1.871   1.817 -0.5162  0.2504 -1.0571
 1633SOL    HW1 5035   3.449   1.808   1.826  0.3490 -0.7953 -1.4521
 1633SOL    HW2 5036   3.594   1.831   1.864 -0.2214  1.4020 -0.4915
 1634SOL     OW 5037   3.697   1.192   1.512 -0.0295 -0.0986 -0.1966
 1634SOL    HW1 5038   3.609   1.165   1.490  0.0768  0.5002 -1.4803
 1634SOL    HW2 5039   3.746   1.111   1.522 -0.4242 -0.4274 -0.8513
 1635SOL     OW 5040   1.492   2.028   0.458 -0.2241 -0.0978  0.0836
 1635SOL    HW1 5041   1.556   2.035   0.387 -2.3828 -0.3828 -2.0043
 1635SOL    HW2 5042   1.525   1.956   0.512  0.5548 -1.1401 -1.6760
 1636SOL     OW 5043   0.873   1.283   0.592 -0.1306  1.0265 -0.0563
 1636SOL    HW1 5044   0.964   1.252   0.590 -0.0080  1.2390  1.0792
 1636SOL    HW2 5045   0.867   1.345   0.520  0.4230  0.4669 -0.5945
 1637SOL     OW 5046   3.555   3.423   1.122 -0.0548  0.8539  0.0298
 1637SOL    HW1 5047   3.582   3.343   1.168  0.8351 -0.0430 -1.9530
 1637SOL    HW2 5048   3.460   3.414   1.114  0.2059 -1.1144 -1.9726
 1638SOL     OW 5049   1.018  -0.027   0.187 -0.1324  0.6818 -0.1388
 1638SOL    HW1 5050   1.025   0.024   0.268 -0.5459  2.4306 -1.1477
 1638SOL    HW2 5051   0.969   0.030   0.127  2.6798  0.7595 -2.6211
 1639SOL     OW 5052   0.912   2.183   0.673  0.1351 -0.1871  0.9911
 1639SOL    HW1 5053   0.955   2.101   0.699  0.3901 -0.5961 -0.6411
 1639SOL    HW2 5054   0.956   2.250   0.726  1.4808 -0.8409  0.7515
 1640SOL     OW 5055   2.791   1.616   1.661  0.8848 -0.4273 -0.3150
 1640SOL    HW1 5056   2.883   1.616   1.686  0.3238  3.0666  2.7690
 1640SOL    HW2 5057   2.781   1.694   1.606 -0.4353  0.4338  1.0342
 1641SOL     OW 5058   1.431   0.318   1.184  0.6266 -0.1011 -0.3057
 1641SOL    HW1 5059   1.369   0.342   1.115 -0.6912 -2.3357  0.0075
 1641SOL    HW2 5060   1.384   0.334   1.265  0.5235 -1.5113 -0.0570
 1642SOL     OW 5061   2.957   2.863   2.215 -0.3477 -0.2554  0.0895
 1642SOL    HW1 5062   2.915   2.857   2.129 -0.6057 -1.2993  0.2792
 1642SOL    HW2 5063   2.908   2.931   2.260 -0.4188  0.0753 -0.4753
 1643SOL     OW 5064   3.235   1.650   0.300  0.0912 -0.1459 -0.2696
 1643SOL    HW1 5065   3.296   1.724   0.300  0.1343 -0.1769  0.5173
 1643SOL    HW2 5066   3.291   1.573   0.311 -0.1757 -0.0737  2.0783
 1644SOL     OW 5067   0.506   0.855   3.257  0.0560  0.0664 -0.3434
 1644SOL    HW1 5068   0.598   0.835   3.243  0.4170 -0.0340  1.8790
 1644SOL    HW2 5069   0.506   0.929   3.317 -1.3174  0.1718 -0.4412
 1645SOL     OW 5070   3.643   3.327   0.275 -0.3104 -0.4891 -0.5597
 1645SOL    HW1 5071   3.730   3.308   0.240 -0.2291 -2.9969  0.7675
 1645SOL    HW2 5072   3.589   3.253   0.249 -1.8924  0.6670 -0.7374
 1646SOL     OW 5073   1.596   3.418   0.344 -0.5695  0.5933  0.1211
 1646SOL    HW1 5074   1.661   3.436   0.277  0.4314 -1.3580  0.4946
 1646SOL    HW2 5075   1.532   3.361   0.301  0.0566 -0.6378  0.7812
 1647SOL     OW 5076   0.874   1.105   1.655 -0.1784  0.1472  0.2974
 1647SOL    HW1 5077   0.794   1.111   1.708 -0.1209  0.8806  0.3109
 1647SOL    HW2 5078   0.858   1.163   1.581  1.1233  1.9707  1.3425
 1648SOL     OW 5079   3.537   0.497   0.318  0.4452  0.0301  0.3672
 1648SOL    HW1 5080   3.482   0.424   0.291  0.3157  0.4842 -0.6113
 1648SOL    HW2 5081   3.511   0.514   0.409 -0.6514 -0.1122  0.0901
 1649SOL     OW 5082   2.670   3.348   1.388  0.1971 -0.2012 -0.3851
 1649SOL    HW1 5083   2.629   3.380   1.469  2.1014  3.3139 -0.6118
 1649SOL    HW2 5084   2.596   3.318   1.335 -1.1782 -1.9443  2.3027
 1650SOL     OW 5085   0.229   0.022   3.200  0.1426 -0.6262 -0.3175
 1650SOL    HW1 5086   0.153   0.039   3.145  0.7972  1.6443 -0.6186
 1650SOL    HW2 5087   0.296  -0.010   3.140 -0.0071 -0.8539 -0.3635
 1651SOL     OW 5088   1.262   1.822   3.493  0.3586 -0.4321  0.1326
 1651SOL    HW1 5089   1.303   1.812   3.407  1.6830  0.6562  0.5992
 1651SOL    HW2 5090   1.322   1.776   3.553 -0.0908 -0.4217  0.5942
 1652SOL     OW 5091   0.750   3.537   1.638  0.5607 -0.4526 -0.7238
 1652SOL    HW1 5092   0.832   3.554   1.685  0.1899  0.8390 -0.5166
 1652SOL    HW2 5093   0.759   3.587   1.557  0.4450 -1.2326 -1.2266
 1653SOL     OW 5094   3.460   0.162   2.748 -0.4126 -0.0531 -1.0801
 1653SOL    HW1 5095   3.373   0.172   2.708 -0.8015 -0.6138 -0.3911
 1653SOL    HW2 5096   3.464   0.070   2.775  0.1545  0.1230 -0.5462
 1654SOL     OW 5097   0.876   0.321   0.494 -0.0961  0.0888 -0.0611
 1654SOL    HW1 5098   0.916   0.305   0.408 -1.0509  0.5759 -0.6264
 1654SOL    HW2 5099   0.784   0.297   0.482 -0.2723  0.3120  0.7805
 1655SOL     OW 5100   0.450   0.604   1.698 -0.1184  0.1744  0.0002
 1655SOL    HW1 5101   0.542   0.609   1.722 -0.0601 -1.2340  0.1490
 1655SOL    HW2 5102   0.420   0.695   1.699  1.0140  0.5612  0.9318
 1656SOL     OW 5103   3.611   2.907   1.778 -0.6629  0.3807 -0.5168
 1656SOL    HW1 5104   3.547   2.965   1.819 -0.2949  0.2189  0.3195
 1656SOL    HW2 5105   3.560   2.834   1.744 -0.9123  0.1505  0.3196
 1657SOL     OW 5106   0.076   0.555   3.676  0.4257  0.1507 -0.1943
 1657SOL    HW1 5107   0.066   0.582   3.767 -0.8257 -0.3968 -0.1527
 1657SOL    HW2 5108   0.038   0.627   3.625 -1.4130 -0.7259 -0.1457
 1658SOL     OW 5109   2.786   2.319   0.553  0.4981 -0.7901  0.0187
 1658SOL    HW1 5110   2.736   2.316   0.472  0.0043 -1.3125  0.3400
 1658SOL    HW2 5111   2.854   2.384   0.537  0.9300 -1.4995 -1.1220
 1659SOL     OW 5112   2.978   2.491   3.212 -0.1054  0.7413  0.1648
 1659SOL    HW1 5113   2.888   2.459   3.224  0.1464 -0.1054 -0.0852
 1659SOL    HW2 5114   2.971   2.586   3.220 -0.6337  0.5629  2.5795
 1660SOL     OW 5115   0.868   0.172   0.062  0.0340  0.3929 -0.1243
 1660SOL    HW1 5116   0.922   0.213  -0.007  0.0559 -2.3681 -1.8862
 1660SOL    HW2 5117   0.782   0.162   0.022 -0.1992 -0.4426  0.5691
 1661SOL     OW 5118   1.446   0.874   0.525 -0.0777 -0.5241  0.5426
 1661SOL    HW1 5119   1.479   0.814   0.458  1.4346 -0.5355  1.2749
 1661SOL    HW2 5120   1.375   0.826   0.568  1.2616 -1.8958  1.2758
 1662SOL     OW 5121   3.560   3.379   2.160  0.1893  0.3750 -0.2558
 1662SOL    HW1 5122   3.574   3.402   2.252 -0.4049 -0.5798  0.0799
 1662SOL    HW2 5123   3.617   3.304   2.144 -1.4681 -1.0031  0.0245
 1663SOL     OW 5124   3.611   0.162   0.691 -0.3924 -1.0038  0.0073
 1663SOL    HW1 5125   3.700   0.131   0.674  0.7591  2.6033 -1.7007
 1663SOL    HW2 5126   3.588   0.125   0.776  2.2026 -3.0818 -0.0647
 1664SOL     OW 5127   2.583   2.018   1.899 -0.3891 -0.0450 -0.2008
 1664SOL    HW1 5128   2.505   2.046   1.948 -0.9656  0.6189 -1.4376
 1664SOL    HW2 5129   2.547   1.976   1.820  0.4983  0.4955 -0.9092
 1665SOL     OW 5130   0.794   1.568   2.862 -0.2768  0.5026 -0.1321
 1665SOL    HW1 5131   0.757   1.593   2.778  2.0462  1.4132 -0.9549
 1665SOL    HW2 5132   0.829   1.649   2.899 -1.1935  0.1172  1.7451
 1666SOL     OW 5133   2.415   2.227   2.198  0.0241 -0.1430 -1.0693
 1666SOL    HW1 5134   2.387   2.140   2.171  0.4005 -0.5170 -0.2753
 1666SOL    HW2 5135   2.336   2.281   2.190 -0.8817 -1.1087  0.8405
 1667SOL     OW 5136   3.102   0.631   0.798  0.3686 -0.2282  0.2484
 1667SOL    HW1 5137   3.165   0.560   0.785 -0.0214 -0.7554  1.1429
 1667SOL    HW2 5138   3.043   0.598   0.866 -0.5987  0.4395 -0.2543
 1668SOL     OW 5139   0.287   3.743   0.362  0.0153  0.1495 -0.0781
 1668SOL    HW1 5140   0.318   3.730   0.272  0.4206 -0.7202  0.1769
 1668SOL    HW2 5141   0.343   3.687   0.415 -0.8092 -0.0355  0.6205
 1669SOL     OW 5142   0.063   0.071   1.760 -0.1696 -0.1551  0.0179
 1669SOL    HW1 5143   0.115  -0.010   1.757 -1.1690 -0.7852 -1.3872
 1669SOL    HW2 5144   0.054   0.089   1.854  1.3763 -0.7880  0.3364
 1670SOL     OW 5145   0.882   2.970   3.654 -0.3296 -0.1982 -0.6009
 1670SOL    HW1 5146   0.921   3.049   3.693 -1.8990  0.0180  0.6195
 1670SOL    HW2 5147   0.890   2.983   3.560 -1.5496  1.9624 -0.4556
 1671SOL     OW 5148   2.031   0.740   0.885  0.5619 -0.3982 -0.8078
 1671SOL    HW1 5149   2.024   0.832   0.909 -2.8161 -0.7505 -0.0322
 1671SOL    HW2 5150   2.079   0.700   0.958 -0.8162  0.2450  0.5080
 1672SOL     OW 5151   1.036   1.502   1.178  0.1234  0.4373 -0.3579
 1672SOL    HW1 5152   1.101   1.452   1.228 -0.5290  0.9277  1.0146
 1672SOL    HW2 5153   1.070   1.591   1.178 -2.0871  1.4914  3.3641
 1673SOL     OW 5154   2.773   1.238   2.443 -0.3923  0.0315 -0.5005
 1673SOL    HW1 5155   2.720   1.202   2.514 -0.7350 -0.0985 -0.8167
 1673SOL    HW2 5156   2.712   1.247   2.370  0.4336 -2.1017 -1.5480
 1674SOL     OW 5157   2.933   0.128   0.050  0.2787 -0.2824  0.2642
 1674SOL    HW1 5158   2.994   0.072   0.098  0.6383 -1.1396 -1.1359
 1674SOL    HW2 5159   2.978   0.147  -0.033 -1.5801 -1.4460 -1.0694
 1675SOL     OW 5160   0.249   1.012   3.216  0.0411 -0.3765 -0.1294
 1675SOL    HW1 5161   0.272   0.999   3.309  2.1757  0.4960 -0.4859
 1675SOL    HW2 5162   0.332   1.030   3.173 -0.6935 -2.1785 -2.5135
 1676SOL     OW 5163   3.565   0.939   1.697  0.3702  0.0513  0.2447
 1676SOL    HW1 5164   3.639   0.931   1.638  0.4133  0.8890  0.1736
 1676SOL    HW2 5165   3.578   0.870   1.762  1.4399  0.4665  0.4869
 1677SOL     OW 5166   1.362   3.272   0.229  0.3863 -0.1829 -0.1397
 1677SOL    HW1 5167   1.332   3.188   0.194  2.6191 -0.6686 -1.0415
 1677SOL    HW2 5168   1.354   3.333   0.156  0.7768 -0.1191 -0.1313
 1678SOL     OW 5169   2.622   2.892   0.804 -0.0506  0.5842  0.4861
 1678SOL    HW1 5170   2.682   2.824   0.773 -0.4344  0.9323 -1.0700
 1678SOL    HW2 5171   2.646   2.970   0.756 -0.5651  1.1996  1.1994
 1679SOL     OW 5172   3.326   1.569   3.199  0.0115 -0.2623  0.3232
 1679SOL    HW1 5173   3.369   1.551   3.115 -0.2797  1.2118 -0.1676
 1679SOL    HW2 5174   3.241   1.606   3.175 -0.4033 -0.5717  1.2761
 1680SOL     OW 5175   3.167   2.038   2.497  0.7915  0.2854 -0.3131
 1680SOL    HW1 5176   3.147   2.000   2.411  0.5357  1.3096 -0.7257
 1680SOL    HW2 5177   3.083   2.042   2.541  0.5060  1.9349 -0.9414
 1681SOL     OW 5178   2.481   3.222   1.173  0.4728 -0.0479 -0.3582
 1681SOL    HW1 5179   2.390   3.252   1.168 -0.1469 -2.0130 -2.8750
 1681SOL    HW2 5180   2.482   3.163   1.249 -0.1063  0.6719  0.2274
 1682SOL     OW 5181   1.242   1.079   1.441 -0.3259  0.0516  0.6119
 1682SOL    HW1 5182   1.299   1.058   1.515 -0.2811 -0.5292  0.4133
 1682SOL    HW2 5183   1.250   1.005   1.381 -0.4599  0.4559  0.0769
 1683SOL     OW 5184   0.469   3.100   2.794 -0.4396  0.5259 -0.2748
 1683SOL    HW1 5185   0.435   3.177   2.840 -2.9826 -0.6721  0.0606
 1683SOL    HW2 5186   0.432   3.107   2.706 -0.6268 -0.2416 -0.2645
 1684SOL     OW 5187   0.668   3.264   0.354  0.2096  0.0073 -0.3459
 1684SOL    HW1 5188   0.698   3.233   0.439  0.2848  0.6393 -0.1363
 1684SOL    HW2 5189   0.700   3.355   0.349 -0.8588  0.3842 -0.5159
 1685SOL     OW 5190   0.404   1.689   3.317  0.0590  0.4178 -0.2161
 1685SOL    HW1 5191   0.444   1.745   3.383  0.0858 -0.6418  0.7021
 1685SOL    HW2 5192   0.478   1.659   3.264  0.5278 -1.2553  1.2636
 1686SOL     OW 5193   1.245   2.251   1.447 -0.3115 -0.2280 -0.2197
 1686SOL    HW1 5194   1.317   2.276   1.389 -0.6791  0.7036 -0.2820
 1686SOL    HW2 5195   1.279   2.268   1.535 -0.2130 -0.4476 -0.2131
 1687SOL     OW 5196   3.172   0.033   0.162 -0.1946 -0.2531 -0.2252
 1687SOL    HW1 5197   3.160  -0.060   0.181  1.0123 -0.4140 -0.1436
 1687SOL    HW2 5198   3.231   0.034   0.087 -0.0098  0.4470 -0.0729
 1688SOL     OW 5199   2.934   2.770   1.120 -0.5919 -0.8140 -0.4239
 1688SOL    HW1 5200   2.891   2.692   1.086 -3.1001 -0.0750  0.7740
 1688SOL    HW2 5201   2.903   2.777   1.210  0.6464  0.8339 -0.0755
 1689SOL     OW 5202   3.412   1.838   0.307 -0.1336  0.6127  0.1266
 1689SOL    HW1 5203   3.417   1.933   0.316  1.2330  0.4933  1.0465
 1689SOL    HW2 5204   3.446   1.805   0.390 -1.6990 -0.6936  0.2814
 1690SOL     OW 5205   1.049   0.648   2.563  0.5418  0.1921  0.9093
 1690SOL    HW1 5206   1.134   0.641   2.607  0.9161 -0.2892  0.1198
 1690SOL    HW2 5207   1.022   0.557   2.548  0.9541  0.3255 -0.8561
 1691SOL     OW 5208   3.178   1.327   0.891  0.5065 -0.1265 -0.1603
 1691SOL    HW1 5209   3.101   1.323   0.947  0.0393 -1.2895 -0.8655
 1691SOL    HW2 5210   3.151   1.286   0.809  1.1230  1.6745 -1.3373
 1692SOL     OW 5211   3.320   1.745   1.529  0.0719 -0.0971  0.5955
 1692SOL    HW1 5212   3.235   1.711   1.501  1.0789 -1.8377 -0.5009
 1692SOL    HW2 5213   3.310   1.761   1.623 -1.5804  0.1441  0.4070
 1693SOL     OW 5214   1.139   2.885   2.473  0.2831 -0.4375 -0.6118
 1693SOL    HW1 5215   1.122   2.911   2.563 -0.7924 -0.6293 -0.7447
 1693SOL    HW2 5216   1.056   2.898   2.428  0.7488 -0.5421 -1.5309
 1694SOL     OW 5217   0.588   1.206   0.618 -0.4729 -0.0606  0.7872
 1694SOL    HW1 5218   0.658   1.256   0.575 -2.5476  1.1025 -1.4911
 1694SOL    HW2 5219   0.634   1.138   0.667  2.2326 -0.1719 -1.6275
 1695SOL     OW 5220   1.522   3.684   0.864 -0.0947  0.1671  0.2575
 1695SOL    HW1 5221   1.540   3.590   0.865  1.0004  0.3245 -1.1640
 1695SOL    HW2 5222   1.473   3.698   0.782 -1.0619  0.7213  0.9066
 1696SOL     OW 5223   1.969   0.172   2.455 -0.8965 -0.5988  0.5656
 1696SOL    HW1 5224   1.962   0.254   2.504  0.0179  0.1538 -0.4966
 1696SOL    HW2 5225   1.879   0.148   2.434 -1.1973 -0.0832  1.2500
 1697SOL     OW 5226   1.503   0.422   0.440  0.2299 -0.0066 -0.1474
 1697SOL    HW1 5227   1.550   0.358   0.494 -0.3747 -1.0266 -0.8133
 1697SOL    HW2 5228   1.568   0.449   0.374  1.0015  1.3124  1.0855
 1698SOL     OW 5229   0.697   1.225   0.303  0.0480  0.7073 -0.1767
 1698SOL    HW1 5230   0.770   1.168   0.281 -0.1844  0.2729  0.1558
 1698SOL    HW2 5231   0.627   1.165   0.328 -1.0306  1.0328 -2.2045
 1699SOL     OW 5232   2.933   3.498   0.099  0.9454 -0.0065  0.0353
 1699SOL    HW1 5233   2.865   3.536   0.155  0.0762 -0.1268 -0.9143
 1699SOL    HW2 5234   2.896   3.501   0.011  2.3146  0.2232 -0.5548
 1700SOL     OW 5235   2.599   0.967   0.527 -0.5936  0.8337 -0.1396
 1700SOL    HW1 5236   2.571   0.876   0.521  0.5851  0.3687  0.9712
 1700SOL    HW2 5237   2.551   1.002   0.602  0.8197  0.3692  1.0290
 1701SOL     OW 5238   3.682   2.150   0.623 -0.0588 -0.6666 -0.0374
 1701SOL    HW1 5239   3.760   2.187   0.583 -0.0413 -1.7476 -1.0304
 1701SOL    HW2 5240   3.617   2.221   0.620 -0.3628 -0.9623 -2.8831
 1702SOL     OW 5241   3.477   2.780   2.455  0.0263 -0.4601 -0.0922
 1702SOL    HW1 5242   3.453   2.789   2.363  0.5337 -0.8651 -0.2734
 1702SOL    HW2 5243   3.499   2.687   2.464  2.1159 -0.0138 -0.1120
 1703SOL     OW 5244   1.791   2.902   0.480 -0.4561  0.2320  0.2298
 1703SOL    HW1 5245   1.883   2.888   0.504 -0.2498  0.2209 -0.5520
 1703SOL    HW2 5246   1.742   2.868   0.555  0.1205 -1.9639 -0.2899
 1704SOL     OW 5247   1.251   1.744   0.435  0.3805 -0.8252 -0.1106
 1704SOL    HW1 5248   1.212   1.830   0.422 -0.0696 -1.0120 -0.0264
 1704SOL    HW2 5249   1.205   1.687   0.373 -1.0673 -1.5113  1.5135
 1705SOL     OW 5250   2.296   1.992   2.077  0.0743  0.8810  0.4855
 1705SOL    HW1 5251   2.322   1.925   2.140 -1.3176  1.3788  1.6478
 1705SOL    HW2 5252   2.278   1.944   1.997  0.3611  0.0280  0.9192
 1706SOL     OW 5253   2.200   0.153   1.091  0.1036 -0.0032 -0.1160
 1706SOL    HW1 5254   2.133   0.129   1.155  1.4286 -0.4694  1.1494
 1706SOL    HW2 5255   2.268   0.086   1.101  1.7542  1.6410  0.1998
 1707SOL     OW 5256   0.604   1.984   3.263  0.6604 -0.8570  0.4925
 1707SOL    HW1 5257   0.646   1.915   3.314 -1.9919 -3.3675 -0.4450
 1707SOL    HW2 5258   0.607   2.061   3.320  3.3474 -1.7843  1.7719
 1708SOL     OW 5259   1.938   3.215   2.097 -0.1004 -0.1819  0.1022
 1708SOL    HW1 5260   1.984   3.162   2.032  1.8143  2.4282 -0.8479
 1708SOL    HW2 5261   1.848   3.217   2.066  0.3880 -0.5098 -1.4455
 1709SOL     OW 5262   2.453   3.381   1.928  0.4566 -0.4289  0.3292
 1709SOL    HW1 5263   2.516   3.450   1.909  0.6297 -0.4029  0.9607
 1709SOL    HW2 5264   2.491   3.334   2.002 -0.5931  0.0303  1.1824
 1710SOL     OW 5265   2.306   1.957   0.109 -0.4517 -0.0464  0.2212
 1710SOL    HW1 5266   2.297   1.892   0.178 -0.5285  0.6447  0.8797
 1710SOL    HW2 5267   2.399   1.981   0.112 -0.2743 -0.6036 -0.4760
 1711SOL     OW 5268   0.518   0.455   0.594 -0.1922  0.6106 -0.1235
 1711SOL    HW1 5269   0.482   0.381   0.643  1.5459 -0.1173  0.1556
 1711SOL    HW2 5270   0.449   0.479   0.532 -0.6024 -1.6362 -0.6148
 1712SOL     OW 5271   0.126   3.593   2.455  0.2143 -0.1606  0.0169
 1712SOL    HW1 5272   0.144   3.677   2.413  2.5150 -1.3794 -1.6831
 1712SOL    HW2 5273   0.160   3.602   2.544 -1.4268  1.3115  0.5385
 1713SOL     OW 5274   1.497   1.206   3.490 -0.4927  0.5547  0.0715
 1713SOL    HW1 5275   1.466   1.180   3.577  1.0104  2.6326  1.3173
 1713SOL    HW2 5276   1.437   1.162   3.430 -1.2188 -1.4643  2.0982
 1714SOL     OW 5277   1.385   2.686   2.246  0.9071  0.5231  0.2561
 1714SOL    HW1 5278   1.453   2.654   2.187  0.6048 -0.4360  0.4148
 1714SOL    HW2 5279   1.367   2.613   2.304  0.0611  0.9169  0.5071
 1715SOL     OW 5280   2.614   1.145   0.997 -0.2164  0.6406 -0.6778
 1715SOL    HW1 5281   2.578   1.218   1.048 -0.3635 -0.4286  0.8100
 1715SOL    HW2 5282   2.537   1.102   0.959 -0.2962  0.1007  0.0786
 1716SOL     OW 5283   3.350   0.248   0.385  0.1101 -0.3728 -0.5068
 1716SOL    HW1 5284   3.368   0.261   0.292 -1.0818 -1.1442 -0.8739
 1716SOL    HW2 5285   3.340   0.153   0.395 -1.9204 -0.1754 -0.0514
 1717SOL     OW 5286   3.224   2.660   0.485 -0.4614  0.1455  0.2709
 1717SOL    HW1 5287   3.269   2.694   0.562 -0.1955 -0.3617  0.3458
 1717SOL    HW2 5288   3.278   2.688   0.411 -0.8747  0.8885  0.2358
 1718SOL     OW 5289   0.037   3.447   1.657 -0.4900 -0.6779 -0.7246
 1718SOL    HW1 5290  -0.057   3.463   1.649 -0.8328 -2.6273 -0.9067
 1718SOL    HW2 5291   0.070   3.455   1.567 -0.4042  0.2531 -0.6277
 1719SOL     OW 5292   1.164   2.283   3.476  0.1856  0.4468 -0.4854
 1719SOL    HW1 5293   1.236   2.342   3.497  0.8532  0.5044 -2.6785
 1719SOL    HW2 5294   1.085   2.334   3.493  0.5082  0.0915  2.8142
 1720SOL     OW 5295   3.369   1.608   3.703 -0.4273  0.3927 -0.3629
 1720SOL    HW1 5296   3.411   1.527   3.730  0.7048  1.4680  1.3573
 1720SOL    HW2 5297   3.397   1.620   3.612 -2.1036 -1.9890 -1.2824
 1721SOL     OW 5298   1.267   0.502   0.994  0.2877  0.6339  0.4793
 1721SOL    HW1 5299   1.212   0.425   1.004  0.2842  0.6846  0.8908
 1721SOL    HW2 5300   1.213   0.564   0.944  0.7688 -0.0898 -0.9878
 1722SOL     OW 5301   2.975   1.327   1.063 -0.0041 -0.4866 -0.0375
 1722SOL    HW1 5302   3.049   1.346   1.121  0.8803  0.0762 -1.3193
 1722SOL    HW2 5303   2.938   1.413   1.042 -0.2462 -0.6810 -0.4150
 1723SOL     OW 5304   0.753   2.877   2.810 -0.2554  0.0583  0.2967
 1723SOL    HW1 5305   0.820   2.943   2.828 -0.6974  0.0094  2.3380
 1723SOL    HW2 5306   0.697   2.918   2.743  1.1106  0.5485 -0.5921
 1724SOL     OW 5307   1.232   3.698   2.664  0.2534 -0.1479  0.0296
 1724SOL    HW1 5308   1.191   3.688   2.578 -0.5805 -0.4712  0.4548
 1724SOL    HW2 5309   1.220   3.613   2.706  3.8564 -1.2470 -0.8626
 1725SOL     OW 5310   2.466   0.473   2.159 -0.3863 -0.2221 -0.1316
 1725SOL    HW1 5311   2.420   0.549   2.194  0.0861 -0.2420  0.5578
 1725SOL    HW2 5312   2.531   0.452   2.227 -1.4765 -2.1454  0.3850
 1726SOL     OW 5313   0.927   3.592   2.264  0.5960  0.5967  0.0261
 1726SOL    HW1 5314   0.987   3.519   2.246 -0.8183 -0.2328 -1.6777
 1726SOL    HW2 5315   0.919   3.593   2.360  1.5409 -0.7308  0.1562
 1727SOL     OW 5316   1.400   0.481   1.462  0.1118 -0.4008  0.1055
 1727SOL    HW1 5317   1.369   0.515   1.378 -1.4345 -1.3295  0.2663
 1727SOL    HW2 5318   1.455   0.552   1.498 -0.3168  0.5547 -1.0571
 1728SOL     OW 5319   3.074   0.898   0.697  0.6463  0.0575  0.1603
 1728SOL    HW1 5320   3.114   0.815   0.723  1.7863  0.5559  0.0490
 1728SOL    HW2 5321   2.979   0.881   0.700  0.8572 -1.2102  0.2259
 1729SOL     OW 5322   1.202   3.199   2.852  0.1675 -0.3369 -0.5034
 1729SOL    HW1 5323   1.178   3.118   2.897 -0.5201 -0.5371 -1.2194
 1729SOL    HW2 5324   1.252   3.171   2.776 -1.7183 -0.2403 -1.8407
 1730SOL     OW 5325   2.808   3.410   3.364 -0.4621 -0.0634  0.4335
 1730SOL    HW1 5326   2.874   3.479   3.368 -0.2098 -0.3450  1.3104
 1730SOL    HW2 5327   2.789   3.388   3.455  0.8649 -2.4488  0.2344
 1731SOL     OW 5328   2.128   0.971   3.281 -0.2198 -0.2963 -0.0708
 1731SOL    HW1 5329   2.170   0.999   3.363  0.5302 -0.5465 -0.3609
 1731SOL    HW2 5330   2.116   1.052   3.232 -0.9260 -0.1096  0.3953
 1732SOL     OW 5331   1.736   2.263   2.054 -0.2293  0.2986  0.3359
 1732SOL    HW1 5332   1.760   2.312   1.976 -0.0596  0.3205  0.3998
 1732SOL    HW2 5333   1.641   2.258   2.052 -0.3392  1.5981  0.8975
 1733SOL     OW 5334   1.112   3.583   2.021  0.0301  0.6593  0.3035
 1733SOL    HW1 5335   1.037   3.617   2.069  0.1813  1.0138  0.2868
 1733SOL    HW2 5336   1.129   3.497   2.060  0.7153  1.3199  1.5009
 1734SOL     OW 5337   3.438   3.638   2.881  0.2148  0.3233  0.3972
 1734SOL    HW1 5338   3.445   3.662   2.973  3.0885  0.3967  0.2546
 1734SOL    HW2 5339   3.411   3.546   2.882 -2.6738  1.0950  1.1522
 1735SOL     OW 5340   0.162   1.977   1.917 -0.6290  0.7705  0.1601
 1735SOL    HW1 5341   0.181   1.884   1.906 -0.4859  0.6475  1.3375
 1735SOL    HW2 5342   0.108   1.981   1.995 -2.1326  1.5194 -0.8797
 1736SOL     OW 5343   2.910   3.502   2.031 -0.6422 -0.2158  0.3963
 1736SOL    HW1 5344   2.921   3.469   2.120  0.8325 -1.6771 -0.2724
 1736SOL    HW2 5345   2.994   3.545   2.011 -1.2226  0.7479 -0.0450
 1737SOL     OW 5346   2.401   0.175   3.175 -0.4637 -0.0806 -0.0511
 1737SOL    HW1 5347   2.391   0.107   3.108  1.9269  1.1544 -1.8361
 1737SOL    HW2 5348   2.387   0.257   3.128  1.8850  0.8622  0.7110
 1738SOL     OW 5349   0.678   0.869   0.090  0.0893  0.4233 -0.3466
 1738SOL    HW1 5350   0.656   0.787   0.133 -2.4432 -0.3411 -2.7857
 1738SOL    HW2 5351   0.616   0.932   0.125 -0.1616  0.4595 -0.8414
 1739SOL     OW 5352   3.252   0.804   2.910 -0.1503 -0.6159  0.2198
 1739SOL    HW1 5353   3.334   0.755   2.902 -0.3764 -0.9751  0.0652
 1739SOL    HW2 5354   3.188   0.750   2.864 -0.0891  0.6143 -1.4093
 1740SOL     OW 5355   3.237   2.512   0.761 -0.0786 -0.0100 -0.1115
 1740SOL    HW1 5356   3.296   2.550   0.826  0.1567  1.3239 -1.0762
 1740SOL    HW2 5357   3.174   2.581   0.742  0.6530  0.1277 -2.2641
 1741SOL     OW 5358   3.252   0.472   3.356 -0.6998  0.3203  0.1367
 1741SOL    HW1 5359   3.281   0.562   3.369  1.5862 -0.2121 -0.7500
 1741SOL    HW2 5360   3.257   0.458   3.261  0.8076 -1.2378  0.3799
 1742SOL     OW 5361   1.878   2.040   2.715 -0.2606  0.1845 -0.7721
 1742SOL    HW1 5362   1.876   2.125   2.672 -2.3734  0.8186  0.4715
 1742SOL    HW2 5363   1.809   1.989   2.672  1.1584 -1.0655 -1.6993
 1743SOL     OW 5364   2.911   2.026   0.542 -0.1624  0.1469 -0.1980
 1743SOL    HW1 5365   2.924   2.096   0.477 -0.9609  1.2765  0.8133
 1743SOL    HW2 5366   2.967   1.955   0.512  0.0372  0.9044 -1.7318
 1744SOL     OW 5367   0.665   3.454   2.756 -0.5515  0.0909  0.3867
 1744SOL    HW1 5368   0.687   3.452   2.849 -1.7982 -1.0436  0.6797
 1744SOL    HW2 5369   0.576   3.488   2.753  0.3073  2.5395 -0.6181
 1745SOL     OW 5370   0.231   0.176   3.466  0.1862  0.3746 -0.1511
 1745SOL    HW1 5371   0.315   0.147   3.430  0.3564  1.0365 -0.3045
 1745SOL    HW2 5372   0.186   0.216   3.391 -0.5589 -0.5880 -0.2322
 1746SOL     OW 5373   1.129   3.358   1.247  0.0783  0.0101  0.4505
 1746SOL    HW1 5374   1.158   3.333   1.335 -0.1030 -0.0839  0.4847
 1746SOL    HW2 5375   1.173   3.297   1.188 -0.0117 -0.1004  0.4980
 1747SOL     OW 5376   2.483   2.765   0.575  0.2624  0.1327  0.0000
 1747SOL    HW1 5377   2.577   2.754   0.591  0.4935  0.5393 -0.9866
 1747SOL    HW2 5378   2.468   2.859   0.584 -0.0785  0.0508  0.2881
 1748SOL     OW 5379   2.241   2.292   0.499  0.6768 -0.6252  0.0049
 1748SOL    HW1 5380   2.149   2.303   0.476  0.7400 -1.0232 -0.4602
 1748SOL    HW2 5381   2.264   2.204   0.467  0.7796 -1.2001  1.6046
 1749SOL     OW 5382   3.523   2.543   1.385 -0.6031 -0.4028  0.5725
 1749SOL    HW1 5383   3.550   2.596   1.310 -0.1848 -1.4037 -0.0060
 1749SOL    HW2 5384   3.481   2.466   1.346 -0.7104 -0.7613  1.3780
 1750SOL     OW 5385   1.642   3.201   1.539  0.1568 -0.4752  0.2059
 1750SOL    HW1 5386   1.634   3.167   1.450 -1.9010  2.0401 -0.6852
 1750SOL    HW2 5387   1.734   3.227   1.546  0.2599 -0.3120 -1.3520
 1751SOL     OW 5388   1.994   0.751   3.485 -0.2217  0.4145  0.2493
 1751SOL    HW1 5389   2.069   0.801   3.518 -0.2517  1.0799 -0.6579
 1751SOL    HW2 5390   1.964   0.801   3.409 -1.0310 -0.3303  0.0720
 1752SOL     OW 5391   2.138   0.411   2.618  0.1615 -0.0913 -0.0507
 1752SOL    HW1 5392   2.153   0.413   2.524  0.6468  1.7102  0.0210
 1752SOL    HW2 5393   2.203   0.471   2.655 -1.1496  0.6257  1.2348
 1753SOL     OW 5394   1.056   3.641   0.806 -0.3469  0.1024 -0.3216
 1753SOL    HW1 5395   1.040   3.547   0.819  0.1088  0.1740  0.9183
 1753SOL    HW2 5396   1.131   3.644   0.747  3.0750 -0.5032  3.5492
 1754SOL     OW 5397   3.386   1.039   3.570 -0.1001  0.2175 -0.0628
 1754SOL    HW1 5398   3.319   1.093   3.612  0.9049  0.5864  1.1071
 1754SOL    HW2 5399   3.392   0.961   3.626  0.6500  0.3161 -0.0066
 1755SOL     OW 5400   2.515   0.759   3.139 -0.2482  0.3977  0.0358
 1755SOL    HW1 5401   2.511   0.790   3.049  0.7069 -1.6232 -0.7534
 1755SOL    HW2 5402   2.425   0.766   3.171 -0.1815  3.5730 -0.1323
 1756SOL     OW 5403   2.913   1.581   2.683  0.3752 -0.2827 -0.4873
 1756SOL    HW1 5404   2.948   1.530   2.757 -1.3934 -2.2429 -0.8932
 1756SOL    HW2 5405   2.833   1.621   2.717 -0.2738 -0.9267 -1.2253
 1757SOL     OW 5406   1.091   0.702   0.844  0.0974  0.7107  0.0911
 1757SOL    HW1 5407   1.106   0.797   0.851  0.5241  0.6620 -0.1172
 1757SOL    HW2 5408   1.018   0.685   0.904 -0.6101  1.3219 -0.5667
 1758SOL     OW 5409   2.835   3.479   0.515 -0.2500 -0.2534  0.4042
 1758SOL    HW1 5410   2.795   3.482   0.602  2.3108  0.5950  1.6494
 1758SOL    HW2 5411   2.835   3.570   0.486 -0.1160 -0.3841 -0.0110
 1759SOL     OW 5412   0.560   2.276   2.763  0.5657  0.1827  0.1158
 1759SOL    HW1 5413   0.633   2.218   2.786  1.4375  0.7195 -1.1788
 1759SOL    HW2 5414   0.554   2.270   2.667 -1.8878 -0.7631  0.2676
 1760SOL     OW 5415   0.357   0.602   0.418  0.2042 -0.0973 -0.4985
 1760SOL    HW1 5416   0.337   0.692   0.439  2.3142  0.0680  1.1409
 1760SOL    HW2 5417   0.276   0.554   0.433 -0.2411  1.1374  1.2323
 1761SOL     OW 5418   2.296   0.056   2.669  0.2754 -0.0081  0.5070
 1761SOL    HW1 5419   2.368   0.118   2.661  0.4503 -0.2176  0.4499
 1761SOL    HW2 5420   2.335  -0.029   2.648 -0.2985  0.0625 -1.0305
 1762SOL     OW 5421   3.348   1.118   3.259 -0.3820  0.3357  0.6792
 1762SOL    HW1 5422   3.327   1.114   3.352  1.2398 -2.4586  1.0295
 1762SOL    HW2 5423   3.279   1.066   3.217 -0.3390  0.4242  0.4995
 1763SOL     OW 5424   2.262   2.818   1.567 -0.2864  0.5840  0.4554
 1763SOL    HW1 5425   2.173   2.797   1.596 -0.4262 -0.0147 -0.3936
 1763SOL    HW2 5426   2.250   2.869   1.487  0.1401 -0.8455 -0.5525
 1764NA      NA 5427   1.817   0.164   1.380 -0.1157 -0.3050  0.2650
 1765NA      NA 5428   3.172   1.664   0.067 -0.6027 -0.1537  0.3456
 1766NA      NA 5429   0.093   3.537   0.938  0.2415 -0.3127  0.2514
   3.72410   3.72410   3.72410
