Protein in water
 5439
    0TYR      N    1   0.511   2.558   2.489 -0.7319 -0.7042 -0.6326
    0TYR     H1    2   0.582   2.545   2.414  0.9309  0.4609  0.6297
    0TYR     H2    3   0.560   2.577   2.580 -1.0802  0.6104 -0.6958
    0TYR     H3    4   0.459   2.644   2.461  0.8550  0.0042 -1.5505
    0TYR     CA    5   0.427   2.437   2.505  0.4546  0.0928  0.0010
    0TYR     HA    6   0.390   2.415   2.406 -2.1988 -2.0702  1.3216
    0TYR     CB    7   0.512   2.315   2.549  0.0027  0.3664 -0.1553
    0TYR    HB1    8   0.560   2.332   2.648 -0.0768  0.2954 -0.1044
    0TYR    HB2    9   0.590   2.285   2.475  0.0908 -2.4453  0.9828
    0TYR     CG   10   0.428   2.190   2.550 -0.2714  0.4895  0.7428
    0TYR    CD1   11   0.424   2.103   2.431  0.4225 -1.0484  0.0633
    0TYR    HD1   12   0.467   2.131   2.336 -0.6544  0.2312 -0.0757
    0TYR    CE1   13   0.338   1.995   2.428 -0.5440  0.0150  0.0295
    0TYR    HE1   14   0.324   1.929   2.344 -4.2315 -0.7171  1.0347
    0TYR     CZ   15   0.251   1.961   2.534 -0.2526 -0.2311 -0.3006
    0TYR     OH   16   0.161   1.861   2.523 -0.2007  0.3069  0.3710
    0TYR     HH   17   0.107   1.856   2.602 -0.3125 -1.3307  0.2280
    0TYR    CD2   18   0.350   2.146   2.665 -0.5380  0.0803  0.2225
    0TYR    HD2   19   0.361   2.207   2.753 -0.6916  0.1235  0.2120
    0TYR    CE2   20   0.264   2.036   2.655 -0.3157  0.2328 -0.1786
    0TYR    HE2   21   0.206   2.016   2.744  0.5614  1.2198  0.6476
    0TYR      C   22   0.305   2.492   2.590 -0.2773  0.0771  0.2540
    0TYR      O   23   0.338   2.564   2.681  0.0125  0.3378  0.9630
    1TYR      N   24   0.180   2.457   2.561 -0.3249  0.8030  0.2825
    1TYR     HN   25   0.155   2.401   2.482  0.8486  1.0776 -0.2981
    1TYR     CA   26   0.063   2.477   2.643 -0.1017  0.6518 -0.3315
    1TYR     HA   27   0.098   2.534   2.728  1.4346 -0.5676 -0.0880
    1TYR     CB   28  -0.032   2.573   2.569  0.3676  0.1158 -0.4964
    1TYR    HB1   29  -0.070   2.509   2.487  0.5005  0.8727 -1.1730
    1TYR    HB2   30   0.017   2.656   2.513  0.4809  0.1938 -0.2834
    1TYR     CG   31  -0.147   2.608   2.659 -0.0411 -0.0094  0.7400
    1TYR    CD1   32  -0.119   2.720   2.737 -0.3077  0.3859 -0.4476
    1TYR    HD1   33  -0.025   2.772   2.723  0.6137 -1.0439  0.2276
    1TYR    CE1   34  -0.225   2.776   2.818 -0.6271  0.4578  0.3262
    1TYR    HE1   35  -0.213   2.872   2.865 -2.4892  0.7807  0.2132
    1TYR     CZ   36  -0.350   2.720   2.814 -0.0569  0.4636  0.0554
    1TYR     OH   37  -0.462   2.789   2.867 -0.2361 -0.1318 -0.0487
    1TYR     HH   38  -0.423   2.843   2.936  0.4110  2.1803 -2.0919
    1TYR    CD2   39  -0.275   2.558   2.656 -0.6574  0.1770 -0.1929
    1TYR    HD2   40  -0.301   2.477   2.590  0.7805 -0.7628  0.3624
    1TYR    CE2   41  -0.375   2.609   2.737  0.7853 -0.0288 -0.1272
    1TYR    HE2   42  -0.477   2.584   2.713  1.5994 -1.5021 -2.4469
    1TYR      C   43  -0.002   2.340   2.687  0.3058 -0.8620  0.4610
    1TYR      O   44  -0.015   2.252   2.608  0.5779 -0.3052  0.7971
    2ASP      N   45  -0.037   2.321   2.811  0.5965  0.4988 -0.2489
    2ASP     HN   46  -0.021   2.398   2.872 -1.2317 -0.3748  1.4535
    2ASP     CA   47  -0.095   2.191   2.866 -0.1180  0.4946  0.2823
    2ASP     HA   48  -0.072   2.106   2.803 -1.1462 -0.4667  1.1357
    2ASP     CB   49  -0.037   2.165   3.006 -0.3361 -0.4573  0.2278
    2ASP    HB1   50  -0.053   2.253   3.071 -0.6304 -1.1339  1.0905
    2ASP    HB2   51   0.072   2.153   2.991 -0.5888 -0.3790 -1.9777
    2ASP     CG   52  -0.081   2.035   3.079 -0.3004  0.0460 -0.0722
    2ASP    OD1   53   0.013   1.964   3.127 -0.5907 -0.3509  0.7812
    2ASP    OD2   54  -0.207   2.018   3.096  0.3927  0.2108  0.8706
    2ASP      C   55  -0.244   2.203   2.874  0.2684 -0.4074  0.7396
    2ASP      O   56  -0.292   2.285   2.952  0.4139  0.2519 -0.1103
    3PRO      N   57  -0.335   2.136   2.807 -0.6593  0.3953  0.2637
    3PRO     CD   58  -0.306   2.027   2.711  0.1020 -0.1121 -0.4079
    3PRO    HD1   59  -0.216   2.047   2.650  1.5621 -1.9386  1.0289
    3PRO    HD2   60  -0.277   1.941   2.775  1.2063  1.3547  1.1384
    3PRO     CA   61  -0.477   2.173   2.798 -0.1357  0.0648  0.4721
    3PRO     HA   62  -0.489   2.280   2.801  0.5675  0.1954 -0.7183
    3PRO     CB   63  -0.514   2.124   2.655  0.1793  0.3441  0.4213
    3PRO    HB1   64  -0.476   2.200   2.583 -0.6976  0.7704  0.3954
    3PRO    HB2   65  -0.623   2.114   2.640  0.3652  0.5738 -1.2832
    3PRO     CG   66  -0.437   1.993   2.640 -0.2548 -0.3507  0.4095
    3PRO    HG1   67  -0.415   1.952   2.539 -0.7152  1.1961 -0.3545
    3PRO    HG2   68  -0.496   1.920   2.699  1.0420  0.0262  2.2839
    3PRO      C   69  -0.567   2.126   2.903 -0.2298 -0.2367 -0.5310
    3PRO      O   70  -0.680   2.175   2.920 -0.0331 -0.2006  0.2411
    4GLU      N   71  -0.513   2.038   2.990 -0.1564 -0.7480 -0.1848
    4GLU     HN   72  -0.417   2.014   2.982  0.2276  0.7542 -0.4236
    4GLU     CA   73  -0.584   2.004   3.117 -0.1888  0.4979  0.0118
    4GLU     HA   74  -0.690   2.010   3.097  0.0743 -0.0828 -1.7176
    4GLU     CB   75  -0.531   1.859   3.159  0.2915  0.4585 -0.9052
    4GLU    HB1   76  -0.595   1.839   3.247 -2.1529  3.0197 -1.9494
    4GLU    HB2   77  -0.428   1.869   3.200 -0.5633  0.7588  1.2978
    4GLU     CG   78  -0.543   1.759   3.066  0.1418  0.1114 -0.4329
    4GLU    HG1   79  -0.512   1.792   2.965 -0.5047  2.0668 -0.0369
    4GLU    HG2   80  -0.650   1.732   3.052  0.4775 -0.3072 -2.4727
    4GLU     CD   81  -0.475   1.634   3.113  0.3970 -0.4782  0.5000
    4GLU    OE1   82  -0.374   1.585   3.054 -0.2182  0.0183  0.0588
    4GLU    OE2   83  -0.536   1.573   3.201 -0.8660  1.0104  0.1099
    4GLU      C   84  -0.554   2.098   3.236 -0.2629  0.1653  0.5337
    4GLU      O   85  -0.637   2.132   3.319  0.0213 -0.0120  0.4206
    5THR      N   86  -0.435   2.149   3.248  0.1265  0.3673 -0.2498
    5THR     HN   87  -0.369   2.139   3.174  0.7986  0.0191  0.3895
    5THR     CA   88  -0.393   2.247   3.356  0.3337 -0.0392  0.1014
    5THR     HA   89  -0.469   2.254   3.433 -3.1627 -0.4256 -3.0391
    5THR     CB   90  -0.261   2.214   3.410  0.0428  0.6004 -0.3683
    5THR     HB   91  -0.237   2.285   3.492 -0.0717 -1.7997  1.8906
    5THR    OG1   92  -0.158   2.221   3.316  0.3027  0.4845  0.1219
    5THR    HG1   93  -0.176   2.144   3.262  0.8871  0.4389 -0.0197
    5THR    CG2   94  -0.253   2.069   3.473  0.2926 -0.0647 -0.0929
    5THR   HG21   95  -0.162   2.049   3.533 -0.5047 -2.4113  0.4287
    5THR   HG22   96  -0.260   1.996   3.389 -2.3297 -2.5148  2.0472
    5THR   HG23   97  -0.343   2.045   3.533  1.4209  0.6499  1.9875
    5THR      C   98  -0.387   2.392   3.305  0.3442 -0.1852 -0.3015
    5THR      O   99  -0.395   2.484   3.385 -0.0042 -0.3942 -0.1901
    6GLY      N  100  -0.373   2.424   3.175 -0.0469  0.6105  0.3800
    6GLY     HN  101  -0.387   2.349   3.111 -0.5145 -2.5794  3.8310
    6GLY     CA  102  -0.340   2.557   3.123  0.0878 -0.0493 -0.1268
    6GLY    HA1  103  -0.420   2.627   3.145  1.8280  1.5853  1.3119
    6GLY    HA2  104  -0.336   2.549   3.015 -2.0139  0.7051 -0.3241
    6GLY      C  105  -0.208   2.610   3.164 -0.3784 -0.5085  0.3376
    6GLY      O  106  -0.187   2.731   3.168 -0.3600 -0.7675  0.2721
    7GLN      N  107  -0.107   2.529   3.184 -0.2611  0.3902 -0.4223
    7GLN     HN  108  -0.133   2.434   3.196  2.1686 -0.2193  0.7228
    7GLN     CA  109   0.028   2.567   3.221 -0.4175 -0.1284 -0.2615
    7GLN     HA  110   0.029   2.671   3.249 -2.6482  0.2981 -1.5468
    7GLN     CB  111   0.073   2.495   3.347 -0.4654 -0.8648  0.0194
    7GLN    HB1  112   0.076   2.385   3.329  2.6168 -0.4582 -2.8403
    7GLN    HB2  113   0.178   2.523   3.370 -0.8328 -0.4126  1.2620
    7GLN     CG  114  -0.010   2.520   3.476  0.3461 -0.0225 -0.2483
    7GLN    HG1  115   0.030   2.460   3.560 -1.0733 -0.8427 -0.1304
    7GLN    HG2  116  -0.117   2.494   3.462  0.0280  0.7957  0.5564
    7GLN     CD  117   0.010   2.668   3.518  0.2228  0.4267 -0.1994
    7GLN    OE1  118   0.113   2.703   3.573  0.1068 -0.0507  0.3513
    7GLN    NE2  119  -0.088   2.759   3.481 -0.1024  0.2032 -0.0757
    7GLN   HE21  120  -0.074   2.857   3.494 -1.5528  0.2545  1.4247
    7GLN   HE22  121  -0.165   2.718   3.432 -0.4754 -0.9181  1.3628
    7GLN      C  122   0.120   2.579   3.101 -0.8163  0.0346  0.3481
    7GLN      O  123   0.122   2.496   3.008 -0.4136  0.3710  0.4365
    8TRP      N  124   0.201   2.696   3.103 -0.2160  0.2039 -0.4459
    8TRP     HN  125   0.202   2.768   3.171  1.6293  0.7443 -0.9934
    8TRP     CA  126   0.284   2.736   2.993 -0.0554  0.8680 -0.7371
    8TRP     HA  127   0.246   2.697   2.900  0.4883  2.6697 -1.7793
    8TRP     CB  128   0.315   2.886   2.988  0.2408  0.1299 -0.1331
    8TRP    HB1  129   0.393   2.906   2.911  1.1224 -0.4959  0.5801
    8TRP    HB2  130   0.334   2.920   3.092 -1.5402  0.9432 -0.0467
    8TRP     CG  131   0.184   2.970   2.958  0.1494  0.4517 -0.6195
    8TRP    CD1  132   0.096   3.030   3.049  0.4506  0.0918  0.1315
    8TRP    HD1  133   0.103   3.016   3.156 -0.2413 -0.0901  0.1548
    8TRP    NE1  134   0.004   3.110   2.980  0.7639  0.1038 -0.3471
    8TRP    HE1  135  -0.085   3.131   3.015  0.9127 -2.3514  1.9190
    8TRP    CE2  136   0.022   3.087   2.842 -0.0999 -1.0441 -0.0810
    8TRP    CD2  137   0.130   2.998   2.823  0.4192  0.3946  0.3528
    8TRP    CE3  138   0.172   2.969   2.694 -0.1458 -1.1077  0.4074
    8TRP    HE3  139   0.254   2.902   2.674 -0.3539 -0.9243 -1.2397
    8TRP    CZ3  140   0.092   3.009   2.582  0.0243 -0.6172  0.2464
    8TRP    HZ3  141   0.129   2.978   2.485 -1.4395 -1.5776 -0.0254
    8TRP    CZ2  142  -0.056   3.132   2.735 -0.0410 -0.1561  0.2117
    8TRP    HZ2  143  -0.138   3.201   2.754  2.5480  2.3105  3.7020
    8TRP    CH2  144  -0.023   3.083   2.605 -0.6226 -0.7819  0.1570
    8TRP    HH2  145  -0.082   3.112   2.519  1.2321 -0.3047 -1.0242
    8TRP      C  146   0.421   2.667   3.011  0.1792 -0.3526 -0.2390
    8TRP      O  147   0.491   2.691   3.110 -0.0103 -0.9817 -0.0600
    9TYR      N  148   0.460   2.570   2.931 -0.0004 -0.2225  0.6517
    9TYR     HN  149   0.404   2.548   2.851  0.8591 -2.3280  0.5716
    9TYR     CA  150   0.595   2.513   2.936  0.0567 -0.3299  0.3262
    9TYR     HA  151   0.633   2.533   3.036  0.8638 -0.9448  0.1492
    9TYR     CB  152   0.595   2.366   2.921  0.5360 -0.5224 -0.0003
    9TYR    HB1  153   0.699   2.327   2.909  0.5816 -0.8040  1.1760
    9TYR    HB2  154   0.531   2.342   2.834 -0.8055 -0.9757  1.0725
    9TYR     CG  155   0.536   2.298   3.040  0.1290  0.4144 -0.7858
    9TYR    CD1  156   0.391   2.285   3.061  0.5621 -0.0792 -0.2045
    9TYR    HD1  157   0.321   2.302   2.981 -0.8516 -1.0472  0.7857
    9TYR    CE1  158   0.337   2.230   3.182 -1.0752 -0.5001 -0.3017
    9TYR    HE1  159   0.230   2.216   3.174 -1.2782 -0.3897  1.6780
    9TYR     CZ  160   0.421   2.181   3.285  1.1053  0.3403  0.7657
    9TYR     OH  161   0.365   2.105   3.386 -0.7883 -0.7297 -0.2401
    9TYR     HH  162   0.269   2.107   3.392 -0.7468 -0.9541  0.8364
    9TYR    CD2  163   0.616   2.251   3.148  0.0873  0.2331 -0.0375
    9TYR    HD2  164   0.724   2.262   3.152  0.0007  0.7865  1.9410
    9TYR    CE2  165   0.561   2.191   3.264  0.1227 -0.4479 -0.2561
    9TYR    HE2  166   0.622   2.162   3.348 -0.2913  3.4021  1.6181
    9TYR      C  167   0.683   2.581   2.832 -0.3190 -0.6619  0.2595
    9TYR    OT1  168   0.658   2.561   2.711  0.8461  0.3572 -0.5719
    9TYR    OT2  169   0.776   2.659   2.864  0.0789 -0.3287 -0.4362
   10SOL     OW  170   3.811   2.114   1.816 -0.4053 -0.1683 -0.2462
   10SOL    HW1  171   3.768   2.029   1.817  0.2966 -0.5379 -0.5404
   10SOL    HW2  172   3.742   2.177   1.835 -1.7976 -0.4023 -3.7486
   11SOL     OW  173   0.349   1.161   2.373  0.2576 -0.1037  0.6891
   11SOL    HW1  174   0.294   1.193   2.445 -0.4016 -0.3937  0.3229
   11SOL    HW2  175   0.292   1.165   2.296  0.5560 -0.9860  0.4164
   12SOL     OW  176   3.422   0.943   3.520  0.3490  0.0057  0.4708
   12SOL    HW1  177   3.337   0.980   3.495  0.4423 -1.1036 -1.6598
   12SOL    HW2  178   3.401   0.881   3.590 -0.4839  0.2689  0.4712
   13SOL     OW  179   1.842   0.587   0.868 -0.8041 -0.5137  1.1709
   13SOL    HW1  180   1.836   0.661   0.929 -1.5591 -0.7717  1.4244
   13SOL    HW2  181   1.811   0.512   0.918 -1.5695 -0.7058  0.4275
   14SOL     OW  182   3.693   2.234   3.736 -0.3423 -0.3408  0.2524
   14SOL    HW1  183   3.725   2.300   3.798 -1.9230  0.6537  0.0678
   14SOL    HW2  184   3.759   2.165   3.739  2.2999  1.9308 -0.7572
   15SOL     OW  185   2.014   0.498   0.028 -0.3590  0.3713 -0.1083
   15SOL    HW1  186   1.987   0.571   0.084 -0.0980 -0.3521  1.0014
   15SOL    HW2  187   2.086   0.457   0.076 -0.1566 -0.2916 -0.9693
   16SOL     OW  188   0.842   0.928   3.659  0.3485 -0.2439  0.2911
   16SOL    HW1  189   0.777   0.958   3.722 -0.8039  1.3919 -1.5413
   16SOL    HW2  190   0.857   1.005   3.602  1.2190 -1.6532 -1.4933
   17SOL     OW  191   1.565   1.910   2.159 -0.7346  0.0129 -0.1121
   17SOL    HW1  192   1.561   1.967   2.082 -0.4865 -1.2955 -1.1231
   17SOL    HW2  193   1.498   1.844   2.143 -0.2910 -0.6003  0.5262
   18SOL     OW  194   1.865   1.761   0.162  0.1735 -0.0617  0.5605
   18SOL    HW1  195   1.822   1.773   0.247  0.5745  1.4189  0.5707
   18SOL    HW2  196   1.927   1.834   0.155  1.1884 -0.9642 -0.3827
   19SOL     OW  197   0.708   2.800   2.461  0.0363 -0.6319  0.0552
   19SOL    HW1  198   0.753   2.781   2.379  1.6745 -0.2796  0.8324
   19SOL    HW2  199   0.689   2.894   2.456  1.0926 -0.3860  0.5152
   20SOL     OW  200   2.736   1.683   0.875  0.1654  0.2180  0.0130
   20SOL    HW1  201   2.707   1.738   0.947 -0.7281  1.6281 -1.3526
   20SOL    HW2  202   2.702   1.595   0.895 -0.1589  0.6105  1.2265
   21SOL     OW  203   0.273   0.138   1.542  0.6219 -0.1949  0.4951
   21SOL    HW1  204   0.207   0.076   1.510  1.0741 -1.3415  1.6639
   21SOL    HW2  205   0.271   0.210   1.479 -2.5939  0.4301  1.1429
   22SOL     OW  206   0.655   3.007   2.156 -0.6360 -0.2751  0.2012
   22SOL    HW1  207   0.606   2.935   2.118  0.0363 -0.9460  0.5897
   22SOL    HW2  208   0.592   3.079   2.161 -0.9849 -0.4202 -1.3709
   23SOL     OW  209   3.713   0.853   0.378 -0.5629 -0.0826  0.2885
   23SOL    HW1  210   3.670   0.774   0.342 -0.0297 -1.5412  2.6481
   23SOL    HW2  211   3.653   0.884   0.445 -0.1057  0.7194  0.3310
   24SOL     OW  212   2.749   3.518   1.725 -0.2128  0.2745 -0.0671
   24SOL    HW1  213   2.698   3.478   1.655  1.9187 -1.0419 -0.9456
   24SOL    HW2  214   2.728   3.466   1.803  0.9933 -1.3590 -0.7790
   25SOL     OW  215   0.699   1.065   1.370 -0.3492  0.4497 -0.5742
   25SOL    HW1  216   0.617   1.044   1.414 -0.4028 -0.8850 -1.2761
   25SOL    HW2  217   0.685   1.041   1.279  0.7064  0.5279 -0.7773
   26SOL     OW  218   1.728   0.425   1.623 -0.4762 -0.6460  0.1884
   26SOL    HW1  219   1.654   0.372   1.594 -1.4655 -0.0125  1.4526
   26SOL    HW2  220   1.771   0.371   1.689 -1.1172 -0.1683  1.0230
   27SOL     OW  221   2.816   0.535   1.751 -0.3019  0.0745 -0.6825
   27SOL    HW1  222   2.797   0.607   1.812  0.0857  1.1454 -1.7857
   27SOL    HW2  223   2.891   0.566   1.701 -1.5012 -0.1364 -2.7123
   28SOL     OW  224   1.544   2.932   2.325  0.6116  0.1664 -0.1428
   28SOL    HW1  225   1.555   2.919   2.419 -2.4189 -2.5058  0.0406
   28SOL    HW2  226   1.581   2.852   2.286  0.8172  0.7293 -1.1311
   29SOL     OW  227   2.118   1.754   1.916  0.2620  0.2868 -0.1523
   29SOL    HW1  228   2.207   1.789   1.916  0.1047  0.8586  2.1657
   29SOL    HW2  229   2.071   1.805   1.850  1.2742  1.0342 -0.2987
   30SOL     OW  230   0.817   1.254   3.146  0.4340 -0.1430 -0.3141
   30SOL    HW1  231   0.846   1.327   3.200  2.3849 -1.0568 -0.0213
   30SOL    HW2  232   0.839   1.280   3.057  0.0912  0.0706 -0.3399
   31SOL     OW  233   1.264   0.553   2.048  0.2884  0.3653 -0.5092
   31SOL    HW1  234   1.172   0.578   2.054  0.1508 -0.2019 -0.1814
   31SOL    HW2  235   1.263   0.466   2.008  0.7973  1.1146 -2.2357
   32SOL     OW  236   0.044   2.526   1.432  0.1571  0.1294  0.0410
   32SOL    HW1  237   0.030   2.437   1.465 -2.1094  1.1094  2.0914
   32SOL    HW2  238  -0.041   2.552   1.396  0.5731  1.6883  0.1200
   33SOL     OW  239   2.822   0.711   3.514  0.3183  0.0426  0.6909
   33SOL    HW1  240   2.740   0.726   3.561  0.8043 -0.9100  1.8870
   33SOL    HW2  241   2.871   0.792   3.523 -0.1579  0.3366  0.6549
   34SOL     OW  242   1.074   0.068   2.843  0.3247 -0.5682 -0.2279
   34SOL    HW1  243   1.115   0.079   2.929 -2.7380 -0.4191  1.3747
   34SOL    HW2  244   1.020   0.146   2.832 -0.5926 -1.3474 -1.5211
   35SOL     OW  245   0.770   2.592   0.356 -0.1897  0.3856  0.4274
   35SOL    HW1  246   0.685   2.616   0.318  0.5155  1.3061 -0.6265
   35SOL    HW2  247   0.834   2.635   0.300  0.9844 -0.2698  1.2320
   36SOL     OW  248   2.909   3.377   3.031  0.3017  0.3409 -0.4747
   36SOL    HW1  249   2.882   3.317   2.961  0.0557 -0.1390  0.0179
   36SOL    HW2  250   2.963   3.323   3.089  1.5372  1.0460 -0.9285
   37SOL     OW  251   2.451   1.167   1.455 -0.1382  0.2960  0.3230
   37SOL    HW1  252   2.508   1.184   1.530  2.2247  0.6600 -1.4512
   37SOL    HW2  253   2.410   1.083   1.476  0.1732  0.5554  2.1762
   38SOL     OW  254   2.092   3.793   2.347  0.1458  0.2072  0.2088
   38SOL    HW1  255   2.173   3.742   2.336 -0.8746 -0.9085 -3.6082
   38SOL    HW2  256   2.118   3.883   2.329  0.8191  0.1513  0.8281
   39SOL     OW  257   2.956   2.530   3.371 -0.8573  0.6981 -0.1492
   39SOL    HW1  258   2.994   2.465   3.312  0.4988  1.6172 -0.3506
   39SOL    HW2  259   2.862   2.527   3.353 -0.8615 -1.3221  0.0028
   40SOL     OW  260   2.314   0.260   1.774  0.0676 -0.6004  0.0477
   40SOL    HW1  261   2.404   0.269   1.745  0.2746 -0.2196  0.8007
   40SOL    HW2  262   2.281   0.349   1.780 -0.1448 -0.7022  0.4420
   41SOL     OW  263   3.129   1.356   2.599 -0.1093 -0.1148  0.5038
   41SOL    HW1  264   3.074   1.286   2.566 -1.9164  1.6171 -0.4005
   41SOL    HW2  265   3.133   1.419   2.527  1.0181  0.9347  1.4426
   42SOL     OW  266   0.685   2.256   1.290 -0.0299  0.2233  0.2325
   42SOL    HW1  267   0.640   2.225   1.212 -0.3230  1.7634 -0.2440
   42SOL    HW2  268   0.669   2.188   1.356  0.2130 -1.0861 -1.0228
   43SOL     OW  269   0.603   2.491   0.132 -0.3402  0.1586 -0.1582
   43SOL    HW1  270   0.559   2.411   0.161 -2.0275  1.5918  1.5225
   43SOL    HW2  271   0.532   2.554   0.120  1.1388  2.3101  1.6835
   44SOL     OW  272   2.235   2.456   2.668  0.4811 -0.6894  0.1562
   44SOL    HW1  273   2.311   2.456   2.610  0.1687 -1.0289 -0.2643
   44SOL    HW2  274   2.160   2.457   2.609  0.1156  1.7276  0.5689
   45SOL     OW  275   0.524   0.405   0.357  0.2856  0.2477 -0.0202
   45SOL    HW1  276   0.592   0.338   0.363 -0.5137 -0.6235 -0.5091
   45SOL    HW2  277   0.558   0.478   0.408  0.9863 -0.6898  0.8916
   46SOL     OW  278   0.048   0.448   2.268 -0.0596 -0.5651  0.1809
   46SOL    HW1  279   0.058   0.508   2.343  1.2823 -1.4736  0.7601
   46SOL    HW2  280  -0.008   0.496   2.207  1.1637  1.4204  0.5127
   47SOL     OW  281   1.278   1.726   0.058 -0.7497  0.0789  0.2366
   47SOL    HW1  282   1.319   1.672   0.126  0.6450 -0.8495 -1.2765
   47SOL    HW2  283   1.208   1.772   0.104 -0.1369 -0.8294  2.2103
   48SOL     OW  284   3.022   2.905   2.630  0.1305  0.0139 -0.4413
   48SOL    HW1  285   2.930   2.875   2.630  0.1624 -0.1217 -1.7100
   48SOL    HW2  286   3.029   2.960   2.553  1.2873 -0.4952 -0.7104
   49SOL     OW  287   1.713   1.686   2.822  0.0378 -0.5445 -0.3729
   49SOL    HW1  288   1.700   1.700   2.916  0.5537 -0.0105 -0.3718
   49SOL    HW2  289   1.698   1.593   2.809 -0.8502 -0.4838  0.0997
   50SOL     OW  290   0.932   3.548   3.690  0.3604 -0.5458  0.0415
   50SOL    HW1  291   0.916   3.637   3.723 -2.5037 -1.0815  0.4028
   50SOL    HW2  292   0.926   3.556   3.595  0.5040 -0.3063  0.0509
   51SOL     OW  293   3.223   0.795   1.794 -0.3044  0.3105 -0.5140
   51SOL    HW1  294   3.197   0.883   1.768  0.6786  0.9624  0.5875
   51SOL    HW2  295   3.273   0.762   1.719 -0.7361  0.6628 -0.9629
   52SOL     OW  296   2.477   3.400   0.986  0.0951 -0.0147  0.6717
   52SOL    HW1  297   2.415   3.451   1.039 -2.2590 -2.2677  0.3083
   52SOL    HW2  298   2.500   3.325   1.040  1.6932  0.2057  0.3553
   53SOL     OW  299   1.920   2.603   2.148  0.1925  0.0218 -0.9062
   53SOL    HW1  300   1.945   2.689   2.183 -2.2407  1.2011 -1.8139
   53SOL    HW2  301   1.861   2.567   2.214 -0.0144 -0.2455 -1.2362
   54SOL     OW  302   3.267   1.185   2.340  0.1260  0.3647  0.2415
   54SOL    HW1  303   3.257   1.131   2.419  1.8436  0.4601  0.5544
   54SOL    HW2  304   3.274   1.122   2.269 -0.9387  0.2681  0.2024
   55SOL     OW  305   3.466   0.040   2.900 -0.1251 -0.5502  0.0713
   55SOL    HW1  306   3.384   0.058   2.944 -0.1192 -0.0307 -0.1213
   55SOL    HW2  307   3.456  -0.049   2.865 -1.5016  0.3151 -1.9035
   56SOL     OW  308   3.213   0.574   2.570 -0.6040 -0.0559 -0.1843
   56SOL    HW1  309   3.212   0.642   2.638  0.9319  0.5989 -0.7740
   56SOL    HW2  310   3.203   0.623   2.488 -2.1045 -0.8120 -0.4959
   57SOL     OW  311   1.936   0.940   1.518  0.0120  0.0206  0.1171
   57SOL    HW1  312   1.893   0.856   1.504 -0.6931  0.0684  1.7173
   57SOL    HW2  313   1.919   0.960   1.610 -0.6057  2.3159 -0.4245
   58SOL     OW  314   0.670   3.430   1.240  0.3353 -0.1463 -0.0033
   58SOL    HW1  315   0.617   3.500   1.279  0.9109  0.1730  0.2218
   58SOL    HW2  316   0.723   3.397   1.312 -0.3562 -1.2366  0.0316
   59SOL     OW  317   0.309   2.538   1.298 -0.3280 -0.1976 -0.3677
   59SOL    HW1  318   0.236   2.540   1.361  0.7711 -1.0603  1.0007
   59SOL    HW2  319   0.305   2.451   1.259  0.1385 -0.3562 -0.0686
   60SOL     OW  320   2.959   2.601   0.201 -0.1520 -0.3264  0.6345
   60SOL    HW1  321   3.048   2.592   0.236 -0.3662  0.0706  1.3137
   60SOL    HW2  322   2.964   2.675   0.141  0.3462 -1.3608 -0.6423
   61SOL     OW  323   2.977   0.881   0.243  0.6939 -0.3773 -0.3089
   61SOL    HW1  324   2.910   0.814   0.229 -0.0961  0.3714 -0.1730
   61SOL    HW2  325   2.960   0.946   0.175 -0.7701  1.3993  1.6421
   62SOL     OW  326   0.389   3.690   3.697 -0.7903  0.2550 -0.1598
   62SOL    HW1  327   0.326   3.636   3.649 -0.7055 -0.8207  0.8926
   62SOL    HW2  328   0.335   3.744   3.755 -0.7952 -0.0279  0.1023
   63SOL     OW  329   3.378   0.770   3.236  0.6727 -0.1014  0.1336
   63SOL    HW1  330   3.283   0.767   3.232  0.7355 -1.5748 -1.7649
   63SOL    HW2  331   3.400   0.862   3.224 -0.5027  0.3420  1.2346
   64SOL     OW  332   3.419   0.507   1.478 -0.6951 -0.0361 -0.7514
   64SOL    HW1  333   3.474   0.496   1.555 -0.6143  0.6689 -0.6979
   64SOL    HW2  334   3.359   0.432   1.479  1.0895 -1.5559 -1.5097
   65SOL     OW  335   0.107   0.870   2.098  0.0162 -0.0506 -0.9830
   65SOL    HW1  336   0.128   0.924   2.022  1.3089  0.0776 -0.5510
   65SOL    HW2  337   0.014   0.886   2.114  0.1885  1.4392 -1.3389
   66SOL     OW  338   0.037   1.953   2.077  0.0852 -0.3800 -0.5125
   66SOL    HW1  339   0.006   2.036   2.040  0.9831  0.7652  1.1889
   66SOL    HW2  340   0.132   1.961   2.076  0.4218 -2.8300 -3.3981
   67SOL     OW  341   0.643   1.936   0.793 -0.3454 -0.2502  0.1160
   67SOL    HW1  342   0.582   2.005   0.771  0.5349  0.3939 -0.3755
   67SOL    HW2  343   0.654   1.886   0.712  1.0275  0.6426 -0.2760
   68SOL     OW  344   0.166   0.038   0.698  0.6340  0.7323 -0.5868
   68SOL    HW1  345   0.150  -0.025   0.628  1.9654  0.6687 -0.8736
   68SOL    HW2  346   0.102   0.107   0.685 -0.7504 -0.4626 -0.3673
   69SOL     OW  347   3.267   2.203   2.291  0.4102 -0.0826  0.3153
   69SOL    HW1  348   3.276   2.108   2.282 -0.9982 -0.1250 -1.1087
   69SOL    HW2  349   3.237   2.233   2.205  0.8150  1.6590  0.7460
   70SOL     OW  350   2.021   1.694   3.577  0.1259  0.5580 -0.2017
   70SOL    HW1  351   2.096   1.749   3.558  0.5241 -0.1597 -0.7466
   70SOL    HW2  352   1.951   1.728   3.520  0.4584  0.3043 -0.7629
   71SOL     OW  353   3.186   3.700   2.708  0.4380  0.1105 -0.4362
   71SOL    HW1  354   3.142   3.727   2.627 -0.0423  0.6854  0.0106
   71SOL    HW2  355   3.253   3.638   2.679 -1.7704 -2.1716 -0.9798
   72SOL     OW  356   0.998   3.195   2.556  0.2750 -0.4579 -0.6565
   72SOL    HW1  357   0.957   3.279   2.576 -1.2785 -1.3475  0.1089
   72SOL    HW2  358   1.091   3.209   2.576 -0.1694  0.6741  0.8462
   73SOL     OW  359   1.188   2.138   1.004  0.4074  0.1644  0.1162
   73SOL    HW1  360   1.276   2.107   0.983  0.6295  1.0412 -0.2952
   73SOL    HW2  361   1.203   2.220   1.051 -0.1656 -0.2524  1.0587
   74SOL     OW  362   1.961   1.345   2.575 -0.2068  0.1286  0.5572
   74SOL    HW1  363   1.902   1.278   2.608 -0.6770 -0.4196 -1.2556
   74SOL    HW2  364   1.903   1.417   2.548 -0.2342 -0.7438 -2.0145
   75SOL     OW  365   2.960   1.982   1.808 -0.0824 -0.0947  0.1984
   75SOL    HW1  366   2.914   2.011   1.887 -0.5290  0.8167 -0.3812
   75SOL    HW2  367   2.916   1.901   1.782 -2.2263  1.3561 -1.0181
   76SOL     OW  368   3.503   2.965   3.048 -0.3250  0.5022 -0.0905
   76SOL    HW1  369   3.500   3.037   3.112 -1.2405 -1.2648  1.9511
   76SOL    HW2  370   3.558   2.899   3.089  1.3996  0.3551 -2.4004
   77SOL     OW  371   3.481   0.218   3.699 -0.4151  0.0956 -0.2040
   77SOL    HW1  372   3.466   0.143   3.642  2.2337 -0.8359  0.1496
   77SOL    HW2  373   3.521   0.284   3.642 -0.4255  0.2816  0.0016
   78SOL     OW  374   3.364   2.024   3.822 -0.0292 -0.0812 -0.3282
   78SOL    HW1  375   3.405   2.110   3.831  1.0649 -0.8166  3.1213
   78SOL    HW2  376   3.278   2.035   3.863  0.5661 -0.8483  1.1900
   79SOL     OW  377   1.139   2.854   3.795  0.3717  0.3953  0.0597
   79SOL    HW1  378   1.067   2.794   3.811  0.3790 -0.1321 -1.7060
   79SOL    HW2  379   1.101   2.925   3.744  1.4781 -1.2037 -3.3427
   80SOL     OW  380   0.130   0.009   0.971 -0.7442  0.1822  0.0252
   80SOL    HW1  381   0.039   0.040   0.979 -1.7763 -2.5110  0.0193
   80SOL    HW2  382   0.149   0.013   0.878 -0.9318  0.5265 -0.0017
   81SOL     OW  383   1.456   2.833   0.956  0.4662  0.1811  0.1772
   81SOL    HW1  384   1.385   2.799   0.900 -0.4044 -0.0281  1.3651
   81SOL    HW2  385   1.536   2.804   0.913 -0.1288  0.9826 -1.5669
   82SOL     OW  386   2.264   2.090   2.051 -0.5795 -0.2228 -0.1579
   82SOL    HW1  387   2.282   2.033   1.976 -0.6869 -1.9987  1.0977
   82SOL    HW2  388   2.254   2.030   2.125 -2.7658  1.2861  0.8905
   83SOL     OW  389   0.533   0.443   0.062  0.0216  0.5371  0.0911
   83SOL    HW1  390   0.557   0.354   0.037 -0.4253  0.6618 -0.8458
   83SOL    HW2  391   0.539   0.444   0.157 -2.3352 -1.2339  0.3594
   84SOL     OW  392   0.988   2.975   0.316 -0.0883 -0.1458  0.1103
   84SOL    HW1  393   0.962   3.009   0.401 -0.1255  0.4790 -0.1498
   84SOL    HW2  394   0.960   3.041   0.253  2.5546  0.8465 -0.1525
   85SOL     OW  395   1.797   0.096   0.862  0.1203 -0.1327  0.7547
   85SOL    HW1  396   1.890   0.113   0.846  0.9041 -3.3872  1.1946
   85SOL    HW2  397   1.766   0.056   0.781 -0.1456 -1.5727  1.5320
   86SOL     OW  398   0.816   0.417   0.478 -0.2442 -0.0837  0.1093
   86SOL    HW1  399   0.875   0.369   0.420 -3.4115 -1.0660 -2.6013
   86SOL    HW2  400   0.869   0.491   0.510  2.3914 -0.8005 -2.1852
   87SOL     OW  401   1.620   3.398   1.797  0.3755 -0.3638  0.8068
   87SOL    HW1  402   1.701   3.428   1.755  1.0740  1.3037  3.1148
   87SOL    HW2  403   1.644   3.387   1.889 -1.8466 -0.6612  1.3984
   88SOL     OW  404   2.888   1.695   3.304 -0.4807  0.3024  0.1811
   88SOL    HW1  405   2.859   1.753   3.234  0.1105  0.9071  0.4369
   88SOL    HW2  406   2.947   1.747   3.357 -0.8218 -0.1809  1.0722
   89SOL     OW  407   0.343   1.615   3.339  0.4965 -0.5224  0.0853
   89SOL    HW1  408   0.264   1.628   3.390  0.8983 -2.2565  1.2448
   89SOL    HW2  409   0.344   1.688   3.277 -2.4677 -0.9208 -0.5987
   90SOL     OW  410   1.775   2.202   0.968 -0.2736 -0.2033 -0.0361
   90SOL    HW1  411   1.775   2.295   0.946 -1.0343  0.0485  0.9328
   90SOL    HW2  412   1.746   2.158   0.888  0.0718  0.3857 -0.4932
   91SOL     OW  413   3.385   0.438   0.200  0.1315 -0.3808  0.7862
   91SOL    HW1  414   3.365   0.530   0.217  1.4591 -0.0064  0.4859
   91SOL    HW2  415   3.408   0.403   0.287  2.1376  0.2757  0.5897
   92SOL     OW  416   3.439   2.815   3.667  0.3513 -0.2053 -0.3379
   92SOL    HW1  417   3.383   2.886   3.699 -0.3888 -1.1855  0.6727
   92SOL    HW2  418   3.528   2.848   3.675 -0.0270  1.1553 -1.3485
   93SOL     OW  419   0.828   1.520   0.738  0.0658  0.7121  0.7047
   93SOL    HW1  420   0.897   1.585   0.754  1.1443 -0.2929  0.2646
   93SOL    HW2  421   0.786   1.549   0.657  0.8633  0.6086  0.2456
   94SOL     OW  422   3.624   3.459   1.592 -0.6109  0.0890  0.2865
   94SOL    HW1  423   3.599   3.515   1.519 -0.7248  0.6186  0.7167
   94SOL    HW2  424   3.705   3.499   1.625  1.2809 -2.0272 -1.5551
   95SOL     OW  425   0.515   1.084   2.838  0.5372 -0.0434  0.3757
   95SOL    HW1  426   0.503   1.141   2.914 -0.6446  1.3049 -0.7502
   95SOL    HW2  427   0.522   0.996   2.874  0.1573  0.5766  2.0458
   96SOL     OW  428   2.298   3.207   0.124  0.0129  0.0854  0.1376
   96SOL    HW1  429   2.366   3.229   0.060  2.5176 -4.5073  0.8027
   96SOL    HW2  430   2.346   3.181   0.202 -2.7575  0.2272  2.0400
   97SOL     OW  431   3.191   2.743   2.482  0.2802  0.5943 -0.4598
   97SOL    HW1  432   3.118   2.695   2.441  0.9945 -0.1697 -0.8655
   97SOL    HW2  433   3.151   2.784   2.559 -0.6222  0.3314 -0.7653
   98SOL     OW  434   0.751   1.799   1.628 -0.0810  0.1785 -0.0668
   98SOL    HW1  435   0.734   1.740   1.701  0.9627 -2.2057 -1.6413
   98SOL    HW2  436   0.667   1.845   1.616 -1.2958 -1.7195  0.6030
   99SOL     OW  437   0.917   1.767   3.395  0.1739 -0.2277  0.2700
   99SOL    HW1  438   0.953   1.790   3.481 -0.3822 -1.8684  0.9933
   99SOL    HW2  439   0.824   1.786   3.402  0.1907 -0.0157 -0.1002
  100SOL     OW  440   0.369   2.463   3.638 -0.5171  0.3503 -0.0339
  100SOL    HW1  441   0.389   2.478   3.546 -0.9314 -3.1516 -0.8053
  100SOL    HW2  442   0.423   2.528   3.685 -0.1000  2.0412 -2.6664
  101SOL     OW  443   3.293   2.718   3.460 -0.2985  0.1940 -0.0289
  101SOL    HW1  444   3.338   2.638   3.436 -0.1794 -0.2305  1.5209
  101SOL    HW2  445   3.338   2.749   3.539  0.4217  2.4377 -1.2148
  102SOL     OW  446   3.639   1.914   1.461  0.1473 -0.1219  0.3267
  102SOL    HW1  447   3.627   1.993   1.515 -1.3144  0.2375 -0.4721
  102SOL    HW2  448   3.570   1.855   1.490  0.1455 -0.4224 -0.2781
  103SOL     OW  449   2.059   1.928   0.177 -0.5626  0.4094  0.1675
  103SOL    HW1  450   2.120   1.856   0.195 -0.4265  0.4793 -0.0127
  103SOL    HW2  451   2.111   2.008   0.192 -0.3706  0.4680 -0.7861
  104SOL     OW  452   0.702   0.151   1.563 -0.0647  0.6543 -0.0836
  104SOL    HW1  453   0.757   0.136   1.640  0.5117 -0.3429 -0.6690
  104SOL    HW2  454   0.737   0.092   1.497 -0.4564  1.6030 -1.1686
  105SOL     OW  455   2.723   3.162   0.670 -0.2453  0.2869  0.4899
  105SOL    HW1  456   2.799   3.144   0.614 -1.1074  0.7284 -0.8573
  105SOL    HW2  457   2.761   3.193   0.752  1.0706 -0.8899  0.3695
  106SOL     OW  458   0.860   0.965   1.901 -0.4785 -0.5404  0.0740
  106SOL    HW1  459   0.845   0.881   1.856  0.7608 -0.8428  0.1885
  106SOL    HW2  460   0.782   1.017   1.882  0.0593 -0.5709 -2.6499
  107SOL     OW  461   1.500   3.397   2.741  0.2225 -0.0587  0.5660
  107SOL    HW1  462   1.548   3.480   2.738 -0.6368  0.4884  1.3732
  107SOL    HW2  463   1.567   3.330   2.724  1.4020  0.6371  2.2337
  108SOL     OW  464   3.329   2.174   1.398  0.6856  0.4925  0.1347
  108SOL    HW1  465   3.421   2.161   1.422  0.6645 -0.3768 -0.2087
  108SOL    HW2  466   3.280   2.149   1.475  0.6134 -2.3786 -0.7424
  109SOL     OW  467   3.440   0.357   0.448  0.5362 -0.3917 -0.5944
  109SOL    HW1  468   3.458   0.264   0.463 -0.3470 -0.3766  0.7821
  109SOL    HW2  469   3.524   0.400   0.464  0.2475 -0.6547  2.2026
  110SOL     OW  470   3.228   3.058   2.239  0.8651 -0.3200  0.0706
  110SOL    HW1  471   3.177   3.084   2.316 -0.2519  0.3571 -0.8589
  110SOL    HW2  472   3.174   2.992   2.196  1.7176 -1.0675  0.1299
  111SOL     OW  473   0.266   0.650   0.388 -0.3270  0.1676  0.2674
  111SOL    HW1  474   0.223   0.592   0.325 -0.7991  1.2001 -0.3876
  111SOL    HW2  475   0.285   0.594   0.463 -3.5320 -0.2473  0.9272
  112SOL     OW  476   2.033   2.880   2.466  0.3927 -0.0473 -0.5354
  112SOL    HW1  477   2.065   2.899   2.378  3.0349  0.3359  0.4183
  112SOL    HW2  478   2.102   2.828   2.506 -0.9206 -0.5514  1.2084
  113SOL     OW  479   0.304   3.024   2.235 -0.5749  0.4442  0.1967
  113SOL    HW1  480   0.349   3.108   2.242  0.9697 -0.3871  0.7769
  113SOL    HW2  481   0.213   3.046   2.216 -0.1931  2.2336  0.3441
  114SOL     OW  482   0.373   3.784   1.756 -0.0903  0.5968  0.4957
  114SOL    HW1  483   0.359   3.835   1.676 -1.1264 -1.4419 -0.6854
  114SOL    HW2  484   0.289   3.788   1.802  0.1751  0.8666  0.9667
  115SOL     OW  485   1.691   2.624   0.379 -0.3254 -0.1684 -0.3354
  115SOL    HW1  486   1.651   2.550   0.424 -0.6975  0.2705  0.0552
  115SOL    HW2  487   1.784   2.600   0.372  0.2177  0.7197  2.6605
  116SOL     OW  488   3.808   2.886   1.973  0.0658 -0.5200 -0.2619
  116SOL    HW1  489   3.828   2.796   1.949  0.9090 -0.8456  1.5111
  116SOL    HW2  490   3.892   2.932   1.968 -0.5488  0.4960 -2.3029
  117SOL     OW  491   0.215   3.361   0.041 -0.3900 -0.2272  0.5515
  117SOL    HW1  492   0.160   3.421  -0.009  0.6641  0.5830  0.3199
  117SOL    HW2  493   0.243   3.412   0.118  2.0130  0.2874 -0.5718
  118SOL     OW  494   3.498   3.648   1.879 -0.6905 -0.5147 -0.3894
  118SOL    HW1  495   3.541   3.670   1.962 -1.9744  1.7811 -0.2446
  118SOL    HW2  496   3.491   3.553   1.880  0.8674 -0.6752  1.3252
  119SOL     OW  497   2.772   3.648   0.106  0.1317  0.1537  0.2254
  119SOL    HW1  498   2.833   3.577   0.126  1.1482  1.7422  3.4469
  119SOL    HW2  499   2.826   3.717   0.068 -0.3663  0.2231 -0.3732
  120SOL     OW  500   2.717   0.978   1.814 -0.0960 -0.2935  0.0603
  120SOL    HW1  501   2.790   0.917   1.817  0.1036 -0.0231  1.0345
  120SOL    HW2  502   2.739   1.045   1.878  0.4990  1.7382 -2.1086
  121SOL     OW  503   0.853   0.478   2.243  0.0305 -0.2568  0.1043
  121SOL    HW1  504   0.811   0.563   2.229 -1.1209 -1.0056 -1.2786
  121SOL    HW2  505   0.856   0.439   2.156  2.3096 -0.8711  0.3935
  122SOL     OW  506   2.829   2.941   3.313 -0.4553  0.4864  0.1279
  122SOL    HW1  507   2.921   2.917   3.320  0.0043  1.4467 -1.8840
  122SOL    HW2  508   2.799   2.899   3.232 -2.4067 -1.5190  1.7545
  123SOL     OW  509   0.396   2.916   3.759 -0.5592  0.0410  0.2347
  123SOL    HW1  510   0.401   3.009   3.740 -0.7963 -0.1208 -0.7102
  123SOL    HW2  511   0.328   2.909   3.826 -0.1989  0.5854  0.6634
  124SOL     OW  512   1.800   0.648   0.391 -0.2779 -0.1271  0.7481
  124SOL    HW1  513   1.862   0.688   0.330  1.3826 -0.3872  2.2188
  124SOL    HW2  514   1.806   0.700   0.471 -0.9064 -1.0245  1.4057
  125SOL     OW  515   2.969   2.658   2.337  0.1913  0.2808  0.0153
  125SOL    HW1  516   2.876   2.661   2.318 -0.3396  1.0056  2.4059
  125SOL    HW2  517   3.001   2.746   2.316 -0.5206  1.2837  2.7325
  126SOL     OW  518   0.970   1.579   0.033 -0.0243 -0.5072  0.1405
  126SOL    HW1  519   0.918   1.507  -0.004  0.0872 -0.5848  0.1359
  126SOL    HW2  520   1.046   1.536   0.073  0.2811 -0.3519 -0.2707
  127SOL     OW  521   2.838   0.456   3.450  0.2478  0.8013  0.1814
  127SOL    HW1  522   2.802   0.444   3.362 -0.7626 -0.6272  0.7497
  127SOL    HW2  523   2.824   0.549   3.470  0.2622  1.0839 -1.0449
  128SOL     OW  524   2.038   1.386   1.410  0.1564 -0.2275 -0.4745
  128SOL    HW1  525   2.054   1.464   1.464 -0.1776  0.9157 -1.9392
  128SOL    HW2  526   2.122   1.370   1.366  1.0272 -2.3379  1.7250
  129SOL     OW  527   2.139   3.017  -0.031 -0.0243 -0.5772 -0.3002
  129SOL    HW1  528   2.079   2.949  -0.000  0.4471 -0.9254 -0.1354
  129SOL    HW2  529   2.164   3.064   0.049  0.6085 -1.0016 -0.2341
  130SOL     OW  530   1.571   1.366   1.144 -0.6680 -0.2443 -0.1687
  130SOL    HW1  531   1.485   1.392   1.177 -0.6277  1.4291 -1.2696
  130SOL    HW2  532   1.630   1.437   1.171  0.5934 -1.7918  1.3501
  131SOL     OW  533   1.563   3.497   3.394  0.6232 -0.2627 -0.4594
  131SOL    HW1  534   1.633   3.479   3.332  0.7819  0.0384 -0.3693
  131SOL    HW2  535   1.574   3.432   3.463  0.9436 -0.0833 -0.3388
  132SOL     OW  536   2.075   0.039   3.812  0.8452 -0.3161  0.0053
  132SOL    HW1  537   2.127   0.095   3.754 -2.9169  0.3389 -3.1901
  132SOL    HW2  538   2.050   0.096   3.884  2.6632 -0.0379  0.4682
  133SOL     OW  539   0.889   0.887   2.874 -0.0470 -0.2309  0.0923
  133SOL    HW1  540   0.981   0.908   2.891 -0.4906  0.6928  1.5874
  133SOL    HW2  541   0.841   0.964   2.905 -1.4073 -1.2690  0.6614
  134SOL     OW  542   3.435   0.452   2.688  0.5466  0.6581  0.1395
  134SOL    HW1  543   3.357   0.497   2.657 -1.0872 -1.6133  0.7185
  134SOL    HW2  544   3.492   0.447   2.611 -0.3418  1.3603 -0.5927
  135SOL     OW  545   1.391   2.236   1.365  0.3352 -0.1504  0.6369
  135SOL    HW1  546   1.296   2.233   1.374  0.2953  0.5832  0.5285
  135SOL    HW2  547   1.419   2.301   1.430  0.4603  1.8897 -1.3129
  136SOL     OW  548   2.599   2.673   3.022  0.2438 -0.4678  0.1351
  136SOL    HW1  549   2.624   2.765   3.023  0.0240 -0.3987 -0.7686
  136SOL    HW2  550   2.666   2.631   2.968 -0.6814 -0.5402 -0.9702
  137SOL     OW  551   1.866   1.099   0.348 -0.5053 -0.6271 -0.6149
  137SOL    HW1  552   1.851   1.192   0.332  1.0659 -0.0463  0.9347
  137SOL    HW2  553   1.820   1.081   0.431 -0.8376 -1.2461 -0.9293
  138SOL     OW  554   0.038   2.550   1.094 -0.1438 -0.4157 -0.4631
  138SOL    HW1  555   0.056   2.568   1.186 -0.6952 -0.8143 -0.2741
  138SOL    HW2  556   0.045   2.635   1.051  1.8980 -0.4724 -0.3666
  139SOL     OW  557   2.360   1.404   0.048 -0.4342  0.2133  0.4967
  139SOL    HW1  558   2.342   1.494   0.024 -2.4908 -1.1258 -4.0384
  139SOL    HW2  559   2.282   1.375   0.096 -1.2936  0.0325 -0.9594
  140SOL     OW  560   3.758   1.049   2.772  0.4781 -0.1036 -0.0791
  140SOL    HW1  561   3.846   1.087   2.777  0.5141 -0.1518 -0.3400
  140SOL    HW2  562   3.717   1.093   2.698  0.6130 -0.7642 -0.5552
  141SOL     OW  563   1.254   1.892   1.931 -0.7584  0.1916 -0.2232
  141SOL    HW1  564   1.237   1.866   2.022 -0.5042 -0.9333 -0.4885
  141SOL    HW2  565   1.180   1.949   1.909 -0.8642  0.4183  0.6552
  142SOL     OW  566   0.326   3.598   3.308 -0.0629 -0.0875 -0.0243
  142SOL    HW1  567   0.410   3.644   3.307 -0.6364  1.0061  0.3974
  142SOL    HW2  568   0.344   3.513   3.268  1.4537 -0.2527  0.9461
  143SOL     OW  569   2.642   0.278   1.153  0.4788  0.0547 -0.0638
  143SOL    HW1  570   2.596   0.197   1.177  0.4453  0.5400  1.6025
  143SOL    HW2  571   2.588   0.348   1.189  1.8127  0.6944  0.7406
  144SOL     OW  572   3.319   3.366   1.318  0.7933  0.0640  0.8220
  144SOL    HW1  573   3.389   3.428   1.297  0.8696 -0.2619  0.0701
  144SOL    HW2  574   3.286   3.394   1.403  1.0372  0.9489  0.6348
  145SOL     OW  575   0.179   1.877   0.207  0.3005  0.1016 -0.8576
  145SOL    HW1  576   0.258   1.917   0.243  0.0058 -1.1577  1.3733
  145SOL    HW2  577   0.193   1.878   0.112  1.8916  2.0731 -0.6685
  146SOL     OW  578   3.371   0.165   2.354 -0.2943 -0.4631  0.2499
  146SOL    HW1  579   3.373   0.116   2.436  0.5584  0.5825  0.8720
  146SOL    HW2  580   3.426   0.113   2.295 -0.4121 -0.9038  0.5239
  147SOL     OW  581   2.585   3.025   0.920 -0.1155  0.0391  0.5967
  147SOL    HW1  582   2.663   3.052   0.873 -1.8572  1.4743 -1.6818
  147SOL    HW2  583   2.591   3.068   1.006  1.7082 -0.1779  0.6052
  148SOL     OW  584   1.068   3.069   3.193 -0.2806  0.1135  0.5505
  148SOL    HW1  585   1.096   2.978   3.183 -1.2220 -0.3703  1.9507
  148SOL    HW2  586   0.980   3.063   3.230 -1.3025  1.5919 -1.4283
  149SOL     OW  587   2.654   0.533   2.479 -0.0960  0.1441 -0.2311
  149SOL    HW1  588   2.674   0.443   2.505 -1.8360 -0.8559 -2.0152
  149SOL    HW2  589   2.599   0.567   2.549  1.3558  0.2241  0.9286
  150SOL     OW  590   2.169   2.368   2.921 -0.6934  0.0004 -0.3270
  150SOL    HW1  591   2.184   2.367   2.827 -1.0169 -0.1308 -0.3756
  150SOL    HW2  592   2.219   2.445   2.952 -0.0615 -0.3244 -0.5135
  151SOL     OW  593   0.431   3.188   1.969 -0.7671  0.3592 -0.2279
  151SOL    HW1  594   0.524   3.177   1.947 -1.0401 -3.3814 -0.1442
  151SOL    HW2  595   0.430   3.198   2.064 -0.4427 -2.4823  0.1755
  152SOL     OW  596   1.926   0.696   1.764  0.5161  0.0916  0.4103
  152SOL    HW1  597   1.922   0.791   1.778  0.4228  0.3906 -1.3963
  152SOL    HW2  598   1.862   0.679   1.695  2.4754 -0.8381 -1.2793
  153SOL     OW  599   1.609   0.730   0.674  0.2463 -0.1707  0.0865
  153SOL    HW1  600   1.545   0.669   0.637  1.5886 -0.4426 -1.9502
  153SOL    HW2  601   1.667   0.674   0.726 -0.6159 -0.0487  1.2206
  154SOL     OW  602   2.361   1.477   3.164 -0.0418 -0.3662  0.3592
  154SOL    HW1  603   2.289   1.416   3.152  0.5157 -1.2137  1.1520
  154SOL    HW2  604   2.360   1.497   3.258  0.9369 -0.6277  0.4343
  155SOL     OW  605   2.508   2.231   1.967  0.6342  0.1087  0.6458
  155SOL    HW1  606   2.479   2.309   1.919 -0.3517 -1.3147 -1.1934
  155SOL    HW2  607   2.427   2.188   1.995  1.1757  0.1984  2.5124
  156SOL     OW  608   0.127   2.336   1.956 -0.4312 -0.2068  0.1067
  156SOL    HW1  609   0.101   2.390   2.031  0.4798 -1.0900  1.0831
  156SOL    HW2  610   0.044   2.309   1.917 -0.9293  0.1422  0.8938
  157SOL     OW  611   1.941   0.408   0.399 -0.3084 -0.7030 -0.4386
  157SOL    HW1  612   1.867   0.355   0.371  0.2200 -0.6198 -2.1202
  157SOL    HW2  613   1.912   0.499   0.386 -0.1811 -0.6565 -0.3980
  158SOL     OW  614   3.828   1.221   1.301 -0.1551  0.3167 -0.1627
  158SOL    HW1  615   3.784   1.227   1.386  1.3562 -0.2071  0.7059
  158SOL    HW2  616   3.760   1.240   1.237 -1.2426  1.1749  1.1826
  159SOL     OW  617   1.785   0.687   1.529  0.5208 -0.6795 -0.2117
  159SOL    HW1  618   1.767   0.697   1.436 -2.7631 -2.9473  0.0286
  159SOL    HW2  619   1.755   0.599   1.551  1.8346 -0.5094  2.8906
  160SOL     OW  620   2.627   0.885   0.086 -0.7427  0.6312  0.0289
  160SOL    HW1  621   2.641   0.839   0.169 -0.1190  1.0061  0.1324
  160SOL    HW2  622   2.714   0.909   0.056 -0.8433 -0.6347 -1.4073
  161SOL     OW  623   3.660   3.203   3.506 -0.2919 -0.4185  0.3421
  161SOL    HW1  624   3.606   3.279   3.525 -0.6382 -0.6824  0.4121
  161SOL    HW2  625   3.702   3.223   3.423 -1.4669 -0.7426 -0.3460
  162SOL     OW  626   3.194   0.344   0.530  0.5338 -0.1858  0.7155
  162SOL    HW1  627   3.178   0.415   0.592 -1.2128  1.8074 -1.8217
  162SOL    HW2  628   3.279   0.365   0.490 -0.9611  1.8884 -1.6150
  163SOL     OW  629   2.342   3.815   0.443  0.4268  0.0913  0.9095
  163SOL    HW1  630   2.334   3.823   0.348  1.3341 -1.0498  0.7242
  163SOL    HW2  631   2.294   3.891   0.477 -1.3810 -0.4126 -0.3928
  164SOL     OW  632   1.804   2.896   3.493  0.3615 -0.4536 -0.1638
  164SOL    HW1  633   1.828   2.962   3.558  0.1078 -0.9032  0.3969
  164SOL    HW2  634   1.779   2.820   3.545 -1.4906 -0.2759 -0.7421
  165SOL     OW  635   0.426   1.020   3.738  0.4091  0.1769  0.0456
  165SOL    HW1  636   0.342   0.979   3.756  1.4328 -1.1512  2.3108
  165SOL    HW2  637   0.466   0.963   3.672  0.1681 -0.1373  0.1667
  166SOL     OW  638   0.565   2.228   1.017  0.1224 -0.6628  0.4345
  166SOL    HW1  639   0.511   2.188   0.949 -1.2966 -0.4273  1.3697
  166SOL    HW2  640   0.628   2.282   0.969  0.8245 -2.4705 -0.7686
  167SOL     OW  641   1.235   3.172   3.527 -0.2444 -0.2003  0.1798
  167SOL    HW1  642   1.271   3.145   3.443 -0.4913  1.7642 -0.6161
  167SOL    HW2  643   1.179   3.247   3.506  0.7272  1.1942  2.2476
  168SOL     OW  644   1.615   3.651   2.811 -0.4276  0.2810  0.0982
  168SOL    HW1  645   1.660   3.607   2.739  0.6881 -0.2984  1.1279
  168SOL    HW2  646   1.562   3.718   2.767 -0.8110 -0.9108 -1.3644
  169SOL     OW  647   3.161   3.641   0.786 -0.7069  0.1622 -0.3411
  169SOL    HW1  648   3.081   3.692   0.773 -1.5669 -0.4348  2.1922
  169SOL    HW2  649   3.174   3.640   0.880  0.6960 -2.1907 -0.5011
  170SOL     OW  650   2.775   2.976   0.256  0.5516  0.1458 -0.8279
  170SOL    HW1  651   2.848   2.922   0.283 -0.4417 -1.5721 -1.4476
  170SOL    HW2  652   2.705   2.914   0.236 -1.1035  1.7329 -0.1951
  171SOL     OW  653   0.905   2.575   2.590 -0.3578 -0.3769 -0.0266
  171SOL    HW1  654   0.991   2.545   2.623  0.6508  2.0228 -0.3016
  171SOL    HW2  655   0.842   2.520   2.637  1.1376  0.6486  3.5346
  172SOL     OW  656   3.184   3.509   1.953  0.1553  0.1055 -0.2004
  172SOL    HW1  657   3.255   3.460   1.912  0.1622 -0.1062  0.0647
  172SOL    HW2  658   3.105   3.476   1.910  0.1805  0.0361 -0.1940
  173SOL     OW  659   2.728   2.868   3.810 -0.6271 -0.0160 -0.1659
  173SOL    HW1  660   2.713   2.944   3.866 -0.5203  1.6972 -2.3185
  173SOL    HW2  661   2.718   2.901   3.720  2.5261 -1.8091 -1.3433
  174SOL     OW  662   2.719   2.179   0.688 -0.3170 -0.4704  0.0236
  174SOL    HW1  663   2.740   2.099   0.736  0.3970 -0.8950 -0.9544
  174SOL    HW2  664   2.643   2.216   0.734 -1.3956 -2.3208 -0.1876
  175SOL     OW  665   1.202   3.409   0.210 -0.6530  0.2306 -0.6711
  175SOL    HW1  666   1.289   3.405   0.250 -0.8893  2.2263  0.1794
  175SOL    HW2  667   1.213   3.369   0.124  1.3218  1.1701 -0.9212
  176SOL     OW  668   3.223   2.759   1.616 -0.4628 -0.1158 -0.2898
  176SOL    HW1  669   3.198   2.849   1.599  2.2564  0.9374  0.7628
  176SOL    HW2  670   3.282   2.764   1.692  2.0881 -2.3652 -1.9141
  177SOL     OW  671   0.088   1.164   1.766 -0.5934  0.2063 -0.2239
  177SOL    HW1  672   0.089   1.182   1.672 -0.0544  0.2355 -0.2172
  177SOL    HW2  673  -0.005   1.164   1.790 -0.8541 -1.4501 -1.0627
  178SOL     OW  674   1.790   2.112   3.555  0.0446 -0.6985 -0.0755
  178SOL    HW1  675   1.785   2.064   3.473 -0.2957  0.1044 -0.5389
  178SOL    HW2  676   1.853   2.182   3.538  0.5871 -1.0039  0.6078
  179SOL     OW  677   0.638   0.459   3.378  0.5193  0.5151 -0.3015
  179SOL    HW1  678   0.605   0.478   3.466  1.2611 -1.7123  0.4978
  179SOL    HW2  679   0.708   0.523   3.364 -0.2623  1.5297  0.3002
  180SOL     OW  680   0.367   3.560   2.695  0.3742  0.0580  0.2428
  180SOL    HW1  681   0.273   3.540   2.686  0.1361  0.6286  1.3489
  180SOL    HW2  682   0.370   3.650   2.727  1.2965 -0.0585  0.5204
  181SOL     OW  683   0.030   3.074   3.809 -0.6772  0.2229 -0.1460
  181SOL    HW1  684   0.081   3.033   3.740 -1.4533  1.2310 -1.3673
  181SOL    HW2  685   0.095   3.118   3.864 -0.0765 -0.3499 -0.3815
  182SOL     OW  686   1.180   1.707   2.434  0.4494 -0.2032  0.1255
  182SOL    HW1  687   1.174   1.777   2.498  2.4017 -0.9011  1.1201
  182SOL    HW2  688   1.094   1.664   2.438  0.2537  0.2787  1.6498
  183SOL     OW  689   0.329   3.271   0.699 -0.7145  0.8716 -0.0931
  183SOL    HW1  690   0.409   3.224   0.675 -1.2752 -0.0692 -0.1441
  183SOL    HW2  691   0.317   3.251   0.792 -1.0782  0.7293 -0.1696
  184SOL     OW  692   2.903   1.524   1.316 -0.1717 -0.0631  0.0867
  184SOL    HW1  693   2.905   1.617   1.340  3.2629 -0.5258  2.1842
  184SOL    HW2  694   2.828   1.489   1.365 -1.3267  1.4726 -0.4797
  185SOL     OW  695   0.966   0.749   1.609  0.6736  0.0326  0.5481
  185SOL    HW1  696   1.057   0.771   1.589  0.4309 -0.9419 -1.9699
  185SOL    HW2  697   0.918   0.831   1.595  1.0139  0.2710  0.7634
  186SOL     OW  698   1.452   2.662   3.288 -0.4382  0.6901 -0.0268
  186SOL    HW1  699   1.438   2.756   3.282  0.7562  0.9722  1.1213
  186SOL    HW2  700   1.547   2.653   3.302 -0.5356 -0.6804 -0.1401
  187SOL     OW  701   3.239   2.721   0.693  0.4677 -0.2022  0.7217
  187SOL    HW1  702   3.276   2.645   0.648 -2.1582 -0.8626 -0.5158
  187SOL    HW2  703   3.243   2.699   0.786  0.3690 -1.5595  0.4157
  188SOL     OW  704   0.436   1.324   3.636 -1.0400 -0.1476  0.0004
  188SOL    HW1  705   0.382   1.398   3.663  0.8176  1.3403 -0.1227
  188SOL    HW2  706   0.465   1.285   3.719  0.1371  0.9708  0.1545
  189SOL     OW  707   0.246   3.071   0.179 -0.3074  0.0281  0.3234
  189SOL    HW1  708   0.275   3.070   0.271  1.0746  0.0182 -0.0840
  189SOL    HW2  709   0.311   3.125   0.134 -0.3921 -0.7728 -0.8121
  190SOL     OW  710   3.190   3.608   1.090 -0.8502 -0.8301  0.2918
  190SOL    HW1  711   3.194   3.661   1.169 -0.0969  0.5739 -0.6412
  190SOL    HW2  712   3.144   3.528   1.117 -2.8604  0.6427  1.5595
  191SOL     OW  713   2.552   3.559   0.425 -0.0513 -0.3545  0.1298
  191SOL    HW1  714   2.496   3.521   0.493  0.8197 -0.1095  1.0113
  191SOL    HW2  715   2.551   3.653   0.443  1.4738 -0.4485  0.8317
  192SOL     OW  716   3.189   1.544   2.803  0.1434  0.6972 -0.4021
  192SOL    HW1  717   3.162   1.635   2.791 -2.9407 -0.2701 -1.5370
  192SOL    HW2  718   3.191   1.507   2.715 -0.6785 -0.8360  0.1888
  193SOL     OW  719   0.904   3.444   0.889 -0.2491 -0.6208 -0.0744
  193SOL    HW1  720   0.906   3.514   0.954 -2.9687 -1.1454  0.7144
  193SOL    HW2  721   0.953   3.479   0.814 -0.3227  1.5320  0.8116
  194SOL     OW  722   2.615   1.595   3.386 -1.2232  0.2085  0.0833
  194SOL    HW1  723   2.639   1.684   3.415 -3.6493  1.1445 -0.5379
  194SOL    HW2  724   2.520   1.592   3.397 -1.0345 -3.0868  2.0542
  195SOL     OW  725   3.318   0.505   1.891  0.1396 -0.2862 -0.5990
  195SOL    HW1  726   3.352   0.545   1.812 -0.4922  1.0477 -0.2315
  195SOL    HW2  727   3.244   0.560   1.916 -0.6842 -1.6116  0.0333
  196SOL     OW  728   2.839   2.189   1.425 -0.4532  0.1288 -0.3520
  196SOL    HW1  729   2.876   2.139   1.352 -2.1626  0.6524 -1.6522
  196SOL    HW2  730   2.762   2.231   1.388 -1.6376  0.0814  1.8965
  197SOL     OW  731   0.654   1.078   2.289  0.0301  0.7056 -0.3410
  197SOL    HW1  732   0.613   1.003   2.245  0.6695  1.5865 -2.6202
  197SOL    HW2  733   0.636   1.065   2.382 -3.0956 -0.3359 -0.9637
  198SOL     OW  734   1.629   2.260   2.497  0.2038  0.0091  0.1483
  198SOL    HW1  735   1.628   2.274   2.592 -1.0189  0.3344  0.1134
  198SOL    HW2  736   1.628   2.165   2.488 -1.9659 -0.0635  0.5238
  199SOL     OW  737   1.042   1.112   3.163  0.1699 -0.3440  0.0394
  199SOL    HW1  738   1.089   1.119   3.081  0.1822 -0.8206  0.0067
  199SOL    HW2  739   0.965   1.169   3.151  1.0664  0.9801  0.3443
  200SOL     OW  740   2.396   3.446   2.900 -0.6225 -0.5481  0.0886
  200SOL    HW1  741   2.330   3.394   2.947  0.3913  0.4387  2.8240
  200SOL    HW2  742   2.478   3.428   2.946  0.3805  0.8873 -1.0432
  201SOL     OW  743   3.288   1.504   0.101  0.4388  0.1581  0.3461
  201SOL    HW1  744   3.237   1.485   0.179 -0.2401  0.7686  0.0588
  201SOL    HW2  745   3.266   1.594   0.079  2.0192  0.6127  0.4934
  202SOL     OW  746   2.080   2.897   1.182  0.3990  0.1737  0.0389
  202SOL    HW1  747   2.036   2.877   1.265  2.9890 -2.8399  0.9135
  202SOL    HW2  748   2.127   2.979   1.198  0.6630 -0.2365  1.5391
  203SOL     OW  749   3.482   3.065   3.329 -0.4797  0.3051  0.1649
  203SOL    HW1  750   3.491   3.020   3.413 -2.4428 -1.9147 -0.7007
  203SOL    HW2  751   3.440   3.148   3.351 -0.6202 -0.0727  1.4078
  204SOL     OW  752   1.379   1.582   2.613 -0.7684 -0.3231  0.2148
  204SOL    HW1  753   1.327   1.610   2.538 -0.1050  0.6692  0.1044
  204SOL    HW2  754   1.420   1.500   2.585 -2.8320 -1.5470  0.5787
  205SOL     OW  755   1.740   1.039   3.708 -0.6397 -0.9008  0.0617
  205SOL    HW1  756   1.829   1.044   3.744  0.5344 -0.3212 -2.6930
  205SOL    HW2  757   1.718   0.947   3.713 -0.7249 -0.8074  2.5498
  206SOL     OW  758   3.500   0.040   0.500 -0.6492 -0.2450  0.4381
  206SOL    HW1  759   3.447  -0.002   0.567  0.3690 -0.9733  0.8141
  206SOL    HW2  760   3.585   0.054   0.542 -0.2367 -0.0039 -0.4517
  207SOL     OW  761   0.786   1.374   3.749 -0.6019 -0.1675  0.0689
  207SOL    HW1  762   0.727   1.409   3.816 -0.7590 -1.5140  0.6658
  207SOL    HW2  763   0.762   1.282   3.742  0.9670 -0.5853 -0.1812
  208SOL     OW  764   3.686   1.757   3.614  0.3114 -0.4878 -0.2019
  208SOL    HW1  765   3.680   1.665   3.587  0.8640 -0.4608 -0.4226
  208SOL    HW2  766   3.759   1.792   3.564  0.4229 -0.0567  0.2574
  209SOL     OW  767   2.059   0.711   0.235 -0.1523  0.7433 -0.3996
  209SOL    HW1  768   2.103   0.745   0.313  1.2498 -0.9363 -0.4089
  209SOL    HW2  769   2.126   0.661   0.189 -1.2781  0.6769 -2.0623
  210SOL     OW  770   3.481   3.605   2.846 -0.0466 -0.5335  0.1403
  210SOL    HW1  771   3.462   3.557   2.926  0.1961 -1.8750 -0.5779
  210SOL    HW2  772   3.461   3.543   2.775  0.4246  0.3744 -0.8178
  211SOL     OW  773   0.608   2.219   0.258 -0.1855  0.7137  0.1774
  211SOL    HW1  774   0.665   2.151   0.222 -2.4877 -1.2899  0.1293
  211SOL    HW2  775   0.645   2.236   0.345  1.5275  0.8183 -0.5199
  212SOL     OW  776   3.756   1.293   3.389 -0.2850  0.4710 -0.7267
  212SOL    HW1  777   3.829   1.294   3.326  2.5113 -1.9147  2.1454
  212SOL    HW2  778   3.695   1.228   3.354  1.4562 -1.1902 -0.8378
  213SOL     OW  779   1.918   2.335   3.460  1.1448 -0.0224  0.1454
  213SOL    HW1  780   1.856   2.397   3.496  0.3456 -1.0694  0.6414
  213SOL    HW2  781   1.968   2.385   3.396  0.4247  1.0757  0.4132
  214SOL     OW  782   1.531   1.299   2.492  0.0494 -0.3175 -0.0269
  214SOL    HW1  783   1.454   1.323   2.441  0.5239  0.0458 -0.5814
  214SOL    HW2  784   1.541   1.205   2.477 -0.5727 -0.4642  0.4475
  215SOL     OW  785   1.657   0.328   2.100 -0.5682  0.0824 -0.3724
  215SOL    HW1  786   1.581   0.274   2.121  0.3526 -0.3984  2.0508
  215SOL    HW2  787   1.654   0.400   2.164  0.7414  0.2956 -0.5197
  216SOL     OW  788   3.171   1.733   0.267 -0.2418  0.7680 -0.0378
  216SOL    HW1  789   3.235   1.797   0.297  0.3999 -0.0513  0.4111
  216SOL    HW2  790   3.129   1.702   0.347  2.4564 -2.4635  0.3613
  217SOL     OW  791   0.201   0.461   2.640 -0.1110  0.4844 -0.3968
  217SOL    HW1  792   0.261   0.390   2.663  0.2282  1.4495  1.9971
  217SOL    HW2  793   0.114   0.420   2.644  0.0648  0.1938  1.1693
  218SOL     OW  794   0.219   1.546   2.956  0.3869  0.1493  0.4192
  218SOL    HW1  795   0.165   1.476   2.992 -2.4676  1.3173 -1.2811
  218SOL    HW2  796   0.176   1.627   2.983  0.5213  1.1191 -2.0354
  219SOL     OW  797   0.218   0.241   2.398  0.2237  0.5301  0.0882
  219SOL    HW1  798   0.189   0.291   2.321  2.8385 -1.0035 -2.0761
  219SOL    HW2  799   0.261   0.306   2.453  3.9910  0.9466 -2.8932
  220SOL     OW  800   2.386   2.859   2.656 -0.1372 -0.3243  0.0001
  220SOL    HW1  801   2.324   2.847   2.728 -1.3700 -0.9724 -1.1327
  220SOL    HW2  802   2.422   2.772   2.640 -1.1615 -0.5387 -1.2753
  221SOL     OW  803   0.338   0.561   1.869 -0.0315 -0.1414 -0.0101
  221SOL    HW1  804   0.390   0.542   1.947 -0.8912  0.4611  0.7359
  221SOL    HW2  805   0.319   0.476   1.831 -0.2867 -0.5091  0.9081
  222SOL     OW  806   3.640   0.095   2.585 -0.7431 -0.1219 -0.7389
  222SOL    HW1  807   3.545   0.082   2.583 -0.9927  0.7764  1.4765
  222SOL    HW2  808   3.661   0.098   2.679  1.5363 -0.6172 -1.1791
  223SOL     OW  809   3.646   0.611   1.894 -0.5416  0.0777  0.3773
  223SOL    HW1  810   3.625   0.579   1.982  0.5084 -0.9713  0.2788
  223SOL    HW2  811   3.652   0.706   1.903 -0.7360  0.0062  1.3703
  224SOL     OW  812   2.994   3.808   3.775 -0.2939 -0.6983  0.0499
  224SOL    HW1  813   3.085   3.780   3.786 -0.0804 -0.4090 -0.8361
  224SOL    HW2  814   2.997   3.903   3.779 -0.6677 -0.7068  0.7013
  225SOL     OW  815   2.478   3.300   3.657 -0.7326 -0.5264 -0.1721
  225SOL    HW1  816   2.394   3.345   3.659 -0.5540 -0.1765 -0.2618
  225SOL    HW2  817   2.459   3.210   3.682 -1.0044 -0.2353  0.6942
  226SOL     OW  818   2.438   0.080   2.624  0.1163  0.1030  0.2962
  226SOL    HW1  819   2.372   0.089   2.694  1.5184  0.7640  1.6042
  226SOL    HW2  820   2.432  -0.011   2.597 -2.6256  0.5733 -0.9885
  227SOL     OW  821   2.074   2.392   0.456 -0.0572  0.7705  0.0797
  227SOL    HW1  822   2.030   2.424   0.378 -1.8668  0.5897  0.9832
  227SOL    HW2  823   2.153   2.349   0.423 -1.1989 -0.0472 -1.7225
  228SOL     OW  824   1.021   0.678   2.086  0.2320 -0.2048  0.2332
  228SOL    HW1  825   1.043   0.771   2.094 -0.3927 -0.1417  1.3910
  228SOL    HW2  826   0.935   0.677   2.044  0.7518 -0.3215 -0.8705
  229SOL     OW  827   1.214   2.570   3.373  0.0181  0.0828 -0.7774
  229SOL    HW1  828   1.307   2.589   3.367  0.3648 -1.7972 -2.3477
  229SOL    HW2  829   1.197   2.565   3.467  1.4149  0.7645 -0.4599
  230SOL     OW  830   0.518   1.690   1.321  0.5475 -0.1043 -0.5915
  230SOL    HW1  831   0.533   1.605   1.280  0.9238 -0.5343  0.3888
  230SOL    HW2  832   0.435   1.679   1.368  0.0075  0.4494 -1.3910
  231SOL     OW  833   1.747   2.468   0.844 -0.0116 -0.5734 -0.3567
  231SOL    HW1  834   1.698   2.535   0.890  0.3418  0.6557 -1.6808
  231SOL    HW2  835   1.832   2.508   0.825  0.6132 -1.7770 -0.2554
  232SOL     OW  836   2.347   2.279   0.372 -0.6596  0.2155  0.2575
  232SOL    HW1  837   2.350   2.184   0.357  1.0283  0.5017 -1.5419
  232SOL    HW2  838   2.439   2.306   0.374 -1.1315  1.9961 -0.4454
  233SOL     OW  839   0.431   0.747   1.557  0.5651  0.1983 -0.0861
  233SOL    HW1  840   0.518   0.762   1.593  0.1766 -0.9082  1.4024
  233SOL    HW2  841   0.434   0.657   1.523  0.5171  0.7652 -1.7025
  234SOL     OW  842   2.702   1.443   2.744 -0.0941 -0.0834 -0.2878
  234SOL    HW1  843   2.747   1.361   2.761 -1.2918 -0.8325 -0.5999
  234SOL    HW2  844   2.647   1.456   2.821 -0.7063 -0.1407 -0.7079
  235SOL     OW  845   0.776   3.158   2.865  0.3447  0.1135 -0.3282
  235SOL    HW1  846   0.738   3.180   2.950 -0.7157  1.5947 -1.1506
  235SOL    HW2  847   0.759   3.235   2.810 -0.2218 -1.3518 -2.2940
  236SOL     OW  848   3.003   0.147   0.501  0.2735  0.4853 -0.2683
  236SOL    HW1  849   3.075   0.210   0.511  1.7205 -0.9234 -1.2507
  236SOL    HW2  850   2.987   0.143   0.407  0.4887 -0.8617 -0.2768
  237SOL     OW  851   0.519   2.908   1.349  0.1715  0.1141 -0.2576
  237SOL    HW1  852   0.574   2.953   1.413 -0.1496 -0.2737  0.2959
  237SOL    HW2  853   0.576   2.895   1.273  1.1982 -1.2337  0.6961
  238SOL     OW  854   1.936   0.193   3.571  0.2412  0.4271  0.0398
  238SOL    HW1  855   1.860   0.181   3.629 -0.7350  0.0455 -1.2641
  238SOL    HW2  856   1.986   0.263   3.612  0.4255 -0.8665  2.1645
  239SOL     OW  857   0.892   0.971   0.809 -0.4277  0.0383 -0.6209
  239SOL    HW1  858   0.907   1.050   0.758  0.0094  1.5459  1.6488
  239SOL    HW2  859   0.951   0.905   0.772  0.0401  1.1280 -1.8450
  240SOL     OW  860   3.331   0.921   1.151 -0.8867  0.3577 -0.6284
  240SOL    HW1  861   3.276   0.901   1.075 -1.6294 -0.4918  0.0967
  240SOL    HW2  862   3.370   1.006   1.132 -0.8498  0.0404 -2.0679
  241SOL     OW  863   1.558   3.203   2.285  0.0743 -0.4344 -0.1889
  241SOL    HW1  864   1.571   3.115   2.249 -0.0913 -0.6267  0.2191
  241SOL    HW2  865   1.464   3.218   2.280  0.2242  0.2135 -1.3968
  242SOL     OW  866   2.736   2.726   2.251 -0.3837 -0.8367 -0.2875
  242SOL    HW1  867   2.739   2.699   2.159 -1.5329 -0.7518 -0.3617
  242SOL    HW2  868   2.672   2.668   2.291  1.7476 -2.4392  1.0288
  243SOL     OW  869   2.566   3.229   3.417 -0.2408  0.0926  0.6731
  243SOL    HW1  870   2.492   3.195   3.367 -0.4380  0.3695  0.7720
  243SOL    HW2  871   2.527   3.257   3.500 -0.2020  1.2060  0.3267
  244SOL     OW  872   0.331   1.581   0.149  0.0067 -0.5145  0.8139
  244SOL    HW1  873   0.315   1.502   0.201 -2.0055 -0.4452  0.3856
  244SOL    HW2  874   0.247   1.600   0.106  1.3231 -0.0822 -1.8162
  245SOL     OW  875   0.084   0.331   3.027  0.0019  0.0004 -0.6886
  245SOL    HW1  876   0.167   0.379   3.025 -0.6514  1.2285  0.2873
  245SOL    HW2  877   0.034   0.367   2.954 -0.5503  0.9571  0.1412
  246SOL     OW  878   3.634   3.361   2.522  0.1715 -0.5037 -0.6772
  246SOL    HW1  879   3.716   3.376   2.475 -0.1606 -0.7088 -1.3264
  246SOL    HW2  880   3.604   3.275   2.492 -0.1340 -0.5625 -0.2159
  247SOL     OW  881   0.237   0.877   0.869  0.0512 -0.7636  0.4360
  247SOL    HW1  882   0.164   0.816   0.859 -2.6951  2.4932 -1.4851
  247SOL    HW2  883   0.296   0.855   0.797 -0.6541 -1.4065  0.0363
  248SOL     OW  884   2.489   0.506   3.738  0.1221  0.1320  0.7079
  248SOL    HW1  885   2.443   0.458   3.670  0.3095  0.2475  0.4991
  248SOL    HW2  886   2.577   0.469   3.739  0.2141  0.3442  0.6714
  249SOL     OW  887   2.706   1.114   0.419 -0.1879  0.1010  0.3721
  249SOL    HW1  888   2.663   1.187   0.464 -1.7359 -0.3362 -0.3290
  249SOL    HW2  889   2.652   1.100   0.341 -0.6159 -2.5133  1.0509
  250SOL     OW  890   2.880   3.229   0.872 -0.1055  0.3215 -0.3065
  250SOL    HW1  891   2.919   3.189   0.949 -0.8393  2.0494  1.0186
  250SOL    HW2  892   2.946   3.219   0.804  0.8357 -0.6296  0.6998
  251SOL     OW  893   2.890   1.220   2.804  0.2988  0.4271  0.1334
  251SOL    HW1  894   2.928   1.149   2.856  1.0443 -1.0648 -2.3115
  251SOL    HW2  895   2.887   1.186   2.715 -0.2256  3.1442 -0.9807
  252SOL     OW  896   1.811   0.828   3.164 -0.5978 -0.1070 -0.3729
  252SOL    HW1  897   1.904   0.808   3.170 -0.9053 -1.2009  1.8349
  252SOL    HW2  898   1.785   0.849   3.254 -2.7585 -1.1931 -0.6739
  253SOL     OW  899   0.502   0.196   3.681  0.1728 -0.1857 -0.2533
  253SOL    HW1  900   0.539   0.109   3.695  2.1470  0.5963 -0.2460
  253SOL    HW2  901   0.515   0.213   3.588  0.1219  0.2531 -0.1823
  254SOL     OW  902   2.086   0.091   1.105  0.0292 -0.1699  0.0318
  254SOL    HW1  903   2.113   0.180   1.126 -0.8438  0.1239 -0.0633
  254SOL    HW2  904   2.045   0.098   1.019  3.5216 -1.3303 -1.9639
  255SOL     OW  905   0.941   0.075   2.451  0.8979  0.4011 -0.0326
  255SOL    HW1  906   0.943   0.163   2.489 -1.4769  0.6426 -0.2879
  255SOL    HW2  907   0.942   0.089   2.357 -0.4089  0.2509 -0.0896
  256SOL     OW  908   3.095   1.603   1.538  0.0031 -0.3589  0.0731
  256SOL    HW1  909   3.033   1.538   1.504 -0.1309  0.6017 -1.6620
  256SOL    HW2  910   3.175   1.587   1.489  0.3332  0.0429  0.4703
  257SOL     OW  911   2.561   2.516   3.741  0.2035 -0.7028  0.6166
  257SOL    HW1  912   2.633   2.457   3.717 -1.0822 -1.7227 -0.8851
  257SOL    HW2  913   2.561   2.515   3.836  1.4660 -1.5601  0.6437
  258SOL     OW  914   3.150   0.976   2.933  0.0510 -0.0176 -0.2624
  258SOL    HW1  915   3.123   1.066   2.950  2.7158  0.8567 -0.2063
  258SOL    HW2  916   3.145   0.933   3.019  0.2281  0.5372  0.0334
  259SOL     OW  917   3.551   1.052   1.398 -0.3074  1.0203 -0.5654
  259SOL    HW1  918   3.542   0.957   1.400 -1.5125  1.0943 -1.4172
  259SOL    HW2  919   3.559   1.073   1.305  1.1823  1.6729 -0.3283
  260SOL     OW  920   1.860   3.123   1.525 -0.3303  0.0930 -0.1740
  260SOL    HW1  921   1.803   3.188   1.484 -1.3751 -0.6205  0.1098
  260SOL    HW2  922   1.832   3.120   1.616 -0.0626 -0.5128 -0.1054
  261SOL     OW  923   3.417   3.386   2.677  0.1066  0.1510  0.3221
  261SOL    HW1  924   3.497   3.376   2.625 -0.1799 -0.3835 -0.0238
  261SOL    HW2  925   3.346   3.386   2.613 -0.4946 -3.2396  0.7944
  262SOL     OW  926   2.830   2.584   2.910 -0.5552  0.0804  0.3999
  262SOL    HW1  927   2.888   2.615   2.980  0.2836 -0.7617  0.1056
  262SOL    HW2  928   2.816   2.492   2.930 -0.9389  0.0239 -0.1128
  263SOL     OW  929   0.494   2.532   3.336  0.4965 -0.0244  0.6003
  263SOL    HW1  930   0.531   2.555   3.250  0.8944  0.1766  0.8229
  263SOL    HW2  931   0.486   2.437   3.333  0.7386 -0.0423  0.4240
  264SOL     OW  932   2.752   1.445   3.199  0.3977 -0.1469  0.1175
  264SOL    HW1  933   2.695   1.486   3.263  0.6946 -0.8742  0.8628
  264SOL    HW2  934   2.786   1.517   3.146  1.8173  0.7061  2.1101
  265SOL     OW  935   1.990   1.335   2.149  0.0255  0.7843 -0.2514
  265SOL    HW1  936   1.980   1.430   2.144  0.5488  0.8630  0.0762
  265SOL    HW2  937   2.075   1.318   2.108 -0.4034  0.3758 -0.9838
  266SOL     OW  938   0.872   2.889   2.245 -0.1840  0.0835 -0.8187
  266SOL    HW1  939   0.804   2.944   2.207  0.9323  0.2218 -2.7756
  266SOL    HW2  940   0.947   2.947   2.255  0.3047 -0.5465 -0.7579
  267SOL     OW  941   2.708   2.612   3.294  0.1812  0.6906 -0.1872
  267SOL    HW1  942   2.650   2.654   3.358 -1.1125  1.2832 -1.6577
  267SOL    HW2  943   2.682   2.650   3.210  3.0652  1.3230 -0.9035
  268SOL     OW  944   0.710   2.412   3.750 -0.3834 -0.0370  0.1708
  268SOL    HW1  945   0.741   2.490   3.704 -2.3301 -1.0631 -3.2246
  268SOL    HW2  946   0.687   2.443   3.837  1.9930  2.4164  0.0545
  269SOL     OW  947   2.995   2.176   3.545 -0.3871  0.0830  0.4415
  269SOL    HW1  948   3.015   2.221   3.626 -1.2348  0.4580  0.4511
  269SOL    HW2  949   3.057   2.212   3.481  1.1377 -1.1106  1.1695
  270SOL     OW  950   0.078   1.619   3.419  0.1008 -0.5498  0.1351
  270SOL    HW1  951   0.036   1.665   3.346  1.0535 -0.1310 -0.1716
  270SOL    HW2  952   0.006   1.582   3.469 -0.6990  1.1117  0.2671
  271SOL     OW  953   2.519   0.731   1.462  0.1790  0.4172  0.3448
  271SOL    HW1  954   2.430   0.701   1.482  0.3157 -0.0505  0.2713
  271SOL    HW2  955   2.534   0.804   1.522  0.2608 -0.4098  1.3479
  272SOL     OW  956   2.723   3.222   3.772 -0.6792 -0.8517 -0.0554
  272SOL    HW1  957   2.667   3.243   3.697 -0.0842 -0.3842 -0.3763
  272SOL    HW2  958   2.667   3.237   3.849 -1.4000 -1.6745 -0.4100
  273SOL     OW  959   0.796   0.192   1.828  0.4693  0.0109 -0.0495
  273SOL    HW1  960   0.862   0.156   1.887  1.2593  0.6550 -0.5173
  273SOL    HW2  961   0.724   0.218   1.886 -0.1557 -2.2810  0.3062
  274SOL     OW  962   1.132   1.915   2.598  0.4132  0.6936  0.3098
  274SOL    HW1  963   1.085   1.986   2.555  1.7560  0.9865 -0.7300
  274SOL    HW2  964   1.177   1.957   2.671  1.3254  0.9544 -0.3926
  275SOL     OW  965   0.217   2.765   0.442  0.0880  0.1190  0.0625
  275SOL    HW1  966   0.146   2.828   0.457  0.6148  0.5570  0.7922
  275SOL    HW2  967   0.269   2.769   0.523 -0.1742 -1.6400  0.3520
  276SOL     OW  968   3.381   1.850   0.973  0.5286  0.3359  0.1217
  276SOL    HW1  969   3.377   1.842   0.878  0.7322  1.9030 -0.0509
  276SOL    HW2  970   3.298   1.814   1.004 -0.2742  1.3468 -0.7959
  277SOL     OW  971   2.472   2.526   2.532 -0.2589 -0.1450 -0.0998
  277SOL    HW1  972   2.560   2.491   2.540 -1.0921 -2.3398  0.1266
  277SOL    HW2  973   2.447   2.507   2.441 -0.8965 -0.6126  0.1610
  278SOL     OW  974   3.190   2.512   2.061 -0.6680  0.1536 -0.5033
  278SOL    HW1  975   3.261   2.545   2.117 -0.9677  0.0720 -0.0772
  278SOL    HW2  976   3.113   2.512   2.117 -0.5367 -2.0061 -0.2509
  279SOL     OW  977   0.576   0.878   3.029 -0.1817  0.6085  0.5519
  279SOL    HW1  978   0.500   0.913   3.075 -0.5018  2.4828 -1.2427
  279SOL    HW2  979   0.539   0.816   2.966 -0.3925  2.0973 -0.8632
  280SOL     OW  980   2.841   0.910   2.855  0.1675  0.6851  0.1597
  280SOL    HW1  981   2.761   0.861   2.837  0.2028  1.6286 -3.4394
  280SOL    HW2  982   2.822   0.959   2.935 -2.2518 -0.2722  0.2474
  281SOL     OW  983   3.372   1.555   1.422  0.6824  0.3192 -0.1879
  281SOL    HW1  984   3.412   1.533   1.338 -2.3802 -0.8002 -1.5092
  281SOL    HW2  985   3.404   1.488   1.482  0.3390 -0.9325 -1.3523
  282SOL     OW  986   1.815   2.826   1.833  0.5771 -0.0505  0.8707
  282SOL    HW1  987   1.786   2.912   1.865 -0.8948 -0.3314  0.3458
  282SOL    HW2  988   1.893   2.846   1.781 -0.8317  1.2632 -0.8669
  283SOL     OW  989   2.434   2.953   3.157  0.3598 -0.2609 -0.0298
  283SOL    HW1  990   2.403   3.013   3.225 -1.7692 -1.4777  0.1328
  283SOL    HW2  991   2.432   2.867   3.199  1.1535 -0.7589 -0.9790
  284SOL     OW  992   2.017   0.446   2.544 -1.2150  0.6063 -0.0912
  284SOL    HW1  993   2.016   0.386   2.618  0.5493  0.5003 -0.1242
  284SOL    HW2  994   2.106   0.442   2.510 -1.7577  1.3024 -1.6993
  285SOL     OW  995   0.037   1.016   3.513 -0.4292  0.1721  0.4783
  285SOL    HW1  996   0.017   1.064   3.593 -0.1691  1.5027 -0.2290
  285SOL    HW2  997   0.036   1.082   3.444 -0.3995 -0.9010 -0.5944
  286SOL     OW  998   0.336   1.420   0.956 -0.2941 -1.0791  0.0069
  286SOL    HW1  999   0.412   1.384   0.910 -0.7201 -1.2172 -0.6035
  286SOL    HW2 1000   0.281   1.344   0.974 -1.3067 -0.7604 -1.4828
  287SOL     OW 1001   0.657   2.912   3.060  0.2667 -0.0386 -0.0703
  287SOL    HW1 1002   0.601   2.859   3.116 -0.2083  1.8809  1.3891
  287SOL    HW2 1003   0.700   2.849   3.002  0.3638 -2.0770  2.0689
  288SOL     OW 1004   1.580   2.006   2.460  0.4793  0.6332 -0.4018
  288SOL    HW1 1005   1.595   1.953   2.382 -1.9204  0.0710 -0.5532
  288SOL    HW2 1006   1.568   1.943   2.531  1.6956  1.1139  0.2531
  289SOL     OW 1007   0.642   3.520   1.894 -0.1706  0.3019  0.0673
  289SOL    HW1 1008   0.648   3.597   1.837 -0.1424  0.3709  0.1637
  289SOL    HW2 1009   0.581   3.545   1.963  0.5807  0.5891  0.6425
  290SOL     OW 1010   1.347   2.074   2.286  0.3257  0.1814  0.0018
  290SOL    HW1 1011   1.374   2.049   2.375  1.0642 -0.9483 -0.5075
  290SOL    HW2 1012   1.424   2.118   2.250 -0.2096  1.2506  0.1368
  291SOL     OW 1013   1.501   2.530   1.049 -0.1794 -0.0974 -0.3343
  291SOL    HW1 1014   1.556   2.608   1.054  0.8404 -0.7215 -1.2958
  291SOL    HW2 1015   1.527   2.477   1.124 -0.6387  0.3221  0.1305
  292SOL     OW 1016   0.744   2.719   1.037 -0.3068  0.2591 -0.0140
  292SOL    HW1 1017   0.784   2.642   1.078  0.6727  0.7592  0.0102
  292SOL    HW2 1018   0.807   2.789   1.053 -2.2427  1.6879  2.1680
  293SOL     OW 1019   3.058   1.449   3.239 -0.3176 -0.5443 -0.2410
  293SOL    HW1 1020   2.987   1.512   3.226  0.3911  0.0424 -1.4774
  293SOL    HW2 1021   3.138   1.499   3.222  0.3881 -1.2683  0.8150
  294SOL     OW 1022   1.237   1.570   3.633 -0.6957  0.3793  0.4996
  294SOL    HW1 1023   1.197   1.484   3.649  1.0379 -0.5851 -0.0777
  294SOL    HW2 1024   1.271   1.597   3.718 -3.6697  1.8952  1.3441
  295SOL     OW 1025   2.953   0.704   2.683  0.1340  0.4278  0.6199
  295SOL    HW1 1026   2.923   0.757   2.756  1.5583 -0.7818  2.1711
  295SOL    HW2 1027   2.951   0.762   2.608 -3.3129  1.1712  1.1474
  296SOL     OW 1028   2.206   3.468   1.388  0.1572 -0.1862 -0.7911
  296SOL    HW1 1029   2.200   3.373   1.374 -0.7603 -0.0683 -1.2125
  296SOL    HW2 1030   2.154   3.507   1.318 -1.9454  0.5181  1.0310
  297SOL     OW 1031   1.629   2.001   0.745  0.2109  0.1757 -0.3345
  297SOL    HW1 1032   1.655   2.035   0.659  0.0697  0.6336 -0.2025
  297SOL    HW2 1033   1.637   1.906   0.737 -0.0988  0.1955 -0.9522
  298SOL     OW 1034   2.024   1.813   1.456  0.2186 -0.0003 -0.5780
  298SOL    HW1 1035   2.066   1.898   1.446  0.1566 -0.0234 -1.0716
  298SOL    HW2 1036   1.969   1.804   1.378 -0.1062 -0.3031 -0.3175
  299SOL     OW 1037   3.182   2.081   0.841 -0.0574  0.3419  0.0114
  299SOL    HW1 1038   3.247   2.121   0.898 -0.9422 -0.1108  1.3877
  299SOL    HW2 1039   3.105   2.138   0.849 -0.2812  0.1250 -0.5372
  300SOL     OW 1040   2.893   0.979   1.515  0.4377  0.0972 -0.2456
  300SOL    HW1 1041   2.966   0.978   1.453  0.2475 -0.5443 -0.4612
  300SOL    HW2 1042   2.833   0.912   1.484  0.3814 -0.3042  0.6881
  301SOL     OW 1043   2.564   3.180   1.727 -0.0577 -0.3022  0.2988
  301SOL    HW1 1044   2.521   3.145   1.805  0.2282 -0.5929  0.3288
  301SOL    HW2 1045   2.644   3.128   1.719 -0.4283 -0.7696 -0.5995
  302SOL     OW 1046   0.767   1.795   0.582 -0.1067 -0.0749  0.3658
  302SOL    HW1 1047   0.812   1.762   0.504  0.4262  2.0901 -0.3200
  302SOL    HW2 1048   0.835   1.837   0.634 -1.0483  2.1836 -0.0952
  303SOL     OW 1049   1.227   2.732   1.095  0.0411 -0.6457 -0.3065
  303SOL    HW1 1050   1.315   2.737   1.131 -0.3599  0.5690  0.5866
  303SOL    HW2 1051   1.210   2.821   1.063 -1.0081 -0.7508 -0.0807
  304SOL     OW 1052   2.457   2.976   0.634  0.0305  0.1487  0.6104
  304SOL    HW1 1053   2.479   3.063   0.601  1.1619 -0.1653  0.5020
  304SOL    HW2 1054   2.489   2.975   0.724 -0.0270 -0.1366  0.6291
  305SOL     OW 1055   3.785   3.649   1.156 -0.8315  0.9756 -0.5878
  305SOL    HW1 1056   3.748   3.587   1.218  2.6340  1.0003  1.7779
  305SOL    HW2 1057   3.790   3.600   1.073  0.3109 -1.4401  0.8025
  306SOL     OW 1058   2.126   2.487   1.992 -0.0156  0.4575  0.2656
  306SOL    HW1 1059   2.070   2.534   2.053 -1.2110  2.0170 -1.8778
  306SOL    HW2 1060   2.097   2.396   1.997  0.6236  0.3092  2.6592
  307SOL     OW 1061   3.056   1.890   3.390 -0.5013 -0.4705 -0.3839
  307SOL    HW1 1062   3.115   1.965   3.399 -0.4725 -0.1401 -2.6973
  307SOL    HW2 1063   3.096   1.821   3.444  1.1979  0.1945 -0.7297
  308SOL     OW 1064   2.582   1.890   2.316  0.0764  0.0612  0.4325
  308SOL    HW1 1065   2.534   1.967   2.347 -0.5991 -0.2207  0.1096
  308SOL    HW2 1066   2.674   1.915   2.323 -0.1042  0.5144  1.3148
  309SOL     OW 1067   0.886   3.447   2.594 -0.0435 -0.5290 -0.4977
  309SOL    HW1 1068   0.801   3.451   2.637  0.8790 -0.3428  1.4195
  309SOL    HW2 1069   0.920   3.537   2.600  0.7724 -0.8499 -0.1794
  310SOL     OW 1070   2.095   3.755   3.060 -0.6070  0.5770 -0.3961
  310SOL    HW1 1071   2.162   3.754   2.991  0.5849 -3.3500  0.5352
  310SOL    HW2 1072   2.012   3.742   3.014  0.2328 -2.7580 -1.2800
  311SOL     OW 1073   1.735   0.930   2.348 -0.1268 -0.4469 -0.2323
  311SOL    HW1 1074   1.807   0.991   2.333  2.2450 -2.4536  1.9236
  311SOL    HW2 1075   1.734   0.874   2.271  1.1064 -0.7610 -0.0532
  312SOL     OW 1076   2.211   1.628   1.039  0.2461  0.4768 -0.4744
  312SOL    HW1 1077   2.273   1.672   1.097  2.2952 -0.6793 -1.6673
  312SOL    HW2 1078   2.129   1.626   1.089  0.9348  2.6757  0.8941
  313SOL     OW 1079   1.130   0.967   2.053 -0.0747  0.3155 -0.0990
  313SOL    HW1 1080   1.195   0.933   1.991 -0.4954  2.0325 -1.5865
  313SOL    HW2 1081   1.054   0.987   1.998 -0.6314  1.4740  1.0462
  314SOL     OW 1082   2.660   1.412   0.922 -0.5772 -0.3607  0.5032
  314SOL    HW1 1083   2.575   1.397   0.962 -1.9829  2.7940 -0.9564
  314SOL    HW2 1084   2.673   1.337   0.863 -1.1039 -2.1131  2.4837
  315SOL     OW 1085   2.828   3.187   2.835 -0.0955  0.0531 -0.4122
  315SOL    HW1 1086   2.774   3.114   2.864  2.3147 -1.2437  1.1356
  315SOL    HW2 1087   2.766   3.258   2.818 -2.3129 -1.5991  0.3408
  316SOL     OW 1088   2.273   0.101   0.183  0.6537 -0.4559 -0.2739
  316SOL    HW1 1089   2.343   0.155   0.217 -0.0525  1.9128 -2.2861
  316SOL    HW2 1090   2.302   0.076   0.095 -0.8942  0.4124 -1.0671
  317SOL     OW 1091   2.228   0.251   3.296  0.2974 -0.0548 -0.5330
  317SOL    HW1 1092   2.256   0.159   3.298 -1.7607 -0.7405 -0.4895
  317SOL    HW2 1093   2.145   0.249   3.248 -0.6639  1.5118  0.9656
  318SOL     OW 1094   1.340   3.715   0.411  1.3683  0.0910 -0.2979
  318SOL    HW1 1095   1.362   3.622   0.400  1.0319 -0.1365  0.8194
  318SOL    HW2 1096   1.251   3.715   0.446  2.0001  0.7573  1.4048
  319SOL     OW 1097   2.130   3.074   0.752 -0.6835 -0.7171 -0.1587
  319SOL    HW1 1098   2.180   3.153   0.736 -1.0349 -0.2753  0.8087
  319SOL    HW2 1099   2.166   3.009   0.692  0.5450 -0.2093  0.0097
  320SOL     OW 1100   1.914   3.497   0.351 -0.5317 -0.4913  0.4130
  320SOL    HW1 1101   1.898   3.503   0.445  2.1842  0.5251  0.8689
  320SOL    HW2 1102   1.949   3.582   0.326  1.1205 -1.5066 -1.0029
  321SOL     OW 1103   1.337   1.455   2.344 -0.5831 -0.8136 -0.2021
  321SOL    HW1 1104   1.255   1.491   2.308 -1.0385 -0.5854  1.0010
  321SOL    HW2 1105   1.399   1.459   2.272 -1.2005  0.4972 -0.6979
  322SOL     OW 1106   0.951   3.175   0.940  0.4956 -0.3984 -0.2665
  322SOL    HW1 1107   1.034   3.136   0.969  0.2996 -0.7448 -0.1710
  322SOL    HW2 1108   0.972   3.268   0.928  0.5946 -0.2520  0.9307
  323SOL     OW 1109   0.681   2.920   0.017  0.3887 -0.1530  0.0550
  323SOL    HW1 1110   0.592   2.885   0.014 -0.1002  1.1261 -2.1040
  323SOL    HW2 1111   0.676   2.995   0.076  0.0027  0.0105 -0.1870
  324SOL     OW 1112   2.412   2.197   3.742  0.2638  0.2553  0.4121
  324SOL    HW1 1113   2.435   2.123   3.687 -1.6044  0.3768 -0.6134
  324SOL    HW2 1114   2.472   2.267   3.715  0.6522 -0.2647 -0.0919
  325SOL     OW 1115   0.928   2.541   3.066  0.1233 -0.0398 -0.5464
  325SOL    HW1 1116   0.869   2.574   2.998 -0.8431 -4.5140 -2.2583
  325SOL    HW2 1117   1.011   2.526   3.020  0.8481  0.8528  0.4198
  326SOL     OW 1118   2.117   1.444   0.243 -0.2642  0.6832 -0.1866
  326SOL    HW1 1119   2.160   1.528   0.258  0.3046 -0.0271  2.8884
  326SOL    HW2 1120   2.035   1.450   0.292  0.8609 -1.2737  2.1372
  327SOL     OW 1121   1.581   1.001   0.168  0.6296  0.3782  0.5153
  327SOL    HW1 1122   1.622   0.937   0.226 -0.3481  0.1096  0.9205
  327SOL    HW2 1123   1.650   1.024   0.106  1.3157 -0.2602  1.0189
  328SOL     OW 1124   0.353   1.708   0.773 -0.2906  0.9107  0.4508
  328SOL    HW1 1125   0.317   1.642   0.713 -1.3878 -0.7793  2.7624
  328SOL    HW2 1126   0.400   1.770   0.717 -0.0431 -1.2945 -1.9626
  329SOL     OW 1127   0.576   0.082   2.538  0.3604 -0.2412  0.2324
  329SOL    HW1 1128   0.565   0.176   2.524 -0.9506 -0.2394  1.0064
  329SOL    HW2 1129   0.616   0.076   2.625  1.0888 -0.3894 -0.1116
  330SOL     OW 1130   2.049   2.949   3.159  0.1761 -0.1215 -0.4632
  330SOL    HW1 1131   2.069   2.863   3.195 -0.0508 -0.2186 -0.5705
  330SOL    HW2 1132   2.001   2.931   3.078 -1.8138  0.1117  0.6118
  331SOL     OW 1133   1.483   1.168   0.543 -0.6021 -0.0087  0.1619
  331SOL    HW1 1134   1.537   1.246   0.527  0.3015 -0.2135  1.9128
  331SOL    HW2 1135   1.421   1.196   0.610 -1.2465 -0.4029 -0.2643
  332SOL     OW 1136   3.761   0.210   0.552  0.0224 -0.3074 -0.3917
  332SOL    HW1 1137   3.762   0.302   0.579  0.2431 -0.3232 -0.3400
  332SOL    HW2 1138   3.830   0.205   0.486  1.6948 -0.9338  1.3040
  333SOL     OW 1139   3.600   1.668   0.205 -0.0263  0.3119  0.5659
  333SOL    HW1 1140   3.512   1.659   0.242 -0.7341 -1.1608 -1.3162
  333SOL    HW2 1141   3.587   1.722   0.126  1.1972  2.1297  1.5323
  334SOL     OW 1142   1.468   3.724   2.107 -0.1012  0.0987  0.4114
  334SOL    HW1 1143   1.389   3.680   2.140 -0.6468  0.5497 -0.2598
  334SOL    HW2 1144   1.537   3.699   2.168 -0.4676 -1.4254  0.2415
  335SOL     OW 1145   1.601   2.100   0.168 -0.7952 -0.1512 -0.3998
  335SOL    HW1 1146   1.532   2.059   0.220  0.5122 -0.0445  1.5420
  335SOL    HW2 1147   1.671   2.118   0.232 -0.3484  2.9329 -1.6243
  336SOL     OW 1148   0.770   2.162   2.211 -0.1528 -0.2837  0.6629
  336SOL    HW1 1149   0.786   2.095   2.144 -0.2080 -1.9185  2.1963
  336SOL    HW2 1150   0.688   2.203   2.184 -0.8428 -1.7765  0.3694
  337SOL     OW 1151   0.020   3.398   1.347 -0.4724  0.3284  0.3071
  337SOL    HW1 1152   0.066   3.321   1.379 -1.7850 -0.3522  0.6522
  337SOL    HW2 1153  -0.035   3.426   1.421 -0.2511  1.4075  0.0850
  338SOL     OW 1154   0.943   3.207   0.187  0.6143 -0.1405 -0.0066
  338SOL    HW1 1155   0.884   3.239   0.118 -0.5786 -2.1786 -0.0101
  338SOL    HW2 1156   1.024   3.255   0.173  0.1682  0.0443 -2.3749
  339SOL     OW 1157   1.795   2.636   1.154 -0.6973  0.5398  0.0078
  339SOL    HW1 1158   1.838   2.600   1.076 -0.1497  1.0067  0.0882
  339SOL    HW2 1159   1.841   2.595   1.228 -0.4724  0.9307  0.0913
  340SOL     OW 1160   3.694   3.276   3.816 -0.4633  0.1253  0.1847
  340SOL    HW1 1161   3.707   3.320   3.732 -3.0320 -0.2577 -0.4999
  340SOL    HW2 1162   3.739   3.192   3.806  1.0816  0.9232  0.0421
  341SOL     OW 1163   0.088   1.835   0.550  0.1146  0.2299  0.4017
  341SOL    HW1 1164   0.014   1.797   0.598 -1.9170  1.7797 -1.3024
  341SOL    HW2 1165   0.087   1.789   0.466 -0.0436  1.4484 -0.2849
  342SOL     OW 1166   3.815   2.693   3.823  0.6271  0.2801  0.1427
  342SOL    HW1 1167   3.871   2.714   3.748  0.2679  0.4750 -0.0770
  342SOL    HW2 1168   3.818   2.598   3.829  2.1597  0.3674  1.0609
  343SOL     OW 1169   0.441   0.008   0.814 -0.5139 -0.5347  0.0006
  343SOL    HW1 1170   0.426   0.094   0.852  0.0907  0.5696 -2.0989
  343SOL    HW2 1171   0.362  -0.010   0.762 -0.7736 -1.4185  0.6685
  344SOL     OW 1172   0.984   1.308   2.110 -0.3804  0.5374  0.3808
  344SOL    HW1 1173   0.915   1.339   2.169  0.4588  2.3043  0.4819
  344SOL    HW2 1174   1.010   1.223   2.148 -1.9182  0.2120  0.7885
  345SOL     OW 1175   3.501   0.799   2.061  0.3207  0.3345 -0.2248
  345SOL    HW1 1176   3.519   0.880   2.013  0.4723  1.2450  1.2863
  345SOL    HW2 1177   3.531   0.818   2.150 -3.3588  0.1185  1.2236
  346SOL     OW 1178   3.131   3.108   2.513  0.3674  0.1163 -0.1331
  346SOL    HW1 1179   3.168   3.196   2.508 -0.9072  1.0368  3.2098
  346SOL    HW2 1180   3.170   3.070   2.592 -0.3252 -1.6743 -0.6012
  347SOL     OW 1181   0.248   2.841   1.281 -0.0605  0.0542  0.2473
  347SOL    HW1 1182   0.319   2.897   1.312  0.0189 -0.8469  1.7711
  347SOL    HW2 1183   0.292   2.759   1.258 -0.5846 -0.5069  1.1969
  348SOL     OW 1184   0.162   2.364   0.386 -0.0697  0.3683  0.0720
  348SOL    HW1 1185   0.147   2.285   0.438  1.1752  0.3157  0.3620
  348SOL    HW2 1186   0.099   2.428   0.421  1.9943  0.9823  3.0794
  349SOL     OW 1187   2.188   2.155   3.124 -0.3372  0.3118 -0.0989
  349SOL    HW1 1188   2.176   2.077   3.070 -0.3890  0.5267 -0.3981
  349SOL    HW2 1189   2.164   2.228   3.067 -0.5853  0.5252  0.2737
  350SOL     OW 1190   0.096   3.805   1.826 -0.1015  0.1847  0.3728
  350SOL    HW1 1191   0.112   3.849   1.909  0.6699 -0.3398  0.5151
  350SOL    HW2 1192   0.037   3.733   1.848  0.9649 -0.6214  0.6855
  351SOL     OW 1193   2.760   1.586   2.522 -0.5612 -0.4810  0.7349
  351SOL    HW1 1194   2.753   1.521   2.592 -3.1038 -0.5769  0.4683
  351SOL    HW2 1195   2.771   1.669   2.569 -1.1659 -0.6660  1.2244
  352SOL     OW 1196   3.840   1.773   2.778  0.3361 -0.4677 -0.4997
  352SOL    HW1 1197   3.751   1.784   2.811  0.4339  1.1892 -0.6916
  352SOL    HW2 1198   3.896   1.798   2.852  0.5693  1.6283 -1.3136
  353SOL     OW 1199   2.144   2.025   2.710 -0.6642  0.3756 -0.2310
  353SOL    HW1 1200   2.055   2.000   2.686 -0.9621 -0.2208  1.3650
  353SOL    HW2 1201   2.161   1.976   2.790  0.9109  0.9020 -0.2197
  354SOL     OW 1202   1.340   3.495   1.049 -0.3886 -0.8470  0.6499
  354SOL    HW1 1203   1.320   3.571   0.993  0.0211 -1.4039 -0.2742
  354SOL    HW2 1204   1.293   3.423   1.007  0.6929 -1.4630  0.4782
  355SOL     OW 1205   1.153   1.525   2.098  0.0409 -0.3815 -0.4636
  355SOL    HW1 1206   1.106   1.542   2.017 -0.5301 -0.8688 -0.2432
  355SOL    HW2 1207   1.107   1.451   2.138 -1.5191  1.6438  1.7310
  356SOL     OW 1208   1.251   2.917   1.599 -0.1977  0.1937  0.2985
  356SOL    HW1 1209   1.330   2.962   1.571 -1.6624  1.1350 -2.7498
  356SOL    HW2 1210   1.180   2.978   1.579 -1.9447 -1.9081 -0.3492
  357SOL     OW 1211   3.459   2.761   2.436  0.1237 -0.4468 -0.0942
  357SOL    HW1 1212   3.364   2.754   2.448 -0.1419  1.1051 -0.9018
  357SOL    HW2 1213   3.493   2.675   2.459 -1.3421 -0.6848  1.3873
  358SOL     OW 1214   0.710   3.608   0.085 -0.3033 -0.1037  0.6212
  358SOL    HW1 1215   0.738   3.518   0.072 -0.1741 -0.0895  0.8020
  358SOL    HW2 1216   0.615   3.602   0.100 -0.7458  0.0107 -1.8006
  359SOL     OW 1217   1.207   3.652   2.171 -0.0493  0.1083 -0.3388
  359SOL    HW1 1218   1.204   3.745   2.191 -2.4959  0.1047 -0.3100
  359SOL    HW2 1219   1.147   3.612   2.235 -1.1898 -1.0730 -2.0352
  360SOL     OW 1220   1.885   2.851   2.946 -0.5377 -0.6943 -0.0058
  360SOL    HW1 1221   1.865   2.882   2.858  1.5841 -0.1088 -0.3161
  360SOL    HW2 1222   1.907   2.758   2.935 -1.2511 -0.8883  0.0926
  361SOL     OW 1223   3.128   0.866   1.361 -0.6278  0.7211 -0.3440
  361SOL    HW1 1224   3.120   0.773   1.341  2.0564 -0.3657  2.6866
  361SOL    HW2 1225   3.198   0.898   1.303  0.4051  0.0756  0.5144
  362SOL     OW 1226   2.869   2.973   1.458  0.2294  0.4783  0.3857
  362SOL    HW1 1227   2.864   2.877   1.458  0.5005  0.4643  0.6083
  362SOL    HW2 1228   2.944   2.993   1.401  1.0342  0.5099  1.4331
  363SOL     OW 1229   0.434   2.088   0.672 -0.5411 -0.7877  0.0553
  363SOL    HW1 1230   0.389   2.102   0.755  0.8713  0.9939  0.5913
  363SOL    HW2 1231   0.442   2.175   0.634 -1.8624 -1.6567 -2.3864
  364SOL     OW 1232   2.026   1.243   1.691 -0.5078 -0.2695 -0.5524
  364SOL    HW1 1233   1.933   1.255   1.670 -0.6424 -1.0921 -0.4685
  364SOL    HW2 1234   2.071   1.263   1.609 -0.9075 -1.7271 -1.1700
  365SOL     OW 1235   3.838   2.416   0.758  0.4167  0.5205 -0.2859
  365SOL    HW1 1236   3.773   2.347   0.746  0.0555  0.7587  0.2668
  365SOL    HW2 1237   3.886   2.390   0.837 -0.4772  1.4760  0.5960
  366SOL     OW 1238   1.128   0.311   1.889  0.1704  0.2846 -0.2014
  366SOL    HW1 1239   1.126   0.394   1.841 -0.5422  0.5834  0.3394
  366SOL    HW2 1240   1.176   0.252   1.830  0.9770  1.1529 -0.4481
  367SOL     OW 1241   2.356   1.013   3.769 -0.3734  0.2232 -0.0915
  367SOL    HW1 1242   2.264   1.035   3.777  0.0873  2.2189  0.3218
  367SOL    HW2 1243   2.370   0.941   3.831 -1.6182 -0.0560 -0.1251
  368SOL     OW 1244   0.593   1.398   0.088 -0.2385  0.4334  0.1212
  368SOL    HW1 1245   0.564   1.483   0.054 -1.1131  0.4770  0.9322
  368SOL    HW2 1246   0.601   1.411   0.182  0.4232 -0.1730  0.1608
  369SOL     OW 1247   3.147   0.182   1.980 -1.1209 -0.3091 -0.5246
  369SOL    HW1 1248   3.111   0.099   2.012 -0.5497 -0.6165 -0.6735
  369SOL    HW2 1249   3.071   0.240   1.974 -1.7570 -1.2366 -1.7432
  370SOL     OW 1250   3.543   1.392   2.870  1.2242  0.1567 -0.1062
  370SOL    HW1 1251   3.531   1.483   2.899 -0.2446  0.5030 -1.6239
  370SOL    HW2 1252   3.486   1.341   2.927  0.7388  0.4357 -0.3283
  371SOL     OW 1253   1.334   0.725   3.729 -0.2611 -0.2783  0.1971
  371SOL    HW1 1254   1.330   0.808   3.776  1.2562  0.2395 -0.5335
  371SOL    HW2 1255   1.337   0.749   3.636  0.1794 -1.1326 -0.0286
  372SOL     OW 1256   2.047   2.218   2.026  0.6477 -0.0662  0.2640
  372SOL    HW1 1257   2.133   2.181   2.049  0.1252 -3.3529 -2.3192
  372SOL    HW2 1258   1.986   2.172   2.083  0.3298  0.0317  0.0001
  373SOL     OW 1259   3.643   3.220   1.493 -0.4919  0.4066 -0.1580
  373SOL    HW1 1260   3.666   3.164   1.567 -4.2397 -2.2970 -0.7888
  373SOL    HW2 1261   3.630   3.307   1.533  0.4548 -0.2641  1.7773
  374SOL     OW 1262   1.093   1.061   0.188 -0.6537 -0.0240 -0.3381
  374SOL    HW1 1263   1.187   1.049   0.195 -0.5065  0.8356 -0.7537
  374SOL    HW2 1264   1.074   1.051   0.095 -0.6756  1.7167 -0.5590
  375SOL     OW 1265   0.072   3.328   2.382 -0.1652 -0.0896 -0.5598
  375SOL    HW1 1266   0.122   3.403   2.350  0.0222  0.1783  0.3426
  375SOL    HW2 1267   0.108   3.310   2.469  0.7895 -2.1365 -1.3201
  376SOL     OW 1268   1.952   2.896   0.902  0.3570  0.1115 -0.0537
  376SOL    HW1 1269   2.001   2.963   0.854  1.0409 -1.4476 -1.6533
  376SOL    HW2 1270   1.991   2.895   0.989  0.1165  1.9643  0.1193
  377SOL     OW 1271   3.048   3.301   0.281 -0.0228  0.1413  0.8684
  377SOL    HW1 1272   3.073   3.384   0.241 -0.2280  0.2486  0.9581
  377SOL    HW2 1273   2.973   3.323   0.337 -1.6418 -0.4905 -0.9091
  378SOL     OW 1274   2.262   1.836   3.479  0.9723  0.0979 -0.6210
  378SOL    HW1 1275   2.204   1.870   3.411  2.1042 -0.4268 -1.8715
  378SOL    HW2 1276   2.230   1.878   3.560 -0.1514  1.0236 -1.5059
  379SOL     OW 1277   3.320   0.245   3.418 -0.4971 -0.6759 -0.2753
  379SOL    HW1 1278   3.274   0.328   3.428 -1.6046 -0.8584 -3.1033
  379SOL    HW2 1279   3.283   0.189   3.486 -1.3808  0.4559  0.2157
  380SOL     OW 1280   0.672   1.133   1.853 -0.3174  0.5415 -0.3685
  380SOL    HW1 1281   0.590   1.099   1.889  0.5827 -0.8159  0.4990
  380SOL    HW2 1282   0.645   1.183   1.776 -1.9912  0.4995  0.1436
  381SOL     OW 1283   1.722   0.376   2.707  0.4628 -0.0527 -0.4710
  381SOL    HW1 1284   1.754   0.298   2.660 -2.1767 -1.2613 -0.4395
  381SOL    HW2 1285   1.674   0.425   2.640 -0.1148  0.1779  0.1112
  382SOL     OW 1286   1.612   0.550   1.291 -0.5885 -0.1535  0.1141
  382SOL    HW1 1287   1.556   0.618   1.329 -0.3572 -0.4662  1.0556
  382SOL    HW2 1288   1.551   0.480   1.266 -0.5685 -1.3231  2.8802
  383SOL     OW 1289   1.357   3.028   0.496 -0.2133 -0.1451  0.2331
  383SOL    HW1 1290   1.300   2.992   0.428 -1.4761  0.4028  0.9706
  383SOL    HW2 1291   1.444   3.030   0.456 -0.7184 -0.9190 -0.9510
  384SOL     OW 1292   3.178   3.394   2.528 -0.2128  0.5607 -0.7195
  384SOL    HW1 1293   3.165   3.405   2.434 -1.3390 -1.3644 -0.8391
  384SOL    HW2 1294   3.093   3.416   2.567 -0.6967 -1.4866 -0.4800
  385SOL     OW 1295   2.921   3.621   1.535 -0.1941  0.4890  0.6514
  385SOL    HW1 1296   2.841   3.578   1.563  0.2747 -0.0991  1.1130
  385SOL    HW2 1297   2.919   3.706   1.578  0.1092 -0.0762  1.8146
  386SOL     OW 1298   3.243   0.985   2.539  0.2632  0.0866  0.3366
  386SOL    HW1 1299   3.153   0.956   2.523  0.2470  0.0491  0.4960
  386SOL    HW2 1300   3.273   0.932   2.613  0.9608 -1.0502 -0.7293
  387SOL     OW 1301   3.814   0.036   2.985  0.5776  0.4279 -0.0890
  387SOL    HW1 1302   3.806  -0.013   2.903  2.8769  0.0177 -0.1274
  387SOL    HW2 1303   3.784   0.124   2.964  0.3168  0.1029 -1.1370
  388SOL     OW 1304   3.594   1.074   1.119  0.1142 -0.2734 -0.1827
  388SOL    HW1 1305   3.605   1.155   1.068  2.3895  2.2000  3.7291
  388SOL    HW2 1306   3.675   1.025   1.103 -0.4513 -0.9381 -1.1036
  389SOL     OW 1307   3.454   2.469   1.952 -0.0077  0.1069  0.2724
  389SOL    HW1 1308   3.359   2.466   1.962 -0.1885 -1.8423 -1.4603
  389SOL    HW2 1309   3.472   2.560   1.929 -1.6893  0.1361 -1.1694
  390SOL     OW 1310   3.155   2.064   0.162 -0.1437 -0.4473  0.2005
  390SOL    HW1 1311   3.105   2.006   0.105 -1.0072 -0.1908  0.6838
  390SOL    HW2 1312   3.093   2.094   0.228  0.7333 -0.3911  1.0307
  391SOL     OW 1313   0.401   3.151   1.235  1.0345 -0.1133 -0.6407
  391SOL    HW1 1314   0.399   3.065   1.193  2.1417  0.0894 -1.1588
  391SOL    HW2 1315   0.489   3.156   1.273  1.7813  1.6052 -2.4396
  392SOL     OW 1316   2.492   1.217   2.263  0.4069  0.0505 -0.5630
  392SOL    HW1 1317   2.501   1.125   2.240  0.6341  0.1921 -1.0498
  392SOL    HW2 1318   2.491   1.264   2.179 -3.4312  0.2387 -0.5844
  393SOL     OW 1319   2.867   0.156   0.745  0.5944  0.4486 -0.0888
  393SOL    HW1 1320   2.922   0.151   0.666 -0.1644  0.7674 -0.6516
  393SOL    HW2 1321   2.841   0.065   0.761  0.3091  0.4477 -0.5332
  394SOL     OW 1322   1.187   2.410   3.151 -0.4521 -0.0965 -0.0572
  394SOL    HW1 1323   1.192   2.459   3.233 -1.3437  1.7508 -1.0357
  394SOL    HW2 1324   1.094   2.386   3.143 -0.2622 -0.7876 -0.2460
  395SOL     OW 1325   1.231   3.000   0.764 -0.2621  0.1373  0.1485
  395SOL    HW1 1326   1.159   2.938   0.750 -0.4116  0.7380 -2.0741
  395SOL    HW2 1327   1.285   2.992   0.685  2.0377 -0.1221  1.6325
  396SOL     OW 1328   1.422   1.669   2.054 -0.3378 -0.0836  0.1418
  396SOL    HW1 1329   1.461   1.646   1.969 -1.1929 -1.3929  0.0763
  396SOL    HW2 1330   1.328   1.663   2.039 -0.5052 -2.7618  1.7689
  397SOL     OW 1331   2.018   2.638   0.549  0.0434 -0.3039 -0.4011
  397SOL    HW1 1332   2.031   2.544   0.533 -0.3171 -1.1264  3.1465
  397SOL    HW2 1333   2.095   2.680   0.512  0.9132 -2.1677 -0.8140
  398SOL     OW 1334   2.226   3.384   3.753  0.3368  0.2113 -0.0099
  398SOL    HW1 1335   2.245   3.301   3.796  1.7066 -0.4266 -1.7220
  398SOL    HW2 1336   2.139   3.408   3.785  0.4085 -1.2706  1.4175
  399SOL     OW 1337   0.367   1.545   2.412  0.2030  0.4838  0.3123
  399SOL    HW1 1338   0.432   1.476   2.428  0.4682  0.8640  0.8927
  399SOL    HW2 1339   0.343   1.577   2.499  0.4864  1.5026  0.0310
  400SOL     OW 1340   1.054   2.017   0.628 -0.6389 -0.0461  0.7125
  400SOL    HW1 1341   1.094   2.100   0.652 -0.7102  0.9519 -2.2587
  400SOL    HW2 1342   0.991   1.999   0.698  0.8611  1.2834  2.4842
  401SOL     OW 1343   0.152   2.785   1.742  0.4052 -0.5295 -0.2305
  401SOL    HW1 1344   0.171   2.848   1.812 -0.1758 -0.4784 -0.1128
  401SOL    HW2 1345   0.212   2.713   1.757  1.9902  0.5432 -1.1149
  402SOL     OW 1346   0.578   0.354   0.646  0.0959  0.0127 -0.2807
  402SOL    HW1 1347   0.657   0.375   0.594 -0.6001  1.6775 -0.7357
  402SOL    HW2 1348   0.576   0.422   0.713 -0.3610 -0.6847  0.4120
  403SOL     OW 1349   0.682   3.767   1.337 -0.5183  0.6011  0.2913
  403SOL    HW1 1350   0.748   3.827   1.302  0.1018 -0.2710 -0.0745
  403SOL    HW2 1351   0.636   3.735   1.259  1.1260 -1.6557  0.1165
  404SOL     OW 1352   0.435   0.639   3.303 -0.8695 -0.1140  0.2853
  404SOL    HW1 1353   0.509   0.580   3.318 -1.1132 -1.0364 -1.8649
  404SOL    HW2 1354   0.455   0.715   3.357  0.4712 -1.2997  1.5639
  405SOL     OW 1355   3.850   1.209   0.088 -0.0125  0.4879  0.1688
  405SOL    HW1 1356   3.802   1.176   0.012 -0.7107 -0.1287  0.8578
  405SOL    HW2 1357   3.807   1.291   0.110 -0.6355  0.0419  0.6547
  406SOL     OW 1358   0.238   1.397   1.884  0.9296  0.8629  0.0139
  406SOL    HW1 1359   0.213   1.383   1.976 -1.3476  3.0967 -0.1599
  406SOL    HW2 1360   0.198   1.325   1.837 -0.9554  1.5835  0.4119
  407SOL     OW 1361   1.346   0.050   3.035  0.3918 -0.5983 -0.5373
  407SOL    HW1 1362   1.421   0.102   3.063 -0.7054  0.8629 -0.1800
  407SOL    HW2 1363   1.288   0.050   3.111 -0.1464 -1.3782 -0.9374
  408SOL     OW 1364   2.169   1.998   2.347 -0.0922 -0.3676 -0.7775
  408SOL    HW1 1365   2.095   1.940   2.332 -2.3075  2.1448 -0.4970
  408SOL    HW2 1366   2.200   1.975   2.435 -1.8239 -0.2542 -0.0943
  409SOL     OW 1367   1.845   3.838   1.769 -0.5025 -0.0429 -0.4062
  409SOL    HW1 1368   1.915   3.842   1.834 -2.1102  1.8543  1.3947
  409SOL    HW2 1369   1.889   3.845   1.685  1.4358  2.5580  0.6804
  410SOL     OW 1370   2.594   0.791   3.242 -0.4878  0.1542 -0.9377
  410SOL    HW1 1371   2.573   0.781   3.150 -1.5071  1.4888 -0.8779
  410SOL    HW2 1372   2.536   0.860   3.273 -0.3660 -0.4612  0.7788
  411SOL     OW 1373   2.531   0.949   2.202  0.2680  0.4376  0.2692
  411SOL    HW1 1374   2.450   0.938   2.152 -1.8971 -0.3447  3.5748
  411SOL    HW2 1375   2.534   0.871   2.258  4.9341 -1.0425 -1.5785
  412SOL     OW 1376   1.360   0.567   0.583 -0.1154 -0.3209  0.4828
  412SOL    HW1 1377   1.402   0.525   0.508 -0.6522 -1.1336  0.6220
  412SOL    HW2 1378   1.316   0.643   0.546  3.0025  1.7265  0.6058
  413SOL     OW 1379   1.878   3.514   3.558  0.8576  0.2625  0.5448
  413SOL    HW1 1380   1.919   3.496   3.473 -0.9613  0.7748 -0.4910
  413SOL    HW2 1381   1.903   3.604   3.579 -1.5396  1.4671 -1.2669
  414SOL     OW 1382   1.338   3.120   3.293  0.2862 -0.0165  0.1515
  414SOL    HW1 1383   1.257   3.139   3.245 -1.2804 -0.9930  2.2754
  414SOL    HW2 1384   1.382   3.053   3.241 -0.2289  0.5642 -1.0644
  415SOL     OW 1385   0.962   1.245   1.372 -0.1914 -0.2392  0.6849
  415SOL    HW1 1386   0.965   1.182   1.301 -1.2869  0.7833 -0.3153
  415SOL    HW2 1387   0.880   1.227   1.417 -1.5948  1.6977 -0.8793
  416SOL     OW 1388   3.010   1.605   0.845 -0.0986  0.3679 -0.3340
  416SOL    HW1 1389   2.915   1.594   0.849 -0.0333 -0.2106 -0.2475
  416SOL    HW2 1390   3.023   1.698   0.827 -0.7043  0.1690 -1.8993
  417SOL     OW 1391   1.768   3.716   1.328 -0.3124 -0.7498 -0.3824
  417SOL    HW1 1392   1.721   3.721   1.245  1.1428 -0.3937 -1.2303
  417SOL    HW2 1393   1.720   3.653   1.380 -0.8801 -1.4807 -1.7592
  418SOL     OW 1394   2.021   0.186   0.196  0.5072  0.5936 -0.0128
  418SOL    HW1 1395   2.013   0.224   0.284 -0.3770  0.2716  0.0586
  418SOL    HW2 1396   2.112   0.157   0.191  0.8023  1.3967  0.4714
  419SOL     OW 1397   0.590   2.549   1.322  0.4602  0.0025 -0.8043
  419SOL    HW1 1398   0.553   2.488   1.259 -0.1426 -0.4914  0.0105
  419SOL    HW2 1399   0.517   2.606   1.347  0.9585  0.9301 -1.3803
  420SOL     OW 1400   1.641   1.748   0.635 -0.1982 -0.6609 -0.4996
  420SOL    HW1 1401   1.661   1.659   0.665  2.0005 -0.0998 -0.0837
  420SOL    HW2 1402   1.649   1.743   0.540 -1.8417 -1.2533 -0.6408
  421SOL     OW 1403   1.647   1.777   0.343  0.0282  0.2279 -0.1178
  421SOL    HW1 1404   1.618   1.686   0.349 -1.6245  0.7981  1.6582
  421SOL    HW2 1405   1.611   1.808   0.260 -1.7743 -0.0326  0.5101
  422SOL     OW 1406   1.829   2.471   1.378  0.0321  0.7136 -0.2086
  422SOL    HW1 1407   1.818   2.434   1.466  0.2634 -0.3773 -0.6147
  422SOL    HW2 1408   1.750   2.443   1.330  0.1418  0.8689 -0.4832
  423SOL     OW 1409   3.605   1.156   2.575  0.7991  0.0174 -0.1096
  423SOL    HW1 1410   3.658   1.209   2.515 -1.0871 -0.0351 -1.9123
  423SOL    HW2 1411   3.532   1.213   2.599 -0.4925 -1.2472 -0.9141
  424SOL     OW 1412   2.336   3.649   1.930  0.6171 -0.2213 -0.3379
  424SOL    HW1 1413   2.345   3.580   1.864 -0.2971 -0.5837 -0.1050
  424SOL    HW2 1414   2.354   3.730   1.883  1.3728 -0.5832 -0.6988
  425SOL     OW 1415   1.441   2.943   1.804 -0.0993  0.1423  0.4161
  425SOL    HW1 1416   1.417   2.939   1.897  0.6456 -1.3484  0.5729
  425SOL    HW2 1417   1.358   2.962   1.759 -2.1600 -5.6617  0.8540
  426SOL     OW 1418   1.353   1.060   1.763 -0.8998  0.4958  0.0567
  426SOL    HW1 1419   1.375   1.138   1.814 -1.4249 -0.8887  2.5789
  426SOL    HW2 1420   1.260   1.046   1.780 -0.5805 -1.2586  0.5201
  427SOL     OW 1421   1.231   1.327   2.567 -0.1120  0.0103  0.2067
  427SOL    HW1 1422   1.218   1.242   2.525 -2.6448 -0.6508  2.0133
  427SOL    HW2 1423   1.281   1.378   2.504  0.7088 -2.5093 -1.3368
  428SOL     OW 1424   3.320   0.606   2.916  0.0856  0.1160 -0.6360
  428SOL    HW1 1425   3.318   0.550   2.838 -0.3757  1.7019 -1.8151
  428SOL    HW2 1426   3.358   0.551   2.984 -1.3173 -1.9545 -1.4522
  429SOL     OW 1427   1.005   2.764   0.705 -0.5430 -0.2160  0.1308
  429SOL    HW1 1428   1.017   2.707   0.628 -0.4048  2.6858 -2.1596
  429SOL    HW2 1429   0.910   2.765   0.719 -0.5130 -1.3982  0.6045
  430SOL     OW 1430   0.917   2.143   1.091  0.3606  0.4365  0.6440
  430SOL    HW1 1431   1.009   2.167   1.104  0.3147  1.2137 -0.3333
  430SOL    HW2 1432   0.868   2.222   1.114 -0.3089 -0.7268  3.6891
  431SOL     OW 1433   0.126   1.407   2.532  0.0041  0.1362  0.1119
  431SOL    HW1 1434   0.081   1.427   2.615 -0.6166  3.7032 -0.9027
  431SOL    HW2 1435   0.217   1.433   2.547 -0.3127  1.7205 -0.5479
  432SOL     OW 1436   2.411   3.046   3.728 -0.0880  0.4660 -0.1894
  432SOL    HW1 1437   2.404   3.021   3.636 -1.9539 -0.4500  0.1595
  432SOL    HW2 1438   2.332   3.012   3.769  1.8584 -1.4870  2.3365
  433SOL     OW 1439   0.646   2.003   1.441  0.3036  0.7817 -0.0672
  433SOL    HW1 1440   0.572   1.985   1.498  0.5261  1.8374  0.5878
  433SOL    HW2 1441   0.657   1.924   1.389 -0.2380 -0.0143  1.0002
  434SOL     OW 1442   0.443   1.648   2.068 -0.0004  0.0222 -0.0032
  434SOL    HW1 1443   0.475   1.576   2.013  1.0561  0.7992 -0.4332
  434SOL    HW2 1444   0.522   1.686   2.106 -0.7033 -0.5044  2.0925
  435SOL     OW 1445   0.433   2.825   1.931 -0.7619 -0.5543 -0.2952
  435SOL    HW1 1446   0.519   2.853   1.899 -0.9253 -0.4544 -0.6514
  435SOL    HW2 1447   0.422   2.736   1.898 -1.5651  0.0669 -1.8142
  436SOL     OW 1448   1.766   1.153   2.643  0.3236 -0.0436 -0.5056
  436SOL    HW1 1449   1.826   1.082   2.622 -0.7504 -1.5094  1.1015
  436SOL    HW2 1450   1.679   1.115   2.633 -0.2811  1.0509  0.3227
  437SOL     OW 1451   3.720   3.100   1.737 -0.2460  0.0543 -0.1203
  437SOL    HW1 1452   3.725   3.008   1.766 -0.7034  0.4078  1.1422
  437SOL    HW2 1453   3.722   3.150   1.818  2.1236  1.2918 -0.8554
  438SOL     OW 1454   2.294   3.360   2.462  0.0617 -0.0788  0.5828
  438SOL    HW1 1455   2.205   3.348   2.494 -0.3141 -1.6538 -0.8965
  438SOL    HW2 1456   2.293   3.324   2.373  2.0617  0.3035  0.3438
  439SOL     OW 1457   0.865   2.471   1.097  0.0537 -0.0531 -0.0426
  439SOL    HW1 1458   0.940   2.518   1.061  0.4056 -1.7642 -1.7031
  439SOL    HW2 1459   0.890   2.451   1.187  1.1601  0.2567 -0.2660
  440SOL     OW 1460   0.011   3.072   0.331  0.5936 -0.4148  0.3872
  440SOL    HW1 1461  -0.058   3.012   0.301 -0.0462  0.6322 -0.3214
  440SOL    HW2 1462   0.088   3.048   0.279  0.5543 -1.1029  0.6414
  441SOL     OW 1463   3.197   1.678   1.099 -0.1078 -0.2620 -0.4076
  441SOL    HW1 1464   3.155   1.605   1.053  2.3087 -1.5516 -0.7346
  441SOL    HW2 1465   3.209   1.646   1.188  2.0062 -0.8001 -0.8356
  442SOL     OW 1466   1.852   2.454   2.595  0.2414 -0.5557 -0.4312
  442SOL    HW1 1467   1.910   2.473   2.521  0.1324 -2.8894 -1.1981
  442SOL    HW2 1468   1.891   2.378   2.637 -1.6983 -1.5925 -0.3923
  443SOL     OW 1469   0.312   3.390   1.200  0.1525 -0.4137  0.4720
  443SOL    HW1 1470   0.218   3.406   1.208  0.5320  1.4534  1.9789
  443SOL    HW2 1471   0.324   3.300   1.230 -1.0553 -0.3403  1.2309
  444SOL     OW 1472   0.071   3.683   3.727  0.2581 -0.3988  0.1546
  444SOL    HW1 1473   0.100   3.718   3.642 -1.7072  0.8733 -0.0664
  444SOL    HW2 1474   0.105   3.745   3.791 -1.4444  0.8649 -0.0744
  445SOL     OW 1475   0.200   0.958   2.667  0.9024 -0.0485  0.7770
  445SOL    HW1 1476   0.185   1.040   2.714  0.4933  0.0066  0.5549
  445SOL    HW2 1477   0.150   0.967   2.586 -0.0260 -0.9300  1.2160
  446SOL     OW 1478   2.991   1.870   0.764  0.2977 -0.2072  0.7264
  446SOL    HW1 1479   3.061   1.929   0.790 -1.9256  2.1937  1.6385
  446SOL    HW2 1480   2.911   1.911   0.796 -1.7621 -1.8444 -1.8848
  447SOL     OW 1481   1.249   2.845   0.317  0.9249  0.2223  0.7359
  447SOL    HW1 1482   1.263   2.792   0.238  0.6863  0.8360  0.2748
  447SOL    HW2 1483   1.163   2.883   0.305  1.3745  1.2661  0.7339
  448SOL     OW 1484   1.123   0.606   2.893 -0.3223  0.6563 -0.3476
  448SOL    HW1 1485   1.096   0.696   2.910  0.5427  1.1780 -1.5945
  448SOL    HW2 1486   1.156   0.574   2.977 -0.2808  1.6309  0.0139
  449SOL     OW 1487   3.097   3.763   2.007  0.9208  0.3315  0.2425
  449SOL    HW1 1488   3.011   3.782   1.971  0.8560 -0.8472 -0.2817
  449SOL    HW2 1489   3.111   3.670   1.988  2.4651  0.5856 -0.0047
  450SOL     OW 1490   0.612   1.185   1.009  0.0631 -0.5662 -0.0207
  450SOL    HW1 1491   0.567   1.127   1.071 -0.3455  0.1452  0.3620
  450SOL    HW2 1492   0.618   1.134   0.928 -1.6729 -0.5909 -0.1623
  451SOL     OW 1493   1.157   2.081   3.321  0.1041 -0.0255  0.3179
  451SOL    HW1 1494   1.197   2.131   3.250 -1.4490  1.1158  0.1949
  451SOL    HW2 1495   1.224   2.080   3.389  0.8048  0.7730 -0.3351
  452SOL     OW 1496   1.021   2.987   1.372 -0.2788 -0.6475 -0.2671
  452SOL    HW1 1497   1.000   2.897   1.396 -2.0288 -0.4991 -1.0982
  452SOL    HW2 1498   1.000   3.039   1.450  0.6455 -0.9375  0.1811
  453SOL     OW 1499   2.916   0.279   2.955 -0.0027  0.1552 -0.7722
  453SOL    HW1 1500   2.903   0.224   3.032  2.0424  1.2353  0.4266
  453SOL    HW2 1501   2.852   0.349   2.965 -1.4647 -1.0263 -1.4353
  454SOL     OW 1502   3.213   3.291   2.818  0.2437  0.2896 -0.3101
  454SOL    HW1 1503   3.301   3.326   2.810  0.1663  0.8142  0.9941
  454SOL    HW2 1504   3.158   3.353   2.770  0.4221  0.6336 -0.0697
  455SOL     OW 1505   2.693   2.248   3.700  0.4699  0.4650 -0.7579
  455SOL    HW1 1506   2.743   2.173   3.667 -0.5973 -0.1834 -0.9579
  455SOL    HW2 1507   2.729   2.264   3.787 -0.2260 -1.2300 -0.1002
  456SOL     OW 1508   0.598   2.097   3.793 -0.5305 -0.5578 -0.2921
  456SOL    HW1 1509   0.645   2.038   3.734 -0.2418 -1.7490  1.0511
  456SOL    HW2 1510   0.631   2.184   3.772  0.1394 -1.0490 -1.3398
  457SOL     OW 1511   2.425   2.715   3.302 -0.8057 -0.3103 -0.7730
  457SOL    HW1 1512   2.428   2.723   3.398 -4.3977 -1.5831 -0.3634
  457SOL    HW2 1513   2.429   2.621   3.286  0.8956 -0.0609 -2.0225
  458SOL     OW 1514   0.947   1.139   0.401  0.0275  0.4792 -0.1832
  458SOL    HW1 1515   0.854   1.138   0.378 -0.2311 -0.0380  0.8478
  458SOL    HW2 1516   0.992   1.115   0.320 -0.9512 -3.3115  0.2174
  459SOL     OW 1517   3.518   1.607   2.097 -0.5915  0.5183 -1.0207
  459SOL    HW1 1518   3.458   1.543   2.061 -1.7473  2.1697 -2.2074
  459SOL    HW2 1519   3.509   1.599   2.192 -0.9752 -0.7933 -1.1615
  460SOL     OW 1520   0.333   0.906   0.359  0.1518  0.0102 -0.1375
  460SOL    HW1 1521   0.254   0.957   0.342 -1.9558 -1.6619  3.5596
  460SOL    HW2 1522   0.305   0.815   0.354  1.7328 -0.6294  1.4948
  461SOL     OW 1523   1.499   1.601   1.753 -0.6188 -0.6516 -0.1199
  461SOL    HW1 1524   1.413   1.562   1.770 -0.9562  0.4151  0.7638
  461SOL    HW2 1525   1.562   1.535   1.782 -1.1779 -0.3909  1.8623
  462SOL     OW 1526   2.095   2.538   3.330  0.0384  0.2765  0.3626
  462SOL    HW1 1527   2.086   2.627   3.365  0.0025  0.0289  1.0012
  462SOL    HW2 1528   2.189   2.522   3.329  0.0132  0.0129  1.0771
  463SOL     OW 1529   0.987   0.783   2.337  0.3003  0.5455  0.2393
  463SOL    HW1 1530   0.953   0.785   2.248 -1.0990  1.4729  0.7624
  463SOL    HW2 1531   0.928   0.726   2.385 -1.2980  3.0068  1.4067
  464SOL     OW 1532   1.591   1.537   1.362 -0.2494  0.0662 -0.0674
  464SOL    HW1 1533   1.538   1.459   1.379 -0.7552 -0.1355 -2.2517
  464SOL    HW2 1534   1.528   1.601   1.329  0.5545  0.5144 -0.7419
  465SOL     OW 1535   2.073   1.003   0.761  0.0414 -0.2779 -0.8399
  465SOL    HW1 1536   2.031   1.015   0.846  1.0935  0.1786 -0.3733
  465SOL    HW2 1537   2.162   0.975   0.782  0.6930  1.0288 -1.7484
  466SOL     OW 1538   0.871   0.476   3.768 -0.2455 -0.2833  0.8587
  466SOL    HW1 1539   0.929   0.411   3.806  0.3956  0.1882  0.7030
  466SOL    HW2 1540   0.925   0.554   3.757 -0.6517 -0.1195 -0.1552
  467SOL     OW 1541   2.337   0.394   3.545 -0.8224  0.4241  0.5460
  467SOL    HW1 1542   2.254   0.439   3.530 -0.6854  0.4302 -0.2079
  467SOL    HW2 1543   2.365   0.365   3.458  0.6603  1.6497  0.5747
  468SOL     OW 1544   0.591   1.728   0.957 -0.0685 -0.3832  0.1978
  468SOL    HW1 1545   0.515   1.696   0.909  0.4955 -1.1483 -0.1870
  468SOL    HW2 1546   0.619   1.806   0.908 -0.2360 -0.4465 -0.0008
  469SOL     OW 1547   3.234   3.420   3.185 -0.1327  1.0213  0.1643
  469SOL    HW1 1548   3.318   3.396   3.145  0.4972  3.5054 -0.1662
  469SOL    HW2 1549   3.189   3.336   3.199  1.6779 -0.2556 -1.2169
  470SOL     OW 1550   0.926   3.844   1.490 -0.0456  0.0820 -0.4198
  470SOL    HW1 1551   0.910   3.750   1.493  0.6539 -0.0160  0.3878
  470SOL    HW2 1552   0.914   3.867   1.398 -1.6994 -0.5223 -0.4015
  471SOL     OW 1553   2.543   3.649   0.836 -0.0404 -0.6688 -0.3921
  471SOL    HW1 1554   2.479   3.704   0.792  0.5692  0.9577  0.6313
  471SOL    HW2 1555   2.504   3.631   0.922  0.6579 -0.0118  0.0803
  472SOL     OW 1556   3.481   3.398   3.455 -0.2418  0.0259  0.1690
  472SOL    HW1 1557   3.405   3.417   3.509  1.2573  2.5586  1.5733
  472SOL    HW2 1558   3.475   3.459   3.382 -0.4362 -0.9909 -0.6913
  473SOL     OW 1559   0.339   0.323   3.218  0.5254 -0.3350  0.3367
  473SOL    HW1 1560   0.318   0.398   3.161  2.4031  0.7746  1.0112
  473SOL    HW2 1561   0.281   0.334   3.293  0.3958  0.1314  0.1784
  474SOL     OW 1562   1.647   3.129   2.676 -0.0562  0.3202 -0.2259
  474SOL    HW1 1563   1.650   3.107   2.770 -0.4846  2.3614  0.3207
  474SOL    HW2 1564   1.619   3.049   2.633 -3.6613  0.3213  1.7966
  475SOL     OW 1565   2.763   1.756   2.099 -0.3412  0.2830 -0.3940
  475SOL    HW1 1566   2.789   1.848   2.106  4.0169 -0.8478  1.9937
  475SOL    HW2 1567   2.696   1.745   2.166 -0.0996  1.4727  0.0686
  476SOL     OW 1568   2.690   1.192   1.988 -0.0782  0.1286  0.2744
  476SOL    HW1 1569   2.652   1.273   1.953 -0.7710 -0.2163  0.2191
  476SOL    HW2 1570   2.769   1.221   2.034 -0.5839  0.8905  0.6687
  477SOL     OW 1571   2.355   1.803   2.616 -0.1503  0.1131 -0.3473
  477SOL    HW1 1572   2.440   1.841   2.638  0.1874  1.1425 -3.0300
  477SOL    HW2 1573   2.291   1.865   2.651  0.2963  0.9768 -1.0320
  478SOL     OW 1574   1.086   0.341   0.476 -0.3960 -0.3734  0.4054
  478SOL    HW1 1575   1.054   0.418   0.429  1.4294  0.1591 -0.0444
  478SOL    HW2 1576   1.164   0.313   0.426 -0.8958 -2.4054  0.6582
  479SOL     OW 1577   1.488   2.638   3.631  0.6770 -0.1761 -0.2586
  479SOL    HW1 1578   1.423   2.593   3.685 -0.3027  0.2212 -1.0791
  479SOL    HW2 1579   1.447   2.722   3.609  1.2412 -0.1507 -1.2574
  480SOL     OW 1580   2.122   3.590   1.606 -0.0644  0.5942  0.0644
  480SOL    HW1 1581   2.069   3.663   1.573  0.1790  0.3140 -0.9640
  480SOL    HW2 1582   2.143   3.538   1.529  0.6497  0.0019  0.6408
  481SOL     OW 1583   2.301   0.353   2.062  0.4833  0.3857  0.0743
  481SOL    HW1 1584   2.347   0.403   2.129  0.4672 -0.9262  1.1064
  481SOL    HW2 1585   2.368   0.298   2.022 -0.0548 -1.2516  1.3184
  482SOL     OW 1586   2.047   3.678   1.216  0.0810 -0.6152  0.7292
  482SOL    HW1 1587   2.056   3.770   1.190  0.6958 -0.9046 -0.1223
  482SOL    HW2 1588   1.954   3.669   1.239 -0.1807  0.0126 -0.0174
  483SOL     OW 1589   1.103   2.213   1.340  0.0922 -0.1961 -0.2165
  483SOL    HW1 1590   1.084   2.160   1.417  0.4532  1.3221  0.9653
  483SOL    HW2 1591   1.045   2.288   1.347 -1.6922 -1.1950 -2.7985
  484SOL     OW 1592   0.817   0.393   1.582  0.3446 -0.0214  0.0101
  484SOL    HW1 1593   0.770   0.311   1.568  0.0599  0.2620 -0.6992
  484SOL    HW2 1594   0.883   0.371   1.649 -1.0898 -0.2993  1.4016
  485SOL     OW 1595   2.679   3.386   1.988 -0.0616 -0.2483  0.6149
  485SOL    HW1 1596   2.690   3.382   2.083 -0.9873  0.6437  0.7729
  485SOL    HW2 1597   2.592   3.351   1.972 -0.8234  1.6767  0.3276
  486SOL     OW 1598   1.603   0.618   2.525  1.2790 -0.3825  0.0242
  486SOL    HW1 1599   1.677   0.679   2.523  0.7895  0.2038 -1.0197
  486SOL    HW2 1600   1.596   0.586   2.435  2.3491 -3.0267  0.8100
  487SOL     OW 1601   1.909   0.078   3.328  0.7130 -0.3484 -0.3334
  487SOL    HW1 1602   1.842   0.020   3.364  0.0494  1.7904  2.2232
  487SOL    HW2 1603   1.944   0.125   3.404  3.0925  0.7058 -1.9443
  488SOL     OW 1604   2.608   2.739   0.147 -0.5374  0.1045  0.0005
  488SOL    HW1 1605   2.641   2.767   0.062  1.0813  0.5895  0.7565
  488SOL    HW2 1606   2.513   2.742   0.138 -0.4048 -0.3847 -1.9496
  489SOL     OW 1607   3.242   0.742   2.055 -0.1055  0.5310 -0.3170
  489SOL    HW1 1608   3.229   0.768   1.964  0.4527  0.1351 -0.5121
  489SOL    HW2 1609   3.337   0.736   2.065 -0.2015 -0.9959 -0.1493
  490SOL     OW 1610   3.028   1.717   0.520  0.2544  0.0920 -0.2095
  490SOL    HW1 1611   3.011   1.766   0.600  0.5889 -0.8212  0.4359
  490SOL    HW2 1612   2.969   1.642   0.524  0.1731  0.1151 -0.8895
  491SOL     OW 1613   2.783   1.076   3.096 -0.0720 -0.7625 -0.4718
  491SOL    HW1 1614   2.858   1.130   3.121 -0.1906  0.3509 -2.3538
  491SOL    HW2 1615   2.769   1.019   3.172 -1.0174  2.8864  2.4057
  492SOL     OW 1616   3.650   3.677   3.838 -0.1909 -0.4195  0.4983
  492SOL    HW1 1617   3.732   3.684   3.790 -0.1159  1.3046  0.8169
  492SOL    HW2 1618   3.588   3.731   3.789 -0.6974 -0.3897  1.1464
  493SOL     OW 1619   3.485   2.699   1.773 -0.1967  0.4950  0.5106
  493SOL    HW1 1620   3.578   2.719   1.763 -0.4586  1.0402 -1.2355
  493SOL    HW2 1621   3.450   2.772   1.822  0.2521  0.3904  0.9955
  494SOL     OW 1622   0.921   3.775   0.022 -0.0027 -0.0983 -0.0121
  494SOL    HW1 1623   0.985   3.756   0.090 -0.0608 -0.7555 -0.1305
  494SOL    HW2 1624   0.846   3.721   0.045 -0.6713  0.9532  0.3368
  495SOL     OW 1625   1.887   1.598   2.001 -0.5571  0.2251  0.4770
  495SOL    HW1 1626   1.967   1.641   1.971 -0.6494  0.0687  0.0053
  495SOL    HW2 1627   1.840   1.574   1.921 -1.2152  0.5657  0.7543
  496SOL     OW 1628   1.066   1.827   3.643 -0.1815 -0.5538  0.5792
  496SOL    HW1 1629   1.130   1.757   3.659 -0.0222 -1.4065 -2.9393
  496SOL    HW2 1630   1.119   1.900   3.611 -0.7931 -1.5552 -3.2141
  497SOL     OW 1631   1.224   3.282   0.915 -1.0820 -0.0427  0.0910
  497SOL    HW1 1632   1.203   3.232   0.836  0.1062  1.1804 -1.0505
  497SOL    HW2 1633   1.250   3.216   0.979  0.0397 -0.9590 -1.2312
  498SOL     OW 1634   0.961   1.463   1.196  0.4225 -0.2358  0.0438
  498SOL    HW1 1635   0.955   1.388   1.255 -0.1396 -0.5519 -0.4007
  498SOL    HW2 1636   0.903   1.441   1.123  0.2764  0.6170 -0.1118
  499SOL     OW 1637   3.281   3.054   1.334  0.6827  0.8975 -0.2311
  499SOL    HW1 1638   3.207   3.037   1.393 -0.2299 -0.5434 -1.6900
  499SOL    HW2 1639   3.277   3.148   1.318 -0.2472  1.0010  0.4616
  500SOL     OW 1640   0.503   0.263   1.256  0.2569  0.0435 -0.8898
  500SOL    HW1 1641   0.523   0.170   1.247  1.1924 -0.1347  2.0053
  500SOL    HW2 1642   0.588   0.307   1.247  0.0303  0.4858 -0.8896
  501SOL     OW 1643   3.646   2.290   1.175  0.2846 -0.2262  0.8898
  501SOL    HW1 1644   3.655   2.321   1.265  2.0045  0.2586  0.5970
  501SOL    HW2 1645   3.704   2.347   1.125  0.3301 -1.2983 -0.3230
  502SOL     OW 1646   3.617   2.244   1.954 -0.7356 -0.7313  0.2185
  502SOL    HW1 1647   3.585   2.229   2.043 -2.3814 -0.6796 -0.3330
  502SOL    HW2 1648   3.567   2.320   1.923 -1.2071 -1.5981 -1.2231
  503SOL     OW 1649   3.050   2.568   1.305 -1.0467 -0.7699  0.6670
  503SOL    HW1 1650   3.144   2.557   1.289 -0.7561  1.6774  0.3159
  503SOL    HW2 1651   3.012   2.572   1.217 -0.9937  1.3776  0.6870
  504SOL     OW 1652   3.670   1.889   1.800 -0.1017  0.3825 -0.8568
  504SOL    HW1 1653   3.680   1.821   1.734 -1.0457 -0.0945 -0.5326
  504SOL    HW2 1654   3.578   1.881   1.828  0.2162  0.7382  0.3286
  505SOL     OW 1655   0.045   2.565   0.511 -0.3077  0.1612  0.2405
  505SOL    HW1 1656   0.113   2.631   0.500 -0.9815  1.3368  2.5098
  505SOL    HW2 1657   0.044   2.546   0.605 -0.5841 -2.6544 -0.2240
  506SOL     OW 1658   0.989   3.577   2.942 -0.2871 -0.0486  0.0768
  506SOL    HW1 1659   1.005   3.648   2.880 -1.6061  0.4588  0.2808
  506SOL    HW2 1660   0.930   3.518   2.895 -3.4722  1.6461  1.6454
  507SOL     OW 1661   0.352   3.604   0.287 -0.0203  0.4252  0.1734
  507SOL    HW1 1662   0.418   3.538   0.269 -1.0595 -0.3840 -0.8851
  507SOL    HW2 1663   0.340   3.603   0.382  0.3154 -0.5629  0.2077
  508SOL     OW 1664   3.831   2.072   1.323  0.4515 -0.0254 -0.0315
  508SOL    HW1 1665   3.783   2.136   1.270  1.1458 -0.6225 -1.4412
  508SOL    HW2 1666   3.763   2.017   1.363 -0.1201 -1.3119 -2.5580
  509SOL     OW 1667   0.681   1.912   1.986 -0.2640  0.5242  0.2411
  509SOL    HW1 1668   0.765   1.934   2.027  0.3044  0.9343 -1.0780
  509SOL    HW2 1669   0.690   1.820   1.961 -0.3644  0.4531  0.4669
  510SOL     OW 1670   0.306   3.236   0.408  0.0531  0.1647  0.3948
  510SOL    HW1 1671   0.231   3.254   0.465 -1.4298 -2.2907 -0.6274
  510SOL    HW2 1672   0.362   3.177   0.459  0.0164  0.0107  0.2599
  511SOL     OW 1673   0.404   1.417   2.703  0.1541  0.0693 -0.0750
  511SOL    HW1 1674   0.430   1.509   2.702  1.5889 -0.3116 -1.1412
  511SOL    HW2 1675   0.484   1.370   2.728 -0.6506 -0.8795  0.7963
  512SOL     OW 1676   0.701   2.493   2.281  0.4670 -0.7106  0.0214
  512SOL    HW1 1677   0.706   2.471   2.188 -2.1183  1.6488 -0.7992
  512SOL    HW2 1678   0.793   2.501   2.309  1.2981 -0.9775 -2.4165
  513SOL     OW 1679   1.161   3.370   3.785 -0.7169  0.4092  0.2192
  513SOL    HW1 1680   1.202   3.305   3.727 -1.8716 -1.0349  0.9552
  513SOL    HW2 1681   1.082   3.398   3.739 -0.8657  0.3653  0.4441
  514SOL     OW 1682   2.794   0.671   2.318 -0.2725  0.5238 -0.4617
  514SOL    HW1 1683   2.875   0.622   2.305 -0.6567 -0.2745  0.0626
  514SOL    HW2 1684   2.739   0.613   2.371 -2.1994 -0.0750 -2.9078
  515SOL     OW 1685   2.152   2.767   2.768  0.3663  0.1499 -0.3396
  515SOL    HW1 1686   2.109   2.694   2.723 -2.4183  1.3021  0.2093
  515SOL    HW2 1687   2.143   2.746   2.861  1.6804  0.0992 -0.2106
  516SOL     OW 1688   2.240   1.009   1.665 -0.8786 -0.1296  0.6728
  516SOL    HW1 1689   2.266   1.008   1.757  4.5390  1.7438 -0.4649
  516SOL    HW2 1690   2.201   1.095   1.651  1.5895  1.0604  0.6773
  517SOL     OW 1691   2.614   2.301   1.315  0.0275 -1.0138  0.5364
  517SOL    HW1 1692   2.682   2.353   1.271 -1.1547  0.3145  0.2238
  517SOL    HW2 1693   2.535   2.314   1.263 -0.5360 -2.4090  0.9879
  518SOL     OW 1694   2.346   3.772   1.326  0.2996  0.3207  0.4513
  518SOL    HW1 1695   2.413   3.792   1.392  1.0333 -0.9808  0.1539
  518SOL    HW2 1696   2.263   3.778   1.373  0.5104  2.7250  0.6548
  519SOL     OW 1697   0.770   1.665   3.084 -0.2347  0.0459 -0.2344
  519SOL    HW1 1698   0.770   1.613   3.164 -4.5688  0.0526 -0.0296
  519SOL    HW2 1699   0.683   1.652   3.046 -0.2589  4.2212 -2.1602
  520SOL     OW 1700   1.697   0.407   3.281 -0.1903 -0.5437 -0.4902
  520SOL    HW1 1701   1.760   0.424   3.210 -0.3515 -0.3838 -0.5966
  520SOL    HW2 1702   1.751   0.396   3.359  0.2817 -3.8988 -1.1231
  521SOL     OW 1703   2.348   2.003   0.355  0.3445 -0.2145  0.8352
  521SOL    HW1 1704   2.441   2.011   0.334  0.6383  1.8347  2.5743
  521SOL    HW2 1705   2.340   1.918   0.399  0.9140 -1.4458 -1.3008
  522SOL     OW 1706   1.715   0.395   0.991  0.0786  0.7060  0.1186
  522SOL    HW1 1707   1.620   0.408   0.991  0.1232  1.4029 -1.9214
  522SOL    HW2 1708   1.727   0.309   0.950  0.3148  0.0723  1.4657
  523SOL     OW 1709   2.894   2.229   2.811  0.3376  0.4112 -0.3434
  523SOL    HW1 1710   2.897   2.192   2.899  0.3000 -0.6038 -0.7665
  523SOL    HW2 1711   2.973   2.285   2.806  1.0811 -0.5961 -0.1325
  524SOL     OW 1712   1.298   2.459   3.766  0.2364 -0.1306 -0.0322
  524SOL    HW1 1713   1.227   2.443   3.704 -0.0847 -0.5748  0.4371
  524SOL    HW2 1714   1.299   2.382   3.822 -0.1307  0.6573  1.1196
  525SOL     OW 1715   0.064   2.869   1.484  0.1974 -0.3832  0.3167
  525SOL    HW1 1716   0.142   2.861   1.429  1.1583  0.7312  1.4629
  525SOL    HW2 1717   0.090   2.832   1.568 -0.0894  1.0459  1.0706
  526SOL     OW 1718   2.033   2.225   3.792 -0.4528  0.4082  0.8080
  526SOL    HW1 1719   1.969   2.272   3.846  0.3649 -1.7523  3.9731
  526SOL    HW2 1720   2.118   2.254   3.824  0.0996 -0.1880 -0.0639
  527SOL     OW 1721   1.679   0.764  -0.023 -0.5692 -0.3813 -0.2846
  527SOL    HW1 1722   1.742   0.788   0.045  0.0426 -0.6202 -0.7663
  527SOL    HW2 1723   1.595   0.765   0.023 -0.0860 -1.3002  0.6804
  528SOL     OW 1724   1.881   2.863   1.366  0.8438  0.0111  0.5480
  528SOL    HW1 1725   1.820   2.909   1.423 -0.8636  0.2274 -1.3544
  528SOL    HW2 1726   1.826   2.819   1.301  2.6521 -0.8523 -0.4953
  529SOL     OW 1727   2.162   0.659   2.363  0.2111  0.2439  0.5497
  529SOL    HW1 1728   2.149   0.733   2.303  3.9084  0.6930  0.0658
  529SOL    HW2 1729   2.127   0.583   2.315 -0.3540  1.1454 -0.5081
  530SOL     OW 1730   0.544   1.679   0.469  0.3014  0.0804 -0.5915
  530SOL    HW1 1731   0.625   1.717   0.504  0.2757  2.0258 -2.4286
  530SOL    HW2 1732   0.557   1.679   0.375 -1.0314 -1.6128 -0.8169
  531SOL     OW 1733   2.045   0.450   1.728  0.8246 -0.0454  0.6921
  531SOL    HW1 1734   2.037   0.404   1.811 -0.0182  0.0286  0.6596
  531SOL    HW2 1735   2.007   0.536   1.744 -0.4633 -0.4418 -0.0760
  532SOL     OW 1736   2.456   0.759   1.976 -0.0043  0.4922  0.2939
  532SOL    HW1 1737   2.411   0.693   1.923 -1.1225  0.4371  1.2585
  532SOL    HW2 1738   2.488   0.710   2.052  0.4586  0.7883  0.2876
  533SOL     OW 1739   2.515   2.439   0.150  0.9283  0.3410 -0.6894
  533SOL    HW1 1740   2.560   2.513   0.190  2.7572 -0.5219 -1.0419
  533SOL    HW2 1741   2.580   2.368   0.151  0.0448 -0.5545 -2.5462
  534SOL     OW 1742   1.632   2.394   0.593 -0.0234 -0.8821 -0.0681
  534SOL    HW1 1743   1.545   2.400   0.632  0.0637  1.0888 -0.0589
  534SOL    HW2 1744   1.691   2.421   0.663  0.5018 -1.2346 -0.3735
  535SOL     OW 1745   1.484   2.016   1.892 -0.0420  0.4304  0.3749
  535SOL    HW1 1746   1.404   1.964   1.885  0.6652 -0.9197  1.8892
  535SOL    HW2 1747   1.454   2.107   1.885 -1.5922 -0.0813  0.0794
  536SOL     OW 1748   1.914   3.613   0.057  0.0818  0.1660 -0.5240
  536SOL    HW1 1749   1.926   3.671  -0.018 -1.1109  0.0994 -0.7786
  536SOL    HW2 1750   1.941   3.666   0.132 -2.4413  1.6740 -0.5618
  537SOL     OW 1751   2.030   2.951   2.015  0.1939  0.3442 -0.2688
  537SOL    HW1 1752   2.007   3.043   2.010 -0.3531  0.1507 -1.9918
  537SOL    HW2 1753   2.030   2.921   1.924  4.2163 -0.4413 -0.2216
  538SOL     OW 1754   2.043   1.600   2.782  0.0492 -0.3965 -0.1223
  538SOL    HW1 1755   1.998   1.592   2.698 -0.1875  3.7175 -0.6100
  538SOL    HW2 1756   2.071   1.511   2.804 -2.5612 -2.0900 -2.9971
  539SOL     OW 1757   1.334   2.713   0.545  0.7036 -0.3474 -0.6707
  539SOL    HW1 1758   1.406   2.773   0.567  1.0619 -0.5074 -1.3599
  539SOL    HW2 1759   1.297   2.748   0.464  0.8406 -0.9764 -1.0201
  540SOL     OW 1760   0.857   2.291   3.553  0.8434  0.4949  0.0260
  540SOL    HW1 1761   0.823   2.341   3.478  1.0135  0.1041 -0.3168
  540SOL    HW2 1762   0.793   2.305   3.622 -0.3327 -0.6763 -0.7735
  541SOL     OW 1763   2.666   0.384   0.213 -0.6509 -0.3831  0.1473
  541SOL    HW1 1764   2.572   0.365   0.201 -0.5107 -0.9957 -0.0378
  541SOL    HW2 1765   2.705   0.298   0.232 -0.2762  0.0128  1.2227
  542SOL     OW 1766   2.929   1.491   0.098 -0.1813 -0.2534 -0.5051
  542SOL    HW1 1767   2.858   1.432   0.124  0.4205 -0.7556  0.0493
  542SOL    HW2 1768   2.996   1.478   0.165  0.9858 -0.7920 -1.7265
  543SOL     OW 1769   3.713   3.630   3.149 -0.5135  0.2475 -0.1857
  543SOL    HW1 1770   3.786   3.654   3.208  0.5079  0.1070 -1.3527
  543SOL    HW2 1771   3.696   3.710   3.099 -2.2537  0.7624  1.1424
  544SOL     OW 1772   3.114   0.152   3.199  0.5838  0.5344  0.4131
  544SOL    HW1 1773   3.176   0.153   3.272 -1.2397 -1.3684  2.1396
  544SOL    HW2 1774   3.162   0.110   3.127  1.8378  0.7532  1.0901
  545SOL     OW 1775   1.766   3.486   2.635  0.0226 -0.7999 -0.0212
  545SOL    HW1 1776   1.852   3.526   2.625 -0.1611 -0.3961 -0.0209
  545SOL    HW2 1777   1.764   3.416   2.570  0.6934 -1.4123  0.6120
  546SOL     OW 1778   2.857   2.790   0.590 -0.5558 -0.3895 -0.8240
  546SOL    HW1 1779   2.911   2.862   0.557 -0.9327 -0.0614 -0.7335
  546SOL    HW2 1780   2.847   2.732   0.515  0.5765 -0.8656 -0.6361
  547SOL     OW 1781   2.145   1.942   2.958 -0.1857  0.2155  0.1391
  547SOL    HW1 1782   2.074   1.878   2.968 -0.0099 -0.0488 -0.2598
  547SOL    HW2 1783   2.209   1.918   3.026 -0.2061  0.0809  0.1111
  548SOL     OW 1784   2.572   2.703   1.492 -0.1220  1.2025  0.0322
  548SOL    HW1 1785   2.630   2.678   1.420 -1.4699  1.7300 -1.2985
  548SOL    HW2 1786   2.531   2.784   1.463 -1.4145  0.9266  0.9790
  549SOL     OW 1787   2.732   2.664   1.267 -0.2020  0.2924  0.2580
  549SOL    HW1 1788   2.742   2.749   1.224  1.1251 -1.0309 -2.2763
  549SOL    HW2 1789   2.771   2.601   1.206 -1.9076 -2.2766  1.6059
  550SOL     OW 1790   3.656   2.838   1.452  0.4646  0.5200 -0.1008
  550SOL    HW1 1791   3.748   2.863   1.446  0.4494  0.4525 -0.6382
  550SOL    HW2 1792   3.610   2.903   1.399 -0.1950  2.5321  2.7042
  551SOL     OW 1793   0.119   0.976   0.588  0.5864 -0.1669 -0.1162
  551SOL    HW1 1794   0.128   1.004   0.497  1.0743  0.3651  0.0881
  551SOL    HW2 1795   0.198   1.010   0.631  0.4859 -0.6358  0.4473
  552SOL     OW 1796   1.257   2.312   2.523 -0.2690  0.7408 -1.0760
  552SOL    HW1 1797   1.270   2.287   2.614  1.3424 -0.4332 -1.5836
  552SOL    HW2 1798   1.182   2.371   2.525 -0.7889  0.0963  0.8981
  553SOL     OW 1799   1.276   3.245   2.589 -0.6900 -0.3082 -0.0465
  553SOL    HW1 1800   1.296   3.292   2.508  1.7602 -2.4706 -0.8022
  553SOL    HW2 1801   1.331   3.286   2.656 -1.2766  0.2253  0.1166
  554SOL     OW 1802   3.139   1.035   1.683  0.2501 -0.3075 -0.1431
  554SOL    HW1 1803   3.063   0.990   1.646 -0.1666 -0.0226  0.3588
  554SOL    HW2 1804   3.175   1.085   1.609  0.3754 -0.9923 -0.5604
  555SOL     OW 1805   0.825   0.694   2.699  0.1945 -0.1234  0.0772
  555SOL    HW1 1806   0.846   0.762   2.763 -0.1830 -0.5446  0.6575
  555SOL    HW2 1807   0.763   0.637   2.744  0.4689 -0.8261 -0.4195
  556SOL     OW 1808   2.674   1.437   1.879 -0.2139 -0.4648 -0.0287
  556SOL    HW1 1809   2.598   1.486   1.847  0.2805 -0.4443 -1.2131
  556SOL    HW2 1810   2.749   1.475   1.832  0.5678 -0.3296  1.2880
  557SOL     OW 1811   1.559   0.733   0.274 -0.1449 -0.1442 -0.5080
  557SOL    HW1 1812   1.644   0.700   0.303 -0.6191 -2.2961 -1.3412
  557SOL    HW2 1813   1.497   0.664   0.297 -1.4248  0.6798 -1.3120
  558SOL     OW 1814   0.166   0.432   1.446 -0.0052  0.1724 -0.6696
  558SOL    HW1 1815   0.137   0.448   1.536 -0.1365  0.7559 -0.8102
  558SOL    HW2 1816   0.139   0.342   1.427 -3.5577  1.2569 -1.4741
  559SOL     OW 1817   1.787   2.349   0.046  0.5992  0.0445  0.1621
  559SOL    HW1 1818   1.742   2.366  -0.036 -2.2287  2.3034  1.9488
  559SOL    HW2 1819   1.742   2.272   0.083  0.8423 -0.0548  0.2535
  560SOL     OW 1820   1.742   1.652   2.224 -0.9413  0.1610 -0.3409
  560SOL    HW1 1821   1.793   1.654   2.143 -0.6226 -0.3937 -0.1605
  560SOL    HW2 1822   1.700   1.737   2.227  1.2872  1.3274  0.3429
  561SOL     OW 1823   3.702   1.615   0.759 -0.3072  0.0189  0.0397
  561SOL    HW1 1824   3.793   1.585   0.769 -0.1373  0.0658 -1.2245
  561SOL    HW2 1825   3.678   1.648   0.845  0.7507 -0.3516  0.4911
  562SOL     OW 1826   1.140   1.631   1.280 -0.6344  0.1206 -0.1355
  562SOL    HW1 1827   1.111   1.721   1.262  1.2299  0.0845 -4.8046
  562SOL    HW2 1828   1.077   1.576   1.233  0.5077 -0.6832 -0.7850
  563SOL     OW 1829   3.626   0.672   3.084  0.3122  0.1734 -0.1100
  563SOL    HW1 1830   3.658   0.761   3.070 -0.4541  0.2197 -1.8777
  563SOL    HW2 1831   3.532   0.682   3.097  0.3359 -0.3191  0.4850
  564SOL     OW 1832   2.358   2.216   0.990 -0.2388 -0.4164 -0.2893
  564SOL    HW1 1833   2.262   2.224   0.985 -0.2260 -0.4668 -0.6394
  564SOL    HW2 1834   2.376   2.128   0.957 -0.0031 -0.0695 -1.1195
  565SOL     OW 1835   2.786   0.743   1.421  0.4883  0.0070  0.1389
  565SOL    HW1 1836   2.789   0.754   1.326  2.5889 -1.1862 -0.0013
  565SOL    HW2 1837   2.693   0.745   1.443  0.0274  2.1188 -1.6713
  566SOL     OW 1838   0.630   1.520   1.510 -0.1061 -0.0442  0.2103
  566SOL    HW1 1839   0.562   1.493   1.572 -0.3963  0.0541 -0.0636
  566SOL    HW2 1840   0.590   1.591   1.460 -0.6192 -1.4574 -1.4905
  567SOL     OW 1841   1.057   1.112   1.748 -0.3659  0.4128  0.3841
  567SOL    HW1 1842   0.979   1.060   1.734 -0.6068  0.5342  1.2238
  567SOL    HW2 1843   1.037   1.197   1.708 -0.7046  0.4744  0.6797
  568SOL     OW 1844   1.469   0.120   0.415 -0.7376  0.3847  0.1123
  568SOL    HW1 1845   1.415   0.042   0.422  1.8491 -1.5427  0.1658
  568SOL    HW2 1846   1.454   0.152   0.325 -0.4735 -1.2914 -0.5623
  569SOL     OW 1847   1.796   0.093   2.731  0.2725 -0.4570  0.4043
  569SOL    HW1 1848   1.825   0.021   2.787  0.2278 -0.5441  0.3162
  569SOL    HW2 1849   1.729   0.054   2.675 -0.3437 -0.1380  0.9225
  570SOL     OW 1850   1.142   0.629   2.620  0.3409  0.1614 -0.5767
  570SOL    HW1 1851   1.056   0.638   2.579 -0.1016 -1.4642 -0.0869
  570SOL    HW2 1852   1.123   0.624   2.714  0.8634 -1.0320 -0.5150
  571SOL     OW 1853   1.071   2.167   1.866  0.0863  0.3329 -0.0792
  571SOL    HW1 1854   1.014   2.236   1.831  0.6105  1.3415  0.9571
  571SOL    HW2 1855   1.024   2.134   1.942  0.4682  0.5527  0.2583
  572SOL     OW 1856   2.268   1.416   1.752 -0.1442  0.4560 -0.2537
  572SOL    HW1 1857   2.347   1.469   1.756  0.2994 -0.0821 -1.4342
  572SOL    HW2 1858   2.200   1.476   1.723  0.2519  0.5105 -1.1056
  573SOL     OW 1859   1.960   3.741   0.508  0.0851  0.4748  0.6745
  573SOL    HW1 1860   2.022   3.738   0.435  0.6676 -1.9348  1.1580
  573SOL    HW2 1861   1.874   3.739   0.465  0.4179 -1.2362 -0.0209
  574SOL     OW 1862   2.206   1.804   0.542 -0.3177  0.0836  0.3102
  574SOL    HW1 1863   2.194   1.893   0.575 -1.0733 -0.1569  0.7145
  574SOL    HW2 1864   2.258   1.760   0.609  1.3634  0.6231 -0.5942
  575SOL     OW 1865   0.985   3.198   2.058 -0.4907 -0.2482 -0.1398
  575SOL    HW1 1866   0.982   3.147   2.139 -3.8403 -0.7902 -0.4573
  575SOL    HW2 1867   0.967   3.288   2.086  1.1671  0.0913 -0.0507
  576SOL     OW 1868   3.225   0.160   1.043  0.4440 -0.0817  1.0697
  576SOL    HW1 1869   3.166   0.234   1.054  0.2802  0.3264 -1.7583
  576SOL    HW2 1870   3.176   0.085   1.075 -0.7031  0.5791  0.9213
  577SOL     OW 1871   0.962   1.765   2.944  0.3406 -0.3450 -0.8979
  577SOL    HW1 1872   1.035   1.760   3.006  0.0480 -2.3252 -0.6407
  577SOL    HW2 1873   0.886   1.733   2.994 -0.1688 -0.7280 -1.9037
  578SOL     OW 1874   2.082   2.519   2.434  0.1786  0.1717 -0.1403
  578SOL    HW1 1875   2.131   2.593   2.398 -0.9765  0.9968 -0.0863
  578SOL    HW2 1876   2.076   2.458   2.361 -0.8232  1.1601 -0.9279
  579SOL     OW 1877   0.058   0.429   1.692 -0.3398  0.4765 -0.3011
  579SOL    HW1 1878   0.095   0.349   1.728  0.6834  0.4288 -1.3870
  579SOL    HW2 1879  -0.036   0.416   1.695 -0.1901 -1.4962 -1.9730
  580SOL     OW 1880   0.587   1.015   0.527  0.9854  0.3127 -0.0625
  580SOL    HW1 1881   0.586   1.110   0.521 -0.3231  0.2244 -2.9652
  580SOL    HW2 1882   0.501   0.992   0.564  0.5186  0.2568 -1.1331
  581SOL     OW 1883   3.062   2.365   3.108  1.1268 -0.0554  0.3873
  581SOL    HW1 1884   3.112   2.436   3.069  1.1218  0.1957  0.8216
  581SOL    HW2 1885   3.098   2.285   3.070  1.5689  0.1460  0.3808
  582SOL     OW 1886   0.660   1.136   0.003  0.1587  0.4753  0.0445
  582SOL    HW1 1887   0.588   1.074   0.015  0.2180  0.3196 -0.3992
  582SOL    HW2 1888   0.645   1.203   0.070 -0.1549  0.2181  0.2347
  583SOL     OW 1889   0.704   3.044   0.865 -0.4236 -0.6407 -0.4565
  583SOL    HW1 1890   0.798   3.045   0.883 -0.6733  0.1366  0.9309
  583SOL    HW2 1891   0.676   3.134   0.881 -1.7676 -1.3187  1.2911
  584SOL     OW 1892   1.746   1.778   3.495 -0.1583 -0.1052 -0.3524
  584SOL    HW1 1893   1.694   1.803   3.418 -1.8066 -2.2977 -0.0510
  584SOL    HW2 1894   1.686   1.790   3.569  1.2882  1.6362  0.6301
  585SOL     OW 1895   2.866   0.782   3.812 -0.5218 -0.5253  0.8928
  585SOL    HW1 1896   2.784   0.738   3.791 -0.6905  0.6242 -1.1378
  585SOL    HW2 1897   2.930   0.712   3.817 -1.8751 -1.7316  4.7197
  586SOL     OW 1898   1.002   0.980   2.578  0.6504 -0.1631 -0.0218
  586SOL    HW1 1899   1.092   0.962   2.550  0.0518  1.4333 -3.5239
  586SOL    HW2 1900   0.954   0.900   2.557  1.1420 -0.9592  1.7057
  587SOL     OW 1901   2.981   3.089   3.691  0.0367  0.4434  0.8013
  587SOL    HW1 1902   2.929   3.014   3.661  1.7522 -0.6948  0.5504
  587SOL    HW2 1903   2.917   3.146   3.734 -1.3579 -1.0973  0.9026
  588SOL     OW 1904   2.251   3.034   1.614 -0.1429 -0.5806 -0.0935
  588SOL    HW1 1905   2.334   2.995   1.586  1.2432  0.7395  1.8744
  588SOL    HW2 1906   2.199   2.959   1.645  1.6086 -1.1598  1.6413
  589SOL     OW 1907   0.809   3.834   3.220  0.1585  0.5413  0.7605
  589SOL    HW1 1908   0.800   3.862   3.311  0.3934  0.5629  0.7782
  589SOL    HW2 1909   0.870   3.760   3.224 -1.0072 -0.4345  0.8008
  590SOL     OW 1910   2.496   3.062   2.478  0.0713  0.3877  0.2435
  590SOL    HW1 1911   2.452   2.993   2.528 -2.5808  0.6180 -1.5575
  590SOL    HW2 1912   2.502   3.136   2.538  1.9804 -0.9345  1.8582
  591SOL     OW 1913   3.273   0.291   1.502 -0.6391 -0.3835  0.6503
  591SOL    HW1 1914   3.297   0.205   1.466  4.1839  0.1515  1.9196
  591SOL    HW2 1915   3.202   0.272   1.563 -0.8274 -3.1807 -0.2888
  592SOL     OW 1916   3.325   0.839   2.766 -0.2849 -0.2062  0.4063
  592SOL    HW1 1917   3.275   0.899   2.821  3.4290  1.1093  2.7970
  592SOL    HW2 1918   3.329   0.757   2.815  0.2887 -0.1244  0.5097
  593SOL     OW 1919   0.608   0.492   0.915 -0.0413  0.9894  0.1833
  593SOL    HW1 1920   0.699   0.471   0.936 -0.1472 -0.7569 -0.9047
  593SOL    HW2 1921   0.589   0.569   0.967  2.1793  1.6248  0.1578
  594SOL     OW 1922   2.408   1.809   2.149 -0.0751 -0.0244 -0.0954
  594SOL    HW1 1923   2.432   1.842   2.062 -3.8184  5.3048  0.4476
  594SOL    HW2 1924   2.479   1.839   2.206  1.4611 -1.9511 -0.8257
  595SOL     OW 1925   3.791   3.407   0.926  0.6514  0.7717  0.2405
  595SOL    HW1 1926   3.828   3.327   0.889 -0.8409  0.5358 -0.8255
  595SOL    HW2 1927   3.742   3.377   1.002  1.1630  0.8651  0.6172
  596SOL     OW 1928   3.517   0.949   1.778  0.4766  0.5531 -0.1895
  596SOL    HW1 1929   3.492   1.037   1.751  0.9089  0.2770 -1.6062
  596SOL    HW2 1930   3.476   0.892   1.712  0.3636 -0.2876  0.5867
  597SOL     OW 1931   3.564   2.724   0.376 -0.2295  0.4809 -0.1108
  597SOL    HW1 1932   3.583   2.677   0.457 -1.4031 -0.0951 -0.1426
  597SOL    HW2 1933   3.531   2.656   0.316 -1.0701  1.1895 -0.4663
  598SOL     OW 1934   3.091   1.737   2.636  0.1509  0.2179  0.1866
  598SOL    HW1 1935   3.001   1.769   2.639  0.9977  2.7661  1.3576
  598SOL    HW2 1936   3.114   1.739   2.543 -1.0319 -0.6673 -0.1466
  599SOL     OW 1937   3.239   3.644   3.369 -0.5062  0.1565 -0.3151
  599SOL    HW1 1938   3.186   3.578   3.324  0.4081 -1.3965  0.7664
  599SOL    HW2 1939   3.322   3.644   3.321  0.0001 -0.5415  0.5396
  600SOL     OW 1940   2.154   3.626   0.750 -0.2586 -0.3900 -0.5581
  600SOL    HW1 1941   2.059   3.611   0.745 -0.1747 -1.0297 -0.2931
  600SOL    HW2 1942   2.182   3.626   0.659 -0.6426  0.7236 -0.6949
  601SOL     OW 1943   0.860   2.031   2.846  0.4717 -0.1121 -0.4164
  601SOL    HW1 1944   0.901   1.947   2.863 -0.6197 -0.6318 -0.2760
  601SOL    HW2 1945   0.852   2.072   2.932  1.1210  0.1949 -0.5002
  602SOL     OW 1946   2.924   1.052   3.865 -0.2348  0.5644 -0.1661
  602SOL    HW1 1947   2.957   1.111   3.796 -0.5442  1.4351  0.4114
  602SOL    HW2 1948   2.904   0.971   3.819 -2.8903  1.9050 -1.6910
  603SOL     OW 1949   2.327   2.618   0.395 -0.4844 -0.1970  0.1180
  603SOL    HW1 1950   2.322   2.617   0.300  1.2491  2.0114 -0.0749
  603SOL    HW2 1951   2.387   2.547   0.417 -0.8469 -0.6748 -0.4071
  604SOL     OW 1952   1.980   0.892   1.236 -0.4395  0.8620 -0.2424
  604SOL    HW1 1953   1.952   0.972   1.281 -1.1383  0.4492  0.0674
  604SOL    HW2 1954   1.978   0.915   1.143 -1.0541  1.0780 -0.1781
  605SOL     OW 1955   0.763   0.367   1.276 -0.4706 -0.0608 -0.7193
  605SOL    HW1 1956   0.800   0.386   1.362  0.4979 -2.7702 -0.4571
  605SOL    HW2 1957   0.837   0.368   1.217 -0.8608  0.0172 -1.2124
  606SOL     OW 1958   0.809   3.491   3.159  0.2376  0.0406 -0.1472
  606SOL    HW1 1959   0.729   3.479   3.108  0.0177  1.6413 -0.2286
  606SOL    HW2 1960   0.864   3.546   3.105  0.5227  0.7160  0.7962
  607SOL     OW 1961   2.486   1.768   0.255  0.7349 -0.6863 -0.4134
  607SOL    HW1 1962   2.496   1.766   0.159 -0.6990  0.7528 -0.6430
  607SOL    HW2 1963   2.542   1.698   0.286  0.8877 -1.5004 -2.3552
  608SOL     OW 1964   2.869   0.439   2.684  0.0417 -0.5763 -0.0287
  608SOL    HW1 1965   2.900   0.530   2.683  3.1919 -1.5087  1.0772
  608SOL    HW2 1966   2.873   0.413   2.776  0.0114 -2.0664 -0.4156
  609SOL     OW 1967   0.459   0.230   1.716  0.2254 -0.0674 -0.4057
  609SOL    HW1 1968   0.473   0.282   1.638  2.5373 -1.2046 -0.8413
  609SOL    HW2 1969   0.533   0.169   1.719 -0.6481 -1.1803  1.7799
  610SOL     OW 1970   1.433   3.782   2.661  0.0445  0.3307 -0.4114
  610SOL    HW1 1971   1.429   3.865   2.613 -2.3395 -0.4087 -1.6603
  610SOL    HW2 1972   1.361   3.787   2.723  3.7073  1.7366  4.2661
  611SOL     OW 1973   1.553   2.711   2.958  0.1602  0.2065 -0.1581
  611SOL    HW1 1974   1.565   2.630   3.008  0.2127  0.8033  0.8052
  611SOL    HW2 1975   1.596   2.694   2.874 -2.0557 -1.7425 -1.0347
  612SOL     OW 1976   1.862   1.859   2.354 -0.4939 -0.1077  0.6327
  612SOL    HW1 1977   1.843   1.795   2.423  0.4754  0.3621  1.3637
  612SOL    HW2 1978   1.897   1.808   2.281  1.3549 -0.3496  1.6251
  613SOL     OW 1979   1.936   1.161   3.269 -0.5353  0.7833 -0.4888
  613SOL    HW1 1980   1.968   1.223   3.335  1.1050 -0.9282  0.3927
  613SOL    HW2 1981   1.972   1.076   3.295 -0.1740 -0.0555 -3.3544
  614SOL     OW 1982   0.777   1.750   1.177  0.0930  0.1224 -0.6525
  614SOL    HW1 1983   0.714   1.729   1.246 -0.7975  4.0538 -0.0550
  614SOL    HW2 1984   0.732   1.726   1.096 -0.1436 -1.5716 -0.0594
  615SOL     OW 1985   2.447   1.016   1.899 -0.4556 -0.9099  0.4532
  615SOL    HW1 1986   2.466   0.926   1.924  0.2395 -0.3024  2.3461
  615SOL    HW2 1987   2.532   1.061   1.905 -1.0324  0.1521  0.9250
  616SOL     OW 1988   2.089   2.205   0.961  0.5089 -0.0938 -0.1610
  616SOL    HW1 1989   2.060   2.247   0.880  0.9257 -2.6862 -1.7459
  616SOL    HW2 1990   2.010   2.199   1.015 -0.1102  0.2171 -1.0227
  617SOL     OW 1991   3.546   1.354   3.160  0.3084 -0.1055  0.4297
  617SOL    HW1 1992   3.494   1.430   3.134 -0.1755 -1.3359 -2.6676
  617SOL    HW2 1993   3.606   1.340   3.087  1.4501 -1.7852  1.6213
  618SOL     OW 1994   0.442   2.410   2.088  0.3161  0.6015 -0.0462
  618SOL    HW1 1995   0.536   2.421   2.100  0.2754  0.0719  0.9148
  618SOL    HW2 1996   0.433   2.344   2.019  0.6104  1.9476 -1.4209
  619SOL     OW 1997   0.730   1.479   2.722 -0.2600  0.2417 -0.0349
  619SOL    HW1 1998   0.769   1.450   2.805  0.3748  0.9573 -0.0761
  619SOL    HW2 1999   0.802   1.473   2.659 -0.7663 -0.3912 -0.5582
  620SOL     OW 2000   2.192   1.188   2.600 -0.1647  0.4321 -0.1966
  620SOL    HW1 2001   2.270   1.239   2.622  0.8553  0.3079 -3.0943
  620SOL    HW2 2002   2.120   1.251   2.607  0.8451  1.9212 -2.0123
  621SOL     OW 2003   1.966   1.640   0.796  0.0675  0.0038  0.3348
  621SOL    HW1 2004   1.931   1.641   0.707 -0.3494 -1.4092  0.4708
  621SOL    HW2 2005   2.038   1.704   0.793  1.2024 -1.2579 -1.4891
  622SOL     OW 2006   2.991   2.409   2.223  0.5781  0.5385  0.3264
  622SOL    HW1 2007   2.986   2.323   2.265 -1.6479  1.0002  1.1369
  622SOL    HW2 2008   2.991   2.471   2.296 -0.1118  1.2743 -0.2869
  623SOL     OW 2009   0.208   1.878   2.949 -0.3283  0.2644 -0.3221
  623SOL    HW1 2010   0.286   1.933   2.950 -1.1882  1.5165 -0.3367
  623SOL    HW2 2011   0.166   1.895   3.033 -0.0314 -1.2667  0.1682
  624SOL     OW 2012   1.546   2.209   2.114 -0.1250  0.0928  0.0206
  624SOL    HW1 2013   1.462   2.213   2.068  0.2515 -1.9083 -0.9304
  624SOL    HW2 2014   1.612   2.216   2.045  0.4555 -2.5403  0.2318
  625SOL     OW 2015   0.313   1.954   1.987  0.6286 -0.6647 -0.4061
  625SOL    HW1 2016   0.406   1.931   1.991  0.5655 -1.1178 -1.2745
  625SOL    HW2 2017   0.286   1.930   1.898 -0.6462 -1.8090  0.2546
  626SOL     OW 2018   2.621   1.192   3.386 -0.2312 -0.1558  0.2464
  626SOL    HW1 2019   2.714   1.208   3.370 -0.0189 -1.9590 -0.6414
  626SOL    HW2 2020   2.576   1.258   3.335  0.5366 -2.4466 -3.7687
  627SOL     OW 2021   3.700   3.275   1.155  0.0689 -1.0186  0.2216
  627SOL    HW1 2022   3.763   3.314   1.216 -1.3379  0.2915  0.9179
  627SOL    HW2 2023   3.624   3.252   1.209 -1.8391  1.5219 -1.1157
  628SOL     OW 2024   2.742   2.847   2.647 -0.2055  0.1442 -0.3574
  628SOL    HW1 2025   2.758   2.753   2.644  0.8449  0.2685  0.6628
  628SOL    HW2 2026   2.720   2.870   2.556  0.2528 -0.9588 -0.7675
  629SOL     OW 2027   3.235   2.642   0.982  0.2085  0.3138  0.2977
  629SOL    HW1 2028   3.273   2.728   1.001  0.5035  0.4865 -0.9660
  629SOL    HW2 2029   3.298   2.579   1.018  0.5442  0.6261  0.2600
  630SOL     OW 2030   0.105   0.725   1.782 -1.0465  0.0416  0.5218
  630SOL    HW1 2031   0.195   0.697   1.798 -0.1316  2.2511 -0.3967
  630SOL    HW2 2032   0.055   0.688   1.855  0.4609 -1.7030  0.7533
  631SOL     OW 2033   2.690   0.043   3.383 -0.0099 -0.6974  0.2356
  631SOL    HW1 2034   2.751  -0.015   3.428 -0.4062  0.2282  2.0543
  631SOL    HW2 2035   2.621   0.060   3.447  0.1465  1.8491 -0.1512
  632SOL     OW 2036   1.261   3.723   0.909  0.0079  0.2163  0.1698
  632SOL    HW1 2037   1.323   3.792   0.887 -1.8693  2.3083  0.9801
  632SOL    HW2 2038   1.199   3.722   0.836 -1.6315  1.5297  1.4435
  633SOL     OW 2039   0.912   2.384   1.336 -0.2719  0.0244 -0.3626
  633SOL    HW1 2040   0.857   2.306   1.339 -1.6997  1.0120  0.0035
  633SOL    HW2 2041   0.868   2.447   1.394  2.3857  0.1573  1.6837
  634SOL     OW 2042   0.971   1.945   2.116  0.1703 -0.2774 -0.2030
  634SOL    HW1 2043   0.942   1.864   2.159  1.0296 -0.5714 -0.1488
  634SOL    HW2 2044   1.066   1.937   2.112  0.2900  0.8419  0.0190
  635SOL     OW 2045   0.204   1.588   1.291  0.4024  0.7553  0.8855
  635SOL    HW1 2046   0.214   1.637   1.209 -0.9845  1.1884  0.9550
  635SOL    HW2 2047   0.198   1.496   1.264  1.3768  0.7513  0.6313
  636SOL     OW 2048   0.051   0.172   1.345  0.1820  0.3633  0.7464
  636SOL    HW1 2049   0.021   0.240   1.285  0.0625 -0.8705 -0.6586
  636SOL    HW2 2050  -0.017   0.167   1.412  1.1128  2.9037  1.9974
  637SOL     OW 2051   0.913   3.004   3.661  0.3950 -0.3397 -0.4369
  637SOL    HW1 2052   0.914   3.099   3.677  1.8822 -0.2806 -0.7310
  637SOL    HW2 2053   0.821   2.979   3.671  0.1730  0.8996  0.9899
  638SOL     OW 2054   2.415   0.324   0.129 -0.2350  0.0258  0.0602
  638SOL    HW1 2055   2.339   0.371   0.163 -0.2948  1.1515 -1.5356
  638SOL    HW2 2056   2.443   0.375   0.053  1.4917 -0.9427 -0.0016
  639SOL     OW 2057   0.432   2.982   0.499 -0.8322  1.2882 -0.6450
  639SOL    HW1 2058   0.378   2.915   0.541 -0.5599  0.9325 -0.8532
  639SOL    HW2 2059   0.487   3.017   0.569 -0.9451  1.2673 -0.5452
  640SOL     OW 2060   3.835   2.866   0.630  0.5483  0.4704  0.4633
  640SOL    HW1 2061   3.829   2.958   0.654  2.5415  0.8139 -0.1719
  640SOL    HW2 2062   3.804   2.819   0.708  1.7403  1.6593  1.7167
  641SOL     OW 2063   0.722   3.832   2.215  0.2351  0.3747  0.3970
  641SOL    HW1 2064   0.681   3.894   2.155 -0.0064  0.7180  0.9150
  641SOL    HW2 2065   0.778   3.778   2.159 -0.9253 -0.1259 -0.3285
  642SOL     OW 2066   2.201   0.647   3.209  0.3467 -0.2072 -0.0902
  642SOL    HW1 2067   2.111   0.623   3.184  0.4527 -1.7277  0.8904
  642SOL    HW2 2068   2.190   0.726   3.262 -0.5901 -1.2457  1.3207
  643SOL     OW 2069   0.517   2.728   0.345 -0.3540 -0.3897  0.5096
  643SOL    HW1 2070   0.446   2.666   0.327 -0.3834  0.0115 -0.8454
  643SOL    HW2 2071   0.476   2.814   0.336  0.6841 -0.1125 -2.1906
  644SOL     OW 2072   3.443   2.299   0.335  0.1980  0.1980 -0.5315
  644SOL    HW1 2073   3.349   2.314   0.326  0.0170  0.8266  1.7539
  644SOL    HW2 2074   3.459   2.219   0.284 -1.7907 -0.6136 -0.0018
  645SOL     OW 2075   1.369   1.998   0.265  0.9470 -0.0606 -0.2125
  645SOL    HW1 2076   1.335   2.086   0.280  1.4052  0.3728 -1.5749
  645SOL    HW2 2077   1.342   1.948   0.342  0.7040  1.2712  0.5906
  646SOL     OW 2078   1.485   3.050   1.473  0.2796  0.2730 -0.0150
  646SOL    HW1 2079   1.521   3.080   1.389 -0.6783  2.3014  0.2348
  646SOL    HW2 2080   1.543   2.978   1.499  1.7819  0.8663 -1.4779
  647SOL     OW 2081   1.032   0.120   0.775 -0.0121  0.6401  0.2628
  647SOL    HW1 2082   0.952   0.172   0.760  0.2844  0.8885 -0.5158
  647SOL    HW2 2083   1.025   0.048   0.712  0.8094  1.1709 -0.4565
  648SOL     OW 2084   2.404   1.181   0.923  0.3197  0.8332 -0.3369
  648SOL    HW1 2085   2.436   1.140   1.003 -1.6154 -1.2230 -0.5106
  648SOL    HW2 2086   2.408   1.275   0.941  2.8278  0.5592  0.9490
  649SOL     OW 2087   1.499   0.037   0.843 -0.1209 -0.2490  0.5046
  649SOL    HW1 2088   1.480   0.117   0.892 -0.4496 -0.2079  0.3116
  649SOL    HW2 2089   1.533   0.067   0.759  0.0738 -0.3179  0.5566
  650SOL     OW 2090   3.123   3.774   1.291  0.1702  0.5976 -0.6199
  650SOL    HW1 2091   3.166   3.779   1.376  0.9422 -1.8323 -0.8018
  650SOL    HW2 2092   3.067   3.852   1.289  1.2377  1.5199  1.4572
  651SOL     OW 2093   2.129   0.401   0.626 -0.4943  0.1541 -1.0502
  651SOL    HW1 2094   2.042   0.413   0.590 -0.8604 -0.4666 -0.3817
  651SOL    HW2 2095   2.129   0.451   0.708 -0.8299 -1.3049 -0.1239
  652SOL     OW 2096   0.569   3.144   0.673  0.8041 -0.2423  0.2950
  652SOL    HW1 2097   0.625   3.218   0.648  0.8961 -0.1032  0.8958
  652SOL    HW2 2098   0.628   3.086   0.722  1.2239 -1.6227 -1.6810
  653SOL     OW 2099   3.377   0.074   2.611 -0.0789  0.6597  0.4563
  653SOL    HW1 2100   3.366   0.003   2.674  1.8411  2.3798  2.9489
  653SOL    HW2 2101   3.316   0.142   2.640 -0.2380  0.9325 -0.4812
  654SOL     OW 2102   1.552   1.429   2.127 -0.1945 -0.4501  0.7812
  654SOL    HW1 2103   1.502   1.507   2.103  2.3101  0.2782 -2.9007
  654SOL    HW2 2104   1.638   1.463   2.152  0.6533 -1.9467  0.0130
  655SOL     OW 2105   0.081   1.037   0.310  0.4189  0.3194 -0.0752
  655SOL    HW1 2106   0.055   1.101   0.244  0.8288  0.0345 -0.5174
  655SOL    HW2 2107   0.002   0.984   0.324 -0.1599  1.3838  0.8597
  656SOL     OW 2108   1.557   3.111   0.900 -0.4538 -0.1719 -0.1743
  656SOL    HW1 2109   1.619   3.038   0.891  1.2812  1.3731 -1.6265
  656SOL    HW2 2110   1.473   3.074   0.873  0.7150 -1.2434 -2.7844
  657SOL     OW 2111   1.277   1.876   0.496  0.0247  0.5935  0.7026
  657SOL    HW1 2112   1.334   1.846   0.567 -0.7267 -1.3698  0.5341
  657SOL    HW2 2113   1.202   1.914   0.541  0.4731  1.2310  0.9319
  658SOL     OW 2114   2.294   3.215   1.906  0.1641 -0.2560 -0.1341
  658SOL    HW1 2115   2.302   3.304   1.872 -0.4100  0.0216  0.4364
  658SOL    HW2 2116   2.209   3.184   1.874 -1.0061  0.4841  2.0472
  659SOL     OW 2117   2.949   2.242   2.486 -0.3293 -0.4621 -0.6877
  659SOL    HW1 2118   3.040   2.267   2.506 -0.4642 -0.4393 -0.0744
  659SOL    HW2 2119   2.913   2.215   2.570  0.5784 -5.3552 -1.5882
  660SOL     OW 2120   0.652   1.713   2.574 -0.2790 -0.7726 -0.5212
  660SOL    HW1 2121   0.620   1.631   2.610  0.5796 -1.4796 -1.3083
  660SOL    HW2 2122   0.743   1.718   2.603 -0.2009 -0.3053 -0.8270
  661SOL     OW 2123   1.770   1.167   1.392  0.1075 -0.0050  0.4866
  661SOL    HW1 2124   1.816   1.209   1.319 -0.7751 -0.3772 -0.3121
  661SOL    HW2 2125   1.829   1.097   1.421  0.3004 -0.1044 -0.1359
  662SOL     OW 2126   1.883   1.957   2.654  0.2081  0.6313  0.4181
  662SOL    HW1 2127   1.855   1.873   2.616  1.7679 -1.2043  2.9805
  662SOL    HW2 2128   1.802   2.005   2.667 -0.7714 -0.5426 -0.9087
  663SOL     OW 2129   2.040   1.304   3.490 -0.0919  0.3147 -0.1683
  663SOL    HW1 2130   2.014   1.242   3.558  1.5730 -1.3544 -0.9655
  663SOL    HW2 2131   2.134   1.318   3.505  0.1175  0.5934 -1.5912
  664SOL     OW 2132   0.376   0.220   0.503 -0.6814 -0.1472  0.0808
  664SOL    HW1 2133   0.410   0.249   0.588 -1.3097  1.1502 -0.0779
  664SOL    HW2 2134   0.413   0.282   0.440 -1.0922 -0.4313 -0.4550
  665SOL     OW 2135   3.830   0.731   3.524  0.0305  0.0662 -0.0601
  665SOL    HW1 2136   3.858   0.822   3.513 -1.2683  0.9003  2.6994
  665SOL    HW2 2137   3.753   0.723   3.469 -0.2956  0.8742  0.2648
  666SOL     OW 2138   2.769   0.660   0.240 -0.3155 -0.4428 -0.2924
  666SOL    HW1 2139   2.744   0.578   0.196 -0.5583 -0.5934  0.1261
  666SOL    HW2 2140   2.780   0.636   0.332  3.5481 -0.9183 -0.6907
  667SOL     OW 2141   2.859   0.176   0.157  0.0950 -0.0922  1.3716
  667SOL    HW1 2142   2.913   0.221   0.091 -0.6925 -2.1708 -0.8270
  667SOL    HW2 2143   2.923   0.134   0.215  0.8824 -1.0266 -0.1116
  668SOL     OW 2144   3.066   2.733   3.736  0.4988  0.2088  0.4405
  668SOL    HW1 2145   3.022   2.817   3.721  2.3793  0.7339 -3.1913
  668SOL    HW2 2146   3.141   2.755   3.791 -1.3384 -0.0362  3.3051
  669SOL     OW 2147   2.939   0.827   1.820  0.1463 -0.0681  0.0708
  669SOL    HW1 2148   2.938   0.795   1.729  1.7022  1.2085 -0.4553
  669SOL    HW2 2149   3.027   0.806   1.851  0.7698  2.4136  0.1420
  670SOL     OW 2150   0.179   0.725   3.243  0.7058  0.3679 -0.1304
  670SOL    HW1 2151   0.111   0.674   3.287  1.1297 -0.1761 -0.0968
  670SOL    HW2 2152   0.261   0.692   3.280  0.9708  1.5790  0.4378
  671SOL     OW 2153   1.704   1.885   1.587 -0.2177 -0.4545  0.2490
  671SOL    HW1 2154   1.723   1.931   1.669  0.2368 -0.1919  0.0045
  671SOL    HW2 2155   1.609   1.877   1.585 -0.6437  3.1842 -1.1190
  672SOL     OW 2156   0.994   0.241   3.837 -0.2155 -0.0520  0.0550
  672SOL    HW1 2157   0.937   0.166   3.821 -0.2350 -0.3535  1.4785
  672SOL    HW2 2158   1.081   0.204   3.850 -0.5761 -0.0770  2.8942
  673SOL     OW 2159   0.921   3.045   0.585  0.1970  0.4423  0.3872
  673SOL    HW1 2160   0.852   2.980   0.601  0.9356 -0.4930 -0.1184
  673SOL    HW2 2161   0.972   3.047   0.666  0.6789 -0.2572  0.1124
  674SOL     OW 2162   0.387   0.250   0.971 -0.3317 -0.0532 -0.2246
  674SOL    HW1 2163   0.420   0.339   0.959  1.3317 -0.5560  0.4248
  674SOL    HW2 2164   0.424   0.221   1.054  0.0094 -1.7148 -0.9145
  675SOL     OW 2165   0.074   3.716   1.372  0.0083 -0.2892  0.2726
  675SOL    HW1 2166   0.132   3.782   1.332 -0.1620 -0.1726  0.2171
  675SOL    HW2 2167   0.009   3.697   1.304  0.1197 -0.5938  0.2501
  676SOL     OW 2168   3.101   1.415   0.586 -0.0660 -0.1715 -0.0188
  676SOL    HW1 2169   3.050   1.491   0.614 -1.6291 -1.9831  2.4593
  676SOL    HW2 2170   3.191   1.447   0.581 -0.7756  2.0379 -0.0252
  677SOL     OW 2171   2.417   1.824   3.812  0.2110  0.0689 -0.1671
  677SOL    HW1 2172   2.353   1.883   3.852 -0.6636 -1.0493  0.1256
  677SOL    HW2 2173   2.431   1.861   3.724  0.0378  0.9671  0.1693
  678SOL     OW 2174   2.906   1.969   0.348  0.4199  0.2273  0.6579
  678SOL    HW1 2175   2.840   1.947   0.283  0.9395  0.5000  0.0238
  678SOL    HW2 2176   2.957   1.888   0.358 -0.5992 -0.2909  1.8840
  679SOL     OW 2177   1.123   2.179   0.063 -0.4792  0.6184 -0.3603
  679SOL    HW1 2178   1.077   2.262   0.047  0.0965  0.7198 -1.6392
  679SOL    HW2 2179   1.071   2.135   0.129 -1.3893  1.5380 -0.4367
  680SOL     OW 2180   1.330   1.561   3.060  0.4096 -0.2203 -0.5290
  680SOL    HW1 2181   1.299   1.580   3.148 -0.0534  0.6967 -0.8813
  680SOL    HW2 2182   1.398   1.494   3.072  0.7715  0.3271  0.5672
  681SOL     OW 2183   2.727   3.755   1.142 -0.2859  0.4818  0.2890
  681SOL    HW1 2184   2.667   3.787   1.075  1.8105 -0.1770 -2.0932
  681SOL    HW2 2185   2.715   3.660   1.141 -2.1537  0.5970  2.9199
  682SOL     OW 2186   3.371   1.924   2.220 -0.2341 -0.6208  1.0007
  682SOL    HW1 2187   3.455   1.939   2.177 -1.7910 -1.6506 -2.7843
  682SOL    HW2 2188   3.384   1.843   2.270  1.4044  0.1026  1.8317
  683SOL     OW 2189   1.346   1.902   3.181  0.3246  0.3770 -0.1578
  683SOL    HW1 2190   1.322   1.994   3.168  0.3018  0.1735 -1.6896
  683SOL    HW2 2191   1.264   1.859   3.203  0.1446  0.5363 -0.5126
  684SOL     OW 2192   2.829   2.017   2.407 -0.3995  0.3544 -0.0275
  684SOL    HW1 2193   2.819   2.032   2.313 -0.3174 -1.9154 -0.4547
  684SOL    HW2 2194   2.881   2.091   2.438  0.3153  0.6908 -1.9264
  685SOL     OW 2195   0.270   1.458   2.160 -0.5557  0.3509 -0.3186
  685SOL    HW1 2196   0.290   1.479   2.251 -0.6717 -0.0146 -0.2045
  685SOL    HW2 2197   0.306   1.530   2.109 -3.4166  2.3462  0.2354
  686SOL     OW 2198   1.211   1.493   3.308  0.1351 -0.9000  0.0288
  686SOL    HW1 2199   1.232   1.401   3.291  0.4564 -0.8200 -0.0221
  686SOL    HW2 2200   1.255   1.512   3.391  1.5329 -0.3177 -0.8085
  687SOL     OW 2201   1.770   2.422   1.637  0.0586 -0.3951 -0.0269
  687SOL    HW1 2202   1.675   2.417   1.642  0.1131 -0.1693  2.1794
  687SOL    HW2 2203   1.795   2.480   1.709  1.8586 -0.3237 -0.6634
  688SOL     OW 2204   3.345   2.283   0.987  0.0401  0.5304 -0.3803
  688SOL    HW1 2205   3.322   2.308   1.076  0.4537 -0.0873 -0.0850
  688SOL    HW2 2206   3.425   2.333   0.968  2.2686 -2.1725  1.1001
  689SOL     OW 2207   1.116   2.734   2.864  0.6261  0.2763 -0.1777
  689SOL    HW1 2208   1.095   2.804   2.925  0.0014 -1.0128  1.1287
  689SOL    HW2 2209   1.032   2.708   2.827  1.0040  1.1184 -1.7413
  690SOL     OW 2210   0.120   3.399   2.002 -0.3573  0.6743 -1.2643
  690SOL    HW1 2211   0.138   3.405   1.909  2.0280 -1.1626 -1.0054
  690SOL    HW2 2212   0.187   3.453   2.044 -0.1086 -0.1628 -0.5507
  691SOL     OW 2213   1.414   1.213   1.993  0.6684  0.1003 -0.5117
  691SOL    HW1 2214   1.457   1.293   2.021  1.2722 -0.8771  1.5886
  691SOL    HW2 2215   1.351   1.193   2.063  1.5161 -1.9582 -0.2660
  692SOL     OW 2216   1.473   0.472   3.771  0.5644  0.5151  1.0553
  692SOL    HW1 2217   1.449   0.453   3.680  2.9794 -0.7920  0.6054
  692SOL    HW2 2218   1.473   0.567   3.777  2.0518  0.6841 -0.8472
  693SOL     OW 2219   2.856   2.201   3.114 -0.4987  0.6042  0.0158
  693SOL    HW1 2220   2.927   2.262   3.134 -0.9439  1.2228 -0.2387
  693SOL    HW2 2221   2.847   2.147   3.193  2.2908 -1.5916 -1.0175
  694SOL     OW 2222   2.204   3.392   3.336 -0.6194  0.0249  0.3615
  694SOL    HW1 2223   2.132   3.452   3.316  0.5410  1.4823  0.3811
  694SOL    HW2 2224   2.246   3.430   3.413  0.5632 -0.4350 -0.0382
  695SOL     OW 2225   2.694   2.353   2.383  0.6949 -0.3134  0.2375
  695SOL    HW1 2226   2.697   2.335   2.477 -0.1677  1.4026  0.6357
  695SOL    HW2 2227   2.786   2.354   2.356  1.0363  0.3186  1.3278
  696SOL     OW 2228   3.755   2.868   0.191 -0.1136 -0.6473 -0.6191
  696SOL    HW1 2229   3.775   2.802   0.125  0.6052 -1.1044  0.0372
  696SOL    HW2 2230   3.707   2.821   0.259 -0.0401 -0.3904 -0.3829
  697SOL     OW 2231   2.350   0.997   2.494 -0.1316  0.6614  0.4271
  697SOL    HW1 2232   2.425   1.052   2.475 -0.9642  1.2586 -1.4017
  697SOL    HW2 2233   2.280   1.059   2.516 -1.1816  0.4456 -2.0158
  698SOL     OW 2234   0.064   1.599   1.671  0.4783 -0.0160  0.1866
  698SOL    HW1 2235   0.020   1.583   1.588  1.1698  0.3175 -0.2410
  698SOL    HW2 2236  -0.003   1.579   1.737 -0.1295 -0.0907 -0.4455
  699SOL     OW 2237   2.314   1.971   1.761 -0.0589  0.4866  0.0970
  699SOL    HW1 2238   2.231   1.970   1.714  0.2593  0.6116 -0.4733
  699SOL    HW2 2239   2.377   2.007   1.699 -0.0081  2.5979  1.2440
  700SOL     OW 2240   0.120   0.644   2.465 -0.1411 -0.5854  0.1007
  700SOL    HW1 2241   0.081   0.714   2.518  0.5947  0.1985 -0.3631
  700SOL    HW2 2242   0.159   0.584   2.529  0.1069 -0.0344  0.4734
  701SOL     OW 2243   0.333   3.186   3.730 -0.1225 -0.1391  0.0540
  701SOL    HW1 2244   0.317   3.198   3.637 -1.0510 -0.0520  0.2203
  701SOL    HW2 2245   0.269   3.242   3.774  0.4951  0.0452  0.7418
  702SOL     OW 2246   2.619   3.618   2.630 -0.1071  0.1370 -0.2023
  702SOL    HW1 2247   2.681   3.690   2.618 -0.3289  0.2413 -0.7788
  702SOL    HW2 2248   2.571   3.614   2.547 -1.5502  0.7010  0.5696
  703SOL     OW 2249   2.672   0.062   0.405  0.8276 -0.4108  0.1451
  703SOL    HW1 2250   2.696  -0.003   0.472  0.0525  0.4517  1.3003
  703SOL    HW2 2251   2.678   0.146   0.451  0.0462  0.1809 -0.8101
  704SOL     OW 2252   0.636   0.929   1.128  0.0979  0.0797 -0.5453
  704SOL    HW1 2253   0.635   0.907   1.035 -0.9981 -1.6307 -0.1717
  704SOL    HW2 2254   0.729   0.937   1.150  0.4110 -0.6740 -1.5197
  705SOL     OW 2255   3.708   1.375   1.484 -0.2938 -0.4214 -0.1470
  705SOL    HW1 2256   3.731   1.458   1.441  1.1354  0.2042  1.6916
  705SOL    HW2 2257   3.700   1.398   1.576  2.5994 -2.7233  0.8085
  706SOL     OW 2258   0.803   3.365   1.503  0.5034 -0.3860 -0.2435
  706SOL    HW1 2259   0.886   3.413   1.507 -0.4120  1.1858  0.5193
  706SOL    HW2 2260   0.778   3.353   1.595  0.8445 -2.6268 -0.3983
  707SOL     OW 2261   0.542   0.180   3.373  0.1708  0.3495 -0.1290
  707SOL    HW1 2262   0.467   0.232   3.344  0.6295  1.5460  0.7733
  707SOL    HW2 2263   0.618   0.237   3.360  0.4642  0.7840  2.8665
  708SOL     OW 2264   2.078   2.427   1.261  0.2864 -0.3228  0.0678
  708SOL    HW1 2265   2.002   2.450   1.315  0.3149  1.9300 -0.7108
  708SOL    HW2 2266   2.079   2.494   1.192  2.1775 -1.1265 -0.7624
  709SOL     OW 2267   1.165   0.854   3.157  0.8650  0.2438 -0.0997
  709SOL    HW1 2268   1.253   0.890   3.152  1.0340  1.5304  5.4593
  709SOL    HW2 2269   1.108   0.932   3.161 -0.2809 -0.5100 -1.0106
  710SOL     OW 2270   3.817   2.596   2.086  0.1063  0.6606 -0.0178
  710SOL    HW1 2271   3.900   2.585   2.133 -0.8054 -0.7249  1.3507
  710SOL    HW2 2272   3.755   2.542   2.135 -0.5929 -2.2554 -3.7184
  711SOL     OW 2273   2.544   3.788   0.196 -0.0438 -0.3824 -0.1902
  711SOL    HW1 2274   2.609   3.720   0.181 -0.6417 -0.8610 -0.6422
  711SOL    HW2 2275   2.574   3.833   0.275  1.6508  0.3838 -1.2017
  712SOL     OW 2276   1.062   1.424   0.480  0.0947 -0.0298  0.5561
  712SOL    HW1 2277   1.020   1.339   0.495  0.5962 -0.7931 -1.9235
  712SOL    HW2 2278   1.006   1.468   0.416  2.0046 -0.2972 -1.3998
  713SOL     OW 2279   0.265   0.531   3.031  0.6244 -0.1012  0.1789
  713SOL    HW1 2280   0.197   0.597   3.041 -0.1624 -0.8584 -0.0058
  713SOL    HW2 2281   0.345   0.573   3.063  0.2943  1.1795 -0.6225
  714SOL     OW 2282   2.715   1.200   0.750  0.2471  0.3518  0.9310
  714SOL    HW1 2283   2.788   1.208   0.689 -1.3218 -2.7071 -1.6107
  714SOL    HW2 2284   2.640   1.235   0.702 -0.3500  2.0848  2.9437
  715SOL     OW 2285   2.838   1.830   2.640 -0.0175 -0.2268  0.2278
  715SOL    HW1 2286   2.840   1.882   2.559 -1.9539 -0.3858  0.0289
  715SOL    HW2 2287   2.784   1.882   2.700  0.0558 -0.8729  0.8612
  716SOL     OW 2288   2.335   3.589   1.110  0.2981  0.2501  0.2519
  716SOL    HW1 2289   2.283   3.654   1.062 -2.3147 -1.7812  0.1135
  716SOL    HW2 2290   2.353   3.631   1.194 -0.8599  1.3638 -0.0109
  717SOL     OW 2291   3.799   0.516   3.284 -0.7446  0.0280 -0.0985
  717SOL    HW1 2292   3.745   0.438   3.271 -3.3866  1.6648  0.3194
  717SOL    HW2 2293   3.765   0.580   3.220 -0.6499  1.7468  1.4886
  718SOL     OW 2294   3.369   0.832   1.568  0.1662  0.2512 -0.3658
  718SOL    HW1 2295   3.412   0.773   1.506  1.4636  0.6090  0.1600
  718SOL    HW2 2296   3.325   0.896   1.513  0.3828 -0.0722 -0.9272
  719SOL     OW 2297   3.759   3.335   0.231  0.0675  0.0990  0.0069
  719SOL    HW1 2298   3.790   3.245   0.245  0.0047  0.0179 -0.3716
  719SOL    HW2 2299   3.713   3.332   0.147  0.8937  0.6960 -0.4767
  720SOL     OW 2300   3.300   1.279   1.111 -0.7734 -0.0794 -0.1851
  720SOL    HW1 2301   3.355   1.354   1.134  1.0851 -0.7279 -2.2239
  720SOL    HW2 2302   3.263   1.301   1.025 -0.5677 -1.2968 -0.6036
  721SOL     OW 2303   3.645   1.056   3.261  0.4160  0.1190  0.2317
  721SOL    HW1 2304   3.561   1.066   3.218  0.8822  2.1439 -0.3105
  721SOL    HW2 2305   3.689   0.987   3.212 -0.6458 -0.4810  0.0987
  722SOL     OW 2306   2.326   1.735   1.259  0.2072 -0.1323 -0.0906
  722SOL    HW1 2307   2.287   1.821   1.245  1.9378  0.6302 -0.5554
  722SOL    HW2 2308   2.280   1.700   1.335  0.6470  1.9935  1.2533
  723SOL     OW 2309   2.540   0.206   2.051 -0.5945  0.5775  0.5666
  723SOL    HW1 2310   2.593   0.229   2.127  2.8670 -1.9417 -0.7909
  723SOL    HW2 2311   2.568   0.266   1.982  0.6143 -0.7384 -0.1492
  724SOL     OW 2312   0.628   0.927   0.861 -0.3095 -0.3599 -0.0306
  724SOL    HW1 2313   0.722   0.924   0.844 -0.4141  1.1372 -1.0365
  724SOL    HW2 2314   0.588   0.914   0.775 -1.0203 -0.5532  0.3190
  725SOL     OW 2315   1.879   1.492   0.349 -0.5364  0.2296 -0.6386
  725SOL    HW1 2316   1.832   1.461   0.426 -1.4305 -0.0696 -1.2969
  725SOL    HW2 2317   1.906   1.581   0.372 -1.3612  0.3801 -0.2211
  726SOL     OW 2318   2.002   3.237   1.951  0.0738 -1.0590  0.2301
  726SOL    HW1 2319   1.917   3.267   1.983  1.2553  1.4381  1.3736
  726SOL    HW2 2320   2.006   3.268   1.860 -0.0672 -0.7535  0.3260
  727SOL     OW 2321   1.295   1.231   3.231  0.5829 -0.3765 -0.9065
  727SOL    HW1 2322   1.362   1.278   3.180 -0.7160  1.6205 -0.9028
  727SOL    HW2 2323   1.256   1.170   3.169  0.6298  0.3510 -1.6772
  728SOL     OW 2324   0.500   3.117   3.053 -0.7433 -0.0333 -0.6041
  728SOL    HW1 2325   0.568   3.050   3.053 -0.4311  0.2758  0.2351
  728SOL    HW2 2326   0.492   3.143   2.961  0.7432  0.4070 -0.6288
  729SOL     OW 2327   1.862   2.507   3.192 -0.0356  0.5765  0.3614
  729SOL    HW1 2328   1.807   2.573   3.235  1.6665  1.4845  1.2169
  729SOL    HW2 2329   1.946   2.512   3.237  0.2296 -2.0649  0.3225
  730SOL     OW 2330   3.222   2.233   2.008 -0.1649 -0.2272 -0.5571
  730SOL    HW1 2331   3.214   2.326   2.027 -1.0323 -0.5511  0.8238
  730SOL    HW2 2332   3.280   2.229   1.932 -1.8864  1.5609 -2.0697
  731SOL     OW 2333   0.640   0.704   0.541  0.6254 -0.3062  1.1274
  731SOL    HW1 2334   0.732   0.709   0.565  1.6871  0.6572 -2.4782
  731SOL    HW2 2335   0.635   0.751   0.458 -2.8623 -1.5670  0.4839
  732SOL     OW 2336   2.190   0.048   2.802 -0.2811  0.1576 -0.0862
  732SOL    HW1 2337   2.120  -0.016   2.792 -0.1198  0.1227 -1.1323
  732SOL    HW2 2338   2.260   0.001   2.847 -0.5976 -0.0600  0.1837
  733SOL     OW 2339   3.411   1.125   3.854  0.1687  0.3525 -0.6402
  733SOL    HW1 2340   3.452   1.148   3.771 -0.2205 -0.3861 -1.0509
  733SOL    HW2 2341   3.432   1.032   3.865 -0.9583  0.0912 -0.6071
  734SOL     OW 2342   0.357   2.765   0.668  0.1300 -0.3664 -0.2366
  734SOL    HW1 2343   0.310   2.788   0.748 -2.0613 -0.3110 -1.4521
  734SOL    HW2 2344   0.432   2.714   0.698 -0.5405 -0.2278  1.8504
  735SOL     OW 2345   1.119   1.422   2.861 -0.0888  0.4729  0.3205
  735SOL    HW1 2346   1.156   1.492   2.916 -1.1782  1.0801  0.3001
  735SOL    HW2 2347   1.186   1.407   2.794  0.0613  1.7072  0.1614
  736SOL     OW 2348   1.223   1.549   0.962  0.1692  0.1651  0.3095
  736SOL    HW1 2349   1.128   1.564   0.963  0.2983  1.3642  2.6863
  736SOL    HW2 2350   1.232   1.457   0.936 -1.6281  0.0793 -0.1704
  737SOL     OW 2351   0.201   1.994   1.731 -0.2027  0.5290 -0.5793
  737SOL    HW1 2352   0.127   2.038   1.772 -0.0067  0.1819  0.1571
  737SOL    HW2 2353   0.171   1.904   1.719  0.0517  0.4220 -0.4045
  738SOL     OW 2354   2.652   1.280   3.004 -0.4781  0.1527  0.2360
  738SOL    HW1 2355   2.709   1.205   3.021  0.5518  0.5832 -1.0588
  738SOL    HW2 2356   2.674   1.343   3.072 -0.4305 -0.2390  0.5855
  739SOL     OW 2357   3.536   1.222   0.573  0.0549 -0.0447 -0.5611
  739SOL    HW1 2358   3.494   1.299   0.612 -1.1041 -0.1116 -1.6025
  739SOL    HW2 2359   3.538   1.240   0.480  1.5352 -0.4773 -0.6387
  740SOL     OW 2360   1.996   0.255   2.757 -0.3452  0.4253 -0.7401
  740SOL    HW1 2361   1.917   0.204   2.769 -0.3892  0.7401  0.3846
  740SOL    HW2 2362   2.067   0.191   2.759 -0.5432  0.1844 -1.3906
  741SOL     OW 2363   3.421   3.592   0.723 -0.0894 -0.0859 -0.7599
  741SOL    HW1 2364   3.343   3.622   0.769  0.9392  0.3038  0.7922
  741SOL    HW2 2365   3.393   3.511   0.679 -1.0696 -0.5753  0.6940
  742SOL     OW 2366   1.322   2.924   2.733  0.3704  0.1819  0.6906
  742SOL    HW1 2367   1.284   3.009   2.754 -0.0858 -0.0344  0.7457
  742SOL    HW2 2368   1.271   2.861   2.784 -0.3797 -0.2879 -0.5899
  743SOL     OW 2369   1.334   3.681   3.857 -0.6985  0.4759 -0.2903
  743SOL    HW1 2370   1.258   3.638   3.896 -1.2963 -0.0671 -1.9667
  743SOL    HW2 2371   1.349   3.633   3.775  2.0427 -0.0516  0.4044
  744SOL     OW 2372   1.668   3.120   1.755 -0.4259  0.4259 -0.2287
  744SOL    HW1 2373   1.587   3.080   1.723 -0.8038  0.9068  0.1295
  744SOL    HW2 2374   1.652   3.214   1.752  0.3065  0.5448 -0.6441
  745SOL     OW 2375   2.377   2.380   1.209  0.0304  0.4665 -0.1166
  745SOL    HW1 2376   2.371   2.317   1.137  0.9809 -0.0874  0.2806
  745SOL    HW2 2377   2.292   2.373   1.253 -0.6174  0.9024 -1.2276
  746SOL     OW 2378   1.289   0.244   2.755  0.0559  0.3179  0.3002
  746SOL    HW1 2379   1.195   0.257   2.746 -0.2886 -1.2557  1.3192
  746SOL    HW2 2380   1.310   0.276   2.842  0.0103 -1.4817  1.0091
  747SOL     OW 2381   2.243   3.567   0.501  0.0242  0.2262 -0.0239
  747SOL    HW1 2382   2.264   3.513   0.426  0.7974  0.2262  0.1855
  747SOL    HW2 2383   2.272   3.655   0.477  2.6354 -0.2112  1.2033
  748SOL     OW 2384   1.196   0.078   2.238  0.5216 -0.4614  0.1676
  748SOL    HW1 2385   1.122   0.112   2.188 -0.2904 -1.6664  0.4871
  748SOL    HW2 2386   1.238   0.155   2.274 -1.0250  0.2367  0.5758
  749SOL     OW 2387   3.491   0.956   0.493 -0.1999 -0.1352 -0.3756
  749SOL    HW1 2388   3.491   0.997   0.406 -2.8092 -0.7792 -0.7596
  749SOL    HW2 2389   3.479   1.029   0.554  0.6657  0.2186 -0.6145
  750SOL     OW 2390   2.716   3.731   0.616  0.0324  0.0467 -0.5614
  750SOL    HW1 2391   2.802   3.692   0.596 -0.2204 -0.3726 -0.8431
  750SOL    HW2 2392   2.695   3.698   0.703 -0.2762 -0.6298 -0.8826
  751SOL     OW 2393   2.546   3.440   0.148 -0.2943 -0.4000  0.5400
  751SOL    HW1 2394   2.565   3.349   0.173  2.7940  0.3152  1.0794
  751SOL    HW2 2395   2.570   3.491   0.225  1.8649  1.1688 -1.0673
  752SOL     OW 2396   1.408   1.725   1.342  0.2112 -0.5616 -0.4346
  752SOL    HW1 2397   1.340   1.665   1.313  1.1649 -0.5915 -2.7791
  752SOL    HW2 2398   1.373   1.812   1.323 -1.2961 -0.1722  3.2234
  753SOL     OW 2399   0.776   0.274   2.701  0.3270  0.2439 -0.0383
  753SOL    HW1 2400   0.849   0.302   2.756 -1.0704  1.4896  1.2564
  753SOL    HW2 2401   0.714   0.346   2.704 -2.1091 -1.7380  0.9925
  754SOL     OW 2402   0.558   0.808   3.501  0.3534 -0.3154  0.5423
  754SOL    HW1 2403   0.619   0.757   3.554 -0.9989 -0.5971  1.8840
  754SOL    HW2 2404   0.606   0.887   3.479  2.0652 -1.5867 -0.5568
  755SOL     OW 2405   3.047   2.595   1.719 -0.0715 -0.6642  0.6064
  755SOL    HW1 2406   3.101   2.673   1.708  0.0965 -0.9155 -0.4209
  755SOL    HW2 2407   3.104   2.522   1.695 -0.3635 -1.0806  1.1340
  756SOL     OW 2408   1.866   2.878   2.681  0.0420  0.0282 -0.1834
  756SOL    HW1 2409   1.820   2.794   2.676  0.1476 -0.1362  1.0456
  756SOL    HW2 2410   1.919   2.881   2.602  0.2783 -1.2359 -0.1057
  757SOL     OW 2411   2.389   1.061   3.096  0.0542 -0.1198 -0.0437
  757SOL    HW1 2412   2.370   1.141   3.047  1.0324 -0.2640 -0.6753
  757SOL    HW2 2413   2.362   0.990   3.038  1.5930 -0.3018 -0.5699
  758SOL     OW 2414   0.839   3.483   2.096 -0.1813  0.3929  0.0508
  758SOL    HW1 2415   0.902   3.488   2.025  0.8368 -0.1502  0.8864
  758SOL    HW2 2416   0.754   3.486   2.053  0.4072  0.9102 -1.1161
  759SOL     OW 2417   3.112   3.432   2.265 -0.2148 -0.5755  0.6028
  759SOL    HW1 2418   3.135   3.464   2.177  2.0592 -2.3081  0.4649
  759SOL    HW2 2419   3.046   3.365   2.249 -2.1777  1.2285  0.5853
  760SOL     OW 2420   3.718   1.118   3.707  0.3731  0.3001  0.0522
  760SOL    HW1 2421   3.683   1.033   3.735  1.7545 -0.3475 -0.0826
  760SOL    HW2 2422   3.651   1.153   3.649 -0.3103 -0.6232  0.2547
  761SOL     OW 2423   0.245   1.297   1.258 -0.0586  0.2058 -0.4596
  761SOL    HW1 2424   0.156   1.270   1.281  0.0937 -1.1336 -1.3404
  761SOL    HW2 2425   0.288   1.216   1.230  0.7791  1.1868 -2.1575
  762SOL     OW 2426   2.316   1.375   3.619 -0.6519 -0.0997  0.6664
  762SOL    HW1 2427   2.253   1.414   3.680  1.3243 -0.1382  2.8934
  762SOL    HW2 2428   2.358   1.306   3.670 -0.8036 -2.0842 -1.6961
  763SOL     OW 2429   1.212   1.858   2.194 -0.5852 -0.1109  0.6837
  763SOL    HW1 2430   1.204   1.790   2.262 -1.0977 -0.4771  0.2691
  763SOL    HW2 2431   1.252   1.932   2.239  3.0163 -1.6950  0.4368
  764SOL     OW 2432   2.583   0.419   1.856 -0.2836  0.1572 -0.2913
  764SOL    HW1 2433   2.576   0.471   1.935  1.9057  1.0119 -0.5808
  764SOL    HW2 2434   2.656   0.459   1.807  1.0973 -2.7441 -0.8385
  765SOL     OW 2435   3.211   3.109   0.197  0.1342  0.5862 -0.2862
  765SOL    HW1 2436   3.152   3.182   0.214  1.4324  2.4437 -3.0583
  765SOL    HW2 2437   3.291   3.131   0.246  0.6073  1.1998 -1.3027
  766SOL     OW 2438   1.545   2.470   2.743  0.4498 -0.3205  0.2669
  766SOL    HW1 2439   1.483   2.451   2.813  0.9846 -2.9488  0.1268
  766SOL    HW2 2440   1.608   2.398   2.746  2.1182  1.0037 -1.1219
  767SOL     OW 2441   1.928   2.517   0.248 -0.2706  0.4802 -0.3322
  767SOL    HW1 2442   1.928   2.608   0.218  0.7868  0.2782 -0.9655
  767SOL    HW2 2443   1.888   2.468   0.177 -0.4680  0.3889 -0.1599
  768SOL     OW 2444   1.068   0.711   0.814  0.4137  0.2852  0.1301
  768SOL    HW1 2445   1.138   0.776   0.809  0.8326 -0.2337 -0.9675
  768SOL    HW2 2446   1.099   0.647   0.878  1.1305 -0.1419 -0.6247
  769SOL     OW 2447   2.817   3.230   2.529  0.1101 -0.4360  0.2646
  769SOL    HW1 2448   2.850   3.196   2.613  0.0132  0.3138  0.6171
  769SOL    HW2 2449   2.807   3.153   2.474 -0.0743 -0.9702  1.0341
  770SOL     OW 2450   3.436   1.535   2.391 -0.0064 -0.0684 -0.1897
  770SOL    HW1 2451   3.459   1.451   2.431  0.8437 -0.0627 -0.6409
  770SOL    HW2 2452   3.437   1.598   2.463  0.2606 -0.2871  0.0007
  771SOL     OW 2453   0.760   2.826   0.714 -0.0534  0.0966 -0.0134
  771SOL    HW1 2454   0.745   2.882   0.790  0.1831 -0.6696  0.6100
  771SOL    HW2 2455   0.688   2.762   0.716  0.4102 -0.4346  0.0543
  772SOL     OW 2456   0.836   0.285   0.745  0.0913  0.0096 -0.6665
  772SOL    HW1 2457   0.753   0.241   0.732 -0.8486  1.4315  0.2455
  772SOL    HW2 2458   0.849   0.336   0.666  0.9997 -1.5425 -1.5645
  773SOL     OW 2459   2.354   3.274   1.550 -0.1284 -0.3572 -0.5963
  773SOL    HW1 2460   2.318   3.189   1.575  0.6378 -1.0475 -1.7833
  773SOL    HW2 2461   2.449   3.266   1.565 -0.0072  0.1714 -1.0383
  774SOL     OW 2462   1.918   3.408   2.886 -0.0373 -0.1709 -0.2941
  774SOL    HW1 2463   1.993   3.442   2.838  0.0570  2.1062  1.2941
  774SOL    HW2 2464   1.845   3.415   2.825  0.6836 -0.7543 -1.2619
  775SOL     OW 2465   0.290   2.215   1.570  0.0977 -0.5222  0.4034
  775SOL    HW1 2466   0.257   2.167   1.646  0.9150 -2.4669 -0.3826
  775SOL    HW2 2467   0.372   2.254   1.600 -0.6080  0.4864  1.0769
  776SOL     OW 2468   1.057   2.594   0.969 -0.6263  0.2997  0.0591
  776SOL    HW1 2469   1.107   2.645   1.033  1.0067 -0.9886 -0.1135
  776SOL    HW2 2470   1.104   2.606   0.887 -1.7256  0.5757 -0.5441
  777SOL     OW 2471   0.696   3.278   1.016 -0.1040 -0.3766 -0.1201
  777SOL    HW1 2472   0.784   3.294   0.982 -0.0643 -0.5236 -0.0915
  777SOL    HW2 2473   0.689   3.336   1.092 -0.5251  0.6029 -0.8889
  778SOL     OW 2474   2.990   2.956   2.936 -0.3095  0.2930  0.3818
  778SOL    HW1 2475   2.896   2.959   2.920 -0.2361  1.1566  0.0352
  778SOL    HW2 2476   3.029   2.981   2.852  0.1540  2.1860  1.1032
  779SOL     OW 2477   1.984   2.597   2.938  1.2001  0.2773  0.0286
  779SOL    HW1 2478   1.992   2.510   2.899  2.0497  0.5448 -0.4272
  779SOL    HW2 2479   1.956   2.580   3.028 -1.4728 -0.3054 -0.8345
  780SOL     OW 2480   2.405   0.982   3.340 -0.1311 -0.3036 -0.4737
  780SOL    HW1 2481   2.472   1.048   3.355  0.6239 -0.8604 -1.2752
  780SOL    HW2 2482   2.372   1.000   3.252  0.1664 -1.0475 -0.7495
  781SOL     OW 2483   2.214   0.414   0.284  0.3876  0.0875  0.2115
  781SOL    HW1 2484   2.264   0.482   0.330  1.2184 -0.4642  0.1623
  781SOL    HW2 2485   2.145   0.389   0.346  0.9365  0.0006  0.7981
  782SOL     OW 2486   1.555   1.981   3.587 -0.3723  0.0256 -0.5893
  782SOL    HW1 2487   1.527   1.926   3.660  0.8759 -0.5395 -0.5254
  782SOL    HW2 2488   1.623   2.038   3.623 -1.0377  1.0386 -0.8717
  783SOL     OW 2489   2.655   3.201   0.251 -0.2906 -0.3296  0.1785
  783SOL    HW1 2490   2.713   3.125   0.245 -0.2223 -0.3904  1.3009
  783SOL    HW2 2491   2.704   3.265   0.302  0.2317  1.0807 -1.9580
  784SOL     OW 2492   0.625   3.295   1.771  0.6341 -1.0503 -0.1814
  784SOL    HW1 2493   0.619   3.380   1.815  1.4130 -1.6103  1.0313
  784SOL    HW2 2494   0.543   3.289   1.721 -0.7219 -0.7662  1.8742
  785SOL     OW 2495   2.868   2.689   1.985 -0.0452 -0.0405 -0.8253
  785SOL    HW1 2496   2.916   2.660   1.907 -0.3210 -0.3017 -0.8970
  785SOL    HW2 2497   2.816   2.613   2.012  0.7872 -0.2808  0.1902
  786SOL     OW 2498   2.201   3.610   3.526  0.0968 -0.2666  0.8553
  786SOL    HW1 2499   2.121   3.660   3.542  0.8448  1.0972  0.5891
  786SOL    HW2 2500   2.212   3.556   3.604 -0.4998  0.3714  1.4005
  787SOL     OW 2501   1.087   1.008   0.584  0.0934 -0.3585 -0.8655
  787SOL    HW1 2502   1.049   1.065   0.516  0.2070  0.2196 -0.4549
  787SOL    HW2 2503   1.122   0.933   0.536  1.2317  0.6063 -1.5774
  788SOL     OW 2504   1.009   0.174   3.194  0.2174  0.5450  0.3887
  788SOL    HW1 2505   1.011   0.254   3.245  0.7467 -0.7979  2.5826
  788SOL    HW2 2506   0.919   0.142   3.201 -0.7935  2.2407 -2.7869
  789SOL     OW 2507   2.148   2.035   0.676 -0.1850 -0.3498  0.2681
  789SOL    HW1 2508   2.053   2.043   0.678 -0.2934 -1.4149 -0.0216
  789SOL    HW2 2509   2.180   2.123   0.699 -1.2340  0.3638 -0.8487
  790SOL     OW 2510   2.914   1.212   0.596 -0.3368  0.6142  0.4767
  790SOL    HW1 2511   2.900   1.147   0.526  1.5485  0.2922  0.3451
  790SOL    HW2 2512   2.989   1.263   0.566  1.7099 -0.6636  2.9876
  791SOL     OW 2513   1.062   2.078   1.577  0.0385 -0.4419 -0.3292
  791SOL    HW1 2514   1.106   2.134   1.641 -0.1885  0.4616 -0.9594
  791SOL    HW2 2515   1.076   1.989   1.611  0.7871 -0.0516  0.4379
  792SOL     OW 2516   0.430   0.494   1.455 -0.2157 -0.3775  0.3168
  792SOL    HW1 2517   0.467   0.428   1.396 -1.3004  1.1059 -2.1874
  792SOL    HW2 2518   0.336   0.486   1.444 -0.4380  0.2618  1.5623
  793SOL     OW 2519   1.514   1.076   1.249  0.5096  0.2059  0.2977
  793SOL    HW1 2520   1.594   1.119   1.276 -0.8486  1.2730  2.9904
  793SOL    HW2 2521   1.444   1.129   1.287 -1.4684 -1.0266 -1.4127
  794SOL     OW 2522   0.206   2.508   2.184  0.0911  0.0173 -0.3017
  794SOL    HW1 2523   0.211   2.426   2.232 -0.8010 -0.9074 -1.7122
  794SOL    HW2 2524   0.283   2.508   2.127  0.8329  0.8308  0.6794
  795SOL     OW 2525   0.299   0.759   2.284 -0.2296 -0.1318 -0.5638
  795SOL    HW1 2526   0.241   0.795   2.217 -1.2732 -1.6625 -0.5389
  795SOL    HW2 2527   0.240   0.723   2.349  0.5884  4.2242  3.0774
  796SOL     OW 2528   3.762   1.227   0.829 -0.2578  0.7525 -0.0346
  796SOL    HW1 2529   3.695   1.181   0.778  1.5045 -2.0359 -0.0615
  796SOL    HW2 2530   3.805   1.284   0.765  0.4297 -0.9972 -1.2262
  797SOL     OW 2531   0.546   3.800   1.961 -0.2519  0.5316  0.1317
  797SOL    HW1 2532   0.493   3.805   1.881  0.2970  1.1391 -0.1968
  797SOL    HW2 2533   0.560   3.891   1.986  0.7145  0.3803  0.1650
  798SOL     OW 2534   0.429   3.394   0.960 -0.1684  0.7919  0.3254
  798SOL    HW1 2535   0.517   3.360   0.975  0.9725  3.5845  0.6117
  798SOL    HW2 2536   0.389   3.396   1.047 -0.1636  0.4309  0.3385
  799SOL     OW 2537   0.854   2.102   0.154 -0.1517  0.0348  0.0716
  799SOL    HW1 2538   0.867   2.167   0.085 -0.5799  0.6179  0.5308
  799SOL    HW2 2539   0.868   2.018   0.110  1.3059  0.4606 -0.3138
  800SOL     OW 2540   1.500   0.483   0.362  0.2099  0.1317  0.0648
  800SOL    HW1 2541   1.588   0.469   0.398  0.9017  3.8401  0.2635
  800SOL    HW2 2542   1.488   0.412   0.299  4.0264  0.2515 -1.0670
  801SOL     OW 2543   0.474   1.141   3.131  0.0234 -0.5758  0.1758
  801SOL    HW1 2544   0.432   1.197   3.196  1.0258  1.1850 -0.6083
  801SOL    HW2 2545   0.565   1.171   3.130  0.5538 -2.1129 -0.4408
  802SOL     OW 2546   3.064   2.813   3.359 -0.1752  0.2046 -0.1921
  802SOL    HW1 2547   3.159   2.802   3.360 -0.2164 -0.3789 -1.0912
  802SOL    HW2 2548   3.031   2.736   3.403 -0.3043 -1.1614 -2.4975
  803SOL     OW 2549   3.132   3.067   1.583 -0.1326  0.2351  0.2864
  803SOL    HW1 2550   3.071   3.131   1.547  1.0770  0.5614 -1.3302
  803SOL    HW2 2551   3.119   3.072   1.678  0.0020  3.0044  0.2509
  804SOL     OW 2552   1.704   1.527   0.816  0.2493  0.7227 -0.1075
  804SOL    HW1 2553   1.622   1.537   0.864 -1.1024 -0.0069 -2.1627
  804SOL    HW2 2554   1.770   1.564   0.875 -1.8142  3.4399  0.7189
  805SOL     OW 2555   2.486   1.964   3.570 -0.9640 -0.0226 -0.7090
  805SOL    HW1 2556   2.412   1.925   3.523 -1.3782 -0.2977  0.1385
  805SOL    HW2 2557   2.547   1.991   3.502 -1.3018 -0.8912 -1.3766
  806SOL     OW 2558   1.055   2.789   3.160 -0.5625 -0.2255  0.2571
  806SOL    HW1 2559   0.995   2.738   3.106  0.8472  0.6863 -2.3779
  806SOL    HW2 2560   1.102   2.724   3.213 -2.5524 -1.0877  1.0541
  807SOL     OW 2561   2.250   0.149   3.636  0.4685  0.4556  0.7292
  807SOL    HW1 2562   2.271   0.241   3.622  0.6799  0.1475 -1.2794
  807SOL    HW2 2563   2.200   0.123   3.559  1.6744 -1.4549  0.5015
  808SOL     OW 2564   1.397   2.194  -0.012 -0.6343  0.5452  0.9671
  808SOL    HW1 2565   1.462   2.167   0.053 -0.7683 -1.3427  0.3751
  808SOL    HW2 2566   1.313   2.186   0.034 -0.6820 -0.1963  0.7610
  809SOL     OW 2567   1.646   2.217   2.781 -0.8667  0.1802 -0.1755
  809SOL    HW1 2568   1.710   2.183   2.844 -0.0171  1.1831 -0.4732
  809SOL    HW2 2569   1.567   2.164   2.797 -0.0393 -0.9558  0.3286
  810SOL     OW 2570   0.618   0.514   2.813  0.4658  0.0114 -0.2854
  810SOL    HW1 2571   0.539   0.564   2.794  0.1247 -0.2998  0.2993
  810SOL    HW2 2572   0.597   0.465   2.893  1.4016  0.2808  0.1428
  811SOL     OW 2573   2.276   2.655   0.776  0.1222  0.0154  0.2352
  811SOL    HW1 2574   2.311   2.708   0.847  0.9281 -0.5168  0.2428
  811SOL    HW2 2575   2.346   2.651   0.711  0.4570 -1.8402  0.6677
  812SOL     OW 2576   1.357   2.883   3.558 -0.4646  0.1331 -0.3843
  812SOL    HW1 2577   1.418   2.900   3.487 -0.1944  0.0517 -0.1751
  812SOL    HW2 2578   1.308   2.964   3.569 -0.3186  0.2330 -0.4811
  813SOL     OW 2579   2.990   0.932   3.469 -0.4108 -0.1056 -0.2014
  813SOL    HW1 2580   3.066   0.985   3.493 -0.1552 -0.5803  0.0635
  813SOL    HW2 2581   2.916   0.992   3.475 -0.0510  0.3780 -0.5237
  814SOL     OW 2582   3.486   3.697   1.049  0.4183 -0.1069 -0.4241
  814SOL    HW1 2583   3.504   3.692   0.956  0.8187 -0.4186 -0.3314
  814SOL    HW2 2584   3.398   3.659   1.059  0.8725 -1.2187 -0.5230
  815SOL     OW 2585   2.846   0.217   3.568 -0.6798 -0.3904  0.2700
  815SOL    HW1 2586   2.759   0.178   3.564 -0.0925 -1.6143 -1.7832
  815SOL    HW2 2587   2.833   0.308   3.543 -1.4768 -0.3185  0.8985
  816SOL     OW 2588   1.941   0.532   2.846 -0.9174 -0.5626 -0.2808
  816SOL    HW1 2589   1.956   0.587   2.770  3.3839 -1.6144 -0.3991
  816SOL    HW2 2590   1.918   0.447   2.810 -0.1478 -0.7372 -0.3597
  817SOL     OW 2591   3.584   1.838   3.854  0.1203  0.5190 -0.1185
  817SOL    HW1 2592   3.594   1.815   3.762 -1.0535  0.4920 -0.2493
  817SOL    HW2 2593   3.495   1.872   3.861 -0.6386 -1.5832  1.4388
  818SOL     OW 2594   1.504   1.358   3.104  0.0685 -0.3439 -0.1404
  818SOL    HW1 2595   1.581   1.369   3.160  0.4574  0.7921 -0.8711
  818SOL    HW2 2596   1.538   1.324   3.022 -0.2375 -0.0568 -0.3894
  819SOL     OW 2597   1.827   2.793   0.146  0.2318 -0.4021 -0.0579
  819SOL    HW1 2598   1.746   2.805   0.195  1.4965  0.8258  1.8294
  819SOL    HW2 2599   1.879   2.871   0.165  1.7072 -0.9490 -1.5784
  820SOL     OW 2600   3.395   1.916   1.908 -0.3164 -0.1073  0.4331
  820SOL    HW1 2601   3.350   1.974   1.969 -1.2958 -0.7693  0.3700
  820SOL    HW2 2602   3.397   1.831   1.953  0.7627 -0.1308  0.3742
  821SOL     OW 2603   0.165   0.460   0.230  0.3052 -0.0276 -0.4036
  821SOL    HW1 2604   0.217   0.381   0.245  0.7539  0.6154  1.9729
  821SOL    HW2 2605   0.111   0.440   0.154 -0.8608 -3.3273  1.0833
  822SOL     OW 2606   3.181   1.910   1.334  0.1085  0.4738  0.3297
  822SOL    HW1 2607   3.244   1.976   1.304 -0.2062  0.6432  0.0377
  822SOL    HW2 2608   3.213   1.884   1.420  1.2489 -0.2931 -0.2941
  823SOL     OW 2609   0.602   3.183   3.312 -0.2781 -0.2867  0.4134
  823SOL    HW1 2610   0.597   3.180   3.217  1.4436  3.4609  0.0224
  823SOL    HW2 2611   0.685   3.139   3.333  0.0519  0.1300  0.0067
  824SOL     OW 2612   1.927   2.076   1.475 -0.1434 -0.1161 -0.2467
  824SOL    HW1 2613   1.844   2.043   1.508  0.2438 -0.2415  0.6554
  824SOL    HW2 2614   1.969   2.115   1.552  0.2532  0.7380 -0.8734
  825SOL     OW 2615   0.097   2.064   3.685  0.0364  0.0489  0.5692
  825SOL    HW1 2616   0.163   2.121   3.724  0.2155 -0.3907  0.9170
  825SOL    HW2 2617   0.087   2.097   3.596  0.2508  0.5261  0.7187
  826SOL     OW 2618   0.574   2.620   0.817 -0.0348  0.5993  0.2887
  826SOL    HW1 2619   0.594   2.656   0.903 -1.3335  0.5664  0.6329
  826SOL    HW2 2620   0.600   2.528   0.822  1.3482  0.9545  0.1012
  827SOL     OW 2621   1.658   3.403   0.531  0.3597  0.2880  0.4080
  827SOL    HW1 2622   1.683   3.426   0.620  1.9709 -2.6583  0.8570
  827SOL    HW2 2623   1.697   3.317   0.517 -1.6179 -0.2912 -2.4242
  828SOL     OW 2624   1.362   2.486   2.947 -0.4004 -0.0250  0.0336
  828SOL    HW1 2625   1.332   2.462   3.035  1.0771  0.3700  0.6878
  828SOL    HW2 2626   1.319   2.569   2.929 -1.4213 -0.5450 -0.0203
  829SOL     OW 2627   1.879   0.657   2.559  0.2708  0.4367  0.1126
  829SOL    HW1 2628   1.916   0.571   2.541  1.1385  0.2122  2.6013
  829SOL    HW2 2629   1.942   0.719   2.522  0.6040  0.0186 -0.0251
  830SOL     OW 2630   1.392   3.173   2.903  0.4089  0.2451  0.2627
  830SOL    HW1 2631   1.433   3.249   2.862 -1.5342  0.8454 -0.6658
  830SOL    HW2 2632   1.324   3.210   2.961 -0.2806 -0.7572  0.1187
  831SOL     OW 2633   2.041   3.548   2.686 -0.6012 -0.0824  0.0875
  831SOL    HW1 2634   2.040   3.470   2.631  0.3194 -0.9073  1.1957
  831SOL    HW2 2635   2.110   3.603   2.648 -1.3740  0.2833 -0.8025
  832SOL     OW 2636   0.837   0.701   1.854  0.0389 -0.1505  0.4864
  832SOL    HW1 2637   0.911   0.672   1.801 -0.4553 -1.4253  0.4723
  832SOL    HW2 2638   0.760   0.670   1.806 -0.4435 -0.4168  1.4231
  833SOL     OW 2639   3.161   0.965   0.950  0.0675 -0.0072 -0.4618
  833SOL    HW1 2640   3.216   0.966   0.872 -0.0063 -1.0453 -0.5410
  833SOL    HW2 2641   3.101   1.040   0.938 -0.5851 -0.7130 -1.8823
  834SOL     OW 2642   2.266   2.376   0.033  0.1022 -0.3982 -0.5430
  834SOL    HW1 2643   2.324   2.302   0.013 -0.5339 -0.3792 -2.7198
  834SOL    HW2 2644   2.312   2.423   0.102  1.1034 -2.1550  0.0742
  835SOL     OW 2645   1.156   1.093   1.214 -0.0861  0.3449  0.5088
  835SOL    HW1 2646   1.159   1.011   1.166 -0.7780 -0.2450  1.4437
  835SOL    HW2 2647   1.177   1.069   1.304  1.7805  1.5095  0.4413
  836SOL     OW 2648   3.333   1.311   3.352  0.2795  0.4039 -0.1114
  836SOL    HW1 2649   3.272   1.381   3.331  0.3023  0.8045  1.0905
  836SOL    HW2 2650   3.406   1.323   3.292  0.3186  1.4637  0.1290
  837SOL     OW 2651   3.550   0.706   1.086 -0.3230  0.5274 -0.3875
  837SOL    HW1 2652   3.501   0.766   1.142 -1.3429  0.6237 -1.3437
  837SOL    HW2 2653   3.639   0.707   1.122 -0.6462  1.5495  0.4466
  838SOL     OW 2654   0.105   0.789   2.903 -0.4166  0.5202 -0.1292
  838SOL    HW1 2655   0.138   0.819   2.818  1.2693  0.7757  0.5714
  838SOL    HW2 2656   0.178   0.804   2.964 -1.2469 -0.5291  1.1918
  839SOL     OW 2657   2.980   2.720   3.087  0.1457  0.3279  0.0178
  839SOL    HW1 2658   2.988   2.706   3.181  2.4787  0.9254 -0.0426
  839SOL    HW2 2659   3.003   2.812   3.074 -0.7006  0.4054 -1.0845
  840SOL     OW 2660   1.049   3.598   1.435 -0.2296  0.3058  0.1040
  840SOL    HW1 2661   1.070   3.511   1.401 -2.4711  0.0293 -0.7237
  840SOL    HW2 2662   1.086   3.659   1.371 -1.4277 -0.1411 -1.0482
  841SOL     OW 2663   2.959   3.614   0.449  0.3202  0.3168 -0.8818
  841SOL    HW1 2664   3.051   3.599   0.474 -0.1223 -1.2665 -0.1172
  841SOL    HW2 2665   2.965   3.669   0.370  1.8863  1.0949 -0.2839
  842SOL     OW 2666   1.292   0.374   0.765  0.3247 -0.3030 -0.3508
  842SOL    HW1 2667   1.313   0.430   0.690  2.9435 -2.5260 -1.4627
  842SOL    HW2 2668   1.216   0.324   0.736 -0.2370  0.5991 -0.4811
  843SOL     OW 2669   2.809   2.806   0.864  0.2660  0.1419  0.2488
  843SOL    HW1 2670   2.785   2.761   0.783  1.0004  1.2583 -0.6159
  843SOL    HW2 2671   2.879   2.866   0.838  0.4438  0.5900  1.6982
  844SOL     OW 2672   2.335   2.737   0.091 -0.0016 -0.0151 -0.6537
  844SOL    HW1 2673   2.300   2.692   0.014  0.8809  0.8710 -1.6010
  844SOL    HW2 2674   2.258   2.763   0.141 -0.5968 -0.4304 -1.3376
  845SOL     OW 2675   2.045   1.764   3.288  0.1016 -0.1549 -0.6914
  845SOL    HW1 2676   2.031   1.805   3.203  1.8431 -1.2968 -1.5956
  845SOL    HW2 2677   2.042   1.670   3.270  2.5197 -0.4515  0.0567
  846SOL     OW 2678   2.285   1.051   0.314 -0.0095  0.1865  0.6173
  846SOL    HW1 2679   2.354   1.111   0.286 -0.1614 -0.2575 -0.8026
  846SOL    HW2 2680   2.204   1.095   0.287 -0.1632 -0.2385  0.3853
  847SOL     OW 2681   3.238   2.334   1.706  0.4730 -0.4459  0.0146
  847SOL    HW1 2682   3.158   2.348   1.655  0.5324 -0.9129 -0.2046
  847SOL    HW2 2683   3.264   2.244   1.687  0.8087 -0.4393  0.4302
  848SOL     OW 2684   1.339   1.418   1.249  0.2113 -0.0084 -0.4031
  848SOL    HW1 2685   1.324   1.506   1.216  1.4415  0.5183  0.3446
  848SOL    HW2 2686   1.255   1.391   1.286  0.1039  1.3298  0.3911
  849SOL     OW 2687   3.210   2.590   2.940  0.1356 -0.6803  0.3367
  849SOL    HW1 2688   3.140   2.654   2.952  0.9217  0.1019  0.9645
  849SOL    HW2 2689   3.281   2.640   2.899  0.1068 -1.6161 -0.9042
  850SOL     OW 2690   2.604   2.130   0.405 -0.0971 -0.4683  0.0604
  850SOL    HW1 2691   2.598   2.150   0.498  1.1535  2.0272 -0.3033
  850SOL    HW2 2692   2.698   2.120   0.389 -0.2193  0.0307 -1.0770
  851SOL     OW 2693   1.261   0.895   0.829  0.6513 -0.4776 -0.3105
  851SOL    HW1 2694   1.348   0.933   0.843  0.2776  0.4886 -0.5467
  851SOL    HW2 2695   1.252   0.890   0.734  0.2009  0.0492 -0.3035
  852SOL     OW 2696   2.903   3.810   3.185 -0.4272 -0.2062 -0.1851
  852SOL    HW1 2697   2.826   3.842   3.231 -0.3975 -0.6374  0.1809
  852SOL    HW2 2698   2.970   3.877   3.199  0.2926 -1.3197  2.3763
  853SOL     OW 2699   1.550   2.910   2.594  0.9622  0.1663  0.1003
  853SOL    HW1 2700   1.609   2.836   2.612 -0.3847 -1.5108 -1.7885
  853SOL    HW2 2701   1.469   2.888   2.639  1.5525  2.2759  2.3781
  854SOL     OW 2702   2.563   3.464   1.543 -0.0912  1.2296 -0.1270
  854SOL    HW1 2703   2.529   3.512   1.467 -1.0431 -1.7123 -1.7286
  854SOL    HW2 2704   2.488   3.414   1.575  1.3990 -1.3790 -0.4043
  855SOL     OW 2705   0.019   3.606   3.382 -0.1969 -0.8916  0.5428
  855SOL    HW1 2706   0.111   3.590   3.364 -0.1787  0.1944 -0.4912
  855SOL    HW2 2707   0.019   3.658   3.462  0.1417 -0.3434  0.1943
  856SOL     OW 2708   3.374   3.201   2.061  0.3779  0.4661  0.1657
  856SOL    HW1 2709   3.447   3.143   2.039 -0.0994  0.0608 -0.3858
  856SOL    HW2 2710   3.321   3.152   2.123 -0.0177  0.3162 -0.2879
  857SOL     OW 2711   2.046   3.179   1.345 -0.2986 -0.8645 -0.0479
  857SOL    HW1 2712   2.031   3.261   1.299  0.1931 -2.0249 -2.4285
  857SOL    HW2 2713   1.968   3.166   1.398 -0.9107  0.5480 -0.5721
  858SOL     OW 2714   1.016   3.110   2.302  0.1296 -0.0323 -0.0214
  858SOL    HW1 2715   1.106   3.091   2.327  0.0901 -0.5505 -0.2453
  858SOL    HW2 2716   0.981   3.164   2.373  0.2340 -0.8753  0.6932
  859SOL     OW 2717   2.480   0.461   0.825  0.0649 -0.5877  0.2168
  859SOL    HW1 2718   2.420   0.516   0.774 -1.9906 -1.7243  1.2865
  859SOL    HW2 2719   2.533   0.524   0.874  1.1410  0.4967 -2.1669
  860SOL     OW 2720   3.444   0.591   2.291 -0.2636 -0.0484  0.1753
  860SOL    HW1 2721   3.382   0.519   2.280  0.3049 -0.6479  0.7501
  860SOL    HW2 2722   3.390   0.667   2.312 -0.7591 -0.7705  1.6720
  861SOL     OW 2723   0.876   0.324   3.525  0.5013 -0.7030 -0.5895
  861SOL    HW1 2724   0.930   0.385   3.475 -1.5010  0.6881 -1.1633
  861SOL    HW2 2725   0.886   0.351   3.616  0.1789  0.0214 -0.7689
  862SOL     OW 2726   1.241   0.560   0.957 -0.0546  0.2187 -0.0122
  862SOL    HW1 2727   1.261   0.513   0.876  2.4075  0.1994  0.5287
  862SOL    HW2 2728   1.192   0.497   1.011 -0.7472 -0.1366 -1.0297
  863SOL     OW 2729   0.944   2.044   3.142  0.9679  0.1253  0.0627
  863SOL    HW1 2730   1.003   2.084   3.206  0.8066  0.4728 -0.0074
  863SOL    HW2 2731   0.960   1.950   3.151  1.4745  0.2132  0.1007
  864SOL     OW 2732   1.354   1.858   1.057  0.5723  0.3651 -0.6811
  864SOL    HW1 2733   1.259   1.861   1.065  0.4216 -1.1932 -1.4034
  864SOL    HW2 2734   1.387   1.911   1.130 -0.8364  0.0741  0.2018
  865SOL     OW 2735   0.291   1.975   0.886  0.7646 -0.2200 -0.7027
  865SOL    HW1 2736   0.317   1.966   0.978 -0.8287 -0.1651 -0.2164
  865SOL    HW2 2737   0.305   1.888   0.848  1.3598 -0.2609 -0.4049
  866SOL     OW 2738   2.987   3.427   2.738  0.2348 -0.7516 -0.0228
  866SOL    HW1 2739   2.928   3.352   2.732 -0.8591  0.0501  0.4863
  866SOL    HW2 2740   2.939   3.491   2.790  1.6910 -0.2029  0.6971
  867SOL     OW 2741   3.548   2.941   2.271 -0.0214 -0.0579  0.1562
  867SOL    HW1 2742   3.590   2.914   2.353  1.7187 -1.0136 -0.9875
  867SOL    HW2 2743   3.462   2.972   2.298 -0.2486 -2.1270  2.1629
  868SOL     OW 2744   0.468   1.978   2.999 -0.0933  0.0917  0.1333
  868SOL    HW1 2745   0.472   1.926   2.919  0.7805 -1.8616  1.3895
  868SOL    HW2 2746   0.543   2.037   2.994  0.0128 -0.0889 -0.4157
  869SOL     OW 2747   2.547   0.011   1.865 -0.1842 -0.5844  0.3152
  869SOL    HW1 2748   2.526   0.050   1.949  0.9748 -1.0648  0.8541
  869SOL    HW2 2749   2.643   0.001   1.866  0.1629  1.4837 -1.9624
  870SOL     OW 2750   0.844   0.085   0.272 -0.0059 -0.7665 -1.0945
  870SOL    HW1 2751   0.751   0.110   0.267  0.1285  0.0490  0.0442
  870SOL    HW2 2752   0.861   0.040   0.189 -1.6632 -1.7953 -0.9175
  871SOL     OW 2753   0.738   2.347   0.870 -0.3486 -0.0222  0.0456
  871SOL    HW1 2754   0.783   2.358   0.786 -1.9794  0.1513 -0.8495
  871SOL    HW2 2755   0.800   2.381   0.935  1.3373 -1.0151 -0.9537
  872SOL     OW 2756   3.190   0.709   2.329  0.3256  0.4384 -0.2210
  872SOL    HW1 2757   3.142   0.787   2.357 -2.5972 -0.9149 -1.0918
  872SOL    HW2 2758   3.187   0.712   2.234 -2.4811 -2.0532 -0.3679
  873SOL     OW 2759   1.166   0.534   1.753 -0.2900 -0.2614  0.1794
  873SOL    HW1 2760   1.255   0.528   1.720 -0.3818 -1.9938  0.1715
  873SOL    HW2 2761   1.160   0.623   1.789  0.8588  0.5089 -1.4060
  874SOL     OW 2762   1.297   3.353   2.343  0.3028 -0.3416  0.2618
  874SOL    HW1 2763   1.347   3.416   2.292 -2.0719 -0.0741 -1.9400
  874SOL    HW2 2764   1.206   3.370   2.320 -0.7109 -2.0601  2.5783
  875SOL     OW 2765   1.437   2.080   0.930  0.3486  0.5492 -0.1387
  875SOL    HW1 2766   1.409   1.990   0.950 -0.7551  0.9198  0.0773
  875SOL    HW2 2767   1.505   2.070   0.863 -1.1663 -0.3702 -1.6102
  876SOL     OW 2768   3.366   3.445   3.847  0.1156 -0.0513  0.6083
  876SOL    HW1 2769   3.420   3.524   3.839  1.4957 -0.9111  0.9384
  876SOL    HW2 2770   3.303   3.451   3.776  1.9291  0.0749 -1.0728
  877SOL     OW 2771   3.279   3.750   1.771 -0.0962 -0.0337 -0.1981
  877SOL    HW1 2772   3.350   3.702   1.814 -1.4175 -3.1936 -1.2263
  877SOL    HW2 2773   3.209   3.753   1.837 -0.7040 -1.3690 -0.7356
  878SOL     OW 2774   3.203   2.668   0.316  0.6816  0.1127  0.5730
  878SOL    HW1 2775   3.276   2.687   0.257 -0.4882  0.8641 -0.6912
  878SOL    HW2 2776   3.238   2.606   0.379  1.7487 -1.4630 -1.4674
  879SOL     OW 2777   0.409   3.306   2.245 -0.2325  0.4273 -0.0996
  879SOL    HW1 2778   0.494   3.324   2.284  0.9672  0.5806 -2.5590
  879SOL    HW2 2779   0.366   3.391   2.239 -1.1254  0.1967  2.2201
  880SOL     OW 2780   1.014   2.586   0.500 -0.0129  0.1580 -0.0120
  880SOL    HW1 2781   1.057   2.588   0.414  1.0939  2.2288  0.5221
  880SOL    HW2 2782   0.923   2.607   0.481  0.4299  1.6761 -0.6131
  881SOL     OW 2783   0.103   3.445   2.673 -0.9035  0.3985  0.1563
  881SOL    HW1 2784   0.077   3.534   2.651 -0.4066  1.1484  2.3827
  881SOL    HW2 2785   0.088   3.437   2.767  1.0646 -1.1535  0.4131
  882SOL     OW 2786   3.305   0.206   0.049  0.5224  0.2723  0.7195
  882SOL    HW1 2787   3.330   0.282   0.101 -0.7674  0.9955  0.3342
  882SOL    HW2 2788   3.384   0.182   0.000  0.9710  1.2924  0.9372
  883SOL     OW 2789   2.300   3.461   1.731  0.3294 -0.1515  0.2698
  883SOL    HW1 2790   2.323   3.391   1.669  0.6364  1.4091 -1.4714
  883SOL    HW2 2791   2.253   3.525   1.678 -1.3709  0.2597  2.1615
  884SOL     OW 2792   1.390   0.293   0.162  0.3682  0.4942  0.1283
  884SOL    HW1 2793   1.316   0.232   0.166  2.3141 -2.1896 -1.2984
  884SOL    HW2 2794   1.384   0.333   0.076 -0.2696  1.5492  0.6368
  885SOL     OW 2795   2.841   3.805   1.827  1.0624  0.1135  0.2214
  885SOL    HW1 2796   2.816   3.715   1.807  0.4866 -0.0028  1.3679
  885SOL    HW2 2797   2.865   3.843   1.743  0.5158 -0.8691 -0.3938
  886SOL     OW 2798   0.100   3.185   1.541 -0.5247  0.3501  0.4539
  886SOL    HW1 2799   0.020   3.213   1.585 -1.7174 -1.7542 -0.2220
  886SOL    HW2 2800   0.085   3.092   1.521  2.3567 -0.2945  0.8745
  887SOL     OW 2801   0.265   2.903   0.913  0.3486 -0.0660 -0.5885
  887SOL    HW1 2802   0.339   2.893   0.973 -0.1246 -0.6646 -0.0872
  887SOL    HW2 2803   0.247   2.997   0.913  0.0610 -0.1066  0.5817
  888SOL     OW 2804   2.968   1.177   0.906  0.2204 -0.8081 -0.1772
  888SOL    HW1 2805   3.030   1.248   0.892  0.1227 -0.6354  0.2350
  888SOL    HW2 2806   2.934   1.156   0.819  0.4493 -0.5331 -0.3336
  889SOL     OW 2807   2.704   0.267   2.558  0.0456 -0.2605 -0.0186
  889SOL    HW1 2808   2.645   0.207   2.605 -2.4726  1.6892 -0.4811
  889SOL    HW2 2809   2.768   0.294   2.624  0.7399 -2.7224  0.4098
  890SOL     OW 2810   1.721   3.752   3.435  0.2479 -0.1687 -0.1487
  890SOL    HW1 2811   1.656   3.819   3.458  0.5040 -0.6356  2.2044
  890SOL    HW2 2812   1.670   3.676   3.409 -0.0640  0.4848 -1.5119
  891SOL     OW 2813   2.288   3.094   1.223 -0.3545  0.1801  0.4879
  891SOL    HW1 2814   2.213   3.126   1.272 -1.5102 -1.1868 -0.3108
  891SOL    HW2 2815   2.279   3.132   1.136  0.4255  0.7744  0.6537
  892SOL     OW 2816   0.452   0.694   2.523  0.1131  0.5070  0.9438
  892SOL    HW1 2817   0.377   0.735   2.481 -0.6992 -0.9510  0.9024
  892SOL    HW2 2818   0.528   0.733   2.480 -0.6203  1.6243  0.6166
  893SOL     OW 2819   3.368   2.521   3.733  0.5126  0.4183 -0.1709
  893SOL    HW1 2820   3.391   2.601   3.685  1.5033  0.2628  0.0289
  893SOL    HW2 2821   3.277   2.503   3.708 -0.7605  3.1617  1.9103
  894SOL     OW 2822   2.776   2.046   2.148  0.4163 -0.1819  0.4175
  894SOL    HW1 2823   2.839   2.096   2.095  1.1039 -1.3648  0.0826
  894SOL    HW2 2824   2.691   2.072   2.115  0.7964  0.0524 -0.4010
  895SOL     OW 2825   2.820   1.231   1.157  0.4115 -0.4924  0.2608
  895SOL    HW1 2826   2.869   1.217   1.077  1.7368 -0.0009  0.9592
  895SOL    HW2 2827   2.840   1.321   1.182 -0.0866 -0.5974  1.0717
  896SOL     OW 2828   1.000   1.086   3.462 -0.4345 -0.0274  0.1571
  896SOL    HW1 2829   1.084   1.123   3.488 -0.4326 -1.5248  2.6463
  896SOL    HW2 2830   0.997   1.096   3.367  1.3834  2.3787  0.2745
  897SOL     OW 2831   1.500   0.291   1.602  0.3647 -0.1334  0.4336
  897SOL    HW1 2832   1.511   0.226   1.532  1.8250 -0.2966  0.7851
  897SOL    HW2 2833   1.510   0.240   1.683  0.9187  0.4184  0.7197
  898SOL     OW 2834   0.338   3.807   2.735  0.6904 -0.3479 -0.0583
  898SOL    HW1 2835   0.289   3.825   2.655  1.3061 -0.7017 -0.5262
  898SOL    HW2 2836   0.367   3.893   2.766 -2.0384  0.1293  1.4456
  899SOL     OW 2837   1.506   0.078   3.566 -0.0632  0.0460  0.1506
  899SOL    HW1 2838   1.484   0.127   3.487  2.0583  1.0978  0.1402
  899SOL    HW2 2839   1.428   0.027   3.585 -1.5215  1.6272 -1.2272
  900SOL     OW 2840   3.644   0.494   2.880 -0.1727  0.4562  0.0455
  900SOL    HW1 2841   3.556   0.486   2.844 -0.3080 -0.9222  0.5979
  900SOL    HW2 2842   3.638   0.565   2.944 -0.6092  1.0709 -0.6673
  901SOL     OW 2843   2.468   2.181   2.368  0.2032 -0.4972  0.0283
  901SOL    HW1 2844   2.554   2.216   2.392  1.0054 -2.5366  0.3738
  901SOL    HW2 2845   2.421   2.176   2.451  0.1133 -0.3156 -0.0110
  902SOL     OW 2846   0.929   2.072   3.675 -0.9652 -0.2932  0.0617
  902SOL    HW1 2847   0.919   2.149   3.619 -1.9879  0.3062  1.0343
  902SOL    HW2 2848   0.857   2.015   3.650 -0.8028 -0.4897  0.0403
  903SOL     OW 2849   3.319   1.444   1.971 -0.0138  0.3119 -0.1778
  903SOL    HW1 2850   3.263   1.374   1.937  1.3983  0.1243 -2.2669
  903SOL    HW2 2851   3.283   1.524   1.933 -0.6570  0.5748  0.9305
  904SOL     OW 2852   0.875   3.583   0.413 -0.0793 -0.0826 -0.0065
  904SOL    HW1 2853   0.865   3.538   0.497 -0.2369  0.5170  0.3056
  904SOL    HW2 2854   0.787   3.615   0.394 -0.3516 -1.4061 -1.0981
  905SOL     OW 2855   1.629   1.210   2.887 -0.1717 -0.5427 -0.2547
  905SOL    HW1 2856   1.670   1.176   2.808  3.3273 -0.9145  1.5560
  905SOL    HW2 2857   1.631   1.137   2.949  0.0007  0.5785  1.1229
  906SOL     OW 2858   0.990   2.448   2.115 -0.0363  0.2146  0.0361
  906SOL    HW1 2859   1.051   2.383   2.147  0.5547  0.0495 -1.3289
  906SOL    HW2 2860   1.004   2.525   2.171 -0.9131 -0.8696  1.8109
  907SOL     OW 2861   1.102   1.758   3.198 -0.4368 -0.0923  0.1338
  907SOL    HW1 2862   1.148   1.681   3.232 -2.6035 -1.1124  0.9448
  907SOL    HW2 2863   1.032   1.774   3.261 -2.2180  0.3561 -1.8235
  908SOL     OW 2864   1.567   0.997   2.571  0.1080 -0.6655  0.2422
  908SOL    HW1 2865   1.631   0.975   2.503 -1.0579 -0.2730 -1.0493
  908SOL    HW2 2866   1.507   0.923   2.571 -0.9659  0.1590 -0.5401
  909SOL     OW 2867   1.193   0.851   1.098  0.5659 -0.3410  0.3466
  909SOL    HW1 2868   1.185   0.884   1.008  0.9481 -0.7789  0.1516
  909SOL    HW2 2869   1.175   0.757   1.091  1.5057 -0.5460  0.5849
  910SOL     OW 2870   0.434   3.145   2.771 -0.0320  0.3679 -0.1449
  910SOL    HW1 2871   0.343   3.153   2.745 -0.2629  1.6758  0.9638
  910SOL    HW2 2872   0.477   3.220   2.729  0.7705 -0.8053 -1.5092
  911SOL     OW 2873   3.387   3.398   2.287  0.0904  0.2934  0.2447
  911SOL    HW1 2874   3.343   3.362   2.211 -2.1412  2.5206  0.3548
  911SOL    HW2 2875   3.377   3.331   2.355  0.1286 -0.7577 -0.7545
  912SOL     OW 2876   2.747   2.874   1.115  0.6682 -0.1582 -0.4675
  912SOL    HW1 2877   2.745   2.832   1.029  0.4787  0.5571 -0.8173
  912SOL    HW2 2878   2.758   2.967   1.096 -1.3230  0.2586  0.1869
  913SOL     OW 2879   3.727   2.803   1.714  0.2208  0.0744  0.4839
  913SOL    HW1 2880   3.711   2.822   1.621  0.8597  1.4277  0.6338
  913SOL    HW2 2881   3.822   2.791   1.720  0.1673 -0.1393  0.9525
  914SOL     OW 2882   2.928   3.412   3.626  0.5964 -0.4344  0.3896
  914SOL    HW1 2883   2.905   3.332   3.675  0.0119 -0.3272  0.2998
  914SOL    HW2 2884   2.845   3.460   3.619  0.7936 -0.1784 -0.2148
  915SOL     OW 2885   0.248   1.201   2.793  0.3714 -0.3809  0.7591
  915SOL    HW1 2886   0.343   1.192   2.796  0.3567 -0.4437  2.6011
  915SOL    HW2 2887   0.233   1.292   2.770  0.7717 -1.0493 -2.6207
  916SOL     OW 2888   2.428   1.391   2.617 -0.2824  0.4237  0.2642
  916SOL    HW1 2889   2.521   1.414   2.626 -0.1603  0.0499 -0.0312
  916SOL    HW2 2890   2.387   1.471   2.583  0.0736  0.3437 -0.3741
  917SOL     OW 2891   0.563   0.352   2.999 -0.3301 -0.3611 -0.2954
  917SOL    HW1 2892   0.642   0.372   3.049  1.0958 -0.2535 -2.4654
  917SOL    HW2 2893   0.502   0.317   3.064  0.7396  1.4184  1.8041
  918SOL     OW 2894   1.144   2.252   2.225 -0.0971  0.5971 -0.4151
  918SOL    HW1 2895   1.213   2.188   2.241  0.3679  1.2934  0.4614
  918SOL    HW2 2896   1.067   2.216   2.270  0.5563  1.3466  1.3828
  919SOL     OW 2897   0.989   1.494   2.516 -0.4182  0.2864 -0.0407
  919SOL    HW1 2898   1.062   1.458   2.567  0.2112 -0.0901 -1.1766
  919SOL    HW2 2899   0.971   1.578   2.557 -1.1731 -0.7937  1.9640
  920SOL     OW 2900   3.108   3.548   0.151 -0.2135 -0.5190 -0.0836
  920SOL    HW1 2901   3.155   3.585   0.077  0.3357 -1.6777 -0.3335
  920SOL    HW2 2902   3.154   3.581   0.228 -0.2102 -0.0655 -0.2784
  921SOL     OW 2903   1.279   3.294   0.551  0.3115  0.4833 -0.2805
  921SOL    HW1 2904   1.294   3.208   0.511 -0.6086  0.4392 -0.5439
  921SOL    HW2 2905   1.367   3.326   0.571  0.6187 -1.2656  1.4634
  922SOL     OW 2906   0.520   0.673   1.157  0.1939  0.4067 -0.4601
  922SOL    HW1 2907   0.579   0.694   1.229  0.0269  1.7777 -0.6966
  922SOL    HW2 2908   0.511   0.755   1.108 -2.7302  0.5971  0.1866
  923SOL     OW 2909   0.391   0.032   2.343 -0.5475 -0.2973  0.5177
  923SOL    HW1 2910   0.324   0.092   2.375  0.0439  2.1297 -2.4102
  923SOL    HW2 2911   0.457   0.031   2.412 -0.6954  2.2651  0.7663
  924SOL     OW 2912   0.706   1.349   2.187  0.2106  0.2178  0.4513
  924SOL    HW1 2913   0.693   1.255   2.194  0.8200  0.0763 -0.2088
  924SOL    HW2 2914   0.728   1.377   2.275  1.4145 -0.4846  0.3981
  925SOL     OW 2915   1.138   0.141   1.026 -0.3009 -0.2680  0.3436
  925SOL    HW1 2916   1.227   0.112   1.007  0.7598  3.1646 -0.7265
  925SOL    HW2 2917   1.087   0.118   0.948 -0.2435 -1.7434  0.7262
  926SOL     OW 2918   0.180   2.260   2.345  0.6619 -0.0095  0.3014
  926SOL    HW1 2919   0.135   2.201   2.405  1.0951  0.0425  0.6814
  926SOL    HW2 2920   0.237   2.203   2.293 -0.4846 -0.1953 -0.8018
  927SOL     OW 2921   0.099   1.065   1.510 -0.2612  0.3223  0.0361
  927SOL    HW1 2922   0.077   1.091   1.420 -0.9157 -0.2911  0.0125
  927SOL    HW2 2923   0.057   0.980   1.521  1.8842 -0.8206  0.0781
  928SOL     OW 2924   1.033   1.075   2.272  0.1201  0.8086 -0.1841
  928SOL    HW1 2925   1.079   1.043   2.195  0.0930  0.6608 -0.1389
  928SOL    HW2 2926   1.007   0.996   2.319  0.0242  0.8962 -0.0899
  929SOL     OW 2927   0.920   1.959   0.871 -0.4918  0.0544 -0.1776
  929SOL    HW1 2928   0.855   1.909   0.921  0.3399  0.0033  0.8767
  929SOL    HW2 2929   0.933   2.039   0.921 -1.7205  1.3244 -1.7935
  930SOL     OW 2930   1.210   1.139   2.942  0.0740 -0.1569  0.4884
  930SOL    HW1 2931   1.201   1.225   2.900  0.6756  0.7923  2.1879
  930SOL    HW2 2932   1.200   1.076   2.871 -0.3930  1.3143 -0.8086
  931SOL     OW 2933   0.588   3.303   3.812  0.1090 -0.0042  0.2617
  931SOL    HW1 2934   0.563   3.311   3.905 -2.7045 -0.4239 -0.3672
  931SOL    HW2 2935   0.507   3.278   3.768  1.7758 -1.6260 -2.0963
  932SOL     OW 2936   0.266   3.514   1.782  0.2706 -0.6165 -0.4176
  932SOL    HW1 2937   0.313   3.560   1.712 -0.7569  0.9811 -0.1078
  932SOL    HW2 2938   0.310   3.543   1.862  0.0828 -0.7610 -0.2634
  933SOL     OW 2939   2.878   1.982   3.710 -0.1367 -0.2340  0.6467
  933SOL    HW1 2940   2.922   2.009   3.630 -3.3379 -2.1930 -2.0549
  933SOL    HW2 2941   2.910   1.894   3.727  0.0696 -0.0598  1.1832
  934SOL     OW 2942   3.404   0.867   0.087 -0.1908 -0.0566 -0.2903
  934SOL    HW1 2943   3.489   0.835   0.058 -0.7408 -0.1467 -1.9023
  934SOL    HW2 2944   3.360   0.790   0.123  1.0097  0.3253  2.1986
  935SOL     OW 2945   2.531   0.517   1.294 -0.0548  0.1571  0.3566
  935SOL    HW1 2946   2.530   0.611   1.275  3.1801  0.5520  1.5985
  935SOL    HW2 2947   2.502   0.510   1.385  0.6669  0.0813  0.5870
  936SOL     OW 2948   2.503   0.059   0.682 -0.2451  0.3083  0.3859
  936SOL    HW1 2949   2.587   0.016   0.667 -0.8936 -0.5762 -0.8220
  936SOL    HW2 2950   2.453   0.043   0.603 -0.6428  3.1035 -0.0340
  937SOL     OW 2951   3.103   2.297   3.793 -0.1972 -0.1175 -0.8029
  937SOL    HW1 2952   3.119   2.379   3.746 -0.2968  0.5883  0.3565
  937SOL    HW2 2953   3.189   2.258   3.804  0.1275  0.9293  0.5544
  938SOL     OW 2954   1.990   3.224   3.265 -0.3320  0.3098 -1.1088
  938SOL    HW1 2955   1.999   3.270   3.182  0.2232 -1.8789 -2.3336
  938SOL    HW2 2956   2.023   3.136   3.248 -0.3513 -0.2633  1.4029
  939SOL     OW 2957   2.058   2.728   3.498  0.4923  0.5475  0.7729
  939SOL    HW1 2958   1.996   2.709   3.568  0.5523  1.6523  1.1455
  939SOL    HW2 2959   2.095   2.813   3.521  2.3208 -0.1723  0.6899
  940SOL     OW 2960   2.685   3.357   2.278  0.1314  0.1923 -0.2883
  940SOL    HW1 2961   2.603   3.307   2.280  0.2625 -0.0234 -0.2371
  940SOL    HW2 2962   2.727   3.338   2.362  0.3810  0.0486 -0.4421
  941SOL     OW 2963   2.047   3.493   2.211 -0.2795 -0.5655 -0.7145
  941SOL    HW1 2964   2.013   3.519   2.125 -2.1085  2.3409  0.7439
  941SOL    HW2 2965   1.980   3.521   2.273  1.1594 -2.2070  1.7526
  942SOL     OW 2966   1.677   2.776   0.830 -0.3527 -0.2647  0.1934
  942SOL    HW1 2967   1.650   2.809   0.745  1.5684  1.8465  0.3056
  942SOL    HW2 2968   1.769   2.803   0.838 -0.4270 -0.5355  2.8555
  943SOL     OW 2969   1.791   1.634   1.517 -0.1799 -0.0145 -0.1891
  943SOL    HW1 2970   1.707   1.610   1.478 -0.9698  0.3518  1.2312
  943SOL    HW2 2971   1.783   1.728   1.535 -0.0480 -0.2619  1.2750
  944SOL     OW 2972   0.180   0.164   0.356  0.6349 -0.0905  0.0860
  944SOL    HW1 2973   0.171   0.069   0.361  2.3072 -0.2115  1.6938
  944SOL    HW2 2974   0.256   0.184   0.411 -0.7104  2.3478  1.2021
  945SOL     OW 2975   2.774   2.440   0.314  0.5360 -0.2078  0.5316
  945SOL    HW1 2976   2.847   2.408   0.368  0.0943 -2.5877 -0.1377
  945SOL    HW2 2977   2.815   2.498   0.250  1.6231 -0.3044  1.1145
  946SOL     OW 2978   3.344   2.907   1.012 -0.1277 -0.0198  0.0325
  946SOL    HW1 2979   3.438   2.890   1.018 -0.2527 -0.8182 -0.1722
  946SOL    HW2 2980   3.335   3.000   1.030  0.7839  0.2326 -0.7836
  947SOL     OW 2981   3.591   3.567   2.212 -0.1040 -0.2065 -0.3537
  947SOL    HW1 2982   3.652   3.502   2.246 -0.1012  0.0033  0.0412
  947SOL    HW2 2983   3.507   3.522   2.207  0.8213 -1.9782 -5.1110
  948SOL     OW 2984   0.074   3.621   2.372  1.3897  0.0607 -0.2099
  948SOL    HW1 2985   0.026   3.653   2.296 -0.9288 -0.5045  0.9118
  948SOL    HW2 2986   0.052   3.682   2.442  0.6715 -1.2915  0.8073
  949SOL     OW 2987   1.851   2.081   2.198 -0.2397 -0.1731 -0.3649
  949SOL    HW1 2988   1.759   2.087   2.174 -1.1439 -0.5427  2.5961
  949SOL    HW2 2989   1.853   2.017   2.269  2.3227 -0.1876 -0.3617
  950SOL     OW 2990   1.903   2.904   0.534  0.0581  0.1963 -0.3154
  950SOL    HW1 2991   1.923   2.910   0.628  0.0071  0.4061 -0.3155
  950SOL    HW2 2992   1.920   2.813   0.511 -0.9315 -0.1228  0.1299
  951SOL     OW 2993   1.873   1.148   0.615  0.3717 -0.5256 -0.2919
  951SOL    HW1 2994   1.814   1.075   0.634  0.5425 -0.4801  0.4409
  951SOL    HW2 2995   1.956   1.123   0.656  0.8105 -0.5064 -1.1607
  952SOL     OW 2996   2.916   0.329   1.971  0.2799  0.2377  0.3457
  952SOL    HW1 2997   2.930   0.405   2.027 -2.6564  1.0481  0.1097
  952SOL    HW2 2998   2.874   0.363   1.893  2.5548 -1.1444 -1.6214
  953SOL     OW 2999   3.165   1.494   2.193 -0.3748 -0.7823  0.0973
  953SOL    HW1 3000   3.195   1.477   2.104  1.2290  1.4779  0.1042
  953SOL    HW2 3001   3.236   1.460   2.248  0.8547  1.7695  0.2456
  954SOL     OW 3002   2.956   1.211   0.263 -0.3234 -0.2358 -0.1609
  954SOL    HW1 3003   3.007   1.147   0.313  0.4205  0.4360 -0.0444
  954SOL    HW2 3004   2.933   1.164   0.182  1.0353 -0.3668 -0.5097
  955SOL     OW 3005   2.679   3.184   1.422 -0.8602 -0.0636  0.4830
  955SOL    HW1 3006   2.711   3.270   1.450 -0.5764  0.1366 -0.4112
  955SOL    HW2 3007   2.742   3.122   1.459  0.4084  0.3071 -0.9489
  956SOL     OW 3008   0.729   3.858   1.017 -0.5394  0.2409  0.4052
  956SOL    HW1 3009   0.678   3.779   1.036  1.2677 -1.6375 -1.8890
  956SOL    HW2 3010   0.697   3.888   0.933  1.3784 -0.4643 -0.6582
  957SOL     OW 3011   3.289   2.974   0.518  0.5148  0.3741  0.2111
  957SOL    HW1 3012   3.229   2.935   0.455  2.3613  1.2324 -2.2340
  957SOL    HW2 3013   3.301   2.907   0.585 -3.6249  0.4349  1.2781
  958SOL     OW 3014   2.980   0.658   1.588 -0.5611  0.2417 -0.4378
  958SOL    HW1 3015   2.914   0.678   1.522 -0.7161 -1.2032 -0.7658
  958SOL    HW2 3016   3.057   0.631   1.539 -1.3418 -2.9470 -0.1468
  959SOL     OW 3017   2.089   0.340   1.447  0.6922  0.6231  0.1481
  959SOL    HW1 3018   2.059   0.354   1.536  0.6023 -0.5629  0.3184
  959SOL    HW2 3019   2.027   0.388   1.392 -0.0402  0.2588  0.6470
  960SOL     OW 3020   0.931   2.922   1.125 -0.0582 -0.1632 -0.0738
  960SOL    HW1 3021   0.887   3.003   1.099  0.2267 -0.1771 -0.5974
  960SOL    HW2 3022   0.962   2.940   1.214  0.6928  0.5918 -0.4758
  961SOL     OW 3023   1.014   1.607   1.862 -1.0731  0.4246  0.2409
  961SOL    HW1 3024   0.980   1.554   1.790 -1.4417  0.7041  0.2023
  961SOL    HW2 3025   1.048   1.686   1.819 -1.1479  0.5210  0.3592
  962SOL     OW 3026   2.452   1.547   2.195  0.3489  0.5326  0.5403
  962SOL    HW1 3027   2.459   1.638   2.166 -2.5838  0.0687 -2.3435
  962SOL    HW2 3028   2.382   1.548   2.260  0.4134  0.3518  0.6129
  963SOL     OW 3029   1.833   3.198   0.516  0.6924  0.1032  0.9540
  963SOL    HW1 3030   1.901   3.207   0.449 -0.7863 -0.3193 -0.6776
  963SOL    HW2 3031   1.832   3.105   0.538 -0.0148 -0.0739  0.2194
  964SOL     OW 3032   3.065   0.268   1.680 -0.0021  0.4368 -0.0230
  964SOL    HW1 3033   3.049   0.258   1.774  1.7013  1.0789  0.3597
  964SOL    HW2 3034   2.978   0.284   1.643 -0.8628 -0.9499  1.2637
  965SOL     OW 3035   0.831   0.457   3.105  0.6883 -0.7732  0.5248
  965SOL    HW1 3036   0.797   0.546   3.100  1.8116 -0.3725 -0.8550
  965SOL    HW2 3037   0.871   0.450   3.191  3.1779  1.1103 -0.3618
  966SOL     OW 3038   0.120   1.521   0.771 -0.2665  0.4529  0.8159
  966SOL    HW1 3039   0.190   1.479   0.821 -1.3964 -2.9813 -0.2029
  966SOL    HW2 3040   0.163   1.559   0.695  0.8465  1.5368  1.9343
  967SOL     OW 3041   1.206   3.320   3.019 -0.0791  0.1114  0.0552
  967SOL    HW1 3042   1.243   3.350   3.102 -0.2346  0.7356 -0.0981
  967SOL    HW2 3043   1.137   3.383   2.999 -0.8000 -0.6736  0.0081
  968SOL     OW 3044   2.674   0.542   3.214  0.0393 -0.7269  0.6087
  968SOL    HW1 3045   2.597   0.492   3.187  1.7828 -1.9985 -2.6089
  968SOL    HW2 3046   2.639   0.618   3.261 -3.2642 -0.6245 -1.6860
  969SOL     OW 3047   2.604   0.755   3.675 -0.2429  0.0305  0.1952
  969SOL    HW1 3048   2.540   0.684   3.674  0.7424 -0.9164  0.9324
  969SOL    HW2 3049   2.586   0.802   3.757  0.6080 -0.8726  0.9449
  970SOL     OW 3050   2.849   1.177   2.516  0.6069  0.0961 -0.3369
  970SOL    HW1 3051   2.761   1.140   2.525  0.7973  0.1251  2.4722
  970SOL    HW2 3052   2.840   1.244   2.449 -1.6899  0.5473  0.3511
  971SOL     OW 3053   0.211   1.217   3.344 -0.1288 -0.3657  0.7511
  971SOL    HW1 3054   0.257   1.152   3.398 -0.1972 -0.2227  0.9817
  971SOL    HW2 3055   0.271   1.291   3.338  0.6837 -1.0906 -0.9275
  972SOL     OW 3056   2.369   1.714   0.748  0.3391  0.3491  0.4295
  972SOL    HW1 3057   2.369   1.662   0.828 -1.1888 -1.7404 -0.8060
  972SOL    HW2 3058   2.443   1.680   0.697 -0.7833 -0.8809 -0.4666
  973SOL     OW 3059   1.008   0.735   3.781 -0.2212 -0.1146  0.9424
  973SOL    HW1 3060   1.054   0.777   3.853 -0.0143 -0.6096  1.1031
  973SOL    HW2 3061   0.944   0.800   3.752  1.1004  0.9108  0.1933
  974SOL     OW 3062   1.371   2.514   1.417  0.0718  0.5474 -0.2575
  974SOL    HW1 3063   1.386   2.567   1.495  2.0094  0.9540 -0.8650
  974SOL    HW2 3064   1.287   2.545   1.382 -0.8345  0.3410  1.6379
  975SOL     OW 3065   3.804   2.012   2.372 -0.4314 -0.6710  0.4635
  975SOL    HW1 3066   3.823   1.933   2.424  0.7663 -0.5081  0.3149
  975SOL    HW2 3067   3.806   1.982   2.282  0.3965 -0.4199  0.3874
  976SOL     OW 3068   2.969   2.587   1.047  0.4282  0.2901 -0.4476
  976SOL    HW1 3069   2.921   2.663   1.014  1.3823  0.4589 -1.4939
  976SOL    HW2 3070   3.056   2.595   1.010  1.0227 -0.4884  0.7061
  977SOL     OW 3071   0.018   2.140   0.874  0.4385  0.2982 -0.3478
  977SOL    HW1 3072   0.069   2.200   0.929 -1.7192  0.4157  1.7062
  977SOL    HW2 3073   0.084   2.086   0.830  2.3449  1.6116  0.7227
  978SOL     OW 3074   0.909   0.678   0.595 -0.1436  0.2501 -0.1103
  978SOL    HW1 3075   0.954   0.672   0.680 -0.4464  1.5040  0.1566
  978SOL    HW2 3076   0.950   0.752   0.551  0.8690 -1.1521 -1.6220
  979SOL     OW 3077   1.476   3.311   1.585 -0.1623 -0.4326  0.3569
  979SOL    HW1 3078   1.457   3.225   1.548 -1.3161 -0.1921  0.3382
  979SOL    HW2 3079   1.436   3.309   1.672  1.1935 -0.4562  1.0028
  980SOL     OW 3080   0.618   0.876   0.307 -0.4901 -0.0639  0.0034
  980SOL    HW1 3081   0.629   0.932   0.383  0.5248  0.1929 -0.3136
  980SOL    HW2 3082   0.523   0.872   0.293 -0.5823  1.9452 -0.2375
  981SOL     OW 3083   0.972   0.761   3.444 -0.8343  0.1357 -0.2276
  981SOL    HW1 3084   0.963   0.854   3.422 -1.5494 -0.0987 -0.9988
  981SOL    HW2 3085   0.940   0.754   3.534 -0.7333  0.6439 -0.1497
  982SOL     OW 3086   2.972   2.197   1.099 -0.7540 -0.7373 -0.6205
  982SOL    HW1 3087   2.976   2.245   1.016  1.0626 -0.7463 -0.5854
  982SOL    HW2 3088   3.037   2.240   1.154 -0.3786 -2.0854  0.0289
  983SOL     OW 3089   1.689   3.795   1.080 -0.1578 -0.4251 -0.2804
  983SOL    HW1 3090   1.604   3.767   1.046  0.2468 -0.3719 -1.3751
  983SOL    HW2 3091   1.722   3.856   1.014 -0.4201  1.6337  1.4065
  984SOL     OW 3092   0.701   0.806   2.488 -1.1092  0.2479  0.2843
  984SOL    HW1 3093   0.728   0.765   2.570  0.2059  1.0900  0.3006
  984SOL    HW2 3094   0.650   0.882   2.514 -0.2720  0.8000  0.3577
  985SOL     OW 3095   1.376   3.007  -0.014  0.3511  0.1743  0.4591
  985SOL    HW1 3096   1.434   2.997   0.061 -0.1643 -1.1879  0.7149
  985SOL    HW2 3097   1.296   2.960   0.011 -0.6637  1.5458 -0.0939
  986SOL     OW 3098   2.037   1.132   2.353 -0.0212  0.1216 -0.2716
  986SOL    HW1 3099   2.004   1.188   2.283  0.0413 -1.5954 -1.7282
  986SOL    HW2 3100   2.079   1.193   2.414  3.6377  1.4552 -3.6913
  987SOL     OW 3101   3.365   2.670   2.198  0.1985 -0.4395 -0.0830
  987SOL    HW1 3102   3.370   2.749   2.145 -2.0875  1.6438  2.4986
  987SOL    HW2 3103   3.411   2.693   2.279 -2.5723 -0.7147  1.7027
  988SOL     OW 3104   3.286   2.769   0.074 -0.6544 -0.7534  0.0281
  988SOL    HW1 3105   3.368   2.719   0.077 -0.2034 -0.0632 -0.4979
  988SOL    HW2 3106   3.312   2.856   0.045 -1.2524  0.2113  2.2307
  989SOL     OW 3107   1.723   1.406   3.284 -0.5466  0.4586  0.1211
  989SOL    HW1 3108   1.778   1.331   3.261 -1.4453 -0.2823  0.3468
  989SOL    HW2 3109   1.705   1.396   3.377 -1.1595  0.6246  0.0277
  990SOL     OW 3110   1.393   2.583   1.908  0.0453 -0.4418 -0.5208
  990SOL    HW1 3111   1.360   2.615   1.992  0.5362 -1.2259 -0.0167
  990SOL    HW2 3112   1.487   2.577   1.920  0.1294 -0.4798 -1.1630
  991SOL     OW 3113   2.069   3.390   1.144  0.0240  1.0592  0.2555
  991SOL    HW1 3114   2.130   3.353   1.080 -1.2327 -1.1788  0.2596
  991SOL    HW2 3115   2.027   3.462   1.096  0.1232  0.3352 -0.9827
  992SOL     OW 3116   2.323   1.891   0.976 -0.0082 -0.4149  0.6163
  992SOL    HW1 3117   2.338   1.868   0.884  0.2364  1.0669  0.2534
  992SOL    HW2 3118   2.236   1.858   0.996 -0.1496 -0.5557 -0.2137
  993SOL     OW 3119   0.856   2.980   3.344  0.0891 -0.3452 -0.0835
  993SOL    HW1 3120   0.906   2.912   3.299  2.4806 -0.4984  2.4671
  993SOL    HW2 3121   0.777   2.936   3.374  0.9297 -1.6800  0.3079
  994SOL     OW 3122   1.046   0.216   1.592  0.6108  0.2960 -0.5311
  994SOL    HW1 3123   0.975   0.156   1.570  0.3915  0.4869 -0.3390
  994SOL    HW2 3124   1.118   0.158   1.618  0.1588  0.1282  0.3910
  995SOL     OW 3125   1.774   0.699   1.118  0.6737  0.5772 -0.2498
  995SOL    HW1 3126   1.738   0.787   1.126 -0.5746  0.0770 -0.1571
  995SOL    HW2 3127   1.707   0.642   1.157  1.0468 -0.4924 -1.1219
  996SOL     OW 3128   0.208   1.168   0.880 -0.3225 -0.2289 -0.6362
  996SOL    HW1 3129   0.195   1.075   0.861  1.2145 -0.1684 -2.1606
  996SOL    HW2 3130   0.119   1.203   0.887 -0.9288 -1.6472 -0.8948
  997SOL     OW 3131   1.725   2.735   3.267  0.1335 -0.0260  0.0426
  997SOL    HW1 3132   1.735   2.797   3.339  0.1966  0.2765 -0.2279
  997SOL    HW2 3133   1.795   2.757   3.206 -1.0716  0.9557 -1.0163
  998SOL     OW 3134   1.984   1.205   1.208 -0.5464 -0.6739  0.2251
  998SOL    HW1 3135   2.056   1.237   1.154 -0.3748 -0.8614  0.3443
  998SOL    HW2 3136   1.998   1.246   1.293 -0.3165 -1.0802  0.3840
  999SOL     OW 3137   1.924   1.733   0.530 -0.3722 -0.0563 -0.4477
  999SOL    HW1 3138   2.018   1.744   0.513 -0.4336 -0.1039 -0.8248
  999SOL    HW2 3139   1.885   1.817   0.504 -0.2937  0.3852  0.8035
 1000SOL     OW 3140   3.049   2.910   0.321  0.8094  0.3018  0.1249
 1000SOL    HW1 3141   3.102   2.832   0.303 -0.2943 -0.4779  0.1623
 1000SOL    HW2 3142   3.073   2.972   0.251 -0.2585 -1.0926 -1.5589
 1001SOL     OW 3143   1.489   1.302   1.530  0.4559  0.1503  0.1132
 1001SOL    HW1 3144   1.456   1.218   1.560  0.3604  0.2889  0.4021
 1001SOL    HW2 3145   1.456   1.365   1.594 -1.1033  0.6698 -1.1498
 1002SOL     OW 3146   2.863   0.434   1.303 -0.4650 -0.2546  0.5869
 1002SOL    HW1 3147   2.792   0.419   1.241  0.2902 -0.5527 -0.2198
 1002SOL    HW2 3148   2.861   0.528   1.320  0.0608  0.0331 -0.8209
 1003SOL     OW 3149   0.884   2.973   2.647  0.1020  0.7670  0.1179
 1003SOL    HW1 3150   0.928   3.012   2.571  0.4039  3.2634  1.4851
 1003SOL    HW2 3151   0.933   3.006   2.722 -1.0458 -0.5160  1.4792
 1004SOL     OW 3152   2.004   3.592   3.278  0.3606  0.1108 -0.2302
 1004SOL    HW1 3153   2.041   3.631   3.199  0.6596  1.4449  0.5375
 1004SOL    HW2 3154   1.909   3.598   3.266  0.4008  0.1468 -0.5494
 1005SOL     OW 3155   2.355   2.455   3.405  0.4753 -0.0334  0.3690
 1005SOL    HW1 3156   2.411   2.434   3.480  1.4471  1.1351 -0.0039
 1005SOL    HW2 3157   2.393   2.407   3.332 -0.2642 -0.8881  0.5167
 1006SOL     OW 3158   2.990   1.260   3.621 -0.8364 -0.1447  0.1239
 1006SOL    HW1 3159   3.038   1.286   3.700 -2.7888  0.2707  1.2368
 1006SOL    HW2 3160   2.959   1.343   3.584 -0.9996 -0.4260 -0.3699
 1007SOL     OW 3161   0.885   2.740   3.837  0.6783 -1.0703  0.0485
 1007SOL    HW1 3162   0.868   2.732   3.743  0.5213 -0.6894  0.0419
 1007SOL    HW2 3163   0.820   2.804   3.868  1.1610 -0.6946  0.2952
 1008SOL     OW 3164   1.216   0.588   3.155  0.0978 -0.6859 -0.4149
 1008SOL    HW1 3165   1.308   0.585   3.182  0.1065 -1.6060 -0.4999
 1008SOL    HW2 3166   1.195   0.681   3.148  0.9155 -0.4685 -0.0275
 1009SOL     OW 3167   1.609   2.275   3.342 -0.6618  0.5121  0.1269
 1009SOL    HW1 3168   1.623   2.221   3.419  1.7187 -0.4892 -0.9201
 1009SOL    HW2 3169   1.643   2.361   3.366 -0.9750  0.5197  0.5514
 1010SOL     OW 3170   0.868   0.999   1.570 -0.5411 -0.1155  0.0073
 1010SOL    HW1 3171   0.850   1.091   1.589  1.3106  1.1225 -3.3080
 1010SOL    HW2 3172   0.803   0.975   1.504 -1.3920 -1.4547  1.2688
 1011SOL     OW 3173   1.716   1.196   1.686 -0.3545  0.1079  0.3113
 1011SOL    HW1 3174   1.715   1.218   1.593  0.2139  0.1493  0.3089
 1011SOL    HW2 3175   1.707   1.101   1.688 -1.5592  0.2136  0.2675
 1012SOL     OW 3176   1.975   3.762   3.600  0.4059 -0.3733 -0.4763
 1012SOL    HW1 3177   1.997   3.824   3.670  0.1307  0.5570 -1.1998
 1012SOL    HW2 3178   1.900   3.801   3.556 -0.0100 -1.4088 -0.7317
 1013SOL     OW 3179   0.026   3.568   1.644 -0.8625  0.1132 -0.1086
 1013SOL    HW1 3180   0.110   3.547   1.685 -1.3953 -0.6695  0.6057
 1013SOL    HW2 3181   0.041   3.653   1.603 -0.2637  0.9122  1.6458
 1014SOL     OW 3182   3.515   3.021   2.597  0.2434 -0.8960  0.0156
 1014SOL    HW1 3183   3.435   3.049   2.642  0.1481  0.3243 -0.8534
 1014SOL    HW2 3184   3.499   2.930   2.573 -1.2390 -0.4383 -0.8575
 1015SOL     OW 3185   1.567   1.808   2.647  0.2701 -0.4738 -0.2286
 1015SOL    HW1 3186   1.519   1.733   2.611  0.4763 -0.5504 -0.3469
 1015SOL    HW2 3187   1.598   1.777   2.732  2.2161 -1.2942 -1.1897
 1016SOL     OW 3188   3.715   3.780   2.073  0.1936  0.0378  0.4143
 1016SOL    HW1 3189   3.670   3.720   2.133  0.8789  1.6653  2.7172
 1016SOL    HW2 3190   3.735   3.857   2.127 -0.6271  2.3784 -2.3378
 1017SOL     OW 3191   3.676   1.404   0.168  0.4496  0.2596 -0.0018
 1017SOL    HW1 3192   3.596   1.351   0.168 -0.4072  1.4775  1.9078
 1017SOL    HW2 3193   3.646   1.494   0.167  1.6507  0.8059  2.7550
 1018SOL     OW 3194   1.857   3.552   1.726  0.3244 -0.6078 -0.3526
 1018SOL    HW1 3195   1.909   3.504   1.661  0.7697 -0.5162 -0.0676
 1018SOL    HW2 3196   1.844   3.639   1.689  3.7619  0.7325  1.2358
 1019SOL     OW 3197   0.835   1.346   0.990 -0.1854  0.1346 -0.0922
 1019SOL    HW1 3198   0.841   1.392   0.906 -1.1179  0.5448  0.0508
 1019SOL    HW2 3199   0.744   1.317   0.995 -0.6266  1.5964  1.5189
 1020SOL     OW 3200   3.467   3.393   1.893 -0.4367  0.2743  0.0229
 1020SOL    HW1 3201   3.529   3.348   1.836 -1.6036 -0.0262 -1.0735
 1020SOL    HW2 3202   3.449   3.332   1.964 -0.9825 -0.4717 -0.7351
 1021SOL     OW 3203   1.450   3.265   3.666  0.1237 -0.6054  0.2733
 1021SOL    HW1 3204   1.474   3.191   3.721  0.5608 -2.2403 -1.9724
 1021SOL    HW2 3205   1.377   3.233   3.613 -0.0966  0.7871 -0.3130
 1022SOL     OW 3206   0.397   2.749   3.454 -0.4530  0.2338 -0.2834
 1022SOL    HW1 3207   0.352   2.721   3.534  0.5054 -1.1090 -0.1807
 1022SOL    HW2 3208   0.401   2.669   3.400  1.3151  0.4464 -0.4977
 1023SOL     OW 3209   3.176   3.223   3.364 -0.5670  0.3309 -0.0360
 1023SOL    HW1 3210   3.120   3.160   3.409 -1.7954  0.7278 -0.9541
 1023SOL    HW2 3211   3.168   3.304   3.414  2.1903 -0.5196  2.0413
 1024SOL     OW 3212   3.517   1.988   0.648  0.4839  0.4506  0.5044
 1024SOL    HW1 3213   3.546   1.907   0.607  0.1286  0.0292  1.0792
 1024SOL    HW2 3214   3.564   1.991   0.732 -1.4621 -0.4995  1.6916
 1025SOL     OW 3215   3.170   3.480   1.525 -0.1879 -0.4885  0.4880
 1025SOL    HW1 3216   3.235   3.549   1.518 -1.5389  0.7399 -0.5510
 1025SOL    HW2 3217   3.086   3.526   1.528 -1.0607 -2.0310  1.3624
 1026SOL     OW 3218   0.970   0.380   2.492  0.0474 -0.4388  0.1102
 1026SOL    HW1 3219   0.938   0.454   2.440  0.5606 -1.8844 -2.4127
 1026SOL    HW2 3220   0.925   0.389   2.576 -2.3365  0.9545 -1.1985
 1027SOL     OW 3221   0.723   2.162   1.905  0.1546 -0.6531 -0.6123
 1027SOL    HW1 3222   0.745   2.155   1.812  2.0337 -3.8963 -0.0826
 1027SOL    HW2 3223   0.677   2.081   1.925 -2.4717  1.0522  0.8587
 1028SOL     OW 3224   0.843   0.434   1.963 -0.1524  0.3289 -0.1743
 1028SOL    HW1 3225   0.863   0.376   1.890 -1.3777 -0.5257  0.1377
 1028SOL    HW2 3226   0.905   0.506   1.954  0.0334  0.0096 -1.7845
 1029SOL     OW 3227   3.431   1.149   0.305  0.1515 -0.3838 -0.9160
 1029SOL    HW1 3228   3.356   1.102   0.342  1.3850 -3.5256 -2.0400
 1029SOL    HW2 3229   3.421   1.139   0.210  2.7554 -2.4654 -1.0961
 1030SOL     OW 3230   0.507   3.016   2.462 -0.3086 -0.1300  0.4721
 1030SOL    HW1 3231   0.427   3.016   2.409 -0.9013 -1.3904  1.3283
 1030SOL    HW2 3232   0.479   3.048   2.547  0.0648 -0.7535  0.8329
 1031SOL     OW 3233   3.791   1.645   1.420  0.6134 -0.1656  0.6476
 1031SOL    HW1 3234   3.756   1.731   1.397 -2.3097 -1.1279  1.0151
 1031SOL    HW2 3235   3.830   1.612   1.339  0.3741  0.8956  0.0851
 1032SOL     OW 3236   3.596   0.767   1.422 -0.4543 -0.1319 -0.3182
 1032SOL    HW1 3237   3.610   0.674   1.441  0.8116 -0.0837 -0.8597
 1032SOL    HW2 3238   3.685   0.804   1.421 -0.9935  1.2459  0.6740
 1033SOL     OW 3239   2.099   2.351   0.726 -0.1897 -0.0003  0.3390
 1033SOL    HW1 3240   2.101   2.424   0.788  0.8380 -0.4419  0.8404
 1033SOL    HW2 3241   2.103   2.392   0.640 -0.2916  0.5573  0.5964
 1034SOL     OW 3242   0.322   2.572   1.820 -0.7960  0.2412 -0.1786
 1034SOL    HW1 3243   0.288   2.492   1.860  1.1664 -0.8427 -0.5449
 1034SOL    HW2 3244   0.362   2.542   1.738  0.3847  1.5254 -0.1014
 1035SOL     OW 3245   0.859   3.627   3.394 -0.0362  0.4763 -0.4935
 1035SOL    HW1 3246   0.780   3.631   3.449 -0.4884  0.7048 -1.1464
 1035SOL    HW2 3247   0.834   3.572   3.320  0.9158 -0.7395  0.0585
 1036SOL     OW 3248   2.175   2.584   3.755  0.5085 -1.1131  0.7151
 1036SOL    HW1 3249   2.184   2.561   3.663  0.1984 -2.0572  0.9175
 1036SOL    HW2 3250   2.206   2.508   3.803  1.7223 -0.2209  1.4111
 1037SOL     OW 3251   1.362   0.788   2.591 -0.2931  0.3800  0.0631
 1037SOL    HW1 3252   1.291   0.723   2.590 -1.9873  2.1633 -0.1505
 1037SOL    HW2 3253   1.441   0.737   2.568 -1.3278 -1.8075  1.0599
 1038SOL     OW 3254   0.966   1.711   2.661  0.5150 -0.0213  0.0587
 1038SOL    HW1 3255   1.022   1.786   2.643 -0.9873  1.0366 -0.3691
 1038SOL    HW2 3256   0.922   1.733   2.743 -1.6323  0.6599 -1.2078
 1039SOL     OW 3257   2.504   2.754   3.562  0.5228 -0.0037 -0.2417
 1039SOL    HW1 3258   2.522   2.686   3.628  0.7465  0.1870 -0.1045
 1039SOL    HW2 3259   2.569   2.821   3.579  0.9172 -0.1823 -0.9904
 1040SOL     OW 3260   2.695   0.920   0.854  0.0314  0.3469  0.1533
 1040SOL    HW1 3261   2.719   1.006   0.822  0.2634  0.7413  1.3408
 1040SOL    HW2 3262   2.600   0.925   0.869 -0.0800  0.1569 -0.4684
 1041SOL     OW 3263   3.015   2.908   2.095  0.1266  0.1586 -0.0830
 1041SOL    HW1 3264   3.004   2.973   2.026 -1.7602  0.2933  0.2820
 1041SOL    HW2 3265   2.967   2.831   2.063  0.7563 -0.4041  0.2996
 1042SOL     OW 3266   2.084   0.864   2.194 -0.1388  0.1477 -0.1329
 1042SOL    HW1 3267   2.097   0.904   2.108  3.1197  1.1422  0.6614
 1042SOL    HW2 3268   2.064   0.938   2.252 -0.9515 -0.3351  0.2156
 1043SOL     OW 3269   3.288   1.029   2.139 -0.1568 -0.1582 -0.6023
 1043SOL    HW1 3270   3.286   0.934   2.128 -0.4391 -0.0791 -1.2769
 1043SOL    HW2 3271   3.225   1.062   2.075 -0.9820  0.4095  0.4808
 1044SOL     OW 3272   1.686   0.961   0.559 -0.6324  0.9814 -0.3542
 1044SOL    HW1 3273   1.600   1.004   0.554 -1.1066  0.0797 -0.1086
 1044SOL    HW2 3274   1.673   0.890   0.622  0.1455  0.4824 -0.7487
 1045SOL     OW 3275   2.682   1.405   1.445  0.5784 -0.4049 -0.1059
 1045SOL    HW1 3276   2.672   1.458   1.524 -3.3888 -1.6075  0.4067
 1045SOL    HW2 3277   2.693   1.316   1.477  0.3999 -0.7142 -0.8877
 1046SOL     OW 3278   0.568   1.049   2.555  0.4988 -0.1021  0.3492
 1046SOL    HW1 3279   0.474   1.067   2.544  0.2488 -1.6485 -0.4016
 1046SOL    HW2 3280   0.584   1.063   2.648 -0.4603  0.2829  0.4703
 1047SOL     OW 3281   2.780   1.381   2.310 -0.0200 -0.5542 -0.3442
 1047SOL    HW1 3282   2.785   1.468   2.349  0.3226 -0.6298 -0.2116
 1047SOL    HW2 3283   2.686   1.364   2.301 -0.3205 -1.7886  3.3419
 1048SOL     OW 3284   1.746   3.277   3.493 -0.4556  0.2475  0.1356
 1048SOL    HW1 3285   1.725   3.226   3.571 -0.5343  0.1025  0.0202
 1048SOL    HW2 3286   1.802   3.347   3.525 -1.5394  0.9622  0.5432
 1049SOL     OW 3287   1.581   1.905   3.292  0.2804 -0.2283 -0.0813
 1049SOL    HW1 3288   1.571   1.966   3.365 -0.2638  0.1441 -0.4590
 1049SOL    HW2 3289   1.501   1.917   3.240  1.4858  0.9269 -1.7864
 1050SOL     OW 3290   2.166   3.007   3.545  0.3968 -0.0312 -0.0052
 1050SOL    HW1 3291   2.125   3.017   3.631  1.4853  3.9804  0.2665
 1050SOL    HW2 3292   2.095   3.024   3.483  0.0949 -0.6123  0.1789
 1051SOL     OW 3293   0.065   0.008   2.486 -0.3311 -0.3773 -0.4947
 1051SOL    HW1 3294   0.084   0.086   2.435  1.0081 -1.1248 -1.1873
 1051SOL    HW2 3295  -0.003   0.036   2.548  1.6460  1.9423  0.7881
 1052SOL     OW 3296   2.603   1.126   3.692  0.2922  0.7292 -0.4031
 1052SOL    HW1 3297   2.604   1.149   3.599 -0.4531  0.3635 -0.5051
 1052SOL    HW2 3298   2.514   1.098   3.709  0.6702 -0.1319  0.2053
 1053SOL     OW 3299   2.051   0.655   0.721  0.3316 -0.0636  0.0118
 1053SOL    HW1 3300   2.064   0.747   0.747  3.7065 -0.5305  0.4506
 1053SOL    HW2 3301   1.973   0.627   0.769 -2.6720  3.2529 -2.3631
 1054SOL     OW 3302   0.416   0.978   1.425 -0.0579  0.2800 -0.0748
 1054SOL    HW1 3303   0.355   1.021   1.484 -1.5096  1.4594 -2.2850
 1054SOL    HW2 3304   0.397   0.885   1.435 -3.5061  0.6213 -1.7816
 1055SOL     OW 3305   1.835   3.386   3.780 -0.5923 -0.1919  0.4062
 1055SOL    HW1 3306   1.874   3.413   3.697 -0.4351  0.5617  0.7136
 1055SOL    HW2 3307   1.819   3.468   3.827 -2.6028 -0.4585  0.2829
 1056SOL     OW 3308   0.718   0.706   2.233  1.0567  0.2310  0.0177
 1056SOL    HW1 3309   0.707   0.753   2.316  1.1837  2.1281 -0.9882
 1056SOL    HW2 3310   0.671   0.759   2.169  1.1376 -1.0906 -1.1855
 1057SOL     OW 3311   0.991   3.310   1.749  0.0032 -0.2697 -0.7871
 1057SOL    HW1 3312   1.004   3.279   1.838  0.9795  0.9898 -0.4572
 1057SOL    HW2 3313   1.020   3.402   1.751 -1.2479  0.1929 -2.0770
 1058SOL     OW 3314   3.315   2.682   1.368 -0.6167  0.3819 -0.2895
 1058SOL    HW1 3315   3.289   2.683   1.460 -0.7440  0.2012 -0.3233
 1058SOL    HW2 3316   3.410   2.695   1.371 -0.5090 -0.3760 -0.0858
 1059SOL     OW 3317   0.280  -0.009   1.181 -0.3785 -0.1045  0.1156
 1059SOL    HW1 3318   0.230  -0.022   1.100  1.4577 -1.4475 -0.8686
 1059SOL    HW2 3319   0.290   0.086   1.188 -0.3507  0.0352 -1.3867
 1060SOL     OW 3320   0.046   0.791   0.087  0.1673 -0.9125 -0.9367
 1060SOL    HW1 3321   0.050   0.827   0.175 -0.2224 -0.5586 -1.0606
 1060SOL    HW2 3322   0.101   0.712   0.090  2.8846  0.8094 -1.1982
 1061SOL     OW 3323   2.369   3.754   2.938  0.3019 -0.0737 -0.8014
 1061SOL    HW1 3324   2.435   3.754   3.008 -0.2973  1.3155 -0.2130
 1061SOL    HW2 3325   2.361   3.661   2.914  0.1504 -0.6801  1.3468
 1062SOL     OW 3326   0.386   3.587   2.036  0.6748  0.2515 -0.2893
 1062SOL    HW1 3327   0.445   3.657   2.007  0.6671  0.6990  0.7393
 1062SOL    HW2 3328   0.369   3.606   2.128  0.1088 -0.7186 -0.1776
 1063SOL     OW 3329   2.359   2.557   2.993 -0.3701  0.0177  0.0758
 1063SOL    HW1 3330   2.333   2.635   2.944 -0.5052 -0.3087 -0.3842
 1063SOL    HW2 3331   2.434   2.584   3.046 -0.7201  0.5846  0.2891
 1064SOL     OW 3332   1.104   1.811   0.282 -0.1205  0.2288 -0.3182
 1064SOL    HW1 3333   1.093   1.905   0.294  0.2572  0.3851 -1.1513
 1064SOL    HW2 3334   1.148   1.781   0.361  0.3436  0.8580 -0.3369
 1065SOL     OW 3335   0.011   0.762   1.539  0.2644  0.1969 -0.0372
 1065SOL    HW1 3336   0.080   0.708   1.578 -1.4099 -3.1902 -1.3054
 1065SOL    HW2 3337  -0.039   0.794   1.613 -0.0436 -2.0925  0.8285
 1066SOL     OW 3338   2.243   3.232   2.981  0.4461 -0.2544  0.0288
 1066SOL    HW1 3339   2.230   3.169   3.051  2.1343  0.2575  0.8722
 1066SOL    HW2 3340   2.162   3.231   2.931  0.0428 -2.2705  0.6635
 1067SOL     OW 3341   1.235   1.199   0.718 -0.3765 -0.0082  1.0943
 1067SOL    HW1 3342   1.188   1.132   0.669  1.6335 -1.3309  0.8269
 1067SOL    HW2 3343   1.209   1.186   0.809 -1.6929  0.3533  0.7914
 1068SOL     OW 3344   2.605   0.071   3.095 -1.0086 -0.1562  0.0967
 1068SOL    HW1 3345   2.603   0.063   3.190 -2.1526 -1.6065 -0.0142
 1068SOL    HW2 3346   2.551   0.148   3.076 -2.6705 -1.1721  0.5391
 1069SOL     OW 3347   0.247   0.326   2.054  0.1289 -0.5440  0.0783
 1069SOL    HW1 3348   0.171   0.372   2.090  0.3146 -0.6784  0.6487
 1069SOL    HW2 3349   0.225   0.313   1.962  0.4061  1.3854 -0.3014
 1070SOL     OW 3350   3.390   1.600   3.457 -0.4269  0.5831 -0.1735
 1070SOL    HW1 3351   3.485   1.586   3.465 -0.2452  1.4418 -0.7208
 1070SOL    HW2 3352   3.374   1.599   3.363 -0.8282  1.2557 -0.1166
 1071SOL     OW 3353   3.091   0.837   3.206 -0.4614  0.3062 -0.2271
 1071SOL    HW1 3354   3.038   0.858   3.283 -1.3789  0.5850 -0.9206
 1071SOL    HW2 3355   3.042   0.769   3.160 -1.5077  2.2539 -2.1663
 1072SOL     OW 3356   0.677   0.628   3.677  0.6838  0.2948 -0.8622
 1072SOL    HW1 3357   0.625   0.623   3.757 -0.1467  1.5473 -1.2868
 1072SOL    HW2 3358   0.754   0.575   3.695 -0.1799 -0.6493  0.2198
 1073SOL     OW 3359   2.322   0.246   0.919  0.6220  0.4614 -0.0410
 1073SOL    HW1 3360   2.385   0.177   0.937  0.3344  0.8431  2.8671
 1073SOL    HW2 3361   2.376   0.322   0.895  1.0138 -0.2602 -1.5321
 1074SOL     OW 3362   2.103   3.714   0.249  0.6958 -0.3634 -0.0451
 1074SOL    HW1 3363   2.148   3.630   0.244  1.0695 -0.2359  0.8509
 1074SOL    HW2 3364   2.171   3.778   0.228  0.0597 -0.3346 -2.2350
 1075SOL     OW 3365   1.498   0.962   0.973  0.1712  0.3900 -0.0034
 1075SOL    HW1 3366   1.569   1.020   0.944  0.2332  0.2757 -0.0816
 1075SOL    HW2 3367   1.489   0.980   1.066  0.6140  0.0731  0.1039
 1076SOL     OW 3368   0.427   1.493   1.708 -0.3603  0.1176 -0.2321
 1076SOL    HW1 3369   0.374   1.561   1.666 -0.5007  1.0204  1.3003
 1076SOL    HW2 3370   0.381   1.476   1.791 -1.7658 -3.7004 -1.5726
 1077SOL     OW 3371   2.192   1.048   1.967 -0.1467 -0.3464  0.1038
 1077SOL    HW1 3372   2.281   1.015   1.954  0.0708  0.0340  0.5581
 1077SOL    HW2 3373   2.205   1.138   1.998 -0.6272 -0.8261  1.8187
 1078SOL     OW 3374   1.296   2.609   2.204 -0.0629 -0.4076  0.7895
 1078SOL    HW1 3375   1.225   2.636   2.263  0.3647 -0.3659  1.2910
 1078SOL    HW2 3376   1.338   2.536   2.250  0.4320 -0.2127  0.6477
 1079SOL     OW 3377   1.333   0.961   0.021  0.0132  0.7677 -0.2000
 1079SOL    HW1 3378   1.353   1.044  -0.021 -0.2115 -0.4957 -3.0338
 1079SOL    HW2 3379   1.403   0.947   0.084  0.7248  2.5035 -0.5740
 1080SOL     OW 3380   2.327   0.637   0.405  0.4828 -0.3563  0.8624
 1080SOL    HW1 3381   2.349   0.615   0.495 -2.1117  0.8928  1.8908
 1080SOL    HW2 3382   2.307   0.730   0.407 -0.2456 -0.4292 -0.8977
 1081SOL     OW 3383   3.171   2.283   0.403  0.5785 -0.3517 -0.3841
 1081SOL    HW1 3384   3.078   2.280   0.426  0.7649  0.2847  0.5137
 1081SOL    HW2 3385   3.210   2.210   0.452  0.8508  0.5452  0.7851
 1082SOL     OW 3386   1.671   0.188   3.736 -0.1954 -0.0073  0.3162
 1082SOL    HW1 3387   1.620   0.255   3.782 -1.1294  0.4515 -1.3346
 1082SOL    HW2 3388   1.610   0.149   3.675  1.5031  0.9661 -2.1503
 1083SOL     OW 3389   1.832   0.265   2.430  0.1121 -0.7584  0.2479
 1083SOL    HW1 3390   1.877   0.218   2.360  2.0158 -0.6565  1.3135
 1083SOL    HW2 3391   1.892   0.337   2.453 -2.0668  1.3962 -0.3778
 1084SOL     OW 3392   1.456   0.192   2.530 -0.3647 -0.5521 -0.2929
 1084SOL    HW1 3393   1.427   0.266   2.476  0.1104 -0.6308 -0.6561
 1084SOL    HW2 3394   1.419   0.211   2.616 -2.7002 -1.3518 -1.0403
 1085SOL     OW 3395   1.963   1.029   2.967  0.1413  0.0738 -0.6165
 1085SOL    HW1 3396   1.903   1.101   2.989  2.0411  1.6293 -0.2152
 1085SOL    HW2 3397   1.926   0.990   2.889 -2.3319 -0.1908  0.5972
 1086SOL     OW 3398   3.721   0.318   1.183  0.1117 -0.3419 -0.6197
 1086SOL    HW1 3399   3.706   0.359   1.097 -2.4757 -1.8078 -0.9854
 1086SOL    HW2 3400   3.684   0.230   1.174  2.1477 -1.4826  1.2499
 1087SOL     OW 3401   3.783   0.484   0.027  0.1907 -0.1043 -0.0422
 1087SOL    HW1 3402   3.696   0.500  -0.011  0.5619 -0.9406 -1.2974
 1087SOL    HW2 3403   3.789   0.389   0.036  0.9112 -0.0445  0.2050
 1088SOL     OW 3404   1.511   0.103   3.270  0.2068  0.6577  0.0155
 1088SOL    HW1 3405   1.424   0.073   3.294 -0.1258  2.0968  0.6523
 1088SOL    HW2 3406   1.506   0.198   3.271  2.4004  0.8811  2.5259
 1089SOL     OW 3407   1.435   2.957   3.060  0.2852  0.1562  0.3279
 1089SOL    HW1 3408   1.417   3.026   2.996  0.6003 -0.3114 -0.2729
 1089SOL    HW2 3409   1.450   2.879   3.007 -0.3788 -0.4526  1.0171
 1090SOL     OW 3410   0.726   1.668   1.854  0.5192  0.0280  0.0755
 1090SOL    HW1 3411   0.674   1.589   1.862  0.9375 -0.1179  1.6252
 1090SOL    HW2 3412   0.817   1.638   1.854  0.6778  0.3445 -1.7708
 1091SOL     OW 3413   2.724   1.372   0.299 -0.3498  0.0502  0.0826
 1091SOL    HW1 3414   2.667   1.370   0.223  2.1700  0.8834 -1.9678
 1091SOL    HW2 3415   2.775   1.291   0.293  0.4726  0.5308  0.3756
 1092SOL     OW 3416   0.936   3.589   1.125 -0.3525 -0.0330  0.1822
 1092SOL    HW1 3417   1.015   3.641   1.143 -0.7941  0.7728 -0.1407
 1092SOL    HW2 3418   0.898   3.575   1.212  0.9146 -1.7346  0.5208
 1093SOL     OW 3419   1.864   0.916   2.742  0.2202  0.1646 -0.3578
 1093SOL    HW1 3420   1.943   0.909   2.690 -0.7385  2.1574 -2.2666
 1093SOL    HW2 3421   1.816   0.834   2.725  2.0376 -1.3322  1.3016
 1094SOL     OW 3422   2.433   2.776   2.320  0.3930  0.1075  0.0212
 1094SOL    HW1 3423   2.407   2.685   2.303 -0.2740  0.1885  0.5559
 1094SOL    HW2 3424   2.442   2.815   2.233 -3.5849  0.7172 -0.3206
 1095SOL     OW 3425   0.844   2.441   3.287 -0.0917  0.3168  0.4347
 1095SOL    HW1 3426   0.836   2.523   3.336  0.5941  0.8441 -0.2943
 1095SOL    HW2 3427   0.866   2.469   3.198  1.8395 -0.6890  0.5335
 1096SOL     OW 3428   2.939   2.203   1.997  0.0151  0.2554 -0.6395
 1096SOL    HW1 3429   2.930   2.229   1.905 -0.5291  1.6964 -0.2138
 1096SOL    HW2 3430   3.032   2.216   2.017  0.1341 -0.0633 -0.9816
 1097SOL     OW 3431   0.513   0.887   2.180  0.1089 -0.4385 -0.1579
 1097SOL    HW1 3432   0.476   0.933   2.105  1.0559  0.2850 -0.1958
 1097SOL    HW2 3433   0.440   0.836   2.215 -0.5539 -0.1377 -1.0668
 1098SOL     OW 3434   0.282   2.014   1.363 -0.0747 -0.1691 -0.7789
 1098SOL    HW1 3435   0.287   2.052   1.450 -0.2778 -1.2380 -0.2779
 1098SOL    HW2 3436   0.188   2.000   1.348  0.0556 -2.3248 -0.0633
 1099SOL     OW 3437   2.558   2.455   0.482  0.0745 -0.5898  0.0115
 1099SOL    HW1 3438   2.632   2.444   0.422  0.5500  1.6526  0.0858
 1099SOL    HW2 3439   2.585   2.411   0.562  1.8506  1.0479  0.3891
 1100SOL     OW 3440   2.547   1.118   0.214 -0.0497  0.1039 -0.4611
 1100SOL    HW1 3441   2.537   1.192   0.154 -0.2421 -0.5718 -1.3044
 1100SOL    HW2 3442   2.564   1.043   0.156 -0.8377 -0.6841  0.2885
 1101SOL     OW 3443   1.520   1.849   3.819  0.2045 -0.2715  0.3650
 1101SOL    HW1 3444   1.430   1.825   3.842  0.4541 -0.1575  1.5437
 1101SOL    HW2 3445   1.533   1.934   3.860  0.5692  0.1298 -0.5663
 1102SOL     OW 3446   2.898   1.213   3.336 -0.0575 -0.0791  0.0466
 1102SOL    HW1 3447   2.979   1.170   3.365  0.0886  0.6736  0.7884
 1102SOL    HW2 3448   2.922   1.305   3.327 -0.5640 -0.0252 -0.7834
 1103SOL     OW 3449   2.788   0.718   0.681  0.1384  0.1473  0.4473
 1103SOL    HW1 3450   2.809   0.801   0.637  0.0070  0.2995  0.6715
 1103SOL    HW2 3451   2.800   0.736   0.774 -1.9836  0.5582  0.6906
 1104SOL     OW 3452   3.496   1.223   3.589 -0.2254 -0.1394  0.4975
 1104SOL    HW1 3453   3.475   1.307   3.630 -1.7269 -0.7436  1.0716
 1104SOL    HW2 3454   3.467   1.233   3.498  1.7352  0.7060 -0.0734
 1105SOL     OW 3455   0.528   0.165   2.128  0.5270  0.2892  0.2769
 1105SOL    HW1 3456   0.488   0.246   2.157  0.4394  0.6302 -0.7724
 1105SOL    HW2 3457   0.490   0.097   2.185 -0.5618  0.7682  0.1263
 1106SOL     OW 3458   0.515   1.299   0.449  0.4364 -0.1862  0.2282
 1106SOL    HW1 3459   0.421   1.307   0.434  0.0642 -1.0718  1.8208
 1106SOL    HW2 3460   0.540   1.381   0.491  0.4720  0.2252 -0.5847
 1107SOL     OW 3461   2.740   1.971   0.852  0.2922 -0.4701  0.7010
 1107SOL    HW1 3462   2.740   1.998   0.944  0.0958 -1.4356  0.9975
 1107SOL    HW2 3463   2.705   1.882   0.853  1.9280 -1.1579 -0.1219
 1108SOL     OW 3464   0.373   1.925   0.403  0.8448  0.2864  0.1984
 1108SOL    HW1 3465   0.409   2.001   0.447  0.7401 -0.1215  1.0060
 1108SOL    HW2 3466   0.302   1.896   0.459  0.0611  0.3391 -0.7462
 1109SOL     OW 3467   3.415   1.348   2.630  0.3712 -0.0083 -0.1361
 1109SOL    HW1 3468   3.330   1.304   2.634  1.1320 -1.4559  2.2416
 1109SOL    HW2 3469   3.443   1.355   2.722  3.3023 -0.6074 -0.8727
 1110SOL     OW 3470   3.135   1.685   3.564 -0.4712 -0.5255 -0.3875
 1110SOL    HW1 3471   3.225   1.669   3.591 -0.3003 -0.1853 -0.7392
 1110SOL    HW2 3472   3.082   1.662   3.640  0.1203  2.3746  1.0378
 1111SOL     OW 3473   1.953   1.763   3.011  0.1372 -0.6806 -0.3077
 1111SOL    HW1 3474   1.943   1.741   2.918 -2.0308  0.1591 -0.3219
 1111SOL    HW2 3475   1.888   1.710   3.056  0.5568 -0.4215  0.6383
 1112SOL     OW 3476   2.603   2.977   2.851  0.2229  0.3648 -0.1401
 1112SOL    HW1 3477   2.636   2.916   2.786 -1.3228  0.0920 -0.7071
 1112SOL    HW2 3478   2.541   3.032   2.803  1.0733  1.9518  0.5088
 1113SOL     OW 3479   1.968   1.741   1.188  0.4892  0.0650  0.2895
 1113SOL    HW1 3480   1.905   1.671   1.203  0.7820 -0.5803 -1.3151
 1113SOL    HW2 3481   1.915   1.813   1.154  0.5885 -0.5082 -1.1452
 1114SOL     OW 3482   3.128   0.440   3.262 -0.2128  0.2807  0.6984
 1114SOL    HW1 3483   3.085   0.507   3.208 -1.9509 -0.7334  0.7510
 1114SOL    HW2 3484   3.100   0.357   3.224 -1.5723 -0.4805  3.1257
 1115SOL     OW 3485   1.088   1.348   1.593  0.4008  0.4515 -0.2704
 1115SOL    HW1 3486   1.076   1.299   1.512  2.1445 -0.7955  0.1867
 1115SOL    HW2 3487   1.026   1.422   1.585 -0.6500 -0.5375 -1.9725
 1116SOL     OW 3488   3.452   1.199   1.634  0.4265  0.0162  0.0171
 1116SOL    HW1 3489   3.357   1.197   1.617  0.5892  1.2813 -1.2260
 1116SOL    HW2 3490   3.492   1.203   1.547  1.5290  1.6849  0.5484
 1117SOL     OW 3491   3.524   0.377   3.337  0.2314 -0.7318 -0.0850
 1117SOL    HW1 3492   3.462   0.310   3.363  1.2493 -2.4515 -1.8137
 1117SOL    HW2 3493   3.557   0.413   3.419  0.2822 -2.9689  0.9461
 1118SOL     OW 3494   1.567   3.557   0.115 -0.5521  0.3820  0.2935
 1118SOL    HW1 3495   1.506   3.629   0.100  1.0313  2.1396  1.7783
 1118SOL    HW2 3496   1.560   3.502   0.036 -0.6105  3.0389 -1.6718
 1119SOL     OW 3497   3.698   0.932   2.253 -0.2059  0.8152 -0.4459
 1119SOL    HW1 3498   3.659   0.898   2.334  0.6260  2.0447  0.5201
 1119SOL    HW2 3499   3.641   1.006   2.229 -0.3585  0.5511 -0.9021
 1120SOL     OW 3500   3.106   0.182   2.678  0.0731 -0.2325  0.2496
 1120SOL    HW1 3501   3.060   0.099   2.683  0.2911 -0.3730 -0.0569
 1120SOL    HW2 3502   3.068   0.227   2.602  1.3954 -0.9472 -0.8828
 1121SOL     OW 3503   2.436   0.749   2.395 -0.4643  0.3078  0.4407
 1121SOL    HW1 3504   2.354   0.699   2.395 -0.6057  0.4272  2.8228
 1121SOL    HW2 3505   2.419   0.823   2.452  1.1229  0.6973  0.4558
 1122SOL     OW 3506   0.763   1.276   1.585  0.1108 -0.5440  0.1740
 1122SOL    HW1 3507   0.697   1.296   1.519  2.1409  0.4459 -1.6802
 1122SOL    HW2 3508   0.792   1.361   1.618  0.8357 -0.9263  0.5515
 1123SOL     OW 3509   1.390   1.802   0.744  0.7461  0.1526  0.9971
 1123SOL    HW1 3510   1.373   1.749   0.823 -1.3306  3.5372  3.0665
 1123SOL    HW2 3511   1.484   1.789   0.727  0.5897 -3.2219  1.9569
 1124SOL     OW 3512   3.479   1.490   1.184 -0.0198 -0.3120 -0.3895
 1124SOL    HW1 3513   3.564   1.449   1.169  0.0242 -1.0462  1.5527
 1124SOL    HW2 3514   3.485   1.575   1.140  1.7094 -0.3579 -0.3111
 1125SOL     OW 3515   3.823   1.505   3.072 -0.0967 -0.4452  0.5003
 1125SOL    HW1 3516   3.777   1.587   3.089  1.3436  0.0091  2.6272
 1125SOL    HW2 3517   3.814   1.455   3.152  0.8084 -1.4813 -0.0140
 1126SOL     OW 3518   2.893   2.698   1.514 -0.4008  0.3145  0.7453
 1126SOL    HW1 3519   2.921   2.652   1.435 -0.1304  2.3793 -0.4392
 1126SOL    HW2 3520   2.946   2.660   1.584  0.5537 -0.4362 -0.3452
 1127SOL     OW 3521   3.054   0.252   3.795  0.9968  0.1404  0.0823
 1127SOL    HW1 3522   3.074   0.282   3.707 -0.0647  0.5792 -0.0151
 1127SOL    HW2 3523   3.138   0.252   3.840  1.4431  0.5212 -0.7408
 1128SOL     OW 3524   1.754   2.244   0.414  0.2545  0.5472 -0.3327
 1128SOL    HW1 3525   1.691   2.300   0.458 -0.9829  0.8566 -2.3931
 1128SOL    HW2 3526   1.838   2.291   0.423 -0.0125  0.7527  1.3343
 1129SOL     OW 3527   3.459   0.146   1.208  0.3697  0.0086 -0.5661
 1129SOL    HW1 3528   3.372   0.141   1.168  0.4273 -0.2194 -0.6702
 1129SOL    HW2 3529   3.476   0.239   1.219  0.5341  0.0985 -1.4883
 1130SOL     OW 3530   2.695   2.107   1.820  0.7634 -0.0357  0.2493
 1130SOL    HW1 3531   2.761   2.166   1.784  0.2085  0.0728 -0.6063
 1130SOL    HW2 3532   2.627   2.165   1.854  1.1905 -0.1426  1.3204
 1131SOL     OW 3533   0.924   1.558   1.556  0.3178  0.5147  0.2476
 1131SOL    HW1 3534   0.832   1.549   1.532  0.6491  0.4045 -1.0579
 1131SOL    HW2 3535   0.965   1.599   1.480  1.3986  0.3177  0.6977
 1132SOL     OW 3536   0.495   2.345   1.708 -0.8136  0.5475 -0.3570
 1132SOL    HW1 3537   0.569   2.398   1.678 -1.1134  0.7227 -0.8039
 1132SOL    HW2 3538   0.505   2.341   1.803 -0.8799  1.5423 -0.2954
 1133SOL     OW 3539   1.228   2.607   2.585 -0.0444  0.2689 -0.3597
 1133SOL    HW1 3540   1.286   2.583   2.513  3.0770 -1.5426  2.4371
 1133SOL    HW2 3541   1.287   2.627   2.658 -2.9548  0.6868  2.1092
 1134SOL     OW 3542   0.363   0.095   0.117  0.1841 -0.6409 -0.1787
 1134SOL    HW1 3543   0.283   0.044   0.130 -0.7223  0.2570 -1.8784
 1134SOL    HW2 3544   0.346   0.147   0.038  1.5093  1.4198  0.8070
 1135SOL     OW 3545   3.583   2.573   1.387 -0.3370  0.3466  0.3195
 1135SOL    HW1 3546   3.535   2.542   1.464 -0.5011 -1.5089 -0.4826
 1135SOL    HW2 3547   3.628   2.652   1.417 -0.8173 -0.0414  2.1677
 1136SOL     OW 3548   2.844   1.497   3.515 -0.7270 -0.1747 -0.3199
 1136SOL    HW1 3549   2.748   1.497   3.523 -0.9850  1.1433 -2.7038
 1136SOL    HW2 3550   2.861   1.522   3.425  1.9087  0.0987  0.1792
 1137SOL     OW 3551   3.163   1.020   0.389 -0.7155 -0.2561 -0.5863
 1137SOL    HW1 3552   3.191   0.971   0.466 -1.8702  1.8528  1.3005
 1137SOL    HW2 3553   3.104   0.960   0.343 -0.1341 -1.5106  0.2405
 1138SOL     OW 3554   3.463   3.184   0.422  0.0505 -0.1327 -0.3569
 1138SOL    HW1 3555   3.398   3.122   0.454 -0.6008  0.2220 -0.9585
 1138SOL    HW2 3556   3.483   3.155   0.333  0.7934 -0.2973 -0.1399
 1139SOL     OW 3557   0.850   0.701   0.202 -0.2222 -0.2046 -0.1090
 1139SOL    HW1 3558   0.818   0.628   0.149 -1.8135  0.8546 -0.6981
 1139SOL    HW2 3559   0.772   0.735   0.246 -0.0733  2.6927 -1.8086
 1140SOL     OW 3560   2.021   3.538   1.951  0.1352  0.3047  0.0420
 1140SOL    HW1 3561   2.100   3.496   1.916  0.2378  1.4012 -1.0869
 1140SOL    HW2 3562   1.957   3.530   1.881 -0.2038  1.0047  0.2683
 1141SOL     OW 3563   2.800   2.578   2.649  1.0439  0.1814  0.4091
 1141SOL    HW1 3564   2.775   2.485   2.648 -1.4561  0.7806 -0.0863
 1141SOL    HW2 3565   2.804   2.601   2.742 -2.2275  0.4181  0.6094
 1142SOL     OW 3566   2.672   3.577   3.250 -0.2160 -0.4552  0.3092
 1142SOL    HW1 3567   2.684   3.537   3.336  0.2054  0.6807  0.7933
 1142SOL    HW2 3568   2.577   3.588   3.242 -0.3297 -1.4645  0.2032
 1143SOL     OW 3569   1.438   0.554   1.652 -0.0501 -0.5434 -0.3591
 1143SOL    HW1 3570   1.511   0.575   1.710  0.1670  1.5741 -1.3112
 1143SOL    HW2 3571   1.447   0.460   1.635  2.1368 -0.4457 -0.0088
 1144SOL     OW 3572   1.041   3.423   0.579  0.4460  0.5944  0.2031
 1144SOL    HW1 3573   1.041   3.432   0.483  0.9415  2.1712  0.3272
 1144SOL    HW2 3574   1.125   3.381   0.598 -0.2436 -1.0093 -0.1247
 1145SOL     OW 3575   2.969   3.063   0.560 -0.1477  0.0020 -0.0898
 1145SOL    HW1 3576   3.043   3.118   0.588 -0.0542 -0.5676  0.8155
 1145SOL    HW2 3577   2.988   3.042   0.469  0.5565  0.2655 -0.0101
 1146SOL     OW 3578   0.861   1.721   2.210  0.0872  0.0660 -0.3562
 1146SOL    HW1 3579   0.871   1.635   2.169 -2.4161  0.4847 -2.0744
 1146SOL    HW2 3580   0.769   1.726   2.234 -0.1263  2.6567 -1.3325
 1147SOL     OW 3581   1.781   2.007   1.811 -0.6193 -0.7547  0.8418
 1147SOL    HW1 3582   1.746   1.976   1.895  0.2584 -1.2096  1.0593
 1147SOL    HW2 3583   1.769   2.102   1.813  0.3341 -0.6260  1.9580
 1148SOL     OW 3584   0.020   1.689   0.316  0.0593 -0.2510  0.1674
 1148SOL    HW1 3585   0.073   1.763   0.287 -0.0513 -0.0977  0.3578
 1148SOL    HW2 3586  -0.053   1.687   0.254  0.6116 -0.8553 -0.4907
 1149SOL     OW 3587   1.916   1.034   0.987  0.1724  0.2418 -0.2424
 1149SOL    HW1 3588   1.935   1.073   1.072  2.2709  1.6126 -1.2639
 1149SOL    HW2 3589   1.837   1.080   0.956  0.1412  0.6311  0.3953
 1150SOL     OW 3590   2.259   2.328   1.721 -0.2320  0.0061  0.1515
 1150SOL    HW1 3591   2.274   2.361   1.632 -1.5162 -0.7419 -0.3704
 1150SOL    HW2 3592   2.169   2.294   1.718 -1.5116  2.7260  2.5558
 1151SOL     OW 3593   1.700   1.936   1.176 -0.2796  0.1481 -0.4029
 1151SOL    HW1 3594   1.694   2.002   1.245  0.5138  0.1068 -0.2757
 1151SOL    HW2 3595   1.710   1.986   1.095  2.2528  0.2370 -0.1160
 1152SOL     OW 3596   2.277   2.803   3.002  0.2118  0.0263  0.1922
 1152SOL    HW1 3597   2.329   2.857   2.942 -0.6763  2.2246  1.2895
 1152SOL    HW2 3598   2.293   2.842   3.089 -1.3061 -0.8019  0.8819
 1153SOL     OW 3599   2.344   0.454   3.082  0.1740 -0.2205  0.1731
 1153SOL    HW1 3600   2.292   0.532   3.101  1.2043  0.5547 -0.1157
 1153SOL    HW2 3601   2.323   0.394   3.153  0.4506  0.8773  1.2277
 1154SOL     OW 3602   0.506   3.342   2.626 -0.6840 -0.4559  0.3620
 1154SOL    HW1 3603   0.545   3.353   2.540  2.6255  0.2218  1.8110
 1154SOL    HW2 3604   0.469   3.428   2.647 -0.5427 -0.3149  0.0349
 1155SOL     OW 3605   1.611   3.716   1.827  0.5128 -0.3921  0.1607
 1155SOL    HW1 3606   1.687   3.772   1.815 -1.2130  2.2032  0.6385
 1155SOL    HW2 3607   1.581   3.734   1.916 -1.8772  0.3136 -0.7039
 1156SOL     OW 3608   0.773   2.841   1.637 -0.3586 -0.7940  0.5255
 1156SOL    HW1 3609   0.757   2.935   1.629  2.9459 -0.1115  0.5360
 1156SOL    HW2 3610   0.747   2.820   1.727 -1.1635  0.0649  0.5095
 1157SOL     OW 3611   1.683   2.682   2.661 -0.0943  0.1104 -0.3431
 1157SOL    HW1 3612   1.730   2.634   2.592  0.8950  0.9664 -0.2980
 1157SOL    HW2 3613   1.634   2.615   2.708 -1.3371 -0.4330 -2.2716
 1158SOL     OW 3614   3.038   0.603   3.029 -0.0938  0.0333  0.3857
 1158SOL    HW1 3615   3.018   0.544   2.956 -0.5346 -0.2251  0.7146
 1158SOL    HW2 3616   3.121   0.644   3.003 -0.2029 -0.1112 -0.2264
 1159SOL     OW 3617   2.474   2.326   0.774 -0.4359 -0.1592  0.1344
 1159SOL    HW1 3618   2.486   2.417   0.800 -0.4656  0.1132 -0.7672
 1159SOL    HW2 3619   2.411   2.291   0.837  1.9544 -0.4971  2.5279
 1160SOL     OW 3620   1.380   3.758   1.397  0.3021 -0.9548  0.5255
 1160SOL    HW1 3621   1.412   3.688   1.453  0.2988 -1.2323  0.1825
 1160SOL    HW2 3622   1.349   3.825   1.458  0.2176 -1.2878  0.8526
 1161SOL     OW 3623   1.590   0.123   1.386  0.3288  0.2751 -0.5097
 1161SOL    HW1 3624   1.552   0.056   1.329 -2.8555  1.8538 -0.4745
 1161SOL    HW2 3625   1.681   0.128   1.359 -0.2653 -1.2948 -3.2603
 1162SOL     OW 3626   0.790   2.146   1.612  0.1729 -0.2210  0.6191
 1162SOL    HW1 3627   0.762   2.094   1.537 -0.1897  1.3963 -0.4126
 1162SOL    HW2 3628   0.873   2.107   1.639 -0.5280 -1.8857  0.4881
 1163SOL     OW 3629   3.771   1.628   1.042 -0.2531  0.4080  0.3393
 1163SOL    HW1 3630   3.722   1.695   1.090  0.1626 -0.2234  1.7149
 1163SOL    HW2 3631   3.856   1.668   1.024 -0.4627  0.7002 -0.0133
 1164SOL     OW 3632   1.654   0.737   2.776 -0.0699 -0.2135 -0.6734
 1164SOL    HW1 3633   1.654   0.669   2.709 -0.0264  0.4012 -1.3029
 1164SOL    HW2 3634   1.577   0.718   2.829 -0.5434 -0.2452 -1.3674
 1165SOL     OW 3635   0.972   2.136   2.404 -0.2378  0.1423 -0.1501
 1165SOL    HW1 3636   0.912   2.128   2.330 -0.4885  0.3556  0.0292
 1165SOL    HW2 3637   0.916   2.159   2.478 -0.3049 -2.1765  0.5991
 1166SOL     OW 3638   3.198   0.061   2.953  0.4410 -0.5464 -0.0542
 1166SOL    HW1 3639   3.145   0.135   2.924  0.9091  0.0558  0.6102
 1166SOL    HW2 3640   3.155  -0.016   2.914 -1.3400 -0.1660  1.0388
 1167SOL     OW 3641   2.284   1.587   2.457 -0.4163  0.5055  0.7765
 1167SOL    HW1 3642   2.302   1.671   2.499  0.5528  0.4804  0.4483
 1167SOL    HW2 3643   2.201   1.600   2.412  0.0343  1.5215  0.1741
 1168SOL     OW 3644   1.674   1.609   0.029  0.4579 -0.4631  0.3810
 1168SOL    HW1 3645   1.625   1.679  -0.014  1.6022 -0.4108 -0.9038
 1168SOL    HW2 3646   1.745   1.654   0.074  0.5356 -0.7066  0.5032
 1169SOL     OW 3647   2.343   0.496   1.489 -0.1158  0.2396 -0.0890
 1169SOL    HW1 3648   2.289   0.533   1.418 -0.7487 -0.8554 -0.1894
 1169SOL    HW2 3649   2.303   0.412   1.508  1.6364 -0.6687 -0.2490
 1170SOL     OW 3650   2.168   3.111   0.442  0.2778  0.0091  0.2454
 1170SOL    HW1 3651   2.176   3.200   0.477  2.0219  1.0007 -2.3585
 1170SOL    HW2 3652   2.250   3.096   0.396 -0.2373 -2.7536  0.1062
 1171SOL     OW 3653   2.315   0.764   3.497  0.1548 -0.0693  0.0371
 1171SOL    HW1 3654   2.363   0.846   3.484  3.3115 -1.5103  1.7417
 1171SOL    HW2 3655   2.361   0.700   3.444 -1.3277 -1.1337 -0.0390
 1172SOL     OW 3656   0.389   2.351   0.596 -0.1864  0.0731 -0.5681
 1172SOL    HW1 3657   0.480   2.341   0.566 -0.6827 -0.8402 -1.8382
 1172SOL    HW2 3658   0.342   2.382   0.520 -0.4610  3.5267  0.8381
 1173SOL     OW 3659   3.451   0.445   1.187  0.2646  0.3582 -0.1472
 1173SOL    HW1 3660   3.468   0.530   1.145 -0.4453  0.6914  0.2233
 1173SOL    HW2 3661   3.427   0.467   1.277  1.4240 -0.3353  0.3471
 1174SOL     OW 3662   1.849   1.679   2.587  0.6034  0.2301 -0.4958
 1174SOL    HW1 3663   1.793   1.682   2.665  0.7356 -0.0819 -0.3841
 1174SOL    HW2 3664   1.811   1.609   2.534  1.1235 -0.2667 -0.2284
 1175SOL     OW 3665   1.580   3.060   0.359  0.2013 -0.2142  0.0791
 1175SOL    HW1 3666   1.593   3.149   0.326 -1.3820  0.1326  0.3135
 1175SOL    HW2 3667   1.663   3.015   0.340  0.5675  0.9401 -1.1948
 1176SOL     OW 3668   0.806   3.102   1.773 -0.0428  0.1996 -0.0056
 1176SOL    HW1 3669   0.742   3.171   1.788 -0.0208  0.0293  0.9240
 1176SOL    HW2 3670   0.891   3.146   1.781 -0.0354  0.2540 -0.3766
 1177SOL     OW 3671   2.334   0.668   0.706 -0.9910  0.7896 -0.8416
 1177SOL    HW1 3672   2.323   0.750   0.753 -1.3343  0.4701 -0.3587
 1177SOL    HW2 3673   2.245   0.641   0.684 -0.8640  0.6781 -1.2330
 1178SOL     OW 3674   2.286   2.010   1.262  0.7961 -0.2926  0.4936
 1178SOL    HW1 3675   2.206   2.062   1.250  0.3968 -0.8637  0.6490
 1178SOL    HW2 3676   2.350   2.050   1.202  0.3231  0.0120  0.1862
 1179SOL     OW 3677   3.153   1.205   1.893  0.1214  1.1273 -0.3446
 1179SOL    HW1 3678   3.139   1.163   1.808 -0.9503  0.0829  0.3271
 1179SOL    HW2 3679   3.083   1.172   1.948  0.2262  2.5527  0.6918
 1180SOL     OW 3680   1.373   0.846   3.486 -0.2990  0.3461  0.8929
 1180SOL    HW1 3681   1.380   0.941   3.500 -0.7695  0.4923  0.2077
 1180SOL    HW2 3682   1.283   0.833   3.457 -0.0896 -0.2388  0.4831
 1181SOL     OW 3683   1.926   0.968   1.783  0.1879 -0.0041  0.0472
 1181SOL    HW1 3684   1.926   1.044   1.841  2.0716 -1.1945  1.7351
 1181SOL    HW2 3685   2.012   0.969   1.741  0.3605 -1.3180  0.3053
 1182SOL     OW 3686   2.344   0.449   2.720 -0.1478 -0.4269  0.1290
 1182SOL    HW1 3687   2.287   0.417   2.790 -0.8500 -1.1353 -0.7445
 1182SOL    HW2 3688   2.350   0.544   2.736  0.0897 -0.6345  1.4051
 1183SOL     OW 3689   2.629   1.314   0.043  0.0497 -0.2177 -0.5353
 1183SOL    HW1 3690   2.537   1.340   0.038 -0.2567 -0.2804  2.8754
 1183SOL    HW2 3691   2.645   1.268  -0.040 -2.4030  1.3915 -2.0356
 1184SOL     OW 3692   1.216   2.076   3.646  0.4084 -0.4514 -0.1333
 1184SOL    HW1 3693   1.284   2.116   3.699 -0.0059  2.4457 -1.5898
 1184SOL    HW2 3694   1.135   2.097   3.692  0.2476 -0.3029 -0.4765
 1185SOL     OW 3695   0.948   2.646   1.842  0.5380 -0.2992  0.2252
 1185SOL    HW1 3696   0.998   2.576   1.883 -0.2434 -0.2295  1.3413
 1185SOL    HW2 3697   1.011   2.717   1.830  0.8410 -0.4020  1.1290
 1186SOL     OW 3698   2.612   0.330   0.606  0.0905  0.6647  0.3004
 1186SOL    HW1 3699   2.597   0.390   0.679 -1.0477  1.0971 -0.2667
 1186SOL    HW2 3700   2.587   0.244   0.639 -0.0555  0.7993  0.5379
 1187SOL     OW 3701   2.413   2.829   2.062  0.4797 -0.5629 -0.4315
 1187SOL    HW1 3702   2.437   2.920   2.042  0.2852 -0.5349 -0.5438
 1187SOL    HW2 3703   2.394   2.790   1.977 -1.1228 -0.2224 -0.2569
 1188SOL     OW 3704   2.799   0.526   0.497 -0.4128  0.6563  0.2150
 1188SOL    HW1 3705   2.828   0.586   0.566  0.2682  1.0725 -0.4238
 1188SOL    HW2 3706   2.723   0.481   0.535  0.2120  0.5523  1.4070
 1189SOL     OW 3707   0.314   2.250   1.228  0.1879 -0.7628  0.2464
 1189SOL    HW1 3708   0.308   2.183   1.296  0.2208 -0.1480  0.8665
 1189SOL    HW2 3709   0.403   2.241   1.193  0.3085 -0.8184  0.5648
 1190SOL     OW 3710   1.830   1.473   3.565 -0.0060  0.4894  0.3491
 1190SOL    HW1 3711   1.810   1.566   3.567 -0.4796  0.4669 -1.3879
 1190SOL    HW2 3712   1.901   1.465   3.501 -0.5803 -0.4303 -0.1980
 1191SOL     OW 3713   2.272   1.350   1.279  0.5070 -0.5459  0.2328
 1191SOL    HW1 3714   2.319   1.342   1.196 -0.9223 -0.7409 -0.5883
 1191SOL    HW2 3715   2.328   1.306   1.343  0.7005 -2.1737 -1.0080
 1192SOL     OW 3716   1.457   0.152   2.140  0.0158  0.5915 -0.5191
 1192SOL    HW1 3717   1.370   0.149   2.181  1.2072 -1.5717  2.1668
 1192SOL    HW2 3718   1.475   0.062   2.114  0.6185  1.3905 -3.2095
 1193SOL     OW 3719   1.468   3.562   2.484 -0.6935 -0.5199  0.4580
 1193SOL    HW1 3720   1.410   3.506   2.534 -0.5803 -0.8252  0.2481
 1193SOL    HW2 3721   1.453   3.650   2.520 -1.5275 -0.5370  0.1913
 1194SOL     OW 3722   0.810   2.617   3.551 -0.2288  0.1687  0.4055
 1194SOL    HW1 3723   0.890   2.646   3.507 -0.9337  0.7479 -0.5617
 1194SOL    HW2 3724   0.745   2.683   3.526 -0.8339  0.1032  1.7605
 1195SOL     OW 3725   0.536   3.395   3.030  0.1106  0.8202  0.1864
 1195SOL    HW1 3726   0.482   3.411   2.952  0.3172 -0.1704 -0.1823
 1195SOL    HW2 3727   0.476   3.354   3.092  0.6676 -1.4688 -0.6868
 1196SOL     OW 3728   2.258   3.314   0.663 -0.2452  0.3162  0.2108
 1196SOL    HW1 3729   2.339   3.349   0.701 -0.2563  1.7661 -0.9900
 1196SOL    HW2 3730   2.222   3.387   0.612 -0.6440 -1.2271 -1.8646
 1197SOL     OW 3731   1.547   2.785   0.167  0.6189  0.2551 -0.0077
 1197SOL    HW1 3732   1.463   2.742   0.149  2.2192 -3.1491 -0.1646
 1197SOL    HW2 3733   1.582   2.738   0.243  2.3303  1.6972  0.1650
 1198SOL     OW 3734   1.450   2.427   2.363 -0.2297 -0.3377  0.2121
 1198SOL    HW1 3735   1.538   2.405   2.395  0.6520  1.8383 -0.5821
 1198SOL    HW2 3736   1.394   2.358   2.400  1.7207 -1.5716  1.0520
 1199SOL     OW 3737   2.219   1.326   2.020 -0.5348  0.2944 -0.4836
 1199SOL    HW1 3738   2.281   1.391   2.052 -1.2248  0.8241 -0.2027
 1199SOL    HW2 3739   2.216   1.339   1.925 -2.7428  2.6017 -0.2010
 1200SOL     OW 3740   2.530   0.188   1.626 -0.2417 -0.1139  0.4589
 1200SOL    HW1 3741   2.532   0.112   1.684 -1.8727 -1.9916 -1.7348
 1200SOL    HW2 3742   2.477   0.160   1.552 -1.3766  3.3620 -0.2616
 1201SOL     OW 3743   2.684   2.915   3.087 -0.3899  0.4751 -0.7530
 1201SOL    HW1 3744   2.607   2.946   3.136 -0.4462  3.1346 -2.3214
 1201SOL    HW2 3745   2.661   2.928   2.995  0.3812 -2.7344 -1.5339
 1202SOL     OW 3746   0.303   0.507   0.606 -0.0882 -0.9424 -0.1721
 1202SOL    HW1 3747   0.374   0.503   0.670  0.1024  0.0488 -0.3058
 1202SOL    HW2 3748   0.224   0.491   0.658 -0.0477  0.9304  0.5463
 1203SOL     OW 3749   0.949   1.872   0.039 -0.2237 -0.0263  0.2043
 1203SOL    HW1 3750   0.982   1.892  -0.049 -0.5203 -0.9109 -0.1186
 1203SOL    HW2 3751   0.965   1.778   0.050  0.0001  0.1151  1.1865
 1204SOL     OW 3752   2.215   0.979   2.864 -0.4029  0.2537  0.3028
 1204SOL    HW1 3753   2.217   1.030   2.782 -0.6058  0.6625  0.5493
 1204SOL    HW2 3754   2.142   1.017   2.914  1.6553  2.2182  2.0614
 1205SOL     OW 3755   1.716   3.731   0.314 -0.3866 -0.2722 -0.6457
 1205SOL    HW1 3756   1.762   3.770   0.239 -1.1675  0.4772 -0.7533
 1205SOL    HW2 3757   1.644   3.681   0.275 -2.2341  2.0153 -0.3762
 1206SOL     OW 3758   1.395   1.235   3.768  0.4643  0.1020 -0.1923
 1206SOL    HW1 3759   1.383   1.282   3.850  2.0408  1.5096 -0.7025
 1206SOL    HW2 3760   1.476   1.270   3.732  0.6455 -1.6076 -1.6078
 1207SOL     OW 3761   0.471   1.441   1.214  0.1045 -0.0073 -0.0356
 1207SOL    HW1 3762   0.465   1.432   1.119 -0.0949  2.5172 -0.3370
 1207SOL    HW2 3763   0.382   1.428   1.245  0.2083 -1.0607 -0.1413
 1208SOL     OW 3764   3.411   1.798   1.544 -0.3445 -0.0739  0.7278
 1208SOL    HW1 3765   3.343   1.820   1.608 -1.0250 -0.8606  0.2973
 1208SOL    HW2 3766   3.385   1.712   1.510 -0.5622  0.7312 -1.3106
 1209SOL     OW 3767   0.721   0.737   3.218  0.6801 -0.5937 -0.3998
 1209SOL    HW1 3768   0.765   0.819   3.242 -2.8571  1.0028  1.2387
 1209SOL    HW2 3769   0.654   0.764   3.156  0.7987 -2.6691 -1.5130
 1210SOL     OW 3770   3.448   0.267   1.796 -0.5536  0.0198 -0.2221
 1210SOL    HW1 3771   3.372   0.310   1.834 -0.5811 -0.7886  0.6842
 1210SOL    HW2 3772   3.435   0.174   1.816  0.1064 -0.2635 -1.0546
 1211SOL     OW 3773   3.095   2.859   1.237  0.6323  0.3701  0.6221
 1211SOL    HW1 3774   3.094   2.782   1.295  0.4513  0.2638  0.4801
 1211SOL    HW2 3775   3.187   2.870   1.214  0.8623  1.0696  1.7953
 1212SOL     OW 3776   2.896   3.835   2.698  0.3734  0.0986 -0.0890
 1212SOL    HW1 3777   2.818   3.880   2.730  0.2937 -0.1664  0.0930
 1212SOL    HW2 3778   2.868   3.797   2.614 -0.0873 -1.0782  0.5703
 1213SOL     OW 3779   3.436   2.272   3.816  0.7766  0.0684 -0.1864
 1213SOL    HW1 3780   3.520   2.239   3.783 -0.4997 -1.9328 -1.6640
 1213SOL    HW2 3781   3.427   2.358   3.775  0.2720 -1.4206 -3.5574
 1214SOL     OW 3782   0.970   3.793   1.789 -0.4369 -0.4827  0.3361
 1214SOL    HW1 3783   1.055   3.785   1.832  0.1069 -2.4164 -0.9382
 1214SOL    HW2 3784   0.990   3.795   1.696 -1.6984  1.3795  0.0571
 1215SOL     OW 3785   0.312   2.984   3.341 -0.3022  0.4168 -0.0021
 1215SOL    HW1 3786   0.385   3.033   3.304 -0.3156  0.2900 -0.1958
 1215SOL    HW2 3787   0.353   2.910   3.387 -0.1270  1.7026  2.0573
 1216SOL     OW 3788   1.914   0.480   1.259  0.5822 -0.0526 -0.4802
 1216SOL    HW1 3789   1.886   0.483   1.167 -0.0582 -3.4409 -0.5091
 1216SOL    HW2 3790   1.835   0.503   1.308  0.3501 -0.3164 -0.7273
 1217SOL     OW 3791   3.624   1.771   2.955  0.1327  0.1371  0.2193
 1217SOL    HW1 3792   3.616   1.849   3.010  0.6807 -1.5377  2.8736
 1217SOL    HW2 3793   3.558   1.711   2.989  2.1091 -1.8693  0.7609
 1218SOL     OW 3794   2.464   1.578   1.787 -0.2062  0.0556  0.2470
 1218SOL    HW1 3795   2.503   1.609   1.705 -0.5098 -1.7521 -0.6417
 1218SOL    HW2 3796   2.483   1.647   1.850  1.3600  0.8255 -0.9818
 1219SOL     OW 3797   3.240   2.064   0.559 -0.7518  0.4119 -0.2321
 1219SOL    HW1 3798   3.230   2.053   0.654  0.4284  0.2521 -0.1184
 1219SOL    HW2 3799   3.328   2.032   0.541 -1.2431 -0.2842 -1.4994
 1220SOL     OW 3800   1.424   3.338   1.261 -0.3091  0.3071 -0.1407
 1220SOL    HW1 3801   1.458   3.256   1.226 -1.2084 -0.0969 -0.1120
 1220SOL    HW2 3802   1.402   3.390   1.184  0.6304  0.6890 -0.1588
 1221SOL     OW 3803   2.663   0.109  -0.006  0.4026  0.2125  0.1706
 1221SOL    HW1 3804   2.600   0.067   0.053 -0.0923  0.8064  0.0657
 1221SOL    HW2 3805   2.737   0.131   0.050  0.3273 -0.0715  0.3838
 1222SOL     OW 3806   2.347   1.577   3.430 -0.6578  0.0929  0.1845
 1222SOL    HW1 3807   2.323   1.653   3.484 -0.1517 -0.6952  1.5722
 1222SOL    HW2 3808   2.333   1.502   3.487 -3.0320 -1.0882 -1.7615
 1223SOL     OW 3809   3.009   3.092   1.839 -0.1524  0.1652  0.0138
 1223SOL    HW1 3810   3.008   3.186   1.861 -1.2795 -0.2321  1.8773
 1223SOL    HW2 3811   2.924   3.077   1.797  0.2524  0.0601 -0.7868
 1224SOL     OW 3812   3.328   0.443   0.905  0.1385  0.7316  0.4525
 1224SOL    HW1 3813   3.323   0.468   0.997  0.5867  1.1156  0.3769
 1224SOL    HW2 3814   3.305   0.350   0.904 -1.1798  1.0426  0.7805
 1225SOL     OW 3815   3.574   0.865   2.493 -0.0275  0.4781  0.1737
 1225SOL    HW1 3816   3.526   0.939   2.533 -2.1577 -0.4730 -0.5067
 1225SOL    HW2 3817   3.641   0.844   2.558  0.6676  2.9772  0.4047
 1226SOL     OW 3818   2.464   2.959   1.409 -0.4158 -0.2972  0.0366
 1226SOL    HW1 3819   2.396   2.989   1.349  0.2207 -0.8382 -0.9786
 1226SOL    HW2 3820   2.528   3.030   1.410 -0.3778 -0.3307 -0.0059
 1227SOL     OW 3821   2.401   2.476   1.913  0.0924 -0.1217  0.0634
 1227SOL    HW1 3822   2.351   2.435   1.842  1.5696  0.2267 -1.2305
 1227SOL    HW2 3823   2.335   2.514   1.970 -1.1348  0.6606 -1.7923
 1228SOL     OW 3824   0.686   1.969   3.581 -0.3283  0.0487 -0.0477
 1228SOL    HW1 3825   0.697   1.876   3.562 -0.7446  0.1124 -0.6512
 1228SOL    HW2 3826   0.593   1.987   3.561 -0.6572  0.2500  1.5747
 1229SOL     OW 3827   2.893   2.221   0.494  0.9578 -0.2342 -0.4487
 1229SOL    HW1 3828   2.836   2.224   0.571 -1.0964  1.0860 -1.9165
 1229SOL    HW2 3829   2.898   2.128   0.471 -1.9209 -0.3090 -1.1236
 1230SOL     OW 3830   3.180   1.589   1.788 -0.0798 -0.7471  0.0803
 1230SOL    HW1 3831   3.102   1.556   1.832 -0.7672 -1.1549 -1.4021
 1230SOL    HW2 3832   3.153   1.604   1.698  0.7022  2.1172  0.2041
 1231SOL     OW 3833   1.314   1.980   1.326 -0.4330 -0.0438  0.2622
 1231SOL    HW1 3834   1.364   2.058   1.354  0.4090 -0.3436 -0.3669
 1231SOL    HW2 3835   1.223   2.003   1.343 -0.2466  1.3125 -0.4337
 1232SOL     OW 3836   1.372   1.041   0.349  0.1872 -0.1356  0.3553
 1232SOL    HW1 3837   1.426   1.072   0.421  1.0242  1.2723 -0.8237
 1232SOL    HW2 3838   1.434   1.023   0.278 -0.7607  0.2432 -0.6002
 1233SOL     OW 3839   0.670   2.388   0.512  0.1480  0.3770  0.1666
 1233SOL    HW1 3840   0.691   2.456   0.447 -1.0969 -0.4886 -1.2293
 1233SOL    HW2 3841   0.740   2.393   0.577  0.3149  2.6853 -0.1291
 1234SOL     OW 3842   2.539   2.023   1.355  0.3717 -0.5124 -0.0629
 1234SOL    HW1 3843   2.543   2.116   1.331  0.3538 -0.4688  0.1021
 1234SOL    HW2 3844   2.449   1.997   1.338  0.6318 -0.7734 -1.1186
 1235SOL     OW 3845   3.126   1.701   2.362 -1.4303 -0.4117  0.0408
 1235SOL    HW1 3846   3.128   1.616   2.317  0.4086 -0.0667 -0.6084
 1235SOL    HW2 3847   3.114   1.765   2.292 -0.5258  0.0061  0.2568
 1236SOL     OW 3848   0.602   3.058   0.267  0.8305  0.1313 -0.2186
 1236SOL    HW1 3849   0.572   3.013   0.347  1.6695 -1.7716 -0.9140
 1236SOL    HW2 3850   0.639   3.141   0.298  0.1043 -0.0558  1.2371
 1237SOL     OW 3851   3.553   1.143   2.270 -0.4421 -0.3818  0.2814
 1237SOL    HW1 3852   3.618   1.180   2.330 -0.4303 -0.1084  0.1016
 1237SOL    HW2 3853   3.469   1.163   2.311 -0.4379 -0.0880  0.1431
 1238SOL     OW 3854   0.983   2.654   2.295 -0.6704 -0.2028 -0.4442
 1238SOL    HW1 3855   0.985   2.629   2.388 -2.2802  0.1945 -0.2704
 1238SOL    HW2 3856   0.945   2.742   2.296 -0.6285 -0.1681 -1.4957
 1239SOL     OW 3857   2.086   0.489   3.620 -0.4023 -0.0250 -0.3259
 1239SOL    HW1 3858   2.048   0.566   3.578  1.9801  1.3603 -0.0937
 1239SOL    HW2 3859   2.041   0.484   3.704 -0.4850  1.2250 -0.2717
 1240SOL     OW 3860   3.768   0.750   2.664 -0.3781  0.1370 -0.8457
 1240SOL    HW1 3861   3.755   0.833   2.710 -0.9441 -1.1460  1.4667
 1240SOL    HW2 3862   3.798   0.690   2.731  1.2218 -1.2775 -2.7107
 1241SOL     OW 3863   1.174   3.686   1.204  0.2956  0.5353  0.0928
 1241SOL    HW1 3864   1.258   3.706   1.245  1.1490  3.2221 -2.5921
 1241SOL    HW2 3865   1.195   3.669   1.113 -1.8598 -1.6162 -0.0867
 1242SOL     OW 3866   3.364   1.924   0.317 -0.0242  0.2344 -0.3336
 1242SOL    HW1 3867   3.313   1.961   0.246 -1.2180 -2.2260 -0.8583
 1242SOL    HW2 3868   3.452   1.961   0.305 -1.2046  3.3470 -0.3220
 1243SOL     OW 3869   2.179   0.627   1.272  0.2504 -0.0216 -0.1210
 1243SOL    HW1 3870   2.132   0.558   1.225  0.5252 -0.3704  0.1164
 1243SOL    HW2 3871   2.115   0.698   1.279 -0.5331 -0.7909  0.9034
 1244SOL     OW 3872   3.131   0.822   0.596 -0.2789 -0.0223  0.2921
 1244SOL    HW1 3873   3.145   0.727   0.595  0.1456  0.0355  0.3987
 1244SOL    HW2 3874   3.038   0.833   0.575 -1.1392 -0.6122  3.2666
 1245SOL     OW 3875   1.836   3.667   2.357 -0.9366  0.0700  0.1801
 1245SOL    HW1 3876   1.910   3.724   2.335 -1.2353  0.1330 -0.6713
 1245SOL    HW2 3877   1.770   3.727   2.393 -0.5431 -0.0010  1.0444
 1246SOL     OW 3878   0.359   2.212   1.950  0.2684 -0.2842 -0.2474
 1246SOL    HW1 3879   0.321   2.128   1.974 -0.4364 -0.0554 -0.5421
 1246SOL    HW2 3880   0.284   2.271   1.940  0.7791  0.4951  0.3768
 1247SOL     OW 3881   1.122   3.144   1.585  0.1076  0.7048  0.2439
 1247SOL    HW1 3882   1.135   3.197   1.507 -0.0824  0.0614 -0.2371
 1247SOL    HW2 3883   1.085   3.204   1.650 -0.1549  1.1446 -0.3085
 1248SOL     OW 3884   3.536   3.177   0.913  0.4925  0.6749  0.1984
 1248SOL    HW1 3885   3.567   3.209   0.828 -1.2003 -0.2628 -0.8325
 1248SOL    HW2 3886   3.550   3.083   0.910  2.4504  0.8492  1.9047
 1249SOL     OW 3887   1.644   3.123   1.211 -0.3154  0.2450 -0.2168
 1249SOL    HW1 3888   1.586   3.143   1.138 -1.3683  0.3698  0.6257
 1249SOL    HW2 3889   1.644   3.027   1.216  1.4330  0.1193 -1.6591
 1250SOL     OW 3890   2.043   3.243   1.665 -0.2050 -0.1919 -0.2293
 1250SOL    HW1 3891   2.114   3.180   1.650  1.0995  1.1522  0.0732
 1250SOL    HW2 3892   1.985   3.232   1.590  0.0640 -1.6375 -0.2609
 1251SOL     OW 3893   1.118   1.339   0.162  0.3616  0.2941 -0.4693
 1251SOL    HW1 3894   1.201   1.383   0.179  0.3774  0.3484 -0.6910
 1251SOL    HW2 3895   1.137   1.246   0.169 -0.0427  0.3168  1.8509
 1252SOL     OW 3896   3.295   2.496   0.542 -0.4460 -0.1585  0.5134
 1252SOL    HW1 3897   3.259   2.424   0.489 -0.5697 -0.8844  1.5447
 1252SOL    HW2 3898   3.375   2.460   0.579 -0.7185  0.0950  1.3580
 1253SOL     OW 3899   2.116   1.371   2.940 -0.1076  0.3460 -1.0238
 1253SOL    HW1 3900   2.206   1.338   2.940 -0.5676 -0.9828 -0.8719
 1253SOL    HW2 3901   2.072   1.320   3.008 -1.2917  0.0397 -1.9785
 1254SOL     OW 3902   0.437   2.639   3.817  0.3253 -0.0663  1.1363
 1254SOL    HW1 3903   0.438   2.733   3.799 -0.9123 -0.2906 -0.2863
 1254SOL    HW2 3904   0.377   2.630   3.892 -0.7848  0.1547  0.2978
 1255SOL     OW 3905   2.543   1.102   1.197 -0.2801  0.1476  0.1607
 1255SOL    HW1 3906   2.526   1.110   1.291  0.7491 -1.5823  0.5259
 1255SOL    HW2 3907   2.620   1.156   1.182  0.4337 -0.7298  0.6071
 1256SOL     OW 3908   2.810   0.834   1.114 -0.2308  0.2878  0.2920
 1256SOL    HW1 3909   2.896   0.864   1.086 -0.1206 -1.8733 -2.1726
 1256SOL    HW2 3910   2.750   0.867   1.047 -0.7346 -1.0719  0.0237
 1257SOL     OW 3911   3.062   0.105   2.320  0.2480  0.1546 -0.0308
 1257SOL    HW1 3912   3.031   0.183   2.365 -1.3276  0.1046 -0.9249
 1257SOL    HW2 3913   3.150   0.126   2.291 -0.0679  1.5260 -0.0547
 1258SOL     OW 3914   3.256   3.628   0.385  0.6334 -0.3336 -0.1784
 1258SOL    HW1 3915   3.326   3.693   0.377  0.3925  0.0320  0.5740
 1258SOL    HW2 3916   3.302   3.545   0.402  0.9280 -0.3164 -0.8548
 1259SOL     OW 3917   1.401   3.598   3.023 -0.1056  0.1217  0.0398
 1259SOL    HW1 3918   1.372   3.689   3.020  0.7559  0.4489  1.1651
 1259SOL    HW2 3919   1.461   3.590   2.948  1.6107  1.1481  1.2495
 1260SOL     OW 3920   2.691   1.953   2.858 -0.0889 -0.0481  0.3445
 1260SOL    HW1 3921   2.761   1.926   2.917 -1.1700  0.0151  1.7212
 1260SOL    HW2 3922   2.612   1.911   2.895 -0.9972  1.0330 -0.3183
 1261SOL     OW 3923   1.083   2.444   3.613 -0.1198  1.0027  0.0918
 1261SOL    HW1 3924   1.037   2.527   3.597  0.8295  1.3071 -1.2866
 1261SOL    HW2 3925   1.026   2.377   3.574 -0.1263  1.2003 -0.2413
 1262SOL     OW 3926   1.733   3.803   3.116 -0.7961  0.2111 -0.3279
 1262SOL    HW1 3927   1.640   3.786   3.102 -0.9094 -1.0195  1.6492
 1262SOL    HW2 3928   1.735   3.883   3.168 -0.6861  0.6776 -1.0299
 1263SOL     OW 3929   0.391   3.344   3.283 -0.0021  0.1105 -0.3263
 1263SOL    HW1 3930   0.332   3.344   3.358 -1.0623  1.4244 -1.1108
 1263SOL    HW2 3931   0.468   3.295   3.312 -0.2896  0.7798  1.6810
 1264SOL     OW 3932   0.174   0.430   3.399 -0.3162 -0.2725 -0.2463
 1264SOL    HW1 3933   0.157   0.456   3.489  0.0820  1.2616 -0.5986
 1264SOL    HW2 3934   0.088   0.431   3.357 -0.6699 -2.0631  0.3512
 1265SOL     OW 3935   1.701   1.204   0.961  0.0381 -0.1762  0.1944
 1265SOL    HW1 3936   1.680   1.272   0.897 -0.4016 -0.7019 -0.2318
 1265SOL    HW2 3937   1.651   1.228   1.039 -1.7073 -1.0612 -0.5953
 1266SOL     OW 3938   3.281   3.051   2.737 -0.1897 -0.1134  0.4782
 1266SOL    HW1 3939   3.306   2.998   2.813  0.8332  1.8332  1.5857
 1266SOL    HW2 3940   3.254   3.135   2.774  2.5276  1.7222 -1.3484
 1267SOL     OW 3941   2.540   1.825   1.892 -0.0987 -0.1896 -0.9342
 1267SOL    HW1 3942   2.511   1.839   1.802  1.7528  1.0469 -1.4058
 1267SOL    HW2 3943   2.611   1.888   1.904  0.3668 -1.0183  1.0783
 1268SOL     OW 3944   1.744   3.276   2.474  0.2056 -0.2203 -0.1008
 1268SOL    HW1 3945   1.728   3.216   2.548  0.4494 -1.9908 -1.4274
 1268SOL    HW2 3946   1.665   3.268   2.420  0.0195  1.0839 -0.0541
 1269SOL     OW 3947   0.914   0.935   1.129  0.0930  0.0451  0.3936
 1269SOL    HW1 3948   0.928   0.985   1.048  0.6693 -0.6131  0.0756
 1269SOL    HW2 3949   0.968   0.857   1.118 -1.0999 -0.8482  0.6952
 1270SOL     OW 3950   3.451   3.800   0.235  0.0706 -0.4720 -0.7690
 1270SOL    HW1 3951   3.498   3.839   0.309 -0.6645 -0.9789 -0.0174
 1270SOL    HW2 3952   3.520   3.766   0.178  0.6455 -0.2198 -0.2382
 1271SOL     OW 3953   2.832   1.708   1.825  0.3368 -0.1593 -0.3938
 1271SOL    HW1 3954   2.879   1.627   1.846 -0.0463 -0.0885  0.8239
 1271SOL    HW2 3955   2.779   1.725   1.903 -0.9550  0.2949 -1.3443
 1272SOL     OW 3956   0.495   1.627   3.008  0.7991  0.7430 -0.2930
 1272SOL    HW1 3957   0.408   1.590   2.996  1.5755 -1.2349 -0.2303
 1272SOL    HW2 3958   0.499   1.702   2.949  0.0899 -0.9467 -2.5827
 1273SOL     OW 3959   1.761   3.416   3.224  0.1891 -0.4973 -0.1489
 1273SOL    HW1 3960   1.784   3.409   3.132  0.2565 -1.2438 -0.0814
 1273SOL    HW2 3961   1.796   3.336   3.264  2.2859  0.9095  1.0018
 1274SOL     OW 3962   1.488   2.360   1.648 -0.0407 -0.8432  0.0444
 1274SOL    HW1 3963   1.458   2.279   1.608 -0.0652  0.9319 -4.0610
 1274SOL    HW2 3964   1.411   2.394   1.694 -0.6220 -2.1070  0.0517
 1275SOL     OW 3965   1.893   3.274   0.173  0.1304 -0.0272  0.5937
 1275SOL    HW1 3966   1.899   3.356   0.222 -0.7392  0.3337  0.1080
 1275SOL    HW2 3967   1.882   3.301   0.082 -1.7357 -0.6541  0.6025
 1276SOL     OW 3968   3.313   0.982   0.716  0.6527 -0.4443 -0.6534
 1276SOL    HW1 3969   3.245   0.925   0.680  1.0055 -1.0039 -0.4520
 1276SOL    HW2 3970   3.383   0.922   0.741  0.2346 -0.1452  1.4502
 1277SOL     OW 3971   0.659   1.456   3.515  0.4230 -0.0259  0.1988
 1277SOL    HW1 3972   0.572   1.420   3.537 -0.4849  1.0105 -1.5189
 1277SOL    HW2 3973   0.715   1.426   3.587 -1.2424 -1.1106  1.1344
 1278SOL     OW 3974   1.649   2.317   1.241 -0.0566  0.4517  0.0175
 1278SOL    HW1 3975   1.566   2.273   1.257  0.5536 -0.0555  2.1155
 1278SOL    HW2 3976   1.694   2.262   1.177 -0.0375 -1.0503  1.2788
 1279SOL     OW 3977   1.384   2.444   0.796  0.0643 -0.2607 -0.1509
 1279SOL    HW1 3978   1.338   2.527   0.810  2.1449  0.9219 -0.0119
 1279SOL    HW2 3979   1.427   2.426   0.880  0.8599 -0.6860 -0.6422
 1280SOL     OW 3980   0.319   0.481   1.139 -0.1368  0.1788  0.0805
 1280SOL    HW1 3981   0.370   0.558   1.163 -0.4711  0.3166  0.3404
 1280SOL    HW2 3982   0.366   0.408   1.180 -0.4426  0.3624  0.7653
 1281SOL     OW 3983   0.173   1.726   1.006 -0.1215  0.0263 -0.6620
 1281SOL    HW1 3984   0.226   1.691   0.934  1.2373  0.5211  0.0636
 1281SOL    HW2 3985   0.198   1.818   1.012  1.9269 -0.5861  2.1809
 1282SOL     OW 3986   2.193   3.268   2.180  0.2403  0.1588 -0.5286
 1282SOL    HW1 3987   2.148   3.349   2.203  0.0170  0.0130 -0.4491
 1282SOL    HW2 3988   2.146   3.235   2.103 -1.3789 -1.2698  0.9775
 1283SOL     OW 3989   2.651   1.633   1.594  0.1141 -0.3055  0.0971
 1283SOL    HW1 3990   2.733   1.669   1.629  0.6965 -2.0420  0.6323
 1283SOL    HW2 3991   2.635   1.684   1.514  2.1411 -0.3951 -0.4278
 1284SOL     OW 3992   1.384   2.668   1.623  0.0582 -0.6744  0.1371
 1284SOL    HW1 3993   1.351   2.757   1.619  2.1949  0.1869  0.5348
 1284SOL    HW2 3994   1.378   2.644   1.715 -0.1042 -0.7713  0.1010
 1285SOL     OW 3995   2.694   1.168   1.602  0.1266  0.1821 -0.4442
 1285SOL    HW1 3996   2.681   1.139   1.692  0.4705  0.5042 -0.2870
 1285SOL    HW2 3997   2.731   1.092   1.557 -0.2808 -0.0603 -0.3778
 1286SOL     OW 3998   0.719   3.396   0.624  0.9840 -0.3592 -0.5298
 1286SOL    HW1 3999   0.657   3.465   0.646  0.2579 -1.0419 -0.3625
 1286SOL    HW2 4000   0.774   3.387   0.702 -0.8076 -1.9459  0.6334
 1287SOL     OW 4001   2.052   2.835   1.666 -0.7007  0.5715 -0.0745
 1287SOL    HW1 4002   2.067   2.740   1.665 -2.2694  0.2861  0.6279
 1287SOL    HW2 4003   2.017   2.855   1.579 -0.6184  0.4713 -0.1316
 1288SOL     OW 4004   1.068   2.452   2.794 -0.2004 -0.8506  0.1422
 1288SOL    HW1 4005   1.124   2.377   2.779  0.0941 -0.6622  0.2884
 1288SOL    HW2 4006   1.126   2.528   2.783 -0.6557 -0.6205 -0.7427
 1289SOL     OW 4007   3.486   0.691   0.582  0.2524  0.3493  0.7957
 1289SOL    HW1 4008   3.467   0.759   0.517 -0.8667  0.4916  1.2444
 1289SOL    HW2 4009   3.510   0.739   0.661  1.4486  0.1787  0.5560
 1290SOL     OW 4010   2.532   3.374   0.720  0.3965 -0.8154  0.1194
 1290SOL    HW1 4011   2.538   3.406   0.810  0.7123  0.2234 -0.2531
 1290SOL    HW2 4012   2.596   3.304   0.714  1.4366  0.0960  0.3103
 1291SOL     OW 4013   0.856   3.279   3.726  0.1411  0.0035  1.2707
 1291SOL    HW1 4014   0.898   3.362   3.704 -0.8342 -0.0007 -0.8978
 1291SOL    HW2 4015   0.770   3.303   3.759 -1.1834 -0.0678 -1.7668
 1292SOL     OW 4016   1.233   3.844   3.630 -0.3635 -0.2439 -0.3106
 1292SOL    HW1 4017   1.188   3.776   3.580 -2.7102  0.9958 -0.0248
 1292SOL    HW2 4018   1.227   3.814   3.721 -1.7246  0.4516 -0.1428
 1293SOL     OW 4019   1.227   0.061   3.279 -0.3370  0.5199  0.6801
 1293SOL    HW1 4020   1.182  -0.013   3.319  0.2069  1.4509  3.2220
 1293SOL    HW2 4021   1.157   0.122   3.256 -0.6621 -0.0073  0.2523
 1294SOL     OW 4022   3.113   0.627   3.503  0.1699 -0.1909 -0.1761
 1294SOL    HW1 4023   3.138   0.557   3.443 -0.8679 -0.4616 -0.3122
 1294SOL    HW2 4024   3.017   0.631   3.497  0.1397  0.5638  0.5840
 1295SOL     OW 4025   3.810   1.437   2.774  0.6819  0.3186  0.4406
 1295SOL    HW1 4026   3.720   1.403   2.777  0.0892  1.5015 -1.7955
 1295SOL    HW2 4027   3.830   1.457   2.865 -1.6669  0.8159  0.9258
 1296SOL     OW 4028   1.613   1.441   2.778 -0.2720  0.4972 -0.1503
 1296SOL    HW1 4029   1.613   1.417   2.685  1.2750  2.0012 -0.5974
 1296SOL    HW2 4030   1.617   1.357   2.824 -2.6893 -0.3561 -1.3452
 1297SOL     OW 4031   3.317   2.074   1.671  0.3522 -0.0334  0.2232
 1297SOL    HW1 4032   3.362   2.035   1.746  1.1519 -1.0301 -0.7604
 1297SOL    HW2 4033   3.236   2.024   1.663 -0.1377  0.6118  0.8960
 1298SOL     OW 4034   3.806   1.276   2.113 -0.2454 -0.0511 -0.4512
 1298SOL    HW1 4035   3.718   1.241   2.094 -0.5397 -0.0022  0.7424
 1298SOL    HW2 4036   3.803   1.366   2.078 -0.4552 -0.2456 -0.9568
 1299SOL     OW 4037   3.226   0.674   0.208  0.1043  0.0949  0.1281
 1299SOL    HW1 4038   3.188   0.586   0.204  0.2021  0.0751 -3.0556
 1299SOL    HW2 4039   3.164   0.724   0.261 -0.2046 -1.7447  1.6149
 1300SOL     OW 4040   0.059   3.219   0.776 -0.3981  0.5136  0.0731
 1300SOL    HW1 4041  -0.007   3.179   0.718  0.7697 -2.6303  0.6707
 1300SOL    HW2 4042   0.123   3.257   0.717 -2.0778  2.5738 -0.5288
 1301SOL     OW 4043   1.489   0.696   1.010 -0.1336  0.0485 -0.3279
 1301SOL    HW1 4044   1.418   0.648   0.967 -0.2807  0.1855 -0.2437
 1301SOL    HW2 4045   1.486   0.783   0.971 -0.2611  0.1709 -0.0519
 1302SOL     OW 4046   3.628   0.866   3.745 -0.6283  0.0982 -0.1178
 1302SOL    HW1 4047   3.696   0.805   3.773 -0.4152 -0.4065 -1.6407
 1302SOL    HW2 4048   3.631   0.864   3.649 -0.9407  2.1497 -0.2298
 1303SOL     OW 4049   1.019   1.881   1.209 -0.5703  0.1712  0.2038
 1303SOL    HW1 4050   0.938   1.829   1.203 -1.2213  0.8946  1.9648
 1303SOL    HW2 4051   0.995   1.966   1.172 -0.4201  0.1968  0.1644
 1304SOL     OW 4052   1.713   0.254   0.332 -0.0756  0.2838 -0.1778
 1304SOL    HW1 4053   1.676   0.241   0.420 -0.3212  0.1776 -0.2962
 1304SOL    HW2 4054   1.680   0.180   0.281 -0.9377  1.0131 -0.6897
 1305SOL     OW 4055   1.708   3.056   3.036 -0.2450 -0.1991 -0.4469
 1305SOL    HW1 4056   1.614   3.038   3.035 -0.5884  0.6259  3.2466
 1305SOL    HW2 4057   1.749   2.969   3.036 -1.0735 -0.6002 -0.4195
 1306SOL     OW 4058   1.306   1.064   1.446 -0.6148 -0.3312  0.6721
 1306SOL    HW1 4059   1.284   1.126   1.516  1.1709 -0.8300  1.7290
 1306SOL    HW2 4060   1.289   0.978   1.484 -0.2963 -0.5865  0.2435
 1307SOL     OW 4061   0.635   0.088   2.847  0.4827  0.3035 -0.4275
 1307SOL    HW1 4062   0.697   0.152   2.813  0.2721  0.8002  0.1014
 1307SOL    HW2 4063   0.604   0.126   2.929  1.0745 -0.9073  0.4020
 1308SOL     OW 4064   0.474   1.870   1.649  0.7559  0.2172  0.1886
 1308SOL    HW1 4065   0.434   1.794   1.607  2.4886  0.2657 -1.7063
 1308SOL    HW2 4066   0.407   1.903   1.709 -1.1881 -0.9189 -1.2652
 1309SOL     OW 4067   2.510   3.602   2.386 -0.0035  0.1667 -0.3248
 1309SOL    HW1 4068   2.437   3.615   2.327 -0.2361 -0.1136 -0.1028
 1309SOL    HW2 4069   2.556   3.525   2.351 -0.9183 -0.8313  0.6166
 1310SOL     OW 4070   3.633   3.865   1.781 -0.3524  0.0258 -0.5043
 1310SOL    HW1 4071   3.584   3.784   1.796  2.1705 -1.3795  0.8397
 1310SOL    HW2 4072   3.694   3.869   1.854  0.1017  2.8182 -0.9354
 1311SOL     OW 4073   3.060   1.203   1.299 -0.2386 -0.1118  0.5963
 1311SOL    HW1 4074   3.120   1.225   1.228 -0.8899 -0.1289  0.0321
 1311SOL    HW2 4075   2.974   1.194   1.257 -0.4569 -1.1441  1.2249
 1312SOL     OW 4076   3.331   3.624   2.445 -0.5004  0.4388 -0.8785
 1312SOL    HW1 4077   3.332   3.551   2.383 -1.3960 -0.1527 -0.2177
 1312SOL    HW2 4078   3.241   3.655   2.446 -0.0550  1.8219 -1.4252
 1313SOL     OW 4079   0.315   0.226   2.808  0.7121 -0.0988 -0.1590
 1313SOL    HW1 4080   0.262   0.221   2.887 -1.1380  0.5902 -1.2785
 1313SOL    HW2 4081   0.373   0.301   2.822  0.0674  0.3059  0.3498
 1314SOL     OW 4082   3.590   2.202   1.520  0.1351  0.1903  0.6165
 1314SOL    HW1 4083   3.527   2.270   1.545 -0.8311 -1.0010  1.4917
 1314SOL    HW2 4084   3.675   2.243   1.535 -0.4137  1.4482  0.4713
 1315SOL     OW 4085   1.621   0.922   3.007  0.1444 -0.4945  1.1134
 1315SOL    HW1 4086   1.655   0.878   2.929  0.1572 -1.6669  1.7670
 1315SOL    HW2 4087   1.678   0.892   3.078 -0.2749  0.0391  1.6850
 1316SOL     OW 4088   1.716   1.387   0.579  0.0905  0.2461  0.3043
 1316SOL    HW1 4089   1.785   1.321   0.581 -0.1072  0.0089 -0.5602
 1316SOL    HW2 4090   1.718   1.426   0.667  1.4831  0.4135  0.2203
 1317SOL     OW 4091   0.922   0.039   1.198 -0.0849 -0.3122 -0.1168
 1317SOL    HW1 4092   1.003   0.043   1.146  0.4987  1.4587  0.8316
 1317SOL    HW2 4093   0.853   0.026   1.133  0.8059 -0.1523 -1.1319
 1318SOL     OW 4094   3.462   2.550   1.102 -0.3056  0.6610  0.6109
 1318SOL    HW1 4095   3.484   2.527   1.192  0.0273 -0.6769  0.2041
 1318SOL    HW2 4096   3.518   2.626   1.083  1.6294 -0.6688  0.6830
 1319SOL     OW 4097   2.867   0.928   0.506  0.1270 -0.4274 -0.6917
 1319SOL    HW1 4098   2.898   0.895   0.422  0.0439  2.6117 -2.0455
 1319SOL    HW2 4099   2.785   0.973   0.486 -0.2596 -0.2242  1.1528
 1320SOL     OW 4100   2.765   3.748   2.394 -0.0589 -0.4053 -0.5591
 1320SOL    HW1 4101   2.679   3.707   2.381  1.0216 -2.3492 -2.1041
 1320SOL    HW2 4102   2.790   3.779   2.307  0.4584  0.9212  0.0447
 1321SOL     OW 4103   0.246   0.068   3.040  0.1076  0.5127  0.3014
 1321SOL    HW1 4104   0.240   0.132   3.110 -0.9037  0.3550  0.3733
 1321SOL    HW2 4105   0.157   0.035   3.029  0.5826 -0.8407  0.2307
 1322SOL     OW 4106   2.398   2.514   2.235  0.2570  0.1903  0.1097
 1322SOL    HW1 4107   2.451   2.460   2.176  1.0695  1.7436 -0.6572
 1322SOL    HW2 4108   2.308   2.487   2.218  0.6811 -1.7115  0.6078
 1323SOL     OW 4109   3.189   1.262   3.822 -0.0629 -0.4812 -0.7079
 1323SOL    HW1 4110   3.259   1.199   3.843 -0.9962 -0.8633  1.5731
 1323SOL    HW2 4111   3.216   1.343   3.865 -0.9873 -0.6165  0.1356
 1324SOL     OW 4112   2.662   3.535   3.704  0.0756  0.3882  0.5450
 1324SOL    HW1 4113   2.589   3.474   3.707  1.9680 -2.0606 -0.3018
 1324SOL    HW2 4114   2.682   3.554   3.796 -0.0780 -0.8875  0.8523
 1325SOL     OW 4115   3.018   2.317   0.872  0.2340 -0.3129 -0.6911
 1325SOL    HW1 4116   2.940   2.370   0.853  0.3010 -0.0401 -0.2240
 1325SOL    HW2 4117   3.090   2.367   0.833  0.5507  0.9338  1.3502
 1326SOL     OW 4118   2.904   3.226   2.187 -0.0224 -0.1241  0.0010
 1326SOL    HW1 4119   2.820   3.254   2.223 -0.0705 -0.9044  0.5148
 1326SOL    HW2 4120   2.908   3.132   2.204  0.2574 -0.4041 -1.4514
 1327SOL     OW 4121   3.553   1.216   1.986  0.7761 -0.7263  0.1277
 1327SOL    HW1 4122   3.477   1.252   1.940  0.7016  1.1467  1.6152
 1327SOL    HW2 4123   3.522   1.201   2.075  1.9923 -0.4788  0.6048
 1328SOL     OW 4124   1.585   2.684   2.184  0.3884  0.8120  0.6977
 1328SOL    HW1 4125   1.624   2.598   2.169 -0.3540  0.8434 -2.0090
 1328SOL    HW2 4126   1.494   2.665   2.206  0.1099  0.8898 -0.3506
 1329SOL     OW 4127   1.653   0.031   0.583  0.0577  0.5249 -0.6399
 1329SOL    HW1 4128   1.684  -0.028   0.514  0.7515  0.6304 -0.4275
 1329SOL    HW2 4129   1.577   0.074   0.545 -0.1730 -0.1644 -0.9703
 1330SOL     OW 4130   0.981   0.638   1.097 -0.2199  0.2045  0.3466
 1330SOL    HW1 4131   0.940   0.558   1.066 -1.2582  0.5801  0.7008
 1330SOL    HW2 4132   0.970   0.636   1.192  3.4086 -1.2033  0.9144
 1331SOL     OW 4133   1.136   1.269   0.991  0.3812  0.2325 -0.4318
 1331SOL    HW1 4134   1.153   1.211   1.065 -0.8524 -0.2759 -0.5238
 1331SOL    HW2 4135   1.042   1.289   0.997  0.5108  1.1285 -1.1847
 1332SOL     OW 4136   3.166   3.863   3.543  0.1532 -0.5599  0.2203
 1332SOL    HW1 4137   3.071   3.858   3.545  0.2094 -1.8721  0.7247
 1332SOL    HW2 4138   3.191   3.808   3.469  0.5227 -0.1079  0.0017
 1333SOL     OW 4139   3.751   0.249   3.571 -0.0952 -0.2097 -0.5977
 1333SOL    HW1 4140   3.711   0.331   3.600 -1.0578 -1.0164  0.4441
 1333SOL    HW2 4141   3.742   0.251   3.476 -1.0050  0.4524 -0.5165
 1334SOL     OW 4142   2.879   1.706   3.719 -0.4238 -0.0516 -0.1605
 1334SOL    HW1 4143   2.871   1.650   3.796 -1.9674  1.3401  0.7214
 1334SOL    HW2 4144   2.848   1.651   3.646 -0.8788 -0.6957  0.5104
 1335SOL     OW 4145   1.637   0.792   3.444 -0.3436 -0.6417  0.4488
 1335SOL    HW1 4146   1.556   0.820   3.486  0.3194  0.6123  0.9370
 1335SOL    HW2 4147   1.618   0.795   3.350 -0.6014  0.5146  0.5253
 1336SOL     OW 4148   1.400   0.387   1.255 -0.0363 -0.1640  0.5583
 1336SOL    HW1 4149   1.442   0.303   1.277 -0.3463 -0.0319  1.7040
 1336SOL    HW2 4150   1.310   0.377   1.284 -0.3032  0.2714 -0.0963
 1337SOL     OW 4151   1.533   0.563   2.274  0.5651  0.2132  0.4551
 1337SOL    HW1 4152   1.448   0.603   2.289 -0.0062 -1.8318  3.4535
 1337SOL    HW2 4153   1.581   0.628   2.223 -2.7266  1.4327 -1.3794
 1338SOL     OW 4154   2.990   3.084   1.102 -0.6459 -0.1299 -0.1382
 1338SOL    HW1 4155   3.025   3.146   1.167 -1.8524 -0.0075  0.4386
 1338SOL    HW2 4156   3.011   2.998   1.138  0.8003 -0.0742 -0.8060
 1339SOL     OW 4157   1.634   2.917   3.776 -0.6485  0.0269  0.1340
 1339SOL    HW1 4158   1.621   2.875   3.861 -0.1296 -0.0676  0.1684
 1339SOL    HW2 4159   1.548   2.913   3.734 -0.3061 -2.4259 -0.5008
 1340SOL     OW 4160   0.517   3.702   1.138 -0.0680  0.5157  0.0460
 1340SOL    HW1 4161   0.473   3.619   1.118 -0.8835  0.3772  2.1485
 1340SOL    HW2 4162   0.445   3.765   1.146  0.3841  0.9879  0.4048
 1341SOL     OW 4163   2.372   2.197   2.625  0.0954  0.0937 -0.4830
 1341SOL    HW1 4164   2.308   2.134   2.656 -1.3275  0.7302 -1.9474
 1341SOL    HW2 4165   2.323   2.279   2.615  1.4046  0.9147 -0.5620
 1342SOL     OW 4166   2.759   0.491   2.957 -0.5071  0.6066  0.1634
 1342SOL    HW1 4167   2.754   0.560   2.891  0.8758  1.1380  0.5766
 1342SOL    HW2 4168   2.758   0.538   3.040 -2.1641 -0.0493  0.5555
 1343SOL     OW 4169   2.092   0.872   3.636  0.0775  0.2979 -0.3389
 1343SOL    HW1 4170   2.168   0.814   3.643 -0.2499 -0.0929  0.0178
 1343SOL    HW2 4171   2.017   0.813   3.636 -0.1892  0.6160 -1.7394
 1344SOL     OW 4172   2.283   3.634   2.224 -0.0438  0.2179 -0.1096
 1344SOL    HW1 4173   2.336   3.623   2.145  0.2785 -4.4819  0.4915
 1344SOL    HW2 4174   2.199   3.596   2.202  0.1462 -1.4721  1.8239
 1345SOL     OW 4175   0.619   3.525   3.544 -0.3016 -0.2979 -0.0933
 1345SOL    HW1 4176   0.555   3.587   3.510 -0.9309 -1.1385 -0.4606
 1345SOL    HW2 4177   0.596   3.442   3.505  2.0514 -0.3277 -1.6432
 1346SOL     OW 4178   0.288   1.720   1.535 -0.4543 -0.2128 -0.2211
 1346SOL    HW1 4179   0.252   1.704   1.448  1.4389  2.9631 -1.8009
 1346SOL    HW2 4180   0.216   1.702   1.595 -1.9088 -2.3204 -2.4133
 1347SOL     OW 4181   3.621   0.468   3.569  0.3003 -0.3005 -0.2416
 1347SOL    HW1 4182   3.549   0.473   3.633 -0.8578 -3.2403 -1.1192
 1347SOL    HW2 4183   3.624   0.555   3.530 -1.0820  0.6514  1.5772
 1348SOL     OW 4184   2.240   1.711   0.297 -0.1049 -0.2489  0.0743
 1348SOL    HW1 4185   2.331   1.733   0.279  0.9227 -4.5219 -1.2640
 1348SOL    HW2 4186   2.230   1.721   0.391  1.4610  1.1535  0.1241
 1349SOL     OW 4187   0.886   2.246   2.639 -0.5525  0.1085  0.3301
 1349SOL    HW1 4188   0.872   2.167   2.690  2.8413 -0.5856  0.4100
 1349SOL    HW2 4189   0.953   2.294   2.688  0.4182  1.0054 -1.7715
 1350SOL     OW 4190   1.253   2.260   2.800  0.1348  0.5370 -0.0192
 1350SOL    HW1 4191   1.291   2.311   2.872 -1.8738 -0.7590  2.0926
 1350SOL    HW2 4192   1.304   2.178   2.800 -0.9846 -0.1985  1.1938
 1351SOL     OW 4193   0.336   3.566   2.307 -0.1262  0.0324  0.0156
 1351SOL    HW1 4194   0.253   3.584   2.350  0.4913 -0.0018  1.2573
 1351SOL    HW2 4195   0.399   3.623   2.352  0.3694  0.7501 -1.5143
 1352SOL     OW 4196   1.271   0.634   2.341 -0.6763  0.0211  0.4231
 1352SOL    HW1 4197   1.220   0.640   2.260 -0.8037 -2.3150  0.2744
 1352SOL    HW2 4198   1.221   0.686   2.404 -0.7021  1.6833 -0.8817
 1353SOL     OW 4199   1.547   0.540   1.955  0.1690 -0.0237  0.4820
 1353SOL    HW1 4200   1.484   0.544   2.027  1.0630 -0.2471  1.3040
 1353SOL    HW2 4201   1.633   0.544   1.998  0.7203  1.2358 -0.6620
 1354SOL     OW 4202   2.753   2.978   2.360 -0.0640 -0.4639  0.1696
 1354SOL    HW1 4203   2.751   2.893   2.317  1.1560 -1.5361  2.0831
 1354SOL    HW2 4204   2.661   3.003   2.368 -0.4784 -1.8741  0.0420
 1355SOL     OW 4205   2.620   0.751   2.826  0.0342  0.8011 -0.0596
 1355SOL    HW1 4206   2.629   0.798   2.743 -1.5281  1.6980  0.2353
 1355SOL    HW2 4207   2.540   0.701   2.816  0.1729  0.4222  0.6827
 1356SOL     OW 4208   1.349   2.269   1.915  0.0607  0.6750 -0.0592
 1356SOL    HW1 4209   1.370   2.360   1.894 -1.1881  1.2827  1.1547
 1356SOL    HW2 4210   1.259   2.272   1.948  0.2767 -0.8869  0.7811
 1357SOL     OW 4211   3.451   1.479   3.704 -0.5032 -0.1132 -0.5424
 1357SOL    HW1 4212   3.407   1.486   3.789 -1.2342 -0.0175 -0.9195
 1357SOL    HW2 4213   3.399   1.534   3.645  1.0143  1.2901 -0.6686
 1358SOL     OW 4214   3.820   2.428   0.057  0.0275 -0.0192 -0.3821
 1358SOL    HW1 4215   3.897   2.371   0.049 -0.3834 -0.7474  0.6033
 1358SOL    HW2 4216   3.810   2.441   0.151 -1.4728 -0.5146 -0.4547
 1359SOL     OW 4217   3.591   1.668   2.644 -0.0797  0.9642  0.4187
 1359SOL    HW1 4218   3.686   1.678   2.639  0.0820 -0.7698 -0.8388
 1359SOL    HW2 4219   3.578   1.595   2.705 -0.4497 -0.2193 -1.0140
 1360SOL     OW 4220   0.686   3.617   2.783  0.3950 -0.1447 -0.0007
 1360SOL    HW1 4221   0.593   3.597   2.772  0.1344 -0.2101  1.8865
 1360SOL    HW2 4222   0.687   3.707   2.816  0.8266 -0.7588  1.7958
 1361SOL     OW 4223   1.274   3.040   2.377 -0.2354 -0.2991  0.3779
 1361SOL    HW1 4224   1.334   2.974   2.340 -1.1592  0.5990 -3.1631
 1361SOL    HW2 4225   1.332   3.106   2.416  0.8422 -1.5383  0.9393
 1362SOL     OW 4226   0.008   2.276   1.498  0.3814 -0.2577 -0.1314
 1362SOL    HW1 4227   0.092   2.282   1.544 -0.2720 -0.0064  1.0889
 1362SOL    HW2 4228   0.009   2.190   1.456  1.2239 -0.2776 -0.0893
 1363SOL     OW 4229   0.029   0.958   1.065 -0.2407 -0.1690 -0.8178
 1363SOL    HW1 4230   0.097   0.979   1.129 -0.5302  1.7791 -1.0694
 1363SOL    HW2 4231   0.073   0.962   0.980 -0.7304  1.8662 -1.0469
 1364SOL     OW 4232   0.306   2.595   0.253 -0.3310  0.8709 -0.7655
 1364SOL    HW1 4233   0.274   2.512   0.287  1.6968  0.0754 -0.6259
 1364SOL    HW2 4234   0.261   2.662   0.304 -1.0254 -0.1749  0.0194
 1365SOL     OW 4235   1.416   2.080   1.631  0.4655 -0.4466 -0.0529
 1365SOL    HW1 4236   1.451   2.042   1.711  1.0642 -1.3690 -0.7412
 1365SOL    HW2 4237   1.382   2.006   1.581  2.5733 -0.2768 -1.8845
 1366SOL     OW 4238   2.822   0.356   0.952  0.0450 -0.6905  0.4557
 1366SOL    HW1 4239   2.805   0.298   0.879 -0.5597  0.0020  0.0340
 1366SOL    HW2 4240   2.759   0.330   1.019  1.4097 -2.1419  1.2300
 1367SOL     OW 4241   0.527   2.926   1.025 -0.4282  0.1901 -0.1556
 1367SOL    HW1 4242   0.581   2.969   0.959 -0.7159 -2.8274 -2.6571
 1367SOL    HW2 4243   0.574   2.844   1.045 -1.3926  0.0621  1.8656
 1368SOL     OW 4244   2.418   3.095   0.340 -0.4199 -0.5968 -0.8174
 1368SOL    HW1 4245   2.501   3.135   0.316 -0.0440  1.3400  3.0309
 1368SOL    HW2 4246   2.442   3.013   0.383 -0.3666  0.1820  0.7136
 1369SOL     OW 4247   2.315   0.926   0.845  0.4259  0.3653  0.2015
 1369SOL    HW1 4248   2.345   1.017   0.855 -2.5256  1.3013  1.8353
 1369SOL    HW2 4249   2.340   0.885   0.928  0.4162  0.1475  0.0941
 1370SOL     OW 4250   2.083   0.136   0.816  0.3921 -0.7645 -0.1154
 1370SOL    HW1 4251   2.116   0.093   0.737  0.9034 -1.9327  0.7031
 1370SOL    HW2 4252   2.159   0.180   0.854  0.2688 -0.6646  0.0192
 1371SOL     OW 4253   1.217   0.814   0.435  0.8530  0.3613  0.0406
 1371SOL    HW1 4254   1.275   0.880   0.398 -0.3681  1.9155  0.7573
 1371SOL    HW2 4255   1.193   0.758   0.361  0.7935  1.5899 -0.8948
 1372SOL     OW 4256   3.634   3.633   2.541 -0.0741  0.4556  0.1909
 1372SOL    HW1 4257   3.551   3.655   2.499 -0.0897 -0.0032 -0.0148
 1372SOL    HW2 4258   3.633   3.538   2.550 -0.2111  0.5663  1.5330
 1373SOL     OW 4259   1.558   0.874   1.791  0.0958 -0.7355 -0.1085
 1373SOL    HW1 4260   1.489   0.935   1.764  0.4625 -0.0536  0.4452
 1373SOL    HW2 4261   1.583   0.829   1.711 -0.7256 -0.7119 -0.3836
 1374SOL     OW 4262   3.348   1.062   3.197  0.4801  0.2272 -0.0468
 1374SOL    HW1 4263   3.337   1.114   3.277 -0.4990  0.4091 -0.2873
 1374SOL    HW2 4264   3.331   1.123   3.126 -1.1296 -0.4910 -0.3283
 1375SOL     OW 4265   2.111   2.054   3.361  0.4048 -0.6579 -0.1295
 1375SOL    HW1 4266   2.068   2.128   3.404 -2.0899 -1.5956 -0.8163
 1375SOL    HW2 4267   2.161   2.093   3.289 -0.1151  0.4314  0.0861
 1376SOL     OW 4268   1.396   1.403   0.175 -0.3871 -0.0832  0.4608
 1376SOL    HW1 4269   1.458   1.472   0.200 -0.6844  0.0556  0.8260
 1376SOL    HW2 4270   1.399   1.341   0.247 -0.3777 -0.2758  0.2933
 1377SOL     OW 4271   2.303   3.624   2.590  0.2140  0.6260 -0.4049
 1377SOL    HW1 4272   2.328   3.614   2.498  0.1423  1.1668 -0.4877
 1377SOL    HW2 4273   2.362   3.565   2.637  0.7838  0.9334 -0.7247
 1378SOL     OW 4274   1.051   0.580   0.324  0.3981 -0.1814 -0.2188
 1378SOL    HW1 4275   0.975   0.625   0.287 -0.3856 -0.2597  1.2510
 1378SOL    HW2 4276   1.108   0.564   0.248 -2.2700 -2.6455 -1.9313
 1379SOL     OW 4277   2.132   0.894   3.325  0.6493 -0.8253 -0.2288
 1379SOL    HW1 4278   2.112   0.860   3.412  0.4765  1.0117  0.5052
 1379SOL    HW2 4279   2.223   0.923   3.331 -0.1048  1.7659  0.2826
 1380SOL     OW 4280   2.145   1.937   3.691 -0.3137 -0.1438  0.3386
 1380SOL    HW1 4281   2.110   2.025   3.682 -2.3797 -1.0007 -0.7876
 1380SOL    HW2 4282   2.097   1.899   3.765  0.3833 -0.4156  0.6640
 1381SOL     OW 4283   1.420   1.812   1.592  0.5970 -0.6402 -0.2516
 1381SOL    HW1 4284   1.424   1.743   1.658  0.0023 -1.3328 -0.9232
 1381SOL    HW2 4285   1.423   1.765   1.508 -0.2836  0.1070 -0.7160
 1382SOL     OW 4286   3.738   3.250   1.955 -0.2559  0.5106 -0.1611
 1382SOL    HW1 4287   3.693   3.232   2.037 -1.0531  1.2211 -0.4347
 1382SOL    HW2 4288   3.821   3.290   1.982 -0.2133  0.1050  0.3150
 1383SOL     OW 4289   2.212   0.160   0.571 -0.5534 -0.3443  0.9106
 1383SOL    HW1 4290   2.293   0.192   0.610  0.1616 -0.5630 -0.3641
 1383SOL    HW2 4291   2.150   0.232   0.584  0.4488  0.7294 -0.0241
 1384SOL     OW 4292   2.117   1.563   3.795 -0.5664  0.5874  0.4784
 1384SOL    HW1 4293   2.048   1.597   3.739  0.2893  2.0165  0.2230
 1384SOL    HW2 4294   2.081   1.565   3.883 -1.4232 -0.3162  0.1634
 1385SOL     OW 4295   1.336   0.360   2.985 -0.0314 -0.0950  0.3897
 1385SOL    HW1 4296   1.430   0.342   2.982  0.2660  1.4174 -2.4061
 1385SOL    HW2 4297   1.323   0.404   3.069  2.4117  2.4371 -0.3927
 1386SOL     OW 4298   1.032   3.478   2.325  0.0174 -0.4186  0.3614
 1386SOL    HW1 4299   0.984   3.472   2.407  0.2724  0.0351  0.5501
 1386SOL    HW2 4300   0.965   3.494   2.259  0.0487  3.2249  0.9774
 1387SOL     OW 4301   3.689   1.372   1.076  0.2612 -0.2430  0.3188
 1387SOL    HW1 4302   3.744   1.450   1.076 -0.0141  0.0362 -2.0582
 1387SOL    HW2 4303   3.701   1.335   0.988 -2.2154 -0.9856  0.2236
 1388SOL     OW 4304   3.816   3.342   3.313  0.4423  0.6863 -0.5159
 1388SOL    HW1 4305   3.804   3.436   3.325  0.7044  0.7248 -0.5459
 1388SOL    HW2 4306   3.830   3.331   3.219 -0.6206  0.4982 -0.6608
 1389SOL     OW 4307   3.734   3.390   2.992  0.0653  0.4078  0.1331
 1389SOL    HW1 4308   3.708   3.463   3.049  1.6273  1.1860 -0.0966
 1389SOL    HW2 4309   3.826   3.409   2.970  0.6453 -1.8544  0.4212
 1390SOL     OW 4310   0.982   0.577   1.371 -0.0471 -0.0324 -0.5799
 1390SOL    HW1 4311   0.942   0.590   1.457  0.9153 -0.4669 -0.0465
 1390SOL    HW2 4312   1.054   0.516   1.387  1.4518  1.4729 -1.3127
 1391SOL     OW 4313   1.644   2.829   1.539 -0.2602  0.4785 -0.1337
 1391SOL    HW1 4314   1.600   2.759   1.490  0.1129  0.9873 -1.2370
 1391SOL    HW2 4315   1.653   2.794   1.628 -0.0482 -0.8906 -0.6604
 1392SOL     OW 4316   2.256   0.961   1.353  0.3558  0.0545 -0.0951
 1392SOL    HW1 4317   2.166   0.937   1.329  0.4405 -0.2029 -0.1591
 1392SOL    HW2 4318   2.256   0.961   1.449  1.1290 -3.3339  0.0415
 1393SOL     OW 4319   3.075   1.224   3.084  0.5360 -0.1145 -0.0084
 1393SOL    HW1 4320   3.149   1.254   3.031  0.3945 -0.4631 -0.4122
 1393SOL    HW2 4321   3.045   1.302   3.131  0.9872  0.0859 -0.0538
 1394SOL     OW 4322   2.390   1.285   2.917  0.0671  0.1635  0.2671
 1394SOL    HW1 4323   2.396   1.334   2.835  0.5806  0.4884  0.4978
 1394SOL    HW2 4324   2.480   1.277   2.947  0.1816 -2.1269 -0.4647
 1395SOL     OW 4325   3.048   0.343   2.467  0.1204 -0.5974 -0.1703
 1395SOL    HW1 4326   2.986   0.381   2.530 -0.4025  0.7289 -1.4342
 1395SOL    HW2 4327   3.128   0.393   2.480  0.0363 -0.3765 -0.4935
 1396SOL     OW 4328   3.709   0.049   1.053 -0.2061 -0.0906 -0.6836
 1396SOL    HW1 4329   3.618   0.065   1.076  0.4346  2.4421  0.5214
 1396SOL    HW2 4330   3.731  -0.033   1.096 -1.3341  0.3830  0.8927
 1397SOL     OW 4331   1.441   0.292   0.974 -0.0766  0.4799  0.2714
 1397SOL    HW1 4332   1.390   0.323   1.049 -2.7694  1.1868 -1.6854
 1397SOL    HW2 4333   1.385   0.309   0.899  2.0426 -1.1757 -1.8315
 1398SOL     OW 4334   2.465   3.211   2.244  0.1320 -0.2590  1.6201
 1398SOL    HW1 4335   2.376   3.216   2.210  0.3549 -1.5469  0.7619
 1398SOL    HW2 4336   2.458   3.152   2.320  0.3806 -1.1522  0.9734
 1399SOL     OW 4337   1.733   2.275   3.098 -0.3744  0.0441 -0.1709
 1399SOL    HW1 4338   1.789   2.352   3.102  0.3186 -0.3778 -1.2541
 1399SOL    HW2 4339   1.686   2.275   3.182  0.0211  1.3193  0.0724
 1400SOL     OW 4340   2.886   2.300   1.747  0.0019 -0.1076  0.4603
 1400SOL    HW1 4341   2.920   2.312   1.658 -1.2827 -0.5143 -0.1060
 1400SOL    HW2 4342   2.883   2.389   1.783 -1.3247  0.3328 -0.6289
 1401SOL     OW 4343   3.584   1.830   1.140  0.4796 -0.2782  1.1625
 1401SOL    HW1 4344   3.515   1.856   1.079  1.3532 -0.6317 -0.0275
 1401SOL    HW2 4345   3.550   1.852   1.226 -1.4002 -1.0737  0.6736
 1402SOL     OW 4346   1.026   1.701   0.789  0.5124  1.1435 -0.9217
 1402SOL    HW1 4347   1.117   1.696   0.819 -0.4000  3.5270  2.8732
 1402SOL    HW2 4348   1.006   1.795   0.788 -2.4983  0.6482  0.6557
 1403SOL     OW 4349   0.113   0.544   3.655 -0.3737  0.1615  0.1516
 1403SOL    HW1 4350   0.061   0.612   3.613  2.0300  2.8040  1.0964
 1403SOL    HW2 4351   0.062   0.518   3.732 -0.7057  2.0551  0.6122
 1404SOL     OW 4352   0.564   0.124   0.330 -0.1832  0.3800 -0.1188
 1404SOL    HW1 4353   0.491   0.147   0.388 -1.6800  0.9460 -2.1282
 1404SOL    HW2 4354   0.523   0.106   0.246  2.0230  0.7945 -1.3499
 1405SOL     OW 4355   1.029   1.818   1.686 -0.6152 -0.0587  0.0092
 1405SOL    HW1 4356   1.036   1.754   1.615  0.3965 -0.0358  0.0799
 1405SOL    HW2 4357   0.935   1.830   1.698 -0.8161  0.4315 -1.7703
 1406SOL     OW 4358   1.756   2.272   1.925  0.2244 -0.0334  0.4804
 1406SOL    HW1 4359   1.826   2.275   1.990  1.3549  1.1563 -0.7402
 1406SOL    HW2 4360   1.748   2.362   1.894 -0.4420 -0.5274 -0.8710
 1407SOL     OW 4361   2.952   0.499   2.178 -0.4311 -0.0444  0.0371
 1407SOL    HW1 4362   3.035   0.472   2.218  0.6580 -0.5624 -2.3815
 1407SOL    HW2 4363   2.889   0.433   2.206 -0.1783  0.5477  2.2089
 1408SOL     OW 4364   3.636   0.488   2.147  0.0974 -0.0472 -0.1895
 1408SOL    HW1 4365   3.563   0.537   2.185  0.0944  0.2940 -0.6200
 1408SOL    HW2 4366   3.607   0.398   2.144 -0.0273 -0.0242  0.3117
 1409SOL     OW 4367   0.926   2.363   0.071 -0.6954 -0.3650  0.3268
 1409SOL    HW1 4368   0.879   2.428   0.123  1.9214  0.5721  1.7295
 1409SOL    HW2 4369   0.891   2.373  -0.017 -0.1612  3.3427  0.3868
 1410SOL     OW 4370   2.455   0.265   2.940  0.2738 -0.6205  0.0367
 1410SOL    HW1 4371   2.431   0.332   3.004  0.2033 -1.6964  1.1745
 1410SOL    HW2 4372   2.434   0.304   2.855 -0.9712  0.3043  0.7411
 1411SOL     OW 4373   2.732   0.300   2.278  0.3300 -0.4189  0.6008
 1411SOL    HW1 4374   2.749   0.274   2.369  0.2553 -1.2566  0.3835
 1411SOL    HW2 4375   2.733   0.217   2.229 -1.3813 -0.1874  0.1122
 1412SOL     OW 4376   1.904   3.703   2.888 -0.2679 -0.7773 -0.1421
 1412SOL    HW1 4377   1.814   3.715   2.917 -0.3015  0.6771 -0.7563
 1412SOL    HW2 4378   1.919   3.609   2.894 -1.3314 -0.8924  1.3964
 1413SOL     OW 4379   1.237   0.318   2.359  0.1104  0.6727  0.2249
 1413SOL    HW1 4380   1.243   0.397   2.307  0.1102  0.9376  0.6210
 1413SOL    HW2 4381   1.151   0.324   2.402  0.5085  0.9337  1.0051
 1414SOL     OW 4382   1.121   3.660   3.452  0.1914 -0.2224  0.2912
 1414SOL    HW1 4383   1.028   3.655   3.432  0.3737  1.8414 -1.3853
 1414SOL    HW2 4384   1.158   3.583   3.409 -0.7854 -1.4596  1.5820
 1415SOL     OW 4385   0.611   3.711   1.644 -0.1610  0.4811 -0.1578
 1415SOL    HW1 4386   0.636   3.725   1.553 -0.9089 -2.0182 -0.8298
 1415SOL    HW2 4387   0.520   3.683   1.640 -0.0091 -0.3395  1.2787
 1416SOL     OW 4388   3.236   3.446   3.626  0.1033  0.2412  0.1000
 1416SOL    HW1 4389   3.144   3.419   3.626  0.1825 -0.0470 -0.7647
 1416SOL    HW2 4390   3.235   3.539   3.604 -0.0013  0.3156  0.4188
 1417SOL     OW 4391   3.387   0.446   3.130 -0.2066  0.3732  0.3951
 1417SOL    HW1 4392   3.447   0.418   3.200 -0.1770  1.0234  0.6395
 1417SOL    HW2 4393   3.301   0.446   3.171 -0.6361 -2.1297 -0.4000
 1418SOL     OW 4394   3.777   1.548   2.021  0.3753  0.1886  0.1964
 1418SOL    HW1 4395   3.841   1.598   2.071  0.3082  0.1274  0.3457
 1418SOL    HW2 4396   3.693   1.589   2.042  0.5446  1.5003 -1.4894
 1419SOL     OW 4397   1.869   0.712   3.619  0.1072  0.4806 -0.8675
 1419SOL    HW1 4398   1.802   0.732   3.554 -0.6324  0.2178 -0.2029
 1419SOL    HW2 4399   1.820   0.684   3.696  0.9996 -0.1819 -0.5236
 1420SOL     OW 4400   0.621   3.799   3.732  0.3282  0.3281  0.2101
 1420SOL    HW1 4401   0.554   3.746   3.689 -0.4654  0.8516  0.7554
 1420SOL    HW2 4402   0.649   3.745   3.807 -0.3040  0.5596  0.6254
 1421SOL     OW 4403   2.274   3.763   0.926 -0.1673 -0.0329 -0.2779
 1421SOL    HW1 4404   2.227   3.694   0.881  0.5830 -0.3928 -0.5243
 1421SOL    HW2 4405   2.228   3.844   0.901  0.0285 -0.2604 -1.4147
 1422SOL     OW 4406   0.552   1.359   2.460  0.0817 -0.0683  0.8458
 1422SOL    HW1 4407   0.503   1.287   2.421 -0.2270  1.3982 -1.7037
 1422SOL    HW2 4408   0.641   1.325   2.472  0.0338 -0.7781 -0.6649
 1423SOL     OW 4409   2.411   2.820   0.955 -0.1261  0.2422 -0.3363
 1423SOL    HW1 4410   2.382   2.826   1.046  0.6062 -0.8324 -0.0172
 1423SOL    HW2 4411   2.480   2.885   0.948  0.6686 -0.5199  0.2345
 1424SOL     OW 4412   0.306   1.562   0.538  0.8076 -0.1754  0.0531
 1424SOL    HW1 4413   0.386   1.609   0.514 -0.1012  2.0973  1.2223
 1424SOL    HW2 4414   0.248   1.574   0.463  0.9621 -0.3865 -0.1016
 1425SOL     OW 4415   1.600   2.297   3.663  0.1916 -0.0630 -0.4774
 1425SOL    HW1 4416   1.517   2.250   3.670  0.5602 -0.6119  0.2809
 1425SOL    HW2 4417   1.665   2.230   3.646  0.7832  0.0844  1.0252
 1426SOL     OW 4418   0.899   2.369   1.744  0.6076 -0.5022  0.3704
 1426SOL    HW1 4419   0.860   2.343   1.661  0.6399 -1.4437  0.6429
 1426SOL    HW2 4420   0.898   2.465   1.741  1.0777 -0.5182 -0.9185
 1427SOL     OW 4421   3.818   0.327   2.727  0.3243  0.2289 -0.7817
 1427SOL    HW1 4422   3.773   0.368   2.800  1.4769  0.6065 -0.2552
 1427SOL    HW2 4423   3.752   0.319   2.659 -0.9891 -0.8242  0.5426
 1428SOL     OW 4424   2.839   1.495   0.530 -0.2740  0.0286 -0.1782
 1428SOL    HW1 4425   2.833   1.406   0.564 -0.3603 -0.1659 -0.6848
 1428SOL    HW2 4426   2.789   1.492   0.448 -0.5651  0.6273 -0.0297
 1429SOL     OW 4427   2.610   3.770   1.384 -0.0774  0.1991 -0.3202
 1429SOL    HW1 4428   2.681   3.764   1.449 -0.8549 -0.2509  0.5187
 1429SOL    HW2 4429   2.654   3.770   1.300  0.8832 -1.1493  0.1454
 1430SOL     OW 4430   0.710   2.721   1.915  0.2797 -0.6497 -0.1501
 1430SOL    HW1 4431   0.793   2.701   1.874 -0.6807 -0.5329 -2.3050
 1430SOL    HW2 4432   0.700   2.656   1.984  0.5320 -3.0159 -2.2132
 1431SOL     OW 4433   1.570   0.225   2.953  0.1129  0.2710  0.2407
 1431SOL    HW1 4434   1.510   0.195   2.884  0.0094  4.8151 -2.0399
 1431SOL    HW2 4435   1.657   0.216   2.915  0.1790  1.3710  0.1133
 1432SOL     OW 4436   3.726   0.159   2.242 -0.1494 -0.2207 -0.0394
 1432SOL    HW1 4437   3.709   0.110   2.322  1.1785 -1.6530 -0.5778
 1432SOL    HW2 4438   3.746   0.248   2.271 -0.4705 -0.5219  1.1357
 1433SOL     OW 4439   3.733   0.903   3.041  0.3772  0.5799  0.4877
 1433SOL    HW1 4440   3.721   0.958   2.964 -2.7504 -3.1268 -2.1053
 1433SOL    HW2 4441   3.821   0.867   3.032  0.9217  1.9728  0.0048
 1434SOL     OW 4442   3.573   2.075   0.188  0.6268  0.0958  0.6807
 1434SOL    HW1 4443   3.651   2.118   0.223  0.2696  1.0411  0.3762
 1434SOL    HW2 4444   3.606   2.000   0.139  1.3192  0.2805  0.8576
 1435SOL     OW 4445   2.063   0.029   1.944  0.6709 -0.5403 -0.1456
 1435SOL    HW1 4446   2.081  -0.063   1.929  0.8780 -0.2590 -1.7613
 1435SOL    HW2 4447   2.127   0.056   2.009 -0.4012 -1.8806  1.5589
 1436SOL     OW 4448   1.075   2.881   1.847 -0.3594 -0.1107  0.1324
 1436SOL    HW1 4449   1.019   2.939   1.899  0.4961  1.7887 -0.9260
 1436SOL    HW2 4450   1.105   2.937   1.775  1.1486 -1.6902 -0.5262
 1437SOL     OW 4451   3.636   0.003   3.563 -0.1049  0.3818 -0.4896
 1437SOL    HW1 4452   3.691   0.076   3.591  1.0373 -0.4122 -0.5854
 1437SOL    HW2 4453   3.679  -0.032   3.485 -0.7483 -0.2639 -0.5718
 1438SOL     OW 4454   0.259   1.655   2.694  0.1642  0.4549 -0.0962
 1438SOL    HW1 4455   0.192   1.719   2.671  0.6942  1.2545  0.5316
 1438SOL    HW2 4456   0.229   1.617   2.776  0.6645  1.1053  0.3980
 1439SOL     OW 4457   0.142   2.968   3.573 -0.0147 -0.8120  0.3067
 1439SOL    HW1 4458   0.188   2.987   3.491  0.3275 -0.1681  0.6441
 1439SOL    HW2 4459   0.152   2.873   3.585 -0.7807 -1.0560 -0.8209
 1440SOL     OW 4460   1.254   0.272   3.678 -0.0831 -0.1036  0.5486
 1440SOL    HW1 4461   1.331   0.274   3.620  0.4090  1.2182  1.2149
 1440SOL    HW2 4462   1.221   0.183   3.670 -0.1328  0.0726 -1.8929
 1441SOL     OW 4463   2.833   3.724   3.571  0.0799  0.3553  0.8712
 1441SOL    HW1 4464   2.876   3.773   3.641  0.1750  1.0840  0.3110
 1441SOL    HW2 4465   2.769   3.669   3.616  2.7713 -2.1608  1.9693
 1442SOL     OW 4466   1.703   0.496   2.992 -0.8214  0.4887 -0.1298
 1442SOL    HW1 4467   1.660   0.424   2.946  0.5953 -0.4269 -0.0867
 1442SOL    HW2 4468   1.740   0.550   2.923 -1.0255  0.6202 -0.1362
 1443SOL     OW 4469   1.841   1.490   1.228  0.1342  0.1103  0.4580
 1443SOL    HW1 4470   1.911   1.464   1.288  0.5171  3.1305  1.4717
 1443SOL    HW2 4471   1.761   1.487   1.280 -0.1255 -0.7139  0.0456
 1444SOL     OW 4472   2.442   2.332   3.165 -0.3896 -0.0037 -0.2104
 1444SOL    HW1 4473   2.378   2.384   3.116 -1.2888 -0.2471  0.6527
 1444SOL    HW2 4474   2.469   2.263   3.105 -3.2822 -1.7653  0.3214
 1445SOL     OW 4475   1.220   0.770   1.459  0.7575  0.3116 -0.0017
 1445SOL    HW1 4476   1.163   0.730   1.394 -0.5434  0.9537  0.7128
 1445SOL    HW2 4477   1.308   0.766   1.420  0.4312 -1.7645 -0.6178
 1446SOL     OW 4478   2.096   3.095   2.643 -0.4839  0.0109 -0.1244
 1446SOL    HW1 4479   2.063   3.020   2.593  2.5997 -2.8361  1.6670
 1446SOL    HW2 4480   2.089   3.067   2.734  0.3671  2.1486  0.6650
 1447SOL     OW 4481   1.377   3.611   1.696  0.3398  0.2257 -0.5448
 1447SOL    HW1 4482   1.461   3.643   1.726  1.0269 -0.1394 -1.9773
 1447SOL    HW2 4483   1.378   3.518   1.717 -1.3220  0.8285  2.8783
 1448SOL     OW 4484   0.222   1.370   0.289 -0.1343  0.1529 -0.6729
 1448SOL    HW1 4485   0.153   1.317   0.329  0.5445 -0.3278 -0.1138
 1448SOL    HW2 4486   0.259   1.314   0.220  0.3550  0.0160 -0.3072
 1449SOL     OW 4487   1.036   2.770   3.497 -0.0107 -0.1643 -0.2120
 1449SOL    HW1 4488   1.124   2.787   3.463 -0.2329  2.4332  0.2879
 1449SOL    HW2 4489   1.026   2.832   3.569 -1.0991 -2.6562  1.9100
 1450SOL     OW 4490   1.244   2.390   1.080 -0.5268  0.0158 -0.8908
 1450SOL    HW1 4491   1.168   2.448   1.082 -0.2522  0.3688  0.2663
 1450SOL    HW2 4492   1.318   2.449   1.096 -0.1087 -0.4662 -1.0448
 1451SOL     OW 4493   0.604   3.157   1.458  0.0825 -0.8769  0.2464
 1451SOL    HW1 4494   0.550   3.214   1.514  0.0115  3.0024 -3.2310
 1451SOL    HW2 4495   0.691   3.196   1.461  1.3899 -3.6426  1.3662
 1452SOL     OW 4496   0.212   2.297   3.787  0.2074 -0.1526 -0.3082
 1452SOL    HW1 4497   0.261   2.362   3.737  1.9904 -0.2934  1.1491
 1452SOL    HW2 4498   0.277   2.256   3.843 -0.9016 -3.0773 -0.9948
 1453SOL     OW 4499   3.032   3.676   2.458 -0.0120 -0.2108 -0.4151
 1453SOL    HW1 4500   3.020   3.633   2.373  0.6062 -2.4656  0.5931
 1453SOL    HW2 4501   2.950   3.724   2.472  0.2705  1.1144 -2.7303
 1454SOL     OW 4502   3.586   2.855   0.737 -0.1905  0.3595  0.3857
 1454SOL    HW1 4503   3.586   2.864   0.642  0.8760 -0.1336  0.3318
 1454SOL    HW2 4504   3.551   2.768   0.753  0.6306  0.0230  0.3894
 1455SOL     OW 4505   3.591   2.215   2.234  0.3486 -0.2810 -0.3376
 1455SOL    HW1 4506   3.535   2.249   2.304  2.0914 -0.6158  1.2860
 1455SOL    HW2 4507   3.646   2.149   2.276  0.6897 -1.3273 -2.2904
 1456SOL     OW 4508   2.735   1.801   1.400 -0.0256 -0.5912 -0.2610
 1456SOL    HW1 4509   2.808   1.835   1.347  0.8429  0.1211  1.3240
 1456SOL    HW2 4510   2.665   1.865   1.388 -0.7225 -1.6269 -2.3396
 1457SOL     OW 4511   0.542   1.138   3.456  0.3948 -0.5687 -0.0924
 1457SOL    HW1 4512   0.479   1.168   3.521  0.2974 -0.5578 -0.1906
 1457SOL    HW2 4513   0.583   1.218   3.423  0.0906 -0.5362 -0.3995
 1458SOL     OW 4514   1.786   0.064   0.105  0.6601 -0.5261 -0.9821
 1458SOL    HW1 4515   1.772   0.102   0.019  0.6445 -1.0522 -1.2152
 1458SOL    HW2 4516   1.859   0.114   0.142 -0.7780  1.2048 -0.3739
 1459SOL     OW 4517   2.459   0.060   1.076 -0.0080 -0.0561  0.5610
 1459SOL    HW1 4518   2.434   0.003   1.003  0.5193  0.7544 -0.2763
 1459SOL    HW2 4519   2.413   0.024   1.151 -2.3174  0.3535 -0.5605
 1460SOL     OW 4520   3.006   2.386   1.524  0.0171 -0.2874 -0.0779
 1460SOL    HW1 4521   3.039   2.432   1.447 -0.2273 -1.2808 -0.7937
 1460SOL    HW2 4522   2.946   2.320   1.489 -0.4739 -0.4360  1.0000
 1461SOL     OW 4523   1.844   0.886   0.182  0.0908 -0.2216  0.0065
 1461SOL    HW1 4524   1.938   0.868   0.172 -0.1687 -1.3208 -0.6029
 1461SOL    HW2 4525   1.840   0.959   0.244  1.5098  2.3079 -2.6434
 1462SOL     OW 4526   3.083   2.917   0.856  0.2812  0.1632 -0.7471
 1462SOL    HW1 4527   3.130   2.943   0.777  0.7002  1.7110 -0.0271
 1462SOL    HW2 4528   3.152   2.910   0.923 -0.2633  0.5052 -0.1423
 1463SOL     OW 4529   3.200   1.101   3.500  0.0730  0.1092 -0.2611
 1463SOL    HW1 4530   3.262   1.169   3.474  0.7389 -0.9604 -1.5837
 1463SOL    HW2 4531   3.129   1.149   3.544  1.6151  1.3958  0.9575
 1464SOL     OW 4532   1.450   3.464   0.381  0.3758  0.5378  0.1117
 1464SOL    HW1 4533   1.510   3.442   0.453  1.6706 -1.1669 -1.3953
 1464SOL    HW2 4534   1.507   3.497   0.312 -0.4815 -0.4977 -1.1290
 1465SOL     OW 4535   0.183   3.279   3.503 -0.5331 -0.2218 -0.0896
 1465SOL    HW1 4536   0.132   3.199   3.489 -1.0800  0.4711 -2.6698
 1465SOL    HW2 4537   0.122   3.350   3.480 -0.1345  1.0054  2.3173
 1466SOL     OW 4538   2.515   3.083   1.988  0.3099 -0.0506  0.4821
 1466SOL    HW1 4539   2.528   3.102   2.081  0.0387  1.2991  0.2625
 1466SOL    HW2 4540   2.448   3.145   1.960  0.8398 -0.0154 -0.7655
 1467SOL     OW 4541   0.081   0.992   2.424 -0.3811  0.5364 -0.1416
 1467SOL    HW1 4542  -0.006   0.979   2.385 -0.7251  2.4345 -0.1085
 1467SOL    HW2 4543   0.141   0.991   2.349 -0.7274  1.5416 -0.4466
 1468SOL     OW 4544   0.860   1.482   3.292  0.3901 -0.2162 -0.2592
 1468SOL    HW1 4545   0.888   1.573   3.306 -0.3873  0.0532 -0.4031
 1468SOL    HW2 4546   0.812   1.459   3.371  0.0132 -0.2746 -0.5040
 1469SOL     OW 4547   1.270   1.426   1.820 -0.2612  0.5601 -0.5936
 1469SOL    HW1 4548   1.229   1.376   1.749  1.2003 -1.5306 -0.0747
 1469SOL    HW2 4549   1.203   1.432   1.887 -0.7732  0.1109 -1.0539
 1470SOL     OW 4550   2.684   2.961   3.539 -0.1487 -0.1654 -0.4507
 1470SOL    HW1 4551   2.749   2.937   3.472  0.2849 -3.3363  0.9026
 1470SOL    HW2 4552   2.633   3.031   3.499  1.6256 -0.2441 -3.1113
 1471SOL     OW 4553   2.389   1.426   1.006 -0.2555 -0.0391  0.4429
 1471SOL    HW1 4554   2.320   1.487   0.979  0.4390  0.2026 -0.9000
 1471SOL    HW2 4555   2.441   1.475   1.069 -1.5051 -0.3580  1.7738
 1472SOL     OW 4556   0.324   2.215   0.189  0.4477  0.8730 -0.2953
 1472SOL    HW1 4557   0.415   2.206   0.217  0.8151 -1.0209 -1.8564
 1472SOL    HW2 4558   0.273   2.211   0.270  1.6489 -0.7334  0.4324
 1473SOL     OW 4559   0.339   2.774   2.390  0.0618  0.3360 -0.2363
 1473SOL    HW1 4560   0.273   2.805   2.329 -0.3781  1.1952  0.6446
 1473SOL    HW2 4561   0.396   2.850   2.405  0.6816 -0.1160 -0.2473
 1474SOL     OW 4562   2.150   2.851   0.267 -0.4180  0.2850  0.5835
 1474SOL    HW1 4563   2.173   2.944   0.257 -0.2378  0.0887 -0.9750
 1474SOL    HW2 4564   2.164   2.834   0.361  3.4151  0.8688  0.3165
 1475SOL     OW 4565   3.115   2.516   3.626 -0.1959 -0.4708 -0.4346
 1475SOL    HW1 4566   3.076   2.514   3.539  1.0664 -0.6677 -1.0184
 1475SOL    HW2 4567   3.083   2.597   3.666 -0.8103 -0.3995 -1.0585
 1476SOL     OW 4568   0.723   2.424   2.017 -0.2096 -0.6988 -0.1521
 1476SOL    HW1 4569   0.723   2.339   1.973  0.4862 -1.1943  0.7816
 1476SOL    HW2 4570   0.814   2.438   2.042 -0.3108  0.3408 -0.3127
 1477SOL     OW 4571   3.094   3.595   3.049 -0.2638 -0.0695  0.3292
 1477SOL    HW1 4572   3.149   3.531   3.094 -0.1554  0.0900  0.4268
 1477SOL    HW2 4573   3.126   3.596   2.959 -0.1681 -0.0474  0.3631
 1478SOL     OW 4574   1.205   3.353   1.429 -0.1730 -0.0034  0.0175
 1478SOL    HW1 4575   1.227   3.431   1.481  0.3161  0.0660 -0.2865
 1478SOL    HW2 4576   1.288   3.326   1.389 -0.2480 -0.9670  0.4916
 1479SOL     OW 4577   0.855   1.288   2.430  0.6044  0.0999 -0.5377
 1479SOL    HW1 4578   0.928   1.229   2.415  2.4233  1.9130  0.6034
 1479SOL    HW2 4579   0.896   1.371   2.456 -1.8452  1.4082 -0.5035
 1480SOL     OW 4580   0.528   0.375   2.514 -0.5699 -0.2593 -0.2124
 1480SOL    HW1 4581   0.477   0.455   2.526  0.0515  0.3103 -1.1397
 1480SOL    HW2 4582   0.608   0.405   2.469  1.2003 -0.8974  2.2823
 1481SOL     OW 4583   1.247   3.159   2.001 -0.2161 -0.5985 -0.4619
 1481SOL    HW1 4584   1.155   3.163   2.027 -0.4486  0.5888 -1.3906
 1481SOL    HW2 4585   1.274   3.069   2.021 -1.8091 -1.2169 -0.9410
 1482SOL     OW 4586   2.036   3.324   2.532 -0.1608 -0.0615  0.7230
 1482SOL    HW1 4587   2.081   3.251   2.576  0.4705 -0.9804 -1.3289
 1482SOL    HW2 4588   1.962   3.282   2.486  1.7858 -0.0132 -2.7901
 1483SOL     OW 4589   1.408   0.604   2.864  0.2754  0.5405 -0.0091
 1483SOL    HW1 4590   1.324   0.576   2.900  1.1405 -0.9636  0.9265
 1483SOL    HW2 4591   1.431   0.536   2.801  1.4465  0.1456  0.8054
 1484SOL     OW 4592   2.681   0.595   0.975 -0.7290  0.1072 -0.1041
 1484SOL    HW1 4593   2.748   0.652   1.013 -0.4868 -1.3400  1.8210
 1484SOL    HW2 4594   2.730   0.523   0.935 -1.0955 -0.2516  0.0883
 1485SOL     OW 4595   2.967   1.050   2.060 -0.0378  0.1635  0.1306
 1485SOL    HW1 4596   2.947   0.979   1.999 -2.2541 -0.8736  1.9280
 1485SOL    HW2 4597   2.919   1.027   2.140  1.2095  2.4317  1.6279
 1486SOL     OW 4598   3.856   2.914   2.236  0.3143 -0.5395  0.1479
 1486SOL    HW1 4599   3.844   2.865   2.155 -0.1685  0.6416 -0.5182
 1486SOL    HW2 4600   3.770   2.911   2.278 -0.0595  0.7377 -0.4892
 1487SOL     OW 4601   0.127   3.519   2.950  0.3087 -0.2186 -0.2858
 1487SOL    HW1 4602   0.220   3.526   2.973  0.1793  0.4075  0.0734
 1487SOL    HW2 4603   0.090   3.603   2.978 -0.9586 -1.5376  2.3423
 1488SOL     OW 4604   2.146   0.868   0.469  0.6872 -0.4849  0.0445
 1488SOL    HW1 4605   2.193   0.933   0.416 -0.8193  0.6921  0.0708
 1488SOL    HW2 4606   2.096   0.921   0.532  0.8955 -1.7707  1.3434
 1489SOL     OW 4607   3.455   3.323   3.040  0.2816 -0.1906 -0.2248
 1489SOL    HW1 4608   3.542   3.322   2.999  1.7996 -3.1969  2.6360
 1489SOL    HW2 4609   3.412   3.244   3.007 -1.8898  1.6517 -2.2264
 1490SOL     OW 4610   0.192   0.223   1.812  0.0360  0.0434 -0.7363
 1490SOL    HW1 4611   0.280   0.236   1.777  0.9861 -0.4982  1.3059
 1490SOL    HW2 4612   0.162   0.142   1.771  0.9719 -0.3933 -0.5957
 1491SOL     OW 4613   3.755   0.183   3.252  0.2004 -0.2932 -0.1872
 1491SOL    HW1 4614   3.662   0.199   3.235  0.4913  1.5722 -0.2157
 1491SOL    HW2 4615   3.794   0.171   3.166 -0.0858 -1.6311 -0.1449
 1492SOL     OW 4616   0.275   1.723   1.836 -1.0704  0.0423  0.7076
 1492SOL    HW1 4617   0.328   1.681   1.904  0.0056 -4.1955 -2.3825
 1492SOL    HW2 4618   0.195   1.671   1.832 -0.6941 -0.4651 -1.7798
 1493SOL     OW 4619   2.249   3.816   3.318  0.2454  0.4580 -0.9141
 1493SOL    HW1 4620   2.153   3.814   3.318  0.0669  3.7404 -0.0395
 1493SOL    HW2 4621   2.274   3.761   3.392 -1.1565  1.7400  0.5862
 1494SOL     OW 4622   2.836   2.300   0.079 -0.4626  0.1712 -0.1009
 1494SOL    HW1 4623   2.858   2.300   0.172  0.6672  1.4117 -0.3322
 1494SOL    HW2 4624   2.920   2.292   0.034 -0.9770 -0.2827 -1.0302
 1495SOL     OW 4625   3.813   0.579   1.230  0.0961  0.4044  0.4875
 1495SOL    HW1 4626   3.895   0.538   1.258  1.0316 -0.3501 -2.8894
 1495SOL    HW2 4627   3.753   0.505   1.216  0.6351  0.3584 -2.1406
 1496SOL     OW 4628   2.253   3.203   0.981 -0.7537 -0.0885  0.6605
 1496SOL    HW1 4629   2.296   3.273   0.933  0.2235 -0.0062  1.6282
 1496SOL    HW2 4630   2.202   3.156   0.914 -0.7645  1.0259 -0.1403
 1497SOL     OW 4631   1.664   3.356   2.065 -0.6321 -0.4526 -0.1858
 1497SOL    HW1 4632   1.650   3.424   2.131 -3.3574  1.2477 -2.2940
 1497SOL    HW2 4633   1.646   3.274   2.112  2.5569  0.1148  2.3736
 1498SOL     OW 4634   0.091   3.681   0.545  0.5675 -0.2055  0.1867
 1498SOL    HW1 4635   0.038   3.706   0.469 -1.1874 -0.8553  1.1471
 1498SOL    HW2 4636   0.034   3.626   0.597  1.2350  1.3651  2.7314
 1499SOL     OW 4637   3.815   3.607   0.305 -0.0265 -0.0301 -0.0595
 1499SOL    HW1 4638   3.748   3.623   0.240  0.1194  0.5294 -0.0758
 1499SOL    HW2 4639   3.842   3.516   0.290 -0.1470  0.0284 -0.6291
 1500SOL     OW 4640   0.682   0.061   0.718  0.0497 -0.5762  0.1131
 1500SOL    HW1 4641   0.594   0.029   0.738 -0.3734  0.2573 -0.3574
 1500SOL    HW2 4642   0.700   0.032   0.629  0.8877 -2.0516  0.7220
 1501SOL     OW 4643   3.686   1.412   1.803 -0.2095 -0.7289  0.0268
 1501SOL    HW1 4644   3.695   1.449   1.891 -0.5063  1.4059 -0.7824
 1501SOL    HW2 4645   3.641   1.328   1.817  0.5509 -0.8714  1.9611
 1502SOL     OW 4646   0.219   2.979   1.957 -0.2081  0.3268 -0.2294
 1502SOL    HW1 4647   0.253   3.068   1.952  0.5765 -0.0082 -1.7998
 1502SOL    HW2 4648   0.296   2.925   1.974 -0.5403 -0.1257 -0.1520
 1503SOL     OW 4649   1.198   2.501   0.214 -0.1033  0.0825  0.0197
 1503SOL    HW1 4650   1.106   2.519   0.196 -1.0220 -1.9517  2.0594
 1503SOL    HW2 4651   1.245   2.575   0.178 -2.6122  1.5628 -0.4410
 1504SOL     OW 4652   0.262   0.366   3.803 -0.1148 -0.1554 -0.3533
 1504SOL    HW1 4653   0.245   0.435   3.739  0.0860 -1.7075 -2.1817
 1504SOL    HW2 4654   0.343   0.391   3.846 -0.7263  1.3711 -0.0301
 1505SOL     OW 4655   1.090   3.021   2.891 -0.6004 -0.2217 -0.7041
 1505SOL    HW1 4656   1.006   3.067   2.887 -0.3847  0.3472  0.8867
 1505SOL    HW2 4657   1.150   3.085   2.928  0.6103 -0.5595 -2.0147
 1506SOL     OW 4658   1.468   0.231   1.862  0.3228  0.1873 -0.8487
 1506SOL    HW1 4659   1.511   0.315   1.880  2.1737 -1.0279  0.7980
 1506SOL    HW2 4660   1.456   0.192   1.949 -2.6425 -0.3077 -1.3702
 1507SOL     OW 4661   0.366   3.592   0.551  0.3192 -0.0910  0.6791
 1507SOL    HW1 4662   0.415   3.581   0.633  1.6956  2.6576  0.3453
 1507SOL    HW2 4663   0.286   3.637   0.577  0.8670  1.0019  0.5379
 1508SOL     OW 4664   2.824   0.934   2.246 -0.0681 -0.5677  1.0423
 1508SOL    HW1 4665   2.819   0.839   2.258  0.8935 -0.9732 -1.3261
 1508SOL    HW2 4666   2.742   0.956   2.201 -0.0256 -0.3676  1.0637
 1509SOL     OW 4667   0.479   1.819   2.781  0.0820  0.4360  0.2549
 1509SOL    HW1 4668   0.492   1.859   2.695 -0.0204 -0.4254 -0.1718
 1509SOL    HW2 4669   0.410   1.754   2.767  1.0365 -0.6999  0.6491
 1510SOL     OW 4670   2.960   0.164   1.306 -0.1448  0.0333  0.2726
 1510SOL    HW1 4671   2.895   0.148   1.238 -2.1722 -1.1624  2.3565
 1510SOL    HW2 4672   2.946   0.256   1.331 -1.1890 -0.2712  0.8352
 1511SOL     OW 4673   1.693   2.381   2.246 -0.8418  0.1582  0.3518
 1511SOL    HW1 4674   1.630   2.315   2.216 -1.6624 -0.0561  2.4274
 1511SOL    HW2 4675   1.718   2.352   2.333  3.3424 -0.5807 -0.8941
 1512SOL     OW 4676   3.124   1.884   1.619  0.2440 -0.3519  0.1745
 1512SOL    HW1 4677   3.066   1.922   1.685  0.4313 -1.2837  0.8889
 1512SOL    HW2 4678   3.076   1.809   1.585  0.3030 -0.0901 -0.5057
 1513SOL     OW 4679   1.840   2.086   2.933  0.0468  0.7585 -0.1380
 1513SOL    HW1 4680   1.795   2.128   3.006 -0.4110  0.0958 -0.0326
 1513SOL    HW2 4681   1.900   2.023   2.975  0.0155  0.6047 -0.3227
 1514SOL     OW 4682   2.330   0.749   2.734  0.6511 -0.3129 -0.2704
 1514SOL    HW1 4683   2.278   0.752   2.654 -0.0763 -2.0457  0.0965
 1514SOL    HW2 4684   2.279   0.800   2.798  0.2958 -0.4927 -0.4076
 1515SOL     OW 4685   3.145   0.599   1.359  0.2584  0.4018 -0.7145
 1515SOL    HW1 4686   3.105   0.521   1.320 -0.6578  0.3161  0.3247
 1515SOL    HW2 4687   3.236   0.574   1.374 -0.0934 -0.6241 -0.0963
 1516SOL     OW 4688   2.109   0.220   2.301  0.4034 -0.1203 -0.5945
 1516SOL    HW1 4689   2.160   0.246   2.378  1.3483 -1.1588 -0.8493
 1516SOL    HW2 4690   2.151   0.266   2.228 -0.4419  0.7991 -0.5182
 1517SOL     OW 4691   2.299   3.559   0.159 -0.5187  0.0619  0.5981
 1517SOL    HW1 4692   2.366   3.491   0.148 -1.3653 -0.6512 -0.2755
 1517SOL    HW2 4693   2.343   3.640   0.132  0.8497  0.1031  2.6875
 1518SOL     OW 4694   1.747   1.472   1.739 -0.1694  0.1563 -0.7171
 1518SOL    HW1 4695   1.729   1.518   1.658 -3.0360 -0.5801 -0.6111
 1518SOL    HW2 4696   1.744   1.379   1.715  1.2943 -0.0661 -0.1535
 1519SOL     OW 4697   3.272   0.379   2.214 -0.1960  0.2645 -0.5198
 1519SOL    HW1 4698   3.344   0.328   2.251  1.9105  2.5110 -1.2031
 1519SOL    HW2 4699   3.261   0.344   2.125 -0.5530 -0.6150 -0.1460
 1520SOL     OW 4700   2.586   2.536   0.901 -0.1490 -0.3478  0.3700
 1520SOL    HW1 4701   2.584   2.589   0.821  0.3318 -1.1023 -0.1613
 1520SOL    HW2 4702   2.575   2.599   0.972  3.9375  1.0492  0.0275
 1521SOL     OW 4703   2.885   0.042   1.565 -0.1158 -0.6379 -0.8701
 1521SOL    HW1 4704   2.917   0.076   1.482  1.2484  0.2447 -0.0256
 1521SOL    HW2 4705   2.835   0.114   1.603  0.8288 -0.3491 -0.1178
 1522SOL     OW 4706   3.269   1.347   2.983  0.4355 -0.5496  0.1363
 1522SOL    HW1 4707   3.234   1.411   2.921  0.0296 -2.0700 -1.2598
 1522SOL    HW2 4708   3.313   1.400   3.049  1.6031  1.1422 -1.8665
 1523SOL     OW 4709   0.982   3.714   2.633  0.5503 -0.1396 -0.1704
 1523SOL    HW1 4710   0.947   3.780   2.572  0.2678 -1.4575 -1.4800
 1523SOL    HW2 4711   1.020   3.766   2.703  3.9199  1.6470 -3.0073
 1524SOL     OW 4712   0.720   3.255   0.397 -0.1906  0.4113 -0.1065
 1524SOL    HW1 4713   0.718   3.318   0.469  0.1443 -0.2683  0.5085
 1524SOL    HW2 4714   0.785   3.190   0.423  1.0858  0.9730 -1.7416
 1525SOL     OW 4715   2.433   2.664   1.200  0.9703  1.2063 -0.5637
 1525SOL    HW1 4716   2.515   2.681   1.246 -0.3795  0.3378  2.4150
 1525SOL    HW2 4717   2.434   2.569   1.185  0.4043  1.1441 -0.2361
 1526SOL     OW 4718   2.554   2.793   1.773  0.7170 -0.6203 -0.0069
 1526SOL    HW1 4719   2.561   2.706   1.810 -0.3099 -0.9672 -0.5776
 1526SOL    HW2 4720   2.558   2.779   1.678  2.9918  0.2073 -0.1053
 1527SOL     OW 4721   1.580   3.523   1.428  0.5981  0.1240 -0.1246
 1527SOL    HW1 4722   1.537   3.492   1.349  1.3287 -0.2231 -0.3979
 1527SOL    HW2 4723   1.548   3.465   1.497 -0.3154  0.6548 -0.0885
 1528SOL     OW 4724   3.677   1.953   0.868 -0.0513 -0.4579  0.2908
 1528SOL    HW1 4725   3.631   1.935   0.949 -0.6536 -0.1848  0.0141
 1528SOL    HW2 4726   3.739   2.023   0.890 -0.4982 -0.1022  0.4203
 1529SOL     OW 4727   2.575   1.137   2.503  0.1023 -0.1364 -0.5337
 1529SOL    HW1 4728   2.552   1.200   2.571  0.6960  0.7758 -1.1603
 1529SOL    HW2 4729   2.556   1.182   2.421  1.2944 -0.4705 -1.0135
 1530SOL     OW 4730   2.605   1.629   0.640  0.0993 -0.0973  0.5751
 1530SOL    HW1 4731   2.667   1.633   0.567 -0.5581 -2.2434 -0.1576
 1530SOL    HW2 4732   2.659   1.634   0.719  0.7649  3.3342  0.0865
 1531SOL     OW 4733   1.272   2.901   2.043 -0.0743  0.1797  0.5396
 1531SOL    HW1 4734   1.183   2.874   2.064  0.5927 -0.8290  2.2447
 1531SOL    HW2 4735   1.328   2.842   2.092  1.5433  1.4414  0.3172
 1532SOL     OW 4736   1.860   3.081   3.702 -0.0921  0.0059  0.3892
 1532SOL    HW1 4737   1.860   3.148   3.770 -0.5569 -1.0274  1.4365
 1532SOL    HW2 4738   1.783   3.027   3.721 -0.0398 -0.5106 -0.7575
 1533SOL     OW 4739   1.518   0.653   3.155  0.0187  0.3281 -0.2633
 1533SOL    HW1 4740   1.531   0.694   3.069 -1.0082  0.4176 -0.3856
 1533SOL    HW2 4741   1.592   0.592   3.163 -0.4749 -0.5296 -1.7222
 1534SOL     OW 4742   3.289   0.744   3.680 -0.4251 -0.6516 -0.1275
 1534SOL    HW1 4743   3.220   0.795   3.723 -1.9968 -1.2709 -1.8024
 1534SOL    HW2 4744   3.242   0.688   3.618  1.6524 -0.5415 -1.9022
 1535SOL     OW 4745   0.991   0.186   2.124  0.6387 -0.0113  0.3249
 1535SOL    HW1 4746   1.021   0.213   2.037  1.1191 -0.7201  0.2639
 1535SOL    HW2 4747   0.936   0.258   2.154 -0.1546 -0.0734 -0.8876
 1536SOL     OW 4748   1.302   2.690   0.088  0.2812  0.2456  0.4916
 1536SOL    HW1 4749   1.315   2.611   0.035  1.8061 -0.0718  1.2605
 1536SOL    HW2 4750   1.273   2.756   0.026 -0.9480 -0.8790 -0.1886
 1537SOL     OW 4751   2.219   2.834   0.525 -0.2172  0.4698  0.6495
 1537SOL    HW1 4752   2.271   2.764   0.488  0.3642  0.6267  1.1531
 1537SOL    HW2 4753   2.282   2.889   0.571 -0.9105  0.2214  1.9475
 1538SOL     OW 4754   1.303   3.459   3.254  0.3524 -0.1488 -0.8072
 1538SOL    HW1 4755   1.394   3.447   3.283  0.3368  2.3553  0.5368
 1538SOL    HW2 4756   1.308   3.533   3.192 -1.0538  2.2552  1.7205
 1539SOL     OW 4757   0.902   0.385   0.998 -0.0399  0.8336  0.2241
 1539SOL    HW1 4758   0.862   0.376   0.911  0.8481  3.5334 -0.5823
 1539SOL    HW2 4759   0.945   0.301   1.014 -3.4395 -1.1367 -0.1342
 1540SOL     OW 4760   1.934   3.811   1.505 -0.4050  0.1749 -0.1477
 1540SOL    HW1 4761   2.001   3.867   1.465 -1.9064  2.8847  0.8528
 1540SOL    HW2 4762   1.875   3.788   1.433 -0.5594  1.1624 -0.3568
 1541SOL     OW 4763   0.389   1.893   1.110  0.4133  0.5215  0.2268
 1541SOL    HW1 4764   0.382   1.937   1.194  0.0199  1.5434 -0.3275
 1541SOL    HW2 4765   0.469   1.840   1.117  1.2772  1.8495  0.6631
 1542SOL     OW 4766   0.132   2.129   0.517 -0.6382  0.0561  0.0028
 1542SOL    HW1 4767   0.125   2.033   0.520 -0.2299 -0.0103 -0.8359
 1542SOL    HW2 4768   0.171   2.153   0.601  1.4156 -0.7337 -0.6714
 1543SOL     OW 4769   2.307   0.316   2.506  0.6485 -0.1582  0.1914
 1543SOL    HW1 4770   2.355   0.235   2.526  1.1858  0.1410  0.1357
 1543SOL    HW2 4771   2.324   0.373   2.580 -0.9386 -0.6092  0.9303
 1544SOL     OW 4772   2.736   1.939   0.103 -0.0797 -0.2418  0.6978
 1544SOL    HW1 4773   2.666   1.906   0.048  0.7344 -1.4824  0.3814
 1544SOL    HW2 4774   2.797   1.981   0.042  0.1150 -0.3552  0.8135
 1545SOL     OW 4775   3.178   3.192   0.675  0.4773  0.2051 -0.0812
 1545SOL    HW1 4776   3.260   3.157   0.640  1.5434  1.7811  0.7289
 1545SOL    HW2 4777   3.202   3.231   0.759 -1.1023  0.7481  0.1546
 1546SOL     OW 4778   1.657   0.765   2.135 -0.2976  0.1794  0.0761
 1546SOL    HW1 4779   1.741   0.748   2.094 -0.9534  0.7720 -1.5930
 1546SOL    HW2 4780   1.626   0.846   2.093 -2.3224 -0.7772 -0.3766
 1547SOL     OW 4781   2.025   1.910   1.705  0.2539  0.1400 -0.2428
 1547SOL    HW1 4782   1.950   1.964   1.733  0.1325  0.3935 -1.0389
 1547SOL    HW2 4783   1.991   1.857   1.634  1.9089  3.7161 -4.1315
 1548SOL     OW 4784   2.468   3.269   2.660 -0.1759 -0.5108 -0.0140
 1548SOL    HW1 4785   2.421   3.302   2.583 -1.5374  0.0895  1.0301
 1548SOL    HW2 4786   2.405   3.277   2.731  1.3598 -0.1410  1.3595
 1549SOL     OW 4787   2.538   1.995   1.628  0.1444  0.3532  0.1762
 1549SOL    HW1 4788   2.593   2.057   1.676 -1.3222  2.2027 -0.3840
 1549SOL    HW2 4789   2.562   2.007   1.536  0.3785 -0.4797  0.1229
 1550SOL     OW 4790   1.642   1.297   3.619  0.2646  0.1995 -0.8918
 1550SOL    HW1 4791   1.721   1.352   3.619  0.1962  0.2966 -0.9471
 1550SOL    HW2 4792   1.676   1.208   3.612  0.2943  0.3548 -3.8671
 1551SOL     OW 4793   3.453   0.524   3.788  0.4473 -0.2715  0.6003
 1551SOL    HW1 4794   3.426   0.481   3.869 -3.0868 -1.0118 -0.8041
 1551SOL    HW2 4795   3.399   0.603   3.784  0.6841 -0.1554 -0.9285
 1552SOL     OW 4796   2.856   0.045   2.159 -0.2512 -0.9906  0.0538
 1552SOL    HW1 4797   2.942   0.020   2.190  0.2756  0.0042 -0.5546
 1552SOL    HW2 4798   2.873   0.106   2.087 -1.4474  0.2220  0.7457
 1553SOL     OW 4799   1.417   2.008   2.796 -0.5468  0.2497 -0.0688
 1553SOL    HW1 4800   1.470   1.964   2.729 -1.2593 -0.4310 -0.1963
 1553SOL    HW2 4801   1.380   1.936   2.848 -1.7558  0.6923 -0.3008
 1554SOL     OW 4802   1.575   1.538   0.379  0.2057 -0.4036 -1.0539
 1554SOL    HW1 4803   1.648   1.489   0.416 -1.0581 -2.4526 -1.1264
 1554SOL    HW2 4804   1.499   1.513   0.432 -0.7368  0.4749 -1.9242
 1555SOL     OW 4805   2.435   0.461   2.287 -0.0127  0.3037 -0.5428
 1555SOL    HW1 4806   2.442   0.552   2.317 -1.1656  0.1051  0.4121
 1555SOL    HW2 4807   2.440   0.409   2.367  2.8562 -0.6741 -1.2354
 1556SOL     OW 4808   2.929   1.321   2.099 -0.1208 -0.0562  0.2186
 1556SOL    HW1 4809   2.863   1.360   2.156 -1.9635 -3.0025  0.3108
 1556SOL    HW2 4810   2.997   1.291   2.159 -0.2403  0.1590  0.4647
 1557SOL     OW 4811   2.967   1.366   1.550  0.6530  0.1244  0.1305
 1557SOL    HW1 4812   3.006   1.303   1.489  0.0066  0.5139 -0.6913
 1557SOL    HW2 4813   2.895   1.317   1.591 -0.7528  0.7112 -1.5268
 1558SOL     OW 4814   3.628   1.861   2.144 -0.2819  0.0235  0.1639
 1558SOL    HW1 4815   3.710   1.877   2.099 -1.0184  0.3358 -1.1096
 1558SOL    HW2 4816   3.606   1.770   2.123 -0.3728  0.0108  0.3095
 1559SOL     OW 4817   1.830   1.310   0.105 -0.1235 -0.2940  1.0259
 1559SOL    HW1 4818   1.780   1.390   0.114 -0.4646 -0.6282  2.4016
 1559SOL    HW2 4819   1.824   1.287   0.012 -2.1893 -0.1071  1.0736
 1560SOL     OW 4820   1.329   3.338   1.818  0.1388  0.3590  0.4079
 1560SOL    HW1 4821   1.313   3.268   1.881 -0.6695  0.7092  0.6068
 1560SOL    HW2 4822   1.411   3.378   1.847  0.1182  0.0957  0.8412
 1561SOL     OW 4823   0.621   2.945   2.747 -0.3995  0.3453 -0.3352
 1561SOL    HW1 4824   0.677   3.019   2.727 -1.0159  0.8444 -0.2490
 1561SOL    HW2 4825   0.539   2.984   2.777 -1.1241 -0.3494 -1.3469
 1562SOL     OW 4826   0.746   1.007   3.312  0.4696 -0.4271 -0.3960
 1562SOL    HW1 4827   0.788   1.074   3.258 -0.6952  0.1037 -0.6898
 1562SOL    HW2 4828   0.687   1.057   3.369  1.3451 -1.0111  1.0660
 1563SOL     OW 4829   0.461   1.374   3.298  0.4468 -0.3640  0.1407
 1563SOL    HW1 4830   0.430   1.465   3.304  0.7608 -0.2961  0.8156
 1563SOL    HW2 4831   0.544   1.381   3.252 -0.6116 -0.5715 -1.8857
 1564SOL     OW 4832   1.968   0.481   3.175 -0.1263  0.0985  0.8776
 1564SOL    HW1 4833   1.921   0.501   3.094 -0.2736  0.2317  0.9962
 1564SOL    HW2 4834   2.001   0.392   3.162 -0.5869 -0.0749  0.8759
 1565SOL     OW 4835   1.569   3.004   3.407  0.4148 -0.0692 -0.1738
 1565SOL    HW1 4836   1.664   3.006   3.417  0.6080 -1.0436 -1.5937
 1565SOL    HW2 4837   1.547   3.088   3.367  0.6848  0.1290  0.0886
 1566SOL     OW 4838   0.187   2.814   0.080 -0.7027 -0.2850  0.3748
 1566SOL    HW1 4839   0.163   2.889   0.134 -0.8400  0.0361 -0.1347
 1566SOL    HW2 4840   0.104   2.774   0.056 -0.6931  0.2864 -0.6176
 1567SOL     OW 4841   2.147   2.836   2.218  0.2435  0.1462 -0.2484
 1567SOL    HW1 4842   2.090   2.856   2.144 -0.0927  0.7343  0.1617
 1567SOL    HW2 4843   2.235   2.834   2.181 -0.1383 -2.4491 -1.2354
 1568SOL     OW 4844   0.652   2.833   3.450  0.7340 -0.0601 -0.3239
 1568SOL    HW1 4845   0.577   2.789   3.409 -0.0839  0.3896  0.6413
 1568SOL    HW2 4846   0.620   2.858   3.536  2.2110 -0.4243  0.3566
 1569SOL     OW 4847   0.405   1.031   1.979 -0.2950  0.0155  0.2194
 1569SOL    HW1 4848   0.342   1.078   2.033  0.3958  0.6210  0.5106
 1569SOL    HW2 4849   0.357   1.013   1.898 -0.6291  1.0941  0.1551
 1570SOL     OW 4850   1.168   0.414   1.459  0.1688  0.3838 -0.5540
 1570SOL    HW1 4851   1.225   0.463   1.518  1.5891  1.6889 -2.8928
 1570SOL    HW2 4852   1.110   0.365   1.518  2.0005  0.9697  1.8997
 1571SOL     OW 4853   2.025   0.202   3.118  1.1615  0.2221  0.5013
 1571SOL    HW1 4854   2.069   0.125   3.083  0.8680  1.3169 -2.5641
 1571SOL    HW2 4855   1.956   0.167   3.175  1.5929 -1.7399 -0.1342
 1572SOL     OW 4856   2.938   3.325   1.937  0.0488 -0.4873 -0.4324
 1572SOL    HW1 4857   2.950   3.289   2.026  2.8362 -0.6830 -0.8061
 1572SOL    HW2 4858   2.856   3.375   1.943  0.3979 -0.0571  2.3975
 1573SOL     OW 4859   0.981   2.723   0.240  0.1371 -0.1399 -0.8706
 1573SOL    HW1 4860   0.954   2.810   0.269 -1.4893 -0.6793 -0.6292
 1573SOL    HW2 4861   0.963   2.723   0.146  2.0051  0.4142 -1.2567
 1574SOL     OW 4862   3.433   2.387   2.371 -0.0129 -0.6609 -0.0791
 1574SOL    HW1 4863   3.461   2.405   2.281  0.4195 -1.4199 -0.0998
 1574SOL    HW2 4864   3.357   2.329   2.361 -1.0306  0.6077  0.0071
 1575SOL     OW 4865   1.999   2.171   1.224 -0.2956  0.2161 -0.1120
 1575SOL    HW1 4866   2.028   2.262   1.235 -0.4635  0.3965 -1.0330
 1575SOL    HW2 4867   1.976   2.142   1.312  0.8690  0.6855  0.3562
 1576SOL     OW 4868   2.206   2.281   2.286  0.3187  0.0872  0.3906
 1576SOL    HW1 4869   2.298   2.256   2.300  1.3889  0.9872 -3.6611
 1576SOL    HW2 4870   2.158   2.199   2.290  1.7756 -0.8339 -0.0381
 1577SOL     OW 4871   0.121   0.561   0.910 -0.2980 -0.1494 -0.0250
 1577SOL    HW1 4872   0.177   0.521   0.976 -0.0260 -0.4529 -0.4303
 1577SOL    HW2 4873   0.065   0.622   0.958  0.1979 -0.0460  0.4182
 1578SOL     OW 4874   0.144   0.164   3.686 -0.5269 -0.7538  0.0560
 1578SOL    HW1 4875   0.052   0.175   3.662 -1.4896 -3.4713  1.9613
 1578SOL    HW2 4876   0.172   0.250   3.716 -2.1828  0.3200 -1.3059
 1579SOL     OW 4877   2.288   1.757   3.103  0.0457 -0.3240 -0.2548
 1579SOL    HW1 4878   2.276   1.761   3.198 -0.4100  1.0250 -0.3440
 1579SOL    HW2 4879   2.297   1.664   3.083 -0.0433 -0.6317  1.0873
 1580SOL     OW 4880   2.935   1.591   2.927 -0.3498 -0.0322 -0.5197
 1580SOL    HW1 4881   3.018   1.554   2.898 -0.4041 -1.2574  0.7825
 1580SOL    HW2 4882   2.868   1.546   2.876 -0.3504 -1.0551  0.3440
 1581SOL     OW 4883   0.872   1.183   2.677  0.2326 -0.2047 -0.1112
 1581SOL    HW1 4884   0.937   1.120   2.647  2.0194  1.6113 -0.3138
 1581SOL    HW2 4885   0.829   1.213   2.597  1.0628  0.5357 -0.2987
 1582SOL     OW 4886   2.151   3.360   0.320 -0.1539  0.0596  0.1196
 1582SOL    HW1 4887   2.065   3.400   0.329 -0.2814  0.1786 -1.3659
 1582SOL    HW2 4888   2.145   3.307   0.240  1.1698  0.1460 -0.0654
 1583SOL     OW 4889   3.728   3.546   0.688  0.0592 -0.6987 -0.4916
 1583SOL    HW1 4890   3.746   3.485   0.760 -0.0036 -0.4934 -0.2997
 1583SOL    HW2 4891   3.632   3.548   0.683 -0.1425  2.0164  1.8212
 1584SOL     OW 4892   2.705   1.818   1.090  0.2752 -0.4692  0.1469
 1584SOL    HW1 4893   2.647   1.892   1.081 -0.1386 -0.6187  1.4066
 1584SOL    HW2 4894   2.788   1.855   1.121  1.3085 -0.1057 -2.7249
 1585SOL     OW 4895   1.343   1.434   0.528  0.1527  0.1775  0.8456
 1585SOL    HW1 4896   1.339   1.424   0.623  0.1473  1.1970  0.9652
 1585SOL    HW2 4897   1.251   1.429   0.500 -0.0116  1.4070  1.0864
 1586SOL     OW 4898   0.865   1.721   0.357 -0.2013 -0.1593  0.1201
 1586SOL    HW1 4899   0.941   1.758   0.312  1.1627 -2.1373  0.6642
 1586SOL    HW2 4900   0.795   1.725   0.292  1.1482 -0.9723 -1.4472
 1587SOL     OW 4901   3.165   1.377   0.895  0.0685  0.0222  0.1965
 1587SOL    HW1 4902   3.116   1.459   0.902  0.2140  0.0777  0.5828
 1587SOL    HW2 4903   3.174   1.363   0.801 -0.0548  0.3910  0.1263
 1588SOL     OW 4904   1.528   1.151   2.259 -0.1637  0.6284  0.2250
 1588SOL    HW1 4905   1.572   1.080   2.213 -0.0460  0.9297 -0.1236
 1588SOL    HW2 4906   1.545   1.229   2.207  0.1230  1.0061  0.8697
 1589SOL     OW 4907   0.394   3.696   2.989  0.4455 -0.1557  0.3813
 1589SOL    HW1 4908   0.382   3.723   2.898 -1.8770 -0.7086  0.4672
 1589SOL    HW2 4909   0.364   3.771   3.041 -1.4010 -1.0298  0.6401
 1590SOL     OW 4910   3.154   0.541   0.686  0.3147  0.0803 -0.3405
 1590SOL    HW1 4911   3.084   0.549   0.751 -0.2638 -0.9795 -0.8281
 1590SOL    HW2 4912   3.231   0.516   0.738  0.8826  3.0410  0.4833
 1591SOL     OW 4913   3.239   1.201   1.475 -0.0799  0.3325  0.3189
 1591SOL    HW1 4914   3.150   1.196   1.442 -0.5262  0.0495  1.5003
 1591SOL    HW2 4915   3.294   1.209   1.397 -1.0083 -1.1943 -0.5436
 1592SOL     OW 4916   1.280   2.246   0.305  0.2367 -0.3196  0.0144
 1592SOL    HW1 4917   1.262   2.340   0.303 -0.8986 -0.3877  2.8639
 1592SOL    HW2 4918   1.195   2.204   0.313  0.8322 -1.5002  0.4805
 1593SOL     OW 4919   2.832   2.082   3.343 -0.0930  0.0632  0.0532
 1593SOL    HW1 4920   2.892   2.008   3.347  1.2046  0.9985 -1.1391
 1593SOL    HW2 4921   2.854   2.135   3.419 -1.0819 -0.7746  0.9566
 1594SOL     OW 4922   2.056   1.582   1.607  0.1767 -0.0169 -0.5255
 1594SOL    HW1 4923   2.096   1.665   1.580  0.2516 -0.0861 -0.6287
 1594SOL    HW2 4924   1.962   1.595   1.594  0.2659 -0.3271 -1.6170
 1595SOL     OW 4925   2.536   2.670   0.660 -0.2246  1.2961 -0.0975
 1595SOL    HW1 4926   2.557   2.756   0.623  3.7157  0.4790 -0.1849
 1595SOL    HW2 4927   2.538   2.611   0.585 -3.0510  1.0404 -0.0628
 1596SOL     OW 4928   1.232   0.060   0.180  0.3374 -0.4033 -0.1761
 1596SOL    HW1 4929   1.200   0.012   0.256 -2.9367  0.6701 -0.7366
 1596SOL    HW2 4930   1.285  -0.004   0.132 -0.2771 -2.0972  1.3078
 1597SOL     OW 4931   1.459   0.802   1.289  0.3061 -0.3212 -0.0559
 1597SOL    HW1 4932   1.433   0.772   1.202 -2.2613 -1.1848  0.9055
 1597SOL    HW2 4933   1.457   0.897   1.283 -0.2707 -0.3682 -0.8646
 1598SOL     OW 4934   2.966   3.295   1.532 -0.6968 -0.3713  0.0465
 1598SOL    HW1 4935   3.047   3.337   1.562 -0.0447 -2.1339  0.8556
 1598SOL    HW2 4936   2.897   3.337   1.583 -0.2523  0.7359 -0.2252
 1599SOL     OW 4937   0.196   0.893   3.733  0.0235  0.3923  0.4879
 1599SOL    HW1 4938   0.164   0.868   3.646 -3.0211  2.9552  0.7083
 1599SOL    HW2 4939   0.151   0.834   3.793 -0.1296  0.4984  0.4784
 1600SOL     OW 4940   0.414   3.261   1.600 -1.1056 -0.6442 -0.3569
 1600SOL    HW1 4941   0.341   3.200   1.613 -1.6223  0.0269 -0.0604
 1600SOL    HW2 4942   0.377   3.347   1.618  0.5208 -0.5138  2.9638
 1601SOL     OW 4943   1.250   2.684   0.789  0.4062 -0.1957  0.1440
 1601SOL    HW1 4944   1.303   2.682   0.709 -0.4665  2.9950 -0.6696
 1601SOL    HW2 4945   1.164   2.712   0.760 -0.2394 -0.0659  2.0793
 1602SOL     OW 4946   3.551  -0.027   1.415 -0.6390  0.5314 -0.0941
 1602SOL    HW1 4947   3.551   0.024   1.334  2.2991 -0.8822 -1.1152
 1602SOL    HW2 4948   3.612   0.019   1.473 -1.1981  0.4542  0.5650
 1603SOL     OW 4949   2.557   2.069   3.329 -0.0206 -0.1610 -0.3813
 1603SOL    HW1 4950   2.631   2.048   3.272  0.5745 -0.3091  0.4230
 1603SOL    HW2 4951   2.541   2.162   3.315  0.4276 -0.0906 -0.4417
 1604SOL     OW 4952   0.420   0.812   0.665  0.1596 -0.5125  0.5268
 1604SOL    HW1 4953   0.499   0.771   0.630  0.7327  1.3156 -0.4704
 1604SOL    HW2 4954   0.351   0.786   0.603  0.1169 -1.4814  0.9657
 1605SOL     OW 4955   2.988   0.923   2.485  0.3447 -0.2367 -0.2315
 1605SOL    HW1 4956   2.946   1.000   2.523  1.2011  0.6563 -1.0362
 1605SOL    HW2 4957   2.952   0.918   2.396  1.5333  0.2446 -0.7596
 1606SOL     OW 4958   1.696   0.034   2.451  0.0974  0.7003 -0.2027
 1606SOL    HW1 4959   1.617   0.088   2.446  0.3401  0.9791 -1.4527
 1606SOL    HW2 4960   1.768   0.098   2.447  0.4111  0.4878  1.3608
 1607SOL     OW 4961   1.648   1.029   2.026  0.2573 -1.0356 -0.4534
 1607SOL    HW1 4962   1.597   1.000   1.950 -1.5206  0.7722 -0.0413
 1607SOL    HW2 4963   1.726   1.071   1.989  0.4677 -2.0318 -1.1752
 1608SOL     OW 4964   1.971   3.138   2.922  0.2107 -0.4527  0.0493
 1608SOL    HW1 4965   1.894   3.081   2.920  0.8186 -1.2684 -0.8572
 1608SOL    HW2 4966   1.935   3.227   2.927 -0.7819 -0.8193 -0.3948
 1609SOL     OW 4967   0.663   2.542   1.571  0.3480  0.2761 -0.0628
 1609SOL    HW1 4968   0.653   2.530   1.477  2.1322 -0.3908 -0.2265
 1609SOL    HW2 4969   0.693   2.632   1.581 -0.2902  0.4952 -0.0758
 1610SOL     OW 4970   0.421   0.801   2.791  0.4873  0.2378  0.2042
 1610SOL    HW1 4971   0.371   0.876   2.761 -0.3899 -0.0790  0.8371
 1610SOL    HW2 4972   0.400   0.731   2.728  2.8210  0.9934 -1.5616
 1611SOL     OW 4973   1.288   0.067   1.729  0.0678 -0.1755 -0.4786
 1611SOL    HW1 4974   1.331  -0.018   1.727  1.3506  0.4515 -2.8942
 1611SOL    HW2 4975   1.338   0.118   1.792  0.6937 -0.5196 -0.6933
 1612SOL     OW 4976   2.307   3.141   3.355  0.3456  1.4285 -0.0670
 1612SOL    HW1 4977   2.259   3.082   3.414 -0.6926  1.6451 -0.6621
 1612SOL    HW2 4978   2.240   3.203   3.325  0.9148  1.4945 -1.2474
 1613SOL     OW 4979   2.777   3.508   0.996  0.5353 -0.4218 -0.1208
 1613SOL    HW1 4980   2.702   3.458   0.962 -0.6135  1.0164  0.2274
 1613SOL    HW2 4981   2.843   3.441   1.015 -0.2591 -1.6349 -1.4051
 1614SOL     OW 4982   0.355   1.869   3.248 -0.2182  0.0367 -0.2014
 1614SOL    HW1 4983   0.346   1.931   3.320  0.2200  0.3593 -0.4221
 1614SOL    HW2 4984   0.399   1.919   3.178  0.0958 -0.5047 -0.3972
 1615SOL     OW 4985   2.138   2.647   1.095  0.1683  0.1817 -0.0815
 1615SOL    HW1 4986   2.233   2.637   1.086  0.1060 -0.9322  0.3283
 1615SOL    HW2 4987   2.127   2.737   1.126  1.0687  0.4094 -0.3694
 1616SOL     OW 4988   3.026   0.737   0.919 -0.4941  0.0234  0.3166
 1616SOL    HW1 4989   3.000   0.738   0.827  2.0948 -0.8006 -0.5103
 1616SOL    HW2 4990   3.056   0.826   0.936 -1.1530  0.2273  0.4430
 1617SOL     OW 4991   0.207   1.583   3.727 -0.1333  0.3149 -0.6773
 1617SOL    HW1 4992   0.144   1.646   3.762 -0.1551 -1.0835  2.0358
 1617SOL    HW2 4993   0.181   1.571   3.636 -1.8642  2.0664 -0.4759
 1618SOL     OW 4994   0.640   3.403   2.407 -0.4698 -0.3380 -0.0487
 1618SOL    HW1 4995   0.644   3.498   2.420  1.3284 -0.6396  2.1069
 1618SOL    HW2 4996   0.715   3.384   2.351 -1.1390 -0.4841 -0.9302
 1619SOL     OW 4997   2.065   1.137   3.689  0.3649  0.4538 -0.1526
 1619SOL    HW1 4998   2.082   1.136   3.784 -0.7919  2.2267  0.1177
 1619SOL    HW2 4999   2.079   1.046   3.662  1.0093 -0.0365  1.6616
 1620SOL     OW 5000   2.412   3.586   3.223  0.2043  0.1441  0.2596
 1620SOL    HW1 5001   2.344   3.653   3.222 -1.1981 -1.1925  1.2195
 1620SOL    HW2 5002   2.368   3.508   3.256  1.9531 -1.0726 -0.1452
 1621SOL     OW 5003   3.257   3.219   0.943 -0.6377  0.3343 -0.1103
 1621SOL    HW1 5004   3.235   3.276   1.017 -1.5882  0.5867 -0.5813
 1621SOL    HW2 5005   3.352   3.225   0.936 -0.8397  4.3045 -2.0261
 1622SOL     OW 5006   3.301   3.018   3.796 -0.1260  0.7122 -0.2226
 1622SOL    HW1 5007   3.256   3.073   3.732 -0.7287  0.6833  0.1694
 1622SOL    HW2 5008   3.300   3.068   3.877  2.5918  1.7288 -0.7039
 1623SOL     OW 5009   3.809   0.477   0.699 -0.6759  0.7412 -0.4342
 1623SOL    HW1 5010   3.867   0.459   0.773 -1.2429 -1.2715 -0.4274
 1623SOL    HW2 5011   3.723   0.490   0.739 -0.7853  0.7097 -0.6603
 1624SOL     OW 5012   0.527   3.547   0.758  0.9758  0.5330  0.5191
 1624SOL    HW1 5013   0.541   3.619   0.819  2.2323 -0.7683  1.8531
 1624SOL    HW2 5014   0.490   3.477   0.811 -0.7829  0.3445 -0.8643
 1625SOL     OW 5015   3.641   0.238   2.951 -0.2807  0.4842 -0.1742
 1625SOL    HW1 5016   3.620   0.330   2.933  0.7757  0.0931 -4.4551
 1625SOL    HW2 5017   3.560   0.191   2.931 -0.7058  0.3857  1.6451
 1626SOL     OW 5018   3.308   3.721   1.518 -0.4110  0.7479  0.4660
 1626SOL    HW1 5019   3.393   3.765   1.508  0.4714 -0.7740  1.0922
 1626SOL    HW2 5020   3.285   3.735   1.610 -0.6707  0.8259  0.3902
 1627SOL     OW 5021   0.973   0.354   2.879 -0.0304 -0.4671 -0.5730
 1627SOL    HW1 5022   0.927   0.390   2.954 -1.5007 -0.0430 -1.6295
 1627SOL    HW2 5023   1.052   0.407   2.872  0.4782 -0.9576  1.0467
 1628SOL     OW 5024   3.601   1.599   0.497 -0.0914  0.2905 -0.0133
 1628SOL    HW1 5025   3.646   1.601   0.581  0.4324  0.7605 -0.2944
 1628SOL    HW2 5026   3.670   1.621   0.433 -0.8662  1.8352 -0.3750
 1629SOL     OW 5027   1.733   3.319   1.392 -0.3113  0.3339  1.1569
 1629SOL    HW1 5028   1.656   3.375   1.383 -0.3663  0.1579  0.5302
 1629SOL    HW2 5029   1.735   3.267   1.312 -0.4319 -0.7877  1.8560
 1630SOL     OW 5030   0.292   0.950   3.066  0.4361  0.1526  0.4573
 1630SOL    HW1 5031   0.227   0.950   3.135  0.3769  0.3591  0.4037
 1630SOL    HW2 5032   0.345   1.028   3.083  0.5640  0.0779  0.4050
 1631SOL     OW 5033   2.663   0.841   2.559  0.0161  0.0863  0.3783
 1631SOL    HW1 5034   2.624   0.797   2.484 -0.1038 -0.1927  0.6030
 1631SOL    HW2 5035   2.639   0.933   2.548  0.4358  0.1278 -0.1949
 1632SOL     OW 5036   2.751   2.412   1.073 -0.6272  0.0770 -0.2389
 1632SOL    HW1 5037   2.832   2.462   1.063 -1.7167  2.2589  1.0594
 1632SOL    HW2 5038   2.707   2.421   0.988  0.6852 -1.6557 -1.1742
 1633SOL     OW 5039   1.389   3.560   3.606  0.5130 -0.0156  0.4055
 1633SOL    HW1 5040   1.405   3.561   3.512  1.8491  0.6727  0.6214
 1633SOL    HW2 5041   1.372   3.468   3.626 -0.8256 -0.0347 -0.6383
 1634SOL     OW 5042   3.601   2.889   1.061  0.1608 -0.0238 -0.0683
 1634SOL    HW1 5043   3.597   2.926   1.150  1.8175 -0.2206  0.1257
 1634SOL    HW2 5044   3.692   2.901   1.035 -0.7246  1.9534 -2.6198
 1635SOL     OW 5045   1.043   0.004   0.458 -0.2215  0.5547  0.4134
 1635SOL    HW1 5046   0.956  -0.010   0.420 -0.9180  2.3563  1.2486
 1635SOL    HW2 5047   1.052   0.099   0.464  3.0316  0.6501 -2.4053
 1636SOL     OW 5048   0.594   1.691   0.201  0.3708 -0.0160 -0.4778
 1636SOL    HW1 5049   0.646   1.751   0.148  0.3432 -0.8153 -1.4439
 1636SOL    HW2 5050   0.509   1.687   0.157  0.9746 -2.2232 -1.5758
 1637SOL     OW 5051   1.950   2.231   2.689  0.6313 -0.0551 -0.2257
 1637SOL    HW1 5052   1.883   2.190   2.744  1.2040 -1.1015 -0.2753
 1637SOL    HW2 5053   2.023   2.169   2.690  0.8986  0.1978 -1.6716
 1638SOL     OW 5054   2.326   0.746   0.113 -0.0587 -0.1215  0.0107
 1638SOL    HW1 5055   2.346   0.690   0.039  0.5183  0.5355 -0.3418
 1638SOL    HW2 5056   2.372   0.707   0.187  1.7099  0.7808 -0.5695
 1639SOL     OW 5057   2.064   0.497   2.114  0.0163  0.1875 -0.8817
 1639SOL    HW1 5058   2.007   0.445   2.057 -0.1198  0.5834 -1.1140
 1639SOL    HW2 5059   2.149   0.455   2.108 -0.9064 -2.4147  1.9974
 1640SOL     OW 5060   0.289   0.997   1.166  0.2149  0.0183 -0.4581
 1640SOL    HW1 5061   0.326   0.975   1.252 -2.3869  0.9602  1.0338
 1640SOL    HW2 5062   0.340   0.946   1.104 -0.4631 -4.1571  2.0404
 1641SOL     OW 5063   0.903   1.288   2.905  0.2028  0.0687 -0.3741
 1641SOL    HW1 5064   0.870   1.245   2.826 -0.8744  1.1147 -0.5194
 1641SOL    HW2 5065   0.970   1.349   2.873  0.8323 -0.5634 -0.2986
 1642SOL     OW 5066   2.405   2.389   1.491  0.1549  0.3084  0.9458
 1642SOL    HW1 5067   2.485   2.353   1.453 -1.8623 -1.8680 -1.7364
 1642SOL    HW2 5068   2.394   2.474   1.447 -1.2524 -1.4294 -2.4638
 1643SOL     OW 5069   3.758   0.799   0.680 -0.6853  0.3661  0.5183
 1643SOL    HW1 5070   3.761   0.704   0.669 -1.8099  0.2531  1.0187
 1643SOL    HW2 5071   3.834   0.832   0.631 -0.2534 -0.7877  0.3941
 1644SOL     OW 5072   3.563   0.726   3.449 -0.1699  0.6105  0.2291
 1644SOL    HW1 5073   3.541   0.737   3.357  0.3770 -0.8114 -0.0914
 1644SOL    HW2 5074   3.525   0.803   3.492 -5.6586 -1.4271 -0.2378
 1645SOL     OW 5075   2.626   0.580   2.135  0.0574 -0.1724  0.5044
 1645SOL    HW1 5076   2.705   0.611   2.181  0.8546 -1.5047  0.1006
 1645SOL    HW2 5077   2.572   0.542   2.205 -0.1493  0.5710  0.7571
 1646SOL     OW 5078   0.558   3.733   3.320  0.3670  0.0487  0.7524
 1646SOL    HW1 5079   0.629   3.727   3.255 -0.4740  1.6735 -0.3898
 1646SOL    HW2 5080   0.563   3.823   3.352 -1.6339  0.4496  0.0701
 1647SOL     OW 5081   1.102   3.351   3.412  0.3130 -0.4191 -0.0547
 1647SOL    HW1 5082   1.156   3.388   3.342  0.3155 -0.3991 -0.0424
 1647SOL    HW2 5083   1.024   3.318   3.368 -0.3764  0.9186  0.1027
 1648SOL     OW 5084   0.241   0.059   2.103  0.2345 -0.5125 -0.0331
 1648SOL    HW1 5085   0.294   0.027   2.176  3.6000 -0.2995 -2.1277
 1648SOL    HW2 5086   0.251   0.154   2.107 -0.9816 -0.3842  0.1713
 1649SOL     OW 5087   3.585   3.564   1.315 -0.6324  0.6950 -0.0515
 1649SOL    HW1 5088   3.562   3.591   1.226  1.7683 -0.8041 -1.2295
 1649SOL    HW2 5089   3.582   3.645   1.366 -1.1737  1.7643 -1.7051
 1650SOL     OW 5090   3.519   2.286   0.622  0.5883 -0.1970  0.0993
 1650SOL    HW1 5091   3.528   2.282   0.527  1.5299 -1.2906  0.2086
 1650SOL    HW2 5092   3.499   2.196   0.648  1.7183 -0.2075  1.0389
 1651SOL     OW 5093   0.096   2.099   3.371  0.0309 -0.6322 -0.2168
 1651SOL    HW1 5094   0.094   2.029   3.306 -1.0132 -0.2510 -0.6151
 1651SOL    HW2 5095   0.015   2.148   3.356 -0.7083 -1.0912  1.9997
 1652SOL     OW 5096   0.482   3.338   0.220 -0.2406 -0.2341  0.5091
 1652SOL    HW1 5097   0.407   3.299   0.265 -1.1292 -0.3580 -0.9828
 1652SOL    HW2 5098   0.556   3.323   0.278 -1.4775  0.4784  2.3276
 1653SOL     OW 5099   3.754   3.131   0.569 -0.0955  0.0707 -0.7467
 1653SOL    HW1 5100   3.664   3.150   0.541 -0.3249 -0.2701 -0.2553
 1653SOL    HW2 5101   3.798   3.102   0.489  0.0057  1.6826 -1.3081
 1654SOL     OW 5102   1.793   2.566   1.893  0.1443 -0.7343  0.0394
 1654SOL    HW1 5103   1.838   2.574   1.977  1.3947  0.7815 -0.7109
 1654SOL    HW2 5104   1.802   2.653   1.853 -1.3338 -1.1212 -1.2185
 1655SOL     OW 5105   2.073   0.846   2.555 -0.2457 -0.0177  0.1739
 1655SOL    HW1 5106   2.119   0.797   2.487 -1.2491  0.1887 -0.6848
 1655SOL    HW2 5107   2.068   0.935   2.521 -0.5846  0.1272  0.5977
 1656SOL     OW 5108   3.051   0.370   1.115 -0.1594 -0.0450  0.3863
 1656SOL    HW1 5109   3.032   0.434   1.047  1.2990  0.6589  0.6031
 1656SOL    HW2 5110   2.965   0.340   1.144 -0.8680  1.3860 -0.1285
 1657SOL     OW 5111   1.869   0.662   2.028  0.5463  0.3918 -0.5141
 1657SOL    HW1 5112   1.912   0.649   1.943  1.1059 -1.9116  0.0277
 1657SOL    HW2 5113   1.937   0.640   2.092 -0.6757 -0.8679  0.4223
 1658SOL     OW 5114   0.648   1.753   3.407 -0.3170  0.7482 -0.4514
 1658SOL    HW1 5115   0.581   1.771   3.342 -1.4176  0.9724  0.7001
 1658SOL    HW2 5116   0.647   1.658   3.417 -0.0605  0.7046 -0.8516
 1659SOL     OW 5117   3.698   0.152   1.572  0.3818 -0.8573 -0.1490
 1659SOL    HW1 5118   3.661   0.107   1.648  1.1869 -0.8009  0.2802
 1659SOL    HW2 5119   3.663   0.241   1.578 -0.4581 -1.1437 -0.4847
 1660SOL     OW 5120   1.292   1.137   3.525 -0.0657  0.0822  0.6050
 1660SOL    HW1 5121   1.324   1.196   3.593 -0.8501  0.3289  0.7675
 1660SOL    HW2 5122   1.305   1.185   3.443  1.3076 -0.3980  0.5146
 1661SOL     OW 5123   3.558   0.522   0.766  0.4775 -0.0093  0.2429
 1661SOL    HW1 5124   3.519   0.559   0.687  0.8353 -0.4995 -0.1732
 1661SOL    HW2 5125   3.484   0.484   0.814  0.2013  0.6831  0.3662
 1662SOL     OW 5126   2.808   3.257   3.314 -0.2016  0.1487 -0.2080
 1662SOL    HW1 5127   2.721   3.255   3.355  0.6594  0.5531  1.7518
 1662SOL    HW2 5128   2.832   3.165   3.304 -0.6778  0.0380 -0.3742
 1663SOL     OW 5129   1.187   0.886   2.868  0.2482  0.1790 -0.2932
 1663SOL    HW1 5130   1.251   0.866   2.800  0.0072  0.3269 -0.5629
 1663SOL    HW2 5131   1.239   0.893   2.948  0.5002 -0.2436 -0.4186
 1664SOL     OW 5132   2.562   1.570   1.141  0.2338  0.2056 -0.4472
 1664SOL    HW1 5133   2.613   1.561   1.222  0.0367  2.0568 -0.0900
 1664SOL    HW2 5134   2.546   1.664   1.132 -2.7431 -0.2349 -0.7652
 1665SOL     OW 5135   1.407   0.983   3.167 -0.2221  0.7668 -0.1181
 1665SOL    HW1 5136   1.403   1.064   3.217  0.3863  1.2751 -0.8819
 1665SOL    HW2 5137   1.495   0.981   3.130 -0.4176  0.0341 -0.5741
 1666SOL     OW 5138   1.107   3.491   1.976  0.4726 -0.3188  0.0553
 1666SOL    HW1 5139   1.192   3.459   1.946  0.6889 -0.9864  1.3056
 1666SOL    HW2 5140   1.129   3.550   2.049 -0.1147 -0.1599  0.1039
 1667SOL     OW 5141   0.823   0.048   3.510  0.3611 -0.3515 -0.3185
 1667SOL    HW1 5142   0.838   0.142   3.503 -1.2289 -0.1563 -1.9104
 1667SOL    HW2 5143   0.783   0.037   3.597  3.2967 -0.0496  1.1764
 1668SOL     OW 5144   1.479   1.619   0.933  0.2406 -1.0490  0.5084
 1668SOL    HW1 5145   1.515   1.658   1.013 -0.1975 -1.0337  0.6971
 1668SOL    HW2 5146   1.393   1.586   0.959 -0.7432  0.6491 -0.4016
 1669SOL     OW 5147   1.064   3.630   0.227  0.1765 -0.3707 -1.0091
 1669SOL    HW1 5148   0.995   3.615   0.291  1.1660  1.2906  0.5323
 1669SOL    HW2 5149   1.104   3.544   0.214 -0.2952 -0.8107  0.3144
 1670SOL     OW 5150   0.620   0.620   1.691  0.3364  0.5978  0.6921
 1670SOL    HW1 5151   0.652   0.540   1.649  0.4210  0.8323  0.3049
 1670SOL    HW2 5152   0.539   0.594   1.735 -0.4814  0.6385 -0.7411
 1671SOL     OW 5153   1.703   1.646   3.103  0.1649 -0.3802  0.5279
 1671SOL    HW1 5154   1.653   1.707   3.157  2.0424  0.3380  1.5516
 1671SOL    HW2 5155   1.732   1.577   3.164 -1.8790 -2.3496 -0.5995
 1672SOL     OW 5156   0.584   1.444   1.938  0.3087  0.1132 -0.1185
 1672SOL    HW1 5157   0.644   1.399   1.998 -0.6097 -0.6251  0.2581
 1672SOL    HW2 5158   0.543   1.374   1.888 -0.2581  0.6124 -0.3626
 1673SOL     OW 5159   3.776   0.457   0.430  0.5480 -0.3546  0.2887
 1673SOL    HW1 5160   3.823   0.481   0.510  0.6716  1.9190 -0.4033
 1673SOL    HW2 5161   3.818   0.509   0.361 -1.8950  0.5625 -0.6284
 1674SOL     OW 5162   2.817   3.670   2.924 -0.0072  0.8534  0.1458
 1674SOL    HW1 5163   2.881   3.689   2.856  0.2020 -0.8684 -0.1754
 1674SOL    HW2 5164   2.743   3.728   2.905  0.0712  0.4379 -1.5021
 1675SOL     OW 5165   3.672   2.973   3.639 -0.4015 -0.1507  0.8285
 1675SOL    HW1 5166   3.673   3.054   3.588 -1.8181 -0.3732  0.3942
 1675SOL    HW2 5167   3.742   2.984   3.704  0.6893  0.6044 -0.4365
 1676SOL     OW 5168   1.055   3.675   0.690 -0.0460 -0.3096  0.5344
 1676SOL    HW1 5169   1.079   3.587   0.660  0.6739  0.9064 -3.0034
 1676SOL    HW2 5170   1.047   3.726   0.609 -3.7661  2.1395  2.1534
 1677SOL     OW 5171   3.113   0.086   0.257  0.6092  0.6705  0.0611
 1677SOL    HW1 5172   3.175   0.128   0.197  1.1750 -0.2654 -0.0273
 1677SOL    HW2 5173   3.168   0.029   0.311 -0.1214  0.2211  0.3359
 1678SOL     OW 5174   2.768   3.006   1.737 -0.5991  0.1597  0.0203
 1678SOL    HW1 5175   2.710   2.934   1.760 -1.3828  1.3345  1.9772
 1678SOL    HW2 5176   2.804   2.982   1.652 -3.9748 -0.5926 -1.3516
 1679SOL     OW 5177   3.653   0.521   2.522 -0.4797  0.6276  0.4727
 1679SOL    HW1 5178   3.623   0.542   2.434 -1.3157 -0.4866  0.4759
 1679SOL    HW2 5179   3.698   0.600   2.552 -1.4908  1.5377 -0.3746
 1680SOL     OW 5180   1.197   3.104   1.142 -0.1052 -0.3823  0.2641
 1680SOL    HW1 5181   1.184   3.182   1.196 -0.8847 -0.4557  0.2045
 1680SOL    HW2 5182   1.137   3.039   1.180  1.1483 -1.2343  0.8476
 1681SOL     OW 5183   2.000   2.593   0.855 -0.3024  0.3108 -0.7301
 1681SOL    HW1 5184   2.052   2.643   0.792 -1.2974  0.5592 -1.3968
 1681SOL    HW2 5185   2.032   2.622   0.941  1.6563 -0.6557 -1.0858
 1682SOL     OW 5186   3.474   3.221   0.126  0.1521  0.0229  0.1872
 1682SOL    HW1 5187   3.420   3.291   0.090 -1.2713 -2.2883 -2.5340
 1682SOL    HW2 5188   3.546   3.211   0.063 -0.4853 -1.8790 -0.2997
 1683SOL     OW 5189   3.724   1.759   3.255  0.0197 -0.2599  0.7268
 1683SOL    HW1 5190   3.662   1.812   3.306  0.2497  0.0898  0.6477
 1683SOL    HW2 5191   3.776   1.823   3.207  1.7236 -0.4609  2.2392
 1684SOL     OW 5192   3.426   2.517   1.590  0.2703  0.1435  0.8628
 1684SOL    HW1 5193   3.375   2.449   1.634 -3.7295  2.2282 -0.0528
 1684SOL    HW2 5194   3.454   2.575   1.660 -2.3092  1.1234  1.1850
 1685SOL     OW 5195   0.244   3.156   0.959  0.0835 -0.4424 -0.4367
 1685SOL    HW1 5196   0.164   3.191   0.919 -0.0097  0.3075  0.3816
 1685SOL    HW2 5197   0.269   3.222   1.024  1.5895 -0.4606 -0.9481
 1686SOL     OW 5198   1.884   1.186   1.956 -0.4295 -0.8960 -0.5344
 1686SOL    HW1 5199   1.875   1.256   2.020 -1.1400 -0.2723 -1.2972
 1686SOL    HW2 5200   1.931   1.226   1.883 -1.6626 -0.9177 -1.3752
 1687SOL     OW 5201   2.556   3.184   1.172  0.0688 -0.1381  0.4652
 1687SOL    HW1 5202   2.477   3.137   1.196  2.1355 -4.0520  0.4543
 1687SOL    HW2 5203   2.607   3.189   1.253  1.2109 -0.8110 -0.1841
 1688SOL     OW 5204   0.622   3.669   0.364 -0.3159  0.1820  0.2258
 1688SOL    HW1 5205   0.645   3.761   0.352 -0.4035  0.1892  0.1132
 1688SOL    HW2 5206   0.532   3.671   0.397 -0.8049  0.0940 -1.0495
 1689SOL     OW 5207   2.687   3.410   2.824 -0.0982 -0.4096 -0.2737
 1689SOL    HW1 5208   2.630   3.409   2.747  1.8907  0.3728 -1.8527
 1689SOL    HW2 5209   2.674   3.496   2.863  0.0615 -0.2087 -0.6671
 1690SOL     OW 5210   3.580   2.541   0.678 -0.4923 -0.0251  0.5494
 1690SOL    HW1 5211   3.674   2.537   0.694  0.0934  0.0663 -2.3477
 1690SOL    HW2 5212   3.556   2.453   0.650 -0.7717  0.4998 -0.9254
 1691SOL     OW 5213   3.005   2.595   0.710 -0.8147  0.3866  0.0865
 1691SOL    HW1 5214   3.084   2.638   0.675 -0.2280 -1.0693 -0.4616
 1691SOL    HW2 5215   2.935   2.658   0.695  0.0384  1.2078 -0.5752
 1692SOL     OW 5216   0.163   3.745   0.160  0.4505 -0.1581 -0.2335
 1692SOL    HW1 5217   0.240   3.710   0.205  0.7227  2.0540  1.1985
 1692SOL    HW2 5218   0.089   3.712   0.210  0.4888 -1.5055 -1.0320
 1693SOL     OW 5219   1.874   3.029   0.269 -0.3919 -0.3053 -0.5367
 1693SOL    HW1 5220   1.913   3.113   0.242 -0.7572 -0.4514 -1.5907
 1693SOL    HW2 5221   1.924   3.003   0.346 -1.4069  1.7315  0.9156
 1694SOL     OW 5222   0.045   2.823   1.055 -0.4250  0.0630  0.1721
 1694SOL    HW1 5223   0.085   2.836   1.142  0.5175  0.0673 -0.2521
 1694SOL    HW2 5224   0.112   2.852   0.993 -0.7352 -0.8059 -0.5898
 1695SOL     OW 5225   2.799   3.382   0.407  0.5278  0.0101  0.1632
 1695SOL    HW1 5226   2.716   3.379   0.453 -0.3646 -0.5486 -1.4280
 1695SOL    HW2 5227   2.841   3.462   0.439  0.3392 -0.7510  2.5035
 1696SOL     OW 5228   1.890   2.735   3.718 -0.0560  0.3276 -0.1199
 1696SOL    HW1 5229   1.860   2.765   3.804  2.7108  2.7774  0.1637
 1696SOL    HW2 5230   1.951   2.664   3.737  2.1590  2.2191  0.2377
 1697SOL     OW 5231   2.871   1.817   3.052  0.3443  0.4832 -0.3722
 1697SOL    HW1 5232   2.913   1.741   3.012  1.6797  1.4908 -0.9824
 1697SOL    HW2 5233   2.937   1.886   3.048 -1.5817  2.4209 -2.1076
 1698SOL     OW 5234   0.220   1.176   2.121 -0.3009  0.8919  0.5994
 1698SOL    HW1 5235   0.262   1.262   2.124 -0.8545  1.1647  0.6726
 1698SOL    HW2 5236   0.127   1.195   2.130 -0.3519  0.2124  1.7171
 1699SOL     OW 5237   2.212   0.111   1.538 -0.1286 -0.0899 -0.2646
 1699SOL    HW1 5238   2.191   0.194   1.495 -1.0959 -1.0849 -1.7666
 1699SOL    HW2 5239   2.238   0.137   1.627 -0.5040  1.8060 -0.6629
 1700SOL     OW 5240   3.740   1.312   2.399 -0.8793 -0.0303 -0.3921
 1700SOL    HW1 5241   3.783   1.307   2.313 -2.5674  0.2355 -1.3038
 1700SOL    HW2 5242   3.803   1.357   2.455  1.3260 -2.4693 -0.7544
 1701SOL     OW 5243   2.962   1.475   1.874 -0.1353 -0.5110  0.0915
 1701SOL    HW1 5244   2.963   1.425   1.956  0.0626  0.0211  0.4186
 1701SOL    HW2 5245   2.986   1.411   1.807 -2.8222 -1.6399  0.0430
 1702SOL     OW 5246   1.169   2.241   0.708  0.7443  0.6273  0.1546
 1702SOL    HW1 5247   1.265   2.244   0.715  0.8161 -1.2488  0.4707
 1702SOL    HW2 5248   1.140   2.211   0.794  0.0558 -1.0377 -0.6101
 1703SOL     OW 5249   2.708   2.311   2.652 -0.0929  0.4227  0.5114
 1703SOL    HW1 5250   2.637   2.327   2.715 -1.5435 -2.3104 -0.2486
 1703SOL    HW2 5251   2.776   2.268   2.703  0.2233  1.3369  0.8712
 1704SOL     OW 5252   3.054   3.289   1.270 -0.4481 -0.3580  0.3500
 1704SOL    HW1 5253   3.131   3.338   1.301  0.5202 -2.0657  0.8205
 1704SOL    HW2 5254   2.998   3.281   1.347 -1.0617  0.7821  0.0379
 1705SOL     OW 5255   1.055   2.103   0.345 -0.1907 -0.8126  0.2466
 1705SOL    HW1 5256   0.968   2.119   0.309 -0.1618  0.6416  0.7725
 1705SOL    HW2 5257   1.039   2.073   0.434 -0.1572 -0.8794  0.2303
 1706SOL     OW 5258   2.116   1.723   2.246 -0.7636 -0.3364  0.2037
 1706SOL    HW1 5259   2.103   1.675   2.164 -1.5637 -0.4501  0.3887
 1706SOL    HW2 5260   2.208   1.747   2.245 -0.7746 -0.2862 -0.7623
 1707SOL     OW 5261   2.797   0.305   1.572  0.1948 -0.7120  0.0503
 1707SOL    HW1 5262   2.783   0.366   1.500  3.0308  0.7396  0.5918
 1707SOL    HW2 5263   2.720   0.316   1.627 -0.5481  0.5114 -1.1572
 1708SOL     OW 5264   1.612   3.561   2.249 -0.6789 -0.7281  0.7251
 1708SOL    HW1 5265   1.567   3.560   2.333  0.1027  0.8050  1.1964
 1708SOL    HW2 5266   1.699   3.595   2.269 -0.2253 -1.0575 -0.5957
 1709SOL     OW 5267   3.743   3.700   2.780 -0.0704 -0.5440  0.1498
 1709SOL    HW1 5268   3.692   3.635   2.829  1.4718 -2.5058 -0.6828
 1709SOL    HW2 5269   3.713   3.690   2.689 -0.3537  0.4910  0.1170
 1710SOL     OW 5270   2.102   2.575   1.682 -0.1036 -0.2171 -0.2855
 1710SOL    HW1 5271   2.192   2.552   1.658 -0.6003 -0.6929 -1.8374
 1710SOL    HW2 5272   2.085   2.524   1.760  0.7949 -0.5498 -0.2869
 1711SOL     OW 5273   3.517   0.831   0.825 -0.2718 -0.1081  0.7336
 1711SOL    HW1 5274   3.605   0.822   0.789 -0.8335  0.7090 -1.0050
 1711SOL    HW2 5275   3.521   0.793   0.912  2.6239  2.7678  2.0424
 1712SOL     OW 5276   3.121   1.425   0.307  0.4698  0.0762 -0.0640
 1712SOL    HW1 5277   3.141   1.424   0.401  0.1201 -0.5877  0.0040
 1712SOL    HW2 5278   3.058   1.355   0.294  1.5399 -0.7651 -1.0217
 1713SOL     OW 5279   0.291   1.170   0.097  0.1952  1.1111  0.1816
 1713SOL    HW1 5280   0.334   1.124   0.025  1.7537  2.3917  0.2432
 1713SOL    HW2 5281   0.198   1.167   0.075  0.1378 -2.3631  0.3948
 1714SOL     OW 5282   2.742   2.462   2.041 -0.0593 -0.7115  0.0621
 1714SOL    HW1 5283   2.665   2.451   1.985  0.4029 -0.9634 -0.5289
 1714SOL    HW2 5284   2.752   2.378   2.084  0.2423 -0.8759 -0.3235
 1715SOL     OW 5285   3.464   3.451   0.448  0.2413  0.7103 -0.2120
 1715SOL    HW1 5286   3.442   3.361   0.425 -0.5688  1.0094 -0.6046
 1715SOL    HW2 5287   3.560   3.452   0.450  0.2561 -0.1798 -0.1117
 1716SOL     OW 5288   3.224   2.350   1.210 -0.2013  0.8839  0.1361
 1716SOL    HW1 5289   3.266   2.282   1.262 -1.3398  0.3409  0.3908
 1716SOL    HW2 5290   3.269   2.430   1.234  2.1052  0.0858 -1.1747
 1717SOL     OW 5291   3.089   0.331   3.531  0.3939 -0.3974  0.2162
 1717SOL    HW1 5292   3.003   0.290   3.536  0.8926 -1.7473 -1.3054
 1717SOL    HW2 5293   3.072   0.421   3.505 -0.6883  0.2223  2.8041
 1718SOL     OW 5294   3.287   3.780   3.781 -0.0945 -0.3770 -0.9993
 1718SOL    HW1 5295   3.288   3.832   3.861 -1.3008 -1.3567 -0.3131
 1718SOL    HW2 5296   3.267   3.843   3.712 -0.5741  0.2355 -0.3138
 1719SOL     OW 5297   0.306   0.921   1.735 -0.0322  0.2449  0.6595
 1719SOL    HW1 5298   0.217   0.927   1.700  0.7165  1.5917 -1.1812
 1719SOL    HW2 5299   0.344   0.844   1.692  0.5582  1.3185 -0.8553
 1720SOL     OW 5300   0.189   3.787   3.500  0.5107  0.1506  0.5882
 1720SOL    HW1 5301   0.235   3.770   3.418 -0.2422  1.2119 -0.0614
 1720SOL    HW2 5302   0.231   3.865   3.535  1.0618 -0.4892  1.4169
 1721SOL     OW 5303   0.056   1.809   3.798 -0.3321 -0.0047  0.1614
 1721SOL    HW1 5304  -0.039   1.799   3.793 -0.3864  0.4994  0.1039
 1721SOL    HW2 5305   0.073   1.896   3.760 -0.0523  0.8424  2.1281
 1722SOL     OW 5306   0.389   3.513   1.430 -0.0739  0.3131 -0.6084
 1722SOL    HW1 5307   0.330   3.540   1.360 -0.6539  0.0926 -0.2073
 1722SOL    HW2 5308   0.423   3.428   1.402  0.1843  0.5151 -0.9165
 1723SOL     OW 5309   3.470   2.534   0.164 -0.0368  0.1528 -0.2353
 1723SOL    HW1 5310   3.454   2.504   0.074  0.6727  0.7191 -0.5570
 1723SOL    HW2 5311   3.488   2.454   0.213  0.8327 -0.0561 -0.8676
 1724SOL     OW 5312   2.573   2.438   2.846  0.2561 -0.6449 -0.1683
 1724SOL    HW1 5313   2.565   2.360   2.901  2.5802 -0.2049  0.9290
 1724SOL    HW2 5314   2.494   2.489   2.865 -0.1076 -1.5778  1.0035
 1725SOL     OW 5315  -0.013   2.091   0.240 -0.4044  0.9700 -0.2344
 1725SOL    HW1 5316   0.028   2.142   0.310 -1.8507  1.2809  0.4336
 1725SOL    HW2 5317   0.050   2.023   0.219 -0.2723  0.3367  2.0047
 1726SOL     OW 5318   2.569   1.345   0.584 -0.3306 -0.3963  0.5028
 1726SOL    HW1 5319   2.493   1.342   0.527  0.2353  0.1628 -0.3056
 1726SOL    HW2 5320   2.592   1.438   0.590  1.1450 -0.6546 -0.4672
 1727SOL     OW 5321   3.039   0.482   0.350 -0.5484  0.0283 -0.3925
 1727SOL    HW1 5322   3.075   0.410   0.401  1.1249  1.7175  0.9920
 1727SOL    HW2 5323   2.950   0.493   0.383 -1.1076 -1.8028 -1.1559
 1728SOL     OW 5324   2.744   0.395   3.771 -0.1306 -0.5578 -0.1847
 1728SOL    HW1 5325   2.728   0.374   3.863 -0.0225 -1.8704 -0.4506
 1728SOL    HW2 5326   2.794   0.321   3.738  1.9337  0.9863 -0.7140
 1729SOL     OW 5327   1.743   2.560   3.541 -0.1488  0.3088  0.4336
 1729SOL    HW1 5328   1.808   2.591   3.605  0.7774 -0.3056 -0.1829
 1729SOL    HW2 5329   1.659   2.578   3.583  0.4107  0.8691  1.3820
 1730SOL     OW 5330   2.722   2.139   1.095 -0.0985 -0.1356 -0.0973
 1730SOL    HW1 5331   2.654   2.199   1.066 -0.2792 -1.3407 -2.3987
 1730SOL    HW2 5332   2.804   2.185   1.076 -0.2235 -0.6464 -2.1676
 1731SOL     OW 5333   1.336   2.205   3.162 -0.6722 -0.5774  0.4399
 1731SOL    HW1 5334   1.429   2.230   3.157 -0.2641 -2.1237 -0.4120
 1731SOL    HW2 5335   1.289   2.288   3.168  0.6951  0.2938 -0.4412
 1732SOL     OW 5336   3.657   3.197   2.212 -0.4810  0.7969 -0.8947
 1732SOL    HW1 5337   3.665   3.108   2.247 -2.3217  1.4516  1.4902
 1732SOL    HW2 5338   3.731   3.244   2.250 -0.8219  0.8022 -0.2150
 1733SOL     OW 5339   0.135   2.319   1.003  0.3122  0.2063  0.1333
 1733SOL    HW1 5340   0.200   2.292   1.067 -1.0648  0.3113  1.6510
 1733SOL    HW2 5341   0.099   2.401   1.038  0.0365  0.6621 -1.1596
 1734SOL     OW 5342   2.499   0.901   1.655 -0.2391 -0.3786 -0.4727
 1734SOL    HW1 5343   2.564   0.940   1.714 -1.2970 -0.5588  0.8438
 1734SOL    HW2 5344   2.416   0.907   1.703 -0.8509 -2.0136 -1.2634
 1735SOL     OW 5345   1.298   0.777   1.923 -0.0168 -0.6868  0.2764
 1735SOL    HW1 5346   1.297   0.691   1.964  0.4763 -1.5195 -1.3887
 1735SOL    HW2 5347   1.385   0.784   1.883  0.6517  1.3424  1.8626
 1736SOL     OW 5348   2.990   3.491   3.341  0.1617 -0.3364 -0.1471
 1736SOL    HW1 5349   2.978   3.492   3.436  2.5394  0.2395  0.1938
 1736SOL    HW2 5350   2.948   3.410   3.313 -0.7857 -0.4037  1.3460
 1737SOL     OW 5351   0.970   2.713   1.483 -0.7883 -0.0913 -0.3262
 1737SOL    HW1 5352   1.029   2.687   1.554 -0.6075 -1.3640 -0.9103
 1737SOL    HW2 5353   0.895   2.752   1.527 -1.8737 -3.1288  0.8180
 1738SOL     OW 5354   1.343   1.746   2.823  0.5234 -0.2305  0.1779
 1738SOL    HW1 5355   1.352   1.677   2.758  0.5353  1.0105 -1.1980
 1738SOL    HW2 5356   1.340   1.700   2.907 -2.4590 -2.1403 -0.8130
 1739SOL     OW 5357   1.930   0.338   1.959  0.0417 -0.4904 -0.3853
 1739SOL    HW1 5358   1.953   0.245   1.963  1.3877 -0.1652 -0.1940
 1739SOL    HW2 5359   1.837   0.341   1.984  0.6164 -1.5425  2.1824
 1740SOL     OW 5360   3.339   1.526   0.594  0.0979  0.7678  0.6775
 1740SOL    HW1 5361   3.299   1.594   0.649 -0.3707  0.0631  1.2314
 1740SOL    HW2 5362   3.408   1.572   0.545 -1.0137  1.9048  0.1094
 1741SOL     OW 5363   1.729   1.476   2.464 -0.2333  0.2758  0.4560
 1741SOL    HW1 5364   1.651   1.423   2.450  0.3729 -0.2922 -0.9128
 1741SOL    HW2 5365   1.749   1.513   2.378  0.2606  1.4739  1.0669
 1742SOL     OW 5366   2.544   0.122   3.600 -0.2818  0.1383 -0.1532
 1742SOL    HW1 5367   2.452   0.107   3.624 -0.2725 -1.8753 -1.1233
 1742SOL    HW2 5368   2.592   0.113   3.683 -0.6147 -2.8776 -0.1750
 1743SOL     OW 5369   2.863   3.737   0.864  0.3903 -0.4887 -0.3980
 1743SOL    HW1 5370   2.879   3.794   0.940 -0.2020 -0.6106 -0.1801
 1743SOL    HW2 5371   2.818   3.661   0.900 -0.8927 -0.0557 -1.0211
 1744SOL     OW 5372   0.522   1.633   3.758  0.1848  0.4806 -0.2176
 1744SOL    HW1 5373   0.544   1.682   3.678  0.3219 -0.4796 -0.7789
 1744SOL    HW2 5374   0.426   1.631   3.759  0.1809 -0.6706 -1.1046
 1745SOL     OW 5375   2.082   1.170   0.169  0.0960 -0.6575  0.0562
 1745SOL    HW1 5376   2.054   1.261   0.158  0.2995 -0.6552 -0.4477
 1745SOL    HW2 5377   2.007   1.127   0.210 -1.4909 -1.0944 -2.9892
 1746SOL     OW 5378   3.551   3.046   1.284  0.3572  0.1930 -0.2781
 1746SOL    HW1 5379   3.587   3.113   1.342 -1.2251  1.2635 -0.4606
 1746SOL    HW2 5380   3.458   3.041   1.309  0.1799 -1.0509 -1.1173
 1747SOL     OW 5381   3.612   0.441   1.676 -0.3133  0.1638  0.6467
 1747SOL    HW1 5382   3.562   0.384   1.734  0.0309 -1.0699 -0.2295
 1747SOL    HW2 5383   3.642   0.513   1.733  2.4990 -2.4417  2.8161
 1748SOL     OW 5384   0.856   1.319   1.874  0.1812  0.0148 -0.7445
 1748SOL    HW1 5385   0.805   1.239   1.883 -0.7381  0.6642 -0.0957
 1748SOL    HW2 5386   0.891   1.335   1.961 -0.1766  0.6772 -0.7232
 1749SOL     OW 5387   2.922   1.933   1.218 -0.1532 -0.2556 -0.4951
 1749SOL    HW1 5388   2.927   2.022   1.182  2.1163  0.1341  0.6155
 1749SOL    HW2 5389   3.013   1.908   1.235 -0.8789 -1.0637  3.2172
 1750SOL     OW 5390   2.653   0.062   2.810 -0.4740  0.7039  0.2106
 1750SOL    HW1 5391   2.560   0.076   2.795 -0.5778  0.3029  0.4472
 1750SOL    HW2 5392   2.663   0.064   2.905 -0.4298 -0.3184  0.2470
 1751SOL     OW 5393   0.927   2.392   0.651 -0.2015  0.2382  0.3501
 1751SOL    HW1 5394   0.975   2.457   0.599 -0.7507  0.0130 -0.4490
 1751SOL    HW2 5395   0.995   2.335   0.687  0.5926  2.8524  3.4140
 1752SOL     OW 5396   3.642   1.512   3.488 -0.3882 -0.0713  0.3907
 1752SOL    HW1 5397   3.679   1.433   3.449  0.1980 -1.2126  3.0380
 1752SOL    HW2 5398   3.573   1.480   3.545 -2.4940  1.6869 -1.0131
 1753SOL     OW 5399   0.987   0.511   3.337 -0.2061 -0.3254 -0.1330
 1753SOL    HW1 5400   1.073   0.514   3.296 -0.5261  0.0813 -0.7893
 1753SOL    HW2 5401   0.981   0.593   3.386  0.4820 -1.1480  1.3944
 1754SOL     OW 5402   1.254   0.558   0.136 -0.1198  0.1552 -0.2803
 1754SOL    HW1 5403   1.267   0.590   0.046 -0.0536 -0.6933 -0.5837
 1754SOL    HW2 5404   1.277   0.465   0.132  1.3770  0.4376  0.9713
 1755SOL     OW 5405   1.587   2.838   0.572  0.5277 -0.2087  0.3701
 1755SOL    HW1 5406   1.581   2.911   0.510  3.2784  0.8430  1.1906
 1755SOL    HW2 5407   1.602   2.761   0.518  0.5726  0.3190 -0.3864
 1756SOL     OW 5408   0.610   3.679   2.418  0.6332 -0.0145 -0.4664
 1756SOL    HW1 5409   0.653   3.742   2.361  1.4276  0.7366  0.9089
 1756SOL    HW2 5410   0.591   3.727   2.498 -1.6302 -0.6910 -0.5266
 1757SOL     OW 5411   2.601   2.209   2.976  0.9265  0.0622  0.4321
 1757SOL    HW1 5412   2.665   2.165   2.921  1.7520 -0.3145  1.6508
 1757SOL    HW2 5413   2.651   2.239   3.052 -0.0497  1.1526  0.6749
 1758SOL     OW 5414   2.387   0.869   1.107 -0.1168 -0.3949 -0.4550
 1758SOL    HW1 5415   2.401   0.932   1.178 -1.7493  0.1809 -0.5927
 1758SOL    HW2 5416   2.347   0.793   1.150  0.3511 -0.6846 -0.5294
 1759SOL     OW 5417   0.583   1.746   2.298  0.6938 -0.2235  0.3575
 1759SOL    HW1 5418   0.601   1.708   2.385 -3.4046 -1.0215  1.0427
 1759SOL    HW2 5419   0.493   1.721   2.279  1.0898  0.7890 -3.7721
 1760SOL     OW 5420   1.794   1.981   0.502 -0.0047 -0.3945  0.3560
 1760SOL    HW1 5421   1.783   2.067   0.462 -1.3598 -0.3012  0.8624
 1760SOL    HW2 5422   1.736   1.924   0.451  1.3896 -1.1750 -0.4095
 1761SOL     OW 5423   1.426   0.357   3.237 -0.4573  0.2186  0.1456
 1761SOL    HW1 5424   1.414   0.419   3.309 -1.3409  0.9236 -0.5791
 1761SOL    HW2 5425   1.515   0.372   3.208 -0.5873  1.0119  0.1241
 1762SOL     OW 5426   1.968   2.218   1.706  0.3190 -0.6122 -0.2597
 1762SOL    HW1 5427   1.964   2.210   1.801  0.3049 -2.0591 -0.3577
 1762SOL    HW2 5428   1.890   2.269   1.683 -0.5618 -1.6137  0.3940
 1763SOL     OW 5429   1.349   0.569   3.436  0.2809  0.0274 -0.2709
 1763SOL    HW1 5430   1.284   0.589   3.503 -1.5384  0.9916 -2.1839
 1763SOL    HW2 5431   1.369   0.653   3.395  2.3248 -0.3422 -0.1529
 1764SOL     OW 5432   1.664   2.867   1.161  0.2606 -0.2887 -0.0040
 1764SOL    HW1 5433   1.613   2.858   1.080  1.2804 -1.2792 -0.5645
 1764SOL    HW2 5434   1.715   2.787   1.166 -0.6672 -0.7986  2.2864
 1765SOL     OW 5435   3.523   2.910   1.960  0.2316 -0.5894  0.1089
 1765SOL    HW1 5436   3.604   2.946   1.924  0.7305 -1.3111  0.4638
 1765SOL    HW2 5437   3.533   2.919   2.055 -0.7790  0.6969  0.1094
 1766NA      NA 5438   0.768   2.758   2.673  0.2191 -0.2380  0.0663
 1767NA      NA 5439   2.882   3.591   3.129  0.0736  0.0750 -0.9730
   3.84520   3.84520   3.84520
