Protein in water
 5435
    0TYR      N    1   1.290   2.344   1.859 -0.5422 -0.1980  0.2133
    0TYR     H1    2   1.227   2.413   1.813  1.6344  0.4089 -2.0883
    0TYR     H2    3   1.367   2.316   1.795 -2.2495 -0.3323 -1.8856
    0TYR     H3    4   1.319   2.395   1.945 -2.6863  0.1396  0.7983
    0TYR     CA    5   1.228   2.210   1.897  0.1294 -0.3486  0.1388
    0TYR     HA    6   1.224   2.160   1.802 -1.7798 -0.7175  0.3653
    0TYR     CB    7   1.311   2.142   2.007  0.4579 -0.6164 -0.2340
    0TYR    HB1    8   1.267   2.040   2.006 -2.3957  0.5193 -0.6446
    0TYR    HB2    9   1.305   2.178   2.111  0.2292  1.0017 -0.7810
    0TYR     CG   10   1.449   2.118   1.965 -0.1819 -0.0894  0.0175
    0TYR    CD1   11   1.479   1.999   1.887 -0.3341  0.8198 -0.1395
    0TYR    HD1   12   1.401   1.930   1.860  0.0436  1.0072 -1.8622
    0TYR    CE1   13   1.607   1.973   1.834 -0.5329  0.6391 -0.6362
    0TYR    HE1   14   1.624   1.887   1.770 -0.4063  0.9019 -0.9555
    0TYR     CZ   15   1.712   2.057   1.871 -0.0356  0.0767 -0.5109
    0TYR     OH   16   1.844   2.039   1.823  0.7000  0.2914 -0.4812
    0TYR     HH   17   1.906   2.104   1.856  1.1237 -1.0818  1.6660
    0TYR    CD2   18   1.549   2.208   1.988 -0.4053 -0.7448  0.1844
    0TYR    HD2   19   1.529   2.298   2.046  0.3485 -0.3982 -0.0841
    0TYR    CE2   20   1.675   2.183   1.940 -0.4105 -0.8041 -0.2455
    0TYR    HE2   21   1.767   2.233   1.968 -1.0973  0.2915  0.1147
    0TYR      C   22   1.083   2.227   1.943 -0.8578  0.1323 -0.0358
    0TYR      O   23   1.026   2.330   1.942  0.1844 -0.4147 -0.2018
    1TYR      N   24   1.015   2.114   1.980 -0.0064 -0.4446  0.1685
    1TYR     HN   25   1.058   2.024   1.973  1.4237  0.2924 -1.2041
    1TYR     CA   26   0.883   2.110   2.012  0.2678  0.2140 -0.3358
    1TYR     HA   27   0.829   2.193   1.967  0.6520 -0.2316 -1.6731
    1TYR     CB   28   0.808   1.975   1.968  0.5036  0.5002 -0.3804
    1TYR    HB1   29   0.866   1.896   2.019  1.0424  0.3418 -1.2268
    1TYR    HB2   30   0.828   1.966   1.859  0.6219  0.7206 -0.3774
    1TYR     CG   31   0.665   1.967   1.999  0.0204 -0.2646  0.8907
    1TYR    CD1   32   0.618   1.892   2.109 -0.8543 -0.3804 -0.2414
    1TYR    HD1   33   0.684   1.823   2.160 -1.0546  0.0362  0.6073
    1TYR    CE1   34   0.483   1.897   2.150 -0.2930  0.3793  0.9860
    1TYR    HE1   35   0.442   1.834   2.227  0.1784 -0.7423  0.3431
    1TYR     CZ   36   0.397   1.976   2.071  0.2687 -0.6361  0.2591
    1TYR     OH   37   0.258   1.988   2.084 -0.0512  0.7211 -0.3127
    1TYR     HH   38   0.219   1.925   2.144  0.8306 -0.3164 -0.7778
    1TYR    CD2   39   0.580   2.058   1.937  0.1675 -0.2745  0.3021
    1TYR    HD2   40   0.615   2.136   1.871  0.4285 -0.4889  0.1833
    1TYR    CE2   41   0.444   2.053   1.969 -0.3260 -0.3783 -0.4163
    1TYR    HE2   42   0.383   2.119   1.910  1.5677  1.0503 -0.8726
    1TYR      C   43   0.864   2.144   2.159 -0.4084  0.5904 -0.7765
    1TYR      O   44   0.900   2.068   2.246 -0.4668  0.0403  0.4805
    2ASP      N   45   0.807   2.261   2.189 -0.0653 -0.6417  0.1815
    2ASP     HN   46   0.786   2.325   2.115 -1.5743 -0.6726  0.5737
    2ASP     CA   47   0.751   2.293   2.319 -0.3480 -0.0358 -0.4302
    2ASP     HA   48   0.815   2.275   2.404 -1.7700  0.7374  0.8460
    2ASP     CB   49   0.725   2.443   2.312 -0.1507  0.2797 -0.5513
    2ASP    HB1   50   0.657   2.475   2.229 -1.2800  1.8728  0.9100
    2ASP    HB2   51   0.825   2.489   2.296 -0.2640  0.9369  0.5416
    2ASP     CG   52   0.687   2.502   2.445 -0.2302  0.1035 -0.5746
    2ASP    OD1   53   0.651   2.424   2.541 -0.1191  0.2017  0.4264
    2ASP    OD2   54   0.699   2.626   2.457 -0.1631  0.4475 -0.8138
    2ASP      C   55   0.616   2.218   2.346  0.1219  0.0772  0.9838
    2ASP      O   56   0.521   2.255   2.275 -0.5129  0.6042  0.4281
    3PRO      N   57   0.599   2.135   2.450 -0.4895 -0.7407  0.2635
    3PRO     CD   58   0.704   2.065   2.525  1.0743 -0.5306 -0.4434
    3PRO    HD1   59   0.772   2.017   2.451  2.5418  1.6386 -0.5890
    3PRO    HD2   60   0.774   2.132   2.579  0.6713 -0.8517  0.4880
    3PRO     CA   61   0.479   2.053   2.465 -0.4734  0.7642  0.3298
    3PRO     HA   62   0.451   2.033   2.362  1.1348 -0.6613  0.1171
    3PRO     CB   63   0.524   1.924   2.528 -0.5807  0.3976 -0.5736
    3PRO    HB1   64   0.553   1.851   2.449 -2.6685 -2.1416  0.8509
    3PRO    HB2   65   0.444   1.869   2.581 -1.3055  0.2454 -1.7813
    3PRO     CG   66   0.630   1.969   2.626 -0.2728 -0.1352 -0.0572
    3PRO    HG1   67   0.700   1.891   2.662 -0.3264 -1.2875 -2.2650
    3PRO    HG2   68   0.597   2.033   2.711  2.0393  0.7762  0.2346
    3PRO      C   69   0.373   2.135   2.532 -0.0064  0.4808  0.6468
    3PRO      O   70   0.248   2.114   2.518 -0.9241  0.3698  0.0326
    4GLU      N   71   0.420   2.235   2.603 -0.2698  0.5628  0.0182
    4GLU     HN   72   0.516   2.259   2.616  0.4723 -0.6927 -2.4948
    4GLU     CA   73   0.324   2.315   2.676  0.1132  0.2978  0.8118
    4GLU     HA   74   0.235   2.262   2.706  0.2664  0.2674  1.2147
    4GLU     CB   75   0.393   2.382   2.807  0.2312  0.0925 -0.7187
    4GLU    HB1   76   0.463   2.455   2.762 -0.4087  0.3570 -1.3212
    4GLU    HB2   77   0.453   2.307   2.862  0.9038  0.7678 -0.5160
    4GLU     CG   78   0.296   2.459   2.901 -0.0038 -1.2236 -0.3439
    4GLU    HG1   79   0.245   2.544   2.850 -0.3568 -0.1133  1.7182
    4GLU    HG2   80   0.357   2.506   2.982  1.5634 -2.9562 -0.4594
    4GLU     CD   81   0.194   2.381   2.969 -0.5205 -0.5720 -0.8231
    4GLU    OE1   82   0.234   2.295   3.055  0.0952  0.8579 -0.0211
    4GLU    OE2   83   0.076   2.409   2.948  0.8337 -0.0357 -0.1243
    4GLU      C   84   0.271   2.441   2.602 -0.3647 -0.5563 -0.1883
    4GLU      O   85   0.156   2.481   2.616 -0.0749 -0.1400  0.3320
    5THR      N   86   0.355   2.495   2.509  0.5040 -0.1628 -0.1720
    5THR     HN   87   0.437   2.447   2.480  1.1372  0.7533  0.0275
    5THR     CA   88   0.295   2.596   2.419 -0.3105  0.2536  0.6354
    5THR     HA   89   0.201   2.634   2.453 -0.3137  0.2798  0.5981
    5THR     CB   90   0.396   2.702   2.390 -0.5623  0.2072  0.1848
    5THR     HB   91   0.487   2.662   2.340 -0.3953  2.3480 -1.3521
    5THR    OG1   92   0.445   2.772   2.498 -0.5382  0.2998 -0.9042
    5THR    HG1   93   0.531   2.737   2.522  0.3280  2.8142 -0.0943
    5THR    CG2   94   0.345   2.802   2.291 -0.1030  0.0535  0.1073
    5THR   HG21   95   0.420   2.883   2.288  0.1903 -0.2395 -1.1256
    5THR   HG22   96   0.254   2.861   2.316  0.7007  0.7167  1.5809
    5THR   HG23   97   0.332   2.770   2.185 -1.2489  1.7089 -0.2926
    5THR      C   98   0.246   2.527   2.292  0.1707 -0.5797 -0.5260
    5THR      O   99   0.163   2.584   2.221  0.0024  0.1727 -0.2739
    6GLY      N  100   0.277   2.403   2.274  0.0124  0.1783  0.3560
    6GLY     HN  101   0.342   2.362   2.338  0.3577 -0.9826 -0.7007
    6GLY     CA  102   0.227   2.325   2.159 -0.2076 -0.4968 -0.4235
    6GLY    HA1  103   0.121   2.346   2.151 -0.4471 -1.3926  0.2293
    6GLY    HA2  104   0.246   2.221   2.180  0.1442 -0.9831 -2.8150
    6GLY      C  105   0.282   2.359   2.025 -0.2313  0.0961  0.1303
    6GLY      O  106   0.210   2.330   1.920  0.4713 -0.2873  0.0666
    7VAL      N  107   0.406   2.422   2.010  0.4719  0.1143 -0.2706
    7VAL     HN  108   0.464   2.427   2.092  1.0498 -0.1143 -0.6619
    7VAL     CA  109   0.450   2.465   1.878 -0.6659 -0.6063  0.0348
    7VAL     HA  110   0.392   2.418   1.800  0.1107 -2.9805  0.7761
    7VAL     CB  111   0.447   2.620   1.852 -0.1557  0.8645  0.0244
    7VAL     HB  112   0.498   2.645   1.757  1.1900 -1.0547  0.1910
    7VAL    CG1  113   0.522   2.689   1.969  0.2744 -0.1745  0.4504
    7VAL   HG11  114   0.485   2.648   2.065 -0.6189 -0.3263  0.0521
    7VAL   HG12  115   0.630   2.666   1.974  0.3803 -0.4017 -1.7919
    7VAL   HG13  116   0.502   2.798   1.960 -2.8356 -0.7075 -0.6862
    7VAL    CG2  117   0.303   2.682   1.838 -0.4143  0.1123 -0.0400
    7VAL   HG21  118   0.255   2.634   1.750  2.3550 -0.2702 -1.4588
    7VAL   HG22  119   0.303   2.793   1.834 -1.5841  0.2201  1.6218
    7VAL   HG23  120   0.245   2.649   1.927  0.9192 -3.0805 -0.2238
    7VAL      C  121   0.594   2.417   1.857  0.7094  0.3291  0.2761
    7VAL      O  122   0.666   2.382   1.952  0.2868  0.3016  0.2058
    8TRP      N  123   0.629   2.423   1.726  0.0771 -0.1184 -0.5306
    8TRP     HN  124   0.567   2.436   1.649 -3.8102 -2.2294  1.9073
    8TRP     CA  125   0.768   2.407   1.690 -0.7344  0.1336 -0.0555
    8TRP     HA  126   0.819   2.350   1.766  0.4613  3.1938  1.5718
    8TRP     CB  127   0.762   2.333   1.557 -0.1021  0.1167  0.4696
    8TRP    HB1  128   0.862   2.296   1.525 -0.4041 -0.0345 -0.3278
    8TRP    HB2  129   0.743   2.399   1.470  2.0595 -1.9145 -1.6858
    8TRP     CG  130   0.680   2.215   1.550  0.8368 -0.3237  0.1971
    8TRP    CD1  131   0.682   2.100   1.621  0.4739 -0.1223 -0.5477
    8TRP    HD1  132   0.759   2.087   1.695 -0.7081 -0.9868  0.5685
    8TRP    NE1  133   0.582   2.018   1.586  0.1707  0.7901  0.2567
    8TRP    HE1  134   0.561   1.937   1.637 -1.7413  0.2759 -1.2545
    8TRP    CE2  135   0.510   2.073   1.482 -0.1325  0.2269 -0.0723
    8TRP    CD2  136   0.567   2.199   1.455 -0.6305 -0.0032  0.0116
    8TRP    CE3  137   0.520   2.269   1.348 -0.2168 -0.4801 -0.4076
    8TRP    HE3  138   0.564   2.364   1.324 -1.0755  0.0055 -0.1033
    8TRP    CZ3  139   0.414   2.226   1.280 -0.4016  0.5269  0.0212
    8TRP    HZ3  140   0.402   2.278   1.186  2.5238 -0.6020 -1.0896
    8TRP    CZ2  141   0.402   2.025   1.414  0.5752  0.3773  0.4865
    8TRP    HZ2  142   0.340   1.939   1.436  0.1662 -0.1975 -2.4484
    8TRP    CH2  143   0.363   2.095   1.301  0.2163 -0.2726  0.4209
    8TRP    HH2  144   0.288   2.068   1.230  2.1863  0.1459 -1.9620
    8TRP      C  145   0.846   2.534   1.687 -0.0224 -0.8113  0.2900
    8TRP      O  146   0.821   2.617   1.600 -0.1182 -0.0603 -0.2441
    9TYR      N  147   0.939   2.560   1.784 -0.2303 -1.0210 -0.2642
    9TYR     HN  148   0.929   2.503   1.865 -1.6687  1.2222  1.2487
    9TYR     CA  149   1.033   2.670   1.774 -0.2728 -0.4348 -0.0019
    9TYR     HA  150   0.989   2.749   1.716  0.1787 -0.0095  0.2269
    9TYR     CB  151   1.087   2.710   1.911  0.4519  0.2537  0.4615
    9TYR    HB1  152   1.175   2.776   1.899  0.9903 -0.4566  0.4945
    9TYR    HB2  153   1.123   2.626   1.973  0.9045  0.0799 -0.0339
    9TYR     CG  154   0.983   2.776   1.997  0.2860 -0.0563 -0.0211
    9TYR    CD1  155   0.968   2.739   2.131 -0.6110 -0.1527  0.3536
    9TYR    HD1  156   1.045   2.672   2.168 -2.3694 -2.5861 -0.1232
    9TYR    CE1  157   0.866   2.794   2.216 -0.4159  0.7203  0.7040
    9TYR    HE1  158   0.871   2.760   2.318  1.3792 -1.2820  0.0308
    9TYR     CZ  159   0.764   2.867   2.165  0.3856  0.4484 -0.5296
    9TYR     OH  160   0.660   2.908   2.255  0.8143  0.5292  0.1033
    9TYR     HH  161   0.652   2.841   2.323  1.6002  1.7448  1.4506
    9TYR    CD2  162   0.888   2.872   1.952  0.5801  0.0762 -0.6157
    9TYR    HD2  163   0.893   2.913   1.852 -2.0026  1.0756 -0.4087
    9TYR    CE2  164   0.789   2.928   2.038  0.0285  0.4213  0.9398
    9TYR    HE2  165   0.729   3.009   1.999 -0.9007 -0.4837  0.4451
    9TYR      C  166   1.162   2.635   1.694 -0.0045 -0.0014  0.7490
    9TYR    OT1  167   1.238   2.719   1.638 -0.7716  0.8032  0.2573
    9TYR    OT2  168   1.192   2.513   1.676 -0.5499  0.2694  0.0793
   10SOL     OW  169   1.572   2.562   2.562 -0.1245  0.4024  0.1291
   10SOL    HW1  170   1.657   2.538   2.523 -0.5674  3.3698 -3.1539
   10SOL    HW2  171   1.596   2.607   2.644  1.4356  0.4962 -0.3352
   11SOL     OW  172   2.720   0.108   2.352 -0.6990 -0.5938 -0.3892
   11SOL    HW1  173   2.666   0.041   2.393 -0.3854 -0.3749  0.3884
   11SOL    HW2  174   2.803   0.064   2.334 -0.7233 -0.5979 -0.4913
   12SOL     OW  175   0.493   1.753   1.662  0.7040  0.3657  0.0785
   12SOL    HW1  176   0.440   1.694   1.717  1.7791  0.9428  1.8170
   12SOL    HW2  177   0.583   1.726   1.679  1.0914  0.9456 -1.0019
   13SOL     OW  178   2.742   1.582   3.220 -0.0029  0.1768 -0.0069
   13SOL    HW1  179   2.800   1.573   3.295  1.3774 -1.2499 -1.1749
   13SOL    HW2  180   2.700   1.496   3.211  1.1144 -0.2479 -1.7896
   14SOL     OW  181   1.664   1.723   2.034 -0.0519 -0.2508 -0.2810
   14SOL    HW1  182   1.687   1.801   2.084 -0.1178 -1.7429  2.3101
   14SOL    HW2  183   1.734   1.661   2.053 -0.6755 -1.2624 -1.1660
   15SOL     OW  184   3.049   3.533   0.412  0.2536 -0.1316 -0.0894
   15SOL    HW1  185   2.974   3.564   0.361 -0.1795 -0.4569  0.3393
   15SOL    HW2  186   3.017   3.453   0.454  0.6726  0.0179  0.5158
   16SOL     OW  187   0.411   3.416   0.727 -0.2874  0.3972 -0.2846
   16SOL    HW1  188   0.426   3.509   0.708 -0.0440  0.3163 -0.4901
   16SOL    HW2  189   0.494   3.385   0.764  0.0873 -0.0599 -1.4567
   17SOL     OW  190   2.155   1.512   1.732 -1.3336 -0.2141  0.3854
   17SOL    HW1  191   2.124   1.478   1.648 -0.4228  0.5795 -0.2919
   17SOL    HW2  192   2.156   1.436   1.790 -0.0352 -1.2265 -0.8858
   18SOL     OW  193   0.811   2.897   3.363 -0.0973  0.0075 -0.1350
   18SOL    HW1  194   0.718   2.897   3.384 -0.0349  0.4507  0.1528
   18SOL    HW2  195   0.825   2.816   3.315 -0.5011 -0.3898  0.4041
   19SOL     OW  196   1.331   0.337  -0.004  0.5843  0.3299  0.1511
   19SOL    HW1  197   1.422   0.321   0.018  1.1998 -1.2094 -2.9770
   19SOL    HW2  198   1.324   0.433  -0.008  1.9833  0.4789  0.6580
   20SOL     OW  199   0.901   2.117   0.691  0.3031  0.7925 -0.5247
   20SOL    HW1  200   0.990   2.080   0.694 -0.0173 -0.2432 -2.1227
   20SOL    HW2  201   0.907   2.190   0.629  0.2242  1.2918  0.0531
   21SOL     OW  202   3.395   0.586   3.022 -0.1382 -0.0371 -0.3985
   21SOL    HW1  203   3.382   0.510   3.078 -2.5733  0.1979 -0.5397
   21SOL    HW2  204   3.425   0.655   3.081  0.9032 -0.7515 -0.0677
   22SOL     OW  205   1.360   3.417   2.282  0.8990  0.2346  0.5617
   22SOL    HW1  206   1.374   3.377   2.196  1.1638  0.8545  0.3145
   22SOL    HW2  207   1.428   3.378   2.337  2.9059  2.2697 -0.3250
   23SOL     OW  208   1.829   2.274   2.308  0.1223  0.4509  0.1936
   23SOL    HW1  209   1.817   2.363   2.341 -0.5677 -0.2054  1.7769
   23SOL    HW2  210   1.814   2.218   2.383 -0.7285 -1.0846 -1.0604
   24SOL     OW  211   2.729   0.292   0.506  0.1864  0.6224  0.2686
   24SOL    HW1  212   2.690   0.350   0.571  0.2541 -1.2622  2.1106
   24SOL    HW2  213   2.670   0.216   0.504  2.1341 -1.0065  0.9562
   25SOL     OW  214   0.854   0.387   1.681  0.4964  0.0831 -0.1218
   25SOL    HW1  215   0.923   0.337   1.637 -0.2318 -0.7884 -0.3005
   25SOL    HW2  216   0.845   0.346   1.767 -0.4061 -0.3843 -0.4302
   26SOL     OW  217   1.577   0.363   0.101 -0.7893 -0.4825 -1.1959
   26SOL    HW1  218   1.617   0.309   0.169 -1.1547 -1.3499 -1.6634
   26SOL    HW2  219   1.571   0.450   0.141  0.1651 -0.6811 -0.5758
   27SOL     OW  220   0.256   1.661   2.548 -0.7008 -1.2199  0.1974
   27SOL    HW1  221   0.349   1.673   2.526 -0.9536  1.7493  0.3942
   27SOL    HW2  222   0.250   1.686   2.641 -1.6698 -1.6868  0.2736
   28SOL     OW  223   0.817   1.067   0.912 -0.3650 -0.0538  0.7121
   28SOL    HW1  224   0.742   1.011   0.895  0.3346 -1.2070  1.3257
   28SOL    HW2  225   0.813   1.086   1.006 -0.0345  0.0942  0.6998
   29SOL     OW  226   2.154   3.645   1.692 -0.0327  0.0256 -0.1072
   29SOL    HW1  227   2.162   3.690   1.608  1.8902  1.1958  0.6477
   29SOL    HW2  228   2.230   3.587   1.695 -0.9625 -1.2262  0.1674
   30SOL     OW  229   2.457   1.115   3.265 -0.0052  0.1197 -0.3752
   30SOL    HW1  230   2.381   1.161   3.300 -0.4378 -1.8243  1.4225
   30SOL    HW2  231   2.424   1.065   3.191  0.3192  1.9706 -1.8594
   31SOL     OW  232   0.835   0.220   0.490 -0.7926  0.0017 -0.1474
   31SOL    HW1  233   0.758   0.244   0.438 -0.8054 -0.6017 -0.4140
   31SOL    HW2  234   0.799   0.197   0.576 -0.9367 -0.4975 -0.3391
   32SOL     OW  235   0.117   2.244   3.304  0.2760 -0.2132 -0.1490
   32SOL    HW1  236   0.213   2.238   3.304  0.2261 -1.3188 -0.2975
   32SOL    HW2  237   0.096   2.283   3.219  0.6053  0.5165  0.0930
   33SOL     OW  238   0.054   3.577   2.241 -0.1588 -0.1290 -0.7080
   33SOL    HW1  239  -0.040   3.594   2.240 -0.5184 -1.7616  0.2833
   33SOL    HW2  240   0.086   3.626   2.316 -0.7262 -1.6422  0.5776
   34SOL     OW  241   1.843   0.572   2.581  0.0336  0.1652 -0.1627
   34SOL    HW1  242   1.772   0.629   2.551 -0.9488  0.4841  2.5213
   34SOL    HW2  243   1.897   0.627   2.637  0.2203 -1.0204  0.8649
   35SOL     OW  244   0.411   1.392   2.219  0.1587  0.1311  0.0492
   35SOL    HW1  245   0.488   1.430   2.177 -0.3996  1.2459 -0.0043
   35SOL    HW2  246   0.405   1.304   2.182  0.0423  0.8578 -1.7484
   36SOL     OW  247   0.236   1.365   1.612  0.1975  0.4550 -0.1456
   36SOL    HW1  248   0.304   1.379   1.678 -0.1089 -0.3894  0.3711
   36SOL    HW2  249   0.157   1.403   1.651  0.1323  0.4528 -0.2743
   37SOL     OW  250   1.857   0.361   1.204 -0.5345  0.0082 -0.6494
   37SOL    HW1  251   1.951   0.346   1.204 -0.3806  0.8911  0.0363
   37SOL    HW2  252   1.822   0.294   1.263 -0.5065 -1.1531 -1.8948
   38SOL     OW  253   3.411   3.663   0.759 -0.2395 -0.4268 -0.4075
   38SOL    HW1  254   3.400   3.624   0.672 -0.3671  1.9392 -1.5330
   38SOL    HW2  255   3.333   3.636   0.808  0.9914 -3.8846 -0.0579
   39SOL     OW  256   2.843   1.727   0.872 -0.2278 -0.1387 -0.1274
   39SOL    HW1  257   2.850   1.634   0.851  1.0724 -0.7389  2.5186
   39SOL    HW2  258   2.751   1.749   0.858 -0.7364 -2.0601  0.0422
   40SOL     OW  259   3.178   0.240  -0.009 -0.3309 -0.2849 -0.9166
   40SOL    HW1  260   3.190   0.329  -0.042 -1.2583  0.0788 -0.2926
   40SOL    HW2  261   3.204   0.244   0.083  0.4172 -0.8629 -1.0852
   41SOL     OW  262   1.187   1.006   3.699  0.0310  0.1178 -0.4444
   41SOL    HW1  263   1.173   0.913   3.684 -1.9331  0.3878 -0.6149
   41SOL    HW2  264   1.142   1.049   3.626  1.0774  1.2120 -0.4863
   42SOL     OW  265   1.231   0.381   1.726  0.4835  0.1156 -0.6659
   42SOL    HW1  266   1.169   0.313   1.697 -0.4872  0.2142  1.0257
   42SOL    HW2  267   1.207   0.397   1.818  1.3911  1.9886 -0.7151
   43SOL     OW  268   2.376   1.621   0.442 -0.2935  0.2136  0.7502
   43SOL    HW1  269   2.411   1.670   0.517  0.5019 -2.6728  2.4522
   43SOL    HW2  270   2.284   1.645   0.439  0.2100  2.3938  0.9251
   44SOL     OW  271   0.805   3.471   0.552  0.1754  0.3569  0.3796
   44SOL    HW1  272   0.758   3.388   0.560  1.9585 -0.8203 -0.6894
   44SOL    HW2  273   0.828   3.477   0.459 -2.2384  3.4515 -0.1790
   45SOL     OW  274   0.012   0.347   2.799 -0.0834  0.1508  0.2328
   45SOL    HW1  275   0.001   0.369   2.892  0.5747  0.9379  0.1332
   45SOL    HW2  276   0.073   0.413   2.766 -1.8676  1.1401 -1.2545
   46SOL     OW  277   1.032   2.129   1.276  0.0681 -0.7915 -0.0144
   46SOL    HW1  278   1.127   2.139   1.285  0.4222 -1.1507 -2.4550
   46SOL    HW2  279   1.002   2.214   1.246 -0.9161  0.2176  3.4115
   47SOL     OW  280   0.636   2.903   1.348 -0.0795  0.2140 -0.0375
   47SOL    HW1  281   0.663   2.994   1.335 -0.7925  0.3509 -0.6525
   47SOL    HW2  282   0.552   2.896   1.301 -0.7011 -0.4024  1.1304
   48SOL     OW  283   1.787   0.613  -0.015 -0.6667  0.1807  0.8202
   48SOL    HW1  284   1.873   0.645   0.012 -0.5781  0.8119 -0.1837
   48SOL    HW2  285   1.746   0.584   0.067  0.6995 -0.6683  1.2424
   49SOL     OW  286   0.246   3.697   3.354 -0.8237 -0.3925 -0.0579
   49SOL    HW1  287   0.208   3.631   3.296 -0.3683 -0.5680 -0.1632
   49SOL    HW2  288   0.188   3.700   3.430 -2.4793  1.1482 -1.3017
   50SOL     OW  289   3.307   0.392   2.011 -0.7715  0.2743 -0.7273
   50SOL    HW1  290   3.269   0.422   2.093 -1.0593 -0.9221 -0.3948
   50SOL    HW2  291   3.336   0.472   1.967 -0.4294  0.9260  0.6241
   51SOL     OW  292   2.185   0.492   3.166 -0.1396  0.1704 -0.1107
   51SOL    HW1  293   2.180   0.488   3.262 -1.9859  1.0008 -0.1362
   51SOL    HW2  294   2.104   0.535   3.139 -0.7142 -1.9937 -2.2098
   52SOL     OW  295   0.299   3.180   0.051  0.2157  0.2759  0.0018
   52SOL    HW1  296   0.207   3.200   0.067  0.4239  1.7643 -0.4448
   52SOL    HW2  297   0.300   3.087   0.028 -1.1318  0.1657  0.3116
   53SOL     OW  298   3.457   2.638   0.503 -0.2900 -0.3592 -0.2353
   53SOL    HW1  299   3.510   2.684   0.567 -0.0334 -0.0230 -0.6828
   53SOL    HW2  300   3.460   2.693   0.425 -0.3164 -0.9296 -0.6475
   54SOL     OW  301   0.909   2.563   3.516  0.3398 -0.6088  0.2917
   54SOL    HW1  302   0.925   2.655   3.495 -0.2711 -0.5865 -0.0966
   54SOL    HW2  303   0.821   2.562   3.553  0.5184 -0.9754  0.7217
   55SOL     OW  304   1.036   1.135   0.758  0.1877  0.1631  0.0661
   55SOL    HW1  305   1.034   1.216   0.809 -0.3423  1.3725 -1.7966
   55SOL    HW2  306   0.969   1.080   0.798 -1.3221  1.6942 -0.2652
   56SOL     OW  307   3.156   1.278   2.439  0.1314 -0.2285 -0.5615
   56SOL    HW1  308   3.138   1.241   2.526 -0.2600 -1.0912 -0.9949
   56SOL    HW2  309   3.109   1.362   2.439  1.5167  0.5916  0.6478
   57SOL     OW  310   1.545   2.430   2.246 -0.2166  0.5639  0.0326
   57SOL    HW1  311   1.596   2.350   2.256 -0.4564 -0.0655 -2.9628
   57SOL    HW2  312   1.611   2.499   2.237  0.0376  0.3645  0.3462
   58SOL     OW  313   2.593   1.303   1.505 -0.0185  0.3129  0.6936
   58SOL    HW1  314   2.633   1.339   1.427 -1.8150  2.6248  0.7377
   58SOL    HW2  315   2.535   1.372   1.537 -2.8259 -2.1723  1.4948
   59SOL     OW  316   1.465   2.703   0.343 -0.9333  0.7594 -0.1687
   59SOL    HW1  317   1.418   2.775   0.301  0.1015  1.7475  0.3182
   59SOL    HW2  318   1.556   2.733   0.350 -0.9203  0.3809  2.1668
   60SOL     OW  319   2.424   3.545   1.701 -0.5681  0.0997  0.7411
   60SOL    HW1  320   2.455   3.464   1.661 -2.5431 -1.0084  1.3111
   60SOL    HW2  321   2.427   3.528   1.795 -0.8045  0.7640  0.8745
   61SOL     OW  322   1.306   3.082   0.350  0.1329  0.4568 -0.6135
   61SOL    HW1  323   1.257   3.148   0.300 -1.3259 -0.8431 -0.9598
   61SOL    HW2  324   1.243   3.049   0.414  1.3352  0.5337  0.6451
   62SOL     OW  325   1.375   2.903   0.180 -0.1103 -0.1457  0.4003
   62SOL    HW1  326   1.380   2.985   0.229  1.2666  0.4447 -0.6681
   62SOL    HW2  327   1.309   2.919   0.113  1.3247  0.7127 -0.8556
   63SOL     OW  328   0.900   2.538   0.380 -0.5469 -1.0171  0.1604
   63SOL    HW1  329   0.970   2.602   0.378 -0.4687 -1.0951  0.3731
   63SOL    HW2  330   0.845   2.560   0.305 -1.3016  0.1705  1.0258
   64SOL     OW  331   2.657   0.089   2.808  0.6434 -0.8194 -0.0679
   64SOL    HW1  332   2.659   0.173   2.762  1.9946  0.4202  2.0642
   64SOL    HW2  333   2.589   0.039   2.765  0.0631  1.2319 -1.6719
   65SOL     OW  334   3.481   0.563   0.635 -0.1120 -0.0028  0.1809
   65SOL    HW1  335   3.558   0.617   0.655  0.6771 -0.8790 -0.3518
   65SOL    HW2  336   3.475   0.503   0.709  0.8502 -1.1282 -0.6153
   66SOL     OW  337   0.334   3.560   1.778  0.5946  0.3456 -0.7078
   66SOL    HW1  338   0.320   3.525   1.867 -0.6349  0.1860 -0.9574
   66SOL    HW2  339   0.406   3.506   1.743  2.5611  1.7593  0.9059
   67SOL     OW  340   0.857   1.031   0.523  0.1352  0.4811 -0.8605
   67SOL    HW1  341   0.939   1.035   0.572 -0.7470  2.5280  0.5863
   67SOL    HW2  342   0.870   1.092   0.450 -0.0581  0.7210 -0.6942
   68SOL     OW  343   3.451   3.658   3.087  0.4580  0.2189 -0.1173
   68SOL    HW1  344   3.439   3.733   3.146  2.2238  0.1975  0.3198
   68SOL    HW2  345   3.528   3.681   3.036  0.3135 -0.8069 -0.8165
   69SOL     OW  346   1.810   1.840   3.321  0.1936 -0.0129 -0.3212
   69SOL    HW1  347   1.728   1.861   3.365 -0.0709 -2.5048  0.5358
   69SOL    HW2  348   1.787   1.836   3.228  0.2128  2.8317 -0.5426
   70SOL     OW  349   2.868   0.447   2.385  0.0590  0.1610  0.2130
   70SOL    HW1  350   2.835   0.530   2.420 -3.3859 -1.5048  1.3574
   70SOL    HW2  351   2.869   0.460   2.290 -1.6883  1.1106  0.2956
   71SOL     OW  352   2.855   3.609   2.755 -0.6976 -0.2376 -0.3250
   71SOL    HW1  353   2.831   3.699   2.733  0.2745  0.3689  0.9403
   71SOL    HW2  354   2.842   3.560   2.674 -0.9661  1.0882 -1.1223
   72SOL     OW  355   0.440   1.166   2.583  1.0343  0.4549 -0.3467
   72SOL    HW1  356   0.497   1.089   2.583  1.2125  0.5850  0.1951
   72SOL    HW2  357   0.370   1.144   2.522  0.0964 -0.8714  1.1331
   73SOL     OW  358   2.120   2.971   3.136 -0.2996 -0.1362  0.9081
   73SOL    HW1  359   2.152   2.999   3.222 -0.3841  0.3589  0.7819
   73SOL    HW2  360   2.196   2.978   3.079 -0.4297  0.2822  0.7792
   74SOL     OW  361   2.527   3.327   1.902  0.0610 -0.1605  0.6014
   74SOL    HW1  362   2.500   3.236   1.908 -1.3695  0.1931 -0.0371
   74SOL    HW2  363   2.622   3.324   1.901  0.0300 -1.6668  0.2532
   75SOL     OW  364   1.385   0.826   2.596  0.3300  0.3532 -1.1896
   75SOL    HW1  365   1.346   0.745   2.627  1.4839 -0.2334 -1.2175
   75SOL    HW2  366   1.318   0.865   2.539 -0.1111 -0.7263 -1.4268
   76SOL     OW  367   1.194   0.274   3.444  0.0747 -0.1930  0.7003
   76SOL    HW1  368   1.225   0.184   3.450  1.0344  0.1500  1.1242
   76SOL    HW2  369   1.133   0.284   3.517 -1.0090 -0.8537 -0.0926
   77SOL     OW  370   2.593   2.191   1.275  0.3540  0.4397 -0.0831
   77SOL    HW1  371   2.514   2.242   1.290 -1.1714 -1.1591 -2.2069
   77SOL    HW2  372   2.599   2.133   1.351 -1.5577 -0.6497 -0.7116
   78SOL     OW  373   3.294   3.438   3.056  0.3589  0.2452 -0.8112
   78SOL    HW1  374   3.350   3.515   3.050  0.3110  0.2617 -1.0773
   78SOL    HW2  375   3.221   3.457   2.997 -1.5410  1.5468  1.7732
   79SOL     OW  376   0.806   3.627   0.230  0.0237 -0.3191 -0.0691
   79SOL    HW1  377   0.723   3.639   0.184  0.5980  1.0877 -0.8134
   79SOL    HW2  378   0.797   3.544   0.276 -1.8642 -0.1164  0.0069
   80SOL     OW  379   2.172   0.657   0.572 -0.5645  0.5563  0.3135
   80SOL    HW1  380   2.124   0.723   0.522 -1.0502 -0.7784 -1.0420
   80SOL    HW2  381   2.124   0.576   0.558  1.1249 -0.4918  0.2955
   81SOL     OW  382   0.194   2.803   1.036  1.0385  0.3855 -0.4117
   81SOL    HW1  383   0.187   2.898   1.030  3.3902  0.5094 -4.3839
   81SOL    HW2  384   0.182   2.772   0.947 -2.7840 -3.5237  1.0762
   82SOL     OW  385   2.626   0.426   0.748 -0.0132  0.4748  0.2663
   82SOL    HW1  386   2.601   0.397   0.835 -1.5588  1.8525  0.3422
   82SOL    HW2  387   2.542   0.435   0.701  0.6589  1.2838 -0.8338
   83SOL     OW  388   3.413   0.390   3.224 -0.1186  0.9806  0.4798
   83SOL    HW1  389   3.376   0.319   3.173 -1.9701  2.3166 -0.1403
   83SOL    HW2  390   3.452   0.347   3.301  0.0591 -0.7819 -0.5442
   84SOL     OW  391   0.421   0.782   2.491 -0.0198  0.1448  0.1197
   84SOL    HW1  392   0.344   0.839   2.483 -0.1456  0.1548  1.2920
   84SOL    HW2  393   0.493   0.836   2.458  0.0242  1.3757  2.0973
   85SOL     OW  394   1.968   2.127   1.294  0.2866 -0.3829  0.2761
   85SOL    HW1  395   1.987   2.042   1.336  2.7548 -1.3651 -2.5096
   85SOL    HW2  396   2.054   2.163   1.273 -0.7721  2.0093 -0.2887
   86SOL     OW  397   0.993   0.536   2.659  0.5104 -0.2972  0.5219
   86SOL    HW1  398   1.018   0.624   2.689 -0.7831 -0.7613  3.2784
   86SOL    HW2  399   1.053   0.477   2.706 -2.2297 -1.1208  3.2883
   87SOL     OW  400   0.061   1.849   2.489 -0.0059 -0.5365  0.0057
   87SOL    HW1  401   0.080   1.844   2.395  2.1249 -0.9303  0.4100
   87SOL    HW2  402   0.128   1.794   2.530  2.4800  3.5860  2.1472
   88SOL     OW  403   3.440   2.977   1.704 -0.0580  0.5220 -0.1459
   88SOL    HW1  404   3.373   2.967   1.771  0.5727 -2.9419  0.1569
   88SOL    HW2  405   3.392   3.006   1.626 -1.4890  0.5135  0.6958
   89SOL     OW  406   0.802   2.667   1.346 -0.5236 -0.4326 -0.5473
   89SOL    HW1  407   0.796   2.650   1.440 -1.6350 -0.7309 -0.6623
   89SOL    HW2  408   0.743   2.741   1.331  0.3386  0.2039 -0.8720
   90SOL     OW  409   3.485   0.070   1.708  0.1872 -0.5094 -0.1289
   90SOL    HW1  410   3.560   0.012   1.695 -0.3413 -1.3131  0.2704
   90SOL    HW2  411   3.446   0.040   1.791  1.3917  2.1212  1.4905
   91SOL     OW  412   3.625   3.564   3.331  0.0723 -0.0250 -0.0600
   91SOL    HW1  413   3.633   3.651   3.291  1.8681  0.4033  1.0810
   91SOL    HW2  414   3.656   3.504   3.264 -1.4925  0.1488 -0.9791
   92SOL     OW  415   1.847   2.675   1.127 -0.2089  0.7925  0.4214
   92SOL    HW1  416   1.794   2.596   1.145  1.5548 -0.5725 -0.1028
   92SOL    HW2  417   1.796   2.724   1.062 -1.5287  0.3108  1.0463
   93SOL     OW  418   0.825   1.796   0.981 -0.1708 -0.4457 -0.3204
   93SOL    HW1  419   0.733   1.782   1.001 -0.4877 -0.1845 -1.5268
   93SOL    HW2  420   0.857   1.711   0.951  0.6820 -1.2337  2.4874
   94SOL     OW  421   0.064   1.525   1.741  0.0279 -0.2311  0.5583
   94SOL    HW1  422   0.029   1.529   1.652  1.7768 -0.5041 -0.1810
   94SOL    HW2  423   0.104   1.611   1.754  1.9034 -1.0031  0.1321
   95SOL     OW  424   2.294   0.120   1.919  1.0906 -0.0929 -0.0293
   95SOL    HW1  425   2.264   0.031   1.901 -1.3169 -0.6327  4.9623
   95SOL    HW2  426   2.373   0.109   1.971  1.5417  0.7852 -0.5081
   96SOL     OW  427   0.539   1.795   3.414  0.3490 -0.0823 -0.5143
   96SOL    HW1  428   0.609   1.802   3.349  0.2180  1.6673 -0.5024
   96SOL    HW2  429   0.471   1.854   3.382 -0.5962 -0.7857  0.1497
   97SOL     OW  430   1.921   1.792   2.848  0.2117 -0.0746 -0.6143
   97SOL    HW1  431   1.926   1.722   2.913 -2.2891 -0.5493 -0.8474
   97SOL    HW2  432   2.011   1.824   2.841  0.6685 -0.2481  2.7691
   98SOL     OW  433   3.615   2.896   1.522  0.2158 -0.4614  0.0434
   98SOL    HW1  434   3.600   2.951   1.598 -0.0420 -0.9401  0.3492
   98SOL    HW2  435   3.578   2.811   1.547 -0.4497 -0.4514 -0.8568
   99SOL     OW  436   1.936   0.037   1.177  0.4159 -0.4595  0.1130
   99SOL    HW1  437   1.873   0.085   1.123  0.7874  0.3385  0.3754
   99SOL    HW2  438   1.883  -0.005   1.245  0.1733  0.3534  0.4385
  100SOL     OW  439   3.557   2.663   0.756  0.3190  0.0534 -0.4261
  100SOL    HW1  440   3.588   2.576   0.731  1.7711 -0.0117  1.3562
  100SOL    HW2  441   3.560   2.662   0.852 -1.2843  1.5081 -0.3258
  101SOL     OW  442   3.670   1.827   1.914 -0.4022  0.1774  0.8783
  101SOL    HW1  443   3.760   1.792   1.913  0.2130  1.5686  2.4151
  101SOL    HW2  444   3.653   1.846   2.006 -1.8390  1.0706  0.4574
  102SOL     OW  445   0.967   2.895   2.792 -0.4629 -0.0844  0.1104
  102SOL    HW1  446   0.973   2.972   2.849 -2.6565  0.3096 -0.0983
  102SOL    HW2  447   1.033   2.910   2.725  0.6364  0.5303  1.2754
  103SOL     OW  448   2.122   0.476   1.124 -0.0395 -0.1969  0.3072
  103SOL    HW1  449   2.129   0.526   1.205 -1.5331 -0.4044  0.5956
  103SOL    HW2  450   2.035   0.498   1.090  0.7162  0.1785 -1.4446
  104SOL     OW  451   2.818   1.219   3.092 -0.1089 -0.2849 -0.9696
  104SOL    HW1  452   2.839   1.135   3.051  1.7257 -0.7926  0.8530
  104SOL    HW2  453   2.899   1.269   3.087 -0.5436  0.5314 -0.1204
  105SOL     OW  454   0.078   2.477   3.751  0.3219 -0.1464  0.7513
  105SOL    HW1  455   0.113   2.388   3.739 -0.3620 -0.4258  0.7902
  105SOL    HW2  456   0.026   2.492   3.672  1.0951  0.5497  0.3533
  106SOL     OW  457   3.129   2.979   1.539 -0.5831 -0.3271 -0.0528
  106SOL    HW1  458   3.096   3.064   1.566 -0.1107 -0.6307  1.5643
  106SOL    HW2  459   3.089   2.917   1.600  1.0002 -0.9760  0.3699
  107SOL     OW  460   1.188   3.468   1.209 -0.8685  0.0688 -0.1234
  107SOL    HW1  461   1.240   3.417   1.272 -0.4352 -0.4239 -0.8690
  107SOL    HW2  462   1.211   3.431   1.124 -0.6647  1.4138 -0.6641
  108SOL     OW  463   0.404   1.493   3.262  0.0320 -0.3573  0.3305
  108SOL    HW1  464   0.497   1.508   3.244 -0.0320 -1.3197 -1.0196
  108SOL    HW2  465   0.361   1.573   3.230  0.2569 -0.6393 -0.7391
  109SOL     OW  466   3.042   0.831   0.975  0.0611 -0.1860  0.6670
  109SOL    HW1  467   3.037   0.765   0.905 -1.1611  0.8452 -0.2836
  109SOL    HW2  468   2.955   0.830   1.015 -0.1050  1.0526  0.3988
  110SOL     OW  469   0.953   1.653   1.500 -0.3689 -0.0227 -0.3852
  110SOL    HW1  470   0.971   1.744   1.474  2.2547 -0.9062 -2.0697
  110SOL    HW2  471   1.017   1.634   1.568 -0.9516 -0.6005  0.0104
  111SOL     OW  472   2.528   0.785   2.869 -0.0541 -0.6057 -0.5563
  111SOL    HW1  473   2.481   0.765   2.789  1.2136 -1.6784 -1.0673
  111SOL    HW2  474   2.618   0.804   2.841  0.4866 -1.2766  0.6163
  112SOL     OW  475   3.577   2.376   1.961  0.3615  0.4850  0.3779
  112SOL    HW1  476   3.611   2.418   1.883  0.6675 -1.3335 -0.5297
  112SOL    HW2  477   3.625   2.293   1.966 -0.8042 -0.1588  1.5763
  113SOL     OW  478   0.098   3.578   3.128 -0.2952  0.3867  0.1399
  113SOL    HW1  479   0.096   3.512   3.059  1.0183  0.4060  0.0422
  113SOL    HW2  480   0.117   3.660   3.083  0.3741  0.4322  0.4795
  114SOL     OW  481   1.866   1.948   1.067  0.3101 -0.1909  0.1864
  114SOL    HW1  482   1.923   1.872   1.078 -0.3083 -0.5735  0.7959
  114SOL    HW2  483   1.902   2.013   1.128  1.9718  0.7156 -1.6410
  115SOL     OW  484   1.004   1.794   0.721  0.1450  0.2326 -0.4635
  115SOL    HW1  485   0.959   1.812   0.638 -0.1681  2.6618  0.1454
  115SOL    HW2  486   0.955   1.722   0.760 -1.0234  0.4663 -1.4362
  116SOL     OW  487   1.751   0.190   0.341 -0.2104  0.1531 -0.2353
  116SOL    HW1  488   1.825   0.188   0.281 -0.1037  1.1072 -0.1536
  116SOL    HW2  489   1.708   0.105   0.329  0.1551  0.0906 -1.2181
  117SOL     OW  490   1.103   2.163   2.897  0.9307 -0.0994  0.0938
  117SOL    HW1  491   1.080   2.247   2.937  0.5961 -0.8912  1.6365
  117SOL    HW2  492   1.027   2.107   2.914  1.5140 -0.9685 -0.1352
  118SOL     OW  493   3.669   3.230   3.095 -0.1360 -0.0885 -0.0877
  118SOL    HW1  494   3.637   3.320   3.091  0.1519 -0.0088 -0.7446
  118SOL    HW2  495   3.594   3.177   3.067 -0.1886 -0.0234 -0.0709
  119SOL     OW  496   1.911   3.342   1.287  0.5577  0.4896  0.2152
  119SOL    HW1  497   1.860   3.302   1.217  0.0509  1.8958 -0.2647
  119SOL    HW2  498   1.921   3.274   1.352 -1.4313 -0.0068  0.0459
  120SOL     OW  499   2.946   1.021   0.147 -0.6146 -0.0535  0.1358
  120SOL    HW1  500   2.883   1.052   0.211 -1.2203 -0.9124 -0.0185
  120SOL    HW2  501   2.986   0.943   0.187  0.4304  0.5369  0.2731
  121SOL     OW  502   1.620   3.176   1.478  0.5126  0.2186  0.8630
  121SOL    HW1  503   1.593   3.240   1.543 -2.0857 -0.0723  0.1853
  121SOL    HW2  504   1.588   3.092   1.511 -1.5932  0.1632 -1.0252
  122SOL     OW  505   1.047   2.747   0.042  0.0116 -0.1784  0.6400
  122SOL    HW1  506   0.979   2.785  -0.014  0.5865 -0.9221 -0.6075
  122SOL    HW2  507   1.012   2.756   0.131 -0.8971  1.0981  0.1938
  123SOL     OW  508   0.207   0.637   3.008  0.3622  0.3112 -0.2707
  123SOL    HW1  509   0.212   0.667   2.917  1.9356 -1.2586 -0.7571
  123SOL    HW2  510   0.288   0.667   3.048  0.4031 -0.3725  0.1754
  124SOL     OW  511   1.540   2.890   3.655 -0.0772  0.2678  0.1526
  124SOL    HW1  512   1.498   2.813   3.617 -0.1929 -0.9333  2.5486
  124SOL    HW2  513   1.468   2.947   3.682 -0.0061  0.8362 -0.8121
  125SOL     OW  514   3.002   2.241   1.739  0.0560  0.1515  0.1149
  125SOL    HW1  515   2.984   2.152   1.768  0.4805 -0.0415 -0.2067
  125SOL    HW2  516   2.926   2.264   1.685  0.2833 -0.2906 -0.4044
  126SOL     OW  517   2.635   0.636   0.330 -0.0103  0.3357  0.4890
  126SOL    HW1  518   2.684   0.637   0.248 -1.3746  0.4582 -0.3561
  126SOL    HW2  519   2.696   0.672   0.394  0.1773  2.9502 -1.0091
  127SOL     OW  520   2.620   2.264   1.728 -0.2769 -0.0894  0.2471
  127SOL    HW1  521   2.638   2.331   1.662 -1.9548  0.3962  0.2238
  127SOL    HW2  522   2.611   2.313   1.809 -2.1332 -0.1640  0.1262
  128SOL     OW  523   3.260   1.286   3.125 -0.2478  0.0103 -0.2978
  128SOL    HW1  524   3.313   1.364   3.144 -2.2429  2.1221 -2.7711
  128SOL    HW2  525   3.217   1.266   3.208  1.1207  0.8547  0.6605
  129SOL     OW  526   0.171   0.885   1.608  0.5686 -0.3358  0.0190
  129SOL    HW1  527   0.227   0.938   1.551 -0.7343  0.5136 -0.5443
  129SOL    HW2  528   0.184   0.795   1.578 -0.3909  0.1231 -1.9849
  130SOL     OW  529   2.739   1.868   2.300 -0.4245 -1.1172 -0.1617
  130SOL    HW1  530   2.753   1.886   2.207  0.4815 -0.5525  0.0617
  130SOL    HW2  531   2.685   1.790   2.303 -1.1644 -0.6554 -1.1716
  131SOL     OW  532   2.705   1.698   2.621  0.2046 -0.2395  0.3707
  131SOL    HW1  533   2.746   1.623   2.663  2.4514 -0.0037 -1.2237
  131SOL    HW2  534   2.779   1.756   2.598 -1.2320  1.2959 -0.6179
  132SOL     OW  535   3.049   0.943   1.720 -0.4039 -0.0333 -0.4930
  132SOL    HW1  536   3.127   0.999   1.721 -1.6182  1.6968  0.8080
  132SOL    HW2  537   3.063   0.882   1.792  0.8835 -1.4519 -1.8625
  133SOL     OW  538   2.978   3.750   2.379  0.0275 -0.3021  0.1395
  133SOL    HW1  539   3.067   3.768   2.410  0.9578 -1.4292 -1.6548
  133SOL    HW2  540   2.981   3.659   2.349 -2.4039 -1.1373  2.1051
  134SOL     OW  541   0.730   0.599   2.045  0.2037 -0.3483 -0.1943
  134SOL    HW1  542   0.707   0.664   2.112  0.8784 -1.0077  0.7067
  134SOL    HW2  543   0.723   0.647   1.962  0.7282  0.8977  0.4459
  135SOL     OW  544   2.765   3.028   0.803 -0.5476 -0.2768 -0.3906
  135SOL    HW1  545   2.741   3.005   0.713 -0.3978 -0.4889 -0.3774
  135SOL    HW2  546   2.711   3.104   0.824  0.0123  0.2778 -0.9505
  136SOL     OW  547   3.498   0.184   2.752  0.4076  0.1485  0.4534
  136SOL    HW1  548   3.580   0.229   2.731  0.4056 -0.2539 -0.4911
  136SOL    HW2  549   3.430   0.240   2.715  0.3585 -0.2418 -0.0629
  137SOL     OW  550   0.645   1.669   0.058  0.5491  0.7012  0.1312
  137SOL    HW1  551   0.581   1.717   0.111  1.0648  0.2471  1.2047
  137SOL    HW2  552   0.712   1.734   0.036 -0.2987  1.1937 -1.0543
  138SOL     OW  553   3.565   2.973   0.175 -0.0068  0.6028  0.2855
  138SOL    HW1  554   3.572   3.059   0.215 -0.8089  0.1412  1.4649
  138SOL    HW2  555   3.636   2.970   0.111 -0.0306  2.1666  0.1593
  139SOL     OW  556   3.569   0.336   0.196 -0.2142 -0.4915  0.6785
  139SOL    HW1  557   3.588   0.429   0.208 -1.5197 -0.2697  1.1619
  139SOL    HW2  558   3.656   0.295   0.191  0.4968  0.3197  3.8285
  140SOL     OW  559   2.915   1.048   2.587 -0.0701  0.8590 -0.1048
  140SOL    HW1  560   2.971   1.107   2.637  1.8135  0.6265 -1.8189
  140SOL    HW2  561   2.845   1.104   2.554  1.0162  1.9139 -0.7010
  141SOL     OW  562   1.640   1.349   1.752  0.5969 -0.2029 -0.4945
  141SOL    HW1  563   1.695   1.310   1.819 -0.8203 -0.8107  0.3757
  141SOL    HW2  564   1.675   1.316   1.669  1.6807 -0.3425  0.0106
  142SOL     OW  565   2.243   0.357   0.141 -0.3249 -0.0196 -0.4744
  142SOL    HW1  566   2.187   0.295   0.188  0.2495  0.6322  1.1379
  142SOL    HW2  567   2.197   0.440   0.146 -0.1856  0.0915 -0.9562
  143SOL     OW  568   2.658   3.063   0.076  0.5550 -0.1045 -0.3956
  143SOL    HW1  569   2.565   3.071   0.058  0.3949 -0.4853  0.2574
  143SOL    HW2  570   2.675   3.126   0.146  1.3405  1.9633 -2.3125
  144SOL     OW  571   3.604   1.774   2.768 -0.6444 -0.1506  0.4215
  144SOL    HW1  572   3.561   1.712   2.827 -0.6172  0.8946  1.5769
  144SOL    HW2  573   3.539   1.793   2.701 -1.5292  0.3923  1.4062
  145SOL     OW  574   2.745   3.515   1.394 -0.0292  0.1419  0.6950
  145SOL    HW1  575   2.755   3.527   1.299  0.0805 -1.0202  0.5420
  145SOL    HW2  576   2.752   3.603   1.430  0.0320  0.5926 -0.3715
  146SOL     OW  577   3.672   2.837   2.734 -0.0102  0.1119 -0.8411
  146SOL    HW1  578   3.659   2.743   2.744 -0.5355  0.4193  2.5400
  146SOL    HW2  579   3.584   2.874   2.734  0.2272  0.7118 -0.0674
  147SOL     OW  580   1.051   3.540   0.061  0.2203  0.8447  0.2626
  147SOL    HW1  581   1.088   3.584   0.138  0.8657 -0.4764  0.7344
  147SOL    HW2  582   0.968   3.504   0.092 -0.2032  1.5238 -0.0637
  148SOL     OW  583   0.116   3.037   0.344  0.0354  0.3008 -0.1939
  148SOL    HW1  584   0.211   3.050   0.338 -0.1089  1.4244 -0.2765
  148SOL    HW2  585   0.087   3.026   0.254  0.0034  0.6674 -0.2311
  149SOL     OW  586   2.552   2.620   3.500  0.4965 -0.5007 -0.1715
  149SOL    HW1  587   2.572   2.659   3.415  0.2480 -1.3872 -0.6406
  149SOL    HW2  588   2.636   2.619   3.546  0.3250  1.5921  0.2912
  150SOL     OW  589   1.133   2.945   0.544 -0.7671 -0.2022  0.6477
  150SOL    HW1  590   1.221   2.935   0.580  0.9011  2.2092 -2.2680
  150SOL    HW2  591   1.075   2.931   0.619  2.0819 -1.0830  2.8850
  151SOL     OW  592   1.183   2.776   2.387 -0.1127  0.0526 -0.1094
  151SOL    HW1  593   1.092   2.760   2.412 -0.6492 -0.1833 -2.0369
  151SOL    HW2  594   1.228   2.693   2.405 -0.0648  0.4154  1.5914
  152SOL     OW  595   3.614   2.414   0.544  0.4804  0.2262 -0.0071
  152SOL    HW1  596   3.543   2.478   0.549  0.3468  0.0998 -0.2436
  152SOL    HW2  597   3.572   2.335   0.508  0.3223 -0.4592  1.6070
  153SOL     OW  598   1.291   1.831   0.356 -0.3117  0.2279  0.1108
  153SOL    HW1  599   1.342   1.767   0.406 -0.2698  0.7353  0.7381
  153SOL    HW2  600   1.200   1.817   0.384 -0.3525  0.1848 -0.0419
  154SOL     OW  601   2.742   0.287   1.828  0.3384  0.0902 -0.1345
  154SOL    HW1  602   2.655   0.314   1.799  0.2783 -0.5517 -0.5704
  154SOL    HW2  603   2.797   0.365   1.815 -0.0467  0.3187 -0.3995
  155SOL     OW  604   2.538   2.493   3.053  0.8557 -0.0722  0.3396
  155SOL    HW1  605   2.479   2.482   3.128  0.7030 -0.1569  0.2082
  155SOL    HW2  606   2.506   2.572   3.009  1.0187  0.0446  0.4309
  156SOL     OW  607   2.790   2.607   3.679 -0.6331 -0.0768 -0.1386
  156SOL    HW1  608   2.777   2.640   3.768 -0.4178  1.7644 -0.7503
  156SOL    HW2  609   2.869   2.651   3.648 -1.1966 -0.0022 -1.5542
  157SOL     OW  610   0.996   3.281   1.359  0.1621  0.2104 -0.2014
  157SOL    HW1  611   1.044   3.364   1.354 -1.7390  1.4115  0.3741
  157SOL    HW2  612   1.004   3.243   1.272  0.0473  1.6141 -0.8501
  158SOL     OW  613   0.307   2.173   0.888 -0.1757  1.2223  0.1526
  158SOL    HW1  614   0.314   2.177   0.793 -0.2023  1.4110  0.1592
  158SOL    HW2  615   0.376   2.112   0.914 -0.0050  1.3635  0.0338
  159SOL     OW  616   1.295   3.175   2.536 -0.3863  0.2348  0.1856
  159SOL    HW1  617   1.268   3.090   2.570 -0.8496  0.2061 -0.2346
  159SOL    HW2  618   1.228   3.197   2.471  0.5048  0.2617 -0.7499
  160SOL     OW  619   0.996   0.625   3.019 -0.2818  0.1646  0.0016
  160SOL    HW1  620   1.055   0.550   3.011 -0.5244  0.1026 -1.3648
  160SOL    HW2  621   0.916   0.597   2.973 -1.2156  0.4285  1.4011
  161SOL     OW  622   3.305   2.914   1.131  0.3490  0.4948  0.0217
  161SOL    HW1  623   3.283   2.971   1.058  0.0304  1.4107  0.8085
  161SOL    HW2  624   3.224   2.906   1.181  1.0244  1.5134  1.3470
  162SOL     OW  625   2.826   3.028   1.561 -0.3401 -0.2203  0.1206
  162SOL    HW1  626   2.888   2.985   1.620  0.1477 -1.5329 -1.2944
  162SOL    HW2  627   2.862   3.116   1.549  0.8359 -0.7137 -0.0678
  163SOL     OW  628   2.982   0.352   0.824 -0.6666 -0.1855 -0.0785
  163SOL    HW1  629   2.995   0.325   0.733  0.4305 -0.8538  0.2721
  163SOL    HW2  630   2.887   0.345   0.837 -0.5392 -3.1820 -0.2272
  164SOL     OW  631   2.380   1.622   2.080  0.0106  0.4860 -0.2169
  164SOL    HW1  632   2.293   1.656   2.062 -0.4310 -0.0237  0.8897
  164SOL    HW2  633   2.366   1.545   2.134  1.2162  1.4615  1.5968
  165SOL     OW  634   2.434   1.649   1.344  0.0762 -0.6769 -0.1556
  165SOL    HW1  635   2.425   1.612   1.431 -0.0368  2.1459  1.1337
  165SOL    HW2  636   2.511   1.606   1.307  0.9926 -0.9214  1.8987
  166SOL     OW  637   2.991   0.323   1.305  0.3172 -0.1296  0.2939
  166SOL    HW1  638   3.019   0.235   1.278 -0.7945 -0.1042 -0.9955
  166SOL    HW2  639   2.956   0.310   1.393  0.4248 -0.9300  0.2287
  167SOL     OW  640   1.720   2.884   0.542  0.0925 -0.1081 -0.0737
  167SOL    HW1  641   1.782   2.898   0.470 -2.5336  0.1535 -2.4830
  167SOL    HW2  642   1.700   2.791   0.538 -1.7321  0.2728 -1.2962
  168SOL     OW  643   2.404   3.515   0.981 -0.4515 -0.2982 -0.0478
  168SOL    HW1  644   2.363   3.489   1.063  0.3373 -0.3758  0.3265
  168SOL    HW2  645   2.496   3.527   1.002 -0.1939 -0.5406 -0.9712
  169SOL     OW  646   0.907   3.359   3.363 -0.7387  0.1824 -0.2670
  169SOL    HW1  647   0.888   3.315   3.280 -2.4889  2.3705 -1.1285
  169SOL    HW2  648   0.992   3.401   3.349 -1.0683  0.6179 -1.0050
  170SOL     OW  649   1.209   0.042   2.481 -0.2098  0.4761 -0.6489
  170SOL    HW1  650   1.127   0.079   2.448 -1.2064 -0.8282  0.2279
  170SOL    HW2  651   1.181  -0.036   2.529  1.5429  0.1516 -0.1115
  171SOL     OW  652   1.223   3.233   2.948  0.1544  0.0562 -0.2025
  171SOL    HW1  653   1.297   3.277   2.905 -1.0928  1.3417 -1.1178
  171SOL    HW2  654   1.151   3.243   2.886 -0.0210 -4.3076 -1.0611
  172SOL     OW  655   0.667   1.208   2.343 -0.1129  0.3741  0.3502
  172SOL    HW1  656   0.667   1.295   2.304  1.2357  1.2225  2.1166
  172SOL    HW2  657   0.625   1.220   2.428 -0.0152 -0.7434  0.5712
  173SOL     OW  658   1.424   2.736   2.119  1.0124 -0.8022  0.0989
  173SOL    HW1  659   1.438   2.823   2.083  2.0108 -0.6722  0.7598
  173SOL    HW2  660   1.435   2.747   2.213  1.1710 -1.6467  0.1860
  174SOL     OW  661   2.660   1.244   2.101 -0.0869 -0.0214  0.1063
  174SOL    HW1  662   2.602   1.185   2.053  0.4556  0.1442 -0.7721
  174SOL    HW2  663   2.657   1.326   2.053  2.0693 -0.4758 -0.8941
  175SOL     OW  664   1.596   0.165   0.950 -0.1804 -0.2142 -0.6985
  175SOL    HW1  665   1.556   0.144   1.035 -0.6432  0.1280 -0.8258
  175SOL    HW2  666   1.600   0.260   0.948  2.5197 -0.2306  0.1514
  176SOL     OW  667   3.545   3.232   0.603  0.0069 -0.5315 -0.0074
  176SOL    HW1  668   3.458   3.270   0.618  0.7278  2.8395 -3.0134
  176SOL    HW2  669   3.605   3.302   0.629  1.9407 -2.8344  2.1104
  177SOL     OW  670   3.209   2.957   0.487  0.5815  0.9886  0.0776
  177SOL    HW1  671   3.266   2.910   0.425 -0.2923 -0.0108  0.0081
  177SOL    HW2  672   3.230   3.049   0.473  1.4329  0.7008 -0.6794
  178SOL     OW  673   3.629   2.583   2.745  0.3696  0.4151  0.2286
  178SOL    HW1  674   3.709   2.531   2.738  0.3649  0.5273 -0.9123
  178SOL    HW2  675   3.570   2.529   2.798  1.5511  0.8148  2.0571
  179SOL     OW  676   3.345   0.215   3.021 -0.1330  0.2428  0.0630
  179SOL    HW1  677   3.298   0.278   2.966  0.1177 -0.2292 -0.7163
  179SOL    HW2  678   3.281   0.146   3.039 -0.9592  1.5133  2.3852
  180SOL     OW  679   0.669   0.101   2.930 -0.3975 -0.2769 -0.2543
  180SOL    HW1  680   0.701   0.178   2.883  1.4932 -0.1652  1.0987
  180SOL    HW2  681   0.576   0.118   2.942 -0.2624  1.2387 -1.0183
  181SOL     OW  682   0.624   0.559   2.972  0.0975  1.0442 -0.2187
  181SOL    HW1  683   0.615   0.650   3.001  0.6461  1.0314  0.0023
  181SOL    HW2  684   0.581   0.507   3.040  1.1411  1.0339  0.4564
  182SOL     OW  685   1.223   3.576   0.605  0.0368 -1.3148  0.6094
  182SOL    HW1  686   1.207   3.667   0.631  1.2438 -0.7839 -0.3783
  182SOL    HW2  687   1.265   3.583   0.519  2.3296 -2.7022  1.5301
  183SOL     OW  688   1.580   0.063   3.674  0.2529 -0.0380 -0.1370
  183SOL    HW1  689   1.615   0.000   3.737 -1.1183  0.2950  1.0114
  183SOL    HW2  690   1.538   0.130   3.727 -0.2866  0.6626 -1.3988
  184SOL     OW  691   0.511   0.402   2.572 -0.6578 -0.1217  0.4730
  184SOL    HW1  692   0.592   0.452   2.564 -1.2744  0.8370  0.0301
  184SOL    HW2  693   0.499   0.363   2.485  0.1490 -1.6037  0.9885
  185SOL     OW  694   3.518   2.060   2.922  0.1257 -0.8438 -0.0519
  185SOL    HW1  695   3.609   2.089   2.912 -0.4761  0.3315 -3.0243
  185SOL    HW2  696   3.469   2.141   2.937 -0.6317 -1.2691 -0.1946
  186SOL     OW  697   2.246   0.433   0.870 -0.1944  0.7736 -0.2527
  186SOL    HW1  698   2.166   0.418   0.820 -0.6408  0.2067  0.6160
  186SOL    HW2  699   2.218   0.435   0.961  0.3763  3.2802 -0.0511
  187SOL     OW  700   1.248   1.229   0.635 -0.5171  0.2691 -0.0872
  187SOL    HW1  701   1.201   1.311   0.627 -1.4841 -0.4452 -2.8111
  187SOL    HW2  702   1.184   1.167   0.668  0.6257  0.7992  3.6142
  188SOL     OW  703   3.279   2.353   2.541 -0.0950 -0.4444  0.2585
  188SOL    HW1  704   3.255   2.276   2.490 -1.7290  0.4523 -0.4438
  188SOL    HW2  705   3.351   2.325   2.597  1.4324 -1.6308 -2.1669
  189SOL     OW  706   3.109   1.410   0.082  0.2984 -0.6188 -0.1215
  189SOL    HW1  707   3.109   1.412   0.178  4.1998  0.2355  0.0073
  189SOL    HW2  708   3.072   1.496   0.058 -0.9595 -0.9391  0.5338
  190SOL     OW  709   1.040   0.562   0.039 -0.3075  0.0539  0.1405
  190SOL    HW1  710   1.003   0.640   0.081 -1.0022  0.2345 -0.7520
  190SOL    HW2  711   1.087   0.517   0.109  2.1208  2.4432  0.2095
  191SOL     OW  712   0.698   2.343   3.411 -0.1773  0.6305 -1.0371
  191SOL    HW1  713   0.761   2.348   3.339 -0.6321 -0.1951 -1.5239
  191SOL    HW2  714   0.732   2.273   3.468 -0.2518  0.7073 -0.8983
  192SOL     OW  715   3.274   0.481   3.632  0.1631  0.7469 -0.0106
  192SOL    HW1  716   3.236   0.515   3.551  0.2060  1.1582  0.1400
  192SOL    HW2  717   3.333   0.551   3.662 -0.4348  0.9218  0.7867
  193SOL     OW  718   3.117   1.598   3.452 -0.0990  0.5465 -0.1042
  193SOL    HW1  719   3.189   1.536   3.462  0.1389  0.4929 -1.8748
  193SOL    HW2  720   3.135   1.666   3.517  0.8705 -0.0834  0.3063
  194SOL     OW  721   0.340   0.658   1.048 -0.1550  0.0933 -0.2078
  194SOL    HW1  722   0.401   0.691   0.983 -0.2697 -2.5880 -1.8134
  194SOL    HW2  723   0.261   0.712   1.037  1.9354  4.2117  2.4907
  195SOL     OW  724   2.278   0.902   0.721  0.1115 -0.4394 -0.4717
  195SOL    HW1  725   2.353   0.847   0.747  0.2038  0.0448  0.2878
  195SOL    HW2  726   2.205   0.868   0.771 -0.0159 -0.4100 -0.6364
  196SOL     OW  727   3.467   1.355   1.091  0.5181  0.2867 -0.3411
  196SOL    HW1  728   3.433   1.443   1.077  1.6021  0.3663 -3.1858
  196SOL    HW2  729   3.456   1.312   1.006 -0.2518 -2.4552  1.0383
  197SOL     OW  730   1.544   1.617   2.478  0.5540 -0.6131 -0.1574
  197SOL    HW1  731   1.454   1.622   2.512  0.1183 -3.0245 -0.7808
  197SOL    HW2  732   1.537   1.645   2.387  1.4771  4.3876  0.9675
  198SOL     OW  733   0.245   3.375   2.552  0.6761 -0.0991 -0.3720
  198SOL    HW1  734   0.229   3.281   2.558  1.2157 -0.2432 -1.1282
  198SOL    HW2  735   0.219   3.398   2.463 -2.5760  1.0952  0.7101
  199SOL     OW  736   1.523   3.470   1.469  0.0297  0.5194 -0.1540
  199SOL    HW1  737   1.588   3.522   1.517  1.8506 -0.8023 -1.0808
  199SOL    HW2  738   1.531   3.499   1.378 -0.4405  0.0886 -0.3373
  200SOL     OW  739   0.293   1.244   0.817 -0.7103 -0.1968 -0.2241
  200SOL    HW1  740   0.325   1.232   0.906 -0.5278 -0.7855 -0.3620
  200SOL    HW2  741   0.325   1.330   0.791 -1.5735  0.3874  0.6116
  201SOL     OW  742   0.495   3.492   2.556  0.2402 -0.2716  0.3583
  201SOL    HW1  743   0.501   3.484   2.460 -1.7038 -0.8242  0.2444
  201SOL    HW2  744   0.433   3.424   2.581  1.9692 -1.2674  2.2415
  202SOL     OW  745   3.624   2.264   0.171 -1.1133  0.2293 -0.4637
  202SOL    HW1  746   3.580   2.348   0.158 -2.3710 -0.4810 -0.9788
  202SOL    HW2  747   3.645   2.235   0.082 -1.3009 -0.3049 -0.3342
  203SOL     OW  748   3.588   3.163   2.788  0.0988  0.2063  0.3567
  203SOL    HW1  749   3.616   3.190   2.701  1.0761 -0.4328  0.4588
  203SOL    HW2  750   3.547   3.241   2.826  0.3306  0.6985 -0.3987
  204SOL     OW  751   3.093   3.762   0.608  0.6606 -0.1478 -0.6328
  204SOL    HW1  752   3.070   3.725   0.693  1.3739  0.0186 -0.3679
  204SOL    HW2  753   3.085   3.688   0.547 -1.6078  0.1213 -0.7462
  205SOL     OW  754   0.081   2.635   3.093 -0.1026  0.2824  0.3555
  205SOL    HW1  755   0.073   2.556   3.040 -2.3911 -0.0048  1.0073
  205SOL    HW2  756   0.126   2.698   3.037 -0.8635 -0.5678 -1.2564
  206SOL     OW  757   1.335   2.225   3.550  0.1153 -0.2497 -0.2038
  206SOL    HW1  758   1.415   2.250   3.504  0.8161  1.0182  1.5838
  206SOL    HW2  759   1.268   2.221   3.481  1.5241 -0.5562 -1.6173
  207SOL     OW  760   1.178   1.854   1.019  0.6498  1.2658  0.6029
  207SOL    HW1  761   1.250   1.906   0.984  0.1294  0.9418 -1.0358
  207SOL    HW2  762   1.125   1.831   0.942 -0.0454 -0.2757  1.4914
  208SOL     OW  763   2.606   0.911   2.572  0.0318  0.0442  1.2486
  208SOL    HW1  764   2.593   0.973   2.500  2.2116 -1.6137 -0.7348
  208SOL    HW2  765   2.621   0.966   2.649  0.8853  1.9659 -0.2022
  209SOL     OW  766   0.067   0.279   3.403 -0.4598 -0.2921 -0.1574
  209SOL    HW1  767   0.081   0.217   3.475  0.8468  0.2203  0.0662
  209SOL    HW2  768   0.055   0.363   3.447  1.8561  0.3030 -0.5001
  210SOL     OW  769   0.010   2.168   1.174  0.1155  0.1921 -0.5047
  210SOL    HW1  770   0.071   2.242   1.172  1.0851 -0.5839 -2.2987
  210SOL    HW2  771  -0.077   2.208   1.180  0.6957  1.3847  0.3341
  211SOL     OW  772   0.442   0.508   0.733  0.6243  0.0625 -0.3361
  211SOL    HW1  773   0.354   0.497   0.696  0.1588  1.1520  0.4062
  211SOL    HW2  774   0.444   0.446   0.806  0.3499  0.2888 -0.1360
  212SOL     OW  775   2.727   2.661   2.761  0.0908 -0.6732 -0.3067
  212SOL    HW1  776   2.758   2.722   2.829  0.2905 -0.5071 -0.5447
  212SOL    HW2  777   2.657   2.612   2.804 -0.9477  0.5955 -0.4977
  213SOL     OW  778   0.403   0.591   0.046 -0.3546 -1.0267  0.1921
  213SOL    HW1  779   0.494   0.615   0.064  0.2693 -1.7016 -1.7949
  213SOL    HW2  780   0.356   0.675   0.047  0.0705 -0.7689  2.1748
  214SOL     OW  781   0.946   1.962   0.151  0.0284 -0.7650  0.2753
  214SOL    HW1  782   0.890   2.027   0.195 -0.9412 -0.7139 -0.9609
  214SOL    HW2  783   1.033   1.976   0.189 -1.0392 -1.9934  3.5192
  215SOL     OW  784   0.202   0.704   3.297  0.1460  0.3067 -0.3597
  215SOL    HW1  785   0.276   0.657   3.334 -0.6718 -0.9621 -0.2698
  215SOL    HW2  786   0.152   0.733   3.374  0.8861  1.7772 -0.3988
  216SOL     OW  787   3.107   2.240   0.400  0.3629 -0.2136  0.2946
  216SOL    HW1  788   3.073   2.242   0.489 -0.0966 -0.6748  0.1379
  216SOL    HW2  789   3.198   2.209   0.410  0.1834 -0.6700  0.5695
  217SOL     OW  790   2.946   2.978   3.234  0.6545  0.2121 -0.4722
  217SOL    HW1  791   2.895   2.914   3.185  0.8829  0.7454 -1.4320
  217SOL    HW2  792   3.025   2.991   3.181  2.3682 -1.3988  1.4748
  218SOL     OW  793   3.387   1.595   2.762 -0.0815 -0.1206 -0.0214
  218SOL    HW1  794   3.334   1.529   2.717 -0.3064 -0.9379  1.3601
  218SOL    HW2  795   3.449   1.544   2.814  2.8031  0.8137 -2.3281
  219SOL     OW  796   0.226   2.713   3.582  0.2988  0.1840  0.3311
  219SOL    HW1  797   0.215   2.634   3.529 -0.5468 -0.1436  0.9639
  219SOL    HW2  798   0.152   2.768   3.558 -0.2161 -0.0604  1.2996
  220SOL     OW  799   0.100   0.857   1.275  0.1848 -0.4438  0.4756
  220SOL    HW1  800   0.086   0.785   1.336 -0.5808 -0.0140  0.8138
  220SOL    HW2  801   0.059   0.932   1.316  0.8035  0.1524  0.0336
  221SOL     OW  802   1.967   1.612   3.070  0.5565  0.6146  0.1904
  221SOL    HW1  803   2.038   1.632   3.130 -1.1707 -0.1862  2.6544
  221SOL    HW2  804   1.888   1.615   3.124 -1.2959  1.1281 -2.3234
  222SOL     OW  805   1.590   0.640   0.207  0.0838  0.3370  0.4138
  222SOL    HW1  806   1.650   0.698   0.255  1.7291 -0.2359 -0.8514
  222SOL    HW2  807   1.504   0.681   0.216  0.7633  1.5589  1.7360
  223SOL     OW  808   0.318   3.649   0.132  0.5589 -0.4149 -0.0121
  223SOL    HW1  809   0.250   3.659   0.065  0.0939 -1.3958  0.2894
  223SOL    HW2  810   0.298   3.564   0.174  0.9133  0.1063  1.2704
  224SOL     OW  811   1.311   1.449   2.062 -0.3694  0.5833 -0.0579
  224SOL    HW1  812   1.326   1.384   1.994 -1.1839 -1.5670  1.6936
  224SOL    HW2  813   1.312   1.533   2.016  0.8734 -0.6143 -2.3943
  225SOL     OW  814   1.901   2.635   0.474 -0.2894  0.3100 -0.1995
  225SOL    HW1  815   1.919   2.566   0.537 -2.0937 -0.5193 -0.5491
  225SOL    HW2  816   1.951   2.610   0.396  1.3298  0.9416  0.5712
  226SOL     OW  817   3.308   0.884   1.240 -0.4621 -0.1747  0.4051
  226SOL    HW1  818   3.238   0.936   1.279 -0.9530  1.1887 -2.0486
  226SOL    HW2  819   3.262   0.823   1.181  0.3067  1.4209 -2.0157
  227SOL     OW  820   1.517   1.589   0.880 -0.1685 -0.5882  0.1575
  227SOL    HW1  821   1.562   1.673   0.884  1.3391 -1.3294 -0.2529
  227SOL    HW2  822   1.466   1.584   0.960  0.7851  0.1525  0.8241
  228SOL     OW  823   2.194   1.243   1.280 -0.1123 -0.4763  0.0227
  228SOL    HW1  824   2.220   1.270   1.192 -1.3295 -0.5568 -0.3785
  228SOL    HW2  825   2.115   1.293   1.299 -0.0632 -0.7200  0.9349
  229SOL     OW  826   0.186   1.991   0.130  0.4543  0.2246 -0.5328
  229SOL    HW1  827   0.248   1.984   0.057  0.7431 -0.2483 -0.2457
  229SOL    HW2  828   0.131   2.066   0.107 -0.1463 -0.5492 -1.7526
  230SOL     OW  829   1.709   2.078   2.491 -0.0949  0.0328  0.8763
  230SOL    HW1  830   1.662   2.025   2.556 -0.2121 -2.0105 -0.7622
  230SOL    HW2  831   1.678   2.045   2.406 -0.6169  3.1768 -0.3095
  231SOL     OW  832   1.010   1.595   0.232 -0.2825 -0.0066  0.2441
  231SOL    HW1  833   1.048   1.514   0.266 -1.3504 -0.4033  0.5171
  231SOL    HW2  834   0.951   1.566   0.162 -0.6136  0.5401  0.2964
  232SOL     OW  835   2.061   2.489   2.768 -0.2108 -0.0116 -0.4535
  232SOL    HW1  836   2.068   2.405   2.813  1.7542 -0.3805 -1.3482
  232SOL    HW2  837   2.010   2.544   2.827 -3.6288 -2.4614 -0.8452
  233SOL     OW  838   3.254   1.358   1.521 -0.7370 -0.5605  0.4103
  233SOL    HW1  839   3.244   1.434   1.578  0.6835 -0.8798  1.1167
  233SOL    HW2  840   3.347   1.357   1.498 -1.0861 -1.0336 -1.0920
  234SOL     OW  841   3.054   1.891   0.641  0.2941 -0.1458 -0.0779
  234SOL    HW1  842   3.108   1.970   0.634 -2.1461  1.5726 -0.7061
  234SOL    HW2  843   2.969   1.923   0.671 -1.1116 -2.3943 -1.4083
  235SOL     OW  844   3.193   0.533   2.197 -0.4352 -0.1741 -0.3652
  235SOL    HW1  845   3.125   0.542   2.264 -0.3575  0.4650 -0.3678
  235SOL    HW2  846   3.249   0.609   2.209 -0.7653  0.2809 -1.5415
  236SOL     OW  847   1.621   0.087   2.737 -0.0236 -0.0118  0.1419
  236SOL    HW1  848   1.597   0.158   2.677  0.1957  0.4250  0.5617
  236SOL    HW2  849   1.553   0.021   2.725 -0.8631  0.7554  0.5438
  237SOL     OW  850   1.457  -0.013   0.789 -0.0610 -0.4332  0.1374
  237SOL    HW1  851   1.370  -0.023   0.829  0.3477  0.2222  1.2216
  237SOL    HW2  852   1.491   0.068   0.827  0.4474  0.0907 -1.3851
  238SOL     OW  853   3.429   3.159   1.993  0.3184  0.0036  0.6425
  238SOL    HW1  854   3.452   3.102   2.066  0.2347 -1.5045 -0.4638
  238SOL    HW2  855   3.510   3.166   1.942 -0.1156 -0.5784 -0.1518
  239SOL     OW  856   0.481   2.305   3.140  0.1637  0.3171 -0.0033
  239SOL    HW1  857   0.535   2.370   3.095 -0.7154  1.2234  0.2258
  239SOL    HW2  858   0.397   2.309   3.096 -0.4748  0.6731  1.2159
  240SOL     OW  859   1.789   1.074   2.777 -0.7357  0.1632 -0.4092
  240SOL    HW1  860   1.704   1.032   2.761  0.0307 -1.4027 -0.5582
  240SOL    HW2  861   1.836   1.012   2.832  1.4178 -0.4095 -2.7430
  241SOL     OW  862   2.739   0.684   0.793  0.8937 -0.7245 -0.1870
  241SOL    HW1  863   2.684   0.712   0.866  2.9193  3.0334  0.1311
  241SOL    HW2  864   2.685   0.620   0.745 -2.7414  0.8976  1.3701
  242SOL     OW  865   0.120   0.120   3.611 -0.2460  0.1200 -0.0582
  242SOL    HW1  866   0.060   0.089   3.680  1.4939 -3.3136  0.1365
  242SOL    HW2  867   0.162   0.197   3.649 -1.3085 -0.0623  1.6128
  243SOL     OW  868   2.712   1.468   1.314 -0.5316 -0.9325 -0.2503
  243SOL    HW1  869   2.728   1.524   1.238  1.3726 -0.3978  0.4985
  243SOL    HW2  870   2.785   1.486   1.373 -2.6775 -0.1850  2.4158
  244SOL     OW  871   3.649   1.531   2.611  0.6834 -0.5316 -1.2350
  244SOL    HW1  872   3.584   1.602   2.610 -0.1777 -1.3108 -1.5652
  244SOL    HW2  873   3.730   1.574   2.642 -0.1866  0.2698  0.0728
  245SOL     OW  874   0.931   2.382   0.609  0.0851 -0.1124 -0.1033
  245SOL    HW1  875   0.951   2.447   0.542 -2.1862  2.1861  1.2570
  245SOL    HW2  876   0.895   2.433   0.682 -1.1487 -2.8363  1.3574
  246SOL     OW  877   2.042   0.420   0.404  0.2109 -0.4489  0.1220
  246SOL    HW1  878   1.949   0.427   0.422 -0.1276 -1.9911 -0.8675
  246SOL    HW2  879   2.057   0.327   0.387  1.2353  0.1683 -3.1813
  247SOL     OW  880   3.168   3.358   3.500 -0.2446  0.2317  0.3706
  247SOL    HW1  881   3.083   3.340   3.460  0.3228  0.6921 -1.1045
  247SOL    HW2  882   3.231   3.348   3.429  0.8900  0.4117  1.3139
  248SOL     OW  883   3.266   3.191   2.763  0.4423 -0.1716 -0.6568
  248SOL    HW1  884   3.339   3.205   2.824 -0.5989  0.7387  0.4089
  248SOL    HW2  885   3.247   3.278   2.729 -1.9517  0.1297  1.2170
  249SOL     OW  886   1.693   2.795   1.624  0.5961 -0.2154  0.6194
  249SOL    HW1  887   1.734   2.827   1.543 -3.6927 -2.3322 -2.7931
  249SOL    HW2  888   1.725   2.705   1.633 -2.2044 -1.6199 -1.6482
  250SOL     OW  889   0.093   3.176   2.073  0.7444  0.5961 -0.4272
  250SOL    HW1  890   0.086   3.271   2.062 -0.2210  0.3802 -1.8601
  250SOL    HW2  891   0.009   3.142   2.044  1.5368 -0.8012 -1.1919
  251SOL     OW  892   1.245   3.697   0.944 -0.4366 -0.2638 -0.0010
  251SOL    HW1  893   1.289   3.724   1.024 -0.8102 -0.6269  0.3304
  251SOL    HW2  894   1.155   3.729   0.954 -0.6235 -0.7665 -0.0372
  252SOL     OW  895   0.781   0.615   3.342  0.1863 -0.6553  0.2424
  252SOL    HW1  896   0.829   0.623   3.259 -2.5752 -1.5052 -1.5938
  252SOL    HW2  897   0.783   0.521   3.361  0.7083 -0.4761  1.1219
  253SOL     OW  898   2.900   1.557   1.507  0.0167 -0.1285 -0.5515
  253SOL    HW1  899   2.970   1.582   1.447  0.1624  1.5077  0.2489
  253SOL    HW2  900   2.870   1.640   1.545 -0.0099 -1.0899  1.6839
  254SOL     OW  901   3.643   2.340   3.153 -0.6384  0.0280 -0.6919
  254SOL    HW1  902   3.693   2.362   3.075 -0.7421  0.1121 -0.7356
  254SOL    HW2  903   3.589   2.417   3.170 -0.0643  0.3077 -0.0946
  255SOL     OW  904   0.196   3.070   1.072 -0.1990 -0.7573  0.5234
  255SOL    HW1  905   0.227   3.155   1.040  0.9276 -1.0242  0.8779
  255SOL    HW2  906   0.101   3.082   1.083 -0.2911 -0.0306 -0.8832
  256SOL     OW  907   0.401   3.205   1.266  0.2535 -0.1817 -0.5925
  256SOL    HW1  908   0.477   3.203   1.324 -0.4921  1.3943  0.5281
  256SOL    HW2  909   0.389   3.114   1.239  2.7094 -0.4204 -1.0985
  257SOL     OW  910   1.050   1.415   1.927 -0.2562 -0.3385 -0.0374
  257SOL    HW1  911   0.983   1.348   1.944  0.9020 -1.4991  0.0519
  257SOL    HW2  912   1.089   1.432   2.013  0.2327 -0.3880 -0.2495
  258SOL     OW  913   3.325   3.285   0.165  0.0310 -0.0175  1.0379
  258SOL    HW1  914   3.419   3.272   0.175  0.3964  1.4978 -0.0699
  258SOL    HW2  915   3.297   3.215   0.106  0.6665  0.1057  0.5739
  259SOL     OW  916   2.109   3.313   2.518 -1.0217  0.5429 -0.1573
  259SOL    HW1  917   2.093   3.390   2.463 -0.5732 -1.0994 -2.7753
  259SOL    HW2  918   2.047   3.247   2.487 -0.0328 -0.8015  0.5891
  260SOL     OW  919   2.622   0.900   0.088  0.1896  0.6656  0.0213
  260SOL    HW1  920   2.664   0.815   0.080 -0.2025  0.6330 -2.0997
  260SOL    HW2  921   2.575   0.896   0.172  0.1625 -1.1858 -0.0544
  261SOL     OW  922   0.064   1.207   2.613 -0.3639  0.1786 -0.1506
  261SOL    HW1  923   0.102   1.279   2.564  1.1443  0.3939  1.2461
  261SOL    HW2  924  -0.029   1.228   2.619 -0.3252  0.8775 -1.6120
  262SOL     OW  925   1.200   0.724   3.611  0.3789 -0.1582  0.3027
  262SOL    HW1  926   1.132   0.667   3.648 -0.1269  0.1700 -0.0968
  262SOL    HW2  927   1.212   0.692   3.522 -0.8151  1.1082 -0.3586
  263SOL     OW  928   1.312   1.486   3.259 -0.4252  0.3810 -0.5613
  263SOL    HW1  929   1.389   1.543   3.257 -1.6268  2.3759  2.3079
  263SOL    HW2  930   1.348   1.399   3.278  1.1706  1.3664  1.3521
  264SOL     OW  931   0.396   1.149   2.125  0.2202  0.0313 -0.6343
  264SOL    HW1  932   0.385   1.093   2.049  1.8475  0.1820 -1.0184
  264SOL    HW2  933   0.344   1.107   2.194  1.9833 -2.4119 -0.6681
  265SOL     OW  934   2.873   1.028   0.461  0.3241  0.2059 -0.5224
  265SOL    HW1  935   2.881   0.933   0.451  0.4567  0.2945 -1.3436
  265SOL    HW2  936   2.950   1.053   0.512 -0.7280 -0.3565  1.4245
  266SOL     OW  937   1.413   1.474   0.168  0.5996  0.0321  0.3623
  266SOL    HW1  938   1.325   1.452   0.140  0.9931 -0.2188 -0.7353
  266SOL    HW2  939   1.441   1.398   0.220 -0.2860  0.6794  1.8492
  267SOL     OW  940   2.625   3.187   3.283  0.5367  0.5625  0.2405
  267SOL    HW1  941   2.683   3.140   3.222  0.1263  0.0017  0.2704
  267SOL    HW2  942   2.603   3.268   3.237  0.4423  0.2651 -0.2486
  268SOL     OW  943   0.501   0.527   2.240 -0.1305 -0.8486  0.1475
  268SOL    HW1  944   0.513   0.622   2.239 -3.0177 -0.3805  0.5456
  268SOL    HW2  945   0.487   0.503   2.149  0.8689 -0.9550  0.0150
  269SOL     OW  946   3.185   1.489   2.605  0.2356  0.1345  0.1318
  269SOL    HW1  947   3.168   1.573   2.647 -2.2317 -0.0115 -0.4807
  269SOL    HW2  948   3.134   1.426   2.656  1.4986 -0.9192  0.1530
  270SOL     OW  949   2.423   0.824   0.482 -0.6005 -0.1006  0.6908
  270SOL    HW1  950   2.349   0.778   0.522 -0.4617 -0.8499  0.1021
  270SOL    HW2  951   2.454   0.765   0.414  0.3086  0.3720  0.6823
  271SOL     OW  952   2.862   2.291   1.478  0.6845  0.4511 -0.1950
  271SOL    HW1  953   2.819   2.359   1.425 -0.1242 -0.0821 -0.2343
  271SOL    HW2  954   2.880   2.220   1.417  0.1506  0.0155  0.1382
  272SOL     OW  955   3.315   1.692   1.439 -0.0697 -0.2348 -0.0375
  272SOL    HW1  956   3.393   1.676   1.491  0.8294  0.8911 -0.9935
  272SOL    HW2  957   3.296   1.785   1.452 -1.3796 -0.5332  0.3329
  273SOL     OW  958   0.727   1.028   3.425  0.2713  0.7384 -0.5040
  273SOL    HW1  959   0.651   1.074   3.389 -1.4429 -0.3772  1.4383
  273SOL    HW2  960   0.759   1.086   3.494 -2.2260 -0.9393  2.3220
  274SOL     OW  961   0.082   0.082   0.689  0.2287  0.6827  1.2285
  274SOL    HW1  962   0.001   0.046   0.726  0.3486 -1.2311 -0.2015
  274SOL    HW2  963   0.093   0.166   0.733 -1.1649 -0.1466  3.3354
  275SOL     OW  964   0.345   0.286   2.748  0.2791 -0.6769  0.2396
  275SOL    HW1  965   0.380   0.350   2.686 -0.8937  0.5030  0.7418
  275SOL    HW2  966   0.375   0.316   2.833  0.6553 -1.4485  0.3847
  276SOL     OW  967   2.619   3.558   2.951 -0.0043  0.8477 -0.5448
  276SOL    HW1  968   2.711   3.537   2.934 -0.4254 -1.1532 -0.5812
  276SOL    HW2  969   2.613   3.652   2.936  1.8455  0.8799 -1.3721
  277SOL     OW  970   1.035   3.361   1.668 -0.1287  0.1280  0.0914
  277SOL    HW1  971   1.014   3.409   1.588 -0.3995 -1.2740 -0.7266
  277SOL    HW2  972   0.950   3.340   1.707 -0.1299 -1.4200 -0.6662
  278SOL     OW  973   1.110   1.163   3.523 -0.0050  0.2063 -0.3663
  278SOL    HW1  974   1.114   1.150   3.429  2.6016  2.2017 -0.6322
  278SOL    HW2  975   1.019   1.190   3.540 -0.7027 -0.8472 -2.1387
  279SOL     OW  976   0.396   3.072   0.419 -0.6108  0.8165  0.5680
  279SOL    HW1  977   0.478   3.040   0.457  0.4940  2.3494 -0.4012
  279SOL    HW2  978   0.387   3.023   0.337  0.4827  2.1201 -0.3617
  280SOL     OW  979   2.809   3.101   2.044 -0.2823  0.1447  0.3581
  280SOL    HW1  980   2.812   3.196   2.033  0.3771 -0.0725 -1.8707
  280SOL    HW2  981   2.895   3.078   2.078 -0.4324  0.3190  0.8724
  281SOL     OW  982   2.129   1.674   1.315 -0.7033 -0.1298 -0.5161
  281SOL    HW1  983   2.144   1.702   1.225 -0.7945 -1.1858 -0.8720
  281SOL    HW2  984   2.039   1.702   1.334 -0.3193  1.0613 -0.3608
  282SOL     OW  985   3.725   1.434   1.153  0.6339  0.4149 -0.3750
  282SOL    HW1  986   3.752   1.397   1.069 -2.0961 -0.0158 -1.1678
  282SOL    HW2  987   3.652   1.379   1.181 -0.2931  2.1949  0.9046
  283SOL     OW  988   1.197   1.979   1.631  0.5504 -0.2079 -0.7222
  283SOL    HW1  989   1.129   2.045   1.627 -0.1647 -0.9751 -2.1922
  283SOL    HW2  990   1.257   2.002   1.560  1.2499 -0.1593 -0.1312
  284SOL     OW  991   0.153   2.216   1.657  0.5157  0.2346 -0.5031
  284SOL    HW1  992   0.145   2.288   1.594  0.4119  1.1074  0.4704
  284SOL    HW2  993   0.167   2.260   1.741  0.0027 -0.8769  0.1851
  285SOL     OW  994   3.335   0.385   1.326 -0.5433 -0.1742 -0.6608
  285SOL    HW1  995   3.256   0.436   1.341  0.2013  0.8346  0.0174
  285SOL    HW2  996   3.362   0.355   1.413 -0.4041 -0.8515 -0.9317
  286SOL     OW  997   2.853   2.151   1.229 -0.6369 -0.6613 -0.3562
  286SOL    HW1  998   2.881   2.093   1.158  0.0001  1.1005 -1.6134
  286SOL    HW2  999   2.758   2.148   1.227 -0.6177 -0.8939 -1.0833
  287SOL     OW 1000   1.259   0.909   1.826  0.1264 -0.0335 -0.2446
  287SOL    HW1 1001   1.234   0.832   1.775 -0.5195 -0.4007  0.6032
  287SOL    HW2 1002   1.349   0.891   1.854 -0.2950 -0.8728  0.6361
  288SOL     OW 1003   1.612   2.734   2.783  0.0732  0.3301  0.2135
  288SOL    HW1 1004   1.546   2.803   2.775  1.1244  1.4648  0.9465
  288SOL    HW2 1005   1.599   2.699   2.871  1.5095  1.7432  1.0367
  289SOL     OW 1006   2.116   0.920   3.141  0.7736 -0.1666 -0.5408
  289SOL    HW1 1007   2.210   0.905   3.130  0.8871  0.5282 -0.5871
  289SOL    HW2 1008   2.101   1.007   3.102 -0.1168 -0.8118 -1.7116
  290SOL     OW 1009   1.825   3.261   2.564  0.1186 -0.1665  0.2103
  290SOL    HW1 1010   1.815   3.177   2.609  1.7179 -0.3936  0.1781
  290SOL    HW2 1011   1.796   3.326   2.629  0.3289 -0.6319  0.7799
  291SOL     OW 1012   1.735   1.768   0.886 -0.2103  0.5628  0.4023
  291SOL    HW1 1013   1.796   1.791   0.955  1.1537 -2.3166  0.2913
  291SOL    HW2 1014   1.724   1.849   0.836  3.6372  1.2382  0.3608
  292SOL     OW 1015   2.876   0.337   0.286 -0.4237 -0.5285  0.6627
  292SOL    HW1 1016   2.796   0.303   0.326 -1.0992  0.8254  0.5437
  292SOL    HW2 1017   2.866   0.432   0.291 -0.3951 -0.2667 -2.4303
  293SOL     OW 1018   1.214   2.449   0.222 -0.9010  0.2303 -0.2360
  293SOL    HW1 1019   1.212   2.447   0.318 -1.1645  0.1948 -0.2429
  293SOL    HW2 1020   1.124   2.465   0.196 -0.9390 -0.3972 -0.4965
  294SOL     OW 1021   0.458   0.492   1.946 -0.2358 -0.9538 -0.1364
  294SOL    HW1 1022   0.378   0.447   1.919 -1.4384  1.9037 -1.8759
  294SOL    HW2 1023   0.521   0.473   1.877 -0.3009 -1.0998 -0.1550
  295SOL     OW 1024   0.209   3.099   2.490  0.4104  0.0170  0.2269
  295SOL    HW1 1025   0.224   3.127   2.400  2.8795 -0.5290  0.3984
  295SOL    HW2 1026   0.183   3.007   2.483 -0.3334  0.2268  0.0665
  296SOL     OW 1027   0.627   2.101   0.610  0.4921 -0.2109  0.1416
  296SOL    HW1 1028   0.634   2.042   0.535  1.1980  0.9859 -0.7708
  296SOL    HW2 1029   0.715   2.102   0.648  0.5780  0.4981 -0.0578
  297SOL     OW 1030   2.721   2.786   3.091 -0.0330  0.4661  0.0302
  297SOL    HW1 1031   2.747   2.720   3.155  0.0185  1.0094  0.5763
  297SOL    HW2 1032   2.646   2.830   3.130 -0.2354  0.5556 -0.4494
  298SOL     OW 1033   1.586   1.930   1.067  0.0798  0.0392  0.1739
  298SOL    HW1 1034   1.576   1.892   1.154  1.4267 -2.2115 -0.5650
  298SOL    HW2 1035   1.679   1.952   1.061  0.2894 -1.0893 -1.1308
  299SOL     OW 1036   1.602   0.186   1.950  0.0619  0.4492 -0.6458
  299SOL    HW1 1037   1.609   0.140   1.866  0.1269 -0.0328 -0.3812
  299SOL    HW2 1038   1.684   0.166   1.995  0.1215  0.8893 -0.5511
  300SOL     OW 1039   3.468   2.194   0.399 -0.1470  0.2389 -0.8258
  300SOL    HW1 1040   3.503   2.119   0.447 -0.1995  0.5711 -0.2485
  300SOL    HW2 1041   3.502   2.185   0.310  0.0410 -0.3350 -0.6977
  301SOL     OW 1042   1.361   2.465   1.448 -0.2517 -0.0210  0.7282
  301SOL    HW1 1043   1.430   2.518   1.410  1.0466  0.5472  3.5723
  301SOL    HW2 1044   1.314   2.525   1.507 -2.5056 -0.6760 -0.2956
  302SOL     OW 1045   1.298   1.606   1.060 -0.2886  0.3812  0.0623
  302SOL    HW1 1046   1.255   1.691   1.059 -0.0758  0.5095  1.2026
  302SOL    HW2 1047   1.290   1.575   1.150 -0.0823 -0.6637 -0.2623
  303SOL     OW 1048   2.074   2.486   0.991  0.2335 -0.0687 -0.0626
  303SOL    HW1 1049   2.023   2.546   1.045  0.6332  1.2785 -1.1096
  303SOL    HW2 1050   2.008   2.439   0.939 -0.0432  0.0679  0.1594
  304SOL     OW 1051   0.404   2.634   1.141  0.2159 -0.4480  0.8477
  304SOL    HW1 1052   0.349   2.560   1.115  2.0448 -1.6528  0.1888
  304SOL    HW2 1053   0.370   2.708   1.091  0.4366 -1.6025 -1.1172
  305SOL     OW 1054   0.506   1.702   1.386  0.0524 -0.0624  0.1724
  305SOL    HW1 1055   0.575   1.767   1.374  1.0226 -1.0891  0.0704
  305SOL    HW2 1056   0.467   1.724   1.471  2.0738 -0.8592  1.3712
  306SOL     OW 1057   1.241   1.023   1.346 -0.1071 -0.6899  0.0325
  306SOL    HW1 1058   1.173   1.027   1.279 -1.6012  1.6646  1.5458
  306SOL    HW2 1059   1.323   1.038   1.299 -1.1759  1.8211 -1.2275
  307SOL     OW 1060   2.054   3.713   2.599 -0.1939  0.5503 -0.0334
  307SOL    HW1 1061   2.045   3.792   2.545 -0.4333 -1.0166 -2.4321
  307SOL    HW2 1062   1.967   3.673   2.598  0.7506 -1.8550 -2.5160
  308SOL     OW 1063   3.458   2.810   3.704 -0.1408 -0.3344  0.3673
  308SOL    HW1 1064   3.453   2.880   3.770  3.3062  2.6093 -2.0651
  308SOL    HW2 1065   3.389   2.832   3.641 -1.1884 -1.1215  1.2138
  309SOL     OW 1066   1.126   2.970   1.621  0.6075  0.0023  0.0787
  309SOL    HW1 1067   1.090   2.949   1.535  0.0573 -0.5949  0.4438
  309SOL    HW2 1068   1.191   2.901   1.638  0.6910  0.0992  0.1577
  310SOL     OW 1069   2.916   0.113   1.740 -0.7228 -0.3102  0.4893
  310SOL    HW1 1070   2.975   0.115   1.815  2.0929  1.1388 -1.5555
  310SOL    HW2 1071   2.847   0.175   1.762  0.3169  0.4590  1.7134
  311SOL     OW 1072   2.182   2.701   2.321  1.1377  0.7826  0.3342
  311SOL    HW1 1073   2.261   2.745   2.352  1.5656  0.6018 -0.4776
  311SOL    HW2 1074   2.207   2.609   2.314  1.0515  0.8234 -0.5534
  312SOL     OW 1075   3.049   0.031   1.973  0.3381 -0.1614  0.3819
  312SOL    HW1 1076   3.125   0.057   1.920  0.7713  0.8490  1.4692
  312SOL    HW2 1077   3.065   0.069   2.059 -0.8252 -0.9703  0.9816
  313SOL     OW 1078   3.441   3.040   2.450  0.2217  0.0966  0.2529
  313SOL    HW1 1079   3.373   2.980   2.481 -0.2350  0.0457 -0.8176
  313SOL    HW2 1080   3.396   3.125   2.442  1.2989  1.1784  3.6789
  314SOL     OW 1081   3.435   2.468   2.195  0.0531 -0.7202  0.4576
  314SOL    HW1 1082   3.480   2.434   2.272  1.1083 -0.6460 -0.1068
  314SOL    HW2 1083   3.488   2.438   2.121  0.1026  0.7525 -0.1437
  315SOL     OW 1084   3.665   1.239   1.588  0.0569 -0.0268 -0.9512
  315SOL    HW1 1085   3.597   1.249   1.654  1.8032  0.0452  0.9477
  315SOL    HW2 1086   3.659   1.318   1.535 -0.0510  0.9386  0.4617
  316SOL     OW 1087   3.572   2.004   0.616 -0.2945  0.1605 -0.3177
  316SOL    HW1 1088   3.599   2.036   0.702 -2.0003  0.2022  0.2503
  316SOL    HW2 1089   3.649   1.959   0.581  0.7192  0.9467  0.8242
  317SOL     OW 1090   2.607   0.634   1.034  0.4058 -0.2566 -0.0878
  317SOL    HW1 1091   2.667   0.561   1.050  1.3038  0.3088 -0.7358
  317SOL    HW2 1092   2.559   0.645   1.116  2.3272  0.3020  1.0162
  318SOL     OW 1093   2.844   1.049   1.462  0.1333  0.1150 -0.3514
  318SOL    HW1 1094   2.781   1.086   1.400 -0.9363  2.6268  2.0036
  318SOL    HW2 1095   2.905   1.121   1.479  0.8732 -0.7679  0.8913
  319SOL     OW 1096   2.722   0.300   2.138  0.0434  0.5566  0.8124
  319SOL    HW1 1097   2.801   0.353   2.142  1.3717 -1.2006 -0.4491
  319SOL    HW2 1098   2.728   0.242   2.213  0.9933 -0.8565 -0.2968
  320SOL     OW 1099   0.110   2.680   1.466 -0.1720  0.5288 -0.3037
  320SOL    HW1 1100   0.183   2.740   1.447 -0.8268  1.5562  0.3574
  320SOL    HW2 1101   0.049   2.732   1.517 -1.6059 -0.1821 -1.2353
  321SOL     OW 1102   1.665   3.073   1.908 -0.2865  0.0988  0.1237
  321SOL    HW1 1103   1.705   3.135   1.970 -1.9843 -0.6528  2.0755
  321SOL    HW2 1104   1.600   3.125   1.862 -0.1168  0.2987  0.1072
  322SOL     OW 1105   0.544   2.951   3.392 -1.0667  0.0001 -0.2958
  322SOL    HW1 1106   0.463   2.922   3.349 -1.2570  2.2350 -1.5456
  322SOL    HW2 1107   0.515   3.019   3.453 -0.1490  0.8248 -0.7594
  323SOL     OW 1108   3.220   0.777   0.599  0.0910 -0.2056  0.3890
  323SOL    HW1 1109   3.171   0.694   0.599 -1.5806  0.7221  0.2523
  323SOL    HW2 1110   3.264   0.779   0.684 -1.2739 -0.4860  1.1444
  324SOL     OW 1111   2.054   2.192   2.560  0.0183 -0.0022 -0.5915
  324SOL    HW1 1112   2.136   2.221   2.599  0.6302  0.7342 -2.3235
  324SOL    HW2 1113   2.073   2.104   2.527 -0.6773 -0.8806  1.1790
  325SOL     OW 1114   1.530   2.461   0.306 -0.4175 -0.2973  0.0644
  325SOL    HW1 1115   1.491   2.548   0.317  0.9250  0.3648 -0.2361
  325SOL    HW2 1116   1.457   2.406   0.277 -1.6277  0.3700  1.6437
  326SOL     OW 1117   3.115   0.326   3.307 -0.2151  0.4780 -0.7494
  326SOL    HW1 1118   3.114   0.344   3.213  1.3552  1.5103 -0.5921
  326SOL    HW2 1119   3.031   0.360   3.339 -1.2249 -0.7962 -1.8979
  327SOL     OW 1120   1.756   3.022   3.534  0.1100 -0.3334 -0.1593
  327SOL    HW1 1121   1.687   2.970   3.575 -1.1052  1.1032 -0.3026
  327SOL    HW2 1122   1.771   2.978   3.450 -1.7060  0.1469 -0.7809
  328SOL     OW 1123   1.936   3.075   1.856 -0.5046 -0.4367 -0.0634
  328SOL    HW1 1124   1.950   3.034   1.942 -0.3493 -0.1793  0.0330
  328SOL    HW2 1125   1.842   3.090   1.852 -0.4686 -0.1288  0.2072
  329SOL     OW 1126   1.938   2.835   2.378 -0.1661 -0.3024 -0.7307
  329SOL    HW1 1127   2.019   2.784   2.385 -0.8866 -1.8624 -2.7251
  329SOL    HW2 1128   1.895   2.824   2.463 -0.2624 -3.0687 -1.0287
  330SOL     OW 1129   3.315   3.198   1.230 -0.0433 -0.7839  0.7076
  330SOL    HW1 1130   3.304   3.177   1.137  2.4756 -0.1371  0.2006
  330SOL    HW2 1131   3.243   3.152   1.273 -2.3889  0.2904 -1.7017
  331SOL     OW 1132   3.523   1.247   2.620 -0.3712  0.1518 -0.1429
  331SOL    HW1 1133   3.542   1.338   2.645 -2.6049  0.5936  0.1949
  331SOL    HW2 1134   3.510   1.201   2.703  1.9437 -0.8258 -0.2643
  332SOL     OW 1135   1.588   1.269   1.450 -0.0654  0.2346  1.0909
  332SOL    HW1 1136   1.648   1.213   1.401 -0.8738 -0.9261  1.3609
  332SOL    HW2 1137   1.505   1.262   1.402  0.1213  2.2977  0.3685
  333SOL     OW 1138   0.865   3.088   1.491 -1.1564  0.3071 -0.0632
  333SOL    HW1 1139   0.951   3.048   1.476 -0.6215  0.8051  1.5006
  333SOL    HW2 1140   0.870   3.173   1.447 -1.0320  0.1251 -0.4021
  334SOL     OW 1141   1.462   2.296   1.650 -0.0167 -0.3424 -0.0031
  334SOL    HW1 1142   1.444   2.346   1.570 -0.4746 -0.9849 -0.3148
  334SOL    HW2 1143   1.504   2.358   1.708 -2.3153  0.9751  0.3718
  335SOL     OW 1144   1.959   3.391   3.662  0.1620  0.5751  0.3157
  335SOL    HW1 1145   1.985   3.327   3.728  0.2974  1.0446  0.7224
  335SOL    HW2 1146   1.975   3.347   3.579  0.6416  0.2261  0.5849
  336SOL     OW 1147   1.239   1.399   1.455  0.6487 -0.2938 -0.5370
  336SOL    HW1 1148   1.167   1.455   1.426  0.6841 -0.5328 -1.0940
  336SOL    HW2 1149   1.312   1.459   1.470  0.5064 -0.1201 -0.5353
  337SOL     OW 1150   1.316   0.075   1.972 -0.3113 -0.2228 -0.2834
  337SOL    HW1 1151   1.293   0.012   2.040  1.1050 -0.0649  0.3836
  337SOL    HW2 1152   1.411   0.083   1.979 -0.4135  1.6715 -0.6259
  338SOL     OW 1153   2.631   2.601   2.279 -0.6154 -0.0206  0.3535
  338SOL    HW1 1154   2.555   2.578   2.225 -1.3470 -0.8987  1.6891
  338SOL    HW2 1155   2.697   2.535   2.257 -1.4641 -1.3740  1.5801
  339SOL     OW 1156   3.054   3.640   0.142  0.5189  0.4998 -0.2926
  339SOL    HW1 1157   3.055   3.718   0.198 -0.8748  0.1031  0.3237
  339SOL    HW2 1158   3.133   3.592   0.166  0.4875  0.8661  0.5829
  340SOL     OW 1159   0.087   1.916   1.295  0.7586 -0.4605  0.3786
  340SOL    HW1 1160   0.033   1.850   1.250  0.5525 -0.6151  0.8456
  340SOL    HW2 1161   0.042   1.999   1.279  1.3650 -0.3278 -0.7586
  341SOL     OW 1162   0.470   3.631   2.799  0.1047  0.4025  0.5842
  341SOL    HW1 1163   0.545   3.691   2.795 -0.3867  0.9384 -2.3048
  341SOL    HW2 1164   0.470   3.586   2.715 -1.7859 -0.8921  1.2206
  342SOL     OW 1165   2.091   2.987   0.650 -0.3667  0.0315  0.3775
  342SOL    HW1 1166   2.139   3.035   0.717 -0.3045 -1.2535  1.2888
  342SOL    HW2 1167   2.004   2.973   0.687 -0.6092  0.0568 -0.1698
  343SOL     OW 1168   0.646   0.728   1.394  0.2848  0.1036 -0.0303
  343SOL    HW1 1169   0.736   0.752   1.375  0.2518  0.4624  0.2552
  343SOL    HW2 1170   0.610   0.803   1.442  0.6231 -1.0870  2.2021
  344SOL     OW 1171   2.666   1.362   0.478 -1.0130 -0.3799  0.5880
  344SOL    HW1 1172   2.648   1.275   0.441  1.6137 -0.9280  0.4360
  344SOL    HW2 1173   2.756   1.381   0.453 -1.7083  2.7542  0.0448
  345SOL     OW 1174   0.927   2.604   2.888 -0.0220  1.1802 -0.5087
  345SOL    HW1 1175   0.948   2.693   2.861 -2.8566  1.8306 -0.8249
  345SOL    HW2 1176   0.836   2.591   2.864  0.2448 -1.8137 -0.3889
  346SOL     OW 1177   3.300   0.810   0.871 -0.2028  0.3365  0.8766
  346SOL    HW1 1178   3.207   0.825   0.888 -0.1408  1.0759  0.6059
  346SOL    HW2 1179   3.312   0.716   0.884 -1.0788  0.1629  0.4973
  347SOL     OW 1180   0.608   2.097   0.292 -0.3150 -0.0060  0.4265
  347SOL    HW1 1181   0.543   2.168   0.293 -0.4527 -0.1059 -0.3753
  347SOL    HW2 1182   0.692   2.141   0.300 -0.4702 -0.0258  4.9587
  348SOL     OW 1183   3.693   0.005   1.992  0.5953 -0.3169  0.4037
  348SOL    HW1 1184   3.675   0.098   1.980 -2.1645 -1.0641 -2.5867
  348SOL    HW2 1185   3.787   0.001   2.013  1.0264  3.0236 -0.3501
  349SOL     OW 1186   1.805   3.554   1.508  0.2064  0.5238 -0.5272
  349SOL    HW1 1187   1.855   3.520   1.583 -0.4813  1.0018  0.1698
  349SOL    HW2 1188   1.820   3.490   1.438  2.2811  0.9878 -0.5485
  350SOL     OW 1189   2.089   0.941   1.344 -0.4136 -0.6245 -0.4148
  350SOL    HW1 1190   2.008   0.988   1.321 -0.2676  1.0960  2.1740
  350SOL    HW2 1191   2.148   0.958   1.271 -1.2436  1.0974 -0.7311
  351SOL     OW 1192   2.815   0.771   0.527  0.0720  0.0946  0.0332
  351SOL    HW1 1193   2.791   0.752   0.617 -0.2031 -0.0589 -0.0689
  351SOL    HW2 1194   2.882   0.706   0.506 -2.3720 -2.3254 -1.0005
  352SOL     OW 1195   1.421   3.375   0.750 -0.2598 -0.4301 -0.3584
  352SOL    HW1 1196   1.371   3.427   0.686 -0.0368 -3.1399 -2.9508
  352SOL    HW2 1197   1.512   3.401   0.735 -0.3512  0.1534  0.0763
  353SOL     OW 1198   1.773   0.138   2.981 -0.4311  0.1503 -0.0273
  353SOL    HW1 1199   1.723   0.108   2.905 -0.3177  0.2469 -0.1401
  353SOL    HW2 1200   1.862   0.108   2.965 -0.4416  0.0237  0.1489
  354SOL     OW 1201   1.765   2.875   3.316 -0.1590 -0.3529  0.5397
  354SOL    HW1 1202   1.673   2.851   3.315 -0.7206  1.6444  0.9908
  354SOL    HW2 1203   1.811   2.791   3.320 -1.8550 -1.5055 -1.7714
  355SOL     OW 1204   1.910   1.846   2.448 -0.5572  0.5112  0.2905
  355SOL    HW1 1205   1.864   1.923   2.480  1.0258  1.4730  0.3704
  355SOL    HW2 1206   1.934   1.868   2.358 -0.2602  0.0430  0.2521
  356SOL     OW 1207   3.331   3.650   2.813 -0.4558 -0.6003  0.3164
  356SOL    HW1 1208   3.347   3.728   2.867 -2.0902 -0.5389  0.7540
  356SOL    HW2 1209   3.370   3.672   2.728 -2.5144  1.5236 -0.1753
  357SOL     OW 1210   0.667   2.578   1.015 -0.5006  0.4056 -0.8372
  357SOL    HW1 1211   0.680   2.483   1.022 -0.2542  0.4068 -1.2375
  357SOL    HW2 1212   0.580   2.593   1.051 -1.0174 -0.1237 -1.8139
  358SOL     OW 1213   2.292   1.861   2.447  0.0588  0.2166  0.5553
  358SOL    HW1 1214   2.364   1.916   2.417  0.5357 -0.4896  0.3800
  358SOL    HW2 1215   2.215   1.898   2.406  0.2112  1.4062  1.2859
  359SOL     OW 1216   0.223   0.764   1.989 -0.1558  0.1626  0.0367
  359SOL    HW1 1217   0.308   0.765   1.945 -0.5579  0.9772 -0.7437
  359SOL    HW2 1218   0.167   0.711   1.932 -0.8123  1.6297 -0.7297
  360SOL     OW 1219   3.365   2.024   2.147 -0.2540 -0.0659  0.2564
  360SOL    HW1 1220   3.370   2.061   2.058  0.4473  2.3319  1.2200
  360SOL    HW2 1221   3.446   1.975   2.157  1.0996  2.0973  0.5151
  361SOL     OW 1222   2.635   0.303   2.561  0.3104  0.3869 -0.0262
  361SOL    HW1 1223   2.585   0.340   2.488 -0.7283 -0.5927  0.1462
  361SOL    HW2 1224   2.701   0.248   2.519 -0.5288 -0.4815 -0.2535
  362SOL     OW 1225   0.505   0.740   3.140 -0.4455 -0.4471 -0.2598
  362SOL    HW1 1226   0.472   0.751   3.229 -0.0697 -0.1486 -0.1509
  362SOL    HW2 1227   0.569   0.811   3.130 -1.4429  0.3319 -1.2332
  363SOL     OW 1228   3.112   1.948   1.840  0.3644 -0.6277  0.2152
  363SOL    HW1 1229   3.092   1.859   1.867  1.8392 -2.1664 -3.1236
  363SOL    HW2 1230   3.207   1.955   1.850  0.4217  0.1166 -0.7324
  364SOL     OW 1231   1.959   0.064   3.224 -0.9582 -0.3739 -0.6652
  364SOL    HW1 1232   2.001   0.101   3.302  0.4145 -1.7275 -0.7237
  364SOL    HW2 1233   1.871   0.041   3.254 -1.5553  1.9556 -0.3798
  365SOL     OW 1234   1.221   3.407   0.953  0.0865  0.5124 -0.0218
  365SOL    HW1 1235   1.296   3.384   0.899 -0.3478  0.3108 -0.5544
  365SOL    HW2 1236   1.214   3.502   0.946  2.0212  0.9299  2.3650
  366SOL     OW 1237   3.675   0.749   0.727  0.3899 -0.6781 -0.3696
  366SOL    HW1 1238   3.686   0.721   0.818 -0.7271  2.5378  0.8984
  366SOL    HW2 1239   3.764   0.763   0.695  0.9731 -4.3292 -0.8114
  367SOL     OW 1240   1.427   0.707   1.236  0.1031  0.5820  0.3081
  367SOL    HW1 1241   1.410   0.794   1.200 -0.8042  0.9108  1.4656
  367SOL    HW2 1242   1.354   0.691   1.297 -0.3981 -1.4796 -0.7251
  368SOL     OW 1243   3.676   2.767   1.784  0.3337  0.0544  0.0293
  368SOL    HW1 1244   3.700   2.859   1.776  0.5707  0.0357  0.4983
  368SOL    HW2 1245   3.678   2.750   1.879 -0.0781 -0.3328 -0.0279
  369SOL     OW 1246   3.641   1.727   1.199 -0.2908 -0.4318 -0.0321
  369SOL    HW1 1247   3.550   1.705   1.182  0.0002 -0.6107 -1.5843
  369SOL    HW2 1248   3.690   1.649   1.170  0.2594 -1.6301  3.5471
  370SOL     OW 1249   0.075   2.182   0.393 -0.2786  0.1531  0.5921
  370SOL    HW1 1250   0.047   2.227   0.473  1.6562 -0.5539  1.7412
  370SOL    HW2 1251   0.036   2.233   0.322 -3.0238  0.1506  1.9545
  371SOL     OW 1252   2.050   0.107   2.876 -0.4720 -0.2673  0.1715
  371SOL    HW1 1253   2.101   0.188   2.867 -0.1285 -0.2298  1.9897
  371SOL    HW2 1254   2.054   0.067   2.790  1.0532  0.6829 -0.2533
  372SOL     OW 1255   0.085   1.011   3.535 -0.0480  0.1418 -0.7197
  372SOL    HW1 1256   0.151   1.039   3.471  0.0727  0.5758 -0.4094
  372SOL    HW2 1257   0.096   1.071   3.608  0.0938 -0.6178 -0.1121
  373SOL     OW 1258   2.868   0.364   3.389  0.2316  0.4760 -0.8823
  373SOL    HW1 1259   2.866   0.444   3.442 -0.3570 -0.8384  1.2011
  373SOL    HW2 1260   2.863   0.395   3.299  3.8338  2.9883 -0.4285
  374SOL     OW 1261   1.272   0.260   0.321  0.5731  0.0972 -0.4377
  374SOL    HW1 1262   1.328   0.257   0.244  0.5226 -0.0546 -0.4694
  374SOL    HW2 1263   1.305   0.190   0.378  0.1006 -0.3305 -0.6789
  375SOL     OW 1264   0.029   0.041   1.110 -0.4058 -0.1761 -0.4231
  375SOL    HW1 1265   0.066   0.107   1.052 -0.7370  0.1649 -0.2501
  375SOL    HW2 1266  -0.048   0.009   1.064  0.5665 -1.5010 -1.1725
  376SOL     OW 1267   0.154   3.540   0.923 -0.4794 -0.4506  0.7424
  376SOL    HW1 1268   0.167   3.610   0.988 -1.0536  0.6764 -0.3098
  376SOL    HW2 1269   0.222   3.554   0.858 -0.6085 -0.8591  0.5180
  377SOL     OW 1270   2.537   2.827   3.301  0.3760  0.0584 -0.5165
  377SOL    HW1 1271   2.595   2.866   3.367 -0.6947  2.7715 -1.0404
  377SOL    HW2 1272   2.454   2.874   3.311 -1.0566 -2.1440 -1.2932
  378SOL     OW 1273   2.397   1.664   2.624 -0.1209  0.0839  0.2643
  378SOL    HW1 1274   2.339   1.706   2.561 -0.4486 -0.4986  0.1701
  378SOL    HW2 1275   2.485   1.684   2.593 -0.2788 -0.1920 -0.3686
  379SOL     OW 1276   2.180   0.648   0.068  0.5367  0.3140  0.0567
  379SOL    HW1 1277   2.116   0.682   0.130  0.6349 -0.6366  0.6963
  379SOL    HW2 1278   2.135   0.651  -0.017 -0.0330  0.4873  0.3606
  380SOL     OW 1279   1.391   1.784   3.394 -0.0537  0.6581  0.0611
  380SOL    HW1 1280   1.383   1.708   3.453 -1.1705 -0.7325 -1.7745
  380SOL    HW2 1281   1.445   1.846   3.443 -0.0487 -0.8390  2.1114
  381SOL     OW 1282   2.565   3.045   2.371  0.2356  0.3657 -0.0193
  381SOL    HW1 1283   2.549   3.136   2.350 -0.5254 -0.0066 -1.1030
  381SOL    HW2 1284   2.659   3.041   2.388  0.0626  1.6044  1.4419
  382SOL     OW 1285   3.011   2.083   3.337  0.3556  0.2054 -0.3415
  382SOL    HW1 1286   3.102   2.112   3.349  1.0063 -1.3510 -1.2888
  382SOL    HW2 1287   3.005   2.002   3.388 -1.2507  1.5167  1.7384
  383SOL     OW 1288   1.391   0.014   0.455 -0.3930 -0.1834 -0.4881
  383SOL    HW1 1289   1.357   0.053   0.535 -0.1353  0.1480 -0.5352
  383SOL    HW2 1290   1.438  -0.064   0.484  0.4356  0.4072 -0.2220
  384SOL     OW 1291   2.224   2.032   0.239 -0.3604 -0.4822 -0.2988
  384SOL    HW1 1292   2.279   1.987   0.176 -2.1447 -1.1828 -1.4504
  384SOL    HW2 1293   2.176   2.096   0.187 -1.4740 -0.7030  0.4189
  385SOL     OW 1294   0.003   2.191   2.810 -0.0932  0.0574  0.5291
  385SOL    HW1 1295   0.079   2.134   2.815  1.2222  1.7661  0.9800
  385SOL    HW2 1296   0.033   2.275   2.844 -1.3754  1.6209 -1.8609
  386SOL     OW 1297   2.870   0.966   3.532  0.5722  0.1612  0.4601
  386SOL    HW1 1298   2.787   0.999   3.567 -0.6180 -1.3342 -0.8061
  386SOL    HW2 1299   2.929   0.962   3.607 -0.9767 -0.1851  1.6931
  387SOL     OW 1300   2.947   3.183   1.100  0.5657  0.3155 -0.3141
  387SOL    HW1 1301   2.871   3.209   1.048  2.2516  1.1606 -2.5739
  387SOL    HW2 1302   2.972   3.263   1.147  2.2053  1.2435 -2.5717
  388SOL     OW 1303   0.870   2.214   0.303 -0.3192  0.0656  0.1662
  388SOL    HW1 1304   0.869   2.303   0.337 -1.2732 -0.0717  0.5535
  388SOL    HW2 1305   0.962   2.192   0.294 -0.0814  1.2026 -0.2490
  389SOL     OW 1306   2.703   1.267   2.637  0.1811 -0.1021 -0.0793
  389SOL    HW1 1307   2.637   1.333   2.660 -1.7670 -1.6138 -1.0440
  389SOL    HW2 1308   2.688   1.248   2.545  1.8659 -0.6372 -0.2766
  390SOL     OW 1309   3.474   0.694   2.553  0.5692  0.0044  0.7666
  390SOL    HW1 1310   3.533   0.766   2.576 -0.1106  0.3645  1.4313
  390SOL    HW2 1311   3.486   0.629   2.622  0.2120  0.0699  0.8930
  391SOL     OW 1312   0.802   2.933   3.037 -0.2537  0.1453  0.2016
  391SOL    HW1 1313   0.803   2.926   2.942 -0.2378  0.1574  0.2009
  391SOL    HW2 1314   0.775   3.024   3.054  0.0393  0.2302  0.2070
  392SOL     OW 1315   1.634   3.173   2.293  0.7534  0.6534  0.3412
  392SOL    HW1 1316   1.623   3.266   2.311  2.2878  1.0562 -0.5654
  392SOL    HW2 1317   1.693   3.170   2.217  0.9122 -1.0562  0.4872
  393SOL     OW 1318   2.563   0.045   3.119 -0.0739  0.0166 -0.7999
  393SOL    HW1 1319   2.640   0.036   3.176 -0.0478  1.6117 -0.5265
  393SOL    HW2 1320   2.559   0.139   3.100 -1.4305 -0.1757 -1.5524
  394SOL     OW 1321   2.462   1.964   0.058 -0.6117 -0.6476 -0.2747
  394SOL    HW1 1322   2.511   2.022  -0.000  1.1793  0.3878  2.0808
  394SOL    HW2 1323   2.477   1.877   0.023  0.5941 -0.0920 -1.2311
  395SOL     OW 1324   3.073   1.065   0.656 -0.3085 -0.4710  0.6086
  395SOL    HW1 1325   3.081   1.141   0.713 -1.1647 -1.8530  2.6961
  395SOL    HW2 1326   3.147   1.009   0.680 -0.6523 -1.0593  0.3341
  396SOL     OW 1327   1.483   1.707   1.633  0.5606  0.3099 -0.1291
  396SOL    HW1 1328   1.571   1.674   1.650  0.7878 -0.0274 -1.8389
  396SOL    HW2 1329   1.479   1.720   1.538 -1.0562  0.8236 -0.0310
  397SOL     OW 1330   0.285   1.740   1.231  0.0007  0.0009  0.0665
  397SOL    HW1 1331   0.253   1.822   1.269 -0.7858 -1.7938  3.6539
  397SOL    HW2 1332   0.373   1.730   1.267  1.1605  0.3805 -2.4175
  398SOL     OW 1333   2.560   2.997   1.534 -0.3630 -0.0156  0.1485
  398SOL    HW1 1334   2.519   3.005   1.620 -0.4264 -0.5804  0.1736
  398SOL    HW2 1335   2.651   3.023   1.549 -0.3908 -0.0392  0.3689
  399SOL     OW 1336   1.143   2.999   2.219  0.8489 -0.0796  1.1055
  399SOL    HW1 1337   1.103   3.019   2.134 -0.7204  0.7521  1.9862
  399SOL    HW2 1338   1.156   2.904   2.217  1.3828 -0.0068 -0.2696
  400SOL     OW 1339   2.184   2.410   0.037  0.8211  0.0379  0.5121
  400SOL    HW1 1340   2.226   2.353  -0.028  1.4097  0.9417  0.0778
  400SOL    HW2 1341   2.113   2.357   0.073  0.4326 -0.4427 -0.9226
  401SOL     OW 1342   2.777   1.427   0.920  0.6056  0.6756  0.2536
  401SOL    HW1 1343   2.796   1.334   0.927  1.4616  0.8364  0.0826
  401SOL    HW2 1344   2.722   1.435   0.842  1.5836  0.4646 -0.4778
  402SOL     OW 1345   2.604   1.923   0.840  0.0468 -0.3558  0.5748
  402SOL    HW1 1346   2.518   1.884   0.830 -0.4420  0.9044 -0.4005
  402SOL    HW2 1347   2.615   1.933   0.934 -1.4408  0.6499  0.6710
  403SOL     OW 1348   0.242   1.536   0.850  0.4419  0.0770  0.3897
  403SOL    HW1 1349   0.289   1.523   0.767  0.8447  0.2588  0.5861
  403SOL    HW2 1350   0.256   1.628   0.871  0.9454 -0.1324  1.0189
  404SOL     OW 1351   0.188   3.374   3.351 -0.3697 -0.6312 -0.0169
  404SOL    HW1 1352   0.214   3.284   3.371 -0.8426 -0.5570  0.9775
  404SOL    HW2 1353   0.220   3.389   3.261  1.8058 -0.9891  0.6248
  405SOL     OW 1354   3.250   2.618   2.574  0.7971  0.7455 -0.1613
  405SOL    HW1 1355   3.209   2.628   2.661 -0.3872  2.1605 -0.8331
  405SOL    HW2 1356   3.275   2.526   2.570  0.4280  0.5354  1.4989
  406SOL     OW 1357   1.725   0.493   1.688 -0.2252 -0.4182 -0.4580
  406SOL    HW1 1358   1.700   0.475   1.779 -2.2685 -0.2713 -0.9468
  406SOL    HW2 1359   1.787   0.565   1.694  0.8649 -1.3979  0.9008
  407SOL     OW 1360   0.872   0.408   0.226 -0.1350  0.2024 -0.2375
  407SOL    HW1 1361   0.898   0.357   0.150 -1.5728 -1.4302  0.2926
  407SOL    HW2 1362   0.799   0.359   0.264 -0.2637  1.6135  1.4838
  408SOL     OW 1363   2.173   2.255   0.570  0.0011 -0.3632  0.1819
  408SOL    HW1 1364   2.155   2.337   0.524 -0.2129 -0.7269 -0.3985
  408SOL    HW2 1365   2.090   2.208   0.569  0.2622 -0.8267  0.0183
  409SOL     OW 1366   2.351   1.862   0.757  0.0121  0.4123 -0.0268
  409SOL    HW1 1367   2.396   1.794   0.706 -0.4811  0.0101  0.0685
  409SOL    HW2 1368   2.322   1.925   0.691 -0.2893  0.0872 -0.2095
  410SOL     OW 1369   0.956   0.837   0.071 -0.7295  0.0507 -0.3688
  410SOL    HW1 1370   0.917   0.810  -0.013 -1.0700 -0.3101 -0.1001
  410SOL    HW2 1371   0.924   0.926   0.084 -0.6057  0.1396 -0.6662
  411SOL     OW 1372   0.623   2.980   0.515 -0.6294  0.3381  0.2994
  411SOL    HW1 1373   0.691   2.913   0.527 -0.4587  0.4991  0.2460
  411SOL    HW2 1374   0.669   3.063   0.528 -0.2390  0.5909 -2.0884
  412SOL     OW 1375   0.962   2.387   1.208 -0.3132 -0.4486  0.2163
  412SOL    HW1 1376   0.973   2.479   1.233  0.2598 -0.8327  1.4986
  412SOL    HW2 1377   0.889   2.387   1.146 -1.6198  0.6405  1.6838
  413SOL     OW 1378   1.764   3.622   2.577  0.0877 -1.0155  0.3891
  413SOL    HW1 1379   1.741   3.574   2.656 -0.0152 -0.5858  0.6202
  413SOL    HW2 1380   1.680   3.643   2.536  0.1434 -1.3354  0.1036
  414SOL     OW 1381   1.447   1.244   3.042 -0.0606 -0.7930 -0.8705
  414SOL    HW1 1382   1.383   1.217   2.976 -2.3479  3.3636 -0.6974
  414SOL    HW2 1383   1.424   1.192   3.119 -1.4997 -1.2975 -1.5922
  415SOL     OW 1384   3.289   0.228   0.665  0.3059  0.0154  0.4169
  415SOL    HW1 1385   3.348   0.155   0.651  1.8737  1.0668  1.2672
  415SOL    HW2 1386   3.201   0.190   0.657  1.0658 -1.6545 -0.5329
  416SOL     OW 1387   1.873   0.106   0.092 -0.6073  1.2860  0.1313
  416SOL    HW1 1388   1.951   0.115   0.036 -0.0098  2.0215  1.0483
  416SOL    HW2 1389   1.804   0.076   0.033  0.9410 -1.9787 -0.2768
  417SOL     OW 1390   0.897   3.616   2.045 -0.1532 -0.0249  0.0015
  417SOL    HW1 1391   0.886   3.643   2.136  1.4300  0.0749  0.1954
  417SOL    HW2 1392   0.897   3.698   1.995 -1.0418 -0.0808 -0.1107
  418SOL     OW 1393   2.370   0.891   3.077  0.0121  0.0375  1.0428
  418SOL    HW1 1394   2.403   0.823   3.136 -2.9465 -1.5735  1.0353
  418SOL    HW2 1395   2.424   0.882   2.998  0.0323 -2.0051  1.2290
  419SOL     OW 1396   1.881   0.271   2.015 -0.6612 -0.2442  0.0053
  419SOL    HW1 1397   1.930   0.196   2.048  0.6423  1.4630  2.1805
  419SOL    HW2 1398   1.898   0.272   1.921  0.7432 -1.6240  0.2183
  420SOL     OW 1399   3.549   2.906   1.221  0.0472 -0.4735 -0.0631
  420SOL    HW1 1400   3.457   2.895   1.196  0.2327 -1.7210 -0.2844
  420SOL    HW2 1401   3.551   2.890   1.315  0.0966 -0.8542 -0.1285
  421SOL     OW 1402   1.284   0.823   3.201 -0.1946  0.6270 -0.3357
  421SOL    HW1 1403   1.227   0.865   3.137  0.6121  1.1928 -0.6947
  421SOL    HW2 1404   1.347   0.890   3.226  0.4627 -0.0454 -0.1218
  422SOL     OW 1405   1.040   0.606   1.858  0.1698  0.0256 -0.0618
  422SOL    HW1 1406   1.053   0.544   1.929 -0.2012  0.6732  0.5898
  422SOL    HW2 1407   0.965   0.572   1.810 -1.0590  0.7837  1.2424
  423SOL     OW 1408   1.370   2.008   0.187  0.0497 -0.0651 -0.5637
  423SOL    HW1 1409   1.422   1.959   0.123  1.9128  0.7697  0.2429
  423SOL    HW2 1410   1.338   1.942   0.248  2.4898 -0.3541  0.4867
  424SOL     OW 1411   2.740   2.106   3.342 -1.0330 -0.0731 -0.6165
  424SOL    HW1 1412   2.717   2.158   3.265 -0.9667  0.7366 -0.1058
  424SOL    HW2 1413   2.833   2.086   3.330 -0.7215  1.0366 -0.2066
  425SOL     OW 1414   0.180   1.751   2.228  1.0300 -0.0262  0.0986
  425SOL    HW1 1415   0.095   1.713   2.204  1.4658 -0.2100 -1.2469
  425SOL    HW2 1416   0.240   1.676   2.228  0.9907 -0.1231  2.3264
  426SOL     OW 1417   2.285   1.328   3.308 -0.0730 -0.1329 -0.2780
  426SOL    HW1 1418   2.197   1.349   3.340 -0.1234 -0.8284  0.0670
  426SOL    HW2 1419   2.328   1.412   3.298 -0.6740  0.1966 -0.1422
  427SOL     OW 1420   0.780   3.133   2.411 -0.1269  0.4768 -0.3968
  427SOL    HW1 1421   0.743   3.067   2.352  1.2853  0.9703 -1.9067
  427SOL    HW2 1422   0.710   3.198   2.420 -0.7078 -0.0821 -0.7558
  428SOL     OW 1423   2.908   0.522   1.586  0.3415 -0.3195 -0.3680
  428SOL    HW1 1424   2.923   0.570   1.667 -0.6714 -0.7930  0.1311
  428SOL    HW2 1425   2.969   0.448   1.589  0.0608 -0.5324  0.1434
  429SOL     OW 1426   2.168   3.245   1.823  0.0279  0.0555 -0.3228
  429SOL    HW1 1427   2.081   3.205   1.824 -0.7179  1.4969  2.7485
  429SOL    HW2 1428   2.152   3.339   1.819  1.2675  0.4768  2.3609
  430SOL     OW 1429   1.976   1.220   1.053  0.1865 -0.1186 -0.1622
  430SOL    HW1 1430   2.047   1.265   1.007 -0.1856  1.7769  1.0005
  430SOL    HW2 1431   1.988   1.128   1.031  2.0810  0.3243 -1.2268
  431SOL     OW 1432   2.395   1.409   2.236 -0.0337 -0.0373  0.5409
  431SOL    HW1 1433   2.402   1.397   2.331  1.2382 -1.0609  0.3560
  431SOL    HW2 1434   2.476   1.371   2.202  0.2142  1.6563 -0.8580
  432SOL     OW 1435   0.306   3.399   0.224  0.0677  0.2100  0.7449
  432SOL    HW1 1436   0.336   3.327   0.169 -0.7203  0.2507  0.2463
  432SOL    HW2 1437   0.242   3.359   0.283 -3.6802  1.1155 -2.2983
  433SOL     OW 1438   2.285   2.256   2.694  0.1002  0.4917  0.3280
  433SOL    HW1 1439   2.335   2.318   2.746  1.4110  0.0261 -0.3263
  433SOL    HW2 1440   2.351   2.210   2.642 -0.8628 -1.1147  0.4468
  434SOL     OW 1441   3.009   1.345   1.174 -0.1852 -0.3366 -0.4743
  434SOL    HW1 1442   2.988   1.369   1.084  1.0829 -1.0383 -0.9894
  434SOL    HW2 1443   3.078   1.406   1.199  1.5274 -1.9258 -1.0412
  435SOL     OW 1444   1.148   3.699   2.850 -0.0252 -0.0297  0.1640
  435SOL    HW1 1445   1.071   3.755   2.847 -0.0656  0.0325  1.6420
  435SOL    HW2 1446   1.114   3.610   2.844  0.0515  0.0404 -2.3811
  436SOL     OW 1447   0.525   1.423   2.599  0.0241 -0.5706 -0.8472
  436SOL    HW1 1448   0.476   1.341   2.605 -1.3488  0.1579 -1.5766
  436SOL    HW2 1449   0.514   1.463   2.685  1.4909 -1.5473 -0.1680
  437SOL     OW 1450   0.338   2.038   2.936  0.2527 -0.2426  0.5026
  437SOL    HW1 1451   0.276   2.026   2.864  2.3023 -0.4524 -1.3686
  437SOL    HW2 1452   0.327   2.129   2.963  0.9715  0.5824 -1.7333
  438SOL     OW 1453   3.519   0.194   2.236 -0.1159  0.6301  0.3871
  438SOL    HW1 1454   3.533   0.243   2.155 -0.9707  2.0860  1.0634
  438SOL    HW2 1455   3.592   0.219   2.293 -1.9159  3.4107  1.7142
  439SOL     OW 1456   1.251   0.644   2.164  0.2264 -0.1749 -0.1602
  439SOL    HW1 1457   1.182   0.710   2.154 -0.5932 -0.8608  0.7721
  439SOL    HW2 1458   1.281   0.626   2.075 -1.9425 -1.0421 -0.7588
  440SOL     OW 1459   1.801   0.497   2.864 -0.3539  0.1384 -0.7944
  440SOL    HW1 1460   1.883   0.465   2.826 -0.5984 -0.5791 -0.7358
  440SOL    HW2 1461   1.788   0.584   2.825 -0.3282 -0.3575 -1.9416
  441SOL     OW 1462   2.043   1.235   0.040  0.4104 -0.1633 -0.4716
  441SOL    HW1 1463   2.121   1.194   0.079  0.5800  1.7449  1.4061
  441SOL    HW2 1464   2.073   1.321   0.011 -1.2546  1.3169  1.8362
  442SOL     OW 1465   0.515   0.990   0.542  0.1452  0.1052  0.3675
  442SOL    HW1 1466   0.476   0.958   0.624 -0.7266  0.5273  0.1285
  442SOL    HW2 1467   0.546   0.911   0.499 -1.0472 -0.3388  0.2707
  443SOL     OW 1468   3.523   1.415   2.930 -0.0186  0.3969  0.4001
  443SOL    HW1 1469   3.578   1.433   3.006 -0.6055  0.3465  0.8470
  443SOL    HW2 1470   3.498   1.323   2.940  3.8551 -1.2270 -2.4323
  444SOL     OW 1471   2.753   2.297   3.107  0.3491 -0.3489 -0.2580
  444SOL    HW1 1472   2.676   2.346   3.136 -0.0239 -0.5224 -0.9322
  444SOL    HW2 1473   2.720   2.239   3.039  1.1507 -0.1138 -0.8656
  445SOL     OW 1474   0.783   3.152   3.237 -0.8377  0.2952  0.2967
  445SOL    HW1 1475   0.804   3.065   3.271 -1.9828 -0.2562 -0.3297
  445SOL    HW2 1476   0.697   3.141   3.195 -0.1511  1.2568 -1.4789
  446SOL     OW 1477   0.435   3.379   2.945  0.2149  0.1646 -0.7887
  446SOL    HW1 1478   0.460   3.471   2.936  0.9433  0.0231 -0.2895
  446SOL    HW2 1479   0.339   3.380   2.945  0.2124  0.9894 -0.1155
  447SOL     OW 1480   3.089   2.218   2.722  0.2105  0.3325  0.5865
  447SOL    HW1 1481   3.147   2.267   2.779 -0.3556  0.8288  0.7528
  447SOL    HW2 1482   3.074   2.277   2.647  0.1973  0.0731  0.3837
  448SOL     OW 1483   0.159   2.427   1.483 -0.3730  0.4723  0.2659
  448SOL    HW1 1484   0.149   2.389   1.396 -0.0590  1.3197 -0.1501
  448SOL    HW2 1485   0.138   2.520   1.471 -3.3137  0.1267  1.6731
  449SOL     OW 1486   3.723   3.000   2.961  0.5009  0.0411  0.0772
  449SOL    HW1 1487   3.712   2.950   2.880 -1.4685 -0.8762  0.8480
  449SOL    HW2 1488   3.718   3.091   2.934  3.2928 -0.0664 -1.2392
  450SOL     OW 1489   2.738   0.774   1.890  0.1172 -0.1161  0.7162
  450SOL    HW1 1490   2.804   0.808   1.950 -0.6047  1.1584  0.8274
  450SOL    HW2 1491   2.764   0.807   1.804  0.6961 -1.2583  0.4346
  451SOL     OW 1492   3.350   3.186   1.506 -0.2429  0.4049 -0.7646
  451SOL    HW1 1493   3.359   3.175   1.411  1.5026  0.1112 -0.6081
  451SOL    HW2 1494   3.274   3.133   1.530  0.5441 -1.2435 -1.7335
  452SOL     OW 1495   1.125   2.742   0.930  0.2948 -0.2057 -0.4369
  452SOL    HW1 1496   1.200   2.684   0.942  0.9532  0.6224 -0.4802
  452SOL    HW2 1497   1.056   2.702   0.983  1.0777 -0.4045  0.4666
  453SOL     OW 1498   2.509   1.100   2.393  0.2659 -0.2208 -0.2662
  453SOL    HW1 1499   2.431   1.149   2.419 -0.3420 -1.6108  0.6678
  453SOL    HW2 1500   2.551   1.154   2.327 -2.1409  0.0254 -1.7021
  454SOL     OW 1501   0.713   0.110   2.142 -0.0370 -0.4120  0.8444
  454SOL    HW1 1502   0.707   0.175   2.211 -0.2269 -0.6405  1.0449
  454SOL    HW2 1503   0.805   0.111   2.115 -0.5006  1.8490 -1.0096
  455SOL     OW 1504   2.062   2.694   3.350  0.1028  0.3117 -0.0339
  455SOL    HW1 1505   2.139   2.675   3.297  0.6378 -1.6934  1.3522
  455SOL    HW2 1506   2.085   2.665   3.438 -1.7556  0.9359  0.7154
  456SOL     OW 1507   2.930   2.007   2.076 -0.4331 -0.3922 -0.4532
  456SOL    HW1 1508   2.957   2.034   1.989  1.1219  0.7737  0.3326
  456SOL    HW2 1509   2.990   1.936   2.099 -1.7977 -1.7326 -0.8685
  457SOL     OW 1510   2.919   2.670   0.329  0.0867 -0.7012  0.0860
  457SOL    HW1 1511   2.842   2.723   0.306 -0.1102 -0.3881  1.4102
  457SOL    HW2 1512   2.888   2.580   0.325  0.0826 -0.6733 -0.9155
  458SOL     OW 1513   1.636   3.617   1.779  0.5675  0.6088 -0.3867
  458SOL    HW1 1514   1.650   3.703   1.739 -1.7703  0.9433 -0.6325
  458SOL    HW2 1515   1.551   3.589   1.746  1.1665 -1.7287 -0.1246
  459SOL     OW 1516   0.002   2.511   3.464  1.2073  1.1728  0.5545
  459SOL    HW1 1517  -0.064   2.489   3.398 -0.2741  1.4144  1.8904
  459SOL    HW2 1518   0.086   2.497   3.420  0.2770  0.7667 -1.1774
  460SOL     OW 1519   1.986   3.107   2.372  0.0210 -0.2853 -0.6751
  460SOL    HW1 1520   1.914   3.163   2.344  1.0070  0.4140 -1.9585
  460SOL    HW2 1521   1.952   3.018   2.367 -1.1435  0.1053  0.0425
  461SOL     OW 1522   0.474   2.659   0.363 -0.0625 -0.0183 -0.2692
  461SOL    HW1 1523   0.492   2.617   0.446  0.7722 -0.3974 -0.6381
  461SOL    HW2 1524   0.409   2.603   0.321 -1.7555  1.0335  0.7978
  462SOL     OW 1525   1.137   2.725   0.322  0.1008  0.2324  0.0764
  462SOL    HW1 1526   1.183   2.651   0.361  2.7034  0.9415 -1.3543
  462SOL    HW2 1527   1.148   2.796   0.385 -0.0775  0.0883  0.2697
  463SOL     OW 1528   1.997   3.404   1.661 -0.7194 -0.0063  0.2362
  463SOL    HW1 1529   2.054   3.479   1.646 -2.7395  1.6494  0.2567
  463SOL    HW2 1530   2.023   3.341   1.594  0.7605  0.8894 -0.0839
  464SOL     OW 1531   2.758   2.553   1.726  0.3435  0.1399 -0.0950
  464SOL    HW1 1532   2.726   2.519   1.810  0.4779 -1.0559 -0.5087
  464SOL    HW2 1533   2.841   2.596   1.748  1.1840 -1.5373  0.1752
  465SOL     OW 1534   3.510   0.526   2.769 -0.2261  0.1460  0.4735
  465SOL    HW1 1535   3.472   0.576   2.842  0.8066 -1.1489  1.9808
  465SOL    HW2 1536   3.582   0.478   2.809  0.8363 -0.0791 -1.5892
  466SOL     OW 1537   3.611   3.208   0.322  1.2216  0.0885 -0.0781
  466SOL    HW1 1538   3.548   3.207   0.394 -0.9276  1.0615 -1.8441
  466SOL    HW2 1539   3.693   3.238   0.363  0.2875 -0.1185  2.0730
  467SOL     OW 1540   0.815   2.390   3.171  0.0229 -0.4392 -0.1403
  467SOL    HW1 1541   0.754   2.426   3.107 -2.0318 -0.2107  1.8048
  467SOL    HW2 1542   0.828   2.299   3.144 -1.3352 -0.5404 -0.5432
  468SOL     OW 1543   1.001   1.765   0.431  0.3175  0.0877 -0.0690
  468SOL    HW1 1544   1.021   1.709   0.355  2.0267  0.7580 -0.1535
  468SOL    HW2 1545   0.912   1.739   0.457  0.6144 -1.8412 -0.8165
  469SOL     OW 1546   0.886   1.652   3.382  0.1472 -0.9605  0.2850
  469SOL    HW1 1547   0.804   1.622   3.344 -0.7100  1.2194  0.2901
  469SOL    HW2 1548   0.945   1.576   3.375 -0.5656 -1.3677 -3.4521
  470SOL     OW 1549   3.097   1.438   2.886  0.6451  0.6714 -0.3772
  470SOL    HW1 1550   3.077   1.532   2.882 -0.7682  0.5896  2.2463
  470SOL    HW2 1551   3.143   1.427   2.969 -0.6175 -1.1238  0.1617
  471SOL     OW 1552   0.660   3.443   2.224  0.0673  0.0905 -0.4517
  471SOL    HW1 1553   0.745   3.437   2.181 -0.3477 -0.3032 -1.2336
  471SOL    HW2 1554   0.624   3.526   2.196  0.7081  0.8620  0.8836
  472SOL     OW 1555   1.625   1.367   0.772  0.3134 -0.3462  0.2950
  472SOL    HW1 1556   1.568   1.439   0.799  1.5296  0.9225 -0.3659
  472SOL    HW2 1557   1.644   1.385   0.679 -1.6160 -3.0949 -0.7818
  473SOL     OW 1558   0.747   3.652   0.811 -0.0248  0.1806 -0.1732
  473SOL    HW1 1559   0.761   3.590   0.739  1.4975 -0.5138  0.6659
  473SOL    HW2 1560   0.716   3.732   0.768 -1.4499 -0.9372 -1.3450
  474SOL     OW 1561   2.029   1.347   3.342 -0.0100  0.0116 -0.3671
  474SOL    HW1 1562   1.964   1.379   3.405 -1.4118  0.2243 -1.8714
  474SOL    HW2 1563   1.984   1.276   3.296  1.9913 -2.1724  0.8081
  475SOL     OW 1564   2.180   0.196   3.420  0.5685  0.1918 -0.3016
  475SOL    HW1 1565   2.131   0.263   3.468 -0.0759 -0.4019 -0.1243
  475SOL    HW2 1566   2.266   0.195   3.463  0.1845  0.0650  0.4782
  476SOL     OW 1567   0.295   2.553   0.198 -0.4176 -0.3977 -0.2287
  476SOL    HW1 1568   0.212   2.594   0.175 -0.0090 -0.5750 -2.1683
  476SOL    HW2 1569   0.295   2.471   0.149  0.5162 -0.8359  0.4744
  477SOL     OW 1570   0.926   0.494   0.792  0.4761  0.3773  0.5016
  477SOL    HW1 1571   0.951   0.435   0.864  1.0579 -0.9319 -0.7182
  477SOL    HW2 1572   0.973   0.575   0.811  2.0247 -0.5220  0.7173
  478SOL     OW 1573   3.498   2.314   2.694  0.2338  0.0483  0.6263
  478SOL    HW1 1574   3.585   2.275   2.691 -0.9008 -2.7980  1.1189
  478SOL    HW2 1575   3.479   2.325   2.787 -0.6758 -1.3955  0.6548
  479SOL     OW 1576   0.711   2.740   0.273 -0.7692  0.1425 -0.3810
  479SOL    HW1 1577   0.690   2.832   0.262 -2.3365 -0.4169 -2.6253
  479SOL    HW2 1578   0.628   2.699   0.297 -0.3143 -0.8386 -0.4358
  480SOL     OW 1579   3.173   0.683   2.500  0.3832 -0.3159 -0.1204
  480SOL    HW1 1580   3.196   0.775   2.514  0.9325 -0.3694 -0.6309
  480SOL    HW2 1581   3.254   0.636   2.517 -0.6044 -1.0729  3.3759
  481SOL     OW 1582   0.587   3.169   3.050 -0.3717  0.1710  0.3693
  481SOL    HW1 1583   0.540   3.097   3.008  2.7266 -0.5850 -2.1911
  481SOL    HW2 1584   0.535   3.247   3.028 -2.3708 -0.9216  0.9406
  482SOL     OW 1585   2.331   3.721   0.806 -0.2326  0.5357 -0.0182
  482SOL    HW1 1586   2.251   3.750   0.851  0.6368  0.5082  1.6345
  482SOL    HW2 1587   2.364   3.650   0.862 -0.0082 -0.7005 -1.6554
  483SOL     OW 1588   3.674   3.654   3.640  0.0008 -0.4068 -0.3674
  483SOL    HW1 1589   3.761   3.652   3.600  0.1655 -2.9926 -0.0355
  483SOL    HW2 1590   3.617   3.610   3.576 -0.5257 -1.0083  0.4954
  484SOL     OW 1591   1.437   0.684   2.907 -0.5310  0.0668  0.2993
  484SOL    HW1 1592   1.485   0.712   2.985  0.1352 -0.9951  0.3058
  484SOL    HW2 1593   1.499   0.697   2.836 -1.9113  3.2618 -0.4976
  485SOL     OW 1594   2.354   1.043   1.720  0.1862 -0.0358  0.6637
  485SOL    HW1 1595   2.395   1.052   1.634 -1.0064 -3.0025 -0.3412
  485SOL    HW2 1596   2.314   1.128   1.737  1.2031  0.8952 -1.2730
  486SOL     OW 1597   2.751   3.102   0.505  0.6447  0.4780  0.3780
  486SOL    HW1 1598   2.721   3.012   0.507  2.3898 -0.1440  0.1660
  486SOL    HW2 1599   2.728   3.134   0.418 -0.3420  0.4037  0.5932
  487SOL     OW 1600   0.689   1.546   1.856 -0.0174  0.4100 -0.2236
  487SOL    HW1 1601   0.710   1.486   1.785  2.3592 -0.0673  0.7795
  487SOL    HW2 1602   0.746   1.622   1.842 -1.3561  1.4463 -0.2213
  488SOL     OW 1603   0.842   2.146   3.009 -0.3427 -0.2362  0.3593
  488SOL    HW1 1604   0.764   2.092   3.023  0.0287 -0.6649  0.8397
  488SOL    HW2 1605   0.819   2.202   2.935 -0.6953 -1.1551 -0.2537
  489SOL     OW 1606   2.742   2.300   3.650  0.3447  0.0195  0.3070
  489SOL    HW1 1607   2.765   2.254   3.732  0.2624 -0.6545 -0.0371
  489SOL    HW2 1608   2.737   2.392   3.675  0.7095 -0.1312  0.9826
  490SOL     OW 1609   2.051   0.954   1.031 -0.0674 -0.1600  0.0062
  490SOL    HW1 1610   2.027   0.903   0.954  0.6628 -1.9097  0.8926
  490SOL    HW2 1611   2.142   0.930   1.048 -0.8542 -1.5648  2.6844
  491SOL     OW 1612   3.517   0.896   0.020 -0.0582 -0.1381 -0.7681
  491SOL    HW1 1613   3.448   0.963   0.019 -0.1728 -0.1307  1.8174
  491SOL    HW2 1614   3.477   0.822   0.065  1.5505 -0.1972  0.6302
  492SOL     OW 1615   0.772   3.685   1.237 -0.9994 -0.6221 -0.2614
  492SOL    HW1 1616   0.700   3.697   1.176 -1.1292 -0.3328 -0.0521
  492SOL    HW2 1617   0.730   3.658   1.319 -0.9570  0.4517  0.1323
  493SOL     OW 1618   1.753   0.630   1.309  0.3033  0.8589 -0.4836
  493SOL    HW1 1619   1.791   0.549   1.276  0.6221  0.3783  0.9745
  493SOL    HW2 1620   1.811   0.655   1.381 -1.0587  1.1446  0.5505
  494SOL     OW 1621   1.355   1.242   3.596  0.2576  0.0973  0.5098
  494SOL    HW1 1622   1.386   1.153   3.608 -0.0926 -0.0677  0.2026
  494SOL    HW2 1623   1.259   1.235   3.594  0.0769  0.8250  3.3211
  495SOL     OW 1624   0.792   1.366   2.637 -0.3802  0.3800 -0.1768
  495SOL    HW1 1625   0.697   1.372   2.633 -0.4165  0.5088  0.7125
  495SOL    HW2 1626   0.817   1.426   2.706  0.2524 -0.5095  0.3854
  496SOL     OW 1627   1.854   0.156   0.611 -0.2684  0.5704  0.2732
  496SOL    HW1 1628   1.947   0.155   0.589  0.3318 -2.3195  2.3195
  496SOL    HW2 1629   1.824   0.067   0.592 -1.9034  0.6569  2.1376
  497SOL     OW 1630   1.438   3.583   2.837  0.4374 -0.0503 -0.0173
  497SOL    HW1 1631   1.496   3.629   2.898 -0.2427  1.1846 -0.2640
  497SOL    HW2 1632   1.350   3.613   2.860 -0.0302 -1.1518 -0.2830
  498SOL     OW 1633   0.699   0.551   0.661 -0.1304  0.7039  0.9565
  498SOL    HW1 1634   0.769   0.527   0.722 -0.9383  0.8601  1.9791
  498SOL    HW2 1635   0.620   0.510   0.698 -0.2657 -1.3124 -1.3301
  499SOL     OW 1636   1.556   3.237   2.971  0.3512 -0.1265  0.2353
  499SOL    HW1 1637   1.536   3.313   3.026 -1.2342 -1.7231  2.0239
  499SOL    HW2 1638   1.587   3.171   3.033 -2.1299 -2.2447 -0.6167
  500SOL     OW 1639   2.971   1.297   2.699 -0.1754 -0.0078 -0.3071
  500SOL    HW1 1640   2.988   1.348   2.778  1.1720 -1.2845  0.2724
  500SOL    HW2 1641   2.880   1.315   2.678 -1.3826 -1.4973  2.9585
  501SOL     OW 1642   0.232   1.176   3.742 -0.2668 -0.0916  0.1410
  501SOL    HW1 1643   0.283   1.097   3.760 -0.1763  0.3213  1.8867
  501SOL    HW2 1644   0.285   1.225   3.680  0.5493 -0.5562  0.4539
  502SOL     OW 1645   2.123   0.668   1.319 -0.0405  0.5067 -0.0968
  502SOL    HW1 1646   2.108   0.754   1.280  0.7468  0.9503  0.5582
  502SOL    HW2 1647   2.163   0.687   1.404  0.7729 -0.5277 -0.2403
  503SOL     OW 1648   1.312   2.430   2.824  0.1911 -0.2901 -0.1929
  503SOL    HW1 1649   1.326   2.341   2.790 -1.0351  0.1032 -1.8594
  503SOL    HW2 1650   1.400   2.464   2.840  0.8156 -0.8277 -2.2371
  504SOL     OW 1651   2.374   3.045   1.794 -0.1339  0.4864 -0.4100
  504SOL    HW1 1652   2.384   2.985   1.868 -1.9985 -1.6749 -1.7787
  504SOL    HW2 1653   2.310   3.109   1.825 -1.4405 -0.8069 -0.3163
  505SOL     OW 1654   1.566   0.246   3.153 -0.0758  0.3930  0.0757
  505SOL    HW1 1655   1.582   0.188   3.078 -0.0929 -0.9058  1.0255
  505SOL    HW2 1656   1.613   0.204   3.225 -1.3425  0.7416  1.1395
  506SOL     OW 1657   1.063   0.301   0.929 -0.1299 -0.3158 -0.1271
  506SOL    HW1 1658   1.146   0.348   0.921  0.2201 -1.0634 -1.0298
  506SOL    HW2 1659   1.044   0.303   1.023  0.6244  0.3309  0.0277
  507SOL     OW 1660   3.714   0.269   1.598  0.5202 -0.1088 -0.2819
  507SOL    HW1 1661   3.711   0.184   1.642 -0.5483  0.3444  0.5791
  507SOL    HW2 1662   3.711   0.248   1.505  0.8619 -1.0305 -0.0989
  508SOL     OW 1663   3.563   3.102   3.557 -0.4030 -0.1238  0.8608
  508SOL    HW1 1664   3.567   3.172   3.622  1.1371  1.5530 -0.9253
  508SOL    HW2 1665   3.650   3.063   3.558 -0.7120 -0.8371  0.5882
  509SOL     OW 1666   3.514   1.860   0.044  0.7497 -0.1359  0.4467
  509SOL    HW1 1667   3.569   1.818   0.110  1.8280 -0.8441 -0.8464
  509SOL    HW2 1668   3.530   1.810  -0.036 -0.1850  0.9565 -0.4685
  510SOL     OW 1669   1.919   0.905   2.117 -0.6393  0.1250 -0.0522
  510SOL    HW1 1670   1.874   0.833   2.161 -0.2067 -0.8116 -1.0989
  510SOL    HW2 1671   1.886   0.904   2.028 -0.9374  1.5112  0.0271
  511SOL     OW 1672   1.880   0.189   2.609 -0.2453  0.1106 -0.0572
  511SOL    HW1 1673   1.808   0.140   2.649 -1.5151 -0.1631 -2.4721
  511SOL    HW2 1674   1.840   0.234   2.535  1.9857  0.3950 -1.1771
  512SOL     OW 1675   2.326   3.110   0.110  0.0908  0.0882  0.4046
  512SOL    HW1 1676   2.348   3.173   0.179 -0.3871  0.4809  0.2144
  512SOL    HW2 1677   2.271   3.045   0.154  1.1247 -0.5774  0.7500
  513SOL     OW 1678   0.912   2.688   1.092  0.7180 -0.1820  0.4641
  513SOL    HW1 1679   0.823   2.660   1.069 -0.3216  2.3082  1.1405
  513SOL    HW2 1680   0.919   2.672   1.186  0.2577  1.2947  0.7790
  514SOL     OW 1681   0.474   2.466   3.597  0.1223 -0.2758  0.2603
  514SOL    HW1 1682   0.461   2.553   3.634 -1.4598  0.2363 -1.3879
  514SOL    HW2 1683   0.491   2.482   3.504 -1.0579 -1.7408 -0.2458
  515SOL     OW 1684   2.835   2.021   0.071 -0.3703  0.3770  0.0038
  515SOL    HW1 1685   2.867   1.999  -0.016  2.2037  1.0311  0.7044
  515SOL    HW2 1686   2.899   2.084   0.105 -2.0184  1.1438  1.8757
  516SOL     OW 1687   1.037   0.513   2.354 -0.1098  0.3246  0.6345
  516SOL    HW1 1688   1.119   0.538   2.312 -0.4618  1.5796  0.6737
  516SOL    HW2 1689   1.048   0.538   2.446  0.0237 -0.8913  0.9688
  517SOL     OW 1690   1.722   3.456   0.284  0.2459  0.0041  0.2179
  517SOL    HW1 1691   1.730   3.477   0.191 -0.3952 -0.2948  0.0840
  517SOL    HW2 1692   1.633   3.420   0.292  0.3184 -0.0253  0.9344
  518SOL     OW 1693   0.647   1.366   3.427 -0.2792  0.1292  0.1411
  518SOL    HW1 1694   0.598   1.423   3.487  1.2410  2.6256 -0.8350
  518SOL    HW2 1695   0.634   1.405   3.341  2.7193  0.4763 -0.2611
  519SOL     OW 1696   3.265   2.205   1.690 -0.0997  0.5231 -0.5232
  519SOL    HW1 1697   3.171   2.221   1.697 -0.3704 -0.9249 -0.3579
  519SOL    HW2 1698   3.272   2.137   1.622  0.8736  0.9708 -0.8891
  520SOL     OW 1699   2.340   2.211   2.256 -0.0131 -0.2653  0.1566
  520SOL    HW1 1700   2.326   2.155   2.179  1.4204  0.6970 -0.8761
  520SOL    HW2 1701   2.436   2.216   2.264  0.0346  3.1035 -0.7185
  521SOL     OW 1702   1.838   0.088   0.876  0.7533 -0.6424  0.4677
  521SOL    HW1 1703   1.828   0.116   0.785  2.8845 -0.7370  0.1509
  521SOL    HW2 1704   1.753   0.104   0.915 -0.4270 -1.1912 -1.6908
  522SOL     OW 1705   2.255   1.906   0.989  0.0252  0.4392 -0.4519
  522SOL    HW1 1706   2.294   1.864   0.912  0.2396  1.6443 -1.0279
  522SOL    HW2 1707   2.324   1.902   1.055  0.6883  1.4327 -1.0618
  523SOL     OW 1708   1.700   3.654   3.329 -0.2575 -0.5256 -0.0110
  523SOL    HW1 1709   1.754   3.584   3.293  1.1033  0.0452  0.8656
  523SOL    HW2 1710   1.642   3.609   3.391  0.5401 -0.9143  0.4805
  524SOL     OW 1711   3.129   0.171   0.310 -0.2821 -0.1546 -0.4503
  524SOL    HW1 1712   3.212   0.205   0.343  0.0669  1.8520 -3.0114
  524SOL    HW2 1713   3.070   0.246   0.311 -1.5612 -1.1298 -0.2299
  525SOL     OW 1714   1.340   1.630   2.651 -0.1145  0.1514 -0.7576
  525SOL    HW1 1715   1.252   1.594   2.644 -0.8451  1.3891  1.0414
  525SOL    HW2 1716   1.376   1.591   2.730  2.0191 -2.2757 -2.7539
  526SOL     OW 1717   1.855   1.545   2.141 -0.2570  0.4227  0.0424
  526SOL    HW1 1718   1.834   1.456   2.113 -0.9573  0.4777  0.3710
  526SOL    HW2 1719   1.935   1.535   2.192 -0.1653  0.0240 -0.1707
  527SOL     OW 1720   0.650   2.519   3.011 -0.6500 -0.3594 -0.5765
  527SOL    HW1 1721   0.622   2.606   3.041  0.2066 -0.4119  0.4587
  527SOL    HW2 1722   0.649   2.524   2.916  2.6147  1.9411 -0.6683
  528SOL     OW 1723   2.648   2.920   3.530 -0.7229 -0.2298  0.5759
  528SOL    HW1 1724   2.714   2.965   3.583  0.0093  0.1889 -0.6613
  528SOL    HW2 1725   2.577   2.984   3.521 -0.0844  0.3704 -0.3989
  529SOL     OW 1726   2.569   0.700   3.575 -0.6392 -0.0586 -0.2846
  529SOL    HW1 1727   2.522   0.783   3.564  1.2389  1.5072  2.3804
  529SOL    HW2 1728   2.500   0.635   3.588 -2.1438  1.2644 -1.2746
  530SOL     OW 1729   1.663   1.449   0.051 -0.2743  0.1541 -0.5866
  530SOL    HW1 1730   1.722   1.433   0.124 -1.2728 -0.2660  0.1463
  530SOL    HW2 1731   1.583   1.484   0.091 -1.1910 -0.9751 -1.3445
  531SOL     OW 1732   3.150   0.924   3.688 -0.5119 -0.0076  0.1574
  531SOL    HW1 1733   3.192   0.896   3.770 -1.5005 -0.4242  0.5411
  531SOL    HW2 1734   3.093   0.996   3.714 -0.5951  0.0629 -0.2178
  532SOL     OW 1735   0.747   0.504   2.548  0.0511 -0.0056  0.8107
  532SOL    HW1 1736   0.839   0.498   2.570  0.3071 -3.0032 -0.5462
  532SOL    HW2 1737   0.742   0.571   2.479  2.0701 -2.7232 -2.2826
  533SOL     OW 1738   0.315   3.357   1.986 -0.2449 -0.1924 -0.1398
  533SOL    HW1 1739   0.302   3.323   1.898 -1.1483  0.8498 -0.4271
  533SOL    HW2 1740   0.368   3.290   2.030 -0.9213 -1.3628 -1.0445
  534SOL     OW 1741   2.825   0.624   3.478  0.1435  0.1781 -0.4784
  534SOL    HW1 1742   2.740   0.653   3.510  0.3298 -0.0046  0.1881
  534SOL    HW2 1743   2.878   0.704   3.473  0.2318  0.1563  0.0457
  535SOL     OW 1744   3.149   1.860   2.178  0.1462 -0.0204  0.3330
  535SOL    HW1 1745   3.226   1.912   2.155 -0.8044  1.4948  0.4432
  535SOL    HW2 1746   3.122   1.893   2.263 -1.5586  0.6303 -0.4058
  536SOL     OW 1747   1.712   1.529   1.531  0.5984  0.2059 -0.3442
  536SOL    HW1 1748   1.657   1.456   1.505 -0.8755  1.4054 -0.7193
  536SOL    HW2 1749   1.801   1.494   1.529 -0.1117 -1.7146  0.0477
  537SOL     OW 1750   0.566   0.167   0.705  0.1082  0.1397  0.3190
  537SOL    HW1 1751   0.540   0.208   0.787  0.1764  0.6715  0.0793
  537SOL    HW2 1752   0.496   0.190   0.644  0.1835 -0.0380  0.1646
  538SOL     OW 1753   1.992   3.209   0.136 -0.4715 -0.5297 -0.0885
  538SOL    HW1 1754   2.008   3.220   0.230  2.7649 -1.4258 -0.4163
  538SOL    HW2 1755   2.022   3.120   0.117  1.1982  0.4070 -2.3044
  539SOL     OW 1756   0.679   1.908   1.322  0.2174  0.4459 -0.1589
  539SOL    HW1 1757   0.657   1.987   1.373  4.6695  1.2251  1.0213
  539SOL    HW2 1758   0.680   1.938   1.231 -0.8578  0.9783 -0.0134
  540SOL     OW 1759   1.819   2.527   3.564  0.1364 -1.0402  0.0794
  540SOL    HW1 1760   1.913   2.542   3.571  0.1377 -1.1939  0.4138
  540SOL    HW2 1761   1.801   2.456   3.626 -0.8226  1.5898  3.1102
  541SOL     OW 1762   1.032   3.183   2.380 -0.2135  0.3309  0.3326
  541SOL    HW1 1763   1.073   3.118   2.323 -0.3543  0.5610 -0.0344
  541SOL    HW2 1764   0.939   3.159   2.381 -0.8265  2.2324 -2.1928
  542SOL     OW 1765   1.048   1.984   2.626 -0.1534 -0.1634  0.0114
  542SOL    HW1 1766   1.043   2.080   2.630 -2.6414 -0.2733  1.3346
  542SOL    HW2 1767   1.118   1.967   2.563  0.7959  2.5095  0.2007
  543SOL     OW 1768   1.520   2.525   3.633  0.1686  1.0663  0.2114
  543SOL    HW1 1769   1.469   2.553   3.558  1.5307  3.2561  0.0251
  543SOL    HW2 1770   1.611   2.544   3.609  0.8338 -0.1106  1.6143
  544SOL     OW 1771   1.541   3.400   3.198  0.1323  0.5518  0.4118
  544SOL    HW1 1772   1.585   3.341   3.259  0.6201 -0.2533 -0.6993
  544SOL    HW2 1773   1.609   3.461   3.170  0.0723  0.5016  0.1590
  545SOL     OW 1774   1.174   0.387   1.986 -0.4041 -0.3446 -0.1268
  545SOL    HW1 1775   1.116   0.419   2.055 -0.4393 -1.6608  0.4809
  545SOL    HW2 1776   1.253   0.358   2.032  0.1471  0.0562 -0.7964
  546SOL     OW 1777   0.322   1.957   3.344  0.2531 -0.5224  0.0380
  546SOL    HW1 1778   0.228   1.956   3.364  0.4704 -0.8711  1.1162
  546SOL    HW2 1779   0.347   2.049   3.353 -0.3764 -0.0702 -2.3144
  547SOL     OW 1780   1.187   2.270   3.271 -0.7835 -0.6872 -0.2944
  547SOL    HW1 1781   1.188   2.316   3.187 -0.1268  0.3280  0.2485
  547SOL    HW2 1782   1.108   2.216   3.268 -0.9746 -0.3623 -1.4064
  548SOL     OW 1783   2.987   1.700   1.917 -0.4951 -0.0462 -0.5358
  548SOL    HW1 1784   2.946   1.618   1.892 -0.1016 -0.6748  0.8031
  548SOL    HW2 1785   2.995   1.696   2.012 -1.9152  2.2295 -0.2280
  549SOL     OW 1786   1.279   3.223   1.632  0.4506  0.3072 -0.0599
  549SOL    HW1 1787   1.223   3.150   1.657  0.5821 -0.4969 -1.9349
  549SOL    HW2 1788   1.232   3.301   1.661 -0.6844 -0.4279  0.1338
  550SOL     OW 1789   2.657   3.273   2.582  0.0901 -0.0652  0.1190
  550SOL    HW1 1790   2.741   3.235   2.555  0.6334  0.2265  1.3614
  550SOL    HW2 1791   2.654   3.260   2.676 -1.8383 -1.1799 -0.0516
  551SOL     OW 1792   2.468   2.666   1.165 -0.1647  0.2851 -0.1344
  551SOL    HW1 1793   2.554   2.695   1.194 -0.1335  0.6731 -0.5930
  551SOL    HW2 1794   2.454   2.712   1.081 -0.6094 -0.1396 -0.3005
  552SOL     OW 1795   3.480   0.264   1.114  0.3744 -0.6298  0.1765
  552SOL    HW1 1796   3.426   0.310   1.179  0.3851 -1.0339  0.4757
  552SOL    HW2 1797   3.498   0.179   1.154  1.0173 -0.6000 -0.0290
  553SOL     OW 1798   0.424   0.213   1.597  0.5525 -0.4838 -0.0337
  553SOL    HW1 1799   0.343   0.183   1.557  1.5807 -2.8936 -0.5012
  553SOL    HW2 1800   0.401   0.295   1.641 -1.3306  0.6892 -2.9314
  554SOL     OW 1801   2.952   3.236   3.367 -0.2227 -0.1602  0.2325
  554SOL    HW1 1802   2.872   3.244   3.419  1.4449 -2.6735  3.5787
  554SOL    HW2 1803   2.944   3.151   3.323  1.0320 -1.0489  1.6257
  555SOL     OW 1804   3.465   0.371   0.847  0.0189 -0.2465 -0.7151
  555SOL    HW1 1805   3.450   0.292   0.796  1.9802 -1.0107 -0.2191
  555SOL    HW2 1806   3.481   0.340   0.936 -0.5675  0.8389 -0.2034
  556SOL     OW 1807   2.778   0.445   1.057 -0.3879  0.2585  0.2387
  556SOL    HW1 1808   2.745   0.355   1.060  0.9751 -0.5801 -3.8006
  556SOL    HW2 1809   2.870   0.438   1.082 -0.8923  1.0890  2.5697
  557SOL     OW 1810   0.609   2.451   0.520 -0.3572  0.0787  0.0969
  557SOL    HW1 1811   0.607   2.355   0.522  1.1357 -0.1570 -3.1193
  557SOL    HW2 1812   0.661   2.475   0.597  0.1074 -1.7531  0.4112
  558SOL     OW 1813   2.943   0.204   3.606  0.1432 -0.4073 -1.0628
  558SOL    HW1 1814   3.025   0.224   3.652 -1.9525  0.8169  2.6028
  558SOL    HW2 1815   2.954   0.241   3.519  2.4964  2.3015  0.2293
  559SOL     OW 1816   0.644   1.208   2.843 -0.2094 -0.3963  0.0763
  559SOL    HW1 1817   0.575   1.171   2.787 -0.7572  1.5470 -0.6172
  559SOL    HW2 1818   0.719   1.217   2.784 -0.3527  0.3755  0.0094
  560SOL     OW 1819   1.652   2.193   3.432 -0.0360  0.3420  0.4525
  560SOL    HW1 1820   1.665   2.234   3.346 -2.8936  0.9684  0.2240
  560SOL    HW2 1821   1.728   2.135   3.443  1.1085  1.2780 -1.8490
  561SOL     OW 1822   2.328   3.688   2.962  0.3247 -0.1801  0.2321
  561SOL    HW1 1823   2.414   3.697   3.003  0.0563  0.6628  0.6407
  561SOL    HW2 1824   2.337   3.614   2.902  1.9070  1.0847 -1.2013
  562SOL     OW 1825   2.736   0.681   2.463  0.1531 -0.0046 -0.0601
  562SOL    HW1 1826   2.696   0.761   2.431 -3.8275 -1.1448  1.4741
  562SOL    HW2 1827   2.718   0.680   2.557  0.2655 -2.5228  0.0179
  563SOL     OW 1828   2.149   1.876   3.642 -0.4672 -0.2328  0.9989
  563SOL    HW1 1829   2.193   1.813   3.698  1.2832 -0.4212 -0.5050
  563SOL    HW2 1830   2.101   1.822   3.579  0.4437 -0.0949  0.1624
  564SOL     OW 1831   2.338   2.614   0.139  0.5195 -0.1453  0.0173
  564SOL    HW1 1832   2.340   2.662   0.222  2.2070  1.1664 -0.7358
  564SOL    HW2 1833   2.264   2.554   0.148 -0.9117  1.7345  1.4817
  565SOL     OW 1834   0.138   1.673   2.820  0.4814 -0.3731 -0.1812
  565SOL    HW1 1835   0.052   1.714   2.829  1.3028  0.9719  2.9194
  565SOL    HW2 1836   0.141   1.609   2.892  2.8584  1.3598  1.4112
  566SOL     OW 1837   1.361   2.802   1.423  0.5149  0.4397 -0.0579
  566SOL    HW1 1838   1.298   2.761   1.482 -1.4016  0.0072 -2.2727
  566SOL    HW2 1839   1.402   2.871   1.476 -2.4145  1.2882  1.3112
  567SOL     OW 1840   1.965   0.138   1.559 -0.5042  0.0188 -0.1803
  567SOL    HW1 1841   2.022   0.123   1.484  0.9666  0.4268  0.8166
  567SOL    HW2 1842   1.948   0.051   1.595 -0.4870 -0.0969 -0.4518
  568SOL     OW 1843   1.056   0.800   0.635 -0.2776  1.0810  0.2715
  568SOL    HW1 1844   0.968   0.796   0.672 -0.9298 -0.7680 -1.2857
  568SOL    HW2 1845   1.041   0.811   0.541  1.1478  0.8445  0.0027
  569SOL     OW 1846   1.555   3.521   3.523 -0.3225 -0.1090  0.2733
  569SOL    HW1 1847   1.471   3.550   3.556  0.4582  1.0705  1.3167
  569SOL    HW2 1848   1.564   3.431   3.553 -0.7391  0.1200  1.0965
  570SOL     OW 1849   1.356   0.741   0.307 -0.3209  0.1371  0.4951
  570SOL    HW1 1850   1.293   0.673   0.331 -0.6627 -0.0196 -0.7532
  570SOL    HW2 1851   1.307   0.823   0.317 -0.8611 -0.0033 -0.7776
  571SOL     OW 1852   2.892   1.186   0.890 -0.0920  0.3575  0.1985
  571SOL    HW1 1853   2.847   1.106   0.863  1.0314 -0.6981  1.3358
  571SOL    HW2 1854   2.982   1.158   0.909  0.1616  1.7717  1.2211
  572SOL     OW 1855   1.670   1.920   0.325 -0.0366 -0.2691  0.3204
  572SOL    HW1 1856   1.710   2.007   0.332 -1.6628  0.6252 -0.8294
  572SOL    HW2 1857   1.743   1.861   0.311  1.1417  0.8484  1.4620
  573SOL     OW 1858   2.273   1.143   2.589 -0.5514  0.0594 -0.5635
  573SOL    HW1 1859   2.326   1.166   2.665  0.8964 -0.2550 -1.4406
  573SOL    HW2 1860   2.225   1.064   2.616 -0.5733  0.3372  0.2358
  574SOL     OW 1861   0.427   2.950   1.172  0.6109 -1.0257 -0.2009
  574SOL    HW1 1862   0.341   2.939   1.131  0.2201  1.1902 -0.1147
  574SOL    HW2 1863   0.490   2.926   1.104 -0.0531 -0.6935 -0.9491
  575SOL     OW 1864   0.787   2.576   0.719  0.2454 -0.0841 -0.5992
  575SOL    HW1 1865   0.803   2.633   0.794  1.7080 -0.0666 -0.8787
  575SOL    HW2 1866   0.758   2.636   0.649 -0.0901  0.0498 -0.3433
  576SOL     OW 1867   2.412   1.914   1.369  0.0627  0.2214  0.9518
  576SOL    HW1 1868   2.367   1.937   1.450 -5.0191  0.5876 -1.5706
  576SOL    HW2 1869   2.416   1.819   1.370 -0.7912  0.1796  1.2948
  577SOL     OW 1870   0.278   0.379   3.670 -0.3969  0.2343  0.1632
  577SOL    HW1 1871   0.318   0.457   3.708  0.7585  0.4557 -1.3941
  577SOL    HW2 1872   0.313   0.375   3.581 -2.5100 -0.5708 -0.7100
  578SOL     OW 1873   1.548   0.431   2.774 -0.5249  0.3286  0.4816
  578SOL    HW1 1874   1.624   0.447   2.829  0.4927  0.1635 -0.8198
  578SOL    HW2 1875   1.475   0.426   2.835  0.6518 -0.6269  1.8732
  579SOL     OW 1876   2.707   3.632   3.507  0.1438  0.0992  0.0997
  579SOL    HW1 1877   2.775   3.596   3.564  1.2288  2.6870  0.5926
  579SOL    HW2 1878   2.751   3.702   3.459 -1.3293 -0.5123 -2.2925
  580SOL     OW 1879   3.392   2.587   2.932 -0.0046  0.3881 -0.3126
  580SOL    HW1 1880   3.378   2.652   2.862 -0.6245  1.1174  0.4715
  580SOL    HW2 1881   3.347   2.623   3.008 -0.4241 -1.0130  0.1281
  581SOL     OW 1882   3.493   0.605   3.679 -0.2747 -0.4329  0.6904
  581SOL    HW1 1883   3.533   0.596   3.592 -0.1523  0.4332  0.6524
  581SOL    HW2 1884   3.565   0.585   3.740 -0.3223 -0.8928  0.6035
  582SOL     OW 1885   1.499   0.049   1.188  0.0886 -0.3180 -0.1743
  582SOL    HW1 1886   1.537  -0.035   1.214 -0.8018 -0.8750 -0.6046
  582SOL    HW2 1887   1.452   0.079   1.265 -2.0267 -1.6623 -0.8442
  583SOL     OW 1888   1.899   0.355   3.140 -0.4463 -0.0195 -0.2543
  583SOL    HW1 1889   1.837   0.322   3.075 -0.6880  2.6196 -1.4695
  583SOL    HW2 1890   1.977   0.300   3.129 -0.3209  0.6043 -3.1398
  584SOL     OW 1891   2.748   0.637   0.090 -0.1106 -0.2819 -0.2596
  584SOL    HW1 1892   2.684   0.619   0.021 -1.0908 -0.3153  0.6202
  584SOL    HW2 1893   2.833   0.615   0.052 -0.5378  0.4728 -1.7193
  585SOL     OW 1894   2.842   1.556   3.460  0.0339 -0.0301  0.0776
  585SOL    HW1 1895   2.934   1.556   3.432 -0.1585  0.5649 -0.5778
  585SOL    HW2 1896   2.832   1.472   3.506  1.0899  0.2118  0.8109
  586SOL     OW 1897   2.048   3.709   0.518 -0.1024 -0.2990  0.1680
  586SOL    HW1 1898   2.007   3.629   0.485  0.6194 -0.9877  0.8801
  586SOL    HW2 1899   2.116   3.678   0.578  0.0947  0.8592  0.5727
  587SOL     OW 1900   2.017   0.369   3.548  0.3471  0.1120  0.4922
  587SOL    HW1 1901   2.041   0.461   3.561  1.7069  0.0142 -1.0577
  587SOL    HW2 1902   1.930   0.362   3.586 -0.7455  2.6022 -1.2804
  588SOL     OW 1903   0.245   1.724   3.202  0.2703 -0.4946  0.2910
  588SOL    HW1 1904   0.286   1.804   3.235  1.5638 -2.1522  3.0851
  588SOL    HW2 1905   0.151   1.738   3.214  0.2766  1.3713 -1.3206
  589SOL     OW 1906   3.574   0.650   1.076  0.2759 -0.0979 -0.3565
  589SOL    HW1 1907   3.497   0.618   1.029 -1.1319  2.4828  0.0251
  589SOL    HW2 1908   3.550   0.643   1.168  0.3110  1.1140 -0.2486
  590SOL     OW 1909   2.446   1.625   0.762  0.1069  0.6327  0.0613
  590SOL    HW1 1910   2.479   1.536   0.749 -1.8920 -0.1704  0.1341
  590SOL    HW2 1911   2.399   1.621   0.845 -0.8068  1.5052 -0.3985
  591SOL     OW 1912   2.731   1.259   3.404  0.1113  0.0974  0.3606
  591SOL    HW1 1913   2.669   1.197   3.444 -0.7743 -0.0848 -1.2294
  591SOL    HW2 1914   2.751   1.221   3.319 -0.5971  2.0629 -0.7346
  592SOL     OW 1915   1.302   0.522   3.381  0.7219 -0.2946  0.2014
  592SOL    HW1 1916   1.306   0.534   3.286 -2.6989  1.1929  0.0947
  592SOL    HW2 1917   1.241   0.450   3.394 -0.6735  1.0183  1.2488
  593SOL     OW 1918   2.509   3.588   2.146 -0.1716  0.0113  0.4762
  593SOL    HW1 1919   2.466   3.633   2.219 -1.1302  1.0401 -0.6872
  593SOL    HW2 1920   2.549   3.658   2.094 -0.4757 -0.5983 -0.6096
  594SOL     OW 1921   1.635   3.241   0.458  0.0477  0.5071  0.1600
  594SOL    HW1 1922   1.712   3.265   0.508  0.5010 -1.0242  0.2262
  594SOL    HW2 1923   1.667   3.182   0.390 -1.1705 -0.8635  0.7212
  595SOL     OW 1924   2.309   2.910   0.508  0.3556 -0.2231 -0.0896
  595SOL    HW1 1925   2.309   2.818   0.483 -1.0840 -0.9818  2.3235
  595SOL    HW2 1926   2.216   2.930   0.522  0.6483  1.6067 -0.5413
  596SOL     OW 1927   3.117   2.470   0.979  0.1377  0.6581  0.1448
  596SOL    HW1 1928   3.171   2.481   0.900  1.2381 -0.3893  0.7230
  596SOL    HW2 1929   3.105   2.559   1.012  0.7621  0.9928 -0.4964
  597SOL     OW 1930   3.348   1.906   3.274  0.5832  0.1330  0.0344
  597SOL    HW1 1931   3.387   1.861   3.349  0.7697  1.1900  0.5929
  597SOL    HW2 1932   3.405   1.982   3.259 -0.5836  1.0601  0.1208
  598SOL     OW 1933   1.667   0.459   1.967  0.8277  0.5966 -0.1273
  598SOL    HW1 1934   1.741   0.515   1.994  0.4019  1.1296 -0.0351
  598SOL    HW2 1935   1.698   0.370   1.980  1.3965  0.8191  0.0777
  599SOL     OW 1936   0.832   0.978   1.824  0.3523 -0.2552  0.1711
  599SOL    HW1 1937   0.816   1.065   1.786 -1.1878 -1.1112 -1.2983
  599SOL    HW2 1938   0.915   0.949   1.786 -0.0037 -0.1275 -0.7256
  600SOL     OW 1939   1.653   1.335   1.061 -0.2389  0.5590 -0.4157
  600SOL    HW1 1940   1.686   1.256   1.018 -0.2104 -1.1738  2.4749
  600SOL    HW2 1941   1.587   1.302   1.122  0.6942  2.5735  1.8232
  601SOL     OW 1942   2.269   1.666   0.145 -0.1527  0.7597  0.8530
  601SOL    HW1 1943   2.363   1.670   0.128 -0.2022 -0.7921 -0.0351
  601SOL    HW2 1944   2.262   1.618   0.227 -0.1718  0.8906  0.9280
  602SOL     OW 1945   2.878   2.396   3.421 -0.2554 -0.0828 -0.5121
  602SOL    HW1 1946   2.823   2.325   3.454 -0.6981  1.3260  2.0165
  602SOL    HW2 1947   2.944   2.409   3.489  1.5354  0.1440 -2.1977
  603SOL     OW 1948   0.882   0.828   2.590  0.2379 -0.3151 -0.4187
  603SOL    HW1 1949   0.920   0.812   2.503  2.6949 -2.9138  0.9475
  603SOL    HW2 1950   0.952   0.870   2.639 -1.1582  1.2204  0.3406
  604SOL     OW 1951   2.555   3.440   3.193 -0.2270 -0.5591 -0.2433
  604SOL    HW1 1952   2.470   3.405   3.221 -0.8145  0.6071 -0.4965
  604SOL    HW2 1953   2.537   3.482   3.109  0.1986  1.1654  0.4781
  605SOL     OW 1954   0.304   0.432   3.155 -0.5569  0.1224 -0.0385
  605SOL    HW1 1955   0.263   0.359   3.108  1.4765 -1.1050 -0.0693
  605SOL    HW2 1956   0.276   0.510   3.108 -1.3990 -0.7858 -1.1159
  606SOL     OW 1957   1.680   0.142   1.678  0.2381  0.2754  0.3533
  606SOL    HW1 1958   1.620   0.214   1.658 -0.5756  0.0001  1.6921
  606SOL    HW2 1959   1.748   0.148   1.611 -1.1936  0.7005 -1.1111
  607SOL     OW 1960   3.687   2.160   2.514 -0.1712  0.2318  0.2524
  607SOL    HW1 1961   3.771   2.114   2.513 -1.0496 -1.5814 -2.9248
  607SOL    HW2 1962   3.632   2.109   2.574  0.6465  0.9020  1.6299
  608SOL     OW 1963   3.502   0.834   1.461 -0.0905  0.2291  0.1028
  608SOL    HW1 1964   3.569   0.899   1.441  0.7448  0.2292  2.5535
  608SOL    HW2 1965   3.424   0.864   1.415  0.5118  2.4746  0.4403
  609SOL     OW 1966   1.618   0.891   2.088  0.4930 -0.0996  0.2147
  609SOL    HW1 1967   1.625   0.872   1.994  2.4623 -0.1912  0.3438
  609SOL    HW2 1968   1.640   0.809   2.131 -2.0598 -0.5504  0.8252
  610SOL     OW 1969   0.328   3.739   0.401 -0.2829  0.4242  0.0399
  610SOL    HW1 1970   0.340   3.716   0.309  0.9246  1.2919 -0.0504
  610SOL    HW2 1971   0.248   3.695   0.427 -0.5121 -0.0308 -1.3656
  611SOL     OW 1972   1.139   1.357   0.923 -0.1202 -0.3384 -0.5622
  611SOL    HW1 1973   1.178   1.437   0.888 -0.5988  0.0303 -0.2656
  611SOL    HW2 1974   1.070   1.388   0.982 -0.4835 -0.9712 -0.6449
  612SOL     OW 1975   1.428   1.656   1.896 -0.0392  0.7277 -0.0156
  612SOL    HW1 1976   1.430   1.664   1.800 -3.8858  1.7709 -0.1611
  612SOL    HW2 1977   1.510   1.697   1.924  1.7382 -0.5446 -2.8314
  613SOL     OW 1978   0.448   1.473   0.639  0.2059 -0.1881  0.6994
  613SOL    HW1 1979   0.473   1.381   0.640  0.1560 -0.2046  0.4643
  613SOL    HW2 1980   0.454   1.499   0.547  0.9623  0.2419  0.8607
  614SOL     OW 1981   3.361   3.517   3.637  0.3739  0.1475 -0.2298
  614SOL    HW1 1982   3.270   3.491   3.621 -0.0929  1.8590 -0.5087
  614SOL    HW2 1983   3.368   3.605   3.601  2.7584 -0.7109 -2.1459
  615SOL     OW 1984   0.163   2.189   3.586  0.6781  0.3324 -0.6514
  615SOL    HW1 1985   0.173   2.220   3.496 -2.4703  2.7739 -0.3290
  615SOL    HW2 1986   0.122   2.103   3.577 -0.0408  0.7566 -1.5559
  616SOL     OW 1987   0.678   3.504   1.889  0.0631  0.0341  0.5426
  616SOL    HW1 1988   0.717   3.592   1.892  1.0759 -0.4016  2.8099
  616SOL    HW2 1989   0.683   3.478   1.797 -0.1305  2.2749 -0.1548
  617SOL     OW 1990   3.628   1.215   3.341 -0.1170  0.6445 -0.7510
  617SOL    HW1 1991   3.694   1.284   3.332 -1.7519  2.8490  2.1117
  617SOL    HW2 1992   3.615   1.207   3.436 -0.8231 -2.9443 -0.9879
  618SOL     OW 1993   0.429   0.780   1.779 -0.2589 -0.0164  0.7823
  618SOL    HW1 1994   0.509   0.729   1.792  2.6868  2.8833 -3.4015
  618SOL    HW2 1995   0.397   0.752   1.693 -0.7691  2.3762  0.1159
  619SOL     OW 1996   0.539   3.330   0.475 -0.3698  0.3208 -0.3201
  619SOL    HW1 1997   0.489   3.368   0.547  0.4476  1.1352 -0.1672
  619SOL    HW2 1998   0.477   3.271   0.432 -1.3053  0.9208  0.1641
  620SOL     OW 1999   3.228   0.854   3.244 -0.3862  0.4852 -0.1893
  620SOL    HW1 2000   3.142   0.833   3.280  0.3523 -2.4659  0.0850
  620SOL    HW2 2001   3.277   0.888   3.318 -0.8645  0.7821 -0.0022
  621SOL     OW 2002   0.978   1.256   2.188  0.5947 -0.2136 -0.4523
  621SOL    HW1 2003   0.961   1.289   2.276 -0.4913 -0.2846 -0.6183
  621SOL    HW2 2004   1.055   1.200   2.197  0.7321  0.0962  0.3726
  622SOL     OW 2005   1.254   3.662   2.212  0.2306  0.4078 -0.3441
  622SOL    HW1 2006   1.291   3.574   2.204  2.7751  1.3883 -0.0577
  622SOL    HW2 2007   1.231   3.670   2.304 -0.2102  0.0041 -0.4114
  623SOL     OW 2008   3.017   1.992   3.603 -0.0890 -0.6657  0.6331
  623SOL    HW1 2009   3.079   2.064   3.589 -0.8453 -0.5817 -3.9094
  623SOL    HW2 2010   3.072   1.914   3.612  0.6921 -0.0512  1.3187
  624SOL     OW 2011   0.051   0.886   0.209  0.4620 -0.2843  0.1353
  624SOL    HW1 2012  -0.026   0.923   0.166 -0.8925 -2.3160  0.6825
  624SOL    HW2 2013   0.086   0.958   0.262 -0.3539  1.0048 -1.0264
  625SOL     OW 2014   2.077   3.350   0.756 -0.2687 -0.1170 -0.1886
  625SOL    HW1 2015   2.118   3.297   0.824 -0.1421  1.1570  0.7635
  625SOL    HW2 2016   2.151   3.392   0.711 -0.3838 -0.4524 -0.7039
  626SOL     OW 2017   0.100   2.475   0.715  0.5889 -0.2060  0.1296
  626SOL    HW1 2018   0.059   2.452   0.631  3.2977 -2.0998 -0.8283
  626SOL    HW2 2019   0.129   2.566   0.703  1.0343 -0.4858 -1.0709
  627SOL     OW 2020   1.676   1.050   2.428  0.3909  0.2420  0.3796
  627SOL    HW1 2021   1.697   0.990   2.500 -0.7171  1.8123  2.1006
  627SOL    HW2 2022   1.605   1.104   2.462 -1.6357 -0.2818 -2.6497
  628SOL     OW 2023   1.324   1.912   2.532  0.7182 -0.4943  0.2019
  628SOL    HW1 2024   1.409   1.913   2.576  1.0246  0.4549 -0.3822
  628SOL    HW2 2025   1.292   1.823   2.545  2.3437 -1.2335 -0.5879
  629SOL     OW 2026   0.705   2.040   3.551 -0.0767  0.0357  0.2642
  629SOL    HW1 2027   0.777   2.002   3.501  0.1658 -1.4659  1.6341
  629SOL    HW2 2028   0.691   1.978   3.623 -2.1764  0.7255  0.5232
  630SOL     OW 2029   2.862   1.833   0.332 -0.3005 -0.4224  0.5590
  630SOL    HW1 2030   2.809   1.841   0.411 -1.0247 -3.0724  0.4569
  630SOL    HW2 2031   2.804   1.862   0.262 -0.7149 -0.8314  0.7245
  631SOL     OW 2032   1.647   3.412   2.078  0.6754 -0.2772 -0.8190
  631SOL    HW1 2033   1.558   3.415   2.043  0.0477  1.3955  0.7871
  631SOL    HW2 2034   1.701   3.384   2.003 -1.0628 -0.4756 -2.0576
  632SOL     OW 2035   1.748   0.195   3.385  0.1952 -0.0862 -0.1218
  632SOL    HW1 2036   1.797   0.218   3.464 -1.8868  1.0052  0.9367
  632SOL    HW2 2037   1.714   0.108   3.402  0.2518 -0.0989 -0.0758
  633SOL     OW 2038   0.383   0.204   2.307 -0.0522 -0.0052 -0.0911
  633SOL    HW1 2039   0.316   0.253   2.261 -0.7170 -0.6288  0.1907
  633SOL    HW2 2040   0.335   0.135   2.354  0.7835 -0.5022  0.0641
  634SOL     OW 2041   0.058   0.458   1.118 -0.2376 -0.1259 -0.7458
  634SOL    HW1 2042  -0.030   0.495   1.107 -0.6691 -0.9890 -0.3137
  634SOL    HW2 2043   0.081   0.480   1.209 -0.6980 -1.2843 -0.3236
  635SOL     OW 2044   1.450   2.161   3.070  0.3203  0.0620 -0.0432
  635SOL    HW1 2045   1.530   2.213   3.075  1.1505 -1.0057 -1.6951
  635SOL    HW2 2046   1.384   2.217   3.112  1.0355  2.6924 -2.1273
  636SOL     OW 2047   1.373   1.971   0.885 -0.8441 -0.4922 -0.5252
  636SOL    HW1 2048   1.425   1.980   0.805  0.5239  3.1694  0.5801
  636SOL    HW2 2049   1.436   1.975   0.956 -2.3715  1.5865  0.8310
  637SOL     OW 2050   1.355   2.004   2.867  0.3201  0.7786 -0.5776
  637SOL    HW1 2051   1.404   2.041   2.941 -0.9915  0.2809  0.5750
  637SOL    HW2 2052   1.277   2.059   2.860 -0.9257 -0.8069  0.2089
  638SOL     OW 2053   1.067   2.896   1.365  0.0578 -0.5170  0.4290
  638SOL    HW1 2054   1.006   2.941   1.307  1.3212  1.8498  0.7972
  638SOL    HW2 2055   1.145   2.883   1.312  0.9423  0.9586  1.2833
  639SOL     OW 2056   1.018   3.328   2.645 -0.6024  0.4707  0.1044
  639SOL    HW1 2057   0.929   3.313   2.674  0.6545  0.1341  4.4061
  639SOL    HW2 2058   1.041   3.248   2.596 -1.7779 -0.7153  1.4006
  640SOL     OW 2059   3.688   1.056   1.390 -0.9427  0.4648  0.0821
  640SOL    HW1 2060   3.746   1.106   1.333 -0.3451  0.1926  0.4501
  640SOL    HW2 2061   3.676   1.111   1.466  1.2278 -0.6882  1.3465
  641SOL     OW 2062   2.152   2.363   3.419  0.3093 -0.3660  0.1615
  641SOL    HW1 2063   2.097   2.323   3.352  0.2443 -1.0885  0.6314
  641SOL    HW2 2064   2.187   2.289   3.468 -2.6531  0.0903  3.3819
  642SOL     OW 2065   1.779   3.392   1.837 -0.4058 -0.4011 -0.6654
  642SOL    HW1 2066   1.730   3.464   1.798  2.3832  0.9231 -2.0126
  642SOL    HW2 2067   1.847   3.371   1.772  0.8878 -2.0278  1.0809
  643SOL     OW 2068   3.173   3.242   0.383  0.2518  0.3204 -0.2013
  643SOL    HW1 2069   3.157   3.326   0.427 -1.8215  0.0824 -0.3780
  643SOL    HW2 2070   3.243   3.261   0.321  2.8082  0.8229  2.6239
  644SOL     OW 2071   1.865   1.911   2.183  0.4675 -0.0376  0.3178
  644SOL    HW1 2072   1.944   1.965   2.185 -0.1869  1.0360 -0.9338
  644SOL    HW2 2073   1.794   1.974   2.197 -0.4466 -0.2042 -2.7422
  645SOL     OW 2074   1.901   0.847   2.599 -0.3707 -0.1165 -0.5810
  645SOL    HW1 2075   1.950   0.905   2.541  0.4086  0.8752  0.9844
  645SOL    HW2 2076   1.964   0.822   2.667 -2.3509  2.8541  2.7036
  646SOL     OW 2077   3.715   3.372   0.791  0.2504 -0.4599  0.9242
  646SOL    HW1 2078   3.632   3.367   0.838 -0.1481  2.1660  0.6528
  646SOL    HW2 2079   3.759   3.448   0.830  1.4108 -0.2919 -0.6510
  647SOL     OW 2080   2.953   3.356   0.144 -0.2873 -0.2566 -0.3308
  647SOL    HW1 2081   3.018   3.426   0.155 -1.6625  0.7383  2.5963
  647SOL    HW2 2082   2.900   3.383   0.069 -0.9634  2.0861  0.8962
  648SOL     OW 2083   2.255   2.853   1.993  0.4267 -0.1268 -0.3746
  648SOL    HW1 2084   2.290   2.815   2.074  2.1210  2.5755  0.2748
  648SOL    HW2 2085   2.162   2.867   2.011  0.7343  0.2281  1.0179
  649SOL     OW 2086   1.492   2.178   1.132 -0.3566  0.2837  0.1902
  649SOL    HW1 2087   1.562   2.208   1.190 -1.3187  1.4254  0.8228
  649SOL    HW2 2088   1.515   2.088   1.111  0.5903  0.1883  1.4836
  650SOL     OW 2089   3.742   3.149   3.349 -0.7820  0.0978  0.8705
  650SOL    HW1 2090   3.715   3.058   3.336  2.7496 -0.9296 -0.3576
  650SOL    HW2 2091   3.716   3.194   3.269  0.9748 -0.8725 -0.3097
  651SOL     OW 2092   2.409   3.751   0.193 -0.1667 -0.1057 -0.2688
  651SOL    HW1 2093   2.486   3.697   0.211 -0.0379  0.7587  2.1441
  651SOL    HW2 2094   2.334   3.695   0.213 -0.0536  0.2568  1.2598
  652SOL     OW 2095   1.141   3.509   1.884  0.5385  0.3551 -0.1108
  652SOL    HW1 2096   1.090   3.485   1.962 -1.5898  3.5106 -0.3709
  652SOL    HW2 2097   1.101   3.459   1.813  0.7799 -0.5429  0.3677
  653SOL     OW 2098   1.520   3.047   2.521  0.7437 -0.2897  0.1255
  653SOL    HW1 2099   1.592   3.079   2.468  0.1654 -1.6895 -1.5988
  653SOL    HW2 2100   1.456   3.119   2.520  1.9514  0.8867  1.5193
  654SOL     OW 2101   1.923   3.300   2.912  0.3783 -0.4524  0.0492
  654SOL    HW1 2102   1.888   3.225   2.961  0.0641 -0.0480  0.4568
  654SOL    HW2 2103   1.989   3.262   2.854 -1.2940 -1.3660 -1.3449
  655SOL     OW 2104   2.414   1.357   0.315  0.0963  0.5574  0.0741
  655SOL    HW1 2105   2.483   1.321   0.372  1.2593  1.5593 -0.6371
  655SOL    HW2 2106   2.378   1.430   0.365 -0.5462 -0.0251  0.4863
  656SOL     OW 2107   2.844   2.039   0.688 -0.0617  0.2418  0.2900
  656SOL    HW1 2108   2.803   1.979   0.625  1.8745 -0.6800 -0.1842
  656SOL    HW2 2109   2.773   2.065   0.746 -1.5439 -0.2902 -1.2041
  657SOL     OW 2110   3.263   2.114   2.414 -0.7685  0.1754  0.1427
  657SOL    HW1 2111   3.303   2.066   2.342 -1.7949  1.1610 -1.1375
  657SOL    HW2 2112   3.177   2.074   2.426 -1.4364  1.3235 -0.6059
  658SOL     OW 2113   2.335   2.450   1.633 -0.2906  0.6056 -0.0874
  658SOL    HW1 2114   2.343   2.545   1.647  1.0541  0.3103  1.4890
  658SOL    HW2 2115   2.354   2.412   1.719 -0.3308 -1.1163 -0.8163
  659SOL     OW 2116   2.645   2.830   0.918 -0.5290 -0.0913  0.2433
  659SOL    HW1 2117   2.557   2.842   0.881 -0.0260 -0.3666 -1.1022
  659SOL    HW2 2118   2.696   2.903   0.881 -0.2673  0.2879  1.3170
  660SOL     OW 2119   1.892   0.692   1.574 -0.0475 -0.2771 -0.2594
  660SOL    HW1 2120   1.981   0.656   1.572  1.3242  2.5255  2.5204
  660SOL    HW2 2121   1.903   0.781   1.606 -3.9156  0.1386  0.3369
  661SOL     OW 2122   0.863   3.582   1.616  0.1011  0.4187  0.1556
  661SOL    HW1 2123   0.850   3.650   1.682  1.0127  0.0878  0.6852
  661SOL    HW2 2124   0.918   3.624   1.549 -1.2588  0.9276 -0.7009
  662SOL     OW 2125   3.000   2.747   2.226  0.2127  0.1526 -0.3308
  662SOL    HW1 2126   3.081   2.697   2.237  1.5045  2.3978  1.1074
  662SOL    HW2 2127   2.942   2.714   2.294 -0.3035 -1.7343 -1.6079
  663SOL     OW 2128   3.355   2.088   0.031  0.2739 -0.1367 -0.0503
  663SOL    HW1 2129   3.337   2.106   0.123  2.4981 -0.0605  0.4241
  663SOL    HW2 2130   3.417   2.015   0.033  0.7914  0.2453 -1.4635
  664SOL     OW 2131   1.080   1.449   3.404 -0.3311  0.1507  0.7735
  664SOL    HW1 2132   1.149   1.503   3.366 -0.0677 -1.9183 -2.0494
  664SOL    HW2 2133   1.122   1.365   3.421 -1.8371 -0.7671  0.1683
  665SOL     OW 2134   0.589   3.520   1.340 -0.1607 -0.5078  0.5309
  665SOL    HW1 2135   0.567   3.581   1.410  1.7898  0.1814  0.5923
  665SOL    HW2 2136   0.599   3.436   1.383 -2.9646 -0.9776  0.4325
  666SOL     OW 2137   0.698   0.742   1.805  0.1479 -0.2691 -0.0986
  666SOL    HW1 2138   0.732   0.728   1.717  2.5395 -0.7128  0.7926
  666SOL    HW2 2139   0.722   0.833   1.826 -0.8212 -0.0132 -0.0509
  667SOL     OW 2140   2.930   1.944   1.010 -0.2085 -0.1960 -0.1830
  667SOL    HW1 2141   2.927   1.877   0.943  1.2564  0.4472 -0.9375
  667SOL    HW2 2142   2.967   2.021   0.966  1.2344  0.1012  1.4344
  668SOL     OW 2143   2.918   3.454   0.805  0.3200 -0.0699 -0.3439
  668SOL    HW1 2144   2.927   3.424   0.715 -0.6931 -1.1052 -0.1311
  668SOL    HW2 2145   2.826   3.478   0.813  0.5541  0.6685  0.2249
  669SOL     OW 2146   2.076   0.169   2.362  1.0338  0.0015 -0.4587
  669SOL    HW1 2147   2.109   0.249   2.402  4.4476 -1.0561 -0.8634
  669SOL    HW2 2148   1.990   0.193   2.328  0.6764  2.6459  1.9393
  670SOL     OW 2149   1.233   2.502   0.495 -0.0287 -0.7187 -0.0188
  670SOL    HW1 2150   1.323   2.529   0.512 -0.4571  1.9329 -1.4976
  670SOL    HW2 2151   1.181   2.546   0.562 -0.5451  0.6646 -1.2814
  671SOL     OW 2152   0.505   1.838   0.202 -0.6323 -0.1996  0.1921
  671SOL    HW1 2153   0.535   1.927   0.220  1.4474 -0.8040 -0.0126
  671SOL    HW2 2154   0.429   1.850   0.145 -1.2788  1.4579  1.3152
  672SOL     OW 2155   3.087   2.521   0.588  0.0384  0.5925 -0.3725
  672SOL    HW1 2156   3.061   2.492   0.501 -0.0278  0.0341 -0.1707
  672SOL    HW2 2157   3.011   2.503   0.643  0.2894  0.4032 -0.0858
  673SOL     OW 2158  -0.004   1.028   1.748  0.4182 -0.0977  0.3159
  673SOL    HW1 2159   0.064   0.979   1.702  2.5739  1.5552  1.5700
  673SOL    HW2 2160  -0.017   1.106   1.696  1.1391  0.6483  1.2230
  674SOL     OW 2161   2.014   1.918   1.487  0.2967 -0.7110  0.0794
  674SOL    HW1 2162   2.065   1.958   1.557  1.5679 -0.6681 -0.8285
  674SOL    HW2 2163   2.036   1.825   1.490  0.5805 -0.6651 -0.4317
  675SOL     OW 2164   0.996   0.157   0.226  0.2609  0.0377 -0.0922
  675SOL    HW1 2165   0.949   0.076   0.246  0.7390 -0.2132  0.0559
  675SOL    HW2 2166   0.982   0.213   0.302  0.4467 -0.1532  0.0853
  676SOL     OW 2167   0.876   2.668   3.242 -0.0737  0.4858  0.0761
  676SOL    HW1 2168   0.905   2.591   3.290 -0.6268  1.3379  1.8709
  676SOL    HW2 2169   0.819   2.634   3.173  0.2949 -0.7415  0.3595
  677SOL     OW 2170   1.428   2.928   2.800  0.4346  0.1462 -0.4566
  677SOL    HW1 2171   1.373   2.948   2.875  1.4091  1.0790  0.0443
  677SOL    HW2 2172   1.444   3.013   2.758  2.9617  0.2366  0.4981
  678SOL     OW 2173   3.623   1.006   0.616  0.7028  0.1528  0.2243
  678SOL    HW1 2174   3.713   1.038   0.610  1.3122 -1.5991 -0.6611
  678SOL    HW2 2175   3.631   0.921   0.659 -0.4736 -0.2163 -0.2571
  679SOL     OW 2176   0.527   2.544   3.351  0.1956 -0.8198 -0.2374
  679SOL    HW1 2177   0.540   2.577   3.262 -1.1894  1.2403  0.2552
  679SOL    HW2 2178   0.603   2.488   3.367  0.9198 -0.5439 -2.3900
  680SOL     OW 2179   3.186   2.213   3.602  0.4099  0.6287  0.1415
  680SOL    HW1 2180   3.144   2.283   3.653 -1.5716  0.1820 -0.7601
  680SOL    HW2 2181   3.258   2.183   3.657  1.1081  3.0985  0.7257
  681SOL     OW 2182   0.517   1.070   3.231  0.0361  0.1531  0.0787
  681SOL    HW1 2183   0.543   1.155   3.197  0.8320  0.0245  0.3390
  681SOL    HW2 2184   0.589   1.011   3.206 -0.1362 -0.2711  0.5678
  682SOL     OW 2185   3.271   3.476   1.126 -0.2610  0.1223 -0.4887
  682SOL    HW1 2186   3.273   3.384   1.152  0.6824  0.0417 -0.8038
  682SOL    HW2 2187   3.360   3.508   1.144 -0.0215  0.4654 -2.1272
  683SOL     OW 2188   2.937   0.673   1.332  0.3353  0.3070 -0.0314
  683SOL    HW1 2189   2.978   0.734   1.393 -2.4427  2.1737  0.1278
  683SOL    HW2 2190   2.906   0.601   1.387 -0.3274  0.9636  0.4611
  684SOL     OW 2191   2.326   2.485   1.897  0.3529  0.9243 -0.3780
  684SOL    HW1 2192   2.257   2.468   1.960 -0.0778 -3.7554 -1.7569
  684SOL    HW2 2193   2.299   2.567   1.854 -2.5294  1.0354  1.3707
  685SOL     OW 2194   1.547   1.779   0.552 -0.2237  0.2997 -0.3573
  685SOL    HW1 2195   1.499   1.697   0.539 -1.7295  0.8040  1.5466
  685SOL    HW2 2196   1.560   1.814   0.464 -0.9558 -1.1989 -1.0946
  686SOL     OW 2197   1.744   2.016   1.545  0.4593  0.4415 -0.2326
  686SOL    HW1 2198   1.815   1.957   1.570 -0.4214 -0.3181  0.5054
  686SOL    HW2 2199   1.740   2.081   1.615  0.8352  0.8822 -0.6029
  687SOL     OW 2200   1.813   3.440   3.202 -0.5665  0.0935  0.7739
  687SOL    HW1 2201   1.810   3.353   3.241 -2.1759  0.3429  1.2931
  687SOL    HW2 2202   1.898   3.444   3.158  0.2427 -1.1135  2.1485
  688SOL     OW 2203   2.942   1.018   2.950 -0.7844  0.0811 -0.8334
  688SOL    HW1 2204   2.889   1.043   2.874 -0.5983 -0.0554 -1.0110
  688SOL    HW2 2205   3.025   1.066   2.938 -1.8333  2.5157  0.8856
  689SOL     OW 2206   2.115   3.172   2.756  0.1464 -0.7557 -0.8084
  689SOL    HW1 2207   2.085   3.088   2.723 -0.1122 -1.2011  0.4975
  689SOL    HW2 2208   2.138   3.222   2.678  0.1603 -1.9774 -1.6078
  690SOL     OW 2209   1.880   0.544   3.333  0.7111  0.0777 -0.4597
  690SOL    HW1 2210   1.896   0.465   3.281  0.4097  0.2464 -0.8126
  690SOL    HW2 2211   1.794   0.529   3.373  2.2861 -1.5361  2.7207
  691SOL     OW 2212   1.046   2.322   2.633 -0.1284  0.6652  0.2468
  691SOL    HW1 2213   1.124   2.368   2.665  0.2582  0.0895  0.1616
  691SOL    HW2 2214   1.070   2.295   2.544  0.2954 -1.1343  0.8681
  692SOL     OW 2215   1.169   2.430   3.494 -0.1545 -0.4066  0.6342
  692SOL    HW1 2216   1.183   2.390   3.408  0.4988 -0.2258  0.6460
  692SOL    HW2 2217   1.076   2.451   3.496 -0.2358 -0.6968  0.0943
  693SOL     OW 2218   3.120   2.648   2.834 -0.2617 -0.3245  0.6171
  693SOL    HW1 2219   3.040   2.595   2.831 -1.3026  1.1866  0.3090
  693SOL    HW2 2220   3.147   2.644   2.926 -1.6206  0.4066  1.0869
  694SOL     OW 2221   0.145   1.035   3.069 -0.6302 -0.2845 -0.5963
  694SOL    HW1 2222   0.226   0.996   3.101 -1.0144  0.5408  1.5415
  694SOL    HW2 2223   0.173   1.095   3.000  0.2821 -1.8156 -1.6339
  695SOL     OW 2224   1.371   2.909   3.353 -0.0164  0.5919  0.3748
  695SOL    HW1 2225   1.306   2.967   3.392  0.7387  1.0186  1.0326
  695SOL    HW2 2226   1.408   2.959   3.280 -1.5096 -0.2497 -1.0262
  696SOL     OW 2227   2.968   2.874   2.566  0.0106 -0.6371  0.8277
  696SOL    HW1 2228   2.926   2.789   2.556  1.8620 -1.7072  1.6062
  696SOL    HW2 2229   2.945   2.902   2.654  0.0718 -0.7181  0.8692
  697SOL     OW 2230   0.965   0.177   2.425  0.0618  0.4320  0.4171
  697SOL    HW1 2231   1.015   0.258   2.424  2.2618 -0.8125  1.3387
  697SOL    HW2 2232   0.878   0.201   2.392  1.6369  2.4520 -2.8097
  698SOL     OW 2233   1.712   1.594   1.113 -0.5647 -0.2480 -0.1452
  698SOL    HW1 2234   1.719   1.638   1.028 -1.2185 -0.5702 -0.3671
  698SOL    HW2 2235   1.707   1.501   1.092  0.6768 -0.4349  0.3180
  699SOL     OW 2236   1.813   0.364   2.394  0.3995 -0.2779 -0.0976
  699SOL    HW1 2237   1.848   0.401   2.313 -0.2220 -0.1841 -0.3366
  699SOL    HW2 2238   1.826   0.432   2.460  0.2571 -0.0638 -0.2886
  700SOL     OW 2239   2.525   1.039   1.153  0.0601  0.3719 -0.4077
  700SOL    HW1 2240   2.534   1.012   1.061  0.4338  2.0053 -0.8807
  700SOL    HW2 2241   2.610   1.076   1.175  0.3654 -1.0449  1.0052
  701SOL     OW 2242   2.014   3.268   3.420  0.2293  0.0727 -0.8691
  701SOL    HW1 2243   2.007   3.310   3.334 -0.5446 -2.5207 -2.1792
  701SOL    HW2 2244   2.066   3.189   3.404  0.1608 -0.4279  1.0796
  702SOL     OW 2245   1.198   2.610   3.213  0.3721 -0.5077 -0.5299
  702SOL    HW1 2246   1.169   2.698   3.186  0.4214 -0.4965 -0.5458
  702SOL    HW2 2247   1.134   2.551   3.172 -0.6509 -0.3937  0.8450
  703SOL     OW 2248   1.164   1.703   0.002 -0.1026  0.0593  0.2399
  703SOL    HW1 2249   1.186   1.779  -0.052  1.0300 -1.2757 -1.2677
  703SOL    HW2 2250   1.163   1.737   0.092 -0.7509  2.0732 -0.4715
  704SOL     OW 2251   3.385   2.543   1.492 -0.8678  0.0338 -0.3994
  704SOL    HW1 2252   3.447   2.502   1.553 -1.5105  1.7024  1.5050
  704SOL    HW2 2253   3.304   2.493   1.502 -0.1689 -1.5349 -2.1578
  705SOL     OW 2254   1.549   0.909   0.931 -0.1012 -0.4052 -0.2459
  705SOL    HW1 2255   1.494   0.887   0.855 -0.9185  1.4362 -0.2537
  705SOL    HW2 2256   1.614   0.969   0.895  0.5731 -0.8608  0.2030
  706SOL     OW 2257   3.668   0.074   2.973  0.0688  0.5480  0.1736
  706SOL    HW1 2258   3.618   0.139   2.925 -0.2076  2.0834  2.3483
  706SOL    HW2 2259   3.710   0.021   2.906 -2.7426  0.5337 -1.7199
  707SOL     OW 2260   2.649   0.770   2.159  0.2575  0.3099  0.1261
  707SOL    HW1 2261   2.658   0.789   2.066  0.7642  0.3346  0.1752
  707SOL    HW2 2262   2.556   0.780   2.177 -0.5378 -3.2832 -1.1711
  708SOL     OW 2263   2.942   1.364   0.577 -0.0790 -0.2962  0.3850
  708SOL    HW1 2264   2.908   1.293   0.632 -2.5888 -0.0239 -0.6923
  708SOL    HW2 2265   2.897   1.443   0.610 -0.7188  0.0554 -1.2473
  709SOL     OW 2266   0.219   1.734   3.533  0.5162 -0.3106 -0.2874
  709SOL    HW1 2267   0.256   1.647   3.522  0.8461 -0.2416  0.2676
  709SOL    HW2 2268   0.224   1.751   3.627  0.4123  0.2838 -0.3853
  710SOL     OW 2269   1.387   2.954   0.987 -0.0179  0.1766  0.3110
  710SOL    HW1 2270   1.345   2.994   1.063  0.0868 -1.9030  1.5458
  710SOL    HW2 2271   1.336   2.875   0.971 -1.2922  1.5094 -3.1177
  711SOL     OW 2272   2.473   0.318   0.968  0.0095  0.6810 -0.4109
  711SOL    HW1 2273   2.402   0.369   0.929 -0.0957  1.2817  0.5278
  711SOL    HW2 2274   2.458   0.325   1.063  0.4142 -0.4929 -0.2368
  712SOL     OW 2275   0.946   1.902   1.384 -0.2625 -0.2111  0.7314
  712SOL    HW1 2276   0.853   1.903   1.362 -0.4047  1.6703  1.2539
  712SOL    HW2 2277   0.978   1.987   1.356  1.5502 -1.1874 -0.3116
  713SOL     OW 2278   2.378   3.112   2.065  0.3811  0.4937 -0.3295
  713SOL    HW1 2279   2.417   3.172   2.129 -0.9847  0.7186  0.3460
  713SOL    HW2 2280   2.419   3.027   2.082  0.4795  0.6938  0.4504
  714SOL     OW 2281   0.232   1.782   0.971  0.1150  0.6785 -0.1547
  714SOL    HW1 2282   0.156   1.840   0.970 -0.3244  0.1091 -0.3995
  714SOL    HW2 2283   0.255   1.773   1.064 -0.0831  0.8928 -0.0849
  715SOL     OW 2284   2.045   3.547   2.937 -0.0285  0.5763 -0.3080
  715SOL    HW1 2285   2.063   3.567   2.845  2.2742  0.0913 -0.0265
  715SOL    HW2 2286   2.019   3.455   2.936  1.2474  0.1931 -0.3878
  716SOL     OW 2287   0.123   3.332   0.479 -0.1480 -0.1729  0.2190
  716SOL    HW1 2288   0.117   3.289   0.564 -1.3069 -1.5880 -0.5252
  716SOL    HW2 2289   0.134   3.425   0.499 -2.6881 -0.1569  1.9546
  717SOL     OW 2290   1.171   1.710   1.673 -0.1451 -0.0021  0.2175
  717SOL    HW1 2291   1.257   1.669   1.677 -0.7833 -1.5203 -0.9086
  717SOL    HW2 2292   1.190   1.803   1.660  1.3308 -0.3197 -0.0882
  718SOL     OW 2293   2.180   0.670   1.735 -0.0853 -0.3517 -0.1462
  718SOL    HW1 2294   2.251   0.701   1.792  0.9147 -1.7702 -0.5659
  718SOL    HW2 2295   2.205   0.699   1.647 -0.9131  0.6159 -0.0783
  719SOL     OW 2296   3.191   0.861   2.032 -0.1741 -0.1768 -0.8789
  719SOL    HW1 2297   3.222   0.815   2.110 -0.1052  2.7325  0.9571
  719SOL    HW2 2298   3.228   0.949   2.040 -0.7394  0.4454 -3.8796
  720SOL     OW 2299   3.611   0.604   0.203 -0.5502 -0.4105 -0.4209
  720SOL    HW1 2300   3.590   0.658   0.279  0.4930  0.8912 -1.0013
  720SOL    HW2 2301   3.707   0.602   0.202 -0.5576 -0.7638 -1.4421
  721SOL     OW 2302   1.055   0.246  -0.014  0.2034  0.3264  0.1883
  721SOL    HW1 2303   1.145   0.277   0.001  0.4530 -0.4450  0.3216
  721SOL    HW2 2304   1.029   0.207   0.070 -0.3596  0.7684  0.2319
  722SOL     OW 2305   2.185   0.985   2.118  0.4360 -0.3085  0.3925
  722SOL    HW1 2306   2.163   1.071   2.081  0.3236  0.0170  1.1898
  722SOL    HW2 2307   2.103   0.936   2.115  0.4542 -0.3233  0.1133
  723SOL     OW 2308   0.509   1.488   2.859  0.5034 -0.5265 -0.3609
  723SOL    HW1 2309   0.454   1.548   2.910  1.1564 -1.3686  1.3967
  723SOL    HW2 2310   0.597   1.526   2.863  0.5283 -0.4959 -1.0501
  724SOL     OW 2311   0.453   2.799   3.677  0.3955  0.1769 -0.2052
  724SOL    HW1 2312   0.367   2.767   3.651  0.3347  0.5923 -0.5277
  724SOL    HW2 2313   0.462   2.883   3.632  1.1333 -0.0466 -0.4920
  725SOL     OW 2314   0.871   1.122   0.077  0.6219  0.4330  0.6096
  725SOL    HW1 2315   0.839   1.176   0.004 -2.0106 -2.4358 -0.6226
  725SOL    HW2 2316   0.964   1.144   0.084 -0.0572  4.4763 -0.1908
  726SOL     OW 2317   2.182   3.157   1.289 -0.1309  0.8969  0.2210
  726SOL    HW1 2318   2.248   3.099   1.251  0.1556  1.7248 -0.5960
  726SOL    HW2 2319   2.138   3.104   1.356 -1.0701 -0.8628 -1.6562
  727SOL     OW 2320   0.925   1.177   2.460 -0.0451 -0.2457  0.1112
  727SOL    HW1 2321   0.882   1.244   2.514  2.1507  1.9952 -0.7103
  727SOL    HW2 2322   0.854   1.138   2.409 -1.7681 -0.4784  2.5180
  728SOL     OW 2323   2.519   2.274   2.907  0.0261  0.2862  0.4521
  728SOL    HW1 2324   2.522   2.202   2.970  0.1197 -0.7737 -0.7193
  728SOL    HW2 2325   2.525   2.354   2.960 -0.4606 -0.5537  1.8072
  729SOL     OW 2326   3.180   2.570   0.249  0.1314 -0.0289 -0.1946
  729SOL    HW1 2327   3.267   2.585   0.286  0.1938  0.7613 -0.6348
  729SOL    HW2 2328   3.123   2.629   0.298 -0.0448 -0.0888 -0.3264
  730SOL     OW 2329   0.088   1.500   3.033  0.5541 -0.5683 -0.0513
  730SOL    HW1 2330   0.096   1.427   3.095  1.0843 -1.5964 -1.2800
  730SOL    HW2 2331   0.054   1.572   3.085 -1.0896 -2.0131  0.9682
  731SOL     OW 2332   3.024   2.885   0.977  0.4987 -0.0178 -0.4471
  731SOL    HW1 2333   2.973   2.960   1.008 -1.8986 -0.6069 -2.6943
  731SOL    HW2 2334   3.092   2.924   0.921  0.2101  0.5406 -0.4151
  732SOL     OW 2335   2.832   1.331   0.193 -0.0184  0.7598  0.3502
  732SOL    HW1 2336   2.822   1.300   0.103  0.6490 -2.0043  1.1483
  732SOL    HW2 2337   2.774   1.275   0.244 -0.7721  2.6204  1.6227
  733SOL     OW 2338   1.014   3.131   1.112 -0.8456 -0.1205  0.0763
  733SOL    HW1 2339   1.053   3.120   1.025 -2.2323 -2.6659 -0.3168
  733SOL    HW2 2340   0.920   3.121   1.097 -1.1532  0.0558  1.7698
  734SOL     OW 2341   2.521   1.738   3.680 -0.4028 -0.4645  0.2231
  734SOL    HW1 2342   2.569   1.663   3.716  3.0088  1.7950  0.8775
  734SOL    HW2 2343   2.571   1.762   3.602 -0.1102  2.3104  1.1642
  735SOL     OW 2344   1.978   0.481   2.213 -0.2101  0.0984 -0.2991
  735SOL    HW1 2345   2.065   0.458   2.245 -0.0910 -0.9089 -1.2862
  735SOL    HW2 2346   1.983   0.469   2.119 -1.3748  0.1865 -0.3895
  736SOL     OW 2347   0.198   3.272   2.990 -0.2484 -1.0120  0.4306
  736SOL    HW1 2348   0.116   3.233   3.021 -0.7303 -0.7996 -0.5184
  736SOL    HW2 2349   0.236   3.206   2.932 -0.7116 -0.3810 -0.6198
  737SOL     OW 2350   3.669   0.713   1.814 -0.4480 -0.0152  0.8732
  737SOL    HW1 2351   3.729   0.770   1.765 -0.3941  0.5627  1.5952
  737SOL    HW2 2352   3.593   0.768   1.832 -0.1021  0.0747  2.1867
  738SOL     OW 2353   2.547   3.304   0.206  0.7534 -0.0444 -0.2931
  738SOL    HW1 2354   2.462   3.338   0.233 -0.0685 -2.7532  0.8972
  738SOL    HW2 2355   2.606   3.327   0.278  0.3909 -0.4441  0.1360
  739SOL     OW 2356   1.512   1.639   3.174 -0.6657  0.2604 -0.0030
  739SOL    HW1 2357   1.600   1.602   3.183 -1.0225 -0.6859 -0.3094
  739SOL    HW2 2358   1.498   1.689   3.254 -1.1833 -2.4385  1.7212
  740SOL     OW 2359   0.932   0.166   2.762 -0.0161 -0.5773  0.0747
  740SOL    HW1 2360   0.862   0.219   2.800 -0.6596 -2.0371  0.9817
  740SOL    HW2 2361   0.952   0.210   2.679 -1.9185 -0.0592 -0.1638
  741SOL     OW 2362   2.412   2.799   0.756 -0.1195  0.4149  0.1609
  741SOL    HW1 2363   2.451   2.825   0.673 -0.3363  1.2190  0.3021
  741SOL    HW2 2364   2.353   2.871   0.779 -1.8361 -0.8176 -0.1339
  742SOL     OW 2365   3.493   1.151   0.409  0.5747 -1.1243 -0.2511
  742SOL    HW1 2366   3.435   1.208   0.459  2.0983  0.3057  0.0117
  742SOL    HW2 2367   3.529   1.090   0.474  0.5508 -0.9909 -0.1112
  743SOL     OW 2368   1.052   1.639   2.505  0.3016 -0.6937 -0.5974
  743SOL    HW1 2369   1.109   1.594   2.443 -0.8274 -2.6097 -0.3350
  743SOL    HW2 2370   1.011   1.708   2.454  2.0640  0.1036 -1.0269
  744SOL     OW 2371   1.278   3.400   3.176  0.7182 -0.7155  0.4306
  744SOL    HW1 2372   1.247   3.333   3.115  1.0256  0.1938 -0.7681
  744SOL    HW2 2373   1.372   3.386   3.182  0.8796 -0.0360 -0.3075
  745SOL     OW 2374   2.774   1.513   2.832 -0.1070  0.4259  0.4696
  745SOL    HW1 2375   2.699   1.553   2.876 -0.9864  1.7503 -2.0196
  745SOL    HW2 2376   2.849   1.537   2.886 -1.4031 -1.5595  3.4692
  746SOL     OW 2377   3.107   3.022   2.193  0.4874  0.4665 -0.0445
  746SOL    HW1 2378   3.073   2.933   2.204 -1.4426  1.4578  3.9375
  746SOL    HW2 2379   3.201   3.010   2.185  0.1961 -1.9536 -0.8604
  747SOL     OW 2380   1.104   2.292   0.995  0.1459 -0.0989  0.1520
  747SOL    HW1 2381   1.079   2.314   1.084 -0.3772  0.3191 -0.0973
  747SOL    HW2 2382   1.167   2.221   1.005 -0.7647 -0.8364  0.8043
  748SOL     OW 2383   2.533   2.515   2.521 -0.1739  0.6813 -0.1968
  748SOL    HW1 2384   2.491   2.591   2.560 -2.4398 -0.2674 -0.5937
  748SOL    HW2 2385   2.566   2.546   2.436 -1.5206  1.1453 -0.5780
  749SOL     OW 2386   3.075   2.681   1.143  0.0087 -0.0027 -0.1517
  749SOL    HW1 2387   3.022   2.688   1.223  1.0482 -1.8012  0.7840
  749SOL    HW2 2388   3.049   2.756   1.090 -1.3472  0.7812  1.5034
  750SOL     OW 2389   3.215   3.147   0.986 -0.4119  0.0308  0.0332
  750SOL    HW1 2390   3.125   3.154   1.018 -1.3925  0.5571 -2.6375
  750SOL    HW2 2391   3.206   3.112   0.897  2.1843 -1.9354  0.4451
  751SOL     OW 2392   3.701   1.757   0.742 -0.1324 -0.4709 -0.1690
  751SOL    HW1 2393   3.697   1.821   0.814  0.3393 -0.2420 -0.3433
  751SOL    HW2 2394   3.620   1.707   0.751  0.1111 -0.7262  0.7869
  752SOL     OW 2395   3.717   1.724   3.156  0.2053  0.4559 -0.8817
  752SOL    HW1 2396   3.659   1.759   3.089 -1.1777  0.0731  0.0750
  752SOL    HW2 2397   3.676   1.642   3.183  1.9045 -0.5263 -1.1117
  753SOL     OW 2398   1.458   2.353   0.696  0.2068  0.4503 -0.0203
  753SOL    HW1 2399   1.471   2.329   0.787  2.6133  0.1895 -0.3610
  753SOL    HW2 2400   1.363   2.363   0.686 -0.3758 -2.3357  1.7833
  754SOL     OW 2401   1.102   0.846   2.063 -0.1563 -0.3073  0.4630
  754SOL    HW1 2402   1.108   0.931   2.018  0.2342  0.9617  2.7211
  754SOL    HW2 2403   1.090   0.782   1.993  0.6200  1.4888 -1.4211
  755SOL     OW 2404   3.750   1.129   1.104 -0.1577  0.1602 -0.1900
  755SOL    HW1 2405   3.679   1.064   1.109 -0.8601  0.8411 -1.0113
  755SOL    HW2 2406   3.728   1.183   1.028  1.7604 -0.1929 -1.0527
  756SOL     OW 2407   0.069   3.067   1.393  0.0815  0.3248 -0.2415
  756SOL    HW1 2408   0.010   2.993   1.405 -0.7572  0.8423 -1.0443
  756SOL    HW2 2409   0.117   3.046   1.312  2.8108 -1.2389  1.5916
  757SOL     OW 2410   0.105   1.445   2.038  0.2808 -0.3113  0.5975
  757SOL    HW1 2411   0.068   1.476   1.956  1.6687  0.4737  0.2370
  757SOL    HW2 2412   0.196   1.474   2.036  0.7083 -1.4658  1.8055
  758SOL     OW 2413   1.312   3.170   3.439 -0.6004  0.4650  0.2927
  758SOL    HW1 2414   1.222   3.150   3.465 -0.2105  0.3851  1.6317
  758SOL    HW2 2415   1.306   3.257   3.399 -1.9518 -1.2269 -3.6759
  759SOL     OW 2416   3.059   3.225   1.629 -0.1342  0.6550 -0.0288
  759SOL    HW1 2417   3.123   3.223   1.700  0.3125 -0.8860 -0.4344
  759SOL    HW2 2418   3.071   3.310   1.588 -1.3542  2.1768  2.5536
  760SOL     OW 2419   2.029   0.779   0.836  0.2240  0.5305  0.1645
  760SOL    HW1 2420   1.972   0.789   0.760 -1.5321 -0.4971  1.2720
  760SOL    HW2 2421   2.020   0.687   0.860  0.7788  0.8266  1.5726
  761SOL     OW 2422   1.153   0.963   2.462  0.2999 -0.3508 -0.1826
  761SOL    HW1 2423   1.223   0.985   2.400 -0.2814 -2.1963 -1.6230
  761SOL    HW2 2424   1.088   1.031   2.450  1.0548  0.3868 -0.1702
  762SOL     OW 2425   0.833   0.355   3.306  0.0503 -0.1931 -0.1066
  762SOL    HW1 2426   0.907   0.322   3.255 -0.6326 -1.0124 -0.5868
  762SOL    HW2 2427   0.757   0.345   3.248 -0.2292  2.1948 -0.2777
  763SOL     OW 2428   2.946   2.750   1.367 -0.0494  0.2182 -0.0161
  763SOL    HW1 2429   2.874   2.789   1.417 -0.4174 -0.1842 -0.2274
  763SOL    HW2 2430   3.007   2.718   1.434  0.9660  2.3991  0.1860
  764SOL     OW 2431   3.378   0.327   1.575  0.1163  0.1938  0.4371
  764SOL    HW1 2432   3.410   0.246   1.615 -0.6275  0.0183  0.6968
  764SOL    HW2 2433   3.424   0.397   1.622 -1.0627  0.0083  1.9473
  765SOL     OW 2434   2.447   0.402   3.355 -0.1047  0.1914  0.0359
  765SOL    HW1 2435   2.499   0.337   3.403  1.5303  0.2273 -1.5871
  765SOL    HW2 2436   2.439   0.365   3.267 -1.5707  0.9135 -0.1434
  766SOL     OW 2437   0.492   0.632   3.449 -0.7663 -0.6731 -0.2167
  766SOL    HW1 2438   0.582   0.606   3.430 -1.1277 -1.3224 -1.1640
  766SOL    HW2 2439   0.499   0.695   3.521  0.5951  0.8450 -1.6065
  767SOL     OW 2440   1.049   2.883   3.174 -0.4439  0.2665 -0.0762
  767SOL    HW1 2441   0.980   2.840   3.124  0.4983  0.6456 -1.7759
  767SOL    HW2 2442   1.005   2.955   3.219 -1.0144  1.1954 -2.0116
  768SOL     OW 2443   1.395   0.629   0.922 -0.1195 -0.0815 -0.6700
  768SOL    HW1 2444   1.312   0.581   0.915  0.3874 -1.2401  0.8393
  768SOL    HW2 2445   1.375   0.703   0.980 -0.9726  1.8459 -3.2144
  769SOL     OW 2446   3.001   3.584   3.335 -0.0835  0.3130 -0.5265
  769SOL    HW1 2447   2.973   3.555   3.422 -2.9845  1.3781 -0.9810
  769SOL    HW2 2448   3.092   3.613   3.347  0.4843 -2.0024  1.4981
  770SOL     OW 2449   2.423   0.732   2.630  0.2807  0.4577 -0.2791
  770SOL    HW1 2450   2.488   0.796   2.601  1.6017 -0.3030  0.8372
  770SOL    HW2 2451   2.369   0.716   2.553  0.3399  2.3808 -0.7730
  771SOL     OW 2452   0.365   0.080   0.917  0.1218 -0.2494  0.8326
  771SOL    HW1 2453   0.348   0.054   0.826 -2.1203  1.2817  0.7133
  771SOL    HW2 2454   0.288   0.133   0.941  2.1620  2.1863  2.5356
  772SOL     OW 2455   1.704   2.662   2.211 -0.0776  0.1756 -0.2469
  772SOL    HW1 2456   1.693   2.725   2.140 -1.8673  0.6725  0.3956
  772SOL    HW2 2457   1.670   2.707   2.288 -1.1311 -1.4482  0.2997
  773SOL     OW 2458   1.905   1.491   0.806  0.4778 -0.0929 -0.2211
  773SOL    HW1 2459   1.983   1.457   0.851  0.2500  0.0598  0.2900
  773SOL    HW2 2460   1.831   1.461   0.859  0.2250  0.3577 -0.3162
  774SOL     OW 2461   1.095   1.142   3.262  0.4525 -0.3136 -0.1606
  774SOL    HW1 2462   1.147   1.127   3.183 -0.4681 -2.1800 -0.4645
  774SOL    HW2 2463   1.005   1.132   3.233  0.0677 -0.2457  0.9689
  775SOL     OW 2464   1.213   0.747   1.415 -0.2104  0.4621  0.3948
  775SOL    HW1 2465   1.209   0.843   1.414  0.2842  0.5518  2.3956
  775SOL    HW2 2466   1.227   0.725   1.507  0.6493 -1.5072 -0.1629
  776SOL     OW 2467   2.963   2.827   0.524  0.1385 -0.5429 -0.0748
  776SOL    HW1 2468   3.045   2.875   0.513 -0.4546  0.4777 -0.0903
  776SOL    HW2 2469   2.959   2.769   0.448  1.0276 -0.8978  0.1259
  777SOL     OW 2470   0.622   2.041   1.110  0.6360  0.5467  0.2261
  777SOL    HW1 2471   0.550   1.995   1.068  0.4979  0.5061  0.5030
  777SOL    HW2 2472   0.686   2.057   1.040  0.5510  0.1984  0.0713
  778SOL     OW 2473   1.090   2.402   2.279 -0.2492 -0.2165  0.0069
  778SOL    HW1 2474   1.035   2.466   2.324  0.8365  0.9025 -0.1879
  778SOL    HW2 2475   1.170   2.451   2.258  1.0310 -1.8982  0.7307
  779SOL     OW 2476   3.502   1.243   1.811  0.7988 -0.5886  0.1076
  779SOL    HW1 2477   3.486   1.324   1.859 -1.6835 -0.7007 -0.4077
  779SOL    HW2 2478   3.569   1.198   1.862  2.7658  2.0273  0.0403
  780SOL     OW 2479   0.304   2.878   1.418 -0.6969 -0.3275 -0.3561
  780SOL    HW1 2480   0.357   2.799   1.427 -1.0623 -0.5463 -0.0707
  780SOL    HW2 2481   0.327   2.913   1.332 -1.4757 -1.4705 -1.0652
  781SOL     OW 2482   0.815   1.306   0.706 -0.2065 -0.4422  0.3939
  781SOL    HW1 2483   0.883   1.241   0.692 -1.0727 -1.2050 -0.4332
  781SOL    HW2 2484   0.764   1.273   0.780  0.3834  0.2017  1.1086
  782SOL     OW 2485   3.349   1.301   2.242  0.0975  0.5260 -0.0001
  782SOL    HW1 2486   3.291   1.304   2.318  0.7070  0.7260  0.4611
  782SOL    HW2 2487   3.397   1.384   2.244  0.6720  0.2068 -0.1543
  783SOL     OW 2488   2.224   3.395   1.506  0.2297 -0.3947 -0.3043
  783SOL    HW1 2489   2.243   3.436   1.422  1.0755  1.3832  0.6890
  783SOL    HW2 2490   2.302   3.342   1.525 -0.0251 -0.9144 -0.6975
  784SOL     OW 2491   2.165   3.444   1.208  0.3117  0.3659  0.0077
  784SOL    HW1 2492   2.209   3.362   1.231  0.2752  0.4204  0.2675
  784SOL    HW2 2493   2.078   3.437   1.247  0.7782  1.1269  1.2630
  785SOL     OW 2494   2.701   0.903   1.652  0.1779 -0.4961 -0.2529
  785SOL    HW1 2495   2.766   0.958   1.608 -0.7366 -0.1862 -1.2470
  785SOL    HW2 2496   2.643   0.965   1.696  0.0928 -0.7403 -0.0194
  786SOL     OW 2497   0.493   3.096   1.800 -0.1911 -0.0388  0.3559
  786SOL    HW1 2498   0.425   3.050   1.751 -0.4511  1.0031 -0.2953
  786SOL    HW2 2499   0.575   3.053   1.775 -0.3481  0.3033 -0.7834
  787SOL     OW 2500   2.478   0.652   1.309 -0.3945  0.1474 -0.0667
  787SOL    HW1 2501   2.453   0.560   1.305 -0.9138  0.3245 -1.2435
  787SOL    HW2 2502   2.545   0.656   1.377 -0.4863 -1.0693  0.1081
  788SOL     OW 2503   0.288   3.591   1.482  0.1644 -0.2843 -0.2686
  788SOL    HW1 2504   0.311   3.602   1.574 -0.3542 -1.1121 -0.0311
  788SOL    HW2 2505   0.286   3.496   1.469 -2.5895 -0.2991 -0.3693
  789SOL     OW 2506   3.608   0.746   3.381  0.5217 -0.2551  0.0066
  789SOL    HW1 2507   3.682   0.689   3.402 -0.0394 -2.0077 -2.3194
  789SOL    HW2 2508   3.647   0.823   3.340  1.1493 -1.4173 -1.7329
  790SOL     OW 2509   0.267   3.062   1.630  0.3526 -0.4855  0.7310
  790SOL    HW1 2510   0.262   2.999   1.558  1.0364 -0.2384  0.4615
  790SOL    HW2 2511   0.202   3.031   1.693 -0.9230 -0.1807 -0.3882
  791SOL     OW 2512   0.570   0.071   1.776  0.4857 -0.4585 -0.0839
  791SOL    HW1 2513   0.521   0.116   1.707 -0.0333 -1.9645 -0.7282
  791SOL    HW2 2514   0.517   0.084   1.855  0.5704  0.4160 -0.1579
  792SOL     OW 2515   1.510   0.966   1.220 -0.4162  1.1664 -0.4325
  792SOL    HW1 2516   1.584   0.910   1.245 -1.4340 -0.4393 -0.8940
  792SOL    HW2 2517   1.538   1.007   1.138  0.0550  0.7456 -0.4895
  793SOL     OW 2518   2.981   1.982   3.056  0.2180 -0.5318 -0.1160
  793SOL    HW1 2519   2.948   2.034   3.129 -0.2273 -1.3651  0.2912
  793SOL    HW2 2520   3.027   2.045   3.000  2.6868 -0.2210  2.0895
  794SOL     OW 2521   2.298   0.191   2.784  0.9271 -0.3254 -0.3490
  794SOL    HW1 2522   2.317   0.110   2.831  0.7326 -0.2499 -0.1421
  794SOL    HW2 2523   2.286   0.163   2.693  1.3863 -0.4579 -0.3718
  795SOL     OW 2524   2.427   3.662   1.258 -0.4733 -0.1142  0.8467
  795SOL    HW1 2525   2.459   3.732   1.315 -0.4605  0.5715  0.0090
  795SOL    HW2 2526   2.455   3.581   1.302 -0.8127  0.3855  2.0153
  796SOL     OW 2527   0.154   2.496   1.226  0.1113  0.1513  0.3906
  796SOL    HW1 2528   0.138   2.588   1.247 -0.2823  0.6290 -1.8086
  796SOL    HW2 2529   0.135   2.489   1.133 -0.9205 -2.4112  0.7255
  797SOL     OW 2530   1.112   1.845   2.848  0.3310 -0.3142 -0.0767
  797SOL    HW1 2531   1.203   1.860   2.871  0.5010 -1.3277 -0.0798
  797SOL    HW2 2532   1.101   1.889   2.763  0.4581  0.9377  0.5408
  798SOL     OW 2533   2.093   0.032   0.943 -0.5053 -0.1990 -0.0706
  798SOL    HW1 2534   2.006   0.056   0.912 -0.2855 -1.6672 -1.9858
  798SOL    HW2 2535   2.081   0.015   1.037 -1.9271  1.1084  0.0154
  799SOL     OW 2536   2.348   3.640   2.635 -0.4962  0.0492  0.2790
  799SOL    HW1 2537   2.253   3.651   2.623 -0.1265  1.2914 -1.9568
  799SOL    HW2 2538   2.387   3.708   2.581  1.6959  1.0779  2.9509
  800SOL     OW 2539   1.158   3.645   0.265  0.3253  0.4505 -0.5044
  800SOL    HW1 2540   1.151   3.734   0.231  2.0818  0.6926 -0.2795
  800SOL    HW2 2541   1.124   3.650   0.354 -1.6604  0.3918 -1.2010
  801SOL     OW 2542   3.236   1.765   0.796  0.6946  0.4617  0.2642
  801SOL    HW1 2543   3.239   1.844   0.850 -0.4051  0.1116  0.8613
  801SOL    HW2 2544   3.168   1.783   0.731  0.2021 -0.1153  0.6126
  802SOL     OW 2545   0.730   0.321   2.316  0.0218  0.0934  0.9136
  802SOL    HW1 2546   0.735   0.375   2.396  0.7856 -0.5312  1.2985
  802SOL    HW2 2547   0.719   0.385   2.246 -0.0492  0.6971  1.4578
  803SOL     OW 2548   1.271   2.728   1.189 -0.5592 -0.6226  0.0035
  803SOL    HW1 2549   1.330   2.754   1.259 -1.6425 -0.0332  0.7235
  803SOL    HW2 2550   1.195   2.690   1.233 -0.5831 -1.6935 -0.9132
  804SOL     OW 2551   1.494   1.613   2.203  0.1406 -0.5993 -0.6294
  804SOL    HW1 2552   1.548   1.668   2.146  0.6180  0.1698  0.5167
  804SOL    HW2 2553   1.488   1.529   2.158 -1.3018  0.6028 -2.8545
  805SOL     OW 2554   1.731   1.117   0.854  0.0524 -0.2994  0.1012
  805SOL    HW1 2555   1.706   1.199   0.810 -0.0258  0.5682  1.6875
  805SOL    HW2 2556   1.824   1.106   0.834  0.6763  1.4597  1.7434
  806SOL     OW 2557   1.327   0.575   2.668  0.0970 -0.6350  0.1674
  806SOL    HW1 2558   1.400   0.556   2.727  1.3400 -0.9465 -1.4238
  806SOL    HW2 2559   1.294   0.489   2.642  0.0277 -0.5082 -0.1634
  807SOL     OW 2560   0.520   3.267   2.386  0.4050  0.2650  0.1757
  807SOL    HW1 2561   0.438   3.243   2.343  0.7971  0.9260 -0.9956
  807SOL    HW2 2562   0.566   3.322   2.321  1.1142  1.1202  1.3616
  808SOL     OW 2563   0.879   1.744   2.692 -0.1800  0.4176 -0.1527
  808SOL    HW1 2564   0.937   1.798   2.745  0.6319 -1.3154  0.8189
  808SOL    HW2 2565   0.938   1.692   2.637 -0.9988  2.0791 -2.7491
  809SOL     OW 2566   3.516   1.431   2.041 -0.5092 -0.0197  0.0686
  809SOL    HW1 2567   3.605   1.462   2.058 -0.6060 -0.1949  0.9345
  809SOL    HW2 2568   3.506   1.354   2.097 -1.0496 -0.2639 -0.3607
  810SOL     OW 2569   3.421   2.085   1.877  0.4054 -0.8420 -0.6557
  810SOL    HW1 2570   3.366   2.132   1.814  1.2357  0.6153 -0.3281
  810SOL    HW2 2571   3.504   2.071   1.831  0.6464 -0.7214 -0.2611
  811SOL     OW 2572   1.414   0.511   2.325  0.0138  0.0517  0.4383
  811SOL    HW1 2573   1.359   0.572   2.275 -0.8708 -1.1118 -0.0653
  811SOL    HW2 2574   1.423   0.435   2.268  0.9593 -0.3567  1.1169
  812SOL     OW 2575   2.403   3.275   2.505 -0.4010  0.4686 -0.5728
  812SOL    HW1 2576   2.317   3.305   2.532 -0.0431  0.1728  1.0276
  812SOL    HW2 2577   2.437   3.227   2.581  1.2439  0.7301 -1.0895
  813SOL     OW 2578   1.755   2.298   3.700 -0.0930 -0.1154  0.2589
  813SOL    HW1 2579   1.733   2.208   3.723  0.0977 -1.0916 -2.8632
  813SOL    HW2 2580   1.714   2.312   3.615  0.4641  2.5401  0.3269
  814SOL     OW 2581   3.413   1.418   0.469 -0.4769 -0.1861  0.1305
  814SOL    HW1 2582   3.414   1.433   0.375 -0.9630 -0.4586  0.0778
  814SOL    HW2 2583   3.320   1.413   0.491 -0.3817 -2.5742  0.2339
  815SOL     OW 2584   1.128   2.404   3.025  0.5762  0.1973 -0.2605
  815SOL    HW1 2585   1.048   2.453   3.004  0.3060 -0.6906 -1.4153
  815SOL    HW2 2586   1.190   2.427   2.955  0.4460 -1.0481 -0.8265
  816SOL     OW 2587   3.256   0.873   2.690 -0.0040  0.3736  0.4327
  816SOL    HW1 2588   3.342   0.831   2.678  1.0974  1.8502  2.5855
  816SOL    HW2 2589   3.232   0.854   2.780 -0.4885  2.4730  0.7972
  817SOL     OW 2590   3.426   0.046   3.469 -0.4514  0.1678  0.4091
  817SOL    HW1 2591   3.364   0.003   3.409  0.0881 -2.2279  1.4650
  817SOL    HW2 2592   3.507   0.052   3.419 -0.8495  1.0971 -0.1502
  818SOL     OW 2593   1.189   2.350   0.725  0.4230  0.3140  0.3036
  818SOL    HW1 2594   1.101   2.375   0.694  0.0687  1.6070  2.1315
  818SOL    HW2 2595   1.172   2.303   0.807  1.4199 -0.1364  0.2569
  819SOL     OW 2596   0.292   1.101   3.374  0.3381  0.2489 -0.2589
  819SOL    HW1 2597   0.256   1.163   3.311  1.0184 -0.9595 -1.9123
  819SOL    HW2 2598   0.361   1.055   3.326  1.6110 -0.0046  1.7056
  820SOL     OW 2599   3.192   0.261   0.938 -0.0316 -0.2438 -0.0715
  820SOL    HW1 2600   3.107   0.298   0.913 -0.1922  1.0449  2.1220
  820SOL    HW2 2601   3.238   0.248   0.855 -1.9325  0.0926 -1.2375
  821SOL     OW 2602   1.423   3.411   0.470  0.5662  0.2495 -0.7599
  821SOL    HW1 2603   1.498   3.351   0.477  0.0679 -0.2750  0.2255
  821SOL    HW2 2604   1.356   3.360   0.425 -0.5610 -0.6770  1.8232
  822SOL     OW 2605   0.612   0.926   0.915  0.2788 -0.6854  0.0222
  822SOL    HW1 2606   0.534   0.972   0.946 -0.5170 -2.2363  0.4293
  822SOL    HW2 2607   0.578   0.863   0.850  1.1452 -1.4999  0.3376
  823SOL     OW 2608   3.131   0.568   3.166 -0.2202 -0.2390  0.1988
  823SOL    HW1 2609   3.074   0.645   3.173  0.1782  0.1209 -0.5282
  823SOL    HW2 2610   3.202   0.585   3.227 -1.3958 -1.1604  1.9150
  824SOL     OW 2611   0.657   0.875   0.178 -0.2056 -0.0891  0.2929
  824SOL    HW1 2612   0.710   0.802   0.146 -1.3523 -0.9854  0.3778
  824SOL    HW2 2613   0.719   0.947   0.187  0.9368 -1.0132  0.0995
  825SOL     OW 2614   1.556   2.500   1.789 -0.1268 -0.0533  0.1829
  825SOL    HW1 2615   1.521   2.586   1.813  1.0692  0.3011  0.7500
  825SOL    HW2 2616   1.648   2.503   1.817  0.6307 -0.6046 -2.0950
  826SOL     OW 2617   0.570   3.243   1.527 -0.1099  0.5996 -0.0834
  826SOL    HW1 2618   0.648   3.190   1.546 -2.0719 -2.2795  0.6444
  826SOL    HW2 2619   0.497   3.191   1.560 -2.5146  2.4711 -2.0399
  827SOL     OW 2620   1.973   3.585   1.911  0.2925  0.0023 -0.9742
  827SOL    HW1 2621   2.026   3.595   1.831 -1.2236 -1.0720 -2.1687
  827SOL    HW2 2622   1.913   3.513   1.891 -0.1724 -0.2473  1.1347
  828SOL     OW 2623   2.025   1.005   2.405  0.1471  0.4416 -0.6763
  828SOL    HW1 2624   2.009   1.097   2.426 -0.7698  0.2679 -0.5623
  828SOL    HW2 2625   2.027   1.002   2.310  0.9099  0.6915 -0.6720
  829SOL     OW 2626   2.446   3.288   1.642  0.3997  0.0582 -0.4962
  829SOL    HW1 2627   2.436   3.331   1.726 -1.8187  0.3833 -0.8655
  829SOL    HW2 2628   2.415   3.198   1.657 -0.5585  0.2781 -1.0575
  830SOL     OW 2629   0.059   1.905   0.449  0.2365  0.1986  0.5589
  830SOL    HW1 2630   0.107   1.984   0.422  0.3341 -1.0090 -3.3544
  830SOL    HW2 2631   0.128   1.845   0.479  0.5704  0.3028  0.0121
  831SOL     OW 2632   3.320   0.557   1.020 -0.8672  0.0769 -0.2192
  831SOL    HW1 2633   3.357   0.476   0.984  0.3289  0.3671  0.3110
  831SOL    HW2 2634   3.232   0.531   1.049 -0.9200 -0.7536 -1.0698
  832SOL     OW 2635   0.972   2.638   2.521 -0.1763 -0.0336 -0.5216
  832SOL    HW1 2636   0.994   2.585   2.598 -0.1573 -0.0428 -0.5334
  832SOL    HW2 2637   0.879   2.621   2.506  0.5467 -2.8868 -2.6497
  833SOL     OW 2638   1.737   1.495   3.208  0.5549 -0.0358  0.4971
  833SOL    HW1 2639   1.758   1.421   3.151  1.2837  1.0802 -0.7548
  833SOL    HW2 2640   1.754   1.463   3.296 -1.5207 -2.1379  0.2431
  834SOL     OW 2641   0.063   1.230   2.207  0.4218 -0.3668  0.2530
  834SOL    HW1 2642   0.118   1.272   2.141  2.0765 -1.0508  1.1400
  834SOL    HW2 2643   0.038   1.301   2.265 -0.8041  0.1877 -0.9007
  835SOL     OW 2644   3.038   0.271   2.537 -0.2754 -0.1203  0.1472
  835SOL    HW1 2645   2.979   0.263   2.613 -0.2475 -3.0580 -0.0265
  835SOL    HW2 2646   2.984   0.310   2.469 -0.6890  1.3365  1.2584
  836SOL     OW 2647   1.702   2.280   3.165 -0.4230 -0.0452  0.7259
  836SOL    HW1 2648   1.726   2.370   3.188  1.0900 -0.2050 -0.0907
  836SOL    HW2 2649   1.765   2.255   3.097 -0.9395 -1.6599  0.7969
  837SOL     OW 2650   3.538   1.771   3.445  0.3638 -0.3087 -0.0458
  837SOL    HW1 2651   3.582   1.700   3.397 -0.2808 -0.0291 -1.0841
  837SOL    HW2 2652   3.593   1.848   3.428  0.8375 -0.4604  0.7428
  838SOL     OW 2653   0.554   0.217   0.044 -0.5181 -0.0987 -0.1773
  838SOL    HW1 2654   0.584   0.184  -0.040 -2.2326  2.4545 -1.9133
  838SOL    HW2 2655   0.460   0.230   0.033 -0.3395  3.0962  1.0357
  839SOL     OW 2656   1.624   2.301   0.497 -0.2666 -0.3651 -0.2588
  839SOL    HW1 2657   1.574   2.296   0.579 -1.2537 -2.4641 -0.9284
  839SOL    HW2 2658   1.579   2.369   0.446 -0.8833 -0.4610  0.1477
  840SOL     OW 2659   0.834   0.445   3.630 -0.1900 -0.2601 -0.1691
  840SOL    HW1 2660   0.917   0.486   3.653  0.8936 -1.8009 -1.1875
  840SOL    HW2 2661   0.858   0.368   3.579 -2.1942 -1.4318  0.5353
  841SOL     OW 2662   2.422   1.554   1.609 -0.0798 -0.6024 -0.2051
  841SOL    HW1 2663   2.471   1.611   1.668 -0.0850 -0.1592 -0.6223
  841SOL    HW2 2664   2.334   1.553   1.645 -0.2362  0.1670 -0.5472
  842SOL     OW 2665   1.203   3.233   0.083 -0.0548  0.1148  0.1434
  842SOL    HW1 2666   1.133   3.233   0.018  1.0525  0.8850 -1.1082
  842SOL    HW2 2667   1.168   3.283   0.157 -0.5003  1.3480 -0.8612
  843SOL     OW 2668   3.566   2.642   3.254  0.0038 -0.2359  0.1208
  843SOL    HW1 2669   3.661   2.642   3.243  0.2410 -0.5663  1.8431
  843SOL    HW2 2670   3.535   2.709   3.194  1.0687 -1.6245 -2.1326
  844SOL     OW 2671   3.602   1.803   2.218  0.7965  0.2778 -0.3005
  844SOL    HW1 2672   3.559   1.784   2.302 -0.1629  0.1070 -0.8076
  844SOL    HW2 2673   3.643   1.889   2.230  3.9868 -1.3316  1.5800
  845SOL     OW 2674   3.685   1.442   2.361  0.2136  0.1832  0.1759
  845SOL    HW1 2675   3.593   1.467   2.353  0.5314  1.7603  1.0081
  845SOL    HW2 2676   3.706   1.457   2.453  1.2439 -0.4392  0.0653
  846SOL     OW 2677   0.914   1.051   1.439 -0.0292 -0.0945  0.0567
  846SOL    HW1 2678   1.007   1.072   1.442  0.1903 -1.0594  0.2157
  846SOL    HW2 2679   0.910   0.962   1.404 -0.9249  0.1164 -0.4249
  847SOL     OW 2680   2.982   1.305   1.550  0.2280  0.0371  0.9360
  847SOL    HW1 2681   2.963   1.398   1.539 -0.3194 -0.1091  0.5881
  847SOL    HW2 2682   3.072   1.295   1.522  0.0951  0.3592  0.3814
  848SOL     OW 2683   3.184   1.165   2.894 -0.0650  0.2216  0.2258
  848SOL    HW1 2684   3.204   1.206   2.978 -0.0552 -0.5253  0.5918
  848SOL    HW2 2685   3.139   1.234   2.844  1.7544  1.3567  0.0483
  849SOL     OW 2686   0.170   0.911   2.755  0.4331 -0.1039  0.1969
  849SOL    HW1 2687   0.138   0.999   2.732  1.2387 -0.5475 -3.1293
  849SOL    HW2 2688   0.249   0.928   2.806  1.0661  1.1856 -1.1215
  850SOL     OW 2689   1.536   0.723   1.761  0.1070 -0.1712 -0.5408
  850SOL    HW1 2690   1.614   0.777   1.771 -0.1146  0.1328 -0.4396
  850SOL    HW2 2691   1.524   0.715   1.666 -0.8333  1.3913 -0.5853
  851SOL     OW 2692   3.180   2.017   0.265 -0.4060 -0.1840 -0.8664
  851SOL    HW1 2693   3.141   2.073   0.333  2.1319  1.1359 -0.3625
  851SOL    HW2 2694   3.178   1.929   0.303 -0.1498  0.3364  0.4201
  852SOL     OW 2695   0.161   2.992   0.638  0.4009  0.1142 -0.1732
  852SOL    HW1 2696   0.180   3.083   0.661  3.6411 -0.3264 -0.5374
  852SOL    HW2 2697   0.160   2.991   0.542 -0.5123 -0.0893 -0.1635
  853SOL     OW 2698   3.359   2.005   1.495 -0.7544 -0.0106  0.0024
  853SOL    HW1 2699   3.348   2.025   1.402 -0.7146 -0.0786 -0.0173
  853SOL    HW2 2700   3.430   2.062   1.524 -0.6885 -0.0725 -0.0371
  854SOL     OW 2701   2.262   3.738   2.259 -0.6931  0.5462 -0.1136
  854SOL    HW1 2702   2.228   3.649   2.250 -2.0986  0.9172  1.1172
  854SOL    HW2 2703   2.184   3.793   2.257  0.1469  1.7454 -0.6330
  855SOL     OW 2704   2.015   1.270   2.792  0.0013  0.1556 -0.0093
  855SOL    HW1 2705   2.045   1.197   2.738  0.7834  0.4587 -0.0004
  855SOL    HW2 2706   1.921   1.256   2.803 -0.0905 -0.1292 -1.1005
  856SOL     OW 2707   0.571   2.875   2.782 -0.3175  0.0517  0.5880
  856SOL    HW1 2708   0.578   2.955   2.729 -0.9116 -1.0408 -1.2434
  856SOL    HW2 2709   0.478   2.867   2.802 -0.5284 -0.9596 -0.6161
  857SOL     OW 2710   0.548   3.230   0.919  0.2603 -0.6391  0.3969
  857SOL    HW1 2711   0.461   3.267   0.934  0.3634  1.7563 -3.3493
  857SOL    HW2 2712   0.532   3.138   0.899 -1.3358 -0.4423  0.6282
  858SOL     OW 2713   3.476   2.341   1.135  0.2518 -0.6092 -0.7235
  858SOL    HW1 2714   3.440   2.427   1.158 -0.1425 -1.1143  0.6853
  858SOL    HW2 2715   3.491   2.346   1.041 -1.8596  0.2526 -1.0895
  859SOL     OW 2716   2.606   3.313   3.516  0.1607 -0.5417  0.0287
  859SOL    HW1 2717   2.628   3.262   3.438  0.2533  0.3110 -0.5202
  859SOL    HW2 2718   2.562   3.391   3.481 -1.3234 -0.9259  0.9332
  860SOL     OW 2719   1.847   0.641   0.656  0.5156  0.1197  0.7596
  860SOL    HW1 2720   1.881   0.554   0.636  2.4592  0.3734  2.5269
  860SOL    HW2 2721   1.752   0.631   0.657  0.6247 -1.5184 -0.8768
  861SOL     OW 2722   3.003   1.666   2.717  0.0772  0.0882  0.2422
  861SOL    HW1 2723   3.005   1.760   2.700 -2.2164  0.1506  0.0030
  861SOL    HW2 2724   2.978   1.626   2.634  2.0908 -0.9116  0.0283
  862SOL     OW 2725   1.266   2.959   3.037  0.6691 -1.0046 -0.4041
  862SOL    HW1 2726   1.241   3.051   3.029  1.2020 -0.6105  1.8201
  862SOL    HW2 2727   1.196   2.919   3.089  1.3584 -1.3966  0.2457
  863SOL     OW 2728   1.539   1.310   0.332 -0.6236 -0.2728 -0.6898
  863SOL    HW1 2729   1.528   1.264   0.415 -0.7115  0.2669 -0.3950
  863SOL    HW2 2730   1.630   1.341   0.334 -0.9985  0.8456 -0.2089
  864SOL     OW 2731   0.632   1.449   0.260  0.1763 -0.3455 -0.0499
  864SOL    HW1 2732   0.566   1.487   0.318  1.5673  0.7872  0.8640
  864SOL    HW2 2733   0.638   1.511   0.187 -0.1387 -0.7344 -0.4135
  865SOL     OW 2734   2.260   1.536   1.130  0.7601  0.0810 -0.2990
  865SOL    HW1 2735   2.226   1.566   1.214 -0.9050  1.5465 -1.4439
  865SOL    HW2 2736   2.352   1.561   1.131 -0.2175  4.3644 -0.6767
  866SOL     OW 2737   2.307   2.583   3.292  0.0823 -0.4269  0.7487
  866SOL    HW1 2738   2.240   2.521   3.322 -0.3764  0.5007  1.7063
  866SOL    HW2 2739   2.368   2.589   3.365  1.5604 -1.6676 -0.3144
  867SOL     OW 2740   0.225   0.367   1.703 -0.4608 -0.0250  0.2954
  867SOL    HW1 2741   0.148   0.321   1.671  0.4791 -0.9437 -0.7264
  867SOL    HW2 2742   0.190   0.433   1.763 -2.0020 -0.6412  0.1257
  868SOL     OW 2743   0.827   0.897   2.890 -0.3683 -0.1647  0.1970
  868SOL    HW1 2744   0.830   0.890   2.795 -2.3887  1.5926 -0.0550
  868SOL    HW2 2745   0.855   0.811   2.921  2.5165 -0.1046 -1.8850
  869SOL     OW 2746   1.249   1.150   2.242 -0.0122  0.7095  0.9019
  869SOL    HW1 2747   1.322   1.200   2.205  0.0812  0.0192  0.1324
  869SOL    HW2 2748   1.275   1.058   2.232 -1.3798  0.4144 -0.2569
  870SOL     OW 2749   2.065   2.950   0.045 -0.6230 -0.0273  0.3615
  870SOL    HW1 2750   2.009   2.875   0.066 -1.3632  0.1487 -0.8673
  870SOL    HW2 2751   2.096   2.933  -0.044  0.4990  0.3688  0.6533
  871SOL     OW 2752   1.252   1.211   2.840  0.0373  0.5692  0.2023
  871SOL    HW1 2753   1.295   1.224   2.756  0.3979 -0.4417  0.2135
  871SOL    HW2 2754   1.172   1.262   2.835  0.0273  0.4725 -0.7796
  872SOL     OW 2755   1.143   1.175   0.190 -0.2029  0.1120  0.5707
  872SOL    HW1 2756   1.173   1.108   0.128 -1.0386 -0.5832  0.8994
  872SOL    HW2 2757   1.140   1.256   0.139 -1.0969 -0.4960 -0.3693
  873SOL     OW 2758   3.646   0.074   3.246  0.6868  0.8724  0.4049
  873SOL    HW1 2759   3.642   0.053   3.152  0.5617  0.6792  0.4533
  873SOL    HW2 2760   3.718   0.137   3.253  1.8634 -0.4316  0.4258
  874SOL     OW 2761   0.475   1.893   0.938  0.0403 -0.1102 -0.2412
  874SOL    HW1 2762   0.383   1.865   0.947  0.0114  0.0816  0.1032
  874SOL    HW2 2763   0.520   1.816   0.903 -0.2471 -0.2182 -0.3773
  875SOL     OW 2764   3.245   1.177   1.712  0.2010  0.3325 -0.3811
  875SOL    HW1 2765   3.237   1.217   1.625 -1.1086 -0.4104 -0.6316
  875SOL    HW2 2766   3.330   1.205   1.744  0.7987  0.4413 -2.0015
  876SOL     OW 2767   1.316   1.171   1.584 -0.1387 -0.0487 -0.2513
  876SOL    HW1 2768   1.317   1.249   1.528 -0.0284  0.1597  0.0395
  876SOL    HW2 2769   1.266   1.107   1.534  1.9258 -0.6531 -1.6450
  877SOL     OW 2770   2.166   0.042   1.421  0.3718  0.3651 -0.3966
  877SOL    HW1 2771   2.225  -0.019   1.375  4.0841  2.9826  0.4313
  877SOL    HW2 2772   2.166   0.120   1.367 -1.7463  0.7763  0.1289
  878SOL     OW 2773   1.751   0.337   3.619 -0.0898 -0.0313 -0.5972
  878SOL    HW1 2774   1.701   0.388   3.555 -0.7775  0.1753  0.0830
  878SOL    HW2 2775   1.688   0.320   3.690 -0.3177 -2.9636 -1.3608
  879SOL     OW 2776   2.159   1.361   0.885 -0.2252  0.6814 -0.3636
  879SOL    HW1 2777   2.236   1.386   0.936  1.4890 -0.2292 -2.3367
  879SOL    HW2 2778   2.182   1.382   0.795 -1.5990 -1.1574 -1.2191
  880SOL     OW 2779   3.543   0.594   1.358 -0.6742  0.1177  0.7931
  880SOL    HW1 2780   3.530   0.676   1.405 -2.7448  0.1924  0.1785
  880SOL    HW2 2781   3.459   0.548   1.367  0.5081 -2.0774  1.3619
  881SOL     OW 2782   2.722   2.794   0.165 -0.7783 -0.6426  0.2624
  881SOL    HW1 2783   2.733   2.883   0.132 -1.7034  0.0164  1.6415
  881SOL    HW2 2784   2.640   2.796   0.214  0.6056 -1.4791  2.7968
  882SOL     OW 2785   2.944   3.542   1.754 -0.0298 -0.3151 -0.2467
  882SOL    HW1 2786   2.984   3.499   1.830  1.4667  0.3712 -0.6102
  882SOL    HW2 2787   2.946   3.635   1.776 -0.6857 -0.2032 -0.6401
  883SOL     OW 2788   0.618   0.936   2.352 -1.1641  0.0154 -0.2512
  883SOL    HW1 2789   0.564   0.907   2.278  0.5890 -0.0435 -1.5693
  883SOL    HW2 2790   0.637   1.028   2.333 -2.3412  0.6158  1.2141
  884SOL     OW 2791   0.276   2.815   2.722  0.0400  0.2635 -0.2569
  884SOL    HW1 2792   0.188   2.798   2.690  0.4216  0.5257 -1.5290
  884SOL    HW2 2793   0.333   2.780   2.653  0.9806 -1.2343  1.2080
  885SOL     OW 2794   2.003   1.671   1.029 -0.2266 -0.7067  0.2494
  885SOL    HW1 2795   1.976   1.622   0.950  0.2298 -1.4284  0.5283
  885SOL    HW2 2796   2.098   1.668   1.027 -0.2127 -0.7414  0.8390
  886SOL     OW 2797   1.075   2.594   1.363 -0.2939 -0.2116 -0.1582
  886SOL    HW1 2798   0.986   2.593   1.398  0.3940 -0.3666  1.6789
  886SOL    HW2 2799   1.131   2.613   1.438  1.1913  0.5953 -1.4062
  887SOL     OW 2800   1.566   2.779   1.185  0.0998 -0.2148  0.3070
  887SOL    HW1 2801   1.477   2.756   1.156 -0.1396  0.8027  0.1995
  887SOL    HW2 2802   1.564   2.874   1.196  1.7000  0.0777 -1.4887
  888SOL     OW 2803   3.651   2.488   1.723  0.5102  0.5647  0.0576
  888SOL    HW1 2804   3.693   2.476   1.638 -1.0540 -0.2763 -0.6379
  888SOL    HW2 2805   3.635   2.582   1.729  0.4263  0.6005 -0.6800
  889SOL     OW 2806   2.513   1.970   0.314  0.5109 -0.2133  0.5887
  889SOL    HW1 2807   2.504   1.995   0.222 -1.1462  1.9159  1.2437
  889SOL    HW2 2808   2.579   2.030   0.349 -2.6486  2.8868  1.8970
  890SOL     OW 2809   2.295   2.993   0.917 -0.1642 -0.0574 -0.3102
  890SOL    HW1 2810   2.236   3.065   0.939  0.1225 -0.3163  1.4582
  890SOL    HW2 2811   2.310   2.948   1.000 -0.4244 -2.2443 -1.3699
  891SOL     OW 2812   2.507   3.602   0.509  0.0607 -0.1978  0.2093
  891SOL    HW1 2813   2.535   3.599   0.601 -0.6113 -2.4617  0.3868
  891SOL    HW2 2814   2.524   3.693   0.483  1.3406  0.2170  2.2132
  892SOL     OW 2815   3.079   0.317   1.588  0.0585 -0.0313  0.2889
  892SOL    HW1 2816   3.140   0.386   1.562 -1.2016  0.9509 -0.1830
  892SOL    HW2 2817   3.118   0.279   1.666  0.3020  1.8955  1.1587
  893SOL     OW 2818   1.771   2.521   3.055 -0.9226  0.0091  0.6122
  893SOL    HW1 2819   1.713   2.551   3.124 -1.2768  0.5497  0.0854
  893SOL    HW2 2820   1.845   2.581   3.058 -0.2379 -0.8345  1.4557
  894SOL     OW 2821   3.642   1.734   0.279  0.0466 -0.1261 -0.1778
  894SOL    HW1 2822   3.695   1.793   0.332  0.6324 -0.2798 -0.5859
  894SOL    HW2 2823   3.568   1.711   0.336  1.3890 -1.4327  1.1638
  895SOL     OW 2824   1.176   1.122   1.964  0.3732  0.4975 -0.4208
  895SOL    HW1 2825   1.177   1.105   1.870  1.7127  1.1046 -0.5423
  895SOL    HW2 2826   1.244   1.189   1.977  1.4908 -0.8751  1.2016
  896SOL     OW 2827   2.588   0.316   3.111  0.7712  0.0859 -0.3774
  896SOL    HW1 2828   2.556   0.361   3.033 -0.7211 -0.8711 -0.3705
  896SOL    HW2 2829   2.665   0.365   3.138  0.1970  1.5861 -1.3454
  897SOL     OW 2830   2.441   3.410   2.819 -0.0199 -0.6020 -0.1147
  897SOL    HW1 2831   2.435   3.465   2.741  1.9157 -2.4711 -1.7216
  897SOL    HW2 2832   2.530   3.426   2.852 -0.5858 -0.3383  1.3369
  898SOL     OW 2833   1.349   0.890   0.730 -0.1602 -0.7994  0.2727
  898SOL    HW1 2834   1.363   0.902   0.636 -1.0874 -0.0963  0.2054
  898SOL    HW2 2835   1.264   0.846   0.736 -0.8258  0.4926  0.7978
  899SOL     OW 2836   0.466   2.318   0.314 -0.1002 -0.2027 -0.1323
  899SOL    HW1 2837   0.422   2.396   0.279 -0.5032  0.1822  1.2024
  899SOL    HW2 2838   0.517   2.350   0.388 -0.4552 -1.2438  0.5827
  900SOL     OW 2839   3.300   3.260   1.766  0.5671  0.3834 -0.2550
  900SOL    HW1 2840   3.356   3.218   1.832 -1.1320 -2.9745 -0.7689
  900SOL    HW2 2841   3.354   3.262   1.687  1.3133  0.9448  0.2544
  901SOL     OW 2842   0.260   1.061   2.367 -0.1046  0.4197 -0.4385
  901SOL    HW1 2843   0.200   0.995   2.404  0.9175 -1.8657 -2.5608
  901SOL    HW2 2844   0.208   1.141   2.364 -1.9896 -0.6798  0.7329
  902SOL     OW 2845   1.537   3.153   0.928 -0.0670 -0.0574  0.3620
  902SOL    HW1 2846   1.474   3.081   0.936 -1.8602  1.2959 -0.7743
  902SOL    HW2 2847   1.535   3.176   0.835  2.1226  0.0953  0.2839
  903SOL     OW 2848   1.136   1.830   2.002 -0.2464  0.1852  0.4586
  903SOL    HW1 2849   1.185   1.763   1.956 -0.5561  0.5243 -0.3913
  903SOL    HW2 2850   1.197   1.866   2.066 -0.3149 -1.4298  1.4841
  904SOL     OW 2851   3.124   0.664   1.819  0.3585 -0.2535 -0.3380
  904SOL    HW1 2852   3.201   0.648   1.764 -0.0051 -3.0994 -0.1403
  904SOL    HW2 2853   3.158   0.718   1.891  1.5557  0.7611 -1.6120
  905SOL     OW 2854   2.388   0.697   0.890  0.0877 -0.1853 -0.2698
  905SOL    HW1 2855   2.326   0.634   0.855  0.7636 -1.2352  0.3913
  905SOL    HW2 2856   2.446   0.646   0.947 -0.5554  1.3388  1.8755
  906SOL     OW 2857   2.559   2.931   2.125  0.5816  0.1516 -0.7043
  906SOL    HW1 2858   2.643   2.972   2.106  0.5559 -0.0281 -1.2188
  906SOL    HW2 2859   2.536   2.961   2.213  1.1359  0.2768 -0.6046
  907SOL     OW 2860   3.214   3.002   3.152  0.5119  0.1936 -0.2303
  907SOL    HW1 2861   3.231   3.016   3.245 -1.1945 -1.8509  0.4867
  907SOL    HW2 2862   3.279   2.937   3.125  0.1296 -0.2590 -0.0773
  908SOL     OW 2863   1.398   2.118   2.377  0.1217 -0.5805  0.1573
  908SOL    HW1 2864   1.395   2.192   2.438  1.9112  0.5855 -1.0673
  908SOL    HW2 2865   1.356   2.047   2.424 -1.1484  1.0383  1.6209
  909SOL     OW 2866   2.363   1.066   1.440  0.3523  0.0607  0.3631
  909SOL    HW1 2867   2.314   1.135   1.395 -0.1378 -0.2988  0.3330
  909SOL    HW2 2868   2.439   1.051   1.384  0.6837  0.8674  0.5905
  910SOL     OW 2869   1.272   0.238   3.028  0.4321  0.0369 -0.5163
  910SOL    HW1 2870   1.350   0.283   3.061 -0.6943  1.3290  0.5399
  910SOL    HW2 2871   1.299   0.147   3.016  2.4971  0.7470 -1.6461
  911SOL     OW 2872   1.112   2.244   1.571  0.2462 -0.0501  0.3878
  911SOL    HW1 2873   1.111   2.239   1.475  2.1567 -1.5404  0.3877
  911SOL    HW2 2874   1.150   2.330   1.590 -0.0041  0.1931 -0.2014
  912SOL     OW 2875   3.469   0.896   1.832 -0.1163  0.0825  0.5621
  912SOL    HW1 2876   3.536   0.965   1.833 -1.3031  1.2810  1.4003
  912SOL    HW2 2877   3.392   0.937   1.871 -1.2149 -1.3977  0.0484
  913SOL     OW 2878   3.588   0.110   0.877  0.0077  0.2372  0.2105
  913SOL    HW1 2879   3.539   0.067   0.807 -0.3565 -2.1444  1.8345
  913SOL    HW2 2880   3.536   0.095   0.956  1.9333  0.0769  1.5227
  914SOL     OW 2881   1.302   0.179   1.375  1.1100  0.7138 -0.4940
  914SOL    HW1 2882   1.370   0.217   1.430  0.6778  0.5890  0.1353
  914SOL    HW2 2883   1.225   0.233   1.390  0.6048 -0.1500  0.0973
  915SOL     OW 2884   3.187   1.536   1.755 -0.0837 -0.0618  0.8140
  915SOL    HW1 2885   3.114   1.570   1.807 -0.8593 -2.1228  1.1587
  915SOL    HW2 2886   3.259   1.596   1.773 -2.0036  2.9747 -0.7264
  916SOL     OW 2887   2.539   2.174   3.543  0.2998  0.2469 -0.4779
  916SOL    HW1 2888   2.622   2.158   3.500 -0.0203  0.8311 -1.3403
  916SOL    HW2 2889   2.545   2.264   3.575 -0.1093  0.3879 -0.7920
  917SOL     OW 2890   2.483   2.033   2.692  0.3488  0.1628 -0.3042
  917SOL    HW1 2891   2.522   2.027   2.605  0.8331 -3.1934  0.0097
  917SOL    HW2 2892   2.547   1.992   2.750 -0.6904  0.8022  1.3856
  918SOL     OW 2893   2.779   0.153   0.094  0.6891 -0.1676  0.4018
  918SOL    HW1 2894   2.818   0.142   0.007 -1.1764  0.9173 -0.6203
  918SOL    HW2 2895   2.799   0.243   0.117  0.2759 -0.1338  0.6306
  919SOL     OW 2896   1.785   1.427   0.293 -0.5974  0.0664  0.7133
  919SOL    HW1 2897   1.875   1.430   0.260 -0.8399 -1.5523 -0.1408
  919SOL    HW2 2898   1.794   1.445   0.387  1.1304 -3.6789  1.4548
  920SOL     OW 2899   2.308   0.602   2.122  0.8502 -0.1396 -0.1494
  920SOL    HW1 2900   2.254   0.524   2.115 -0.7516  0.8289  0.8083
  920SOL    HW2 2901   2.325   0.627   2.031  0.5135 -1.0043 -0.4623
  921SOL     OW 2902   2.200   0.330   2.064  0.0422  0.3051  0.6045
  921SOL    HW1 2903   2.216   0.276   2.141 -0.9766 -0.6673  0.1621
  921SOL    HW2 2904   2.198   0.268   1.991 -0.5746  1.0023  0.0090
  922SOL     OW 2905   1.127   1.369   0.382 -0.0366  0.1605 -0.4911
  922SOL    HW1 2906   1.150   1.283   0.345  0.1549  0.7922 -1.8789
  922SOL    HW2 2907   1.045   1.353   0.429  1.6860 -1.5302  2.2497
  923SOL     OW 2908   0.368   0.253   0.538 -0.5565 -0.3961 -0.1199
  923SOL    HW1 2909   0.376   0.171   0.489  2.1971 -1.2611  1.5423
  923SOL    HW2 2910   0.393   0.321   0.475 -1.6368 -0.9185 -1.1600
  924SOL     OW 2911   3.555   3.487   0.090  0.1084 -0.5522 -0.1862
  924SOL    HW1 2912   3.490   3.444   0.035 -0.0916 -0.2537 -0.1881
  924SOL    HW2 2913   3.587   3.561   0.037  1.5753 -1.5787 -0.8044
  925SOL     OW 2914   1.164   3.519   2.542  0.0870  0.4695 -0.1956
  925SOL    HW1 2915   1.113   3.446   2.579 -0.3466  0.9483  0.1611
  925SOL    HW2 2916   1.201   3.483   2.462  1.7951 -0.8879  1.1253
  926SOL     OW 2917   0.734   0.369   2.796 -0.1323 -0.6159  0.4333
  926SOL    HW1 2918   0.718   0.395   2.705  2.3041 -0.5330 -0.0450
  926SOL    HW2 2919   0.716   0.449   2.847  0.3521 -0.0934 -0.2020
  927SOL     OW 2920   2.403   3.032   3.007 -0.2543 -0.3505 -0.1442
  927SOL    HW1 2921   2.435   2.942   3.004 -1.8403 -0.9714  0.4850
  927SOL    HW2 2922   2.480   3.086   2.987  0.9460 -1.7925  0.4247
  928SOL     OW 2923   3.288   0.013   1.426 -0.1456 -0.1391 -0.2854
  928SOL    HW1 2924   3.194   0.001   1.441 -0.1543  0.1783 -0.0707
  928SOL    HW2 2925   3.319   0.057   1.505  0.3727 -1.1141  0.0692
  929SOL     OW 2926   1.190   1.498   2.322  0.6488  0.5031  0.2068
  929SOL    HW1 2927   1.232   1.489   2.236 -1.6020 -0.0888 -0.9193
  929SOL    HW2 2928   1.193   1.410   2.360 -0.5836  0.1711 -0.4175
  930SOL     OW 2929   0.315   1.100   1.497  0.1050  0.0748 -0.1121
  930SOL    HW1 2930   0.270   1.096   1.412 -0.0157  0.3337 -0.0596
  930SOL    HW2 2931   0.280   1.178   1.539  1.6225  1.0822 -0.6361
  931SOL     OW 2932   1.106   3.098   1.867  0.1975  0.1164 -0.1753
  931SOL    HW1 2933   1.097   3.044   1.789  2.4789 -0.7929  0.0985
  931SOL    HW2 2934   1.046   3.171   1.854 -0.6345 -0.8521 -2.0210
  932SOL     OW 2935   0.546   0.837   3.646  0.4795 -0.0911 -0.4818
  932SOL    HW1 2936   0.547   0.929   3.618  0.7237  0.3300  0.8322
  932SOL    HW2 2937   0.606   0.834   3.720 -2.3545 -0.4476  1.9798
  933SOL     OW 2938   0.209   0.801   0.795  0.3652  0.2600 -0.1584
  933SOL    HW1 2939   0.183   0.885   0.758  0.1060  0.1709 -0.1808
  933SOL    HW2 2940   0.164   0.797   0.880  1.6758  0.8668  0.5897
  934SOL     OW 2941   1.776   0.418   0.497 -0.4763  0.5922  0.6931
  934SOL    HW1 2942   1.694   0.446   0.457 -0.5922 -0.6918 -0.0071
  934SOL    HW2 2943   1.772   0.323   0.498 -0.2280  0.5217  3.2700
  935SOL     OW 2944   2.091   1.264   2.114 -0.3159 -0.2055  0.5971
  935SOL    HW1 2945   2.073   1.265   2.208  0.4777 -2.5016  0.8149
  935SOL    HW2 2946   2.174   1.311   2.104  0.1769 -0.9460  1.1869
  936SOL     OW 2947   2.366   3.268   3.264  0.0445 -0.0212  0.3679
  936SOL    HW1 2948   2.315   3.264   3.183  0.5762  0.3639  0.0075
  936SOL    HW2 2949   2.390   3.177   3.282 -1.8837 -0.3996  1.2807
  937SOL     OW 2950   2.737   3.639   0.898  0.5925 -0.2836 -0.0120
  937SOL    HW1 2951   2.823   3.678   0.907  1.2340 -1.5911 -0.1767
  937SOL    HW2 2952   2.685   3.703   0.850  1.0033  1.1858  1.4166
  938SOL     OW 2953   0.971   3.705   0.478 -0.5839  0.1082  0.7490
  938SOL    HW1 2954   0.908   3.648   0.521  0.2345  0.3453  2.3175
  938SOL    HW2 2955   0.953   3.792   0.513  1.0921  0.0569  1.8482
  939SOL     OW 2956   1.809   1.077   1.264 -0.1809  0.2951  0.9314
  939SOL    HW1 2957   1.863   1.049   1.190  0.9643 -0.0555  1.8626
  939SOL    HW2 2958   1.831   1.170   1.276 -0.7576  0.4899  0.5175
  940SOL     OW 2959   1.818   3.038   0.743  0.1334 -0.8081 -0.3994
  940SOL    HW1 2960   1.810   3.125   0.704 -0.3344  0.0862  1.6066
  940SOL    HW2 2961   1.775   2.980   0.680 -1.5845  0.7345 -0.7210
  941SOL     OW 2962   3.010   1.694   0.151 -0.2811 -0.1772  0.1205
  941SOL    HW1 2963   2.960   1.761   0.198 -0.9193 -0.8726  0.4509
  941SOL    HW2 2964   3.063   1.652   0.219 -0.9982 -0.9980  0.1882
  942SOL     OW 2965   0.192   1.647   0.563 -0.0273  0.3872 -0.0468
  942SOL    HW1 2966   0.129   1.624   0.631 -0.6321  0.3719 -0.6086
  942SOL    HW2 2967   0.223   1.564   0.528 -2.1802  0.3292 -2.0466
  943SOL     OW 2968   3.292   2.182   1.240  0.3888 -0.0923 -0.5550
  943SOL    HW1 2969   3.215   2.232   1.213  0.0464 -1.3951 -2.1082
  943SOL    HW2 2970   3.366   2.241   1.224 -0.1868  0.7957 -0.0142
  944SOL     OW 2971   0.424   0.570   1.285 -0.1694  0.4604  0.0723
  944SOL    HW1 2972   0.498   0.614   1.328 -0.2568  2.1639 -1.3855
  944SOL    HW2 2973   0.430   0.598   1.193 -2.4069  0.3421 -0.1649
  945SOL     OW 2974   2.439   0.876   3.389 -0.3784 -0.1814  0.0330
  945SOL    HW1 2975   2.354   0.890   3.430  0.1277 -1.3577  1.5746
  945SOL    HW2 2976   2.469   0.964   3.366 -2.8315  0.1465 -2.4222
  946SOL     OW 2977   0.495   3.646   2.096 -0.1975  0.3206 -1.0647
  946SOL    HW1 2978   0.549   3.723   2.115  2.4548 -2.2452  3.1671
  946SOL    HW2 2979   0.535   3.607   2.018  2.8372 -0.2772  0.6536
  947SOL     OW 2980   1.813   1.762   0.144  0.1218  0.3799 -0.2287
  947SOL    HW1 2981   1.838   1.673   0.168  1.4192  0.9484  0.6016
  947SOL    HW2 2982   1.896   1.808   0.133 -0.5392  1.7451  0.3245
  948SOL     OW 2983   2.544   1.888   1.122 -0.2512 -0.7294  0.4399
  948SOL    HW1 2984   2.531   1.936   1.204  1.0868  1.4676 -0.5459
  948SOL    HW2 2985   2.623   1.837   1.136  1.8877  2.1181 -0.4171
  949SOL     OW 2986   1.742   2.836   1.959 -0.2425  0.4925  0.1618
  949SOL    HW1 2987   1.704   2.775   1.896 -0.3959  0.7227  0.0312
  949SOL    HW2 2988   1.696   2.919   1.944  0.5315  0.8600 -0.2117
  950SOL     OW 2989   0.848   0.630   0.412  0.4307  0.3127 -0.5064
  950SOL    HW1 2990   0.786   0.587   0.471 -2.6825  2.8706 -1.5992
  950SOL    HW2 2991   0.894   0.558   0.369 -2.0300 -1.8354  0.1897
  951SOL     OW 2992   1.887   1.255   2.400  0.2146 -0.4842 -0.3327
  951SOL    HW1 2993   1.826   1.310   2.450 -0.8280  0.6806 -2.7533
  951SOL    HW2 2994   1.831   1.190   2.358  1.1971 -2.0691  0.6927
  952SOL     OW 2995   2.300   2.974   3.376  0.3616 -0.6605  0.1490
  952SOL    HW1 2996   2.333   3.021   3.453 -0.7659 -0.5030  0.5544
  952SOL    HW2 2997   2.211   2.949   3.400 -0.0071 -0.6189 -1.1063
  953SOL     OW 2998   1.473   0.446   0.473  0.4103 -0.1576 -0.3652
  953SOL    HW1 2999   1.472   0.357   0.508  1.1417  0.7065  2.0226
  953SOL    HW2 3000   1.381   0.472   0.470  0.3402 -0.1174  1.4026
  954SOL     OW 3001   3.394   3.491   2.145  0.1242  0.7510 -0.5289
  954SOL    HW1 3002   3.352   3.407   2.125 -1.2864  1.1142  0.6738
  954SOL    HW2 3003   3.488   3.474   2.136 -0.0104 -1.4583  1.3368
  955SOL     OW 3004   0.288   3.331   1.016 -0.2678 -0.1541 -0.1726
  955SOL    HW1 3005   0.220   3.392   0.987 -0.0935  0.0138 -0.2354
  955SOL    HW2 3006   0.332   3.377   1.088 -0.0924 -0.1762 -0.2643
  956SOL     OW 3007   2.634   1.077   3.626  0.2111 -0.1378  0.6151
  956SOL    HW1 3008   2.539   1.066   3.615  0.5954 -3.2484 -0.6417
  956SOL    HW2 3009   2.655   1.021   3.701  1.1808 -0.2942  0.2320
  957SOL     OW 3010   2.958   2.474   2.669  0.6392 -0.2905 -0.1189
  957SOL    HW1 3011   2.868   2.443   2.678  0.5032 -0.1276 -0.8448
  957SOL    HW2 3012   2.954   2.537   2.597  1.4158 -0.6034 -0.4343
  958SOL     OW 3013   0.175   0.169   3.164 -0.7641  0.0327 -0.4043
  958SOL    HW1 3014   0.140   0.253   3.193 -0.0633  0.5367 -0.9685
  958SOL    HW2 3015   0.219   0.133   3.241 -0.4847  0.5036 -0.3424
  959SOL     OW 3016   1.213   0.131   0.628 -0.0385  0.1363 -0.0573
  959SOL    HW1 3017   1.264   0.197   0.676 -0.5914 -0.2881  1.1375
  959SOL    HW2 3018   1.128   0.130   0.671 -0.3686 -0.6618 -0.6987
  960SOL     OW 3019   2.726   2.857   1.162 -0.0437  0.7199 -0.2952
  960SOL    HW1 3020   2.701   2.948   1.181 -2.3779  0.1915 -0.4806
  960SOL    HW2 3021   2.718   2.850   1.067 -0.2128  0.2497 -0.2484
  961SOL     OW 3022   2.965   0.709   2.306  0.0402  0.1161 -0.0557
  961SOL    HW1 3023   3.028   0.693   2.377  1.6795 -1.4122 -1.7432
  961SOL    HW2 3024   2.883   0.731   2.351  1.0637 -0.5398  2.2908
  962SOL     OW 3025   0.751   1.709   0.535  0.2012 -0.5236 -0.0044
  962SOL    HW1 3026   0.720   1.724   0.625 -0.3120  1.6991 -0.4916
  962SOL    HW2 3027   0.672   1.709   0.482  0.6162 -0.1066 -0.6359
  963SOL     OW 3028   2.922   1.634   3.022 -0.0469  0.1411  0.7693
  963SOL    HW1 3029   2.846   1.629   3.079  1.4391 -0.1434  2.8289
  963SOL    HW2 3030   2.987   1.683   3.072  1.2271  0.1488 -0.8151
  964SOL     OW 3031   2.348   2.896   2.487 -0.0760  0.1864 -0.4521
  964SOL    HW1 3032   2.372   2.987   2.473  0.5229  0.3031  1.0728
  964SOL    HW2 3033   2.415   2.862   2.546 -1.3211 -0.6934  0.5336
  965SOL     OW 3034   3.227   2.109   0.700 -0.1072  0.6749 -0.2788
  965SOL    HW1 3035   3.279   2.173   0.650  0.6599  0.4218  0.1824
  965SOL    HW2 3036   3.279   2.092   0.778 -1.4097  1.2385  0.7349
  966SOL     OW 3037   2.936   0.479   1.858 -0.0794 -0.4093 -0.0716
  966SOL    HW1 3038   2.900   0.474   1.947  0.7840  0.8853  0.3734
  966SOL    HW2 3039   3.011   0.537   1.866 -2.0538  2.7447 -2.2740
  967SOL     OW 3040   3.535   0.930   1.094 -0.3933  0.5587  0.1485
  967SOL    HW1 3041   3.445   0.933   1.128 -0.5638 -1.0626 -0.0608
  967SOL    HW2 3042   3.550   0.837   1.077  1.2797  0.8332  0.0274
  968SOL     OW 3043   0.847   0.036   1.809 -0.2733  0.1340 -0.0487
  968SOL    HW1 3044   0.761   0.073   1.789 -1.2096 -1.0613  1.4895
  968SOL    HW2 3045   0.889   0.102   1.864  0.9093  1.8686 -2.8325
  969SOL     OW 3046   2.876   0.116   3.006  0.1879  0.2930  0.0257
  969SOL    HW1 3047   2.853   0.209   3.001  1.3353  0.5508 -1.6768
  969SOL    HW2 3048   2.833   0.077   2.930 -1.4269 -0.8810  1.4921
  970SOL     OW 3049   3.176   2.907   0.131  0.4467 -0.4005 -0.0768
  970SOL    HW1 3050   3.193   2.975   0.065  3.4682  0.4314  1.4150
  970SOL    HW2 3051   3.095   2.935   0.173  1.2513  2.0162  0.0519
  971SOL     OW 3052   1.748   3.542   3.747  0.0332 -0.5377  0.6166
  971SOL    HW1 3053   1.824   3.486   3.729  0.8930 -0.1172  2.6154
  971SOL    HW2 3054   1.700   3.544   3.664  0.3668 -3.5545  0.2016
  972SOL     OW 3055   1.518   2.985   3.122 -0.0643  0.2877 -0.1521
  972SOL    HW1 3056   1.426   2.970   3.103  0.2887 -0.3725 -1.4896
  972SOL    HW2 3057   1.565   2.924   3.065  1.2060  0.8208  0.2713
  973SOL     OW 3058   0.870   1.286   3.578  0.0507 -0.3155 -0.0656
  973SOL    HW1 3059   0.898   1.364   3.626  0.1299  0.1653 -0.8741
  973SOL    HW2 3060   0.812   1.320   3.510 -1.1916 -1.1268  0.5451
  974SOL     OW 3061   2.851   3.454   3.143 -0.1624  0.1024 -0.0499
  974SOL    HW1 3062   2.765   3.495   3.145  0.0275  0.7178 -2.0353
  974SOL    HW2 3063   2.906   3.510   3.197 -0.8892 -0.0476  0.8655
  975SOL     OW 3064   0.776   3.362   0.271 -0.5487 -0.0799 -0.2994
  975SOL    HW1 3065   0.705   3.347   0.334 -0.4217  0.1642 -0.0982
  975SOL    HW2 3066   0.735   3.348   0.185 -0.5597 -1.1153 -0.1458
  976SOL     OW 3067   2.194   3.638   3.284 -0.3198  0.2316 -0.2958
  976SOL    HW1 3068   2.277   3.672   3.316 -0.4668  2.9712 -2.4742
  976SOL    HW2 3069   2.134   3.648   3.358  0.5930  1.0792  0.3575
  977SOL     OW 3070   3.512   2.527   3.741  0.2494  1.2480 -0.1906
  977SOL    HW1 3071   3.448   2.593   3.716 -1.0453  1.0778  2.2812
  977SOL    HW2 3072   3.499   2.455   3.679 -2.5090  0.9567  0.6049
  978SOL     OW 3073   0.565   0.955   1.503  0.2695  0.5739  0.1803
  978SOL    HW1 3074   0.617   1.011   1.560 -0.8570 -1.6914  3.7785
  978SOL    HW2 3075   0.478   0.995   1.502 -0.1220 -0.2213  1.4230
  979SOL     OW 3076   1.747   3.701   2.152  0.3167  0.1634  0.5640
  979SOL    HW1 3077   1.672   3.722   2.207  0.1306 -0.3614  0.5170
  979SOL    HW2 3078   1.733   3.610   2.125 -0.2675  0.8004 -1.4335
  980SOL     OW 3079   3.281   3.307   0.664 -0.8166  0.4492 -0.5468
  980SOL    HW1 3080   3.250   3.394   0.689 -1.7250 -0.2230  0.7855
  980SOL    HW2 3081   3.201   3.258   0.645 -0.3196 -0.1590 -1.1466
  981SOL     OW 3082   0.673   1.551   3.237  1.0383  0.2254  0.3107
  981SOL    HW1 3083   0.689   1.499   3.158 -0.1959  1.3992 -0.7598
  981SOL    HW2 3084   0.679   1.642   3.208 -1.9901  0.7222  0.9114
  982SOL     OW 3085   3.680   2.055   2.261 -0.0265  0.4123  0.0229
  982SOL    HW1 3086   3.672   2.099   2.346  1.0693  0.8597 -0.0919
  982SOL    HW2 3087   3.666   2.125   2.197 -0.2975  0.1843 -0.1681
  983SOL     OW 3088   1.338   3.494   0.021  0.6950  0.6083  0.0764
  983SOL    HW1 3089   1.402   3.487   0.092  0.3102 -1.2907  0.3130
  983SOL    HW2 3090   1.269   3.431   0.045  0.4669  0.0553 -1.8705
  984SOL     OW 3091   0.956   0.112   0.762 -0.2650 -0.1865 -0.1269
  984SOL    HW1 3092   0.916   0.059   0.830 -1.1790  2.1317  1.2508
  984SOL    HW2 3093   0.969   0.198   0.802 -2.1044  1.7165 -3.1931
  985SOL     OW 3094   2.133   0.955   3.497 -0.3276 -0.1721 -0.3705
  985SOL    HW1 3095   2.073   1.026   3.519  0.8626  1.0835 -1.0003
  985SOL    HW2 3096   2.108   0.930   3.407  0.0468  0.3068 -0.6093
  986SOL     OW 3097   0.241   1.392   2.433  0.1439  0.3363  0.5672
  986SOL    HW1 3098   0.280   1.380   2.346  0.1502  0.7979  0.5020
  986SOL    HW2 3099   0.246   1.486   2.448 -0.9565  0.4062  0.5498
  987SOL     OW 3100   2.152   0.416   1.584 -0.2239 -0.7124  0.0792
  987SOL    HW1 3101   2.192   0.473   1.650 -0.9930 -0.0779  0.0117
  987SOL    HW2 3102   2.071   0.385   1.624  0.6489 -2.5776  0.4979
  988SOL     OW 3103   1.994   1.542   0.116  0.4303 -0.7126  0.3655
  988SOL    HW1 3104   2.051   1.616   0.138  0.5433 -1.1703  1.7613
  988SOL    HW2 3105   2.023   1.514   0.030  1.7065 -0.3485  0.6517
  989SOL     OW 3106   1.674   1.142   2.163 -0.0062  0.0649  0.9953
  989SOL    HW1 3107   1.679   1.137   2.258 -1.1249 -0.0084  1.0687
  989SOL    HW2 3108   1.643   1.055   2.136  1.2343 -0.2369  0.4744
  990SOL     OW 3109   1.980   2.419   1.305  0.4883  0.7647 -0.3134
  990SOL    HW1 3110   2.057   2.475   1.319  1.0589  0.0757 -0.6145
  990SOL    HW2 3111   2.003   2.366   1.229 -0.7392  1.3106 -1.1013
  991SOL     OW 3112   1.090   2.659   0.666  0.7525  0.3725  0.7590
  991SOL    HW1 3113   1.112   2.692   0.754  0.3885 -0.3400  1.1278
  991SOL    HW2 3114   1.010   2.706   0.642 -1.0150 -1.7106  2.1984
  992SOL     OW 3115   2.383   0.191   3.592  0.3623  0.3596  1.1240
  992SOL    HW1 3116   2.407   0.213   3.682  1.3087 -2.4598  1.6313
  992SOL    HW2 3117   2.467   0.184   3.546 -0.0858  1.0738  0.1490
  993SOL     OW 3118   1.685   0.686   1.062 -0.4948  0.1407  0.1711
  993SOL    HW1 3119   1.687   0.695   1.157  0.6949 -1.1148  0.2980
  993SOL    HW2 3120   1.636   0.762   1.031 -2.4255 -0.3245  1.8846
  994SOL     OW 3121   3.587   2.984   0.741 -0.0600 -0.3338  0.4781
  994SOL    HW1 3122   3.625   2.918   0.683  0.3756  0.1083  0.2462
  994SOL    HW2 3123   3.570   3.059   0.684 -1.1474 -0.4655  0.6149
  995SOL     OW 3124   3.462   1.734   0.491  0.3555  0.4149  0.3821
  995SOL    HW1 3125   3.481   1.665   0.554  2.7383  0.7462  0.1329
  995SOL    HW2 3126   3.482   1.815   0.537 -0.5259  0.8350  0.0453
  996SOL     OW 3127   2.657   2.410   0.290  0.0548 -0.2430  0.1198
  996SOL    HW1 3128   2.589   2.348   0.317 -0.1841 -0.3095 -0.6174
  996SOL    HW2 3129   2.724   2.356   0.248  0.0804 -0.0564 -0.0779
  997SOL     OW 3130   3.307   3.542   0.218  0.1626  0.2202  0.3758
  997SOL    HW1 3131   3.289   3.451   0.194 -1.9131  0.9623 -1.1660
  997SOL    HW2 3132   3.381   3.567   0.163  0.2309 -0.2981  0.2293
  998SOL     OW 3133   2.381   3.463   3.458 -0.5287  0.2254 -0.3752
  998SOL    HW1 3134   2.351   3.410   3.385  1.0545 -0.3028 -0.6926
  998SOL    HW2 3135   2.394   3.550   3.421  3.6119 -0.7543 -1.7878
  999SOL     OW 3136   1.534   3.676   3.094  0.1125  0.2788 -0.5256
  999SOL    HW1 3137   1.588   3.695   3.171  1.0457  2.4326 -1.6099
  999SOL    HW2 3138   1.444   3.690   3.123  0.3459 -0.2971  0.5130
 1000SOL     OW 3139   3.140   0.375   2.933  0.4414 -0.0209  0.2520
 1000SOL    HW1 3140   3.145   0.466   2.904  0.1767 -0.0846 -0.0054
 1000SOL    HW2 3141   3.046   0.356   2.936  0.4542  0.0544  1.4027
 1001SOL     OW 3142   3.537   1.266   0.183 -0.5301 -0.3319  0.5980
 1001SOL    HW1 3143   3.528   1.229   0.271 -0.1263 -1.3721  0.2168
 1001SOL    HW2 3144   3.476   1.215   0.129  1.2775 -1.7097 -0.2888
 1002SOL     OW 3145   2.564   1.559   1.043 -0.0428 -0.1545 -0.1334
 1002SOL    HW1 3146   2.625   1.487   1.024 -0.0165  0.1766 -1.3874
 1002SOL    HW2 3147   2.618   1.626   1.084  0.2954 -0.1541 -0.5698
 1003SOL     OW 3148   3.230   0.141   2.173  0.4350 -0.1308  0.5116
 1003SOL    HW1 3149   3.301   0.183   2.126  1.0470 -1.0852  0.5567
 1003SOL    HW2 3150   3.262   0.134   2.263  0.0262  0.0016  0.6703
 1004SOL     OW 3151   2.032   1.890   0.794  0.1697  0.3468 -0.0044
 1004SOL    HW1 3152   1.939   1.902   0.811  0.0670  2.1943 -1.5138
 1004SOL    HW2 3153   2.072   1.883   0.881 -1.3470 -0.4357  0.6582
 1005SOL     OW 3154   0.535   1.383   1.421  0.2459 -0.5196 -0.6674
 1005SOL    HW1 3155   0.440   1.383   1.436  0.0483 -0.1461 -1.8662
 1005SOL    HW2 3156   0.557   1.475   1.406  0.2165 -0.9001 -3.6769
 1006SOL     OW 3157   1.018   0.438   0.531 -0.2801  0.6944 -0.2770
 1006SOL    HW1 3158   0.974   0.354   0.515 -2.6821  2.2796 -2.9243
 1006SOL    HW2 3159   0.960   0.484   0.591 -0.5239  1.5087 -1.1118
 1007SOL     OW 3160   3.219   2.607   2.245  0.4771 -0.0841 -0.1135
 1007SOL    HW1 3161   3.263   2.537   2.197 -0.8192 -1.8166  1.1164
 1007SOL    HW2 3162   3.237   2.589   2.337 -0.8403  0.5113  0.2926
 1008SOL     OW 3163   2.422   1.952   1.892 -0.2683  0.3457 -0.2350
 1008SOL    HW1 3164   2.390   2.024   1.838  0.0769  0.5955 -0.1089
 1008SOL    HW2 3165   2.346   1.925   1.944  0.3124  2.5936  1.9132
 1009SOL     OW 3166   3.654   1.352   0.618  0.2190 -0.5451 -0.1002
 1009SOL    HW1 3167   3.601   1.387   0.546  0.3437 -0.2440 -0.0480
 1009SOL    HW2 3168   3.741   1.338   0.579  1.1244  2.3064  0.6473
 1010SOL     OW 3169   2.138   0.981   2.798  0.1040 -0.4730 -0.5862
 1010SOL    HW1 3170   2.154   1.010   2.888  2.7501  0.2461 -1.2135
 1010SOL    HW2 3171   2.138   0.885   2.804 -0.1030 -0.4346  0.2213
 1011SOL     OW 3172   0.479   1.291   1.028  0.1066  0.8278 -1.1915
 1011SOL    HW1 3173   0.419   1.362   1.051  1.3291  1.7065 -0.6515
 1011SOL    HW2 3174   0.559   1.309   1.077  1.1406  0.1525 -2.5487
 1012SOL     OW 3175   2.119   2.238   2.888  0.3386 -0.2652  0.3658
 1012SOL    HW1 3176   2.182   2.253   2.959 -0.9608  0.4639  1.4060
 1012SOL    HW2 3177   2.173   2.220   2.811  1.8079 -2.0765  1.7190
 1013SOL     OW 3178   1.170   2.035   0.702 -0.1885 -0.3593 -0.1583
 1013SOL    HW1 3179   1.214   2.018   0.785 -0.2165 -0.2584 -0.1223
 1013SOL    HW2 3180   1.126   1.952   0.681  2.0271 -1.3004 -1.4523
 1014SOL     OW 3181   2.510   1.683   1.858 -0.4434 -0.2399  0.4660
 1014SOL    HW1 3182   2.487   1.776   1.859  0.0047 -0.1256  0.4939
 1014SOL    HW2 3183   2.466   1.647   1.934  2.7078  0.7916  2.9967
 1015SOL     OW 3184   2.680   1.025   0.674  0.1695  0.3765 -0.1555
 1015SOL    HW1 3185   2.595   1.056   0.644 -0.7224 -0.7022  1.1831
 1015SOL    HW2 3186   2.738   1.040   0.599 -1.4803 -0.1377 -1.5895
 1016SOL     OW 3187   3.012   1.597   2.427 -0.6820 -0.3941 -0.0672
 1016SOL    HW1 3188   3.042   1.688   2.422 -1.6195 -0.1327 -1.2616
 1016SOL    HW2 3189   2.966   1.581   2.345 -1.6850 -1.5471  0.6657
 1017SOL     OW 3190   0.398   2.232   3.383 -0.5308 -0.2401  0.2968
 1017SOL    HW1 3191   0.436   2.274   3.460  0.1974 -1.7299  0.7662
 1017SOL    HW2 3192   0.450   2.265   3.310 -0.2223 -0.0268  0.6081
 1018SOL     OW 3193   2.136   1.426   0.339  0.5481 -0.5168 -0.4057
 1018SOL    HW1 3194   2.125   1.335   0.309 -0.7129 -0.8656  0.9630
 1018SOL    HW2 3195   2.112   1.479   0.263 -1.2436 -1.3615 -0.4941
 1019SOL     OW 3196   0.003   0.236   2.376  0.1862  0.6201 -0.9693
 1019SOL    HW1 3197   0.058   0.160   2.395 -0.4598  0.5084  0.6179
 1019SOL    HW2 3198   0.017   0.295   2.450 -2.6906  0.0578  0.1638
 1020SOL     OW 3199   0.953   1.854   3.077 -0.6320  0.4476  0.5317
 1020SOL    HW1 3200   1.037   1.861   3.122 -0.0199 -0.3847 -0.4492
 1020SOL    HW2 3201   0.975   1.855   2.984 -1.5454 -1.4534  0.2521
 1021SOL     OW 3202   1.107   3.151   0.876  0.4891 -0.0171  0.2503
 1021SOL    HW1 3203   1.111   3.242   0.904 -1.6386 -0.4176  2.1011
 1021SOL    HW2 3204   1.179   3.142   0.814 -0.7179  3.5647 -1.9542
 1022SOL     OW 3205   1.438   0.320   2.122 -0.1185 -0.5092  0.5036
 1022SOL    HW1 3206   1.494   0.395   2.102 -1.2860  0.1915 -0.2668
 1022SOL    HW2 3207   1.466   0.252   2.061  1.0876 -0.8070  1.3473
 1023SOL     OW 3208   3.392   1.654   1.109  0.3841 -0.2617  0.4384
 1023SOL    HW1 3209   3.352   1.735   1.078  2.0407  0.0896 -0.9196
 1023SOL    HW2 3210   3.359   1.643   1.198 -0.8046  1.2499  0.2206
 1024SOL     OW 3211   0.205   3.514   3.601 -0.2003 -0.2469 -0.1246
 1024SOL    HW1 3212   0.217   3.476   3.514 -1.2543 -2.3616  0.5767
 1024SOL    HW2 3213   0.270   3.471   3.656  2.7353  3.3897 -0.3290
 1025SOL     OW 3214   0.198   1.297   3.229  0.1433 -0.3164 -0.8668
 1025SOL    HW1 3215   0.201   1.279   3.135 -2.3383  1.7110 -1.4275
 1025SOL    HW2 3216   0.259   1.370   3.242  2.4995 -2.2376 -0.3316
 1026SOL     OW 3217   2.525   3.250   1.107  0.9191  0.3849 -1.0045
 1026SOL    HW1 3218   2.591   3.195   1.149  0.8511  0.6327 -0.5667
 1026SOL    HW2 3219   2.523   3.219   1.016  2.5797  1.2339 -1.3708
 1027SOL     OW 3220   1.896   1.638   2.613 -0.2391 -0.0154 -0.0534
 1027SOL    HW1 3221   1.903   1.707   2.547 -0.3110  1.3282  1.2839
 1027SOL    HW2 3222   1.872   1.684   2.694 -0.8259 -1.6753  0.7754
 1028SOL     OW 3223   3.354   2.814   0.304 -0.5768  0.2074  0.2090
 1028SOL    HW1 3224   3.281   2.812   0.243 -1.3894  1.0336  1.1069
 1028SOL    HW2 3225   3.417   2.873   0.265 -0.8817  0.3608 -0.0527
 1029SOL     OW 3226   0.412   3.672   0.670 -0.3485  0.3201 -0.1187
 1029SOL    HW1 3227   0.387   3.648   0.581 -0.1703  0.3220 -0.1700
 1029SOL    HW2 3228   0.472   3.746   0.659 -0.5427  0.5021  0.0173
 1030SOL     OW 3229   0.211   1.701   0.115 -0.1172 -0.7420 -0.1119
 1030SOL    HW1 3230   0.182   1.777   0.166 -1.7450 -1.1776 -0.3272
 1030SOL    HW2 3231   0.130   1.656   0.092  0.8267 -2.7671  0.3464
 1031SOL     OW 3232   3.102   0.860   1.451 -0.5852  0.3137 -0.2238
 1031SOL    HW1 3233   3.085   0.938   1.398  1.3295  0.7415 -0.2818
 1031SOL    HW2 3234   3.081   0.886   1.540 -2.4602  0.0371 -0.5438
 1032SOL     OW 3235   3.116   1.271   1.950  0.3613 -0.0953 -0.0526
 1032SOL    HW1 3236   3.180   1.340   1.965 -0.2140  0.2986  0.6431
 1032SOL    HW2 3237   3.152   1.220   1.877 -0.5060  2.5918 -2.5509
 1033SOL     OW 3238   0.073   0.615   1.478  0.3456 -0.4536 -0.0531
 1033SOL    HW1 3239   0.112   0.528   1.465 -0.6463 -0.7509 -1.2518
 1033SOL    HW2 3240  -0.021   0.600   1.478  0.1751  0.4545  1.2108
 1034SOL     OW 3241   3.374   2.035   0.920  0.1927 -0.3936 -0.3680
 1034SOL    HW1 3242   3.359   2.044   1.014 -3.8219  0.3404 -0.9055
 1034SOL    HW2 3243   3.434   2.106   0.898  0.9225 -0.3713  1.5401
 1035SOL     OW 3244   1.784   1.451   3.488  0.1606 -0.2513  0.9377
 1035SOL    HW1 3245   1.776   1.511   3.562  0.6493 -1.5416  2.0890
 1035SOL    HW2 3246   1.738   1.372   3.517  0.6602 -0.8984  0.0032
 1036SOL     OW 3247   0.726   0.393   1.318  0.6953 -0.0390 -0.3753
 1036SOL    HW1 3248   0.694   0.475   1.354  0.5383 -0.8803  1.5787
 1036SOL    HW2 3249   0.647   0.340   1.304  0.9113 -0.6896  0.6970
 1037SOL     OW 3250   1.440   1.220   3.313 -0.4634 -0.1496  0.1738
 1037SOL    HW1 3251   1.393   1.173   3.383  1.2663 -0.9490  0.8539
 1037SOL    HW2 3252   1.531   1.222   3.343  0.1398  0.4091 -1.6013
 1038SOL     OW 3253   3.637   0.417   3.042  0.4771 -0.1934 -0.4315
 1038SOL    HW1 3254   3.625   0.508   3.070  3.1689  0.3684 -0.8707
 1038SOL    HW2 3255   3.593   0.365   3.110 -1.7522  1.4053 -0.5527
 1039SOL     OW 3256   2.739   2.873   1.880  0.6360  0.1873 -0.2275
 1039SOL    HW1 3257   2.783   2.809   1.936  0.0473  0.5580  0.6897
 1039SOL    HW2 3258   2.755   2.957   1.923 -0.9212  0.3352  0.1174
 1040SOL     OW 3259   3.236   2.284   3.342  0.1762  0.3820  0.3699
 1040SOL    HW1 3260   3.225   2.288   3.437  0.7718  0.5200  0.4414
 1040SOL    HW2 3261   3.283   2.364   3.320 -0.9374  0.8949 -0.1981
 1041SOL     OW 3262   1.530   0.955   3.456 -0.3582 -0.9744  0.4858
 1041SOL    HW1 3263   1.520   0.923   3.546  0.2979  1.1578  1.3758
 1041SOL    HW2 3264   1.593   0.894   3.416  0.4005 -1.1670  1.9066
 1042SOL     OW 3265   0.957   2.453   0.110 -0.2994 -0.1599  0.0218
 1042SOL    HW1 3266   0.881   2.402   0.083  0.1941 -0.0336 -1.7264
 1042SOL    HW2 3267   0.984   2.499   0.031  2.1011 -0.8573  0.3694
 1043SOL     OW 3268   3.030   1.139   2.231  0.1255  0.2239  0.4993
 1043SOL    HW1 3269   3.062   1.166   2.317  3.4665 -4.0694  0.9581
 1043SOL    HW2 3270   3.073   1.198   2.169  2.2897 -0.0951  1.6026
 1044SOL     OW 3271   2.032   0.409   2.753 -0.3244 -0.4374 -0.6934
 1044SOL    HW1 3272   1.975   0.353   2.700 -2.4285  0.6554  0.3204
 1044SOL    HW2 3273   2.111   0.418   2.700 -1.6246 -0.8503 -2.8277
 1045SOL     OW 3274   1.559   0.730   3.296  0.2901  0.2705 -0.0009
 1045SOL    HW1 3275   1.582   0.678   3.219 -2.2085  0.9969 -1.3460
 1045SOL    HW2 3276   1.518   0.667   3.355 -1.0139  0.3238 -0.8170
 1046SOL     OW 3277   3.312   3.273   2.393 -0.2407  0.5115 -0.0836
 1046SOL    HW1 3278   3.235   3.284   2.449 -1.0462 -2.1638 -0.5268
 1046SOL    HW2 3279   3.277   3.269   2.304  0.1860 -1.7474 -0.2232
 1047SOL     OW 3280   1.019   0.565   1.204 -0.1372 -0.0566  0.2897
 1047SOL    HW1 3281   0.956   0.517   1.151  0.0850  0.0280 -0.0531
 1047SOL    HW2 3282   1.104   0.529   1.179 -0.0777 -0.5394  1.1220
 1048SOL     OW 3283   0.145   0.828   2.489 -0.3156  0.4303  0.0395
 1048SOL    HW1 3284   0.084   0.868   2.551 -0.7395  1.2643 -0.8954
 1048SOL    HW2 3285   0.099   0.750   2.457 -1.3038  1.5030 -1.2915
 1049SOL     OW 3286   3.304   2.378   0.638  0.7268 -0.1689 -0.1221
 1049SOL    HW1 3287   3.220   2.424   0.633  2.3192  3.2438  1.0387
 1049SOL    HW2 3288   3.351   2.404   0.559  1.5681  0.0205  0.4246
 1050SOL     OW 3289   1.789   2.887   0.969  0.7684  0.2351 -0.5472
 1050SOL    HW1 3290   1.779   2.957   1.034  1.9152  0.4332 -0.5645
 1050SOL    HW2 3291   1.779   2.931   0.885  1.8347  0.4513 -0.5680
 1051SOL     OW 3292   1.508   1.032   2.755  0.2011  0.0617 -0.6061
 1051SOL    HW1 3293   1.470   0.977   2.687 -0.4823  0.3099 -0.4254
 1051SOL    HW2 3294   1.475   1.120   2.737  0.1980  0.1671 -0.0912
 1052SOL     OW 3295   3.350   1.163   3.444  0.0971 -0.3605 -0.3606
 1052SOL    HW1 3296   3.321   1.074   3.428 -0.3245 -0.2782 -0.0654
 1052SOL    HW2 3297   3.444   1.156   3.458 -0.0195 -0.8321  0.2101
 1053SOL     OW 3298   3.671   1.299   3.615 -0.0605  0.4945 -0.2928
 1053SOL    HW1 3299   3.679   1.259   3.702  1.9929 -0.1332 -0.7193
 1053SOL    HW2 3300   3.704   1.388   3.627  0.6135  0.2758 -0.5085
 1054SOL     OW 3301   3.051   1.433   0.342  0.1894  0.2445 -0.3502
 1054SOL    HW1 3302   3.021   1.409   0.430 -0.2571  1.2506 -0.2223
 1054SOL    HW2 3303   2.972   1.434   0.288  0.0006  2.4281 -0.1185
 1055SOL     OW 3304   2.085   0.687   2.821 -0.2001 -0.4801 -0.1455
 1055SOL    HW1 3305   2.137   0.617   2.783  0.7613  0.9198 -1.5568
 1055SOL    HW2 3306   2.065   0.658   2.910 -1.4515 -3.3591 -1.2428
 1056SOL     OW 3307   2.672   0.684   1.487  0.0070 -0.0226  0.3633
 1056SOL    HW1 3308   2.682   0.778   1.504  0.6886  0.3352 -1.7298
 1056SOL    HW2 3309   2.734   0.642   1.546  1.2318  1.0077 -0.1651
 1057SOL     OW 3310   1.193   1.988   3.653  1.0433 -0.5711 -0.4032
 1057SOL    HW1 3311   1.287   1.994   3.632  1.0922  1.6933  0.1759
 1057SOL    HW2 3312   1.160   2.077   3.639 -1.2818 -1.5462 -1.5807
 1058SOL     OW 3313   1.017   3.603   1.354  0.0083  0.5017 -0.1633
 1058SOL    HW1 3314   1.072   3.560   1.288 -1.5055 -3.1472  0.7618
 1058SOL    HW2 3315   0.933   3.617   1.310 -0.3826 -0.1195  0.3664
 1059SOL     OW 3316   2.299   2.715   1.719  0.2284  0.0340 -0.0696
 1059SOL    HW1 3317   2.332   2.743   1.633 -0.5674  1.2850  0.0186
 1059SOL    HW2 3318   2.288   2.796   1.769  0.8371 -0.6928  1.2857
 1060SOL     OW 3319   1.732   2.250   2.684 -1.0223 -0.1969  0.3024
 1060SOL    HW1 3320   1.743   2.215   2.596 -0.0847  2.2020 -0.6188
 1060SOL    HW2 3321   1.805   2.213   2.734 -0.8052 -0.5476 -0.2728
 1061SOL     OW 3322   3.340   1.134   0.060  0.2704 -0.2116  0.8424
 1061SOL    HW1 3323   3.285   1.129   0.138  0.1774 -0.0702  0.7850
 1061SOL    HW2 3324   3.280   1.150  -0.012  0.5766  2.6897  1.1043
 1062SOL     OW 3325   3.496   2.281   3.621  0.4894 -0.4288 -0.6286
 1062SOL    HW1 3326   3.452   2.213   3.671  0.0858 -0.5579 -1.1456
 1062SOL    HW2 3327   3.521   2.238   3.539 -1.2948  0.4518 -1.6954
 1063SOL     OW 3328   2.393   0.359   0.634 -0.1287 -0.7255  0.2946
 1063SOL    HW1 3329   2.312   0.311   0.651 -1.1043  0.6105 -0.3615
 1063SOL    HW2 3330   2.385   0.388   0.543  1.9059 -2.0444 -0.3566
 1064SOL     OW 3331   3.511   2.672   2.526 -0.2474 -0.0698 -0.7514
 1064SOL    HW1 3332   3.418   2.670   2.548 -0.3209  1.2023 -0.8565
 1064SOL    HW2 3333   3.554   2.624   2.596 -1.2038 -3.2999 -2.1775
 1065SOL     OW 3334   2.936   2.824   3.449 -0.0105  0.2449 -0.0757
 1065SOL    HW1 3335   2.931   2.890   3.379 -1.9484  0.7516  0.4650
 1065SOL    HW2 3336   2.915   2.873   3.529  0.3267 -0.6839  0.5906
 1066SOL     OW 3337   1.405   2.636   3.406  0.3086 -0.1402 -0.2058
 1066SOL    HW1 3338   1.391   2.730   3.399 -0.7724 -0.3305 -0.8814
 1066SOL    HW2 3339   1.333   2.598   3.356 -0.3265 -1.3841  1.5982
 1067SOL     OW 3340   1.967   3.693   3.534 -0.1750  0.1682  0.0729
 1067SOL    HW1 3341   2.034   3.722   3.596 -0.3875  1.2230 -0.1739
 1067SOL    HW2 3342   1.949   3.602   3.559  0.8867  0.0757  0.5399
 1068SOL     OW 3343   1.401   1.283   1.246  0.0736  1.0804 -0.2100
 1068SOL    HW1 3344   1.314   1.300   1.283 -0.9639  1.1630 -2.5116
 1068SOL    HW2 3345   1.384   1.228   1.169  2.3753 -1.7017  1.0675
 1069SOL     OW 3346   1.139   1.761   1.290  0.0034  0.1039 -0.0020
 1069SOL    HW1 3347   1.081   1.814   1.345  1.7743  0.5842  1.4792
 1069SOL    HW2 3348   1.144   1.809   1.207  1.1538  2.0320  1.1184
 1070SOL     OW 3349   3.680   3.596   1.387  0.3485  0.2979 -0.2617
 1070SOL    HW1 3350   3.652   3.505   1.385 -0.3004  0.4978 -1.1727
 1070SOL    HW2 3351   3.750   3.602   1.322  0.5010  0.4121 -0.0882
 1071SOL     OW 3352   1.908   2.726   0.076 -0.1939  0.2954  0.1230
 1071SOL    HW1 3353   1.957   2.702  -0.003 -1.0476 -0.2780 -0.2478
 1071SOL    HW2 3354   1.887   2.642   0.118  0.4628  0.6015  1.1100
 1072SOL     OW 3355   2.646   3.675   1.779  0.2753 -0.1309  0.2814
 1072SOL    HW1 3356   2.705   3.717   1.717  0.2444 -2.6005 -1.5926
 1072SOL    HW2 3357   2.566   3.659   1.729  0.0547 -1.7289  1.0685
 1073SOL     OW 3358   2.263   3.291   3.025  0.8997 -0.4903  0.0229
 1073SOL    HW1 3359   2.349   3.295   2.982  0.4811 -0.4763 -0.8523
 1073SOL    HW2 3360   2.202   3.276   2.953  0.0017  1.0640  0.4141
 1074SOL     OW 3361   3.454   1.235   1.324 -0.2617 -0.0767 -0.7678
 1074SOL    HW1 3362   3.466   1.275   1.238  1.0445  1.5475  0.1117
 1074SOL    HW2 3363   3.475   1.143   1.311  1.2699  0.4033 -1.9122
 1075SOL     OW 3364   1.649   3.069   1.199 -0.2984 -0.8462 -0.3988
 1075SOL    HW1 3365   1.600   3.106   1.126 -0.8463 -0.8624 -0.0483
 1075SOL    HW2 3366   1.600   3.095   1.277 -0.0321 -1.2957 -0.0714
 1076SOL     OW 3367   3.516   0.565   2.010 -0.2262 -0.5444  0.1886
 1076SOL    HW1 3368   3.587   0.626   1.989  0.9294 -1.7500  0.4488
 1076SOL    HW2 3369   3.504   0.572   2.104 -0.2476 -0.5497  0.1864
 1077SOL     OW 3370   0.729   0.312   1.941  0.3978  0.4774  0.3400
 1077SOL    HW1 3371   0.711   0.396   1.983 -1.8884  0.9430 -1.3618
 1077SOL    HW2 3372   0.653   0.257   1.962  2.1235 -1.4892  1.9563
 1078SOL     OW 3373   1.671   2.253   1.320 -0.3982 -0.0302 -0.6309
 1078SOL    HW1 3374   1.630   2.183   1.372 -2.2771 -0.3536 -2.4080
 1078SOL    HW2 3375   1.762   2.225   1.311 -1.1132 -2.4114 -1.3946
 1079SOL     OW 3376   3.093   1.919   1.576  0.0441  0.3908 -0.6796
 1079SOL    HW1 3377   3.189   1.923   1.572  0.3322  0.2480  2.6337
 1079SOL    HW2 3378   3.073   1.949   1.665 -2.9381 -0.4479 -0.9842
 1080SOL     OW 3379   0.943   3.431   0.914  0.3171 -0.0312  0.6553
 1080SOL    HW1 3380   1.012   3.434   0.980  1.0089  1.0636 -0.0786
 1080SOL    HW2 3381   0.914   3.522   0.906 -0.4747 -0.3163  0.1941
 1081SOL     OW 3382   1.618   1.753   2.902  0.0852  0.3016 -0.3702
 1081SOL    HW1 3383   1.589   1.809   2.974 -0.9122  0.6209 -0.9858
 1081SOL    HW2 3384   1.712   1.743   2.915  0.2744  2.0334 -0.1666
 1082SOL     OW 3385   0.299   0.538   2.393 -0.7621  0.1164 -0.2757
 1082SOL    HW1 3386   0.322   0.602   2.460 -0.6589  0.1998 -0.3918
 1082SOL    HW2 3387   0.377   0.530   2.339 -0.9925  0.3707 -0.6492
 1083SOL     OW 3388   2.755   2.330   0.795  0.2105  0.3850  0.1005
 1083SOL    HW1 3389   2.800   2.351   0.877 -0.7414  2.1159  0.2184
 1083SOL    HW2 3390   2.673   2.290   0.823  0.1614  0.4032 -0.0185
 1084SOL     OW 3391   1.984   0.409   0.751 -0.0241 -0.2060 -0.3987
 1084SOL    HW1 3392   1.922   0.460   0.803  2.4433  0.7941  1.7493
 1084SOL    HW2 3393   1.940   0.326   0.736 -1.5106  0.0858  1.8741
 1085SOL     OW 3394   0.832   3.151   0.565 -0.5666 -0.4419 -0.0859
 1085SOL    HW1 3395   0.821   3.135   0.659  1.0026  0.4984  0.2918
 1085SOL    HW2 3396   0.913   3.201   0.558 -1.1127  0.2912 -1.8753
 1086SOL     OW 3397   0.491   1.579   3.567 -0.5253  0.1802 -0.0203
 1086SOL    HW1 3398   0.470   1.653   3.510 -3.1359  0.4180  1.1225
 1086SOL    HW2 3399   0.550   1.616   3.633 -1.0263  1.0134 -0.0208
 1087SOL     OW 3400   2.057   2.193   1.869  0.1151 -0.4051 -0.3117
 1087SOL    HW1 3401   2.048   2.252   1.794  0.5748  0.4234  0.2665
 1087SOL    HW2 3402   2.150   2.173   1.873 -0.0884 -1.5608 -0.7683
 1088SOL     OW 3403   2.394   2.259   0.338 -0.3866  0.4049 -0.6214
 1088SOL    HW1 3404   2.390   2.179   0.286 -3.1981  0.2028 -0.2456
 1088SOL    HW2 3405   2.384   2.229   0.428  0.4905  1.0638 -0.2862
 1089SOL     OW 3406   1.222   0.442   1.457 -0.0500  0.4901 -0.3331
 1089SOL    HW1 3407   1.193   0.530   1.436 -1.4615  0.2729  0.5801
 1089SOL    HW2 3408   1.238   0.443   1.551  0.5950 -0.0518 -0.4279
 1090SOL     OW 3409   1.704   2.886   0.169 -0.0397 -0.1179  0.2552
 1090SOL    HW1 3410   1.769   2.840   0.116 -0.6158 -1.9527  1.0502
 1090SOL    HW2 3411   1.638   2.915   0.106  0.0847 -0.8672 -0.2295
 1091SOL     OW 3412   2.875   0.321   2.789  0.0520 -0.2803 -0.2358
 1091SOL    HW1 3413   2.784   0.341   2.814 -0.0179 -1.0208  0.1176
 1091SOL    HW2 3414   2.909   0.404   2.756 -0.1948  0.4682  1.3082
 1092SOL     OW 3415   0.696   2.964   1.691  0.0512 -0.2271 -0.1665
 1092SOL    HW1 3416   0.775   3.000   1.651  0.7594 -0.8734  0.6103
 1092SOL    HW2 3417   0.686   2.877   1.651 -0.6143  0.0878 -0.7002
 1093SOL     OW 3418   2.599   2.241   2.282 -0.0715 -0.1823 -0.4112
 1093SOL    HW1 3419   2.681   2.253   2.235 -0.2205  1.6578 -0.2778
 1093SOL    HW2 3420   2.583   2.325   2.325 -2.4684 -0.1774 -1.1650
 1094SOL     OW 3421   1.423   3.057   2.154  0.6864 -0.1006  0.2851
 1094SOL    HW1 3422   1.358   3.004   2.200 -0.3586  1.5306  0.7906
 1094SOL    HW2 3423   1.480   3.090   2.224  0.0014  1.1681  0.2796
 1095SOL     OW 3424   1.009   3.705   3.591  0.2981 -0.4401 -0.1498
 1095SOL    HW1 3425   1.015   3.792   3.631  2.6087 -0.3387 -0.5834
 1095SOL    HW2 3426   1.049   3.646   3.655 -0.0421 -0.9779 -0.4244
 1096SOL     OW 3427   1.989   2.449   1.631 -0.2095 -0.4236 -0.2983
 1096SOL    HW1 3428   2.079   2.427   1.605 -0.3030 -1.2813  0.0513
 1096SOL    HW2 3429   1.973   2.534   1.591  1.0453  0.1272  0.3094
 1097SOL     OW 3430   2.670   1.925   1.442 -0.5847 -0.4050  0.1284
 1097SOL    HW1 3431   2.583   1.903   1.407 -1.3358  1.1627  0.9121
 1097SOL    HW2 3432   2.667   1.892   1.532  0.0375 -1.2643 -0.1529
 1098SOL     OW 3433   2.661   1.909   2.030 -0.1304  0.4782 -0.1421
 1098SOL    HW1 3434   2.599   1.955   1.972 -0.2137  1.8419  0.9530
 1098SOL    HW2 3435   2.741   1.960   2.024  0.3641 -0.3063 -0.2697
 1099SOL     OW 3436   0.029   3.296   0.075 -0.0519  0.1964  1.0401
 1099SOL    HW1 3437   0.035   3.316  -0.018  0.1658 -0.1460  0.9777
 1099SOL    HW2 3438  -0.008   3.375   0.114  1.9042  1.1954  0.9743
 1100SOL     OW 3439   0.331   2.295   0.055 -0.1279 -0.1947  0.5712
 1100SOL    HW1 3440   0.396   2.326  -0.008  0.2002 -0.6622  0.6711
 1100SOL    HW2 3441   0.348   2.201   0.063  0.0305 -0.0950  1.5718
 1101SOL     OW 3442   2.001   3.071   0.924  0.2575 -0.3413  0.2658
 1101SOL    HW1 3443   1.974   3.074   1.016  1.1250 -3.9235  0.7592
 1101SOL    HW2 3444   1.919   3.064   0.876 -0.1265 -0.2206  0.8859
 1102SOL     OW 3445   1.145   1.547   3.065  0.5917  0.7997 -0.0924
 1102SOL    HW1 3446   1.220   1.525   3.120  1.1211  1.0922 -0.6812
 1102SOL    HW2 3447   1.152   1.641   3.051 -0.1713  0.9172  0.2481
 1103SOL     OW 3448   1.883   3.512   0.900 -0.2432  0.6374  0.1844
 1103SOL    HW1 3449   1.951   3.474   0.844 -1.1669 -0.6621 -0.0899
 1103SOL    HW2 3450   1.918   3.597   0.925  2.6614 -0.9458  2.1334
 1104SOL     OW 3451   2.462   1.071   2.006 -0.9999  0.0245 -0.1790
 1104SOL    HW1 3452   2.474   1.054   1.913 -1.0287 -1.4134  0.0531
 1104SOL    HW2 3453   2.391   1.012   2.032 -0.9217  0.3308  0.7666
 1105SOL     OW 3454   0.568   2.073   3.064 -0.2328 -0.3684  0.0122
 1105SOL    HW1 3455   0.550   2.158   3.103 -1.5139 -0.9089  0.6687
 1105SOL    HW2 3456   0.489   2.052   3.015 -0.2406 -1.5082  0.4850
 1106SOL     OW 3457   3.179   1.759   0.410 -0.0595 -0.6420 -0.3176
 1106SOL    HW1 3458   3.129   1.798   0.482  0.6957  0.0973 -0.1849
 1106SOL    HW2 3459   3.261   1.732   0.450  0.8266  0.7870 -1.1109
 1107SOL     OW 3460   0.121   3.401   1.246  0.7140  0.5607 -0.5525
 1107SOL    HW1 3461   0.192   3.464   1.245  1.9275 -0.7586 -1.2560
 1107SOL    HW2 3462   0.159   3.322   1.284 -0.9766  0.4400  1.0170
 1108SOL     OW 3463   1.598   2.432   0.946 -0.0348 -0.4582 -0.3555
 1108SOL    HW1 3464   1.686   2.462   0.920 -1.0885  1.8200 -1.6843
 1108SOL    HW2 3465   1.591   2.454   1.039  1.5369 -2.7582  0.3821
 1109SOL     OW 3466   1.839   0.481   0.967  0.6166 -0.1196  0.1690
 1109SOL    HW1 3467   1.837   0.417   1.038  0.2345 -2.3066 -1.6689
 1109SOL    HW2 3468   1.770   0.544   0.989  0.4155 -0.8119  1.6383
 1110SOL     OW 3469   3.539   2.718   2.277  0.2031 -0.5083  0.1918
 1110SOL    HW1 3470   3.530   2.702   2.371 -3.6547  0.0558  0.1075
 1110SOL    HW2 3471   3.477   2.657   2.236  0.2838  0.6320 -1.7805
 1111SOL     OW 3472   1.002   0.845   3.265  0.1975 -0.2223  0.4828
 1111SOL    HW1 3473   0.984   0.848   3.359  1.5002  3.1156  0.7733
 1111SOL    HW2 3474   1.089   0.807   3.259  0.1983 -0.2480  0.6361
 1112SOL     OW 3475   3.546   0.538   2.332  0.8189  0.1612  0.0136
 1112SOL    HW1 3476   3.613   0.474   2.357  0.5734 -0.1484 -0.1180
 1112SOL    HW2 3477   3.521   0.579   2.415  0.4319 -0.4496  0.2064
 1113SOL     OW 3478   2.883   2.985   3.656 -0.3610 -0.2204 -0.1463
 1113SOL    HW1 3479   2.964   3.034   3.674 -1.6126  1.9839 -0.1559
 1113SOL    HW2 3480   2.824   3.009   3.727 -1.2554 -1.2490 -0.5187
 1114SOL     OW 3481   3.232   2.939   0.797 -0.0183  0.2889  0.0620
 1114SOL    HW1 3482   3.287   2.861   0.791 -0.2993  0.1909 -1.3823
 1114SOL    HW2 3483   3.215   2.964   0.707  1.8620  3.3161  0.4087
 1115SOL     OW 3484   2.628   1.163   1.733  0.2600 -0.4284  0.2412
 1115SOL    HW1 3485   2.626   1.208   1.649  0.1191 -1.9771 -0.6272
 1115SOL    HW2 3486   2.721   1.154   1.754  0.2934  0.0125  0.2921
 1116SOL     OW 3487   0.933   2.923   0.824 -0.9089 -0.0839  0.0033
 1116SOL    HW1 3488   0.977   2.872   0.892 -1.3146 -0.9401 -0.3702
 1116SOL    HW2 3489   0.958   3.014   0.843 -0.2291 -0.4042  0.7095
 1117SOL     OW 3490   3.079   2.268   2.236 -0.4001 -0.3442  0.1725
 1117SOL    HW1 3491   3.050   2.177   2.245 -1.0900  0.0050  1.8433
 1117SOL    HW2 3492   3.171   2.267   2.263 -0.4674 -0.5166  0.3968
 1118SOL     OW 3493   0.075   0.519   3.538  0.0141  0.1955  0.2783
 1118SOL    HW1 3494   0.099   0.588   3.601  0.7444 -0.5865  0.8772
 1118SOL    HW2 3495   0.137   0.449   3.555 -0.6390 -0.5656 -0.4240
 1119SOL     OW 3496   2.673   1.817   0.535 -0.0399 -0.0216 -0.1720
 1119SOL    HW1 3497   2.663   1.878   0.609 -0.7529 -0.1056 -0.1911
 1119SOL    HW2 3498   2.608   1.847   0.471  0.6265  0.0963 -0.7990
 1120SOL     OW 3499   0.632   0.979   2.632 -0.2767  0.4860 -0.2190
 1120SOL    HW1 3500   0.587   0.895   2.646  1.2295  0.0325  2.5596
 1120SOL    HW2 3501   0.720   0.954   2.605  0.1191  1.1584  0.4270
 1121SOL     OW 3502   0.417   0.166   2.995 -0.1282 -0.1589 -0.1631
 1121SOL    HW1 3503   0.358   0.133   2.926 -0.2218 -1.2648  0.4172
 1121SOL    HW2 3504   0.382   0.128   3.076 -0.9708  2.3792  0.7518
 1122SOL     OW 3505   3.586   2.130   1.614  0.7662 -0.3005 -0.2337
 1122SOL    HW1 3506   3.664   2.075   1.623  1.4383  0.5770 -0.5884
 1122SOL    HW2 3507   3.610   2.214   1.652  0.4721  0.4247 -1.5728
 1123SOL     OW 3508   0.511   1.117  -0.011 -0.0607 -0.2763 -0.6531
 1123SOL    HW1 3509   0.555   1.134   0.072  1.7836  0.6170 -1.7326
 1123SOL    HW2 3510   0.490   1.204  -0.046  0.1058 -0.5889 -1.5734
 1124SOL     OW 3511   0.735   2.757  -0.015  0.0762 -0.0362 -0.2418
 1124SOL    HW1 3512   0.737   2.772   0.080 -0.3415  1.6575 -0.4616
 1124SOL    HW2 3513   0.649   2.718  -0.031 -0.4800  1.0991 -0.0847
 1125SOL     OW 3514   3.375   0.876   3.483 -0.1801 -0.3045  0.0875
 1125SOL    HW1 3515   3.368   0.863   3.578  0.1479  0.2114  0.1912
 1125SOL    HW2 3516   3.468   0.864   3.465  0.0235  1.1085  0.0838
 1126SOL     OW 3517   0.708   0.921   3.148  0.5492 -0.0079 -0.6885
 1126SOL    HW1 3518   0.738   0.921   3.057 -0.6700 -2.7790 -1.1990
 1126SOL    HW2 3519   0.787   0.910   3.200  1.1745  0.8260 -1.4268
 1127SOL     OW 3520   0.444   0.082   3.519 -0.4911 -0.0093 -0.0986
 1127SOL    HW1 3521   0.448   0.153   3.455 -1.5484 -0.6338 -0.8897
 1127SOL    HW2 3522   0.410   0.008   3.470 -0.8043 -0.6588  1.0679
 1128SOL     OW 3523   0.036   3.703   1.620  0.0323 -0.2434 -0.0861
 1128SOL    HW1 3524  -0.001   3.670   1.539 -1.9063 -1.0425  1.0600
 1128SOL    HW2 3525   0.107   3.642   1.640  1.6890  0.9246 -1.9607
 1129SOL     OW 3526   0.520   3.442   3.531 -0.5087  0.1148 -0.1895
 1129SOL    HW1 3527   0.586   3.462   3.597 -0.8010 -0.3713  0.2548
 1129SOL    HW2 3528   0.570   3.432   3.450  0.1738 -1.6799  0.3931
 1130SOL     OW 3529   3.247   2.893   2.564 -0.6210  0.1437 -1.1121
 1130SOL    HW1 3530   3.258   2.800   2.544  1.1131  0.3839 -1.4344
 1130SOL    HW2 3531   3.154   2.910   2.549 -1.2068 -1.7537 -0.0568
 1131SOL     OW 3532   2.790   1.695   1.176  0.0009 -0.1279  0.0049
 1131SOL    HW1 3533   2.833   1.687   1.091  0.5194 -2.0286  0.3811
 1131SOL    HW2 3534   2.853   1.740   1.232  0.4736 -0.6447 -0.1090
 1132SOL     OW 3535   2.615   3.565   2.452 -0.2379  0.1348  0.3094
 1132SOL    HW1 3536   2.661   3.523   2.380  1.6078 -0.0489  1.5203
 1132SOL    HW2 3537   2.597   3.495   2.514  0.7952  0.7206  1.3070
 1133SOL     OW 3538   0.747   1.258   2.046 -0.7453  0.2248  1.4253
 1133SOL    HW1 3539   0.820   1.236   2.103 -0.9913 -2.2957  0.8754
 1133SOL    HW2 3540   0.700   1.328   2.093  1.3470  1.1302  2.2816
 1134SOL     OW 3541   1.261   2.200   0.480  0.1298  0.1516 -0.4546
 1134SOL    HW1 3542   1.278   2.292   0.501 -1.7536  0.5935 -0.6822
 1134SOL    HW2 3543   1.228   2.162   0.561  0.9485 -0.3565 -0.3470
 1135SOL     OW 3544   2.748   2.583   0.938  0.0358  0.0344  0.1059
 1135SOL    HW1 3545   2.718   2.673   0.956  0.2148  0.2914 -0.8110
 1135SOL    HW2 3546   2.836   2.594   0.902 -0.3649 -0.4246 -1.0542
 1136SOL     OW 3547   1.196   2.923   2.617 -0.2441 -0.4421 -0.2441
 1136SOL    HW1 3548   1.194   2.858   2.547  1.5575  0.1825 -0.9419
 1136SOL    HW2 3549   1.279   2.906   2.663 -1.2240 -0.6018  1.5259
 1137SOL     OW 3550   1.059   2.240  -0.028 -0.2657 -0.7484  0.5352
 1137SOL    HW1 3551   1.079   2.215   0.063 -1.4650  0.9447  1.3105
 1137SOL    HW2 3552   0.969   2.271  -0.025 -0.2433 -0.4299 -1.2033
 1138SOL     OW 3553   3.702   1.517   0.114 -0.6166 -0.0660  0.2574
 1138SOL    HW1 3554   3.719   1.542   0.205  1.2973 -0.7450  0.1379
 1138SOL    HW2 3555   3.610   1.493   0.112 -0.8510  0.5729  1.8630
 1139SOL     OW 3556   1.403   1.586   0.424 -0.4702  0.5484 -0.1202
 1139SOL    HW1 3557   1.400   1.547   0.336  0.2719  0.5038 -0.1339
 1139SOL    HW2 3558   1.364   1.520   0.481  1.8875 -0.8009  0.0540
 1140SOL     OW 3559   2.108   1.699   2.170 -0.4280 -0.0335  0.5095
 1140SOL    HW1 3560   2.115   1.645   2.249 -1.7071 -1.6693 -0.4094
 1140SOL    HW2 3561   2.014   1.703   2.153 -0.1115 -1.1155 -1.8037
 1141SOL     OW 3562   1.607   2.000   2.233  0.2299 -0.0148 -0.0222
 1141SOL    HW1 3563   1.551   2.060   2.283  0.1172 -0.4753  0.4123
 1141SOL    HW2 3564   1.580   2.013   2.142  0.3112  0.6994  0.0544
 1142SOL     OW 3565   1.522   3.274   3.621  0.1987  0.3295  0.3807
 1142SOL    HW1 3566   1.586   3.203   3.625  0.7502  0.7995 -0.1638
 1142SOL    HW2 3567   1.442   3.231   3.589  0.5705 -0.0183 -0.0966
 1143SOL     OW 3568   3.013   2.597   1.579  0.1889 -0.4529  0.2305
 1143SOL    HW1 3569   2.927   2.556   1.590 -0.9396  1.9474  1.1013
 1143SOL    HW2 3570   3.067   2.529   1.539 -2.2966 -1.8383 -1.0266
 1144SOL     OW 3571   2.370   1.326   3.635  0.4038  0.1371  0.1673
 1144SOL    HW1 3572   2.391   1.240   3.672 -4.2028 -1.1279  0.3831
 1144SOL    HW2 3573   2.418   1.329   3.553  1.8247 -1.9824  0.8457
 1145SOL     OW 3574   2.706   3.437   0.403  0.6484 -0.4586 -0.7956
 1145SOL    HW1 3575   2.630   3.485   0.437  0.7249 -0.3404 -0.7920
 1145SOL    HW2 3576   2.731   3.484   0.324  0.8615 -0.3620 -0.6698
 1146SOL     OW 3577   1.504   0.428   1.290  0.2905 -0.4064  0.1775
 1146SOL    HW1 3578   1.476   0.427   1.382  0.9520  0.4552  0.4024
 1146SOL    HW2 3579   1.500   0.521   1.265 -0.3093 -0.6849 -0.8068
 1147SOL     OW 3580   3.076   0.495   1.130  0.3812  0.4059  0.1208
 1147SOL    HW1 3581   3.019   0.567   1.154 -2.5511 -1.2430 -1.3425
 1147SOL    HW2 3582   3.057   0.426   1.193  1.1250 -0.0164 -0.1005
 1148SOL     OW 3583   2.954   1.877   1.318 -0.0526 -0.4301 -0.5736
 1148SOL    HW1 3584   2.895   1.942   1.355  0.7732  0.4046 -0.6678
 1148SOL    HW2 3585   3.008   1.848   1.392  1.0351  0.6209 -0.9206
 1149SOL     OW 3586   1.752   1.039   0.451 -0.2259  0.2574 -0.9642
 1149SOL    HW1 3587   1.686   1.105   0.472  0.6452  1.4053 -1.7342
 1149SOL    HW2 3588   1.834   1.078   0.480  0.5495  0.3523 -3.1471
 1150SOL     OW 3589   2.131   1.460   2.926  0.1263 -0.3253  0.1997
 1150SOL    HW1 3590   2.070   1.483   2.996  1.1575 -1.2954  1.4514
 1150SOL    HW2 3591   2.079   1.407   2.866 -0.4388 -0.5538  0.8817
 1151SOL     OW 3592   1.198   1.851   3.203  0.1023  0.3082  0.2441
 1151SOL    HW1 3593   1.212   1.937   3.242  1.4199  0.2993 -0.1430
 1151SOL    HW2 3594   1.259   1.794   3.248 -1.7161 -0.7676  1.4663
 1152SOL     OW 3595   3.692   2.645   0.192 -0.0511 -0.2615  0.3230
 1152SOL    HW1 3596   3.712   2.595   0.113 -0.6356  0.7740 -0.5072
 1152SOL    HW2 3597   3.600   2.669   0.182  0.3201  1.3388  0.4749
 1153SOL     OW 3598   1.958   2.677   1.510  0.3416  0.4173  0.1978
 1153SOL    HW1 3599   1.871   2.645   1.487  0.0897  0.6036  0.8814
 1153SOL    HW2 3600   1.993   2.711   1.428 -0.1011  0.0559 -0.1484
 1154SOL     OW 3601   2.322   2.493   2.275 -0.1001  0.0695  0.2203
 1154SOL    HW1 3602   2.295   2.466   2.187 -1.7611 -1.6722  1.1951
 1154SOL    HW2 3603   2.337   2.411   2.322  1.9881  0.9687  1.2505
 1155SOL     OW 3604   1.049   0.825   0.345 -0.9309 -0.1590  0.1353
 1155SOL    HW1 3605   0.967   0.778   0.358 -1.3677  0.2492 -0.9885
 1155SOL    HW2 3606   1.066   0.817   0.251  1.1939 -1.6779  0.5677
 1156SOL     OW 3607   2.477   0.470   0.036  0.3156 -0.0436 -0.1357
 1156SOL    HW1 3608   2.443   0.507  -0.045  0.0531 -2.3295 -1.1269
 1156SOL    HW2 3609   2.405   0.419   0.073  0.7257  0.1920  1.0530
 1157SOL     OW 3610   1.975   1.407   1.538  0.6817 -0.2117  0.9983
 1157SOL    HW1 3611   1.971   1.329   1.593 -3.2185 -1.1812 -0.2698
 1157SOL    HW2 3612   1.958   1.374   1.449 -0.3604  1.9541  0.3088
 1158SOL     OW 3613   0.806   1.306   1.411  0.1300 -0.2596 -0.1612
 1158SOL    HW1 3614   0.840   1.217   1.411 -0.4135 -0.4850  0.9669
 1158SOL    HW2 3615   0.711   1.296   1.413  0.0796  0.3257  1.1554
 1159SOL     OW 3616   0.790   0.798   0.681 -0.4586  0.0693  0.3947
 1159SOL    HW1 3617   0.774   0.844   0.598  0.1435 -0.4486 -0.0185
 1159SOL    HW2 3618   0.748   0.713   0.669  1.5952 -0.9061 -0.3037
 1160SOL     OW 3619   0.117   0.153   2.661  0.1116  0.8361  0.4500
 1160SOL    HW1 3620   0.203   0.193   2.672  0.2623  1.6125 -2.7417
 1160SOL    HW2 3621   0.055   0.223   2.682  0.2722  0.7942  1.0746
 1161SOL     OW 3622   2.774   2.561   0.636  0.1760 -0.0894 -0.1984
 1161SOL    HW1 3623   2.773   2.483   0.691  2.2021 -0.4881 -0.6458
 1161SOL    HW2 3624   2.832   2.622   0.682  0.9981 -0.0088 -1.2977
 1162SOL     OW 3625   1.384   2.859   0.689 -0.3774 -0.0107 -0.2284
 1162SOL    HW1 3626   1.403   2.832   0.779  0.0348 -0.7104 -0.5132
 1162SOL    HW2 3627   1.439   2.936   0.675 -1.1152  0.6404  0.4038
 1163SOL     OW 3628   2.127   1.167   3.024 -0.3187  0.1653 -0.3669
 1163SOL    HW1 3629   2.099   1.209   2.942  0.4705 -0.0336 -0.7507
 1163SOL    HW2 3630   2.131   1.239   3.087 -3.5426 -0.0712  0.2515
 1164SOL     OW 3631   0.330   2.858   3.254  0.4605 -0.2531 -0.3290
 1164SOL    HW1 3632   0.299   2.835   3.167 -2.0526  2.7497 -0.3867
 1164SOL    HW2 3633   0.282   2.800   3.313 -0.2367 -0.1464 -0.7877
 1165SOL     OW 3634   0.430   1.736   3.002 -0.1918 -0.1704  0.6937
 1165SOL    HW1 3635   0.344   1.759   3.039 -0.1775  0.6121  0.2508
 1165SOL    HW2 3636   0.492   1.787   3.053  0.0340 -0.8820  1.1381
 1166SOL     OW 3637   0.918   1.554   0.885 -0.2491  0.3896 -0.2355
 1166SOL    HW1 3638   0.883   1.470   0.917  0.6081  0.6559  1.4989
 1166SOL    HW2 3639   0.932   1.539   0.791  1.4357 -1.9994  0.2797
 1167SOL     OW 3640   0.885   3.625   2.357  0.1210  0.0093  0.1365
 1167SOL    HW1 3641   0.910   3.714   2.382  0.7642 -0.1237 -0.0218
 1167SOL    HW2 3642   0.841   3.590   2.435 -2.3313  1.2652 -0.5902
 1168SOL     OW 3643   3.519   3.419   2.844 -0.0916 -0.2263 -0.8137
 1168SOL    HW1 3644   3.573   3.439   2.768  0.8704  0.1744 -0.0608
 1168SOL    HW2 3645   3.448   3.484   2.842  0.5696  0.5194 -0.7583
 1169SOL     OW 3646   3.162   2.402   1.461  0.2265 -0.1629 -0.1177
 1169SOL    HW1 3647   3.120   2.333   1.511 -1.2557  0.9030  0.1635
 1169SOL    HW2 3648   3.120   2.399   1.375 -0.8093  1.1972  0.3047
 1170SOL     OW 3649   1.389   3.423   1.996  0.2183 -0.3911  0.4758
 1170SOL    HW1 3650   1.419   3.378   1.917 -0.4902 -1.8444  1.0093
 1170SOL    HW2 3651   1.296   3.439   1.981  0.0864 -0.6394  0.9937
 1171SOL     OW 3652   2.236   0.389   2.365 -0.3859 -0.7652 -0.0119
 1171SOL    HW1 3653   2.324   0.400   2.330  1.1439 -3.0864  2.6834
 1171SOL    HW2 3654   2.220   0.469   2.416 -0.0849 -0.1347 -0.8795
 1172SOL     OW 3655   2.019   0.693   3.086 -0.1875  0.5251  0.2974
 1172SOL    HW1 3656   2.054   0.774   3.122 -0.0885  0.2229  0.8899
 1172SOL    HW2 3657   1.952   0.666   3.148  0.8394 -0.6531  0.9369
 1173SOL     OW 3658   1.764   3.319   1.041 -0.5486 -0.1408  0.0798
 1173SOL    HW1 3659   1.808   3.384   0.987 -1.1225  0.6791  0.5644
 1173SOL    HW2 3660   1.726   3.257   0.979 -1.2953  0.8499 -0.4795
 1174SOL     OW 3661   2.514   1.362   0.761  0.2775 -0.5484 -0.7937
 1174SOL    HW1 3662   2.476   1.316   0.836  2.5076 -0.2778  0.5776
 1174SOL    HW2 3663   2.521   1.295   0.693  2.0097 -1.9265  0.6429
 1175SOL     OW 3664   1.378   3.530   1.731 -0.1136  0.7015  0.8004
 1175SOL    HW1 3665   1.332   3.558   1.652 -0.4312 -0.7963  0.4275
 1175SOL    HW2 3666   1.318   3.553   1.802 -0.3860  0.9108  0.5088
 1176SOL     OW 3667   3.348   0.614   3.358  0.0494  0.3709 -1.1468
 1176SOL    HW1 3668   3.431   0.660   3.373  1.1127 -1.6883 -0.2911
 1176SOL    HW2 3669   3.372   0.538   3.305 -1.0713 -0.8568  0.0356
 1177SOL     OW 3670   2.666   1.860   3.467 -0.0971 -0.1022  0.1930
 1177SOL    HW1 3671   2.681   1.949   3.435  1.2109  0.5158  2.2901
 1177SOL    HW2 3672   2.753   1.825   3.484 -0.5717 -2.0074 -1.0456
 1178SOL     OW 3673   1.880   2.361   0.586  0.4873  0.3642  0.1931
 1178SOL    HW1 3674   1.787   2.356   0.561  1.0255 -1.5187 -1.7487
 1178SOL    HW2 3675   1.887   2.308   0.665  0.2780 -1.7447 -1.1299
 1179SOL     OW 3676   0.232   2.407   0.965 -0.1086  0.3045 -0.0935
 1179SOL    HW1 3677   0.255   2.316   0.946 -1.4533 -0.6402  2.2389
 1179SOL    HW2 3678   0.191   2.439   0.885 -1.4789 -1.8739 -0.3644
 1180SOL     OW 3679   1.107   1.329   2.587  0.5304  0.0193  0.5233
 1180SOL    HW1 3680   1.064   1.254   2.546  0.9088 -0.7157  1.4363
 1180SOL    HW2 3681   1.039   1.396   2.593 -0.3932 -0.9810  1.5632
 1181SOL     OW 3682   3.431   0.889   3.032 -0.0485  0.4543  0.0493
 1181SOL    HW1 3683   3.482   0.932   3.100 -0.6068  0.6832  0.3241
 1181SOL    HW2 3684   3.347   0.868   3.073 -0.5528  0.9697 -0.6703
 1182SOL     OW 3685   0.652   1.189   0.227  0.2376  0.5416  0.4448
 1182SOL    HW1 3686   0.734   1.173   0.180  0.4237  1.5747  0.3930
 1182SOL    HW2 3687   0.657   1.280   0.254  0.0023  0.0692  2.2432
 1183SOL     OW 3688   2.846   2.636   3.289 -0.4123 -0.7050 -0.5753
 1183SOL    HW1 3689   2.864   2.560   3.345  1.0737 -1.5077 -2.0489
 1183SOL    HW2 3690   2.866   2.712   3.344  3.5301 -1.4733 -0.6396
 1184SOL     OW 3691   1.359   0.890   2.260 -0.0627 -0.3938  1.0179
 1184SOL    HW1 3692   1.353   0.802   2.223 -0.5490  0.1594 -0.2697
 1184SOL    HW2 3693   1.447   0.920   2.238 -0.0852 -0.3463  0.9939
 1185SOL     OW 3694   1.965   2.887   0.344 -0.5660  0.0357 -0.1489
 1185SOL    HW1 3695   1.931   2.855   0.260  0.0527 -1.8981  0.2878
 1185SOL    HW2 3696   1.962   2.811   0.402  1.3550  0.6595  0.8608
 1186SOL     OW 3697   2.407   1.536   3.088  0.2887 -0.2940 -0.1241
 1186SOL    HW1 3698   2.391   1.603   3.021 -2.0046 -1.3987 -0.7896
 1186SOL    HW2 3699   2.484   1.489   3.057  1.8413  1.8515  0.2644
 1187SOL     OW 3700   0.864   2.807   0.521  0.2519  0.1356  0.0704
 1187SOL    HW1 3701   0.855   2.782   0.429 -1.1718  0.2015  0.1727
 1187SOL    HW2 3702   0.929   2.878   0.521  0.0376  0.3403 -0.9134
 1188SOL     OW 3703   3.144   1.112   0.945  0.3128 -0.4069  0.1222
 1188SOL    HW1 3704   3.216   1.154   0.993  0.9057 -0.7475 -0.4471
 1188SOL    HW2 3705   3.146   1.020   0.974  1.6894 -1.0004 -1.6578
 1189SOL     OW 3706   0.641   1.191   1.779 -0.4998  0.6675 -0.1232
 1189SOL    HW1 3707   0.679   1.212   1.865  1.4556  1.5946 -1.1301
 1189SOL    HW2 3708   0.686   1.250   1.719  0.3694 -1.9135 -2.2150
 1190SOL     OW 3709   2.466   2.173   0.668  0.3407  0.1310 -0.3447
 1190SOL    HW1 3710   2.468   2.100   0.730  0.8513 -0.0695 -0.5945
 1190SOL    HW2 3711   2.405   2.236   0.708 -0.5535 -0.6661 -0.4028
 1191SOL     OW 3712   0.538   2.894   0.950 -0.2471 -0.0596 -0.4901
 1191SOL    HW1 3713   0.578   2.808   0.941 -0.1140 -0.1325  0.6963
 1191SOL    HW2 3714   0.519   2.921   0.860  3.6739  0.5677 -1.2690
 1192SOL     OW 3715   0.757   3.302   3.740  0.0401  0.0960 -0.2698
 1192SOL    HW1 3716   0.778   3.382   3.691 -1.2692  0.1173 -0.8543
 1192SOL    HW2 3717   0.775   3.231   3.679  0.5079 -0.0158 -0.0041
 1193SOL     OW 3718   3.091   2.613   3.536  1.1702  0.8186 -0.5939
 1193SOL    HW1 3719   3.044   2.688   3.499 -0.6876 -0.7295 -1.5240
 1193SOL    HW2 3720   3.173   2.609   3.486  1.3477  2.2394 -0.4714
 1194SOL     OW 3721   3.135   1.780   3.113  0.6681 -0.0726  0.3947
 1194SOL    HW1 3722   3.077   1.845   3.074  1.0449 -0.3507 -0.6582
 1194SOL    HW2 3723   3.200   1.831   3.162 -0.7169  0.2307  2.0150
 1195SOL     OW 3724   1.996   3.435   0.357 -0.6229  0.4420 -0.5784
 1195SOL    HW1 3725   2.016   3.346   0.386  0.3389  0.7600 -0.2318
 1195SOL    HW2 3726   1.908   3.428   0.319 -0.1132 -0.9100 -1.6345
 1196SOL     OW 3727   0.153   0.255   0.969  0.4911 -0.4396 -0.1862
 1196SOL    HW1 3728   0.139   0.312   1.045  0.4190  0.6423 -0.9814
 1196SOL    HW2 3729   0.118   0.305   0.895  1.7265 -0.9173 -1.1267
 1197SOL     OW 3730   0.419   0.468   0.354  0.2890 -0.2496 -0.2155
 1197SOL    HW1 3731   0.345   0.489   0.296 -0.3707  1.2846  1.1024
 1197SOL    HW2 3732   0.416   0.536   0.421  1.5666 -1.4608  1.1254
 1198SOL     OW 3733   3.521   1.808   2.465  0.4573  0.3658  0.2933
 1198SOL    HW1 3734   3.613   1.823   2.483 -0.1019  2.1469  1.9859
 1198SOL    HW2 3735   3.476   1.887   2.496 -1.5265  0.1740 -1.7670
 1199SOL     OW 3736   1.061   1.510   0.636  0.3633  0.1605  0.8659
 1199SOL    HW1 3737   1.132   1.573   0.640  1.2601 -0.4095 -2.5722
 1199SOL    HW2 3738   1.019   1.526   0.551 -1.5931 -1.5988  1.4125
 1200SOL     OW 3739   1.821   3.299   0.629  0.2582 -0.2787  0.6183
 1200SOL    HW1 3740   1.776   3.383   0.622 -0.4623 -0.6289  0.9334
 1200SOL    HW2 3741   1.907   3.321   0.667  0.6165  0.4672 -0.5727
 1201SOL     OW 3742   0.971   2.123   3.269  0.1134  0.1116 -0.2059
 1201SOL    HW1 3743   0.952   2.086   3.183  0.2849 -0.0111 -0.1909
 1201SOL    HW2 3744   0.964   2.049   3.329  0.3050  0.1340 -0.1553
 1202SOL     OW 3745   1.854   3.056   3.050  0.3403  0.5488 -0.3739
 1202SOL    HW1 3746   1.945   3.028   3.058  0.1465  0.1381  0.4359
 1202SOL    HW2 3747   1.812   3.029   3.132 -0.6281  0.2795 -0.9304
 1203SOL     OW 3748   2.533   2.893   2.668  0.0456 -0.3099 -0.3933
 1203SOL    HW1 3749   2.628   2.882   2.658  0.2352 -0.1742  1.1144
 1203SOL    HW2 3750   2.523   2.973   2.720 -0.8358 -1.0198  0.5728
 1204SOL     OW 3751   2.331   2.923   1.171 -0.2222 -0.0687  0.4020
 1204SOL    HW1 3752   2.251   2.875   1.193 -0.7455  0.7811  0.3690
 1204SOL    HW2 3753   2.399   2.881   1.224 -0.4932 -1.4092 -0.2711
 1205SOL     OW 3754   2.182   1.964   2.751 -0.1615 -0.3579  0.9321
 1205SOL    HW1 3755   2.186   1.870   2.734  0.6285 -0.4297  1.4332
 1205SOL    HW2 3756   2.267   1.997   2.722 -1.4905  0.7279 -2.0188
 1206SOL     OW 3757   0.849   1.837   3.669 -0.2744 -0.2180 -0.6545
 1206SOL    HW1 3758   0.893   1.868   3.590 -2.2315  1.0327 -1.3252
 1206SOL    HW2 3759   0.896   1.877   3.741  0.8372 -0.4644 -1.2227
 1207SOL     OW 3760   1.131   0.389   2.856  0.1829  0.4324  0.3773
 1207SOL    HW1 3761   1.069   0.320   2.834 -0.8673  1.1895  0.8989
 1207SOL    HW2 3762   1.191   0.349   2.919 -1.4606  0.4498  2.0295
 1208SOL     OW 3763   3.157   3.543   2.291 -0.0629  0.3853 -0.3316
 1208SOL    HW1 3764   3.247   3.513   2.279 -1.1255 -3.1333 -0.7268
 1208SOL    HW2 3765   3.135   3.587   2.209  0.9429  0.3206 -0.6566
 1209SOL     OW 3766   1.444   0.591   1.979 -0.3428  0.4010 -0.1935
 1209SOL    HW1 3767   1.525   0.541   1.988  0.3977  1.2445 -1.7569
 1209SOL    HW2 3768   1.457   0.644   1.900 -1.2507  2.7534  1.1279
 1210SOL     OW 3769  -0.020   3.446   2.664 -0.3376  0.1520  0.1030
 1210SOL    HW1 3770   0.074   3.458   2.678 -0.2568 -0.9002  0.5370
 1210SOL    HW2 3771  -0.026   3.383   2.593 -0.7187  0.2559  0.0408
 1211SOL     OW 3772   0.353   3.480   2.269 -0.0647 -0.7750 -0.6547
 1211SOL    HW1 3773   0.429   3.519   2.226  0.7833 -1.9110 -0.2406
 1211SOL    HW2 3774   0.286   3.478   2.201  1.1394 -2.2086 -1.8980
 1212SOL     OW 3775   1.372   2.969   1.882  0.2158  0.4451  0.3910
 1212SOL    HW1 3776   1.295   3.020   1.904 -0.3687 -1.0580  2.0243
 1212SOL    HW2 3777   1.444   3.013   1.928 -0.1350  0.3060  1.0824
 1213SOL     OW 3778   0.446   0.805   2.188  0.8283 -0.7847  1.1020
 1213SOL    HW1 3779   0.364   0.820   2.142  1.3299  0.8851  0.6889
 1213SOL    HW2 3780   0.514   0.825   2.124  1.6249 -3.1599  1.0974
 1214SOL     OW 3781   2.245   1.940   2.114 -0.4472 -0.5953  0.0542
 1214SOL    HW1 3782   2.210   1.857   2.146 -1.2570 -0.2881 -0.0163
 1214SOL    HW2 3783   2.168   1.997   2.105 -0.0535 -0.2049 -1.0098
 1215SOL     OW 3784   3.400   1.311   0.840 -0.5126 -0.3435 -0.2169
 1215SOL    HW1 3785   3.381   1.220   0.815  0.0317 -1.1757  2.1452
 1215SOL    HW2 3786   3.468   1.339   0.779 -0.3566 -1.6786 -0.6850
 1216SOL     OW 3787   2.565   0.440   1.640  0.4945 -0.0622 -0.1532
 1216SOL    HW1 3788   2.488   0.386   1.655  1.1440 -0.8776  0.3972
 1216SOL    HW2 3789   2.531   0.524   1.612 -0.5457 -1.6262 -4.2723
 1217SOL     OW 3790   2.798   3.325   1.832 -0.8670 -0.4502 -0.4151
 1217SOL    HW1 3791   2.808   3.420   1.826  2.1127 -0.6336  0.1953
 1217SOL    HW2 3792   2.807   3.294   1.742 -1.0881 -0.2123 -0.5214
 1218SOL     OW 3793   3.674   0.687   3.098  0.3078  0.0485 -0.2550
 1218SOL    HW1 3794   3.756   0.652   3.133  1.0888  0.7077 -1.3893
 1218SOL    HW2 3795   3.695   0.775   3.070 -1.2743  0.9467  1.1632
 1219SOL     OW 3796   0.989   1.376   2.876  0.0855 -0.4692 -0.1198
 1219SOL    HW1 3797   1.051   1.424   2.931  1.9456 -0.6663 -1.9124
 1219SOL    HW2 3798   0.941   1.320   2.936  1.2112  0.1605  1.4261
 1220SOL     OW 3799   2.790   1.140   1.185 -0.0529 -0.3066 -0.4637
 1220SOL    HW1 3800   2.854   1.074   1.161 -0.4344  0.6889 -5.1672
 1220SOL    HW2 3801   2.838   1.223   1.182 -0.0344  0.0472  3.4805
 1221SOL     OW 3802   2.336   0.151   2.492  0.3520  0.3130 -0.0412
 1221SOL    HW1 3803   2.296   0.235   2.472 -0.5085 -0.2330 -0.6987
 1221SOL    HW2 3804   2.320   0.097   2.414  0.1321 -0.7265  0.6949
 1222SOL     OW 3805   2.215   2.661   0.499 -0.5943 -0.2214 -0.1901
 1222SOL    HW1 3806   2.151   2.642   0.567 -1.2594  1.9452 -0.1229
 1222SOL    HW2 3807   2.233   2.576   0.458 -0.6992 -1.4629  2.1803
 1223SOL     OW 3808   3.703   2.813   3.537  0.0117 -0.6566 -0.3019
 1223SOL    HW1 3809   3.687   2.735   3.484 -0.3475 -1.3242  0.7468
 1223SOL    HW2 3810   3.624   2.822   3.591 -0.1885  0.7666 -0.7972
 1224SOL     OW 3811   0.758   1.631   2.382  0.4415 -0.0024 -0.6761
 1224SOL    HW1 3812   0.832   1.668   2.333  2.5894 -1.1584  1.4940
 1224SOL    HW2 3813   0.771   1.662   2.471 -0.6567 -1.7504  0.1297
 1225SOL     OW 3814   3.271   0.488   0.181 -0.0058 -0.3130 -0.5272
 1225SOL    HW1 3815   3.349   0.459   0.134  0.5922  0.7650 -0.2565
 1225SOL    HW2 3816   3.267   0.431   0.258  1.4882  0.6375  0.3167
 1226SOL     OW 3817   3.266   0.182   2.463 -0.0586  0.0142  0.0751
 1226SOL    HW1 3818   3.177   0.212   2.481 -0.1656 -0.1283 -0.2091
 1226SOL    HW2 3819   3.321   0.236   2.520 -0.3294  0.0640  0.2946
 1227SOL     OW 3820   1.086   2.955   3.481  0.0442  0.5982  0.1331
 1227SOL    HW1 3821   1.108   2.871   3.441 -0.4845  0.0179  1.0051
 1227SOL    HW2 3822   1.010   2.986   3.432 -0.7591 -0.2281  0.8021
 1228SOL     OW 3823   3.027   3.143   0.728  0.7785  0.3936  0.2482
 1228SOL    HW1 3824   2.985   3.214   0.776 -0.7048  1.2556 -2.1710
 1228SOL    HW2 3825   2.957   3.104   0.676  2.0228 -1.4446 -0.1572
 1229SOL     OW 3826   1.595   0.624   0.655 -0.0787 -0.9545  0.1306
 1229SOL    HW1 3827   1.580   0.565   0.581 -1.1262  1.9846 -2.1734
 1229SOL    HW2 3828   1.508   0.639   0.692  0.3498 -1.8362  1.5954
 1230SOL     OW 3829   3.047   0.824   0.310 -1.2247 -0.2065  0.1381
 1230SOL    HW1 3830   3.142   0.831   0.315 -1.3666  2.0211  0.9788
 1230SOL    HW2 3831   3.025   0.749   0.365  0.0305 -0.6415  0.0656
 1231SOL     OW 3832   3.389   3.172   3.037 -0.0611  0.1256  0.0173
 1231SOL    HW1 3833   3.330   3.129   3.098  1.5039 -0.9287  0.8736
 1231SOL    HW2 3834   3.363   3.264   3.039 -0.6215 -0.0303  1.6236
 1232SOL     OW 3835   3.635   3.281   1.540 -0.5254 -0.8158  0.4822
 1232SOL    HW1 3836   3.551   3.240   1.520 -0.8709  0.4438 -0.8605
 1232SOL    HW2 3837   3.701   3.222   1.503 -0.8752 -1.3128  0.6506
 1233SOL     OW 3838   0.396   2.873   0.224  0.3221  0.5286 -0.1945
 1233SOL    HW1 3839   0.408   2.798   0.282  1.2966 -0.1856 -1.2738
 1233SOL    HW2 3840   0.418   2.839   0.137  2.0294  2.3752 -0.5366
 1234SOL     OW 3841   3.733   0.388   0.758  0.4253  0.1812  0.4222
 1234SOL    HW1 3842   3.662   0.382   0.823  0.9603  0.0991  1.0066
 1234SOL    HW2 3843   3.700   0.340   0.682 -0.8585  1.6207  0.0349
 1235SOL     OW 3844   2.114   2.186   1.579 -0.2612  0.2979 -0.2262
 1235SOL    HW1 3845   2.041   2.247   1.572  0.9638  1.8801  0.2191
 1235SOL    HW2 3846   2.136   2.164   1.488 -0.5000  0.7932 -0.4053
 1236SOL     OW 3847   1.558   1.052   0.021  0.2218  0.3116 -0.4461
 1236SOL    HW1 3848   1.505   0.982  -0.017  0.1689  0.2688 -0.2942
 1236SOL    HW2 3849   1.563   1.030   0.114 -0.5842  1.0145 -0.2261
 1237SOL     OW 3850   1.776   3.099   2.772  0.2487  0.4349 -0.2155
 1237SOL    HW1 3851   1.798   3.061   2.857  1.2638  0.5890 -0.3840
 1237SOL    HW2 3852   1.697   3.150   2.788  1.5758  2.2379  1.1945
 1238SOL     OW 3853   2.090   2.653   3.610 -0.1827  0.1289  0.2985
 1238SOL    HW1 3854   2.171   2.698   3.589  0.3477 -1.8022 -2.3729
 1238SOL    HW2 3855   2.118   2.567   3.642 -1.1771  0.0253  0.9288
 1239SOL     OW 3856   2.714   2.858   0.576 -0.6220  0.6114 -0.1197
 1239SOL    HW1 3857   2.711   2.767   0.605  0.3486  0.0143 -1.7998
 1239SOL    HW2 3858   2.806   2.882   0.581 -1.0951  2.4427  2.8336
 1240SOL     OW 3859   2.360   0.821   0.178 -0.1651  0.4602  0.0919
 1240SOL    HW1 3860   2.394   0.866   0.101  3.6552 -1.7795  0.2123
 1240SOL    HW2 3861   2.310   0.748   0.142 -1.7910  1.6305 -0.1301
 1241SOL     OW 3862   2.137   1.459   3.613  0.1104  0.1753  0.4571
 1241SOL    HW1 3863   2.133   1.511   3.533  0.2866 -0.0463  0.3010
 1241SOL    HW2 3864   2.228   1.427   3.616  1.3089  3.2526  2.7208
 1242SOL     OW 3865   0.507   0.752   2.738 -0.3450  0.1148 -0.0706
 1242SOL    HW1 3866   0.567   0.678   2.739 -2.8071 -2.0155  1.4481
 1242SOL    HW2 3867   0.441   0.728   2.673 -0.0593  2.0724 -1.1751
 1243SOL     OW 3868   3.053   3.456   2.918 -0.5900  0.2938 -0.2569
 1243SOL    HW1 3869   3.005   3.426   2.995 -0.6811  0.1305 -0.3768
 1243SOL    HW2 3870   2.986   3.495   2.862 -0.3509  1.5012  0.2751
 1244SOL     OW 3871   3.136   3.118   3.693 -0.1932  0.3475  0.2611
 1244SOL    HW1 3872   3.106   3.183   3.757  2.0982  2.6364 -0.8125
 1244SOL    HW2 3873   3.151   3.168   3.613 -1.5957 -2.1760 -1.7121
 1245SOL     OW 3874   0.112   0.756   3.664 -0.7190 -0.4699  0.5259
 1245SOL    HW1 3875   0.077   0.824   3.607  0.0497  0.1530  0.7794
 1245SOL    HW2 3876   0.090   0.786   3.753  1.6353  0.7012  0.8063
 1246SOL     OW 3877   1.569   3.408   2.439  0.3133  0.4263  0.4240
 1246SOL    HW1 3878   1.614   3.374   2.517 -1.2604  1.7080  1.9636
 1246SOL    HW2 3879   1.530   3.490   2.468 -1.1612  0.4484 -1.4547
 1247SOL     OW 3880   2.177   0.982   0.304 -0.1902 -0.4991  0.3263
 1247SOL    HW1 3881   2.254   0.939   0.267  0.5478  2.5952 -2.1188
 1247SOL    HW2 3882   2.104   0.926   0.279  1.0047 -2.2430  0.5689
 1248SOL     OW 3883   0.607   1.672   0.780  0.4524  0.4818 -0.6991
 1248SOL    HW1 3884   0.559   1.627   0.711 -1.0968  0.4873  0.3177
 1248SOL    HW2 3885   0.575   1.632   0.861  0.5392  1.9884  0.1186
 1249SOL     OW 3886   1.029   0.292   3.166 -0.4738 -0.2900  0.6298
 1249SOL    HW1 3887   1.091   0.311   3.095 -0.4261  0.8538  0.9532
 1249SOL    HW2 3888   1.078   0.239   3.228 -0.6268 -1.6396 -0.3586
 1250SOL     OW 3889   0.495   1.661   0.418 -0.5601  0.0731 -0.0571
 1250SOL    HW1 3890   0.402   1.683   0.411 -0.2484  1.7819  0.8024
 1250SOL    HW2 3891   0.536   1.707   0.345 -0.3857 -0.8597 -0.5678
 1251SOL     OW 3892   1.282   0.986   0.415  0.2150  0.6411  0.4881
 1251SOL    HW1 3893   1.299   1.074   0.451  1.5873  0.9877 -0.9101
 1251SOL    HW2 3894   1.187   0.983   0.404  0.0611  1.6404  1.3244
 1252SOL     OW 3895   2.468   2.428   3.675 -0.8668 -0.0115  0.0976
 1252SOL    HW1 3896   2.498   2.496   3.614 -1.1452  0.3998  0.4127
 1252SOL    HW2 3897   2.412   2.475   3.737 -0.4709 -0.3971  0.7586
 1253SOL     OW 3898   2.149   3.486   2.234 -0.0750 -0.1293 -0.0819
 1253SOL    HW1 3899   2.162   3.398   2.200 -1.2553 -0.5870  0.6068
 1253SOL    HW2 3900   2.055   3.493   2.249  0.2894  0.2369  2.4787
 1254SOL     OW 3901   1.460   2.302   2.556 -0.3401  0.3058  0.1429
 1254SOL    HW1 3902   1.490   2.391   2.578 -1.3153  0.6292  0.2554
 1254SOL    HW2 3903   1.516   2.244   2.607 -1.1341  0.9683  1.8736
 1255SOL     OW 3904   1.653   2.582   3.293 -0.1584 -0.0074  0.3499
 1255SOL    HW1 3905   1.563   2.565   3.321 -0.4187  1.3198  0.3600
 1255SOL    HW2 3906   1.705   2.571   3.373 -0.6116  1.5067  0.8820
 1256SOL     OW 3907   1.548   1.795   0.069 -0.6511 -0.0928 -0.1152
 1256SOL    HW1 3908   1.509   1.708   0.065 -2.2586  0.4938  1.2055
 1256SOL    HW2 3909   1.630   1.783   0.117  0.4575 -1.2217 -2.1663
 1257SOL     OW 3910   2.883   1.439   1.815  0.3196 -0.1361  0.2781
 1257SOL    HW1 3911   2.866   1.443   1.721  0.3034  0.5933  0.3092
 1257SOL    HW2 3912   2.938   1.362   1.826  2.2654  1.0549 -0.6429
 1258SOL     OW 3913   1.892   2.081   3.434 -0.3033  1.0586  0.2981
 1258SOL    HW1 3914   1.970   2.105   3.384  0.2029  0.7594  0.9487
 1258SOL    HW2 3915   1.869   1.993   3.402  1.8589 -0.5247  2.7531
 1259SOL     OW 3916   0.363   1.327   3.579  0.3075 -0.3086 -0.5487
 1259SOL    HW1 3917   0.388   1.417   3.559 -2.7359  0.7266 -0.2295
 1259SOL    HW2 3918   0.368   1.282   3.495  0.5812  0.4968 -0.9791
 1260SOL     OW 3919   0.385   1.927   3.653  0.0311  0.0575 -0.1542
 1260SOL    HW1 3920   0.324   1.883   3.595  0.6026 -0.3737 -0.4435
 1260SOL    HW2 3921   0.471   1.916   3.611  0.1955  1.4625 -0.2473
 1261SOL     OW 3922   1.567   0.139   2.308  0.1393  0.6515 -0.2512
 1261SOL    HW1 3923   1.507   0.195   2.259  0.1836 -0.1010 -1.2154
 1261SOL    HW2 3924   1.589   0.189   2.387 -2.1052  0.7649  0.3697
 1262SOL     OW 3925   3.411   1.530   2.395  0.0469  0.0979  0.1844
 1262SOL    HW1 3926   3.335   1.503   2.447  0.4257  0.7233  1.0966
 1262SOL    HW2 3927   3.433   1.617   2.429  0.8031  0.1745 -0.4744
 1263SOL     OW 3928   2.590   2.639   1.525  0.2312 -0.4948  0.6346
 1263SOL    HW1 3929   2.636   2.602   1.600  0.7799  0.2220  0.6542
 1263SOL    HW2 3930   2.634   2.600   1.449 -0.7133 -1.6888  0.6750
 1264SOL     OW 3931   3.011   0.321   2.163  0.2933  0.5031 -0.0435
 1264SOL    HW1 3932   3.058   0.384   2.109  1.6049  0.6903  1.2684
 1264SOL    HW2 3933   3.078   0.278   2.215 -0.6550 -1.4626 -0.3463
 1265SOL     OW 3934   3.006   0.645   0.792 -0.6503 -0.0235 -0.2024
 1265SOL    HW1 3935   2.915   0.669   0.775 -0.7122 -1.6658 -2.6645
 1265SOL    HW2 3936   3.001   0.559   0.834 -0.2395  0.5571  1.0782
 1266SOL     OW 3937   2.436   2.290   3.313  0.0465  0.6789  0.2246
 1266SOL    HW1 3938   2.476   2.253   3.392 -0.0535  1.4796  0.6638
 1266SOL    HW2 3939   2.466   2.234   3.242 -1.5196 -1.3484  1.0560
 1267SOL     OW 3940   2.086   3.406   3.188  0.2292 -0.0467 -0.1538
 1267SOL    HW1 3941   2.129   3.484   3.222 -0.6367  0.6730 -0.6704
 1267SOL    HW2 3942   2.143   3.377   3.117 -0.1830  0.9827 -0.9280
 1268SOL     OW 3943   2.797   0.814   2.750 -0.0266  0.2536 -0.4077
 1268SOL    HW1 3944   2.860   0.742   2.736 -1.1021 -0.7672 -0.1811
 1268SOL    HW2 3945   2.832   0.887   2.699  1.1588 -0.3876 -0.5622
 1269SOL     OW 3946   3.032   2.156   0.909 -0.3240  0.0518  0.6349
 1269SOL    HW1 3947   3.022   2.251   0.903 -1.4189 -0.0771  0.2018
 1269SOL    HW2 3948   3.096   2.135   0.841 -1.7125  0.2650 -0.8115
 1270SOL     OW 3949   1.502   1.317   2.657 -0.0767  0.1226 -0.2535
 1270SOL    HW1 3950   1.589   1.333   2.622 -0.1548  1.9037  0.3042
 1270SOL    HW2 3951   1.504   1.352   2.746 -0.5415 -2.3409  0.8168
 1271SOL     OW 3952   0.667   2.613   2.761 -0.2375 -0.2868 -0.1854
 1271SOL    HW1 3953   0.630   2.702   2.757  0.5015  0.1732  1.9093
 1271SOL    HW2 3954   0.663   2.582   2.671  0.2355  2.1972 -1.1622
 1272SOL     OW 3955  -0.010   2.210   0.789  0.2998  0.5908 -0.6899
 1272SOL    HW1 3956   0.007   2.299   0.758 -0.3610  1.6647  1.7578
 1272SOL    HW2 3957   0.076   2.176   0.814  0.5970  0.3985 -1.9470
 1273SOL     OW 3958   0.370   1.302   0.368  0.3218 -0.0333 -0.1394
 1273SOL    HW1 3959   0.387   1.349   0.286 -0.5028 -2.0053 -1.5152
 1273SOL    HW2 3960   0.445   1.242   0.376  0.6935  0.5537  0.8837
 1274SOL     OW 3961   0.495   1.617   2.413  0.2064 -0.7598  0.0495
 1274SOL    HW1 3962   0.494   1.530   2.453  2.6335 -0.9151 -0.1237
 1274SOL    HW2 3963   0.587   1.637   2.400 -0.3359  1.4166 -0.8983
 1275SOL     OW 3964   1.277   0.271   2.622 -0.2606  0.0495  0.1658
 1275SOL    HW1 3965   1.360   0.271   2.574  0.7944 -1.2818  1.8448
 1275SOL    HW2 3966   1.250   0.179   2.622 -2.7033  0.6512 -1.7905
 1276SOL     OW 3967   1.744   3.189   3.305 -0.6331 -0.2065  0.1520
 1276SOL    HW1 3968   1.669   3.136   3.329  0.9673 -2.3988  0.6407
 1276SOL    HW2 3969   1.794   3.197   3.387 -0.4535  1.4514 -0.0881
 1277SOL     OW 3970   1.271   3.700   3.129  0.2167 -0.4135 -0.1978
 1277SOL    HW1 3971   1.261   3.606   3.118 -0.9638 -0.2270 -0.8602
 1277SOL    HW2 3972   1.186   3.730   3.162  1.3054  0.1055  2.4700
 1278SOL     OW 3973   2.548   2.008   2.418 -0.3612 -0.2738 -0.5053
 1278SOL    HW1 3974   2.605   1.940   2.383  0.4531 -0.0659  0.3852
 1278SOL    HW2 3975   2.565   2.084   2.362  0.2320 -0.2192 -0.2603
 1279SOL     OW 3976   1.010   3.725   3.266  0.3776 -0.6337  0.6632
 1279SOL    HW1 3977   0.927   3.742   3.224  0.5575 -3.6275 -1.1667
 1279SOL    HW2 3978   0.987   3.675   3.345  0.3451  0.4644  1.3629
 1280SOL     OW 3979   1.151   1.434   3.733 -0.1148 -0.3720  0.1187
 1280SOL    HW1 3980   1.198   1.512   3.704 -0.8665  0.4263  1.0097
 1280SOL    HW2 3981   1.060   1.449   3.708 -0.4426 -0.5044  1.2027
 1281SOL     OW 3982   3.177   3.525   0.855 -0.0564  0.2854  0.3981
 1281SOL    HW1 3983   3.192   3.503   0.947 -3.5319  1.2636  1.3535
 1281SOL    HW2 3984   3.093   3.485   0.834  0.8845 -0.3755 -2.6014
 1282SOL     OW 3985   2.354   2.349   0.902  0.4646 -0.0179 -0.5113
 1282SOL    HW1 3986   2.293   2.406   0.948  0.2640 -0.4551 -0.2340
 1282SOL    HW2 3987   2.388   2.403   0.830  0.3018  0.4592 -0.2320
 1283SOL     OW 3988   3.372   3.664   2.529 -0.0716  0.2597 -0.1798
 1283SOL    HW1 3989   3.436   3.659   2.458 -1.7612  1.8009 -1.9400
 1283SOL    HW2 3990   3.337   3.753   2.523  0.2590  0.7433  3.1620
 1284SOL     OW 3991   3.488   0.781   0.399 -0.2245  0.2801  0.2129
 1284SOL    HW1 3992   3.439   0.772   0.481 -0.0949  1.6691  0.4711
 1284SOL    HW2 3993   3.523   0.870   0.402 -0.0250  0.2750 -1.2585
 1285SOL     OW 3994   0.734   2.325   1.058 -0.6735 -0.3812 -0.1264
 1285SOL    HW1 3995   0.645   2.292   1.071 -0.7474 -1.3668 -2.6460
 1285SOL    HW2 3996   0.786   2.248   1.035  1.5011 -0.2819  3.5244
 1286SOL     OW 3997  -0.009   2.760   2.060  0.1887 -0.1127 -0.3095
 1286SOL    HW1 3998  -0.065   2.764   2.137 -0.8237 -1.4532 -0.9429
 1286SOL    HW2 3999   0.077   2.734   2.093 -0.4095 -1.3852  0.3099
 1287SOL     OW 4000   3.677   3.247   1.861 -0.0368  0.6302 -0.3767
 1287SOL    HW1 4001   3.675   3.339   1.884 -0.0091  0.5438 -0.0322
 1287SOL    HW2 4002   3.678   3.247   1.765  0.6510  0.9968 -0.3738
 1288SOL     OW 4003   0.116   0.481   1.916  0.6893 -0.2996  0.2499
 1288SOL    HW1 4004   0.123   0.490   2.011 -0.2217 -1.8149  0.5062
 1288SOL    HW2 4005   0.047   0.542   1.891 -1.7096 -2.4160  1.1567
 1289SOL     OW 4006   1.825   0.903   1.845  0.8136 -0.0473 -0.2325
 1289SOL    HW1 4007   1.900   0.909   1.786 -0.0923 -0.0194 -1.4067
 1289SOL    HW2 4008   1.790   0.992   1.847  0.7618 -0.0767  0.2543
 1290SOL     OW 4009   3.641   3.237   2.503 -0.5474  0.5476 -0.1662
 1290SOL    HW1 4010   3.678   3.150   2.484  0.5808  1.0718 -0.5168
 1290SOL    HW2 4011   3.590   3.258   2.425 -1.2688 -0.0084  0.1404
 1291SOL     OW 4012   3.180   2.284   3.072  0.0127 -0.8412  0.5362
 1291SOL    HW1 4013   3.179   2.244   3.159 -0.3470 -0.1080  0.8877
 1291SOL    HW2 4014   3.122   2.360   3.081 -0.0675 -0.7885 -0.3612
 1292SOL     OW 4015   0.293   3.175   2.245 -0.3006 -0.1836 -0.0821
 1292SOL    HW1 4016   0.219   3.163   2.186  0.2307 -2.3033 -0.3921
 1292SOL    HW2 4017   0.370   3.153   2.193  0.3561 -0.1017  0.8230
 1293SOL     OW 4018   2.057   1.684   0.531 -0.2931  0.8111  0.0836
 1293SOL    HW1 4019   1.986   1.705   0.593  1.2240  2.8113  1.2577
 1293SOL    HW2 4020   2.046   1.746   0.460 -1.1699 -0.5543 -1.0346
 1294SOL     OW 4021   2.263   2.738   2.724 -0.7863 -0.2088 -0.1029
 1294SOL    HW1 4022   2.232   2.739   2.633  0.6791  1.4957 -0.6511
 1294SOL    HW2 4023   2.242   2.651   2.756 -2.2676 -0.5109 -1.7463
 1295SOL     OW 4024   0.565   1.241   0.623 -0.5088  0.4231 -0.5357
 1295SOL    HW1 4025   0.553   1.154   0.584  1.2138  0.4193 -1.1559
 1295SOL    HW2 4026   0.660   1.248   0.637 -0.6855  1.9526  0.1214
 1296SOL     OW 4027   1.335   0.042   3.534  0.5847 -0.2827  0.5799
 1296SOL    HW1 4028   1.406   0.063   3.594 -0.0747 -0.4219  1.4150
 1296SOL    HW2 4029   1.380   0.020   3.452  1.4717  0.2223  0.9138
 1297SOL     OW 4030   0.772   3.539   3.607 -0.0268  0.0756  0.0136
 1297SOL    HW1 4031   0.774   3.607   3.674 -0.4899 -0.6029  0.7173
 1297SOL    HW2 4032   0.857   3.548   3.562 -0.0558  1.0701  0.1314
 1298SOL     OW 4033   2.194   2.425   0.350 -0.0153  0.6882  0.0471
 1298SOL    HW1 4034   2.125   2.387   0.296  0.5044 -0.3746  0.1039
 1298SOL    HW2 4035   2.273   2.377   0.326  0.7074  1.8387  0.0308
 1299SOL     OW 4036   3.479   0.339   3.504 -0.0412 -0.1883  0.6551
 1299SOL    HW1 4037   3.456   0.248   3.522 -1.7585  0.1956  0.5742
 1299SOL    HW2 4038   3.407   0.390   3.542 -0.8303  0.9418 -2.0675
 1300SOL     OW 4039   3.025   2.495   1.892  0.1978 -0.6382 -0.6177
 1300SOL    HW1 4040   3.111   2.505   1.933  0.8896 -0.3938 -2.0720
 1300SOL    HW2 4041   3.029   2.410   1.850  0.7623  0.4496 -2.9333
 1301SOL     OW 4042   2.475   2.081   3.092 -0.0226  0.3113  0.0155
 1301SOL    HW1 4043   2.389   2.041   3.077  0.2846 -1.1013  1.7432
 1301SOL    HW2 4044   2.531   2.009   3.121  1.4413  1.4347  0.1224
 1302SOL     OW 4045   1.916   3.158   1.494 -0.2790 -0.1344 -0.3005
 1302SOL    HW1 4046   1.952   3.081   1.538  0.6882  0.3662 -0.1923
 1302SOL    HW2 4047   1.822   3.155   1.513  0.1077  0.1041  1.8882
 1303SOL     OW 4048   2.546   0.482   2.017  0.2683  0.5233 -0.2984
 1303SOL    HW1 4049   2.497   0.420   2.071 -0.8447 -2.8325 -4.5879
 1303SOL    HW2 4050   2.635   0.447   2.016  0.5218  1.1453  0.0774
 1304SOL     OW 4051   0.325   0.711   0.480 -0.5147 -0.2524  0.5264
 1304SOL    HW1 4052   0.292   0.652   0.547 -0.6117  1.2564  1.8809
 1304SOL    HW2 4053   0.413   0.735   0.511 -1.0576  1.4707  0.8555
 1305SOL     OW 4054   0.781   2.301   3.704 -0.0116 -0.2531 -0.3281
 1305SOL    HW1 4055   0.692   2.330   3.682 -0.1868 -0.8452 -0.4417
 1305SOL    HW2 4056   0.774   2.205   3.705  1.3276 -0.4970 -3.4427
 1306SOL     OW 4057   0.860   0.169   1.389 -0.6435 -0.7253  0.4378
 1306SOL    HW1 4058   0.813   0.250   1.368  0.0931 -0.7272 -1.3819
 1306SOL    HW2 4059   0.808   0.100   1.348  0.1408 -0.8827 -0.2991
 1307SOL     OW 4060   2.890   1.127   1.846 -0.4816  0.4842 -0.1012
 1307SOL    HW1 4061   2.977   1.167   1.844 -0.7534  1.0883  0.0085
 1307SOL    HW2 4062   2.900   1.052   1.904  0.2249 -0.0751 -0.9218
 1308SOL     OW 4063   0.074   0.441   2.537  0.2061  0.4122  0.2790
 1308SOL    HW1 4064   0.037   0.520   2.576 -0.3844  0.2677  0.0315
 1308SOL    HW2 4065   0.160   0.468   2.505  1.0181  0.3656  2.2663
 1309SOL     OW 4066   3.205   0.596   1.474 -0.0028 -0.2457  0.5033
 1309SOL    HW1 4067   3.158   0.679   1.471 -0.7829 -0.6089  1.7606
 1309SOL    HW2 4068   3.267   0.606   1.547  1.5073  0.0155 -0.7563
 1310SOL     OW 4069   0.543   0.327   0.929  0.3040 -0.5718  0.0249
 1310SOL    HW1 4070   0.628   0.369   0.942  0.3897 -0.2724 -1.3479
 1310SOL    HW2 4071   0.514   0.305   1.017  1.4925 -0.0672  0.5723
 1311SOL     OW 4072   1.491   3.252   1.792 -0.4557 -0.1785 -0.4956
 1311SOL    HW1 4073   1.512   3.338   1.755 -2.9714  0.8354  0.1684
 1311SOL    HW2 4074   1.410   3.226   1.747  0.3639 -2.3600 -0.8367
 1312SOL     OW 4075   2.041   3.161   0.437  0.1300  1.3618  0.4308
 1312SOL    HW1 4076   2.062   3.141   0.528 -0.6780  1.1333  0.5745
 1312SOL    HW2 4077   1.991   3.085   0.407 -1.7681  2.4876  0.5588
 1313SOL     OW 4078   3.643   1.102   2.010  0.0799 -0.1808  0.0480
 1313SOL    HW1 4079   3.706   1.065   1.948  0.6436  2.0877 -0.8492
 1313SOL    HW2 4080   3.694   1.120   2.089  0.1397 -0.0195 -0.0269
 1314SOL     OW 4081   3.694   1.916   0.997 -0.2633  0.0425 -0.4519
 1314SOL    HW1 4082   3.649   1.874   1.070  0.1713 -1.3301 -0.9394
 1314SOL    HW2 4083   3.678   2.010   1.009 -1.1500 -0.2436  0.7526
 1315SOL     OW 4084   1.805   2.163   0.354  0.1664  0.6034  0.2251
 1315SOL    HW1 4085   1.740   2.219   0.398  1.8388  2.6382  0.2634
 1315SOL    HW2 4086   1.863   2.134   0.425 -1.6576 -2.7974  0.5064
 1316SOL     OW 4087   1.402   0.057   0.180  0.1946  0.6854  0.2047
 1316SOL    HW1 4088   1.391   0.023   0.268 -2.2562  2.2846  0.6043
 1316SOL    HW2 4089   1.353  -0.004   0.124  0.6581  0.3964  0.1056
 1317SOL     OW 4090   2.426   0.669   1.861  0.0776  0.1967 -0.3483
 1317SOL    HW1 4091   2.509   0.716   1.850  0.6644 -0.7722 -0.1797
 1317SOL    HW2 4092   2.450   0.591   1.911 -1.0477  0.2142  0.2431
 1318SOL     OW 4093   0.939   0.462   2.112 -0.2233  0.5383 -1.1496
 1318SOL    HW1 4094   0.944   0.479   2.206 -0.1458 -0.4427 -0.9653
 1318SOL    HW2 4095   0.884   0.532   2.078 -0.5478  0.7003 -0.3197
 1319SOL     OW 4096   2.245   3.309   0.333 -0.2996 -0.0484 -0.1014
 1319SOL    HW1 4097   2.219   3.399   0.316 -2.2598 -0.0454  2.2925
 1319SOL    HW2 4098   2.168   3.269   0.374  0.4656 -2.8552 -1.1643
 1320SOL     OW 4099   2.141   1.101   0.557  0.2839 -0.1227  0.3957
 1320SOL    HW1 4100   2.171   1.035   0.620  0.0869 -0.7189 -0.1176
 1320SOL    HW2 4101   2.152   1.059   0.471 -0.3696  0.2962  0.0940
 1321SOL     OW 4102   3.613   3.498   1.910 -0.3424  0.2939  0.5972
 1321SOL    HW1 4103   3.566   3.526   1.832  1.9846  2.3813 -0.1731
 1321SOL    HW2 4104   3.633   3.579   1.957  0.5223 -0.7040  2.0470
 1322SOL     OW 4105   2.338   1.871   1.636  0.0974  0.5333 -0.4157
 1322SOL    HW1 4106   2.355   1.949   1.690  1.7687 -0.5583  0.7520
 1322SOL    HW2 4107   2.260   1.831   1.674  0.9997  0.0223  0.9825
 1323SOL     OW 4108   2.605   1.638   2.271 -0.3020 -0.2075 -0.3694
 1323SOL    HW1 4109   2.551   1.603   2.342 -0.2232  1.1984  0.4301
 1323SOL    HW2 4110   2.555   1.622   2.192 -0.4342 -1.7300 -0.0074
 1324SOL     OW 4111   2.689   0.608   3.050  0.4963 -0.0111  0.0744
 1324SOL    HW1 4112   2.635   0.635   2.975 -1.1775 -1.9090  0.5000
 1324SOL    HW2 4113   2.630   0.612   3.125  1.1117 -1.4576  0.6856
 1325SOL     OW 4114   0.864   1.335   1.671  0.2473 -0.6247  0.0122
 1325SOL    HW1 4115   0.863   1.355   1.577  0.6594 -0.3826  0.0614
 1325SOL    HW2 4116   0.955   1.313   1.690  0.0652 -1.1984  0.2475
 1326SOL     OW 4117   1.532   1.956   3.545 -0.3238  0.1469  0.1930
 1326SOL    HW1 4118   1.555   2.047   3.525 -2.4716  0.5804 -0.6435
 1326SOL    HW2 4119   1.547   1.947   3.639  0.7433  1.0760  0.1338
 1327SOL     OW 4120   0.332   1.451   0.126 -0.0237 -0.0241 -0.0415
 1327SOL    HW1 4121   0.274   1.381   0.097  1.1422 -0.7693 -0.6430
 1327SOL    HW2 4122   0.275   1.528   0.131 -1.3479 -0.9947  0.6930
 1328SOL     OW 4123   2.460   3.716   3.406  0.5688 -0.0588  0.0936
 1328SOL    HW1 4124   2.518   3.661   3.459  0.5029 -0.0035  0.2253
 1328SOL    HW2 4125   2.517   3.753   3.339  0.5728 -0.4444 -0.1174
 1329SOL     OW 4126   0.673   3.327   2.754 -0.0327 -0.3857 -0.4137
 1329SOL    HW1 4127   0.686   3.233   2.768 -0.5430 -0.3211  0.6285
 1329SOL    HW2 4128   0.608   3.352   2.820  1.3769  1.0320  0.5103
 1330SOL     OW 4129   2.783   0.816   1.096 -0.5054  0.2622  0.3391
 1330SOL    HW1 4130   2.804   0.772   1.179  2.7455 -1.2798 -1.1090
 1330SOL    HW2 4131   2.707   0.768   1.062 -1.0695  0.0705  1.7863
 1331SOL     OW 4132   0.768   0.497   1.057  0.2320 -0.3195 -0.7006
 1331SOL    HW1 4133   0.757   0.466   1.147 -3.2261  0.5127 -0.7301
 1331SOL    HW2 4134   0.774   0.592   1.065 -1.0165 -0.1675 -1.3818
 1332SOL     OW 4135   0.592   2.762   3.122 -0.1089 -0.1024  0.0521
 1332SOL    HW1 4136   0.510   2.809   3.136 -0.1537 -0.1674  0.0133
 1332SOL    HW2 4137   0.659   2.830   3.113  0.3603 -0.0383  3.0169
 1333SOL     OW 4138  -0.003   1.312   0.895 -0.2080  0.0594 -0.3432
 1333SOL    HW1 4139   0.092   1.309   0.889 -0.2947 -2.3547 -1.6256
 1333SOL    HW2 4140  -0.032   1.327   0.805 -1.0741  1.6433  0.1589
 1334SOL     OW 4141   1.941   2.739   3.093  0.1061 -0.4992  0.1054
 1334SOL    HW1 4142   1.961   2.812   3.151 -0.1869 -0.5779  0.3055
 1334SOL    HW2 4143   1.957   2.774   3.005 -1.7180  0.3834  0.0772
 1335SOL     OW 4144   1.798   1.505   0.562 -0.2211  0.5612  0.0127
 1335SOL    HW1 4145   1.871   1.479   0.618 -0.2711  0.5374  0.0675
 1335SOL    HW2 4146   1.794   1.600   0.569  1.1557  0.8010 -1.6605
 1336SOL     OW 4147   0.765   3.057   2.669 -0.2278 -0.1522 -0.0456
 1336SOL    HW1 4148   0.779   3.082   2.578 -4.0052 -1.6575 -1.2562
 1336SOL    HW2 4149   0.786   2.964   2.672  2.4336  0.4009  1.4153
 1337SOL     OW 4150  -0.014   2.131   1.976  0.5671 -0.0835  0.0090
 1337SOL    HW1 4151   0.072   2.172   1.968  0.3546  0.3375 -0.1659
 1337SOL    HW2 4152   0.005   2.039   1.994  1.0527  0.0489  0.2020
 1338SOL     OW 4153   3.033   0.584   0.479 -0.3274 -0.1243 -0.3309
 1338SOL    HW1 4154   3.096   0.557   0.413  0.3436  0.2831  0.1291
 1338SOL    HW2 4155   3.027   0.510   0.539  0.2888  0.1217  0.0394
 1339SOL     OW 4156   1.923   1.219   0.626  0.0615 -0.0639  0.0524
 1339SOL    HW1 4157   1.951   1.296   0.676  1.4783 -1.4728  1.5651
 1339SOL    HW2 4158   2.003   1.169   0.613 -1.1261 -2.3468  1.0613
 1340SOL     OW 4159   1.459   0.778   3.700  0.0207 -0.6776  0.3164
 1340SOL    HW1 4160   1.366   0.778   3.679  0.5094 -0.1019 -2.1356
 1340SOL    HW2 4161   1.469   0.707   3.763 -2.3436  0.5402  2.2310
 1341SOL     OW 4162   2.355   0.470   2.928  0.0853  0.9089  0.4239
 1341SOL    HW1 4163   2.291   0.403   2.953 -0.9309  0.6091 -2.5646
 1341SOL    HW2 4164   2.323   0.550   2.969 -1.2073  0.4183  0.4142
 1342SOL     OW 4165   1.334   1.883   2.200  0.0291  0.1319 -0.1503
 1342SOL    HW1 4166   1.363   1.792   2.204 -1.7787 -0.5107 -0.3730
 1342SOL    HW2 4167   1.339   1.914   2.291 -0.8318 -0.7157  0.2004
 1343SOL     OW 4168   1.103   1.137   1.144  0.6131 -0.6056  0.2460
 1343SOL    HW1 4169   1.009   1.144   1.162  0.5757 -0.7746  0.1292
 1343SOL    HW2 4170   1.126   1.220   1.103  1.1986  0.7855  3.1381
 1344SOL     OW 4171   3.482   1.833   3.054 -0.2431 -0.5254 -0.8626
 1344SOL    HW1 4172   3.432   1.864   3.129  0.1079  0.8813 -1.1760
 1344SOL    HW2 4173   3.523   1.912   3.018  2.2261 -1.6025 -0.6153
 1345SOL     OW 4174   3.582   0.279   0.533 -0.4596  0.0904 -0.0259
 1345SOL    HW1 4175   3.551   0.241   0.451  2.6282 -0.4024 -1.0772
 1345SOL    HW2 4176   3.545   0.367   0.534  0.0219  0.3741 -2.3681
 1346SOL     OW 4177   2.785   3.186   3.072  0.2435 -0.1664 -0.0249
 1346SOL    HW1 4178   2.793   3.181   2.977 -1.6062 -0.3011 -0.2124
 1346SOL    HW2 4179   2.803   3.277   3.093  0.5424 -0.1102 -0.5092
 1347SOL     OW 4180   3.028   0.029   1.489  0.0431  0.3355 -0.4447
 1347SOL    HW1 4181   2.997   0.091   1.555  0.0386  0.9853 -1.0588
 1347SOL    HW2 4182   2.952   0.011   1.435 -0.3593 -1.3664  0.5998
 1348SOL     OW 4183   2.832   3.041   2.390  0.3740  0.1398 -0.1528
 1348SOL    HW1 4184   2.896   2.974   2.416 -0.4753  0.1525  2.1562
 1348SOL    HW2 4185   2.879   3.124   2.398 -0.0397  0.2169  2.2770
 1349SOL     OW 4186   3.519   0.797   2.797  0.8369 -0.9015 -0.6200
 1349SOL    HW1 4187   3.534   0.878   2.748  1.7711 -0.7883 -0.1608
 1349SOL    HW2 4188   3.493   0.827   2.884 -0.1943 -1.1092 -0.8339
 1350SOL     OW 4189   2.639   0.244   3.502 -0.1168 -0.4277  0.3074
 1350SOL    HW1 4190   2.730   0.256   3.477  0.4689 -1.6749  1.7382
 1350SOL    HW2 4191   2.637   0.260   3.597 -1.0640 -1.9469  0.5789
 1351SOL     OW 4192   1.401   1.640   1.370  0.7018 -0.6668 -0.1980
 1351SOL    HW1 4193   1.320   1.689   1.358  0.1993 -0.9608  1.7396
 1351SOL    HW2 4194   1.469   1.698   1.334 -0.0103  0.9518  0.9189
 1352SOL     OW 4195   0.459   0.230   1.182  0.4559 -0.2428 -0.1593
 1352SOL    HW1 4196   0.479   0.138   1.200  0.8382  0.2131  2.0588
 1352SOL    HW2 4197   0.365   0.237   1.193  0.5630 -0.1743  0.7956
 1353SOL     OW 4198   0.179   0.661   0.257 -0.4953 -0.2515 -0.3813
 1353SOL    HW1 4199   0.131   0.735   0.219  1.5867  0.6417 -1.4251
 1353SOL    HW2 4200   0.227   0.698   0.331 -0.3389 -0.8224 -0.1884
 1354SOL     OW 4201   0.214   3.232   0.732  0.8653  0.3788  0.3693
 1354SOL    HW1 4202   0.147   3.265   0.792  0.5627 -0.5988  0.5853
 1354SOL    HW2 4203   0.281   3.301   0.731 -1.4617  2.8609 -2.1782
 1355SOL     OW 4204   1.112   0.701   0.966  0.3307  0.0485 -0.1812
 1355SOL    HW1 4205   1.120   0.683   1.060 -0.1906 -1.2456 -0.3574
 1355SOL    HW2 4206   1.135   0.793   0.957 -1.2725  0.6685  1.4498
 1356SOL     OW 4207   2.103   0.169   0.300  0.0814  0.1621  0.1231
 1356SOL    HW1 4208   2.107   0.118   0.381  1.2196 -2.4343 -1.4087
 1356SOL    HW2 4209   2.047   0.117   0.243 -1.0165  2.1306 -0.6794
 1357SOL     OW 4210   2.726   2.100   0.409  0.0350 -0.2758  0.7342
 1357SOL    HW1 4211   2.817   2.119   0.390 -0.3963  1.4312  0.1246
 1357SOL    HW2 4212   2.687   2.186   0.426 -2.3358 -0.3510 -2.9987
 1358SOL     OW 4213   3.422   1.665   1.844  0.0133  0.2024  0.2665
 1358SOL    HW1 4214   3.485   1.726   1.882  2.1909 -0.3362 -2.2110
 1358SOL    HW2 4215   3.441   1.581   1.886  0.5610  0.1543 -0.0798
 1359SOL     OW 4216   0.995   3.708   1.033  0.3520  0.6140 -0.5513
 1359SOL    HW1 4217   0.926   3.688   1.097  0.6228  0.9775 -0.1405
 1359SOL    HW2 4218   1.030   3.793   1.062  1.5127  0.0632 -0.2926
 1360SOL     OW 4219   1.054   0.194   1.194  0.1149  0.9399  0.2495
 1360SOL    HW1 4220   0.966   0.161   1.212  0.2080  0.1951 -0.5768
 1360SOL    HW2 4221   1.111   0.143   1.252  0.2887 -0.6223 -1.2124
 1361SOL     OW 4222   1.631   2.072   0.059  0.1242 -0.5138  0.1208
 1361SOL    HW1 4223   1.705   2.018   0.029  2.0950  0.2106  3.1983
 1361SOL    HW2 4224   1.603   2.032   0.141 -0.6627  1.1473  0.7174
 1362SOL     OW 4225   2.239   1.984   0.539 -0.2145  0.0466 -0.1095
 1362SOL    HW1 4226   2.227   2.075   0.563 -2.2092 -0.1655 -0.1803
 1362SOL    HW2 4227   2.239   1.984   0.443 -0.3237 -0.0444 -0.1095
 1363SOL     OW 4228   0.236   2.817   2.985  0.2054  0.2700  0.4212
 1363SOL    HW1 4229   0.158   2.872   2.978 -1.6191 -2.3071 -1.4267
 1363SOL    HW2 4230   0.276   2.820   2.898  2.4599  1.7870  1.4140
 1364SOL     OW 4231   2.531   0.133   0.409  0.1342  0.0512  0.0672
 1364SOL    HW1 4232   2.491   0.103   0.328  0.2336 -2.3066  0.8365
 1364SOL    HW2 4233   2.486   0.216   0.428 -2.1192 -0.8888 -0.7725
 1365SOL     OW 4234   0.758   0.705   2.342  0.3639 -0.2977 -0.1906
 1365SOL    HW1 4235   0.841   0.745   2.314  1.1547 -0.9148  1.2032
 1365SOL    HW2 4236   0.698   0.780   2.352  1.5506  0.4942  1.4426
 1366SOL     OW 4237   0.854   2.077   0.963  0.0674 -0.1658  0.5500
 1366SOL    HW1 4238   0.855   1.982   0.971  0.9371 -0.3217 -0.9942
 1366SOL    HW2 4239   0.879   2.094   0.872 -1.1213  1.5094  0.4858
 1367SOL     OW 4240   3.401   2.890   2.779 -0.1587  0.0391 -0.0422
 1367SOL    HW1 4241   3.433   2.977   2.754  1.4035 -0.4861 -0.0050
 1367SOL    HW2 4242   3.339   2.866   2.710  1.8282 -0.1493 -1.8671
 1368SOL     OW 4243   1.564   1.945   2.693 -0.2035  0.1640  0.4397
 1368SOL    HW1 4244   1.501   1.980   2.756  0.0714 -0.3939  1.0455
 1368SOL    HW2 4245   1.594   1.863   2.733 -1.1388 -1.0006 -1.0953
 1369SOL     OW 4246   3.141   0.042   3.015 -0.4608 -0.5684  0.1564
 1369SOL    HW1 4247   3.046   0.039   3.022 -0.9672  2.4045 -2.7761
 1369SOL    HW2 4248   3.160   0.011   2.926  1.1548  0.3490  0.1349
 1370SOL     OW 4249   3.658   0.277   1.957  0.1786 -0.7822  0.1220
 1370SOL    HW1 4250   3.580   0.332   1.946  1.3077  0.6559 -1.1319
 1370SOL    HW2 4251   3.729   0.329   1.920  2.3474 -0.7233  3.8023
 1371SOL     OW 4252   2.073   0.652   3.525 -0.1205 -0.3641 -0.5280
 1371SOL    HW1 4253   2.077   0.747   3.527  0.2062 -0.3726 -0.7284
 1371SOL    HW2 4254   1.998   0.633   3.468 -2.0990 -0.2274  1.8573
 1372SOL     OW 4255   1.854   1.727   1.310  0.3466  0.4799 -0.3454
 1372SOL    HW1 4256   1.818   1.669   1.243 -0.3512  1.8623 -1.2102
 1372SOL    HW2 4257   1.812   1.700   1.391  0.7208 -0.7988 -0.5619
 1373SOL     OW 4258   0.257   0.119   1.338  0.1546 -0.8651  0.1568
 1373SOL    HW1 4259   0.162   0.127   1.349  0.2651 -0.6768  1.0715
 1373SOL    HW2 4260   0.275   0.027   1.353  0.1084 -0.9275 -0.1530
 1374SOL     OW 4261   1.840   2.491   0.180  0.4163 -0.3134 -0.1625
 1374SOL    HW1 4262   1.781   2.501   0.254  0.9261 -0.6831  0.3019
 1374SOL    HW2 4263   1.794   2.430   0.121 -0.3848  0.6658 -0.5855
 1375SOL     OW 4264   2.385   2.790   1.459  0.6800 -0.1222  0.3603
 1375SOL    HW1 4265   2.431   2.874   1.457 -0.0840  0.2938 -0.3918
 1375SOL    HW2 4266   2.454   2.725   1.470  1.2000  0.6564  2.0846
 1376SOL     OW 4267   3.538   3.662   2.295  0.0654 -0.9166  0.6484
 1376SOL    HW1 4268   3.529   3.757   2.286  3.4120 -0.3332  2.0415
 1376SOL    HW2 4269   3.477   3.626   2.232  0.0952  2.2002 -1.3497
 1377SOL     OW 4270   2.343   2.157   1.732 -0.1408  0.4340  0.2395
 1377SOL    HW1 4271   2.275   2.199   1.680 -1.0924  0.8965  1.7990
 1377SOL    HW2 4272   2.420   2.213   1.721 -0.7266  1.2909  0.4155
 1378SOL     OW 4273   1.809   2.461   2.513 -0.4371  0.6994 -0.0440
 1378SOL    HW1 4274   1.900   2.470   2.483  0.3172 -2.3198  0.9922
 1378SOL    HW2 4275   1.815   2.410   2.593 -3.0850  0.3834  0.0387
 1379SOL     OW 4276   2.963   3.406   2.520 -0.7204 -0.5695 -0.0851
 1379SOL    HW1 4277   3.047   3.427   2.563 -1.1692 -0.9835  1.0169
 1379SOL    HW2 4278   2.987   3.345   2.450 -0.0510 -0.3276 -0.0840
 1380SOL     OW 4279   1.632   0.213   1.387 -0.4090 -0.4082  0.4801
 1380SOL    HW1 4280   1.580   0.239   1.463 -0.3861  0.2928  0.2585
 1380SOL    HW2 4281   1.608   0.275   1.318  2.6401  1.6753  1.1094
 1381SOL     OW 4282   1.054   0.203   1.580  0.4896 -0.1427  0.0895
 1381SOL    HW1 4283   0.993   0.169   1.514  0.5553  0.5139 -0.3222
 1381SOL    HW2 4284   1.094   0.125   1.618  0.7030 -0.5318 -0.8950
 1382SOL     OW 4285   1.390   0.314   0.738 -0.1688  0.2425  0.3376
 1382SOL    HW1 4286   1.469   0.329   0.791 -0.2490  2.1451  0.0016
 1382SOL    HW2 4287   1.354   0.402   0.724 -0.3002 -0.1903 -2.6672
 1383SOL     OW 4288   0.273   3.318   1.495 -0.0385 -0.3939  0.3549
 1383SOL    HW1 4289   0.345   3.269   1.454  0.2023  0.4218 -0.2202
 1383SOL    HW2 4290   0.238   3.258   1.560 -0.6493 -1.8945 -1.2614
 1384SOL     OW 4291   0.897   1.542   3.708  0.8931  0.0967 -0.1801
 1384SOL    HW1 4292   0.804   1.561   3.723  0.9681  0.0577  0.3252
 1384SOL    HW2 4293   0.934   1.626   3.681  0.4724 -0.1365 -1.5721
 1385SOL     OW 4294   2.772   2.524   1.314  0.0122 -0.4373  0.2074
 1385SOL    HW1 4295   2.743   2.489   1.230 -1.1031  0.4412  0.2154
 1385SOL    HW2 4296   2.796   2.615   1.296  1.6831 -0.7881  0.4494
 1386SOL     OW 4297   3.631   3.070   1.005  0.0256  0.0303 -0.1573
 1386SOL    HW1 4298   3.595   3.049   0.918 -1.0630  0.2216  0.2330
 1386SOL    HW2 4299   3.621   2.988   1.055 -0.7091  0.3367  0.2165
 1387SOL     OW 4300   1.184   0.502   0.315 -0.2007 -0.5351 -0.3294
 1387SOL    HW1 4301   1.133   0.485   0.394  0.6637  0.4785  0.4651
 1387SOL    HW2 4302   1.240   0.425   0.305  0.0930 -0.4183  0.3695
 1388SOL     OW 4303   1.435   2.727   1.805 -0.8741  0.4001  0.7659
 1388SOL    HW1 4304   1.422   2.814   1.841  0.7645  0.5898  1.0101
 1388SOL    HW2 4305   1.369   2.718   1.736 -1.0039  1.8608  0.6817
 1389SOL     OW 4306   3.529   2.085   3.212  0.3441 -0.7020  0.6746
 1389SOL    HW1 4307   3.610   2.056   3.170  0.0349 -0.6997  0.0642
 1389SOL    HW2 4308   3.533   2.181   3.209 -0.3259 -0.6864 -0.6663
 1390SOL     OW 4309   0.121   2.740   0.737 -0.5667 -0.0486  0.4596
 1390SOL    HW1 4310   0.031   2.748   0.770 -1.0747  0.7425 -1.0476
 1390SOL    HW2 4311   0.134   2.818   0.684  0.4527 -0.9324 -0.6405
 1391SOL     OW 4312   3.344   1.091   2.019  0.1717  0.1849 -0.1351
 1391SOL    HW1 4313   3.326   1.164   2.079  1.9108  0.4627  0.0973
 1391SOL    HW2 4314   3.437   1.100   1.997 -0.0907 -0.7284 -1.7973
 1392SOL     OW 4315   2.121   3.234   2.097  0.4645 -0.4264  0.5960
 1392SOL    HW1 4316   2.180   3.253   2.024  0.1279 -0.7234  0.2419
 1392SOL    HW2 4317   2.170   3.173   2.152 -0.3094 -2.4358 -0.8306
 1393SOL     OW 4318   1.932   0.337   1.731  0.4705  0.0029 -0.0912
 1393SOL    HW1 4319   1.857   0.386   1.697  0.9427  0.0203 -1.1362
 1393SOL    HW2 4320   1.949   0.270   1.665  1.9795  0.6172 -0.3644
 1394SOL     OW 4321   3.289   0.398   0.447  0.1258 -0.0623 -0.0543
 1394SOL    HW1 4322   3.318   0.475   0.497 -1.2569  0.3258  0.1912
 1394SOL    HW2 4323   3.285   0.328   0.513 -0.0410  0.0184  0.0205
 1395SOL     OW 4324   1.286   1.681   0.690 -0.4016  0.6474  0.1503
 1395SOL    HW1 4325   1.266   1.772   0.670  2.2265  1.3472  0.4283
 1395SOL    HW2 4326   1.361   1.684   0.749  2.0888 -1.6912 -2.5724
 1396SOL     OW 4327   1.564   3.504   1.181  0.1944 -0.3608 -0.1295
 1396SOL    HW1 4328   1.649   3.464   1.168  0.6103  0.6006 -0.4377
 1396SOL    HW2 4329   1.519   3.494   1.097  0.4765  0.2123 -0.3565
 1397SOL     OW 4330   1.161   3.444   3.426  0.2220 -0.0276  0.1564
 1397SOL    HW1 4331   1.211   3.449   3.344  2.0020 -2.2926  1.0053
 1397SOL    HW2 4332   1.195   3.516   3.479  1.3569 -0.4623  0.0530
 1398SOL     OW 4333   0.422   2.624   1.427  0.6567 -0.6414  0.1365
 1398SOL    HW1 4334   0.433   2.637   1.333  1.0748  0.3535  0.3126
 1398SOL    HW2 4335   0.371   2.543   1.434  3.2486 -2.4871 -0.8633
 1399SOL     OW 4336   1.756   0.775   0.386  0.0149 -0.3008 -0.0510
 1399SOL    HW1 4337   1.741   0.862   0.423 -2.7292 -1.2201  1.2482
 1399SOL    HW2 4338   1.761   0.717   0.461  1.9169 -1.3168 -0.8962
 1400SOL     OW 4339   3.362   1.458   3.463 -0.7257  0.1839  0.0513
 1400SOL    HW1 4340   3.358   1.363   3.449  0.6946  0.3560 -1.9764
 1400SOL    HW2 4341   3.371   1.468   3.558 -3.4427 -1.5446  0.6137
 1401SOL     OW 4342   0.376   1.310   1.843  0.3911 -0.4507  0.0449
 1401SOL    HW1 4343   0.315   1.239   1.863 -0.8484 -0.0796 -2.0734
 1401SOL    HW2 4344   0.455   1.265   1.813 -1.3195 -1.1731 -4.0342
 1402SOL     OW 4345   3.637   2.398   2.356 -0.1139 -0.4093  0.1495
 1402SOL    HW1 4346   3.667   2.489   2.360 -0.5912 -0.2899  2.4549
 1402SOL    HW2 4347   3.694   2.351   2.418  0.7830 -1.9353 -1.7241
 1403SOL     OW 4348   0.896   3.307   1.929 -0.2350 -0.1631 -0.0932
 1403SOL    HW1 4349   0.936   3.318   2.015 -2.9468 -2.7914  1.6868
 1403SOL    HW2 4350   0.826   3.372   1.926  1.4974  1.7556 -1.5571
 1404SOL     OW 4351   3.377   3.370   3.308  0.5646 -0.4829 -0.3445
 1404SOL    HW1 4352   3.353   3.406   3.223 -0.2406 -0.4444 -0.1116
 1404SOL    HW2 4353   3.443   3.431   3.342 -0.7644  0.8268  0.0399
 1405SOL     OW 4354   0.826   0.792   1.053  0.1774 -0.4234  0.6897
 1405SOL    HW1 4355   0.753   0.834   1.008  1.0606  0.4423  0.0344
 1405SOL    HW2 4356   0.896   0.789   0.988  0.5810 -1.7070  1.1431
 1406SOL     OW 4357   2.233   0.217   3.153  0.8324 -0.2905  0.6968
 1406SOL    HW1 4358   2.240   0.191   3.245 -0.3482 -2.7536  0.1728
 1406SOL    HW2 4359   2.224   0.312   3.155  1.5581 -0.2243  3.0642
 1407SOL     OW 4360   2.561   2.689   2.005 -0.1591  0.3093  0.4549
 1407SOL    HW1 4361   2.564   2.732   1.919  3.5633  1.7624  1.1463
 1407SOL    HW2 4362   2.578   2.758   2.068  0.4973 -1.2553  2.0884
 1408SOL     OW 4363   1.547   0.986   0.279  0.0912  0.3838 -0.5403
 1408SOL    HW1 4364   1.617   0.967   0.341  0.2001 -1.5994 -1.2006
 1408SOL    HW2 4365   1.467   0.977   0.330  0.2359  2.9762  0.2986
 1409SOL     OW 4366   1.672   3.389   2.748 -0.4126  0.8846 -0.2285
 1409SOL    HW1 4367   1.584   3.372   2.782 -0.3931  2.2713  0.6058
 1409SOL    HW2 4368   1.729   3.377   2.824  0.1189  0.1060 -0.7380
 1410SOL     OW 4369   1.727   1.428   2.562 -0.3948 -0.3746 -0.6228
 1410SOL    HW1 4370   1.646   1.476   2.545 -1.2633 -1.5590  0.0814
 1410SOL    HW2 4371   1.786   1.494   2.599 -0.6827  0.7146 -2.0108
 1411SOL     OW 4372   0.901   0.823   1.299 -0.3820 -0.4401  0.0910
 1411SOL    HW1 4373   0.865   0.813   1.211 -0.2752  0.3680 -0.0534
 1411SOL    HW2 4374   0.971   0.758   1.304 -0.3101 -0.4096 -0.4622
 1412SOL     OW 4375   3.489   0.112   0.313  0.3190 -0.2851 -0.2347
 1412SOL    HW1 4376   3.433   0.080   0.242 -1.1366 -0.0044  0.7460
 1412SOL    HW2 4377   3.515   0.200   0.286  1.4800 -0.9340 -1.3393
 1413SOL     OW 4378   1.140   0.983   2.979 -0.0915 -0.3324 -0.4408
 1413SOL    HW1 4379   1.156   1.029   2.897 -0.7722 -2.2102 -1.7181
 1413SOL    HW2 4380   1.055   1.016   3.010  1.0754  1.8498  0.6573
 1414SOL     OW 4381   2.489   0.448   2.311  0.3065  0.1956 -0.1441
 1414SOL    HW1 4382   2.475   0.536   2.276 -0.7186  0.0457 -0.1354
 1414SOL    HW2 4383   2.578   0.426   2.285  1.3751  2.0473  1.5987
 1415SOL     OW 4384   3.637   3.617   0.315  0.7473 -0.0916  0.2630
 1415SOL    HW1 4385   3.627   3.559   0.239  1.8847 -1.2079  0.9176
 1415SOL    HW2 4386   3.575   3.688   0.300 -0.8633 -1.5816 -0.4931
 1416SOL     OW 4387   2.329   2.750   3.601 -0.6887 -0.0630 -0.3727
 1416SOL    HW1 4388   2.350   2.743   3.694 -3.0052 -0.7014  0.1526
 1416SOL    HW2 4389   2.410   2.723   3.557 -0.3025 -2.3281  1.4749
 1417SOL     OW 4390   3.051   3.616   1.131 -0.1105 -0.2912  0.3912
 1417SOL    HW1 4391   3.114   3.545   1.119  0.1998 -0.0509  0.6076
 1417SOL    HW2 4392   3.101   3.687   1.171 -0.4041  0.0740  0.1246
 1418SOL     OW 4393   3.181   0.701   2.889  0.3677  0.3221 -0.2067
 1418SOL    HW1 4394   3.233   0.664   2.960 -1.1135 -4.4197 -1.2629
 1418SOL    HW2 4395   3.096   0.722   2.928  0.7872  1.5512  0.1110
 1419SOL     OW 4396   2.337   1.646   3.480  0.1314 -0.3318  1.1351
 1419SOL    HW1 4397   2.391   1.681   3.551  0.3651 -0.8333  1.2149
 1419SOL    HW2 4398   2.396   1.587   3.433 -0.4013 -1.0577  1.3566
 1420SOL     OW 4399   1.482   2.976   1.617 -0.4575 -0.0277  0.4357
 1420SOL    HW1 4400   1.549   2.911   1.640 -0.0759 -0.2678 -1.2163
 1420SOL    HW2 4401   1.432   2.988   1.698  1.2787 -0.1903  1.5925
 1421SOL     OW 4402   3.463   1.609   0.797 -0.4444 -0.3388  0.0090
 1421SOL    HW1 4403   3.453   1.600   0.892 -1.0019  0.5927  0.0548
 1421SOL    HW2 4404   3.381   1.649   0.769 -0.4344 -0.9622 -0.9247
 1422SOL     OW 4405   0.578   1.618   1.073 -0.6501  0.3191  0.6791
 1422SOL    HW1 4406   0.649   1.615   1.136 -0.8426  3.0759  1.1436
 1422SOL    HW2 4407   0.499   1.623   1.126 -1.1455 -1.3646  0.1642
 1423SOL     OW 4408   2.141   0.076   3.704 -0.5085 -0.0011  0.1621
 1423SOL    HW1 4409   2.181   0.070   3.617 -1.2821 -0.9103 -0.1552
 1423SOL    HW2 4410   2.213   0.057   3.765 -0.0073  0.4338 -0.2847
 1424SOL     OW 4411   1.567   2.380   2.896 -0.0006  0.2060 -0.6877
 1424SOL    HW1 4412   1.624   2.343   2.829  0.1095 -0.7639 -0.0735
 1424SOL    HW2 4413   1.623   2.442   2.944  0.9810 -1.6812  0.7518
 1425SOL     OW 4414   2.872   1.641   2.174  0.5937 -0.3023  0.2568
 1425SOL    HW1 4415   2.781   1.643   2.204 -0.8329  1.1985 -3.5884
 1425SOL    HW2 4416   2.889   1.550   2.153 -0.2340 -0.4976  0.4012
 1426SOL     OW 4417   0.162   1.936   2.756 -0.4327  0.1284 -0.5798
 1426SOL    HW1 4418   0.163   1.843   2.779  0.8079  0.2755  0.0566
 1426SOL    HW2 4419   0.135   1.938   2.664 -1.7158 -0.7576 -0.2516
 1427SOL     OW 4420   3.082   1.594   1.291  0.3240 -0.0588  0.0774
 1427SOL    HW1 4421   3.066   1.631   1.205 -0.9829 -2.0796 -0.6044
 1427SOL    HW2 4422   3.162   1.638   1.321  0.5107  1.0747 -1.9061
 1428SOL     OW 4423   1.935   0.798   0.202  0.2056  0.6578  0.0884
 1428SOL    HW1 4424   1.902   0.883   0.173 -2.4870 -1.0866 -2.5201
 1428SOL    HW2 4425   1.875   0.772   0.272  1.1613  0.9725  1.0366
 1429SOL     OW 4426   3.572   1.518   3.283  0.6774 -0.9565  0.1434
 1429SOL    HW1 4427   3.499   1.517   3.221  0.2275 -2.0215  0.6459
 1429SOL    HW2 4428   3.541   1.463   3.356  1.7777 -0.9873  0.6041
 1430SOL     OW 4429   2.834   2.419   2.176  0.4187  0.7628 -0.1208
 1430SOL    HW1 4430   2.844   2.466   2.093 -1.1314 -1.3380 -1.6177
 1430SOL    HW2 4431   2.917   2.373   2.187  0.2958  0.2693 -1.0817
 1431SOL     OW 4432   2.237   2.140   3.591 -0.0613  0.0305  0.4580
 1431SOL    HW1 4433   2.332   2.135   3.602  0.0411 -1.3756 -0.7457
 1431SOL    HW2 4434   2.210   2.050   3.569 -1.9684 -0.0943  2.8364
 1432SOL     OW 4435   3.453   3.341   0.890 -0.6076 -0.3873 -0.3495
 1432SOL    HW1 4436   3.366   3.303   0.876 -0.4815 -2.0754  2.5728
 1432SOL    HW2 4437   3.476   3.315   0.979  3.4522 -1.1216 -1.4032
 1433SOL     OW 4438   1.817   0.826   3.247  0.3773  0.1774 -0.1722
 1433SOL    HW1 4439   1.725   0.803   3.257 -0.5349  2.3620 -2.2836
 1433SOL    HW2 4440   1.846   0.852   3.335 -1.9323  2.1938  0.1020
 1434SOL     OW 4441   0.909   1.335   1.092  0.2635  0.0258  0.0242
 1434SOL    HW1 4442   0.896   1.404   1.157  1.0952 -0.5766  0.8632
 1434SOL    HW2 4443   0.849   1.265   1.120 -0.9629  0.5766 -1.1211
 1435SOL     OW 4444   1.129   2.120   0.240  0.2870 -0.2987 -0.4493
 1435SOL    HW1 4445   1.194   2.073   0.186 -0.8298 -0.8052 -1.3913
 1435SOL    HW2 4446   1.182   2.168   0.304  1.6291 -0.2648 -1.5274
 1436SOL     OW 4447   2.654   1.149   0.316  0.0626  0.1102 -0.0992
 1436SOL    HW1 4448   2.568   1.107   0.324 -0.0418  0.1727 -0.9009
 1436SOL    HW2 4449   2.715   1.084   0.352 -0.0191 -1.0293 -1.8828
 1437SOL     OW 4450   2.822   0.548   2.125  0.0479 -0.8878  0.4347
 1437SOL    HW1 4451   2.747   0.607   2.123 -0.9114 -2.0142  1.4301
 1437SOL    HW2 4452   2.895   0.603   2.152 -0.1233  0.4784 -1.6199
 1438SOL     OW 4453   2.685   3.099   1.271  0.3077  0.0101  0.3607
 1438SOL    HW1 4454   2.658   3.058   1.354 -0.8645  2.1829  1.1242
 1438SOL    HW2 4455   2.760   3.153   1.295  0.0219  0.5737 -0.0108
 1439SOL     OW 4456   2.030   2.934   3.470 -0.3782  0.3138 -0.0211
 1439SOL    HW1 4457   2.024   2.846   3.432  0.0444 -0.2757  1.2185
 1439SOL    HW2 4458   1.947   2.945   3.518 -0.0860  0.2539  0.5024
 1440SOL     OW 4459   0.363   3.533   1.171 -0.1750  0.3643  0.4094
 1440SOL    HW1 4460   0.366   3.614   1.121  0.6678  0.4443  0.5773
 1440SOL    HW2 4461   0.450   3.525   1.210 -0.1214 -0.8281  0.0781
 1441SOL     OW 4462   2.002   1.876   0.325  0.1240  0.6456 -0.4448
 1441SOL    HW1 4463   1.995   1.925   0.407  1.4243 -1.7631  1.2543
 1441SOL    HW2 4464   2.080   1.911   0.282 -0.1288  1.4194 -0.2816
 1442SOL     OW 4465   1.513   0.346   1.613  0.0742 -0.7703  0.6984
 1442SOL    HW1 4466   1.564   0.426   1.626 -2.2196  1.3636 -2.2097
 1442SOL    HW2 4467   1.432   0.361   1.660 -0.6080 -1.1383 -0.3309
 1443SOL     OW 4468   1.103   2.163   2.396  0.1855  0.0959 -0.2410
 1443SOL    HW1 4469   1.029   2.116   2.359  0.2483  0.1271 -0.4060
 1443SOL    HW2 4470   1.113   2.240   2.340  0.0770  0.3123  0.0325
 1444SOL     OW 4471   3.022   3.236   2.326  0.3896 -0.4627 -0.0481
 1444SOL    HW1 4472   3.044   3.160   2.272  1.1194  0.3591 -0.9545
 1444SOL    HW2 4473   3.005   3.306   2.262  0.3030  0.2748  0.7697
 1445SOL     OW 4474   1.835   3.217   2.113  0.0314  0.3650 -0.0353
 1445SOL    HW1 4475   1.926   3.221   2.085 -0.2575  0.4594 -0.9762
 1445SOL    HW2 4476   1.814   3.307   2.140 -0.5915  1.0151 -2.4730
 1446SOL     OW 4477   0.225   0.413   1.355 -0.4258 -0.0663  0.4415
 1446SOL    HW1 4478   0.246   0.320   1.363  1.0969  0.3005  1.0127
 1446SOL    HW2 4479   0.307   0.454   1.327 -1.0684  1.1180  0.2075
 1447SOL     OW 4480   1.710   3.649   0.490  0.0281 -0.1741 -0.0349
 1447SOL    HW1 4481   1.701   3.601   0.408  0.1940 -0.0162 -0.1443
 1447SOL    HW2 4482   1.671   3.591   0.556 -0.3103 -0.2021 -0.2571
 1448SOL     OW 4483   2.056   2.838   1.210 -0.1917  0.7429 -0.6836
 1448SOL    HW1 4484   2.008   2.796   1.138  0.1517  0.3489 -0.6825
 1448SOL    HW2 4485   1.987   2.869   1.269 -0.5684 -3.7622  1.6793
 1449SOL     OW 4486   0.642   3.442   3.289 -0.1575  0.1153 -0.0885
 1449SOL    HW1 4487   0.728   3.458   3.328  0.1158  1.3982 -1.1361
 1449SOL    HW2 4488   0.660   3.395   3.208 -0.7549 -2.9947  1.4467
 1450SOL     OW 4489   2.614   1.492   0.017 -0.2553 -0.2054  0.6812
 1450SOL    HW1 4490   2.535   1.440   0.004 -0.2950 -0.6519  2.4517
 1450SOL    HW2 4491   2.631   1.487   0.111  2.9247 -1.6108  0.1400
 1451SOL     OW 4492   2.798   3.531   2.099 -0.4711 -0.1815  0.0838
 1451SOL    HW1 4493   2.705   3.533   2.119 -0.6582  1.8322 -0.7932
 1451SOL    HW2 4494   2.817   3.617   2.062  1.9267 -0.1857  1.0935
 1452SOL     OW 4495   1.471   1.482   2.891  0.6167  0.1273 -0.1763
 1452SOL    HW1 4496   1.491   1.561   2.941 -0.4732 -0.1519  0.7604
 1452SOL    HW2 4497   1.485   1.410   2.954 -0.1421 -0.2789 -0.4607
 1453SOL     OW 4498   0.205   1.733   1.868 -0.0430 -0.1412  0.3351
 1453SOL    HW1 4499   0.243   1.802   1.813  1.9845 -1.5938 -0.1652
 1453SOL    HW2 4500   0.280   1.684   1.901 -1.3994 -1.6547  1.3122
 1454SOL     OW 4501   2.778   0.316   1.503  0.1457  1.5585 -0.2165
 1454SOL    HW1 4502   2.706   0.339   1.561  0.5874 -0.6654  1.3684
 1454SOL    HW2 4503   2.849   0.375   1.528 -0.4552  2.3334 -0.3138
 1455SOL     OW 4504   2.826   3.485   1.116  0.4571  0.5799 -0.1138
 1455SOL    HW1 4505   2.917   3.513   1.123  2.0968 -3.0517 -3.1857
 1455SOL    HW2 4506   2.793   3.527   1.037 -0.6610  1.9156  1.0062
 1456SOL     OW 4507   1.416   1.144   2.475  0.2314 -0.1352  0.7094
 1456SOL    HW1 4508   1.330   1.163   2.436  0.5754  1.3544  0.6206
 1456SOL    HW2 4509   1.429   1.214   2.539  0.9103 -0.9825  1.5349
 1457SOL     OW 4510   1.924   2.019   3.728 -0.5259  0.4680 -0.1834
 1457SOL    HW1 4511   1.917   2.063   3.643  2.0430  1.0625 -0.1404
 1457SOL    HW2 4512   1.984   1.946   3.712 -1.1026 -0.2580  0.8391
 1458SOL     OW 4513   1.417   1.534   3.536 -0.0936  0.3714  0.0164
 1458SOL    HW1 4514   1.484   1.479   3.577 -0.0847  0.1372 -0.3016
 1458SOL    HW2 4515   1.342   1.476   3.525  0.1233  0.2349 -0.8878
 1459SOL     OW 4516   2.473   2.760   2.937  0.0959 -0.6203 -0.1916
 1459SOL    HW1 4517   2.495   2.774   2.845 -1.7929 -1.6591 -0.8537
 1459SOL    HW2 4518   2.379   2.744   2.937 -0.0892  0.1428  2.0394
 1460SOL     OW 4519   1.283   2.259   1.264  0.3173 -0.1123  0.8696
 1460SOL    HW1 4520   1.297   2.346   1.301 -0.6394  0.4452 -0.0284
 1460SOL    HW2 4521   1.356   2.247   1.202 -0.4343  0.7536 -0.2143
 1461SOL     OW 4522   0.837   3.524   3.091 -0.5543  0.2183 -0.1704
 1461SOL    HW1 4523   0.841   3.544   2.998  1.9159  0.6979 -0.0178
 1461SOL    HW2 4524   0.825   3.609   3.134 -0.2869  0.1670  0.0093
 1462SOL     OW 4525   1.730   2.013   0.793 -0.0356  0.0706 -0.0363
 1462SOL    HW1 4526   1.775   2.089   0.829  2.4500 -1.0879 -0.4758
 1462SOL    HW2 4527   1.647   2.048   0.761  1.0791  2.6504 -0.4023
 1463SOL     OW 4528   0.985   0.137   2.046 -0.4985  0.5532 -0.8393
 1463SOL    HW1 4529   0.971   0.232   2.039 -0.1524  0.5502 -1.8000
 1463SOL    HW2 4530   1.080   0.127   2.040 -0.4514  0.2110  0.3513
 1464SOL     OW 4531   1.227   0.936   0.995  0.8926 -0.0448  0.1175
 1464SOL    HW1 4532   1.251   0.945   0.903 -0.6395 -0.2824 -0.3232
 1464SOL    HW2 4533   1.210   1.026   1.024  0.7167 -0.0337 -0.0186
 1465SOL     OW 4534   1.964   1.234   1.736 -0.3211  0.0231  0.6991
 1465SOL    HW1 4535   1.994   1.144   1.723 -2.0011 -0.3417 -0.9920
 1465SOL    HW2 4536   1.957   1.244   1.831 -0.4910 -1.7517  0.8976
 1466SOL     OW 4537   0.458   3.150   2.613 -0.8388 -0.2574 -0.8663
 1466SOL    HW1 4538   0.373   3.146   2.568 -0.6448  1.7528 -1.5230
 1466SOL    HW2 4539   0.515   3.195   2.552  0.4514 -0.7097 -0.0255
 1467SOL     OW 4540   3.023   0.577   2.709 -0.0267  0.1705 -0.1881
 1467SOL    HW1 4541   3.078   0.636   2.760  1.6325 -1.1861 -0.2994
 1467SOL    HW2 4542   3.057   0.583   2.620 -0.8907  0.2350 -0.5215
 1468SOL     OW 4543   2.972   2.268   0.636  0.2001 -0.2964  0.1258
 1468SOL    HW1 4544   2.980   2.174   0.652 -0.9026 -1.2222 -3.7012
 1468SOL    HW2 4545   2.889   2.293   0.677 -0.1161 -1.3073  0.1309
 1469SOL     OW 4546   0.332   2.026   0.347 -0.3540 -0.0910  0.3754
 1469SOL    HW1 4547   0.320   2.121   0.343 -0.9819 -0.1322  1.1977
 1469SOL    HW2 4548   0.277   1.992   0.276  0.3053  0.1853 -0.2827
 1470SOL     OW 4549   0.458   0.772   0.747 -0.7273 -0.1654 -0.4021
 1470SOL    HW1 4550   0.363   0.783   0.756 -0.6954 -0.6907  0.7127
 1470SOL    HW2 4551   0.469   0.681   0.722 -0.6039  0.4102 -2.6829
 1471SOL     OW 4552   0.731   3.046   0.241 -0.1147 -0.2236 -0.3789
 1471SOL    HW1 4553   0.792   3.103   0.194 -0.2433 -1.2441 -1.8583
 1471SOL    HW2 4554   0.733   3.077   0.331 -1.2352  3.0363 -1.3421
 1472SOL     OW 4555   2.399   2.341   1.357 -0.2974 -0.1406  0.1687
 1472SOL    HW1 4556   2.398   2.377   1.446  0.1423 -0.0029  0.1202
 1472SOL    HW2 4557   2.368   2.412   1.302 -0.9751 -0.3592  0.2531
 1473SOL     OW 4558   2.584   0.113   0.787  0.3062  0.0774 -0.2325
 1473SOL    HW1 4559   2.591   0.190   0.843  0.4095  0.1207 -0.3064
 1473SOL    HW2 4560   2.490   0.097   0.781  0.3048 -0.0393  0.1066
 1474SOL     OW 4561   0.860   3.213   2.939 -0.4703  0.4914  0.3866
 1474SOL    HW1 4562   0.820   3.274   2.877  0.2615  1.5261  0.8988
 1474SOL    HW2 4563   0.838   3.248   3.025  0.6737  0.5445  0.6825
 1475SOL     OW 4564   2.256   3.438   3.737 -0.2716 -0.0979 -0.4466
 1475SOL    HW1 4565   2.260   3.343   3.739  0.7182 -0.0526  0.1780
 1475SOL    HW2 4566   2.315   3.463   3.665 -2.7748 -0.0329 -2.6334
 1476SOL     OW 4567   1.997   0.048   2.089 -0.5087 -0.4021 -0.0613
 1476SOL    HW1 4568   1.998  -0.027   2.030 -0.6919  0.1427 -0.7680
 1476SOL    HW2 4569   1.924   0.030   2.148 -2.4966  0.5596 -2.0535
 1477SOL     OW 4570   1.552   1.914   1.374 -0.1089 -0.1840  0.1488
 1477SOL    HW1 4571   1.487   1.974   1.410 -0.8963 -1.3042  0.6775
 1477SOL    HW2 4572   1.635   1.942   1.411 -0.7134 -0.4976  1.8306
 1478SOL     OW 4573   1.775   2.874   1.351  0.0645 -0.3989 -0.4997
 1478SOL    HW1 4574   1.749   2.812   1.283  0.7199 -0.8198 -0.3837
 1478SOL    HW2 4575   1.735   2.957   1.326 -1.2562 -0.9788 -0.3822
 1479SOL     OW 4576   1.601   2.500   1.201  0.3980 -0.7834  0.0440
 1479SOL    HW1 4577   1.632   2.453   1.279  1.5340 -0.8485 -0.4254
 1479SOL    HW2 4578   1.582   2.588   1.232  0.6251 -0.8702  0.4463
 1480SOL     OW 4579   0.982   0.853   2.312 -0.0854  0.4970  0.7186
 1480SOL    HW1 4580   1.013   0.862   2.222 -0.2779  0.9142  0.6944
 1480SOL    HW2 4581   1.052   0.890   2.366  0.2133 -0.1249  0.7715
 1481SOL     OW 4582   1.374   1.266   1.844 -0.8142 -0.0412 -0.1684
 1481SOL    HW1 4583   1.451   1.318   1.821  0.1984 -1.4469 -0.0995
 1481SOL    HW2 4584   1.334   1.243   1.760 -1.2003  0.7238 -0.2028
 1482SOL     OW 4585   0.218   1.063   0.405  0.2879 -0.6102  0.5352
 1482SOL    HW1 4586   0.215   1.156   0.386 -0.6560 -0.6593  0.4039
 1482SOL    HW2 4587   0.311   1.041   0.402  0.4618  0.1694 -0.1833
 1483SOL     OW 4588   2.734   3.391   3.733  0.4454 -0.1611 -0.0057
 1483SOL    HW1 4589   2.700   3.356   3.651 -3.5214  2.8982  0.0111
 1483SOL    HW2 4590   2.691   3.338   3.801  0.3439  0.0100  0.0638
 1484SOL     OW 4591   2.587   2.213   0.984  0.6456 -0.0065 -0.2582
 1484SOL    HW1 4592   2.506   2.264   0.977  0.0668 -0.7672  0.6758
 1484SOL    HW2 4593   2.617   2.229   1.074  0.8586 -0.7051 -0.1986
 1485SOL     OW 4594   2.288   0.485   2.640  1.1755  0.0263 -0.4219
 1485SOL    HW1 4595   2.328   0.571   2.652 -0.7774  1.2215 -1.8769
 1485SOL    HW2 4596   2.306   0.438   2.722 -0.0640  2.8268  1.6071
 1486SOL     OW 4597   2.838   2.669   2.518  0.0762  0.4283 -0.4284
 1486SOL    HW1 4598   2.790   2.668   2.601  2.3937 -0.0862  1.0119
 1486SOL    HW2 4599   2.773   2.643   2.453 -1.5925 -0.2351  1.3787
 1487SOL     OW 4600   0.621   0.772   0.419 -0.1380 -0.3315 -0.5617
 1487SOL    HW1 4601   0.605   0.817   0.335  0.0562  0.2109 -0.3120
 1487SOL    HW2 4602   0.706   0.730   0.407 -0.0021 -0.0610 -0.5582
 1488SOL     OW 4603   1.486   2.038   0.635  0.6976 -1.1007  0.5942
 1488SOL    HW1 4604   1.503   1.955   0.589 -0.2629 -2.1502  2.0382
 1488SOL    HW2 4605   1.425   2.084   0.579  0.7600 -1.6533  0.0587
 1489SOL     OW 4606   3.035   1.275   3.359 -0.4540 -0.5232 -0.6780
 1489SOL    HW1 4607   3.083   1.252   3.438 -0.6419  0.2556 -0.3252
 1489SOL    HW2 4608   2.943   1.278   3.386 -0.5511 -0.5540 -0.9970
 1490SOL     OW 4609   2.333   1.307   1.880  0.4402  0.4661  0.3867
 1490SOL    HW1 4610   2.369   1.239   1.937  0.0135  0.3808  0.5628
 1490SOL    HW2 4611   2.405   1.330   1.821  0.7321  0.1978  0.6326
 1491SOL     OW 4612   0.813   3.148   3.529  0.0330  0.0989 -0.0690
 1491SOL    HW1 4613   0.800   3.063   3.487  1.0174 -0.4997  0.8088
 1491SOL    HW2 4614   0.817   3.210   3.456  0.1197 -0.7062 -0.7640
 1492SOL     OW 4615   1.457   3.097   0.642  0.0347  0.2310 -0.0581
 1492SOL    HW1 4616   1.417   3.179   0.670  0.2437  0.4389 -0.3510
 1492SOL    HW2 4617   1.493   3.117   0.555  1.6709  0.3604  0.5964
 1493SOL     OW 4618   1.539   0.665   1.496 -0.5195  0.4408  0.4355
 1493SOL    HW1 4619   1.499   0.724   1.432 -0.3905 -1.4887 -1.5598
 1493SOL    HW2 4620   1.614   0.628   1.450 -0.4176 -1.0095  1.7095
 1494SOL     OW 4621   3.675   3.364   3.530  0.1033  0.1299 -0.1257
 1494SOL    HW1 4622   3.712   3.285   3.489  2.6307  0.0318  2.0505
 1494SOL    HW2 4623   3.696   3.434   3.469 -0.0450 -0.5369 -0.9736
 1495SOL     OW 4624   1.238   0.682   1.687  0.3031  0.0352  0.0912
 1495SOL    HW1 4625   1.306   0.618   1.710  0.6823  0.4394  0.0998
 1495SOL    HW2 4626   1.162   0.656   1.739 -0.2833 -1.7846 -1.5673
 1496SOL     OW 4627   3.635   0.967   2.577  0.1917  0.2901  0.2932
 1496SOL    HW1 4628   3.575   1.033   2.542 -0.1110  0.1252  0.5041
 1496SOL    HW2 4629   3.703   1.018   2.622  2.4255  0.7562 -3.1939
 1497SOL     OW 4630   3.374   0.746   2.253 -0.5580 -0.1389  0.2999
 1497SOL    HW1 4631   3.370   0.826   2.304  0.4458 -0.0001  0.1788
 1497SOL    HW2 4632   3.459   0.708   2.274 -0.1409 -0.1079 -1.1873
 1498SOL     OW 4633   1.652   1.944   3.119 -0.5770 -0.8366 -0.3944
 1498SOL    HW1 4634   1.566   1.984   3.106 -0.5982 -0.5584  0.4943
 1498SOL    HW2 4635   1.714   2.007   3.083 -0.7403 -1.0218 -1.0063
 1499SOL     OW 4636   2.267   3.267   0.943  0.5296  0.5722  0.3776
 1499SOL    HW1 4637   2.272   3.247   1.036  1.5832  1.2488  0.4800
 1499SOL    HW2 4638   2.321   3.345   0.931  3.2313 -1.3699 -1.3080
 1500SOL     OW 4639   3.425   1.464   0.027  0.1288 -0.2847  0.4072
 1500SOL    HW1 4640   3.332   1.471   0.047  0.6658  0.7054  2.9033
 1500SOL    HW2 4641   3.452   1.381   0.066  0.7454  0.5752  1.8670
 1501SOL     OW 4642   0.493   3.137   2.057  0.6047 -0.1605  0.6521
 1501SOL    HW1 4643   0.562   3.083   2.098  0.9875  0.3189  0.6472
 1501SOL    HW2 4644   0.506   3.125   1.963  0.0465 -0.8568  0.6521
 1502SOL     OW 4645   0.509   3.699   3.246 -0.2423  0.0112 -0.4008
 1502SOL    HW1 4646   0.418   3.707   3.277 -0.3685 -0.8044 -0.5537
 1502SOL    HW2 4647   0.528   3.606   3.250  1.0440  0.2884  0.8858
 1503SOL     OW 4648   1.829   2.531   1.891  0.2209  0.1706 -0.1007
 1503SOL    HW1 4649   1.891   2.543   1.963  0.3727  4.4860 -0.6502
 1503SOL    HW2 4650   1.885   2.515   1.814  0.4061  0.2382  0.0177
 1504SOL     OW 4651   2.137   2.155   1.008  0.2523 -0.4059 -0.2355
 1504SOL    HW1 4652   2.182   2.074   1.033  0.6119 -0.0211  0.4020
 1504SOL    HW2 4653   2.205   2.208   0.966  0.3520  0.0968  0.5457
 1505SOL     OW 4654   2.929   1.381   2.126 -0.1914  0.0562 -0.3669
 1505SOL    HW1 4655   2.899   1.309   2.070  0.1385  1.2210 -2.1194
 1505SOL    HW2 4656   3.019   1.396   2.099 -0.4460  1.5074 -0.4550
 1506SOL     OW 4657   2.997   3.110   0.234  0.1031  0.6604 -0.1940
 1506SOL    HW1 4658   2.946   3.182   0.199 -1.2853  1.0951  2.4748
 1506SOL    HW2 4659   3.051   3.150   0.302  1.6196 -0.3513 -0.7515
 1507SOL     OW 4660   1.857   2.098   2.920 -0.4189 -0.0992 -1.0344
 1507SOL    HW1 4661   1.866   2.004   2.906  0.2830  0.0229 -1.4488
 1507SOL    HW2 4662   1.946   2.132   2.909 -0.6461  0.5954 -0.7557
 1508SOL     OW 4663   1.742   2.528   1.442 -0.2127  0.1470 -0.2146
 1508SOL    HW1 4664   1.722   2.443   1.482  0.1895  0.0372 -0.2403
 1508SOL    HW2 4665   1.822   2.513   1.393 -0.2184  0.5081 -0.3368
 1509SOL     OW 4666   3.273   2.862   3.494 -0.6169 -0.0320 -0.0449
 1509SOL    HW1 4667   3.182   2.860   3.523  0.1956 -1.1639  2.7185
 1509SOL    HW2 4668   3.294   2.955   3.487 -1.3646  0.2939  1.5484
 1510SOL     OW 4669   1.484   3.677   2.501  0.3946  0.0339 -0.2546
 1510SOL    HW1 4670   1.498   3.750   2.441 -0.4294 -1.7845 -2.8739
 1510SOL    HW2 4671   1.390   3.661   2.500  0.4749 -0.6603  0.7876
 1511SOL     OW 4672   1.306   2.486   2.102 -0.1799 -0.5093 -0.2394
 1511SOL    HW1 4673   1.330   2.579   2.099  0.1463 -0.6030 -0.7509
 1511SOL    HW2 4674   1.378   2.445   2.150 -0.7029 -0.3949  0.6702
 1512SOL     OW 4675   2.964   2.462   3.094  0.4688 -0.4193 -0.4318
 1512SOL    HW1 4676   2.928   2.374   3.084  1.4837 -1.0249  0.8852
 1512SOL    HW2 4677   2.893   2.513   3.133 -0.0098 -0.7351 -0.8742
 1513SOL     OW 4678   0.756   1.588   2.875  0.4341  0.0062 -0.5850
 1513SOL    HW1 4679   0.810   1.619   2.947  0.0827 -2.3554  0.8016
 1513SOL    HW2 4680   0.787   1.637   2.799  1.0270  2.3634  1.0685
 1514SOL     OW 4681   1.823   1.755   1.671 -0.1010 -0.0512  0.2520
 1514SOL    HW1 4682   1.801   1.721   1.757 -0.4892  1.0100  0.5925
 1514SOL    HW2 4683   1.793   1.688   1.609 -0.8638 -0.3006  0.8838
 1515SOL     OW 4684   0.409   3.049   0.749  0.0309  0.3483  0.0078
 1515SOL    HW1 4685   0.385   3.002   0.669  1.2777  0.3141 -0.3610
 1515SOL    HW2 4686   0.343   3.118   0.756 -0.7658 -0.3421 -0.4168
 1516SOL     OW 4687   3.437   2.971   2.181 -0.5392  0.4291 -0.0614
 1516SOL    HW1 4688   3.453   2.994   2.272 -0.6888  1.5764 -0.3140
 1516SOL    HW2 4689   3.456   2.877   2.177 -2.5044 -0.1273  1.6031
 1517SOL     OW 4690   0.422   0.963   2.952 -0.2982 -0.0686  0.1776
 1517SOL    HW1 4691   0.453   0.878   2.919  0.5173 -0.1301  1.0489
 1517SOL    HW2 4692   0.502   1.014   2.965 -0.7966  0.9209 -0.5323
 1518SOL     OW 4693   2.370   1.332   2.799 -0.6571 -0.1573 -0.0701
 1518SOL    HW1 4694   2.413   1.305   2.880 -1.0516 -0.8011 -0.0664
 1518SOL    HW2 4695   2.289   1.374   2.828 -1.4702 -1.6075 -0.1499
 1519SOL     OW 4696   1.547   0.413   3.419  0.3773  0.1815  0.3251
 1519SOL    HW1 4697   1.548   0.331   3.368 -1.3168 -0.4944  1.3104
 1519SOL    HW2 4698   1.458   0.445   3.411  0.6368  1.1589  1.1805
 1520SOL     OW 4699   0.258   1.982   1.749 -0.2211  0.0316 -0.2776
 1520SOL    HW1 4700   0.350   2.002   1.769  0.2999 -0.7195 -1.8079
 1520SOL    HW2 4701   0.222   2.065   1.717  0.4338 -0.0945 -1.3906
 1521SOL     OW 4702   2.377   3.198   0.569  0.2778  0.0957  0.4877
 1521SOL    HW1 4703   2.349   3.113   0.536  1.5889 -0.2832  0.2961
 1521SOL    HW2 4704   2.330   3.262   0.516  0.4994 -0.5150 -0.4597
 1522SOL     OW 4705   1.039   3.369   0.573 -0.4747  0.1071  0.1426
 1522SOL    HW1 4706   0.956   3.407   0.602  0.1162  0.9480  0.7714
 1522SOL    HW2 4707   1.104   3.402   0.635  0.1644 -1.5033  0.3856
 1523SOL     OW 4708   0.056   3.662   2.802  0.3031  0.6354 -0.4143
 1523SOL    HW1 4709   0.094   3.746   2.779  0.3837  0.3642 -1.3025
 1523SOL    HW2 4710   0.008   3.635   2.724 -0.9403  0.5300  0.3604
 1524SOL     OW 4711   2.400   2.528   0.716  0.3561 -0.4800 -0.8123
 1524SOL    HW1 4712   2.418   2.544   0.623  2.7157  0.4298 -0.2580
 1524SOL    HW2 4713   2.394   2.615   0.755  0.5394 -0.8538  0.0713
 1525SOL     OW 4714   2.167   0.237   1.218  0.7767  0.3799  0.4576
 1525SOL    HW1 4715   2.094   0.187   1.181  2.3626 -2.1692  0.5477
 1525SOL    HW2 4716   2.178   0.310   1.157 -0.3164 -0.5279 -0.9019
 1526SOL     OW 4717   3.332   0.977   2.378  0.7999 -0.4093  0.0219
 1526SOL    HW1 4718   3.274   1.030   2.434  0.1893  1.1452 -1.9403
 1526SOL    HW2 4719   3.384   1.042   2.330 -0.3321 -1.4777 -2.8710
 1527SOL     OW 4720   0.084   0.747   1.037  0.0298  0.2780  0.6379
 1527SOL    HW1 4721   0.089   0.790   1.122  1.4275  0.1676  0.6368
 1527SOL    HW2 4722   0.004   0.695   1.041 -0.5176  1.1619  1.4531
 1528SOL     OW 4723   0.149   0.459   2.186 -0.1605  0.2002 -0.4827
 1528SOL    HW1 4724   0.210   0.487   2.254  0.5456 -2.0812 -0.0660
 1528SOL    HW2 4725   0.090   0.398   2.231 -0.1880 -0.7339 -1.7250
 1529SOL     OW 4726   2.123   2.410   2.083 -0.3270  0.0348  0.0641
 1529SOL    HW1 4727   2.088   2.321   2.077 -0.0371 -0.1127  0.5207
 1529SOL    HW2 4728   2.051   2.461   2.121 -1.1673  0.3980 -1.8856
 1530SOL     OW 4729   1.629   0.531   3.094  0.1716  0.0007 -0.2585
 1530SOL    HW1 4730   1.617   0.444   3.132  1.5615 -0.5583 -1.0186
 1530SOL    HW2 4731   1.703   0.521   3.035  0.1553  1.6421 -0.6006
 1531SOL     OW 4732   0.366   0.180   1.963 -0.0250 -0.3731 -0.5611
 1531SOL    HW1 4733   0.359   0.148   2.053  0.0115  0.9893 -0.0376
 1531SOL    HW2 4734   0.279   0.168   1.926 -0.6705  0.9968  0.3838
 1532SOL     OW 4735   2.552   1.483   3.459 -0.5736  0.1859  0.2939
 1532SOL    HW1 4736   2.635   1.449   3.425  0.0934  1.4540  0.6178
 1532SOL    HW2 4737   2.558   1.471   3.554 -1.3017 -0.8518  0.2308
 1533SOL     OW 4738   3.558   3.586   1.005 -0.2704  0.6458  0.5095
 1533SOL    HW1 4739   3.595   3.504   1.038  1.2463  1.4265  0.8166
 1533SOL    HW2 4740   3.500   3.559   0.933 -2.9365 -1.0548  3.0357
 1534SOL     OW 4741   1.827   2.547   0.865 -0.6999 -0.0418  0.1658
 1534SOL    HW1 4742   1.861   2.514   0.781  0.0793 -2.2859  1.2717
 1534SOL    HW2 4743   1.856   2.638   0.868 -0.6939  0.0913 -1.9493
 1535SOL     OW 4744   0.637   0.284   0.307 -0.1237 -0.0675  0.5320
 1535SOL    HW1 4745   0.569   0.351   0.305 -1.9466 -1.8484 -0.0049
 1535SOL    HW2 4746   0.619   0.229   0.231  3.3191  0.6380 -0.9864
 1536SOL     OW 4747   2.398   1.375   2.516  0.0478  0.4335  0.1051
 1536SOL    HW1 4748   2.323   1.317   2.528  0.8617 -0.7165 -0.1635
 1536SOL    HW2 4749   2.411   1.415   2.602 -0.5274  0.2278  0.2912
 1537SOL     OW 4750   1.011   1.806   2.283  0.8292  0.3128  0.1701
 1537SOL    HW1 4751   1.042   1.800   2.192  1.7553  0.6295  0.4543
 1537SOL    HW2 4752   1.000   1.900   2.298  0.8709  0.2749  0.4468
 1538SOL     OW 4753   2.806   2.079   1.793 -0.1907 -0.3347 -0.2381
 1538SOL    HW1 4754   2.789   1.990   1.761 -0.8572 -0.8985  1.5420
 1538SOL    HW2 4755   2.737   2.132   1.754  1.3466 -0.1208 -2.9272
 1539SOL     OW 4756   0.029   1.989   3.407  0.7635 -0.2793  0.1849
 1539SOL    HW1 4757   0.047   2.080   3.384  0.9963  0.0173  1.4828
 1539SOL    HW2 4758   0.003   1.948   3.324  4.3505 -0.0109 -1.2562
 1540SOL     OW 4759   0.055   2.867   2.489 -0.3685  0.3729 -0.6687
 1540SOL    HW1 4760   0.018   2.869   2.577  1.6259 -0.0212  0.2345
 1540SOL    HW2 4761  -0.003   2.809   2.440 -0.5002 -0.8875  0.8895
 1541SOL     OW 4762   3.448   1.157   2.897  0.0572 -0.6624 -0.2390
 1541SOL    HW1 4763   3.359   1.130   2.875 -0.3734  0.0612  0.5724
 1541SOL    HW2 4764   3.487   1.079   2.937  0.6806 -1.8367 -2.8716
 1542SOL     OW 4765   1.379   2.111   1.469 -0.2665  0.2747  0.2355
 1542SOL    HW1 4766   1.394   2.162   1.548 -1.4308 -0.8409  1.2199
 1542SOL    HW2 4767   1.365   2.177   1.400 -1.0526  1.2880  1.3252
 1543SOL     OW 4768   1.567   0.295   2.559 -0.0993  0.3032 -0.2353
 1543SOL    HW1 4769   1.631   0.347   2.511  2.2696 -1.8674  0.3425
 1543SOL    HW2 4770   1.554   0.343   2.641  0.1914  1.1515 -0.6759
 1544SOL     OW 4771   1.739   0.690   2.198  0.2286 -0.2158 -0.1581
 1544SOL    HW1 4772   1.719   0.712   2.288  0.0797 -0.5780 -0.1042
 1544SOL    HW2 4773   1.804   0.620   2.204  0.8853  0.3575 -0.3307
 1545SOL     OW 4774   3.132   0.706   3.503 -0.3602  0.4677  0.4476
 1545SOL    HW1 4775   3.190   0.714   3.428  0.1569  2.9272  1.0105
 1545SOL    HW2 4776   3.159   0.778   3.562 -2.7139  0.5168  1.5819
 1546SOL     OW 4777   2.608   0.392   2.812 -0.0749 -0.2967  0.2331
 1546SOL    HW1 4778   2.526   0.428   2.846 -0.6356 -0.8155 -0.5264
 1546SOL    HW2 4779   2.592   0.382   2.718  0.5732 -1.1635  0.2056
 1547SOL     OW 4780   1.742   3.161   0.211  0.1720  1.1561  0.1342
 1547SOL    HW1 4781   1.821   3.181   0.160 -0.4536  1.6426 -0.6783
 1547SOL    HW2 4782   1.724   3.069   0.193 -0.2080  1.3959 -0.7902
 1548SOL     OW 4783   1.954   0.589   1.963 -0.0995  0.5263 -0.9650
 1548SOL    HW1 4784   2.000   0.540   1.895  1.1282 -0.7349  0.6997
 1548SOL    HW2 4785   1.982   0.680   1.951  0.3075  0.2843 -1.9473
 1549SOL     OW 4786   3.551   2.673   1.065 -0.7770 -0.0200 -0.6327
 1549SOL    HW1 4787   3.578   2.760   1.095  2.3249 -1.1808  0.3138
 1549SOL    HW2 4788   3.481   2.647   1.125 -0.7885  1.2564 -0.0636
 1550SOL     OW 4789   1.834   0.889   2.983 -0.2306  0.6171 -0.0710
 1550SOL    HW1 4790   1.793   0.870   3.067 -0.1823 -0.2678 -0.2359
 1550SOL    HW2 4791   1.913   0.834   2.982  1.2547  2.5985  0.4268
 1551SOL     OW 4792   2.053   0.941   1.647  0.1654  0.0936 -0.2159
 1551SOL    HW1 4793   2.140   0.940   1.688  0.0814  0.4790 -0.0307
 1551SOL    HW2 4794   2.070   0.961   1.555  0.1781  1.3145  0.0467
 1552SOL     OW 4795   3.083   1.673   1.013  0.0584  0.3595  0.0306
 1552SOL    HW1 4796   3.157   1.674   0.953 -0.0014  0.1300 -0.0477
 1552SOL    HW2 4797   3.022   1.737   0.977  0.3404  0.7533  0.2505
 1553SOL     OW 4798   0.348   0.658   1.558  0.2172  0.0344 -0.4031
 1553SOL    HW1 4799   0.351   0.570   1.595  0.9486  0.5398  0.8056
 1553SOL    HW2 4800   0.330   0.645   1.465 -0.9043 -1.3209 -0.0190
 1554SOL     OW 4801   3.463   2.316   0.844  0.3341 -0.6710 -0.2281
 1554SOL    HW1 4802   3.409   2.321   0.765  2.0876 -1.9558 -1.5821
 1554SOL    HW2 4803   3.543   2.272   0.816  1.9575  0.7999  1.7756
 1555SOL     OW 4804   2.431   0.400   0.367  0.1145  0.2645  0.3276
 1555SOL    HW1 4805   2.476   0.480   0.339  0.0112  0.7341  1.4672
 1555SOL    HW2 4806   2.356   0.392   0.308  0.3250  0.8113 -0.0182
 1556SOL     OW 4807   1.551   1.016   1.762 -0.1853  0.1295 -0.0626
 1556SOL    HW1 4808   1.585   1.048   1.679 -0.8099 -0.5217 -0.5847
 1556SOL    HW2 4809   1.497   1.087   1.796 -1.9808 -0.4813 -1.4536
 1557SOL     OW 4810   3.066   2.353   1.216 -0.3835 -0.1512  0.0328
 1557SOL    HW1 4811   3.080   2.404   1.136 -1.1173  1.6436  1.0003
 1557SOL    HW2 4812   2.983   2.307   1.201 -1.5206  1.6828  0.4599
 1558SOL     OW 4813   3.698   1.521   1.477 -0.3206 -0.3496 -0.1996
 1558SOL    HW1 4814   3.743   1.536   1.394 -1.3328  2.8033 -0.2677
 1558SOL    HW2 4815   3.631   1.588   1.482 -2.0338 -2.0571  2.0296
 1559SOL     OW 4816   3.072   3.062   2.895 -0.1982  0.1281  0.5100
 1559SOL    HW1 4817   3.131   3.122   2.849 -1.5518  1.8447  0.9051
 1559SOL    HW2 4818   3.107   3.058   2.984 -0.2319  0.5284  0.5430
 1560SOL     OW 4819   1.399   3.344   2.772  0.1423 -0.2645  0.8198
 1560SOL    HW1 4820   1.407   3.438   2.790  1.5580  0.2122 -1.8438
 1560SOL    HW2 4821   1.352   3.339   2.689 -1.4385 -2.0583  1.7350
 1561SOL     OW 4822   1.183   3.349   0.321 -0.1281 -0.1990 -0.2103
 1561SOL    HW1 4823   1.158   3.442   0.317  0.8219  0.0684 -0.2758
 1561SOL    HW2 4824   1.154   3.320   0.407 -0.1251  0.2559 -0.0508
 1562SOL     OW 4825   1.808   1.772   0.621  0.0556 -0.6736 -0.3881
 1562SOL    HW1 4826   1.718   1.781   0.589  0.3347  0.0881 -0.9829
 1562SOL    HW2 4827   1.798   1.754   0.715 -0.7081 -0.3492 -0.3967
 1563SOL     OW 4828   3.275   2.758   1.764 -0.0907  0.2303  0.0285
 1563SOL    HW1 4829   3.284   2.689   1.699 -0.8468  0.4620 -0.3276
 1563SOL    HW2 4830   3.340   2.736   1.831 -0.1065 -0.6483 -0.2344
 1564SOL     OW 4831   2.677   0.142   1.116  1.0420 -0.3982 -0.0543
 1564SOL    HW1 4832   2.746   0.098   1.066  0.0154  0.8007 -2.7104
 1564SOL    HW2 4833   2.607   0.077   1.123  2.2401 -1.5501  2.4730
 1565SOL     OW 4834   2.637   1.455   1.934 -0.7423  0.6634  0.7978
 1565SOL    HW1 4835   2.593   1.528   1.890 -0.2186  0.7927  0.4713
 1565SOL    HW2 4836   2.724   1.452   1.894 -0.5825  0.1782  1.1658
 1566SOL     OW 4837   1.275   0.487   1.145  0.2649 -0.1197 -0.0092
 1566SOL    HW1 4838   1.339   0.557   1.160  0.2028  0.0521 -0.5236
 1566SOL    HW2 4839   1.308   0.412   1.195 -0.2009  0.5752  1.3684
 1567SOL     OW 4840   1.298   2.665   0.009 -0.3556 -0.5640  0.5452
 1567SOL    HW1 4841   1.208   2.697   0.004 -0.2772 -0.5165 -1.2906
 1567SOL    HW2 4842   1.346   2.736   0.052 -1.0960 -0.3867  1.0962
 1568SOL     OW 4843   3.312   3.571   0.510 -0.4561 -0.5423 -0.5324
 1568SOL    HW1 4844   3.396   3.577   0.466 -0.4970  2.9517 -0.4153
 1568SOL    HW2 4845   3.247   3.586   0.441 -0.7026  1.0198 -0.0091
 1569SOL     OW 4846   0.217   2.578   3.332 -0.2912 -0.9002  0.0063
 1569SOL    HW1 4847   0.203   2.613   3.244 -0.2126  1.1011  0.7518
 1569SOL    HW2 4848   0.310   2.554   3.333  0.1608  0.7040  0.0513
 1570SOL     OW 4849   2.098   2.971   2.580  0.8360  0.8626  1.1181
 1570SOL    HW1 4850   2.174   2.922   2.548 -1.0651 -0.7659 -1.2310
 1570SOL    HW2 4851   2.058   3.008   2.501 -2.1346 -0.3637  1.9334
 1571SOL     OW 4852   1.122   0.743   2.786  0.3138 -0.4381 -0.2552
 1571SOL    HW1 4853   1.211   0.709   2.794  0.3581 -0.1570  0.6665
 1571SOL    HW2 4854   1.091   0.749   2.877 -0.3427  0.2444 -0.5131
 1572SOL     OW 4855   0.198   0.511   0.611 -0.0006 -0.2940 -0.2856
 1572SOL    HW1 4856   0.135   0.491   0.680 -0.0185  0.7933  0.0357
 1572SOL    HW2 4857   0.196   0.435   0.554 -0.1134 -1.1477  0.8178
 1573SOL     OW 4858   0.095   3.016   1.845  0.0392  0.1325 -0.2395
 1573SOL    HW1 4859   0.066   3.108   1.846  2.5677  1.0017 -0.1487
 1573SOL    HW2 4860   0.125   3.000   1.935  0.4742 -0.4829 -0.4895
 1574SOL     OW 4861   1.312   2.539   2.427 -0.3394  0.2738  0.4455
 1574SOL    HW1 4862   1.329   2.454   2.386 -1.1421  0.0891  0.4926
 1574SOL    HW2 4863   1.389   2.553   2.482  0.5289  0.3095 -0.7362
 1575SOL     OW 4864   2.541   0.953   0.889 -0.6049  0.1374 -0.8053
 1575SOL    HW1 4865   2.499   0.867   0.882 -0.3028 -0.0140 -0.8193
 1575SOL    HW2 4866   2.614   0.948   0.827  1.1959 -0.6755  1.2456
 1576SOL     OW 4867   0.956   1.554   1.243 -0.1040 -0.3344 -0.6496
 1576SOL    HW1 4868   0.950   1.572   1.336 -0.5422 -1.2887 -0.4773
 1576SOL    HW2 4869   0.987   1.636   1.204  2.7368 -0.6708  0.6502
 1577SOL     OW 4870   0.628   0.981   2.061 -0.0416  0.5163 -0.2800
 1577SOL    HW1 4871   0.589   1.060   2.098 -1.2580  0.5456 -1.5577
 1577SOL    HW2 4872   0.691   1.014   1.997 -0.1574  0.4505 -0.4275
 1578SOL     OW 4873   3.262   2.678   0.744  0.3649  0.6071 -0.3654
 1578SOL    HW1 4874   3.219   2.628   0.675  0.6144 -1.1813  0.7156
 1578SOL    HW2 4875   3.356   2.669   0.726  0.5269 -1.4508  1.1702
 1579SOL     OW 4876   3.231   3.425   2.633  0.2110 -0.1942  0.1048
 1579SOL    HW1 4877   3.301   3.458   2.577  0.3236  2.0295  1.4456
 1579SOL    HW2 4878   3.235   3.479   2.712 -0.8218 -2.2862  1.7149
 1580SOL     OW 4879   1.019   3.402   2.185  0.4400 -0.2226  0.2886
 1580SOL    HW1 4880   1.028   3.365   2.273  0.4436 -2.2386 -0.4928
 1580SOL    HW2 4881   0.991   3.492   2.199  1.8606 -0.0384  2.3757
 1581SOL     OW 4882   0.604   3.709   1.037  0.1492  0.4898  0.4138
 1581SOL    HW1 4883   0.544   3.770   0.993 -2.5518 -2.5409 -0.5602
 1581SOL    HW2 4884   0.642   3.657   0.966 -1.0665 -1.7584  1.2969
 1582SOL     OW 4885   1.963   2.021   0.560 -0.3616 -0.1771 -0.7630
 1582SOL    HW1 4886   2.024   1.962   0.604  0.3532  1.1784  0.1380
 1582SOL    HW2 4887   1.877   1.990   0.586  0.0314  0.1099  1.0015
 1583SOL     OW 4888   2.414   3.112   3.586 -0.4014  0.3846  0.0256
 1583SOL    HW1 4889   2.457   3.198   3.587 -1.3034  0.8536 -0.1920
 1583SOL    HW2 4890   2.380   3.101   3.675  0.3116 -0.0643  0.2465
 1584SOL     OW 4891   0.567   3.693   1.533  0.4515 -0.1376 -0.0499
 1584SOL    HW1 4892   0.573   3.693   1.628 -1.7107 -2.1426  0.1744
 1584SOL    HW2 4893   0.537   3.781   1.510  2.3536  0.8390  0.9224
 1585SOL     OW 4894   1.374   1.172   0.979  0.6177 -0.1689 -0.2087
 1585SOL    HW1 4895   1.360   1.243   0.917 -3.8959 -0.5017  0.0995
 1585SOL    HW2 4896   1.396   1.096   0.925 -1.4905 -0.0551 -1.3113
 1586SOL     OW 4897   0.118   3.614   0.487 -0.7977 -0.4647  0.6760
 1586SOL    HW1 4898   0.102   3.663   0.567 -1.5706  0.7372 -0.1922
 1586SOL    HW2 4899   0.038   3.623   0.436  0.3955  0.5596 -1.1251
 1587SOL     OW 4900   3.302   0.772   0.175  0.0764 -0.6250 -0.2174
 1587SOL    HW1 4901   3.382   0.777   0.228  0.0826 -0.7409 -0.2171
 1587SOL    HW2 4902   3.296   0.681   0.149  0.7817 -0.3212 -1.5091
 1588SOL     OW 4903   0.733   1.115   1.162  0.1871  0.2773  0.2805
 1588SOL    HW1 4904   0.741   1.046   1.228 -0.0210 -1.9403 -1.8681
 1588SOL    HW2 4905   0.641   1.115   1.138 -0.1369  2.4033  1.2295
 1589SOL     OW 4906   2.112   1.761   1.734 -0.6389 -0.1111  0.4506
 1589SOL    HW1 4907   2.016   1.768   1.741 -0.6414  0.1044  0.2269
 1589SOL    HW2 4908   2.129   1.667   1.731 -0.7506 -0.1871  1.7299
 1590SOL     OW 4909   2.734   1.755   1.710 -0.6916 -0.6709  0.4054
 1590SOL    HW1 4910   2.817   1.734   1.754 -0.4966 -0.2429  0.2500
 1590SOL    HW2 4911   2.667   1.710   1.761 -0.3794 -0.8685  0.6413
 1591SOL     OW 4912   3.044   1.922   2.646 -0.4854 -0.0730  0.2430
 1591SOL    HW1 4913   3.132   1.904   2.681  0.1254  0.3445 -1.0155
 1591SOL    HW2 4914   3.014   1.998   2.696 -0.8205 -1.1537  1.7823
 1592SOL     OW 4915   0.757   3.536   2.583  0.0157 -0.0494  1.1902
 1592SOL    HW1 4916   0.760   3.459   2.639  0.8412 -1.4536 -0.6819
 1592SOL    HW2 4917   0.671   3.534   2.543  0.8161 -1.3869 -0.6063
 1593SOL     OW 4918   2.351   1.024   3.673 -0.2151 -0.0813 -0.0898
 1593SOL    HW1 4919   2.326   1.053   3.760  0.8993 -0.1992  0.2895
 1593SOL    HW2 4920   2.270   0.990   3.634 -0.4208 -1.6101  1.5295
 1594SOL     OW 4921   1.357   2.588   0.887 -0.6157 -0.6597 -0.3822
 1594SOL    HW1 4922   1.437   2.536   0.894  0.0282  0.4206  0.4985
 1594SOL    HW2 4923   1.293   2.527   0.850  0.7766 -1.3552 -1.7669
 1595SOL     OW 4924   0.497   1.015   1.153  0.8588  0.0362 -0.0172
 1595SOL    HW1 4925   0.457   1.092   1.195  3.4427  2.3448 -1.4692
 1595SOL    HW2 4926   0.432   0.946   1.164 -2.7618  3.0009 -0.7024
 1596SOL     OW 4927   3.338   0.733   1.677 -0.2898  0.5374  0.1238
 1596SOL    HW1 4928   3.381   0.734   1.592 -0.9570  1.9066 -0.2194
 1596SOL    HW2 4929   3.388   0.794   1.731 -0.2356  0.1396  0.5286
 1597SOL     OW 4930   1.479   3.304   0.184 -0.0403  0.3080 -0.0643
 1597SOL    HW1 4931   1.526   3.227   0.217 -1.3991  0.8245  3.6438
 1597SOL    HW2 4932   1.459   3.283   0.093  1.0155 -3.0352  0.3175
 1598SOL     OW 4933   1.883   1.113   3.589 -0.4471 -0.8878 -0.1487
 1598SOL    HW1 4934   1.934   1.163   3.653  2.4190 -0.3152 -2.6425
 1598SOL    HW2 4935   1.807   1.168   3.572  0.1467  0.2715  0.7427
 1599SOL     OW 4936   2.512   3.137   0.837  0.6228  0.4025 -0.1588
 1599SOL    HW1 4937   2.425   3.109   0.867  0.9231 -1.0658 -0.5969
 1599SOL    HW2 4938   2.501   3.151   0.743  0.8272  0.3514 -0.1911
 1600SOL     OW 4939   3.384   1.065   0.727  0.0466  0.5692  0.0303
 1600SOL    HW1 4940   3.360   0.980   0.765 -1.1251 -0.8181 -3.3900
 1600SOL    HW2 4941   3.463   1.047   0.676 -0.4028  1.4089 -1.0045
 1601SOL     OW 4942   2.881   2.680   1.996  0.4616  0.2597 -0.3233
 1601SOL    HW1 4943   2.936   2.711   2.068  0.7704  0.2112 -0.5352
 1601SOL    HW2 4944   2.936   2.616   1.950  0.2278  0.2109 -0.5375
 1602SOL     OW 4945   1.585   0.428   0.892  0.7332  0.2078 -0.3019
 1602SOL    HW1 4946   1.539   0.503   0.929  1.5246 -0.1351  1.4599
 1602SOL    HW2 4947   1.637   0.465   0.821 -1.2433  0.7932 -1.5243
 1603SOL     OW 4948   3.720   0.150   1.371 -0.2201  0.4966  0.6500
 1603SOL    HW1 4949   3.663   0.078   1.397  0.5758  0.1403  1.4546
 1603SOL    HW2 4950   3.730   0.139   1.276 -1.1395  0.3193  0.5650
 1604SOL     OW 4951   2.379   1.917   3.395  0.3861 -0.0442 -0.2174
 1604SOL    HW1 4952   2.359   1.839   3.448  1.7273 -0.5189 -0.3814
 1604SOL    HW2 4953   2.468   1.903   3.364  1.0946  2.1056  0.6930
 1605SOL     OW 4954   2.583   2.432   1.932  0.9883  0.2274 -0.1172
 1605SOL    HW1 4955   2.491   2.415   1.914  1.1463  1.8228 -2.9724
 1605SOL    HW2 4956   2.585   2.519   1.972  1.2597 -0.0369  0.4699
 1606SOL     OW 4957   2.480   2.824   0.312  0.2625 -0.2157  0.1458
 1606SOL    HW1 4958   2.502   2.766   0.384  1.6179  0.8527  0.6224
 1606SOL    HW2 4959   2.418   2.887   0.350  1.1368  0.4729  0.4477
 1607SOL     OW 4960   1.740   1.235   3.041  0.1721  0.0785  0.4353
 1607SOL    HW1 4961   1.649   1.243   3.072 -0.2865 -2.7072  0.0667
 1607SOL    HW2 4962   1.735   1.169   2.972  2.4120  0.3607 -0.0500
 1608SOL     OW 4963   2.251   2.132   1.294  0.1013  0.1656 -0.1276
 1608SOL    HW1 4964   2.308   2.207   1.311 -0.7925  0.6280  0.9418
 1608SOL    HW2 4965   2.311   2.058   1.282  0.9345  0.6270  1.0744
 1609SOL     OW 4966   1.654   3.511   0.725 -0.2759  0.0999 -0.2677
 1609SOL    HW1 4967   1.593   3.579   0.751  0.4319  1.7759 -2.6188
 1609SOL    HW2 4968   1.726   3.517   0.788 -0.8189  0.6421  0.3064
 1610SOL     OW 4969   0.704   3.079   1.132 -0.3162  0.8967  0.4167
 1610SOL    HW1 4970   0.680   3.145   1.067  1.7329  0.8060 -0.5260
 1610SOL    HW2 4971   0.686   2.995   1.088  0.9056  0.8368 -0.0079
 1611SOL     OW 4972   3.325   2.633   3.363 -0.1415  0.2460 -0.0296
 1611SOL    HW1 4973   3.328   2.711   3.418  0.0897  0.8669 -0.8952
 1611SOL    HW2 4974   3.417   2.611   3.346 -0.1571 -1.0606  1.3313
 1612SOL     OW 4975   3.001   0.569   3.713  0.5078  0.2643 -0.1365
 1612SOL    HW1 4976   3.074   0.517   3.747  2.0123  2.8042  0.8076
 1612SOL    HW2 4977   3.031   0.600   3.628  0.9274  1.9190  0.5664
 1613SOL     OW 4978   3.621   3.321   1.100 -0.4081  0.2321  0.0870
 1613SOL    HW1 4979   3.622   3.228   1.077 -0.5734  0.6723 -1.8469
 1613SOL    HW2 4980   3.695   3.332   1.160 -0.3906 -1.1317  0.3464
 1614SOL     OW 4981   0.585   3.666   0.082 -0.5573 -0.0503  0.0740
 1614SOL    HW1 4982   0.505   3.647   0.130 -0.9262 -1.6370 -1.0692
 1614SOL    HW2 4983   0.555   3.700  -0.003  0.0570  1.5759  0.4549
 1615SOL     OW 4984   0.865   0.812   3.519  0.0422 -0.1468  0.3278
 1615SOL    HW1 4985   0.847   0.739   3.460 -0.7361 -0.6587  1.1713
 1615SOL    HW2 4986   0.794   0.874   3.501  0.5702  0.3180 -0.2197
 1616SOL     OW 4987   2.504   0.655   3.244  0.1834  0.3586 -0.0614
 1616SOL    HW1 4988   2.461   0.575   3.274 -0.8386  0.2997 -1.5888
 1616SOL    HW2 4989   2.502   0.713   3.321 -1.1926 -0.2381  0.3904
 1617SOL     OW 4990   0.222   3.720   2.082  0.6290  0.2402 -0.0589
 1617SOL    HW1 4991   0.169   3.692   2.157 -1.8660 -0.5777 -1.9665
 1617SOL    HW2 4992   0.303   3.671   2.091  0.3940  0.1413  2.0587
 1618SOL     OW 4993   3.401   0.061   3.753  0.1495 -0.5990 -0.5498
 1618SOL    HW1 4994   3.331   0.075   3.690  0.9608  1.7319 -1.0369
 1618SOL    HW2 4995   3.481   0.058   3.701  0.5896 -1.6213  0.1379
 1619SOL     OW 4996   0.763   1.760   1.664 -0.0300  0.4765  0.3608
 1619SOL    HW1 4997   0.832   1.736   1.726  2.0495  2.4421 -1.0159
 1619SOL    HW2 4998   0.789   1.718   1.582 -1.6549 -0.4501  0.2796
 1620SOL     OW 4999   2.997   0.288   0.566 -0.0810 -0.0450  0.6261
 1620SOL    HW1 5000   3.020   0.196   0.580  1.3584 -0.1971 -1.9833
 1620SOL    HW2 5001   2.907   0.286   0.535  0.9258 -1.0890 -2.7249
 1621SOL     OW 5002   3.096   3.018   1.281 -0.1779 -0.7209 -0.1679
 1621SOL    HW1 5003   3.090   2.988   1.372 -1.2405 -1.1019 -0.3486
 1621SOL    HW2 5004   3.006   3.041   1.257  0.2552  0.3564 -0.8048
 1622SOL     OW 5005   3.573   0.496   1.662  0.0089  0.0931  0.2035
 1622SOL    HW1 5006   3.590   0.559   1.732  0.7725 -0.0245  0.1347
 1622SOL    HW2 5007   3.659   0.459   1.642 -0.6673 -2.7693  1.9337
 1623SOL     OW 5008   0.336   1.023   1.899 -0.2425  0.4832 -0.2568
 1623SOL    HW1 5009   0.400   0.959   1.867  1.3566  1.3555  1.0602
 1623SOL    HW2 5010   0.252   0.987   1.873  0.7290 -1.0459 -1.4833
 1624SOL     OW 5011   2.898   3.337   0.561  0.4162 -0.3493  0.2380
 1624SOL    HW1 5012   2.825   3.380   0.517  0.2331  0.1791  1.0338
 1624SOL    HW2 5013   2.893   3.246   0.532 -0.9303 -0.4564  0.7472
 1625SOL     OW 5014   0.586   1.287   3.113  0.1303 -0.1782  0.4858
 1625SOL    HW1 5015   0.600   1.312   3.022 -0.2918  1.2368  0.7838
 1625SOL    HW2 5016   0.495   1.313   3.132  0.3312 -0.0892  1.4044
 1626SOL     OW 5017   0.088   2.012   3.134  0.3081 -0.6471 -0.1743
 1626SOL    HW1 5018   0.120   1.966   3.056  2.2280  0.6481 -0.2316
 1626SOL    HW2 5019   0.124   2.101   3.125 -0.7090 -0.0400  1.4395
 1627SOL     OW 5020   0.856   3.623   2.831  0.4403  0.3207 -0.1320
 1627SOL    HW1 5021   0.871   3.599   2.740 -1.0154  1.2350 -0.6537
 1627SOL    HW2 5022   0.825   3.714   2.827  1.9179  0.9492  1.4187
 1628SOL     OW 5023   2.886   0.449   3.114  0.2328  0.1560 -0.1584
 1628SOL    HW1 5024   2.831   0.525   3.098 -0.0825 -0.0678 -0.1556
 1628SOL    HW2 5025   2.975   0.479   3.096  0.2263  0.8025  0.7918
 1629SOL     OW 5026   0.416   3.238   3.396  0.2152  0.9635 -0.8657
 1629SOL    HW1 5027   0.422   3.316   3.341  0.5312  3.0369  1.8576
 1629SOL    HW2 5028   0.431   3.271   3.485  0.0064 -2.1894  0.4631
 1630SOL     OW 5029   2.279   0.782   1.501  0.4279  0.2876  0.5688
 1630SOL    HW1 5030   2.365   0.741   1.485  0.9687  1.3581  0.6413
 1630SOL    HW2 5031   2.292   0.874   1.477 -0.4702  0.6412  1.3943
 1631SOL     OW 5032   3.290   2.407   1.927 -0.2782 -0.8619  0.1787
 1631SOL    HW1 5033   3.304   2.338   1.861 -2.1765 -1.1763  0.0372
 1631SOL    HW2 5034   3.367   2.403   1.983  0.3740 -2.0620 -0.7587
 1632SOL     OW 5035   2.829   2.899   2.861 -0.1606 -0.2591  0.0023
 1632SOL    HW1 5036   2.924   2.913   2.866 -0.3071  0.3791  1.1359
 1632SOL    HW2 5037   2.800   2.894   2.952 -1.2341 -0.3639 -0.3338
 1633SOL     OW 5038   0.299   3.079   2.827  0.0094 -0.2480  0.0644
 1633SOL    HW1 5039   0.359   3.119   2.763 -2.7409  1.5173 -1.6335
 1633SOL    HW2 5040   0.251   3.014   2.776 -1.3394  0.2664  0.6338
 1634SOL     OW 5041   3.133   1.106   1.345  0.5834  0.8695 -0.2381
 1634SOL    HW1 5042   3.211   1.162   1.348  0.3893  1.0936  1.1586
 1634SOL    HW2 5043   3.066   1.160   1.304  1.3568  0.3618 -2.3517
 1635SOL     OW 5044   0.533   3.051   3.652 -1.3797 -0.0803  0.0005
 1635SOL    HW1 5045   0.617   3.098   3.656 -0.1770 -2.1843  1.5377
 1635SOL    HW2 5046   0.473   3.105   3.704 -0.4469  0.5269  0.4762
 1636SOL     OW 5047   1.299   0.566   3.116 -0.2680 -0.0232  0.1330
 1636SOL    HW1 5048   1.360   0.568   3.042  1.2029 -2.6061  1.1608
 1636SOL    HW2 5049   1.281   0.659   3.134  0.9281  0.7290 -2.1232
 1637SOL     OW 5050   2.549   1.276   3.033 -0.7035 -0.0745 -0.0931
 1637SOL    HW1 5051   2.562   1.222   3.110 -0.2588 -0.1795 -0.2408
 1637SOL    HW2 5052   2.634   1.279   2.990 -0.6357  0.9880  0.0721
 1638SOL     OW 5053   1.796   2.843   2.626 -0.3556 -0.2905 -0.4334
 1638SOL    HW1 5054   1.745   2.780   2.678  0.3878  0.3676  1.1878
 1638SOL    HW2 5055   1.763   2.928   2.653 -0.4382  0.0597 -1.6129
 1639SOL     OW 5056   0.964   1.907   3.456  0.5073  0.0490 -0.1611
 1639SOL    HW1 5057   0.960   1.816   3.428  0.0159 -0.0654  0.2668
 1639SOL    HW2 5058   1.046   1.913   3.505  0.7875 -0.0383 -0.6220
 1640SOL     OW 5059   2.284   0.881   1.131 -0.1556  0.2547  0.9205
 1640SOL    HW1 5060   2.351   0.924   1.184 -0.6514 -0.5734  2.2947
 1640SOL    HW2 5061   2.326   0.803   1.097 -0.2569  0.0047  1.3566
 1641SOL     OW 5062   0.362   2.130   0.632 -0.0666  0.0737  0.3711
 1641SOL    HW1 5063   0.457   2.137   0.638 -0.0180 -0.3914  0.2370
 1641SOL    HW2 5064   0.347   2.057   0.571 -0.5039 -0.0021  0.5608
 1642SOL     OW 5065   0.657   1.459   2.176 -0.5668  0.2018 -0.3253
 1642SOL    HW1 5066   0.670   1.510   2.256 -0.7701  0.0956 -0.2237
 1642SOL    HW2 5067   0.682   1.518   2.105 -0.4809  0.3298 -0.1889
 1643SOL     OW 5068   2.589   1.831   3.193  0.7380  0.0433 -0.0566
 1643SOL    HW1 5069   2.612   1.787   3.275  1.6223 -0.9823 -0.8254
 1643SOL    HW2 5070   2.634   1.781   3.125 -1.6965 -0.4666 -1.4291
 1644SOL     OW 5071   2.572   1.713   0.261 -0.2228  0.7981 -0.1711
 1644SOL    HW1 5072   2.511   1.672   0.322 -2.6455  1.5966 -1.9088
 1644SOL    HW2 5073   2.546   1.805   0.260 -0.1950  0.8214 -2.3297
 1645SOL     OW 5074   2.035   1.707   3.454 -0.1568 -0.2021 -0.4175
 1645SOL    HW1 5075   1.956   1.741   3.411  0.1289 -0.9449 -1.5595
 1645SOL    HW2 5076   2.103   1.710   3.386  1.1529  1.5726  0.8706
 1646SOL     OW 5077   3.638   0.999   3.187 -0.5339 -0.2305  0.2068
 1646SOL    HW1 5078   3.641   1.053   3.266 -0.5191  0.1286 -0.0354
 1646SOL    HW2 5079   3.729   0.990   3.160 -0.4824 -0.8928  0.5895
 1647SOL     OW 5080   0.045   1.895   1.571  0.3465 -0.2199 -0.1100
 1647SOL    HW1 5081   0.135   1.907   1.601  0.0976  2.8972 -0.2465
 1647SOL    HW2 5082   0.050   1.892   1.476  0.2949  0.3349 -0.1334
 1648SOL     OW 5083   1.910   1.344   1.291 -0.5396 -0.2530 -0.3048
 1648SOL    HW1 5084   1.927   1.318   1.200  2.1377  0.4619 -0.0904
 1648SOL    HW2 5085   1.860   1.425   1.284 -1.5513 -0.9194 -1.0884
 1649SOL     OW 5086   2.452   0.053   1.528 -0.0378  0.0983 -0.1796
 1649SOL    HW1 5087   2.423  -0.018   1.585  2.0331  0.3825  1.3449
 1649SOL    HW2 5088   2.448   0.131   1.583  1.3065  0.5103 -0.6367
 1650SOL     OW 5089   3.332   3.103   3.377 -0.7351 -0.4186  0.3902
 1650SOL    HW1 5090   3.350   3.193   3.350 -1.9538  0.4175  2.1767
 1650SOL    HW2 5091   3.407   3.077   3.430 -1.3701  0.3781  1.7140
 1651SOL     OW 5092   3.115   2.436   0.006 -0.6034  0.6140  0.1003
 1651SOL    HW1 5093   3.095   2.503  -0.060  2.6889  1.2121 -0.4671
 1651SOL    HW2 5094   3.141   2.485   0.083  1.7856  0.1055 -0.2963
 1652SOL     OW 5095   2.429   1.227   0.984 -0.2614  0.2824  0.5422
 1652SOL    HW1 5096   2.429   1.268   1.070 -0.7554 -0.8778  1.1121
 1652SOL    HW2 5097   2.457   1.137   1.000  2.1656  0.6886 -0.8540
 1653SOL     OW 5098   3.015   1.976   2.385  0.0627  0.4828 -0.6049
 1653SOL    HW1 5099   2.925   1.971   2.353  0.2708 -1.0089 -1.0032
 1653SOL    HW2 5100   3.014   1.927   2.468  0.8986 -1.2748 -1.5846
 1654SOL     OW 5101   2.954   2.864   1.728 -0.2925 -0.1067  0.1618
 1654SOL    HW1 5102   3.009   2.798   1.771 -0.4344 -2.2163 -2.6307
 1654SOL    HW2 5103   2.866   2.848   1.762 -0.1730 -0.7650  0.1739
 1655SOL     OW 5104   2.349   0.250   1.708 -0.8449  0.8088  0.3625
 1655SOL    HW1 5105   2.274   0.272   1.652 -1.9979  0.2944  1.6371
 1655SOL    HW2 5106   2.310   0.208   1.785  0.8677 -0.9536  0.3514
 1656SOL     OW 5107   0.806   2.298   2.774  0.4646  0.1649  0.6410
 1656SOL    HW1 5108   0.892   2.308   2.732  0.4997 -0.1153  0.6469
 1656SOL    HW2 5109   0.746   2.346   2.716  0.4508 -0.5381  0.0661
 1657SOL     OW 5110   3.164   1.773   3.669 -0.1455 -0.0245  0.2174
 1657SOL    HW1 5111   3.227   1.815   3.728 -0.6820 -0.5154  1.1531
 1657SOL    HW2 5112   3.114   1.715   3.725 -0.5669 -0.6215 -0.7643
 1658SOL     OW 5113   2.908   0.928   2.039 -0.1836  0.2273 -0.3636
 1658SOL    HW1 5114   2.852   0.970   2.104  0.5783  0.1732  0.3264
 1658SOL    HW2 5115   2.996   0.930   2.076  0.1797 -0.2698 -1.1577
 1659SOL     OW 5116   3.278   1.854   2.795 -0.1518 -0.0035  0.1692
 1659SOL    HW1 5117   3.278   1.855   2.891 -0.7090 -0.0220  0.1744
 1659SOL    HW2 5118   3.311   1.767   2.773  0.7382  0.2816  0.3273
 1660SOL     OW 5119   2.436   3.152   2.778  0.1087 -0.3955  0.3905
 1660SOL    HW1 5120   2.401   3.241   2.786 -0.5635 -0.6452  0.2426
 1660SOL    HW2 5121   2.363   3.095   2.800  0.1939 -0.9430 -0.7059
 1661SOL     OW 5122   1.072   3.251   3.591 -0.4124  0.3382 -0.3467
 1661SOL    HW1 5123   1.082   3.335   3.546  0.4304 -0.1593 -1.1215
 1661SOL    HW2 5124   0.978   3.245   3.609 -0.4037  1.7113  0.2704
 1662SOL     OW 5125   0.262   1.192   2.849 -0.2884 -1.0231 -0.5444
 1662SOL    HW1 5126   0.193   1.229   2.794 -0.3256  1.5722  1.0739
 1662SOL    HW2 5127   0.343   1.220   2.808 -0.3037  0.0059  0.0942
 1663SOL     OW 5128   0.111   2.832   0.083  0.5036 -0.0979  0.7022
 1663SOL    HW1 5129   0.179   2.785   0.035  1.3049  1.1795  0.5599
 1663SOL    HW2 5130   0.069   2.764   0.136  1.8704 -0.9239  0.7910
 1664SOL     OW 5131   1.664   1.250   3.605 -1.0766 -0.6662  0.2964
 1664SOL    HW1 5132   1.640   1.166   3.644 -1.3991 -1.4721 -1.5443
 1664SOL    HW2 5133   1.644   1.315   3.673  0.7745 -2.1732  2.4133
 1665SOL     OW 5134   2.997   3.389   1.976  0.6933  0.2677  0.2167
 1665SOL    HW1 5135   2.945   3.444   2.035 -0.3053  2.3533 -2.3981
 1665SOL    HW2 5136   2.932   3.336   1.930  1.6089 -3.0054  2.3767
 1666SOL     OW 5137   2.159   2.029   3.256  0.1047 -0.5205  0.0898
 1666SOL    HW1 5138   2.173   1.987   3.171  0.6436  3.3677 -2.0196
 1666SOL    HW2 5139   2.247   2.035   3.294  0.3069  0.1475 -0.4481
 1667SOL     OW 5140   0.279   1.491   1.113  0.4208  0.4274 -0.3131
 1667SOL    HW1 5141   0.256   1.498   1.021  1.4213 -0.7319 -0.6812
 1667SOL    HW2 5142   0.245   1.571   1.153  2.4549  2.3626 -2.1978
 1668SOL     OW 5143   3.318   0.383   2.637 -0.3885  0.4837  0.0835
 1668SOL    HW1 5144   3.388   0.446   2.654 -0.1109  0.3347 -0.4861
 1668SOL    HW2 5145   3.237   0.432   2.651 -0.2228  1.6115 -2.4837
 1669SOL     OW 5146   3.479   3.754   1.202  0.8446 -0.2125 -0.3258
 1669SOL    HW1 5147   3.442   3.721   1.284  0.2733 -0.0107 -0.4964
 1669SOL    HW2 5148   3.527   3.679   1.166  1.6116 -0.1181  0.4848
 1670SOL     OW 5149   2.199   1.701   3.234 -0.3362  0.4529 -0.6671
 1670SOL    HW1 5150   2.270   1.762   3.250 -2.2388  2.6652 -0.2148
 1670SOL    HW2 5151   2.243   1.617   3.220  2.2065  0.8649  3.2247
 1671SOL     OW 5152   0.799   3.229   0.855  0.1027  0.2439  0.3290
 1671SOL    HW1 5153   0.844   3.302   0.897 -0.0088  0.0941  0.7121
 1671SOL    HW2 5154   0.709   3.260   0.843 -0.4748 -0.5213  2.2964
 1672SOL     OW 5155   1.600   0.694   2.485 -0.6344 -0.1222  0.1313
 1672SOL    HW1 5156   1.573   0.744   2.562 -0.8678  0.7005 -0.4627
 1672SOL    HW2 5157   1.525   0.639   2.464 -0.7335 -0.0313  0.2441
 1673SOL     OW 5158   2.230   2.643   3.032  0.3641  0.0951 -0.3974
 1673SOL    HW1 5159   2.149   2.692   3.046  0.8683  1.3477 -1.5536
 1673SOL    HW2 5160   2.256   2.614   3.119 -1.9029 -1.3432 -0.1305
 1674SOL     OW 5161   2.202   2.580   1.316  0.3798 -0.0716  0.2815
 1674SOL    HW1 5162   2.244   2.606   1.233 -3.2253  1.4579 -1.3033
 1674SOL    HW2 5163   2.205   2.659   1.369 -0.2101 -0.0005  0.2224
 1675SOL     OW 5164   2.808   1.220   2.374 -0.1121 -0.2534  0.2007
 1675SOL    HW1 5165   2.778   1.245   2.287 -1.5030 -0.9774  0.4410
 1675SOL    HW2 5166   2.887   1.168   2.358  0.7148  1.1707 -0.4927
 1676SOL     OW 5167   2.903   2.322   0.219  0.1413  0.4633  0.2018
 1676SOL    HW1 5168   2.936   2.360   0.137 -1.5383  2.3812  0.3255
 1676SOL    HW2 5169   2.981   2.309   0.273  1.2077 -0.1995 -1.4289
 1677SOL     OW 5170   1.932   2.232   0.828 -0.8338 -0.4137 -0.0232
 1677SOL    HW1 5171   2.001   2.197   0.773  1.0177  0.7764  1.4194
 1677SOL    HW2 5172   1.965   2.224   0.917 -3.2152 -1.1706  0.8704
 1678SOL     OW 5173   1.657   0.779   2.746 -0.3080  0.2815  0.1541
 1678SOL    HW1 5174   1.740   0.793   2.700 -0.4909  0.7409 -0.0330
 1678SOL    HW2 5175   1.634   0.865   2.782 -0.2979 -0.0108  0.8875
 1679SOL     OW 5176   2.807   0.024   3.255  0.1602 -0.3552  0.2820
 1679SOL    HW1 5177   2.874  -0.029   3.300  1.4547  2.3052  1.7216
 1679SOL    HW2 5178   2.851   0.057   3.177 -0.0037  0.1084  0.3834
 1680SOL     OW 5179   2.256   3.509   0.604 -0.3050 -0.2412 -0.5171
 1680SOL    HW1 5180   2.325   3.514   0.538  0.3159 -1.8903 -0.0398
 1680SOL    HW2 5181   2.283   3.572   0.671  1.2752 -1.5579  0.1271
 1681SOL     OW 5182   1.517   2.790   2.378 -0.0066 -0.0937 -0.2758
 1681SOL    HW1 5183   1.500   2.875   2.418 -0.9081  0.1327 -1.0903
 1681SOL    HW2 5184   1.517   2.729   2.451 -1.3492  0.3451  0.1238
 1682SOL     OW 5185   2.945   2.691   0.811 -0.5874 -0.4721  0.3496
 1682SOL    HW1 5186   2.939   2.754   0.882  2.0405 -2.2222  2.3341
 1682SOL    HW2 5187   3.026   2.713   0.766 -0.9193 -0.9453 -0.5123
 1683SOL     OW 5188   0.373   0.377   3.416  0.5809  0.3397  0.2059
 1683SOL    HW1 5189   0.350   0.363   3.324 -0.3768 -1.2937  0.6403
 1683SOL    HW2 5190   0.419   0.461   3.418  2.0734 -0.3484 -2.0037
 1684SOL     OW 5191   0.753   0.047   3.177 -0.2665 -0.5361  0.5785
 1684SOL    HW1 5192   0.670   0.011   3.208 -0.6216 -0.4260 -0.2075
 1684SOL    HW2 5193   0.733   0.082   3.090  0.4825 -0.0328  0.5927
 1685SOL     OW 5194   1.951   2.548   2.228  0.0774  0.0833  0.1937
 1685SOL    HW1 5195   2.005   2.625   2.243 -1.1402  1.1509 -0.6802
 1685SOL    HW2 5196   1.861   2.582   2.223 -0.3716 -1.2169 -1.3987
 1686SOL     OW 5197   3.230   3.291   2.098 -0.4774 -0.3046 -0.0231
 1686SOL    HW1 5198   3.147   3.317   2.057 -1.5418 -1.4725  1.2630
 1686SOL    HW2 5199   3.276   3.243   2.029 -1.3217 -0.5020 -0.4706
 1687SOL     OW 5200   2.282   3.570   1.956 -0.8791  0.3611  0.5359
 1687SOL    HW1 5201   2.312   3.581   2.046  0.1265  1.3381  0.1122
 1687SOL    HW2 5202   2.187   3.558   1.964 -0.9367  1.3407  1.6703
 1688SOL     OW 5203   0.203   3.715   2.442  0.2195  0.1153  0.4955
 1688SOL    HW1 5204   0.267   3.644   2.446 -0.0416 -0.1806 -0.3190
 1688SOL    HW2 5205   0.193   3.744   2.532  0.6331 -0.6109  0.7799
 1689SOL     OW 5206   1.871   1.036   0.174 -0.2040 -0.0930 -0.2409
 1689SOL    HW1 5207   1.776   1.048   0.173 -0.1530  0.4154 -2.0727
 1689SOL    HW2 5208   1.905   1.100   0.111  1.5597  1.0751  1.7617
 1690SOL     OW 5209   2.976   1.002   3.272  0.3235 -0.8571  0.3164
 1690SOL    HW1 5210   3.035   1.064   3.315 -1.9376  1.6367  0.0515
 1690SOL    HW2 5211   2.909   0.983   3.337 -0.6623 -0.6204 -0.6014
 1691SOL     OW 5212   1.431   2.636   3.010 -0.4630  0.6165 -0.6832
 1691SOL    HW1 5213   1.355   2.688   2.982 -1.5140 -1.1414 -1.2388
 1691SOL    HW2 5214   1.395   2.571   3.070  0.1743 -1.5951 -2.5452
 1692SOL     OW 5215   3.420   2.323   2.961 -0.5038 -0.2575  0.0794
 1692SOL    HW1 5216   3.409   2.415   2.982 -0.7129 -0.0111 -1.0318
 1692SOL    HW2 5217   3.343   2.280   2.997 -1.9906  0.4801 -2.0276
 1693SOL     OW 5218   2.046   2.149   2.192 -0.6987 -0.0847 -0.1942
 1693SOL    HW1 5219   2.121   2.207   2.206 -0.8774 -0.2248  1.5296
 1693SOL    HW2 5220   1.979   2.182   2.251 -0.5399 -2.4570  1.4872
 1694SOL     OW 5221   3.075   3.486   1.520  0.2463  0.0609  0.4730
 1694SOL    HW1 5222   3.006   3.502   1.585 -0.2030  0.7866 -0.1665
 1694SOL    HW2 5223   3.085   3.569   1.474  0.8097 -0.3405 -0.1570
 1695SOL     OW 5224   2.064   1.537   2.388  0.4044  0.3814  0.0065
 1695SOL    HW1 5225   2.055   1.442   2.384 -0.2415  0.4183  0.4564
 1695SOL    HW2 5226   2.018   1.562   2.468 -1.6956  1.3103 -1.3716
 1696SOL     OW 5227   2.470   0.348   1.273  0.9019 -0.7386  1.0277
 1696SOL    HW1 5228   2.544   0.297   1.306  0.3360 -0.7581  2.3441
 1696SOL    HW2 5229   2.400   0.333   1.337  0.1377  0.2277  0.4555
 1697SOL     OW 5230   2.895   3.278   1.364 -0.0107 -0.6239  0.5152
 1697SOL    HW1 5231   2.952   3.331   1.420  1.4995 -0.6526 -0.9179
 1697SOL    HW2 5232   2.821   3.336   1.344  1.5650  0.9991 -0.9560
 1698SOL     OW 5233   2.836   2.134   2.819 -0.1427  0.0127  0.2129
 1698SOL    HW1 5234   2.911   2.194   2.820 -0.1855  0.1007 -0.6628
 1698SOL    HW2 5235   2.771   2.179   2.765 -1.7166  0.9405  2.7010
 1699SOL     OW 5236   0.143   1.059   0.678  0.3060 -0.1587 -0.1317
 1699SOL    HW1 5237   0.172   1.073   0.588  0.0498  2.6099  0.1125
 1699SOL    HW2 5238   0.199   1.116   0.730 -2.6683  2.2543  0.8066
 1700SOL     OW 5239   1.980   2.904   2.067 -0.0116 -1.0021  0.6428
 1700SOL    HW1 5240   1.995   2.892   2.161  1.3650  1.4793  0.8257
 1700SOL    HW2 5241   1.890   2.874   2.053 -1.1980  0.9184  3.3005
 1701SOL     OW 5242   1.922   1.116   3.206 -0.5012 -0.0478  0.3196
 1701SOL    HW1 5243   1.906   1.022   3.210  0.5263 -0.2093  1.1916
 1701SOL    HW2 5244   1.862   1.148   3.139  0.1344 -1.5276 -1.0019
 1702SOL     OW 5245   0.843   1.299   0.405 -0.4431 -0.1587  0.1833
 1702SOL    HW1 5246   0.822   1.370   0.343 -2.1425  0.4427  1.3715
 1702SOL    HW2 5247   0.805   1.328   0.488 -0.8911 -2.3330  0.7897
 1703SOL     OW 5248   3.228   0.052   3.273 -0.2548  0.3742  0.0338
 1703SOL    HW1 5249   3.181   0.125   3.314 -2.4989 -1.6177  1.3474
 1703SOL    HW2 5250   3.188   0.043   3.187 -2.3925 -1.1867  1.0722
 1704SOL     OW 5251   1.227   0.575   0.648 -0.0487  0.3724  0.0886
 1704SOL    HW1 5252   1.154   0.514   0.639 -0.8169  1.1597  0.7902
 1704SOL    HW2 5253   1.186   0.659   0.666  1.0431  0.3536  3.2911
 1705SOL     OW 5254   3.326   3.541   1.825 -0.5267  0.3178 -0.1218
 1705SOL    HW1 5255   3.268   3.489   1.770  1.9680 -1.5689 -1.1842
 1705SOL    HW2 5256   3.333   3.492   1.907  0.6446 -0.2855 -0.5546
 1706SOL     OW 5257   1.838   0.867   3.514 -0.4912  0.7966  0.0246
 1706SOL    HW1 5258   1.770   0.836   3.574  0.6820 -0.2070  0.8822
 1706SOL    HW2 5259   1.865   0.951   3.550  2.5921 -1.2246  3.1079
 1707SOL     OW 5260   0.217   1.221   1.257  0.3100 -0.0870  0.1747
 1707SOL    HW1 5261   0.173   1.194   1.177 -0.3684 -1.2600  0.9057
 1707SOL    HW2 5262   0.233   1.314   1.246 -0.2616 -0.1183 -1.0877
 1708SOL     OW 5263   2.976   3.683   3.606  0.0974 -0.7121 -0.3022
 1708SOL    HW1 5264   3.007   3.669   3.695  2.1064  1.3773 -0.6011
 1708SOL    HW2 5265   2.978   3.778   3.593 -0.5068 -0.9244 -2.4600
 1709SOL     OW 5266   2.559   2.621   0.453  0.8332  0.3913 -1.1214
 1709SOL    HW1 5267   2.624   2.603   0.521 -0.4996 -0.4660 -0.0280
 1709SOL    HW2 5268   2.571   2.550   0.389 -1.3800 -2.0314  0.9179
 1710SOL     OW 5269   3.316   1.551   3.171  0.6131  0.2929  0.2018
 1710SOL    HW1 5270   3.277   1.559   3.259 -0.9597 -0.8893 -0.3331
 1710SOL    HW2 5271   3.266   1.614   3.118 -0.2548 -0.8600 -0.3832
 1711SOL     OW 5272   3.200   0.216   1.837  0.1634 -0.2148 -0.4712
 1711SOL    HW1 5273   3.272   0.271   1.868  0.8120 -2.5268  2.4716
 1711SOL    HW2 5274   3.123   0.274   1.840  1.3960  1.5701 -1.2716
 1712SOL     OW 5275   2.579   0.116   2.023  0.4088 -0.2536  0.3768
 1712SOL    HW1 5276   2.606   0.098   1.933 -2.3686 -0.2690 -0.5527
 1712SOL    HW2 5277   2.640   0.184   2.054  2.0438 -0.9671 -1.1177
 1713SOL     OW 5278   0.716   0.630   0.107  0.3863  0.1883 -0.2576
 1713SOL    HW1 5279   0.722   0.593   0.019  2.4927  1.9913 -0.9731
 1713SOL    HW2 5280   0.752   0.563   0.165  1.9501  0.1683 -1.2099
 1714SOL     OW 5281   0.424   1.569   1.904  0.0409  0.7419 -0.1570
 1714SOL    HW1 5282   0.520   1.566   1.905  0.0516  0.6973 -0.9408
 1714SOL    HW2 5283   0.397   1.478   1.895 -0.0691  0.7761 -0.1735
 1715SOL     OW 5284   2.202   3.574   0.226 -0.3570 -0.7297 -0.5443
 1715SOL    HW1 5285   2.215   3.541   0.137 -0.1145 -0.9031 -0.4470
 1715SOL    HW2 5286   2.109   3.599   0.229 -0.3437 -0.6414 -0.8709
 1716SOL     OW 5287   0.108   0.263   0.175 -0.2532  0.1396  0.6495
 1716SOL    HW1 5288   0.166   0.191   0.200 -0.7725  0.1141  1.8370
 1716SOL    HW2 5289   0.165   0.324   0.128  1.1819  0.9510  3.2857
 1717SOL     OW 5290   1.852   1.213   1.989 -0.1662  0.3255  0.2142
 1717SOL    HW1 5291   1.786   1.180   2.050  0.0258 -1.2779 -0.4226
 1717SOL    HW2 5292   1.930   1.225   2.043  0.5954 -2.9494  0.0261
 1718SOL     OW 5293   3.513   2.860   3.082 -0.2371 -0.1045  0.6240
 1718SOL    HW1 5294   3.574   2.927   3.052  0.7000 -1.1056  0.2298
 1718SOL    HW2 5295   3.447   2.856   3.013 -0.7320  0.9211  1.0109
 1719SOL     OW 5296   3.221   1.603   2.082 -0.2295  0.2105 -0.5886
 1719SOL    HW1 5297   3.315   1.608   2.103 -0.4074 -0.5007  0.4905
 1719SOL    HW2 5298   3.188   1.691   2.098 -0.0702  0.0410  0.8096
 1720SOL     OW 5299   2.735   1.876   2.913  0.2352 -1.0802 -0.1374
 1720SOL    HW1 5300   2.750   1.945   2.848 -0.3640  0.8637  1.6890
 1720SOL    HW2 5301   2.809   1.884   2.974 -0.5414 -1.1497  0.8333
 1721SOL     OW 5302   0.967   1.664   1.829  0.6055  0.5533  0.2047
 1721SOL    HW1 5303   1.047   1.697   1.787 -0.3049  0.4668 -1.7344
 1721SOL    HW2 5304   0.989   1.575   1.855  0.7521 -0.0029 -1.6553
 1722SOL     OW 5305   0.573   0.445   1.693  0.4924  0.2053  0.1605
 1722SOL    HW1 5306   0.664   0.465   1.672  0.8638 -1.5272 -0.0370
 1722SOL    HW2 5307   0.562   0.353   1.669 -1.0692  0.1322  0.9868
 1723SOL     OW 5308   2.346   0.554   3.544 -0.2019  0.4703 -0.2596
 1723SOL    HW1 5309   2.370   0.492   3.474 -0.0622  2.2126 -1.8160
 1723SOL    HW2 5310   2.255   0.578   3.525 -0.9930 -0.8069  1.5838
 1724SOL     OW 5311   2.075   2.562   0.705 -0.7491  0.1408  0.2288
 1724SOL    HW1 5312   2.112   2.473   0.704  2.1390  1.1811  1.3959
 1724SOL    HW2 5313   2.096   2.595   0.793 -1.2802  2.1544 -0.3532
 1725SOL     OW 5314   2.221   0.744   2.410  0.6487  0.2480 -0.3883
 1725SOL    HW1 5315   2.216   0.693   2.329 -2.3443 -1.6037  0.7917
 1725SOL    HW2 5316   2.158   0.815   2.396  1.1541  0.7349 -0.1952
 1726SOL     OW 5317   3.029   1.209   3.682 -0.1316 -0.2420  0.1336
 1726SOL    HW1 5318   3.054   1.288   3.729  1.1876 -0.4153 -0.2511
 1726SOL    HW2 5319   2.979   1.158   3.746 -1.7435  1.2367  0.1397
 1727SOL     OW 5320   2.666   2.310   2.657 -0.4425  0.5747  0.1366
 1727SOL    HW1 5321   2.612   2.372   2.607 -1.0766 -0.7135 -0.8379
 1727SOL    HW2 5322   2.604   2.269   2.718  0.0178  1.0321  0.9244
 1728SOL     OW 5323   0.881   1.162   3.047  0.3123 -0.1740 -0.1627
 1728SOL    HW1 5324   0.789   1.179   3.026  0.3424 -0.6584 -0.7175
 1728SOL    HW2 5325   0.900   1.079   3.004  0.3542 -1.2839  1.8822
 1729SOL     OW 5326   2.201   1.707   2.803 -0.0063  0.2125 -0.4735
 1729SOL    HW1 5327   2.235   1.667   2.723  0.0699 -1.2477  0.2530
 1729SOL    HW2 5328   2.187   1.633   2.862 -1.3621  1.1244  0.3859
 1730SOL     OW 5329   2.514   3.288   2.247 -0.5015  0.0388  0.3215
 1730SOL    HW1 5330   2.504   3.364   2.190  0.4856  0.0913  0.2050
 1730SOL    HW2 5331   2.464   3.310   2.326 -1.4862  0.1593 -0.3232
 1731SOL     OW 5332   2.944   0.753   3.086 -0.0183 -0.5855  0.1049
 1731SOL    HW1 5333   2.970   0.843   3.063 -0.3895 -0.3577  0.5666
 1731SOL    HW2 5334   2.849   0.754   3.084 -0.0406 -0.7902  0.7763
 1732SOL     OW 5335   2.085   2.446   2.504  0.3664 -0.1322 -0.4626
 1732SOL    HW1 5336   2.079   2.351   2.504  1.9398 -0.2829  0.7887
 1732SOL    HW2 5337   2.089   2.470   2.597  0.1059  1.1454 -0.7541
 1733SOL     OW 5338   2.042   2.932   1.628  0.2863 -0.6423  0.4445
 1733SOL    HW1 5339   2.003   2.847   1.649 -0.0587 -0.4628  0.5462
 1733SOL    HW2 5340   2.026   2.985   1.707 -2.4498  0.5514 -0.7833
 1734SOL     OW 5341   3.689   2.818   0.473 -0.4016  0.6413  0.6212
 1734SOL    HW1 5342   3.704   2.738   0.422  1.0425 -0.1963  2.2748
 1734SOL    HW2 5343   3.699   2.889   0.409  1.6775 -0.3502 -0.2705
 1735SOL     OW 5344   2.292   1.170   0.160 -0.2314  0.6525  0.5899
 1735SOL    HW1 5345   2.340   1.240   0.204  0.3999  0.1175  0.7644
 1735SOL    HW2 5346   2.253   1.120   0.232 -1.5068  1.3776  0.4412
 1736SOL     OW 5347   2.457   3.385   1.349 -0.1081 -0.3487 -0.3794
 1736SOL    HW1 5348   2.484   3.330   1.275  0.6103  0.0804 -0.4512
 1736SOL    HW2 5349   2.514   3.358   1.421  2.6892  2.5212 -1.2810
 1737SOL     OW 5350   3.341   2.614   1.203 -0.0048 -0.3819  0.0048
 1737SOL    HW1 5351   3.252   2.638   1.179 -0.5927 -0.9356  1.5589
 1737SOL    HW2 5352   3.338   2.596   1.297  1.8296 -0.0061  0.1880
 1738SOL     OW 5353   1.281   2.988   3.684  0.2225 -0.5268  0.1156
 1738SOL    HW1 5354   1.272   3.075   3.724 -0.4258 -0.7948  0.5670
 1738SOL    HW2 5355   1.195   2.970   3.646 -0.1848 -1.6668  1.4752
 1739SOL     OW 5356   2.173   1.460   0.629  0.0425  0.4226 -0.1531
 1739SOL    HW1 5357   2.155   1.554   0.627  0.2899  0.4641 -0.9855
 1739SOL    HW2 5358   2.157   1.431   0.539 -0.9175 -0.5058  0.3051
 1740SOL     OW 5359   3.211   1.896   1.171 -0.5297 -0.5178  0.2002
 1740SOL    HW1 5360   3.235   1.981   1.207  0.3567 -0.1845 -1.0977
 1740SOL    HW2 5361   3.115   1.895   1.173 -0.5161 -0.1068  1.5735
 1741SOL     OW 5362   1.279   3.080   1.202  0.4526 -0.0806 -0.0405
 1741SOL    HW1 5363   1.295   3.145   1.270 -0.1430  0.5332 -0.4739
 1741SOL    HW2 5364   1.186   3.088   1.182  0.6054 -0.3022 -0.8817
 1742SOL     OW 5365   3.474   2.034   2.630  0.4348  0.2218 -0.4437
 1742SOL    HW1 5366   3.447   2.124   2.647  0.7427  0.3783 -0.7937
 1742SOL    HW2 5367   3.492   1.998   2.717  0.1921  0.4568 -0.2939
 1743SOL     OW 5368   2.479   1.751   2.906 -0.3468 -0.4620  0.2185
 1743SOL    HW1 5369   2.564   1.790   2.888 -0.7390  0.2400 -0.1557
 1743SOL    HW2 5370   2.452   1.713   2.822 -0.3997 -0.6846  0.3361
 1744SOL     OW 5371   1.503   1.177   0.584 -0.1337  0.1937  0.0205
 1744SOL    HW1 5372   1.555   1.179   0.664  0.4848 -0.8906 -0.3321
 1744SOL    HW2 5373   1.415   1.205   0.611  0.3049  0.7823  0.8712
 1745SOL     OW 5374   2.452   1.111   0.562  0.2001  0.3356 -0.3171
 1745SOL    HW1 5375   2.377   1.169   0.575 -0.7831 -0.9833  0.0121
 1745SOL    HW2 5376   2.416   1.023   0.569  1.7000 -0.3267 -0.6480
 1746SOL     OW 5377   3.535   1.730   1.610 -0.5324  0.1263  0.1028
 1746SOL    HW1 5378   3.590   1.808   1.615  1.4646 -1.2231  0.5280
 1746SOL    HW2 5379   3.492   1.725   1.696 -1.7782  1.4614 -0.4054
 1747SOL     OW 5380   1.311   3.296   1.365  0.0293  0.5019 -0.5194
 1747SOL    HW1 5381   1.290   3.264   1.453  0.8890  0.4762 -0.3157
 1747SOL    HW2 5382   1.404   3.318   1.369  0.6306 -1.4878 -1.9949
 1748SOL     OW 5383   2.765   1.563   0.649 -0.8390  0.2967  0.0714
 1748SOL    HW1 5384   2.694   1.510   0.612  1.2827 -2.0058 -0.9834
 1748SOL    HW2 5385   2.759   1.647   0.603 -1.4751 -0.6867 -1.7440
 1749SOL     OW 5386   0.162   1.368   0.509  0.4262 -0.0827  0.2595
 1749SOL    HW1 5387   0.232   1.359   0.444 -0.1566 -1.0739 -0.2511
 1749SOL    HW2 5388   0.205   1.351   0.593  0.5990 -1.8996 -0.1495
 1750SOL     OW 5389   2.267   1.951   3.014 -0.3313 -0.4742 -0.5411
 1750SOL    HW1 5390   2.277   1.993   2.928  1.3668 -0.3029 -0.2839
 1750SOL    HW2 5391   2.270   1.857   2.995 -1.5965 -0.4764 -0.8295
 1751SOL     OW 5392   2.939   0.056   0.928  0.0569  0.0342 -0.2353
 1751SOL    HW1 5393   2.990   0.006   0.992  1.4157 -1.3252 -2.2785
 1751SOL    HW2 5394   2.986   0.139   0.919 -0.6365  0.6083  1.1047
 1752SOL     OW 5395   2.849   3.228   2.806  0.3187 -0.0207  0.6071
 1752SOL    HW1 5396   2.909   3.155   2.826 -0.5154 -2.0545 -3.3265
 1752SOL    HW2 5397   2.902   3.288   2.754 -0.3720 -0.7212 -0.9700
 1753SOL     OW 5398   0.715   1.832   3.177  0.2382 -0.2999 -0.2036
 1753SOL    HW1 5399   0.808   1.833   3.154 -0.1042 -1.5017 -1.7683
 1753SOL    HW2 5400   0.687   1.923   3.167  1.6014  0.4657  2.1005
 1754SOL     OW 5401   0.018   0.670   2.670  0.4025 -0.1393  0.1983
 1754SOL    HW1 5402  -0.070   0.671   2.707  0.4519 -1.5611  0.4350
 1754SOL    HW2 5403   0.064   0.742   2.713 -1.4333  2.6152 -2.0651
 1755SOL     OW 5404   2.024   2.216   0.169 -0.2509  0.0511 -0.2490
 1755SOL    HW1 5405   1.950   2.225   0.230 -1.4223 -1.7572 -1.3407
 1755SOL    HW2 5406   1.998   2.146   0.109  3.1666 -2.1162  0.5179
 1756SOL     OW 5407   3.177   2.649   3.127  0.4568  0.2521 -0.4399
 1756SOL    HW1 5408   3.088   2.612   3.120 -0.3452  2.4267 -3.3403
 1756SOL    HW2 5409   3.201   2.634   3.219 -2.5795 -1.1081  0.2707
 1757SOL     OW 5410   2.021   2.837   2.849  0.3521 -0.3099  0.1464
 1757SOL    HW1 5411   2.116   2.839   2.840  0.4157  2.8445  0.2255
 1757SOL    HW2 5412   1.988   2.856   2.761 -0.1956 -0.8192  0.2349
 1758SOL     OW 5413   1.440   2.258   0.106  0.6348  0.2342  0.7011
 1758SOL    HW1 5414   1.372   2.210   0.152 -0.3160 -0.9855 -1.8102
 1758SOL    HW2 5415   1.508   2.193   0.089  0.9348  0.6383  0.3233
 1759SOL     OW 5416   1.901   3.457   2.361 -0.5938 -0.2137 -0.0900
 1759SOL    HW1 5417   1.863   3.536   2.400  0.1549  0.1239 -0.0370
 1759SOL    HW2 5418   1.869   3.386   2.417 -3.1928 -0.2527 -1.4707
 1760SOL     OW 5419   2.741   3.599   0.195 -0.4838 -0.2343  0.0363
 1760SOL    HW1 5420   2.775   3.687   0.176  0.2008 -0.5180 -0.0971
 1760SOL    HW2 5421   2.724   3.561   0.108  0.6517 -0.7691  0.0244
 1761SOL     OW 5422   3.156   0.137   1.181 -0.1260 -0.1230 -0.4837
 1761SOL    HW1 5423   3.194   0.173   1.101  0.8199  0.2656  0.1260
 1761SOL    HW2 5424   3.221   0.156   1.249 -1.1085 -0.0737  0.4559
 1762SOL     OW 5425   1.142   0.031   1.764 -0.0045 -0.4876  0.0442
 1762SOL    HW1 5426   1.191   0.067   1.837 -0.3602 -1.1472  0.6187
 1762SOL    HW2 5427   1.095  -0.044   1.801 -1.3234  0.0288 -0.5122
 1763SOL     OW 5428   2.752   0.052   1.396 -0.3441 -0.5184 -0.1043
 1763SOL    HW1 5429   2.770   0.139   1.431  0.0172 -0.9603  0.8580
 1763SOL    HW2 5430   2.721   0.067   1.307  2.4969  0.4512 -1.0402
 1764SOL     OW 5431   3.236   1.084   0.326  0.3765  0.6094  0.4384
 1764SOL    HW1 5432   3.159   1.055   0.375 -0.0977  1.6676  0.3504
 1764SOL    HW2 5433   3.309   1.068   0.385 -0.0646  0.7975  1.0446
 1765NA      NA 5434   2.139   0.001   3.083 -0.1651 -0.6406  0.0888
 1766NA      NA 5435   1.321   2.437   3.726 -0.2220 -0.5044  0.2958
   3.73100   3.73100   3.73100
