Protein in water
 5434
    0ALA      N    1   2.286   1.938   2.809 -0.2333  0.3597 -0.3667
    0ALA     H1    2   2.372   1.990   2.837 -2.2197  2.1691  3.1647
    0ALA     H2    3   2.294   1.837   2.831 -0.9267  0.4744  0.4976
    0ALA     H3    4   2.209   1.975   2.869  0.3992  0.2199  0.5532
    0ALA     CA    5   2.238   1.976   2.674 -0.0403  0.1534 -0.1116
    0ALA     HA    6   2.240   2.083   2.665  2.0556  0.1755  0.0470
    0ALA     CB    7   2.343   1.931   2.564  0.3275 -0.0337 -0.1664
    0ALA    HB1    8   2.443   1.979   2.567  0.0608  0.5575 -0.6056
    0ALA    HB2    9   2.350   1.820   2.556  0.8951 -0.0195  0.0596
    0ALA    HB3   10   2.316   1.973   2.465 -1.5835 -0.2451  0.2347
    0ALA      C   11   2.097   1.932   2.655 -0.2109 -0.1076 -0.7786
    0ALA      O   12   2.010   1.974   2.733  0.1882  0.5029 -0.2332
    1TYR      N   13   2.073   1.853   2.550 -0.3424 -0.1626  0.0343
    1TYR     HN   14   2.143   1.845   2.480 -0.6870  0.2094 -0.3554
    1TYR     CA   15   1.940   1.795   2.528  0.2300  0.0605 -0.0552
    1TYR     HA   16   1.882   1.796   2.619  3.0606 -1.5389  1.9352
    1TYR     CB   17   1.883   1.884   2.413 -0.0816  0.2411 -0.6291
    1TYR    HB1   18   1.948   1.878   2.323 -1.0908 -1.9835 -1.2915
    1TYR    HB2   19   1.880   1.992   2.439 -2.1015 -0.2838  1.6502
    1TYR     CG   20   1.750   1.836   2.351  0.0266 -0.4532  0.6592
    1TYR    CD1   21   1.625   1.872   2.415 -0.3386  0.7566 -1.0726
    1TYR    HD1   22   1.628   1.933   2.504 -1.3728  2.6728 -2.2915
    1TYR    CE1   23   1.500   1.825   2.367 -0.6370 -0.8079 -0.6330
    1TYR    HE1   24   1.416   1.869   2.417  1.0041  0.0758  1.4714
    1TYR     CZ   25   1.496   1.759   2.247 -0.1185  0.2869  0.5329
    1TYR     OH   26   1.376   1.721   2.184 -0.1117 -0.0529 -0.2252
    1TYR     HH   27   1.394   1.664   2.110 -1.7175 -2.2671  0.9561
    1TYR    CD2   28   1.737   1.747   2.236 -0.0366  0.4005  0.4371
    1TYR    HD2   29   1.826   1.718   2.181  0.7392  1.7535  0.9384
    1TYR    CE2   30   1.614   1.719   2.181  0.6572  0.5165  0.5162
    1TYR    HE2   31   1.607   1.678   2.081 -0.0513 -0.2971  0.8860
    1TYR      C   32   1.940   1.642   2.492  0.1640 -0.2273 -0.3287
    1TYR      O   33   2.017   1.600   2.410  0.2236 -0.0554 -0.0999
    2ASP      N   34   1.853   1.561   2.543  0.2408 -0.6144 -0.1538
    2ASP     HN   35   1.794   1.596   2.616  1.5571 -2.0644  1.7127
    2ASP     CA   36   1.836   1.423   2.513  0.2683 -0.3743  0.6480
    2ASP     HA   37   1.931   1.386   2.476 -1.3922 -2.0251 -2.3656
    2ASP     CB   38   1.794   1.340   2.638 -0.1470 -0.3009  0.3135
    2ASP    HB1   39   1.700   1.375   2.684 -1.1454  0.5463 -2.1643
    2ASP    HB2   40   1.869   1.358   2.718 -0.8547 -0.3468  0.9896
    2ASP     CG   41   1.798   1.200   2.602  0.3346 -0.1180  0.5576
    2ASP    OD1   42   1.711   1.126   2.664  0.0782 -0.1537  0.2435
    2ASP    OD2   43   1.881   1.148   2.516  0.2391 -0.4530 -0.5332
    2ASP      C   44   1.724   1.410   2.405  0.4404  0.2815  1.1945
    2ASP      O   45   1.606   1.432   2.435 -0.0473  0.2521  0.6876
    3PRO      N   46   1.745   1.363   2.285 -0.3295 -0.3429 -0.2634
    3PRO     CD   47   1.883   1.363   2.224 -0.0250  0.2496 -0.6887
    3PRO    HD1   48   1.929   1.463   2.218 -2.6130  1.7045  1.5750
    3PRO    HD2   49   1.951   1.290   2.273 -1.2605  1.0424  2.4450
    3PRO     CA   50   1.631   1.360   2.189 -0.4665  0.5246  0.0395
    3PRO     HA   51   1.567   1.447   2.182 -1.0488  0.0625 -0.6761
    3PRO     CB   52   1.712   1.352   2.054 -0.3212 -0.7058  0.4832
    3PRO    HB1   53   1.723   1.455   2.015  2.3725 -0.6787  1.0678
    3PRO    HB2   54   1.660   1.283   1.984 -1.5141 -1.3062  1.9091
    3PRO     CG   55   1.854   1.310   2.086 -0.4522  0.1167  0.2911
    3PRO    HG1   56   1.935   1.336   2.015 -0.1321 -0.2828  0.4996
    3PRO    HG2   57   1.844   1.199   2.083 -1.9506  0.2526 -2.0494
    3PRO      C   58   1.547   1.235   2.200 -0.1731  0.4472  0.2670
    3PRO      O   59   1.430   1.235   2.158 -0.1163 -0.3323  0.0896
    4GLU      N   60   1.605   1.129   2.266  0.5892 -0.2845 -0.7766
    4GLU     HN   61   1.703   1.129   2.284  0.3657 -1.9990  0.6830
    4GLU     CA   62   1.530   1.003   2.309 -0.8453  0.1394 -0.1482
    4GLU     HA   63   1.487   0.966   2.217  1.3915  0.2605 -1.3299
    4GLU     CB   64   1.636   0.901   2.364 -1.4654 -1.0703  0.5688
    4GLU    HB1   65   1.686   0.958   2.445 -0.6123 -2.1099  0.8147
    4GLU    HB2   66   1.709   0.874   2.284 -0.2651 -3.6835  2.3598
    4GLU     CG   67   1.580   0.772   2.413 -0.9207 -0.4680  0.1207
    4GLU    HG1   68   1.535   0.720   2.326  0.7342 -0.2200 -0.9392
    4GLU    HG2   69   1.512   0.796   2.497 -0.8866 -1.0517  0.3232
    4GLU     CD   70   1.691   0.680   2.467  0.5303  0.0999 -0.4574
    4GLU    OE1   71   1.733   0.693   2.587 -0.3846 -1.1602  0.4715
    4GLU    OE2   72   1.715   0.575   2.412 -0.1511  0.0124 -0.0075
    4GLU      C   73   1.423   1.039   2.405  0.3572  0.2958  0.3402
    4GLU      O   74   1.305   1.014   2.377  0.1210 -0.0374 -0.2311
    5THR      N   75   1.455   1.089   2.523  0.1008  0.5410 -0.9779
    5THR     HN   76   1.548   1.116   2.545  0.7014  1.5832 -4.2348
    5THR     CA   77   1.350   1.129   2.620 -0.3626 -0.0988 -0.1766
    5THR     HA   78   1.271   1.057   2.601 -0.3041 -0.1037 -0.4068
    5THR     CB   79   1.388   1.139   2.771 -0.5478  0.6483 -0.4431
    5THR     HB   80   1.301   1.186   2.822 -0.5753  2.1160 -1.7652
    5THR    OG1   81   1.499   1.225   2.793  0.2557  0.2654  0.0420
    5THR    HG1   82   1.572   1.183   2.747  1.6616  1.6800  0.8678
    5THR    CG2   83   1.422   0.999   2.820  1.0137  0.9628  0.2543
    5THR   HG21   84   1.338   0.930   2.800  1.9195 -0.0067 -0.2874
    5THR   HG22   85   1.431   1.000   2.931 -0.3951 -0.7055  0.4300
    5THR   HG23   86   1.510   0.950   2.773 -0.8527 -1.8200 -0.5783
    5THR      C   87   1.293   1.262   2.587 -0.2920 -0.2761  0.6026
    5THR      O   88   1.181   1.289   2.629  0.3299  0.8166 -0.1845
    6GLY      N   89   1.367   1.353   2.528 -0.6362 -0.3191 -0.1735
    6GLY     HN   90   1.451   1.334   2.477  0.2751  0.0468  1.1444
    6GLY     CA   91   1.324   1.499   2.521 -0.1640 -0.1857  0.0398
    6GLY    HA1   92   1.217   1.504   2.525 -0.1157  0.9902  0.1171
    6GLY    HA2   93   1.363   1.539   2.429  1.1672  0.7566  0.9775
    6GLY      C   94   1.363   1.589   2.633  0.0061 -0.4707  0.9753
    6GLY      O   95   1.312   1.703   2.647 -0.1803  0.0160  0.2871
    7THR      N   96   1.448   1.543   2.722  0.4504  0.4287  0.7036
    7THR     HN   97   1.504   1.463   2.701 -0.6625 -0.4901  1.1447
    7THR     CA   98   1.495   1.610   2.842 -0.1645 -1.2674 -0.4905
    7THR     HA   99   1.411   1.665   2.882 -0.1245 -0.5849 -1.3110
    7THR     CB  100   1.546   1.518   2.949 -0.0341 -0.5441  0.0065
    7THR     HB  101   1.636   1.467   2.908 -1.4359 -2.1236 -1.2758
    7THR    OG1  102   1.444   1.421   2.997 -0.2348  0.5338  0.4457
    7THR    HG1  103   1.449   1.360   2.923  1.6768  0.6670  0.4224
    7THR    CG2  104   1.590   1.594   3.074  0.9547 -0.4277 -0.6462
    7THR   HG21  105   1.693   1.633   3.058  1.3452 -0.8434  0.7938
    7THR   HG22  106   1.597   1.520   3.156  1.6522  1.2895  0.9061
    7THR   HG23  107   1.508   1.667   3.096  0.6368 -0.8306 -0.4854
    7THR      C  108   1.603   1.713   2.810 -1.3413 -0.8691  0.5122
    7THR      O  109   1.710   1.675   2.762  0.3849  0.3616  0.0556
    8TRP      N  110   1.585   1.849   2.839  0.3557  0.0128 -0.1612
    8TRP     HN  111   1.502   1.885   2.882 -0.0505  1.1184 -1.7663
    8TRP     CA  112   1.705   1.933   2.847  0.2406 -0.0986  0.4869
    8TRP     HA  113   1.777   1.911   2.769  1.1091 -0.5785  1.4017
    8TRP     CB  114   1.663   2.091   2.837 -0.8061  0.3371  0.2521
    8TRP    HB1  115   1.756   2.149   2.852  0.0536 -1.0936  0.6480
    8TRP    HB2  116   1.596   2.120   2.921 -1.3912  0.9609 -0.4189
    8TRP     CG  117   1.587   2.129   2.707 -0.6402 -0.4269 -0.0354
    8TRP    CD1  118   1.452   2.118   2.677  0.4741  0.6363  0.2048
    8TRP    HD1  119   1.384   2.068   2.745 -0.1388  1.3475  0.1214
    8TRP    NE1  120   1.433   2.180   2.551  0.4726  0.4916 -0.4827
    8TRP    HE1  121   1.353   2.170   2.497 -2.1207 -0.3978  3.1762
    8TRP    CE2  122   1.551   2.228   2.507 -0.7401 -0.1561  0.0695
    8TRP    CD2  123   1.649   2.197   2.599 -0.0761 -0.4094 -0.1980
    8TRP    CE3  124   1.778   2.231   2.582 -0.1766  0.2848  0.2819
    8TRP    HE3  125   1.855   2.213   2.655 -0.1051  1.4128  0.5147
    8TRP    CZ3  126   1.811   2.305   2.462  0.0906 -0.2197  0.6143
    8TRP    HZ3  127   1.914   2.336   2.451 -0.5546  1.5720 -0.9300
    8TRP    CZ2  128   1.582   2.291   2.390  0.4811 -0.5435  0.0975
    8TRP    HZ2  129   1.503   2.314   2.321 -0.3302 -3.0173  0.0846
    8TRP    CH2  130   1.710   2.329   2.368 -0.3848 -0.3915 -0.5786
    8TRP    HH2  131   1.745   2.377   2.277  4.0318 -0.8701  0.6451
    8TRP      C  132   1.765   1.916   2.987  0.0298 -0.4670 -0.1013
    8TRP      O  133   1.702   1.910   3.094  0.2768  0.0715 -0.3470
    9TYR      N  134   1.897   1.909   2.989 -0.4267 -0.4828  0.0314
    9TYR     HN  135   1.942   1.933   2.903 -0.2465  2.1061  0.7509
    9TYR     CA  136   1.975   1.887   3.106  0.1809 -0.3626 -0.5242
    9TYR     HA  137   1.917   1.894   3.197  0.8054  1.4993 -0.2300
    9TYR     CB  138   2.067   1.769   3.086 -0.3265  0.2322  0.3006
    9TYR    HB1  139   2.143   1.765   3.167  0.0850  1.9653  0.0454
    9TYR    HB2  140   2.126   1.774   2.991  3.5809  0.3768  2.5150
    9TYR     CG  141   1.990   1.633   3.092  0.2678  0.7430 -0.2695
    9TYR    CD1  142   1.952   1.587   3.222 -0.4320  0.7628  0.3301
    9TYR    HD1  143   1.964   1.646   3.311 -0.0119 -0.0585  0.8300
    9TYR    CE1  144   1.891   1.459   3.230 -0.6916  0.0692  0.0547
    9TYR    HE1  145   1.865   1.419   3.327 -0.2032  0.1772  0.2355
    9TYR     CZ  146   1.867   1.379   3.121 -0.4796 -0.3071  0.3513
    9TYR     OH  147   1.776   1.268   3.142  0.3041  0.3091  0.0138
    9TYR     HH  148   1.770   1.220   3.059  0.7844  0.1984  0.0432
    9TYR    CD2  149   1.973   1.553   2.980 -0.2469  0.3623  0.0073
    9TYR    HD2  150   1.999   1.605   2.889 -1.2437  1.6740  0.4321
    9TYR    CE2  151   1.918   1.424   2.992  0.7908  0.1431 -0.1149
    9TYR    HE2  152   1.897   1.357   2.910  0.5303  0.6500 -0.4641
    9TYR      C  153   2.065   2.011   3.111 -0.3188 -0.3005  0.5574
    9TYR    OT1  154   2.076   2.086   3.214  0.0270 -0.3199 -0.0568
    9TYR    OT2  155   2.134   2.028   3.005 -0.3679 -0.1136 -0.2625
   10SOL     OW  156   1.377   0.679   0.375  0.0760  0.5135  0.0095
   10SOL    HW1  157   1.461   0.697   0.332 -0.7535 -0.7349 -2.3575
   10SOL    HW2  158   1.397   0.672   0.468  2.3270  1.6431 -0.3410
   11SOL     OW  159   2.105   2.236   1.158 -0.4788 -0.2104 -0.0950
   11SOL    HW1  160   2.165   2.166   1.184 -0.2322  0.0176 -0.0525
   11SOL    HW2  161   2.136   2.264   1.072 -0.2304  0.2418  0.1427
   12SOL     OW  162   0.019   3.107   2.888 -0.6215 -0.0325 -0.2443
   12SOL    HW1  163   0.077   3.090   2.813  3.4013  2.1952  2.0574
   12SOL    HW2  164  -0.014   3.020   2.913 -0.5172 -1.0617 -3.2681
   13SOL     OW  165   0.347   2.540   0.782 -0.1798  0.3622  0.7932
   13SOL    HW1  166   0.372   2.593   0.706 -1.8817  1.8696  1.2057
   13SOL    HW2  167   0.304   2.463   0.745  1.3888 -0.2736  0.2070
   14SOL     OW  168   1.643   0.050   0.814  0.4365 -0.5743 -0.5139
   14SOL    HW1  169   1.570   0.092   0.858 -0.5562 -1.7551 -0.9576
   14SOL    HW2  170   1.608   0.026   0.728  2.3810  1.8878 -2.1171
   15SOL     OW  171   2.321   1.447   0.479 -0.7090  0.3854 -0.1989
   15SOL    HW1  172   2.278   1.515   0.532 -1.2573  1.3126 -1.7648
   15SOL    HW2  173   2.410   1.479   0.467 -0.2068 -0.4308  1.1507
   16SOL     OW  174   2.657   0.048   1.200 -0.1275 -0.6518 -0.2839
   16SOL    HW1  175   2.572   0.091   1.202  0.1494 -0.0427 -1.0990
   16SOL    HW2  176   2.720   0.118   1.217  0.2590 -0.9546 -0.4291
   17SOL     OW  177   0.792   1.159   0.098  0.1175 -0.0287  0.6145
   17SOL    HW1  178   0.791   1.098   0.173  0.3051 -1.0173 -0.1616
   17SOL    HW2  179   0.731   1.228   0.123  0.6870  0.0335  1.9753
   18SOL     OW  180   2.684   2.413   2.378 -0.2531  0.2362  0.1788
   18SOL    HW1  181   2.642   2.486   2.331 -0.8045 -0.9274 -1.2015
   18SOL    HW2  182   2.766   2.400   2.331 -0.1583 -0.0418  0.4256
   19SOL     OW  183   0.824   3.615   0.469 -0.0621 -0.7261 -0.2962
   19SOL    HW1  184   0.773   3.656   0.538 -0.1277 -1.1913 -0.0609
   19SOL    HW2  185   0.899   3.575   0.515  0.2088 -0.5270 -0.5665
   20SOL     OW  186   1.348   1.346   3.732 -0.0365  0.1748  0.2735
   20SOL    HW1  187   1.350   1.314   3.642  0.6880 -1.7362  0.9078
   20SOL    HW2  188   1.346   1.441   3.724 -2.7338  0.0781 -1.7798
   21SOL     OW  189   2.242   3.482   0.035 -0.9261  1.2446 -0.2921
   21SOL    HW1  190   2.245   3.551   0.101  1.1618  1.7138 -0.7961
   21SOL    HW2  191   2.165   3.430   0.058 -0.3185  1.4018  2.4964
   22SOL     OW  192   0.848   1.892   0.035 -0.2042  0.2072  0.0614
   22SOL    HW1  193   0.941   1.915   0.032 -0.5315  1.5902 -2.3150
   22SOL    HW2  194   0.847   1.797   0.042  1.3557  0.2404  1.2675
   23SOL     OW  195   3.107   3.648   1.723  0.0427  0.2402 -0.3297
   23SOL    HW1  196   3.047   3.614   1.657 -2.7870  3.4548  0.3494
   23SOL    HW2  197   3.107   3.582   1.793 -1.0422 -0.7791 -1.2719
   24SOL     OW  198   0.839   0.978   3.441 -0.2629 -0.0764 -0.2370
   24SOL    HW1  199   0.867   1.070   3.446 -3.6020  1.0507  0.3107
   24SOL    HW2  200   0.782   0.975   3.364 -1.0260 -1.4222  0.3540
   25SOL     OW  201   2.627   0.219   1.773  0.0020 -0.2974 -0.0768
   25SOL    HW1  202   2.586   0.300   1.744  0.8631  0.3866  0.5785
   25SOL    HW2  203   2.651   0.235   1.864  2.4912 -0.3228 -0.6564
   26SOL     OW  204   3.355   3.530   2.519  0.5374  0.1915  0.2494
   26SOL    HW1  205   3.369   3.538   2.613  2.3207 -2.7729  0.3816
   26SOL    HW2  206   3.443   3.519   2.482 -0.0217  2.2459 -1.9597
   27SOL     OW  207   3.057   2.653   3.532 -0.2669  0.3130  0.6448
   27SOL    HW1  208   3.017   2.680   3.449 -2.5180 -0.2398  1.4744
   27SOL    HW2  209   3.054   2.732   3.586 -0.3480  0.2504  0.7328
   28SOL     OW  210   1.549   0.703   1.228 -0.6337 -0.5974 -0.0053
   28SOL    HW1  211   1.545   0.620   1.275 -0.8708 -0.1723  0.7451
   28SOL    HW2  212   1.642   0.726   1.227 -0.7480  0.0812  1.5313
   29SOL     OW  213   0.329   2.007   1.333 -0.2621  0.1731 -0.6756
   29SOL    HW1  214   0.256   2.037   1.389 -3.2844 -2.4993 -2.8194
   29SOL    HW2  215   0.316   2.053   1.250  1.5535  0.8518 -0.6224
   30SOL     OW  216   3.525   2.370   0.199  0.1755  0.3985  0.1085
   30SOL    HW1  217   3.612   2.407   0.216 -0.1288  0.8028  0.8165
   30SOL    HW2  218   3.543   2.287   0.155  0.9001  0.8108 -0.4086
   31SOL     OW  219   1.657   0.530   1.708  0.0993  0.4206  0.2040
   31SOL    HW1  220   1.600   0.464   1.749 -0.9931  0.8445 -0.5916
   31SOL    HW2  221   1.715   0.559   1.779  1.2155 -1.9948  0.3722
   32SOL     OW  222   1.606   1.728   3.504  0.7584 -0.0458  0.4505
   32SOL    HW1  223   1.524   1.729   3.456  2.1019  0.1178 -1.9788
   32SOL    HW2  224   1.631   1.636   3.506  0.2962 -0.1640  1.6636
   33SOL     OW  225   2.218   2.249   0.927 -0.7657  0.2021 -0.0714
   33SOL    HW1  226   2.270   2.329   0.924 -1.3958  0.6343  0.4442
   33SOL    HW2  227   2.143   2.267   0.871 -0.9579  0.0005  0.1216
   34SOL     OW  228   3.715   3.744   1.526 -0.0985 -0.1174 -0.0476
   34SOL    HW1  229   3.660   3.751   1.448  0.3715  1.0563 -0.3037
   34SOL    HW2  230   3.692   3.660   1.565  0.4574 -1.2805 -2.0762
   35SOL     OW  231   3.538   2.163   1.111  0.7671 -0.6506  0.7911
   35SOL    HW1  232   3.542   2.137   1.203  1.2254 -0.9488  0.6947
   35SOL    HW2  233   3.603   2.106   1.068  1.8244  0.6777  0.5777
   36SOL     OW  234   2.243   0.035   2.572  0.4368 -0.3741  0.0640
   36SOL    HW1  235   2.173   0.098   2.550  1.8821  1.0295 -0.7882
   36SOL    HW2  236   2.300   0.083   2.632 -0.7043 -2.4385  2.9718
   37SOL     OW  237   1.115   1.362   3.517  0.0037  0.4896  0.7245
   37SOL    HW1  238   1.076   1.318   3.592  1.6827 -0.8196  0.8970
   37SOL    HW2  239   1.153   1.292   3.464 -1.8450  1.2651 -1.8749
   38SOL     OW  240   3.263   2.340   1.910  0.1044 -0.4273  1.1216
   38SOL    HW1  241   3.259   2.247   1.933  0.3977 -0.7347 -0.0085
   38SOL    HW2  242   3.272   2.341   1.814  1.5642  0.7315  1.2337
   39SOL     OW  243   0.496   2.229   0.725  0.3112 -0.1114 -0.1908
   39SOL    HW1  244   0.569   2.172   0.747  0.7331 -0.0546 -1.3750
   39SOL    HW2  245   0.530   2.317   0.738 -0.7237 -0.0484  2.8726
   40SOL     OW  246   1.647   1.897   1.808 -0.0159 -0.0850 -0.0713
   40SOL    HW1  247   1.713   1.843   1.850  0.6210 -0.0901 -1.0482
   40SOL    HW2  248   1.573   1.838   1.792  0.1507 -0.3354  0.0860
   41SOL     OW  249   3.010   2.694   2.571 -0.4461 -0.7630 -0.0563
   41SOL    HW1  250   3.039   2.648   2.493  1.2656  0.4080 -0.1669
   41SOL    HW2  251   2.962   2.770   2.537  1.2740  0.3728 -0.0535
   42SOL     OW  252   1.979   1.003   3.218 -0.7386 -0.2403  0.1280
   42SOL    HW1  253   2.030   0.961   3.288 -0.4579  0.9941  0.6930
   42SOL    HW2  254   2.005   0.957   3.138  1.8371  0.8313  0.2884
   43SOL     OW  255   2.426   2.542   2.731  0.1918 -0.1598 -0.3056
   43SOL    HW1  256   2.419   2.460   2.682 -1.0279  0.9405 -2.0851
   43SOL    HW2  257   2.477   2.519   2.809 -2.9106 -3.4057  1.0824
   44SOL     OW  258   3.414   1.790   0.471  0.0897  0.5475 -0.1869
   44SOL    HW1  259   3.393   1.835   0.390 -1.3155  1.4856  0.6659
   44SOL    HW2  260   3.477   1.846   0.515 -1.4488  1.6329  0.7441
   45SOL     OW  261   1.302   3.407   3.643 -0.1320  0.2700  0.1775
   45SOL    HW1  262   1.236   3.415   3.574  2.8769 -1.4535 -3.2523
   45SOL    HW2  263   1.320   3.497   3.669 -0.5081  1.1585 -2.3403
   46SOL     OW  264   0.467   2.276   0.450  0.6892 -0.6607 -0.3054
   46SOL    HW1  265   0.450   2.194   0.497  1.4221 -0.4989  0.2525
   46SOL    HW2  266   0.523   2.327   0.509 -2.0319  1.4769  0.5996
   47SOL     OW  267   2.872   0.044   2.934 -0.1600  0.5554  0.2977
   47SOL    HW1  268   2.884   0.026   3.027  2.4488 -0.8386 -0.1997
   47SOL    HW2  269   2.792  -0.003   2.910 -0.1405 -0.1722  1.5856
   48SOL     OW  270   0.440   3.394   0.576  0.1376  0.3891  0.1370
   48SOL    HW1  271   0.403   3.310   0.550  0.4256  0.3825 -0.2522
   48SOL    HW2  272   0.534   3.378   0.582  0.2305  0.7739 -0.2809
   49SOL     OW  273   3.526   3.261   1.621  0.9769 -0.4233 -0.0681
   49SOL    HW1  274   3.460   3.226   1.681  2.3544  1.1192  2.5453
   49SOL    HW2  275   3.591   3.191   1.613  0.1245 -1.1384 -0.8921
   50SOL     OW  276   1.074   0.461   2.646 -0.1095  0.2541 -0.3189
   50SOL    HW1  277   1.153   0.469   2.593  0.4807  1.7567  0.7214
   50SOL    HW2  278   1.090   0.384   2.701  1.4532  1.5367  1.1298
   51SOL     OW  279   3.410   0.286   0.592  0.1458 -0.0319  0.3421
   51SOL    HW1  280   3.343   0.225   0.560 -0.3205 -0.4773  2.0790
   51SOL    HW2  281   3.419   0.266   0.685  3.1106 -0.3384  0.0836
   52SOL     OW  282   0.883   1.813   2.218  0.3568  0.0455  0.2781
   52SOL    HW1  283   0.917   1.787   2.304  0.0577 -1.8909 -0.1306
   52SOL    HW2  284   0.961   1.838   2.168  0.6471  0.2182  0.8065
   53SOL     OW  285  -0.012   0.610   1.528 -0.1093 -0.1280  0.2137
   53SOL    HW1  286   0.038   0.602   1.447 -0.6256 -0.4581 -0.0771
   53SOL    HW2  287  -0.007   0.524   1.568 -0.6850 -0.2530  0.0333
   54SOL     OW  288   2.066   0.130   0.710 -0.6507 -0.8485 -0.4672
   54SOL    HW1  289   2.086   0.051   0.660 -1.1624 -0.7718 -0.7979
   54SOL    HW2  290   1.978   0.115   0.745 -0.7368 -0.4433 -0.5032
   55SOL     OW  291   2.248   2.283   0.230 -0.0333 -0.2422  0.2406
   55SOL    HW1  292   2.342   2.281   0.247 -0.0490 -0.8280  0.2711
   55SOL    HW2  293   2.241   2.270   0.135 -0.0681  0.1789  0.1845
   56SOL     OW  294   1.836   2.231   3.673  0.0102 -0.0524 -0.0541
   56SOL    HW1  295   1.819   2.325   3.684  0.3764  0.1202 -0.9447
   56SOL    HW2  296   1.848   2.219   3.579  1.4640 -0.7388  0.1911
   57SOL     OW  297   3.305   2.303   1.559 -0.4035  0.1850 -0.5875
   57SOL    HW1  298   3.266   2.252   1.488 -2.4314  1.2487 -0.3111
   57SOL    HW2  299   3.232   2.355   1.594  0.9990  1.2414  0.9037
   58SOL     OW  300   0.176   1.194   3.658 -0.3156 -0.0012  0.5038
   58SOL    HW1  301   0.224   1.250   3.597 -1.0180 -0.3578 -0.4046
   58SOL    HW2  302   0.118   1.254   3.705 -1.2027  0.0455 -0.5983
   59SOL     OW  303   1.688   2.050   1.109 -1.0020  0.4188  0.0657
   59SOL    HW1  304   1.663   1.958   1.104 -2.0179  0.7387 -1.1144
   59SOL    HW2  305   1.771   2.049   1.158 -0.2608 -1.2610 -1.1254
   60SOL     OW  306   1.287   0.383   3.269  0.1673 -0.0036 -0.0200
   60SOL    HW1  307   1.286   0.391   3.173  1.4669  0.0028 -0.0402
   60SOL    HW2  308   1.356   0.443   3.297 -1.1548  1.0982  1.0489
   61SOL     OW  309   3.160   1.576   1.292  0.7539  0.1153  0.4923
   61SOL    HW1  310   3.228   1.643   1.300  2.1423 -1.1860  0.0325
   61SOL    HW2  311   3.117   1.596   1.209  2.4533 -0.6461 -0.6317
   62SOL     OW  312   3.369   0.483   1.004 -0.4867  0.0451  0.3092
   62SOL    HW1  313   3.339   0.562   1.050  0.2880 -0.4711  1.7506
   62SOL    HW2  314   3.330   0.491   0.917 -1.2787  1.5018  0.7495
   63SOL     OW  315   1.474   2.836   3.390  0.0660 -0.9680  0.5636
   63SOL    HW1  316   1.493   2.807   3.300 -0.6883 -0.0782  0.0974
   63SOL    HW2  317   1.526   2.916   3.400  0.3599 -1.2160  1.0217
   64SOL     OW  318   2.511   2.168   0.261 -0.2406  0.2601 -0.9928
   64SOL    HW1  319   2.557   2.167   0.177  0.0553  0.4843 -0.8358
   64SOL    HW2  320   2.476   2.080   0.270  2.4446 -0.8011  0.1126
   65SOL     OW  321   2.895   2.169   0.796 -0.5904 -0.4377 -0.5645
   65SOL    HW1  322   2.857   2.208   0.874  0.0051 -0.8694 -0.0423
   65SOL    HW2  323   2.952   2.099   0.830 -2.1455 -2.2446 -1.4755
   66SOL     OW  324   0.416   1.669   0.906  0.6489 -0.0264 -0.2509
   66SOL    HW1  325   0.348   1.649   0.841  1.4796 -1.9067 -0.6120
   66SOL    HW2  326   0.400   1.607   0.977  0.2771  1.4434  1.0051
   67SOL     OW  327   1.232   2.342   2.181  0.4675 -0.6107 -0.4871
   67SOL    HW1  328   1.225   2.267   2.123  2.3928  0.7761 -2.6874
   67SOL    HW2  329   1.284   2.406   2.132  0.4118  1.4917  1.9639
   68SOL     OW  330   3.432   2.329   3.394  0.2656 -0.9321 -0.1532
   68SOL    HW1  331   3.455   2.255   3.338  1.8599  1.1840 -2.5412
   68SOL    HW2  332   3.390   2.392   3.335  0.1363  0.5994  1.4737
   69SOL     OW  333   0.015   1.341   0.837  0.4033 -0.3211 -0.2819
   69SOL    HW1  334   0.054   1.278   0.777  1.9170  0.6354 -0.3357
   69SOL    HW2  335   0.018   1.296   0.922 -0.5826 -1.1736 -0.6713
   70SOL     OW  336   1.830   0.480   2.703 -0.5107 -0.4965  0.3043
   70SOL    HW1  337   1.790   0.561   2.674 -2.9616 -0.4959  3.2027
   70SOL    HW2  338   1.770   0.411   2.674  0.8627 -1.2096 -0.9815
   71SOL     OW  339   1.147   3.359   0.436 -0.5883 -0.5591 -0.4509
   71SOL    HW1  340   1.101   3.349   0.519  0.4870 -0.7084  0.1471
   71SOL    HW2  341   1.235   3.326   0.453 -0.2909 -0.4122 -1.5990
   72SOL     OW  342   1.115   1.960   0.030  0.0261 -0.3598 -0.3759
   72SOL    HW1  343   1.190   1.941  -0.026 -1.2899  0.8862 -2.6920
   72SOL    HW2  344   1.115   2.056   0.038 -0.0933 -0.4747  1.4192
   73SOL     OW  345   2.916   0.676   2.676  0.8395 -0.3017 -0.1878
   73SOL    HW1  346   2.889   0.745   2.615  1.1654  0.3344  0.3730
   73SOL    HW2  347   2.835   0.633   2.702  0.3107  1.5414  1.4374
   74SOL     OW  348   0.732   3.653   0.744 -0.0359 -0.4431 -0.8459
   74SOL    HW1  349   0.780   3.664   0.827  1.2664  1.7079 -1.8057
   74SOL    HW2  350   0.642   3.678   0.765  0.3724  0.5165 -0.1460
   75SOL     OW  351   2.238   2.802   0.126  1.1272  0.1878 -0.8062
   75SOL    HW1  352   2.283   2.763   0.201  1.5854  3.5019  0.8136
   75SOL    HW2  353   2.308   2.824   0.065  0.7507 -2.5557 -2.3779
   76SOL     OW  354   0.826   2.278   1.135 -0.0819 -0.5113 -0.1540
   76SOL    HW1  355   0.845   2.239   1.050 -1.9789  0.0374 -0.8822
   76SOL    HW2  356   0.733   2.261   1.150  0.4714 -1.8546  2.5192
   77SOL     OW  357   3.445   1.940   3.061  0.3226  0.0590  0.7282
   77SOL    HW1  358   3.424   1.866   3.118  0.9891 -0.1319  0.7367
   77SOL    HW2  359   3.505   1.904   2.996  0.4885  0.5449  0.6082
   78SOL     OW  360   3.053   0.081   1.222 -0.2108  0.3825 -0.1610
   78SOL    HW1  361   3.016   0.136   1.152  0.5787  0.0283 -0.8644
   78SOL    HW2  362   3.055  -0.007   1.185  1.1358  0.3546 -0.0723
   79SOL     OW  363   3.461   2.877   1.670  0.4636 -0.2192 -0.3666
   79SOL    HW1  364   3.543   2.844   1.635  0.1500 -0.7470 -0.6256
   79SOL    HW2  365   3.459   2.845   1.761  0.0398 -1.1659 -0.6947
   80SOL     OW  366   3.272   0.022   0.064 -0.4419 -0.6517  0.5316
   80SOL    HW1  367   3.310   0.036  -0.023 -0.8030  0.1259  0.4898
   80SOL    HW2  368   3.201  -0.040   0.050 -1.7768  0.9540 -0.0810
   81SOL     OW  369   0.791   0.630   1.883  0.0031  0.6846  0.7782
   81SOL    HW1  370   0.818   0.569   1.951  0.5202  0.9723  0.8345
   81SOL    HW2  371   0.863   0.692   1.876  1.3305 -1.0233 -2.1119
   82SOL     OW  372   0.748   3.442   2.717  0.1906 -0.1372  0.2154
   82SOL    HW1  373   0.689   3.392   2.774  0.6031 -0.2102  0.5799
   82SOL    HW2  374   0.816   3.475   2.776  0.2653  0.3324 -0.1281
   83SOL     OW  375   1.186   2.237   0.985 -0.5754 -0.3901  0.0601
   83SOL    HW1  376   1.255   2.185   1.025  0.4849  1.2583  0.5013
   83SOL    HW2  377   1.136   2.175   0.933  0.5154 -1.8521  0.6784
   84SOL     OW  378   0.723   2.186   2.674  0.0304 -0.4569 -0.5833
   84SOL    HW1  379   0.794   2.179   2.610 -0.3422 -1.1143 -0.9450
   84SOL    HW2  380   0.746   2.121   2.741  0.1743 -0.1079 -0.2928
   85SOL     OW  381   2.265   3.670   0.656  0.4078  0.2128  0.5832
   85SOL    HW1  382   2.340   3.664   0.596 -0.2659  2.1210 -0.5144
   85SOL    HW2  383   2.305   3.676   0.743  1.4387 -1.1495  0.2442
   86SOL     OW  384   1.031   0.197   1.158 -0.4326 -0.8751  0.4062
   86SOL    HW1  385   1.042   0.155   1.072  1.2931 -1.3473  0.8224
   86SOL    HW2  386   0.997   0.128   1.214 -0.5463 -0.8666  0.3470
   87SOL     OW  387   2.111   0.747   0.330 -0.1633  0.3144 -0.0268
   87SOL    HW1  388   2.134   0.777   0.418 -1.9913 -0.5570  0.8188
   87SOL    HW2  389   2.090   0.827   0.282 -0.7882  0.7020  0.8642
   88SOL     OW  390   1.849   0.890   2.716 -0.1817  0.0499 -0.0475
   88SOL    HW1  391   1.796   0.833   2.661 -1.2059  1.1854 -0.2790
   88SOL    HW2  392   1.818   0.978   2.697  1.8654  0.7873 -0.2569
   89SOL     OW  393   2.447   2.284   1.778 -0.3420  0.0263 -0.5914
   89SOL    HW1  394   2.420   2.208   1.830  0.2084  1.2181  1.5515
   89SOL    HW2  395   2.414   2.359   1.827  0.7623  1.2444 -1.6625
   90SOL     OW  396   3.033   1.064   1.275 -0.0091  0.3209 -0.1214
   90SOL    HW1  397   3.078   1.016   1.345  0.0073 -0.9073 -0.9371
   90SOL    HW2  398   3.092   1.057   1.200 -1.0139 -0.2713 -0.8733
   91SOL     OW  399   1.795   2.649   3.272 -1.1622 -0.3871 -0.8985
   91SOL    HW1  400   1.825   2.566   3.311 -0.5963  0.3196  0.2257
   91SOL    HW2  401   1.700   2.639   3.264 -1.1408 -1.0214 -0.4690
   92SOL     OW  402   0.789   2.971   1.286 -0.5283  0.8756  0.3735
   92SOL    HW1  403   0.745   2.919   1.353 -0.0639 -0.8409 -0.5797
   92SOL    HW2  404   0.879   2.936   1.284 -0.9804 -0.4157 -2.3013
   93SOL     OW  405   0.678   3.405   0.728  0.2784  0.0997  0.2669
   93SOL    HW1  406   0.716   3.493   0.725  1.5766 -0.4133  0.9064
   93SOL    HW2  407   0.595   3.417   0.774  0.6197  0.9325  0.6919
   94SOL     OW  408   0.772   2.058   0.684  0.0841  0.3781  0.4492
   94SOL    HW1  409   0.746   1.971   0.712 -1.0309  0.2488 -0.8616
   94SOL    HW2  410   0.832   2.043   0.611 -1.1423  0.6765 -0.6532
   95SOL     OW  411   2.128   3.694   2.915  0.0088  0.2824  0.1844
   95SOL    HW1  412   2.209   3.740   2.937 -1.1933  2.7504 -0.2148
   95SOL    HW2  413   2.067   3.720   2.983 -1.0450  0.1697 -0.6986
   96SOL     OW  414   3.186   0.328   0.769 -0.0302 -0.3430 -0.7174
   96SOL    HW1  415   3.226   0.408   0.736  1.5294 -0.3334  1.0270
   96SOL    HW2  416   3.108   0.315   0.714  1.2266  0.7909 -2.8827
   97SOL     OW  417   2.097   2.335   3.278  0.0609  0.3470 -0.1716
   97SOL    HW1  418   2.014   2.345   3.326 -0.1824  0.1287 -0.5388
   97SOL    HW2  419   2.102   2.242   3.259  0.2393  0.4096 -0.4280
   98SOL     OW  420   2.905   3.578   3.466  0.1442 -0.1577 -0.0436
   98SOL    HW1  421   2.837   3.511   3.478 -0.3800 -0.0718 -2.1328
   98SOL    HW2  422   2.967   3.539   3.404  1.2391  0.3168  0.7280
   99SOL     OW  423   1.593   3.038   3.154 -0.1644 -0.7422  0.0593
   99SOL    HW1  424   1.623   2.949   3.136 -0.8081 -0.9793  0.1340
   99SOL    HW2  425   1.503   3.040   3.121 -0.1169 -0.0828 -0.0482
  100SOL     OW  426   3.355   1.175   3.213 -0.0468  0.1559  0.1248
  100SOL    HW1  427   3.312   1.160   3.129 -1.6350 -1.6195  1.1654
  100SOL    HW2  428   3.339   1.095   3.263  3.8492 -0.3429  0.9376
  101SOL     OW  429   1.752   2.515   1.859  0.0467  0.0332 -0.0088
  101SOL    HW1  430   1.804   2.445   1.899  3.1946  2.4162  0.3917
  101SOL    HW2  431   1.721   2.566   1.933 -0.6307  0.1543 -0.3731
  102SOL     OW  432   2.769   3.562   1.307 -0.2552 -0.3417  0.6569
  102SOL    HW1  433   2.730   3.634   1.257 -1.5041 -0.8093  0.9106
  102SOL    HW2  434   2.780   3.492   1.242  2.0997  0.4232  0.1292
  103SOL     OW  435   2.938   3.637   1.503 -0.2772 -0.2021  0.7295
  103SOL    HW1  436   2.876   3.628   1.431 -0.1253  0.8401  0.4541
  103SOL    HW2  437   2.886   3.674   1.574 -0.2032 -0.2885  0.8279
  104SOL     OW  438   1.092   0.137   0.660 -0.5793  0.0142  0.6496
  104SOL    HW1  439   1.063   0.180   0.579  1.9206  0.2099 -0.2360
  104SOL    HW2  440   1.086   0.043   0.640  1.3934  0.0574 -0.3687
  105SOL     OW  441   0.045   1.534   3.224  0.0950  0.0648 -0.1587
  105SOL    HW1  442   0.041   1.627   3.201  1.1429  0.1021 -0.2450
  105SOL    HW2  443   0.071   1.533   3.316  0.2992 -0.1427 -0.2180
  106SOL     OW  444   2.078   2.316   2.963  0.1084  0.1716  0.2030
  106SOL    HW1  445   2.069   2.226   2.993 -0.6345 -0.6017 -2.0658
  106SOL    HW2  446   2.169   2.339   2.979  0.8812 -1.7743 -1.0937
  107SOL     OW  447   2.928   1.840   2.430  0.0345  0.1799  0.6196
  107SOL    HW1  448   2.849   1.812   2.477 -0.1686  0.9391  0.7450
  107SOL    HW2  449   2.936   1.778   2.357 -0.7778  0.2000  0.5058
  108SOL     OW  450   2.509   1.588   0.229  0.2894  0.2704  0.3181
  108SOL    HW1  451   2.478   1.505   0.194  0.0308  0.8909 -0.9807
  108SOL    HW2  452   2.540   1.567   0.317 -2.1284 -0.7423  1.0333
  109SOL     OW  453   3.510   2.906   0.915 -0.2176  0.1035 -0.0993
  109SOL    HW1  454   3.571   2.871   0.980  0.3264 -1.4996 -1.3922
  109SOL    HW2  455   3.541   2.995   0.897  0.5845 -0.0144  0.6516
  110SOL     OW  456   0.834   3.682   1.784  0.4361 -0.3914  0.2790
  110SOL    HW1  457   0.813   3.771   1.756  0.3675 -0.2295  0.8242
  110SOL    HW2  458   0.751   3.646   1.813  0.7095 -0.0698  1.5622
  111SOL     OW  459   3.066   3.438   0.235 -0.2555 -0.0496  0.0525
  111SOL    HW1  460   3.078   3.367   0.298 -0.3610 -0.0604  0.0610
  111SOL    HW2  461   3.066   3.393   0.150 -0.6516 -0.1016  0.0768
  112SOL     OW  462   2.841   3.610   2.043  0.0806  0.0449  0.5674
  112SOL    HW1  463   2.835   3.557   2.123 -0.6381 -0.0147  0.4781
  112SOL    HW2  464   2.767   3.582   1.989  0.6886 -0.0791 -0.2273
  113SOL     OW  465   2.150   3.418   1.665  0.0264 -0.7093 -0.1217
  113SOL    HW1  466   2.227   3.473   1.648  0.0484 -1.1621 -1.6333
  113SOL    HW2  467   2.151   3.353   1.595 -2.8902  0.5284 -1.4665
  114SOL     OW  468   0.060   2.735   0.933 -0.3738 -0.4434  0.1205
  114SOL    HW1  469   0.003   2.686   0.874 -0.6128 -0.4142  0.3252
  114SOL    HW2  470   0.122   2.779   0.875 -0.5054 -0.5443 -0.0991
  115SOL     OW  471   3.636   0.771   2.497  0.4114 -0.0398 -0.3460
  115SOL    HW1  472   3.550   0.760   2.456 -0.2461 -0.4196  1.0699
  115SOL    HW2  473   3.698   0.755   2.426 -0.6690  0.9028 -1.5647
  116SOL     OW  474   3.546   1.163   1.779  0.3130 -0.0055  0.1669
  116SOL    HW1  475   3.466   1.111   1.773  0.0728  0.4257 -0.5857
  116SOL    HW2  476   3.555   1.182   1.872 -0.7411  0.3366  0.2226
  117SOL     OW  477   2.366   1.526   2.004  0.5486 -0.3019  0.1351
  117SOL    HW1  478   2.347   1.456   2.067 -0.4518 -1.0845 -0.9855
  117SOL    HW2  479   2.427   1.487   1.943  0.1901 -0.1072 -0.3514
  118SOL     OW  480   0.232   0.326   1.050 -0.3903 -0.1381 -0.0717
  118SOL    HW1  481   0.218   0.239   1.012  1.0855 -0.9693  1.1643
  118SOL    HW2  482   0.311   0.358   1.008 -0.5980  0.3690 -0.0839
  119SOL     OW  483   2.509   3.649   3.707 -0.5778  0.2276  0.0002
  119SOL    HW1  484   2.565   3.631   3.632  0.1905  0.2836  0.5426
  119SOL    HW2  485   2.459   3.568   3.719 -0.4427  0.0889 -0.3512
  120SOL     OW  486   0.524   2.983   2.826 -0.3971  0.3895 -0.0139
  120SOL    HW1  487   0.432   2.983   2.853 -0.6689 -2.0051 -0.7239
  120SOL    HW2  488   0.521   3.013   2.735 -0.3952  0.7577  0.1031
  121SOL     OW  489   0.693   3.712   2.069  0.0758 -0.0783  0.2302
  121SOL    HW1  490   0.776   3.674   2.100 -0.3987 -0.4839  1.0253
  121SOL    HW2  491   0.630   3.641   2.077 -0.1330 -0.1089 -1.4219
  122SOL     OW  492   1.892   2.798   3.018  0.5326 -0.1435 -0.4298
  122SOL    HW1  493   1.935   2.717   3.044  1.3904  0.3115 -0.4216
  122SOL    HW2  494   1.912   2.860   3.089 -3.1478 -0.8545  1.5318
  123SOL     OW  495   2.848   1.038   0.964 -0.1550  1.0801  0.0866
  123SOL    HW1  496   2.758   1.048   0.993  0.1783  0.1115  1.6218
  123SOL    HW2  497   2.900   1.082   1.031  0.6034 -0.2423  0.4177
  124SOL     OW  498   1.646   1.000   1.132  0.0810  0.3634 -0.9238
  124SOL    HW1  499   1.562   0.970   1.100  0.2077  0.4148 -1.3085
  124SOL    HW2  500   1.702   0.922   1.132 -0.0267  0.2812 -0.4544
  125SOL     OW  501   0.659   0.029   1.123 -0.2382 -0.1539 -0.7099
  125SOL    HW1  502   0.607   0.032   1.204  0.9811  0.0762  0.0833
  125SOL    HW2  503   0.749   0.016   1.152  0.5606  2.1338 -1.8810
  126SOL     OW  504   3.196   1.357   0.382  0.0587 -1.1863 -0.3252
  126SOL    HW1  505   3.241   1.378   0.463  2.2694  0.6675 -1.8852
  126SOL    HW2  506   3.248   1.286   0.344  0.3086 -0.6398 -1.0350
  127SOL     OW  507   2.731   1.969   0.673  0.6144  0.0442 -0.1706
  127SOL    HW1  508   2.816   1.996   0.638  0.8072 -1.9002 -1.3988
  127SOL    HW2  509   2.686   2.050   0.694  2.4340  1.1453 -0.3212
  128SOL     OW  510   1.574   2.493   0.816  0.1518  0.2026  1.0606
  128SOL    HW1  511   1.614   2.419   0.861  1.3261 -0.3162 -0.7519
  128SOL    HW2  512   1.480   2.481   0.827  0.3641 -0.9627  1.6795
  129SOL     OW  513   1.748   3.480   0.107 -0.2289  0.2260 -0.2886
  129SOL    HW1  514   1.665   3.441   0.082 -0.1221  0.6421 -1.3422
  129SOL    HW2  515   1.743   3.570   0.075  0.6078  0.2687 -0.3162
  130SOL     OW  516   3.451   0.985   0.967 -0.6259  0.5513  0.1208
  130SOL    HW1  517   3.528   1.038   0.987  0.0419 -1.4711  3.8063
  130SOL    HW2  518   3.483   0.919   0.906  0.1134  0.8138  0.2139
  131SOL     OW  519   2.199   2.864   0.919  0.9804  0.0951  0.7393
  131SOL    HW1  520   2.258   2.915   0.975 -0.2433  1.8716  0.4749
  131SOL    HW2  521   2.158   2.802   0.979  1.2683  0.5287  1.3978
  132SOL     OW  522   0.094   2.718   3.162 -0.2914  0.3535  0.1992
  132SOL    HW1  523   0.142   2.770   3.227  1.8600 -1.6616  0.3680
  132SOL    HW2  524   0.056   2.647   3.213  2.5255 -2.0232 -0.7279
  133SOL     OW  525   3.089   3.131   3.253  0.4287 -0.2997 -0.8664
  133SOL    HW1  526   3.108   3.074   3.327  1.1268  0.9969 -0.0038
  133SOL    HW2  527   3.086   3.072   3.178  0.3742 -1.5596  0.0904
  134SOL     OW  528   3.565   0.608   3.039  1.1861  0.2359 -0.0884
  134SOL    HW1  529   3.569   0.701   3.059  3.7673  0.4494 -1.1379
  134SOL    HW2  530   3.554   0.604   2.944  1.9122 -0.4745 -0.1606
  135SOL     OW  531   3.528   2.163   1.681  0.5775  0.0796 -0.0675
  135SOL    HW1  532   3.470   2.116   1.740  2.2194  0.5544  2.0468
  135SOL    HW2  533   3.470   2.221   1.632 -0.8496 -0.1906  1.2218
  136SOL     OW  534   0.328   3.244   2.856 -0.2246  1.4100  0.0505
  136SOL    HW1  535   0.280   3.189   2.794 -2.4592  0.8569  2.0884
  136SOL    HW2  536   0.348   3.324   2.808 -0.7049  0.5045 -1.7417
  137SOL     OW  537   2.263   1.256   3.139 -0.1485  0.0310 -0.3888
  137SOL    HW1  538   2.232   1.319   3.205  1.6754  0.1060  0.4610
  137SOL    HW2  539   2.356   1.274   3.132 -0.0850 -0.8398 -2.0992
  138SOL     OW  540   1.095   3.173   1.386  0.5696  0.0255 -0.1643
  138SOL    HW1  541   1.033   3.148   1.454 -0.9100 -1.0120 -1.7829
  138SOL    HW2  542   1.156   3.100   1.380  0.6067  0.0478 -0.0573
  139SOL     OW  543   3.279   1.118   2.956  0.2343  0.0387 -0.1174
  139SOL    HW1  544   3.278   1.024   2.972  1.0223 -0.0651 -0.6139
  139SOL    HW2  545   3.198   1.135   2.907 -1.0253 -0.0025  1.8442
  140SOL     OW  546   1.842   0.586   1.428 -0.3786  0.3168 -0.0227
  140SOL    HW1  547   1.818   0.496   1.450 -0.8165 -0.6694 -3.8525
  140SOL    HW2  548   1.938   0.587   1.434 -0.1188 -1.3177 -2.4797
  141SOL     OW  549   0.749   1.010   2.338  0.3047  0.0559  0.2846
  141SOL    HW1  550   0.673   1.013   2.396  0.7718 -1.8451  1.0781
  141SOL    HW2  551   0.822   1.040   2.393  0.5469 -0.6394  0.3627
  142SOL     OW  552   0.614   2.331   2.909 -0.3288  0.5286 -0.0471
  142SOL    HW1  553   0.625   2.290   2.823  0.5592  0.0617  0.2686
  142SOL    HW2  554   0.683   2.397   2.913  0.0405  0.1178  0.5406
  143SOL     OW  555   0.690   1.631   1.105  0.4587  0.5692  0.3145
  143SOL    HW1  556   0.707   1.588   1.022  3.2960  0.1808  1.0060
  143SOL    HW2  557   0.617   1.582   1.143  0.3830 -0.4618 -1.0942
  144SOL     OW  558   0.335   0.349   1.599 -0.4003 -0.3277 -0.4035
  144SOL    HW1  559   0.389   0.345   1.520  0.6092 -0.4008  0.2692
  144SOL    HW2  560   0.255   0.303   1.575 -1.0158  1.4676 -2.0476
  145SOL     OW  561   1.646   0.274   2.695  0.3279 -0.1000  0.2781
  145SOL    HW1  562   1.583   0.250   2.627  0.1021 -1.5259  0.9614
  145SOL    HW2  563   1.719   0.214   2.683  2.1969  2.2830 -1.2627
  146SOL     OW  564   2.613   0.320   3.460  0.1755  0.2882 -0.6688
  146SOL    HW1  565   2.646   0.280   3.379  0.1457  0.4987 -0.7854
  146SOL    HW2  566   2.683   0.379   3.488 -0.3186  1.1472 -1.2124
  147SOL     OW  567   1.856   2.123   2.181 -0.2140 -0.3181 -0.2988
  147SOL    HW1  568   1.893   2.210   2.163 -2.4409  0.7467 -0.0906
  147SOL    HW2  569   1.906   2.064   2.125  2.5490  0.7658  0.8070
  148SOL     OW  570   1.711   0.983   1.974  0.2475  0.6088 -0.2632
  148SOL    HW1  571   1.746   0.996   1.886  0.5909 -1.7608 -0.5420
  148SOL    HW2  572   1.623   0.948   1.959  1.4987 -3.1764  0.1144
  149SOL     OW  573   0.738   2.697   0.271  0.0028 -0.4832  0.3031
  149SOL    HW1  574   0.737   2.606   0.242  0.8340 -0.7527  1.0619
  149SOL    HW2  575   0.812   2.737   0.225 -0.8426  0.0512 -0.6537
  150SOL     OW  576   0.569   1.727   1.421 -0.6482 -0.1584  0.2597
  150SOL    HW1  577   0.600   1.637   1.416  1.1968  0.4474 -0.1604
  150SOL    HW2  578   0.495   1.732   1.361  0.4960 -0.9242 -1.2570
  151SOL     OW  579   0.995   3.719   1.319 -0.7585  0.0717  0.0658
  151SOL    HW1  580   0.996   3.635   1.274  0.1115  0.8772 -1.4977
  151SOL    HW2  581   0.996   3.696   1.412 -1.1812 -1.6373 -0.3112
  152SOL     OW  582   2.562   1.855   2.949 -0.1926  0.3826  0.6538
  152SOL    HW1  583   2.596   1.941   2.923 -1.2973  1.2293  1.8884
  152SOL    HW2  584   2.522   1.870   3.035  1.1773 -1.7588  1.7464
  153SOL     OW  585   0.104   1.785   0.983 -0.0849 -0.2219  0.0388
  153SOL    HW1  586   0.066   1.711   1.031  0.0186  0.1231  0.6574
  153SOL    HW2  587   0.166   1.744   0.923  1.0855 -0.5541  1.4184
  154SOL     OW  588   1.111   0.232   3.010 -0.0218 -0.3045 -0.3092
  154SOL    HW1  589   1.070   0.220   2.924 -3.4752  0.8439  1.0018
  154SOL    HW2  590   1.151   0.319   3.007  1.3802 -0.9362 -1.2033
  155SOL     OW  591   2.186   2.654   2.839  0.3653  0.0518  0.4370
  155SOL    HW1  592   2.165   2.630   2.930  2.0636  0.0058  0.8454
  155SOL    HW2  593   2.253   2.591   2.812  0.8748  0.9224 -0.3754
  156SOL     OW  594   0.043   1.891   1.902  0.7299 -0.7269 -0.1196
  156SOL    HW1  595  -0.021   1.825   1.928  0.4628 -1.2945 -2.0892
  156SOL    HW2  596   0.093   1.908   1.982 -1.0969 -1.1135  1.1881
  157SOL     OW  597   3.135   3.316   2.918 -0.3133  0.5210 -0.3936
  157SOL    HW1  598   3.051   3.281   2.948 -0.4384  1.0503 -0.1199
  157SOL    HW2  599   3.173   3.358   2.995  0.4173 -0.1145 -0.4038
  158SOL     OW  600   0.632   3.499   2.323  0.1753  0.8235 -0.3435
  158SOL    HW1  601   0.629   3.411   2.286  1.5945  0.4437  0.3709
  158SOL    HW2  602   0.724   3.524   2.317  0.0277  1.6912  0.7436
  159SOL     OW  603   3.381   2.935   2.956 -0.1589  0.5086 -0.0055
  159SOL    HW1  604   3.376   2.986   2.876 -1.3021 -0.6532 -0.7078
  159SOL    HW2  605   3.474   2.915   2.966  0.0760  1.2033 -0.6729
  160SOL     OW  606   3.136   3.411   3.416 -0.2469  0.3810  0.1006
  160SOL    HW1  607   3.175   3.332   3.378 -0.6893  1.0077 -1.7468
  160SOL    HW2  608   3.207   3.450   3.467  0.5148 -0.2782 -0.4312
  161SOL     OW  609   3.256   1.552   2.246  0.3891 -0.1318  0.2094
  161SOL    HW1  610   3.250   1.472   2.299 -0.2895 -0.7182 -0.7207
  161SOL    HW2  611   3.308   1.526   2.171 -0.0880  0.2136 -0.2461
  162SOL     OW  612   3.295   3.101   0.538 -0.2292 -1.2208 -0.4777
  162SOL    HW1  613   3.329   3.054   0.613 -0.5097 -1.3361 -0.4227
  162SOL    HW2  614   3.358   3.084   0.468  0.7510 -0.0175  0.0836
  163SOL     OW  615   2.513   3.503   0.465  0.7820  0.2458 -0.6232
  163SOL    HW1  616   2.521   3.448   0.387  1.6871 -2.3095  1.1365
  163SOL    HW2  617   2.430   3.475   0.505  0.8312  0.8041 -0.1138
  164SOL     OW  618   1.891   3.442   2.599 -0.5677 -0.2796 -0.3607
  164SOL    HW1  619   1.912   3.517   2.543 -1.4289 -0.0248 -0.3454
  164SOL    HW2  620   1.949   3.452   2.674  0.6156 -0.6327 -1.1974
  165SOL     OW  621   1.813   3.061   0.639  0.2409  0.2183  0.7452
  165SOL    HW1  622   1.750   3.005   0.685  1.1752  0.0319  1.8330
  165SOL    HW2  623   1.898   3.020   0.653  0.4532 -0.6385 -2.4059
  166SOL     OW  624   3.645   1.606   1.340 -0.3346  0.8963  0.4392
  166SOL    HW1  625   3.694   1.527   1.361 -2.3648  0.1378  2.9777
  166SOL    HW2  626   3.696   1.677   1.379  0.2704  0.5209  0.3338
  167SOL     OW  627   2.955   1.066   2.803 -0.1534 -0.2072  0.4910
  167SOL    HW1  628   3.010   1.055   2.725  0.0198 -0.2088  0.6122
  167SOL    HW2  629   2.867   1.084   2.769 -0.5463 -2.3076  0.2590
  168SOL     OW  630   1.787   1.820   0.099 -0.2211  0.9134 -1.1082
  168SOL    HW1  631   1.871   1.794   0.060  0.9429  1.9134  0.6027
  168SOL    HW2  632   1.766   1.749   0.159 -0.2579  0.9691 -1.0560
  169SOL     OW  633   3.302   2.105   0.156  0.0988  0.6190 -0.0011
  169SOL    HW1  634   3.339   2.157   0.085 -0.3818 -0.2325 -0.8895
  169SOL    HW2  635   3.207   2.118   0.148 -0.1743 -1.6787 -1.3122
  170SOL     OW  636   2.491   0.617   1.626  1.1302  0.7032  0.1678
  170SOL    HW1  637   2.467   0.600   1.535  1.3413 -0.8881  0.3773
  170SOL    HW2  638   2.418   0.668   1.661  1.2406  1.7203 -0.9833
  171SOL     OW  639   3.502   2.176   2.608  0.5593 -0.1721 -0.3299
  171SOL    HW1  640   3.468   2.237   2.543  1.1894 -3.3110 -4.0017
  171SOL    HW2  641   3.428   2.117   2.626  1.2274 -1.1693 -0.7275
  172SOL     OW  642   1.034   1.442   0.771 -0.0101 -0.0729  0.8214
  172SOL    HW1  643   1.109   1.395   0.737 -0.6697 -1.9892  1.8944
  172SOL    HW2  644   0.958   1.391   0.743 -0.7900  0.5958  1.6336
  173SOL     OW  645   2.636   0.790   1.971 -0.0186 -0.1078  0.2519
  173SOL    HW1  646   2.651   0.702   1.935  2.1432  0.7736 -1.1708
  173SOL    HW2  647   2.723   0.827   1.983 -0.7732  1.0768  3.0125
  174SOL     OW  648   0.188   2.104   0.124  0.0780  0.6430 -0.1179
  174SOL    HW1  649   0.225   2.039   0.065  0.2383 -1.3910  2.0493
  174SOL    HW2  650   0.094   2.086   0.123  0.0385  0.8409 -0.0165
  175SOL     OW  651   0.033   2.960   3.674 -0.0883 -0.1918 -0.0501
  175SOL    HW1  652   0.016   2.873   3.638 -1.6406 -0.4021  1.0680
  175SOL    HW2  653   0.128   2.968   3.675  0.0999 -2.0631  0.2438
  176SOL     OW  654   1.830   3.229   2.770  0.7669 -0.3302 -0.3838
  176SOL    HW1  655   1.743   3.188   2.767  0.1004  1.0169 -0.5105
  176SOL    HW2  656   1.818   3.313   2.724  1.5888  0.8331  1.4122
  177SOL     OW  657   3.094   2.911   0.568 -0.1312  0.6689 -0.1864
  177SOL    HW1  658   3.002   2.895   0.545 -0.2212  0.9547 -0.0262
  177SOL    HW2  659   3.111   3.000   0.537 -0.2175  1.0176  0.7515
  178SOL     OW  660   0.928   0.639   3.004 -0.0909 -0.8039 -0.2822
  178SOL    HW1  661   0.867   0.566   2.993 -0.1854 -0.7898  0.1492
  178SOL    HW2  662   1.010   0.608   2.965 -0.3794 -0.8050 -0.9079
  179SOL     OW  663   0.218   3.289   1.213 -0.0384  0.0041  0.3700
  179SOL    HW1  664   0.151   3.221   1.201 -0.4625  0.6331 -1.0123
  179SOL    HW2  665   0.301   3.242   1.210 -0.2705 -0.3844 -1.6748
  180SOL     OW  666   2.987   2.981   2.783  0.2540 -0.3259 -0.5978
  180SOL    HW1  667   2.952   2.896   2.754  0.3547 -0.7871  0.5847
  180SOL    HW2  668   2.910   3.037   2.793  0.0766 -0.6302 -0.2588
  181SOL     OW  669   3.640   2.861   2.975  0.0918 -0.1741 -0.1646
  181SOL    HW1  670   3.683   2.814   3.046 -0.4466 -0.1558  0.1861
  181SOL    HW2  671   3.651   2.805   2.898 -0.3449 -0.7762  0.1990
  182SOL     OW  672   0.425   1.537   3.680  0.4124 -0.0570 -0.4029
  182SOL    HW1  673   0.495   1.554   3.618  1.6204  0.8498  1.1399
  182SOL    HW2  674   0.425   1.612   3.739 -2.6908  0.5772 -1.0338
  183SOL     OW  675   2.570   2.125   1.974 -0.1061 -0.6505 -0.4173
  183SOL    HW1  676   2.628   2.074   2.030  1.5595  0.0850 -1.3934
  183SOL    HW2  677   2.496   2.149   2.030  0.7100 -1.3073  0.9769
  184SOL     OW  678   0.533   0.308   0.763  0.1509  0.0685  0.0993
  184SOL    HW1  679   0.461   0.245   0.770 -1.3547  1.7106 -0.1700
  184SOL    HW2  680   0.551   0.334   0.854 -1.1948  1.3549  0.0336
  185SOL     OW  681   2.392   0.104   0.229  0.2462 -0.2246 -0.8612
  185SOL    HW1  682   2.358   0.185   0.191  0.1829 -0.0984 -0.5317
  185SOL    HW2  683   2.487   0.107   0.212  0.5291  0.7911  0.7692
  186SOL     OW  684   1.659   0.101   3.242 -0.1872 -0.1674  0.3579
  186SOL    HW1  685   1.567   0.120   3.263 -0.8457 -2.1270 -0.4545
  186SOL    HW2  686   1.705   0.184   3.256 -2.4019  1.4195 -0.9864
  187SOL     OW  687   0.242   0.220   0.266  0.0538 -0.3453  0.2240
  187SOL    HW1  688   0.289   0.280   0.325  1.4879 -1.5867  0.4134
  187SOL    HW2  689   0.262   0.133   0.301 -0.6229 -1.0104 -1.0100
  188SOL     OW  690   0.213   1.851   2.107  0.0601  0.4055  0.0943
  188SOL    HW1  691   0.265   1.777   2.075 -1.1355  0.2463 -1.5836
  188SOL    HW2  692   0.224   1.849   2.202 -0.7418 -2.5385  0.1913
  189SOL     OW  693   0.353   2.021   2.884 -0.1785 -0.6621 -0.1667
  189SOL    HW1  694   0.294   2.065   2.946 -1.9407 -1.5524 -1.1218
  189SOL    HW2  695   0.402   1.959   2.938 -0.9400 -0.6862  0.5280
  190SOL     OW  696   1.029   2.460   1.060  0.1427 -0.7862  0.1778
  190SOL    HW1  697   0.950   2.418   1.091 -0.1592 -0.2825  0.1017
  190SOL    HW2  698   1.092   2.389   1.050 -0.0196 -1.0700  1.1058
  191SOL     OW  699   2.862   0.597   1.533 -0.0692 -0.4465  0.3929
  191SOL    HW1  700   2.855   0.510   1.571 -2.1506  0.0688  1.3004
  191SOL    HW2  701   2.829   0.588   1.444 -0.1916 -0.6025  0.4545
  192SOL     OW  702   0.805   0.373   0.674  0.0813 -0.9346 -0.2049
  192SOL    HW1  703   0.827   0.423   0.752  3.2096 -4.4384  1.4986
  192SOL    HW2  704   0.718   0.338   0.691 -1.0399  1.6230 -0.2852
  193SOL     OW  705   2.231   3.283   2.249 -0.3213 -0.2054 -0.7626
  193SOL    HW1  706   2.318   3.319   2.233 -0.8466  0.6600 -1.7647
  193SOL    HW2  707   2.196   3.336   2.321 -0.0428 -0.5451 -0.3678
  194SOL     OW  708   2.524   1.502   1.168 -0.3811  0.3446 -0.4170
  194SOL    HW1  709   2.535   1.459   1.253  0.2005 -4.2364 -2.4846
  194SOL    HW2  710   2.435   1.479   1.141  0.2434 -0.3548 -1.9921
  195SOL     OW  711   1.349   1.703   3.444 -0.6325  0.5598 -0.0504
  195SOL    HW1  712   1.261   1.708   3.480 -1.3437  3.2010 -1.9083
  195SOL    HW2  713   1.340   1.651   3.364 -0.0511 -0.8831  0.7775
  196SOL     OW  714   1.930   1.810   1.587  0.5676 -0.1078 -0.1765
  196SOL    HW1  715   1.991   1.742   1.559  0.7170 -0.0613  0.0296
  196SOL    HW2  716   1.859   1.807   1.523  0.1726 -0.9917  0.2884
  197SOL     OW  717   0.861   2.473   0.116  0.1210 -0.2929  0.3109
  197SOL    HW1  718   0.928   2.504   0.056 -0.4581  0.6535  0.1257
  197SOL    HW2  719   0.908   2.419   0.180  1.1633  0.9519  0.6212
  198SOL     OW  720   1.514   3.565   0.358  0.2076  0.8210 -0.0898
  198SOL    HW1  721   1.560   3.549   0.275 -0.3813 -0.0303 -0.2653
  198SOL    HW2  722   1.541   3.493   0.414 -0.4814  0.6272 -0.0097
  199SOL     OW  723   1.171   2.995   2.960 -0.0516 -0.6565 -0.2736
  199SOL    HW1  724   1.095   3.025   3.010  0.8225 -0.6568  1.1210
  199SOL    HW2  725   1.232   3.069   2.962  0.2925 -0.9227 -0.7223
  200SOL     OW  726   2.302   1.559   1.369  0.3062 -0.3988 -0.2771
  200SOL    HW1  727   2.354   1.570   1.449 -1.6960 -0.1720  1.0648
  200SOL    HW2  728   2.217   1.599   1.390  0.2747  1.3143 -3.1683
  201SOL     OW  729   1.277   0.504   2.426  0.1938  0.1603 -0.5705
  201SOL    HW1  730   1.247   0.594   2.421 -0.8682 -0.1846 -0.6694
  201SOL    HW2  731   1.243   0.462   2.347  0.2169 -0.4487 -0.2678
  202SOL     OW  732   2.644   0.065   0.701 -0.6709 -0.4243 -0.5558
  202SOL    HW1  733   2.674   0.154   0.718  0.9186 -1.1011  0.3950
  202SOL    HW2  734   2.654   0.053   0.607 -0.1813  0.1526 -0.5835
  203SOL     OW  735   0.814   1.320   1.844 -0.3601  0.7365 -0.0856
  203SOL    HW1  736   0.845   1.277   1.764  0.8274 -1.9937  1.6643
  203SOL    HW2  737   0.894   1.339   1.893 -0.9059  4.5046 -0.4099
  204SOL     OW  738   1.885   0.184   1.988 -0.2300  0.0423  0.0539
  204SOL    HW1  739   1.942   0.254   2.020 -0.2023  0.9075 -1.7507
  204SOL    HW2  740   1.928   0.104   2.017  1.8720  0.6809 -1.0983
  205SOL     OW  741   0.083   3.380   1.445  0.5798  0.0483  0.0923
  205SOL    HW1  742   0.140   3.336   1.382  0.3419 -1.5326  0.9463
  205SOL    HW2  743  -0.005   3.372   1.408  0.5137 -0.3648  0.3349
  206SOL     OW  744   0.973   0.295   0.472  0.2618  0.5342 -0.0309
  206SOL    HW1  745   1.005   0.383   0.452  1.9403 -0.2195 -0.8318
  206SOL    HW2  746   0.900   0.309   0.532  0.1789  2.4915 -0.5401
  207SOL     OW  747   0.008   0.566   2.100 -0.1339  0.3625  0.0161
  207SOL    HW1  748   0.077   0.594   2.039 -1.5528 -0.2999 -2.0232
  207SOL    HW2  749  -0.060   0.530   2.043 -2.3997  1.4259  1.8996
  208SOL     OW  750   2.022   0.175   0.327 -0.4064  0.1117  0.5393
  208SOL    HW1  751   2.032   0.190   0.233 -1.9401  2.2166  0.6283
  208SOL    HW2  752   1.961   0.102   0.333 -1.1688  0.6653 -0.1651
  209SOL     OW  753   3.273   3.690   3.310 -0.1708 -0.2229 -0.4971
  209SOL    HW1  754   3.293   3.629   3.382  0.6937  0.3326 -0.2559
  209SOL    HW2  755   3.190   3.731   3.336 -0.2376 -0.5613 -0.1695
  210SOL     OW  756   2.114   3.063   3.534 -0.1267 -0.1936 -0.6565
  210SOL    HW1  757   2.060   3.008   3.591  1.7207 -1.1092  0.2908
  210SOL    HW2  758   2.056   3.134   3.507 -2.2143 -1.8715 -0.8397
  211SOL     OW  759   3.744   3.552   0.703 -0.0297 -0.4502 -0.6096
  211SOL    HW1  760   3.653   3.562   0.730  0.4650  1.9286  0.4967
  211SOL    HW2  761   3.772   3.470   0.743 -1.4593 -0.7787 -0.2392
  212SOL     OW  762   0.413   2.653   1.457  0.1323 -0.0076  0.4692
  212SOL    HW1  763   0.424   2.607   1.539 -1.5892  1.0624  1.3647
  212SOL    HW2  764   0.500   2.684   1.434  0.3467  1.7733  3.2144
  213SOL     OW  765   1.310   3.075   1.687 -0.0687 -0.2775  0.0336
  213SOL    HW1  766   1.300   2.981   1.700 -0.8829 -0.2680 -0.4417
  213SOL    HW2  767   1.255   3.114   1.754  0.2304 -0.1354  0.1994
  214SOL     OW  768   0.305   3.157   0.500  0.3144 -0.6321  0.4288
  214SOL    HW1  769   0.209   3.164   0.495  0.2334 -0.5944  1.7892
  214SOL    HW2  770   0.325   3.077   0.451 -0.2748  0.0588 -1.0037
  215SOL     OW  771   0.904   0.751   2.528  0.2912  0.0964 -0.1883
  215SOL    HW1  772   0.913   0.724   2.437 -2.3274  0.0410 -0.5113
  215SOL    HW2  773   0.819   0.795   2.532 -0.0988 -0.7007  2.4034
  216SOL     OW  774   3.266   1.365   1.088 -0.5789  0.5761 -0.7136
  216SOL    HW1  775   3.237   1.386   1.177 -0.3952 -1.8063 -0.0317
  216SOL    HW2  776   3.361   1.373   1.091 -0.6433  1.7546 -1.0964
  217SOL     OW  777   0.725   1.810   3.339 -0.1833 -0.5366 -0.0459
  217SOL    HW1  778   0.645   1.862   3.344 -0.8304 -1.6467  2.6716
  217SOL    HW2  779   0.788   1.868   3.295 -1.9759  1.0069 -0.7036
  218SOL     OW  780   3.063   2.969   3.045 -0.3822  0.1899  0.4629
  218SOL    HW1  781   3.079   2.875   3.048 -0.6071  0.1081 -0.5164
  218SOL    HW2  782   3.058   2.989   2.952  0.9050  1.3919  0.6197
  219SOL     OW  783   2.092   2.302   2.075 -0.2191 -0.2859  0.3218
  219SOL    HW1  784   2.136   2.384   2.096 -1.0216  0.3704 -0.4561
  219SOL    HW2  785   2.136   2.270   1.996  0.4137 -0.8674  0.9013
  220SOL     OW  786   1.785   2.996   2.514 -0.1942  0.2193  0.3039
  220SOL    HW1  787   1.758   3.088   2.514  0.5834  0.4524  0.0741
  220SOL    HW2  788   1.783   2.971   2.607  0.4265  0.7279  0.4652
  221SOL     OW  789   0.629   2.869   0.055  0.2893  0.6771  0.3866
  221SOL    HW1  790   0.686   2.946   0.065 -0.3215  1.2845 -0.6198
  221SOL    HW2  791   0.664   2.824  -0.022  0.8655 -0.2769  1.1813
  222SOL     OW  792   3.506   3.310   0.433 -0.0586 -0.1053 -0.3893
  222SOL    HW1  793   3.458   3.380   0.390 -1.4484 -1.3700 -0.9920
  222SOL    HW2  794   3.508   3.335   0.525 -1.2501  0.3348 -0.4759
  223SOL     OW  795   0.234   2.804   2.925 -0.9252 -0.5047 -0.3275
  223SOL    HW1  796   0.169   2.798   2.995 -2.0460 -0.2374 -1.2986
  223SOL    HW2  797   0.192   2.760   2.850 -0.9261  1.5989 -1.6323
  224SOL     OW  798   0.092   0.728   2.309  0.0032  0.2420 -0.1112
  224SOL    HW1  799   0.088   0.698   2.218 -0.5789 -0.1613  0.0382
  224SOL    HW2  800   0.166   0.787   2.312 -0.1216  0.4491 -0.9094
  225SOL     OW  801   3.670   2.727   3.534  0.5855 -0.0054 -0.5817
  225SOL    HW1  802   3.727   2.650   3.536  1.8847  0.9160  1.5439
  225SOL    HW2  803   3.584   2.694   3.559  0.7053 -1.0115 -1.4192
  226SOL     OW  804   2.927   3.356   1.662  0.3551  0.1609  0.0052
  226SOL    HW1  805   2.882   3.418   1.718  0.3827 -1.5118  2.0120
  226SOL    HW2  806   2.857   3.302   1.625  0.4728 -0.4456  0.6330
  227SOL     OW  807   0.439   1.559   2.924 -0.1037  0.7113 -0.4197
  227SOL    HW1  808   0.352   1.532   2.953 -0.0966  1.9619  0.8387
  227SOL    HW2  809   0.436   1.547   2.829 -1.9131  1.4375 -0.5026
  228SOL     OW  810   2.001   1.666   0.398 -0.2692  0.0092 -0.2226
  228SOL    HW1  811   1.999   1.697   0.308 -0.3495 -2.2225 -1.0452
  228SOL    HW2  812   1.921   1.615   0.409 -0.6108  0.8014  1.3529
  229SOL     OW  813   3.385   1.730   2.891 -0.1278  0.1532 -0.0738
  229SOL    HW1  814   3.388   1.704   2.799 -2.6747 -0.1833 -0.1214
  229SOL    HW2  815   3.473   1.709   2.924 -0.0672 -2.6503 -1.6753
  230SOL     OW  816   1.171   2.758   0.905 -0.1628 -0.1171 -0.6784
  230SOL    HW1  817   1.140   2.784   0.818 -1.3242  1.9620  0.2878
  230SOL    HW2  818   1.108   2.796   0.966  2.4237  1.4875  1.2458
  231SOL     OW  819   0.729   2.816   1.825 -0.3865 -1.1749  0.7918
  231SOL    HW1  820   0.642   2.847   1.802  0.3204  0.4669  0.1576
  231SOL    HW2  821   0.722   2.788   1.916 -1.6721 -1.4915  0.6089
  232SOL     OW  822   1.848   0.259   3.576 -0.3598  0.0406  0.0971
  232SOL    HW1  823   1.934   0.258   3.617 -0.4672 -0.0187  0.3222
  232SOL    HW2  824   1.851   0.333   3.516 -0.5826  0.8404  1.0369
  233SOL     OW  825   2.229   0.277   3.175 -0.1053  0.8568  0.0419
  233SOL    HW1  826   2.295   0.347   3.169  0.9640 -0.0758  0.5252
  233SOL    HW2  827   2.192   0.287   3.263  0.3881  0.5360  0.2914
  234SOL     OW  828   0.856   3.445   2.071  0.0920 -0.3291 -0.3461
  234SOL    HW1  829   0.874   3.424   2.162  0.9731 -0.3394 -0.5168
  234SOL    HW2  830   0.890   3.534   2.060 -0.6503 -0.0552 -0.4838
  235SOL     OW  831   2.465   3.235   3.367  0.6380 -0.0015 -0.5102
  235SOL    HW1  832   2.420   3.153   3.385  0.0751  0.0363 -1.6525
  235SOL    HW2  833   2.410   3.302   3.408 -0.0255 -0.0225 -1.3157
  236SOL     OW  834   2.879   3.263   3.435 -0.0539  0.0359 -0.4243
  236SOL    HW1  835   2.840   3.183   3.400 -0.9024 -0.7539  2.0620
  236SOL    HW2  836   2.969   3.262   3.401 -0.5050 -1.1344 -1.6967
  237SOL     OW  837   2.313   2.653   1.784  0.4778  0.6638  0.6678
  237SOL    HW1  838   2.334   2.600   1.861  0.7941 -0.3964 -0.1258
  237SOL    HW2  839   2.221   2.634   1.766  0.5654  0.4547  0.4378
  238SOL     OW  840   0.516   2.031   3.478 -0.2613 -0.0459 -0.5878
  238SOL    HW1  841   0.517   2.032   3.574 -0.3291 -2.0978 -0.5070
  238SOL    HW2  842   0.522   2.123   3.453 -2.0951  0.7022  1.3776
  239SOL     OW  843   2.218   0.957   1.693  0.0122 -0.5508  0.4755
  239SOL    HW1  844   2.284   0.922   1.752 -0.5437  0.0270  1.4637
  239SOL    HW2  845   2.236   1.051   1.688  0.3502 -0.6555 -0.6751
  240SOL     OW  846   1.525   0.808   1.699 -0.6991 -0.2918  0.3515
  240SOL    HW1  847   1.518   0.888   1.751  3.1497 -0.7768  1.9824
  240SOL    HW2  848   1.520   0.737   1.763 -1.9574 -1.2782 -0.7962
  241SOL     OW  849   0.210   2.927   1.135 -0.9356  0.3573 -0.0815
  241SOL    HW1  850   0.192   2.929   1.229 -1.6713  0.6593 -0.2204
  241SOL    HW2  851   0.127   2.900   1.096 -1.2001  2.0281 -0.7726
  242SOL     OW  852   1.197   1.471   1.218  0.1999 -0.0903 -0.2631
  242SOL    HW1  853   1.123   1.415   1.193 -1.1159  1.8124 -0.8844
  242SOL    HW2  854   1.203   1.464   1.313 -1.2845  0.2637 -0.1209
  243SOL     OW  855   1.415   1.311   1.872 -0.5355 -0.1330 -0.0476
  243SOL    HW1  856   1.387   1.372   1.941 -0.4382  0.5701 -0.6142
  243SOL    HW2  857   1.343   1.313   1.809 -0.3601 -0.3261 -0.2516
  244SOL     OW  858   0.672   1.260   0.963  0.1050  0.1410 -0.0565
  244SOL    HW1  859   0.664   1.212   1.045  0.9346  3.3563  2.0841
  244SOL    HW2  860   0.592   1.238   0.915 -0.8801 -1.1364  2.0271
  245SOL     OW  861   1.440   2.859   2.848  0.4636 -0.0579 -0.4231
  245SOL    HW1  862   1.371   2.909   2.893  0.7580  0.6299 -0.7246
  245SOL    HW2  863   1.488   2.816   2.918  0.2884  0.1939 -0.1455
  246SOL     OW  864   3.420   0.520   1.696  0.2341  0.6401  0.0033
  246SOL    HW1  865   3.451   0.465   1.624  3.7691 -0.0246  1.8077
  246SOL    HW2  866   3.434   0.609   1.664 -0.0206  0.3962 -0.8223
  247SOL     OW  867   2.194   0.502   3.021  0.1637 -0.0691 -0.5040
  247SOL    HW1  868   2.269   0.511   3.079 -0.4403 -0.1669  0.3027
  247SOL    HW2  869   2.137   0.438   3.065 -1.6538  1.9695  0.2490
  248SOL     OW  870   0.215   0.600   0.256  0.0432 -0.7623  0.0338
  248SOL    HW1  871   0.205   0.553   0.174  0.3092 -2.1596  0.7785
  248SOL    HW2  872   0.128   0.636   0.274  0.2581  0.6716 -1.4626
  249SOL     OW  873   2.361   0.553   3.233  0.6243 -0.2200  0.1640
  249SOL    HW1  874   2.287   0.614   3.225 -0.4264 -1.4337  0.2981
  249SOL    HW2  875   2.406   0.579   3.313  0.0622  0.2429  0.3327
  250SOL     OW  876  -0.007   2.558   1.280 -0.2749  0.3921 -0.1294
  250SOL    HW1  877  -0.023   2.501   1.205  0.2855  0.5416 -0.3635
  250SOL    HW2  878   0.058   2.622   1.250  0.2172  0.2434  0.5799
  251SOL     OW  879   1.512   3.520   1.084  0.2682  0.1895  0.1005
  251SOL    HW1  880   1.571   3.595   1.079 -0.9400  1.4182  2.7444
  251SOL    HW2  881   1.528   3.472   1.002  3.6754  1.3259 -0.0524
  252SOL     OW  882   0.919   3.676   2.228  0.1721  0.2037  0.2580
  252SOL    HW1  883   0.990   3.678   2.292 -1.0755  0.2636  1.7072
  252SOL    HW2  884   0.858   3.743   2.258 -2.3759 -2.3660  1.3976
  253SOL     OW  885   2.638   2.393   1.995  0.4315  0.0510 -0.0659
  253SOL    HW1  886   2.616   2.301   1.977  0.8468 -0.0817  0.1103
  253SOL    HW2  887   2.700   2.390   2.068 -2.8133  0.6527  3.0278
  254SOL     OW  888   0.012   2.015   1.270  0.0946  0.5035  0.4307
  254SOL    HW1  889  -0.015   2.074   1.340 -0.0470 -0.0517  0.8522
  254SOL    HW2  890   0.039   2.073   1.199 -1.9771  1.1016  0.0503
  255SOL     OW  891   0.554   1.410   1.277 -0.5124  0.3105 -0.1037
  255SOL    HW1  892   0.517   1.370   1.356  0.3837  2.0767  1.2699
  255SOL    HW2  893   0.568   1.336   1.218 -1.0257 -1.1071  1.4567
  256SOL     OW  894   3.234   0.105   2.363 -0.2907 -0.5030 -0.0463
  256SOL    HW1  895   3.153   0.092   2.414 -0.2183 -1.1851 -0.0994
  256SOL    HW2  896   3.287   0.164   2.418 -1.0627  0.4484 -0.2871
  257SOL     OW  897   0.033   2.359   0.802  0.3615 -0.0910  0.4288
  257SOL    HW1  898   0.118   2.355   0.760 -0.2280 -1.9428 -0.7419
  257SOL    HW2  899  -0.029   2.376   0.731 -0.3631 -0.0501  1.0468
  258SOL     OW  900   2.910   2.516   1.017 -0.0314  0.2763 -0.0829
  258SOL    HW1  901   2.947   2.431   1.044 -0.3881 -0.1757 -0.9978
  258SOL    HW2  902   2.948   2.578   1.080  2.1738 -0.1872 -0.8405
  259SOL     OW  903   0.441   2.777   1.061  0.4971  0.0902 -0.1571
  259SOL    HW1  904   0.348   2.786   1.079  0.2812  0.2766 -1.2674
  259SOL    HW2  905   0.481   2.761   1.147 -0.4740  0.6064  0.4105
  260SOL     OW  906   3.435   3.073   0.292  0.6395 -0.4819  0.3734
  260SOL    HW1  907   3.444   3.044   0.201 -0.5429  0.7268 -0.1507
  260SOL    HW2  908   3.478   3.158   0.294 -0.1284 -0.0964  0.7211
  261SOL     OW  909   1.013   2.898   1.626  0.2236  0.1773 -0.2913
  261SOL    HW1  910   0.941   2.855   1.580  0.1408 -1.6386  1.4016
  261SOL    HW2  911   0.979   2.984   1.649 -1.0807 -0.2986 -0.3514
  262SOL     OW  912   3.384   2.821   0.645  0.0527 -0.3744  0.3552
  262SOL    HW1  913   3.388   2.832   0.740  0.3876  3.0415  0.0626
  262SOL    HW2  914   3.305   2.867   0.619  0.9464  0.3762 -1.1705
  263SOL     OW  915   3.623   3.514   1.693  0.1950  0.1358  0.4204
  263SOL    HW1  916   3.545   3.529   1.746  0.1566 -0.9649  0.7010
  263SOL    HW2  917   3.608   3.430   1.651  1.3110 -0.1852  0.6260
  264SOL     OW  918   2.551   2.542   1.048 -0.0192  0.1383  0.0965
  264SOL    HW1  919   2.629   2.490   1.068 -0.0699  0.6351  1.7501
  264SOL    HW2  920   2.513   2.562   1.133  0.1193  3.0622 -0.4213
  265SOL     OW  921   1.341   1.189   3.500  0.5206  0.6351 -0.0804
  265SOL    HW1  922   1.330   1.094   3.490 -0.2848  0.5250  1.5880
  265SOL    HW2  923   1.385   1.216   3.419  2.1825 -1.3849  0.0566
  266SOL     OW  924   0.008   2.462   2.115  0.6375 -0.2049  0.0271
  266SOL    HW1  925   0.044   2.380   2.150  0.3280 -0.2737  0.1821
  266SOL    HW2  926  -0.038   2.436   2.035 -0.2320 -0.3208  0.5511
  267SOL     OW  927   3.230   2.904   2.665 -0.7022  0.2784 -0.0837
  267SOL    HW1  928   3.221   2.926   2.572 -0.5405 -0.3723 -0.2537
  267SOL    HW2  929   3.155   2.946   2.706 -0.5887  0.8626 -0.4551
  268SOL     OW  930   0.804   1.069   2.990  0.6506 -0.6088  0.0924
  268SOL    HW1  931   0.727   1.117   2.959 -0.2784 -2.8374 -1.2142
  268SOL    HW2  932   0.878   1.122   2.961 -0.3220  0.5364 -0.4078
  269SOL     OW  933   0.780   1.596   2.922 -0.6203  0.2254  0.0452
  269SOL    HW1  934   0.736   1.582   3.006  0.3381 -2.3696  0.1967
  269SOL    HW2  935   0.873   1.602   2.944 -0.4882  1.2085 -0.7004
  270SOL     OW  936   2.847   2.004   0.195  0.1807  0.2491  0.2312
  270SOL    HW1  937   2.768   2.021   0.142 -0.4475  0.6199  1.2542
  270SOL    HW2  938   2.814   1.965   0.276  1.3010 -2.2528 -0.4419
  271SOL     OW  939   3.388   1.382   0.051 -0.7037 -0.4900  0.3475
  271SOL    HW1  940   3.336   1.453   0.088  0.2029  1.3178 -1.5696
  271SOL    HW2  941   3.327   1.333  -0.004 -0.6020  1.3642 -1.5591
  272SOL     OW  942   1.842   1.013   0.548 -0.6873  0.1433  0.8344
  272SOL    HW1  943   1.823   1.107   0.544  0.8851  0.4522 -1.7262
  272SOL    HW2  944   1.936   1.007   0.527 -1.3162 -2.0999 -2.0086
  273SOL     OW  945   3.026   0.709   1.822 -0.4120 -0.2649 -0.1527
  273SOL    HW1  946   3.053   0.618   1.833  0.1857 -0.2369 -1.2835
  273SOL    HW2  947   3.036   0.727   1.729 -0.4630  0.9756  0.0548
  274SOL     OW  948   2.564   2.394   0.414 -0.9252 -0.3637  0.3605
  274SOL    HW1  949   2.623   2.381   0.488 -1.2091 -0.4609  0.5707
  274SOL    HW2  950   2.567   2.312   0.365 -0.3727 -0.1311  0.0012
  275SOL     OW  951   0.990   2.095   0.515 -0.5079  0.0153 -0.2587
  275SOL    HW1  952   1.054   2.137   0.458 -0.5668 -0.6432 -0.8221
  275SOL    HW2  953   1.029   2.102   0.603 -0.3248  0.8549 -0.3956
  276SOL     OW  954   3.580   1.072   3.424  0.5764  0.0782  0.0915
  276SOL    HW1  955   3.494   1.108   3.400  0.3480 -0.9592 -0.7291
  276SOL    HW2  956   3.584   1.082   3.519  0.5211  2.1998 -0.0761
  277SOL     OW  957   1.200   3.330   2.267 -0.8156  0.0067 -0.1110
  277SOL    HW1  958   1.106   3.347   2.269 -0.3555  3.1002  1.4877
  277SOL    HW2  959   1.235   3.392   2.203  0.3327  0.2715  0.7417
  278SOL     OW  960   2.897   1.643   0.451 -0.6132  0.0694 -0.0937
  278SOL    HW1  961   2.870   1.581   0.518  0.4403  0.3452  0.6123
  278SOL    HW2  962   2.970   1.691   0.490 -0.5213  0.8142 -1.1277
  279SOL     OW  963   2.829   0.475   2.086  0.3027 -0.2668  0.1629
  279SOL    HW1  964   2.763   0.513   2.028 -0.3128 -0.5633  0.6636
  279SOL    HW2  965   2.909   0.523   2.064  0.0137 -0.1610 -0.7110
  280SOL     OW  966   0.767   0.236   1.704  0.4162  0.9896  0.0499
  280SOL    HW1  967   0.822   0.312   1.685 -0.0635  0.7802 -2.4421
  280SOL    HW2  968   0.692   0.272   1.752  1.2035  1.7379  0.7527
  281SOL     OW  969   3.012   3.139   2.447  0.5003 -0.4354 -0.0775
  281SOL    HW1  970   3.051   3.198   2.510  0.3766 -0.2284 -0.1937
  281SOL    HW2  971   3.085   3.108   2.393  0.4845  0.0741 -0.3964
  282SOL     OW  972   1.470   2.186   0.441 -0.0516 -0.4407 -0.3724
  282SOL    HW1  973   1.558   2.165   0.409  1.7101  2.9758  1.7088
  282SOL    HW2  974   1.450   2.270   0.400 -1.7317 -0.4779  0.3281
  283SOL     OW  975   0.216   2.318   0.589  0.0905 -0.1687  0.1949
  283SOL    HW1  976   0.299   2.302   0.544  0.7969  0.6631  1.1453
  283SOL    HW2  977   0.149   2.288   0.528  1.0613 -0.2217 -0.8773
  284SOL     OW  978   2.213   0.864   2.815 -0.0149  0.1259  0.1553
  284SOL    HW1  979   2.211   0.948   2.770  2.1312  0.3429  0.3277
  284SOL    HW2  980   2.219   0.799   2.744 -0.4333  0.1936  0.0555
  285SOL     OW  981   3.714   3.579   0.111  0.1551 -0.0576 -0.0195
  285SOL    HW1  982   3.684   3.651   0.055  0.1768 -0.7314 -0.9287
  285SOL    HW2  983   3.721   3.617   0.198  0.9007  1.2252 -0.6245
  286SOL     OW  984   3.090   0.437   2.700 -0.8212 -0.0694 -0.0187
  286SOL    HW1  985   3.052   0.350   2.716 -0.6793 -0.2162 -0.4585
  286SOL    HW2  986   3.018   0.498   2.713 -0.8847 -0.2380  0.4540
  287SOL     OW  987   2.142   2.767   2.042 -0.5160  0.1142  0.0224
  287SOL    HW1  988   2.153   2.845   1.988  0.9934 -0.3581 -0.4016
  287SOL    HW2  989   2.058   2.780   2.087  0.5114  2.8129  1.3570
  288SOL     OW  990   1.356   2.649   0.055  0.0630  0.0486  0.1161
  288SOL    HW1  991   1.435   2.675   0.101  0.5121 -1.1933  0.0839
  288SOL    HW2  992   1.371   2.558   0.030 -0.8779  0.1551 -0.9600
  289SOL     OW  993   2.532   1.283   0.138  0.1797  0.0129 -0.3973
  289SOL    HW1  994   2.464   1.236   0.186  0.2693 -0.9876 -1.2395
  289SOL    HW2  995   2.488   1.320   0.062  0.5860 -0.6801 -0.9730
  290SOL     OW  996   3.403   0.056   1.100 -0.2157  0.5095 -0.0441
  290SOL    HW1  997   3.332   0.050   1.037 -1.0224 -4.3978  0.8793
  290SOL    HW2  998   3.362   0.090   1.180 -1.3056 -0.9958  0.0836
  291SOL     OW  999   0.006   0.453   1.181 -0.0012  0.0816 -0.0437
  291SOL    HW1 1000  -0.030   0.389   1.242  3.7903  1.0384  3.7136
  291SOL    HW2 1001   0.073   0.404   1.132  1.2874  0.5574  1.1743
  292SOL     OW 1002   1.636   0.366   2.961 -0.6875 -0.1294 -0.3970
  292SOL    HW1 1003   1.730   0.362   2.980 -0.6612 -0.9455 -0.6535
  292SOL    HW2 1004   1.629   0.336   2.871 -1.3186 -1.4705  0.0783
  293SOL     OW 1005   2.618   2.113   2.373 -0.1643 -0.1694  0.3770
  293SOL    HW1 1006   2.677   2.186   2.352 -0.4546  0.5024  1.7399
  293SOL    HW2 1007   2.643   2.088   2.462 -1.4489 -0.3604  0.6967
  294SOL     OW 1008   2.503   2.893   2.701  0.0354 -0.0099  0.1039
  294SOL    HW1 1009   2.435   2.856   2.645  1.7472 -0.9210 -1.4516
  294SOL    HW2 1010   2.509   2.985   2.675  0.4738 -0.3076 -0.8805
  295SOL     OW 1011   1.378   0.813   3.124  0.5366 -0.4285  0.2333
  295SOL    HW1 1012   1.459   0.762   3.119  0.0490 -1.3191  1.1168
  295SOL    HW2 1013   1.352   0.808   3.216  1.0948  2.4446  0.6334
  296SOL     OW 1014   2.388   0.576   0.772 -0.1299  0.0652  0.6220
  296SOL    HW1 1015   2.380   0.538   0.685  0.2357  0.4750  0.4066
  296SOL    HW2 1016   2.435   0.510   0.823  0.1633  0.0597  0.3518
  297SOL     OW 1017   1.590   2.743   3.088  0.0674 -0.2230  0.4525
  297SOL    HW1 1018   1.568   2.651   3.101  0.1268 -0.1786  0.8940
  297SOL    HW2 1019   1.685   2.746   3.093 -0.0188  0.1783  2.7284
  298SOL     OW 1020   1.237   2.363   0.203  0.1168 -0.7128 -0.9746
  298SOL    HW1 1021   1.224   2.278   0.245 -0.9702  0.3021  0.8704
  298SOL    HW2 1022   1.331   2.366   0.184  0.6326 -1.3816  1.1662
  299SOL     OW 1023   1.424   3.411   1.496 -0.2044 -0.1232 -0.3272
  299SOL    HW1 1024   1.383   3.336   1.539  0.6369  0.7512  2.1483
  299SOL    HW2 1025   1.517   3.401   1.514 -0.1355  1.8001  0.6265
  300SOL     OW 1026   2.505   0.332   0.858 -0.1919 -1.3580  0.2030
  300SOL    HW1 1027   2.477   0.251   0.900  0.1926 -2.2930 -1.2541
  300SOL    HW2 1028   2.486   0.319   0.765 -1.2186  0.7087  0.0580
  301SOL     OW 1029   3.078   1.017   2.564  0.5015 -0.3272  0.2547
  301SOL    HW1 1030   3.012   0.971   2.512 -0.5704 -0.0058  1.2992
  301SOL    HW2 1031   3.161   0.981   2.534 -0.0694 -0.2031 -1.6475
  302SOL     OW 1032   2.448   2.157   2.895  0.4767 -0.0772  0.0684
  302SOL    HW1 1033   2.407   2.195   2.973  2.5220 -0.0595  1.2134
  302SOL    HW2 1034   2.525   2.212   2.879  0.0143  0.0303 -2.1263
  303SOL     OW 1035   0.441   2.503   2.358  0.1584  0.4412 -0.0784
  303SOL    HW1 1036   0.424   2.408   2.354 -2.6422  0.7635  1.3459
  303SOL    HW2 1037   0.532   2.512   2.331 -0.5743 -2.2257 -4.4336
  304SOL     OW 1038   0.286   1.785   2.677  0.6601  0.0316 -0.4239
  304SOL    HW1 1039   0.378   1.759   2.679  0.5259 -1.1250  4.5672
  304SOL    HW2 1040   0.284   1.871   2.719 -0.5467 -0.5320  0.7797
  305SOL     OW 1041   1.748   1.100   2.929 -0.0999 -0.0470 -0.0560
  305SOL    HW1 1042   1.838   1.098   2.895 -0.1286 -4.0834 -0.3084
  305SOL    HW2 1043   1.694   1.110   2.851  0.0432  1.1183 -0.0277
  306SOL     OW 1044   1.249   1.719   0.684 -0.1211 -0.3978  0.3474
  306SOL    HW1 1045   1.167   1.738   0.730 -0.4785  2.8461 -1.3261
  306SOL    HW2 1046   1.221   1.678   0.602  0.0345 -0.2162  0.2052
  307SOL     OW 1047   1.560   3.276   0.398  0.3657  0.2062 -0.3715
  307SOL    HW1 1048   1.540   3.183   0.395 -1.6335  0.6238 -1.0393
  307SOL    HW2 1049   1.493   3.313   0.456  0.5607  1.3595 -0.8618
  308SOL     OW 1050   2.837   0.841   1.230 -0.4182 -0.6165  0.1077
  308SOL    HW1 1051   2.885   0.921   1.250  0.4484 -0.4155 -2.4923
  308SOL    HW2 1052   2.751   0.854   1.271 -0.6725  2.1394 -1.1258
  309SOL     OW 1053   2.380   2.298   1.278  0.2217 -0.6010  0.1470
  309SOL    HW1 1054   2.404   2.372   1.333 -1.9318  0.9031 -0.7696
  309SOL    HW2 1055   2.292   2.275   1.307  0.1924 -1.6822 -0.7427
  310SOL     OW 1056   1.110   1.644   3.682  0.0536  0.2476  0.6917
  310SOL    HW1 1057   1.113   1.644   3.778 -1.3355 -0.7200  0.7719
  310SOL    HW2 1058   1.057   1.567   3.660 -1.6580  1.7470 -0.7741
  311SOL     OW 1059   2.321   2.673   0.716  0.0527 -0.1330 -0.0148
  311SOL    HW1 1060   2.290   2.728   0.788  1.7261 -0.1275  0.7419
  311SOL    HW2 1061   2.351   2.593   0.759  0.6595 -0.3063 -0.7479
  312SOL     OW 1062   3.444   1.514   0.789 -0.3679  0.6236  0.2017
  312SOL    HW1 1063   3.498   1.442   0.821  1.6063  1.3975 -1.2450
  312SOL    HW2 1064   3.430   1.569   0.866  1.6348  0.8383  0.4591
  313SOL     OW 1065   2.516   1.316   3.294 -0.1470 -0.5002 -0.5683
  313SOL    HW1 1066   2.564   1.234   3.311  0.1399 -1.1436 -3.8531
  313SOL    HW2 1067   2.582   1.385   3.302  0.2743 -0.8969 -0.5899
  314SOL     OW 1068   0.005   1.006   1.271 -0.2234 -0.2691  0.6661
  314SOL    HW1 1069  -0.046   0.925   1.264  1.8123 -1.4422 -3.0816
  314SOL    HW2 1070   0.073   0.986   1.335 -0.0407 -1.3746  0.1398
  315SOL     OW 1071   3.290   1.696   0.961  0.4570 -0.3901 -0.0404
  315SOL    HW1 1072   3.240   1.775   0.981 -0.1130 -0.5063 -0.9332
  315SOL    HW2 1073   3.247   1.627   1.013  1.3047 -0.0314  1.1751
  316SOL     OW 1074   0.512   3.499   2.032 -0.3887  0.4499  0.1168
  316SOL    HW1 1075   0.417   3.505   2.018 -0.4964 -1.0177  0.0673
  316SOL    HW2 1076   0.521   3.444   2.110  0.4359 -0.4203 -0.5712
  317SOL     OW 1077   0.543   0.375   2.162 -0.7492 -0.2605 -0.0670
  317SOL    HW1 1078   0.510   0.292   2.197  1.2655 -0.8845  0.5338
  317SOL    HW2 1079   0.572   0.424   2.239  0.6011 -0.1959 -0.5840
  318SOL     OW 1080   1.997   2.985   3.194  0.0179  0.0902 -0.1996
  318SOL    HW1 1081   2.033   3.032   3.119  0.8181 -0.2444 -0.0342
  318SOL    HW2 1082   1.952   3.053   3.245  1.0687  0.6764 -0.0156
  319SOL     OW 1083   1.313   1.923   1.272 -0.4495 -0.4566 -0.2764
  319SOL    HW1 1084   1.238   1.923   1.212 -0.6065 -0.5516 -0.0794
  319SOL    HW2 1085   1.333   1.831   1.285 -1.9857 -0.5593  1.7800
  320SOL     OW 1086   2.193   3.014   1.453  0.6348  0.1943  0.0687
  320SOL    HW1 1087   2.287   3.001   1.439  0.9814  0.9603  1.5458
  320SOL    HW2 1088   2.169   2.949   1.519 -0.3051 -1.2717 -1.6409
  321SOL     OW 1089   2.270   0.454   2.765  0.5983  0.2420  0.1013
  321SOL    HW1 1090   2.251   0.446   2.859  0.6592 -0.9633  0.0272
  321SOL    HW2 1091   2.184   0.463   2.724  0.5761  0.8503  0.2759
  322SOL     OW 1092   0.487   0.114   2.272 -0.1646  0.0972  0.1187
  322SOL    HW1 1093   0.577   0.095   2.245 -0.0998 -0.0806  0.4509
  322SOL    HW2 1094   0.435   0.101   2.193  0.1165  0.3170 -0.1036
  323SOL     OW 1095   1.695   3.473   1.322 -0.0248 -0.0226 -0.3477
  323SOL    HW1 1096   1.737   3.392   1.293 -1.0049 -0.6503 -0.0667
  323SOL    HW2 1097   1.653   3.507   1.243  0.8732  0.5333 -0.5980
  324SOL     OW 1098   2.947   2.159   1.972 -0.2785 -0.3268  0.0859
  324SOL    HW1 1099   3.038   2.144   1.998 -0.2843  1.4035  1.2493
  324SOL    HW2 1100   2.896   2.106   2.032 -0.0558 -2.2076 -1.2937
  325SOL     OW 1101   0.561   2.746   2.962 -0.6556 -0.9187 -0.5067
  325SOL    HW1 1102   0.470   2.759   2.936 -0.2662 -0.7027 -1.8151
  325SOL    HW2 1103   0.607   2.823   2.928 -0.2131 -0.2712  1.4315
  326SOL     OW 1104   0.101   3.703   0.465 -0.1040  0.2078 -0.2235
  326SOL    HW1 1105   0.044   3.685   0.541 -0.6331  2.2349 -0.0868
  326SOL    HW2 1106   0.116   3.617   0.426  0.7319 -1.0403  2.5384
  327SOL     OW 1107   3.016   2.301   1.141  0.7993  0.7161 -0.3177
  327SOL    HW1 1108   2.944   2.314   1.203  1.5362  2.7146  0.1834
  327SOL    HW2 1109   3.090   2.275   1.196  0.7373 -0.3840 -0.7274
  328SOL     OW 1110   0.509   1.896   1.030 -0.2068  0.0931 -0.1951
  328SOL    HW1 1111   0.426   1.856   1.005  0.5914  0.0505 -3.0300
  328SOL    HW2 1112   0.540   1.842   1.103 -2.8878  0.5156  1.4313
  329SOL     OW 1113   0.316   2.114   1.058 -0.0284  0.4536  0.3446
  329SOL    HW1 1114   0.224   2.124   1.033 -0.4627  2.5712  2.4648
  329SOL    HW2 1115   0.354   2.061   0.987 -3.2242 -2.1281  0.3131
  330SOL     OW 1116   3.641   2.374   3.010 -0.2532 -0.1776  0.2125
  330SOL    HW1 1117   3.717   2.360   2.953 -1.2763 -0.4763 -1.1334
  330SOL    HW2 1118   3.678   2.413   3.089  1.2988 -0.2800 -0.4147
  331SOL     OW 1119   2.966   3.216   0.705  0.7088  0.0889  0.0478
  331SOL    HW1 1120   3.009   3.247   0.625  0.9678  0.5532  0.3647
  331SOL    HW2 1121   3.020   3.250   0.776  0.9610 -1.0274  0.4109
  332SOL     OW 1122   3.644   0.395   3.236 -0.5083  0.3170 -0.8143
  332SOL    HW1 1123   3.647   0.465   3.171  3.6842  1.8171  0.7127
  332SOL    HW2 1124   3.702   0.327   3.200 -0.2823 -0.0171  0.1615
  333SOL     OW 1125   2.957   2.686   0.741 -0.1932  0.2119  0.0735
  333SOL    HW1 1126   2.971   2.626   0.815 -0.0023 -0.3837 -0.4405
  333SOL    HW2 1127   2.862   2.684   0.727 -0.1014 -0.6587 -0.4997
  334SOL     OW 1128   3.059   3.020   1.034  0.1916  0.8185 -0.1082
  334SOL    HW1 1129   3.114   3.003   1.111  1.6822  1.1497 -1.0570
  334SOL    HW2 1130   3.116   3.068   0.974 -1.2094  1.3490 -1.0745
  335SOL     OW 1131   2.786   2.522   2.688 -0.0284  0.0823  0.1870
  335SOL    HW1 1132   2.848   2.502   2.618 -1.4684 -2.2693 -0.5156
  335SOL    HW2 1133   2.803   2.614   2.709  1.2544  0.5328 -2.4018
  336SOL     OW 1134   0.796   3.517   3.493  0.6121 -0.2106 -0.8586
  336SOL    HW1 1135   0.888   3.514   3.519  0.5146  1.0203 -0.3119
  336SOL    HW2 1136   0.750   3.464   3.558  0.6183  1.3100  0.4478
  337SOL     OW 1137   1.617   1.957   3.664  0.5184  0.0726 -0.2297
  337SOL    HW1 1138   1.681   1.923   3.727  0.1626 -0.9894 -0.4183
  337SOL    HW2 1139   1.599   1.883   3.606  1.1953  1.1581 -1.8849
  338SOL     OW 1140   3.062   0.630   2.921 -0.4759 -1.1430  0.1172
  338SOL    HW1 1141   3.035   0.686   2.994 -1.0850 -1.6536  0.2941
  338SOL    HW2 1142   3.020   0.670   2.845 -3.0446 -2.7013  0.5603
  339SOL     OW 1143   0.905   0.057   3.084  0.1039  0.3132  0.0374
  339SOL    HW1 1144   0.927   0.150   3.095  1.3343 -0.0171  0.6180
  339SOL    HW2 1145   0.979   0.022   3.035 -0.2402 -0.4085  0.0307
  340SOL     OW 1146   1.366   2.898   2.544  0.3151  0.6046 -0.6870
  340SOL    HW1 1147   1.330   2.840   2.478 -0.6520 -0.0469  0.3835
  340SOL    HW2 1148   1.452   2.862   2.565  0.0326 -0.0159 -0.5797
  341SOL     OW 1149   2.411   1.386   2.593  0.8962  0.5528 -0.2914
  341SOL    HW1 1150   2.394   1.328   2.668  3.0537  0.4138  0.1415
  341SOL    HW2 1151   2.328   1.386   2.544  0.2414 -1.4174  0.6914
  342SOL     OW 1152   3.117   1.476   3.100 -0.0672  0.5918  1.0109
  342SOL    HW1 1153   3.064   1.397   3.113  0.2171  0.2086 -0.0163
  342SOL    HW2 1154   3.185   1.449   3.038  0.9487  1.2505  1.7944
  343SOL     OW 1155   2.119   0.253   3.646  0.4603 -0.3558 -0.0734
  343SOL    HW1 1156   2.197   0.198   3.654  0.9783  0.2843 -0.6225
  343SOL    HW2 1157   2.142   0.317   3.579  0.5044  1.6285  1.7476
  344SOL     OW 1158   2.412   2.989   3.110 -0.0058 -0.1767  0.7204
  344SOL    HW1 1159   2.380   2.935   3.182  1.6996 -1.4707  0.5702
  344SOL    HW2 1160   2.402   2.935   3.032 -0.9104  0.8334  0.1204
  345SOL     OW 1161   1.184   1.114   2.053 -0.0745 -0.4902  1.1240
  345SOL    HW1 1162   1.273   1.143   2.077  0.2275 -1.0310  0.6745
  345SOL    HW2 1163   1.190   1.019   2.049 -0.3354 -0.4613 -0.2442
  346SOL     OW 1164   0.016   3.713   2.675  0.0640  0.0532  0.3909
  346SOL    HW1 1165   0.040   3.637   2.728  0.0790 -0.5827 -0.5143
  346SOL    HW2 1166   0.071   3.707   2.597 -0.9108  0.2168 -0.3325
  347SOL     OW 1167   0.822   1.258   0.385  0.5114  0.7462 -0.0935
  347SOL    HW1 1168   0.763   1.183   0.392  0.6521  0.6146 -0.3043
  347SOL    HW2 1169   0.909   1.221   0.402  0.6142  0.8086 -0.4706
  348SOL     OW 1170   0.870   1.230   0.737  0.1174  0.1924 -0.5829
  348SOL    HW1 1171   0.915   1.146   0.731  1.0208  0.5659  0.5706
  348SOL    HW2 1172   0.787   1.210   0.781  1.3158  0.1900  1.8596
  349SOL     OW 1173   1.648   1.322   0.877 -0.1419  0.4972 -0.2291
  349SOL    HW1 1174   1.582   1.344   0.812  0.0532  1.4189 -0.1297
  349SOL    HW2 1175   1.727   1.367   0.848 -0.2541  1.5573  1.0331
  350SOL     OW 1176   1.050   3.013   2.254  0.4386 -0.2986  0.0020
  350SOL    HW1 1177   1.091   3.099   2.248  1.0875 -0.5231  0.9720
  350SOL    HW2 1178   1.118   2.952   2.224 -0.1258 -0.4597 -0.9956
  351SOL     OW 1179   3.556   2.700   2.423 -0.1019  0.0502  0.2561
  351SOL    HW1 1180   3.502   2.698   2.344  2.0700 -2.5378 -1.3121
  351SOL    HW2 1181   3.598   2.786   2.421 -2.6360  1.4091  0.5747
  352SOL     OW 1182   2.281   2.228   3.680  0.1547 -0.5796  0.5325
  352SOL    HW1 1183   2.259   2.278   3.602  2.5197  0.8286  0.6707
  352SOL    HW2 1184   2.252   2.139   3.661 -0.6291  0.0328 -1.3317
  353SOL     OW 1185   1.228   0.853   2.123 -0.7252 -0.7299 -0.0523
  353SOL    HW1 1186   1.255   0.826   2.211 -3.7695 -1.5936  0.7683
  353SOL    HW2 1187   1.214   0.771   2.076  0.2462 -0.2840 -1.1528
  354SOL     OW 1188   1.038   3.434   1.314  0.5422 -0.6373 -0.0135
  354SOL    HW1 1189   1.011   3.467   1.399  0.2668 -0.9696  0.0301
  354SOL    HW2 1190   1.050   3.340   1.326  1.6300 -0.5222 -0.0605
  355SOL     OW 1191   1.773   2.506   1.314 -0.2505 -0.0221  0.4210
  355SOL    HW1 1192   1.796   2.460   1.233  2.4237 -0.7265  1.4871
  355SOL    HW2 1193   1.742   2.436   1.373 -2.2204  0.4915  0.0595
  356SOL     OW 1194   3.636   2.087   0.076 -0.0559 -0.3479  0.1661
  356SOL    HW1 1195   3.631   1.998   0.112  0.3578 -0.5078 -0.1579
  356SOL    HW2 1196   3.566   2.091   0.011  0.6028 -0.8113 -0.5999
  357SOL     OW 1197   3.689   2.571   0.379  0.0999 -0.5436  0.0076
  357SOL    HW1 1198   3.682   2.622   0.299 -0.1855  2.3719  1.7509
  357SOL    HW2 1199   3.781   2.579   0.406 -0.6582  2.4265  2.2134
  358SOL     OW 1200   1.190   1.018   1.721  0.1113  0.1118  0.3829
  358SOL    HW1 1201   1.192   1.038   1.627  1.6852  0.3465  0.4402
  358SOL    HW2 1202   1.132   0.942   1.728 -0.9607  0.8077 -0.6211
  359SOL     OW 1203   2.903   1.094   0.112  0.4338 -0.1856  0.0825
  359SOL    HW1 1204   2.887   1.113   0.020  0.4950  0.2636  0.1611
  359SOL    HW2 1205   2.952   1.011   0.112 -2.2463 -1.8819 -0.1431
  360SOL     OW 1206   0.531   2.887   1.666  0.5654  0.1627 -0.1459
  360SOL    HW1 1207   0.520   2.911   1.574 -1.2727 -1.7937 -0.4997
  360SOL    HW2 1208   0.452   2.920   1.709  0.2160 -1.1211  0.2253
  361SOL     OW 1209   2.363   2.492   1.503 -0.0206 -0.0198  0.0715
  361SOL    HW1 1210   2.286   2.541   1.472 -1.5856 -2.5775 -0.3710
  361SOL    HW2 1211   2.426   2.560   1.526 -2.0332  2.1950 -0.4715
  362SOL     OW 1212   0.418   2.236   3.319  0.3221  0.4537 -0.0986
  362SOL    HW1 1213   0.388   2.265   3.405 -0.3483  0.2680 -0.2639
  362SOL    HW2 1214   0.447   2.316   3.275  1.7787  0.4065  0.7151
  363SOL     OW 1215   2.472  -0.030   2.117  0.4813  0.6883 -0.3081
  363SOL    HW1 1216   2.522   0.050   2.096 -0.7462  1.6491  0.3210
  363SOL    HW2 1217   2.386  -0.015   2.077 -0.0242  0.0416  0.5195
  364SOL     OW 1218   1.573   3.099   2.233 -0.5303 -0.0408 -0.1058
  364SOL    HW1 1219   1.632   3.170   2.209 -0.4142 -0.4913 -1.2106
  364SOL    HW2 1220   1.588   3.085   2.327 -0.0070  0.8738 -0.0484
  365SOL     OW 1221   3.238   2.168   1.324  0.6281 -0.5366  0.7389
  365SOL    HW1 1222   3.175   2.111   1.369  0.6441 -0.6593  0.6052
  365SOL    HW2 1223   3.266   2.117   1.248 -1.9360  0.8931 -1.3628
  366SOL     OW 1224   3.522   1.385   1.229  0.0216  0.0989  0.5867
  366SOL    HW1 1225   3.466   1.394   1.306  0.6843  2.2401  0.8814
  366SOL    HW2 1226   3.578   1.463   1.230  0.8042 -0.3617 -1.4658
  367SOL     OW 1227   3.494   0.245   0.863  0.9268 -0.2603  0.2717
  367SOL    HW1 1228   3.445   0.315   0.904  1.0006  0.9495 -1.5831
  367SOL    HW2 1229   3.473   0.167   0.914 -0.1858  0.8596  1.5865
  368SOL     OW 1230   2.804   1.672   3.077  0.0278 -0.1841 -0.2236
  368SOL    HW1 1231   2.712   1.675   3.053 -0.1585 -1.4793  0.2501
  368SOL    HW2 1232   2.818   1.583   3.109  1.6998 -0.3538 -1.2990
  369SOL     OW 1233   3.369   2.599   1.647  0.1767 -0.8284  0.9368
  369SOL    HW1 1234   3.413   2.545   1.582  2.0147  0.1142  1.3151
  369SOL    HW2 1235   3.303   2.648   1.598  1.1984 -0.4987 -0.1653
  370SOL     OW 1236   1.975   1.333   3.608 -0.1992 -0.1791 -0.2421
  370SOL    HW1 1237   1.898   1.281   3.587 -0.3513  0.4032 -1.1833
  370SOL    HW2 1238   1.979   1.334   3.704 -1.2396 -0.3729 -0.1900
  371SOL     OW 1239   1.597   3.073   2.707  0.4650  0.0121 -0.3873
  371SOL    HW1 1240   1.638   3.005   2.761  1.2897 -1.1800 -2.3924
  371SOL    HW2 1241   1.510   3.040   2.687  1.0938 -0.8509 -1.9022
  372SOL     OW 1242   2.203   0.388   0.965  0.1320 -0.4202  0.4751
  372SOL    HW1 1243   2.206   0.383   0.869 -0.7667 -0.2993  0.4398
  372SOL    HW2 1244   2.268   0.324   0.994  2.6548  1.6343 -0.2247
  373SOL     OW 1245   3.589   1.807   0.063 -0.4698 -0.3566 -0.3656
  373SOL    HW1 1246   3.607   1.834  -0.027  2.4857  1.1019  0.5472
  373SOL    HW2 1247   3.497   1.779   0.061 -0.1139 -1.8735 -4.1217
  374SOL     OW 1248   2.597   2.838   3.349 -0.2927 -0.1260  0.3470
  374SOL    HW1 1249   2.634   2.791   3.274  0.8827 -1.0174  1.4400
  374SOL    HW2 1250   2.600   2.774   3.421  0.3593  1.2848  1.6175
  375SOL     OW 1251   1.680   1.615   0.645  0.1445  1.2643 -0.1507
  375SOL    HW1 1252   1.634   1.689   0.683 -0.6953 -0.1489  1.7636
  375SOL    HW2 1253   1.620   1.541   0.657  2.7892 -0.6724  2.4716
  376SOL     OW 1254   3.108   0.855   0.062  0.4695  0.2419  1.0297
  376SOL    HW1 1255   3.063   0.814   0.136 -0.4636  2.6887  1.9343
  376SOL    HW2 1256   3.102   0.791  -0.009 -1.7452 -0.7593  2.0372
  377SOL     OW 1257   2.759   2.176   2.603  0.2399  0.0801 -0.2235
  377SOL    HW1 1258   2.733   2.183   2.695  0.1549 -0.5347 -0.1982
  377SOL    HW2 1259   2.854   2.184   2.604  0.3937 -1.5219  0.0988
  378SOL     OW 1260   2.604   1.362   1.396  0.0306  0.5370  0.0216
  378SOL    HW1 1261   2.687   1.316   1.386 -0.2389 -0.2105  1.0637
  378SOL    HW2 1262   2.598   1.381   1.490 -0.5977  1.3114 -0.1660
  379SOL     OW 1263   1.061   2.022   1.149 -0.0523  0.0963  0.0827
  379SOL    HW1 1264   0.996   2.011   1.219 -0.4073 -0.3902 -0.3209
  379SOL    HW2 1265   1.014   2.071   1.082 -0.1080 -0.5342 -0.3460
  380SOL     OW 1266   3.645   1.903   1.606 -0.7514 -0.3395 -0.6298
  380SOL    HW1 1267   3.617   1.994   1.601  1.4816  0.4297 -0.2904
  380SOL    HW2 1268   3.669   1.890   1.698 -0.7408 -1.1800 -0.7404
  381SOL     OW 1269   3.125   3.309   2.598  0.4609 -0.0760  1.2344
  381SOL    HW1 1270   3.147   3.306   2.692  1.9339  1.4990  0.9924
  381SOL    HW2 1271   3.193   3.365   2.560 -0.3010 -0.4323 -0.7378
  382SOL     OW 1272   2.124   3.178   1.135  0.2059 -0.0767 -0.1869
  382SOL    HW1 1273   2.174   3.259   1.138  1.0129 -0.5546 -0.5594
  382SOL    HW2 1274   2.066   3.188   1.059  1.1684 -0.3254 -0.9807
  383SOL     OW 1275   1.845   0.677   1.914 -0.7154  0.6929  0.0626
  383SOL    HW1 1276   1.896   0.756   1.933  1.0468 -0.3306 -0.1262
  383SOL    HW2 1277   1.869   0.616   1.984  0.1533 -0.6103 -1.3098
  384SOL     OW 1278   1.584   2.702   1.388  0.0639  0.3846  0.0570
  384SOL    HW1 1279   1.530   2.651   1.449 -0.1086  0.6505  0.1270
  384SOL    HW2 1280   1.640   2.637   1.346  0.0997  0.1831  0.4111
  385SOL     OW 1281   2.382   2.510   1.992 -0.0992 -0.0629  0.1330
  385SOL    HW1 1282   2.468   2.473   2.011  0.6779  0.9003 -1.2267
  385SOL    HW2 1283   2.332   2.500   2.073  1.2481 -0.7576  0.9145
  386SOL     OW 1284   2.155   3.613   2.286 -0.0254  0.1255 -0.0511
  386SOL    HW1 1285   2.079   3.555   2.276  1.0224 -1.2837 -0.1449
  386SOL    HW2 1286   2.199   3.580   2.365 -0.4223  2.0294  1.0334
  387SOL     OW 1287   0.447   0.537   0.636 -0.3604 -0.3050  0.4299
  387SOL    HW1 1288   0.392   0.578   0.702 -0.7111 -0.3280  0.1573
  387SOL    HW2 1289   0.471   0.452   0.673 -0.1663 -0.1202  0.7245
  388SOL     OW 1290   1.943   2.721   0.170 -0.1059 -0.0914 -0.0007
  388SOL    HW1 1291   1.956   2.630   0.196 -0.1756 -0.1776 -0.2746
  388SOL    HW2 1292   1.994   2.771   0.234  0.8332 -0.3816 -0.5025
  389SOL     OW 1293   0.122   1.728   0.085 -0.5219  0.0706  0.0834
  389SOL    HW1 1294   0.029   1.733   0.063 -0.2083 -1.0252 -1.7594
  389SOL    HW2 1295   0.131   1.644   0.131 -0.1298 -1.1343 -2.0175
  390SOL     OW 1296   1.907   2.534   0.534 -0.1407  0.5458  0.0187
  390SOL    HW1 1297   1.912   2.531   0.630  0.4214 -0.5560 -0.0270
  390SOL    HW2 1298   1.890   2.443   0.508  0.9483  0.6029 -0.9738
  391SOL     OW 1299   0.409   1.828   3.332  0.0976 -0.1229 -0.0455
  391SOL    HW1 1300   0.325   1.810   3.375  0.0320 -2.1824 -0.9338
  391SOL    HW2 1301   0.447   1.899   3.384 -0.6299 -1.5006  2.5492
  392SOL     OW 1302   3.073   0.477   1.319  0.3837  0.1178 -0.0259
  392SOL    HW1 1303   2.978   0.482   1.325  0.3580  0.2069 -0.4272
  392SOL    HW2 1304   3.101   0.567   1.301  0.2784 -0.3360 -2.9596
  393SOL     OW 1305   1.525   3.194   1.910  0.4894 -0.2460  0.1254
  393SOL    HW1 1306   1.445   3.244   1.923 -0.6140 -1.7921 -0.4458
  393SOL    HW2 1307   1.554   3.217   1.822 -1.6909 -2.7081 -1.3997
  394SOL     OW 1308   1.982   1.923   2.027  0.3729  0.2072 -0.3107
  394SOL    HW1 1309   2.021   1.937   1.941  0.6874  0.0846 -0.1920
  394SOL    HW2 1310   1.919   1.852   2.014 -0.2016  0.7597 -0.6154
  395SOL     OW 1311   1.955   0.940   2.378  0.7018 -0.4873  0.3393
  395SOL    HW1 1312   1.970   0.880   2.451 -3.1737 -3.1675 -0.7067
  395SOL    HW2 1313   1.939   1.025   2.420  3.6587 -0.6687  2.0955
  396SOL     OW 1314   2.883   3.236   3.028  0.4635  0.7635  0.4076
  396SOL    HW1 1315   2.945   3.184   3.078  1.5745 -1.3170 -2.8357
  396SOL    HW2 1316   2.797   3.200   3.051  0.8231  0.5789  1.5227
  397SOL     OW 1317   2.512   3.234   1.308  0.2939 -0.0683  0.1515
  397SOL    HW1 1318   2.605   3.226   1.284 -0.2343 -2.2786 -1.3673
  397SOL    HW2 1319   2.490   3.151   1.349 -1.6148 -0.5936 -1.7714
  398SOL     OW 1320   1.307   3.071   1.157  0.6619 -0.3146 -0.2764
  398SOL    HW1 1321   1.338   3.155   1.192 -3.2136  1.4790 -0.6086
  398SOL    HW2 1322   1.319   3.009   1.228 -2.0326  2.0274  2.5000
  399SOL     OW 1323   1.473   1.456   0.686  0.6643  0.0387 -0.3911
  399SOL    HW1 1324   1.415   1.489   0.754  1.6462  0.9987  0.0109
  399SOL    HW2 1325   1.416   1.439   0.611 -0.0302  1.6686 -0.2644
  400SOL     OW 1326   0.985   0.356   1.636 -0.3099  0.0529  0.6179
  400SOL    HW1 1327   1.020   0.437   1.674  0.0555  0.4740 -0.5768
  400SOL    HW2 1328   0.986   0.372   1.541  3.0240 -2.5851  0.0330
  401SOL     OW 1329   0.658   3.240   2.898 -0.0664 -0.0432  0.2784
  401SOL    HW1 1330   0.569   3.221   2.869  0.2040 -0.5821 -0.2222
  401SOL    HW2 1331   0.694   3.155   2.922  0.1736  0.2247  0.8947
  402SOL     OW 1332   2.332   0.143   0.969 -0.0265 -0.5951 -0.0888
  402SOL    HW1 1333   2.340   0.105   1.057  1.3649  0.7430  0.4099
  402SOL    HW2 1334   2.371   0.078   0.911 -0.7828 -1.4080  0.2868
  403SOL     OW 1335   1.470   1.456   1.505  0.4019  0.2532 -0.1370
  403SOL    HW1 1336   1.481   1.361   1.501  1.4727  0.3598 -0.1262
  403SOL    HW2 1337   1.536   1.485   1.568 -0.2043  0.9633  0.1810
  404SOL     OW 1338   3.244   1.802   3.316  0.3428 -1.0019 -0.3401
  404SOL    HW1 1339   3.210   1.769   3.233  0.0029  2.6349 -1.8722
  404SOL    HW2 1340   3.339   1.808   3.303  0.2459 -0.0325 -0.6698
  405SOL     OW 1341   1.990   0.736   0.647 -0.0713  0.2117 -0.5255
  405SOL    HW1 1342   2.040   0.655   0.654 -0.2220  0.0872 -0.8554
  405SOL    HW2 1343   1.930   0.721   0.574  0.5850  0.9896 -1.2513
  406SOL     OW 1344   2.545   0.825   0.703  0.3176 -0.2755  0.6533
  406SOL    HW1 1345   2.597   0.846   0.781 -0.6927  0.0997  1.2312
  406SOL    HW2 1346   2.520   0.733   0.714  1.1962 -0.5939  0.1578
  407SOL     OW 1347   2.410   1.628   3.158 -0.2400 -0.3827 -0.6520
  407SOL    HW1 1348   2.423   1.722   3.163  0.5011 -0.4749 -0.8262
  407SOL    HW2 1349   2.380   1.603   3.245  0.7877 -0.1764 -0.2355
  408SOL     OW 1350   1.764   0.625   0.491  0.1742  1.1033  0.0381
  408SOL    HW1 1351   1.708   0.616   0.568 -2.2121 -0.5311 -1.7189
  408SOL    HW2 1352   1.812   0.542   0.487  1.6637  1.9009  0.6968
  409SOL     OW 1353   2.697   0.234   2.836 -0.2549 -0.4180 -0.1823
  409SOL    HW1 1354   2.767   0.169   2.845 -1.5929 -2.4143 -2.7510
  409SOL    HW2 1355   2.727   0.293   2.767  1.0174  1.9776  2.2380
  410SOL     OW 1356   3.235   2.719   1.143  0.4285 -0.0971 -0.3365
  410SOL    HW1 1357   3.267   2.633   1.117  0.8906 -1.1148  3.1766
  410SOL    HW2 1358   3.239   2.771   1.062  1.3169 -2.9557 -2.2911
  411SOL     OW 1359   3.559   2.725   2.154 -0.4486  0.4123 -0.2590
  411SOL    HW1 1360   3.509   2.694   2.078  0.1225  0.8564 -0.8255
  411SOL    HW2 1361   3.649   2.696   2.137 -0.1919  1.0846 -0.0672
  412SOL     OW 1362   0.687   3.447   1.131 -0.2199  0.2954 -0.2067
  412SOL    HW1 1363   0.610   3.477   1.179 -0.8763 -0.4977 -0.7458
  412SOL    HW2 1364   0.730   3.386   1.190 -1.9016 -1.9485 -1.1433
  413SOL     OW 1365   0.543   1.757   0.572 -0.1927  0.3880  0.8704
  413SOL    HW1 1366   0.595   1.783   0.649 -2.8499 -0.9139  3.2875
  413SOL    HW2 1367   0.586   1.678   0.540  0.4846  0.4610  1.5609
  414SOL     OW 1368   0.220   3.520   3.744 -0.2375 -0.3761 -0.3193
  414SOL    HW1 1369   0.232   3.553   3.655  0.7693 -1.0811 -0.4685
  414SOL    HW2 1370   0.129   3.540   3.765 -1.6001 -3.1677 -2.8013
  415SOL     OW 1371   0.183   0.581   1.886 -0.6094  0.5377  0.1445
  415SOL    HW1 1372   0.252   0.607   1.946 -0.2037  1.8014 -0.8090
  415SOL    HW2 1373   0.160   0.662   1.839 -1.7522 -0.1451 -0.5356
  416SOL     OW 1374   1.987   3.660   1.932  0.2624 -0.4433  0.1288
  416SOL    HW1 1375   2.064   3.607   1.952  0.6478 -0.4642 -1.2963
  416SOL    HW2 1376   1.971   3.646   1.839  1.1109  2.8373 -0.6461
  417SOL     OW 1377   1.094   1.889   2.072 -0.4176 -0.1422  0.2410
  417SOL    HW1 1378   1.069   1.903   1.981 -0.0106 -1.3463 -0.0669
  417SOL    HW2 1379   1.163   1.953   2.089  0.6001 -0.9378 -0.7792
  418SOL     OW 1380   2.625   0.853   1.620 -0.3212 -0.2823 -0.7212
  418SOL    HW1 1381   2.608   0.858   1.526  1.6093 -2.4928 -1.3043
  418SOL    HW2 1382   2.592   0.767   1.646 -1.1062  0.4196  0.7257
  419SOL     OW 1383   3.214   0.111   0.460  0.2356  0.6604 -0.2252
  419SOL    HW1 1384   3.137   0.158   0.491  0.3047  0.7848 -0.2422
  419SOL    HW2 1385   3.180   0.050   0.395  0.3425  1.7896 -1.3799
  420SOL     OW 1386   2.855   2.948   0.404 -0.2473  0.2169 -0.1499
  420SOL    HW1 1387   2.794   2.958   0.477  0.6818  0.4117  0.6254
  420SOL    HW2 1388   2.799   2.942   0.326 -1.2656 -0.1816  0.5868
  421SOL     OW 1389   3.066   0.658   3.580 -0.0461  0.1484 -0.6996
  421SOL    HW1 1390   3.004   0.590   3.607  3.3930 -2.2670  1.8134
  421SOL    HW2 1391   3.073   0.646   3.485 -2.4204 -0.2683 -0.9046
  422SOL     OW 1392   2.390   0.674   2.336 -0.0076  0.2880 -0.9702
  422SOL    HW1 1393   2.427   0.630   2.260  2.1447 -2.0716  1.2504
  422SOL    HW2 1394   2.459   0.733   2.366 -0.2485  0.1187 -0.0457
  423SOL     OW 1395   0.112   3.154   3.447 -0.4189  0.6221  0.3485
  423SOL    HW1 1396   0.061   3.073   3.443  0.3206  0.0336  1.8225
  423SOL    HW2 1397   0.170   3.141   3.522  1.2784  1.6218 -0.7264
  424SOL     OW 1398   1.310   3.457   2.947 -0.5861  0.3056  0.2167
  424SOL    HW1 1399   1.311   3.378   2.892 -1.8547  0.2139  0.2888
  424SOL    HW2 1400   1.372   3.439   3.017 -2.1249 -1.3880  1.2240
  425SOL     OW 1401   1.337   3.666   3.643  0.1891 -0.5630 -0.5935
  425SOL    HW1 1402   1.252   3.699   3.672  1.7558  1.8523  1.6921
  425SOL    HW2 1403   1.394   3.742   3.644  2.8482 -2.4141 -0.2302
  426SOL     OW 1404   3.012   1.714   1.723  0.4733 -0.4287  0.5753
  426SOL    HW1 1405   3.012   1.710   1.627 -2.2028  1.0593  0.4315
  426SOL    HW2 1406   3.023   1.623   1.750 -1.8389 -1.3586 -1.2487
  427SOL     OW 1407   0.022   0.327   0.117  0.5955  0.1177  0.0044
  427SOL    HW1 1408   0.086   0.375   0.064  2.6448  0.2681  2.4255
  427SOL    HW2 1409   0.074   0.283   0.184 -1.5747 -2.4755  0.1715
  428SOL     OW 1410   2.887   1.271   3.201  0.4746  0.2835 -0.5895
  428SOL    HW1 1411   2.954   1.236   3.259  1.1219 -0.0311 -1.4934
  428SOL    HW2 1412   2.812   1.214   3.214  1.6548 -1.8377 -2.3676
  429SOL     OW 1413   1.592   3.231   0.739  0.4044 -0.0154  2.1156
  429SOL    HW1 1414   1.679   3.203   0.709 -0.4945 -2.1917  1.2750
  429SOL    HW2 1415   1.580   3.318   0.701  1.2151 -0.7513  0.0404
  430SOL     OW 1416   0.902   1.993   3.186 -0.5853  0.1444 -0.8876
  430SOL    HW1 1417   0.821   2.041   3.167 -0.4169 -0.1672 -2.5861
  430SOL    HW2 1418   0.970   2.061   3.188 -0.6135  0.2012 -1.4889
  431SOL     OW 1419   0.486   1.649   2.324  0.1950 -0.8431  0.6176
  431SOL    HW1 1420   0.553   1.668   2.258 -0.4225  0.0817  0.2429
  431SOL    HW2 1421   0.482   1.727   2.378  1.1217 -1.8153  2.1824
  432SOL     OW 1422   2.695   1.094   3.314 -0.6535  0.5914 -0.2151
  432SOL    HW1 1423   2.676   1.069   3.405 -1.0681  1.8962  0.0772
  432SOL    HW2 1424   2.709   1.011   3.269 -1.1887 -0.1180  0.8794
  433SOL     OW 1425   0.586   0.634   3.096  0.0420 -0.3679  0.4188
  433SOL    HW1 1426   0.656   0.678   3.145  0.9686 -1.6153  0.2653
  433SOL    HW2 1427   0.536   0.706   3.056 -0.2034  0.6637  2.4045
  434SOL     OW 1428   2.787   1.392   0.233  0.9864 -0.3178  0.0459
  434SOL    HW1 1429   2.715   1.348   0.189  2.8986 -1.2746 -2.3816
  434SOL    HW2 1430   2.791   1.350   0.319 -0.2192 -1.5060 -0.4347
  435SOL     OW 1431   0.566   1.337   1.546 -0.1475  0.1760 -0.5240
  435SOL    HW1 1432   0.627   1.403   1.578 -0.9130  0.4614  0.3733
  435SOL    HW2 1433   0.597   1.255   1.584 -0.2709  0.3063 -0.1406
  436SOL     OW 1434   1.484   0.170   2.486 -0.1110  0.1985 -0.5470
  436SOL    HW1 1435   1.533   0.235   2.435  2.5311 -0.2871  1.1550
  436SOL    HW2 1436   1.447   0.111   2.420  1.2488  0.8777 -1.9829
  437SOL     OW 1437   2.879   1.050   0.687  0.1509 -0.5330 -0.1725
  437SOL    HW1 1438   2.864   1.048   0.781  0.6684  1.1804 -0.0182
  437SOL    HW2 1439   2.964   1.093   0.677 -0.2963  0.1111 -1.4543
  438SOL     OW 1440   3.094   2.149   3.223  0.4231 -0.0077 -0.3754
  438SOL    HW1 1441   3.054   2.078   3.274  2.1204 -0.7414  0.0070
  438SOL    HW2 1442   3.186   2.148   3.250  0.7135  1.6073 -1.2200
  439SOL     OW 1443   2.463   1.611   1.640  0.2526 -0.5043 -0.7667
  439SOL    HW1 1444   2.486   1.644   1.727 -0.4096 -0.3387 -0.6483
  439SOL    HW2 1445   2.536   1.636   1.584  0.7983 -0.8364 -0.2050
  440SOL     OW 1446   3.038   1.121   0.332 -0.2591  0.1756 -0.3224
  440SOL    HW1 1447   3.064   1.213   0.335  0.5979 -0.0555 -0.5931
  440SOL    HW2 1448   2.979   1.116   0.256 -1.1579  0.6974  0.3068
  441SOL     OW 1449   0.069   1.488   2.146  0.1636 -0.2618 -0.3457
  441SOL    HW1 1450   0.116   1.444   2.217  1.2692  0.5141 -0.5640
  441SOL    HW2 1451   0.137   1.538   2.101 -0.9851  1.3408 -0.3436
  442SOL     OW 1452   1.891   0.360   0.507 -0.1346 -0.2337 -0.8317
  442SOL    HW1 1453   1.888   0.371   0.412  0.9404 -1.9691 -1.1251
  442SOL    HW2 1454   1.979   0.327   0.524 -0.1455  0.4904  0.8474
  443SOL     OW 1455   1.851   3.674   3.412  0.3752 -0.1877 -0.2992
  443SOL    HW1 1456   1.863   3.750   3.469  2.7704 -0.5086 -0.2502
  443SOL    HW2 1457   1.766   3.688   3.371 -0.0101  1.6407  0.9832
  444SOL     OW 1458   0.592   1.292   1.987  0.3230  0.1521  0.0135
  444SOL    HW1 1459   0.623   1.224   2.047  0.0454  0.9042  1.0372
  444SOL    HW2 1460   0.668   1.312   1.932  0.7515 -0.1531  0.4886
  445SOL     OW 1461   2.064   2.395   2.651  0.2559 -0.0884 -0.3748
  445SOL    HW1 1462   2.120   2.342   2.594 -0.3376 -1.0583 -0.0722
  445SOL    HW2 1463   2.047   2.339   2.727  0.0738  0.7491  0.2172
  446SOL     OW 1464   0.174   1.015   2.613 -0.5611 -0.2447 -0.4484
  446SOL    HW1 1465   0.109   0.993   2.680 -1.6622  0.6750 -1.1898
  446SOL    HW2 1466   0.229   0.937   2.608 -0.6841 -0.4948  1.2342
  447SOL     OW 1467   0.823   2.709   1.057  0.2176 -0.7953 -0.2522
  447SOL    HW1 1468   0.771   2.706   0.977  1.2063  1.1086 -1.0265
  447SOL    HW2 1469   0.912   2.686   1.030  1.2397  2.7183 -0.4404
  448SOL     OW 1470   0.327   2.655   1.831 -0.4463 -0.4631 -0.4041
  448SOL    HW1 1471   0.413   2.683   1.862 -0.6759 -1.0015  0.7993
  448SOL    HW2 1472   0.290   2.607   1.905 -1.5052 -0.8289 -1.1482
  449SOL     OW 1473   2.243   0.342   1.342 -0.3611  0.4800  0.4721
  449SOL    HW1 1474   2.219   0.435   1.336 -0.7981  0.3396 -0.0373
  449SOL    HW2 1475   2.162   0.298   1.367 -1.0328 -0.1544 -2.4531
  450SOL     OW 1476   1.710   3.643   1.993 -0.1916 -0.6049 -0.6136
  450SOL    HW1 1477   1.701   3.557   1.951  0.0894 -1.1658  0.4253
  450SOL    HW2 1478   1.800   3.670   1.974  0.3623 -1.4452  0.6314
  451SOL     OW 1479   2.873   2.147   1.551 -0.4285  0.6153 -0.6279
  451SOL    HW1 1480   2.915   2.227   1.519 -0.1874  1.3318  1.3710
  451SOL    HW2 1481   2.788   2.176   1.585 -0.2066  0.1102  0.4061
  452SOL     OW 1482   2.790   3.465   0.149 -1.2449  0.5721  0.2099
  452SOL    HW1 1483   2.766   3.405   0.079  0.3012  1.1385 -0.8708
  452SOL    HW2 1484   2.867   3.425   0.190 -0.2660  1.6922 -0.4451
  453SOL     OW 1485   0.473   0.306   2.692  0.3041  0.1258  0.2807
  453SOL    HW1 1486   0.387   0.344   2.713  1.0319  0.6706  2.6445
  453SOL    HW2 1487   0.453   0.221   2.653 -1.3025  0.8902 -0.6823
  454SOL     OW 1488   2.676   1.107   2.693 -0.8789 -0.0892 -0.1373
  454SOL    HW1 1489   2.664   1.196   2.662  0.3428 -0.0330 -0.4749
  454SOL    HW2 1490   2.662   1.112   2.788  0.3058  0.6904  0.0136
  455SOL     OW 1491   0.275   2.577   2.092  0.9252  0.1149  0.1869
  455SOL    HW1 1492   0.264   2.502   2.150  0.2829  1.1987  1.5023
  455SOL    HW2 1493   0.298   2.649   2.149 -1.9219  1.7588 -0.5417
  456SOL     OW 1494   2.038   0.740   1.631 -0.8029 -0.1831  0.1493
  456SOL    HW1 1495   1.945   0.757   1.646 -0.6990 -0.7230  1.5319
  456SOL    HW2 1496   2.083   0.817   1.668 -0.6981  0.1587 -0.6722
  457SOL     OW 1497   3.080   3.427   1.401 -0.4517 -0.7120  0.1207
  457SOL    HW1 1498   3.046   3.516   1.411 -1.6380 -0.8670 -1.8999
  457SOL    HW2 1499   3.046   3.379   1.477  1.6821  0.8844  2.2340
  458SOL     OW 1500   3.026   0.487   0.964 -0.2916  0.0925  0.0322
  458SOL    HW1 1501   3.067   0.471   0.879  0.2714 -0.5372  0.4137
  458SOL    HW2 1502   3.037   0.581   0.978 -2.7380  0.7401 -1.7633
  459SOL     OW 1503   3.464   2.609   1.918  0.2902 -0.3337  0.2716
  459SOL    HW1 1504   3.523   2.559   1.861 -0.3342 -1.2737  0.4351
  459SOL    HW2 1505   3.387   2.625   1.864  0.9893  1.6441 -0.2352
  460SOL     OW 1506   3.055   1.975   0.813 -0.6322 -0.2155  0.1352
  460SOL    HW1 1507   3.105   1.920   0.752 -0.2271  0.8438 -0.5129
  460SOL    HW2 1508   3.121   2.017   0.867 -1.0029 -1.3233  1.4878
  461SOL     OW 1509   2.594   0.835   2.591  0.3263  0.2296  0.0878
  461SOL    HW1 1510   2.522   0.895   2.571  0.0855 -0.7420 -2.1716
  461SOL    HW2 1511   2.666   0.893   2.617 -0.8406  1.2825  1.1263
  462SOL     OW 1512   2.530   3.520   1.476 -0.1418 -0.0013 -0.1137
  462SOL    HW1 1513   2.490   3.441   1.440 -0.7071  0.2233  0.0185
  462SOL    HW2 1514   2.624   3.509   1.459  0.0934 -1.8164  2.0308
  463SOL     OW 1515   0.978   2.814   0.230  0.0296  0.5491 -0.4066
  463SOL    HW1 1516   1.035   2.884   0.199  1.2670  0.9862  2.5298
  463SOL    HW2 1517   1.037   2.746   0.260 -1.0836 -0.4231 -0.3519
  464SOL     OW 1518   2.952   3.597   3.167 -0.5377 -0.4244  0.5197
  464SOL    HW1 1519   3.021   3.531   3.156  0.4225  0.9203 -5.3381
  464SOL    HW2 1520   2.871   3.547   3.166  0.2506 -1.7564  1.1315
  465SOL     OW 1521   1.646   0.617   0.090  0.1543  0.4147  0.3010
  465SOL    HW1 1522   1.588   0.693   0.103 -0.2106  0.4236 -1.2192
  465SOL    HW2 1523   1.587   0.542   0.085  0.5097  0.0062  1.7076
  466SOL     OW 1524   0.662   0.910   0.956  0.3596  0.0987 -0.1612
  466SOL    HW1 1525   0.719   0.849   0.908  0.2279 -0.0900 -0.0823
  466SOL    HW2 1526   0.635   0.975   0.891  0.9882  0.4201 -0.1022
  467SOL     OW 1527   0.338   3.606   0.707  0.0209 -0.1398  0.4958
  467SOL    HW1 1528   0.378   3.537   0.655 -0.6277 -1.0753  1.2151
  467SOL    HW2 1529   0.244   3.595   0.694 -0.0900  0.5699  0.6570
  468SOL     OW 1530   2.300   0.093   1.645  0.4119  0.0842 -0.4909
  468SOL    HW1 1531   2.251   0.132   1.717 -2.0088 -1.7216 -1.0198
  468SOL    HW2 1532   2.352   0.165   1.610  0.1446  1.4873  1.7679
  469SOL     OW 1533   2.025   2.078   3.450 -0.4791  0.4237  0.3714
  469SOL    HW1 1534   2.050   2.087   3.359  1.3104 -0.9480  0.6874
  469SOL    HW2 1535   1.930   2.093   3.450 -0.4214  1.0424 -1.5920
  470SOL     OW 1536   0.062   0.848   0.344 -0.4614 -0.3886 -0.2715
  470SOL    HW1 1537  -0.005   0.790   0.306 -1.5641  1.2914 -1.0308
  470SOL    HW2 1538   0.109   0.883   0.268 -0.0997  0.0442  0.1459
  471SOL     OW 1539   1.732   2.845   0.805  0.0460 -0.0621 -0.4182
  471SOL    HW1 1540   1.766   2.891   0.882  0.0662 -0.3296 -0.2687
  471SOL    HW2 1541   1.638   2.837   0.822  0.1000 -0.3872 -0.2888
  472SOL     OW 1542   0.417   2.906   0.815  0.3001 -0.1193 -0.3601
  472SOL    HW1 1543   0.426   2.833   0.755  1.9605  0.0459 -0.3810
  472SOL    HW2 1544   0.433   2.868   0.902 -2.9034 -0.5177  0.1474
  473SOL     OW 1545   1.858   2.258   0.553 -0.3294 -1.4874 -0.4569
  473SOL    HW1 1546   1.793   2.190   0.536 -0.8094 -1.2331  0.3158
  473SOL    HW2 1547   1.921   2.250   0.481 -2.4265 -0.2230 -2.5762
  474SOL     OW 1548   0.315   0.477   2.356 -0.6815 -0.0173 -0.2437
  474SOL    HW1 1549   0.229   0.517   2.344 -0.3216  0.3718 -1.8424
  474SOL    HW2 1550   0.297   0.391   2.394 -1.5896  0.9622  1.6572
  475SOL     OW 1551   2.480   3.648   2.439  0.5979 -0.4056  0.3566
  475SOL    HW1 1552   2.388   3.639   2.416  0.6476  0.4272 -0.2184
  475SOL    HW2 1553   2.526   3.651   2.355  0.9065  1.4390  0.5612
  476SOL     OW 1554   3.268   2.434   2.683 -0.2493  0.1225 -0.2775
  476SOL    HW1 1555   3.332   2.404   2.748 -1.3774  1.4478  1.5595
  476SOL    HW2 1556   3.289   2.527   2.670 -1.2389  0.3610 -0.2769
  477SOL     OW 1557   1.834   0.506   3.420  0.2398  0.2413 -0.0794
  477SOL    HW1 1558   1.774   0.574   3.391  0.4628  0.5938  0.2785
  477SOL    HW2 1559   1.917   0.552   3.436  1.0979 -0.4754 -2.1122
  478SOL     OW 1560   3.265   0.620   0.780  0.4557  0.1559  0.5102
  478SOL    HW1 1561   3.254   0.680   0.854 -1.1525  0.3127  0.1721
  478SOL    HW2 1562   3.229   0.668   0.706 -0.8284 -1.2097  0.2295
  479SOL     OW 1563   3.217   0.910   0.857  0.9095  0.5709 -0.5833
  479SOL    HW1 1564   3.208   0.932   0.765  2.8068 -0.3737 -1.0544
  479SOL    HW2 1565   3.299   0.952   0.884 -1.0972  3.5201  1.6189
  480SOL     OW 1566   1.414   3.668   1.911  0.5502  0.0316 -0.6811
  480SOL    HW1 1567   1.348   3.672   1.842 -0.0476 -1.2009 -0.2136
  480SOL    HW2 1568   1.444   3.577   1.910  1.4436  0.3100 -0.1520
  481SOL     OW 1569   3.536   3.399   1.080 -0.1447  0.0476 -0.5188
  481SOL    HW1 1570   3.540   3.402   1.175 -0.7853  0.6716 -0.5036
  481SOL    HW2 1571   3.568   3.312   1.057 -1.7578 -0.8204  0.3646
  482SOL     OW 1572   2.357   1.906   3.483 -0.6258 -0.0958  0.3109
  482SOL    HW1 1573   2.363   1.992   3.443  0.0195  0.0892  0.7930
  482SOL    HW2 1574   2.447   1.878   3.495 -0.8234 -0.6462  0.5669
  483SOL     OW 1575   0.954   0.434   0.135 -0.1923 -0.5799 -0.4713
  483SOL    HW1 1576   0.971   0.461   0.045 -0.3398 -3.7081 -1.5463
  483SOL    HW2 1577   0.863   0.404   0.134 -0.0796 -1.0060  0.6292
  484SOL     OW 1578   3.556   1.860   0.783 -0.0657  0.5785 -0.3945
  484SOL    HW1 1579   3.574   1.785   0.840 -1.4284 -0.4348 -1.2282
  484SOL    HW2 1580   3.630   1.862   0.722 -0.6963 -1.0705 -1.3026
  485SOL     OW 1581   1.266   2.740   3.155 -0.5505 -0.1598 -0.4788
  485SOL    HW1 1582   1.227   2.769   3.237  0.6878  1.4474 -0.4290
  485SOL    HW2 1583   1.206   2.771   3.087 -1.6315 -1.5828 -0.2371
  486SOL     OW 1584   0.062   3.609   3.498  0.1112 -0.3433  0.1413
  486SOL    HW1 1585   0.150   3.626   3.465  0.9337 -0.7755  1.9820
  486SOL    HW2 1586   0.042   3.684   3.554  0.1705 -1.1929  1.3431
  487SOL     OW 1587   3.107   2.356   0.690 -1.0225  0.6060  0.3451
  487SOL    HW1 1588   3.121   2.292   0.620 -1.9433  0.3885  0.3461
  487SOL    HW2 1589   3.044   2.314   0.749 -0.2893  0.8047  1.2914
  488SOL     OW 1590   3.568   1.812   1.161  0.2036  0.0872  0.6757
  488SOL    HW1 1591   3.589   1.730   1.205  0.5007 -0.4353 -0.3881
  488SOL    HW2 1592   3.644   1.868   1.175  0.4031 -0.1675  0.6092
  489SOL     OW 1593   2.224   2.261   2.474 -0.1230 -0.3900  0.3291
  489SOL    HW1 1594   2.308   2.306   2.482 -0.7148  0.8586 -0.2225
  489SOL    HW2 1595   2.226   2.221   2.387 -1.0774  1.8122 -0.7751
  490SOL     OW 1596   1.422   2.905   0.908 -0.3122 -0.0815 -0.1300
  490SOL    HW1 1597   1.473   2.910   0.990 -2.9938  1.2174  1.5984
  490SOL    HW2 1598   1.335   2.879   0.936 -1.2704  0.1863 -2.6417
  491SOL     OW 1599   0.021   0.327   1.520 -0.2780 -0.6072 -0.0407
  491SOL    HW1 1600   0.038   0.301   1.430 -1.9414  0.8831 -0.8551
  491SOL    HW2 1601  -0.037   0.258   1.554 -2.0050  0.2457 -1.1061
  492SOL     OW 1602   2.759   1.863   3.279 -0.3460  0.0701  0.1663
  492SOL    HW1 1603   2.825   1.804   3.315  0.9959  0.2394 -1.8743
  492SOL    HW2 1604   2.751   1.837   3.187  1.0615  3.6575 -1.1495
  493SOL     OW 1605   3.300   0.563   0.436 -0.2656 -0.3280  0.0188
  493SOL    HW1 1606   3.384   0.528   0.465 -0.1899 -0.9785 -0.9459
  493SOL    HW2 1607   3.257   0.592   0.517 -0.4231 -2.8694  0.9375
  494SOL     OW 1608   0.775   3.398   0.278  0.1027  0.4702  0.2190
  494SOL    HW1 1609   0.767   3.474   0.335 -3.3217  1.0165 -0.7691
  494SOL    HW2 1610   0.774   3.323   0.338 -0.8317  1.1057  1.0223
  495SOL     OW 1611   0.181   2.895   1.757 -0.4987  0.0026 -0.0421
  495SOL    HW1 1612   0.217   2.816   1.798 -0.7233  0.6449  1.4906
  495SOL    HW2 1613   0.172   2.957   1.830  0.8605  1.9022 -1.3885
  496SOL     OW 1614   3.144   1.081   2.045  0.5520  0.5828  0.6422
  496SOL    HW1 1615   3.118   1.170   2.070  1.3352  1.0824 -0.2546
  496SOL    HW2 1616   3.166   1.039   2.128  1.3960  1.6395  0.9856
  497SOL     OW 1617   1.271   0.669   1.884 -0.4320 -0.8162  0.2025
  497SOL    HW1 1618   1.278   0.579   1.916 -1.3860 -1.3223 -0.9638
  497SOL    HW2 1619   1.340   0.716   1.932 -0.1517 -2.0717  1.0965
  498SOL     OW 1620   2.645   1.743   0.940 -0.7426 -0.3177 -0.0560
  498SOL    HW1 1621   2.557   1.764   0.970 -0.6631  1.2877 -0.7990
  498SOL    HW2 1622   2.636   1.733   0.845 -0.1768 -0.3295 -0.1119
  499SOL     OW 1623   1.509   0.727   3.579 -0.2709  0.4749 -0.3139
  499SOL    HW1 1624   1.604   0.717   3.569 -0.3357 -0.9884  0.3640
  499SOL    HW2 1625   1.498   0.778   3.659 -0.0657 -0.1868  0.1407
  500SOL     OW 1626   2.845   0.593   3.381 -0.0106 -0.4836  0.2265
  500SOL    HW1 1627   2.845   0.688   3.390  0.7573 -0.3684 -0.7951
  500SOL    HW2 1628   2.774   0.575   3.319 -1.3986 -0.7692  1.8124
  501SOL     OW 1629   1.633   0.180   1.900  0.4253  0.1064 -0.2527
  501SOL    HW1 1630   1.601   0.098   1.936 -0.3132 -0.2679 -1.6788
  501SOL    HW2 1631   1.727   0.180   1.919  0.0208  0.1604  1.9995
  502SOL     OW 1632   0.153   3.455   0.347 -0.3236  0.2166  0.0599
  502SOL    HW1 1633   0.112   3.374   0.377  0.2778 -0.1794 -0.1753
  502SOL    HW2 1634   0.244   3.431   0.330  0.0033  1.0825  0.5452
  503SOL     OW 1635   1.508   1.802   0.731 -0.0113  0.1959 -0.1809
  503SOL    HW1 1636   1.467   1.833   0.812  1.1304  0.5999  0.2601
  503SOL    HW2 1637   1.438   1.753   0.687 -0.7054  0.0947  0.9649
  504SOL     OW 1638   1.424   3.541   3.184 -0.5511  0.3234  0.1113
  504SOL    HW1 1639   1.431   3.553   3.278 -1.9103  0.4174  0.2194
  504SOL    HW2 1640   1.330   3.543   3.166 -0.5755 -2.8648 -0.7971
  505SOL     OW 1641   3.126   1.555   3.552 -0.1214  0.3608  0.0307
  505SOL    HW1 1642   3.081   1.500   3.616 -1.2286  0.8698 -0.2981
  505SOL    HW2 1643   3.154   1.494   3.484 -1.7361  0.2236 -0.5519
  506SOL     OW 1644   2.609   0.422   0.151 -0.0434 -0.0947  0.1596
  506SOL    HW1 1645   2.521   0.444   0.180  0.8320  0.0227  3.0699
  506SOL    HW2 1646   2.599   0.340   0.103 -1.8121  0.2739 -0.1570
  507SOL     OW 1647   1.923   2.632   1.673 -0.0630 -0.7186  0.1455
  507SOL    HW1 1648   1.931   2.723   1.701 -0.4328 -0.3284 -0.9535
  507SOL    HW2 1649   1.852   2.596   1.726 -0.0406 -0.3175  0.4477
  508SOL     OW 1650   2.620   3.198   3.135 -0.2163  0.2041  0.5450
  508SOL    HW1 1651   2.584   3.119   3.096  1.4634 -0.9035  1.1640
  508SOL    HW2 1652   2.578   3.203   3.221 -1.5842  0.9674 -0.1131
  509SOL     OW 1653   1.179   0.841   0.407 -0.3427 -0.0475  0.8004
  509SOL    HW1 1654   1.255   0.783   0.402 -0.9215 -0.7269 -3.4832
  509SOL    HW2 1655   1.105   0.787   0.380 -1.7008  1.5860  1.0769
  510SOL     OW 1656   0.605   3.409   1.791  0.4056 -0.2311 -0.0411
  510SOL    HW1 1657   0.590   3.420   1.885 -0.4822 -0.5708 -0.1300
  510SOL    HW2 1658   0.535   3.460   1.750 -0.1384 -1.3102 -0.4935
  511SOL     OW 1659   1.287   2.211   3.083 -0.3634  0.3519  0.1542
  511SOL    HW1 1660   1.228   2.204   3.158 -0.4692 -0.0201  0.0370
  511SOL    HW2 1661   1.296   2.305   3.068 -0.6417  0.4163  0.3950
  512SOL     OW 1662   3.229   1.383   1.690  0.2253  0.8736  0.3959
  512SOL    HW1 1663   3.249   1.295   1.720 -0.5643 -0.0405 -1.5795
  512SOL    HW2 1664   3.227   1.436   1.769 -1.8382 -1.3615  1.9522
  513SOL     OW 1665   0.203   0.720   3.156  0.4251  0.1868 -0.4029
  513SOL    HW1 1666   0.281   0.668   3.179  1.0690  0.3771 -1.9862
  513SOL    HW2 1667   0.236   0.809   3.145  0.0689  0.2168 -1.3779
  514SOL     OW 1668   3.479   1.419   2.092  0.1391  0.5561  0.6623
  514SOL    HW1 1669   3.535   1.420   2.170 -0.1897  2.7201  0.9282
  514SOL    HW2 1670   3.457   1.327   2.080  0.7514  0.0853  2.7247
  515SOL     OW 1671   1.633   2.749   0.176  0.2858 -0.0322 -0.0029
  515SOL    HW1 1672   1.666   2.807   0.245 -1.4464  2.1910 -0.9345
  515SOL    HW2 1673   1.709   2.698   0.149  1.7824  1.4698  1.1925
  516SOL     OW 1674   3.335   2.501   0.773  0.9441 -0.5978 -0.8537
  516SOL    HW1 1675   3.403   2.527   0.710  0.8086  0.6032 -0.5358
  516SOL    HW2 1676   3.284   2.435   0.727  0.4112  0.7580 -2.3192
  517SOL     OW 1677   2.257   0.282   0.442  0.3482 -0.7433  0.6086
  517SOL    HW1 1678   2.189   0.234   0.395  0.4532 -0.1574 -0.1500
  517SOL    HW2 1679   2.338   0.235   0.422  0.5776  0.2114 -0.8217
  518SOL     OW 1680   3.389   0.957   1.722  0.0439 -0.4077  0.0166
  518SOL    HW1 1681   3.425   0.944   1.634 -1.6888 -0.9030 -0.6496
  518SOL    HW2 1682   3.397   0.872   1.764  0.2184 -0.3529  0.0966
  519SOL     OW 1683   0.120   0.226   2.200 -0.9282 -1.1874  0.1695
  519SOL    HW1 1684   0.206   0.199   2.169 -0.0958  1.0075  0.3905
  519SOL    HW2 1685   0.063   0.215   2.124  0.2660  0.4115 -1.0339
  520SOL     OW 1686   2.648   1.129   2.294 -0.1782  0.1026 -0.0909
  520SOL    HW1 1687   2.633   1.216   2.257  0.9333  0.1198 -0.5337
  520SOL    HW2 1688   2.652   1.143   2.388  1.5647  0.7952 -0.2487
  521SOL     OW 1689   0.239   2.633   1.197  0.0020  0.6553 -0.2862
  521SOL    HW1 1690   0.289   2.585   1.131  0.6412  0.5584  0.2588
  521SOL    HW2 1691   0.289   2.621   1.278 -0.0721  1.8385 -0.0457
  522SOL     OW 1692   2.665   1.840   0.393  0.0595 -0.2267  0.7759
  522SOL    HW1 1693   2.678   1.750   0.425 -0.1211 -0.2604  0.7557
  522SOL    HW2 1694   2.586   1.870   0.438  0.2754  0.0193  0.9869
  523SOL     OW 1695   1.346   3.269   2.512  0.9358  0.5726 -0.7159
  523SOL    HW1 1696   1.374   3.180   2.532  0.4852  0.5012 -0.3861
  523SOL    HW2 1697   1.300   3.261   2.428 -0.1654  0.2697 -0.1116
  524SOL     OW 1698   0.469   0.068   3.616 -0.7533  0.9313  0.1546
  524SOL    HW1 1699   0.424   0.144   3.654 -2.0056  0.1555  0.2653
  524SOL    HW2 1700   0.457   0.078   3.522 -1.5464  0.5089  0.2028
  525SOL     OW 1701   2.808   2.951   2.042 -0.2323  0.1545  0.5489
  525SOL    HW1 1702   2.879   2.887   2.033  1.4177  1.8244  0.9824
  525SOL    HW2 1703   2.850   3.028   2.081 -1.8590  1.9471 -1.0187
  526SOL     OW 1704   1.046   1.703   0.231 -0.0154 -0.4732 -0.4114
  526SOL    HW1 1705   1.069   1.793   0.207 -0.2879 -0.3985 -0.4014
  526SOL    HW2 1706   0.950   1.703   0.235 -0.0010 -0.6716 -0.0477
  527SOL     OW 1707   1.918   1.697   1.065  0.0495  0.2619  0.9185
  527SOL    HW1 1708   1.897   1.611   1.029 -1.7976  0.4203  1.4748
  527SOL    HW2 1709   1.980   1.679   1.135 -1.0221 -0.7651  1.6559
  528SOL     OW 1710   1.785   2.164   3.182 -0.0810  0.4733 -0.5864
  528SOL    HW1 1711   1.873   2.128   3.175 -0.4447 -0.4211 -0.7138
  528SOL    HW2 1712   1.727   2.088   3.178 -0.7965  0.8405  1.3425
  529SOL     OW 1713   2.139   2.863   1.667 -0.3592  0.0546  0.3417
  529SOL    HW1 1714   2.217   2.821   1.703 -0.1328 -0.0505 -0.2606
  529SOL    HW2 1715   2.096   2.903   1.743  0.5337  0.5323  0.6083
  530SOL     OW 1716   3.668   1.588   0.370  0.6885 -0.0038  0.3855
  530SOL    HW1 1717   3.699   1.673   0.339 -0.0967 -0.2789 -1.2807
  530SOL    HW2 1718   3.698   1.526   0.303 -1.8744 -0.5038 -0.3904
  531SOL     OW 1719   0.617   3.083   1.964  0.5396 -0.1483 -0.0143
  531SOL    HW1 1720   0.695   3.103   1.912  0.1555  0.6116 -0.3006
  531SOL    HW2 1721   0.642   3.006   2.016  1.3077 -0.2137 -0.4754
  532SOL     OW 1722   0.046   0.950   0.608 -0.1480 -0.7368 -0.0445
  532SOL    HW1 1723   0.068   0.907   0.525 -0.4768 -0.3466 -0.3345
  532SOL    HW2 1724   0.005   0.881   0.660 -0.6507 -0.7802 -0.4974
  533SOL     OW 1725   0.433   0.604   1.232  0.4003  0.4709 -0.5547
  533SOL    HW1 1726   0.474   0.641   1.154  0.9549  0.8728 -0.0751
  533SOL    HW2 1727   0.476   0.647   1.305  1.3303 -1.3578  0.0435
  534SOL     OW 1728   0.974   1.863   1.838  0.5391 -0.3732 -0.3023
  534SOL    HW1 1729   0.989   1.797   1.771 -0.3346 -1.1783  0.2611
  534SOL    HW2 1730   0.880   1.857   1.857  0.5815  0.5453  0.2602
  535SOL     OW 1731   0.614   1.135   1.184 -0.4903  0.4419  0.3151
  535SOL    HW1 1732   0.578   1.063   1.134  0.5110 -0.0301  0.2405
  535SOL    HW2 1733   0.595   1.114   1.276 -2.1529  1.2110  0.1871
  536SOL     OW 1734   0.144   0.857   2.047 -0.3692  0.3465  0.0904
  536SOL    HW1 1735   0.163   0.945   2.013 -0.3933 -0.2164 -1.4502
  536SOL    HW2 1736   0.230   0.816   2.057 -0.3046  0.7752  1.5500
  537SOL     OW 1737   3.663   2.415   1.057  0.1053 -0.3715  0.1534
  537SOL    HW1 1738   3.605   2.339   1.057 -1.7224  0.8995 -1.8418
  537SOL    HW2 1739   3.705   2.412   0.971  0.7558  0.3564  0.4418
  538SOL     OW 1740   2.827   0.571   0.080  0.1679 -0.3484 -0.2453
  538SOL    HW1 1741   2.762   0.504   0.101  0.6630 -0.8228 -0.1749
  538SOL    HW2 1742   2.905   0.521   0.055  1.3339  0.1503  2.1237
  539SOL     OW 1743   0.319   2.349   3.577 -0.0004 -0.3531  0.5255
  539SOL    HW1 1744   0.309   2.347   3.672 -0.8112 -2.9264  0.4580
  539SOL    HW2 1745   0.372   2.427   3.560 -0.8957  0.8848  2.9432
  540SOL     OW 1746   0.712   0.310   0.138  0.3219  0.1614 -0.1925
  540SOL    HW1 1747   0.729   0.224   0.100  0.1985  0.3236 -0.6178
  540SOL    HW2 1748   0.697   0.292   0.231 -2.1439 -0.6033 -0.6667
  541SOL     OW 1749   3.475   0.489   3.417  0.2087  0.1298  0.6358
  541SOL    HW1 1750   3.526   0.462   3.341  0.2497  0.1110  0.6699
  541SOL    HW2 1751   3.541   0.504   3.485  0.1105 -0.5841  0.8919
  542SOL     OW 1752   1.360   1.134   0.742 -0.3355  0.4148 -0.7527
  542SOL    HW1 1753   1.278   1.101   0.705 -0.1895 -0.0923 -0.6402
  542SOL    HW2 1754   1.339   1.222   0.773 -1.6387 -0.6991  1.8675
  543SOL     OW 1755   1.463   2.381   3.751 -0.4160 -0.3727 -0.0917
  543SOL    HW1 1756   1.439   2.316   3.685  0.0512  0.4155 -1.0566
  543SOL    HW2 1757   1.538   2.427   3.713  0.0204 -0.0711  1.0995
  544SOL     OW 1758   1.035   2.227   1.687 -0.3077 -0.9173 -0.0919
  544SOL    HW1 1759   0.947   2.257   1.665  0.4604  2.4012  0.8076
  544SOL    HW2 1760   1.076   2.210   1.602 -0.8053  0.8110 -0.7228
  545SOL     OW 1761   1.023   0.622   0.326  0.4928  0.0336  0.3159
  545SOL    HW1 1762   1.074   0.593   0.402 -0.8820 -1.6210  0.6711
  545SOL    HW2 1763   0.992   0.541   0.285 -1.6687  0.9394  0.0015
  546SOL     OW 1764   2.165   3.134   2.693  0.2898 -0.5072  0.6901
  546SOL    HW1 1765   2.228   3.102   2.628 -0.5157  2.0544 -1.5577
  546SOL    HW2 1766   2.104   3.062   2.704  0.9054 -1.3246 -0.8462
  547SOL     OW 1767   2.618   0.854   2.263 -0.3067  0.2465  0.5458
  547SOL    HW1 1768   2.661   0.821   2.184 -3.3385 -0.4310 -0.9815
  547SOL    HW2 1769   2.613   0.949   2.251 -2.3841  0.0105 -1.1290
  548SOL     OW 1770   1.019   0.796   0.124  0.2065  0.4508 -0.0851
  548SOL    HW1 1771   0.989   0.736   0.192  0.6945 -0.4433 -0.6423
  548SOL    HW2 1772   0.951   0.793   0.057  0.0722  0.7827  0.0326
  549SOL     OW 1773   0.166   2.124   3.539 -0.4577  0.1448  0.3282
  549SOL    HW1 1774   0.199   2.209   3.568  0.2804 -0.1269  0.2895
  549SOL    HW2 1775   0.237   2.063   3.556 -0.8771 -0.4186  0.0871
  550SOL     OW 1776   0.628   0.968   0.657  0.2191 -0.3092  0.4351
  550SOL    HW1 1777   0.676   0.895   0.695  2.4983  2.4821  3.5443
  550SOL    HW2 1778   0.673   0.987   0.574  0.8129 -1.2168  0.5495
  551SOL     OW 1779   3.431   1.121   1.400  0.4678  0.0500 -0.2439
  551SOL    HW1 1780   3.414   1.215   1.412 -2.0886 -0.4023  0.2969
  551SOL    HW2 1781   3.503   1.118   1.337  1.0757  2.3693  0.2355
  552SOL     OW 1782   1.698   3.316   3.168 -0.0939  0.1638  0.5746
  552SOL    HW1 1783   1.768   3.314   3.103 -1.0552 -0.0676 -0.4997
  552SOL    HW2 1784   1.667   3.226   3.174  0.5939 -0.0028  2.0840
  553SOL     OW 1785   0.102   2.293   2.834  0.7485  0.4123  0.1458
  553SOL    HW1 1786   0.102   2.323   2.743  0.2746 -0.2473 -0.0753
  553SOL    HW2 1787   0.182   2.330   2.871 -0.8014  3.7813  0.4879
  554SOL     OW 1788   3.468   2.726   1.275  0.4165 -0.3524  0.3577
  554SOL    HW1 1789   3.472   2.631   1.278  2.0419 -0.4207 -1.7319
  554SOL    HW2 1790   3.377   2.746   1.254  0.7266 -1.7015 -2.9047
  555SOL     OW 1791   3.275   3.099   1.240  0.4114 -0.0049 -0.2990
  555SOL    HW1 1792   3.365   3.081   1.268  0.5062  2.0979  0.9724
  555SOL    HW2 1793   3.275   3.192   1.217 -2.0344  0.9059  2.6166
  556SOL     OW 1794   1.577   0.578   3.151 -0.1692  0.3926  0.1012
  556SOL    HW1 1795   1.591   0.509   3.087  0.1333  0.2411  0.3285
  556SOL    HW2 1796   1.664   0.614   3.168 -0.2308  0.3705  0.4891
  557SOL     OW 1797   0.431   0.280   0.045  0.3022  0.4786 -0.1248
  557SOL    HW1 1798   0.363   0.262   0.110 -1.0575 -1.2395 -1.8694
  557SOL    HW2 1799   0.497   0.330   0.092 -2.7830  3.5555  1.3638
  558SOL     OW 1800   0.343   0.339   1.297  0.5699 -0.3556 -0.1120
  558SOL    HW1 1801   0.305   0.309   1.215  0.9276  1.2023 -0.8883
  558SOL    HW2 1802   0.379   0.425   1.277  2.1079 -0.6212  1.2780
  559SOL     OW 1803   2.033   1.570   0.058 -0.1001  0.3597 -0.5874
  559SOL    HW1 1804   1.991   1.517   0.125 -0.1590 -0.7184 -1.4560
  559SOL    HW2 1805   2.105   1.614   0.104  0.2384 -0.8358  0.0686
  560SOL     OW 1806   0.930   3.334   2.319 -0.0202 -0.1349  0.3956
  560SOL    HW1 1807   0.920   3.389   2.396 -1.0861 -1.7893  1.5135
  560SOL    HW2 1808   0.868   3.262   2.333  0.0240 -0.6850 -1.8314
  561SOL     OW 1809   3.140   3.318   0.901 -0.1925  0.2375  0.5456
  561SOL    HW1 1810   3.171   3.232   0.874  0.0932 -0.0635  1.7893
  561SOL    HW2 1811   3.194   3.341   0.976 -0.3241  1.4683  0.2795
  562SOL     OW 1812   3.259   0.684   2.060 -0.7767 -0.9085 -0.5091
  562SOL    HW1 1813   3.226   0.594   2.058 -0.3980 -1.0882  0.5876
  562SOL    HW2 1814   3.186   0.737   2.027 -1.7935 -1.4263  0.7827
  563SOL     OW 1815   2.595   1.101   1.738  0.6247 -0.6306  0.4396
  563SOL    HW1 1816   2.578   1.015   1.699 -1.0362  0.1164 -0.5667
  563SOL    HW2 1817   2.691   1.108   1.738  0.7928 -2.3765  0.3544
  564SOL     OW 1818   0.896   3.344   3.120  0.4731 -0.0418  0.5060
  564SOL    HW1 1819   0.850   3.280   3.175  0.2690 -0.2268  0.1207
  564SOL    HW2 1820   0.920   3.414   3.181 -1.2343  0.5714  0.5505
  565SOL     OW 1821   0.669   3.711   0.049  1.0183  0.4843  0.1916
  565SOL    HW1 1822   0.649   3.705   0.143  2.3430  0.8581  0.5253
  565SOL    HW2 1823   0.593   3.756   0.011 -0.4216 -1.3609  0.7378
  566SOL     OW 1824   2.932   1.627   0.192  0.1746  0.0664  0.0169
  566SOL    HW1 1825   2.900   1.536   0.194 -1.1403  0.5154  1.1170
  566SOL    HW2 1826   2.919   1.659   0.282 -0.0933  1.5722 -0.5267
  567SOL     OW 1827   2.202   2.107   2.267 -0.2081  0.3183 -0.1038
  567SOL    HW1 1828   2.138   2.151   2.211  0.9142  0.9571 -0.9318
  567SOL    HW2 1829   2.195   2.015   2.244 -1.2120  0.2945  0.2300
  568SOL     OW 1830   3.138   2.022   2.398  0.6652  0.1383  0.3211
  568SOL    HW1 1831   3.060   1.975   2.425  0.3230  0.9347  0.7613
  568SOL    HW2 1832   3.144   2.007   2.304 -1.7770  2.5348 -0.3302
  569SOL     OW 1833   1.571   2.318   2.010 -0.1069 -0.0338 -0.0569
  569SOL    HW1 1834   1.661   2.338   1.985 -0.8731 -0.0434 -3.1078
  569SOL    HW2 1835   1.576   2.231   2.051  1.2255 -0.0918 -0.3219
  570SOL     OW 1836   2.411   2.751   2.145 -0.8800  0.1107  0.9009
  570SOL    HW1 1837   2.344   2.717   2.086 -1.4934  0.5987  1.2997
  570SOL    HW2 1838   2.368   2.822   2.192  0.3509  1.4192  0.1345
  571SOL     OW 1839   0.276   1.489   2.321 -0.1494 -0.1057 -0.1773
  571SOL    HW1 1840   0.234   1.559   2.372  0.1585 -1.0610  1.4416
  571SOL    HW2 1841   0.359   1.528   2.292 -1.0086  0.9657 -1.2993
  572SOL     OW 1842   0.540   0.734   1.465  0.1915 -0.4047  0.2668
  572SOL    HW1 1843   0.456   0.709   1.505 -0.8304  0.6515 -1.1306
  572SOL    HW2 1844   0.605   0.681   1.512 -1.0508 -0.0778  2.5164
  573SOL     OW 1845   2.918   0.026   0.105 -0.0278  0.5925 -0.3339
  573SOL    HW1 1846   2.878  -0.053   0.142  0.0736  0.4778 -0.4677
  573SOL    HW2 1847   2.950   0.074   0.181  2.8358 -1.0558 -0.3503
  574SOL     OW 1848   0.922   3.190   2.749 -0.4098  0.5297  0.3634
  574SOL    HW1 1849   0.844   3.211   2.696  0.6991  2.1393 -0.7250
  574SOL    HW2 1850   0.955   3.275   2.777  2.8979  0.2826 -2.1464
  575SOL     OW 1851   3.026   3.572   1.106 -0.5956 -0.0443 -0.8495
  575SOL    HW1 1852   2.987   3.490   1.138  0.0836 -0.1693 -0.3155
  575SOL    HW2 1853   2.971   3.597   1.032 -2.6211  0.5902  0.7689
  576SOL     OW 1854   3.047   3.031   3.521  0.1497 -0.0659 -0.1161
  576SOL    HW1 1855   3.044   2.987   3.606  0.1402 -1.6165 -0.8879
  576SOL    HW2 1856   2.957   3.056   3.504 -0.1135 -1.1358 -0.3502
  577SOL     OW 1857   0.225   3.400   2.143  0.1464 -0.4285 -0.0353
  577SOL    HW1 1858   0.154   3.382   2.082 -0.7091  0.2690  0.7172
  577SOL    HW2 1859   0.196   3.478   2.191  1.7074  0.2545 -0.1473
  578SOL     OW 1860   0.981   1.696   1.572  0.2392 -0.8333 -0.0501
  578SOL    HW1 1861   1.027   1.690   1.488  1.1596  0.8647  0.2931
  578SOL    HW2 1862   0.926   1.774   1.563 -0.7809 -1.4813  0.4120
  579SOL     OW 1863   0.814   0.373   1.131  0.8574 -0.1552 -0.0890
  579SOL    HW1 1864   0.770   0.334   1.207 -1.6190  0.3954 -1.1760
  579SOL    HW2 1865   0.902   0.336   1.134  1.4659  1.1122  4.0019
  580SOL     OW 1866   0.887   3.239   0.685  0.0614 -0.0598 -0.0573
  580SOL    HW1 1867   0.867   3.162   0.631  0.5227  0.8358 -1.5570
  580SOL    HW2 1868   0.803   3.283   0.695 -0.0218 -0.2160 -0.0553
  581SOL     OW 1869   0.949   1.807   1.025  0.2619  0.2914 -0.1594
  581SOL    HW1 1870   1.008   1.843   1.091  0.5647 -0.2028 -0.1570
  581SOL    HW2 1871   0.903   1.736   1.070  0.7285 -0.2842 -0.5762
  582SOL     OW 1872   0.583   2.166   1.113 -0.1445  0.2338  0.1131
  582SOL    HW1 1873   0.552   2.076   1.107  0.9886 -0.1328 -0.6963
  582SOL    HW2 1874   0.530   2.215   1.051  0.7703 -0.3647 -1.1939
  583SOL     OW 1875   0.051   1.527   3.507  0.5129  0.2724  0.3886
  583SOL    HW1 1876   0.140   1.519   3.543  0.7156  1.0379  0.0657
  583SOL    HW2 1877  -0.003   1.474   3.565  1.2131 -0.3585  0.4787
  584SOL     OW 1878   3.494   2.796   0.326 -0.2038  0.4133 -0.3061
  584SOL    HW1 1879   3.449   2.879   0.342  0.9387  0.7967  1.2486
  584SOL    HW2 1880   3.479   2.777   0.234 -0.2983  2.4827 -0.7612
  585SOL     OW 1881   0.458   3.475   0.230 -0.0150  0.6969  0.0918
  585SOL    HW1 1882   0.395   3.515   0.170  2.5174  2.9565 -1.3228
  585SOL    HW2 1883   0.491   3.549   0.282  1.3147 -0.4141  0.9090
  586SOL     OW 1884   3.606   1.211   2.738 -0.5983  0.1641 -0.3224
  586SOL    HW1 1885   3.617   1.130   2.688  0.0503 -0.1954  0.3978
  586SOL    HW2 1886   3.660   1.275   2.692 -0.1818 -0.1075 -0.2100
  587SOL     OW 1887   0.123   2.134   1.499  0.0875  0.4696 -0.0810
  587SOL    HW1 1888   0.163   2.209   1.455  1.4985  0.2620  0.7957
  587SOL    HW2 1889   0.082   2.171   1.577 -0.9283  0.5874 -0.6501
  588SOL     OW 1890   0.350   3.116   0.981  0.2021  0.0634  0.1557
  588SOL    HW1 1891   0.290   3.065   1.036  0.2058 -0.4376 -0.2864
  588SOL    HW2 1892   0.386   3.051   0.920  1.3059  0.3324  0.5048
  589SOL     OW 1893   1.429   0.163   3.382  0.0110 -0.7119  0.2952
  589SOL    HW1 1894   1.401   0.254   3.375  1.3141 -0.3719 -1.1536
  589SOL    HW2 1895   1.385   0.119   3.309 -0.6224 -1.2628  0.9990
  590SOL     OW 1896   0.799   2.539   1.724  0.8847 -0.2042  0.1938
  590SOL    HW1 1897   0.764   2.618   1.764 -1.0306  0.4999 -2.6410
  590SOL    HW2 1898   0.886   2.564   1.691  0.4718  0.6012 -0.2971
  591SOL     OW 1899   0.805   3.122   0.389 -0.1458 -0.5562 -0.0609
  591SOL    HW1 1900   0.722   3.135   0.434  0.5327 -2.7798  2.1101
  591SOL    HW2 1901   0.827   3.030   0.407  1.2259 -1.0253 -3.3450
  592SOL     OW 1902   1.764   3.501   0.861  0.1304 -0.1479 -0.5611
  592SOL    HW1 1903   1.780   3.535   0.949  0.9833 -0.9492 -0.3895
  592SOL    HW2 1904   1.771   3.406   0.870 -0.2414 -0.2648 -1.4056
  593SOL     OW 1905   1.595   2.647   0.596 -0.5720 -0.1490  0.3377
  593SOL    HW1 1906   1.565   2.612   0.679  1.1317 -0.8667  0.7018
  593SOL    HW2 1907   1.637   2.573   0.552  0.0271  0.6134 -0.4219
  594SOL     OW 1908   1.186   0.335   3.503 -0.0083 -0.4227 -0.1801
  594SOL    HW1 1909   1.145   0.253   3.476  0.7282 -0.4016 -1.4851
  594SOL    HW2 1910   1.211   0.377   3.420  0.2079  0.8143  0.4904
  595SOL     OW 1911   3.051   1.474   1.938  0.1243  0.8942  0.5516
  595SOL    HW1 1912   3.146   1.482   1.924  0.1116  2.5609  1.1419
  595SOL    HW2 1913   3.043   1.422   2.018  0.6100  1.9119  1.2825
  596SOL     OW 1914   3.361   0.537   2.802 -0.2866  0.4465  0.1437
  596SOL    HW1 1915   3.374   0.455   2.850 -0.8931 -0.6169 -1.4264
  596SOL    HW2 1916   3.281   0.523   2.752 -0.4506  2.0522 -0.1198
  597SOL     OW 1917   2.583   1.559   0.513 -0.1214  0.4421  0.2429
  597SOL    HW1 1918   2.653   1.499   0.536  0.3039  1.1067  0.7047
  597SOL    HW2 1919   2.562   1.605   0.594 -1.9631 -0.6159  0.4208
  598SOL     OW 1920   2.714   3.675   2.616 -0.1560  0.5660 -0.0947
  598SOL    HW1 1921   2.678   3.674   2.705  0.6557 -1.0696  0.2489
  598SOL    HW2 1922   2.638   3.692   2.560 -1.1439 -0.9224  0.7496
  599SOL     OW 1923   1.167   2.013   1.501  0.5491 -0.9503  0.0593
  599SOL    HW1 1924   1.210   1.946   1.554 -1.0141 -2.3771 -0.4000
  599SOL    HW2 1925   1.187   1.989   1.411 -1.0410 -1.5858 -0.1586
  600SOL     OW 1926   0.267   1.916   3.680 -0.7978  0.3765 -0.5287
  600SOL    HW1 1927   0.214   1.857   3.734  2.3696 -1.6272  0.7000
  600SOL    HW2 1928   0.282   1.867   3.599  0.6736  0.0030 -0.0736
  601SOL     OW 1929   1.048   0.072   0.923  0.3299 -0.6412 -0.0931
  601SOL    HW1 1930   0.987  -0.000   0.935  1.4255 -1.4407  0.8858
  601SOL    HW2 1931   1.058   0.080   0.828 -2.5801  0.6782 -0.4029
  602SOL     OW 1932   2.604   3.234   2.080 -0.3696  0.2924  0.3245
  602SOL    HW1 1933   2.536   3.205   2.019  0.2159  0.0641 -0.2197
  602SOL    HW2 1934   2.684   3.194   2.048 -0.0559  0.1305  1.2708
  603SOL     OW 1935   2.343   1.016   3.332 -0.1071 -0.2019 -0.1970
  603SOL    HW1 1936   2.278   1.080   3.304  0.1026  0.4125  0.6489
  603SOL    HW2 1937   2.415   1.069   3.367  0.3319 -0.8895 -0.0303
  604SOL     OW 1938   3.457   0.310   2.434 -0.4223  0.1827 -0.3626
  604SOL    HW1 1939   3.464   0.275   2.523 -0.9285  0.3695 -0.2464
  604SOL    HW2 1940   3.546   0.337   2.412 -0.5964  1.8218  0.7739
  605SOL     OW 1941   0.483   1.010   1.434 -0.2097 -0.1003  0.0950
  605SOL    HW1 1942   0.500   1.070   1.506 -1.1598  1.8169 -1.1839
  605SOL    HW2 1943   0.536   0.933   1.453  1.5611  1.3963  1.4967
  606SOL     OW 1944   0.055   2.583   2.346 -0.1362 -0.5681 -0.5977
  606SOL    HW1 1945   0.024   2.555   2.260 -2.2281 -0.0101 -0.0953
  606SOL    HW2 1946  -0.019   2.632   2.383  1.4619  1.0480  0.6688
  607SOL     OW 1947   0.580   2.754   3.264 -0.1141 -0.0492  0.5521
  607SOL    HW1 1948   0.530   2.834   3.278 -0.2269 -0.3015  1.6385
  607SOL    HW2 1949   0.581   2.743   3.168 -0.1224  1.2207  0.3904
  608SOL     OW 1950   3.026   2.375   2.902 -0.6574 -0.5436  0.0998
  608SOL    HW1 1951   3.072   2.301   2.864 -0.5144  0.0103 -0.8401
  608SOL    HW2 1952   2.949   2.337   2.944  1.1641 -1.6312  2.6761
  609SOL     OW 1953   0.710   2.332   3.618  0.0869 -0.4456  0.3555
  609SOL    HW1 1954   0.767   2.370   3.685 -1.3988 -2.6648  3.0753
  609SOL    HW2 1955   0.627   2.379   3.628 -0.1114 -0.7114 -0.0136
  610SOL     OW 1956   0.273   3.117   0.054  0.2355  0.3941  0.4332
  610SOL    HW1 1957   0.192   3.167   0.061 -0.5921 -0.9406  0.8078
  610SOL    HW2 1958   0.337   3.179   0.020 -1.2516  1.1720 -1.1081
  611SOL     OW 1959   2.792   3.435   2.867 -0.2803  0.2663  0.2404
  611SOL    HW1 1960   2.852   3.400   2.932  1.9492  1.0577 -1.2976
  611SOL    HW2 1961   2.793   3.371   2.796 -1.1928  0.3572  0.1254
  612SOL     OW 1962   1.488   2.440   0.303  0.3450 -0.0337 -0.4066
  612SOL    HW1 1963   1.490   2.524   0.350 -0.2374 -0.8454  1.1465
  612SOL    HW2 1964   1.566   2.442   0.248  0.8965  1.1113  0.3683
  613SOL     OW 1965   2.155   1.144   0.536 -0.2153 -0.0162  0.7476
  613SOL    HW1 1966   2.198   1.229   0.540  0.5098 -0.4100  1.4681
  613SOL    HW2 1967   2.170   1.105   0.622 -0.5669 -0.8656  0.4362
  614SOL     OW 1968   0.859   2.955   0.627 -0.4631 -0.3855  0.2653
  614SOL    HW1 1969   0.796   2.905   0.575 -0.5803 -2.2265  2.0514
  614SOL    HW2 1970   0.818   2.963   0.713  1.3309 -0.8990  1.2279
  615SOL     OW 1971   2.050   2.185   0.370 -0.3612 -0.1533  0.4814
  615SOL    HW1 1972   2.132   2.225   0.345 -0.3112 -0.8431 -0.5055
  615SOL    HW2 1973   2.001   2.175   0.289 -2.0209  1.4895  1.2078
  616SOL     OW 1974   0.289   2.631   0.004  0.1874  0.1439  0.0085
  616SOL    HW1 1975   0.317   2.721  -0.014  0.4718  0.0781  0.1149
  616SOL    HW2 1976   0.358   2.595   0.060 -0.6584  0.3353  1.2116
  617SOL     OW 1977   2.419   2.656   1.261 -0.0556 -0.5231  0.6447
  617SOL    HW1 1978   2.326   2.651   1.286 -0.8627  1.7053 -1.5446
  617SOL    HW2 1979   2.425   2.736   1.209  3.3531 -0.0365  1.5842
  618SOL     OW 1980   2.832   2.218   3.584 -0.4896  0.5347  0.2893
  618SOL    HW1 1981   2.867   2.152   3.524 -0.9000 -0.6707  1.3178
  618SOL    HW2 1982   2.909   2.267   3.614 -0.0775  0.0203  0.0826
  619SOL     OW 1983   3.128   3.353   0.542 -0.5578 -0.2426 -0.2266
  619SOL    HW1 1984   3.177   3.271   0.545 -0.1566  0.0054  0.2060
  619SOL    HW2 1985   3.195   3.422   0.548 -1.0177  0.0920  1.8857
  620SOL     OW 1986   1.221   0.682   2.899 -1.1094  0.0919 -0.0172
  620SOL    HW1 1987   1.212   0.742   2.825  1.2954 -1.8153 -2.0292
  620SOL    HW2 1988   1.278   0.728   2.961  0.9117 -0.0841 -1.6417
  621SOL     OW 1989   0.527   1.103   3.615  0.0788  0.2323  0.0603
  621SOL    HW1 1990   0.550   1.087   3.707  0.5525  1.0772  0.0961
  621SOL    HW2 1991   0.455   1.166   3.619 -0.5457 -0.4512 -0.1331
  622SOL     OW 1992   0.903   3.127   3.579  0.8448 -0.0849 -0.4062
  622SOL    HW1 1993   0.928   3.035   3.594  0.2608 -0.1786  0.0644
  622SOL    HW2 1994   0.837   3.144   3.647  0.8092  0.6244 -0.6191
  623SOL     OW 1995   0.396   2.305   0.143 -0.3053 -0.1354  0.0148
  623SOL    HW1 1996   0.452   2.289   0.218 -0.7654 -0.8369  0.2202
  623SOL    HW2 1997   0.319   2.250   0.158 -1.3312  1.2447  0.0415
  624SOL     OW 1998   2.354   2.400   3.336 -0.0972  0.6392  0.4178
  624SOL    HW1 1999   2.358   2.419   3.430 -1.2863 -0.2176  0.6605
  624SOL    HW2 2000   2.264   2.371   3.321  0.2124  0.2969 -0.9034
  625SOL     OW 2001   3.311   0.531   2.527  0.2162  0.1944 -0.4342
  625SOL    HW1 2002   3.237   0.478   2.557  0.0598 -1.0869 -2.8057
  625SOL    HW2 2003   3.375   0.468   2.496  0.1928  1.2817 -3.0043
  626SOL     OW 2004   2.823   3.114   1.333  0.0044  0.9522 -0.1052
  626SOL    HW1 2005   2.908   3.078   1.360 -1.0663 -2.0470 -0.3688
  626SOL    HW2 2006   2.777   3.131   1.415 -1.2872 -3.2334  0.2873
  627SOL     OW 2007   2.337   0.343   3.500 -0.1266  0.0935 -0.0717
  627SOL    HW1 2008   2.424   0.381   3.487 -0.0262 -0.1689 -0.1647
  627SOL    HW2 2009   2.353   0.258   3.539 -0.4143  0.7226  1.5030
  628SOL     OW 2010   0.314   1.128   1.685 -0.4933 -0.3168 -0.3170
  628SOL    HW1 2011   0.330   1.206   1.738  1.5670  0.1232 -1.4846
  628SOL    HW2 2012   0.308   1.056   1.748 -0.4556  0.5101  0.6410
  629SOL     OW 2013   0.561   0.908   3.411 -0.3597 -0.4559  0.3840
  629SOL    HW1 2014   0.588   0.969   3.479  1.8016 -0.6006 -0.2846
  629SOL    HW2 2015   0.595   0.945   3.330 -0.3186 -1.7712 -0.2292
  630SOL     OW 2016   1.908   0.386   2.968  0.2519 -0.7331 -0.2673
  630SOL    HW1 2017   1.947   0.300   2.949  1.9154 -0.3154  1.0672
  630SOL    HW2 2018   1.910   0.432   2.884 -0.3582 -1.8554 -0.9271
  631SOL     OW 2019   0.912   2.560   0.473 -0.2410 -0.8057 -0.3869
  631SOL    HW1 2020   0.906   2.656   0.468 -0.5183 -0.8019  0.0173
  631SOL    HW2 2021   0.988   2.539   0.418  1.0716 -0.1813  1.1040
  632SOL     OW 2022   2.365   3.098   2.483 -1.0920  0.9381 -0.5967
  632SOL    HW1 2023   2.400   3.185   2.463 -0.2711  0.4452 -1.3858
  632SOL    HW2 2024   2.341   3.062   2.397  0.9122 -0.5660 -0.5968
  633SOL     OW 2025   3.387   3.324   3.326  0.0755  0.2753  0.6484
  633SOL    HW1 2026   3.393   3.254   3.261  0.7435  0.1250  0.8603
  633SOL    HW2 2027   3.442   3.394   3.290  0.7725  0.0397  1.2282
  634SOL     OW 2028   0.013   1.862   0.587  0.1030 -0.1574  0.2259
  634SOL    HW1 2029   0.079   1.931   0.594  0.4351 -0.2985 -1.2163
  634SOL    HW2 2030  -0.009   1.860   0.494 -3.4190  1.2659  0.8829
  635SOL     OW 2031   0.776   0.957   1.938 -0.2967  0.4628 -0.2257
  635SOL    HW1 2032   0.796   1.050   1.951  0.6142  0.0884  1.3459
  635SOL    HW2 2033   0.862   0.914   1.941 -0.7993 -0.5374  0.1807
  636SOL     OW 2034   2.174   2.622   3.519  0.3598 -1.0501 -0.3708
  636SOL    HW1 2035   2.200   2.696   3.464 -2.4434 -1.7715 -2.9403
  636SOL    HW2 2036   2.112   2.661   3.581 -0.8691 -1.1136 -1.5136
  637SOL     OW 2037   0.405   0.844   2.906 -0.0478  0.1088  0.3697
  637SOL    HW1 2038   0.450   0.783   2.848  0.2461  1.0456 -0.4187
  637SOL    HW2 2039   0.313   0.837   2.882  0.1648  1.1359 -0.8825
  638SOL     OW 2040   1.674   1.219   3.597  0.0467  0.2552 -0.3558
  638SOL    HW1 2041   1.606   1.162   3.633  0.4696 -0.4293 -0.6102
  638SOL    HW2 2042   1.714   1.167   3.527  1.0260  0.5173 -0.0092
  639SOL     OW 2043   3.023   2.491   1.984 -0.2281 -0.9037  0.3952
  639SOL    HW1 2044   3.115   2.474   1.966  0.2845  2.1923 -0.4169
  639SOL    HW2 2045   2.976   2.443   1.915  0.9139 -0.7075 -0.5330
  640SOL     OW 2046   2.851   2.196   3.060 -0.1933 -0.0142 -0.8778
  640SOL    HW1 2047   2.920   2.207   3.126 -1.0079 -0.2281  0.0499
  640SOL    HW2 2048   2.878   2.119   3.010  0.4989  0.2159 -0.8653
  641SOL     OW 2049   1.868   2.603   0.786 -0.3887 -0.1960  0.0737
  641SOL    HW1 2050   1.920   2.576   0.862 -0.3076 -1.6738 -0.4824
  641SOL    HW2 2051   1.822   2.682   0.816  0.4283 -0.1569  1.3155
  642SOL     OW 2052  -0.008   1.044   2.379 -0.3570  0.2544 -0.3476
  642SOL    HW1 2053  -0.029   0.953   2.358  1.1315  0.0780 -1.2719
  642SOL    HW2 2054   0.085   1.042   2.402 -0.3218  1.5350 -0.3023
  643SOL     OW 2055   1.628   0.075   3.579 -0.2915 -0.2422 -1.0478
  643SOL    HW1 2056   1.693   0.138   3.611 -0.7138 -0.6575  0.7410
  643SOL    HW2 2057   1.580   0.123   3.512 -1.4136  1.8806  1.0772
  644SOL     OW 2058   1.448   1.607   3.715  0.4187 -0.3330  0.3606
  644SOL    HW1 2059   1.538   1.621   3.745  0.1922 -1.0635  1.4350
  644SOL    HW2 2060   1.455   1.605   3.620  1.7978 -2.0199  0.4489
  645SOL     OW 2061   1.598   0.665   2.860 -0.0984 -0.2036 -0.1911
  645SOL    HW1 2062   1.621   0.677   2.768 -2.5596 -1.5537 -1.0851
  645SOL    HW2 2063   1.528   0.599   2.859  0.9185 -1.5227  2.8008
  646SOL     OW 2064   1.396   0.065   2.980  0.8280 -0.3314 -0.0690
  646SOL    HW1 2065   1.458  -0.007   2.991  0.5861 -0.2907  2.0432
  646SOL    HW2 2066   1.450   0.140   2.955  1.4845 -0.6011  0.5015
  647SOL     OW 2067   3.560   2.580   0.623 -0.3170  0.0997 -0.1172
  647SOL    HW1 2068   3.580   2.579   0.529  1.9775  1.0266  0.2759
  647SOL    HW2 2069   3.533   2.670   0.642  0.8909  0.3971  0.3451
  648SOL     OW 2070   3.157   0.133   2.060  0.6143 -0.1358 -0.1867
  648SOL    HW1 2071   3.063   0.114   2.054  0.4679  0.0493  1.1593
  648SOL    HW2 2072   3.170   0.158   2.152  1.8081  0.7820 -0.5812
  649SOL     OW 2073   1.530   1.695   1.403 -0.2120 -0.4563 -0.3040
  649SOL    HW1 2074   1.481   1.743   1.470 -0.2453 -1.5401  0.4872
  649SOL    HW2 2075   1.500   1.605   1.412 -0.8774 -0.4887 -2.4182
  650SOL     OW 2076   0.522   1.070   2.901 -0.5322  0.4303  0.3184
  650SOL    HW1 2077   0.499   1.113   2.819 -0.8001  0.2592  0.3018
  650SOL    HW2 2078   0.464   0.994   2.905 -0.3027  0.2653  0.5152
  651SOL     OW 2079   0.555   3.086   0.651  0.6180  0.5965 -0.3941
  651SOL    HW1 2080   0.469   3.123   0.670  0.5176 -0.0567  0.5152
  651SOL    HW2 2081   0.538   2.993   0.638  1.3104  0.2538  0.9148
  652SOL     OW 2082   2.004   2.461   1.473 -0.0713 -0.5227  0.4240
  652SOL    HW1 2083   1.990   2.525   1.543 -0.6223 -0.7764  0.5514
  652SOL    HW2 2084   1.916   2.441   1.441  0.1406 -0.7736 -0.0156
  653SOL     OW 2085   3.091   0.748   1.302  0.5347 -0.4216 -0.8844
  653SOL    HW1 2086   3.119   0.813   1.366  0.6113  1.3272 -2.5965
  653SOL    HW2 2087   3.003   0.775   1.277  1.5924  0.8284 -3.6868
  654SOL     OW 2088   2.311   0.084   3.630  0.1299 -0.4071 -0.0085
  654SOL    HW1 2089   2.393   0.041   3.654 -0.6216 -1.1267  1.3984
  654SOL    HW2 2090   2.289   0.047   3.544  1.6363  0.3619 -0.7556
  655SOL     OW 2091   1.214   2.638   1.216 -0.6826  0.3207  0.0075
  655SOL    HW1 2092   1.150   2.605   1.153 -0.1297 -1.0486  0.1229
  655SOL    HW2 2093   1.276   2.566   1.227  2.6276  2.4967 -2.3428
  656SOL     OW 2094   3.660   0.807   3.689 -0.7403  0.3503 -0.3589
  656SOL    HW1 2095   3.599   0.739   3.719  0.6867 -1.6587 -1.6983
  656SOL    HW2 2096   3.694   0.773   3.606  0.1937  2.6611 -0.9855
  657SOL     OW 2097   2.684   1.334   3.579  0.1036 -0.2414 -0.1480
  657SOL    HW1 2098   2.640   1.255   3.609 -0.8262  0.7771  1.2713
  657SOL    HW2 2099   2.625   1.405   3.603  1.9115  1.0740  0.6049
  658SOL     OW 2100   0.131   0.435   3.431  0.1690 -0.4110  0.4872
  658SOL    HW1 2101   0.175   0.462   3.350 -0.3971  0.8713  0.5820
  658SOL    HW2 2102   0.038   0.447   3.414  0.1167  1.7097  1.9083
  659SOL     OW 2103   2.940   2.184   0.386 -0.6485  0.0329 -0.6242
  659SOL    HW1 2104   2.917   2.130   0.311 -0.2530 -0.9488 -0.0486
  659SOL    HW2 2105   3.016   2.141   0.425 -0.4270  0.9095 -0.0574
  660SOL     OW 2106   2.671   2.313   1.624  0.9305  0.2104  0.0140
  660SOL    HW1 2107   2.609   2.294   1.694  1.0965 -0.7342 -0.0798
  660SOL    HW2 2108   2.632   2.386   1.576 -0.3745 -0.6852 -0.3433
  661SOL     OW 2109   2.949   1.401   3.695  0.8793  0.0567 -0.2633
  661SOL    HW1 2110   2.875   1.403   3.634  1.4237 -1.3631 -1.0271
  661SOL    HW2 2111   2.910   1.383   3.780  0.1774  1.2967 -0.3056
  662SOL     OW 2112   1.462   1.028   1.845 -0.0388 -0.0573 -0.2150
  662SOL    HW1 2113   1.370   0.999   1.847  0.2865 -1.1219  1.2533
  662SOL    HW2 2114   1.462   1.108   1.897 -0.3515  0.7192 -1.3800
  663SOL     OW 2115   1.024   3.367   3.572  0.1457 -0.0649 -0.2508
  663SOL    HW1 2116   0.974   3.285   3.566 -0.9439  0.4882  0.9033
  663SOL    HW2 2117   1.021   3.390   3.665  1.2900  0.7876 -0.3972
  664SOL     OW 2118   2.245   1.198   3.673  0.1098  0.0831 -0.6807
  664SOL    HW1 2119   2.171   1.258   3.673 -0.1335 -0.0985  1.8028
  664SOL    HW2 2120   2.291   1.216   3.591 -1.1966  2.0625 -1.0499
  665SOL     OW 2121   2.140   0.607   1.393 -0.4119 -0.2480 -0.5758
  665SOL    HW1 2122   2.117   0.661   1.468  2.7038 -0.3271  0.5731
  665SOL    HW2 2123   2.168   0.670   1.326 -0.7765 -0.2727 -0.7508
  666SOL     OW 2124   1.133   2.870   2.734 -0.3482  0.6647  0.9056
  666SOL    HW1 2125   1.125   2.904   2.824  0.2053  1.4795  0.6534
  666SOL    HW2 2126   1.210   2.914   2.698 -1.7231  1.9318 -0.6534
  667SOL     OW 2127   3.320   3.197   3.555  0.0174  0.2994 -0.3757
  667SOL    HW1 2128   3.373   3.232   3.483  2.0873 -0.3409  0.7513
  667SOL    HW2 2129   3.301   3.107   3.528  1.2717 -0.1247  0.0711
  668SOL     OW 2130   2.726   2.861   1.292 -0.3975 -0.4745  0.3276
  668SOL    HW1 2131   2.762   2.945   1.264 -0.1714 -0.6563  0.0708
  668SOL    HW2 2132   2.803   2.808   1.314 -0.5036 -0.8921 -0.2949
  669SOL     OW 2133   3.710   2.934   3.329  0.5307  0.4747  0.1997
  669SOL    HW1 2134   3.674   2.873   3.393  0.1536 -0.6498 -1.0354
  669SOL    HW2 2135   3.637   2.992   3.306  0.9288  1.5350  1.4853
  670SOL     OW 2136   1.618   0.813   0.341  0.4956 -0.4826  0.0162
  670SOL    HW1 2137   1.566   0.860   0.406  0.8035  0.3163 -0.3078
  670SOL    HW2 2138   1.682   0.764   0.393 -0.0990 -0.8861  0.3772
  671SOL     OW 2139   2.947   2.581   1.678  0.3608  0.5405  0.0591
  671SOL    HW1 2140   2.959   2.573   1.584  1.5634  0.2632  0.2133
  671SOL    HW2 2141   2.958   2.492   1.711 -0.8544  0.4997  0.3947
  672SOL     OW 2142   1.096   0.184   0.135  0.0094  0.0935  0.1485
  672SOL    HW1 2143   1.027   0.138   0.182 -1.2150  0.2339 -1.4101
  672SOL    HW2 2144   1.058   0.269   0.114  0.8413  0.3687 -0.2894
  673SOL     OW 2145   2.919   1.922   2.992 -0.6015  0.5019  0.2797
  673SOL    HW1 2146   3.007   1.895   3.021 -0.9367  0.7433  1.5567
  673SOL    HW2 2147   2.870   1.840   2.985 -0.3960  0.4041 -0.0400
  674SOL     OW 2148   0.701   1.097   2.686 -0.1217 -0.5270  0.0348
  674SOL    HW1 2149   0.701   1.006   2.659 -1.7888 -0.6630  0.3612
  674SOL    HW2 2150   0.653   1.097   2.769  1.4085  0.4102  0.9608
  675SOL     OW 2151   1.225   0.973   0.098  0.3664 -0.5327 -0.3215
  675SOL    HW1 2152   1.181   1.037   0.043  0.3859 -0.0724  0.1881
  675SOL    HW2 2153   1.165   0.899   0.102 -1.4096  0.8772  2.0729
  676SOL     OW 2154   0.995   2.678   2.284  0.5378 -0.1658 -0.0279
  676SOL    HW1 2155   1.011   2.620   2.359  1.8052 -0.3981 -0.4636
  676SOL    HW2 2156   1.067   2.740   2.285 -0.0813  0.5816 -0.3713
  677SOL     OW 2157   1.380   2.522   2.025 -0.9702  0.3536 -0.3464
  677SOL    HW1 2158   1.455   2.463   2.027 -0.1641  1.3520  1.3550
  677SOL    HW2 2159   1.411   2.598   1.976 -0.7618  0.8488  0.5210
  678SOL     OW 2160   0.212   2.486   2.544 -0.4318  0.4203  0.8044
  678SOL    HW1 2161   0.289   2.467   2.491 -0.6391  0.1532  0.5955
  678SOL    HW2 2162   0.144   2.509   2.481 -0.2378  1.7048  1.0465
  679SOL     OW 2163   2.390   3.306   0.801  0.2454 -0.2306  0.1497
  679SOL    HW1 2164   2.384   3.225   0.852 -0.4899  0.7116  1.6310
  679SOL    HW2 2165   2.480   3.307   0.768  0.7272 -0.9318  1.3763
  680SOL     OW 2166   1.333   3.748   0.291 -0.1791  0.2739 -0.4085
  680SOL    HW1 2167   1.259   3.689   0.275  0.1497 -0.4100  0.5042
  680SOL    HW2 2168   1.406   3.690   0.310  0.5311  0.9571 -0.9949
  681SOL     OW 2169   0.738   0.436   2.894  0.6455  0.5677 -0.4052
  681SOL    HW1 2170   0.756   0.345   2.916  1.1172  0.9957  1.0811
  681SOL    HW2 2171   0.742   0.439   2.798  0.2911 -1.0288 -0.4877
  682SOL     OW 2172   2.068   0.856   1.123  0.3364 -0.2801  0.0595
  682SOL    HW1 2173   2.005   0.859   1.195 -0.6725  0.2685 -0.8186
  682SOL    HW2 2174   2.016   0.875   1.045  1.2736 -1.5972 -0.9149
  683SOL     OW 2175   2.111   2.063   1.450 -0.0106  0.0416 -0.2775
  683SOL    HW1 2176   2.153   2.132   1.500  1.9127  0.4840 -2.3250
  683SOL    HW2 2177   2.176   1.993   1.446 -1.0550 -0.9773 -0.1551
  684SOL     OW 2178   0.769   0.154   2.351 -0.1340 -0.4168 -0.3747
  684SOL    HW1 2179   0.727   0.103   2.420  2.2571  0.0896  1.5789
  684SOL    HW2 2180   0.770   0.244   2.384  2.5116 -0.4283 -0.2178
  685SOL     OW 2181   2.164   3.076   2.988 -0.1443 -0.2554 -0.4774
  685SOL    HW1 2182   2.174   3.050   2.897 -0.3373 -0.4500 -0.4432
  685SOL    HW2 2183   2.252   3.064   3.026  0.4586  1.7662 -1.1251
  686SOL     OW 2184   0.543   1.567   1.703 -0.3717  0.6817 -0.1571
  686SOL    HW1 2185   0.596   1.589   1.780 -0.2011  2.0687 -0.6445
  686SOL    HW2 2186   0.595   1.598   1.629  0.6080 -2.7323 -1.1074
  687SOL     OW 2187   2.448   0.875   0.451  0.2831  0.2518  0.2993
  687SOL    HW1 2188   2.368   0.872   0.504  1.3142  1.5279  2.0479
  687SOL    HW2 2189   2.519   0.866   0.515  1.5640 -0.6347 -1.1819
  688SOL     OW 2190   2.494   2.180   1.023 -0.1843  0.2527 -0.2166
  688SOL    HW1 2191   2.564   2.244   1.011  1.6025 -1.5711  0.0295
  688SOL    HW2 2192   2.426   2.206   0.961  0.4297  2.4061 -0.0480
  689SOL     OW 2193   1.759   2.786   3.599 -0.1648 -0.0427  0.0441
  689SOL    HW1 2194   1.784   2.822   3.514 -1.1209 -1.4184 -0.8575
  689SOL    HW2 2195   1.703   2.853   3.638 -1.6428 -0.3662 -1.4541
  690SOL     OW 2196   2.821   1.526   1.197  0.1229  0.0837 -0.8494
  690SOL    HW1 2197   2.735   1.568   1.205  0.2977  0.5893 -1.4986
  690SOL    HW2 2198   2.801   1.435   1.176 -0.2601 -0.2353  0.8075
  691SOL     OW 2199   1.496   1.177   0.422  0.3971  0.3647 -0.0017
  691SOL    HW1 2200   1.430   1.239   0.452  0.1905 -0.2819  0.9528
  691SOL    HW2 2201   1.554   1.228   0.366  1.1850  1.8534  2.0361
  692SOL     OW 2202   2.761   1.224   2.012  0.3865  0.4316 -0.9190
  692SOL    HW1 2203   2.683   1.169   2.005  1.4319 -1.0397 -1.4429
  692SOL    HW2 2204   2.799   1.223   1.924  0.9800  1.1628 -0.6806
  693SOL     OW 2205   2.512   2.820   1.008  0.0867  0.0307  0.4763
  693SOL    HW1 2206   2.529   2.726   0.994  1.6435  0.3802 -0.1967
  693SOL    HW2 2207   2.597   2.856   1.031 -0.7442  1.0769  2.1228
  694SOL     OW 2208   0.439   1.155   0.652 -0.1967 -0.0117  0.3132
  694SOL    HW1 2209   0.428   1.157   0.557 -1.9531 -1.7956  0.4024
  694SOL    HW2 2210   0.490   1.076   0.669  0.1508  0.3239  0.8539
  695SOL     OW 2211   2.012   2.405   0.137  0.4770 -0.2681 -0.4858
  695SOL    HW1 2212   2.007   2.330   0.078  1.7574 -0.7068 -0.0786
  695SOL    HW2 2213   2.102   2.403   0.171  0.3768  1.1434 -0.0615
  696SOL     OW 2214   2.202   3.484   1.922 -0.5095  0.2940  0.5143
  696SOL    HW1 2215   2.157   3.455   1.842  0.1174  1.6460 -0.3769
  696SOL    HW2 2216   2.284   3.521   1.890  0.0379  0.2886  1.8682
  697SOL     OW 2217   2.046   0.362   2.147 -0.0749 -0.6810 -0.7880
  697SOL    HW1 2218   1.965   0.413   2.151 -0.0288 -0.4500  4.6741
  697SOL    HW2 2219   2.116   0.428   2.150  0.2155 -0.9800 -0.9113
  698SOL     OW 2220   0.200   0.485   3.689  0.0104 -0.6972 -0.0711
  698SOL    HW1 2221   0.195   0.463   3.595  1.5348  0.8250 -0.5591
  698SOL    HW2 2222   0.251   0.565   3.692 -2.5548  1.0498  1.8527
  699SOL     OW 2223   2.095   1.808   0.174  0.4271  0.0477  0.0163
  699SOL    HW1 2224   2.180   1.820   0.216  1.2629 -0.5002 -1.4306
  699SOL    HW2 2225   2.095   1.870   0.102 -1.3840  1.6704  1.3133
  700SOL     OW 2226   2.387   2.503   3.620 -0.1483  0.2107 -0.4721
  700SOL    HW1 2227   2.303   2.545   3.606 -0.4055 -0.8044 -2.2908
  700SOL    HW2 2228   2.400   2.505   3.715 -0.6433  3.2990 -0.3716
  701SOL     OW 2229   3.379   3.345   2.794  0.2224 -0.3116 -0.4573
  701SOL    HW1 2230   3.299   3.318   2.840  0.5323 -1.6772 -0.6671
  701SOL    HW2 2231   3.398   3.432   2.829 -0.7411 -0.4213  0.4086
  702SOL     OW 2232   0.121   1.689   2.479  0.5640  0.0326 -0.0653
  702SOL    HW1 2233   0.119   1.766   2.421  0.9885  1.2236  1.4423
  702SOL    HW2 2234   0.140   1.725   2.566 -0.7354 -1.6288  0.9556
  703SOL     OW 2235   3.253   0.052   1.381  0.1597  0.4622 -0.0158
  703SOL    HW1 2236   3.219   0.061   1.470  0.7084 -0.5810  0.3037
  703SOL    HW2 2237   3.181   0.083   1.325 -0.7999 -0.3829  0.7146
  704SOL     OW 2238   0.974   0.214   2.781 -0.0799 -0.4713  1.0906
  704SOL    HW1 2239   0.971   0.189   2.688 -1.4681  0.1811  0.9379
  704SOL    HW2 2240   0.888   0.189   2.815 -0.8078  2.2140  1.4052
  705SOL     OW 2241   3.381   2.370   0.502 -0.0343 -0.7725  0.1140
  705SOL    HW1 2242   3.468   2.350   0.468  1.5808  1.9750  2.2571
  705SOL    HW2 2243   3.343   2.430   0.438 -0.0298 -1.3003 -0.3943
  706SOL     OW 2244   1.456   3.294   1.246  0.9222 -0.3128  0.0124
  706SOL    HW1 2245   1.442   3.332   1.333 -0.6768  0.0076 -0.3485
  706SOL    HW2 2246   1.469   3.370   1.189 -0.2665 -0.3621 -0.3680
  707SOL     OW 2247   0.773   2.214   1.614 -0.0341  0.6880 -0.1940
  707SOL    HW1 2248   0.699   2.209   1.554  0.5759  0.3758 -0.9339
  707SOL    HW2 2249   0.825   2.136   1.595 -0.4886 -0.1365  1.6409
  708SOL     OW 2250   1.011   3.590   0.655  0.4798  0.5738  0.4557
  708SOL    HW1 2251   1.106   3.576   0.657  0.6930  1.8829  1.6885
  708SOL    HW2 2252   0.977   3.530   0.721  0.6078  0.9165  0.8442
  709SOL     OW 2253   2.694   1.411   1.644 -0.3105  0.5527  0.3204
  709SOL    HW1 2254   2.775   1.361   1.636 -1.2891 -0.7782 -2.3946
  709SOL    HW2 2255   2.717   1.499   1.615 -0.0998 -0.2361 -2.1524
  710SOL     OW 2256   2.657   0.337   1.141  0.4226 -1.1507  0.2817
  710SOL    HW1 2257   2.623   0.360   1.055  1.1701  3.0613  0.8970
  710SOL    HW2 2258   2.580   0.322   1.195 -0.2028 -0.0179 -0.2728
  711SOL     OW 2259   3.492   2.131   0.351  0.0380 -0.7229 -0.0303
  711SOL    HW1 2260   3.454   2.103   0.434 -0.6909  0.2942 -0.0057
  711SOL    HW2 2261   3.417   2.137   0.291  0.3511 -0.0549 -0.3631
  712SOL     OW 2262   0.388   1.220   3.103 -0.6518 -0.0853  0.6149
  712SOL    HW1 2263   0.308   1.170   3.084 -0.7473  0.0736  0.5998
  712SOL    HW2 2264   0.444   1.205   3.027  0.5322 -2.5785  1.8768
  713SOL     OW 2265   3.094   2.660   0.218  0.0125 -0.4774 -0.3270
  713SOL    HW1 2266   3.174   2.666   0.269 -0.3581  0.7690  0.1433
  713SOL    HW2 2267   3.039   2.598   0.265  0.9131 -1.8146 -0.9818
  714SOL     OW 2268   0.585   2.764   2.334  0.4963  0.6403  0.4029
  714SOL    HW1 2269   0.582   2.802   2.421 -0.0043  0.1406  0.6129
  714SOL    HW2 2270   0.650   2.695   2.340 -0.7080 -0.5075  0.8657
  715SOL     OW 2271   2.990   1.536   2.793  0.4215  0.1865  0.7178
  715SOL    HW1 2272   2.986   1.447   2.830  0.5637 -0.0123  0.2664
  715SOL    HW2 2273   3.072   1.572   2.828  1.2760 -0.5042 -0.4778
  716SOL     OW 2274   2.693   1.587   2.804 -0.3921  0.0641  0.1083
  716SOL    HW1 2275   2.665   1.668   2.762  1.9917  2.1767  2.2804
  716SOL    HW2 2276   2.788   1.595   2.812 -0.2245 -2.3398  1.6084
  717SOL     OW 2277   3.529   3.335   1.360 -0.4664 -0.1702 -0.4711
  717SOL    HW1 2278   3.485   3.419   1.358  1.9211  1.1710  0.0706
  717SOL    HW2 2279   3.492   3.290   1.436 -2.1432  0.1066 -1.0735
  718SOL     OW 2280   3.292   0.305   3.274  0.4217  0.3311  0.5010
  718SOL    HW1 2281   3.200   0.326   3.292  0.5710  0.6295  0.9391
  718SOL    HW2 2282   3.341   0.361   3.334  0.8467 -1.3581  1.8076
  719SOL     OW 2283   2.384   1.792   1.977 -0.2150  0.5118  0.4703
  719SOL    HW1 2284   2.367   1.698   1.985  0.9028  0.2199 -0.2437
  719SOL    HW2 2285   2.462   1.797   1.921 -0.8302  1.9030 -0.3141
  720SOL     OW 2286   0.491   3.243   3.403  0.3242 -0.7361  0.2361
  720SOL    HW1 2287   0.459   3.278   3.486  0.4891 -1.3320  0.5598
  720SOL    HW2 2288   0.512   3.320   3.351  1.0469 -0.3526  1.0741
  721SOL     OW 2289   2.986   2.455   3.281  0.0727 -0.1673 -0.2762
  721SOL    HW1 2290   3.068   2.423   3.320 -1.0635 -3.7077 -0.4650
  721SOL    HW2 2291   2.992   2.432   3.189 -0.4855  1.0854 -0.6501
  722SOL     OW 2292   0.982   2.924   0.907 -0.3335  0.3672 -0.5714
  722SOL    HW1 2293   0.897   2.924   0.862 -1.0381 -0.7546  0.6829
  722SOL    HW2 2294   0.961   2.944   0.998  0.7582  0.1153 -0.2495
  723SOL     OW 2295   2.097   3.272   0.358  0.3274 -0.2558  0.4957
  723SOL    HW1 2296   2.041   3.286   0.281 -1.0192 -0.6691  1.3699
  723SOL    HW2 2297   2.113   3.178   0.358 -1.2378 -0.5601  1.7306
  724SOL     OW 2298   0.172   1.777   3.460 -0.0764  0.3135 -0.5198
  724SOL    HW1 2299   0.085   1.796   3.424  0.5319  1.6841 -1.3772
  724SOL    HW2 2300   0.159   1.703   3.519 -1.4709 -0.7936 -2.1389
  725SOL     OW 2301   3.302   3.592   2.272  0.4064  0.1366  0.3663
  725SOL    HW1 2302   3.300   3.554   2.361  0.0309  2.0908  1.2395
  725SOL    HW2 2303   3.279   3.684   2.285  1.7526  0.8116 -1.5962
  726SOL     OW 2304   3.325   0.355   1.230  0.1509 -0.2944  0.0815
  726SOL    HW1 2305   3.353   0.403   1.152  0.7782 -0.1017  0.4148
  726SOL    HW2 2306   3.236   0.386   1.247  0.0873 -0.1883 -0.4408
  727SOL     OW 2307   2.772   2.804   2.718 -0.0199  0.1458 -0.4340
  727SOL    HW1 2308   2.794   2.849   2.636  0.5519  2.7909  1.0381
  727SOL    HW2 2309   2.678   2.817   2.729  0.0485  0.5173 -0.2793
  728SOL     OW 2310   2.293   3.361   0.551  0.0078 -0.4872 -0.2651
  728SOL    HW1 2311   2.213   3.329   0.509 -1.7180  3.2390 -0.3011
  728SOL    HW2 2312   2.285   3.334   0.643 -2.5674  1.5424  0.2483
  729SOL     OW 2313   2.311   0.668   3.699  0.0537  0.0991  0.1833
  729SOL    HW1 2314   2.246   0.614   3.745  0.7469  0.3742  1.5328
  729SOL    HW2 2315   2.267   0.752   3.685 -1.0106 -0.7206 -1.8741
  730SOL     OW 2316   2.295   2.742   0.446  0.4528 -0.0816 -0.0047
  730SOL    HW1 2317   2.309   2.706   0.534  0.4239 -0.4360 -0.1402
  730SOL    HW2 2318   2.378   2.783   0.423  0.2005  0.7552  0.5203
  731SOL     OW 2319   3.555   1.045   3.713 -0.1721 -0.1465  0.4767
  731SOL    HW1 2320   3.582   0.955   3.698  0.3632  0.2194 -0.8986
  731SOL    HW2 2321   3.460   1.042   3.716 -0.1861 -0.6417 -0.3923
  732SOL     OW 2322   2.660   2.953   0.581  0.3762 -0.0053  0.7343
  732SOL    HW1 2323   2.625   3.033   0.541  0.8951  0.1276  0.5376
  732SOL    HW2 2324   2.594   2.887   0.562 -0.2627  0.4622  1.2645
  733SOL     OW 2325   3.360   1.673   3.645 -0.1009 -0.2916 -0.1610
  733SOL    HW1 2326   3.412   1.621   3.585 -0.1347 -1.2421  0.6120
  733SOL    HW2 2327   3.269   1.647   3.627 -0.4680  1.9472 -2.0789
  734SOL     OW 2328   2.474   1.696   2.276  0.2377 -0.4812  0.2291
  734SOL    HW1 2329   2.517   1.623   2.230 -1.0678 -0.0908 -1.7379
  734SOL    HW2 2330   2.410   1.653   2.333  1.1510 -0.9406  0.9396
  735SOL     OW 2331   0.866   3.575   0.967  0.0978  0.0312 -0.0779
  735SOL    HW1 2332   0.934   3.511   0.986 -1.0256 -1.1869 -0.0727
  735SOL    HW2 2333   0.789   3.543   1.013 -0.5492  1.2714 -0.2612
  736SOL     OW 2334   3.487   0.738   1.915  0.9237 -0.3899 -0.5895
  736SOL    HW1 2335   3.410   0.712   1.966  1.1759 -0.2944 -0.1629
  736SOL    HW2 2336   3.517   0.656   1.874  0.6668 -0.4488 -0.6634
  737SOL     OW 2337   1.606   2.968   0.005 -0.3376 -0.3494  0.0337
  737SOL    HW1 2338   1.571   2.886   0.039 -1.9466  0.5094  0.5383
  737SOL    HW2 2339   1.615   3.025   0.081  0.2451  0.1242 -0.3780
  738SOL     OW 2340   0.062   0.193   1.284 -0.4247 -0.4165  0.2226
  738SOL    HW1 2341   0.133   0.167   1.225 -0.1203 -0.8642  0.7685
  738SOL    HW2 2342   0.008   0.114   1.293  0.2069 -0.7490  1.4673
  739SOL     OW 2343   2.602   1.742   1.262 -0.0420 -0.3959 -0.4782
  739SOL    HW1 2344   2.577   1.821   1.215  1.3478 -0.2351 -0.9769
  739SOL    HW2 2345   2.548   1.673   1.224  0.4450 -0.1102 -1.7248
  740SOL     OW 2346   2.803   3.274   0.490  0.0866  0.3560  0.1664
  740SOL    HW1 2347   2.827   3.256   0.581 -0.7063 -1.7358  0.0454
  740SOL    HW2 2348   2.713   3.241   0.483 -1.2630  3.7675 -0.5038
  741SOL     OW 2349   1.361   1.845   0.971 -0.1197 -0.0962  0.2084
  741SOL    HW1 2350   1.310   1.773   0.933 -1.0937 -1.4461  3.6595
  741SOL    HW2 2351   1.408   1.805   1.045  3.0297  1.9230 -0.4986
  742SOL     OW 2352   1.770   1.054   3.402 -0.3319 -0.6936  0.3100
  742SOL    HW1 2353   1.850   1.053   3.350 -0.1138 -2.5455  0.6027
  742SOL    HW2 2354   1.699   1.050   3.338 -0.1430 -0.4518  0.0870
  743SOL     OW 2355   0.232   3.073   2.675 -0.2907 -0.3786 -0.7067
  743SOL    HW1 2356   0.212   3.099   2.585  0.0388 -0.6726 -0.8690
  743SOL    HW2 2357   0.279   2.990   2.666 -1.1508 -0.9299 -0.2092
  744SOL     OW 2358   2.618   2.604   2.940 -0.0545  0.0428 -0.6170
  744SOL    HW1 2359   2.593   2.693   2.960 -0.7166  0.3116 -2.4872
  744SOL    HW2 2360   2.714   2.605   2.943 -0.0661  0.3193  1.1550
  745SOL     OW 2361   0.668   2.245   1.871  0.5958  0.2779  0.2422
  745SOL    HW1 2362   0.710   2.267   1.788 -0.7514  1.4657 -0.1808
  745SOL    HW2 2363   0.723   2.177   1.909  1.4237 -0.0710 -1.4728
  746SOL     OW 2364   0.366   2.053   2.357 -0.1957 -0.0934  0.0981
  746SOL    HW1 2365   0.322   2.034   2.440 -1.6492  0.7071 -0.4493
  746SOL    HW2 2366   0.458   2.033   2.374 -0.7091 -1.6715  1.3433
  747SOL     OW 2367   0.655   3.467   3.045  0.3392  0.1879  0.0634
  747SOL    HW1 2368   0.742   3.427   3.053  0.3638  0.5770  2.6832
  747SOL    HW2 2369   0.599   3.396   3.013  1.4939 -0.1868 -1.2470
  748SOL     OW 2370   0.859   0.615   1.397  0.5885 -0.2046  0.4608
  748SOL    HW1 2371   0.930   0.553   1.383 -1.1521 -1.6714 -2.9864
  748SOL    HW2 2372   0.781   0.561   1.405 -0.6049  1.4786  0.8246
  749SOL     OW 2373   0.779   2.667   2.092  0.7435 -0.6937  0.0632
  749SOL    HW1 2374   0.838   2.645   2.164 -1.3158 -0.7463  1.8314
  749SOL    HW2 2375   0.712   2.598   2.093  0.7118 -0.7605 -2.0037
  750SOL     OW 2376   0.722   2.971   0.865 -0.1867  0.0522  0.3780
  750SOL    HW1 2377   0.690   2.954   0.954 -0.7766  0.1694  0.1913
  750SOL    HW2 2378   0.668   3.044   0.834 -0.9987 -0.9272 -0.6110
  751SOL     OW 2379   3.625   1.351   0.227 -0.2903  0.3013 -0.2943
  751SOL    HW1 2380   3.538   1.344   0.187 -0.8234 -1.2073  1.0009
  751SOL    HW2 2381   3.618   1.299   0.307  1.8623  0.0150 -0.2442
  752SOL     OW 2382   2.566   1.412   2.970  0.0528 -0.3077  0.0739
  752SOL    HW1 2383   2.522   1.476   3.026 -0.3755 -0.6602  0.1425
  752SOL    HW2 2384   2.608   1.465   2.902  0.3030  0.0977  0.5366
  753SOL     OW 2385   2.542   0.037   3.176 -0.1095 -0.0302  0.5049
  753SOL    HW1 2386   2.618   0.001   3.129  0.1781  0.4723  0.5656
  753SOL    HW2 2387   2.469   0.029   3.114  0.2746  0.6657 -0.0619
  754SOL     OW 2388   2.077   0.076   1.092  0.2947  0.1143  0.1874
  754SOL    HW1 2389   2.008   0.088   1.027  0.6253 -2.3101 -0.7394
  754SOL    HW2 2390   2.158   0.067   1.041  0.9927  0.9146  1.1216
  755SOL     OW 2391   2.886   1.966   1.288 -0.4870 -0.2622 -0.4290
  755SOL    HW1 2392   2.793   1.978   1.271 -0.4102 -1.5315 -2.0738
  755SOL    HW2 2393   2.918   1.920   1.210  1.9479  1.9617 -0.8900
  756SOL     OW 2394   0.460   2.630   0.248  0.1703  0.0173  0.1151
  756SOL    HW1 2395   0.431   2.704   0.195 -2.4431  0.5479  2.0573
  756SOL    HW2 2396   0.551   2.649   0.269 -0.2094  2.3284 -0.0706
  757SOL     OW 2397   2.104   1.625   0.649  0.3061 -0.2710 -0.0409
  757SOL    HW1 2398   2.111   1.709   0.695 -0.3818 -0.3759  0.2726
  757SOL    HW2 2399   2.055   1.646   0.569 -1.4337 -0.6617  0.8736
  758SOL     OW 2400   1.869   1.156   0.845 -0.5247  0.8292  0.2702
  758SOL    HW1 2401   1.872   1.176   0.751 -2.2567 -2.2204 -0.5657
  758SOL    HW2 2402   1.780   1.177   0.871 -0.7728 -0.5213  0.5983
  759SOL     OW 2403   0.961   2.695   3.137  0.1838  0.2731 -0.1906
  759SOL    HW1 2404   0.986   2.673   3.227  0.5772 -0.4248 -0.4568
  759SOL    HW2 2405   1.024   2.647   3.083 -1.3539 -1.0617 -0.8874
  760SOL     OW 2406   0.139   0.146   1.722  0.0952  0.1696 -0.8703
  760SOL    HW1 2407   0.101   0.098   1.648  0.2316 -0.8923 -0.2643
  760SOL    HW2 2408   0.068   0.154   1.785  0.5783 -0.9133 -0.1695
  761SOL     OW 2409   1.698   2.957   2.026 -0.7956  0.0435 -0.4791
  761SOL    HW1 2410   1.665   2.986   2.111  0.6340  1.6582 -0.4136
  761SOL    HW2 2411   1.661   3.020   1.963  3.1194  2.9880 -0.2240
  762SOL     OW 2412   1.132   3.319   0.722 -1.1752  0.2509  0.2004
  762SOL    HW1 2413   1.042   3.296   0.698  0.1055 -3.5240 -1.8736
  762SOL    HW2 2414   1.147   3.275   0.806 -0.7798 -0.6984 -0.3516
  763SOL     OW 2415   1.408   2.239   3.435  0.1647  0.3293 -0.5326
  763SOL    HW1 2416   1.313   2.240   3.445 -0.0518  0.8683 -2.2886
  763SOL    HW2 2417   1.430   2.147   3.418 -0.1823  0.3744 -1.2305
  764SOL     OW 2418   2.098   1.108   2.699  0.0068 -0.1429 -0.2097
  764SOL    HW1 2419   2.030   1.096   2.633 -0.3073 -0.5250  0.1822
  764SOL    HW2 2420   2.051   1.117   2.781  0.1593  3.6891 -0.3572
  765SOL     OW 2421   0.000   0.480   0.666  0.3610  0.1750 -0.2826
  765SOL    HW1 2422  -0.008   0.487   0.761 -1.5374 -1.5751 -0.2497
  765SOL    HW2 2423   0.048   0.398   0.651 -0.0049  0.0548 -0.8387
  766SOL     OW 2424   3.508   2.089   3.295 -0.4081 -0.1672  0.4175
  766SOL    HW1 2425   3.478   2.043   3.216 -1.3421 -0.4720  0.9397
  766SOL    HW2 2426   3.603   2.081   3.293 -0.1140  2.2624 -2.1959
  767SOL     OW 2427   3.304   1.976   2.083 -0.2530  0.6050  0.1258
  767SOL    HW1 2428   3.330   1.934   2.002 -1.4055  0.9001 -0.4181
  767SOL    HW2 2429   3.386   1.992   2.130  0.4258  0.4733 -0.9971
  768SOL     OW 2430   2.809   1.241   1.326 -0.4649  0.4576  0.0906
  768SOL    HW1 2431   2.894   1.198   1.331 -1.0564 -0.6386  1.9346
  768SOL    HW2 2432   2.786   1.238   1.234  0.5533 -1.1818 -0.1533
  769SOL     OW 2433   3.510   0.211   1.719 -0.4971 -0.7717 -0.0699
  769SOL    HW1 2434   3.503   0.184   1.628 -1.3045  2.5019 -1.1198
  769SOL    HW2 2435   3.430   0.178   1.760 -0.0347 -2.4319 -0.4365
  770SOL     OW 2436   2.545   0.995   0.064 -0.5982 -0.5277  0.2469
  770SOL    HW1 2437   2.498   1.027   0.141 -0.6097  0.4256 -0.1532
  770SOL    HW2 2438   2.632   0.972   0.097 -0.8366 -0.8287  0.6828
  771SOL     OW 2439   1.397   1.677   1.165 -0.9631 -0.2593 -0.2487
  771SOL    HW1 2440   1.346   1.605   1.201  0.4292 -0.6953  0.9422
  771SOL    HW2 2441   1.480   1.674   1.212 -0.5358  1.5898 -0.7869
  772SOL     OW 2442   2.471   3.648   0.857  0.0067  0.5960 -0.4896
  772SOL    HW1 2443   2.487   3.556   0.834 -2.4530  0.3878 -1.6853
  772SOL    HW2 2444   2.535   3.697   0.804 -1.0646 -0.2869 -2.7340
  773SOL     OW 2445   2.197   2.529   2.170 -0.5000  0.2883  0.1901
  773SOL    HW1 2446   2.164   2.533   2.260  0.9223  0.0569  0.7617
  773SOL    HW2 2447   2.188   2.618   2.137  3.9670  1.9114  2.5409
  774SOL     OW 2448   0.516   0.015   2.939 -0.2911  0.7719 -0.0987
  774SOL    HW1 2449   0.446   0.080   2.952 -0.3269  0.7366 -0.1141
  774SOL    HW2 2450   0.525  -0.027   3.024  0.1472  1.2094  0.0740
  775SOL     OW 2451   3.677   1.864   2.941 -0.9381  0.2048 -0.1942
  775SOL    HW1 2452   3.696   1.914   2.861 -0.6868  1.1029  0.4102
  775SOL    HW2 2453   3.711   1.776   2.922  0.1587  0.7053 -0.6600
  776SOL     OW 2454   2.241   2.909   1.193 -0.0129 -0.0350 -0.4516
  776SOL    HW1 2455   2.228   2.910   1.287 -1.0557  1.5384 -0.5814
  776SOL    HW2 2456   2.194   2.985   1.161  2.0757  0.6984 -2.0185
  777SOL     OW 2457   1.499   3.528   2.732 -0.1910 -0.0539 -0.6584
  777SOL    HW1 2458   1.481   3.509   2.824  0.0007  0.6814 -0.4667
  777SOL    HW2 2459   1.579   3.580   2.733  0.4543 -0.9802 -1.3258
  778SOL     OW 2460   3.620   3.382   3.558  0.0631 -0.0973 -0.2950
  778SOL    HW1 2461   3.685   3.325   3.518  0.7056  1.1761 -1.1193
  778SOL    HW2 2462   3.659   3.469   3.556 -2.1384  0.9419 -2.0133
  779SOL     OW 2463   0.520   3.030   3.269 -0.2720  0.5630  0.1348
  779SOL    HW1 2464   0.512   3.106   3.327 -0.5260 -0.8554  2.0544
  779SOL    HW2 2465   0.444   3.038   3.210 -0.5085  1.5813  0.5420
  780SOL     OW 2466   3.622   1.169   1.041  0.5347 -0.0871 -0.2418
  780SOL    HW1 2467   3.592   1.257   1.062 -1.7245 -0.2705 -2.1813
  780SOL    HW2 2468   3.647   1.131   1.125 -1.6162  1.2992  1.1211
  781SOL     OW 2469   1.512   0.419   2.333  0.0139 -0.5673 -0.2387
  781SOL    HW1 2470   1.432   0.459   2.365  0.1373  0.4154 -1.1032
  781SOL    HW2 2471   1.582   0.469   2.375  0.1775 -1.1945  0.2427
  782SOL     OW 2472   0.331   1.359   3.497  0.0443 -0.2277 -0.1354
  782SOL    HW1 2473   0.387   1.368   3.419 -2.2521 -0.2597 -1.9103
  782SOL    HW2 2474   0.375   1.410   3.564  1.5281  0.8284 -1.8113
  783SOL     OW 2475   2.405   3.267   2.750 -0.0409  0.0885 -0.6496
  783SOL    HW1 2476   2.319   3.229   2.735  0.9152 -1.1774 -3.6197
  783SOL    HW2 2477   2.425   3.315   2.669  1.5169  1.4462  0.4712
  784SOL     OW 2478   1.248   2.817   3.539  0.3161 -0.0168 -0.3616
  784SOL    HW1 2479   1.320   2.822   3.476 -0.4845  1.1639 -1.2292
  784SOL    HW2 2480   1.283   2.765   3.612  1.5406 -0.7003 -1.4036
  785SOL     OW 2481   2.400   3.287   0.225 -0.0607 -0.0298  0.2515
  785SOL    HW1 2482   2.372   3.335   0.148  0.7300 -0.7387 -0.4914
  785SOL    HW2 2483   2.325   3.291   0.285  0.1781  2.6614  0.5006
  786SOL     OW 2484   0.317   2.996   2.337 -0.1722  0.5607 -0.3733
  786SOL    HW1 2485   0.305   2.901   2.338 -2.8019  0.7914  1.0665
  786SOL    HW2 2486   0.301   3.021   2.246  2.0009 -0.4355 -1.0950
  787SOL     OW 2487   2.669   1.366   2.601  0.4453  0.1307  0.7234
  787SOL    HW1 2488   2.578   1.392   2.587  0.6217  0.2434 -0.2908
  787SOL    HW2 2489   2.699   1.421   2.673 -0.8140 -1.1863  2.3531
  788SOL     OW 2490   2.452   3.409   2.223 -0.0405  0.2488  0.3681
  788SOL    HW1 2491   2.499   3.353   2.162  1.1230  0.4176  1.0741
  788SOL    HW2 2492   2.437   3.490   2.175 -3.0146 -1.0573 -1.1695
  789SOL     OW 2493   2.650   3.449   3.536 -0.8342 -0.4515  0.3295
  789SOL    HW1 2494   2.574   3.424   3.483 -0.7414 -1.8830  0.8128
  789SOL    HW2 2495   2.689   3.365   3.562  0.2362  0.2492  1.0539
  790SOL     OW 2496   0.051   3.167   0.456  0.3748  0.9080  0.5192
  790SOL    HW1 2497  -0.017   3.150   0.522 -1.7671  0.9178 -1.5190
  790SOL    HW2 2498   0.037   3.099   0.390  0.8628  2.2650 -1.0498
  791SOL     OW 2499   2.266   0.870   1.441  0.3720 -0.4562  0.2600
  791SOL    HW1 2500   2.257   0.961   1.416 -0.8974 -0.6573 -0.0820
  791SOL    HW2 2501   2.258   0.870   1.537 -1.9740 -0.4254  0.1081
  792SOL     OW 2502   0.442   3.684   0.954  0.7139 -0.3508 -0.2984
  792SOL    HW1 2503   0.429   3.616   0.888  1.5239 -0.1889 -0.6428
  792SOL    HW2 2504   0.527   3.663   0.993 -0.2215 -1.0955  1.4876
  793SOL     OW 2505   3.027   2.520   1.412 -0.0452 -0.6696 -0.0381
  793SOL    HW1 2506   3.114   2.514   1.372 -0.4565  0.9255 -1.2946
  793SOL    HW2 2507   2.984   2.591   1.365 -1.7329 -0.8362  1.1546
  794SOL     OW 2508   3.287   0.856   3.071 -0.4321  0.1371 -0.2797
  794SOL    HW1 2509   3.292   0.763   3.092  1.5596  0.4570  0.8582
  794SOL    HW2 2510   3.278   0.900   3.156  0.9077  1.0927 -0.5984
  795SOL     OW 2511   2.089   0.639   3.454  0.2137  0.1242  0.1178
  795SOL    HW1 2512   2.107   0.701   3.383  2.2804  2.2548  2.3058
  795SOL    HW2 2513   2.176   0.614   3.486 -0.6473 -0.7701  1.8808
  796SOL     OW 2514   1.946   0.140   1.630 -0.0781  0.1524 -0.3670
  796SOL    HW1 2515   2.001   0.118   1.555  0.3859  1.1078 -0.3095
  796SOL    HW2 2516   1.909   0.055   1.657  2.3436 -0.7519  0.3817
  797SOL     OW 2517   0.809   1.470   1.586 -0.2592 -0.2635  0.0957
  797SOL    HW1 2518   0.862   1.391   1.588 -0.1861 -0.2204 -0.1473
  797SOL    HW2 2519   0.866   1.538   1.622 -0.5721 -0.4678  1.0092
  798SOL     OW 2520   2.698   3.486   3.160  0.7606 -0.7221 -0.1653
  798SOL    HW1 2521   2.622   3.472   3.105  2.2903 -0.3976 -2.5089
  798SOL    HW2 2522   2.708   3.405   3.209 -0.0148 -1.4648 -1.2014
  799SOL     OW 2523   0.699   1.345   2.264  0.1294  0.3506 -0.3264
  799SOL    HW1 2524   0.650   1.371   2.186 -2.6938 -2.2363  0.3537
  799SOL    HW2 2525   0.747   1.267   2.237 -1.3875 -0.9585  0.5515
  800SOL     OW 2526   1.762   2.832   2.779  0.1209 -0.2350  0.1660
  800SOL    HW1 2527   1.757   2.739   2.758  1.9288 -0.6239  1.3003
  800SOL    HW2 2528   1.791   2.835   2.871 -1.8446  1.4406  0.8107
  801SOL     OW 2529   3.022   1.277   2.599 -0.4565  0.2114  0.1408
  801SOL    HW1 2530   3.053   1.188   2.583  0.0656  0.5288 -0.6996
  801SOL    HW2 2531   3.098   1.323   2.636  0.0898  0.9604 -1.8079
  802SOL     OW 2532   3.254   2.452   0.117  0.1242 -0.1454  0.0124
  802SOL    HW1 2533   3.213   2.535   0.142 -1.9924 -1.2057  0.2513
  802SOL    HW2 2534   3.342   2.457   0.154  0.1598  2.1073 -0.2508
  803SOL     OW 2535   3.747   3.480   1.947  0.0279  0.2561  0.4072
  803SOL    HW1 2536   3.678   3.493   2.012  0.1356 -1.0084  0.7980
  803SOL    HW2 2537   3.702   3.448   1.869  0.0449  0.6052  0.2483
  804SOL     OW 2538   1.393   1.217   1.262  0.2769 -0.7332  0.0662
  804SOL    HW1 2539   1.461   1.274   1.227 -0.2873 -0.0793  0.0055
  804SOL    HW2 2540   1.311   1.256   1.231 -0.1337 -1.3742  0.3269
  805SOL     OW 2541   2.055   3.458   2.811 -0.1471  0.2187  0.2602
  805SOL    HW1 2542   2.077   3.536   2.862  0.6023  0.2562 -0.1025
  805SOL    HW2 2543   2.026   3.394   2.876  2.9720 -0.5232  1.0683
  806SOL     OW 2544   2.155   1.923   0.463  0.0929 -0.1642  0.7817
  806SOL    HW1 2545   2.122   1.981   0.395  1.3828  0.0542  0.3091
  806SOL    HW2 2546   2.099   1.846   0.458 -0.1129  0.0369 -0.2454
  807SOL     OW 2547   0.532   1.926   2.013  0.1940 -0.2160  0.6008
  807SOL    HW1 2548   0.467   1.996   2.014 -0.7284 -0.9885 -0.9151
  807SOL    HW2 2549   0.579   1.938   1.931  0.3933 -1.0245  0.5840
  808SOL     OW 2550   2.700   2.127   3.266 -0.3109  0.1126  0.1856
  808SOL    HW1 2551   2.760   2.140   3.192 -0.5470 -1.7630 -0.3712
  808SOL    HW2 2552   2.700   2.033   3.281 -0.5013  0.4148  2.4256
  809SOL     OW 2553   0.114   0.537   2.940  0.3288  0.4804  1.1018
  809SOL    HW1 2554   0.094   0.613   2.885 -0.5236 -0.7451 -0.3427
  809SOL    HW2 2555   0.150   0.575   3.020  1.0750  2.3487 -0.0528
  810SOL     OW 2556   0.046   2.496   3.692 -0.1691  0.0585 -0.2124
  810SOL    HW1 2557   0.051   2.447   3.610  0.4317  0.7480 -0.5936
  810SOL    HW2 2558   0.137   2.512   3.717 -0.3298 -0.8720  1.0397
  811SOL     OW 2559   0.735   3.233   1.292 -0.8393 -1.0160  0.1613
  811SOL    HW1 2560   0.762   3.144   1.271 -0.5233 -1.4377  2.1879
  811SOL    HW2 2561   0.642   3.225   1.316 -1.5359 -0.3489 -2.0544
  812SOL     OW 2562   2.103   1.658   3.543  0.1983  0.0217  0.4348
  812SOL    HW1 2563   2.065   1.610   3.616  0.1762  0.9919  1.0847
  812SOL    HW2 2564   2.029   1.707   3.505 -0.3500 -2.3586 -1.8608
  813SOL     OW 2565   0.664   0.401   2.437  0.7984  0.1923 -0.0166
  813SOL    HW1 2566   0.572   0.421   2.459  0.5353  0.7956 -1.5777
  813SOL    HW2 2567   0.715   0.445   2.505 -0.0089  1.3572 -0.1398
  814SOL     OW 2568   2.572   1.914   2.141  0.1298  0.1444  0.0197
  814SOL    HW1 2569   2.493   1.899   2.090 -0.6910 -0.2491  1.3712
  814SOL    HW2 2570   2.562   1.860   2.219  1.2019  0.9636  0.7666
  815SOL     OW 2571   1.825   0.777   1.220 -0.0960  0.3782  0.3123
  815SOL    HW1 2572   1.845   0.710   1.155 -1.7817 -1.3213  1.4315
  815SOL    HW2 2573   1.855   0.740   1.303 -0.3183  1.3629  0.8527
  816SOL     OW 2574   1.142   1.931   2.649  0.7111 -0.1300 -0.5134
  816SOL    HW1 2575   1.147   2.023   2.675 -0.9459 -0.2219  0.2728
  816SOL    HW2 2576   1.230   1.897   2.665  0.8141  0.8171  1.1723
  817SOL     OW 2577   0.362   0.411   0.412 -0.1772 -0.3940  0.7158
  817SOL    HW1 2578   0.395   0.444   0.496 -0.2932  1.4953  0.0633
  817SOL    HW2 2579   0.316   0.485   0.373  0.8059 -0.8705 -1.5047
  818SOL     OW 2580   3.517   3.064   3.715 -0.6365  0.5728 -0.1120
  818SOL    HW1 2581   3.472   3.061   3.631  1.5487  1.3238 -1.3911
  818SOL    HW2 2582   3.605   3.030   3.696 -0.6850 -1.1490  2.3252
  819SOL     OW 2583   0.250   2.575   0.452 -0.0889 -0.2022  0.0353
  819SOL    HW1 2584   0.307   2.585   0.376 -0.0346 -0.5798  0.0252
  819SOL    HW2 2585   0.261   2.484   0.479 -0.1357 -0.0782  0.4754
  820SOL     OW 2586   3.594   1.562   2.936  0.3792  0.1108 -0.2119
  820SOL    HW1 2587   3.622   1.538   3.024  0.8975  2.4037  0.3189
  820SOL    HW2 2588   3.593   1.480   2.887 -0.0354 -1.2419  1.9404
  821SOL     OW 2589   2.391   0.627   0.327 -0.1013  0.0081 -0.6841
  821SOL    HW1 2590   2.335   0.635   0.249  0.0429  1.8261 -0.6612
  821SOL    HW2 2591   2.373   0.707   0.377  0.6960 -0.5652  0.5555
  822SOL     OW 2592   2.221   0.776   2.048 -0.2567  0.1426  0.0169
  822SOL    HW1 2593   2.219   0.707   2.115  0.1973  1.3506  1.3226
  822SOL    HW2 2594   2.133   0.813   2.050  0.3914  1.7305  1.6822
  823SOL     OW 2595   0.143   3.128   1.915 -0.4735  0.3458 -0.2527
  823SOL    HW1 2596   0.155   3.203   1.857  0.0894  0.9289  0.5909
  823SOL    HW2 2597   0.229   3.114   1.955 -0.8753  0.0360  0.5280
  824SOL     OW 2598   0.767   1.611   0.124  0.4551  0.3546 -0.2966
  824SOL    HW1 2599   0.723   1.600   0.040 -0.2027  0.5267  0.0180
  824SOL    HW2 2600   0.697   1.604   0.189  0.6166  2.2034  0.1384
  825SOL     OW 2601   2.087   0.961   3.463 -0.0352  0.4548  0.1018
  825SOL    HW1 2602   2.042   1.023   3.520 -1.0129  2.0595 -2.2611
  825SOL    HW2 2603   2.167   0.938   3.510 -0.8572  1.5309  2.1530
  826SOL     OW 2604   0.954   2.695   2.673 -0.4108  0.7250 -0.0593
  826SOL    HW1 2605   1.015   2.766   2.693  0.1025  1.2281 -2.9676
  826SOL    HW2 2606   0.872   2.739   2.652  0.5188  0.8919 -4.2484
  827SOL     OW 2607   3.227   2.472   1.012  0.1054  0.0963 -0.0903
  827SOL    HW1 2608   3.276   2.495   0.933  1.0590  1.0968  0.7456
  827SOL    HW2 2609   3.148   2.430   0.980  0.9085 -0.3879 -1.5412
  828SOL     OW 2610   3.243   3.372   1.150  0.0492 -0.3176  0.2710
  828SOL    HW1 2611   3.152   3.373   1.179 -0.6850 -0.5649 -1.8823
  828SOL    HW2 2612   3.273   3.463   1.161 -0.2336 -0.3645  1.5711
  829SOL     OW 2613   2.177   0.511   1.726 -0.0001  0.1762  0.4990
  829SOL    HW1 2614   2.108   0.446   1.708  0.9946 -1.1557  1.2728
  829SOL    HW2 2615   2.138   0.595   1.701 -1.4798 -0.6643 -0.1814
  830SOL     OW 2616   2.346   0.370   0.119 -0.1613 -0.7190  0.4023
  830SOL    HW1 2617   2.289   0.430   0.166 -0.9167 -1.1420  0.0381
  830SOL    HW2 2618   2.325   0.384   0.027  0.2729 -0.9256  0.2691
  831SOL     OW 2619   0.026   0.222   0.547  0.2973 -0.1647  0.4672
  831SOL    HW1 2620   0.040   0.145   0.492 -1.2059  0.0085 -0.2020
  831SOL    HW2 2621  -0.011   0.288   0.488  0.8295  0.8242  1.1989
  832SOL     OW 2622   0.897   1.172   2.147 -0.1023 -0.4951  0.2385
  832SOL    HW1 2623   0.989   1.173   2.174  0.6696  0.2897 -2.1248
  832SOL    HW2 2624   0.859   1.097   2.194  1.5758 -0.5042  1.6907
  833SOL     OW 2625   1.760   3.649   2.812  0.1242  0.0163  0.3261
  833SOL    HW1 2626   1.837   3.650   2.756 -0.6150  3.4055 -0.8757
  833SOL    HW2 2627   1.793   3.626   2.899  2.2865  0.3694 -0.3625
  834SOL     OW 2628   1.699   1.255   1.298 -0.2138 -0.3822  0.4062
  834SOL    HW1 2629   1.667   1.242   1.387 -2.2312 -0.2792 -0.2483
  834SOL    HW2 2630   1.668   1.178   1.250  0.8511 -0.4430 -0.2156
  835SOL     OW 2631   2.358   1.958   1.153 -0.0152  0.4819 -0.5847
  835SOL    HW1 2632   2.392   1.992   1.070  2.0754 -0.2842 -0.1123
  835SOL    HW2 2633   2.368   2.031   1.215 -0.5901  0.7186 -0.7702
  836SOL     OW 2634   1.877   0.149   0.928  0.7988  0.0874 -0.5546
  836SOL    HW1 2635   1.801   0.121   0.877 -0.2568 -0.0597  1.0124
  836SOL    HW2 2636   1.849   0.232   0.968  1.2344 -0.2631  0.5049
  837SOL     OW 2637   1.100   2.467   2.725 -0.5072 -0.4586 -0.0776
  837SOL    HW1 2638   1.093   2.561   2.736  2.9908 -0.1533  0.4781
  837SOL    HW2 2639   1.090   2.452   2.631  1.3814  0.8296 -0.5317
  838SOL     OW 2640   1.004   1.445   2.755  0.1183  0.0564  0.0761
  838SOL    HW1 2641   0.921   1.433   2.708 -0.6749  3.2515  0.4563
  838SOL    HW2 2642   1.071   1.414   2.694 -1.1913 -0.5834 -1.0920
  839SOL     OW 2643   3.619   0.586   2.723 -0.0827 -0.0550 -0.5025
  839SOL    HW1 2644   3.627   0.644   2.647  0.5430 -1.0567 -1.2239
  839SOL    HW2 2645   3.527   0.560   2.724 -0.6232  1.7023  0.4286
  840SOL     OW 2646   2.383   2.446   3.053 -0.1776 -0.2303 -0.2138
  840SOL    HW1 2647   2.391   2.445   3.149  1.4282 -1.6421 -0.3227
  840SOL    HW2 2648   2.469   2.474   3.022 -0.3782 -0.7379 -1.2610
  841SOL     OW 2649   3.166   2.715   2.268 -0.4849  0.0643  0.3531
  841SOL    HW1 2650   3.159   2.626   2.303 -0.8239  0.7365  2.0951
  841SOL    HW2 2651   3.218   2.762   2.332  1.4098  0.6978 -1.5165
  842SOL     OW 2652   2.881   2.377   2.174  0.7269  0.0925  0.6285
  842SOL    HW1 2653   2.877   2.288   2.140 -0.7420 -0.0965  1.2314
  842SOL    HW2 2654   2.937   2.424   2.113  1.5803 -1.2530  0.3371
  843SOL     OW 2655   0.935   1.166   1.206  0.0651 -0.7897  1.1349
  843SOL    HW1 2656   0.912   1.255   1.233 -2.0930 -0.8888 -0.1072
  843SOL    HW2 2657   0.929   1.114   1.286  3.3049  0.4069  2.3165
  844SOL     OW 2658   0.120   1.388   1.708 -0.2727 -0.4516  0.0659
  844SOL    HW1 2659   0.118   1.312   1.650  0.4293  0.3479 -1.0359
  844SOL    HW2 2660   0.212   1.414   1.710 -0.5339  0.4861  0.2784
  845SOL     OW 2661   1.658   0.130   2.213  0.4076  0.3370  0.4036
  845SOL    HW1 2662   1.672   0.098   2.124  0.4784 -0.0423  0.5471
  845SOL    HW2 2663   1.670   0.052   2.268 -1.7364  0.0808  0.5846
  846SOL     OW 2664   2.552   0.267   2.059 -0.1337  0.0765  0.0812
  846SOL    HW1 2665   2.495   0.322   2.005  0.0690  0.1339 -0.0725
  846SOL    HW2 2666   2.555   0.311   2.144 -2.3386 -1.1897  0.9290
  847SOL     OW 2667   0.789   2.947   2.174  0.1041  0.1126  0.4400
  847SOL    HW1 2668   0.877   2.983   2.161  0.0700  0.1895  0.4231
  847SOL    HW2 2669   0.799   2.853   2.159 -0.2317  0.3696 -1.6233
  848SOL     OW 2670   0.453   3.240   1.410 -0.1120 -0.0850  0.2647
  848SOL    HW1 2671   0.437   3.217   1.502  0.3562  1.8922  0.8919
  848SOL    HW2 2672   0.453   3.156   1.364 -0.8791 -1.0776  1.9815
  849SOL     OW 2673   0.194   2.875   1.421 -0.2734  0.0011  0.3995
  849SOL    HW1 2674   0.113   2.828   1.440 -0.7222 -0.4321 -2.2224
  849SOL    HW2 2675   0.262   2.808   1.423 -0.6814 -0.5543 -1.7311
  850SOL     OW 2676   3.404   2.340   2.422  0.2720  0.1072 -0.8294
  850SOL    HW1 2677   3.342   2.398   2.466  0.3334 -1.0596  0.8925
  850SOL    HW2 2678   3.372   2.335   2.332 -2.5456 -0.8859  0.1158
  851SOL     OW 2679   3.244   0.137   2.718  0.4842  0.4357  0.1278
  851SOL    HW1 2680   3.338   0.151   2.731  0.4952 -0.7822  1.6578
  851SOL    HW2 2681   3.216   0.087   2.795 -1.3843  0.5831 -0.4029
  852SOL     OW 2682   2.464   2.552   0.175 -0.4735 -0.6699  0.3075
  852SOL    HW1 2683   2.477   2.501   0.255 -0.5899  1.5914  1.8444
  852SOL    HW2 2684   2.553   2.567   0.142 -0.4732 -2.4833 -0.6332
  853SOL     OW 2685   3.112   0.691   3.296  0.0388  0.0571  0.1061
  853SOL    HW1 2686   3.071   0.718   3.214 -0.4978 -1.2439 -0.0915
  853SOL    HW2 2687   3.183   0.633   3.270  2.6110  2.8311  0.4091
  854SOL     OW 2688   2.722   3.198   2.453  0.3835 -1.0045 -0.4465
  854SOL    HW1 2689   2.690   3.129   2.395  0.5733  0.1986 -2.0638
  854SOL    HW2 2690   2.816   3.202   2.435  0.2989 -0.0373 -0.7308
  855SOL     OW 2691   0.831   0.784   3.643 -0.0764 -0.1791  0.0239
  855SOL    HW1 2692   0.808   0.699   3.604  4.5595 -1.9346  0.5050
  855SOL    HW2 2693   0.864   0.836   3.570 -0.8992  0.4917  0.1018
  856SOL     OW 2694   3.522   3.234   3.030 -0.3342 -0.0894  0.5793
  856SOL    HW1 2695   3.598   3.184   3.000  0.7459  0.6408  1.9441
  856SOL    HW2 2696   3.486   3.274   2.951 -0.4988 -2.0064 -0.3665
  857SOL     OW 2697   2.579   0.977   1.051  0.3542 -0.3513 -0.0712
  857SOL    HW1 2698   2.484   0.975   1.037  0.3092  2.1271 -0.5422
  857SOL    HW2 2699   2.592   0.926   1.131 -1.4592 -0.1258  0.4265
  858SOL     OW 2700   0.532   1.350   3.304 -0.6717 -0.7070  0.5795
  858SOL    HW1 2701   0.567   1.421   3.251 -0.7327  0.0886  1.5860
  858SOL    HW2 2702   0.477   1.299   3.244  2.3012 -2.1458 -1.1441
  859SOL     OW 2703   1.203   3.120   3.632  0.1897  0.2972  0.8063
  859SOL    HW1 2704   1.249   3.092   3.553 -1.9071  0.4897 -0.5451
  859SOL    HW2 2705   1.206   3.216   3.628  0.0613  0.3078  0.9549
  860SOL     OW 2706   1.020   3.324   0.185  0.1577 -0.9405 -0.1145
  860SOL    HW1 2707   1.074   3.343   0.261  1.5943 -2.0372 -0.8229
  860SOL    HW2 2708   0.930   3.330   0.218  0.5152  3.0888  0.5827
  861SOL     OW 2709   1.546   0.279   0.225 -0.2656 -0.7833 -0.0779
  861SOL    HW1 2710   1.587   0.295   0.310 -0.9218 -0.1563  0.1262
  861SOL    HW2 2711   1.606   0.219   0.181  2.0121  1.6570 -0.6089
  862SOL     OW 2712   2.162   2.869   2.365  0.3121  0.1047  0.6735
  862SOL    HW1 2713   2.238   2.832   2.409  0.8222 -2.5394 -2.0922
  862SOL    HW2 2714   2.091   2.808   2.385  0.1863 -0.2673 -0.7519
  863SOL     OW 2715   1.852   0.464   0.168 -0.2075  0.8596  0.2877
  863SOL    HW1 2716   1.777   0.521   0.154  0.7520  1.9127 -0.8154
  863SOL    HW2 2717   1.820   0.376   0.148 -0.8425  1.4420 -1.4200
  864SOL     OW 2718   2.748   2.848   3.710  0.8903  0.5065 -0.5676
  864SOL    HW1 2719   2.708   2.774   3.664 -0.1542  0.6271  0.1194
  864SOL    HW2 2720   2.714   2.926   3.665 -1.3341  0.6784  1.2674
  865SOL     OW 2721   3.308   3.573   3.540 -0.4347  0.6821 -0.4646
  865SOL    HW1 2722   3.386   3.553   3.592  0.2320 -0.4331 -1.8090
  865SOL    HW2 2723   3.237   3.578   3.604  0.3501 -0.6016  0.5617
  866SOL     OW 2724   1.090   3.603   0.244  0.6952 -0.9221 -0.7293
  866SOL    HW1 2725   1.116   3.578   0.333  0.2330 -0.3453 -0.4314
  866SOL    HW2 2726   1.074   3.519   0.200  1.2227 -1.2223 -0.3667
  867SOL     OW 2727   1.161   2.370   0.589  0.2735  0.0345  1.4273
  867SOL    HW1 2728   1.236   2.312   0.573  1.0466  1.8084 -2.5824
  867SOL    HW2 2729   1.196   2.458   0.579 -2.0143  0.9851  1.2838
  868SOL     OW 2730   2.021   2.648   1.040  0.4884 -0.0865 -0.0848
  868SOL    HW1 2731   1.948   2.702   1.071  1.5627  0.2518  2.0114
  868SOL    HW2 2732   1.998   2.559   1.067  0.9592  0.0614  0.8319
  869SOL     OW 2733   1.400   0.976   1.503  0.0138 -0.3358  0.3225
  869SOL    HW1 2734   1.433   0.902   1.554  0.4337 -0.5135 -0.2064
  869SOL    HW2 2735   1.431   0.961   1.414  0.2532  0.5571  0.2393
  870SOL     OW 2736   2.391   2.789   2.940  0.3445  1.1725 -0.1428
  870SOL    HW1 2737   2.324   2.723   2.925  0.3348  0.7678  1.5336
  870SOL    HW2 2738   2.430   2.804   2.853 -0.1475 -0.4715 -0.6734
  871SOL     OW 2739   3.574   1.066   0.275 -0.3333  0.2820 -0.3634
  871SOL    HW1 2740   3.600   0.997   0.335 -1.8098 -0.3862 -0.4684
  871SOL    HW2 2741   3.603   1.035   0.189  0.1405  0.3926 -0.2467
  872SOL     OW 2742   1.962   0.913   2.067 -0.2840  0.4032 -0.6629
  872SOL    HW1 2743   1.980   0.911   2.161 -0.4750 -1.1678 -0.6296
  872SOL    HW2 2744   1.869   0.931   2.060 -0.0877  1.4848 -0.5948
  873SOL     OW 2745   2.256   3.686   3.365 -0.2743 -0.8564  0.0557
  873SOL    HW1 2746   2.273   3.757   3.303  1.4254 -0.5290  0.8171
  873SOL    HW2 2747   2.261   3.607   3.312  2.3293 -0.6694 -0.1127
  874SOL     OW 2748   2.897   0.910   1.939 -0.0476 -0.8053 -0.0215
  874SOL    HW1 2749   2.949   0.833   1.913 -2.5555 -2.8261  0.5858
  874SOL    HW2 2750   2.885   0.959   1.857 -0.2120 -2.2237 -0.8779
  875SOL     OW 2751   3.391   0.677   0.027  0.3754  0.3473  0.2076
  875SOL    HW1 2752   3.397   0.583   0.043 -0.6845  0.1989 -0.1416
  875SOL    HW2 2753   3.305   0.701   0.062  1.6143  1.6831  2.5740
  876SOL     OW 2754   2.740   0.076   0.447 -0.1216 -0.3657  0.1792
  876SOL    HW1 2755   2.818   0.126   0.424  2.1456 -3.9239 -0.6863
  876SOL    HW2 2756   2.713   0.035   0.365 -0.7443 -1.9117  1.1133
  877SOL     OW 2757   0.248   3.617   1.459  0.3786  0.4340 -0.3803
  877SOL    HW1 2758   0.183   3.688   1.458  0.5995  0.6334 -0.7558
  877SOL    HW2 2759   0.196   3.537   1.460  0.1255  0.5993  0.1283
  878SOL     OW 2760   1.935   3.600   1.677  0.5546 -0.2505 -0.6126
  878SOL    HW1 2761   1.862   3.540   1.660  1.2840 -1.0044 -1.1304
  878SOL    HW2 2762   2.011   3.557   1.639  1.0732  1.0749 -1.1477
  879SOL     OW 2763   3.633   3.516   2.473  0.2224  0.1078 -0.1832
  879SOL    HW1 2764   3.690   3.439   2.478 -0.4337 -0.3799 -0.1164
  879SOL    HW2 2765   3.681   3.584   2.522  1.9089  0.4883 -2.2083
  880SOL     OW 2766   0.138   1.473   0.174  0.1290 -0.2217  0.0823
  880SOL    HW1 2767   0.066   1.414   0.192 -0.8377  0.9838  0.3111
  880SOL    HW2 2768   0.217   1.420   0.188 -0.6954 -1.6294 -0.4251
  881SOL     OW 2769   1.741   1.277   0.546 -0.0571 -0.2260 -0.0047
  881SOL    HW1 2770   1.646   1.268   0.539 -0.0735 -1.1951  1.1519
  881SOL    HW2 2771   1.760   1.363   0.509 -1.6235  0.8790  1.6348
  882SOL     OW 2772   2.203   2.282   1.575  0.0760  0.0530  0.2117
  882SOL    HW1 2773   2.118   2.318   1.549 -0.5223 -1.4001  0.0236
  882SOL    HW2 2774   2.266   2.351   1.556 -0.5753 -0.1477 -3.1762
  883SOL     OW 2775   3.489   0.167   2.054  0.2047 -0.4067 -0.1884
  883SOL    HW1 2776   3.515   0.085   2.095 -0.3622 -0.9574 -0.8969
  883SOL    HW2 2777   3.419   0.201   2.110  0.9444 -0.0251  0.5134
  884SOL     OW 2778   3.556   1.373   0.501 -0.0559  0.1127  0.4212
  884SOL    HW1 2779   3.550   1.399   0.592  0.1997 -0.3259  0.5652
  884SOL    HW2 2780   3.588   1.451   0.455  1.6118 -0.2032  0.9877
  885SOL     OW 2781   0.559   2.687   0.688  0.0274 -0.2614  0.2944
  885SOL    HW1 2782   0.566   2.595   0.665  0.9797 -0.2629  0.5859
  885SOL    HW2 2783   0.632   2.704   0.747 -1.1051  0.2846  1.6062
  886SOL     OW 2784   0.556   2.475   1.611  1.0211 -0.1742  0.5075
  886SOL    HW1 2785   0.634   2.491   1.665  0.3921  0.4010  1.2720
  886SOL    HW2 2786   0.555   2.380   1.599  1.0507 -0.3457  1.7165
  887SOL     OW 2787   2.049   0.073   1.388 -0.0774  0.1908 -0.7498
  887SOL    HW1 2788   2.041  -0.022   1.381 -2.4900  0.3253 -0.6671
  887SOL    HW2 2789   2.042   0.104   1.298 -1.3995  0.3548 -0.6176
  888SOL     OW 2790   2.648   2.548   1.412  0.4729 -0.3385  0.5806
  888SOL    HW1 2791   2.630   2.587   1.498  0.2056 -2.9759  1.8345
  888SOL    HW2 2792   2.598   2.602   1.351 -0.6955  0.6628  2.2958
  889SOL     OW 2793   2.981   0.723   2.273  0.4405  0.2144 -0.5409
  889SOL    HW1 2794   2.943   0.810   2.257  0.7568  0.1872 -1.5279
  889SOL    HW2 2795   3.072   0.741   2.296  0.6060  0.1268 -1.1225
  890SOL     OW 2796   2.901   0.991   2.224  1.3695  0.3698  0.1133
  890SOL    HW1 2797   2.927   0.986   2.132 -0.2242  0.0134 -0.3461
  890SOL    HW2 2798   2.809   1.019   2.222  0.6347 -1.7144  1.4841
  891SOL     OW 2799   1.298   3.627   1.677 -0.0519  0.3006  0.7264
  891SOL    HW1 2800   1.261   3.548   1.637  0.5040  1.3709 -2.2209
  891SOL    HW2 2801   1.372   3.650   1.621 -0.8455  3.4776  0.7522
  892SOL     OW 2802   1.022   0.753   1.842  0.3229 -0.0700  0.0019
  892SOL    HW1 2803   1.111   0.730   1.869  0.8211  1.1226 -0.5405
  892SOL    HW2 2804   1.022   0.741   1.747  0.0311  0.3467 -0.0531
  893SOL     OW 2805   0.495   2.533   1.008 -0.5772  0.1497  0.1408
  893SOL    HW1 2806   0.448   2.515   0.927  1.4341 -0.8608 -0.8582
  893SOL    HW2 2807   0.497   2.629   1.013 -1.1561  0.2220 -0.7419
  894SOL     OW 2808   1.491   0.035   0.578 -0.1382  0.2318  0.0249
  894SOL    HW1 2809   1.555  -0.020   0.532  0.1055  2.2698 -2.2509
  894SOL    HW2 2810   1.500   0.121   0.539 -2.9295  1.0980  1.0226
  895SOL     OW 2811   3.213   1.401   3.348 -0.0335 -0.1702 -0.4362
  895SOL    HW1 2812   3.304   1.395   3.321 -0.3977 -1.0830 -1.5463
  895SOL    HW2 2813   3.171   1.453   3.279 -0.7651 -1.6266 -1.1298
  896SOL     OW 2814   2.975   0.336   2.308  0.4145 -0.3970 -0.4961
  896SOL    HW1 2815   3.028   0.378   2.240  2.4132  0.0555  1.2285
  896SOL    HW2 2816   3.039   0.292   2.364 -1.2124 -1.3068  0.7324
  897SOL     OW 2817   1.373   3.646   2.368 -0.1618  0.0937  0.5700
  897SOL    HW1 2818   1.401   3.589   2.440 -0.4459 -1.6381 -0.6384
  897SOL    HW2 2819   1.364   3.587   2.293 -2.1185  1.4552 -0.3400
  898SOL     OW 2820   0.727   2.581   3.403  0.3215 -0.8018  0.0901
  898SOL    HW1 2821   0.748   2.631   3.481 -0.7309 -2.4905  1.5381
  898SOL    HW2 2822   0.683   2.643   3.345 -0.6272  0.0730  1.6637
  899SOL     OW 2823   2.340   1.672   3.721  0.1920 -0.0409 -0.3800
  899SOL    HW1 2824   2.272   1.710   3.665  1.8974  0.6031 -2.0951
  899SOL    HW2 2825   2.371   1.745   3.775  1.9151  0.5466 -2.0932
  900SOL     OW 2826   2.643   1.104   0.495  0.1657 -0.6179  0.1773
  900SOL    HW1 2827   2.693   1.184   0.486 -0.4464 -0.2895 -0.4483
  900SOL    HW2 2828   2.580   1.122   0.565 -0.3073 -0.3650 -0.3067
  901SOL     OW 2829   3.042   0.794   0.634 -0.0910  0.1134  0.4721
  901SOL    HW1 2830   2.978   0.858   0.664 -0.9855 -0.0090 -1.0735
  901SOL    HW2 2831   3.022   0.780   0.541  1.1469 -1.1506  0.3404
  902SOL     OW 2832   1.639   0.422   0.981 -0.6292 -0.0134 -0.9125
  902SOL    HW1 2833   1.653   0.328   0.981 -0.7546 -0.0701 -2.8068
  902SOL    HW2 2834   1.611   0.442   1.070  0.5673 -1.5695 -0.1426
  903SOL     OW 2835   0.135   1.406   2.973 -0.8632 -0.3799  0.1127
  903SOL    HW1 2836   0.123   1.445   3.059  3.3327  1.1530  0.2296
  903SOL    HW2 2837   0.168   1.317   2.991  3.0471  0.9364  0.4468
  904SOL     OW 2838   3.715   2.712   0.151  0.3056  0.2180 -0.3077
  904SOL    HW1 2839   3.761   2.649   0.096 -0.2090  0.1977 -0.7225
  904SOL    HW2 2840   3.629   2.723   0.109  0.3127  1.0352 -0.1306
  905SOL     OW 2841   1.709   2.085   3.455  0.3557 -0.0043 -0.2657
  905SOL    HW1 2842   1.644   2.055   3.390 -0.1859  1.3804 -0.3866
  905SOL    HW2 2843   1.679   2.046   3.537 -1.2545  1.4315 -0.1219
  906SOL     OW 2844   3.698   0.423   2.340  0.0010  0.2053  0.1917
  906SOL    HW1 2845   3.770   0.381   2.293 -0.7493 -0.5906 -0.2589
  906SOL    HW2 2846   3.696   0.513   2.306 -1.5863 -0.7761 -2.5836
  907SOL     OW 2847   0.682   0.551   1.636 -0.3208  0.1335 -0.2154
  907SOL    HW1 2848   0.621   0.517   1.702  0.7776 -1.2095  0.1585
  907SOL    HW2 2849   0.765   0.561   1.682 -0.2297  2.0091 -0.6971
  908SOL     OW 2850   1.247   2.801   2.277 -0.3155  0.4102  0.1441
  908SOL    HW1 2851   1.287   2.720   2.308 -0.2303  0.2485 -0.3770
  908SOL    HW2 2852   1.282   2.812   2.189  0.0922  1.2996  0.4085
  909SOL     OW 2853   1.377   3.141   3.415  0.1129 -1.0248 -0.0377
  909SOL    HW1 2854   1.377   3.145   3.320  0.5593 -0.8215 -0.0321
  909SOL    HW2 2855   1.454   3.192   3.441  0.4037 -1.6746  0.4047
  910SOL     OW 2856   1.840   0.085   2.576 -0.2023 -0.2081 -0.1590
  910SOL    HW1 2857   1.824   0.164   2.524 -0.8045  0.1707  0.5738
  910SOL    HW2 2858   1.806   0.013   2.522 -1.8255  0.2946  0.1462
  911SOL     OW 2859   3.411   3.491   1.885  0.1955 -0.4586 -0.1747
  911SOL    HW1 2860   3.447   3.536   1.962 -1.7858  2.9808 -1.0227
  911SOL    HW2 2861   3.337   3.441   1.919 -0.1496  0.3554  0.3045
  912SOL     OW 2862   0.646   0.870   0.122  0.5362  0.4975  0.7412
  912SOL    HW1 2863   0.581   0.800   0.124 -2.3397  2.9396  0.1812
  912SOL    HW2 2864   0.684   0.864   0.034 -0.7771  0.4732  0.1358
  913SOL     OW 2865   1.319   0.431   2.978  0.2488 -0.1526  0.3639
  913SOL    HW1 2866   1.282   0.509   2.937 -0.0119  0.9038  2.4785
  913SOL    HW2 2867   1.379   0.396   2.913  0.7353  2.0901 -0.4746
  914SOL     OW 2868   1.717   1.478   0.066 -0.7281 -0.2571 -0.9882
  914SOL    HW1 2869   1.768   1.397   0.062 -0.5146 -0.2233  0.4340
  914SOL    HW2 2870   1.711   1.507  -0.025  2.9383  0.4549 -1.1408
  915SOL     OW 2871   1.726   2.844   0.445  1.3363  0.4978 -0.1513
  915SOL    HW1 2872   1.821   2.848   0.446  1.3995 -0.5667 -0.4995
  915SOL    HW2 2873   1.704   2.770   0.501  0.5771  2.1195  1.8102
  916SOL     OW 2874   0.061   2.078   3.292  0.9745 -0.1663  0.2565
  916SOL    HW1 2875   0.143   2.072   3.242  1.9172  1.1147  1.5510
  916SOL    HW2 2876   0.088   2.113   3.377 -0.7634 -0.9993  1.1925
  917SOL     OW 2877   1.804   2.355   2.994 -0.1982  0.1729 -0.1565
  917SOL    HW1 2878   1.777   2.287   3.056  0.7315 -0.0451  0.0249
  917SOL    HW2 2879   1.897   2.336   2.977 -0.6297 -0.2611 -2.2625
  918SOL     OW 2880   2.209   3.519   2.531  0.5130  0.1597 -0.3104
  918SOL    HW1 2881   2.198   3.469   2.612 -0.6539 -1.0324 -1.1582
  918SOL    HW2 2882   2.226   3.609   2.560  1.1700 -0.4362  1.2480
  919SOL     OW 2883   0.377   1.378   1.821 -0.1009 -0.0826 -0.6597
  919SOL    HW1 2884   0.426   1.344   1.895 -0.0126 -1.4403 -1.3079
  919SOL    HW2 2885   0.432   1.449   1.786  1.6587 -1.7978 -1.5892
  920SOL     OW 2886   0.633   2.885   0.469 -0.1499  0.4262 -0.3097
  920SOL    HW1 2887   0.583   2.806   0.492 -0.0020 -0.1619 -1.8670
  920SOL    HW2 2888   0.671   2.865   0.383  0.9562  1.7121 -0.1517
  921SOL     OW 2889   2.162   0.191   1.876  0.4049 -0.1208 -0.1433
  921SOL    HW1 2890   2.069   0.176   1.860  0.1824  1.8189 -0.8712
  921SOL    HW2 2891   2.177   0.152   1.962 -1.3035  0.3356  0.4141
  922SOL     OW 2892   3.287   1.303   2.335  0.1138  0.5195 -1.1082
  922SOL    HW1 2893   3.381   1.287   2.341  0.3312  1.3135 -2.1025
  922SOL    HW2 2894   3.249   1.216   2.329  0.8111  0.1970 -1.0189
  923SOL     OW 2895   1.134   0.512   0.545 -0.2608 -0.1585  0.2944
  923SOL    HW1 2896   1.112   0.473   0.630 -1.8036 -0.9166 -0.4250
  923SOL    HW2 2897   1.229   0.523   0.549 -0.0590 -1.8385  1.4331
  924SOL     OW 2898   3.070   3.137   0.318 -0.3615  0.3490 -0.7315
  924SOL    HW1 2899   3.151   3.107   0.359 -0.0662  1.5767 -0.3712
  924SOL    HW2 2900   3.008   3.066   0.333  0.6540 -0.6442 -1.0628
  925SOL     OW 2901   3.018   1.631   1.067 -0.3765  0.4627  0.3322
  925SOL    HW1 2902   2.994   1.723   1.055 -0.4830  0.5034  0.8403
  925SOL    HW2 2903   2.944   1.592   1.114 -2.2083 -0.8520 -3.3012
  926SOL     OW 2904   2.763   3.024   1.734 -0.5363  0.0107  0.2437
  926SOL    HW1 2905   2.698   2.962   1.767  0.0140 -0.1248  1.0960
  926SOL    HW2 2906   2.843   2.973   1.725 -0.7399 -0.0367 -1.6718
  927SOL     OW 2907   2.040   1.244   1.046  0.2061  0.3364  0.1957
  927SOL    HW1 2908   2.079   1.322   1.007 -1.2782  0.3705 -1.3599
  927SOL    HW2 2909   1.966   1.223   0.988  0.1592 -1.8358  0.9424
  928SOL     OW 2910   1.690   3.131   0.194  0.3958 -0.0356 -0.1363
  928SOL    HW1 2911   1.657   3.220   0.193  1.4941  0.3929  0.5604
  928SOL    HW2 2912   1.718   3.116   0.284  1.5429 -0.5820 -0.5624
  929SOL     OW 2913   0.397   3.344   3.632  0.3599 -0.4278 -0.9539
  929SOL    HW1 2914   0.486   3.366   3.660  0.4559 -2.0425  0.1683
  929SOL    HW2 2915   0.341   3.405   3.681  0.8250  0.6344 -1.7094
  930SOL     OW 2916   0.028   2.041   0.988 -0.1263 -0.2090  0.2305
  930SOL    HW1 2917   0.070   2.072   0.907 -0.0247 -0.8473  0.0394
  930SOL    HW2 2918   0.051   1.949   0.993 -1.3017 -0.5095  0.2626
  931SOL     OW 2919   1.648   3.353   2.125  0.9845 -0.1628  0.4450
  931SOL    HW1 2920   1.596   3.430   2.146  0.9499  0.0641 -0.4374
  931SOL    HW2 2921   1.596   3.305   2.060  1.7723 -0.0320 -0.2986
  932SOL     OW 2922   0.959   1.590   3.164 -0.1533 -0.3463  0.1869
  932SOL    HW1 2923   1.026   1.637   3.214 -1.1657 -0.6228  1.9132
  932SOL    HW2 2924   1.005   1.517   3.124  0.4651 -1.1264  2.1817
  933SOL     OW 2925   1.504   1.999   3.302  0.1449 -0.8798  0.6286
  933SOL    HW1 2926   1.464   2.026   3.220  0.8152  0.7605  0.8044
  933SOL    HW2 2927   1.531   1.908   3.287 -0.8050 -0.9927 -0.5360
  934SOL     OW 2928   2.249   0.792   0.876  0.0457 -0.2940 -0.4232
  934SOL    HW1 2929   2.289   0.722   0.825 -1.6867 -2.2922  0.7619
  934SOL    HW2 2930   2.280   0.777   0.966  0.7977  1.4059 -0.3531
  935SOL     OW 2931   2.524   2.084   1.466 -0.3919 -0.6061  0.2815
  935SOL    HW1 2932   2.465   2.149   1.506  1.6919  1.7570 -0.2220
  935SOL    HW2 2933   2.599   2.080   1.526  1.2845  0.4980 -1.6354
  936SOL     OW 2934   2.129   0.550   0.148 -0.5906  0.4529  0.7245
  936SOL    HW1 2935   2.100   0.636   0.178 -0.5334  0.6364  0.2611
  936SOL    HW2 2936   2.054   0.493   0.162 -1.3945  1.0262 -0.9382
  937SOL     OW 2937   2.016   3.360   0.106 -0.2518 -1.1064 -0.2908
  937SOL    HW1 2938   1.968   3.296   0.053 -0.7974  0.0035 -1.1769
  937SOL    HW2 2939   1.952   3.429   0.124  0.4900 -0.5220  0.1386
  938SOL     OW 2940   0.572   1.987   0.043  0.7878  0.1484  0.3820
  938SOL    HW1 2941   0.603   2.025   0.126  2.0206  0.9380 -0.4049
  938SOL    HW2 2942   0.635   1.916   0.025 -0.2942 -0.9521  0.7950
  939SOL     OW 2943   2.625   2.985   2.287  0.5224 -0.1359 -0.1038
  939SOL    HW1 2944   2.656   2.941   2.208  1.3779 -0.5178  0.4238
  939SOL    HW2 2945   2.531   2.968   2.289  0.2402  0.9682 -1.7130
  940SOL     OW 2946   2.129   2.584   2.435 -0.3611  0.4258 -0.3561
  940SOL    HW1 2947   2.218   2.613   2.457 -0.4308 -0.1896  0.7896
  940SOL    HW2 2948   2.098   2.541   2.514 -1.3757 -0.1098 -1.0356
  941SOL     OW 2949   2.038   0.070   0.075  0.5122 -0.2857  0.1110
  941SOL    HW1 2950   2.071   0.136   0.013 -0.1118  1.8314  1.9049
  941SOL    HW2 2951   2.088  -0.009   0.055  1.9380  0.9607 -1.5657
  942SOL     OW 2952   0.239   2.925   3.305  0.1393 -0.0370 -0.2295
  942SOL    HW1 2953   0.260   2.983   3.231  1.6324  0.1482  0.2939
  942SOL    HW2 2954   0.145   2.937   3.319  0.3604  2.1340 -0.2614
  943SOL     OW 2955   1.503   0.561   1.494  0.3853 -0.1457 -0.1681
  943SOL    HW1 2956   1.479   0.471   1.514 -0.9881  0.3480  0.4945
  943SOL    HW2 2957   1.575   0.580   1.554  1.4641 -1.1368 -1.0874
  944SOL     OW 2958   0.335   1.396   0.361 -0.3437 -0.2622  0.2500
  944SOL    HW1 2959   0.261   1.420   0.417 -1.1138  0.4731 -1.0251
  944SOL    HW2 2960   0.347   1.302   0.376 -2.7590 -0.8225 -0.8663
  945SOL     OW 2961   0.416   2.876   2.067  0.3966  0.1608 -0.7046
  945SOL    HW1 2962   0.468   2.864   2.147  0.3867 -0.3073 -0.7657
  945SOL    HW2 2963   0.389   2.967   2.070  0.3527  0.1334 -0.1464
  946SOL     OW 2964   0.186   2.784   0.649  0.1373  0.4360 -0.3019
  946SOL    HW1 2965   0.101   2.770   0.607  0.9847  1.0787 -2.3775
  946SOL    HW2 2966   0.243   2.717   0.612 -0.0565 -2.1107  3.4272
  947SOL     OW 2967   2.607   0.371   2.315 -0.4011  0.3032 -0.2879
  947SOL    HW1 2968   2.645   0.457   2.298  2.8566 -1.0714 -0.6739
  947SOL    HW2 2969   2.541   0.387   2.382  0.3133  3.0460 -0.1050
  948SOL     OW 2970   0.750   2.026   1.327 -0.0688 -0.8980  0.1475
  948SOL    HW1 2971   0.675   2.043   1.384 -0.2116  0.7495 -0.4843
  948SOL    HW2 2972   0.739   2.087   1.254  0.8289 -2.0248 -0.9706
  949SOL     OW 2973   0.881   2.174   0.905  0.1057 -0.4830 -0.3524
  949SOL    HW1 2974   0.826   2.105   0.867 -0.7523  1.4401 -2.9076
  949SOL    HW2 2975   0.951   2.187   0.840  0.4089  0.8573  0.2176
  950SOL     OW 2976   0.842   2.092   3.568 -0.5133  0.2366  0.8714
  950SOL    HW1 2977   0.786   2.168   3.553 -0.0332  0.2047 -1.3849
  950SOL    HW2 2978   0.798   2.043   3.638 -2.5502  0.9418  0.1425
  951SOL     OW 2979  -0.012   3.013   1.589 -0.0212  0.3635 -0.2969
  951SOL    HW1 2980   0.057   2.972   1.641  0.1562 -0.2796 -1.0249
  951SOL    HW2 2981   0.016   3.000   1.498 -0.6388  0.9179 -0.5719
  952SOL     OW 2982   0.623   1.106   1.691 -0.0163 -1.1509 -0.3199
  952SOL    HW1 2983   0.688   1.110   1.761 -1.1336  2.0635  0.7276
  952SOL    HW2 2984   0.555   1.047   1.724  0.6091 -1.5857  0.2021
  953SOL     OW 2985   1.683   1.458   3.514  0.8346 -0.3521 -0.4277
  953SOL    HW1 2986   1.662   1.366   3.524  0.6321 -0.7000 -3.3024
  953SOL    HW2 2987   1.779   1.462   3.511  0.8611 -0.9727 -3.2867
  954SOL     OW 2988   0.376   1.755   1.245 -0.3788  0.1536 -1.0124
  954SOL    HW1 2989   0.292   1.721   1.214 -0.8936 -0.4747  0.9359
  954SOL    HW2 2990   0.361   1.849   1.257 -1.1914 -0.1206  0.3731
  955SOL     OW 2991   0.668   2.435   0.563 -0.1112 -0.2312  0.3741
  955SOL    HW1 2992   0.732   2.497   0.529 -0.9163  0.8348  0.7504
  955SOL    HW2 2993   0.709   2.398   0.641 -0.4828  1.5250  1.4576
  956SOL     OW 2994   2.491   1.141   1.979  0.0164  0.6864  0.2035
  956SOL    HW1 2995   2.401   1.161   1.956  0.5183  3.2403  0.1708
  956SOL    HW2 2996   2.536   1.128   1.896  0.0536  1.3852  0.1047
  957SOL     OW 2997   3.063   1.623   0.778 -0.3137 -0.0881  0.5974
  957SOL    HW1 2998   3.074   1.633   0.873  0.3415 -0.2512  0.5442
  957SOL    HW2 2999   3.121   1.689   0.740  0.3142 -0.8007  0.3002
  958SOL     OW 3000   2.398   1.913   3.152  0.5268 -0.0430  0.5739
  958SOL    HW1 3001   2.308   1.921   3.182  0.5044 -1.0624  0.8317
  958SOL    HW2 3002   2.446   1.980   3.200 -0.1595  0.8122  0.1025
  959SOL     OW 3003   1.697   3.569   0.614  0.4134  0.4791  0.0215
  959SOL    HW1 3004   1.711   3.597   0.704  0.0209  1.3770 -0.1828
  959SOL    HW2 3005   1.759   3.497   0.601  2.0481  1.7510  0.3542
  960SOL     OW 3006   3.286   0.093   1.828  1.0537 -0.2478 -0.0928
  960SOL    HW1 3007   3.229   0.101   1.905  0.7312  0.6373 -0.4119
  960SOL    HW2 3008   3.246   0.023   1.776  0.1513  0.4839 -0.3985
  961SOL     OW 3009   0.497   0.711   1.836  0.1388  0.4749 -0.5263
  961SOL    HW1 3010   0.592   0.710   1.843  0.1185 -1.1146 -0.0582
  961SOL    HW2 3011   0.479   0.682   1.747  0.0990 -1.5682  0.0949
  962SOL     OW 3012   1.783   2.959   1.055  0.1965 -0.4183  0.1141
  962SOL    HW1 3013   1.853   2.996   1.109 -0.2265  2.2479 -0.9847
  962SOL    HW2 3014   1.712   2.943   1.117  0.2039  1.2694  0.6259
  963SOL     OW 3015   2.706   3.209   1.576  0.0492 -0.4087 -0.2413
  963SOL    HW1 3016   2.740   3.141   1.634  0.2619  0.5871  0.8658
  963SOL    HW2 3017   2.614   3.219   1.602  0.3017  0.4626  0.3994
  964SOL     OW 3018   0.524   0.397   1.017 -0.4105 -0.3752 -0.4080
  964SOL    HW1 3019   0.565   0.338   1.080 -1.4951 -1.0823 -0.3190
  964SOL    HW2 3020   0.537   0.484   1.053 -1.7949 -0.8128  1.3212
  965SOL     OW 3021   2.831   1.614   2.028  0.6482  0.3934 -0.3456
  965SOL    HW1 3022   2.887   1.619   2.105  1.3632  0.3710 -0.8503
  965SOL    HW2 3023   2.879   1.557   1.968  0.5167  1.0880 -1.1305
  966SOL     OW 3024   0.205   3.676   2.235 -0.0880  0.0562 -0.9998
  966SOL    HW1 3025   0.141   3.740   2.266 -0.6565 -1.4633  1.2184
  966SOL    HW2 3026   0.255   3.722   2.168 -0.4193  2.8266  0.5274
  967SOL     OW 3027   0.784   2.548   2.911 -0.0275  0.5257  0.0796
  967SOL    HW1 3028   0.742   2.633   2.918  0.3242  0.7317 -0.2827
  967SOL    HW2 3029   0.877   2.565   2.926 -0.1221 -0.0146  1.4938
  968SOL     OW 3030   3.618   0.093   3.064  0.0667 -0.6420 -0.7822
  968SOL    HW1 3031   3.635   0.002   3.039 -2.1610 -0.7847 -2.0469
  968SOL    HW2 3032   3.523   0.101   3.064  0.2018  1.7770 -1.0282
  969SOL     OW 3033   1.896   2.729   1.387  0.2556  0.0571 -0.3109
  969SOL    HW1 3034   1.857   2.661   1.332 -0.8787  0.3215  0.1419
  969SOL    HW2 3035   1.865   2.710   1.476  1.0788  0.3414  0.0529
  970SOL     OW 3036   1.928   3.000   1.279  0.0508 -0.0543 -0.2927
  970SOL    HW1 3037   1.903   2.916   1.319  0.4386  0.2888  0.6855
  970SOL    HW2 3038   2.003   3.029   1.329 -1.4968  2.0440  0.9476
  971SOL     OW 3039   2.447   0.197   1.249  0.1276 -0.2940  0.5382
  971SOL    HW1 3040   2.383   0.268   1.255  0.4612  0.0333  0.2625
  971SOL    HW2 3041   2.414   0.130   1.309  0.7228  0.7934  2.1299
  972SOL     OW 3042   2.552   2.932   1.916  0.3043 -0.3518 -0.5128
  972SOL    HW1 3043   2.493   2.873   1.962 -0.6339 -0.1084 -1.3725
  972SOL    HW2 3044   2.638   2.914   1.953 -0.3842 -0.2926  1.2015
  973SOL     OW 3045   1.789   1.521   0.335 -0.6908 -0.2806  0.2134
  973SOL    HW1 3046   1.705   1.560   0.356 -0.9672 -1.4528  1.4278
  973SOL    HW2 3047   1.775   1.478   0.250 -1.8067 -1.7364  1.0808
  974SOL     OW 3048   2.558   2.567   3.242 -0.8669 -0.3800  0.1158
  974SOL    HW1 3049   2.482   2.545   3.296  0.2897  1.6038  2.7758
  974SOL    HW2 3050   2.629   2.513   3.277 -0.4874 -0.4605 -0.7418
  975SOL     OW 3051   2.779   3.033   0.822 -0.2587  0.5211  0.3534
  975SOL    HW1 3052   2.860   3.080   0.803  1.1373 -1.3265  1.3876
  975SOL    HW2 3053   2.741   3.014   0.736  0.8412  0.7025 -0.1847
  976SOL     OW 3054   0.253   1.729   1.701 -0.0775  0.0317  0.0801
  976SOL    HW1 3055   0.163   1.751   1.725 -0.2696  0.2931 -0.8443
  976SOL    HW2 3056   0.305   1.761   1.775 -0.7727 -0.6039  0.8726
  977SOL     OW 3057   0.927   3.572   3.258  0.0917  0.4176  0.2991
  977SOL    HW1 3058   0.898   3.605   3.343  1.4262  1.3554  0.4284
  977SOL    HW2 3059   0.929   3.648   3.201 -0.1960 -0.0930 -0.4140
  978SOL     OW 3060   2.549   3.084   0.171  0.3617  0.0953  0.2659
  978SOL    HW1 3061   2.483   3.152   0.184  0.0596 -0.1037 -0.2161
  978SOL    HW2 3062   2.630   3.132   0.154  0.2813  0.3360  0.5625
  979SOL     OW 3063   2.354   3.053   0.612 -0.0595 -0.2038 -0.0916
  979SOL    HW1 3064   2.308   3.004   0.680  0.9270 -1.1398 -0.0871
  979SOL    HW2 3065   2.301   3.041   0.533 -0.9677  0.5201  0.3765
  980SOL     OW 3066   3.364   1.631   2.651  0.0295  1.0556  0.2012
  980SOL    HW1 3067   3.334   1.667   2.567 -0.5540  2.2456  0.9057
  980SOL    HW2 3068   3.310   1.553   2.664  0.0046  0.9590 -0.4447
  981SOL     OW 3069   2.752   0.346   0.697  0.4760 -0.1241  0.2649
  981SOL    HW1 3070   2.685   0.399   0.653  3.1583  2.4104 -1.1099
  981SOL    HW2 3071   2.748   0.372   0.789 -1.0568 -0.8032  0.4175
  982SOL     OW 3072   0.474   2.976   1.292 -0.4711  0.1656 -0.0155
  982SOL    HW1 3073   0.541   2.913   1.266 -0.2874  0.6306 -0.7115
  982SOL    HW2 3074   0.413   2.978   1.218 -1.1495 -0.1026  0.5267
  983SOL     OW 3075   2.760   3.222   3.730 -0.0608  0.0689  0.3797
  983SOL    HW1 3076   2.741   3.137   3.690 -0.6620  1.1998 -1.9369
  983SOL    HW2 3077   2.855   3.230   3.725 -0.1566  0.5332 -1.7692
  984SOL     OW 3078   0.661   0.841   2.611  1.0415  1.2526  0.6578
  984SOL    HW1 3079   0.652   0.796   2.695  0.5464  0.2547  0.0965
  984SOL    HW2 3080   0.623   0.780   2.548 -0.6831  2.9422 -0.0078
  985SOL     OW 3081   1.942   0.410   0.793  0.7399 -0.1270 -0.1605
  985SOL    HW1 3082   2.024   0.361   0.800 -0.2234 -1.9766 -1.1307
  985SOL    HW2 3083   1.898   0.374   0.716  0.3275  2.9132 -1.4851
  986SOL     OW 3084   1.060   0.435   1.383  0.4326  0.3833 -0.0546
  986SOL    HW1 3085   1.132   0.496   1.398  0.9527 -0.5676  1.4717
  986SOL    HW2 3086   1.090   0.381   1.309  0.5645  1.0460 -0.4932
  987SOL     OW 3087   2.487   2.349   2.557 -0.1021  0.7519  0.5544
  987SOL    HW1 3088   2.549   2.384   2.492 -1.3285  0.0890 -1.0455
  987SOL    HW2 3089   2.542   2.300   2.619  1.1091  1.3945  0.0255
  988SOL     OW 3090   2.731   2.307   0.981 -0.2806  0.2634 -0.5410
  988SOL    HW1 3091   2.750   2.293   1.074 -1.8713  0.7142 -0.1276
  988SOL    HW2 3092   2.760   2.396   0.963 -1.3105  0.7085 -0.0811
  989SOL     OW 3093   2.486   2.445   0.798  0.0167  0.4030  0.3144
  989SOL    HW1 3094   2.511   2.493   0.877 -0.2975  2.5230 -0.7793
  989SOL    HW2 3095   2.566   2.445   0.745 -0.1019  0.0397  0.1338
  990SOL     OW 3096   2.407   3.245   1.884  0.3343  0.7681 -0.2332
  990SOL    HW1 3097   2.422   3.215   1.794 -0.8538  0.1516 -0.2385
  990SOL    HW2 3098   2.333   3.306   1.877  0.1666  0.6331  0.3401
  991SOL     OW 3099   2.835   0.339   2.566 -0.1425 -0.4686  0.3966
  991SOL    HW1 3100   2.860   0.338   2.473 -0.0661  1.5138  0.3512
  991SOL    HW2 3101   2.777   0.415   2.574  0.9827  0.2611  2.2191
  992SOL     OW 3102   2.656   3.486   1.881  0.4034  1.1330  0.0247
  992SOL    HW1 3103   2.622   3.424   1.946 -0.2687  1.6723  0.1910
  992SOL    HW2 3104   2.619   3.457   1.798 -0.2834  1.5641  0.1677
  993SOL     OW 3105   3.008   2.821   0.012  0.4527  0.3747 -0.0724
  993SOL    HW1 3106   3.021   2.783   0.099 -1.1564  0.7107  0.3369
  993SOL    HW2 3107   2.913   2.820  -0.001  0.6940 -0.2671 -2.1112
  994SOL     OW 3108   3.171   0.526   0.214 -1.1939 -0.4373  0.0038
  994SOL    HW1 3109   3.234   0.550   0.281 -0.6147  1.1004 -1.0405
  994SOL    HW2 3110   3.178   0.431   0.207  0.2826 -0.3890  0.6081
  995SOL     OW 3111   3.055   2.370   3.619  0.6910 -0.6631 -0.4119
  995SOL    HW1 3112   3.046   2.459   3.585 -1.5731 -1.1408 -1.2803
  995SOL    HW2 3113   3.114   2.379   3.694 -1.0974  2.0093  0.8777
  996SOL     OW 3114   3.546   3.578   2.145  0.6627 -0.2955  0.0223
  996SOL    HW1 3115   3.452   3.578   2.164  0.1156 -2.7366 -2.0717
  996SOL    HW2 3116   3.585   3.535   2.221 -0.4288 -2.4970 -0.5686
  997SOL     OW 3117   2.193   1.887   0.729  0.5462 -0.0755  1.0569
  997SOL    HW1 3118   2.163   1.909   0.641  0.8939 -3.4156 -0.0483
  997SOL    HW2 3119   2.132   1.932   0.787  0.0855  1.9283 -0.8646
  998SOL     OW 3120   1.928   3.195   3.339  0.0514  0.1692 -0.1072
  998SOL    HW1 3121   1.880   3.175   3.419  1.6811 -1.3814  0.5507
  998SOL    HW2 3122   1.972   3.277   3.357 -0.6159  0.4897  0.0885
  999SOL     OW 3123   2.329   1.002   2.276  0.1011 -0.5186 -0.0978
  999SOL    HW1 3124   2.390   0.943   2.231 -1.6181 -2.6764  0.2656
  999SOL    HW2 3125   2.292   0.949   2.347 -1.2446  1.1265  0.4917
 1000SOL     OW 3126   2.546   2.708   1.635  0.5310 -0.1435 -0.1299
 1000SOL    HW1 3127   2.627   2.696   1.686  1.5481  2.2152 -1.0233
 1000SOL    HW2 3128   2.476   2.693   1.697  1.7147  1.2727  1.6450
 1001SOL     OW 3129   1.594   3.290   3.425  0.3384 -0.4461 -0.1769
 1001SOL    HW1 3130   1.599   3.299   3.330 -4.8354  1.3923 -0.5697
 1001SOL    HW2 3131   1.604   3.380   3.459 -1.0283 -0.5741  0.6554
 1002SOL     OW 3132   2.972   0.846   3.102 -0.0547  0.3461  0.6081
 1002SOL    HW1 3133   2.887   0.845   3.147  0.2715  0.5384  1.2558
 1002SOL    HW2 3134   2.975   0.932   3.060 -0.9027 -0.3180 -0.8913
 1003SOL     OW 3135   1.692   2.057   0.307 -0.5345  0.1916 -0.6818
 1003SOL    HW1 3136   1.664   1.989   0.367 -1.1413 -1.5130 -2.7605
 1003SOL    HW2 3137   1.777   2.028   0.275 -0.4657  0.7824 -1.0556
 1004SOL     OW 3138   3.231   2.836   3.283  0.0762 -0.1754 -0.5999
 1004SOL    HW1 3139   3.275   2.800   3.205 -0.6176  0.3239 -1.2357
 1004SOL    HW2 3140   3.142   2.801   3.278 -0.3067  0.7973 -0.6658
 1005SOL     OW 3141   2.337   3.019   2.219 -0.5511 -0.5505 -0.1512
 1005SOL    HW1 3142   2.314   3.112   2.224  2.1080  0.2394 -1.0154
 1005SOL    HW2 3143   2.253   2.973   2.225 -1.8510  1.8210  1.4506
 1006SOL     OW 3144   2.542   3.214   0.470 -0.0169 -0.2000  0.2503
 1006SOL    HW1 3145   2.468   3.209   0.530  0.4829  0.4899  0.9319
 1006SOL    HW2 3146   2.502   3.230   0.384 -0.7001 -0.7062  0.4641
 1007SOL     OW 3147   0.336   3.123   1.624 -0.3627 -0.0005  0.0370
 1007SOL    HW1 3148   0.285   3.043   1.613 -0.0194 -0.6455  2.5372
 1007SOL    HW2 3149   0.272   3.188   1.655  0.1664 -0.7219  2.8575
 1008SOL     OW 3150   0.151   0.490   2.638 -0.2740 -0.0840  0.6134
 1008SOL    HW1 3151   0.174   0.407   2.679 -0.2559  0.5394  1.9055
 1008SOL    HW2 3152   0.063   0.510   2.669 -0.0656  0.6430  0.7718
 1009SOL     OW 3153   0.351   2.846   2.626  0.5119  0.4204 -0.0027
 1009SOL    HW1 3154   0.308   2.815   2.547 -0.1896  0.6559  0.2747
 1009SOL    HW2 3155   0.390   2.769   2.665  0.4018  0.2120 -0.3043
 1010SOL     OW 3156   3.411   2.207   3.012 -0.2189  0.1723 -0.4940
 1010SOL    HW1 3157   3.430   2.117   3.038  0.9981  1.1663  2.5349
 1010SOL    HW2 3158   3.496   2.244   2.989 -0.7820  0.4595 -2.3041
 1011SOL     OW 3159   3.639   3.145   2.061 -0.2177  0.0647  0.1767
 1011SOL    HW1 3160   3.714   3.136   2.002 -0.1811 -3.3305  0.4989
 1011SOL    HW2 3161   3.562   3.133   2.005 -0.2042 -2.4477  0.5532
 1012SOL     OW 3162   0.951   1.419   0.223 -0.1202 -0.3028 -0.6665
 1012SOL    HW1 3163   0.911   1.496   0.182  0.8132  0.8453  0.4879
 1012SOL    HW2 3164   0.877   1.366   0.253 -0.7914  0.8053 -0.3038
 1013SOL     OW 3165   3.612   1.453   2.592 -0.5388  0.5555 -0.8726
 1013SOL    HW1 3166   3.523   1.487   2.604  0.0533  1.4756  1.3950
 1013SOL    HW2 3167   3.661   1.528   2.558 -0.6311  0.0073 -2.2591
 1014SOL     OW 3168   0.124   3.051   0.700  0.1660  0.5202 -0.4790
 1014SOL    HW1 3169   0.070   2.972   0.702 -0.1198  0.7262  0.0030
 1014SOL    HW2 3170   0.210   3.020   0.670  0.4246 -0.2064  0.9118
 1015SOL     OW 3171   3.330   1.162   0.263 -0.1487  0.0758 -0.0351
 1015SOL    HW1 3172   3.411   1.113   0.274 -0.5281 -0.5938 -0.1167
 1015SOL    HW2 3173   3.304   1.145   0.172 -0.4398  0.1813  0.0257
 1016SOL     OW 3174   2.465   0.568   1.367  0.1521  0.0886  0.0548
 1016SOL    HW1 3175   2.546   0.566   1.316 -0.3425 -0.7513 -0.7379
 1016SOL    HW2 3176   2.396   0.581   1.302 -0.3127  1.3838  0.7897
 1017SOL     OW 3177   1.642   2.775   2.376 -0.2333 -0.1200  0.5372
 1017SOL    HW1 3178   1.692   2.852   2.401  0.6079 -0.3624 -0.3531
 1017SOL    HW2 3179   1.653   2.714   2.449  1.7153 -0.6028 -0.1219
 1018SOL     OW 3180   2.214   0.075   2.118 -0.6751  0.3770 -0.6497
 1018SOL    HW1 3181   2.192   0.162   2.152  1.0189  0.9167 -0.8689
 1018SOL    HW2 3182   2.187   0.015   2.187 -2.5870  0.9707 -0.8002
 1019SOL     OW 3183   1.438   2.770   1.918 -0.3420  0.3853  0.5542
 1019SOL    HW1 3184   1.354   2.757   1.874 -0.7992 -2.5123  2.0196
 1019SOL    HW2 3185   1.425   2.848   1.972 -1.6761  0.6376 -0.0793
 1020SOL     OW 3186   1.278   2.907   1.374  0.1313  0.3134  0.2677
 1020SOL    HW1 3187   1.227   2.836   1.334  1.3800 -1.0779  1.0830
 1020SOL    HW2 3188   1.288   2.881   1.465  0.1667  1.8226  0.7207
 1021SOL     OW 3189   1.384   0.962   0.978  0.2113 -0.2008  0.4893
 1021SOL    HW1 3190   1.414   1.013   0.903  1.0817 -1.5106 -0.0812
 1021SOL    HW2 3191   1.302   1.005   1.004  0.9848  1.5727  0.1612
 1022SOL     OW 3192   0.832   2.339   2.224 -0.2187  0.3054 -0.1831
 1022SOL    HW1 3193   0.872   2.253   2.237  1.2702  0.7901 -1.2699
 1022SOL    HW2 3194   0.760   2.324   2.162 -1.1492 -0.4190  1.0342
 1023SOL     OW 3195   1.659   3.710   1.434 -0.1017 -0.3450  0.3083
 1023SOL    HW1 3196   1.628   3.768   1.365  2.1251  0.5374 -0.0299
 1023SOL    HW2 3197   1.646   3.622   1.399 -0.1102  0.0587 -0.7541
 1024SOL     OW 3198   0.616   1.033   3.172  0.1191  0.0855  0.3890
 1024SOL    HW1 3199   0.666   1.056   3.094 -0.6332  2.8572  0.6029
 1024SOL    HW2 3200   0.529   1.072   3.158 -0.4590 -0.4769  2.0446
 1025SOL     OW 3201   2.130   0.596   2.281  0.2192 -0.1616 -0.3301
 1025SOL    HW1 3202   2.081   0.587   2.363  1.4920 -1.7511  0.3200
 1025SOL    HW2 3203   2.222   0.599   2.309  0.5835  2.1534 -1.5397
 1026SOL     OW 3204   0.387   0.497   3.231  0.4919 -0.3725  0.2281
 1026SOL    HW1 3205   0.450   0.545   3.177  0.1121  1.3344  1.2394
 1026SOL    HW2 3206   0.436   0.471   3.309  0.4866 -0.9872  0.0385
 1027SOL     OW 3207   2.517   0.467   0.536 -0.1438  0.4513  0.1173
 1027SOL    HW1 3208   2.447   0.499   0.479 -0.3023 -4.0464 -2.7131
 1027SOL    HW2 3209   2.596   0.475   0.483  0.8434  1.6649  1.7020
 1028SOL     OW 3210   0.245   3.512   2.528 -0.0825 -0.0137  0.7749
 1028SOL    HW1 3211   0.321   3.506   2.585  0.6238 -1.3101 -0.2282
 1028SOL    HW2 3212   0.262   3.448   2.459 -2.1106 -0.3871  0.5462
 1029SOL     OW 3213   1.998   0.411   1.155  0.1842 -0.8039  0.0052
 1029SOL    HW1 3214   2.073   0.368   1.114  0.1511 -1.5267  0.6705
 1029SOL    HW2 3215   1.968   0.475   1.090  0.6277 -1.3498 -0.7501
 1030SOL     OW 3216   3.057   1.948   1.493 -0.6676 -0.1933 -0.2553
 1030SOL    HW1 3217   3.018   1.998   1.565  0.7200  0.4158  0.1217
 1030SOL    HW2 3218   2.992   1.951   1.423 -0.0784  3.6595 -0.8823
 1031SOL     OW 3219   1.446   2.298   1.771  0.2193 -0.1160 -0.4033
 1031SOL    HW1 3220   1.513   2.290   1.838 -1.0006 -1.6235  0.7093
 1031SOL    HW2 3221   1.370   2.333   1.817 -0.4437 -0.5452 -1.1455
 1032SOL     OW 3222   3.062   2.640   2.843  0.2681 -0.2042 -0.7930
 1032SOL    HW1 3223   3.063   2.547   2.866 -0.4898 -0.0766 -0.1848
 1032SOL    HW2 3224   3.028   2.643   2.754 -1.9421 -0.4012 -0.0288
 1033SOL     OW 3225   1.827   3.706   0.387 -0.7790  0.2365 -0.2414
 1033SOL    HW1 3226   1.797   3.619   0.363  0.3764 -0.0806 -0.5508
 1033SOL    HW2 3227   1.862   3.697   0.475 -0.1741  0.2670 -0.4731
 1034SOL     OW 3228   0.999   1.809   0.770  0.4220 -0.1076  0.2982
 1034SOL    HW1 3229   0.941   1.771   0.704  0.4633  0.5430 -0.1162
 1034SOL    HW2 3230   0.951   1.802   0.852  0.3765 -0.9410  0.2140
 1035SOL     OW 3231   1.547   0.408   2.058  0.5882 -0.0630  0.3217
 1035SOL    HW1 3232   1.560   0.314   2.054 -0.6174 -0.2144 -2.6488
 1035SOL    HW2 3233   1.539   0.427   2.152  0.2836 -2.9854  0.9891
 1036SOL     OW 3234   2.381   0.370   2.492  0.2618 -0.9878  0.4738
 1036SOL    HW1 3235   2.393   0.422   2.571 -1.7897 -0.8492  0.7461
 1036SOL    HW2 3236   2.288   0.347   2.492  0.1140 -0.6861 -2.0850
 1037SOL     OW 3237   2.854   0.145   1.991 -0.8551 -0.1322 -0.0415
 1037SOL    HW1 3238   2.844   0.050   1.989 -1.6983 -0.0353 -1.3297
 1037SOL    HW2 3239   2.906   0.166   1.913 -0.5404  0.4672  0.3160
 1038SOL     OW 3240   0.320   0.209   2.971  0.6615 -0.4051  0.3669
 1038SOL    HW1 3241   0.257   0.218   3.043  1.9583 -0.2513  1.5235
 1038SOL    HW2 3242   0.275   0.245   2.895 -0.6009 -0.2073  1.1782
 1039SOL     OW 3243   2.893   0.265   0.245 -0.5079 -0.1664  0.3409
 1039SOL    HW1 3244   2.827   0.228   0.186  0.3051 -0.7863 -0.2201
 1039SOL    HW2 3245   2.961   0.298   0.186 -0.5220  0.8977  0.8902
 1040SOL     OW 3246   2.417   1.948   0.480  0.0063  0.4751  0.3661
 1040SOL    HW1 3247   2.411   2.032   0.526 -1.4673  0.0435  1.0124
 1040SOL    HW2 3248   2.327   1.920   0.469  0.4752 -1.0661  0.2083
 1041SOL     OW 3249   1.054   1.086   0.329  0.6184  0.0557 -0.1837
 1041SOL    HW1 3250   1.111   1.145   0.280  0.7507  0.8136  0.8431
 1041SOL    HW2 3251   1.100   1.002   0.326  1.5779  0.5402  0.2219
 1042SOL     OW 3252   0.274   2.749   2.367  0.2450  0.2622 -0.3236
 1042SOL    HW1 3253   0.198   2.691   2.373 -0.0128  0.7204  0.9998
 1042SOL    HW2 3254   0.345   2.699   2.409  0.1656  0.6522  0.2852
 1043SOL     OW 3255   0.037   0.767   3.401  0.2558 -0.0122 -0.2017
 1043SOL    HW1 3256   0.086   0.730   3.328 -0.4292 -0.3605 -0.4948
 1043SOL    HW2 3257   0.072   0.856   3.410 -0.9495  0.7363 -2.2191
 1044SOL     OW 3258   1.077   0.065   2.515 -0.8623 -0.7680 -0.0042
 1044SOL    HW1 3259   1.169   0.039   2.518 -1.3719 -2.6944  0.1603
 1044SOL    HW2 3260   1.034   0.009   2.579 -1.8427  1.6948  1.6284
 1045SOL     OW 3261   0.642   2.016   2.304 -0.2058  0.1240 -0.0499
 1045SOL    HW1 3262   0.731   2.043   2.325 -0.8404  1.2510  1.3699
 1045SOL    HW2 3263   0.653   1.943   2.242  1.6756  0.2556  0.0663
 1046SOL     OW 3264   1.033   2.988   1.156  0.4451  0.2324 -0.2867
 1046SOL    HW1 3265   1.127   2.970   1.166  0.7035  0.5536 -1.8502
 1046SOL    HW2 3266   1.024   3.079   1.182  0.4557  0.0332  0.4317
 1047SOL     OW 3267   2.985   1.291   2.937 -0.3844  0.1270  1.3658
 1047SOL    HW1 3268   2.966   1.210   2.890  0.8812 -1.1918  2.9853
 1047SOL    HW2 3269   2.940   1.282   3.021 -0.1186  1.0508  1.6232
 1048SOL     OW 3270   3.522   0.174   2.671  0.3274  0.1236 -0.2435
 1048SOL    HW1 3271   3.573   0.204   2.746 -0.5255  0.9442  0.0296
 1048SOL    HW2 3272   3.581   0.116   2.623  0.7272 -0.8217  1.3160
 1049SOL     OW 3273   3.405   0.784   2.263 -0.2681  0.5404  0.1583
 1049SOL    HW1 3274   3.346   0.727   2.213  0.3687 -0.5351  0.5763
 1049SOL    HW2 3275   3.469   0.814   2.199 -0.1577  0.1519  0.0834
 1050SOL     OW 3276   0.207   2.385   1.386 -0.3582  0.4596  0.7041
 1050SOL    HW1 3277   0.226   2.421   1.473  0.7192  2.1057 -0.1617
 1050SOL    HW2 3278   0.178   2.461   1.335  2.4896  0.3519 -1.3436
 1051SOL     OW 3279   0.159   1.465   0.544  0.2579  0.8283 -0.4162
 1051SOL    HW1 3280   0.075   1.510   0.540  0.7318  1.6557 -1.3670
 1051SOL    HW2 3281   0.141   1.386   0.594 -0.8124  1.5945  0.4656
 1052SOL     OW 3282   1.763   2.381   0.227 -0.0126  0.3867 -0.5467
 1052SOL    HW1 3283   1.751   2.291   0.196 -1.3641  0.1478  0.5683
 1052SOL    HW2 3284   1.858   2.395   0.225  0.1743 -0.8487 -1.2961
 1053SOL     OW 3285   0.225   1.016   0.134  0.5976  0.0725 -0.3016
 1053SOL    HW1 3286   0.194   1.082   0.072  2.8768  0.9615 -0.5759
 1053SOL    HW2 3287   0.227   0.935   0.083 -1.8541 -0.2172 -0.0693
 1054SOL     OW 3288   2.484   2.965   1.473 -0.0093  0.5497 -0.3536
 1054SOL    HW1 3289   2.545   2.933   1.406 -0.4079  0.2365 -0.5665
 1054SOL    HW2 3290   2.500   2.909   1.548  1.2291  1.6000  0.2162
 1055SOL     OW 3291   1.376   3.645   1.293 -0.0739  0.1379  0.0356
 1055SOL    HW1 3292   1.405   3.588   1.221 -2.3349  0.8982 -1.6167
 1055SOL    HW2 3293   1.312   3.591   1.341  0.0884  0.2466  0.3757
 1056SOL     OW 3294   3.294   1.057   0.021  0.1515  0.5019 -0.6591
 1056SOL    HW1 3295   3.253   1.122  -0.036  0.9047  0.2255 -1.5535
 1056SOL    HW2 3296   3.235   0.981   0.017 -0.4872  0.9596  0.0117
 1057SOL     OW 3297   3.475   0.379   0.092  0.3616  0.1524  0.3159
 1057SOL    HW1 3298   3.555   0.361   0.141  0.5882 -0.4677 -0.2550
 1057SOL    HW2 3299   3.404   0.352   0.151  0.5954  0.1970  0.6191
 1058SOL     OW 3300   0.538   0.679   1.009 -0.6415  0.0656  0.4133
 1058SOL    HW1 3301   0.571   0.767   0.995  1.9568 -0.7557  0.9155
 1058SOL    HW2 3302   0.548   0.635   0.924  0.7490 -0.5213  0.8547
 1059SOL     OW 3303   1.115   2.456   2.441  0.0751 -0.7814  0.6450
 1059SOL    HW1 3304   1.102   2.411   2.357 -0.4749 -1.2517  0.9763
 1059SOL    HW2 3305   1.198   2.502   2.431  0.4033 -1.4775  0.1225
 1060SOL     OW 3306   0.731   2.173   0.309  0.0207  0.4442  0.2075
 1060SOL    HW1 3307   0.803   2.233   0.289  1.2442 -0.2623  2.2271
 1060SOL    HW2 3308   0.664   2.229   0.347  0.7893  0.6883  1.2399
 1061SOL     OW 3309   1.775   0.772   1.590 -0.3853 -0.0701 -0.2563
 1061SOL    HW1 3310   1.796   0.708   1.522 -1.0320 -0.8060  0.2318
 1061SOL    HW2 3311   1.680   0.766   1.601 -0.0792 -1.6247  2.3123
 1062SOL     OW 3312   3.344   1.544   1.893 -0.1927  0.6655 -0.4911
 1062SOL    HW1 3313   3.370   1.634   1.912  1.0803  0.3383 -0.6003
 1062SOL    HW2 3314   3.404   1.490   1.945 -1.4421 -0.1205  0.1703
 1063SOL     OW 3315   2.886   1.888   1.009  0.5332  0.4430  0.9320
 1063SOL    HW1 3316   2.893   1.921   0.920 -0.2486  1.3665  1.1912
 1063SOL    HW2 3317   2.804   1.839   1.010  1.1296 -0.5874  0.8492
 1064SOL     OW 3318   1.153   3.377   1.736 -0.9683  0.2900 -0.1863
 1064SOL    HW1 3319   1.125   3.443   1.800  0.2175  0.1350  0.5104
 1064SOL    HW2 3320   1.071   3.347   1.696 -1.6991  0.7012  0.9448
 1065SOL     OW 3321   2.476   3.373   3.000  0.0383 -0.0384  0.0331
 1065SOL    HW1 3322   2.443   3.332   2.920  1.1559  0.3472 -0.6646
 1065SOL    HW2 3323   2.508   3.300   3.053  0.3239 -0.2243 -0.3846
 1066SOL     OW 3324   0.987   3.435   2.858 -0.2558 -0.0636 -0.5062
 1066SOL    HW1 3325   0.962   3.394   2.941  1.1435 -0.9404 -0.4787
 1066SOL    HW2 3326   1.042   3.509   2.882 -0.4539  0.1290 -0.6388
 1067SOL     OW 3327   3.098   3.048   1.437 -0.0901  0.0771 -0.7711
 1067SOL    HW1 3328   3.155   3.091   1.375 -0.0171 -0.0806 -0.8143
 1067SOL    HW2 3329   3.146   3.051   1.520  1.2770 -2.5162 -1.3502
 1068SOL     OW 3330   1.144   1.530   1.734 -0.0774  0.2365  0.1170
 1068SOL    HW1 3331   1.062   1.574   1.711  0.6314  1.7744  0.3482
 1068SOL    HW2 3332   1.121   1.470   1.805 -1.2741 -0.5493 -0.8996
 1069SOL     OW 3333   1.890   3.286   1.999 -0.1546 -0.7075  0.2841
 1069SOL    HW1 3334   1.938   3.213   2.038  1.1595 -0.4238 -0.7320
 1069SOL    HW2 3335   1.816   3.300   2.058  0.6241 -1.6106  1.5263
 1070SOL     OW 3336   0.259   0.309   1.906  0.6389  0.2469  0.2023
 1070SOL    HW1 3337   0.208   0.390   1.902 -1.0821 -0.7629  0.7867
 1070SOL    HW2 3338   0.223   0.255   1.836  1.7759 -0.0328 -0.1852
 1071SOL     OW 3339   2.392   3.556   1.689  0.6598  0.0942 -0.2020
 1071SOL    HW1 3340   2.448   3.539   1.614 -2.0336 -0.2427 -2.2785
 1071SOL    HW2 3341   2.358   3.645   1.675 -1.3464 -0.6527 -0.5039
 1072SOL     OW 3342   2.845   1.295   0.501  0.2081  0.1839 -0.0934
 1072SOL    HW1 3343   2.873   1.365   0.560  4.4597 -0.7584 -0.6690
 1072SOL    HW2 3344   2.849   1.216   0.555 -1.7285 -0.0282 -0.2016
 1073SOL     OW 3345   0.988   0.143   3.473  0.6867 -0.0839  0.7695
 1073SOL    HW1 3346   0.900   0.113   3.453  0.2818  1.7090 -0.4065
 1073SOL    HW2 3347   1.023   0.077   3.533 -1.5768 -0.6361  1.5861
 1074SOL     OW 3348   0.609   0.554   0.075 -0.5174 -0.1137 -0.0549
 1074SOL    HW1 3349   0.651   0.470   0.095  1.1991  0.3095 -1.6175
 1074SOL    HW2 3350   0.580   0.587   0.161 -0.0946 -1.6974  0.7395
 1075SOL     OW 3351   1.412   2.142   1.112  0.5599  0.2582  0.4089
 1075SOL    HW1 3352   1.485   2.104   1.064 -0.9557  0.2970 -2.1178
 1075SOL    HW2 3353   1.373   2.069   1.159  0.9938 -0.1864  0.0916
 1076SOL     OW 3354   2.227   3.631   0.258  0.4581 -0.4326  0.1064
 1076SOL    HW1 3355   2.172   3.644   0.336  0.3566  0.3147 -0.0803
 1076SOL    HW2 3356   2.293   3.701   0.264  0.0334  0.0683 -0.8325
 1077SOL     OW 3357   0.183   0.222   2.716 -0.1327  0.6624  0.2823
 1077SOL    HW1 3358   0.100   0.176   2.722 -0.5413  1.4508  0.9353
 1077SOL    HW2 3359   0.247   0.154   2.696 -1.0600  0.1808 -1.2006
 1078SOL     OW 3360   2.159   2.645   1.336 -0.0368 -0.3271  0.3602
 1078SOL    HW1 3361   2.109   2.714   1.291 -0.3523  0.7531  2.2505
 1078SOL    HW2 3362   2.093   2.581   1.362  0.2235 -1.2682 -1.1637
 1079SOL     OW 3363   0.144   2.520   3.403  0.1858  0.5035  0.4419
 1079SOL    HW1 3364   0.200   2.518   3.325 -0.9295 -0.3008 -0.3792
 1079SOL    HW2 3365   0.205   2.526   3.476  1.3926 -0.7596 -0.3902
 1080SOL     OW 3366   1.034   2.505   1.597  0.2738  0.0340  0.0614
 1080SOL    HW1 3367   1.066   2.416   1.612  0.0469  0.2078  1.6713
 1080SOL    HW2 3368   1.113   2.554   1.571  0.4549 -0.5446 -0.5212
 1081SOL     OW 3369   2.126   1.342   1.846 -0.1403 -0.0159 -0.2863
 1081SOL    HW1 3370   2.105   1.307   1.759  0.7894 -1.4957  0.0609
 1081SOL    HW2 3371   2.146   1.265   1.899  1.1926  0.9937  0.7332
 1082SOL     OW 3372   1.868   1.785   3.459 -0.1301  0.0422 -0.2994
 1082SOL    HW1 3373   1.773   1.782   3.470 -0.0073 -0.8230  0.6649
 1082SOL    HW2 3374   1.886   1.874   3.428 -1.2794  0.0996 -0.8523
 1083SOL     OW 3375   1.283   3.309   1.955 -0.0904 -0.0837 -0.6244
 1083SOL    HW1 3376   1.255   3.340   1.869 -2.1282 -0.5853 -0.1982
 1083SOL    HW2 3377   1.210   3.255   1.986  0.2026  0.7710  1.7823
 1084SOL     OW 3378   0.425   1.235   2.700 -0.1861 -0.4285 -0.0629
 1084SOL    HW1 3379   0.335   1.215   2.673 -1.1198  0.9986  1.8097
 1084SOL    HW2 3380   0.454   1.300   2.636 -0.6563 -0.5198 -0.3830
 1085SOL     OW 3381   3.508   0.418   1.952  0.8111  0.2583 -0.1027
 1085SOL    HW1 3382   3.520   0.323   1.954 -0.0160  0.1361 -0.6097
 1085SOL    HW2 3383   3.489   0.438   1.860 -1.1647  0.6253  0.3438
 1086SOL     OW 3384   0.942   0.529   2.332 -1.3098  0.3441  0.1882
 1086SOL    HW1 3385   0.981   0.464   2.390  1.5072  0.6066 -1.2304
 1086SOL    HW2 3386   0.900   0.478   2.263 -0.0163 -0.0267 -0.3557
 1087SOL     OW 3387   0.283   2.055   0.392  1.0012  0.2020  0.1428
 1087SOL    HW1 3388   0.276   2.088   0.303 -2.6103 -1.6506 -0.4221
 1087SOL    HW2 3389   0.296   1.961   0.382 -0.0685 -0.1220  1.5383
 1088SOL     OW 3390   1.988   3.139   2.384  0.5592  0.5193  0.2021
 1088SOL    HW1 3391   1.935   3.072   2.428  2.9472 -1.1190  0.7623
 1088SOL    HW2 3392   2.069   3.142   2.434  1.2460  2.5792 -0.9177
 1089SOL     OW 3393   2.050   1.572   1.969  0.1977  0.4458 -0.0595
 1089SOL    HW1 3394   2.083   1.485   1.946  0.2354  1.2027 -3.4089
 1089SOL    HW2 3395   2.106   1.601   2.040 -0.2372 -2.4797  1.6309
 1090SOL     OW 3396   0.118   0.821   2.911  0.1133 -0.3977  0.0401
 1090SOL    HW1 3397   0.044   0.833   2.852 -0.4476 -0.5050  0.7061
 1090SOL    HW2 3398   0.078   0.803   2.996  0.9069 -0.6934  0.3612
 1091SOL     OW 3399   1.054   1.576   2.358 -0.1713  0.1408  0.3080
 1091SOL    HW1 3400   1.082   1.666   2.342  0.7301  0.0015  1.0498
 1091SOL    HW2 3401   1.125   1.522   2.324 -0.8004 -0.3133 -0.3341
 1092SOL     OW 3402   0.837   2.336   3.322  0.0345  0.2039  0.5650
 1092SOL    HW1 3403   0.777   2.289   3.379 -1.3264  0.5199 -0.5384
 1092SOL    HW2 3404   0.812   2.428   3.331  0.9128  0.4435  0.6983
 1093SOL     OW 3405   2.999   2.474   2.397 -0.4917 -0.2562 -0.2853
 1093SOL    HW1 3406   2.962   2.423   2.325  1.4987 -0.3808 -1.2747
 1093SOL    HW2 3407   3.000   2.414   2.471  0.3325 -1.1588 -1.0093
 1094SOL     OW 3408   0.169   3.334   1.725  0.5732 -0.2431 -0.2715
 1094SOL    HW1 3409   0.203   3.419   1.754  2.8234 -0.3659 -2.1930
 1094SOL    HW2 3410   0.124   3.353   1.643  1.6900 -0.9529 -1.0758
 1095SOL     OW 3411   2.943   1.577   1.472 -0.1852 -0.1149 -0.3725
 1095SOL    HW1 3412   3.014   1.578   1.408 -0.5452  0.3044 -0.7625
 1095SOL    HW2 3413   2.863   1.586   1.421 -0.5331 -0.6657  0.0580
 1096SOL     OW 3414   0.586   1.378   0.146 -0.3895 -0.2901 -0.0457
 1096SOL    HW1 3415   0.563   1.409   0.058 -0.6189 -0.2444  0.0307
 1096SOL    HW2 3416   0.512   1.403   0.200  0.8876  2.1008  0.7347
 1097SOL     OW 3417   3.519   1.509   3.255  0.1385  0.1196  0.0491
 1097SOL    HW1 3418   3.476   1.423   3.261 -0.0161 -0.0732 -2.5629
 1097SOL    HW2 3419   3.612   1.488   3.255  0.1150  0.0106  0.1168
 1098SOL     OW 3420   3.285   0.741   1.082  0.0099  0.4875  0.2399
 1098SOL    HW1 3421   3.246   0.810   1.028  0.8561  0.8567  0.0749
 1098SOL    HW2 3422   3.220   0.725   1.151 -0.9731  0.1819 -0.7341
 1099SOL     OW 3423   0.020   2.254   0.395  0.3594  0.2193  0.1779
 1099SOL    HW1 3424   0.074   2.193   0.345 -1.1637 -1.2015  0.1447
 1099SOL    HW2 3425  -0.070   2.231   0.370 -0.3413  1.1141  1.7403
 1100SOL     OW 3426   2.850   2.832   1.003  0.3636 -0.1589 -0.5027
 1100SOL    HW1 3427   2.898   2.914   1.017 -2.5812  1.7572 -0.7653
 1100SOL    HW2 3428   2.847   2.822   0.908  0.8801 -0.7136 -0.4677
 1101SOL     OW 3429   0.620   1.594   3.512 -0.0674 -0.2556 -0.0998
 1101SOL    HW1 3430   0.628   1.670   3.455 -0.5990 -0.1055  0.0172
 1101SOL    HW2 3431   0.697   1.540   3.493  1.4386  1.2839  1.2854
 1102SOL     OW 3432   2.735   3.693   1.716  0.5822  0.2108  0.5753
 1102SOL    HW1 3433   2.705   3.781   1.739  0.0092  0.1650  0.0209
 1102SOL    HW2 3434   2.695   3.636   1.782 -0.6042  0.1454 -0.1721
 1103SOL     OW 3435   3.474   0.027   0.261  0.0667 -0.0777  0.1282
 1103SOL    HW1 3436   3.454  -0.065   0.279  1.0573 -0.8319 -2.2146
 1103SOL    HW2 3437   3.428   0.046   0.179  1.0361  1.0473 -0.1877
 1104SOL     OW 3438   0.760   3.092   0.103  0.3618 -0.5206  0.1789
 1104SOL    HW1 3439   0.686   3.125   0.154  0.3261 -2.3822  1.4264
 1104SOL    HW2 3440   0.825   3.066   0.168 -0.2403 -4.2999 -0.5110
 1105SOL     OW 3441   1.858   3.358   0.621 -0.8431  0.1025  1.1042
 1105SOL    HW1 3442   1.817   3.274   0.601 -1.4691  0.5872  0.2582
 1105SOL    HW2 3443   1.931   3.337   0.679  0.8661 -1.3950 -1.3950
 1106SOL     OW 3444   2.198   1.231   2.386  0.4168  0.0772  0.0090
 1106SOL    HW1 3445   2.245   1.151   2.361  2.4012  0.2385  2.7016
 1106SOL    HW2 3446   2.125   1.201   2.439  0.8561 -0.0056  0.5799
 1107SOL     OW 3447   3.283   1.441   2.882 -0.3486  0.8323  0.3216
 1107SOL    HW1 3448   3.367   1.487   2.874  0.6401 -1.0267 -0.4828
 1107SOL    HW2 3449   3.290   1.367   2.822 -1.4053 -1.0608  2.3603
 1108SOL     OW 3450   2.697   0.032   3.432 -0.1233 -0.2375  0.5135
 1108SOL    HW1 3451   2.648   0.040   3.350  1.4474  2.0816 -0.3274
 1108SOL    HW2 3452   2.742  -0.052   3.425 -1.8913 -1.1990  0.1463
 1109SOL     OW 3453   1.056   1.692   2.847  0.1835  0.1469  0.9019
 1109SOL    HW1 3454   1.072   1.755   2.776 -0.0173  1.1857  1.7631
 1109SOL    HW2 3455   1.042   1.609   2.801  0.8349  0.6340 -0.2399
 1110SOL     OW 3456   0.333   3.164   3.134 -0.1779  0.2873  0.3968
 1110SOL    HW1 3457   0.301   3.172   3.044 -1.4737  0.3382  0.8454
 1110SOL    HW2 3458   0.300   3.242   3.179  2.8267  1.7733  0.2784
 1111SOL     OW 3459   0.657   3.706   3.162  0.0527 -0.2518  0.5434
 1111SOL    HW1 3460   0.663   3.628   3.107  0.6850 -0.1026  0.3860
 1111SOL    HW2 3461   0.744   3.746   3.156  0.2026 -0.3393  1.8204
 1112SOL     OW 3462   0.107   3.528   1.141  0.0222  0.1903 -0.0873
 1112SOL    HW1 3463   0.069   3.493   1.061  1.6264 -1.5097 -0.1879
 1112SOL    HW2 3464   0.154   3.454   1.180 -1.2198  0.7650  2.7868
 1113SOL     OW 3465   2.822   1.510   0.677 -0.4409  0.2013 -0.1246
 1113SOL    HW1 3466   2.776   1.482   0.756 -0.0639 -0.7785 -0.2371
 1113SOL    HW2 3467   2.893   1.566   0.709 -0.6151  0.2528  0.1793
 1114SOL     OW 3468   0.123   0.214   3.182 -0.0661  0.1956 -0.7380
 1114SOL    HW1 3469   0.103   0.121   3.178  0.9887 -0.0975  0.2323
 1114SOL    HW2 3470   0.172   0.225   3.263 -0.4824  1.6662 -0.6483
 1115SOL     OW 3471   0.982   2.902   1.938 -0.0548  0.4289 -0.5773
 1115SOL    HW1 3472   0.950   2.871   1.853 -0.4148  0.4418 -0.4485
 1115SOL    HW2 3473   0.994   2.822   1.989 -0.0247  0.4338 -0.5768
 1116SOL     OW 3474   0.347   0.943   1.198  0.2165  0.1487  0.5695
 1116SOL    HW1 3475   0.350   1.009   1.268 -0.4090  1.3315 -0.4763
 1116SOL    HW2 3476   0.306   0.867   1.239 -2.3498  1.6009  0.9396
 1117SOL     OW 3477   3.433   3.299   0.711 -0.1112  0.6639 -0.3575
 1117SOL    HW1 3478   3.345   3.267   0.688  0.3294  0.1537 -1.3840
 1117SOL    HW2 3479   3.426   3.394   0.704 -0.7698  0.6807  0.3062
 1118SOL     OW 3480   0.778   1.890   2.869 -0.3492 -0.0481  0.0404
 1118SOL    HW1 3481   0.806   1.800   2.853 -2.0015 -0.6565  0.3034
 1118SOL    HW2 3482   0.693   1.881   2.913  0.7011  1.6125  2.6429
 1119SOL     OW 3483   1.680   2.644   2.115  0.2402  0.0412  0.2356
 1119SOL    HW1 3484   1.661   2.735   2.096  0.8175  0.1379  0.1184
 1119SOL    HW2 3485   1.694   2.641   2.209  1.1428  0.2486  0.1184
 1120SOL     OW 3486   3.551   0.282   0.356  0.1791 -0.4368 -0.4025
 1120SOL    HW1 3487   3.507   0.275   0.441  0.4665  0.0253 -0.2130
 1120SOL    HW2 3488   3.527   0.201   0.310  0.1212 -0.7476  0.1655
 1121SOL     OW 3489   0.285   2.908   0.394  0.4923 -0.4574 -0.0948
 1121SOL    HW1 3490   0.320   2.887   0.308  0.2422  1.6064 -0.7439
 1121SOL    HW2 3491   0.191   2.916   0.381  0.5286  0.5661  0.1986
 1122SOL     OW 3492   3.081   3.599   2.856  0.4791 -0.2940 -0.1452
 1122SOL    HW1 3493   3.084   3.513   2.897 -0.0993  0.0669  0.6851
 1122SOL    HW2 3494   3.024   3.651   2.913  1.0113  0.7060 -0.4978
 1123SOL     OW 3495   1.450   0.545   3.377  0.3953  0.4557 -0.6526
 1123SOL    HW1 3496   1.470   0.588   3.460 -0.2642 -0.6041  0.0825
 1123SOL    HW2 3497   1.516   0.579   3.316  2.0213 -0.0775  0.7251
 1124SOL     OW 3498   0.983   2.878   3.561  0.1670 -0.3199 -0.0167
 1124SOL    HW1 3499   1.076   2.855   3.554 -0.2860 -2.2251 -0.3663
 1124SOL    HW2 3500   0.949   2.868   3.472 -0.5927 -0.7086  0.3068
 1125SOL     OW 3501   1.179   3.466   3.291  0.0338  0.0371 -0.7303
 1125SOL    HW1 3502   1.114   3.412   3.335 -0.5954 -0.3378 -2.0906
 1125SOL    HW2 3503   1.139   3.553   3.286  0.4385  0.2868  0.1261
 1126SOL     OW 3504   3.528   2.479   1.483 -0.6336  0.3340 -0.1179
 1126SOL    HW1 3505   3.481   2.426   1.418  1.1519 -0.0040 -1.2143
 1126SOL    HW2 3506   3.618   2.481   1.451  1.3455 -3.0182  4.2101
 1127SOL     OW 3507   1.197   0.691   0.864  0.5060 -0.8497  0.0540
 1127SOL    HW1 3508   1.160   0.603   0.859  0.2991 -1.0402  3.2758
 1127SOL    HW2 3509   1.233   0.698   0.952  1.8463  1.8269 -0.5734
 1128SOL     OW 3510   1.981   1.309   1.317 -0.5659  0.5999  0.3259
 1128SOL    HW1 3511   1.890   1.280   1.319  0.0131 -1.5480  3.6351
 1128SOL    HW2 3512   2.015   1.276   1.234 -2.3249 -0.2708 -0.0895
 1129SOL     OW 3513   2.847   1.904   1.794  0.3864  0.0829  0.4014
 1129SOL    HW1 3514   2.910   1.848   1.750 -0.5266 -1.4305  0.9280
 1129SOL    HW2 3515   2.897   1.946   1.864  0.6887 -1.7632  1.3712
 1130SOL     OW 3516   2.189   1.840   2.183 -0.2853  0.4377  0.2357
 1130SOL    HW1 3517   2.267   1.822   2.132  0.7705  1.8820  1.2664
 1130SOL    HW2 3518   2.124   1.869   2.119  0.6252  1.0685 -0.4221
 1131SOL     OW 3519   0.882   1.409   1.316  0.0393  0.4642  0.7282
 1131SOL    HW1 3520   0.869   1.451   1.401 -2.0692  2.9434 -0.6626
 1131SOL    HW2 3521   0.818   1.451   1.259  2.8493  0.5986 -2.6747
 1132SOL     OW 3522   1.930   3.560   1.111  0.5972 -0.0081  0.2624
 1132SOL    HW1 3523   1.941   3.534   1.202  1.6337 -1.4773 -0.2374
 1132SOL    HW2 3524   2.002   3.620   1.093  1.1766 -0.7481  0.0709
 1133SOL     OW 3525   1.100   1.739   1.269 -0.2408  0.4511 -0.1539
 1133SOL    HW1 3526   1.010   1.712   1.287 -0.0816  1.4973  2.6992
 1133SOL    HW2 3527   1.140   1.661   1.229 -2.0452 -0.4596 -0.3145
 1134SOL     OW 3528   2.296   1.070   1.117 -0.4264 -0.1822  0.0351
 1134SOL    HW1 3529   2.254   1.152   1.140 -1.9302 -0.1308 -2.5281
 1134SOL    HW2 3530   2.232   1.003   1.140 -0.5290 -0.3711 -0.7794
 1135SOL     OW 3531   1.862   2.574   2.804 -0.5126 -0.2609 -0.3705
 1135SOL    HW1 3532   1.859   2.545   2.895  0.4989 -0.8941 -0.5094
 1135SOL    HW2 3533   1.950   2.548   2.774 -0.2672  1.2671 -1.0906
 1136SOL     OW 3534   2.636   1.775   2.492 -0.0272  0.0470  1.2552
 1136SOL    HW1 3535   2.582   1.767   2.413  0.4299 -0.8479  1.0182
 1136SOL    HW2 3536   2.592   1.720   2.557 -1.2985  2.0183  2.1721
 1137SOL     OW 3537   1.922   1.468   1.704  0.4404 -0.1338  0.4821
 1137SOL    HW1 3538   1.976   1.417   1.644  0.8409  0.2699  0.4887
 1137SOL    HW2 3539   1.978   1.480   1.781  0.9641  1.6354 -0.1298
 1138SOL     OW 3540   2.410   1.038   2.556 -0.0921  0.2338 -0.1424
 1138SOL    HW1 3541   2.321   1.022   2.586  0.3480 -2.4362  0.0119
 1138SOL    HW2 3542   2.434   1.122   2.595 -2.3367  0.7800  0.2017
 1139SOL     OW 3543   0.731   2.535   2.363  0.1287  0.6636 -0.7851
 1139SOL    HW1 3544   0.769   2.459   2.319  0.2359  0.0171  0.3693
 1139SOL    HW2 3545   0.757   2.525   2.455 -1.3390  1.1503 -0.2791
 1140SOL     OW 3546   1.128   3.444   1.058 -0.3084  0.1296  0.3690
 1140SOL    HW1 3547   1.131   3.355   1.023  0.7641  0.5502 -0.7128
 1140SOL    HW2 3548   1.108   3.433   1.151  0.1401 -1.2615  0.3296
 1141SOL     OW 3549   2.987   1.305   2.135 -0.4554 -0.5626 -0.6430
 1141SOL    HW1 3550   2.976   1.322   2.229  0.1002 -1.2766 -0.4406
 1141SOL    HW2 3551   2.914   1.249   2.112 -0.3954 -0.6758 -0.5583
 1142SOL     OW 3552   2.224   0.861   0.594 -0.7054  0.3780 -0.1995
 1142SOL    HW1 3553   2.142   0.815   0.608 -0.8956  0.2332 -1.6892
 1142SOL    HW2 3554   2.252   0.887   0.682 -0.9218 -1.9851  0.6418
 1143SOL     OW 3555   3.664   1.912   3.530  0.4333  0.1384 -0.3227
 1143SOL    HW1 3556   3.594   1.977   3.535  0.7910  0.5495 -0.5534
 1143SOL    HW2 3557   3.744   1.964   3.524  0.6711 -0.3089 -1.3673
 1144SOL     OW 3558   2.568   1.420   1.877 -0.6662 -0.6929  0.0891
 1144SOL    HW1 3559   2.606   1.425   1.790  0.5921  1.6059  0.6930
 1144SOL    HW2 3560   2.619   1.353   1.922 -0.3120 -0.8106 -0.4812
 1145SOL     OW 3561   0.436   0.156   3.349  0.2023  0.3330 -0.2432
 1145SOL    HW1 3562   0.473   0.167   3.262  0.4851  0.1248 -0.1493
 1145SOL    HW2 3563   0.472   0.230   3.399  1.1548 -0.3227  0.0680
 1146SOL     OW 3564   2.390   3.064   3.561 -0.3480  0.5636  0.4314
 1146SOL    HW1 3565   2.398   2.988   3.620 -0.3575  0.9797  0.9725
 1146SOL    HW2 3566   2.296   3.084   3.560 -0.5760 -0.4063 -0.9662
 1147SOL     OW 3567   2.300   3.373   1.163 -0.3174 -0.4921  0.1928
 1147SOL    HW1 3568   2.378   3.334   1.200 -1.6964 -3.0470  0.6226
 1147SOL    HW2 3569   2.322   3.388   1.071  0.8315 -0.6232  0.4301
 1148SOL     OW 3570   0.270   1.152   2.152 -0.1390 -0.0177 -0.1390
 1148SOL    HW1 3571   0.258   1.181   2.242  1.5472  1.7669 -0.4200
 1148SOL    HW2 3572   0.251   1.230   2.100  2.9549  0.2594 -1.0472
 1149SOL     OW 3573   3.636   3.700   1.232 -0.5264  0.0836 -0.2726
 1149SOL    HW1 3574   3.559   3.698   1.175 -1.8571 -2.2982  1.4352
 1149SOL    HW2 3575   3.702   3.652   1.183 -0.7615  0.3916 -0.9106
 1150SOL     OW 3576   2.325   1.616   3.408 -0.2004 -0.5042  0.2395
 1150SOL    HW1 3577   2.395   1.657   3.459  1.6775 -0.1513 -2.4016
 1150SOL    HW2 3578   2.246   1.663   3.435  1.3322  2.6583 -0.2270
 1151SOL     OW 3579   0.458   3.527   2.688 -0.2687  0.2052  0.1388
 1151SOL    HW1 3580   0.457   3.578   2.769  0.4261 -0.9341  0.8734
 1151SOL    HW2 3581   0.549   3.526   2.660 -0.2493 -0.7322  0.1995
 1152SOL     OW 3582   2.695   0.578   0.359  0.2103  0.4228  0.0277
 1152SOL    HW1 3583   2.679   0.502   0.304 -0.6370 -0.4825  1.4743
 1152SOL    HW2 3584   2.622   0.637   0.342  0.3191  0.4597 -0.3156
 1153SOL     OW 3585   1.229   0.580   0.109  0.5447  0.3667  0.5300
 1153SOL    HW1 3586   1.178   0.534   0.042  1.5669 -0.9353  0.6022
 1153SOL    HW2 3587   1.182   0.662   0.123 -0.3512  0.1342 -0.9120
 1154SOL     OW 3588   1.075   3.068   3.322 -0.6136  0.0873 -0.2047
 1154SOL    HW1 3589   0.989   3.029   3.310 -1.0205  0.6864  0.6289
 1154SOL    HW2 3590   1.084   3.079   3.417  0.3404  0.1258 -0.2843
 1155SOL     OW 3591   3.317   2.593   0.368  0.4939  0.1243 -0.4931
 1155SOL    HW1 3592   3.395   2.642   0.339 -1.1035  3.0895 -0.1419
 1155SOL    HW2 3593   3.301   2.624   0.457 -2.4226  1.4649 -1.3795
 1156SOL     OW 3594   0.294   0.757   2.576 -0.0692  0.3477  0.3771
 1156SOL    HW1 3595   0.223   0.695   2.593 -0.4675  0.1702 -1.6045
 1156SOL    HW2 3596   0.366   0.703   2.544  0.5597  0.6435  1.2886
 1157SOL     OW 3597   3.408   3.131   1.904 -0.4970 -0.1741 -0.0306
 1157SOL    HW1 3598   3.388   3.038   1.908 -0.7610 -0.2245 -1.7436
 1157SOL    HW2 3599   3.323   3.174   1.904 -0.4060  0.0079 -0.2166
 1158SOL     OW 3600   1.091   0.839   2.712 -0.2135 -0.1869 -0.6661
 1158SOL    HW1 3601   1.062   0.920   2.754 -0.4383 -0.5310 -0.1419
 1158SOL    HW2 3602   1.011   0.800   2.677 -0.3824 -1.0173  0.5676
 1159SOL     OW 3603   3.617   0.823   0.784  0.3682  0.4660 -0.3655
 1159SOL    HW1 3604   3.570   0.809   0.702  0.2564  0.0114 -0.2229
 1159SOL    HW2 3605   3.623   0.737   0.824  0.8527  0.6102 -0.1247
 1160SOL     OW 3606   0.863   0.949   1.391 -0.0082  0.8005  0.4231
 1160SOL    HW1 3607   0.879   0.859   1.420 -1.4540  1.1862  2.6173
 1160SOL    HW2 3608   0.814   0.939   1.310  3.5603 -0.3076 -1.8708
 1161SOL     OW 3609   0.531   3.052   2.557 -0.4556 -0.6906  0.1035
 1161SOL    HW1 3610   0.582   3.072   2.478 -2.5997  1.2423 -0.9171
 1161SOL    HW2 3611   0.452   3.010   2.524 -1.0351 -0.5668  1.2971
 1162SOL     OW 3612   3.411   0.812   2.838  0.5893 -0.2543 -0.2842
 1162SOL    HW1 3613   3.374   0.818   2.926  1.5619 -0.1868  0.1320
 1162SOL    HW2 3614   3.387   0.724   2.808  0.0292 -0.1813 -0.0638
 1163SOL     OW 3615   1.667   1.763   1.084 -0.2528 -0.3480 -0.1619
 1163SOL    HW1 3616   1.622   1.680   1.072 -1.1805  0.2023 -0.5984
 1163SOL    HW2 3617   1.753   1.751   1.044 -1.4631 -0.1550 -3.0298
 1164SOL     OW 3618   1.566   2.462   3.084 -0.4306  0.1222 -0.5445
 1164SOL    HW1 3619   1.651   2.431   3.051  0.0015  0.9932 -0.2943
 1164SOL    HW2 3620   1.503   2.435   3.017  0.3558  1.4238 -1.8769
 1165SOL     OW 3621   1.844   1.717   1.873  0.2748  0.5418  0.4211
 1165SOL    HW1 3622   1.868   1.731   1.782  2.3477  0.5682  0.9246
 1165SOL    HW2 3623   1.894   1.640   1.900 -1.1428 -0.1370  1.2585
 1166SOL     OW 3624   3.492   3.065   3.242 -0.4943 -0.2198  0.1032
 1166SOL    HW1 3625   3.514   3.138   3.184 -0.8825 -0.3719 -0.2479
 1166SOL    HW2 3626   3.438   3.007   3.187  0.0215 -0.8983  0.2993
 1167SOL     OW 3627   3.183   3.285   2.156  0.2668 -0.0412  0.1032
 1167SOL    HW1 3628   3.200   3.379   2.158 -0.2976  0.0882 -0.5602
 1167SOL    HW2 3629   3.248   3.247   2.215  1.0829  0.6763 -0.3104
 1168SOL     OW 3630   2.056   3.111   2.118  0.8901  0.2626 -0.2902
 1168SOL    HW1 3631   2.019   3.070   2.196  2.6275 -1.9998 -0.5539
 1168SOL    HW2 3632   2.113   3.179   2.152  0.2688  0.4899  0.3229
 1169SOL     OW 3633   3.522   0.797   1.536 -0.2609 -0.2255 -0.2006
 1169SOL    HW1 3634   3.594   0.734   1.533  0.7666  0.9229 -0.3900
 1169SOL    HW2 3635   3.514   0.829   1.446 -1.8158 -1.1895 -0.4391
 1170SOL     OW 3636   3.355   0.427   2.190 -0.3994  0.1238 -0.2617
 1170SOL    HW1 3637   3.391   0.388   2.269 -0.8539  2.1299  0.9846
 1170SOL    HW2 3638   3.431   0.438   2.132 -0.0206 -1.0563 -0.0228
 1171SOL     OW 3639   3.341   3.533   1.364  0.3505 -0.2690  0.0833
 1171SOL    HW1 3640   3.279   3.462   1.382  2.8348 -2.2135  1.7185
 1171SOL    HW2 3641   3.288   3.612   1.364 -2.1389 -1.8166  1.2619
 1172SOL     OW 3642   0.179   1.471   2.705 -0.4849  0.4680  0.5431
 1172SOL    HW1 3643   0.154   1.446   2.794  0.6901 -0.9618  0.5080
 1172SOL    HW2 3644   0.172   1.567   2.704 -1.4572  0.4417  1.8589
 1173SOL     OW 3645   0.023   2.881   2.503 -0.0539 -0.5540 -0.2643
 1173SOL    HW1 3646  -0.047   2.882   2.568  0.0521 -1.3236 -0.1288
 1173SOL    HW2 3647   0.103   2.871   2.553  0.3093  1.5993 -0.3178
 1174SOL     OW 3648   2.961   1.336   1.590  0.3610  1.3022 -0.1481
 1174SOL    HW1 3649   2.953   1.413   1.534  2.4326  0.9867 -0.9844
 1174SOL    HW2 3650   3.055   1.329   1.607  0.1536 -0.6805  0.4218
 1175SOL     OW 3651   1.890   0.625   1.006 -0.2429 -0.7163  0.2232
 1175SOL    HW1 3652   1.845   0.560   0.952 -0.8643  0.5053 -0.7755
 1175SOL    HW2 3653   1.872   0.708   0.964  0.2154  0.1665  1.6856
 1176SOL     OW 3654   0.838   1.728   1.312 -0.2417  0.3994  0.0993
 1176SOL    HW1 3655   0.799   1.687   1.235 -0.1696  2.1069 -0.8754
 1176SOL    HW2 3656   0.765   1.772   1.355 -0.6928 -2.0990  2.1537
 1177SOL     OW 3657   3.584   2.148   1.959  0.4925 -0.4449 -0.0823
 1177SOL    HW1 3658   3.661   2.097   1.932 -0.4606 -1.6685 -0.6068
 1177SOL    HW2 3659   3.556   2.107   2.041 -1.2835 -1.9626 -1.3660
 1178SOL     OW 3660   0.531   1.053   2.157 -0.6256 -0.2642 -0.6189
 1178SOL    HW1 3661   0.453   1.107   2.162 -0.7604 -0.5569  1.9137
 1178SOL    HW2 3662   0.544   1.020   2.247  1.1387 -2.0099 -1.4162
 1179SOL     OW 3663   1.966   2.119   0.137 -0.5290 -0.0360  0.1037
 1179SOL    HW1 3664   2.021   2.048   0.104  0.2772  0.8734 -0.5574
 1179SOL    HW2 3665   1.908   2.141   0.065  0.8361  1.5551 -0.5642
 1180SOL     OW 3666   3.019   0.123   3.190  0.3605 -0.4756  0.1800
 1180SOL    HW1 3667   2.979   0.036   3.184  1.7081 -1.3083  2.0108
 1180SOL    HW2 3668   3.093   0.120   3.130  0.9905 -0.9773  0.9616
 1181SOL     OW 3669   1.089   2.831   0.651  0.3065  0.0593  0.2962
 1181SOL    HW1 3670   1.025   2.882   0.601  1.9103 -0.8941 -2.9520
 1181SOL    HW2 3671   1.169   2.883   0.649  0.5745 -0.2592  1.5063
 1182SOL     OW 3672   0.635   0.299   0.394  0.0465  0.3268  0.4413
 1182SOL    HW1 3673   0.661   0.337   0.478  2.9120 -0.5826  0.0649
 1182SOL    HW2 3674   0.543   0.323   0.385 -0.6620 -0.2293  4.2172
 1183SOL     OW 3675   0.597   2.421   2.062 -0.5189  0.0088  0.1307
 1183SOL    HW1 3676   0.556   2.376   2.136  0.3922 -1.0699  0.0031
 1183SOL    HW2 3677   0.596   2.357   1.991 -0.8759  0.8411 -0.6233
 1184SOL     OW 3678   1.134   2.305   3.458  0.6463  0.7446  0.0639
 1184SOL    HW1 3679   1.050   2.334   3.422  1.5363 -0.0035 -2.8548
 1184SOL    HW2 3680   1.122   2.211   3.474  0.9792  0.5665 -0.6689
 1185SOL     OW 3681   2.645   2.061   1.225 -0.0091 -0.9770 -0.0868
 1185SOL    HW1 3682   2.613   2.125   1.162  0.3568 -1.3117 -0.6215
 1185SOL    HW2 3683   2.586   2.070   1.301  2.5850  3.0135  1.7432
 1186SOL     OW 3684   3.680   2.760   1.476 -0.0948  0.1095  0.1067
 1186SOL    HW1 3685   3.688   2.716   1.560  1.8680 -1.2286 -0.7282
 1186SOL    HW2 3686   3.669   2.690   1.412 -1.8439  1.1071 -0.7830
 1187SOL     OW 3687   0.362   0.097   2.049 -0.0593  0.3130 -0.5527
 1187SOL    HW1 3688   0.340   0.184   2.015 -2.5987 -0.0828 -0.0957
 1187SOL    HW2 3689   0.402   0.052   1.975 -1.0103  1.0620 -1.5570
 1188SOL     OW 3690   3.608   0.924   2.095 -0.0753  0.5164 -0.0732
 1188SOL    HW1 3691   3.572   0.871   2.024 -0.0952  2.4205 -1.5852
 1188SOL    HW2 3692   3.701   0.902   2.097  0.1280  1.1360 -1.4122
 1189SOL     OW 3693   2.274   0.291   0.690  0.4940 -0.2025  0.3202
 1189SOL    HW1 3694   2.214   0.218   0.705 -0.2883  0.5270  0.8540
 1189SOL    HW2 3695   2.272   0.305   0.596  0.3749 -0.6350  0.2566
 1190SOL     OW 3696   1.499   0.281   1.683  0.0617 -0.1629  0.2495
 1190SOL    HW1 3697   1.553   0.246   1.754  0.0957 -1.5800 -0.4360
 1190SOL    HW2 3698   1.442   0.208   1.658  0.6559 -0.0003 -1.7601
 1191SOL     OW 3699   0.736   2.865   2.597 -0.6977  0.4478 -0.0518
 1191SOL    HW1 3700   0.683   2.909   2.664 -2.0314  0.2492 -0.9518
 1191SOL    HW2 3701   0.809   2.926   2.582  0.1713  0.0765  2.2152
 1192SOL     OW 3702   2.661   3.141   2.822 -0.0396 -0.3198 -0.7707
 1192SOL    HW1 3703   2.605   3.203   2.777  0.7016  0.0543 -1.2059
 1192SOL    HW2 3704   2.601   3.079   2.864 -0.7551 -0.7223 -2.3412
 1193SOL     OW 3705   2.447   2.143   3.350  0.2766 -0.5143  0.5485
 1193SOL    HW1 3706   2.414   2.231   3.367  1.7788 -0.0130  1.1201
 1193SOL    HW2 3707   2.540   2.156   3.331  0.6049 -2.0104  0.9795
 1194SOL     OW 3708   2.027   2.914   0.691  0.4300  0.3393 -0.1875
 1194SOL    HW1 3709   1.992   2.827   0.675 -0.8157  0.8678 -0.4996
 1194SOL    HW2 3710   2.090   2.902   0.762 -0.7740 -0.5957  0.7729
 1195SOL     OW 3711   3.152   1.147   0.692  0.5806 -0.3131 -0.3984
 1195SOL    HW1 3712   3.221   1.089   0.659 -0.6261 -1.6770 -0.6185
 1195SOL    HW2 3713   3.162   1.228   0.642  0.9694 -1.1065 -1.6396
 1196SOL     OW 3714   1.778   0.228   1.216  0.0570  0.2734 -0.2006
 1196SOL    HW1 3715   1.780   0.228   1.312  0.8845  0.0138 -0.2104
 1196SOL    HW2 3716   1.857   0.275   1.190  0.5854 -0.8992 -0.7561
 1197SOL     OW 3717   1.903   3.173   0.935 -0.1335  0.6068 -0.8625
 1197SOL    HW1 3718   1.916   3.081   0.915  0.5930 -0.5717  3.7429
 1197SOL    HW2 3719   1.821   3.175   0.985 -0.3303  2.5370 -1.1894
 1198SOL     OW 3720   3.297   3.550   0.613 -0.2590  0.2196 -0.9450
 1198SOL    HW1 3721   3.310   3.629   0.560 -0.9301  1.0774  0.1241
 1198SOL    HW2 3722   3.247   3.580   0.689  0.7160 -0.9688  0.2090
 1199SOL     OW 3723   2.880   2.341   1.796  0.4212  0.0022 -0.6695
 1199SOL    HW1 3724   2.908   2.253   1.821  1.3581  0.0053 -1.6169
 1199SOL    HW2 3725   2.805   2.328   1.739  0.2658 -0.1495 -0.4331
 1200SOL     OW 3726   0.177   1.217   1.124 -0.3558  0.0145 -0.0279
 1200SOL    HW1 3727   0.173   1.273   1.201  3.0220 -2.6172  2.3837
 1200SOL    HW2 3728   0.123   1.141   1.147 -1.1770  0.1955 -1.2826
 1201SOL     OW 3729   0.396   0.972   1.893  0.7005 -0.4586  0.5644
 1201SOL    HW1 3730   0.448   0.990   1.972 -0.0345 -0.4967  1.0608
 1201SOL    HW2 3731   0.430   0.888   1.861  2.2838  0.4378 -0.2408
 1202SOL     OW 3732   3.286   3.034   2.385 -0.2914 -0.3761  0.0452
 1202SOL    HW1 3733   3.354   3.090   2.422 -0.1166 -1.9727  2.4142
 1202SOL    HW2 3734   3.322   3.005   2.301  0.8588  0.7378  0.1226
 1203SOL     OW 3735   1.140   1.600   0.449 -0.4797 -0.2387 -0.4507
 1203SOL    HW1 3736   1.107   1.634   0.367 -0.1476  1.3318  0.0421
 1203SOL    HW2 3737   1.065   1.603   0.509  0.0525  1.6555  0.1722
 1204SOL     OW 3738   3.157   1.745   3.048  0.0612 -0.0039 -0.0851
 1204SOL    HW1 3739   3.122   1.656   3.046 -0.5609  0.1864 -3.7993
 1204SOL    HW2 3740   3.232   1.743   2.989  0.1557  1.8995 -0.0791
 1205SOL     OW 3741   1.763   0.299   2.420 -0.8159 -0.1515 -0.0162
 1205SOL    HW1 3742   1.737   0.391   2.427 -0.1327  0.0183  0.3525
 1205SOL    HW2 3743   1.740   0.274   2.330  2.0517  1.3710 -1.3324
 1206SOL     OW 3744   0.439   3.542   1.644 -0.0392  0.4509  0.4806
 1206SOL    HW1 3745   0.396   3.568   1.562  1.5976  0.3195 -0.4530
 1206SOL    HW2 3746   0.480   3.622   1.676  1.6288 -0.0409 -0.3061
 1207SOL     OW 3747   1.481   0.361   0.707 -0.3448  0.7174  0.9292
 1207SOL    HW1 3748   1.516   0.441   0.746  2.0585  0.5080 -0.5522
 1207SOL    HW2 3749   1.416   0.330   0.769 -0.3928  3.1024  2.1778
 1208SOL     OW 3750   0.159   0.638   1.284 -0.0301 -0.3662  0.0848
 1208SOL    HW1 3751   0.112   0.573   1.231 -0.0655 -1.0963  0.9773
 1208SOL    HW2 3752   0.246   0.599   1.297 -0.3424 -0.6680  1.3820
 1209SOL     OW 3753   1.330   2.282   1.489  0.1069 -0.2728 -0.1839
 1209SOL    HW1 3754   1.326   2.264   1.583 -1.0186 -4.0598 -0.7545
 1209SOL    HW2 3755   1.305   2.374   1.481  1.5833  0.6098  3.2393
 1210SOL     OW 3756   2.338   0.089   2.996  0.2116 -0.4252 -0.5226
 1210SOL    HW1 3757   2.295   0.168   3.029  2.8128 -0.4470  3.5678
 1210SOL    HW2 3758   2.382   0.117   2.916 -0.1754  1.8526  0.0116
 1211SOL     OW 3759   1.080   3.137   1.953 -0.2042  0.1595  0.5657
 1211SOL    HW1 3760   0.993   3.176   1.950 -0.8382 -1.2321 -0.4122
 1211SOL    HW2 3761   1.065   3.043   1.941  1.4630 -0.0487 -0.3372
 1212SOL     OW 3762   3.506   1.796   3.300  0.7326 -0.2546  0.0115
 1212SOL    HW1 3763   3.567   1.855   3.344 -0.3786 -0.7550  2.3905
 1212SOL    HW2 3764   3.556   1.716   3.287  1.4009  0.2545 -0.6399
 1213SOL     OW 3765   1.275   1.492   0.891  0.0658  0.4026 -0.0363
 1213SOL    HW1 3766   1.179   1.488   0.884 -0.0349  2.1824 -0.0453
 1213SOL    HW2 3767   1.290   1.518   0.982  0.6963 -2.8526  0.9221
 1214SOL     OW 3768   1.215   0.154   1.537  0.3021 -0.0649 -0.0958
 1214SOL    HW1 3769   1.251   0.196   1.459 -0.7558  1.3481  0.1216
 1214SOL    HW2 3770   1.141   0.102   1.505  0.0510  0.2804 -0.0896
 1215SOL     OW 3771   3.433   0.227   1.463 -0.6195  0.0504  0.6133
 1215SOL    HW1 3772   3.368   0.162   1.438 -0.7157  0.1424  0.6230
 1215SOL    HW2 3773   3.440   0.284   1.386 -0.3867 -0.0894  0.5283
 1216SOL     OW 3774   1.569   2.482   3.338  0.1822 -0.6422 -1.0102
 1216SOL    HW1 3775   1.503   2.424   3.377  0.3334 -1.0655 -1.3742
 1216SOL    HW2 3776   1.564   2.464   3.244  1.0621 -0.9369 -1.0012
 1217SOL     OW 3777   3.575   1.109   0.560  0.5138 -0.0619  0.2449
 1217SOL    HW1 3778   3.582   1.180   0.496 -0.4483 -0.4104 -0.2713
 1217SOL    HW2 3779   3.661   1.067   0.559  0.5505  0.0131 -0.7450
 1218SOL     OW 3780   2.399   1.095   0.301 -0.0965 -0.4491 -0.2170
 1218SOL    HW1 3781   2.345   1.016   0.302 -0.7943 -0.0877  2.8913
 1218SOL    HW2 3782   2.465   1.079   0.369 -0.8459  1.9111  1.1862
 1219SOL     OW 3783   2.011   0.181   2.798 -0.7120 -0.2427  0.0610
 1219SOL    HW1 3784   2.041   0.092   2.816 -0.2166 -0.0704  0.1013
 1219SOL    HW2 3785   1.920   0.170   2.771 -0.5949 -0.7818 -0.1337
 1220SOL     OW 3786   3.652   0.569   0.945 -0.7826  0.1271 -0.2851
 1220SOL    HW1 3787   3.682   0.566   1.036  1.5287 -1.2108 -1.0180
 1220SOL    HW2 3788   3.560   0.544   0.949 -0.8193  0.4334  1.7111
 1221SOL     OW 3789   2.602   0.893   1.364  0.1960  0.4916  0.3139
 1221SOL    HW1 3790   2.556   0.977   1.365 -0.3805  0.2342  2.9599
 1221SOL    HW2 3791   2.536   0.831   1.331  0.3715  0.9131 -0.8824
 1222SOL     OW 3792   2.905   0.202   3.507  0.5262  0.4575 -0.5904
 1222SOL    HW1 3793   2.824   0.154   3.487  1.0920 -0.7770 -0.0253
 1222SOL    HW2 3794   2.959   0.139   3.554  1.5526  1.4835 -0.3517
 1223SOL     OW 3795   1.089   3.582   1.900 -0.2403  0.3962  0.1319
 1223SOL    HW1 3796   1.132   3.667   1.900  1.5423 -0.4338 -0.7332
 1223SOL    HW2 3797   1.001   3.599   1.867 -0.0059  1.9282  0.2290
 1224SOL     OW 3798   1.615   0.612   0.770 -0.6595  0.1729 -0.0961
 1224SOL    HW1 3799   1.654   0.693   0.802 -0.0696 -0.1787  0.1032
 1224SOL    HW2 3800   1.599   0.561   0.850 -0.2836 -0.2240 -0.2683
 1225SOL     OW 3801   1.133   0.383   0.790 -0.7344 -0.2590  0.8583
 1225SOL    HW1 3802   1.193   0.364   0.863  1.5630 -1.1633 -1.1251
 1225SOL    HW2 3803   1.108   0.297   0.756 -1.0870  0.1543  0.0509
 1226SOL     OW 3804   0.624   0.745   2.145  0.6278 -0.7426  0.3649
 1226SOL    HW1 3805   0.688   0.705   2.086 -1.0979 -1.5763 -1.0170
 1226SOL    HW2 3806   0.637   0.839   2.133  0.8558 -0.9010 -0.7372
 1227SOL     OW 3807   2.783   0.658   0.636 -0.1400 -0.4698 -0.3884
 1227SOL    HW1 3808   2.762   0.698   0.551  0.2778 -0.4179 -0.4671
 1227SOL    HW2 3809   2.875   0.633   0.629  0.0334 -0.0152  0.2257
 1228SOL     OW 3810   2.951   2.846   1.704  0.1250 -0.2607  0.1255
 1228SOL    HW1 3811   3.040   2.879   1.697  0.2337 -0.5802  0.0026
 1228SOL    HW2 3812   2.959   2.752   1.692 -0.2803 -0.2442 -0.3033
 1229SOL     OW 3813   3.412   3.381   0.032 -0.3584  0.2083 -0.3781
 1229SOL    HW1 3814   3.502   3.383  -0.002 -0.4672 -0.6842 -0.7692
 1229SOL    HW2 3815   3.369   3.314  -0.022 -0.6272 -1.0406  1.3215
 1230SOL     OW 3816   3.337   1.290   2.647  0.3413 -0.6912  0.1100
 1230SOL    HW1 3817   3.329   1.248   2.562 -0.2122  1.1925 -0.8106
 1230SOL    HW2 3818   3.398   1.234   2.696 -0.1278 -2.3543 -1.1337
 1231SOL     OW 3819   2.164   1.976   3.648  0.1468  0.0476 -0.0321
 1231SOL    HW1 3820   2.238   1.945   3.596 -0.1643 -0.2946 -0.2776
 1231SOL    HW2 3821   2.104   2.015   3.584  0.0558  0.2087  0.1499
 1232SOL     OW 3822   3.262   1.824   1.408 -0.5731 -0.2036  0.1864
 1232SOL    HW1 3823   3.315   1.782   1.476 -0.9317 -2.0064 -0.5887
 1232SOL    HW2 3824   3.189   1.863   1.455 -0.1690 -0.3633  0.9574
 1233SOL     OW 3825   0.158   3.647   3.158 -0.0246 -0.2706  0.0549
 1233SOL    HW1 3826   0.224   3.630   3.226 -0.4764 -0.3821  0.4691
 1233SOL    HW2 3827   0.102   3.570   3.159 -0.6883  0.2085  0.3162
 1234SOL     OW 3828   1.843   2.292   1.961  0.3067 -0.2964 -0.5745
 1234SOL    HW1 3829   1.932   2.294   1.995 -0.1892 -0.9700  0.8569
 1234SOL    HW2 3830   1.846   2.229   1.889  1.0600 -0.0054 -0.8064
 1235SOL     OW 3831   0.351   0.798   0.508  0.0363 -0.5180  0.5676
 1235SOL    HW1 3832   0.283   0.824   0.570 -0.2315  0.3102 -0.0525
 1235SOL    HW2 3833   0.367   0.706   0.527 -1.6774 -0.8874  0.3444
 1236SOL     OW 3834   1.057   1.102   2.836 -0.1602  0.2184  0.8917
 1236SOL    HW1 3835   1.119   1.125   2.906  0.3633  0.7509  0.2603
 1236SOL    HW2 3836   1.063   1.174   2.774 -0.5121 -0.3268  0.2166
 1237SOL     OW 3837   1.257   0.642   1.356 -0.5215  0.4329 -0.0420
 1237SOL    HW1 3838   1.341   0.607   1.387  0.0125 -2.0883 -3.6762
 1237SOL    HW2 3839   1.279   0.725   1.314 -0.4582  1.3794  1.7879
 1238SOL     OW 3840   0.207   3.588   2.880 -0.5137 -0.0055 -0.6081
 1238SOL    HW1 3841   0.240   3.646   2.948  0.6683  0.0913 -1.2368
 1238SOL    HW2 3842   0.169   3.514   2.927  0.5038 -0.0558  0.1606
 1239SOL     OW 3843   3.681   2.233   2.359  0.0269  0.1468 -0.0207
 1239SOL    HW1 3844   3.650   2.315   2.322  0.8749  0.1186 -0.8115
 1239SOL    HW2 3845   3.627   2.220   2.438  0.6538  2.0253  0.7574
 1240SOL     OW 3846   1.088   3.037   0.140  0.3667 -0.3461  0.4001
 1240SOL    HW1 3847   1.051   3.118   0.175  0.8218 -0.0814  0.2676
 1240SOL    HW2 3848   1.129   3.063   0.057 -0.1982 -0.8586 -0.0498
 1241SOL     OW 3849   1.546   3.184   1.621  0.4667  0.7573  0.3922
 1241SOL    HW1 3850   1.575   3.103   1.579  0.1963  0.3763  0.9228
 1241SOL    HW2 3851   1.457   3.165   1.651 -0.4609  1.9844 -1.4171
 1242SOL     OW 3852   2.156   3.008   0.336 -0.0666 -0.0450 -0.3761
 1242SOL    HW1 3853   2.162   2.971   0.248  0.3545 -1.6226  0.2830
 1242SOL    HW2 3854   2.120   2.938   0.390  2.2242 -0.1111  1.2295
 1243SOL     OW 3855   1.937   0.734   3.712  0.3281  0.1268 -0.1349
 1243SOL    HW1 3856   1.966   0.646   3.735  0.3419  0.1657 -0.0041
 1243SOL    HW2 3857   1.842   0.727   3.702  0.0241  0.5645  2.0447
 1244SOL     OW 3858   1.081   1.325   1.909 -0.1324  0.3154 -0.3571
 1244SOL    HW1 3859   1.089   1.340   2.004  0.1991  0.1170 -0.3538
 1244SOL    HW2 3860   1.112   1.236   1.896 -0.4528  0.2414 -0.6176
 1245SOL     OW 3861   1.108   1.192   2.331 -0.7404  0.2732  0.2859
 1245SOL    HW1 3862   1.054   1.176   2.409  1.4825 -0.2568  1.8327
 1245SOL    HW2 3863   1.171   1.121   2.331  1.1189  1.8332 -0.3458
 1246SOL     OW 3864   0.905   1.953   1.524 -0.5938 -0.2704  0.0991
 1246SOL    HW1 3865   0.994   1.986   1.511 -0.7134  0.1604  0.3553
 1246SOL    HW2 3866   0.866   1.956   1.437 -0.7412  0.6974  0.1806
 1247SOL     OW 3867   0.127   1.370   1.358  0.1439 -0.1397  0.2817
 1247SOL    HW1 3868   0.085   1.324   1.430  0.7721  0.8051  1.2805
 1247SOL    HW2 3869   0.202   1.415   1.398  1.2794 -0.6410 -1.1877
 1248SOL     OW 3870   0.348   2.108   2.039  0.7711 -0.4699 -0.3600
 1248SOL    HW1 3871   0.321   2.027   2.083 -2.7819  0.0818 -1.1691
 1248SOL    HW2 3872   0.294   2.175   2.080  2.4538  1.2496 -0.8429
 1249SOL     OW 3873   0.920   0.203   1.988  0.0928  0.2293 -0.0832
 1249SOL    HW1 3874   0.843   0.150   2.011  1.3886 -0.7034  2.5557
 1249SOL    HW2 3875   0.938   0.182   1.897 -1.9257 -0.6050 -0.3497
 1250SOL     OW 3876   2.372   0.387   1.881  0.0448 -0.0722  0.5364
 1250SOL    HW1 3877   2.303   0.446   1.850 -1.2682 -1.9308 -0.2514
 1250SOL    HW2 3878   2.336   0.300   1.868  2.6329 -1.1183 -0.0029
 1251SOL     OW 3879   1.832   2.079   1.780  0.2995  0.4239  0.6213
 1251SOL    HW1 3880   1.905   2.047   1.727  0.9276  1.6048  0.7436
 1251SOL    HW2 3881   1.761   2.018   1.763  1.5912 -1.3240  1.2344
 1252SOL     OW 3882   0.660   1.835   0.809  0.3319 -0.5063  0.0277
 1252SOL    HW1 3883   0.603   1.887   0.865 -0.4453 -0.0543 -1.1410
 1252SOL    HW2 3884   0.653   1.746   0.844  1.2226  0.0280  1.6800
 1253SOL     OW 3885   3.692   1.909   0.297  0.0217  0.5170  0.5712
 1253SOL    HW1 3886   3.632   1.982   0.280 -0.8566 -0.3225 -0.0059
 1253SOL    HW2 3887   3.674   1.845   0.228 -0.6097 -1.1081  2.1553
 1254SOL     OW 3888   0.312   1.488   1.510  0.6364 -0.1420 -0.1307
 1254SOL    HW1 3889   0.384   1.464   1.568  0.2243  0.3273  0.5782
 1254SOL    HW2 3890   0.302   1.582   1.521 -1.1547 -0.4233  1.0330
 1255SOL     OW 3891   2.190   3.000   1.904  0.5818  0.2897 -0.0625
 1255SOL    HW1 3892   2.165   3.067   1.968  2.2115  1.0106 -0.1225
 1255SOL    HW2 3893   2.245   3.047   1.841  2.6752 -1.3030  0.5015
 1256SOL     OW 3894   1.366   2.004   1.862 -0.5060  0.5917 -0.0473
 1256SOL    HW1 3895   1.357   2.041   1.950  0.1951  0.3912  0.1171
 1256SOL    HW2 3896   1.420   2.067   1.814 -2.0290  1.3845 -0.7660
 1257SOL     OW 3897   2.557   1.779   0.701 -0.0481 -0.1205 -0.1722
 1257SOL    HW1 3898   2.485   1.806   0.645  0.5134 -1.3847 -1.5487
 1257SOL    HW2 3899   2.614   1.856   0.704  0.5039 -0.3803 -2.3577
 1258SOL     OW 3900   0.775   0.842   2.880 -0.0416  0.1396 -0.6190
 1258SOL    HW1 3901   0.842   0.786   2.919  0.9618  0.2309 -2.1395
 1258SOL    HW2 3902   0.804   0.931   2.902 -0.6584  0.1459  0.2402
 1259SOL     OW 3903   3.077   3.574   3.680 -0.5074 -0.7810 -0.0966
 1259SOL    HW1 3904   3.019   3.562   3.604  0.5473 -1.2435 -0.8585
 1259SOL    HW2 3905   3.042   3.651   3.725 -0.0019  0.7876 -2.1963
 1260SOL     OW 3906   2.967   2.727   1.224 -0.0103 -0.2899 -0.6653
 1260SOL    HW1 3907   2.922   2.759   1.146  0.5689 -0.6696 -1.1567
 1260SOL    HW2 3908   3.060   2.735   1.204  0.1501 -1.6648 -0.5457
 1261SOL     OW 3909   0.653   2.082   3.138 -0.1240  0.2874  0.7220
 1261SOL    HW1 3910   0.651   2.060   3.045  2.1543 -0.0886  0.7186
 1261SOL    HW2 3911   0.621   2.172   3.142  1.4534  0.9483 -0.6681
 1262SOL     OW 3912   0.276   0.666   0.827 -0.1506  0.1709  0.0900
 1262SOL    HW1 3913   0.186   0.642   0.846 -0.9880  1.9279 -1.4204
 1262SOL    HW2 3914   0.286   0.754   0.865  0.9540 -0.0101  0.2636
 1263SOL     OW 3915   1.117   2.040   0.758  0.1547  0.6019 -0.0372
 1263SOL    HW1 3916   1.081   1.951   0.752  1.6079 -0.0123 -0.1348
 1263SOL    HW2 3917   1.199   2.036   0.709  0.6412  1.7857  0.6252
 1264SOL     OW 3918   1.513   0.935   0.557  0.5475 -0.0049  0.3104
 1264SOL    HW1 3919   1.481   0.942   0.647  1.7066  0.6961  0.6843
 1264SOL    HW2 3920   1.509   1.025   0.523  1.3607 -0.0450  0.0981
 1265SOL     OW 3921   3.122   3.552   1.958  0.6924 -0.0111  0.1112
 1265SOL    HW1 3922   3.040   3.562   2.008  1.2066  0.7868  0.8199
 1265SOL    HW2 3923   3.183   3.611   2.001  2.1210 -1.7502  0.6046
 1266SOL     OW 3924   1.373   1.953   3.003 -0.3725 -0.0803  0.0414
 1266SOL    HW1 3925   1.372   2.042   3.038  0.7229 -0.1694  0.3500
 1266SOL    HW2 3926   1.285   1.920   3.018 -1.3596  1.5581 -1.6945
 1267SOL     OW 3927   3.398   2.400   2.136  0.1180 -0.4300 -0.0275
 1267SOL    HW1 3928   3.429   2.489   2.125  1.8809 -1.0289 -0.1606
 1267SOL    HW2 3929   3.333   2.388   2.066 -0.7425  0.9668  0.4886
 1268SOL     OW 3930   2.201   0.800   2.526 -0.4602  0.3445 -0.2153
 1268SOL    HW1 3931   2.122   0.759   2.492 -0.4733  0.7928 -0.7456
 1268SOL    HW2 3932   2.272   0.740   2.503 -0.4193  0.8046 -1.3905
 1269SOL     OW 3933   0.807   0.753   0.799 -0.1116  0.2797 -0.1028
 1269SOL    HW1 3934   0.832   0.671   0.842 -0.7554  1.2974  2.4197
 1269SOL    HW2 3935   0.883   0.811   0.811 -0.6667  0.8887  0.6057
 1270SOL     OW 3936   1.050   0.538   3.611  0.1875 -0.1495 -0.4158
 1270SOL    HW1 3937   1.110   0.476   3.570  0.4818 -0.2095  0.0991
 1270SOL    HW2 3938   1.003   0.578   3.538 -1.3492 -2.3029 -0.7171
 1271SOL     OW 3939   2.636   1.720   1.862  0.1605  0.8186 -0.0368
 1271SOL    HW1 3940   2.718   1.765   1.844 -0.3826  1.5220 -0.9005
 1271SOL    HW2 3941   2.652   1.669   1.941  1.4480  0.8627 -0.2551
 1272SOL     OW 3942   3.180   2.153   2.886 -0.2653 -0.2442  0.3323
 1272SOL    HW1 3943   3.265   2.182   2.918  0.1455 -1.2750  0.2097
 1272SOL    HW2 3944   3.180   2.058   2.899 -1.9352 -0.1141  1.5848
 1273SOL     OW 3945   1.309   2.634   0.519 -0.0959  0.0935  0.3237
 1273SOL    HW1 3946   1.311   2.652   0.613  2.3520 -2.1600  0.8450
 1273SOL    HW2 3947   1.377   2.691   0.483 -1.9250  1.9409 -0.4014
 1274SOL     OW 3948   1.315   2.565   1.601  0.2133 -0.2933 -0.1590
 1274SOL    HW1 3949   1.304   2.654   1.634 -1.2990 -0.5576  0.1228
 1274SOL    HW2 3950   1.396   2.534   1.643 -1.4580 -0.5280  3.2703
 1275SOL     OW 3951   0.218   1.506   1.087 -0.3465  0.1835  0.0620
 1275SOL    HW1 3952   0.214   1.443   1.015  2.3289  0.2690 -0.2404
 1275SOL    HW2 3953   0.230   1.453   1.166 -1.7113  0.1836  0.3052
 1276SOL     OW 3954   1.199   1.308   0.242  0.6746  0.0657 -0.1315
 1276SOL    HW1 3955   1.238   1.315   0.155 -1.4958  0.7455 -1.1183
 1276SOL    HW2 3956   1.117   1.356   0.235  0.6766  0.5633  2.4683
 1277SOL     OW 3957   1.378   3.363   0.586  0.2818  0.8756  0.0363
 1277SOL    HW1 3958   1.302   3.328   0.632  2.0011 -1.0647  1.5896
 1277SOL    HW2 3959   1.384   3.454   0.615 -0.1496  0.4078  1.7107
 1278SOL     OW 3960   2.433   1.290   2.205 -0.0007 -0.0770  0.1230
 1278SOL    HW1 3961   2.414   1.239   2.283  1.4405  0.5000  0.8923
 1278SOL    HW2 3962   2.445   1.225   2.136  3.2044 -0.9864  1.3686
 1279SOL     OW 3963   1.039   1.594   2.073  0.5303 -0.1683  0.0949
 1279SOL    HW1 3964   1.079   1.681   2.072 -1.7435  0.9813  0.2931
 1279SOL    HW2 3965   1.063   1.557   2.157  0.0545  1.0700  0.8050
 1280SOL     OW 3966   1.343   2.884   0.203  0.3831  0.2699 -0.3879
 1280SOL    HW1 3967   1.284   2.958   0.189  0.1631  0.3042  0.6801
 1280SOL    HW2 3968   1.313   2.818   0.141  0.3281  0.9134 -1.0693
 1281SOL     OW 3969   0.346   1.747   0.402  0.0799  0.0354  0.0574
 1281SOL    HW1 3970   0.334   1.654   0.418  0.1588  0.0465  0.1836
 1281SOL    HW2 3971   0.416   1.773   0.462  1.2467 -0.1717 -1.1708
 1282SOL     OW 3972   1.346   0.601   1.087  0.2452 -0.1232  0.0175
 1282SOL    HW1 3973   1.281   0.614   1.157 -0.4444 -1.8126 -0.2527
 1282SOL    HW2 3974   1.428   0.632   1.124 -0.2929 -0.1079  1.2393
 1283SOL     OW 3975   0.564   3.528   3.338  0.1416  0.2921 -0.4150
 1283SOL    HW1 3976   0.634   3.532   3.403 -0.4277  2.9755  0.1682
 1283SOL    HW2 3977   0.593   3.588   3.269 -0.5797 -0.2891 -1.2446
 1284SOL     OW 3978   0.699   0.411   3.303 -0.2972 -0.1262 -0.0864
 1284SOL    HW1 3979   0.674   0.361   3.225  0.8014  0.7923 -1.0459
 1284SOL    HW2 3980   0.729   0.344   3.365  2.8509 -0.6412 -1.9827
 1285SOL     OW 3981   0.821   3.266   1.873 -0.1805 -0.0929 -0.3564
 1285SOL    HW1 3982   0.756   3.316   1.824  0.3358 -0.5168 -1.4921
 1285SOL    HW2 3983   0.847   3.325   1.944 -1.7123  0.1187  0.0682
 1286SOL     OW 3984   1.987   2.243   0.793  0.0355  0.1617  0.5190
 1286SOL    HW1 3985   1.961   2.152   0.807 -1.5066  0.2433 -1.4597
 1286SOL    HW2 3986   1.939   2.270   0.715 -0.9804  3.2475  2.0496
 1287SOL     OW 3987   2.896   3.205   2.087 -0.5245  0.1080  0.1498
 1287SOL    HW1 3988   2.987   3.234   2.083  0.1561 -2.0366 -1.6738
 1287SOL    HW2 3989   2.853   3.268   2.145  2.0186  1.3865  0.7589
 1288SOL     OW 3990   1.597   2.684   1.728 -0.3157 -0.4344 -0.2338
 1288SOL    HW1 3991   1.633   2.611   1.779 -0.5275 -0.9102 -0.7632
 1288SOL    HW2 3992   1.533   2.724   1.787  0.3593 -0.1836  0.3497
 1289SOL     OW 3993   0.281   0.773   3.616  0.1268 -0.4008 -0.2357
 1289SOL    HW1 3994   0.244   0.851   3.574 -1.1489 -0.8201  0.0634
 1289SOL    HW2 3995   0.339   0.735   3.549  1.1444  1.0431 -0.2157
 1290SOL     OW 3996   0.640   1.043   0.346  0.0473  0.7906  0.2497
 1290SOL    HW1 3997   0.658   0.967   0.292  1.1559  1.1180  0.1240
 1290SOL    HW2 3998   0.550   1.067   0.326 -0.8514 -1.3986  1.4452
 1291SOL     OW 3999   0.524   0.092   1.347 -0.3071 -0.2691 -0.4534
 1291SOL    HW1 4000   0.457   0.160   1.353  0.3896  0.3246  1.2642
 1291SOL    HW2 4001   0.486   0.016   1.390 -0.1740 -0.1883 -0.1936
 1292SOL     OW 4002   1.261   2.454   3.221  0.1090  0.8452  0.2911
 1292SOL    HW1 4003   1.281   2.545   3.198  2.7917  0.8011  2.1313
 1292SOL    HW2 4004   1.279   2.448   3.314  1.5953 -1.9722 -0.1028
 1293SOL     OW 4005   0.145   3.304   0.781 -0.7422 -0.3134  0.0194
 1293SOL    HW1 4006   0.235   3.311   0.812 -0.2314 -0.4134 -1.3597
 1293SOL    HW2 4007   0.139   3.216   0.744 -1.2671 -0.1489 -0.3036
 1294SOL     OW 4008   1.763   0.778   3.501 -1.1062 -0.1196  0.2957
 1294SOL    HW1 4009   1.859   0.778   3.502 -1.0854  0.7435 -0.6076
 1294SOL    HW2 4010   1.739   0.831   3.425 -2.3058 -1.0033  0.0223
 1295SOL     OW 4011   2.650   0.573   3.178  0.5660 -0.2925 -0.0562
 1295SOL    HW1 4012   2.573   0.616   3.213  0.1379  0.8173 -2.1848
 1295SOL    HW2 4013   2.616   0.506   3.119  1.1948 -0.0623 -0.7077
 1296SOL     OW 4014   1.860   0.694   2.914  0.4744  0.3514 -0.2474
 1296SOL    HW1 4015   1.846   0.774   2.863  1.1219 -0.3508 -1.5900
 1296SOL    HW2 4016   1.777   0.646   2.906  0.3081  0.5943  0.0137
 1297SOL     OW 4017   1.188   1.451   1.480  0.1297  0.3643  0.2586
 1297SOL    HW1 4018   1.149   1.482   1.561 -0.4589 -0.0199  0.1312
 1297SOL    HW2 4019   1.282   1.469   1.489 -0.1482  1.8874  0.3011
 1298SOL     OW 4020   0.233   0.909   0.960 -0.2330  0.1807 -0.5037
 1298SOL    HW1 4021   0.176   0.985   0.948  0.4017  0.9467  1.0412
 1298SOL    HW2 4022   0.256   0.911   1.053 -0.0995 -1.8453 -0.4587
 1299SOL     OW 4023   1.318   1.820   1.649  0.3926 -0.5116 -0.1120
 1299SOL    HW1 4024   1.241   1.763   1.645 -0.0735  0.0276  0.6452
 1299SOL    HW2 4025   1.308   1.866   1.733  0.4433  1.0948 -0.9432
 1300SOL     OW 4026   1.554   2.073   0.698 -0.0674  0.0982 -0.3025
 1300SOL    HW1 4027   1.540   2.109   0.611  1.7663  0.6377 -0.4232
 1300SOL    HW2 4028   1.510   1.987   0.696 -0.2413  0.1969 -1.6727
 1301SOL     OW 4029   3.294   0.934   3.327  0.5592  0.7068 -0.7513
 1301SOL    HW1 4030   3.237   0.865   3.358 -1.1688  2.6135  0.5768
 1301SOL    HW2 4031   3.382   0.895   3.327 -0.0847 -0.9466  1.5921
 1302SOL     OW 4032   2.621   3.440   0.752  0.0280 -0.5603  0.0414
 1302SOL    HW1 4033   2.605   3.461   0.660  0.1504  0.8936  0.3238
 1302SOL    HW2 4034   2.707   3.479   0.770 -0.0989 -0.6253  0.8244
 1303SOL     OW 4035   3.194   1.256   3.618  0.0615 -0.3485  0.4546
 1303SOL    HW1 4036   3.108   1.291   3.639 -0.0942  0.2345 -1.0723
 1303SOL    HW2 4037   3.194   1.244   3.523  1.3069 -1.3088  0.5408
 1304SOL     OW 4038   3.688   0.270   2.877 -0.0704  0.1578  0.2127
 1304SOL    HW1 4039   3.723   0.356   2.899  2.1659 -0.8027  0.7458
 1304SOL    HW2 4040   3.710   0.215   2.952  0.9929 -1.4591 -1.1816
 1305SOL     OW 4041   0.893   1.540   3.492  0.0793  0.3479 -0.0166
 1305SOL    HW1 4042   0.986   1.547   3.475  0.0684  2.2389  0.5083
 1305SOL    HW2 4043   0.876   1.446   3.494  2.3895 -0.1340  2.1004
 1306SOL     OW 4044   3.518   1.817   2.444 -0.6246  0.3113  0.3163
 1306SOL    HW1 4045   3.476   1.883   2.499  0.9532  2.6095 -1.0745
 1306SOL    HW2 4046   3.608   1.847   2.433  0.0775 -1.9013 -0.7139
 1307SOL     OW 4047   1.183   0.563   2.169  0.0769 -0.9575 -0.6236
 1307SOL    HW1 4048   1.102   0.575   2.218 -0.2517 -2.2597 -0.7950
 1307SOL    HW2 4049   1.173   0.477   2.127  2.5279 -2.3273  1.3402
 1308SOL     OW 4050   1.620   1.491   1.196  0.0354 -0.4339 -0.7403
 1308SOL    HW1 4051   1.663   1.426   1.251  0.9772  0.3306 -0.5441
 1308SOL    HW2 4052   1.596   1.443   1.117 -0.9541 -1.4393  0.1407
 1309SOL     OW 4053   2.710   2.597   1.818 -0.0296  0.4514 -0.1616
 1309SOL    HW1 4054   2.679   2.532   1.880 -1.0158  0.2274 -0.8784
 1309SOL    HW2 4055   2.802   2.575   1.804  0.4961  1.0807  1.9227
 1310SOL     OW 4056   1.665   2.237   0.914 -0.2620 -0.9012 -0.2010
 1310SOL    HW1 4057   1.674   2.175   0.986  0.7214 -0.4307  0.0991
 1310SOL    HW2 4058   1.624   2.187   0.844  0.0330 -1.7379  0.2147
 1311SOL     OW 4059   0.182   1.668   0.740 -0.1528 -0.0070 -0.3253
 1311SOL    HW1 4060   0.206   1.611   0.667 -1.0658  0.4470 -1.0055
 1311SOL    HW2 4061   0.115   1.727   0.703 -2.5088 -1.3572  1.4864
 1312SOL     OW 4062   3.288   1.062   1.177 -0.6731  0.2900 -0.0521
 1312SOL    HW1 4063   3.344   1.099   1.244  0.3817 -1.1931 -0.0654
 1312SOL    HW2 4064   3.348   1.027   1.111 -1.5534 -1.7826  0.1599
 1313SOL     OW 4065   3.449   2.061   0.626  0.4477  0.3709 -0.3587
 1313SOL    HW1 4066   3.467   1.991   0.688 -0.3310  0.8096  0.3796
 1313SOL    HW2 4067   3.496   2.137   0.662 -0.7261  0.8543  0.1846
 1314SOL     OW 4068   2.603   3.637   2.863 -0.3553  0.0465  0.2006
 1314SOL    HW1 4069   2.513   3.617   2.889 -0.3607  1.1525  1.1392
 1314SOL    HW2 4070   2.653   3.558   2.884 -0.9536 -0.2515  0.5198
 1315SOL     OW 4071   0.341   1.376   0.836 -0.0955 -0.0600 -0.1432
 1315SOL    HW1 4072   0.358   1.305   0.774 -3.4184 -1.4021  0.2870
 1315SOL    HW2 4073   0.287   1.438   0.786 -1.2800 -0.2741  0.8177
 1316SOL     OW 4074   3.302   2.881   1.976  0.1253 -0.3560 -0.3643
 1316SOL    HW1 4075   3.224   2.853   1.928 -0.5362  0.0201  0.4657
 1316SOL    HW2 4076   3.287   2.850   2.066 -0.6938  2.6610  0.6353
 1317SOL     OW 4077   0.678   1.476   0.519  0.1239  0.1374 -0.1249
 1317SOL    HW1 4078   0.612   1.434   0.574 -0.1327  1.5875  0.7242
 1317SOL    HW2 4079   0.722   1.403   0.475 -1.4291 -0.9100 -0.0333
 1318SOL     OW 4080   2.405   1.310   1.636 -0.0466 -0.0862  0.1651
 1318SOL    HW1 4081   2.476   1.263   1.593  1.2144  1.2902  0.6409
 1318SOL    HW2 4082   2.442   1.396   1.657 -1.1721 -0.0525  2.3256
 1319SOL     OW 4083   2.608   2.633   3.554  0.0050  0.1890  0.0041
 1319SOL    HW1 4084   2.530   2.589   3.586 -0.0616 -0.2674 -0.7807
 1319SOL    HW2 4085   2.663   2.563   3.519  1.0944  0.4086  1.1833
 1320SOL     OW 4086   0.803   0.503   2.624 -0.0771 -0.2872 -0.3326
 1320SOL    HW1 4087   0.794   0.596   2.603  0.4972 -0.0639  0.3744
 1320SOL    HW2 4088   0.897   0.487   2.621 -0.0263 -0.4213  1.3059
 1321SOL     OW 4089   0.501   2.302   2.557 -0.3503  0.3733  0.1731
 1321SOL    HW1 4090   0.526   2.394   2.556  1.0504  0.0093 -1.0896
 1321SOL    HW2 4091   0.562   2.261   2.619  0.9967 -0.1781 -1.4542
 1322SOL     OW 4092   0.539   0.373   1.849 -0.0995  0.0420  0.7321
 1322SOL    HW1 4093   0.445   0.382   1.833  0.0794  0.4239 -0.1755
 1322SOL    HW2 4094   0.554   0.417   1.933 -0.8308 -0.6127  1.2197
 1323SOL     OW 4095   1.888   1.519   0.800 -0.4430 -0.2672  0.7513
 1323SOL    HW1 4096   1.961   1.543   0.743 -0.2800  3.3280  2.2088
 1323SOL    HW2 4097   1.809   1.545   0.752 -0.6423 -1.4643  0.3823
 1324SOL     OW 4098   0.804   0.438   2.082  0.4658  0.6802 -0.5898
 1324SOL    HW1 4099   0.724   0.403   2.121  0.6970  1.2567  0.4244
 1324SOL    HW2 4100   0.851   0.361   2.051  0.2022  0.2156  0.1376
 1325SOL     OW 4101   2.157   1.412   2.726  0.1443  0.0577 -0.2043
 1325SOL    HW1 4102   2.130   1.320   2.733 -1.2159  0.2296 -2.3476
 1325SOL    HW2 4103   2.117   1.443   2.645 -1.0569  3.1341  1.4059
 1326SOL     OW 4104   1.805   1.015   1.698 -0.3699  0.0782  0.0429
 1326SOL    HW1 4105   1.743   1.058   1.639 -2.1405 -1.0276  1.0121
 1326SOL    HW2 4106   1.810   0.925   1.667  0.5899  0.0954  0.1223
 1327SOL     OW 4107   2.527   0.400   2.983 -0.7287  0.4713  0.1729
 1327SOL    HW1 4108   2.460   0.371   2.921 -0.5945 -0.6657  0.5357
 1327SOL    HW2 4109   2.605   0.348   2.961 -0.9899 -0.7778  1.9609
 1328SOL     OW 4110   0.775   2.706   3.626  0.7239  0.0421 -0.4668
 1328SOL    HW1 4111   0.848   2.766   3.611  1.4403 -0.8121 -0.4963
 1328SOL    HW2 4112   0.812   2.637   3.681 -0.5804  0.6024  1.2032
 1329SOL     OW 4113   0.848   1.866   2.548  0.0783 -0.1204  0.4883
 1329SOL    HW1 4114   0.894   1.902   2.624 -3.1924  0.1972  2.5161
 1329SOL    HW2 4115   0.844   1.772   2.564 -0.4845 -0.0728  0.6367
 1330SOL     OW 4116   3.575   1.112   2.993 -0.8562  0.8851 -0.2012
 1330SOL    HW1 4117   3.589   1.150   2.907  0.1619  3.2752  0.9280
 1330SOL    HW2 4118   3.531   1.180   3.043  0.4067  0.3747  1.7441
 1331SOL     OW 4119   1.980   1.932   0.911 -0.1025 -0.2461  0.2717
 1331SOL    HW1 4120   1.931   1.866   0.960  1.1681 -0.6774  1.0096
 1331SOL    HW2 4121   2.023   1.985   0.978 -1.5775  1.7638 -0.2727
 1332SOL     OW 4122   2.128   1.268   1.576 -0.5280 -0.0070  0.0072
 1332SOL    HW1 4123   2.100   1.259   1.485  0.6721  0.6563 -0.4546
 1332SOL    HW2 4124   2.223   1.282   1.570 -0.2405 -1.1535  1.4351
 1333SOL     OW 4125   0.364   0.077   0.483  0.0107 -0.1464  0.0137
 1333SOL    HW1 4126   0.404   0.041   0.563  1.8162  2.3778  0.3596
 1333SOL    HW2 4127   0.270   0.077   0.501  0.2993 -0.5900  1.7044
 1334SOL     OW 4128   3.431   2.111   3.606 -0.1666 -0.2655 -0.5975
 1334SOL    HW1 4129   3.351   2.058   3.599 -1.9267  2.1413 -0.1775
 1334SOL    HW2 4130   3.414   2.185   3.547  2.4939 -0.4600 -1.7268
 1335SOL     OW 4131   2.448   0.327   1.543 -0.1156  0.0175  0.2260
 1335SOL    HW1 4132   2.392   0.347   1.468  1.8482 -0.2990 -1.4262
 1335SOL    HW2 4133   2.449   0.408   1.595  0.1414  0.9891 -1.2331
 1336SOL     OW 4134   0.946   3.014   2.520  0.5222  0.5065  0.4505
 1336SOL    HW1 4135   1.005   3.046   2.588  1.0913  0.9098 -0.2165
 1336SOL    HW2 4136   1.004   2.984   2.450 -0.0551  1.5854 -0.5270
 1337SOL     OW 4137   2.885   1.029   3.566 -0.1314 -0.0308  0.1599
 1337SOL    HW1 4138   2.805   1.081   3.556 -0.0725  0.4678  1.9209
 1337SOL    HW2 4139   2.854   0.939   3.573 -0.5045  0.1228  0.5040
 1338SOL     OW 4140   0.556   1.825   2.553 -0.0289 -0.7517  0.3730
 1338SOL    HW1 4141   0.626   1.765   2.580  0.1993 -2.4640 -3.3793
 1338SOL    HW2 4142   0.600   1.908   2.535  1.1455 -1.7355 -1.6901
 1339SOL     OW 4143   0.388   0.065   2.544 -0.8586 -0.1535 -0.2935
 1339SOL    HW1 4144   0.351  -0.022   2.560 -0.6502  0.2153  2.7716
 1339SOL    HW2 4145   0.428   0.058   2.457  1.7349 -4.1307  0.9098
 1340SOL     OW 4146   0.293   2.040   3.177  0.2325 -0.1878 -0.2049
 1340SOL    HW1 4147   0.338   1.957   3.195  0.6221 -0.1816 -1.0865
 1340SOL    HW2 4148   0.332   2.102   3.238 -0.2648 -0.7082  0.6629
 1341SOL     OW 4149   0.549   3.200   0.225  0.2235 -0.1271 -0.6716
 1341SOL    HW1 4150   0.512   3.288   0.216 -0.7403 -0.7102 -4.7676
 1341SOL    HW2 4151   0.486   3.153   0.278  0.2488  1.3416  0.7437
 1342SOL     OW 4152   3.511   3.183   2.521 -0.3160  0.4326  0.4591
 1342SOL    HW1 4153   3.596   3.170   2.479 -0.9885 -0.4299 -0.7010
 1342SOL    HW2 4154   3.512   3.274   2.551  0.4516  0.8806 -0.8568
 1343SOL     OW 4155   0.132   1.098   2.996 -0.0167  0.1391 -0.6377
 1343SOL    HW1 4156   0.129   1.017   2.945 -1.4274  0.6822 -1.4656
 1343SOL    HW2 4157   0.044   1.108   3.031  0.9842 -0.4299  2.3551
 1344SOL     OW 4158   2.908   1.465   2.412  0.0293  0.2698  0.5245
 1344SOL    HW1 4159   2.954   1.421   2.484  0.5252  0.3486  0.2606
 1344SOL    HW2 4160   2.816   1.462   2.437 -0.0079 -1.3020  0.3248
 1345SOL     OW 4161   0.782   3.190   3.325  0.0225  0.1647 -0.0307
 1345SOL    HW1 4162   0.829   3.158   3.402  1.3143 -0.8454 -1.1853
 1345SOL    HW2 4163   0.692   3.160   3.338 -0.7039  3.0898  2.7673
 1346SOL     OW 4164   0.845   1.894   0.351 -0.4310 -0.3162  0.2626
 1346SOL    HW1 4165   0.800   1.925   0.272  2.1707 -1.5145 -1.8322
 1346SOL    HW2 4166   0.886   1.973   0.388 -1.5858  0.2311  0.4365
 1347SOL     OW 4167   1.466   0.828   0.121 -0.3283  0.4945 -0.1089
 1347SOL    HW1 4168   1.387   0.872   0.151 -0.3663 -0.7432  1.7160
 1347SOL    HW2 4169   1.524   0.827   0.197  0.9921  0.3233 -1.0763
 1348SOL     OW 4170   1.214   2.787   1.740 -0.3258 -0.0504 -0.2528
 1348SOL    HW1 4171   1.152   2.824   1.678 -0.7852  0.0286  0.2401
 1348SOL    HW2 4172   1.159   2.742   1.805  0.0362  1.1849  0.9674
 1349SOL     OW 4173   3.143   3.267   1.840  0.5642  0.5197  0.0024
 1349SOL    HW1 4174   3.077   3.263   1.771 -0.8521 -2.8081  1.3326
 1349SOL    HW2 4175   3.106   3.329   1.904 -1.1242 -0.9006  0.4860
 1350SOL     OW 4176   2.681   0.866   3.162 -0.3896  0.0969 -0.7501
 1350SOL    HW1 4177   2.690   0.772   3.178  2.4111  0.1444 -1.4673
 1350SOL    HW2 4178   2.618   0.872   3.089 -0.2658 -1.2520 -0.9937
 1351SOL     OW 4179   0.898   0.103   0.303 -0.3028  0.2008 -0.2311
 1351SOL    HW1 4180   0.917   0.171   0.368 -0.6066 -0.1554  0.2482
 1351SOL    HW2 4181   0.884   0.024   0.356 -1.5855  0.1220 -0.6393
 1352SOL     OW 4182   0.699   1.585   3.202  0.5280  0.2630  0.3519
 1352SOL    HW1 4183   0.791   1.564   3.213  0.3940  1.0447  4.0391
 1352SOL    HW2 4184   0.687   1.669   3.246 -2.1471 -0.3451  1.0025
 1353SOL     OW 4185   2.710   0.689   0.883 -0.1706  0.0815  0.1109
 1353SOL    HW1 4186   2.731   0.683   0.790 -0.3364 -0.3752  0.1015
 1353SOL    HW2 4187   2.795   0.700   0.926 -0.1023  0.4064 -0.0978
 1354SOL     OW 4188   1.283   0.879   1.235  0.1725  0.0802  0.1981
 1354SOL    HW1 4189   1.365   0.914   1.200  0.2718 -0.3762 -0.0393
 1354SOL    HW2 4190   1.219   0.893   1.165  0.3654 -0.8094 -0.1704
 1355SOL     OW 4191   2.631   3.671   0.261  0.0861 -0.3870  0.2667
 1355SOL    HW1 4192   2.673   3.628   0.187 -0.9131 -0.1651 -0.4393
 1355SOL    HW2 4193   2.614   3.601   0.324  2.5663 -0.3245  1.1082
 1356SOL     OW 4194   3.149   0.762   2.496  0.3227  0.4182 -0.5968
 1356SOL    HW1 4195   3.224   0.702   2.498  0.3763  0.4631 -1.1024
 1356SOL    HW2 4196   3.088   0.726   2.560  1.4554  1.2859  1.0645
 1357SOL     OW 4197   3.600   1.711   1.987  1.0564 -0.2424 -0.6534
 1357SOL    HW1 4198   3.659   1.638   2.005  1.4697  0.4787  1.1046
 1357SOL    HW2 4199   3.539   1.711   2.060  0.1004  0.2568 -1.4254
 1358SOL     OW 4200   1.146   1.837   2.366 -0.8296  0.5345  0.1647
 1358SOL    HW1 4201   1.142   1.868   2.457  0.2297 -0.7404  0.6788
 1358SOL    HW2 4202   1.231   1.866   2.334  1.9726 -4.4941  1.8367
 1359SOL     OW 4203   0.538   0.639   2.808  0.4659  0.0469 -0.2015
 1359SOL    HW1 4204   0.616   0.661   2.859  0.4883  0.9472 -0.5936
 1359SOL    HW2 4205   0.559   0.556   2.765  0.8875 -0.1298  0.3368
 1360SOL     OW 4206   0.575   1.661   2.055 -0.4260 -0.1099 -0.0855
 1360SOL    HW1 4207   0.660   1.658   2.010 -0.6891  0.5697 -0.6463
 1360SOL    HW2 4208   0.551   1.754   2.055 -1.1784 -0.2981  0.0584
 1361SOL     OW 4209   0.864   0.847   3.181  0.2836 -0.0789 -0.1353
 1361SOL    HW1 4210   0.915   0.797   3.118 -0.1764 -0.0192 -0.5648
 1361SOL    HW2 4211   0.811   0.906   3.127  0.3504  0.4181  0.3380
 1362SOL     OW 4212   1.129   1.322   3.211  0.1275 -0.2765 -0.2401
 1362SOL    HW1 4213   1.046   1.297   3.252 -0.2516  0.9839 -0.1923
 1362SOL    HW2 4214   1.167   1.239   3.181  1.2407 -1.5556  4.0043
 1363SOL     OW 4215   2.388   0.848   1.846 -0.1333 -0.2464 -0.0546
 1363SOL    HW1 4216   2.479   0.866   1.867  0.2315 -1.2671 -0.7582
 1363SOL    HW2 4217   2.349   0.823   1.930 -0.1557  1.6351  0.5517
 1364SOL     OW 4218   1.752   0.294   1.497  0.2494 -0.6962  0.3287
 1364SOL    HW1 4219   1.678   0.285   1.557 -0.3383 -0.3220 -0.3411
 1364SOL    HW2 4220   1.826   0.257   1.546 -0.3413 -0.9440  1.0543
 1365SOL     OW 4221   2.910   3.502   0.612  1.0073 -0.0146  0.1451
 1365SOL    HW1 4222   3.001   3.471   0.607  0.0309 -3.0009 -1.0995
 1365SOL    HW2 4223   2.862   3.444   0.553 -2.1727 -0.2410  2.7198
 1366SOL     OW 4224   2.192   2.177   1.848  0.0507  0.3613 -0.0121
 1366SOL    HW1 4225   2.185   2.213   1.759 -2.7734 -0.2119 -0.0941
 1366SOL    HW2 4226   2.189   2.082   1.836 -2.2737  0.2913  0.7592
 1367SOL     OW 4227   3.717   3.146   1.199 -0.1630 -0.5359  0.0391
 1367SOL    HW1 4228   3.662   3.174   1.273 -0.7795  0.0951 -0.6475
 1367SOL    HW2 4229   3.676   3.067   1.167  1.3259 -2.0714  1.6967
 1368SOL     OW 4230   0.061   3.299   2.414  0.1523 -0.0097  0.1881
 1368SOL    HW1 4231   0.155   3.291   2.432  0.5744  0.2913 -1.6275
 1368SOL    HW2 4232   0.047   3.241   2.339 -1.1526 -0.1370  0.5170
 1369SOL     OW 4233   3.346   2.858   3.525 -0.5778 -0.1930  0.1865
 1369SOL    HW1 4234   3.299   2.875   3.444  0.7984 -0.3449 -0.6656
 1369SOL    HW2 4235   3.356   2.763   3.528 -0.9340 -0.2237  0.7369
 1370SOL     OW 4236   2.452   1.080   0.684  0.0527 -0.0412 -0.5633
 1370SOL    HW1 4237   2.485   0.992   0.668 -0.8737 -0.8067  1.4209
 1370SOL    HW2 4238   2.363   1.067   0.716  0.3292  1.5391  1.0115
 1371SOL     OW 4239   2.309   1.659   2.869  0.0166  0.1364 -0.2450
 1371SOL    HW1 4240   2.281   1.572   2.843  0.2974 -0.0469  0.0529
 1371SOL    HW2 4241   2.324   1.653   2.963  3.2297 -0.4324 -0.6623
 1372SOL     OW 4242   2.916   2.733   3.298 -0.1398  0.3079  0.2732
 1372SOL    HW1 4243   2.921   2.638   3.301  3.0699  0.4165  1.6162
 1372SOL    HW2 4244   2.892   2.752   3.207  0.5949 -1.7653 -0.4226
 1373SOL     OW 4245   1.743   0.097   0.159 -0.2903 -0.0065 -0.0594
 1373SOL    HW1 4246   1.761   0.076   0.251  1.0786  3.3501  0.5560
 1373SOL    HW2 4247   1.828   0.096   0.116 -0.2399  2.8474 -0.1929
 1374SOL     OW 4248   3.481   0.817   0.329 -0.1532 -0.5992 -0.4689
 1374SOL    HW1 4249   3.414   0.772   0.380 -1.0774  0.4203 -0.7156
 1374SOL    HW2 4250   3.432   0.885   0.281  1.1210  0.4468 -0.3437
 1375SOL     OW 4251   2.285   1.343   1.159 -0.5448  0.2596  0.2229
 1375SOL    HW1 4252   2.278   1.356   1.064 -1.2003  0.6542  0.3176
 1375SOL    HW2 4253   2.226   1.409   1.196  0.3486  0.6786  0.9367
 1376SOL     OW 4254   2.382   1.237   2.804 -0.7386 -0.7458 -0.0517
 1376SOL    HW1 4255   2.316   1.220   2.871 -1.3190  1.6269  0.0370
 1376SOL    HW2 4256   2.455   1.277   2.852 -1.4523  1.6627 -0.8672
 1377SOL     OW 4257   2.757   2.304   0.601 -0.0463 -0.0415  0.3363
 1377SOL    HW1 4258   2.816   2.293   0.526 -0.4953  2.8412 -0.5719
 1377SOL    HW2 4259   2.795   2.248   0.669  2.2867 -0.2379 -1.0005
 1378SOL     OW 4260   1.120   0.860   3.279  0.5747  0.1126  0.2190
 1378SOL    HW1 4261   1.024   0.855   3.282  0.6083 -1.6014 -0.4744
 1378SOL    HW2 4262   1.147   0.874   3.370 -0.2930 -0.2024  0.5301
 1379SOL     OW 4263   1.233   2.107   0.328  0.4331  0.4570 -0.0289
 1379SOL    HW1 4264   1.243   2.020   0.289  0.1879  0.3905  0.0534
 1379SOL    HW2 4265   1.315   2.121   0.375  1.3560  1.1627 -1.7668
 1380SOL     OW 4266   1.051   1.786   3.455 -0.1630 -0.4527  0.1961
 1380SOL    HW1 4267   0.962   1.805   3.424  0.5292 -0.1230 -1.7253
 1380SOL    HW2 4268   1.039   1.755   3.545 -2.0240  1.8248  0.8452
 1381SOL     OW 4269   2.787   2.346   1.284  0.9193  0.0357  0.4576
 1381SOL    HW1 4270   2.763   2.424   1.335  0.7523  0.0885  0.2982
 1381SOL    HW2 4271   2.732   2.277   1.320 -0.2357  0.3797 -0.6027
 1382SOL     OW 4272   0.923   2.430   1.966 -0.4394  0.6327 -0.1180
 1382SOL    HW1 4273   0.891   2.457   2.052 -0.2488 -0.3141  0.2557
 1382SOL    HW2 4274   0.854   2.457   1.905 -0.3130  1.8563  0.2375
 1383SOL     OW 4275   0.730   0.113   3.414 -0.3639 -0.4777 -0.5914
 1383SOL    HW1 4276   0.686   0.082   3.494 -1.6385  1.3193 -0.5371
 1383SOL    HW2 4277   0.677   0.076   3.343 -0.6607 -0.1288 -0.5560
 1384SOL     OW 4278   3.032   0.087   2.565  0.2248  0.7744 -0.5656
 1384SOL    HW1 4279   2.949   0.098   2.610 -0.7715 -0.9280 -1.8752
 1384SOL    HW2 4280   3.096   0.075   2.635 -0.6338  1.8775  0.4505
 1385SOL     OW 4281   1.292   3.238   2.801 -0.2194 -0.1518  0.1266
 1385SOL    HW1 4282   1.198   3.232   2.786 -0.4998  1.1328  1.1667
 1385SOL    HW2 4283   1.326   3.281   2.723 -0.8768  1.6122  0.7704
 1386SOL     OW 4284   1.288   3.660   0.967  0.0943  0.6031 -0.6285
 1386SOL    HW1 4285   1.243   3.585   1.006 -0.3659  0.0542 -2.1523
 1386SOL    HW2 4286   1.218   3.719   0.939  0.4251  1.1197 -0.3981
 1387SOL     OW 4287   2.157   0.539   0.503  0.7423 -0.3355  0.1774
 1387SOL    HW1 4288   2.183   0.452   0.472 -0.4767 -0.4398 -0.5956
 1387SOL    HW2 4289   2.133   0.586   0.423 -1.5645 -0.3037  0.8349
 1388SOL     OW 4290   1.616   2.241   1.329  0.1956  0.3144 -0.4428
 1388SOL    HW1 4291   1.603   2.171   1.394 -2.5395  1.0142 -0.1204
 1388SOL    HW2 4292   1.606   2.197   1.245 -1.6546  0.2691 -0.2379
 1389SOL     OW 4293   0.502   2.639   2.718 -0.3600  0.1046 -0.2968
 1389SOL    HW1 4294   0.547   2.612   2.797  1.1062  2.2614 -0.3327
 1389SOL    HW2 4295   0.567   2.632   2.648 -0.7295  1.0793 -0.7686
 1390SOL     OW 4296   3.438   1.751   2.191  0.3190  0.0105 -0.3356
 1390SOL    HW1 4297   3.458   1.769   2.283  0.1114  0.7322 -0.4236
 1390SOL    HW2 4298   3.348   1.718   2.193  0.1663  0.4182 -0.3139
 1391SOL     OW 4299   0.893   0.480   0.898  0.1229 -0.1806  0.7886
 1391SOL    HW1 4300   0.850   0.438   0.973  1.9595  0.3013  2.1861
 1391SOL    HW2 4301   0.983   0.448   0.902  0.1500 -0.5211 -1.5531
 1392SOL     OW 4302   1.019   3.453   2.559 -0.4000  0.2414  0.3455
 1392SOL    HW1 4303   0.966   3.408   2.624  0.7785 -1.4662  0.1772
 1392SOL    HW2 4304   1.104   3.466   2.601 -0.0131  0.2283 -0.4076
 1393SOL     OW 4305   3.196   1.516   0.144 -0.1417  0.0766 -0.1650
 1393SOL    HW1 4306   3.114   1.547   0.103 -0.4021 -0.6694 -0.2170
 1393SOL    HW2 4307   3.175   1.510   0.237  0.2468  1.1118  0.0071
 1394SOL     OW 4308   1.782   1.759   1.373  0.2340  0.2005 -0.8191
 1394SOL    HW1 4309   1.693   1.727   1.389 -0.2936  2.1574  0.4908
 1394SOL    HW2 4310   1.775   1.811   1.293 -0.4848  2.5790  0.6936
 1395SOL     OW 4311   3.529   0.095   3.371 -0.7001 -0.1541  1.0262
 1395SOL    HW1 4312   3.508   0.165   3.309  1.0430  1.0606  1.7175
 1395SOL    HW2 4313   3.470   0.110   3.445  0.1265  1.1036  1.4802
 1396SOL     OW 4314   2.723   2.546   0.112  0.4789 -0.0410  0.1277
 1396SOL    HW1 4315   2.771   2.475   0.069  0.5095  0.0790 -0.0357
 1396SOL    HW2 4316   2.792   2.603   0.146  0.4663  0.6851 -1.0067
 1397SOL     OW 4317   1.197   2.147   2.387  0.0270  0.3644 -0.5551
 1397SOL    HW1 4318   1.234   2.226   2.347  2.1028 -0.0159  0.4387
 1397SOL    HW2 4319   1.110   2.139   2.349 -0.2004  3.0405 -0.7945
 1398SOL     OW 4320   1.016   2.265   1.404  0.1491  0.3640 -0.2594
 1398SOL    HW1 4321   0.998   2.264   1.310 -0.8620  1.8002 -0.1283
 1398SOL    HW2 4322   1.106   2.234   1.412 -0.6118 -2.5083 -1.4288
 1399SOL     OW 4323   1.720   3.080   3.500  0.2653 -0.1739 -0.0265
 1399SOL    HW1 4324   1.671   3.047   3.575 -0.1828  0.6809  0.0658
 1399SOL    HW2 4325   1.679   3.164   3.479  1.9300  0.7684  0.3079
 1400SOL     OW 4326   2.173   1.646   1.729 -0.3075  0.1621 -0.6355
 1400SOL    HW1 4327   2.153   1.615   1.817  0.1237 -1.6398 -1.1281
 1400SOL    HW2 4328   2.264   1.620   1.715 -0.8439 -1.0212 -2.1791
 1401SOL     OW 4329   0.175   0.961   1.495  0.1261  0.1738  0.1771
 1401SOL    HW1 4330   0.196   1.042   1.541 -2.4970 -0.4813  2.8042
 1401SOL    HW2 4331   0.260   0.918   1.482  1.7661  3.7319 -2.4387
 1402SOL     OW 4332   1.670   1.858   0.498  0.9000  0.4206 -0.2920
 1402SOL    HW1 4333   1.613   1.868   0.575  1.9346 -0.4231  0.6323
 1402SOL    HW2 4334   1.733   1.791   0.525  0.8813 -0.3831 -2.1393
 1403SOL     OW 4335   2.675   0.559   1.815  0.0739 -0.9564 -0.0977
 1403SOL    HW1 4336   2.590   0.565   1.771  0.7445  1.3876 -1.1903
 1403SOL    HW2 4337   2.735   0.527   1.748  1.0017  2.1709 -0.8762
 1404SOL     OW 4338   3.180   0.943   1.464 -0.2461  0.2141  0.3263
 1404SOL    HW1 4339   3.128   0.973   1.539 -0.3534  0.9171 -0.0164
 1404SOL    HW2 4340   3.249   1.009   1.455 -0.2699  0.1728 -0.2223
 1405SOL     OW 4341   3.654   2.514   3.257  0.7690 -0.2381 -0.3226
 1405SOL    HW1 4342   3.562   2.496   3.279  0.4217 -3.3213 -3.4550
 1405SOL    HW2 4343   3.703   2.487   3.334 -0.8229 -0.2189  0.7426
 1406SOL     OW 4344   2.604   0.180   3.744 -0.8206  0.3064  0.1097
 1406SOL    HW1 4345   2.592   0.085   3.737  0.9972  0.0627 -0.0661
 1406SOL    HW2 4346   2.593   0.212   3.654  2.2009 -0.2561 -0.5630
 1407SOL     OW 4347   0.322   3.629   3.384 -0.2457 -0.0748 -0.3178
 1407SOL    HW1 4348   0.327   3.724   3.371  0.3526  0.6765  3.9401
 1407SOL    HW2 4349   0.411   3.598   3.367 -0.2053  0.2682 -0.7437
 1408SOL     OW 4350   3.119   0.418   2.058 -0.0211  1.2182 -0.6169
 1408SOL    HW1 4351   3.121   0.430   1.963  0.9247  1.2347 -0.6058
 1408SOL    HW2 4352   3.209   0.394   2.081  0.0712  2.4641  0.4348
 1409SOL     OW 4353   2.012   2.850   3.676  0.6617  0.1283  0.2486
 1409SOL    HW1 4354   2.071   2.813   3.741  0.4810 -0.6063  0.0029
 1409SOL    HW2 4355   1.926   2.815   3.698  0.4801  0.4378  0.0409
 1410SOL     OW 4356   0.154   0.802   1.736 -0.0542  0.2475 -0.0742
 1410SOL    HW1 4357   0.142   0.882   1.788 -0.8109  0.5390 -0.6832
 1410SOL    HW2 4358   0.104   0.818   1.656  0.4414 -0.5218 -0.5497
 1411SOL     OW 4359   3.168   1.124   1.781  0.0473  0.3475 -0.2831
 1411SOL    HW1 4360   3.158   1.095   1.871 -0.7538 -0.3700 -0.5949
 1411SOL    HW2 4361   3.234   1.066   1.744 -0.0563  0.2527 -0.3213
 1412SOL     OW 4362   2.752   2.437   3.424 -0.1072 -0.3894 -0.0048
 1412SOL    HW1 4363   2.767   2.361   3.481  0.8244 -0.4755 -0.3503
 1412SOL    HW2 4364   2.836   2.452   3.381  0.7292  2.7259  2.3006
 1413SOL     OW 4365   1.350   3.008   2.079 -0.0635 -0.1041 -0.2484
 1413SOL    HW1 4366   1.363   3.013   2.174  0.2687 -2.0731 -0.1469
 1413SOL    HW2 4367   1.414   3.070   2.043  0.2201  0.2188  0.7878
 1414SOL     OW 4368   3.441   3.614   2.755 -0.5056 -0.4807 -0.6057
 1414SOL    HW1 4369   3.376   3.683   2.769 -1.0677 -0.9586 -0.8325
 1414SOL    HW2 4370   3.519   3.647   2.799 -1.0509 -0.1347  0.1411
 1415SOL     OW 4371   2.091   1.003   0.210 -0.6174 -0.0554 -0.1014
 1415SOL    HW1 4372   2.111   1.083   0.259 -0.4870  1.0244 -1.8296
 1415SOL    HW2 4373   2.028   1.030   0.144  0.0932 -1.1703 -1.2943
 1416SOL     OW 4374   1.447   2.619   2.707  0.3927  0.1494  0.4559
 1416SOL    HW1 4375   1.446   2.707   2.744 -1.0290 -0.1657  1.2759
 1416SOL    HW2 4376   1.538   2.604   2.681  0.7854  1.5964  0.9135
 1417SOL     OW 4377   1.920   3.122   0.040 -0.1750  0.2655 -0.5386
 1417SOL    HW1 4378   1.855   3.127   0.110 -0.2574 -0.1537 -0.5842
 1417SOL    HW2 4379   1.909   3.034   0.004  0.5721  0.1202 -0.4090
 1418SOL     OW 4380   2.610   2.029   1.723 -0.2607 -0.0726 -0.1643
 1418SOL    HW1 4381   2.597   2.065   1.811  0.0751  1.8281 -0.8513
 1418SOL    HW2 4382   2.690   1.976   1.731 -0.8454 -0.8467  0.9103
 1419SOL     OW 4383   0.538   2.255   2.272 -0.3010 -0.1801  0.6191
 1419SOL    HW1 4384   0.524   2.177   2.218  0.0283  0.9643 -1.2135
 1419SOL    HW2 4385   0.572   2.221   2.355 -0.4812 -1.9964 -0.0071
 1420SOL     OW 4386   0.300   2.535   3.144  0.4102  0.2450 -0.1016
 1420SOL    HW1 4387   0.238   2.598   3.106 -0.7905  0.1675  1.6166
 1420SOL    HW2 4388   0.304   2.464   3.081  0.3024  1.1705 -1.1835
 1421SOL     OW 4389   2.734   0.813   0.176 -0.1294  0.1562  0.7917
 1421SOL    HW1 4390   2.754   0.848   0.263 -0.5379 -0.1163  1.0058
 1421SOL    HW2 4391   2.760   0.721   0.181 -0.7014 -0.0095  0.8274
 1422SOL     OW 4392   1.858   2.393   1.040  0.0662  0.5390 -0.1585
 1422SOL    HW1 4393   1.787   2.336   1.012  0.5523 -1.3599  2.1423
 1422SOL    HW2 4394   1.938   2.347   1.013  0.4631  0.8142  0.5165
 1423SOL     OW 4395   1.284   0.396   0.318 -0.0002  0.5001 -0.1499
 1423SOL    HW1 4396   1.314   0.472   0.268 -0.2861  1.0427  0.4891
 1423SOL    HW2 4397   1.242   0.434   0.395  0.3996 -0.3203  0.4848
 1424SOL     OW 4398   1.557   3.463   2.452 -0.1791 -0.1119  0.7228
 1424SOL    HW1 4399   1.476   3.413   2.447  0.0485 -0.3962 -0.3493
 1424SOL    HW2 4400   1.560   3.495   2.542 -2.2216  1.1443  0.4029
 1425SOL     OW 4401   2.981   0.694   0.329 -0.6363 -0.2336  0.2398
 1425SOL    HW1 4402   2.885   0.696   0.328 -0.7561 -1.4551  2.2928
 1425SOL    HW2 4403   3.003   0.615   0.280 -0.7967 -0.7205  0.9183
 1426SOL     OW 4404   0.752   1.300   3.506 -0.1927  0.0920 -0.2509
 1426SOL    HW1 4405   0.710   1.228   3.553  0.4025 -0.4122 -0.4705
 1426SOL    HW2 4406   0.680   1.351   3.469 -0.6154 -0.5075 -0.2561
 1427SOL     OW 4407   3.267   1.812   1.780 -0.0089 -0.8302  0.4566
 1427SOL    HW1 4408   3.330   1.783   1.713  0.5073 -0.0271  0.5767
 1427SOL    HW2 4409   3.184   1.772   1.754  0.2839 -0.8932 -0.4109
 1428SOL     OW 4410   2.432   0.185   2.725  0.7444 -0.1846  0.0594
 1428SOL    HW1 4411   2.434   0.226   2.639 -0.4731 -1.1458 -0.4532
 1428SOL    HW2 4412   2.523   0.160   2.742  1.0486  0.3059 -0.7981
 1429SOL     OW 4413   2.076   0.324   2.463 -0.1025 -0.8081 -0.1617
 1429SOL    HW1 4414   2.029   0.314   2.380 -0.5284 -1.4057  0.1501
 1429SOL    HW2 4415   2.008   0.329   2.529  0.2385 -2.8620  0.4274
 1430SOL     OW 4416   0.937   2.175   2.520  0.4277  0.0122 -0.6817
 1430SOL    HW1 4417   0.979   2.091   2.501 -0.4772 -0.4311 -0.7754
 1430SOL    HW2 4418   1.009   2.231   2.551  1.0829 -0.7181 -0.8388
 1431SOL     OW 4419   3.095   0.372   3.008  0.4146 -0.3463  0.1651
 1431SOL    HW1 4420   3.084   0.458   2.967 -0.0624  0.2599  1.4864
 1431SOL    HW2 4421   3.069   0.386   3.099  2.2539 -1.4208  0.9115
 1432SOL     OW 4422   1.109   2.524   2.988  0.2277 -0.3773 -0.1575
 1432SOL    HW1 4423   1.122   2.506   2.895 -0.7085 -0.4172 -0.2927
 1432SOL    HW2 4424   1.173   2.468   3.033  0.8205 -0.2064 -0.7792
 1433SOL     OW 4425   1.644   1.532   1.709  0.0016 -0.7114  0.0370
 1433SOL    HW1 4426   1.727   1.577   1.728 -0.0235 -0.7984  0.3582
 1433SOL    HW2 4427   1.656   1.443   1.741 -0.8616 -0.2277  1.8175
 1434SOL     OW 4428   3.684   1.186   1.541  0.1084  0.1611  0.2806
 1434SOL    HW1 4429   3.629   1.161   1.616 -0.3977 -0.8366 -0.3972
 1434SOL    HW2 4430   3.714   1.102   1.505 -1.4661  0.4562 -1.9593
 1435SOL     OW 4431   1.271   0.867   3.504  0.9297 -0.1687 -0.4209
 1435SOL    HW1 4432   1.359   0.847   3.471  0.4441 -0.1123 -1.8177
 1435SOL    HW2 4433   1.261   0.810   3.580  2.0696 -0.3670 -0.3906
 1436SOL     OW 4434   3.073   1.250   0.956 -0.2159  0.4199 -0.2262
 1436SOL    HW1 4435   3.106   1.215   0.873 -1.4958  2.1513 -1.5441
 1436SOL    HW2 4436   3.149   1.293   0.996  0.1985  0.4306 -1.0088
 1437SOL     OW 4437   3.487   3.553   0.866 -0.7911  0.1146  0.0251
 1437SOL    HW1 4438   3.412   3.613   0.871 -2.8516 -2.2148 -0.8796
 1437SOL    HW2 4439   3.493   3.514   0.953  0.2038  1.1328  0.4491
 1438SOL     OW 4440   0.101   3.367   2.992  0.0896 -0.8819  0.6735
 1438SOL    HW1 4441   0.118   3.291   2.937  1.9046  0.3787 -0.6284
 1438SOL    HW2 4442   0.109   3.333   3.082  1.3612 -2.1507  0.1277
 1439SOL     OW 4443   0.871   1.425   2.492 -0.3610  0.0650 -0.3817
 1439SOL    HW1 4444   0.807   1.407   2.423  0.3064 -1.4032 -0.6465
 1439SOL    HW2 4445   0.937   1.479   2.449  0.6439 -1.7791 -1.2704
 1440SOL     OW 4446   2.192   1.092   0.820 -0.0280  0.3653  0.2726
 1440SOL    HW1 4447   2.120   1.153   0.836  2.1598  3.0310  0.6629
 1440SOL    HW2 4448   2.187   1.030   0.893 -1.8540  0.4937  0.3096
 1441SOL     OW 4449   2.017   1.596   1.319 -0.2444  0.9383 -0.2192
 1441SOL    HW1 4450   1.995   1.506   1.341 -0.1988  0.5741 -1.5865
 1441SOL    HW2 4451   1.938   1.646   1.338 -2.0501 -0.1568 -3.9372
 1442SOL     OW 4452   0.572   0.040   0.305 -0.8158  0.2188 -0.0249
 1442SOL    HW1 4453   0.652   0.073   0.345 -1.2052 -0.3376  1.2762
 1442SOL    HW2 4454   0.501   0.072   0.361 -1.6617  1.8041 -1.8805
 1443SOL     OW 4455   0.144   1.215   0.652 -0.0698 -0.0052  0.7882
 1443SOL    HW1 4456   0.232   1.187   0.674 -0.0146 -0.1828  0.3406
 1443SOL    HW2 4457   0.095   1.134   0.639  0.1712  0.0737 -0.8223
 1444SOL     OW 4458   0.073   1.031   1.856 -0.1929  0.0112 -0.0235
 1444SOL    HW1 4459   0.078   1.127   1.850 -0.1767 -0.0366 -1.0504
 1444SOL    HW2 4460  -0.003   1.014   1.911 -0.5301  0.6134 -0.2886
 1445SOL     OW 4461   3.596   3.554   3.266  0.1519 -0.2349  0.0972
 1445SOL    HW1 4462   3.537   3.625   3.290 -2.5041 -1.6308 -1.7984
 1445SOL    HW2 4463   3.633   3.524   3.349 -1.3097  1.1303  1.2986
 1446SOL     OW 4464   0.204   2.442   1.648  0.0697 -0.0089  0.0607
 1446SOL    HW1 4465   0.164   2.492   1.719 -2.3494 -1.5887 -0.0666
 1446SOL    HW2 4466   0.290   2.418   1.681 -0.4922  0.3904  1.9425
 1447SOL     OW 4467   2.819   1.291   1.059  0.7329  1.0808  0.2718
 1447SOL    HW1 4468   2.755   1.310   0.990 -0.8283 -1.3427  0.8902
 1447SOL    HW2 4469   2.903   1.289   1.015 -0.2447 -0.6097 -1.6977
 1448SOL     OW 4470   0.482   2.555   3.533  0.1887 -0.0143 -0.0215
 1448SOL    HW1 4471   0.453   2.636   3.574  0.3495 -0.7254  1.5756
 1448SOL    HW2 4472   0.555   2.581   3.477 -1.0309  1.2170 -1.1018
 1449SOL     OW 4473   2.861   1.179   1.761 -0.5863 -0.2913  0.0823
 1449SOL    HW1 4474   2.888   1.238   1.691  0.9496  0.7906  1.5059
 1449SOL    HW2 4475   2.940   1.167   1.814 -1.5730 -1.4333  1.3713
 1450SOL     OW 4476   3.531   2.950   2.665  0.0767  0.6025 -0.0493
 1450SOL    HW1 4477   3.519   3.042   2.643  2.5130  0.9027 -0.4449
 1450SOL    HW2 4478   3.450   2.907   2.637 -0.3166  2.3041 -1.7264
 1451SOL     OW 4479   3.232   1.919   3.567 -0.4892 -0.0926  0.2679
 1451SOL    HW1 4480   3.279   1.872   3.636  2.3898  1.7888 -0.2098
 1451SOL    HW2 4481   3.243   1.864   3.489 -2.1022 -1.2936  0.8379
 1452SOL     OW 4482   0.982   3.671   3.684  0.1182 -0.2289  1.0001
 1452SOL    HW1 4483   1.038   3.686   3.761 -0.1201 -1.0147  1.3384
 1452SOL    HW2 4484   0.894   3.693   3.714 -0.0640 -1.1404  1.1456
 1453SOL     OW 4485   1.279   3.616   0.661 -0.0081  0.6967 -0.1907
 1453SOL    HW1 4486   1.356   3.653   0.618 -0.1557  1.6849  0.3565
 1453SOL    HW2 4487   1.286   3.647   0.752  0.9200 -2.2750  0.8433
 1454SOL     OW 4488   3.351   2.442   1.270  0.0295 -0.8281  0.5626
 1454SOL    HW1 4489   3.321   2.354   1.294 -0.3003 -1.1406 -0.9223
 1454SOL    HW2 4490   3.333   2.450   1.176  1.3225  0.3204  0.3714
 1455SOL     OW 4491   1.007   1.112   3.671  0.0955 -0.4981 -0.2238
 1455SOL    HW1 4492   1.014   1.017   3.678  0.2247 -0.3899  1.9530
 1455SOL    HW2 4493   0.917   1.132   3.698 -0.1023 -0.0246 -1.1892
 1456SOL     OW 4494   1.970   3.734   3.141 -0.3380  0.2841  0.3536
 1456SOL    HW1 4495   1.895   3.686   3.105 -0.5860  1.5432 -0.9204
 1456SOL    HW2 4496   1.944   3.755   3.231 -1.4950  0.6075 -0.0282
 1457SOL     OW 4497   1.696   2.506   3.583  0.1992 -0.3406  0.0888
 1457SOL    HW1 4498   1.724   2.597   3.590  0.5823 -0.3768 -0.8474
 1457SOL    HW2 4499   1.640   2.504   3.505 -0.6655 -0.7044  0.7031
 1458SOL     OW 4500   3.038   1.948   2.142  0.1540  0.1184  0.3443
 1458SOL    HW1 4501   3.133   1.954   2.132  0.2410  1.1897  1.5395
 1458SOL    HW2 4502   3.019   1.855   2.134  1.3659 -0.1631  0.5462
 1459SOL     OW 4503   0.981   2.299   0.309  0.1404  0.4157 -0.2814
 1459SOL    HW1 4504   0.941   2.287   0.396 -0.9388 -1.6547 -0.9904
 1459SOL    HW2 4505   1.075   2.306   0.326  0.1568 -1.9250  0.9758
 1460SOL     OW 4506   1.308   2.490   0.880  0.5639 -0.1915 -0.4863
 1460SOL    HW1 4507   1.276   2.418   0.936  1.9864 -0.4547  0.0176
 1460SOL    HW2 4508   1.278   2.569   0.924 -0.2666 -0.4453 -0.5764
 1461SOL     OW 4509   0.840   0.635   3.401 -0.5641  0.6028  0.1420
 1461SOL    HW1 4510   0.778   0.568   3.371  1.3935 -0.2122 -2.3784
 1461SOL    HW2 4511   0.838   0.701   3.333  1.3443  0.5311 -0.0231
 1462SOL     OW 4512   3.518   2.982   2.234  0.2622  0.2044  0.3450
 1462SOL    HW1 4513   3.565   2.902   2.208 -0.5339 -0.9190  2.1126
 1462SOL    HW2 4514   3.565   3.053   2.193  1.4518 -1.1426 -0.6960
 1463SOL     OW 4515   1.333   2.390   1.184  0.0919  0.1089 -0.0501
 1463SOL    HW1 4516   1.367   2.342   1.109  1.2456  0.3279  0.3065
 1463SOL    HW2 4517   1.377   2.350   1.259 -1.5719 -0.5901  0.6003
 1464SOL     OW 4518   2.594   2.702   0.442  0.0817 -0.5793 -0.0540
 1464SOL    HW1 4519   2.575   2.618   0.400 -1.2064 -1.2532  1.7705
 1464SOL    HW2 4520   2.684   2.693   0.473 -0.1479 -1.4242  0.3980
 1465SOL     OW 4521   0.312   1.610   2.014  0.1051  0.5644 -0.1111
 1465SOL    HW1 4522   0.321   1.549   1.940  0.0807  3.6708 -2.9144
 1465SOL    HW2 4523   0.402   1.634   2.037  0.0820  0.6925 -0.1510
 1466SOL     OW 4524   3.337   0.973   2.588  0.2196 -0.0733 -0.0402
 1466SOL    HW1 4525   3.293   0.889   2.579 -0.9321  0.4689  0.3196
 1466SOL    HW2 4526   3.369   0.975   2.678  1.3633 -0.6313 -0.4176
 1467SOL     OW 4527   2.241   1.362   3.475  0.2517 -0.0387  0.0089
 1467SOL    HW1 4528   2.174   1.417   3.518  1.4249  1.5301 -0.0825
 1467SOL    HW2 4529   2.275   1.417   3.405  2.5766 -0.2636  0.8907
 1468SOL     OW 4530   0.956   2.271   3.085 -0.3890 -0.2600 -0.2407
 1468SOL    HW1 4531   0.937   2.286   3.177 -0.1545 -1.4065  0.0090
 1468SOL    HW2 4532   0.918   2.347   3.040 -0.7451  0.1741  0.7635
 1469SOL     OW 4533   3.121   0.459   1.804 -0.2657 -0.2307 -0.1399
 1469SOL    HW1 4534   3.208   0.479   1.770 -1.1416  1.7726 -1.4080
 1469SOL    HW2 4535   3.085   0.396   1.741 -0.4289  0.4553 -0.7515
 1470SOL     OW 4536   0.276   2.123   2.630  0.1422 -0.0172  0.1146
 1470SOL    HW1 4537   0.355   2.177   2.623  1.1987 -1.4289  0.6599
 1470SOL    HW2 4538   0.279   2.089   2.719 -1.0249 -0.2082  0.0935
 1471SOL     OW 4539   1.195   1.067   3.106 -0.0777 -0.4846 -0.3427
 1471SOL    HW1 4540   1.248   1.004   3.059  1.0715 -0.2906  0.6492
 1471SOL    HW2 4541   1.150   1.015   3.174  0.7807 -0.2808  0.4009
 1472SOL     OW 4542   0.908   1.206   1.602 -0.7262  0.2376  0.2939
 1472SOL    HW1 4543   0.988   1.189   1.552  0.1376 -0.7647  1.9168
 1472SOL    HW2 4544   0.848   1.136   1.576  0.5017 -1.6476  2.1432
 1473SOL     OW 4545   3.503   0.781   3.341 -0.1075  0.2337 -0.1284
 1473SOL    HW1 4546   3.477   0.691   3.323  0.1082  0.2309 -0.4520
 1473SOL    HW2 4547   3.587   0.773   3.386  1.2331  0.3000 -2.4404
 1474SOL     OW 4548   1.174   2.346   1.879 -0.5126  0.3811 -0.8549
 1474SOL    HW1 4549   1.094   2.374   1.922 -0.9376  0.1831 -1.4997
 1474SOL    HW2 4550   1.145   2.292   1.806  0.2075  0.3034 -1.0986
 1475SOL     OW 4551   2.679   1.702   1.504  0.1868  0.1531 -0.3626
 1475SOL    HW1 4552   2.683   1.792   1.536 -0.0031 -0.0733  0.3098
 1475SOL    HW2 4553   2.644   1.710   1.415 -0.4620  0.6952 -0.0716
 1476SOL     OW 4554   2.516   1.257   0.950 -0.5222 -0.1969  0.5237
 1476SOL    HW1 4555   2.484   1.195   0.884  0.7696 -0.8208  0.4568
 1476SOL    HW2 4556   2.502   1.213   1.033 -0.4920 -0.1701  0.5427
 1477SOL     OW 4557   2.609   1.794   3.510 -0.1173  0.5504 -0.1448
 1477SOL    HW1 4558   2.669   1.783   3.436 -1.6648 -0.0585 -1.3660
 1477SOL    HW2 4559   2.658   1.763   3.586  1.1806  0.2676 -1.0657
 1478SOL     OW 4560   3.328   1.944   1.176  0.0251 -0.1609 -0.1057
 1478SOL    HW1 4561   3.400   1.894   1.137 -1.4905 -0.8999 -2.1269
 1478SOL    HW2 4562   3.299   1.891   1.250 -0.5129 -1.5560 -1.2533
 1479SOL     OW 4563   0.190   1.001   3.495 -0.7214  0.0367  0.3242
 1479SOL    HW1 4564   0.252   1.052   3.443  1.1412  0.4361  2.7831
 1479SOL    HW2 4565   0.157   1.063   3.560 -2.7902 -0.5114 -0.1393
 1480SOL     OW 4566   2.810   0.906   0.422  1.1859  0.1185  0.0406
 1480SOL    HW1 4567   2.743   0.967   0.454  0.4792 -0.6008 -0.0402
 1480SOL    HW2 4568   2.887   0.961   0.408  0.2655  1.2011 -1.0136
 1481SOL     OW 4569   2.807   2.092   2.185  0.2704  0.2616  0.3501
 1481SOL    HW1 4570   2.730   2.060   2.233 -0.0318  1.0275  0.3993
 1481SOL    HW2 4571   2.877   2.031   2.207 -0.6585 -1.3250 -0.8450
 1482SOL     OW 4572   1.361   1.879   0.197 -0.3501  0.5857  0.6388
 1482SOL    HW1 4573   1.309   1.874   0.117 -0.8658  1.2608  0.9256
 1482SOL    HW2 4574   1.449   1.854   0.169 -0.5420  0.7266 -0.1210
 1483SOL     OW 4575   0.673   2.396   0.850  0.7098 -0.4352 -0.2009
 1483SOL    HW1 4576   0.763   2.397   0.883  0.0460  0.5000  1.7440
 1483SOL    HW2 4577   0.624   2.449   0.913 -1.1495 -0.6488 -1.3967
 1484SOL     OW 4578   2.387   3.070   0.975  0.2219 -0.2736 -0.4482
 1484SOL    HW1 4579   2.430   3.122   1.043 -0.3341 -0.1919 -0.1578
 1484SOL    HW2 4580   2.408   2.979   0.998  1.3723 -0.1924 -1.0754
 1485SOL     OW 4581   3.719   2.055   2.747 -0.1754 -0.3486  0.0753
 1485SOL    HW1 4582   3.761   2.107   2.815  3.0612 -2.3265 -0.1818
 1485SOL    HW2 4583   3.675   2.119   2.691  0.0214  1.6466  2.0678
 1486SOL     OW 4584   2.136   1.908   1.809  0.0150 -0.5698 -0.5331
 1486SOL    HW1 4585   2.142   1.875   1.719  0.8387 -1.6646 -0.0970
 1486SOL    HW2 4586   2.189   1.847   1.860  0.3785  0.6195  0.5441
 1487SOL     OW 4587   0.628   1.335   3.003 -0.5505  0.6246 -0.0590
 1487SOL    HW1 4588   0.717   1.363   2.983  0.1129 -0.9618  0.4582
 1487SOL    HW2 4589   0.575   1.414   2.998  0.7514  1.4545 -1.1779
 1488SOL     OW 4590   3.260   1.798   0.689  0.0906  0.7870  0.1418
 1488SOL    HW1 4591   3.294   1.786   0.600  0.3080  1.6228  0.1018
 1488SOL    HW2 4592   3.338   1.792   0.745 -0.0098  0.5336  0.2593
 1489SOL     OW 4593   1.277   0.257   2.633  0.4781 -0.3501 -0.3455
 1489SOL    HW1 4594   1.350   0.217   2.586 -0.2660 -1.7839 -0.3380
 1489SOL    HW2 4595   1.200   0.232   2.583  0.0087  1.8796 -0.8505
 1490SOL     OW 4596   3.186   2.797   0.874 -0.3353 -0.0108  1.0075
 1490SOL    HW1 4597   3.214   2.709   0.849  0.9747  0.7046 -0.2439
 1490SOL    HW2 4598   3.096   2.803   0.841 -0.3282 -0.7664  0.8193
 1491SOL     OW 4599   2.428   2.239   2.164  0.0963 -0.2054 -0.5746
 1491SOL    HW1 4600   2.341   2.228   2.202  0.0799  0.4239 -0.4128
 1491SOL    HW2 4601   2.488   2.229   2.238  0.1213  0.0523 -0.5600
 1492SOL     OW 4602   0.021   1.820   3.204 -0.1748  0.4188 -0.2276
 1492SOL    HW1 4603   0.061   1.899   3.240  0.8843  0.5972 -1.7059
 1492SOL    HW2 4604  -0.009   1.845   3.117  1.2022 -1.0651 -1.1906
 1493SOL     OW 4605   0.840   3.383   1.523 -0.1968  0.1685  0.1636
 1493SOL    HW1 4606   0.804   3.345   1.443 -0.5685  2.5031 -0.8549
 1493SOL    HW2 4607   0.764   3.424   1.565  0.0453 -0.8051  1.6192
 1494SOL     OW 4608   2.272   0.631   1.088 -0.2376 -0.2766  0.4380
 1494SOL    HW1 4609   2.270   0.541   1.056  0.4942 -0.2180  0.2268
 1494SOL    HW2 4610   2.180   0.660   1.083 -0.2493 -0.4916 -0.9393
 1495SOL     OW 4611   3.253   0.441   3.613 -0.2137  0.4330  0.1273
 1495SOL    HW1 4612   3.205   0.523   3.614 -1.7659 -0.3902 -1.2262
 1495SOL    HW2 4613   3.341   0.465   3.586 -0.4937  1.7027  0.2722
 1496SOL     OW 4614   0.411   1.742   0.139  0.2261 -0.0605 -0.3072
 1496SOL    HW1 4615   0.403   1.818   0.082 -2.3046 -0.6036 -0.7705
 1496SOL    HW2 4616   0.366   1.768   0.220  0.1718 -0.7304 -0.1197
 1497SOL     OW 4617   1.582   2.063   2.132 -0.0322  0.6577  0.4974
 1497SOL    HW1 4618   1.665   2.087   2.175  0.9032 -1.4681  0.0096
 1497SOL    HW2 4619   1.597   1.974   2.100 -2.1184  0.6776 -0.6771
 1498SOL     OW 4620   1.577   3.474   1.761  0.5334  0.0948 -0.4637
 1498SOL    HW1 4621   1.663   3.431   1.755 -0.0096 -1.2912  0.9015
 1498SOL    HW2 4622   1.553   3.493   1.670  1.0878 -2.0064 -1.1170
 1499SOL     OW 4623   0.518   0.645   3.536  0.7123  0.9409 -0.5311
 1499SOL    HW1 4624   0.540   0.731   3.500  0.4593  0.4024 -2.0120
 1499SOL    HW2 4625   0.567   0.641   3.619  1.9972  1.8829 -1.2077
 1500SOL     OW 4626   3.277   3.099   0.842  0.5266 -0.1024 -0.0572
 1500SOL    HW1 4627   3.367   3.130   0.833  0.8466 -0.5680  1.2529
 1500SOL    HW2 4628   3.285   3.003   0.846  0.3851 -0.0783  3.3824
 1501SOL     OW 4629   1.221   0.767   2.465  0.5924  0.0544  0.6225
 1501SOL    HW1 4630   1.149   0.783   2.527  0.3544 -0.1279  0.3969
 1501SOL    HW2 4631   1.252   0.855   2.442 -0.8276  0.2628 -0.7457
 1502SOL     OW 4632   2.484   3.361   2.491  0.0778  0.7425 -0.1304
 1502SOL    HW1 4633   2.473   3.444   2.444 -0.5486  0.4483 -0.5138
 1502SOL    HW2 4634   2.572   3.333   2.469  0.1609  1.1224 -0.2955
 1503SOL     OW 4635   3.514   2.054   2.227 -0.0942 -0.3458  0.0821
 1503SOL    HW1 4636   3.468   2.006   2.296 -0.0883  0.3277  0.5699
 1503SOL    HW2 4637   3.561   2.123   2.274  0.0204  0.0373 -0.5882
 1504SOL     OW 4638   2.947   2.529   0.401  0.2944  0.2419 -0.2238
 1504SOL    HW1 4639   2.972   2.437   0.394  1.2020  0.3132  1.3957
 1504SOL    HW2 4640   3.020   2.569   0.448 -0.3287  1.6791 -0.4443
 1505SOL     OW 4641   0.838   2.690   0.760  0.1730  0.1715  0.1553
 1505SOL    HW1 4642   0.905   2.758   0.757  0.3658 -0.0062  0.4917
 1505SOL    HW2 4643   0.887   2.608   0.760  0.0147  0.0462  1.7485
 1506SOL     OW 4644   0.893   3.088   3.011 -0.5559  0.0163  0.1000
 1506SOL    HW1 4645   0.889   3.118   2.920 -1.8765  1.3417  0.5687
 1506SOL    HW2 4646   0.883   3.167   3.063 -2.4369 -0.9853  1.3762
 1507SOL     OW 4647   1.297   1.549   3.204 -0.5833 -0.4462  0.2166
 1507SOL    HW1 4648   1.238   1.475   3.216  0.1255 -1.2102 -0.8442
 1507SOL    HW2 4649   1.335   1.536   3.118  1.0705  0.0711  0.8267
 1508SOL     OW 4650   2.658   1.166   2.959  0.4560  0.3655  0.0901
 1508SOL    HW1 4651   2.590   1.115   3.004 -0.0496 -0.2250 -1.3039
 1508SOL    HW2 4652   2.639   1.257   2.983  0.2017  0.0688  1.0605
 1509SOL     OW 4653   1.808   0.522   2.139 -0.0962 -0.0968  0.0868
 1509SOL    HW1 4654   1.734   0.482   2.094 -0.5074 -0.4913  1.0869
 1509SOL    HW2 4655   1.771   0.561   2.217  0.8077 -0.6656  0.8207
 1510SOL     OW 4656   0.966   2.455   0.772  0.0073  0.0234  0.0381
 1510SOL    HW1 4657   1.029   2.489   0.835 -1.1046  2.1970  0.0782
 1510SOL    HW2 4658   1.019   2.427   0.697  1.0799  1.0393  0.3920
 1511SOL     OW 4659   3.386   2.668   2.632 -0.0834 -0.1357 -0.2181
 1511SOL    HW1 4660   3.453   2.689   2.568 -0.1340 -1.7053 -0.8462
 1511SOL    HW2 4661   3.332   2.746   2.638  0.0702  0.1279 -1.9120
 1512SOL     OW 4662   3.496   0.799   1.275  0.3510  0.1488 -0.4686
 1512SOL    HW1 4663   3.518   0.709   1.297  2.1649 -0.1573 -2.9827
 1512SOL    HW2 4664   3.433   0.792   1.203 -0.7223  0.9468  0.3544
 1513SOL     OW 4665   1.473   1.114   0.082  0.2811  0.3975 -0.2333
 1513SOL    HW1 4666   1.408   1.185   0.087 -1.8498 -1.4039 -0.9478
 1513SOL    HW2 4667   1.425   1.040   0.047  3.3413 -0.3861 -3.2401
 1514SOL     OW 4668   1.706   2.660   1.011 -1.4044 -0.2231 -0.3140
 1514SOL    HW1 4669   1.631   2.626   0.962 -0.9793  0.4349 -1.4775
 1514SOL    HW2 4670   1.772   2.591   1.006 -1.4157 -0.2168 -0.5575
 1515SOL     OW 4671   1.392   0.530   2.717 -0.2592 -0.2433  0.0363
 1515SOL    HW1 4672   1.385   0.595   2.648 -0.7956 -1.0211 -0.6594
 1515SOL    HW2 4673   1.345   0.454   2.683 -0.2505 -0.7503  1.1225
 1516SOL     OW 4674   1.820   0.318   3.230 -0.1488 -0.3323 -0.6257
 1516SOL    HW1 4675   1.868   0.356   3.156  0.4964 -0.7927 -0.4462
 1516SOL    HW2 4676   1.819   0.388   3.296 -1.5848  0.4375 -1.4259
 1517SOL     OW 4677   0.112   2.663   2.739 -0.0327 -0.2550 -0.2781
 1517SOL    HW1 4678   0.126   2.607   2.662 -1.3645  1.7420 -2.0702
 1517SOL    HW2 4679   0.032   2.629   2.778 -1.4822  0.9533 -2.0136
 1518SOL     OW 4680   3.397   2.559   3.608 -0.2058 -0.3964 -0.5809
 1518SOL    HW1 4681   3.342   2.545   3.686 -1.3740  0.7173 -1.1672
 1518SOL    HW2 4682   3.378   2.484   3.552 -0.8071 -0.2488 -0.5828
 1519SOL     OW 4683   0.355   0.621   2.091 -0.5791 -0.4242 -0.5001
 1519SOL    HW1 4684   0.375   0.533   2.123 -0.5975  0.4174  1.9934
 1519SOL    HW2 4685   0.440   0.660   2.073 -0.5771 -0.9808 -1.8287
 1520SOL     OW 4686   2.543   1.028   3.531 -0.1648 -0.2311 -0.2679
 1520SOL    HW1 4687   2.479   0.962   3.505 -1.2896  0.8279 -0.2706
 1520SOL    HW2 4688   2.531   1.038   3.626  0.7246 -0.7616 -0.0869
 1521SOL     OW 4689   2.477   2.886   0.021  0.4686 -0.1572 -0.0625
 1521SOL    HW1 4690   2.513   2.935   0.095 -0.0266 -2.4912  1.8189
 1521SOL    HW2 4691   2.552   2.843  -0.019  0.5980  0.2745 -0.2936
 1522SOL     OW 4692   1.492   1.276   3.242  0.5813 -0.2269  0.1351
 1522SOL    HW1 4693   1.581   1.307   3.227  0.0379  1.2328 -0.1785
 1522SOL    HW2 4694   1.435   1.343   3.203 -0.6516 -2.0751 -1.4357
 1523SOL     OW 4695   2.687   2.696   0.754 -0.2661 -0.3606 -0.0084
 1523SOL    HW1 4696   2.611   2.676   0.700  0.2683  0.6975 -1.2049
 1523SOL    HW2 4697   2.667   2.780   0.795  0.8900  0.8192 -1.6966
 1524SOL     OW 4698   3.648   0.911   2.721 -0.2633 -0.3877  0.1975
 1524SOL    HW1 4699   3.565   0.894   2.765  0.0645  0.5423  1.2132
 1524SOL    HW2 4700   3.639   0.870   2.635 -1.6534 -0.5546  0.4117
 1525SOL     OW 4701   1.862   3.259   1.391  0.5888 -0.1006 -0.6256
 1525SOL    HW1 4702   1.850   3.181   1.338  0.0142 -0.0518 -0.5696
 1525SOL    HW2 4703   1.873   3.226   1.481 -2.1183 -0.0347 -0.2005
 1526SOL     OW 4704   2.472   0.567   2.098 -0.2454  0.2345  0.1941
 1526SOL    HW1 4705   2.485   0.660   2.080  1.0020 -0.0406 -0.4054
 1526SOL    HW2 4706   2.418   0.536   2.025  1.6959 -0.0768 -1.2044
 1527SOL     OW 4707   2.006   3.610   0.593 -0.2600 -0.6600 -0.3784
 1527SOL    HW1 4708   2.099   3.589   0.603 -0.1211  0.1219  0.0287
 1527SOL    HW2 4709   1.964   3.525   0.579  0.3951 -1.1171  0.3344
 1528SOL     OW 4710   1.732   3.267   2.474  0.7992  0.2608 -0.4726
 1528SOL    HW1 4711   1.796   3.322   2.520 -0.5115  2.0842 -0.7202
 1528SOL    HW2 4712   1.682   3.328   2.420 -1.5289 -0.9722  0.1390
 1529SOL     OW 4713   1.941   0.869   0.877 -0.3674  1.3194 -0.0872
 1529SOL    HW1 4714   1.910   0.954   0.844  1.4801  1.7349 -0.8694
 1529SOL    HW2 4715   1.948   0.815   0.799 -0.8595  0.6373  0.3266
 1530SOL     OW 4716   3.054   1.096   3.360 -0.0483 -0.0106  0.2490
 1530SOL    HW1 4717   3.004   1.053   3.430 -1.4064  1.0769 -0.0069
 1530SOL    HW2 4718   3.136   1.046   3.355 -0.3242 -0.7115  1.9466
 1531SOL     OW 4719   3.005   0.165   1.772 -0.3646 -0.1407 -0.4384
 1531SOL    HW1 4720   3.056   0.204   1.701  1.0528  1.1826  1.2357
 1531SOL    HW2 4721   3.013   0.070   1.757  0.8967  0.0816 -1.3691
 1532SOL     OW 4722   3.228   0.917   0.378  0.2200  0.5235 -0.0682
 1532SOL    HW1 4723   3.192   1.006   0.379 -0.3054  0.3317 -0.8431
 1532SOL    HW2 4724   3.160   0.864   0.335  0.3974 -0.3091  0.6561
 1533SOL     OW 4725   2.867   2.745   3.011 -0.1952 -0.4337  0.7357
 1533SOL    HW1 4726   2.823   2.799   2.946 -0.5746  2.1736  2.9797
 1533SOL    HW2 4727   2.933   2.696   2.961 -1.4393  0.2731 -1.7577
 1534SOL     OW 4728   2.863   3.446   2.522  0.1011  0.6729 -0.5139
 1534SOL    HW1 4729   2.941   3.406   2.563 -0.0995 -0.2013 -0.9561
 1534SOL    HW2 4730   2.837   3.515   2.583  0.4453  0.0983  0.3058
 1535SOL     OW 4731   2.275   1.532   2.395  0.8738 -0.2827  0.4377
 1535SOL    HW1 4732   2.282   1.438   2.378  2.6870 -0.4390  1.7572
 1535SOL    HW2 4733   2.183   1.552   2.380  0.4966 -2.2010 -0.1451
 1536SOL     OW 4734   0.997   3.638   1.581  0.2024 -0.0538 -0.0487
 1536SOL    HW1 4735   0.915   3.638   1.631  0.4558  4.2016  0.7854
 1536SOL    HW2 4736   1.065   3.633   1.648  0.6611 -1.1511 -0.5724
 1537SOL     OW 4737   3.403   0.175   3.593  0.4843  0.2714 -0.1169
 1537SOL    HW1 4738   3.323   0.219   3.565  0.5813  0.1810 -0.5406
 1537SOL    HW2 4739   3.448   0.241   3.647  1.1643  1.1101 -1.6475
 1538SOL     OW 4740   3.631   2.422   1.784 -0.2743 -0.1508  0.5537
 1538SOL    HW1 4741   3.589   2.422   1.698  2.1044 -0.2477 -0.7204
 1538SOL    HW2 4742   3.657   2.331   1.798  1.7341  0.2725  0.0169
 1539SOL     OW 4743   1.707   3.702   1.131 -0.1977  0.7784 -0.2433
 1539SOL    HW1 4744   1.735   3.791   1.149  1.3532  0.3894 -0.5407
 1539SOL    HW2 4745   1.788   3.654   1.114 -0.5316 -1.5181  3.3089
 1540SOL     OW 4746   1.071   2.644   3.395 -0.2751 -0.5428  0.3626
 1540SOL    HW1 4747   1.018   2.581   3.444 -0.5768 -0.6410 -0.0823
 1540SOL    HW2 4748   1.127   2.685   3.461 -0.5368 -0.8111  0.7564
 1541SOL     OW 4749   0.009   2.959   0.271 -0.0985 -0.1877  0.0026
 1541SOL    HW1 4750  -0.011   3.014   0.195  2.1168  0.0020 -0.5064
 1541SOL    HW2 4751   0.010   2.870   0.236 -1.8120 -0.4216  0.4397
 1542SOL     OW 4752   2.627   2.622   2.248  0.1341  0.4376 -0.1331
 1542SOL    HW1 4753   2.560   2.676   2.205 -0.9402 -0.1051  0.8106
 1542SOL    HW2 4754   2.710   2.655   2.214 -0.5220  2.2191 -0.1028
 1543SOL     OW 4755   3.007   1.647   2.259  0.0996 -0.7400 -0.3791
 1543SOL    HW1 4756   3.098   1.623   2.248 -0.0237 -1.5993  0.3165
 1543SOL    HW2 4757   2.970   1.577   2.314 -1.1703 -0.8468 -1.3044
 1544SOL     OW 4758   0.924   2.127   1.956  0.1322  0.2101  0.5541
 1544SOL    HW1 4759   0.937   2.065   1.884 -0.2863  1.5839 -0.7755
 1544SOL    HW2 4760   0.963   2.209   1.925  1.9760  0.2962  2.8417
 1545SOL     OW 4761   2.033   2.761   0.427  0.1367  0.7626 -0.4111
 1545SOL    HW1 4762   2.123   2.730   0.433  0.1268  0.9467  0.9370
 1545SOL    HW2 4763   1.981   2.695   0.473 -0.3732  0.8386 -0.8698
 1546SOL     OW 4764   3.741   0.126   0.793  0.1705 -0.1223 -0.6936
 1546SOL    HW1 4765   3.657   0.169   0.809  0.3096  0.2303 -0.8771
 1546SOL    HW2 4766   3.770   0.162   0.709  1.6781  1.6990  0.5101
 1547SOL     OW 4767   1.345   0.340   0.980 -0.2256  0.0580  0.0363
 1547SOL    HW1 4768   1.392   0.265   1.016 -0.4138  0.0723  0.3147
 1547SOL    HW2 4769   1.375   0.414   1.032  0.6983  0.3446 -0.8735
 1548SOL     OW 4770   3.326   0.116   3.088 -1.3709  0.0719  0.1717
 1548SOL    HW1 4771   3.333   0.046   3.154 -1.8558  1.1156  1.3837
 1548SOL    HW2 4772   3.307   0.194   3.140 -1.3936  0.9974 -1.2089
 1549SOL     OW 4773   1.153   1.054   0.588 -0.4522  0.6225 -0.0444
 1549SOL    HW1 4774   1.169   0.988   0.520 -1.6650  0.8793 -0.6064
 1549SOL    HW2 4775   1.162   1.138   0.542  0.8067  0.8610  0.6022
 1550SOL     OW 4776   3.297   0.555   3.120 -0.0322 -0.0574  0.0570
 1550SOL    HW1 4777   3.386   0.529   3.097  0.1482 -0.7827  1.4703
 1550SOL    HW2 4778   3.243   0.517   3.051  0.4278 -2.6854  1.0070
 1551SOL     OW 4779   2.363   1.822   0.223  0.2238  0.1528  0.0175
 1551SOL    HW1 4780   2.396   1.852   0.308  1.3766 -0.5904 -0.1352
 1551SOL    HW2 4781   2.417   1.745   0.202 -0.7388 -0.3028 -0.9074
 1552SOL     OW 4782   1.043   0.263   2.266 -0.3456  0.2335  0.3358
 1552SOL    HW1 4783   1.040   0.183   2.319 -0.6842  0.1084  0.1306
 1552SOL    HW2 4784   0.972   0.252   2.203  1.1079 -0.4122 -1.2712
 1553SOL     OW 4785   2.056   0.858   3.013  0.3770  0.4991  0.0897
 1553SOL    HW1 4786   2.125   0.848   2.947  1.0381 -0.2368  0.8849
 1553SOL    HW2 4787   1.991   0.792   2.989 -0.0703  1.1777 -0.6463
 1554SOL     OW 4788   1.624   3.227   0.997 -0.8651 -0.4177 -0.1615
 1554SOL    HW1 4789   1.597   3.221   0.906 -1.9422 -0.7353  0.1652
 1554SOL    HW2 4790   1.554   3.183   1.046 -0.3703 -0.1343  0.8272
 1555SOL     OW 4791   2.738   1.484   3.273 -0.1768 -0.4474  0.3013
 1555SOL    HW1 4792   2.792   1.545   3.323  0.7889 -0.9733 -0.0679
 1555SOL    HW2 4793   2.793   1.406   3.263 -1.3353 -1.3274  0.6386
 1556SOL     OW 4794   0.099   1.788   1.405  0.2100  0.1420  0.0655
 1556SOL    HW1 4795   0.066   1.860   1.351  0.1418  0.9403  1.1334
 1556SOL    HW2 4796   0.105   1.825   1.493  3.4703 -0.0964  0.0608
 1557SOL     OW 4797   1.677   2.544   2.556  0.5855 -0.2757 -0.4343
 1557SOL    HW1 4798   1.732   2.551   2.634  1.3195 -0.4273 -0.9295
 1557SOL    HW2 4799   1.707   2.465   2.511 -2.5670 -2.6478  1.2029
 1558SOL     OW 4800   3.040   2.773   2.034 -0.6530  0.0840 -0.5207
 1558SOL    HW1 4801   3.064   2.761   2.126 -0.3476  1.6328 -0.3706
 1558SOL    HW2 4802   3.030   2.684   2.000  0.3122 -0.5321  0.7221
 1559SOL     OW 4803   1.137   1.846   3.055 -0.4726 -0.3020 -0.0709
 1559SOL    HW1 4804   1.098   1.798   2.982 -1.8696  1.5917 -0.6388
 1559SOL    HW2 4805   1.063   1.875   3.108  0.3653  0.4596  0.7295
 1560SOL     OW 4806   3.712   0.083   3.709 -0.2593  0.0771  0.5233
 1560SOL    HW1 4807   3.760   0.155   3.750  1.4930 -2.0835  2.5329
 1560SOL    HW2 4808   3.639   0.126   3.664  2.0826  3.3051 -0.5496
 1561SOL     OW 4809   0.805   1.619   1.890 -0.6129  0.3043 -0.3134
 1561SOL    HW1 4810   0.765   1.532   1.880 -0.7957  0.4529 -0.8705
 1561SOL    HW2 4811   0.876   1.605   1.953  0.4107 -0.6131 -1.5949
 1562SOL     OW 4812   1.337   1.942   3.610 -0.2046 -0.3406 -0.2708
 1562SOL    HW1 4813   1.425   1.980   3.610 -0.2619 -0.2104 -0.7601
 1562SOL    HW2 4814   1.342   1.869   3.549 -0.0875 -1.1547  0.6864
 1563SOL     OW 4815   3.620   3.154   0.874  0.0378  0.2273  0.4866
 1563SOL    HW1 4816   3.711   3.182   0.869  0.0376  0.6223  2.0579
 1563SOL    HW2 4817   3.572   3.217   0.820  0.6859 -0.0033 -0.3729
 1564SOL     OW 4818   2.306   3.411   3.503  0.0206 -0.1190  0.9072
 1564SOL    HW1 4819   2.289   3.458   3.585  0.0407  2.5960 -0.5442
 1564SOL    HW2 4820   2.220   3.403   3.462 -0.0961 -2.1082  1.4454
 1565SOL     OW 4821   2.654   2.322   2.843 -0.3869  0.5763  0.4511
 1565SOL    HW1 4822   2.672   2.349   2.933 -0.2727 -0.8358  0.8799
 1565SOL    HW2 4823   2.694   2.390   2.788  0.3730  0.9510  1.4505
 1566SOL     OW 4824   0.743   2.493   2.636 -0.3239 -0.2315 -0.0065
 1566SOL    HW1 4825   0.803   2.565   2.657 -1.4547  0.6923  0.1530
 1566SOL    HW2 4826   0.774   2.419   2.688  0.0934  0.5127  0.8162
 1567SOL     OW 4827   0.392   2.316   1.812  0.8943 -0.3415 -0.6712
 1567SOL    HW1 4828   0.479   2.328   1.849  1.7894 -2.8953 -1.7331
 1567SOL    HW2 4829   0.357   2.238   1.856  0.6540 -1.4747 -2.7268
 1568SOL     OW 4830   2.540   0.730   1.129  0.7160  0.4237 -0.3769
 1568SOL    HW1 4831   2.588   0.716   1.047  0.0981  3.3144 -1.3512
 1568SOL    HW2 4832   2.452   0.698   1.111  0.5052  1.3037 -0.9993
 1569SOL     OW 4833   1.224   0.073   3.238  0.8063  0.5090  0.5861
 1569SOL    HW1 4834   1.234   0.083   3.143  3.0098  2.8533  0.9188
 1569SOL    HW2 4835   1.150   0.129   3.260  0.4562  0.1688  0.2846
 1570SOL     OW 4836   1.250   3.203   3.165 -0.6756 -0.7924 -0.0534
 1570SOL    HW1 4837   1.204   3.141   3.221  0.0773 -1.7629 -0.4695
 1570SOL    HW2 4838   1.250   3.285   3.214  0.3653 -1.7280  1.6101
 1571SOL     OW 4839   0.908   1.214   3.282 -0.6165  0.0699  0.3966
 1571SOL    HW1 4840   0.843   1.264   3.332 -1.0889 -1.7028  1.6804
 1571SOL    HW2 4841   0.858   1.174   3.212 -0.6683 -0.2699  0.6244
 1572SOL     OW 4842   1.639   2.996   1.455 -0.4974 -0.1975 -0.0051
 1572SOL    HW1 4843   1.639   2.901   1.454 -1.9423 -0.2340  1.0725
 1572SOL    HW2 4844   1.612   3.021   1.367 -1.7977 -0.8200  0.2028
 1573SOL     OW 4845   1.506   2.078   1.514  0.0901 -0.3172  0.2424
 1573SOL    HW1 4846   1.481   1.985   1.520  2.5263 -1.1777 -1.3799
 1573SOL    HW2 4847   1.423   2.125   1.509 -1.2692 -2.2351  2.4113
 1574SOL     OW 4848   1.750   1.055   0.182  0.0613 -0.5240  0.2445
 1574SOL    HW1 4849   1.658   1.080   0.176  0.4428  1.2179  1.0299
 1574SOL    HW2 4850   1.751   0.980   0.241 -0.7915 -0.0385  0.8964
 1575SOL     OW 4851   0.953   3.186   1.671 -0.5475  0.0086  0.2425
 1575SOL    HW1 4852   0.900   3.208   1.747 -3.3490  0.0756 -1.5813
 1575SOL    HW2 4853   0.904   3.219   1.596  0.8065 -2.2131 -1.8085
 1576SOL     OW 4854   0.975   1.484   1.038  0.1110 -0.2044  0.0623
 1576SOL    HW1 4855   0.885   1.451   1.039  0.1280 -0.2765  1.6959
 1576SOL    HW2 4856   0.996   1.492   0.945 -1.4911 -0.4229 -0.3577
 1577SOL     OW 4857   3.642   1.352   3.661 -0.6548  0.3043  0.1144
 1577SOL    HW1 4858   3.619   1.264   3.693  1.4834 -0.5965 -0.6464
 1577SOL    HW2 4859   3.582   1.410   3.707 -2.5303 -1.5838  0.2246
 1578SOL     OW 4860   3.578   2.613   2.817  0.8324 -0.1870 -0.3338
 1578SOL    HW1 4861   3.489   2.627   2.783  0.8448 -0.7040 -0.5792
 1578SOL    HW2 4862   3.565   2.562   2.897  0.8742  0.1970 -0.0780
 1579SOL     OW 4863   0.429   1.136   0.964  0.2850 -0.8278  0.7128
 1579SOL    HW1 4864   0.367   1.204   0.990 -0.4441 -1.2594  0.1452
 1579SOL    HW2 4865   0.385   1.053   0.985 -0.2374 -1.1963 -1.5528
 1580SOL     OW 4866   0.345   1.062   0.378 -0.1293  0.0422 -0.5578
 1580SOL    HW1 4867   0.291   1.067   0.299 -1.5045  1.3364  0.4119
 1580SOL    HW2 4868   0.357   0.968   0.393  0.2216 -0.2266 -2.3180
 1581SOL     OW 4869   2.022   1.152   2.951 -0.0147  0.9017 -0.1228
 1581SOL    HW1 4870   2.069   1.219   3.002  0.7673 -0.2891  0.7844
 1581SOL    HW2 4871   2.063   1.070   2.977 -1.8019 -0.0705 -0.2509
 1582SOL     OW 4872   1.438   2.387   2.872 -1.1226  0.4162 -0.0996
 1582SOL    HW1 4873   1.423   2.467   2.821 -1.4036 -0.1554 -0.9404
 1582SOL    HW2 4874   1.422   2.316   2.810 -1.5598 -0.3087  0.8190
 1583SOL     OW 4875   2.987   0.795   0.959 -0.3254  0.2224  0.2231
 1583SOL    HW1 4876   3.048   0.835   0.897  0.0150  0.1641  0.5201
 1583SOL    HW2 4877   2.925   0.865   0.979 -0.5358  0.1958 -0.3060
 1584SOL     OW 4878   1.621   2.401   1.553 -0.0526  0.4835 -0.5813
 1584SOL    HW1 4879   1.597   2.336   1.487  0.3959  0.4261 -0.6943
 1584SOL    HW2 4880   1.593   2.364   1.636  0.1970  0.1451 -0.6461
 1585SOL     OW 4881   2.764   3.590   0.975  0.7269 -0.9296  0.2238
 1585SOL    HW1 4882   2.694   3.606   1.038 -0.0372  0.4350 -0.9084
 1585SOL    HW2 4883   2.770   3.671   0.925  0.1786 -2.4634 -2.5315
 1586SOL     OW 4884   2.741   1.654  -0.017  0.0677 -0.3121 -0.0119
 1586SOL    HW1 4885   2.674   1.619   0.041 -1.0702 -0.9433 -1.6288
 1586SOL    HW2 4886   2.819   1.662   0.038 -0.9934 -0.7057  1.6193
 1587SOL     OW 4887   3.273   1.022   2.311 -0.6578 -1.0101  0.6373
 1587SOL    HW1 4888   3.341   0.957   2.294 -0.1505 -0.6635  1.2717
 1587SOL    HW2 4889   3.265   1.024   2.407  0.4696  0.9863  0.7399
 1588SOL     OW 4890   3.439   1.129   2.030 -0.3951 -0.1372 -0.2264
 1588SOL    HW1 4891   3.516   1.076   2.053 -0.7817 -0.9384 -0.7182
 1588SOL    HW2 4892   3.365   1.071   2.048 -0.8581  0.4161 -0.3299
 1589SOL     OW 4893   3.460   2.789   0.057  0.6140  0.0839  0.6215
 1589SOL    HW1 4894   3.460   2.881   0.030  0.1946 -0.3089 -0.7848
 1589SOL    HW2 4895   3.425   2.742  -0.018  1.9876 -1.3760  0.8598
 1590SOL     OW 4896   2.832   2.902   2.473  0.1500  0.0595  0.7008
 1590SOL    HW1 4897   2.883   2.977   2.505  4.0492 -0.7913 -2.6420
 1590SOL    HW2 4898   2.783   2.937   2.398  1.7363 -0.5063 -0.6709
 1591SOL     OW 4899   2.976   0.287   0.544 -0.0819  0.4237 -0.3670
 1591SOL    HW1 4900   2.960   0.323   0.457  1.5160  2.5199  0.1352
 1591SOL    HW2 4901   2.897   0.307   0.594 -0.1169  1.2608 -0.7401
 1592SOL     OW 4902   1.124   3.680   2.940  0.1870 -0.0762 -0.0709
 1592SOL    HW1 4903   1.186   3.613   2.970 -0.1235 -0.0765  0.5828
 1592SOL    HW2 4904   1.174   3.762   2.947  0.0014 -0.0320  0.8076
 1593SOL     OW 4905   2.911   0.243   1.024 -0.2912  0.2518  0.0480
 1593SOL    HW1 4906   2.952   0.328   1.006 -1.6445  0.9278  0.0691
 1593SOL    HW2 4907   2.837   0.263   1.081 -0.6238 -0.9488  0.0716
 1594SOL     OW 4908   1.336   2.592   2.439 -0.4182  0.0455  0.1954
 1594SOL    HW1 4909   1.421   2.560   2.410 -0.8758 -1.7796  0.7698
 1594SOL    HW2 4910   1.345   2.599   2.534 -1.4141 -1.8826  0.4779
 1595SOL     OW 4911   0.643   3.449  -0.024 -0.2546  0.6480 -0.0009
 1595SOL    HW1 4912   0.638   3.536   0.015 -1.5296 -0.2637  2.0833
 1595SOL    HW2 4913   0.676   3.393   0.047 -1.0332 -0.8224 -0.7600
 1596SOL     OW 4914   1.941   3.436   2.250  0.5376 -0.8574 -0.3000
 1596SOL    HW1 4915   1.976   3.368   2.307  0.6880 -1.3858 -1.0117
 1596SOL    HW2 4916   1.941   3.397   2.162 -1.6227 -0.7934 -0.3691
 1597SOL     OW 4917   1.487   0.126   1.024 -0.0211  0.4778  0.0146
 1597SOL    HW1 4918   1.411   0.068   1.025 -0.6887  1.3358  0.8660
 1597SOL    HW2 4919   1.547   0.091   1.089 -0.9295  1.3640  1.3697
 1598SOL     OW 4920   1.140   2.199   2.709  1.1203  0.4322  0.0562
 1598SOL    HW1 4921   1.074   2.170   2.772  0.0332  1.3877 -0.6110
 1598SOL    HW2 4922   1.148   2.293   2.723 -0.0889  0.9047 -2.0410
 1599SOL     OW 4923   0.976   2.089   2.903  0.2757  0.3659  0.3229
 1599SOL    HW1 4924   0.964   2.144   2.981  0.4252  0.2088  0.4580
 1599SOL    HW2 4925   0.917   2.015   2.916  1.8559 -0.8001  1.3520
 1600SOL     OW 4926   0.367   3.158   2.070 -0.7721  0.0699 -0.1200
 1600SOL    HW1 4927   0.453   3.140   2.032 -0.7323  0.9174 -0.4595
 1600SOL    HW2 4928   0.362   3.253   2.074 -1.4382  0.0201  0.5082
 1601SOL     OW 4929   3.207   2.769   1.495  0.2003  0.5744 -0.1345
 1601SOL    HW1 4930   3.282   2.829   1.498 -0.7616  1.9123 -1.4825
 1601SOL    HW2 4931   3.141   2.815   1.443 -1.3572 -0.8202  0.5191
 1602SOL     OW 4932   0.312   3.266   2.413 -0.6526  0.0755  0.7796
 1602SOL    HW1 4933   0.379   3.220   2.463  0.2958 -0.1680 -0.6367
 1602SOL    HW2 4934   0.357   3.295   2.334 -2.4247 -0.9629 -0.7029
 1603SOL     OW 4935   2.073   2.892   2.763  0.5405 -0.1703 -0.3575
 1603SOL    HW1 4936   2.109   2.805   2.747 -0.0976  0.1609 -4.9540
 1603SOL    HW2 4937   1.995   2.876   2.817  1.0119 -2.2769 -0.1996
 1604SOL     OW 4938   3.644   0.849   3.101 -0.4851 -0.3638  0.0641
 1604SOL    HW1 4939   3.638   0.833   3.195  2.0074  0.0721  0.3734
 1604SOL    HW2 4940   3.591   0.928   3.087 -1.8897 -1.1315  0.8478
 1605SOL     OW 4941   3.241   0.083   0.911  0.3919 -0.9852 -0.1477
 1605SOL    HW1 4942   3.151   0.060   0.930 -0.0310  1.3482  1.0910
 1605SOL    HW2 4943   3.237   0.173   0.877  2.2867 -0.3385  1.1119
 1606SOL     OW 4944   0.034   3.288   0.095  0.2336  0.0735  0.1502
 1606SOL    HW1 4945  -0.032   3.291   0.026 -0.7432 -2.5847  0.8468
 1606SOL    HW2 4946   0.026   3.372   0.140  0.8677  1.8511 -2.8240
 1607SOL     OW 4947   0.951   2.094   2.228 -0.2844  0.1062 -0.0586
 1607SOL    HW1 4948   0.974   2.003   2.250  0.4545  0.1441 -0.6510
 1607SOL    HW2 4949   0.933   2.092   2.134 -2.8499  0.0685  0.3791
 1608SOL     OW 4950   0.498   0.379   3.511 -0.4812 -0.6017  0.0367
 1608SOL    HW1 4951   0.488   0.360   3.605  0.4229 -0.7325  0.1107
 1608SOL    HW2 4952   0.522   0.471   3.508 -0.3354 -0.6422 -0.0531
 1609SOL     OW 4953   1.324   2.027   2.141 -1.0893  0.1637  1.1309
 1609SOL    HW1 4954   1.405   2.065   2.174 -0.7565  0.0050  0.5093
 1609SOL    HW2 4955   1.343   1.934   2.130 -1.7905 -0.1400  2.3048
 1610SOL     OW 4956   3.130   2.613   0.550  0.0412  0.4066 -0.1369
 1610SOL    HW1 4957   3.118   2.690   0.607  1.5546 -0.6274  1.6934
 1610SOL    HW2 4958   3.126   2.538   0.610 -0.0372 -0.8641 -1.6745
 1611SOL     OW 4959   2.390   3.186   1.601 -0.5633  0.1874  0.3898
 1611SOL    HW1 4960   2.345   3.230   1.529 -2.6097  0.4815  1.7529
 1611SOL    HW2 4961   2.406   3.097   1.569 -0.9188  0.4757 -0.6232
 1612SOL     OW 4962   2.789   0.576   1.253  0.1468 -0.2613  0.1728
 1612SOL    HW1 4963   2.814   0.665   1.229  1.3242 -0.4846  0.4784
 1612SOL    HW2 4964   2.740   0.544   1.178 -2.4505  1.4287  1.0267
 1613SOL     OW 4965   3.024   2.211   2.591 -0.3534 -0.3810  0.1734
 1613SOL    HW1 4966   3.092   2.176   2.534  1.6544  0.6397  1.8041
 1613SOL    HW2 4967   3.071   2.266   2.654 -2.8034  1.1425  0.8184
 1614SOL     OW 4968   0.694   1.518   0.864 -0.2231  0.0814  0.5653
 1614SOL    HW1 4969   0.760   1.507   0.795  0.4696  1.4730  0.9691
 1614SOL    HW2 4970   0.663   1.429   0.882  1.5965 -0.6300  0.4165
 1615SOL     OW 4971   2.343   3.679   1.315 -0.0591  0.4347 -0.0051
 1615SOL    HW1 4972   2.417   3.631   1.352 -1.2683  0.1423  2.2255
 1615SOL    HW2 4973   2.297   3.714   1.391 -2.7280 -0.1597 -1.2299
 1616SOL     OW 4974   1.901   1.293   0.166 -0.6672  0.4623 -0.4607
 1616SOL    HW1 4975   1.838   1.227   0.194  0.0474 -1.2260 -2.5773
 1616SOL    HW2 4976   1.980   1.273   0.217 -0.4938 -0.2391 -0.9999
 1617SOL     OW 4977   3.220   2.987   1.676  0.0660 -0.2933 -0.2360
 1617SOL    HW1 4978   3.218   3.068   1.728 -0.7890 -0.6327  0.2987
 1617SOL    HW2 4979   3.311   2.958   1.680  0.7644  1.5166 -1.8566
 1618SOL     OW 4980   0.332   0.641   1.605 -0.3799  0.2201 -0.0583
 1618SOL    HW1 4981   0.282   0.560   1.596 -1.1800  0.6619  0.2483
 1618SOL    HW2 4982   0.282   0.693   1.669  0.5338  0.6395  0.3407
 1619SOL     OW 4983   0.730   0.278   1.361 -0.1571 -0.6203  0.6583
 1619SOL    HW1 4984   0.778   0.269   1.443 -0.6916 -0.5191  0.9918
 1619SOL    HW2 4985   0.656   0.217   1.371 -1.5696  1.1109  1.2559
 1620SOL     OW 4986   1.844   2.348   3.399  0.0038  0.2160  0.1346
 1620SOL    HW1 4987   1.781   2.403   3.446 -0.1945 -0.0762  0.2087
 1620SOL    HW2 4988   1.791   2.289   3.346  0.2258  0.4438 -0.3497
 1621SOL     OW 4989   3.444   0.350   2.969  0.2016 -0.3763 -0.4448
 1621SOL    HW1 4990   3.417   0.268   3.011 -1.1621 -0.6362 -1.7571
 1621SOL    HW2 4991   3.535   0.334   2.942  1.6099  0.2169  3.3206
 1622SOL     OW 4992   0.280   1.204   2.442  0.2793  0.3999  0.1918
 1622SOL    HW1 4993   0.273   1.299   2.442  0.2258  0.4421 -1.7279
 1622SOL    HW2 4994   0.217   1.175   2.508  1.2273  1.7085  1.7517
 1623SOL     OW 4995   0.226   2.071   0.775  0.2508 -0.4827 -0.1944
 1623SOL    HW1 4996   0.316   2.048   0.754  0.3201 -0.1207 -0.2944
 1623SOL    HW2 4997   0.200   2.133   0.707  0.3732  0.4568  0.5790
 1624SOL     OW 4998   3.659   0.599   0.249 -0.0784 -0.7773 -0.3077
 1624SOL    HW1 4999   3.620   0.513   0.264 -2.8171  0.7206  2.7112
 1624SOL    HW2 5000   3.585   0.655   0.225  1.4565  0.9489 -1.2947
 1625SOL     OW 5001   3.309   1.946   2.636  0.4090 -0.0713 -0.1190
 1625SOL    HW1 5002   3.293   1.888   2.710 -0.3318 -0.7472 -0.7965
 1625SOL    HW2 5003   3.235   1.932   2.577  1.1685  0.1746 -1.1617
 1626SOL     OW 5004   2.256   1.683   1.060  0.1245 -0.2565 -0.5336
 1626SOL    HW1 5005   2.224   1.677   1.150 -1.0922 -0.5601 -0.9665
 1626SOL    HW2 5006   2.293   1.771   1.053  1.0625 -0.5423  0.5093
 1627SOL     OW 5007   2.419   1.113   1.373 -0.1392 -0.1823 -0.0972
 1627SOL    HW1 5008   2.416   1.099   1.278  0.9344 -0.4558 -0.0973
 1627SOL    HW2 5009   2.454   1.202   1.382 -0.6299  0.0017  0.0462
 1628SOL     OW 5010   2.216   3.291   1.430 -0.1570  0.0107  0.0827
 1628SOL    HW1 5011   2.180   3.202   1.430 -0.1456 -0.0012  0.7016
 1628SOL    HW2 5012   2.217   3.317   1.338  1.0902 -1.1339 -0.2662
 1629SOL     OW 5013   0.741   3.112   2.369 -0.1055 -0.1254  0.2521
 1629SOL    HW1 5014   0.823   3.087   2.411  0.1654  0.3309  0.0141
 1629SOL    HW2 5015   0.743   3.067   2.285  0.2145  0.3836 -0.0257
 1630SOL     OW 5016   0.381   2.892   0.132  0.2055  0.3515 -0.1363
 1630SOL    HW1 5017   0.349   2.975   0.098  0.1978  0.6764  0.6464
 1630SOL    HW2 5018   0.471   2.885   0.099 -0.6363 -0.6231 -2.4566
 1631SOL     OW 5019   2.168   2.854   3.376  0.2012  0.9493  0.0526
 1631SOL    HW1 5020   2.119   2.905   3.441 -1.3181  1.3986 -1.3586
 1631SOL    HW2 5021   2.129   2.879   3.292  0.0599 -1.7939 -0.8117
 1632SOL     OW 5022   3.547   1.443   1.652 -0.3067 -0.0730 -0.1847
 1632SOL    HW1 5023   3.641   1.448   1.670  0.1490  0.2870 -2.3102
 1632SOL    HW2 5024   3.528   1.349   1.651 -0.0844 -0.1310  0.7635
 1633SOL     OW 5025   3.018   0.375   3.298 -0.0132 -0.4738  0.0613
 1633SOL    HW1 5026   2.950   0.432   3.333  0.6156  0.7741 -0.7122
 1633SOL    HW2 5027   2.982   0.286   3.309 -0.5038 -0.0681  2.4097
 1634SOL     OW 5028   2.460   1.636   2.651 -0.5995  0.2924 -0.2772
 1634SOL    HW1 5029   2.426   1.548   2.633 -2.4899  1.2282 -1.6040
 1634SOL    HW2 5030   2.421   1.660   2.735  1.5724 -0.8536  1.1629
 1635SOL     OW 5031   0.526   0.672   2.386 -0.3880  0.3195  0.1396
 1635SOL    HW1 5032   0.578   0.689   2.308 -0.4112 -0.4441 -0.0428
 1635SOL    HW2 5033   0.441   0.643   2.353 -0.3633 -0.1133  0.4495
 1636SOL     OW 5034   1.541   0.995   3.230 -0.2650  0.2677 -0.3374
 1636SOL    HW1 5035   1.474   0.951   3.178 -0.3489  1.4215 -1.2415
 1636SOL    HW2 5036   1.512   1.086   3.236  0.8051  0.6120 -0.0592
 1637SOL     OW 5037   1.864   3.096   1.612  0.3690 -0.1672  0.5482
 1637SOL    HW1 5038   1.793   3.049   1.569  0.0163  0.0556  0.8802
 1637SOL    HW2 5039   1.904   3.032   1.671 -1.5660  0.4871  2.7521
 1638SOL     OW 5040   2.228   0.939  -0.007  0.3825  0.2948  0.6041
 1638SOL    HW1 5041   2.263   1.027  -0.021  1.0443 -0.0064  0.3248
 1638SOL    HW2 5042   2.189   0.942   0.080  1.5381  0.5206  1.1412
 1639SOL     OW 5043   1.924   3.262   3.007 -0.0400  0.1322 -0.1062
 1639SOL    HW1 5044   1.894   3.244   2.918  0.3202  1.0643 -0.4299
 1639SOL    HW2 5045   2.000   3.205   3.019  0.1259  0.2615 -0.5236
 1640SOL     OW 5046   0.564   2.446   3.164  0.3873  0.1151 -0.1629
 1640SOL    HW1 5047   0.604   2.464   3.079  2.5982  2.3547  1.1991
 1640SOL    HW2 5048   0.480   2.491   3.161  0.3521  0.0000 -1.2271
 1641SOL     OW 5049   2.215   0.781   3.256 -0.4793  0.3307 -0.8486
 1641SOL    HW1 5050   2.269   0.854   3.288 -0.7726  0.6084 -0.9771
 1641SOL    HW2 5051   2.156   0.821   3.192 -0.0191 -0.1910 -1.6099
 1642SOL     OW 5052   1.628   0.288   0.491  0.3186 -0.1222 -0.2295
 1642SOL    HW1 5053   1.714   0.321   0.516  1.4118 -2.2375 -0.9601
 1642SOL    HW2 5054   1.568   0.323   0.557  1.8889  0.5971  0.8691
 1643SOL     OW 5055   2.997   2.005   3.448  0.9818 -0.5844 -0.5322
 1643SOL    HW1 5056   2.992   1.910   3.437  1.2299 -0.6795  0.1230
 1643SOL    HW2 5057   3.067   2.018   3.512  0.9607  0.0426 -0.6298
 1644SOL     OW 5058   3.349   0.951   0.612  0.5831  0.3125  0.3286
 1644SOL    HW1 5059   3.301   0.914   0.537 -0.8513  1.1513  0.7864
 1644SOL    HW2 5060   3.424   0.996   0.572  0.6676 -0.4933 -0.4697
 1645SOL     OW 5061   2.894   1.660   3.447  0.5680  0.6618 -0.5055
 1645SOL    HW1 5062   2.975   1.629   3.486  0.0833 -1.3786 -1.0227
 1645SOL    HW2 5063   2.826   1.633   3.508 -0.0748 -1.4035 -2.0200
 1646SOL     OW 5064   0.792   2.500   1.358  1.0420  0.3067  0.2462
 1646SOL    HW1 5065   0.798   2.434   1.288  1.5112  2.2638 -1.6551
 1646SOL    HW2 5066   0.834   2.458   1.433 -0.4075 -2.2860 -0.2437
 1647SOL     OW 5067   1.122   2.573   0.312 -0.0661  0.0061 -0.6259
 1647SOL    HW1 5068   1.162   2.505   0.257  1.8138  1.3403 -1.0281
 1647SOL    HW2 5069   1.194   2.604   0.367 -1.6167 -0.4761  1.8468
 1648SOL     OW 5070   2.445   1.441   3.656 -0.7742  0.1687  0.2489
 1648SOL    HW1 5071   2.397   1.524   3.659 -0.7006  0.2374 -0.3925
 1648SOL    HW2 5072   2.395   1.386   3.597 -0.2837  0.1046 -0.1155
 1649SOL     OW 5073   2.198   3.458   3.163 -0.0874 -0.3659  0.2179
 1649SOL    HW1 5074   2.228   3.372   3.136 -2.5415 -0.8440 -1.3450
 1649SOL    HW2 5075   2.215   3.515   3.088 -3.3067 -0.7975 -1.0085
 1650SOL     OW 5076   2.937   0.880   1.622  0.3937  0.3236 -0.0150
 1650SOL    HW1 5077   2.916   0.796   1.582  2.3782  0.4827 -1.5261
 1650SOL    HW2 5078   2.856   0.931   1.614 -0.2389 -0.7591 -0.8575
 1651SOL     OW 5079   3.542   1.243   2.373 -0.5567 -0.2767  0.3488
 1651SOL    HW1 5080   3.596   1.261   2.449 -1.1366 -0.2184  0.7533
 1651SOL    HW2 5081   3.580   1.164   2.334  2.0326  1.7042 -1.4597
 1652SOL     OW 5082   0.209   3.346   3.293  0.0867 -0.1456  0.6992
 1652SOL    HW1 5083   0.282   3.376   3.348  1.8766 -1.5612 -0.7505
 1652SOL    HW2 5084   0.172   3.272   3.341  0.0021  0.1871  1.1527
 1653SOL     OW 5085   0.198   2.265   2.223  0.1284  0.1794  0.1965
 1653SOL    HW1 5086   0.272   2.229   2.272  1.1071 -0.6546 -1.7517
 1653SOL    HW2 5087   0.123   2.214   2.253  0.2176  1.3137  2.5040
 1654SOL     OW 5088   2.517   0.669   3.463 -0.1280  0.9118  0.7295
 1654SOL    HW1 5089   2.462   0.654   3.540 -3.1267  1.8619 -1.0542
 1654SOL    HW2 5090   2.541   0.761   3.468 -0.9485  1.1670  0.2118
 1655SOL     OW 5091   0.523   2.168   1.487 -0.4778 -0.2533 -0.1776
 1655SOL    HW1 5092   0.499   2.122   1.567 -0.3766  0.6290  0.3767
 1655SOL    HW2 5093   0.458   2.140   1.423  1.1321 -3.2857 -0.6722
 1656SOL     OW 5094   1.808   3.343   1.753 -0.1985 -0.0253  0.5585
 1656SOL    HW1 5095   1.817   3.252   1.723 -2.6552 -0.4319  0.8650
 1656SOL    HW2 5096   1.833   3.340   1.845  0.6436 -0.1810  0.3354
 1657SOL     OW 5097   2.454   2.166   0.642 -0.0383 -0.3808  0.8357
 1657SOL    HW1 5098   2.424   2.244   0.689 -2.4689 -1.4331  1.1907
 1657SOL    HW2 5099   2.545   2.185   0.620 -0.5556  2.5820  0.8153
 1658SOL     OW 5100   1.136   3.200   0.972 -0.4498 -0.3624 -0.0797
 1658SOL    HW1 5101   1.066   3.145   0.938  0.9299 -1.8907 -0.5459
 1658SOL    HW2 5102   1.195   3.139   1.017  1.3719  0.6385 -1.0118
 1659SOL     OW 5103   3.359   3.494   0.259 -0.1887  0.1517 -0.3147
 1659SOL    HW1 5104   3.387   3.456   0.176  0.5581  1.1802 -0.5606
 1659SOL    HW2 5105   3.263   3.493   0.255 -0.2104 -1.9750 -0.1413
 1660SOL     OW 5106   3.151   3.430   3.138  0.1828  0.8739 -0.3929
 1660SOL    HW1 5107   3.220   3.483   3.177  1.7504 -2.6970  2.2247
 1660SOL    HW2 5108   3.116   3.377   3.210 -2.2033 -0.6958 -2.4749
 1661SOL     OW 5109   0.608   3.283   2.163 -0.1273 -0.3167  0.2133
 1661SOL    HW1 5110   0.659   3.264   2.084  0.4411 -1.1014  0.7547
 1661SOL    HW2 5111   0.574   3.198   2.190  0.0587 -0.1253  1.0692
 1662SOL     OW 5112   1.054   0.919   0.808 -0.0531 -0.2069 -0.5207
 1662SOL    HW1 5113   1.119   0.850   0.819  0.9142  0.5601 -1.2181
 1662SOL    HW2 5114   1.076   0.959   0.724 -0.0502  1.4885  0.2391
 1663SOL     OW 5115   2.425   0.807   3.006 -0.2571 -0.3339 -0.4892
 1663SOL    HW1 5116   2.359   0.823   2.939 -3.1644  0.4322  2.3132
 1663SOL    HW2 5117   2.398   0.725   3.048  2.1508 -1.4313 -0.8765
 1664SOL     OW 5118   1.216   1.400   2.192 -0.8281 -0.1476  0.3237
 1664SOL    HW1 5119   1.302   1.376   2.156 -1.0587 -0.2796 -0.1508
 1664SOL    HW2 5120   1.196   1.330   2.254 -0.2147  0.3256  1.0677
 1665SOL     OW 5121   1.179   0.363   1.945 -0.8263  0.8231  0.7149
 1665SOL    HW1 5122   1.157   0.288   1.890 -0.7997  2.1049 -1.1056
 1665SOL    HW2 5123   1.267   0.345   1.976 -0.2948  0.7071 -0.8101
 1666SOL     OW 5124   0.716   0.174   2.801 -0.2514  0.4821 -0.1038
 1666SOL    HW1 5125   0.653   0.225   2.750  0.2877  0.4429 -0.8169
 1666SOL    HW2 5126   0.662   0.118   2.856 -0.8408  0.4962 -0.6626
 1667SOL     OW 5127   0.517   1.085   2.449  0.2976 -0.4252 -0.3862
 1667SOL    HW1 5128   0.555   1.105   2.535 -0.7775 -2.5201  0.6393
 1667SOL    HW2 5129   0.431   1.127   2.451 -1.1105 -3.1145  0.9652
 1668SOL     OW 5130   3.095   0.260   1.518  0.2673 -0.4358 -0.1533
 1668SOL    HW1 5131   3.164   0.320   1.489 -0.3503  0.2232 -0.2838
 1668SOL    HW2 5132   3.041   0.247   1.441 -0.3831 -0.0658  0.2271
 1669SOL     OW 5133   1.763   3.626   2.362  0.6672  0.3708  0.0765
 1669SOL    HW1 5134   1.821   3.567   2.313 -1.2424 -0.0652 -1.7941
 1669SOL    HW2 5135   1.694   3.568   2.396 -1.2203  1.4289 -1.7570
 1670SOL     OW 5136   3.043   3.218   0.050 -0.2434  0.0836 -0.3241
 1670SOL    HW1 5137   3.052   3.172   0.134 -1.1262 -0.2938 -0.4241
 1670SOL    HW2 5138   3.121   3.191   0.000  0.7226  0.9775  0.6641
 1671SOL     OW 5139   1.567   2.859   1.169 -0.3277  0.0557 -0.0141
 1671SOL    HW1 5140   1.627   2.803   1.120  1.5132  0.6343  1.4544
 1671SOL    HW2 5141   1.530   2.802   1.235 -0.8478 -0.1313 -0.4615
 1672SOL     OW 5142   0.459   1.874   1.615 -0.7099 -0.4186  0.0574
 1672SOL    HW1 5143   0.498   1.837   1.535  0.3369 -0.1378  0.4314
 1672SOL    HW2 5144   0.370   1.838   1.616 -0.2759 -1.5548 -0.4918
 1673SOL     OW 5145   3.444   1.718   1.581  0.1764  0.1579  0.0578
 1673SOL    HW1 5146   3.448   1.630   1.619  0.3902  0.1292 -0.0277
 1673SOL    HW2 5147   3.535   1.738   1.559  0.2196  0.6658  0.6817
 1674SOL     OW 5148   2.742   0.798   3.618  0.1994  0.4163  0.6557
 1674SOL    HW1 5149   2.680   0.728   3.641  0.3064  0.4098  0.9311
 1674SOL    HW2 5150   2.760   0.841   3.701  2.1608 -0.8840  0.9593
 1675SOL     OW 5151   1.288   1.364   0.507 -0.0654  0.1495 -0.4901
 1675SOL    HW1 5152   1.260   1.304   0.438  3.0718  0.3674 -2.1347
 1675SOL    HW2 5153   1.248   1.448   0.483  0.2416  0.0094 -1.5331
 1676SOL     OW 5154   2.686   3.050   3.476  0.4063  0.2468  0.3911
 1676SOL    HW1 5155   2.597   3.085   3.488  0.9214  1.8535 -0.1840
 1676SOL    HW2 5156   2.673   2.970   3.424 -0.7426  0.1042  0.8558
 1677SOL     OW 5157   2.308   1.898   1.475 -0.0726 -0.0803 -0.5224
 1677SOL    HW1 5158   2.319   1.819   1.527  1.8738 -0.0709 -0.8513
 1677SOL    HW2 5159   2.395   1.938   1.472 -0.6580  1.2150 -1.7214
 1678SOL     OW 5160   0.551   0.289   3.104 -0.1873  0.0145  0.1950
 1678SOL    HW1 5161   0.477   0.251   3.057 -1.8236  0.3026  2.3899
 1678SOL    HW2 5162   0.560   0.377   3.067  1.3466 -1.1166 -2.4326
 1679SOL     OW 5163   1.117   1.084   1.027 -0.1520  0.4304  0.2718
 1679SOL    HW1 5164   1.035   1.099   1.075 -0.6719 -0.7318 -0.2118
 1679SOL    HW2 5165   1.089   1.051   0.941  0.8294 -0.2648  0.2023
 1680SOL     OW 5166   1.297   2.989   0.634 -0.2436  0.2429  0.6940
 1680SOL    HW1 5167   1.354   2.975   0.710  1.6624 -1.7845 -0.9465
 1680SOL    HW2 5168   1.358   3.003   0.562 -2.0018  2.3898 -0.4779
 1681SOL     OW 5169   0.044   1.974   2.477 -0.1013 -0.1344  0.3857
 1681SOL    HW1 5170   0.049   1.987   2.571 -0.9613 -1.8929  0.7052
 1681SOL    HW2 5171   0.036   2.062   2.441  0.7798  0.6023  1.9009
 1682SOL     OW 5172   3.682   2.827   1.159 -0.5714  0.8478 -0.0985
 1682SOL    HW1 5173   3.718   2.770   1.091 -1.8648  1.7739 -1.6353
 1682SOL    HW2 5174   3.625   2.770   1.211  0.2589  0.1734  0.0849
 1683SOL     OW 5175   1.801   0.745   3.202 -0.3388 -0.0614  1.1086
 1683SOL    HW1 5176   1.815   0.839   3.208 -1.1416  0.0568  1.2992
 1683SOL    HW2 5177   1.849   0.718   3.124 -0.7018  0.6390  0.6318
 1684SOL     OW 5178   2.162   1.455   0.922 -0.1193  0.2365 -0.0967
 1684SOL    HW1 5179   2.206   1.538   0.941 -0.7107  0.4587  0.3244
 1684SOL    HW2 5180   2.145   1.458   0.827  1.5405 -0.2417 -0.4403
 1685SOL     OW 5181   1.115   2.639   1.980  0.3405  0.3062  0.0719
 1685SOL    HW1 5182   1.206   2.629   2.007  1.4685  0.1547 -3.3193
 1685SOL    HW2 5183   1.082   2.550   1.970  0.2812  0.3497 -0.1217
 1686SOL     OW 5184   1.564   3.543   3.478  0.5808 -0.1170 -0.0583
 1686SOL    HW1 5185   1.600   3.629   3.502 -0.4108  0.5223 -0.7592
 1686SOL    HW2 5186   1.494   3.529   3.542  1.1796 -0.7316  0.4735
 1687SOL     OW 5187   2.991   3.670   0.359  0.9959 -0.7670  0.5507
 1687SOL    HW1 5188   3.004   3.590   0.308  1.6081 -0.3085 -0.0140
 1687SOL    HW2 5189   2.914   3.651   0.413  1.5649 -2.0043  0.9576
 1688SOL     OW 5190   1.073   2.451   3.671 -0.7009 -0.6048  0.9160
 1688SOL    HW1 5191   1.109   2.387   3.609 -1.4433 -0.4056  0.2681
 1688SOL    HW2 5192   1.131   2.446   3.747  0.1267 -0.9772  0.2742
 1689SOL     OW 5193   0.851   2.820   2.938  0.1010  0.6244 -0.0045
 1689SOL    HW1 5194   0.867   2.757   3.009 -0.2790  0.2682 -0.2284
 1689SOL    HW2 5195   0.859   2.906   2.980  1.6724  0.4687  0.0855
 1690SOL     OW 5196   2.129   2.587   3.100  0.2477  0.7648  0.3890
 1690SOL    HW1 5197   2.107   2.500   3.134  2.2462 -0.5788 -1.4545
 1690SOL    HW2 5198   2.181   2.627   3.169 -0.1257  0.1986  1.0097
 1691SOL     OW 5199   3.630   0.487   3.637  0.3631  0.1992  0.7045
 1691SOL    HW1 5200   3.714   0.505   3.680 -0.1763  2.2485  0.9856
 1691SOL    HW2 5201   3.571   0.462   3.708  0.3060  0.3913  0.7243
 1692SOL     OW 5202   1.390   1.632   1.910  0.1575 -0.3057 -0.6216
 1692SOL    HW1 5203   1.309   1.582   1.897  1.0520 -1.6098 -1.3732
 1692SOL    HW2 5204   1.457   1.580   1.866  1.6248  0.1406  1.0170
 1693SOL     OW 5205   1.037   0.723   1.583 -0.7282  0.3920  0.6386
 1693SOL    HW1 5206   1.111   0.724   1.521 -1.3871  3.7406 -0.3249
 1693SOL    HW2 5207   0.962   0.700   1.529 -0.7790 -0.5163  1.0820
 1694SOL     OW 5208   3.322   1.774   0.194 -0.0844 -0.2737  0.1568
 1694SOL    HW1 5209   3.344   1.681   0.184  0.1782 -0.4733  2.1192
 1694SOL    HW2 5210   3.238   1.773   0.240 -1.1061  0.4968 -1.6169
 1695SOL     OW 5211   2.147   1.308   0.279 -1.0146 -0.0506 -0.3610
 1695SOL    HW1 5212   2.196   1.247   0.335 -0.8464 -1.1268 -1.6346
 1695SOL    HW2 5213   2.155   1.392   0.323  0.4304 -0.5611  0.4271
 1696SOL     OW 5214   0.808   0.812   1.152  0.2019  0.8140  0.1845
 1696SOL    HW1 5215   0.745   0.837   1.085  0.0444  0.0509  0.0341
 1696SOL    HW2 5216   0.764   0.743   1.202  1.0989 -0.1063 -0.2471
 1697SOL     OW 5217   1.356   0.220   3.676 -0.3679 -0.4113 -0.1992
 1697SOL    HW1 5218   1.318   0.267   3.602 -0.3796 -0.0708  0.0190
 1697SOL    HW2 5219   1.449   0.245   3.675 -0.5612  0.3758  0.4821
 1698SOL     OW 5220   1.533   1.421   0.265  0.2851  0.1284  0.1329
 1698SOL    HW1 5221   1.564   1.416   0.175  0.2935 -2.5855  0.2067
 1698SOL    HW2 5222   1.440   1.443   0.258  0.5115  0.9554 -0.4476
 1699SOL     OW 5223   0.646   2.741   1.255 -0.4955 -0.3887  0.2767
 1699SOL    HW1 5224   0.722   2.779   1.212  0.1702  0.7018  2.2861
 1699SOL    HW2 5225   0.678   2.660   1.295 -0.3890  0.0093  1.0208
 1700SOL     OW 5226   0.863   1.704   0.534 -0.5107  0.3222 -0.5779
 1700SOL    HW1 5227   0.815   1.638   0.484 -0.8767 -1.2743  1.7150
 1700SOL    HW2 5228   0.858   1.783   0.481 -2.8262 -0.6502 -1.9682
 1701SOL     OW 5229   3.251   2.702   3.018 -0.1431 -0.0581 -0.1560
 1701SOL    HW1 5230   3.298   2.775   2.977  1.8378 -1.6776 -0.9299
 1701SOL    HW2 5231   3.202   2.662   2.947  0.0788 -0.4474 -0.0943
 1702SOL     OW 5232   1.549   1.196   1.576  0.0579  0.3166 -0.6193
 1702SOL    HW1 5233   1.487   1.128   1.550  1.3491 -1.3473  0.4097
 1702SOL    HW2 5234   1.544   1.198   1.672  0.5411  1.1842 -0.6021
 1703SOL     OW 5235   1.532   0.422   1.239  0.0764  0.0434 -0.4224
 1703SOL    HW1 5236   1.467   0.352   1.242  1.4791 -1.3893 -1.4686
 1703SOL    HW2 5237   1.614   0.381   1.268  0.7762  1.4713 -0.2629
 1704SOL     OW 5238   2.383   2.675   2.493  0.5134  0.1876  0.5393
 1704SOL    HW1 5239   2.457   2.683   2.433  0.1907  1.4433  0.2682
 1704SOL    HW2 5240   2.418   2.632   2.571  1.7655  1.6027  0.7926
 1705SOL     OW 5241   1.107   0.145   1.784 -0.2525 -0.1972  0.5337
 1705SOL    HW1 5242   1.079   0.220   1.731  0.3849  1.0275  1.8484
 1705SOL    HW2 5243   1.165   0.095   1.726 -1.6115 -0.3489 -0.7487
 1706SOL     OW 5244   1.352   0.211   1.270 -0.8320 -0.4887  0.2535
 1706SOL    HW1 5245   1.365   0.117   1.282  0.2685 -0.3003  0.6305
 1706SOL    HW2 5246   1.272   0.217   1.218 -1.1855 -1.6129  0.6310
 1707SOL     OW 5247   1.827   2.866   1.767  0.2372  0.1445 -0.5451
 1707SOL    HW1 5248   1.770   2.793   1.745 -0.8205  0.0326  2.2678
 1707SOL    HW2 5249   1.780   2.915   1.835  1.4531  2.7702 -1.4475
 1708SOL     OW 5250   3.187   1.415   0.657 -0.6457  0.4292 -0.2535
 1708SOL    HW1 5251   3.118   1.469   0.696 -0.5425 -1.1408  2.3842
 1708SOL    HW2 5252   3.262   1.425   0.715 -0.0590 -1.1397 -0.6739
 1709SOL     OW 5253   1.098   2.042   3.411 -0.6599 -0.3497  0.1869
 1709SOL    HW1 5254   1.127   1.951   3.413  3.4837  0.7719  2.0787
 1709SOL    HW2 5255   1.003   2.037   3.417 -0.7119 -4.5025 -0.9404
 1710SOL     OW 5256   1.539   3.327   0.009  0.3189  0.0860 -0.2197
 1710SOL    HW1 5257   1.454   3.366  -0.013  0.4793 -0.1855 -1.3947
 1710SOL    HW2 5258   1.522   3.233   0.010  0.3220  0.0831  0.8804
 1711SOL     OW 5259   1.364   3.506   2.123  0.0795  0.0969  0.0075
 1711SOL    HW1 5260   1.413   3.576   2.080  2.5373 -2.1208 -1.1563
 1711SOL    HW2 5261   1.307   3.471   2.054 -1.3768  1.0905  0.6702
 1712SOL     OW 5262   3.112   1.761   2.628 -0.5728  0.1970  0.0550
 1712SOL    HW1 5263   3.060   1.782   2.550 -0.5742 -1.0743 -0.3117
 1712SOL    HW2 5264   3.071   1.681   2.663  1.5299 -1.2765 -0.6473
 1713SOL     OW 5265   3.078   3.587   0.808  0.2496 -0.4431  0.4347
 1713SOL    HW1 5266   2.995   3.560   0.769  0.4147 -1.0426  0.4897
 1713SOL    HW2 5267   3.096   3.521   0.875  0.1823  0.3444  1.2511
 1714SOL     OW 5268   1.135   1.074   1.448  0.5005 -0.0267 -0.5695
 1714SOL    HW1 5269   1.069   1.015   1.412 -0.1026  2.1153 -3.4055
 1714SOL    HW2 5270   1.215   1.053   1.401  0.4536  0.8866 -1.0858
 1715SOL     OW 5271   0.849   2.895   3.291 -0.1509 -0.6149  0.0457
 1715SOL    HW1 5272   0.756   2.887   3.266 -0.0774 -1.8348  0.1070
 1715SOL    HW2 5273   0.894   2.833   3.235  0.7305  0.3579 -0.3666
 1716SOL     OW 5274   0.283   0.918   2.291  0.7032 -0.1730  0.4778
 1716SOL    HW1 5275   0.273   1.005   2.252  0.4556  0.3484  1.6609
 1716SOL    HW2 5276   0.374   0.914   2.317  0.3865  0.3061  1.7088
 1717SOL     OW 5277   3.170   2.083   1.771  1.1519 -0.5976 -0.3128
 1717SOL    HW1 5278   3.185   2.100   1.678 -2.1049 -0.4261 -0.9201
 1717SOL    HW2 5279   3.197   1.992   1.783 -2.4506 -2.1936 -2.6535
 1718SOL     OW 5280   3.636   2.884   0.579  0.4688 -0.3325 -0.1589
 1718SOL    HW1 5281   3.610   2.843   0.497  0.9151  0.5123 -0.7347
 1718SOL    HW2 5282   3.554   2.902   0.625  0.2827 -3.0894  0.7582
 1719SOL     OW 5283   2.652   2.097   3.747 -0.4852  0.1023  0.0929
 1719SOL    HW1 5284   2.719   2.145   3.699  0.0796  0.3739  1.1195
 1719SOL    HW2 5285   2.578   2.091   3.686 -0.2536  1.5177 -0.3609
 1720SOL     OW 5286   2.665   1.465   0.892  0.1358 -0.4359 -0.3401
 1720SOL    HW1 5287   2.667   1.525   0.967 -0.3193  1.8572 -2.0515
 1720SOL    HW2 5288   2.591   1.407   0.910 -1.2469  1.3577  0.1098
 1721SOL     OW 5289   3.367   2.457   3.165 -0.9570  0.6124  0.1434
 1721SOL    HW1 5290   3.378   2.392   3.095  3.4684  0.6522  0.5032
 1721SOL    HW2 5291   3.331   2.534   3.120 -1.9419 -0.5751 -1.2178
 1722SOL     OW 5292   0.699   1.597   2.667 -0.2475 -0.3239 -0.6589
 1722SOL    HW1 5293   0.710   1.596   2.762 -0.6551  0.1488 -0.5981
 1722SOL    HW2 5294   0.727   1.510   2.638 -0.7583 -0.7075 -0.0283
 1723SOL     OW 5295   1.939   1.031   3.714  0.1010  0.4060  0.2986
 1723SOL    HW1 5296   1.931   0.936   3.701 -1.5063  0.4618  0.6894
 1723SOL    HW2 5297   1.858   1.056   3.757  0.7690  1.8866  0.7450
 1724SOL     OW 5298   2.795   0.071   2.303  0.3645 -0.0590 -0.3182
 1724SOL    HW1 5299   2.768   0.062   2.395 -1.5960 -0.3952 -0.8733
 1724SOL    HW2 5300   2.802  -0.020   2.272  2.4864  0.0043 -0.1506
 1725SOL     OW 5301   0.264   3.754   1.150  0.0605 -0.0520  0.4457
 1725SOL    HW1 5302   0.196   3.688   1.164 -1.2583  0.2463 -3.3273
 1725SOL    HW2 5303   0.309   3.726   1.071  1.9149  1.7174  0.7834
 1726SOL     OW 5304   1.732   3.616   3.076 -0.3426 -0.4222 -0.0151
 1726SOL    HW1 5305   1.710   3.687   3.137  0.2363 -0.6552  0.4702
 1726SOL    HW2 5306   1.663   3.551   3.089 -1.5514  0.5401 -1.3047
 1727SOL     OW 5307   2.809   0.344   1.630 -0.1567 -0.9511  0.3993
 1727SOL    HW1 5308   2.869   0.278   1.664 -1.0575 -1.6954  0.5725
 1727SOL    HW2 5309   2.725   0.300   1.624 -0.7897  0.1837  0.5490
 1728SOL     OW 5310   3.006   0.365   3.737  0.3272 -0.9778  0.4275
 1728SOL    HW1 5311   3.097   0.381   3.713 -0.0876 -1.1911 -1.4467
 1728SOL    HW2 5312   2.971   0.310   3.666 -1.7535  0.6198  0.1068
 1729SOL     OW 5313   3.734   0.098   1.977  0.0757 -0.4249  0.3396
 1729SOL    HW1 5314   3.747   0.003   1.980 -2.2465 -0.7704  1.3245
 1729SOL    HW2 5315   3.643   0.109   1.952  0.4175  1.5904 -0.1746
 1730SOL     OW 5316   0.284   0.171   0.846 -0.6423  0.2441 -0.0826
 1730SOL    HW1 5317   0.337   0.098   0.878 -0.3214  0.6695  0.3621
 1730SOL    HW2 5318   0.201   0.130   0.821 -0.7777 -0.1574  0.9618
 1731SOL     OW 5319   3.521   3.024   1.370  0.1075 -0.6039 -0.6454
 1731SOL    HW1 5320   3.526   2.943   1.320 -0.2200  0.0833 -1.8431
 1731SOL    HW2 5321   3.541   2.998   1.460  0.3446 -1.9440 -1.0568
 1732SOL     OW 5322   2.627   0.574   2.693  0.3789  0.5997  0.5484
 1732SOL    HW1 5323   2.611   0.650   2.636 -0.5729 -0.6298 -0.9370
 1732SOL    HW2 5324   2.552   0.573   2.753  1.0490  1.5287  1.4332
 1733SOL     OW 5325   1.901   2.085   1.253  0.0041 -0.5897 -0.3698
 1733SOL    HW1 5326   1.973   2.145   1.234  2.0456 -2.8651 -0.1905
 1733SOL    HW2 5327   1.922   2.048   1.338 -1.9869 -0.5541  0.1907
 1734SOL     OW 5328   0.704   3.685   2.512  0.0413 -0.2498 -0.1191
 1734SOL    HW1 5329   0.665   3.611   2.465 -0.2390  0.0084 -0.2961
 1734SOL    HW2 5330   0.768   3.644   2.571 -0.5911 -0.6948  0.2815
 1735SOL     OW 5331   1.542   0.700   1.965 -0.3870  0.0525  0.4488
 1735SOL    HW1 5332   1.550   0.616   2.011  1.1834  0.4919  1.0313
 1735SOL    HW2 5333   1.631   0.725   1.943 -1.0319  0.0213 -2.6758
 1736SOL     OW 5334   2.762   0.577   2.380 -0.2200  0.2963 -0.3651
 1736SOL    HW1 5335   2.838   0.608   2.331 -0.3565  0.7048 -0.3203
 1736SOL    HW2 5336   2.726   0.656   2.421  0.2289 -0.1331  0.8700
 1737SOL     OW 5337   2.631   1.453   2.236  0.1897 -0.8976 -0.0063
 1737SOL    HW1 5338   2.664   1.483   2.152 -1.2631  0.7686 -0.0467
 1737SOL    HW2 5339   2.552   1.403   2.215 -1.7355  1.7574  0.3847
 1738SOL     OW 5340   0.792   2.773   1.518 -0.2972  0.4746  0.3580
 1738SOL    HW1 5341   0.749   2.784   1.603 -0.1596 -0.2572  0.5266
 1738SOL    HW2 5342   0.790   2.679   1.502 -0.9845  0.6581 -0.7994
 1739SOL     OW 5343   3.627   3.557   2.996  0.5793  0.3871 -0.6823
 1739SOL    HW1 5344   3.613   3.542   3.089  1.5517  1.3095 -0.3706
 1739SOL    HW2 5345   3.678   3.482   2.967 -1.2774 -0.8648 -0.9220
 1740SOL     OW 5346   0.340   2.440   2.879  0.1389 -0.5931 -0.0380
 1740SOL    HW1 5347   0.430   2.405   2.881  0.2909 -0.2146 -0.2330
 1740SOL    HW2 5348   0.347   2.522   2.830  0.5491  1.8896  3.7749
 1741SOL     OW 5349   3.536   0.638   0.557 -0.2709  0.6431  0.1229
 1741SOL    HW1 5350   3.551   0.629   0.463 -3.0808 -0.1929 -0.3634
 1741SOL    HW2 5351   3.608   0.591   0.598 -0.8531 -2.1993 -1.7991
 1742SOL     OW 5352   1.498   2.976   0.433 -0.1379 -0.0954 -0.1203
 1742SOL    HW1 5353   1.582   2.933   0.448  1.2493  1.7320 -2.1189
 1742SOL    HW2 5354   1.469   2.944   0.347 -0.3477  0.9918 -0.4644
 1743SOL     OW 5355   1.235   3.564   2.699  0.5791 -0.5722 -0.2277
 1743SOL    HW1 5356   1.218   3.597   2.788  0.8156 -0.9575 -0.0327
 1743SOL    HW2 5357   1.329   3.547   2.698  0.2580 -2.6238  0.1785
 1744SOL     OW 5358   2.766   3.465   2.243 -0.2572 -0.2393  0.2726
 1744SOL    HW1 5359   2.785   3.444   2.334 -0.8261  2.2644  1.0275
 1744SOL    HW2 5360   2.671   3.457   2.236 -0.5472  2.1554  0.6887
 1745SOL     OW 5361   0.396   2.833   3.542 -0.3990  0.1966 -0.1047
 1745SOL    HW1 5362   0.469   2.895   3.538 -0.2472  0.0052 -0.3247
 1745SOL    HW2 5363   0.331   2.868   3.481  0.0852 -0.3649 -0.9738
 1746SOL     OW 5364   3.324   1.385   1.406 -0.1737 -0.3326 -0.0693
 1746SOL    HW1 5365   3.318   1.354   1.497  0.9971 -2.3929 -0.6204
 1746SOL    HW2 5366   3.255   1.451   1.399 -0.1624  0.0567  2.3603
 1747SOL     OW 5367   1.981   3.522   1.381  0.5574 -0.1771 -0.4277
 1747SOL    HW1 5368   2.008   3.434   1.405  1.1966  1.0351  4.3022
 1747SOL    HW2 5369   1.888   3.526   1.405  0.1275  0.1020 -2.0099
 1748SOL     OW 5370   2.700   3.253   0.949  0.4660  0.1399 -0.3849
 1748SOL    HW1 5371   2.695   3.316   0.878  0.3673  0.5942  0.0230
 1748SOL    HW2 5372   2.704   3.168   0.905 -0.9686  0.3218 -0.9141
 1749SOL     OW 5373   1.985   0.616   2.503  0.2326 -0.2589  0.2507
 1749SOL    HW1 5374   1.900   0.658   2.518  1.0034  1.0063  1.3089
 1749SOL    HW2 5375   1.991   0.549   2.572  0.7247  0.7182  1.1973
 1750SOL     OW 5376   2.843   0.869   2.497 -0.2526  0.0742 -0.0924
 1750SOL    HW1 5377   2.812   0.957   2.477  2.2002  0.6919 -1.5018
 1750SOL    HW2 5378   2.851   0.826   2.412  0.9837 -0.6260  0.3454
 1751SOL     OW 5379   1.362   0.642   0.650 -0.1565  0.6549  0.2350
 1751SOL    HW1 5380   1.446   0.611   0.682 -0.8235  0.7753  2.2589
 1751SOL    HW2 5381   1.314   0.668   0.729 -2.0646  0.6453 -0.8451
 1752SOL     OW 5382   0.459   3.382   0.922 -0.3558 -0.1192  0.2714
 1752SOL    HW1 5383   0.539   3.373   0.975 -0.0157  1.3640  0.0578
 1752SOL    HW2 5384   0.415   3.298   0.931  1.0877 -0.8659  0.6379
 1753SOL     OW 5385   2.032   3.445   3.401 -0.1294  0.0694  0.4966
 1753SOL    HW1 5386   1.970   3.517   3.388 -0.3009  0.0294  1.0535
 1753SOL    HW2 5387   2.085   3.444   3.321  0.5705  1.4968  0.8989
 1754SOL     OW 5388   0.509   1.825   3.007  0.5639  0.3118 -0.2424
 1754SOL    HW1 5389   0.478   1.740   2.977 -1.0724  0.4504  0.9777
 1754SOL    HW2 5390   0.544   1.809   3.094  0.4026  0.8679 -0.0725
 1755SOL     OW 5391   0.721   1.900   1.739 -0.3523  0.7071  0.5697
 1755SOL    HW1 5392   0.782   1.938   1.676  2.0009  0.9669  2.8473
 1755SOL    HW2 5393   0.639   1.890   1.690  1.5848 -0.1637 -2.8150
 1756SOL     OW 5394   3.226   0.251   0.201 -0.4235  0.0307  0.4104
 1756SOL    HW1 5395   3.242   0.171   0.151  2.3572  1.6661 -1.6138
 1756SOL    HW2 5396   3.245   0.227   0.292 -0.9712 -1.8794  0.0660
 1757SOL     OW 5397   0.515   1.386   2.479  0.0475 -0.3444  0.1576
 1757SOL    HW1 5398   0.574   1.361   2.408  1.3173  1.8304  0.3389
 1757SOL    HW2 5399   0.505   1.481   2.469  0.1238  0.0003  2.7456
 1758SOL     OW 5400   1.665   0.924   0.796 -0.8361  0.1048 -0.1898
 1758SOL    HW1 5401   1.664   1.011   0.834 -0.9879 -0.1692  0.4422
 1758SOL    HW2 5402   1.666   0.939   0.701 -0.0652  0.7893 -0.0777
 1759SOL     OW 5403   3.213   2.159   0.511  0.3669 -0.6856 -0.3708
 1759SOL    HW1 5404   3.264   2.103   0.570 -0.2874  0.2532  1.1448
 1759SOL    HW2 5405   3.272   2.232   0.492  0.4035 -0.7412 -0.4687
 1760SOL     OW 5406   3.186   1.658   0.439  0.6775 -1.3114  0.2157
 1760SOL    HW1 5407   3.192   1.562   0.444  0.4357 -1.2853  1.2350
 1760SOL    HW2 5408   3.276   1.688   0.450  0.6727 -1.4090  0.5497
 1761SOL     OW 5409   2.838   3.334   1.164  0.2510  0.4327 -0.7589
 1761SOL    HW1 5410   2.807   3.298   1.081 -0.7956  0.8261 -0.5540
 1761SOL    HW2 5411   2.835   3.260   1.225 -1.2974  0.6802 -0.4931
 1762SOL     OW 5412   0.483   0.654   0.284 -0.1472 -0.5247 -0.3154
 1762SOL    HW1 5413   0.512   0.721   0.346  2.0793 -1.2753 -0.4417
 1762SOL    HW2 5414   0.389   0.669   0.275  0.3609  3.2102 -1.1258
 1763SOL     OW 5415   0.461   3.524   1.268  0.0894  0.0370 -0.3227
 1763SOL    HW1 5416   0.409   3.589   1.221 -0.1531  0.3803  0.4047
 1763SOL    HW2 5417   0.397   3.464   1.305 -0.0562  1.7709  2.5669
 1764SOL     OW 5418   0.043   1.313   1.944  0.0822  0.4780 -0.4949
 1764SOL    HW1 5419   0.080   1.337   1.859  3.5816  0.3487  0.8400
 1764SOL    HW2 5420   0.025   1.396   1.987  0.0863  0.5643 -0.6587
 1765SOL     OW 5421   0.436   0.099   1.721  0.7996 -0.2084  0.9170
 1765SOL    HW1 5422   0.453   0.191   1.743 -1.1152  0.2964  0.4544
 1765SOL    HW2 5423   0.341   0.090   1.726  0.7929 -1.6872 -0.8783
 1766SOL     OW 5424   0.903   1.156   2.519  0.2215 -0.1582  0.6795
 1766SOL    HW1 5425   0.817   1.131   2.553  0.5029 -1.8234  0.2301
 1766SOL    HW2 5426   0.903   1.252   2.523 -1.5272 -0.1386  0.9692
 1767SOL     OW 5427   2.191   1.092   1.977 -0.0492  0.9711 -0.1934
 1767SOL    HW1 5428   2.201   1.056   2.065  1.0460 -1.7099 -1.3136
 1767SOL    HW2 5429   2.126   1.036   1.936  0.2926  1.4775 -1.4544
 1768SOL     OW 5430   3.280   2.112   0.933  0.4051  0.0689 -0.3763
 1768SOL    HW1 5431   3.270   2.074   1.020  1.2850 -0.2236 -0.3924
 1768SOL    HW2 5432   3.364   2.157   0.936  1.0875 -1.0564 -1.4690
 1769NA      NA 5433   2.785   0.264   2.176  0.1466 -0.2174  0.1615
 1770NA      NA 5434   1.322   0.216   0.178 -0.2285  0.0638 -0.2669
   3.72570   3.72570   3.72570
