Protein in water
 5440
    0GLU      N    1   2.427   1.239   0.799  0.1912 -0.5648  0.4251
    0GLU     H1    2   2.383   1.215   0.708  0.2011 -0.4081  0.3789
    0GLU     H2    3   2.501   1.308   0.775  0.8253 -1.2675  0.3270
    0GLU     H3    4   2.360   1.278   0.869  0.6367  1.0513 -0.0176
    0GLU     CA    5   2.481   1.110   0.860  0.8518  0.3557  0.0479
    0GLU     HA    6   2.532   1.055   0.783  2.3350  1.0599  0.4728
    0GLU     CB    7   2.574   1.140   0.977  0.6746 -0.5010  0.1401
    0GLU    HB1    8   2.623   1.045   1.009  0.2965 -1.7756 -2.7319
    0GLU    HB2    9   2.518   1.171   1.068 -1.8568  0.5926 -1.6620
    0GLU     CG   10   2.681   1.246   0.952 -0.5069  0.3328  0.2389
    0GLU    HG1   11   2.642   1.350   0.949 -0.9252  0.1529 -1.0300
    0GLU    HG2   12   2.766   1.227   1.021  2.6080 -1.0277 -3.5767
    0GLU     CD   13   2.746   1.224   0.812 -0.0207 -1.2301  0.1571
    0GLU    OE1   14   2.681   1.275   0.716  0.0823 -0.2684 -0.0501
    0GLU    OE2   15   2.853   1.164   0.798 -0.3685 -0.8740 -0.3550
    0GLU      C   16   2.364   1.017   0.899 -0.1187  0.0592  0.4474
    0GLU      O   17   2.250   1.039   0.868 -0.2778 -0.1953 -0.0072
    1TYR      N   18   2.398   0.907   0.963 -0.3233 -0.1353  0.2135
    1TYR     HN   19   2.495   0.884   0.959  0.5548  2.8399  1.6176
    1TYR     CA   20   2.307   0.810   1.012 -0.0101 -0.2066  0.4550
    1TYR     HA   21   2.226   0.813   0.941  0.6190 -1.3488 -0.3318
    1TYR     CB   22   2.366   0.665   1.019 -0.0961 -0.4542 -0.0438
    1TYR    HB1   23   2.465   0.675   1.069 -0.8398  0.3800  1.3231
    1TYR    HB2   24   2.385   0.629   0.915  1.7097 -0.4146  0.2353
    1TYR     CG   25   2.286   0.557   1.080 -0.4613  0.2873 -0.2458
    1TYR    CD1   26   2.180   0.504   1.012 -0.5272  0.1145 -0.0009
    1TYR    HD1   27   2.156   0.527   0.910 -0.8643 -1.3867 -0.2913
    1TYR    CE1   28   2.106   0.392   1.064  0.0732  0.3462  0.6964
    1TYR    HE1   29   2.032   0.343   1.002  0.4366 -0.8305  1.1810
    1TYR     CZ   30   2.138   0.341   1.195  0.4691 -0.4395 -0.0945
    1TYR     OH   31   2.061   0.229   1.239  0.6768 -0.4232  0.1807
    1TYR     HH   32   1.997   0.207   1.171  0.5277 -0.1151  0.2160
    1TYR    CD2   33   2.296   0.523   1.216  0.1086 -0.1394  0.6364
    1TYR    HD2   34   2.379   0.570   1.268  1.4496 -1.9642  0.2400
    1TYR    CE2   35   2.234   0.411   1.268 -0.2513 -0.3367 -0.2364
    1TYR    HE2   36   2.261   0.382   1.368 -2.3219 -2.4362 -0.2090
    1TYR      C   37   2.251   0.848   1.148  0.3670  0.1290  0.1964
    1TYR      O   38   2.323   0.854   1.246  0.4391  0.6667  0.4484
    2ASP      N   39   2.120   0.874   1.150  0.5807 -0.3198 -0.3259
    2ASP     HN   40   2.059   0.879   1.072 -0.8845  0.1512  0.8038
    2ASP     CA   41   2.046   0.904   1.270 -0.6646  0.0382 -0.3589
    2ASP     HA   42   2.111   0.975   1.318 -2.3607  1.4059  0.0098
    2ASP     CB   43   1.921   0.992   1.236 -0.2779  0.4422  0.4636
    2ASP    HB1   44   1.883   0.962   1.136 -0.4226 -0.7154  0.8524
    2ASP    HB2   45   1.955   1.097   1.228  1.8109 -0.1876  0.4289
    2ASP     CG   46   1.821   0.985   1.340  0.7743 -0.0899  0.8578
    2ASP    OD1   47   1.856   0.996   1.461 -0.1566  0.0856  0.8355
    2ASP    OD2   48   1.700   0.986   1.308 -0.6834  0.0151 -0.4033
    2ASP      C   49   2.008   0.768   1.340 -0.5666 -0.7271 -0.0891
    2ASP      O   50   1.933   0.688   1.283 -0.1612 -0.2869  0.3565
    3PRO      N   51   2.054   0.737   1.461  0.4664  1.0568  0.1652
    3PRO     CD   52   2.147   0.819   1.533 -0.6162 -0.2643  0.2165
    3PRO    HD1   53   2.246   0.832   1.484 -0.6200  0.6981  0.4511
    3PRO    HD2   54   2.101   0.917   1.556 -0.3608  0.5766 -2.5391
    3PRO     CA   55   2.034   0.605   1.527  0.1387 -0.0271 -0.4466
    3PRO     HA   56   2.045   0.527   1.452  0.5315 -0.9819  0.5795
    3PRO     CB   57   2.134   0.595   1.635  0.0113 -0.6004 -0.0501
    3PRO    HB1   58   2.229   0.548   1.602 -1.1798 -2.2663 -1.2259
    3PRO    HB2   59   2.097   0.545   1.726 -1.5361  0.7598  0.1139
    3PRO     CG   60   2.168   0.741   1.666 -0.0461 -0.2931  0.0317
    3PRO    HG1   61   2.272   0.756   1.701 -0.1431  0.4096  0.0265
    3PRO    HG2   62   2.101   0.782   1.744  0.5408  0.6029  0.0714
    3PRO      C   63   1.889   0.600   1.573 -0.1917 -0.5291  0.1254
    3PRO      O   64   1.849   0.493   1.616  0.0498  0.7695 -0.5223
    4GLU      N   65   1.819   0.715   1.574  0.3655 -0.9042 -0.0103
    4GLU     HN   66   1.849   0.802   1.537  0.4934 -0.8507  0.2146
    4GLU     CA   67   1.690   0.736   1.646 -0.1666  0.9786  0.8720
    4GLU     HA   68   1.699   0.671   1.732  3.4562 -1.8136 -1.2952
    4GLU     CB   69   1.696   0.880   1.692  0.0317  0.6425  0.4903
    4GLU    HB1   70   1.670   0.954   1.613 -0.0143  1.3782  1.1761
    4GLU    HB2   71   1.803   0.896   1.715  0.3290 -1.4331  0.7294
    4GLU     CG   72   1.609   0.917   1.817  0.2338  0.9875  0.4624
    4GLU    HG1   73   1.656   0.863   1.902  0.2806  1.0052  0.4483
    4GLU    HG2   74   1.509   0.873   1.800  0.1582  1.1521  0.4797
    4GLU     CD   75   1.599   1.069   1.840 -0.3877  0.0943 -0.6387
    4GLU    OE1   76   1.522   1.130   1.764  0.3046  0.0708  0.4620
    4GLU    OE2   77   1.668   1.128   1.928 -0.3941  0.4951 -0.3588
    4GLU      C   78   1.569   0.709   1.552 -0.3872  0.4344 -0.5059
    4GLU      O   79   1.474   0.641   1.590 -0.4429  0.3219  0.6744
    5THR      N   80   1.576   0.760   1.429  0.1772 -0.1959 -0.2464
    5THR     HN   81   1.643   0.828   1.399 -0.6055  0.3215 -0.8278
    5THR     CA   82   1.474   0.714   1.335 -0.3848  0.3264  0.0465
    5THR     HA   83   1.387   0.670   1.381 -0.9375  1.9140  0.5702
    5THR     CB   84   1.422   0.823   1.237  0.3454 -0.0482  0.0011
    5THR     HB   85   1.343   0.771   1.178 -3.2903  3.4054  1.3673
    5THR    OG1   86   1.520   0.871   1.151  0.1727  0.4116  0.4139
    5THR    HG1   87   1.584   0.925   1.198  0.2721  2.2734 -1.6440
    5THR    CG2   88   1.375   0.948   1.316  0.0687 -0.0894 -0.2828
    5THR   HG21   89   1.461   0.984   1.377 -0.8270 -1.3015  1.7891
    5THR   HG22   90   1.300   0.921   1.394  0.8690 -1.7905 -0.0480
    5THR   HG23   91   1.351   1.026   1.241  0.2740  0.5165  0.2655
    5THR      C   92   1.527   0.604   1.258  0.3051 -0.5828 -0.3420
    5THR      O   93   1.449   0.526   1.199 -0.7072 -0.1720  0.6540
    6GLY      N   94   1.661   0.580   1.264 -0.2047 -0.3983  0.0505
    6GLY     HN   95   1.715   0.648   1.313 -2.2927  2.5320 -1.4460
    6GLY     CA   96   1.725   0.473   1.192 -0.3216 -0.3586  0.6477
    6GLY    HA1   97   1.666   0.382   1.188 -1.1852  0.2493 -2.0238
    6GLY    HA2   98   1.827   0.472   1.227  0.6503  1.5805 -1.8937
    6GLY      C   99   1.734   0.503   1.043  0.3096 -0.6174 -0.0676
    6GLY      O  100   1.704   0.417   0.958 -0.1795  0.3669 -0.1358
    7THR      N  101   1.780   0.625   1.014  0.1744 -1.0241 -0.0081
    7THR     HN  102   1.797   0.691   1.087 -1.5460  0.9283 -1.2519
    7THR     CA  103   1.776   0.679   0.881  0.1137  0.6410  0.6955
    7THR     HA  104   1.754   0.607   0.804  0.7201  0.2952  0.8357
    7THR     CB  105   1.683   0.793   0.852 -0.3644  0.1869 -0.4551
    7THR     HB  106   1.698   0.885   0.913 -6.8442  0.3605  1.6011
    7THR    OG1  107   1.553   0.748   0.898  0.1388  0.1189  0.5943
    7THR    HG1  108   1.534   0.785   0.985 -1.4609  0.6332  0.0666
    7THR    CG2  109   1.667   0.814   0.701  0.3478  0.1862  0.7814
    7THR   HG21  110   1.609   0.730   0.656  0.6604 -0.5197  1.6621
    7THR   HG22  111   1.763   0.847   0.655 -1.2371  0.0833 -3.0350
    7THR   HG23  112   1.606   0.906   0.692  0.4438  0.2017  0.1881
    7THR      C  113   1.904   0.744   0.838  0.0046  0.2414  0.1248
    7THR      O  114   1.949   0.846   0.895  0.2129 -0.8168  0.7543
    8TRP      N  115   1.958   0.688   0.727 -0.6373 -0.5663 -0.9956
    8TRP     HN  116   1.916   0.616   0.672 -0.2088 -0.9823 -0.7903
    8TRP     CA  117   2.066   0.751   0.653 -0.0429 -0.1287 -0.2226
    8TRP     HA  118   2.148   0.783   0.716 -0.3747  0.6547 -0.1732
    8TRP     CB  119   2.130   0.653   0.552  0.4719  0.1444  0.9001
    8TRP    HB1  120   2.193   0.705   0.477 -0.9160 -1.2887 -1.3740
    8TRP    HB2  121   2.048   0.602   0.497  2.4605 -1.9069 -0.3939
    8TRP     CG  122   2.219   0.545   0.618 -0.1525 -0.0646  0.2201
    8TRP    CD1  123   2.356   0.549   0.639  0.0124 -0.0629 -0.2666
    8TRP    HD1  124   2.417   0.612   0.576  0.8948 -0.4443  0.1881
    8TRP    NE1  125   2.403   0.429   0.689  0.0347  0.0897 -0.6565
    8TRP    HE1  126   2.484   0.427   0.744 -0.9593  1.4754  0.9492
    8TRP    CE2  127   2.288   0.349   0.709 -0.3356 -0.2850 -0.3709
    8TRP    CD2  128   2.174   0.423   0.670 -0.7555  1.3423 -0.0670
    8TRP    CE3  129   2.049   0.365   0.678  0.4123 -0.0067 -0.2729
    8TRP    HE3  130   1.964   0.421   0.642  0.8987  1.8691  1.2800
    8TRP    CZ3  131   2.034   0.235   0.733  0.5624  0.2617  0.3767
    8TRP    HZ3  132   1.937   0.187   0.735  1.1340 -0.9166  0.7718
    8TRP    CZ2  133   2.283   0.223   0.757  0.3621  0.0206 -1.2445
    8TRP    HZ2  134   2.369   0.163   0.782 -1.2936 -1.2060  2.1897
    8TRP    CH2  135   2.150   0.161   0.772 -0.0721 -1.1322  0.6950
    8TRP    HH2  136   2.135   0.065   0.820  0.0435 -2.2415 -1.3568
    8TRP      C  137   2.027   0.884   0.582  0.6761  0.5633  0.4962
    8TRP      O  138   1.936   0.872   0.498 -0.3583 -0.0015  0.0835
    9TYR      N  139   2.090   1.002   0.623 -0.2485  0.3448 -0.0868
    9TYR     HN  140   2.149   0.988   0.702 -1.5745 -0.4965  0.8050
    9TYR     CA  141   2.091   1.125   0.551 -0.1230 -0.4496 -0.6899
    9TYR     HA  142   2.028   1.096   0.467 -1.3201  1.0656 -0.3496
    9TYR     CB  143   2.045   1.242   0.642  0.7469 -0.3144  0.5936
    9TYR    HB1  144   2.031   1.334   0.581  2.0325 -0.9794 -0.7481
    9TYR    HB2  145   2.131   1.268   0.708  1.7960  3.5017 -1.8984
    9TYR     CG  146   1.921   1.217   0.712  0.3370  0.5700 -0.7377
    9TYR    CD1  147   1.796   1.211   0.652  0.6966 -0.1286  0.0623
    9TYR    HD1  148   1.788   1.214   0.544 -1.2262 -1.5129  0.1106
    9TYR    CE1  149   1.674   1.199   0.729  0.3814  0.2967  0.7535
    9TYR    HE1  150   1.578   1.190   0.681  1.0897 -1.6073 -0.3962
    9TYR     CZ  151   1.687   1.203   0.871 -0.4054  0.0306  0.9279
    9TYR     OH  152   1.565   1.184   0.946  0.1341  0.1505  0.5017
    9TYR     HH  153   1.587   1.192   1.039 -0.4657 -1.8994  0.8831
    9TYR    CD2  154   1.933   1.206   0.852 -0.2821 -0.1952  0.2323
    9TYR    HD2  155   2.031   1.219   0.895  0.4832  1.5833 -1.8642
    9TYR    CE2  156   1.817   1.190   0.933  0.5444 -0.3362 -0.7758
    9TYR    HE2  157   1.814   1.182   1.040 -0.0338  3.6249 -0.3720
    9TYR      C  158   2.230   1.145   0.483 -0.7175  0.1252 -0.5441
    9TYR    OT1  159   2.238   1.140   0.359  0.2013  0.3319  0.0818
    9TYR    OT2  160   2.336   1.153   0.554  0.9216 -0.5240  0.1113
   10SOL     OW  161   0.113   0.003   2.280  0.3304  0.3135 -0.5889
   10SOL    HW1  162   0.086   0.092   2.302 -1.1366  0.1569 -1.6232
   10SOL    HW2  163   0.100  -0.047   2.361 -0.3904  0.7124 -0.4537
   11SOL     OW  164   0.822   3.362   1.873 -0.8382 -0.2408 -0.5234
   11SOL    HW1  165   0.771   3.342   1.795 -4.0982  0.6393  1.1750
   11SOL    HW2  166   0.785   3.306   1.941  1.7196 -0.7912  0.5444
   12SOL     OW  167   2.836   3.467   2.837  0.5013  0.0640 -0.5016
   12SOL    HW1  168   2.812   3.419   2.758  2.2607 -0.9499 -0.4688
   12SOL    HW2  169   2.803   3.556   2.822 -1.3926 -0.7064 -1.2596
   13SOL     OW  170   3.334   3.037   2.094 -0.1888 -0.6907  0.6752
   13SOL    HW1  171   3.355   2.945   2.109 -0.0397 -0.8805 -0.6551
   13SOL    HW2  172   3.300   3.041   2.005  2.4267  0.9202 -0.3904
   14SOL     OW  173   2.924   3.026   0.879  0.5845  0.2793  1.0514
   14SOL    HW1  174   2.962   3.077   0.807 -0.2545 -0.5545 -0.0179
   14SOL    HW2  175   2.986   2.954   0.892 -0.3804 -0.8819 -0.4524
   15SOL     OW  176   1.972   3.201   0.497  0.3108  0.0279  0.3329
   15SOL    HW1  177   1.959   3.285   0.455 -1.1222  0.0808  0.8087
   15SOL    HW2  178   1.905   3.198   0.566 -0.8418 -2.1811 -0.7696
   16SOL     OW  179   2.435   3.234   2.677 -0.1166 -0.1790  0.7204
   16SOL    HW1  180   2.346   3.261   2.701  0.3473  2.7843 -0.3822
   16SOL    HW2  181   2.487   3.249   2.755 -0.2036  0.3607  0.6773
   17SOL     OW  182   1.736   1.096   0.275 -0.4680 -0.1324  0.4679
   17SOL    HW1  183   1.702   1.137   0.196  0.7649 -0.6856 -0.3943
   17SOL    HW2  184   1.788   1.164   0.317 -0.5800 -0.0331  0.4455
   18SOL     OW  185   0.925   3.520   2.244  0.1722  0.5832  0.1127
   18SOL    HW1  186   0.842   3.558   2.214  0.4337 -0.8624 -2.8236
   18SOL    HW2  187   0.901   3.471   2.323 -2.1293 -0.8003 -1.3254
   19SOL     OW  188   1.792   3.012   2.656 -0.0609 -0.4236 -0.3311
   19SOL    HW1  189   1.791   2.934   2.710 -2.8491  0.2166  0.7022
   19SOL    HW2  190   1.780   2.980   2.567 -2.0472 -1.1977  0.1641
   20SOL     OW  191   3.484   3.183   0.015  0.1455  0.6166 -0.1707
   20SOL    HW1  192   3.450   3.228   0.093  1.3763  0.6523  0.3683
   20SOL    HW2  193   3.468   3.091   0.032 -0.7041  0.7004 -0.4475
   21SOL     OW  194   2.414   3.411   1.082  0.7284  0.6339  0.1031
   21SOL    HW1  195   2.337   3.356   1.091  0.1464  0.5575 -3.6390
   21SOL    HW2  196   2.380   3.500   1.079  1.0349  0.7671  0.4587
   22SOL     OW  197   0.967   1.716   3.211 -0.0350 -0.3780 -0.1602
   22SOL    HW1  198   0.912   1.637   3.207  0.1075 -0.4566 -0.7067
   22SOL    HW2  199   0.979   1.741   3.119 -0.6136  0.6613  0.0384
   23SOL     OW  200   0.544   1.141   2.694 -0.1625 -0.4525  0.8983
   23SOL    HW1  201   0.516   1.050   2.708  1.6532 -0.7710  3.0948
   23SOL    HW2  202   0.470   1.193   2.725 -1.5537 -1.0922 -1.1240
   24SOL     OW  203   0.428   1.731   0.012  0.2334  0.4119 -0.4369
   24SOL    HW1  204   0.377   1.681  -0.051  0.6165  1.3725 -1.5634
   24SOL    HW2  205   0.408   1.692   0.097  0.8627 -1.9035 -1.2894
   25SOL     OW  206   1.734   3.660   3.166 -0.2139  0.3532 -0.4675
   25SOL    HW1  207   1.793   3.733   3.183  0.1143 -0.1828  0.8050
   25SOL    HW2  208   1.689   3.646   3.249 -1.1644 -0.1100 -1.0464
   26SOL     OW  209   3.211   1.056   2.465 -0.0421  0.2150 -0.2365
   26SOL    HW1  210   3.216   1.151   2.479 -0.1924  0.4931 -1.8212
   26SOL    HW2  211   3.287   1.036   2.410 -1.0482 -0.2137 -1.5489
   27SOL     OW  212   2.279   3.077   0.151 -0.3605 -1.1879  0.2410
   27SOL    HW1  213   2.290   3.102   0.243  0.2478  2.4399 -0.6854
   27SOL    HW2  214   2.185   3.086   0.135 -0.0771  1.4974 -0.2438
   28SOL     OW  215   0.761   2.597   0.957 -0.4510  0.0333  0.5970
   28SOL    HW1  216   0.814   2.525   0.922 -0.1087  0.8499 -0.6445
   28SOL    HW2  217   0.805   2.676   0.927 -1.2987  0.7594  1.2009
   29SOL     OW  218   3.576   0.228   3.619 -0.4659  0.2982 -0.1212
   29SOL    HW1  219   3.555   0.181   3.538 -0.6599  0.1236  0.0302
   29SOL    HW2  220   3.496   0.224   3.671  0.1262 -0.9121  0.7278
   30SOL     OW  221   3.623   2.185   2.245  0.3820  0.2512  0.1946
   30SOL    HW1  222   3.678   2.106   2.233  0.5538  0.0228  2.1958
   30SOL    HW2  223   3.534   2.151   2.251  0.5611  0.0228  2.2546
   31SOL     OW  224   0.904   0.630   0.577  0.3220  0.5549 -0.4320
   31SOL    HW1  225   0.936   0.555   0.627  0.7641  1.0532  0.0525
   31SOL    HW2  226   0.854   0.681   0.640 -2.2452 -0.6387 -1.3699
   32SOL     OW  227   0.711   1.112   2.946 -0.3206 -0.9811 -0.7816
   32SOL    HW1  228   0.774   1.135   2.876  0.6356 -2.7157 -0.5582
   32SOL    HW2  229   0.674   1.029   2.917 -1.5930 -0.6101 -0.2634
   33SOL     OW  230   1.976   0.359   2.555 -0.5478 -0.3907 -0.2457
   33SOL    HW1  231   1.923   0.284   2.528  2.6901 -2.9092 -0.2530
   33SOL    HW2  232   2.031   0.378   2.479  0.0219  0.7666  0.4293
   34SOL     OW  233   0.173   3.658   3.601  0.1846 -0.4223  0.3318
   34SOL    HW1  234   0.096   3.626   3.649  0.3215 -0.2545  0.6698
   34SOL    HW2  235   0.139   3.680   3.514 -0.4560  0.9468  0.8906
   35SOL     OW  236   0.588   2.748   1.383  0.0397 -0.5714 -0.4458
   35SOL    HW1  237   0.525   2.757   1.455 -0.0923  0.3362 -0.6577
   35SOL    HW2  238   0.541   2.699   1.316 -1.2244  1.8192 -1.4281
   36SOL     OW  239   3.302   2.216   0.259 -0.4010 -0.2255 -0.3430
   36SOL    HW1  240   3.306   2.206   0.164  1.1338 -0.5535 -0.2643
   36SOL    HW2  241   3.215   2.185   0.282 -1.5728  1.7068 -1.8316
   37SOL     OW  242   0.993   2.609   1.145 -0.4933  0.2195  0.0373
   37SOL    HW1  243   1.064   2.663   1.180 -1.2489  1.9518 -0.9917
   37SOL    HW2  244   0.920   2.669   1.134 -0.2082  0.0162 -4.9260
   38SOL     OW  245   0.901   2.939   1.427 -0.3063  0.2793  0.4934
   38SOL    HW1  246   0.915   2.859   1.478 -0.3327  0.2036  0.3813
   38SOL    HW2  247   0.808   2.958   1.436 -0.7412 -0.8165 -1.1090
   39SOL     OW  248   3.395   1.601   2.016  0.0981 -0.1058  0.3583
   39SOL    HW1  249   3.460   1.672   2.013  1.1278 -1.0531 -0.7935
   39SOL    HW2  250   3.438   1.528   1.972 -1.1070 -1.3283  1.1497
   40SOL     OW  251   1.996   3.342   2.375 -0.1611 -0.2890 -0.2567
   40SOL    HW1  252   1.987   3.268   2.435  2.1542  1.2532  2.1824
   40SOL    HW2  253   1.914   3.391   2.385 -1.6132 -2.2453 -1.7057
   41SOL     OW  254   3.377   0.895   2.034  0.3889  0.5996  0.7622
   41SOL    HW1  255   3.319   0.873   1.962 -0.7273 -1.1167  2.0960
   41SOL    HW2  256   3.380   0.990   2.035 -2.7796  0.7995  0.8723
   42SOL     OW  257   1.302   3.236   1.021 -0.1643  0.4257 -0.2782
   42SOL    HW1  258   1.340   3.231   1.108 -0.9401 -0.0889  0.0476
   42SOL    HW2  259   1.302   3.329   0.999  0.1939  0.5402  0.1998
   43SOL     OW  260   0.885   2.816   0.868 -0.5567  0.6616 -0.4329
   43SOL    HW1  261   0.977   2.836   0.888 -0.3931 -1.9448  2.1951
   43SOL    HW2  262   0.888   2.774   0.783  0.8027  0.1310 -0.1485
   44SOL     OW  263   1.466   3.406   2.435  0.2959  0.0982 -0.7257
   44SOL    HW1  264   1.380   3.422   2.396  0.3782 -0.7763 -1.2860
   44SOL    HW2  265   1.471   3.310   2.444  0.1901  0.2550  1.6411
   45SOL     OW  266   3.570   2.482   3.227 -0.3016  0.5490 -0.1946
   45SOL    HW1  267   3.555   2.441   3.313  2.3780 -1.6516 -0.6430
   45SOL    HW2  268   3.629   2.554   3.245  1.9320 -1.1589 -0.3165
   46SOL     OW  269   0.772   0.154   3.114  0.1651 -0.0384 -0.2596
   46SOL    HW1  270   0.775   0.161   3.209 -0.6295  0.0912 -0.2320
   46SOL    HW2  271   0.701   0.213   3.088  0.6649  0.2731 -0.9729
   47SOL     OW  272   0.411   0.205   1.612 -0.1481  0.0465  0.1021
   47SOL    HW1  273   0.448   0.171   1.530  1.4008  2.8422 -0.4830
   47SOL    HW2  274   0.452   0.153   1.681  0.6144 -0.5690 -0.7959
   48SOL     OW  275   1.285   1.873   1.936  0.0584 -0.3483 -0.0610
   48SOL    HW1  276   1.203   1.852   1.892 -0.1532  0.0377  0.1491
   48SOL    HW2  277   1.327   1.788   1.951 -0.7183 -0.6132  0.6564
   49SOL     OW  278   3.096   0.243   1.884  0.3860  0.0380  0.2731
   49SOL    HW1  279   3.174   0.238   1.829  1.2795 -1.4336  1.6313
   49SOL    HW2  280   3.027   0.274   1.824  1.6805  0.0540 -1.2691
   50SOL     OW  281   2.572   1.653   1.821  0.3276 -0.5500  0.7903
   50SOL    HW1  282   2.612   1.734   1.789 -0.0545 -0.1143  1.3901
   50SOL    HW2  283   2.562   1.667   1.915 -3.8857  0.6272  0.4151
   51SOL     OW  284   3.054   1.629   0.599 -0.2351 -0.3582 -0.4489
   51SOL    HW1  285   3.127   1.628   0.660  0.5218 -0.5888 -1.3333
   51SOL    HW2  286   3.084   1.686   0.528 -0.3791 -1.4909 -1.4441
   52SOL     OW  287   0.595   2.882   1.780  0.5308 -0.3721 -0.2718
   52SOL    HW1  288   0.661   2.923   1.724  0.7688 -1.1662 -0.5895
   52SOL    HW2  289   0.615   2.913   1.868  0.2149  0.8117 -0.6048
   53SOL     OW  290   3.159   0.892   0.177 -0.0706 -0.0922  0.6940
   53SOL    HW1  291   3.115   0.820   0.224 -3.0242  1.7772  1.0356
   53SOL    HW2  292   3.102   0.910   0.103 -0.0620  2.6639  1.2819
   54SOL     OW  293   1.272   2.186   3.038 -0.1794  0.0317  0.4554
   54SOL    HW1  294   1.336   2.133   3.085  0.5088  0.3779 -0.0849
   54SOL    HW2  295   1.312   2.203   2.952 -0.4919  1.2188  0.5272
   55SOL     OW  296   3.083   0.501   0.142 -0.4443 -0.3383  0.0983
   55SOL    HW1  297   3.116   0.519   0.054 -0.8972  1.5274  0.2776
   55SOL    HW2  298   2.991   0.524   0.139 -1.8015 -4.7583 -0.1757
   56SOL     OW  299   3.368   1.198   2.091 -0.0477  0.0623 -0.4024
   56SOL    HW1  300   3.411   1.238   2.166 -0.1497 -1.5361  0.5455
   56SOL    HW2  301   3.279   1.179   2.121 -0.9326  1.7457 -1.7826
   57SOL     OW  302   0.989   2.759   2.004  0.1883 -0.2337 -0.5834
   57SOL    HW1  303   0.939   2.818   1.948  0.9576 -1.5324 -2.7455
   57SOL    HW2  304   0.961   2.781   2.093 -0.5586  2.4032 -1.3712
   58SOL     OW  305   1.065   2.293   2.457  0.1425  0.2631  0.7788
   58SOL    HW1  306   1.094   2.318   2.370  0.0970 -0.4969  0.5427
   58SOL    HW2  307   1.111   2.353   2.516 -0.8209  1.6521  0.1688
   59SOL     OW  308   1.071   2.886   0.170 -1.2231 -0.3043 -0.2489
   59SOL    HW1  309   1.007   2.957   0.165 -0.8714  0.1190  1.0155
   59SOL    HW2  310   1.115   2.888   0.084 -3.0115 -0.7569 -1.2297
   60SOL     OW  311   3.101   3.414   2.831  0.2742  0.2069 -0.2170
   60SOL    HW1  312   3.009   3.420   2.854  0.1779 -0.2866 -0.4679
   60SOL    HW2  313   3.142   3.373   2.908 -0.0681 -1.5591 -0.9177
   61SOL     OW  314   1.248   0.308   0.398  0.2086 -0.6701  0.2329
   61SOL    HW1  315   1.245   0.390   0.349  2.1748  0.7571  2.2933
   61SOL    HW2  316   1.338   0.302   0.430 -1.1793 -0.6636  4.8403
   62SOL     OW  317   0.145   0.305   2.369  0.1601 -0.3046  0.1897
   62SOL    HW1  318   0.225   0.339   2.409  0.7791 -0.1379 -1.1348
   62SOL    HW2  319   0.075   0.360   2.405  0.7712  0.2478  0.5595
   63SOL     OW  320   3.271   2.712   1.869 -0.0873 -0.0817 -0.0209
   63SOL    HW1  321   3.323   2.739   1.944  0.0269 -0.9740  0.2320
   63SOL    HW2  322   3.226   2.792   1.841  0.8988  0.5490  0.1621
   64SOL     OW  323   1.390   2.899   3.388  0.2278  0.2363  0.1266
   64SOL    HW1  324   1.379   2.965   3.320  1.3553  0.5103  0.1999
   64SOL    HW2  325   1.302   2.863   3.400 -0.4073  1.6885  0.0486
   65SOL     OW  326   2.230   2.966   2.046  0.6903  0.6991 -0.1256
   65SOL    HW1  327   2.179   2.959   2.127 -0.1302  0.2550 -0.6686
   65SOL    HW2  328   2.172   3.014   1.986 -0.6482 -2.8347 -1.9317
   66SOL     OW  329   0.420   2.931   2.442 -0.4635 -0.1419  0.0582
   66SOL    HW1  330   0.380   2.962   2.523 -0.1747  1.8150 -0.4945
   66SOL    HW2  331   0.474   2.857   2.468 -0.9527 -0.0154  1.5200
   67SOL     OW  332   1.056   0.948   3.611  0.0353 -0.0302 -0.2380
   67SOL    HW1  333   1.126   0.991   3.661  0.0323 -0.6467  0.3023
   67SOL    HW2  334   1.087   0.859   3.597 -0.9617 -0.5401  0.6676
   68SOL     OW  335   2.539   3.523   0.128 -0.5677  0.1640 -0.1141
   68SOL    HW1  336   2.578   3.439   0.152 -1.5325  0.2825  2.0939
   68SOL    HW2  337   2.581   3.546   0.045  1.6973 -1.1814  0.5694
   69SOL     OW  338   2.731   1.441   2.353  0.6313  0.3226 -0.1569
   69SOL    HW1  339   2.774   1.520   2.387  0.3283  0.1159  0.7302
   69SOL    HW2  340   2.648   1.436   2.401  0.0523  0.1711 -1.1379
   70SOL     OW  341   1.466   0.291   0.923 -0.1602 -0.0421  0.0024
   70SOL    HW1  342   1.448   0.232   0.996 -1.0492  0.8685  0.5583
   70SOL    HW2  343   1.549   0.333   0.946 -0.6613  0.5746  0.7383
   71SOL     OW  344   2.933   2.190   3.401 -0.0187  0.2418 -0.7231
   71SOL    HW1  345   2.875   2.120   3.430  2.0909 -1.4073 -0.2360
   71SOL    HW2  346   2.914   2.264   3.459  0.2154 -1.1521  1.2147
   72SOL     OW  347   0.359   0.968   0.011 -0.5340 -0.0463 -0.0062
   72SOL    HW1  348   0.298   1.041   0.002 -1.1670 -0.3070  1.7544
   72SOL    HW2  349   0.431   1.004   0.063  0.5543  0.0831 -1.5450
   73SOL     OW  350   2.720   1.558   0.722 -0.2886  0.4469 -0.2232
   73SOL    HW1  351   2.777   1.595   0.790 -1.3038  1.1432  0.2802
   73SOL    HW2  352   2.717   1.464   0.742 -0.1977  0.5742  0.4178
   74SOL     OW  353   0.224   1.596   2.942 -0.6022  0.4728 -0.1043
   74SOL    HW1  354   0.169   1.530   2.900 -0.3369  0.6353 -0.7266
   74SOL    HW2  355   0.179   1.679   2.925 -0.0117  0.6430 -0.9056
   75SOL     OW  356   3.143   1.909   2.837  0.0284  0.3698  0.0786
   75SOL    HW1  357   3.165   1.933   2.747 -1.3361  0.4900 -0.2341
   75SOL    HW2  358   3.190   1.827   2.851 -0.1644  0.0686 -0.9335
   76SOL     OW  359   2.831   0.676   1.641  0.0746  0.3956 -0.6848
   76SOL    HW1  360   2.751   0.726   1.662 -0.3712 -0.6766  0.2441
   76SOL    HW2  361   2.877   0.731   1.577 -1.5020  0.9565 -1.3956
   77SOL     OW  362   0.862   0.200   2.535 -0.1806  0.0115  0.0132
   77SOL    HW1  363   0.807   0.123   2.544  0.2460 -0.5170 -1.4985
   77SOL    HW2  364   0.921   0.197   2.610 -2.6509  1.0646  2.1797
   78SOL     OW  365   3.017   2.120   0.315  0.5865 -0.1551 -0.1848
   78SOL    HW1  366   2.954   2.153   0.251  1.3077  0.4809 -0.5836
   78SOL    HW2  367   3.000   2.026   0.319 -1.4912  0.2037  0.9500
   79SOL     OW  368   0.332   1.850   1.141  1.2250  0.2812 -0.3438
   79SOL    HW1  369   0.288   1.867   1.224  2.4564  0.1200  0.3573
   79SOL    HW2  370   0.401   1.787   1.162  1.4274  0.0797 -1.5282
   80SOL     OW  371   2.891   3.251   3.467 -0.0598  0.0324 -0.4611
   80SOL    HW1  372   2.985   3.264   3.477 -0.3262  0.7681  1.7738
   80SOL    HW2  373   2.877   3.158   3.481  0.4580 -0.3533 -2.3301
   81SOL     OW  374   1.960   1.858   0.569 -0.3931 -0.2433 -0.1273
   81SOL    HW1  375   1.934   1.948   0.591  1.5372 -0.1033  1.9583
   81SOL    HW2  376   1.955   1.811   0.652 -2.3634 -2.4131 -1.3531
   82SOL     OW  377   0.560   2.230   3.188  0.6416  0.3265 -0.5198
   82SOL    HW1  378   0.485   2.218   3.130 -0.8201 -0.1001  1.3565
   82SOL    HW2  379   0.602   2.144   3.191 -0.6260 -0.2684  0.7955
   83SOL     OW  380  -0.006   0.248   2.124  0.4751  0.2346 -0.1204
   83SOL    HW1  381  -0.050   0.334   2.119 -0.9905 -0.4249  0.7523
   83SOL    HW2  382   0.069   0.262   2.181  0.2657  0.9596 -0.0116
   84SOL     OW  383   2.131   1.465   2.813 -0.3683 -0.7228  0.4337
   84SOL    HW1  384   2.115   1.526   2.741 -0.4867  0.6348  1.5591
   84SOL    HW2  385   2.080   1.501   2.886  0.6225 -1.4214  1.5045
   85SOL     OW  386   2.511   1.222   1.676  0.1302 -0.1353 -0.0271
   85SOL    HW1  387   2.431   1.172   1.689 -0.8188  1.2496 -0.2905
   85SOL    HW2  388   2.562   1.171   1.613 -0.8157 -0.7330 -0.3194
   86SOL     OW  389   2.556   1.396   1.966  0.2425 -0.2553 -0.4999
   86SOL    HW1  390   2.512   1.462   2.020 -1.7935 -1.6107 -0.4001
   86SOL    HW2  391   2.646   1.393   1.999 -0.5937 -0.1105  1.9383
   87SOL     OW  392   1.340   3.093   0.796 -0.0017  0.7557 -0.6583
   87SOL    HW1  393   1.433   3.072   0.800 -0.0767  0.2527 -1.4325
   87SOL    HW2  394   1.323   3.140   0.878  0.8731  0.6366 -0.3953
   88SOL     OW  395   0.673   1.371   1.548  0.1820 -0.1782  0.5858
   88SOL    HW1  396   0.718   1.386   1.630  1.7012  2.8963 -0.6609
   88SOL    HW2  397   0.736   1.395   1.480 -1.2493 -1.8606 -1.5150
   89SOL     OW  398   0.306   2.695   2.784  0.2747  0.1870  0.4942
   89SOL    HW1  399   0.336   2.786   2.779 -0.1223  0.5619  3.1915
   89SOL    HW2  400   0.217   2.697   2.747  0.6584  0.6634 -0.4248
   90SOL     OW  401   3.289   1.658   0.721  0.0066 -0.1781 -0.6286
   90SOL    HW1  402   3.311   1.610   0.801 -0.0281  0.0721 -0.4695
   90SOL    HW2  403   3.373   1.673   0.678  0.1289  0.6172 -0.1111
   91SOL     OW  404   1.200   3.013   3.008 -0.2253  0.3531  0.6691
   91SOL    HW1  405   1.151   3.041   2.931  1.1223  0.1532 -0.3036
   91SOL    HW2  406   1.134   2.979   3.068 -1.3147  0.5286 -0.3959
   92SOL     OW  407   0.644   1.328   1.021 -0.0436  0.9452  0.0301
   92SOL    HW1  408   0.674   1.253   0.970  0.0525  1.1583 -0.2252
   92SOL    HW2  409   0.592   1.289   1.092 -0.9344  0.6903 -0.7354
   93SOL     OW  410   0.357   3.099   0.995  0.1763 -0.3534 -0.1900
   93SOL    HW1  411   0.378   3.142   1.078 -0.7291 -1.0931  0.4426
   93SOL    HW2  412   0.349   3.171   0.932 -1.2228  0.4441  0.8280
   94SOL     OW  413   1.008   0.887   2.368  0.0871  0.2369 -0.3467
   94SOL    HW1  414   0.930   0.864   2.417 -0.4413  0.1208 -1.2244
   94SOL    HW2  415   1.067   0.812   2.380 -0.9777 -0.8984 -1.8285
   95SOL     OW  416   0.039   2.366   1.864  0.0256 -0.1989  0.1048
   95SOL    HW1  417   0.013   2.454   1.838  2.3988  0.1968 -1.2218
   95SOL    HW2  418  -0.017   2.308   1.813  1.8573  0.5919 -3.0883
   96SOL     OW  419   2.947   1.192   2.696  0.5144  0.2461  0.7413
   96SOL    HW1  420   2.932   1.270   2.749  3.6850  0.4072  1.6053
   96SOL    HW2  421   3.014   1.143   2.743 -0.0918 -2.1306 -0.6960
   97SOL     OW  422   2.673   0.824   0.834  0.1886 -0.3099 -0.7680
   97SOL    HW1  423   2.748   0.854   0.884  0.1086 -1.7965  0.3109
   97SOL    HW2  424   2.705   0.749   0.785 -0.4597 -0.6758 -0.6487
   98SOL     OW  425   0.323   1.022   1.107  0.0448 -0.2168  0.6058
   98SOL    HW1  426   0.247   0.985   1.152  0.3101  1.0064  2.1485
   98SOL    HW2  427   0.396   1.010   1.168  0.6142  0.6705  0.1205
   99SOL     OW  428   1.686   2.646   1.257 -0.1111 -0.1607  0.4997
   99SOL    HW1  429   1.673   2.699   1.335 -0.0912 -1.1110  1.1583
   99SOL    HW2  430   1.780   2.653   1.239 -0.1981  0.4722  0.2407
  100SOL     OW  431   0.327   3.469   3.484  0.3748  0.1130 -0.2346
  100SOL    HW1  432   0.270   3.529   3.532  0.4677  0.1701 -0.1953
  100SOL    HW2  433   0.305   3.484   3.392  0.4766  0.2880 -0.2314
  101SOL     OW  434   3.254   2.673   3.589 -0.4899  0.2377 -0.4847
  101SOL    HW1  435   3.202   2.683   3.669 -1.4823  1.9322 -1.3042
  101SOL    HW2  436   3.344   2.687   3.618 -0.6094 -1.0698  0.6434
  102SOL     OW  437   1.548   3.553   0.895 -0.1665 -0.0590 -0.1393
  102SOL    HW1  438   1.463   3.560   0.938 -0.2969  0.4973 -0.4858
  102SOL    HW2  439   1.575   3.462   0.911  0.0603  0.2769  1.6339
  103SOL     OW  440   2.220   2.772   3.074  0.2410 -0.5410  0.0029
  103SOL    HW1  441   2.224   2.777   3.169 -1.3376 -0.7773  0.1006
  103SOL    HW2  442   2.246   2.860   3.044  0.0142 -0.2398  0.6744
  104SOL     OW  443   2.470   3.432   1.449  0.0849  0.3892 -0.0602
  104SOL    HW1  444   2.513   3.496   1.392 -0.2140 -0.6091 -1.4587
  104SOL    HW2  445   2.542   3.376   1.480  0.2028  0.7107  0.2484
  105SOL     OW  446   3.365   0.035   2.945  0.0173 -0.4479 -0.6586
  105SOL    HW1  447   3.311   0.020   2.867  1.4186  2.8907 -2.5036
  105SOL    HW2  448   3.383  -0.052   2.979 -0.6520 -2.1039 -4.1216
  106SOL     OW  449   3.053   3.037   3.433  0.4131  0.8382 -0.2501
  106SOL    HW1  450   3.011   2.965   3.386  3.5053 -0.2799 -1.5144
  106SOL    HW2  451   3.089   2.997   3.512 -0.9970  1.8503  0.9778
  107SOL     OW  452   2.313   2.299   0.809 -0.1433 -0.1218 -1.0651
  107SOL    HW1  453   2.302   2.293   0.904  1.4758 -1.9856 -0.9263
  107SOL    HW2  454   2.385   2.362   0.797  0.0366 -0.3187 -1.0204
  108SOL     OW  455   0.306   2.324   1.046  0.4867 -0.4558  0.8354
  108SOL    HW1  456   0.394   2.296   1.072 -0.7928 -2.8063  3.1108
  108SOL    HW2  457   0.275   2.253   0.990 -0.7265 -0.7522  1.8597
  109SOL     OW  458   0.257   0.702   0.102 -0.2505  0.2536 -0.6519
  109SOL    HW1  459   0.190   0.729   0.164 -1.2676 -0.5701 -1.3539
  109SOL    HW2  460   0.290   0.783   0.065 -1.2207  0.6557 -0.6534
  110SOL     OW  461   2.637   2.208   2.789 -0.2759  0.0380 -0.0706
  110SOL    HW1  462   2.613   2.287   2.838  1.2680 -0.2218  1.1868
  110SOL    HW2  463   2.601   2.222   2.702 -1.2698  1.4872  0.5389
  111SOL     OW  464   1.257   1.731   0.858 -0.3312  0.5995  0.6130
  111SOL    HW1  465   1.267   1.670   0.785  0.9120  1.3029  0.1776
  111SOL    HW2  466   1.271   1.678   0.936  1.9750  0.5370  0.2015
  112SOL     OW  467   0.312   0.154   3.528 -0.4638  0.0816  0.5521
  112SOL    HW1  468   0.341   0.214   3.459 -1.9609  0.9228  0.6104
  112SOL    HW2  469   0.275   0.079   3.481 -1.1030  0.4694  0.4159
  113SOL     OW  470   0.136   1.933   1.708  0.2675  0.3803  0.2200
  113SOL    HW1  471   0.173   1.943   1.796 -2.4511  1.3677  1.3616
  113SOL    HW2  472   0.209   1.901   1.655  2.1732  0.3308  2.6787
  114SOL     OW  473   2.127   2.038   2.832 -0.2930  0.0612  0.3074
  114SOL    HW1  474   2.112   1.947   2.855 -0.8272  0.5286  1.9223
  114SOL    HW2  475   2.223   2.047   2.831 -0.2395 -0.4967  0.1694
  115SOL     OW  476   2.021   1.397   1.233 -0.1786 -0.0612 -0.4819
  115SOL    HW1  477   2.074   1.324   1.200 -0.9143 -0.7806 -0.1021
  115SOL    HW2  478   2.043   1.401   1.326 -1.1705 -0.7111 -0.2072
  116SOL     OW  479   0.443   1.384   0.408  0.0649  0.6269  0.2370
  116SOL    HW1  480   0.348   1.379   0.414  0.0671 -0.0252 -0.1493
  116SOL    HW2  481   0.474   1.375   0.498 -0.2613  1.5743  0.4490
  117SOL     OW  482   3.344   0.333   3.383 -0.0518 -0.1732  0.2434
  117SOL    HW1  483   3.327   0.294   3.298  1.1260 -0.3891  0.0953
  117SOL    HW2  484   3.264   0.316   3.433 -0.6570 -0.2701 -0.7196
  118SOL     OW  485   0.696   1.755   3.717 -0.0666  0.2698  0.3366
  118SOL    HW1  486   0.606   1.729   3.735 -0.0168  0.1279  0.3782
  118SOL    HW2  487   0.698   1.770   3.623 -0.7356  2.5445  0.6235
  119SOL     OW  488   3.537   0.080   2.043  0.8806  0.3867  0.1690
  119SOL    HW1  489   3.457   0.130   2.059  0.5693 -0.4877  1.4962
  119SOL    HW2  490   3.607   0.135   2.079  0.6408  0.2465  0.8510
  120SOL     OW  491   2.473   0.023   1.469  0.0956 -0.3286 -0.1944
  120SOL    HW1  492   2.561   0.010   1.432  0.0338 -1.2144 -0.0569
  120SOL    HW2  493   2.416   0.025   1.392  0.2512  0.4558 -0.2974
  121SOL     OW  494   0.886   3.616   0.816  0.8239  0.1328 -0.5389
  121SOL    HW1  495   0.827   3.620   0.892  0.2490  1.2515 -1.0133
  121SOL    HW2  496   0.833   3.576   0.747  1.0420 -0.0436 -0.6031
  122SOL     OW  497   0.362   1.898   2.276 -0.0338  0.0797  0.5119
  122SOL    HW1  498   0.456   1.915   2.281  0.0276 -0.4710  1.6515
  122SOL    HW2  499   0.326   1.944   2.352 -0.5154 -0.6759  0.7482
  123SOL     OW  500   3.610   3.123   3.505 -0.0581  0.6022  0.0545
  123SOL    HW1  501   3.569   3.117   3.591  1.9839 -0.8261  0.9882
  123SOL    HW2  502   3.550   3.179   3.454 -4.2556 -2.8802  0.6128
  124SOL     OW  503   1.203   0.405   2.751 -0.0667  0.4924  0.2325
  124SOL    HW1  504   1.121   0.358   2.741  0.9428 -1.0152 -1.6016
  124SOL    HW2  505   1.229   0.429   2.662  1.4824  0.9064  0.7521
  125SOL     OW  506   2.268   2.580   1.836  0.7145  0.2342 -0.0644
  125SOL    HW1  507   2.298   2.498   1.796 -1.0396 -0.4568 -0.0374
  125SOL    HW2  508   2.318   2.587   1.917  0.5961 -1.0327  0.1386
  126SOL     OW  509   3.238   1.332   2.519 -0.1342  0.6993 -0.6003
  126SOL    HW1  510   3.180   1.409   2.524  0.9351  1.4739  0.3631
  126SOL    HW2  511   3.223   1.286   2.601  2.2415  2.1622  0.7618
  127SOL     OW  512   3.205   2.141   3.335 -0.4776  0.6529  0.0688
  127SOL    HW1  513   3.109   2.140   3.333 -0.5386 -2.5160 -1.2083
  127SOL    HW2  514   3.230   2.175   3.249 -0.5163 -0.3326 -0.3409
  128SOL     OW  515   1.199   0.492   0.761  0.0747 -0.5162  0.7923
  128SOL    HW1  516   1.222   0.572   0.809 -2.2107 -0.4309  1.8687
  128SOL    HW2  517   1.248   0.499   0.679  1.2784  1.1236  1.5811
  129SOL     OW  518   2.219   1.790   3.451  0.1107  0.6473 -0.3288
  129SOL    HW1  519   2.305   1.752   3.434 -0.6158 -1.3200  0.0591
  129SOL    HW2  520   2.174   1.786   3.366  0.2694  1.3599 -0.4543
  130SOL     OW  521   1.327   0.168   3.253  0.0920 -0.0601  0.3609
  130SOL    HW1  522   1.382   0.174   3.331 -1.5120 -1.2227  1.6407
  130SOL    HW2  523   1.389   0.167   3.180  1.6768  0.1446  1.6496
  131SOL     OW  524   1.049   3.510   2.005 -0.3798  0.9564  0.1713
  131SOL    HW1  525   1.016   3.523   2.094 -1.2997 -0.4230  0.0560
  131SOL    HW2  526   1.013   3.426   1.978  0.5179  0.9936 -1.2340
  132SOL     OW  527   2.726   2.666   0.310 -0.1708  0.1715 -0.0550
  132SOL    HW1  528   2.651   2.718   0.339 -2.7847 -2.4128 -1.6180
  132SOL    HW2  529   2.733   2.683   0.217 -0.7145 -1.7134 -0.4836
  133SOL     OW  530   1.213   2.607   0.752  0.2338 -0.0177 -0.0915
  133SOL    HW1  531   1.160   2.538   0.793  0.4239 -1.0733 -1.5226
  133SOL    HW2  532   1.302   2.572   0.753  0.0971 -0.5992 -2.3098
  134SOL     OW  533   1.367   1.628   1.605 -0.6040 -0.6479  0.5524
  134SOL    HW1  534   1.456   1.660   1.618 -0.4902 -0.2288 -0.9999
  134SOL    HW2  535   1.346   1.653   1.515 -1.8774 -1.7335  0.5177
  135SOL     OW  536   2.657   1.980   0.267  0.7924 -0.7980 -0.0930
  135SOL    HW1  537   2.626   1.964   0.356 -1.5821 -2.1222 -1.0603
  135SOL    HW2  538   2.583   2.022   0.224  0.2939 -3.7976 -2.4690
  136SOL     OW  539   1.373   2.067   2.652  0.2288 -0.3058  0.0313
  136SOL    HW1  540   1.368   1.992   2.710  3.7449 -1.7959 -1.3161
  136SOL    HW2  541   1.297   2.059   2.595  0.1173 -2.4674  0.4148
  137SOL     OW  542   3.336   2.205   2.812 -0.1610  0.1849 -0.4932
  137SOL    HW1  543   3.406   2.153   2.771  0.1018 -0.7547  1.0717
  137SOL    HW2  544   3.379   2.284   2.842  0.3467 -0.5718  0.8280
  138SOL     OW  545   0.488   1.877   0.286  0.2553  0.0540 -0.5369
  138SOL    HW1  546   0.507   1.788   0.254  1.0415 -1.2750  3.0757
  138SOL    HW2  547   0.401   1.897   0.252  0.5139 -1.5836 -2.3815
  139SOL     OW  548   2.568   3.355   2.908 -0.2367  0.4157  0.4492
  139SOL    HW1  549   2.661   3.367   2.927 -0.0572 -0.1729 -0.0503
  139SOL    HW2  550   2.539   3.286   2.967  0.4838 -1.9158 -1.7778
  140SOL     OW  551   2.904   1.606   0.214 -0.1248  0.1149 -0.2255
  140SOL    HW1  552   2.835   1.547   0.244 -0.1292  0.5952  0.7459
  140SOL    HW2  553   2.985   1.555   0.224  0.2359  1.1409  3.3807
  141SOL     OW  554   2.788   1.012   0.585  0.1691  0.0142 -0.0478
  141SOL    HW1  555   2.815   1.056   0.665 -0.1643 -0.3392  0.2673
  141SOL    HW2  556   2.746   1.080   0.533  1.2256  0.4569 -0.3405
  142SOL     OW  557   0.523   0.735   1.401  0.6224  0.2964 -0.0490
  142SOL    HW1  558   0.493   0.651   1.435  0.9289  0.0809 -0.3135
  142SOL    HW2  559   0.618   0.732   1.408  0.5911  1.0823  1.0265
  143SOL     OW  560   3.459   0.261   1.526 -0.1771 -0.2426 -0.0055
  143SOL    HW1  561   3.456   0.209   1.606  2.9939 -0.3547  0.1602
  143SOL    HW2  562   3.448   0.198   1.455  1.3328 -0.8442  0.2654
  144SOL     OW  563   3.384   2.767   0.236  0.0988 -0.3748 -0.1180
  144SOL    HW1  564   3.399   2.678   0.205  0.0006 -0.4212 -0.0320
  144SOL    HW2  565   3.359   2.757   0.327  1.1420 -0.1853  0.2032
  145SOL     OW  566   1.492   0.335   1.645 -0.1324 -0.4713  0.4160
  145SOL    HW1  567   1.563   0.306   1.587 -0.4707  0.2073 -0.3480
  145SOL    HW2  568   1.522   0.419   1.679  0.7379 -1.5348  2.4431
  146SOL     OW  569   3.066   0.023   3.277 -0.0178 -0.0902  0.5316
  146SOL    HW1  570   3.023   0.026   3.192 -1.1506 -0.8498  1.0539
  146SOL    HW2  571   3.077   0.115   3.302 -2.4404  0.1533  0.9002
  147SOL     OW  572   2.506   2.206   3.087  0.2169  0.5606 -0.6737
  147SOL    HW1  573   2.532   2.283   3.035  0.3628  1.2509  0.3845
  147SOL    HW2  574   2.589   2.171   3.119  0.2105 -0.5054 -1.7490
  148SOL     OW  575   1.966   2.711   1.210 -0.1059  0.0288 -0.1724
  148SOL    HW1  576   2.016   2.631   1.197 -0.9565 -0.2471 -2.0803
  148SOL    HW2  577   1.980   2.734   1.302  2.1612 -0.9145 -0.2229
  149SOL     OW  578   2.644  -0.008   2.292  0.1516  0.6470 -0.6270
  149SOL    HW1  579   2.557  -0.003   2.332  0.1920 -2.0153 -0.0735
  149SOL    HW2  580   2.632   0.029   2.205 -1.6260  0.0691 -0.6692
  150SOL     OW  581   2.670   0.953   2.526 -0.6749  0.0902  0.3658
  150SOL    HW1  582   2.642   1.044   2.533 -1.5589 -0.1476  0.0846
  150SOL    HW2  583   2.753   0.950   2.573 -0.0815  1.2760 -0.5359
  151SOL     OW  584   2.691   0.469   2.115  0.0907 -0.1962 -0.0036
  151SOL    HW1  585   2.778   0.429   2.127 -0.0436 -0.5256 -0.1264
  151SOL    HW2  586   2.660   0.433   2.032  0.2828  0.7375 -0.4897
  152SOL     OW  587   2.031   1.247   0.237  0.0027 -0.0766 -0.1574
  152SOL    HW1  588   2.058   1.338   0.250  1.8407 -0.6247  0.2531
  152SOL    HW2  589   2.093   1.196   0.290 -0.9116 -1.5834 -0.4701
  153SOL     OW  590   0.601   1.495   0.810  0.4937 -0.8285 -0.1920
  153SOL    HW1  591   0.631   1.464   0.895 -2.4017  0.1047  1.2608
  153SOL    HW2  592   0.549   1.423   0.774 -0.5884 -0.2224  0.1160
  154SOL     OW  593   3.070   3.229   1.246  0.4787  0.3849  0.5568
  154SOL    HW1  594   3.016   3.219   1.168  1.1400  2.8633 -0.3052
  154SOL    HW2  595   3.120   3.309   1.231 -0.1014  1.5574  3.9376
  155SOL     OW  596   3.396   2.789   2.661  0.3558  0.5699 -0.0247
  155SOL    HW1  597   3.315   2.760   2.701  1.5304 -1.5055  1.0452
  155SOL    HW2  598   3.369   2.841   2.586 -1.9385  3.1845  2.3939
  156SOL     OW  599   0.498   1.666   2.025 -0.1496 -0.4452 -0.5904
  156SOL    HW1  600   0.526   1.686   2.114 -0.9410  1.3276 -0.7023
  156SOL    HW2  601   0.569   1.697   1.969  0.9750 -2.7671 -0.5994
  157SOL     OW  602   2.781   2.378   2.304  0.1051  0.5697  0.2054
  157SOL    HW1  603   2.814   2.468   2.306  1.5571  0.0566  0.2206
  157SOL    HW2  604   2.800   2.343   2.391  1.3718 -0.3564 -0.4113
  158SOL     OW  605   3.528   1.167   2.556 -0.1744  0.5169 -0.2833
  158SOL    HW1  606   3.547   1.260   2.540 -0.8385  0.3395 -2.3311
  158SOL    HW2  607   3.434   1.158   2.538 -0.0188 -0.6450 -0.6064
  159SOL     OW  608   2.126   3.144   1.875  0.4439  0.2300  0.0315
  159SOL    HW1  609   2.121   3.238   1.892  1.4993  0.3804 -0.4724
  159SOL    HW2  610   2.103   3.134   1.783  2.4322  0.2430 -0.5103
  160SOL     OW  611   2.630   1.909   0.517  0.2881 -0.0490 -0.3227
  160SOL    HW1  612   2.692   1.836   0.515  1.7167  1.1217 -0.6391
  160SOL    HW2  613   2.685   1.986   0.531 -1.1528  0.9971 -0.2574
  161SOL     OW  614   0.860   0.478   2.582  0.1828  0.0794  0.3506
  161SOL    HW1  615   0.917   0.529   2.526  2.0434 -1.7618  0.4506
  161SOL    HW2  616   0.834   0.402   2.529 -1.5958  0.4732  0.5691
  162SOL     OW  617   2.006   3.419   3.210 -0.2645  1.0799  0.0262
  162SOL    HW1  618   1.918   3.381   3.209 -0.0030  0.4695 -0.3042
  162SOL    HW2  619   2.006   3.480   3.136 -0.1503  0.4549 -0.5015
  163SOL     OW  620   1.605   3.541   3.395  0.2766  0.5602 -0.7494
  163SOL    HW1  621   1.550   3.518   3.470  0.5416 -4.0652 -1.6225
  163SOL    HW2  622   1.689   3.564   3.433 -0.6491  2.1372  0.4299
  164SOL     OW  623   2.790   1.409   3.656  0.5823 -0.2453  0.0264
  164SOL    HW1  624   2.745   1.493   3.665  1.5371  0.1141  1.8845
  164SOL    HW2  625   2.850   1.422   3.582 -1.9845 -0.6392 -2.2980
  165SOL     OW  626   3.486   1.210   3.240 -0.4081 -0.0589  0.3328
  165SOL    HW1  627   3.422   1.145   3.212  1.1748 -1.2906 -0.5316
  165SOL    HW2  628   3.535   1.167   3.310  0.2441  0.4383  0.1871
  166SOL     OW  629   0.104   3.243   2.717 -0.4703 -0.4693  0.3944
  166SOL    HW1  630   0.154   3.255   2.636  0.2382 -1.0131  0.7439
  166SOL    HW2  631   0.027   3.194   2.690 -0.1848 -0.7416  0.0596
  167SOL     OW  632   3.010   1.404   0.898 -0.4865  0.2009  0.1260
  167SOL    HW1  633   3.058   1.442   0.972 -0.8771 -0.5594  0.7816
  167SOL    HW2  634   2.921   1.440   0.906 -0.7922 -0.6379  0.6050
  168SOL     OW  635   0.497   2.922   3.471  0.4427 -0.1324 -0.1242
  168SOL    HW1  636   0.521   2.872   3.393 -1.1197  0.9026 -1.3274
  168SOL    HW2  637   0.507   2.860   3.543  1.3010 -1.3095 -1.2121
  169SOL     OW  638   1.620   2.199   2.383 -0.6100  0.0904  0.5976
  169SOL    HW1  639   1.616   2.207   2.478 -0.7241 -1.5568  0.7570
  169SOL    HW2  640   1.712   2.183   2.364 -0.2537  2.2323  0.2187
  170SOL     OW  641   3.245   3.519   1.690 -0.2442  0.4959 -0.3609
  170SOL    HW1  642   3.296   3.509   1.770 -0.4284 -0.7682 -0.3775
  170SOL    HW2  643   3.304   3.491   1.619 -0.4410  0.5489 -0.5485
  171SOL     OW  644   1.511   3.267   0.234 -0.6949 -0.4404  0.5374
  171SOL    HW1  645   1.460   3.347   0.248  0.0214 -0.1227  1.4342
  171SOL    HW2  646   1.448   3.197   0.252 -1.0566 -0.0675  0.7788
  172SOL     OW  647   0.686   2.498   0.527  0.6712  0.0219 -0.3327
  172SOL    HW1  648   0.702   2.490   0.434  0.6959 -1.2148 -0.2456
  172SOL    HW2  649   0.727   2.420   0.565  2.4740  1.5313  0.9651
  173SOL     OW  650   3.124   1.106   2.143  0.4651 -0.2968  0.2130
  173SOL    HW1  651   3.043   1.108   2.195 -0.9979 -1.8550 -1.8607
  173SOL    HW2  652   3.148   1.014   2.139  2.2636  0.1267  0.6064
  174SOL     OW  653   3.545   2.764   0.645  0.1233 -0.8231  0.2193
  174SOL    HW1  654   3.490   2.842   0.649  1.3898  0.1162 -0.0144
  174SOL    HW2  655   3.584   2.757   0.732  0.8927 -0.5064 -0.0851
  175SOL     OW  656   2.744   2.019   2.162 -0.0842 -0.3809 -0.1780
  175SOL    HW1  657   2.833   2.047   2.180  0.1564 -2.2732  2.0299
  175SOL    HW2  658   2.751   1.926   2.145 -1.5765 -0.4452 -0.5837
  176SOL     OW  659   3.532   2.604   3.645  0.0457 -0.0866 -0.6093
  176SOL    HW1  660   3.600   2.661   3.609  0.3990  0.6059  1.0301
  176SOL    HW2  661   3.546   2.520   3.602  0.6302  0.6002 -1.8005
  177SOL     OW  662   0.093   3.678   2.569 -0.3750 -0.2198 -0.4019
  177SOL    HW1  663   0.183   3.708   2.583  0.5102 -2.2243 -1.3224
  177SOL    HW2  664   0.074   3.625   2.647 -1.2717  1.1667  0.3767
  178SOL     OW  665   0.936   1.017   0.311 -0.3482 -0.6256 -0.0138
  178SOL    HW1  666   0.998   1.087   0.286 -0.6043 -0.3147  0.2178
  178SOL    HW2  667   0.973   0.981   0.392 -1.1202  0.3922  0.8114
  179SOL     OW  668   0.679   3.742   3.674 -0.1906  0.1589  0.1627
  179SOL    HW1  669   0.663   3.653   3.644  0.1221  0.7833 -1.9830
  179SOL    HW2  670   0.773   3.756   3.663 -0.5923  1.5690 -2.0662
  180SOL     OW  671   2.088   3.425   0.069 -0.1242  0.6870  0.2208
  180SOL    HW1  672   2.121   3.369   0.140  2.0239  1.7910  0.1693
  180SOL    HW2  673   2.031   3.368   0.018  0.6714 -0.9869  1.1137
  181SOL     OW  674   3.444   1.548   0.922 -0.0358  0.1529  0.7737
  181SOL    HW1  675   3.445   1.463   0.966 -2.1250 -0.5935 -0.4557
  181SOL    HW2  676   3.508   1.601   0.969  0.7497 -1.8548  2.0673
  182SOL     OW  677   3.711   1.435   2.853 -0.1155 -0.2511 -0.4860
  182SOL    HW1  678   3.640   1.464   2.911 -0.1828 -0.3644 -0.5115
  182SOL    HW2  679   3.670   1.430   2.766 -0.0458 -0.1997 -0.5216
  183SOL     OW  680   3.401   0.584   2.384  0.1640 -0.3424 -0.2102
  183SOL    HW1  681   3.381   0.674   2.407  1.1237 -0.1544 -0.0694
  183SOL    HW2  682   3.353   0.569   2.302 -0.8829 -0.0742  0.3273
  184SOL     OW  683   1.969   2.795   2.067 -0.2642  0.1099 -0.4655
  184SOL    HW1  684   1.933   2.861   2.008  1.2644  1.2496 -0.1891
  184SOL    HW2  685   2.021   2.845   2.130  2.0471 -1.4111 -1.0297
  185SOL     OW  686   3.240   3.447   2.514  0.3293  0.2938 -0.8299
  185SOL    HW1  687   3.321   3.488   2.483  0.1350  0.9026 -0.5539
  185SOL    HW2  688   3.179   3.521   2.526  0.7084  0.2624  1.9870
  186SOL     OW  689   0.617   0.549   2.327  0.4269  0.3926 -1.0504
  186SOL    HW1  690   0.643   0.464   2.293 -0.1489  0.1963 -1.0037
  186SOL    HW2  691   0.602   0.603   2.249 -1.2542 -0.1637 -1.1486
  187SOL     OW  692   1.496   0.782   3.536  0.3059 -0.1287 -0.0458
  187SOL    HW1  693   1.455   0.713   3.588 -2.8941  2.4916  1.2892
  187SOL    HW2  694   1.567   0.815   3.590 -0.3194 -0.1696  0.8101
  188SOL     OW  695   1.612   2.519   2.037 -0.4267  0.0460 -0.4633
  188SOL    HW1  696   1.550   2.507   1.965 -0.9853 -2.2056  0.2912
  188SOL    HW2  697   1.698   2.508   1.997 -0.1891  4.7247 -1.8292
  189SOL     OW  698   0.435   0.026   3.095 -0.0271  0.3038  0.9728
  189SOL    HW1  699   0.469   0.115   3.098 -0.2041  0.4665 -0.7921
  189SOL    HW2  700   0.509  -0.030   3.118  0.7637  0.7992 -0.2615
  190SOL     OW  701   1.489   3.624   1.454  0.0671 -0.1762 -0.0850
  190SOL    HW1  702   1.412   3.567   1.451  0.3025 -0.5857  1.1905
  190SOL    HW2  703   1.536   3.598   1.533  0.4303  1.4738  0.2850
  191SOL     OW  704   3.290   2.916   0.630  0.1419  0.4420 -0.2942
  191SOL    HW1  705   3.217   2.964   0.593 -0.4716  0.7242  1.2219
  191SOL    HW2  706   3.288   2.831   0.586 -0.9130  0.5555 -0.4720
  192SOL     OW  707   3.091   3.698   1.923 -0.6236  0.5054 -0.3184
  192SOL    HW1  708   3.064   3.758   1.854  2.0948  1.2354 -0.8433
  192SOL    HW2  709   3.150   3.636   1.880  0.5286  0.5108  1.1711
  193SOL     OW  710   3.167   1.984   1.293  0.5431  0.4992 -0.3447
  193SOL    HW1  711   3.205   2.063   1.256  0.0719  0.8567 -0.0642
  193SOL    HW2  712   3.200   1.913   1.237 -0.2324  1.0300 -1.5118
  194SOL     OW  713   1.975   2.464   3.179 -0.1707  0.1884 -0.7911
  194SOL    HW1  714   1.975   2.407   3.102  0.5773  0.5060 -1.0317
  194SOL    HW2  715   2.053   2.436   3.228  1.4059  2.3384 -1.9234
  195SOL     OW  716   1.747   2.282   0.897 -0.8714  0.2173 -0.0248
  195SOL    HW1  717   1.690   2.225   0.948 -0.9519 -2.0644 -2.4260
  195SOL    HW2  718   1.833   2.273   0.937 -0.8746 -1.7496 -0.3730
  196SOL     OW  719   0.831   2.141   0.952 -0.5358 -0.5896 -0.4555
  196SOL    HW1  720   0.779   2.068   0.919 -1.8432  0.8243 -1.6275
  196SOL    HW2  721   0.793   2.161   1.038 -0.9158 -0.5766 -0.6240
  197SOL     OW  722   0.145   3.207   3.086  0.6854  0.3898 -0.4953
  197SOL    HW1  723   0.131   3.193   3.180  2.0117 -0.4078 -0.3983
  197SOL    HW2  724   0.064   3.251   3.057  0.0257  0.1769  0.8989
  198SOL     OW  725   1.273   0.968   1.922  0.6772 -0.7111 -0.3850
  198SOL    HW1  726   1.249   0.934   1.836 -0.2677  1.7912 -1.2013
  198SOL    HW2  727   1.224   1.050   1.930  2.2054  0.0826  1.7382
  199SOL     OW  728   1.555   0.749   2.768 -0.6204  0.3946  0.3665
  199SOL    HW1  729   1.588   0.818   2.710 -2.0070 -1.1906 -2.5525
  199SOL    HW2  730   1.553   0.789   2.855  3.9076  2.1847 -0.0657
  200SOL     OW  731   0.726   2.895   2.753 -1.0984  0.0858  0.2498
  200SOL    HW1  732   0.809   2.882   2.798 -1.0351 -1.4564 -0.2606
  200SOL    HW2  733   0.663   2.910   2.823 -0.8072 -1.1786  0.8188
  201SOL     OW  734   0.056   1.101   2.589 -0.5189 -0.2644  0.1920
  201SOL    HW1  735   0.067   1.108   2.684  0.4363  0.7762  0.0241
  201SOL    HW2  736  -0.039   1.102   2.576 -0.6592 -0.3406  1.1222
  202SOL     OW  737   0.041   1.308   0.419  0.1601  0.0551 -0.1356
  202SOL    HW1  738   0.045   1.236   0.356  1.2270  0.5493 -0.6653
  202SOL    HW2  739   0.027   1.386   0.366 -1.4531  0.2113  0.4736
  203SOL     OW  740   3.598   0.387   0.769  0.2868 -0.1654  0.2301
  203SOL    HW1  741   3.638   0.302   0.751  1.9902  0.7162 -0.3705
  203SOL    HW2  742   3.567   0.417   0.683 -1.3039 -0.6246  0.6134
  204SOL     OW  743   1.335   3.540   3.325  0.2985 -0.2474 -0.4284
  204SOL    HW1  744   1.350   3.563   3.417 -0.8398 -0.0446 -0.2806
  204SOL    HW2  745   1.421   3.511   3.293  0.4964 -1.3478  0.9947
  205SOL     OW  746   2.859   1.432   2.779 -0.0081  0.4869  0.4314
  205SOL    HW1  747   2.782   1.476   2.743 -0.0585 -0.4560 -0.6598
  205SOL    HW2  748   2.927   1.499   2.780 -0.0861  0.6294 -1.1806
  206SOL     OW  749   0.398   2.447   3.480 -0.1145  0.0133  0.0035
  206SOL    HW1  750   0.346   2.409   3.409  2.0228 -0.9184 -1.1336
  206SOL    HW2  751   0.426   2.532   3.447  0.5702 -0.2591 -0.1238
  207SOL     OW  752   2.715   0.057   0.387 -0.1144  0.3803 -0.3702
  207SOL    HW1  753   2.779  -0.008   0.417  0.7213  1.8125  1.1362
  207SOL    HW2  754   2.673   0.088   0.467 -1.0156  1.1667 -1.1268
  208SOL     OW  755   3.598   2.059   1.962 -0.6606  0.7078 -0.2479
  208SOL    HW1  756   3.661   2.126   1.989 -0.2806  0.7248 -1.1504
  208SOL    HW2  757   3.516   2.085   2.006  0.0664  0.3687  1.3869
  209SOL     OW  758   2.356   0.803   2.801 -0.1404  0.1917 -0.1786
  209SOL    HW1  759   2.260   0.811   2.804 -0.2933 -1.5392  1.1168
  209SOL    HW2  760   2.372   0.739   2.732  0.1338  0.8004 -0.6897
  210SOL     OW  761   2.367   3.519   1.953  0.2280 -0.3965 -0.4203
  210SOL    HW1  762   2.301   3.575   1.913 -0.5076 -0.9705 -0.0317
  210SOL    HW2  763   2.374   3.443   1.895  0.0345 -0.6635 -0.0989
  211SOL     OW  764   3.691   1.244   2.228 -0.4924 -0.0097  0.4213
  211SOL    HW1  765   3.652   1.311   2.173  0.2600 -0.5696 -0.8273
  211SOL    HW2  766   3.700   1.285   2.314 -2.3517  0.6466  0.3520
  212SOL     OW  767   2.606   3.678   1.966  0.2078  0.5321 -0.4617
  212SOL    HW1  768   2.530   3.620   1.966 -1.2585  2.3579 -0.0681
  212SOL    HW2  769   2.575   3.759   2.007  2.9797  0.5885  1.9272
  213SOL     OW  770   3.324   1.397   0.505 -0.6861 -0.9999 -0.0410
  213SOL    HW1  771   3.309   1.336   0.433  0.2482 -1.5012  0.1683
  213SOL    HW2  772   3.236   1.423   0.533 -1.0767 -0.0819 -1.9360
  214SOL     OW  773   1.021   1.818   1.864  0.4570 -0.1042  0.0220
  214SOL    HW1  774   1.005   1.727   1.840  1.3900 -0.2958  0.0956
  214SOL    HW2  775   1.009   1.867   1.782 -1.3358 -0.1157  0.2549
  215SOL     OW  776   0.962   0.205   0.509  0.5473  0.0313 -0.2168
  215SOL    HW1  777   1.042   0.250   0.485  0.4329 -0.9708 -2.8289
  215SOL    HW2  778   0.989   0.138   0.571  1.5505  0.3805 -0.2720
  216SOL     OW  779   0.519   2.527   2.889 -0.1762 -0.1646  0.4969
  216SOL    HW1  780   0.444   2.564   2.841  1.2749 -0.0906 -1.8939
  216SOL    HW2  781   0.591   2.586   2.869  1.3773 -2.2497 -0.4313
  217SOL     OW  782   2.998   3.626   1.402  0.4373 -1.2309 -0.5150
  217SOL    HW1  783   3.054   3.595   1.330  0.9302 -1.8401  0.1209
  217SOL    HW2  784   2.994   3.552   1.462 -1.5692 -1.4384 -0.8327
  218SOL     OW  785   1.049   0.537   0.364 -0.5600  0.1288 -0.1512
  218SOL    HW1  786   0.986   0.585   0.418 -0.0280  0.7269 -0.0488
  218SOL    HW2  787   1.134   0.553   0.406 -0.1162  0.7227 -1.2316
  219SOL     OW  788   1.752   3.356   3.230  0.2358  0.0414  0.0454
  219SOL    HW1  789   1.714   3.276   3.265  0.1886 -1.5926 -3.3556
  219SOL    HW2  790   1.712   3.426   3.283 -2.5662 -1.9406  0.8002
  220SOL     OW  791   2.267   1.884   2.049  0.1957  0.0162  0.1573
  220SOL    HW1  792   2.176   1.876   2.020  0.3548 -0.4995 -0.2153
  220SOL    HW2  793   2.265   1.859   2.141 -0.1841  0.8958  0.3969
  221SOL     OW  794   2.592   0.201   1.154 -0.2491  0.2326 -0.5362
  221SOL    HW1  795   2.671   0.147   1.163  0.4856  1.5435  1.4170
  221SOL    HW2  796   2.625   0.290   1.140 -1.3924  0.6882 -0.4334
  222SOL     OW  797   2.720   2.077   3.584 -0.1916  0.1063  0.1252
  222SOL    HW1  798   2.645   2.126   3.615 -1.1041 -1.0006 -0.2619
  222SOL    HW2  799   2.685   1.991   3.560  0.7510  0.2990 -2.2252
  223SOL     OW  800   0.508   3.377   2.239  0.2159 -0.4103 -0.5832
  223SOL    HW1  801   0.513   3.283   2.217 -2.5077 -0.4819 -1.2443
  223SOL    HW2  802   0.461   3.379   2.322  0.9103  0.3605 -0.2033
  224SOL     OW  803   1.552   2.846   3.051  0.3099  0.4182  0.2839
  224SOL    HW1  804   1.519   2.924   3.096  1.7007  1.6410 -0.7161
  224SOL    HW2  805   1.494   2.836   2.975  0.2940  0.6482  0.2656
  225SOL     OW  806   0.759   1.011   1.543 -0.2593 -0.4218  0.2789
  225SOL    HW1  807   0.761   1.043   1.453  0.7819 -0.7681  0.1590
  225SOL    HW2  808   0.819   1.068   1.590 -2.7650  1.4679  1.3999
  226SOL     OW  809   3.104   0.916   1.184  0.3842  0.4265 -0.3811
  226SOL    HW1  810   3.187   0.897   1.228  1.0431  0.5658 -1.5211
  226SOL    HW2  811   3.039   0.865   1.232  1.5843 -2.0393 -1.2282
  227SOL     OW  812   3.023   3.222   0.021 -0.9762 -0.5183  0.3603
  227SOL    HW1  813   3.007   3.202   0.114  0.5029 -0.7679  0.5942
  227SOL    HW2  814   3.032   3.136  -0.020  0.9857 -0.4223  0.5149
  228SOL     OW  815   2.643   2.288   0.332  0.4074  0.0661 -0.1835
  228SOL    HW1  816   2.638   2.315   0.240  1.2858  1.1812  0.0788
  228SOL    HW2  817   2.692   2.358   0.375 -0.1646 -0.3490  1.1819
  229SOL     OW  818   2.461   0.296   2.347  0.0604 -0.1053 -0.0177
  229SOL    HW1  819   2.443   0.390   2.339  0.1933 -0.0472  0.3287
  229SOL    HW2  820   2.409   0.269   2.423 -1.0891 -0.6090 -0.9519
  230SOL     OW  821   3.353   0.331   2.602  0.4604  0.3487 -0.1382
  230SOL    HW1  822   3.374   0.416   2.640 -1.0295  0.1610  1.2071
  230SOL    HW2  823   3.271   0.306   2.643  1.0530 -1.9349 -0.2113
  231SOL     OW  824   1.486   1.421   1.875  0.8109  0.6379  0.4886
  231SOL    HW1  825   1.564   1.405   1.822 -0.5694  0.0405 -1.5124
  231SOL    HW2  826   1.481   1.346   1.935  1.5797  0.4973  0.3807
  232SOL     OW  827   0.734   0.951   3.670  1.2206 -0.4348  0.3812
  232SOL    HW1  828   0.815   0.903   3.651  1.4256 -2.1365  4.5606
  232SOL    HW2  829   0.764   1.038   3.697  1.3870 -0.1811 -0.5714
  233SOL     OW  830   1.187   0.113   0.197  0.2021 -0.4164 -0.2316
  233SOL    HW1  831   1.161   0.192   0.150 -0.0280 -0.1262  0.3866
  233SOL    HW2  832   1.251   0.142   0.262  0.9713 -0.9075 -0.7417
  234SOL     OW  833   3.720   0.312   2.993 -0.2714  0.3592 -0.3899
  234SOL    HW1  834   3.640   0.353   2.960  0.3396  1.1723 -0.8767
  234SOL    HW2  835   3.720   0.225   2.953 -1.0964  0.2049 -0.0862
  235SOL     OW  836   0.493   1.473   2.522 -0.4740  0.8532 -0.3340
  235SOL    HW1  837   0.540   1.391   2.542 -0.6224  0.7792 -0.2847
  235SOL    HW2  838   0.518   1.493   2.432  1.1236  1.8121  0.2883
  236SOL     OW  839   1.442   2.436   1.862  0.0846  0.8907  0.2265
  236SOL    HW1  840   1.498   2.358   1.856  0.4767  1.0576  1.5310
  236SOL    HW2  841   1.397   2.439   1.777  2.3220  0.9615 -1.0362
  237SOL     OW  842   0.802   1.312   0.575  0.3307  0.3962  0.0122
  237SOL    HW1  843   0.867   1.284   0.640 -0.0157  1.7541  0.9761
  237SOL    HW2  844   0.732   1.247   0.583 -0.9351  1.9499  2.9575
  238SOL     OW  845   3.401   3.297   2.792 -0.1824  0.8407  0.3092
  238SOL    HW1  846   3.355   3.221   2.826  0.0014 -0.2363 -1.7532
  238SOL    HW2  847   3.337   3.341   2.736 -0.1201  1.9429  1.0673
  239SOL     OW  848   2.682   1.601   3.241 -0.3464  0.2157  0.1353
  239SOL    HW1  849   2.759   1.582   3.296 -0.7391  0.4232  0.7693
  239SOL    HW2  850   2.661   1.517   3.200  0.4431  0.2401 -0.3470
  240SOL     OW  851   1.949   2.901   0.681  1.0979  0.3243 -0.5463
  240SOL    HW1  852   2.015   2.901   0.750  0.2772  0.6939  0.2585
  240SOL    HW2  853   1.903   2.984   0.692 -0.4047 -0.5115 -0.1884
  241SOL     OW  854   2.624   0.276   2.906 -0.0419 -0.3089  0.2381
  241SOL    HW1  855   2.574   0.203   2.944  1.5597 -3.3006 -2.8421
  241SOL    HW2  856   2.641   0.248   2.816  3.5713  2.4293 -0.1129
  242SOL     OW  857   3.592   2.296   0.167 -0.2950  0.5108  0.0286
  242SOL    HW1  858   3.600   2.211   0.211 -0.1107  0.0526 -0.8759
  242SOL    HW2  859   3.683   2.326   0.157 -0.3514  0.7381  0.1951
  243SOL     OW  860   1.554   1.293   3.207  0.2040 -0.1957 -0.4678
  243SOL    HW1  861   1.589   1.291   3.118 -0.1495  1.7943 -0.6882
  243SOL    HW2  862   1.460   1.277   3.197  0.0856  0.4973 -0.5203
  244SOL     OW  863   1.743   0.835   3.677 -0.3212  0.4663  0.1575
  244SOL    HW1  864   1.813   0.898   3.695  0.0977  0.1177 -0.1969
  244SOL    HW2  865   1.697   0.825   3.760 -0.0524  0.8330  0.3532
  245SOL     OW  866   1.109   2.681   3.134 -0.6344  0.3090 -0.5091
  245SOL    HW1  867   1.036   2.698   3.074 -1.2016 -3.9495 -1.3252
  245SOL    HW2  868   1.184   2.667   3.076  0.1590  1.4974  0.1736
  246SOL     OW  869   2.033   3.094   2.534  0.0749  0.0793 -0.2436
  246SOL    HW1  870   2.091   3.021   2.556  1.3810  1.6658  1.9155
  246SOL    HW2  871   1.951   3.075   2.581  0.5711  0.1990  0.6954
  247SOL     OW  872   0.406   2.382   2.159  0.4694  0.2390  0.5363
  247SOL    HW1  873   0.412   2.422   2.073 -0.3609 -0.7972 -0.0304
  247SOL    HW2  874   0.477   2.317   2.160  0.5825  0.3622  0.7084
  248SOL     OW  875   0.689   3.549   1.031  0.1586  0.7285 -0.5164
  248SOL    HW1  876   0.622   3.511   0.974  1.5146 -0.7767 -1.1693
  248SOL    HW2  877   0.650   3.547   1.118 -0.9028  0.5054 -0.9830
  249SOL     OW  878   2.642   3.250   0.457 -0.0934 -0.5604  0.5465
  249SOL    HW1  879   2.682   3.233   0.372  1.0221  0.3013  0.8596
  249SOL    HW2  880   2.668   3.340   0.478 -4.6323  1.2273 -0.4851
  250SOL     OW  881   3.160   1.150   0.263 -0.0898 -0.4325  0.2801
  250SOL    HW1  882   3.099   1.090   0.305 -0.8525  0.0984 -0.0415
  250SOL    HW2  883   3.201   1.098   0.193  0.3397 -0.9845  0.9302
  251SOL     OW  884   1.930   3.192   0.998 -0.0298  0.2898 -0.4125
  251SOL    HW1  885   1.995   3.204   1.067  1.2610 -2.7137 -0.9808
  251SOL    HW2  886   1.848   3.176   1.044  0.3515  0.5571  0.3759
  252SOL     OW  887   2.080   0.875   2.360  0.4566  0.2386  0.2232
  252SOL    HW1  888   2.079   0.793   2.408 -1.6790 -0.6172 -1.1238
  252SOL    HW2  889   2.159   0.872   2.307  0.7123 -0.6481  0.6478
  253SOL     OW  890   3.346   2.749   2.170 -0.3108 -0.0809  0.4702
  253SOL    HW1  891   3.355   2.654   2.166 -3.7428 -0.6282  2.3886
  253SOL    HW2  892   3.354   2.770   2.263 -0.4219  1.4396  0.1689
  254SOL     OW  893   2.627   0.574   3.065  0.3581  0.2653 -0.6213
  254SOL    HW1  894   2.583   0.543   2.985  0.0293 -0.5478 -0.1342
  254SOL    HW2  895   2.701   0.625   3.033 -2.3246  3.9925 -1.5850
  255SOL     OW  896   1.620   2.654   0.744  0.5312 -0.2524 -0.0911
  255SOL    HW1  897   1.704   2.632   0.704  1.3936 -0.5612  1.7997
  255SOL    HW2  898   1.595   2.737   0.701  2.7209  0.8348  0.5843
  256SOL     OW  899   3.056   3.269   2.243 -0.2310  0.4749 -0.3197
  256SOL    HW1  900   3.030   3.292   2.332  0.2760 -0.9293  0.2239
  256SOL    HW2  901   2.975   3.238   2.202 -0.2734  0.1983 -0.0283
  257SOL     OW  902   2.166   2.108   0.623 -0.8856 -0.4127 -0.4005
  257SOL    HW1  903   2.228   2.036   0.609 -0.4459  0.1563 -1.4930
  257SOL    HW2  904   2.205   2.159   0.694  0.1186  0.1237 -1.2935
  258SOL     OW  905   3.068   1.042   2.903 -0.1721 -0.0018 -0.2440
  258SOL    HW1  906   2.997   1.048   2.967 -0.5139 -0.4132 -0.5757
  258SOL    HW2  907   3.129   0.979   2.942 -0.6644 -0.7009 -0.5793
  259SOL     OW  908   3.563   3.371   1.908 -0.0673 -0.0514  0.0733
  259SOL    HW1  909   3.554   3.354   1.814 -0.5850 -2.0080  0.4445
  259SOL    HW2  910   3.534   3.462   1.918  1.6656  0.8159 -1.8784
  260SOL     OW  911   1.077   2.088   0.579 -0.7655  0.0480  0.3195
  260SOL    HW1  912   1.125   2.044   0.648 -1.6416 -0.1368  0.8283
  260SOL    HW2  913   1.126   2.069   0.499 -0.1880 -0.4100  0.7784
  261SOL     OW  914   0.886   3.588   1.557  0.7915 -0.2277 -0.7695
  261SOL    HW1  915   0.879   3.640   1.477 -0.9131  0.7804 -0.0374
  261SOL    HW2  916   0.796   3.579   1.587  1.4269  0.1324  1.4602
  262SOL     OW  917   0.878   1.710   0.381  0.2330 -0.1795  0.4388
  262SOL    HW1  918   0.871   1.617   0.356 -1.9508  0.2211 -0.6402
  262SOL    HW2  919   0.858   1.711   0.475 -3.0773 -0.5385 -0.1488
  263SOL     OW  920   3.587   0.870   1.558 -0.4312 -0.0168 -0.2752
  263SOL    HW1  921   3.575   0.870   1.653  1.5144  0.5047  0.0319
  263SOL    HW2  922   3.626   0.785   1.539  0.4460  0.3901 -0.3765
  264SOL     OW  923   1.448   1.665   1.063 -0.1519 -0.1299 -0.4439
  264SOL    HW1  924   1.393   1.693   1.136 -0.8833  1.3945 -1.5104
  264SOL    HW2  925   1.517   1.612   1.103 -2.0583 -1.6666  1.0002
  265SOL     OW  926   2.408   2.274   2.162 -0.7418  0.1363  0.0890
  265SOL    HW1  927   2.426   2.341   2.227  0.6970 -1.2641  1.2195
  265SOL    HW2  928   2.379   2.198   2.213 -2.9173  0.0229 -1.1916
  266SOL     OW  929   0.318   1.409   0.074 -0.3481 -0.2935 -0.5349
  266SOL    HW1  930   0.395   1.463   0.093 -0.1993 -0.5823 -0.3143
  266SOL    HW2  931   0.275   1.454   0.001 -0.1329  0.0313 -0.4631
  267SOL     OW  932   2.818   3.524   1.039 -0.4813  0.0303  0.2139
  267SOL    HW1  933   2.842   3.614   1.062 -0.1478 -0.2068  0.8111
  267SOL    HW2  934   2.736   3.533   0.991 -1.4977  0.5080  1.9597
  268SOL     OW  935   2.339   3.622   0.854  0.0895 -0.1529  0.5208
  268SOL    HW1  936   2.299   3.621   0.767 -0.0318  0.6207  0.5540
  268SOL    HW2  937   2.264   3.625   0.915  0.0517 -3.5793  0.8171
  269SOL     OW  938   0.959   2.018   2.084 -0.1688  0.3832  0.0834
  269SOL    HW1  939   1.047   2.010   2.122 -0.4089  1.4356  0.9130
  269SOL    HW2  940   0.971   1.999   1.991  1.1771  1.7534 -0.0595
  270SOL     OW  941   3.305   0.674   1.819 -0.1525  0.3090  0.0223
  270SOL    HW1  942   3.335   0.640   1.734 -3.9501  0.0298 -1.4229
  270SOL    HW2  943   3.263   0.757   1.798  1.3080  1.6857  2.1875
  271SOL     OW  944   0.883   2.180   0.131  0.1146 -0.0865  0.0859
  271SOL    HW1  945   0.884   2.238   0.207  1.3266  1.3406 -0.9518
  271SOL    HW2  946   0.874   2.092   0.168  0.3073  0.5896  1.8515
  272SOL     OW  947   2.962   0.038   3.005  0.3061  0.2580 -0.2343
  272SOL    HW1  948   2.984  -0.044   2.962  1.7512  0.3194  0.3176
  272SOL    HW2  949   2.867   0.047   2.995 -0.0587 -2.0317  0.6691
  273SOL     OW  950   3.109   0.290   1.277  0.6289  0.1793  0.1149
  273SOL    HW1  951   3.031   0.318   1.326 -0.1694 -1.2639 -0.2776
  273SOL    HW2  952   3.177   0.281   1.344 -0.0154 -0.2196  0.7375
  274SOL     OW  953   2.023   1.694   3.616  0.1889 -0.9438 -0.3942
  274SOL    HW1  954   1.973   1.700   3.534  0.1560 -0.1346 -0.3255
  274SOL    HW2  955   2.114   1.708   3.590  0.0288  0.8627 -0.1295
  275SOL     OW  956   1.299   1.057   1.628  0.3839 -0.3332 -0.6111
  275SOL    HW1  957   1.348   1.036   1.707 -0.1753 -1.1988 -0.4827
  275SOL    HW2  958   1.340   1.137   1.595 -0.3355  0.9408  1.3907
  276SOL     OW  959   1.303   0.285   1.840  0.0427 -0.1640 -0.4542
  276SOL    HW1  960   1.351   0.361   1.807 -1.0281  0.3993 -0.7559
  276SOL    HW2  961   1.348   0.210   1.802  0.8060  0.3359 -0.5638
  277SOL     OW  962   2.579   2.058   2.358 -0.2574  0.1805  0.3729
  277SOL    HW1  963   2.609   2.057   2.267 -0.9258 -1.2598  0.1534
  277SOL    HW2  964   2.559   1.967   2.378  0.8188  0.3183  2.2895
  278SOL     OW  965   0.411   1.875   1.771  0.1524  0.2729 -0.0224
  278SOL    HW1  966   0.426   1.828   1.689 -1.1786  1.0085 -0.7184
  278SOL    HW2  967   0.489   1.856   1.824 -0.1420 -2.3637 -0.4090
  279SOL     OW  968   3.688   1.561   1.656  0.1290  0.1957  0.0731
  279SOL    HW1  969   3.766   1.510   1.634 -0.5129 -1.1385  0.7460
  279SOL    HW2  970   3.714   1.614   1.731 -0.1644 -1.8588  1.7199
  280SOL     OW  971   2.836   0.589   0.257 -0.2849 -0.1041  0.4431
  280SOL    HW1  972   2.744   0.595   0.231 -0.0003  2.2624 -0.2371
  280SOL    HW2  973   2.833   0.564   0.350 -1.6016 -0.0466  0.4339
  281SOL     OW  974   0.603   2.325   0.857 -0.0072 -0.5046 -0.6711
  281SOL    HW1  975   0.621   2.325   0.763 -0.8282 -0.6448 -0.8421
  281SOL    HW2  976   0.642   2.406   0.890 -0.3596 -0.0839 -1.2734
  282SOL     OW  977   0.336   1.786   0.755  0.0249 -0.2663 -0.7133
  282SOL    HW1  978   0.299   1.864   0.712 -0.5285  0.6545  1.2810
  282SOL    HW2  979   0.429   1.806   0.765  0.1654 -0.5082 -1.5138
  283SOL     OW  980   3.020   1.739   2.281  0.0710  0.2217  0.3855
  283SOL    HW1  981   3.001   1.687   2.203  0.1270 -2.1178  1.8718
  283SOL    HW2  982   2.938   1.741   2.330  0.3557  0.6588  0.8645
  284SOL     OW  983   1.989   0.958   2.624 -0.1407 -0.3895  0.1225
  284SOL    HW1  984   1.894   0.956   2.638  0.0748 -0.9312  1.6658
  284SOL    HW2  985   1.999   0.943   2.530 -1.6351  1.6130 -0.4304
  285SOL     OW  986   2.505   0.469   3.458 -0.6973  0.2541  0.3584
  285SOL    HW1  987   2.480   0.561   3.460 -0.6221  0.2692  0.7098
  285SOL    HW2  988   2.526   0.447   3.549 -2.6740 -0.6506  0.6362
  286SOL     OW  989   1.200   2.862   0.433  0.0447 -0.1429  0.1412
  286SOL    HW1  990   1.143   2.785   0.439 -1.3429  0.8316 -0.1155
  286SOL    HW2  991   1.280   2.829   0.391 -0.4324 -1.4807  0.2268
  287SOL     OW  992   0.850   2.755   0.046  0.1598 -0.1678  0.4951
  287SOL    HW1  993   0.938   2.727   0.024  0.2680  0.8561 -0.4294
  287SOL    HW2  994   0.856   2.851   0.054 -0.9604 -0.0404 -0.0498
  288SOL     OW  995   2.749   1.075   1.817 -0.2820  0.6994 -0.4846
  288SOL    HW1  996   2.841   1.050   1.816 -0.8760 -1.6892 -0.8628
  288SOL    HW2  997   2.723   1.067   1.909 -0.0285  1.9167 -0.2804
  289SOL     OW  998   3.465   2.999   0.357  0.5856 -0.1646 -0.1476
  289SOL    HW1  999   3.455   2.925   0.296  0.8496 -0.5217  0.2344
  289SOL    HW2 1000   3.553   2.988   0.393  2.2993  2.5866 -3.0359
  290SOL     OW 1001   1.314   1.846   2.430 -0.0503  0.0396 -0.1583
  290SOL    HW1 1002   1.372   1.882   2.364 -1.7070 -1.1120 -2.3831
  290SOL    HW2 1003   1.254   1.918   2.452  1.3101  0.8251  1.1714
  291SOL     OW 1004   3.708   1.668   0.022  0.8526 -0.9414  0.4654
  291SOL    HW1 1005   3.705   1.762   0.008  1.8746 -1.0409 -0.5777
  291SOL    HW2 1006   3.616   1.641   0.023  0.5318  0.1476  1.5215
  292SOL     OW 1007   2.931   2.899   2.630  0.2069  0.5329  0.1115
  292SOL    HW1 1008   2.921   2.885   2.536  2.4600 -1.1631  0.0384
  292SOL    HW2 1009   2.964   2.989   2.638  0.1656  0.6306 -0.7321
  293SOL     OW 1010   1.320   2.060   1.089 -0.0602  0.1664 -0.4281
  293SOL    HW1 1011   1.336   2.000   1.161  2.1752  2.5494  1.2773
  293SOL    HW2 1012   1.377   2.028   1.018  2.0266  0.7997  0.8616
  294SOL     OW 1013   1.060   0.693   1.426  0.0992 -0.2092 -0.3195
  294SOL    HW1 1014   1.059   0.604   1.390  0.9108 -0.2030 -0.3576
  294SOL    HW2 1015   1.109   0.686   1.508  0.9243  0.3598 -0.7496
  295SOL     OW 1016   3.633   0.780   2.682  0.0389  0.6150  0.1451
  295SOL    HW1 1017   3.621   0.699   2.631 -2.0089 -0.1972  1.7766
  295SOL    HW2 1018   3.589   0.847   2.630 -1.5939 -0.1087  0.5254
  296SOL     OW 1019   3.517   2.142   3.117 -0.2213 -0.3455 -0.2803
  296SOL    HW1 1020   3.481   2.200   3.183 -1.7348 -0.1005 -1.2756
  296SOL    HW2 1021   3.557   2.070   3.166  1.4116  1.3364  0.9578
  297SOL     OW 1022   2.986   1.591   2.076 -0.3465  0.1624  0.2006
  297SOL    HW1 1023   2.965   1.499   2.058 -0.2165  0.0609  0.5454
  297SOL    HW2 1024   3.062   1.609   2.021  0.1737 -0.2050  0.7727
  298SOL     OW 1025   1.683   1.585   2.873  0.5026 -0.0743  0.2705
  298SOL    HW1 1026   1.632   1.569   2.953  0.7408 -0.3740  0.3679
  298SOL    HW2 1027   1.619   1.581   2.802  0.1950  0.7619  0.4956
  299SOL     OW 1028   3.655   3.307   1.553  0.3460  0.2021  0.0790
  299SOL    HW1 1029   3.723   3.309   1.485  1.3369  1.0880  1.0613
  299SOL    HW2 1030   3.674   3.383   1.608 -2.1174  1.1188 -0.2391
  300SOL     OW 1031   2.755   2.777   3.537 -0.2055 -0.1168  0.1684
  300SOL    HW1 1032   2.772   2.765   3.443 -0.5982  0.3912  0.0337
  300SOL    HW2 1033   2.721   2.866   3.544 -0.5936 -0.3105  0.7425
  301SOL     OW 1034   0.827   3.348   3.309  0.5934 -0.5505  0.4594
  301SOL    HW1 1035   0.864   3.323   3.224  0.4046 -0.1722  0.2628
  301SOL    HW2 1036   0.817   3.265   3.356  0.5884 -0.7754  0.0664
  302SOL     OW 1037   3.371   2.507   2.794  0.1969 -0.0112  0.2152
  302SOL    HW1 1038   3.353   2.590   2.838 -0.5662 -0.8196  1.5083
  302SOL    HW2 1039   3.467   2.500   2.794  0.2792  1.0309 -0.2569
  303SOL     OW 1040   0.892   3.027   1.915  0.3962  0.4671 -0.4413
  303SOL    HW1 1041   0.985   3.024   1.938  0.0170  1.5595  1.5004
  303SOL    HW2 1042   0.854   3.086   1.980 -1.7092 -0.1820 -1.0142
  304SOL     OW 1043   0.587   3.092   2.292 -0.1514  0.0023 -0.2407
  304SOL    HW1 1044   0.662   3.081   2.350  0.6650  0.2107 -1.2152
  304SOL    HW2 1045   0.514   3.051   2.338  0.6421 -0.5343  0.5682
  305SOL     OW 1046   0.200   3.664   1.056  0.0159  0.2224  0.1674
  305SOL    HW1 1047   0.171   3.656   1.147  1.4419  1.7262  0.8026
  305SOL    HW2 1048   0.122   3.642   1.004 -0.7224 -1.0233  1.7221
  306SOL     OW 1049   0.170   2.917   3.063 -0.1769  0.7588 -0.4355
  306SOL    HW1 1050   0.161   3.006   3.028  0.8123 -0.0614 -3.0731
  306SOL    HW2 1051   0.203   2.929   3.152 -1.9380  3.0190  0.0052
  307SOL     OW 1052   2.743   2.401   1.567  0.4282  0.5069 -0.2440
  307SOL    HW1 1053   2.811   2.412   1.634 -0.4787  2.2072  0.4392
  307SOL    HW2 1054   2.693   2.482   1.570 -1.6989 -0.7313 -0.6819
  308SOL     OW 1055   1.606   0.344   3.328  0.1159 -0.2063 -0.4229
  308SOL    HW1 1056   1.696   0.351   3.359  0.0903 -0.1970 -0.3518
  308SOL    HW2 1057   1.606   0.392   3.245  0.1844 -0.2360 -0.4396
  309SOL     OW 1058   3.392   1.741   2.761  0.2209 -0.0852 -0.6479
  309SOL    HW1 1059   3.360   1.732   2.672  0.3109 -0.9374 -0.6083
  309SOL    HW2 1060   3.484   1.713   2.757 -0.1528 -1.4781 -0.0551
  310SOL     OW 1061   3.343   1.344   1.851  0.1904  0.0467 -0.7393
  310SOL    HW1 1062   3.369   1.307   1.766 -0.8298 -0.2147 -0.9527
  310SOL    HW2 1063   3.368   1.277   1.915  1.4966  0.4922 -0.7499
  311SOL     OW 1064   1.905   0.838   3.336 -0.0348  0.5121  0.4511
  311SOL    HW1 1065   1.892   0.913   3.395 -0.3726  0.5687  0.3032
  311SOL    HW2 1066   1.819   0.796   3.331  0.8334 -1.9746  3.3242
  312SOL     OW 1067   2.163   0.146   1.590  0.3955  1.0652 -0.5310
  312SOL    HW1 1068   2.070   0.126   1.599  0.9791 -1.2288  1.7379
  312SOL    HW2 1069   2.181   0.134   1.497 -0.8317 -2.7264 -0.4501
  313SOL     OW 1070   0.169   1.873   2.890 -0.7289 -0.8550 -0.6931
  313SOL    HW1 1071   0.223   1.856   2.812 -0.7744  0.6429 -1.0845
  313SOL    HW2 1072   0.111   1.945   2.863 -0.9161 -0.4844  0.6551
  314SOL     OW 1073   1.725   2.557   1.759  0.1919 -0.5119 -0.1643
  314SOL    HW1 1074   1.687   2.471   1.740 -0.0993 -0.5484  0.5843
  314SOL    HW2 1075   1.817   2.539   1.779  0.3801 -0.5302 -0.9735
  315SOL     OW 1076   0.683   1.069   0.966 -0.4048 -0.0758  0.1745
  315SOL    HW1 1077   0.690   1.032   1.054 -1.8750 -0.5118  0.1337
  315SOL    HW2 1078   0.616   1.016   0.923 -0.1227  0.5038 -1.0248
  316SOL     OW 1079   0.321   3.000   1.764  0.0134 -0.4221  0.2263
  316SOL    HW1 1080   0.391   2.987   1.700  1.8875  1.0354  1.8411
  316SOL    HW2 1081   0.283   2.913   1.777  2.0830 -1.4253 -0.1057
  317SOL     OW 1082   3.183   0.824   3.028  0.0699 -0.1297 -0.0257
  317SOL    HW1 1083   3.190   0.804   2.934  1.9921 -1.6428  0.3672
  317SOL    HW2 1084   3.112   0.768   3.059  0.8023 -1.2065 -0.2351
  318SOL     OW 1085   2.820   3.060   1.771 -0.4345 -0.2857  0.3313
  318SOL    HW1 1086   2.892   3.026   1.717  0.5292 -1.2540  2.1003
  318SOL    HW2 1087   2.741   3.039   1.722  0.4512  0.2985 -1.4127
  319SOL     OW 1088   1.261   0.117   2.867 -0.4985  0.6489 -0.0711
  319SOL    HW1 1089   1.200   0.111   2.941  1.0958  0.6392  1.3130
  319SOL    HW2 1090   1.344   0.142   2.907 -0.0757  2.9416 -2.1327
  320SOL     OW 1091   1.062   2.917   1.193  0.0871  0.0659 -0.1800
  320SOL    HW1 1092   1.002   2.917   1.268 -1.2833  1.7634 -1.2239
  320SOL    HW2 1093   1.013   2.875   1.123  0.8797 -0.3179 -0.5146
  321SOL     OW 1094   2.402   3.110   2.215  0.0570 -0.3174  0.2107
  321SOL    HW1 1095   2.342   3.098   2.142  1.6366 -1.0750 -1.0240
  321SOL    HW2 1096   2.404   3.205   2.229  1.5079  0.1318 -2.3852
  322SOL     OW 1097   2.836   1.080   2.178 -0.1238  0.2420  0.3980
  322SOL    HW1 1098   2.752   1.048   2.143 -0.1197  0.4900  0.1625
  322SOL    HW2 1099   2.814   1.111   2.266  0.1364 -1.7393  1.2224
  323SOL     OW 1100   1.613   2.699   3.382  0.3112  0.3231  0.1100
  323SOL    HW1 1101   1.550   2.665   3.446  0.6369  1.6874  1.2038
  323SOL    HW2 1102   1.610   2.794   3.394  1.3407  0.5171 -1.0146
  324SOL     OW 1103   1.770   2.202   1.429  0.1297  0.5686  0.0997
  324SOL    HW1 1104   1.738   2.196   1.340 -0.8343 -0.7615  0.5050
  324SOL    HW2 1105   1.831   2.128   1.438 -0.3892  0.2052  0.7643
  325SOL     OW 1106   2.802   1.201   2.428  0.3808 -0.1478  0.0164
  325SOL    HW1 1107   2.832   1.198   2.519 -1.2224 -1.2355  0.5598
  325SOL    HW2 1108   2.774   1.291   2.415 -1.1903 -0.4175  1.2663
  326SOL     OW 1109   0.055   0.981   1.203  0.3797  0.3757 -0.0267
  326SOL    HW1 1110   0.002   0.903   1.221  0.6812  0.4420  1.2391
  326SOL    HW2 1111  -0.000   1.055   1.229 -0.0190  0.6195 -1.5008
  327SOL     OW 1112   0.891   2.436   1.686 -0.7852 -0.2655 -0.4740
  327SOL    HW1 1113   0.924   2.435   1.596 -0.0298  0.4414 -0.2182
  327SOL    HW2 1114   0.835   2.513   1.691 -0.0096  0.2949 -0.0781
  328SOL     OW 1115   2.692   2.319   1.304  0.1884 -0.4047  0.3715
  328SOL    HW1 1116   2.697   2.322   1.400 -0.8530 -3.3549  0.6307
  328SOL    HW2 1117   2.757   2.254   1.278  1.0204  0.9279 -1.0565
  329SOL     OW 1118   2.687   2.638   1.251 -0.2211  0.0115  0.9279
  329SOL    HW1 1119   2.638   2.632   1.170 -0.0364 -2.0334  0.9209
  329SOL    HW2 1120   2.761   2.579   1.239  0.4540  0.5509  2.1686
  330SOL     OW 1121   2.972   0.259   2.613 -0.3262  0.4523  0.0034
  330SOL    HW1 1122   2.899   0.227   2.666  0.8274 -2.6688 -0.1228
  330SOL    HW2 1123   2.971   0.205   2.535  1.9079  0.5623 -0.1546
  331SOL     OW 1124   3.045   0.935   0.475 -0.1467 -0.2677 -0.6274
  331SOL    HW1 1125   2.958   0.960   0.444 -0.9879 -1.8485  0.3366
  331SOL    HW2 1126   3.050   0.840   0.462  2.0917 -0.0126 -2.1663
  332SOL     OW 1127   0.610   0.753   0.109  0.2105 -0.1280  0.0283
  332SOL    HW1 1128   0.673   0.691   0.072  0.2173 -0.4761  0.6185
  332SOL    HW2 1129   0.641   0.839   0.079  0.4259 -0.3740 -0.4642
  333SOL     OW 1130   0.742   1.956   1.244 -0.5085  0.0902  0.3184
  333SOL    HW1 1131   0.683   2.012   1.194 -0.5256  0.1858  0.4447
  333SOL    HW2 1132   0.716   1.969   1.335  0.5801  1.1762  0.5039
  334SOL     OW 1133   1.259   1.935   3.665  0.2469  1.2585 -0.4874
  334SOL    HW1 1134   1.214   2.018   3.679 -0.8297  0.7660 -0.9394
  334SOL    HW2 1135   1.200   1.885   3.608  0.8150  0.1372 -0.1153
  335SOL     OW 1136   0.789   2.803   1.162 -0.7006 -0.4398  0.6755
  335SOL    HW1 1137   0.760   2.842   1.080  0.3985  0.4550  0.6945
  335SOL    HW2 1138   0.709   2.766   1.200 -1.4928  0.4203 -0.0954
  336SOL     OW 1139   0.677   0.101   1.581  0.3372 -0.1314 -0.1202
  336SOL    HW1 1140   0.760   0.097   1.535  0.4466 -0.4188  0.1017
  336SOL    HW2 1141   0.610   0.093   1.513  0.4828  0.5814 -0.3528
  337SOL     OW 1142   0.218   3.189   0.599  0.1786  0.6696  0.0709
  337SOL    HW1 1143   0.289   3.211   0.539  0.7195  0.6840  0.7090
  337SOL    HW2 1144   0.242   3.230   0.681  1.1913 -2.1287  1.3021
  338SOL     OW 1145   0.256   3.455   3.223  0.0023  0.6942  0.2414
  338SOL    HW1 1146   0.321   3.387   3.206  0.4847  1.6340 -2.0496
  338SOL    HW2 1147   0.198   3.452   3.147 -1.4830  1.1982  1.3005
  339SOL     OW 1148   1.377   3.118   3.198 -0.3202  0.4771 -0.2487
  339SOL    HW1 1149   1.346   3.086   3.114  0.6463  0.1255 -0.4818
  339SOL    HW2 1150   1.326   3.198   3.214  0.8526  1.6895 -2.1131
  340SOL     OW 1151   0.359   2.796   0.083  0.1562  0.3373  1.3103
  340SOL    HW1 1152   0.438   2.792   0.029 -0.1335 -0.1172  0.9132
  340SOL    HW2 1153   0.388   2.768   0.169  0.4858  0.4359  1.2354
  341SOL     OW 1154   2.845   0.859   0.252  0.3089 -0.9476 -0.7349
  341SOL    HW1 1155   2.861   0.767   0.232 -0.3262 -1.3035  0.3350
  341SOL    HW2 1156   2.752   0.863   0.275  0.2613  0.0160 -1.0367
  342SOL     OW 1157   3.447   0.469   1.276  0.4309 -0.0511 -0.2038
  342SOL    HW1 1158   3.473   0.416   1.351  0.6635 -0.1817 -0.3759
  342SOL    HW2 1159   3.415   0.406   1.212  0.8765  0.0004 -0.4778
  343SOL     OW 1160   3.553   0.839   1.184 -0.6639  0.1183 -0.4111
  343SOL    HW1 1161   3.601   0.759   1.201  1.3491  1.5728  1.3045
  343SOL    HW2 1162   3.560   0.852   1.089  2.0276  0.0321 -0.2794
  344SOL     OW 1163   1.619   3.591   1.686  0.7708  0.0999 -0.5823
  344SOL    HW1 1164   1.668   3.646   1.747 -1.6406  0.3873  1.2441
  344SOL    HW2 1165   1.622   3.504   1.726  2.9095 -0.7930 -2.4533
  345SOL     OW 1166   3.066   1.972   0.576  0.1600  0.1006  0.6304
  345SOL    HW1 1167   2.976   2.003   0.563 -0.1671 -1.0461 -0.0106
  345SOL    HW2 1168   3.089   1.930   0.493  0.7059 -1.0079  1.3082
  346SOL     OW 1169   1.023   2.221   3.120  0.4669 -0.2898 -0.2553
  346SOL    HW1 1170   1.052   2.291   3.178  0.0203 -0.3384  0.0279
  346SOL    HW2 1171   1.105   2.184   3.085  0.7906 -0.8240  1.0054
  347SOL     OW 1172   0.687   2.816   2.093 -0.5285 -0.5800 -0.4663
  347SOL    HW1 1173   0.704   2.907   2.070 -0.7269  0.0666  1.7048
  347SOL    HW2 1174   0.738   2.801   2.173  0.5040 -2.7845 -1.4271
  348SOL     OW 1175   1.856   3.598   1.876  0.4122 -0.2072  0.3440
  348SOL    HW1 1176   1.856   3.510   1.838  0.6404 -0.7096  1.4878
  348SOL    HW2 1177   1.918   3.593   1.949  1.6286  1.3262 -0.5214
  349SOL     OW 1178   3.282   2.955   3.161  0.6767  0.0603  0.2336
  349SOL    HW1 1179   3.284   2.873   3.211  0.0192  0.2648  0.6040
  349SOL    HW2 1180   3.272   3.023   3.227  1.6424  0.4842 -0.0422
  350SOL     OW 1181   1.872   2.384   2.275  0.4102 -0.2978  0.0570
  350SOL    HW1 1182   1.954   2.407   2.233  0.5908  0.5355  0.8249
  350SOL    HW2 1183   1.814   2.357   2.204  1.6519 -1.9060 -0.3984
  351SOL     OW 1184   0.745   2.246   0.607  0.0556 -0.4423  0.1058
  351SOL    HW1 1185   0.829   2.199   0.605 -0.6437 -1.7288 -0.6668
  351SOL    HW2 1186   0.680   2.178   0.588 -1.4676 -0.0479  3.3588
  352SOL     OW 1187   1.338   3.424   0.418  0.8055  0.3487 -0.0630
  352SOL    HW1 1188   1.347   3.508   0.373  1.8239 -0.3774 -1.2782
  352SOL    HW2 1189   1.260   3.384   0.378  0.5325  0.5573  0.2583
  353SOL     OW 1190   0.710   3.176   2.061  0.5427  0.0763  0.1424
  353SOL    HW1 1191   0.635   3.182   2.002  0.2353  0.9755  0.5983
  353SOL    HW2 1192   0.672   3.150   2.145  0.5221  1.8012  0.7157
  354SOL     OW 1193   1.157   2.878   0.797  0.3913 -0.2718 -0.1684
  354SOL    HW1 1194   1.177   2.785   0.792  1.8221  0.0774 -1.9178
  354SOL    HW2 1195   1.242   2.922   0.796 -0.2534  1.0745  0.4728
  355SOL     OW 1196   1.223   1.241   2.285  0.1158  0.5690  0.0729
  355SOL    HW1 1197   1.201   1.148   2.295 -1.2769  1.0633  2.2387
  355SOL    HW2 1198   1.200   1.261   2.194 -0.1681 -1.0531 -0.2454
  356SOL     OW 1199   2.014   0.005   3.670  0.0707  0.1623 -0.9211
  356SOL    HW1 1200   2.013   0.076   3.733 -1.3278 -1.9335  1.5993
  356SOL    HW2 1201   2.095  -0.043   3.688 -0.4821 -0.6250 -0.4447
  357SOL     OW 1202   2.268   1.440   3.301 -0.6857  0.0579 -0.2121
  357SOL    HW1 1203   2.330   1.513   3.299 -0.5791  0.0986  2.1051
  357SOL    HW2 1204   2.185   1.480   3.325 -0.6454 -0.5422  0.9866
  358SOL     OW 1205   1.718   1.569   2.477  0.0502  0.0900 -0.1979
  358SOL    HW1 1206   1.667   1.507   2.529 -1.4238  0.6428 -0.9217
  358SOL    HW2 1207   1.664   1.649   2.476  1.5112  1.1103  0.0167
  359SOL     OW 1208   3.601   0.483   0.510 -0.6155 -0.5518 -0.1428
  359SOL    HW1 1209   3.513   0.459   0.483 -0.2360 -1.6139 -0.4983
  359SOL    HW2 1210   3.620   0.563   0.461 -1.1306 -0.6828 -0.5696
  360SOL     OW 1211   0.702   2.424   1.281 -0.1075 -0.2887 -0.3423
  360SOL    HW1 1212   0.671   2.425   1.372  1.7660 -1.5558  0.3556
  360SOL    HW2 1213   0.677   2.510   1.247 -2.6628 -0.5168  0.6900
  361SOL     OW 1214   1.770   0.980   2.436  0.0880 -0.4611 -0.2605
  361SOL    HW1 1215   1.794   0.976   2.344 -0.7389  2.2944 -0.6882
  361SOL    HW2 1216   1.679   1.010   2.436 -0.6514 -2.4310  1.4557
  362SOL     OW 1217   2.747   2.923   3.163 -0.2040 -0.5575 -0.2421
  362SOL    HW1 1218   2.687   2.894   3.095 -0.1125  0.4264 -0.7639
  362SOL    HW2 1219   2.690   2.956   3.233 -0.2840 -0.1922 -0.4769
  363SOL     OW 1220   2.538   2.440   0.142  0.4815 -0.5760  0.7561
  363SOL    HW1 1221   2.498   2.463   0.058  2.5354  0.3174 -0.0471
  363SOL    HW2 1222   2.573   2.523   0.175  4.6016 -1.7006 -0.2638
  364SOL     OW 1223   1.725   1.541   0.880  0.2112  0.2757 -0.2879
  364SOL    HW1 1224   1.754   1.609   0.941 -1.1477 -1.5663  2.6372
  364SOL    HW2 1225   1.764   1.461   0.914 -1.3131 -0.9795 -1.3524
  365SOL     OW 1226   1.133   2.399   3.291 -0.7913  0.3343 -0.6179
  365SOL    HW1 1227   1.173   2.471   3.243 -0.0406  0.1421 -0.3000
  365SOL    HW2 1228   1.126   2.431   3.381  2.3359 -0.9783  0.2386
  366SOL     OW 1229   3.257   1.849   3.270 -0.0095 -0.6075 -0.6940
  366SOL    HW1 1230   3.248   1.940   3.243 -1.2632 -1.0491 -1.8552
  366SOL    HW2 1231   3.295   1.805   3.193 -1.6019 -1.4868 -1.0099
  367SOL     OW 1232   1.899   0.086   1.693 -0.2806  0.1526 -0.2454
  367SOL    HW1 1233   1.895   0.006   1.745 -0.1178  0.3823  0.1213
  367SOL    HW2 1234   1.922   0.154   1.756  0.2868  0.3711 -0.6849
  368SOL     OW 1235   2.840   3.123   2.386 -0.3183  1.3681  0.1580
  368SOL    HW1 1236   2.773   3.161   2.328 -2.7908 -1.4069  0.9254
  368SOL    HW2 1237   2.886   3.060   2.331  1.3580  2.8520 -0.2067
  369SOL     OW 1238   1.686   0.291   0.649  0.0808  0.4614 -0.0316
  369SOL    HW1 1239   1.724   0.258   0.731  0.0222  0.9285  0.1875
  369SOL    HW2 1240   1.638   0.370   0.676  0.4311  0.8678 -0.5915
  370SOL     OW 1241   3.613   2.639   2.680  0.4116  0.2157 -0.2822
  370SOL    HW1 1242   3.525   2.667   2.653 -0.7583  0.6457  3.4291
  370SOL    HW2 1243   3.652   2.717   2.718  0.4102 -1.0401  2.5314
  371SOL     OW 1244   3.091   3.504   0.927  0.4596  0.8793  0.3497
  371SOL    HW1 1245   3.063   3.522   1.017 -0.7186  1.4325 -0.1027
  371SOL    HW2 1246   3.186   3.494   0.932  0.3234  0.0449  1.7903
  372SOL     OW 1247   0.808   3.120   1.182  0.0059 -0.3863 -0.7599
  372SOL    HW1 1248   0.835   3.209   1.156 -0.2194 -0.7512 -2.3640
  372SOL    HW2 1249   0.882   3.086   1.232 -0.1283  0.8974  0.3579
  373SOL     OW 1250   0.804   1.446   0.315  0.2047 -0.0041 -0.0877
  373SOL    HW1 1251   0.782   1.426   0.406 -2.8965 -0.0911 -0.7545
  373SOL    HW2 1252   0.783   1.366   0.268 -1.4691  1.0962 -1.2932
  374SOL     OW 1253   2.591   0.928   3.576 -0.1962  0.2161 -0.1196
  374SOL    HW1 1254   2.662   0.980   3.614 -0.2909 -0.1219  0.5300
  374SOL    HW2 1255   2.515   0.945   3.633  0.0436 -1.4550  0.7588
  375SOL     OW 1256   2.021   0.630   2.487 -0.2860  0.3281 -0.1305
  375SOL    HW1 1257   2.090   0.593   2.542  0.7739  3.2535  0.6591
  375SOL    HW2 1258   1.945   0.637   2.544  0.4497  2.2012  0.6911
  376SOL     OW 1259   2.193   0.176   3.509  0.4420 -0.2224 -0.0894
  376SOL    HW1 1260   2.191   0.151   3.601  2.1516 -1.4668 -0.3603
  376SOL    HW2 1261   2.113   0.228   3.497  0.5002  0.4966  2.2211
  377SOL     OW 1262   1.451   3.297   2.960  0.0345 -0.2207 -0.0775
  377SOL    HW1 1263   1.505   3.376   2.958 -0.8540  0.4578  1.1814
  377SOL    HW2 1264   1.403   3.303   3.043 -0.3673 -1.8764 -0.1526
  378SOL     OW 1265   2.259   3.268   3.105  0.9305 -0.7897 -0.2255
  378SOL    HW1 1266   2.166   3.244   3.106  1.0631 -1.3803  1.8806
  378SOL    HW2 1267   2.268   3.332   3.176  2.0673 -0.4631 -0.6439
  379SOL     OW 1268   2.656   2.720   0.864 -0.6086  0.6613  0.4006
  379SOL    HW1 1269   2.592   2.749   0.799 -0.1215  0.7386 -0.0495
  379SOL    HW2 1270   2.737   2.710   0.815 -0.8917 -2.2630  0.3364
  380SOL     OW 1271   3.006   1.856   0.322  0.2791 -0.3200  0.1328
  380SOL    HW1 1272   2.935   1.800   0.291  1.1431 -1.1251 -0.4289
  380SOL    HW2 1273   3.084   1.803   0.314  0.9713  0.5762  0.6933
  381SOL     OW 1274   1.933   2.530   1.954  0.1033  0.1361 -0.5653
  381SOL    HW1 1275   1.946   2.580   2.035 -3.1024 -1.6912  1.2595
  381SOL    HW2 1276   1.990   2.454   1.964  0.0356  0.1265 -0.2328
  382SOL     OW 1277   0.430   3.150   1.963  0.0273  0.6127 -0.1476
  382SOL    HW1 1278   0.366   3.147   2.034 -0.7854 -1.1590 -0.9039
  382SOL    HW2 1279   0.394   3.093   1.895  2.9943 -1.6113 -0.0684
  383SOL     OW 1280   1.836   0.611   1.979 -0.1692 -0.0896  0.7190
  383SOL    HW1 1281   1.745   0.607   1.950 -0.6136 -3.0375  2.1281
  383SOL    HW2 1282   1.832   0.650   2.066 -0.1872 -0.7786  1.0325
  384SOL     OW 1283   1.205   1.553   2.789  0.0592 -0.4373  0.1950
  384SOL    HW1 1284   1.161   1.587   2.710 -0.5645 -1.9813 -0.1573
  384SOL    HW2 1285   1.139   1.500   2.832  0.2505  0.7374  2.0471
  385SOL     OW 1286   3.529   3.278   1.174 -0.1381  0.1905 -0.0995
  385SOL    HW1 1287   3.590   3.282   1.248  0.1148 -0.9591 -0.2161
  385SOL    HW2 1288   3.585   3.268   1.097 -0.4486 -1.9529 -0.1095
  386SOL     OW 1289   3.606   1.761   1.989  0.4313 -0.1037  0.5525
  386SOL    HW1 1290   3.683   1.712   1.961  1.1982  0.6619  1.2581
  386SOL    HW2 1291   3.629   1.853   1.974  0.0219  0.1958  1.6231
  387SOL     OW 1292   3.069   2.799   0.937 -0.1446 -0.3044 -0.0753
  387SOL    HW1 1293   3.061   2.740   0.863 -0.5389  0.7952 -0.9390
  387SOL    HW2 1294   3.163   2.817   0.942  0.2588 -2.4387  1.4003
  388SOL     OW 1295   2.184   0.118   3.168 -0.0392 -0.1723 -0.3359
  388SOL    HW1 1296   2.118   0.184   3.149  1.0345  1.0509  0.0686
  388SOL    HW2 1297   2.256   0.166   3.209  1.8633 -1.1542 -2.3168
  389SOL     OW 1298   2.379   2.582   2.105  0.0168  0.1331  0.1042
  389SOL    HW1 1299   2.374   2.666   2.149 -2.5643 -0.1553  0.5039
  389SOL    HW2 1300   2.440   2.530   2.158  1.0560  1.4629  0.2604
  390SOL     OW 1301   1.728   1.383   2.053  0.3335  0.4204  0.0018
  390SOL    HW1 1302   1.689   1.307   2.009 -1.2128 -0.2607  2.3716
  390SOL    HW2 1303   1.660   1.413   2.114  1.9298  2.0168  1.0958
  391SOL     OW 1304   3.481   0.087   3.398  0.1430 -0.0014  0.7308
  391SOL    HW1 1305   3.425   0.165   3.395  1.6930  1.1860  1.2959
  391SOL    HW2 1306   3.420   0.014   3.409 -1.5781  0.8298 -2.1789
  392SOL     OW 1307   0.238   2.380   3.265 -0.1172  0.3788  0.3684
  392SOL    HW1 1308   0.216   2.473   3.277 -2.0550 -0.1054  0.9126
  392SOL    HW2 1309   0.204   2.358   3.178  2.4725  0.7102 -0.8089
  393SOL     OW 1310   2.971   0.897   1.846 -0.4383  0.9137 -0.3035
  393SOL    HW1 1311   2.992   0.809   1.877 -2.5568  0.6359  0.4675
  393SOL    HW2 1312   3.039   0.915   1.780  0.4095 -1.0226 -0.0532
  394SOL     OW 1313   2.625   2.441   0.881  0.0735  0.2940 -0.8316
  394SOL    HW1 1314   2.597   2.531   0.866  2.5046  1.1145 -0.9365
  394SOL    HW2 1315   2.699   2.449   0.942  0.2891 -1.6403 -0.7722
  395SOL     OW 1316   0.679   3.557   2.008 -0.3785 -0.9417  0.8486
  395SOL    HW1 1317   0.705   3.493   1.942 -0.4287 -0.9767  0.8627
  395SOL    HW2 1318   0.658   3.505   2.085 -3.2732 -1.2112  0.0098
  396SOL     OW 1319   2.586   3.268   3.183 -0.4893 -0.2337 -0.1000
  396SOL    HW1 1320   2.547   3.185   3.156 -1.7282  0.5193 -0.6717
  396SOL    HW2 1321   2.522   3.307   3.243 -0.7201  1.0803 -1.1618
  397SOL     OW 1322   1.707   3.039   1.067  0.9030  0.0283  0.5525
  397SOL    HW1 1323   1.658   3.017   1.147  0.2547  1.2333  0.5177
  397SOL    HW2 1324   1.660   2.994   0.997  1.5632 -1.1589  0.8496
  398SOL     OW 1325   3.415   3.155   1.815 -0.1950 -0.8303 -0.0235
  398SOL    HW1 1326   3.322   3.172   1.827 -0.2894 -1.3767  0.0668
  398SOL    HW2 1327   3.459   3.212   1.878 -0.4287 -0.0846 -0.5329
  399SOL     OW 1328   1.230   2.542   1.691  0.8615  0.2155 -0.2338
  399SOL    HW1 1329   1.187   2.615   1.646  0.0163  0.9072  1.5984
  399SOL    HW2 1330   1.204   2.464   1.641 -0.2027  0.9175 -0.8172
  400SOL     OW 1331   0.669   0.547   2.017  0.5417  0.1389  0.4839
  400SOL    HW1 1332   0.621   0.470   2.049 -0.3416  0.7680  0.7183
  400SOL    HW2 1333   0.618   0.576   1.941  1.0497  0.3013  0.2043
  401SOL     OW 1334   2.580   2.835   2.941 -0.2526 -0.0075  0.2305
  401SOL    HW1 1335   2.645   2.852   2.873  0.1628  0.3314  0.7079
  401SOL    HW2 1336   2.535   2.755   2.911  0.6206 -0.4563  0.0703
  402SOL     OW 1337   2.316   0.557   2.659 -0.0308 -0.0466 -0.6881
  402SOL    HW1 1338   2.389   0.574   2.598  2.0552 -2.0139  1.1003
  402SOL    HW2 1339   2.295   0.465   2.646  0.1488 -0.3873  1.1615
  403SOL     OW 1340   0.131   0.293   0.822 -0.1985 -0.3646 -0.3335
  403SOL    HW1 1341   0.133   0.365   0.758 -0.2679  0.5859  0.7112
  403SOL    HW2 1342   0.134   0.336   0.907 -1.5862 -1.5566  0.3539
  404SOL     OW 1343   1.452   2.421   2.994 -0.1506 -0.1097 -0.7535
  404SOL    HW1 1344   1.532   2.370   3.004 -1.4890 -2.3271 -0.7256
  404SOL    HW2 1345   1.428   2.444   3.084 -1.3264 -2.4586 -0.3922
  405SOL     OW 1346   3.195   3.367   2.017 -0.0237  0.3481  1.0692
  405SOL    HW1 1347   3.223   3.280   1.988 -0.4533 -0.3161  2.5107
  405SOL    HW2 1348   3.125   3.349   2.080 -1.4378  1.8323  0.0021
  406SOL     OW 1349   3.420   3.422   1.493  0.6180  0.2524 -0.3903
  406SOL    HW1 1350   3.488   3.357   1.508 -0.7525 -1.0614  0.3960
  406SOL    HW2 1351   3.467   3.498   1.457  2.2634 -1.1511 -1.3786
  407SOL     OW 1352   1.807   0.185   2.053  0.1319 -0.2527  0.1641
  407SOL    HW1 1353   1.713   0.169   2.048 -0.1381  1.4072 -1.7781
  407SOL    HW2 1354   1.816   0.256   2.116  0.0654 -0.2487  0.1692
  408SOL     OW 1355   0.243   0.453   0.346 -0.3416  0.3059  0.2542
  408SOL    HW1 1356   0.327   0.408   0.345 -1.3299 -1.6898 -1.1320
  408SOL    HW2 1357   0.262   0.540   0.382  2.2912 -0.0453 -0.1019
  409SOL     OW 1358   1.852   2.988   3.248 -0.4604  0.2488  0.9684
  409SOL    HW1 1359   1.768   3.033   3.255 -0.2798  1.1271 -1.6887
  409SOL    HW2 1360   1.843   2.911   3.305 -1.5875  2.3304  3.8682
  410SOL     OW 1361   2.142   3.602   3.350 -0.6296 -0.5971  0.1154
  410SOL    HW1 1362   2.100   3.531   3.301  1.5107 -1.2714 -0.8991
  410SOL    HW2 1363   2.148   3.674   3.287  1.3493 -1.1637 -0.4055
  411SOL     OW 1364   2.957   3.468   3.695 -0.1322 -0.6580  0.8517
  411SOL    HW1 1365   2.909   3.457   3.612  3.2814  0.3397 -1.4710
  411SOL    HW2 1366   2.980   3.379   3.721  4.7571 -1.1542 -3.4170
  412SOL     OW 1367   2.644   0.317   0.512 -0.1957  0.6219 -0.5231
  412SOL    HW1 1368   2.599   0.310   0.597  0.0041 -1.8850 -0.5607
  412SOL    HW2 1369   2.575   0.339   0.450 -0.5481  1.2892  0.0800
  413SOL     OW 1370   3.240   1.217   2.762  0.5480 -0.4402 -0.3552
  413SOL    HW1 1371   3.297   1.266   2.822  0.4906 -0.7674 -0.0291
  413SOL    HW2 1372   3.198   1.151   2.817  0.1117 -0.4220 -0.6613
  414SOL     OW 1373   2.573   0.704   2.176 -0.2356  0.5481  0.1682
  414SOL    HW1 1374   2.638   0.766   2.144  0.0141  0.2466  0.0850
  414SOL    HW2 1375   2.617   0.619   2.172 -0.6357  0.3418  0.1096
  415SOL     OW 1376   0.576   0.084   2.794  0.1031 -0.6968 -0.0165
  415SOL    HW1 1377   0.662   0.126   2.803  0.1466 -0.5239 -1.1474
  415SOL    HW2 1378   0.529   0.109   2.874  0.7111  0.1189  0.0963
  416SOL     OW 1379   2.653   0.606   1.408  0.2196  0.3159  0.4656
  416SOL    HW1 1380   2.744   0.629   1.390  0.0245 -0.2209 -1.3351
  416SOL    HW2 1381   2.659   0.527   1.463  0.9007 -1.1238 -1.5539
  417SOL     OW 1382   1.742   3.206   2.889  0.1544  0.1004  0.3935
  417SOL    HW1 1383   1.651   3.200   2.919 -0.7977  0.1471 -2.2574
  417SOL    HW2 1384   1.749   3.138   2.821  0.3299  3.5665 -3.4255
  418SOL     OW 1385   3.110   0.695   0.772  0.5689 -0.2960 -0.3701
  418SOL    HW1 1386   3.018   0.720   0.758  0.1212 -2.4685 -1.8009
  418SOL    HW2 1387   3.158   0.741   0.703  0.2623 -0.7170 -0.8665
  419SOL     OW 1388   2.934   0.462   2.470  0.1836 -0.5548 -0.4416
  419SOL    HW1 1389   2.918   0.379   2.514 -0.6394 -0.9934 -1.5219
  419SOL    HW2 1390   2.882   0.526   2.519  4.2765  0.4203  3.3711
  420SOL     OW 1391   3.365   1.871   0.461 -0.1271  0.2972 -0.3161
  420SOL    HW1 1392   3.346   1.959   0.429 -0.5610  0.7014  0.9932
  420SOL    HW2 1393   3.334   1.813   0.391 -1.1009  1.1455 -0.6090
  421SOL     OW 1394   2.422   2.173   0.440  0.1428 -0.8081 -0.1270
  421SOL    HW1 1395   2.436   2.108   0.510  1.2512 -0.7697 -0.2952
  421SOL    HW2 1396   2.510   2.203   0.418 -0.3529  0.9145  0.0881
  422SOL     OW 1397   1.884   3.309   3.581 -0.2905 -0.2477 -1.3039
  422SOL    HW1 1398   1.805   3.312   3.635  0.6501  0.5100  0.0791
  422SOL    HW2 1399   1.852   3.322   3.491 -1.6678  0.7996 -0.7036
  423SOL     OW 1400   1.136   3.054   1.453 -0.0565 -0.0771  0.2547
  423SOL    HW1 1401   1.135   3.074   1.546 -1.4494  1.3384 -0.0160
  423SOL    HW2 1402   1.065   2.992   1.440  0.6002 -0.8394  0.2248
  424SOL     OW 1403   3.376   3.381   0.223  0.1291 -0.5806  0.4886
  424SOL    HW1 1404   3.409   3.378   0.312 -0.1284 -0.8096  0.5769
  424SOL    HW2 1405   3.337   3.468   0.215 -0.1568 -0.6851  0.7121
  425SOL     OW 1406   0.722   2.662   1.647 -0.5504  0.0994 -0.0751
  425SOL    HW1 1407   0.708   2.699   1.560 -0.3261 -2.2639 -1.1882
  425SOL    HW2 1408   0.645   2.687   1.697 -0.2022  2.4067 -0.5531
  426SOL     OW 1409   3.529   1.344   1.624  0.4078  0.2311 -0.0716
  426SOL    HW1 1410   3.497   1.320   1.538  0.0742 -1.9419  0.5935
  426SOL    HW2 1411   3.603   1.403   1.607  0.5355 -0.3822 -1.8401
  427SOL     OW 1412   1.127   1.559   1.717  0.4240 -0.2456  0.1487
  427SOL    HW1 1413   1.199   1.581   1.658  0.0127  2.6645  0.5769
  427SOL    HW2 1414   1.170   1.527   1.797  1.2548  1.0539  0.2441
  428SOL     OW 1415   2.232   3.010   2.907 -0.1576 -0.0757  0.7212
  428SOL    HW1 1416   2.143   3.042   2.922 -1.4986 -2.4751 -1.3174
  428SOL    HW2 1417   2.243   3.013   2.812  1.8926 -0.0702  0.9066
  429SOL     OW 1418   1.769   2.691   3.042  0.0483  0.1549  0.4079
  429SOL    HW1 1419   1.803   2.636   3.113 -0.0920  0.3629  0.6380
  429SOL    HW2 1420   1.691   2.732   3.079 -0.5298 -0.4089 -0.1507
  430SOL     OW 1421   3.168   2.114   3.012 -0.3151 -0.4398 -0.2227
  430SOL    HW1 1422   3.220   2.161   2.948 -2.5490 -1.2797 -2.8495
  430SOL    HW2 1423   3.129   2.042   2.963 -1.6055 -1.5516  2.2694
  431SOL     OW 1424   3.246   3.405   3.259 -0.2093 -0.0720  0.5835
  431SOL    HW1 1425   3.229   3.333   3.319 -0.8098 -0.0018  0.5080
  431SOL    HW2 1426   3.169   3.406   3.202 -0.1587  0.5693  0.5269
  432SOL     OW 1427   0.443   1.300   0.679 -0.2048  0.4123  0.0305
  432SOL    HW1 1428   0.471   1.217   0.640 -1.4012  0.8231 -1.8301
  432SOL    HW2 1429   0.373   1.276   0.740  1.0996 -0.1438  1.3915
  433SOL     OW 1430   2.434   1.690   3.328 -0.0078  0.1596 -0.7290
  433SOL    HW1 1431   2.403   1.760   3.270  2.1778  2.0347  0.1897
  433SOL    HW2 1432   2.528   1.684   3.309  0.9273  1.2045  2.8193
  434SOL     OW 1433   2.911   2.602   2.482  0.1536 -0.0621 -0.3841
  434SOL    HW1 1434   3.002   2.594   2.452  0.0652  0.5278 -0.8245
  434SOL    HW2 1435   2.888   2.513   2.511  0.4419 -0.5103 -1.4916
  435SOL     OW 1436   0.905   1.243   3.649  0.0226  0.2068  0.5798
  435SOL    HW1 1437   0.890   1.257   3.742 -1.5370  0.1448  0.3705
  435SOL    HW2 1438   0.876   1.324   3.607 -1.3864 -0.5421  0.0084
  436SOL     OW 1439   3.082   1.918   3.512 -0.2733 -0.3546  0.1969
  436SOL    HW1 1440   3.144   1.943   3.445  0.6980  1.8172  1.7763
  436SOL    HW2 1441   2.998   1.950   3.481  0.3540  1.6767  0.4535
  437SOL     OW 1442   0.713   3.316   0.000 -0.0282 -0.4453  0.3570
  437SOL    HW1 1443   0.648   3.316   0.070 -1.8842  0.0936 -1.2917
  437SOL    HW2 1444   0.689   3.390  -0.056  0.7764 -1.4405 -1.3947
  438SOL     OW 1445   0.656   3.612   2.288  0.2748  0.3230  0.5642
  438SOL    HW1 1446   0.678   3.636   2.378  1.3198  0.0649  0.3851
  438SOL    HW2 1447   0.566   3.579   2.294 -0.2604  1.8045  1.2409
  439SOL     OW 1448   0.803   1.507   3.685  0.1181 -0.5497 -0.4060
  439SOL    HW1 1449   0.715   1.479   3.661 -0.8177  1.9315 -0.0724
  439SOL    HW2 1450   0.796   1.601   3.699  2.7862 -0.3130 -0.1424
  440SOL     OW 1451   1.503   0.253   0.475 -0.1718  0.0183  0.1542
  440SOL    HW1 1452   1.472   0.171   0.513 -0.1682  0.0446  0.2147
  440SOL    HW2 1453   1.579   0.277   0.527  0.3110 -0.3523 -0.3725
  441SOL     OW 1454   2.300   3.045   3.249  0.0038 -0.1137 -0.0669
  441SOL    HW1 1455   2.289   3.102   3.173 -0.3647 -1.7797 -1.3129
  441SOL    HW2 1456   2.278   3.101   3.324 -0.1287  1.4248 -1.2099
  442SOL     OW 1457   0.184   0.230   1.105 -0.0445 -0.5561 -0.3363
  442SOL    HW1 1458   0.109   0.171   1.089 -1.2601  1.3087 -2.0890
  442SOL    HW2 1459   0.260   0.172   1.103 -0.9566 -1.9374 -4.1202
  443SOL     OW 1460   1.531   0.520   0.412 -0.0641 -1.1371 -0.3506
  443SOL    HW1 1461   1.617   0.557   0.428  0.3600 -2.1369 -0.2586
  443SOL    HW2 1462   1.532   0.436   0.457 -1.1065 -1.1444 -0.3038
  444SOL     OW 1463   0.751   0.417   1.546 -0.6118  0.0420  0.2344
  444SOL    HW1 1464   0.742   0.322   1.544 -1.5224  0.1182  0.4514
  444SOL    HW2 1465   0.666   0.450   1.517  0.0599  0.7900 -1.0045
  445SOL     OW 1466   0.177   0.754   3.526  0.2407 -0.3987  0.3670
  445SOL    HW1 1467   0.236   0.693   3.571 -0.0255 -1.2115 -0.3544
  445SOL    HW2 1468   0.097   0.703   3.510  0.7026 -0.5068 -1.9646
  446SOL     OW 1469   3.140   3.126   1.873  0.0132 -0.2880 -0.0195
  446SOL    HW1 1470   3.060   3.139   1.925 -0.3396  1.1735 -0.8756
  446SOL    HW2 1471   3.122   3.047   1.822 -0.6074 -0.3653  0.3101
  447SOL     OW 1472   0.060   0.916   0.271  0.4405 -0.1370  0.0350
  447SOL    HW1 1473  -0.011   0.852   0.267  0.9059 -0.8337  1.9910
  447SOL    HW2 1474   0.021   0.997   0.238 -2.2074  0.2496  3.5778
  448SOL     OW 1475   0.019   3.022   0.493 -0.0217  0.2003 -0.2227
  448SOL    HW1 1476   0.077   3.080   0.541 -0.3300 -0.7305  1.3459
  448SOL    HW2 1477   0.045   3.033   0.401  1.1126  1.4519  0.2121
  449SOL     OW 1478   2.998   2.360   1.284 -0.5505  0.4012 -0.4506
  449SOL    HW1 1479   3.081   2.325   1.252 -0.4646  0.2135 -0.0355
  449SOL    HW2 1480   3.022   2.440   1.331 -0.4658 -0.2558  0.6451
  450SOL     OW 1481   2.368   1.157   1.399  0.1756 -0.2150  0.0098
  450SOL    HW1 1482   2.353   1.122   1.486  1.4722 -0.5165  0.1266
  450SOL    HW2 1483   2.454   1.123   1.373  0.0146  0.2351 -1.1978
  451SOL     OW 1484   0.579   2.016   3.410 -0.4503 -1.2917 -0.0196
  451SOL    HW1 1485   0.600   1.967   3.330  1.1140  0.5220 -0.7803
  451SOL    HW2 1486   0.643   1.985   3.474  1.0009  0.1855 -0.7040
  452SOL     OW 1487   0.966   2.422   3.698 -0.3901 -0.1780 -0.1409
  452SOL    HW1 1488   0.919   2.349   3.739 -1.1879 -0.3761 -1.3576
  452SOL    HW2 1489   0.908   2.452   3.628  0.6741  0.5271 -0.7561
  453SOL     OW 1490   1.916   1.545   2.973  0.0853  0.4593  0.0148
  453SOL    HW1 1491   1.831   1.565   2.933  0.7851  1.7554 -0.8940
  453SOL    HW2 1492   1.936   1.621   3.027  1.0847  0.5677 -0.4904
  454SOL     OW 1493   0.608   1.002   2.241 -0.3683 -0.8285  0.2908
  454SOL    HW1 1494   0.682   0.959   2.199 -1.0528 -1.6832 -0.0710
  454SOL    HW2 1495   0.533   0.945   2.222 -1.3426  0.6111 -0.3740
  455SOL     OW 1496   2.011   2.325   2.868  0.1161 -0.4445 -1.0904
  455SOL    HW1 1497   2.063   2.246   2.858 -0.5334 -0.8425 -1.4230
  455SOL    HW2 1498   1.965   2.334   2.784 -0.1651  0.0243 -0.8912
  456SOL     OW 1499   2.451   1.267   3.009  0.6311 -0.1613  0.2311
  456SOL    HW1 1500   2.356   1.264   3.022  1.0105 -1.9177  3.8405
  456SOL    HW2 1501   2.475   1.176   2.990  1.5964  0.2754 -0.6987
  457SOL     OW 1502   0.221   3.708   1.344 -0.5115 -0.1918 -0.0596
  457SOL    HW1 1503   0.144   3.708   1.401  0.7295  0.7913  1.6796
  457SOL    HW2 1504   0.226   3.618   1.310 -1.3340 -0.7690  1.2853
  458SOL     OW 1505  -0.006   2.155   1.699 -0.1264 -1.0423  0.1348
  458SOL    HW1 1506  -0.020   2.100   1.777 -1.2531 -1.6639 -0.4750
  458SOL    HW2 1507   0.063   2.110   1.650  0.4661 -0.7421  0.6764
  459SOL     OW 1508   3.586   3.020   3.120 -0.8647  0.6520 -0.2220
  459SOL    HW1 1509   3.577   2.952   3.054  1.5854 -0.1339  0.1582
  459SOL    HW2 1510   3.632   2.978   3.192  1.1584  2.7740 -0.1570
  460SOL     OW 1511   3.086   2.903   2.912 -0.3514 -0.6386 -1.3464
  460SOL    HW1 1512   3.007   2.853   2.932 -0.7759  0.3064 -0.6096
  460SOL    HW2 1513   3.060   2.994   2.921  1.4665 -0.2872  1.6151
  461SOL     OW 1514   0.635   2.976   3.175 -0.1198 -0.4008 -0.2300
  461SOL    HW1 1515   0.718   2.935   3.154 -0.8178 -2.3323  0.5399
  461SOL    HW2 1516   0.637   2.987   3.270 -0.8663 -0.7878 -0.1606
  462SOL     OW 1517   0.433   1.527   1.448  0.4727 -0.1019  0.1858
  462SOL    HW1 1518   0.440   1.621   1.462  0.7307  0.0475 -0.8626
  462SOL    HW2 1519   0.520   1.493   1.472  1.3494  0.3181 -2.1069
  463SOL     OW 1520   0.482   2.334   2.602  0.3967  0.1820  0.3218
  463SOL    HW1 1521   0.563   2.299   2.566 -0.0646 -0.4169 -0.1791
  463SOL    HW2 1522   0.505   2.365   2.689  1.3198  0.7045 -0.0982
  464SOL     OW 1523   1.663   3.258   1.271  0.5811  0.1240 -0.5187
  464SOL    HW1 1524   1.634   3.277   1.360  1.1798  0.4301 -0.3898
  464SOL    HW2 1525   1.748   3.216   1.281  0.5046 -0.1394 -0.9327
  465SOL     OW 1526   2.467   2.818   0.695 -0.1984  0.3194  0.1289
  465SOL    HW1 1527   2.423   2.850   0.615  0.2904  1.0674  0.1463
  465SOL    HW2 1528   2.447   2.725   0.697  0.4956  0.1059 -1.3419
  466SOL     OW 1529   1.233   3.329   2.780  0.3294  0.1612  0.1691
  466SOL    HW1 1530   1.306   3.285   2.824 -0.1015 -1.5720 -0.7847
  466SOL    HW2 1531   1.269   3.414   2.755  1.4307  0.0873  1.3777
  467SOL     OW 1532   0.178   2.236   2.281 -0.7197  0.1391  0.3283
  467SOL    HW1 1533   0.127   2.192   2.213 -2.4460  1.7411  0.5178
  467SOL    HW2 1534   0.244   2.286   2.233 -0.9234  0.0326 -0.0682
  468SOL     OW 1535   1.494   0.734   0.111 -0.5816 -0.5303 -0.1436
  468SOL    HW1 1536   1.460   0.807   0.164  1.7416  0.7199 -0.2512
  468SOL    HW2 1537   1.460   0.656   0.154  0.1574  0.4756  2.4846
  469SOL     OW 1538   2.837   1.330   0.328 -0.0629 -0.2303  0.2401
  469SOL    HW1 1539   2.746   1.342   0.356  0.1059 -0.9743  1.1394
  469SOL    HW2 1540   2.829   1.283   0.244 -0.5011 -1.4913  0.9518
  470SOL     OW 1541   1.810   3.555   0.171 -0.2712  0.4325  0.4418
  470SOL    HW1 1542   1.817   3.586   0.261 -0.4230  2.2338 -0.1378
  470SOL    HW2 1543   1.888   3.588   0.127 -1.9644  2.8618 -0.9678
  471SOL     OW 1544   2.908   2.167   2.765 -0.0047  0.5106  0.2910
  471SOL    HW1 1545   2.813   2.171   2.773 -0.1226  2.7558 -1.3729
  471SOL    HW2 1546   2.941   2.210   2.844 -0.1817 -2.6076  2.2278
  472SOL     OW 1547   1.160   0.033   1.057  0.2336  0.0234 -0.4236
  472SOL    HW1 1548   1.226   0.096   1.085 -0.7524 -0.2869  3.0789
  472SOL    HW2 1549   1.076   0.073   1.080 -0.6732 -0.8272 -2.0514
  473SOL     OW 1550   0.455   0.913   0.832 -0.2465  0.0988 -0.0937
  473SOL    HW1 1551   0.485   0.878   0.915 -0.7271  0.8247  0.3959
  473SOL    HW2 1552   0.360   0.905   0.834 -0.4191  1.7847  0.2313
  474SOL     OW 1553   3.269   0.079   0.920 -0.2733 -0.6791 -0.4125
  474SOL    HW1 1554   3.206   0.027   0.869  0.3702 -1.1313 -0.7588
  474SOL    HW2 1555   3.320   0.126   0.854 -3.4385  3.7404 -0.1736
  475SOL     OW 1556   2.887   1.035   3.134 -0.6717  0.4387  1.2507
  475SOL    HW1 1557   2.795   1.062   3.131 -0.9292 -0.1880  2.5216
  475SOL    HW2 1558   2.924   1.083   3.208  0.1020  0.8779  0.5978
  476SOL     OW 1559   0.071   0.903   3.293  0.1212 -0.9465  0.3856
  476SOL    HW1 1560   0.016   0.848   3.237  1.9249 -2.2497 -0.2019
  476SOL    HW2 1561   0.114   0.842   3.352  3.1244 -0.4035 -1.0797
  477SOL     OW 1562   3.044   3.369   3.093  0.4071 -0.1606 -0.3494
  477SOL    HW1 1563   3.003   3.287   3.067  0.9798 -0.2741 -0.9249
  477SOL    HW2 1564   2.972   3.422   3.129 -0.3770 -0.1025 -1.9167
  478SOL     OW 1565   2.044   3.612   2.067 -0.5662 -1.0747 -0.3289
  478SOL    HW1 1566   2.092   3.681   2.112 -0.1392 -0.1709 -2.0863
  478SOL    HW2 1567   2.083   3.530   2.100  1.0600 -0.4013 -0.4970
  479SOL     OW 1568   0.239   0.153   0.384  0.1385  0.0586 -0.0636
  479SOL    HW1 1569   0.243   0.156   0.479  0.1996 -0.4611 -0.0470
  479SOL    HW2 1570   0.152   0.185   0.362 -0.8879 -2.3133  0.3050
  480SOL     OW 1571   0.013   2.488   3.488  0.0521  0.2766  0.4229
  480SOL    HW1 1572   0.040   2.552   3.423 -0.6974 -0.0298 -0.1984
  480SOL    HW2 1573   0.078   2.496   3.558  1.0649  0.3714 -0.5025
  481SOL     OW 1574   0.385   2.324   1.438 -0.4108 -0.3863  0.1200
  481SOL    HW1 1575   0.326   2.300   1.509  0.9314  1.0904  1.8376
  481SOL    HW2 1576   0.470   2.337   1.481  0.9040 -1.2087 -2.0547
  482SOL     OW 1577   3.003   2.684   0.382 -0.3283 -0.2078 -1.0925
  482SOL    HW1 1578   3.072   2.626   0.350  0.5873  0.8520 -1.1230
  482SOL    HW2 1579   2.924   2.654   0.338  0.1002 -1.4620 -1.0493
  483SOL     OW 1580   2.414   2.678   1.120  0.0234 -0.4954  0.1928
  483SOL    HW1 1581   2.337   2.657   1.068 -0.5674 -1.2505  1.3115
  483SOL    HW2 1582   2.449   2.758   1.081  0.0151 -1.3854 -1.7553
  484SOL     OW 1583   0.230   0.914   1.689 -0.8217 -0.1647 -0.7813
  484SOL    HW1 1584   0.232   0.844   1.624  0.5102  0.3398 -1.2962
  484SOL    HW2 1585   0.211   0.993   1.639  2.6678  0.6431 -1.0135
  485SOL     OW 1586   0.261   3.520   0.180  0.3693 -0.3908  0.1874
  485SOL    HW1 1587   0.171   3.537   0.152  0.3639  0.2984  0.6023
  485SOL    HW2 1588   0.310   3.597   0.153  0.6266 -0.3025  0.8718
  486SOL     OW 1589   1.755   0.268   1.512 -0.6736 -0.3992 -0.0722
  486SOL    HW1 1590   1.805   0.206   1.565 -0.4016 -0.5477 -0.4966
  486SOL    HW2 1591   1.783   0.354   1.542 -2.7967 -0.3739  2.2394
  487SOL     OW 1592   0.102   3.187   3.363 -0.2734  0.3190  0.1642
  487SOL    HW1 1593   0.138   3.268   3.398  1.1088 -1.2236  2.5401
  487SOL    HW2 1594   0.025   3.169   3.418 -0.0392 -0.4450  0.2497
  488SOL     OW 1595   2.269   2.213   0.175 -0.0557 -0.2015 -0.3862
  488SOL    HW1 1596   2.224   2.293   0.149 -2.6965 -2.1110 -2.1378
  488SOL    HW2 1597   2.219   2.181   0.250  0.1323 -0.9074 -0.5536
  489SOL     OW 1598   2.615   3.566   3.613  0.6210 -0.1740  0.1720
  489SOL    HW1 1599   2.672   3.620   3.559  0.6707  0.7313  1.0913
  489SOL    HW2 1600   2.530   3.567   3.569  0.4811  1.1075  0.4534
  490SOL     OW 1601   0.929   1.564   2.427 -0.3031  0.8428 -0.9637
  490SOL    HW1 1602   0.841   1.592   2.453  0.3460 -0.4873  3.5105
  490SOL    HW2 1603   0.915   1.483   2.378 -1.5807  0.6216 -0.2785
  491SOL     OW 1604   1.155   1.195   0.218  0.0207 -0.1918 -0.2038
  491SOL    HW1 1605   1.175   1.289   0.222 -0.8862 -0.0367  1.7904
  491SOL    HW2 1606   1.178   1.169   0.129 -1.0194  2.2140 -1.2446
  492SOL     OW 1607   1.165   1.327   1.967 -0.0532 -0.4630  0.4473
  492SOL    HW1 1608   1.095   1.378   2.009 -1.1450 -1.2188 -0.3837
  492SOL    HW2 1609   1.129   1.304   1.881  2.4402  1.7937 -1.3312
  493SOL     OW 1610   3.341   2.366   0.473  0.1909 -0.2711  0.1449
  493SOL    HW1 1611   3.361   2.295   0.534 -0.4816 -0.0508  0.6318
  493SOL    HW2 1612   3.329   2.322   0.389 -0.2234 -0.7411  0.4411
  494SOL     OW 1613   1.008   3.485   0.447 -0.6812 -0.2042 -0.2913
  494SOL    HW1 1614   1.011   3.554   0.382  0.7406 -0.3640 -0.4239
  494SOL    HW2 1615   1.039   3.407   0.401  1.2148 -0.1301  0.7485
  495SOL     OW 1616   0.078   2.608   2.288  0.6752  0.4169  0.3817
  495SOL    HW1 1617   0.035   2.563   2.216 -1.6977  0.7156  1.5042
  495SOL    HW2 1618   0.128   2.540   2.333 -2.4760 -1.1763  1.7922
  496SOL     OW 1619   3.650   2.415   2.119  0.4184  0.2612  0.9671
  496SOL    HW1 1620   3.663   2.379   2.032  0.8628  2.1848  0.1896
  496SOL    HW2 1621   3.642   2.338   2.176 -0.0487 -1.0349 -0.7652
  497SOL     OW 1622   1.735   0.076   0.817  0.5689 -0.2901 -0.1154
  497SOL    HW1 1623   1.689   0.004   0.860  0.4763  0.3775  0.9362
  497SOL    HW2 1624   1.679   0.100   0.743 -0.3761 -0.0137  0.6842
  498SOL     OW 1625   0.508   1.182   0.139 -0.1374  0.1613 -0.1160
  498SOL    HW1 1626   0.516   1.235   0.059  1.1979 -0.6638 -0.5529
  498SOL    HW2 1627   0.487   1.246   0.207 -1.0054  0.9229 -1.0552
  499SOL     OW 1628   1.168   2.997   3.636  0.2150 -0.7634 -0.6094
  499SOL    HW1 1629   1.238   3.047   3.594 -0.9679 -0.1684 -1.9861
  499SOL    HW2 1630   1.103   2.986   3.566 -1.3904 -0.6292  0.8159
  500SOL     OW 1631   0.952   2.722   2.483 -0.0825 -0.4120 -0.1456
  500SOL    HW1 1632   1.022   2.736   2.547 -1.1209  2.5085  0.5420
  500SOL    HW2 1633   0.903   2.647   2.517  3.0668 -3.1642 -1.1267
  501SOL     OW 1634   3.071   3.626   0.157 -0.6897  0.2288  0.7270
  501SOL    HW1 1635   3.013   3.565   0.113 -0.0854  0.9711 -1.1922
  501SOL    HW2 1636   3.149   3.629   0.102 -0.1709  1.7139  1.4834
  502SOL     OW 1637   2.989   2.870   1.186 -0.4175 -0.2134 -0.4526
  502SOL    HW1 1638   3.040   2.854   1.106  2.6633 -0.3123  1.3846
  502SOL    HW2 1639   2.903   2.899   1.154  1.5807  2.8289 -3.8600
  503SOL     OW 1640   2.819   2.175   0.092  0.7693 -0.0803 -0.2493
  503SOL    HW1 1641   2.798   2.157   0.001 -1.2977  1.8635 -0.2412
  503SOL    HW2 1642   2.744   2.141   0.141  0.9163  0.6779  0.5233
  504SOL     OW 1643   0.924   2.017   3.323 -0.3221  0.5922 -0.0895
  504SOL    HW1 1644   1.014   2.045   3.337 -0.5685  1.2263  0.2807
  504SOL    HW2 1645   0.930   1.949   3.256  0.3299  1.3278 -0.7953
  505SOL     OW 1646   0.494   0.265   2.548  0.1320 -0.0779 -0.4294
  505SOL    HW1 1647   0.562   0.305   2.601  0.5311 -0.5032 -0.6176
  505SOL    HW2 1648   0.418   0.322   2.559  0.2216 -0.1356  0.5600
  506SOL     OW 1649   1.382   2.143   1.561  0.0994 -0.3029 -0.0975
  506SOL    HW1 1650   1.427   2.127   1.478  3.9584  1.6244  1.3564
  506SOL    HW2 1651   1.420   2.077   1.620  0.4612  0.8660  1.0088
  507SOL     OW 1652   0.060   1.156   2.850  0.9521  0.1445 -0.3509
  507SOL    HW1 1653   0.052   1.251   2.851 -1.0317  0.0075 -0.0813
  507SOL    HW2 1654   0.129   1.137   2.913  0.9020  1.3581  0.0902
  508SOL     OW 1655   0.651   3.573   2.897  0.4440 -0.3824  0.0940
  508SOL    HW1 1656   0.745   3.590   2.907  0.6369 -1.1349 -0.3226
  508SOL    HW2 1657   0.619   3.644   2.842  0.7316 -0.0232  0.3850
  509SOL     OW 1658   0.834   2.496   2.544 -0.0279  0.0556 -0.2707
  509SOL    HW1 1659   0.797   2.506   2.631 -0.2788  0.5525 -0.4290
  509SOL    HW2 1660   0.833   2.402   2.527 -2.4456  0.1205 -0.7964
  510SOL     OW 1661   2.392   3.374   3.334 -0.1556 -0.6367  0.4286
  510SOL    HW1 1662   2.331   3.398   3.403 -0.3091 -0.7439  0.3311
  510SOL    HW2 1663   2.396   3.452   3.278  0.6256 -0.2378  1.0230
  511SOL     OW 1664   1.162   3.115   1.955 -0.2290  0.8600 -0.5710
  511SOL    HW1 1665   1.251   3.083   1.970 -0.1893  0.6933 -1.1266
  511SOL    HW2 1666   1.168   3.210   1.963  0.0192  0.8565 -0.7066
  512SOL     OW 1667   2.031   1.936   2.358 -0.0552  0.0458  0.1140
  512SOL    HW1 1668   1.951   1.958   2.311  0.6474  0.4805 -0.9368
  512SOL    HW2 1669   2.032   1.995   2.433 -0.9675 -0.3298  0.4347
  513SOL     OW 1670   2.946   2.222   1.944  0.1990  0.4822  0.3873
  513SOL    HW1 1671   2.999   2.153   1.983 -0.3531  0.0032  0.2965
  513SOL    HW2 1672   2.950   2.294   2.008 -0.6835 -0.2853  1.3295
  514SOL     OW 1673   0.489   1.413   3.038 -0.2628  0.0522  0.7487
  514SOL    HW1 1674   0.417   1.422   3.100 -0.0175  0.8144  0.9390
  514SOL    HW2 1675   0.471   1.478   2.971  0.2223  0.2186  0.7750
  515SOL     OW 1676   3.238   2.410   1.934 -0.2465  0.2909 -0.4651
  515SOL    HW1 1677   3.313   2.391   1.878 -0.2552 -1.5850  0.0884
  515SOL    HW2 1678   3.216   2.501   1.915  1.5686  0.5967 -1.3332
  516SOL     OW 1679   2.009   1.685   3.270 -0.5730 -1.2162  0.1744
  516SOL    HW1 1680   2.025   1.591   3.283 -0.0080 -1.2225 -0.5088
  516SOL    HW2 1681   1.914   1.693   3.264 -0.8174 -1.4110  2.6514
  517SOL     OW 1682   1.178   3.001   1.712  0.2456 -0.6008  0.1799
  517SOL    HW1 1683   1.259   2.966   1.748  1.0027  0.5352 -0.3740
  517SOL    HW2 1684   1.134   3.043   1.786  1.5536  1.2884 -0.0555
  518SOL     OW 1685   3.679   0.832   2.968 -0.1874  0.5534  0.2679
  518SOL    HW1 1686   3.632   0.825   2.885  0.5232  0.9811 -0.1703
  518SOL    HW2 1687   3.623   0.785   3.030  0.1570 -1.4007 -0.8175
  519SOL     OW 1688   1.565   2.023   1.359  0.4452 -0.0474 -0.4911
  519SOL    HW1 1689   1.596   1.983   1.277  0.9530  0.5906 -0.6218
  519SOL    HW2 1690   1.608   1.972   1.428  1.4025  0.5118 -0.6633
  520SOL     OW 1691   0.940   1.083   2.200 -0.2078  0.1752  0.5944
  520SOL    HW1 1692   0.939   1.040   2.115 -0.8787 -0.4081  0.8920
  520SOL    HW2 1693   0.963   1.013   2.262 -0.1969  0.4902  0.9506
  521SOL     OW 1694   2.740   3.309   0.727  0.9489 -0.1671 -0.1117
  521SOL    HW1 1695   2.708   3.389   0.685  2.4849 -1.2715 -3.7768
  521SOL    HW2 1696   2.661   3.256   0.740  0.1160  1.2427  0.9067
  522SOL     OW 1697   2.399   0.884   0.577  0.6239 -0.3774 -0.5187
  522SOL    HW1 1698   2.485   0.847   0.559  0.6950 -0.0070 -0.9676
  522SOL    HW2 1699   2.403   0.972   0.539  0.1132 -0.2882 -0.3687
  523SOL     OW 1700   0.712   0.307   3.344  0.1019 -0.2000 -0.6850
  523SOL    HW1 1701   0.668   0.310   3.429  0.4193  0.0981 -0.5281
  523SOL    HW2 1702   0.675   0.381   3.296 -1.2206 -1.2726 -1.3849
  524SOL     OW 1703   1.577   3.069   1.860 -0.2744 -1.0481 -0.2813
  524SOL    HW1 1704   1.612   2.980   1.857 -0.4756 -1.2661  1.9053
  524SOL    HW2 1705   1.504   3.063   1.922  0.4127  0.8505  0.7929
  525SOL     OW 1706   0.214   0.955   2.419  0.6095  0.1330  0.3778
  525SOL    HW1 1707   0.239   1.016   2.350 -0.1564  1.6219  1.3771
  525SOL    HW2 1708   0.165   1.008   2.482 -0.9027 -1.6824  0.8395
  526SOL     OW 1709   0.775   1.227   0.185  0.3225 -0.3688 -0.0849
  526SOL    HW1 1710   0.821   1.155   0.229 -0.1232 -0.1793  0.6915
  526SOL    HW2 1711   0.682   1.203   0.189 -0.0827  1.3141  2.2151
  527SOL     OW 1712   2.822   1.819   3.448 -0.3765 -0.1394  0.0951
  527SOL    HW1 1713   2.899   1.762   3.448 -1.6687 -1.9867 -0.5859
  527SOL    HW2 1714   2.761   1.776   3.508 -0.9179  1.2664  0.5856
  528SOL     OW 1715   1.259   0.718   0.910  0.2460  0.2183 -0.4849
  528SOL    HW1 1716   1.347   0.732   0.944 -1.0917  1.2766  3.0587
  528SOL    HW2 1717   1.248   0.788   0.845  0.6854  3.0107  2.1789
  529SOL     OW 1718   2.625   2.717   2.103 -0.1059 -0.3384  0.4110
  529SOL    HW1 1719   2.545   2.703   2.053  0.4619 -0.3001 -0.5450
  529SOL    HW2 1720   2.694   2.722   2.037  0.6406 -0.0158  1.1877
  530SOL     OW 1721   0.640   2.327   1.589  0.0006  0.3479  0.0949
  530SOL    HW1 1722   0.566   2.303   1.645  0.4762 -1.2245  0.0957
  530SOL    HW2 1723   0.717   2.303   1.639  0.6685  3.7637  0.9186
  531SOL     OW 1724   2.765   0.119   3.668 -0.0521  0.1427  0.6028
  531SOL    HW1 1725   2.791   0.197   3.619 -0.3664 -0.2633 -0.2313
  531SOL    HW2 1726   2.744   0.152   3.756  0.7991  0.8377  0.5546
  532SOL     OW 1727   2.155   2.261   1.409  0.2260  0.3254 -0.2127
  532SOL    HW1 1728   2.210   2.183   1.419 -0.7146 -0.1726  1.5968
  532SOL    HW2 1729   2.201   2.330   1.457  0.8582  0.8030 -1.4718
  533SOL     OW 1730   1.195   0.166   3.503  0.8307  0.5826  0.0671
  533SOL    HW1 1731   1.251   0.088   3.513  1.2660  0.6872 -1.2946
  533SOL    HW2 1732   1.189   0.178   3.408 -1.8775  0.3336  0.1417
  534SOL     OW 1733   2.908   1.781   2.746 -1.1406  0.4527  0.2076
  534SOL    HW1 1734   2.974   1.845   2.771 -0.9266  0.7563 -1.0788
  534SOL    HW2 1735   2.872   1.750   2.829  1.4432 -0.6349  1.0337
  535SOL     OW 1736   1.995   2.060   1.494 -0.2024  0.3801  0.6709
  535SOL    HW1 1737   2.041   2.021   1.568 -0.5948  0.7787  1.1382
  535SOL    HW2 1738   2.042   2.141   1.475  1.1169 -0.6821 -0.8394
  536SOL     OW 1739   1.182   2.341   1.540 -0.7461  0.2374 -0.3204
  536SOL    HW1 1740   1.240   2.268   1.522  0.9068  1.8236 -1.8563
  536SOL    HW2 1741   1.111   2.332   1.476  0.4140  0.9169 -1.7646
  537SOL     OW 1742   3.194   0.282   2.344 -0.4921 -0.0084  0.3000
  537SOL    HW1 1743   3.168   0.365   2.305  1.7398 -0.2847 -1.9933
  537SOL    HW2 1744   3.264   0.305   2.406  0.5732 -0.1904 -0.8044
  538SOL     OW 1745   1.312   0.706   2.212  0.3614  0.5475  0.6951
  538SOL    HW1 1746   1.248   0.703   2.283 -1.3111  0.1407 -0.7545
  538SOL    HW2 1747   1.284   0.779   2.157 -1.2947 -1.8740 -2.0105
  539SOL     OW 1748   0.429   2.812   0.756 -0.5904  0.0893  0.3037
  539SOL    HW1 1749   0.412   2.718   0.762  0.8352 -0.4220 -2.1263
  539SOL    HW2 1750   0.432   2.829   0.662 -2.3378  2.9196  0.6313
  540SOL     OW 1751   0.735   0.867   0.435  0.1466  0.0068  0.2562
  540SOL    HW1 1752   0.717   0.775   0.453  2.1263 -0.3669  0.5706
  540SOL    HW2 1753   0.814   0.867   0.381 -0.0452  1.5165 -0.0912
  541SOL     OW 1754   3.655   0.249   2.612 -0.1220  0.0176 -0.3141
  541SOL    HW1 1755   3.565   0.239   2.642  0.1353  1.8203  1.2762
  541SOL    HW2 1756   3.706   0.193   2.670  0.0379  1.1147  0.6447
  542SOL     OW 1757   2.649   2.166   0.987 -0.0545 -0.0164 -0.2721
  542SOL    HW1 1758   2.608   2.251   0.973  1.0104  0.9533  2.0316
  542SOL    HW2 1759   2.720   2.162   0.923  0.7297  1.4583  0.4600
  543SOL     OW 1760   1.446   2.860   0.630  0.1637  0.4385  0.6102
  543SOL    HW1 1761   1.434   2.939   0.576  1.2881  0.8270  0.9096
  543SOL    HW2 1762   1.381   2.798   0.596 -1.5769  1.8696  1.1288
  544SOL     OW 1763   2.625   2.830   2.605 -0.0121  0.8848 -0.1004
  544SOL    HW1 1764   2.566   2.891   2.561 -1.5964 -1.0787 -0.8289
  544SOL    HW2 1765   2.704   2.829   2.551  0.1851  2.5145  0.1231
  545SOL     OW 1766   1.673   2.757   0.406  0.1499 -0.1643  0.0654
  545SOL    HW1 1767   1.705   2.672   0.438  3.8767  0.0631 -2.4143
  545SOL    HW2 1768   1.718   2.821   0.461  0.6314  0.1575 -0.6825
  546SOL     OW 1769   2.252   0.040   1.281  0.1408  0.1004  0.3000
  546SOL    HW1 1770   2.207   0.116   1.246  1.6025  1.2117  0.7098
  546SOL    HW2 1771   2.319   0.020   1.215  0.9080  0.2868  1.0143
  547SOL     OW 1772   1.184   2.150   3.442 -0.2830 -0.5378  0.3601
  547SOL    HW1 1773   1.178   2.178   3.533 -0.7526 -1.5075  0.6369
  547SOL    HW2 1774   1.183   2.232   3.392  1.2838  0.0909  1.2595
  548SOL     OW 1775   3.197   2.389   1.572 -0.1179  0.0603  0.1466
  548SOL    HW1 1776   3.171   2.304   1.608  2.4083 -0.7934  0.1600
  548SOL    HW2 1777   3.239   2.367   1.489 -1.5424  1.5760 -1.0430
  549SOL     OW 1778   3.029   0.643   1.911  0.0352  0.4881 -0.4330
  549SOL    HW1 1779   3.000   0.561   1.870  0.5842 -0.2005  0.4949
  549SOL    HW2 1780   3.121   0.651   1.887 -0.0184  0.8402 -0.5250
  550SOL     OW 1781   0.746   1.274   2.621 -0.7750  0.1149  0.0749
  550SOL    HW1 1782   0.751   1.254   2.528  1.6205 -0.2730  0.2221
  550SOL    HW2 1783   0.677   1.217   2.654  1.2546 -3.1147 -0.7557
  551SOL     OW 1784   0.482   1.039   1.418  0.1634 -0.5889  0.2651
  551SOL    HW1 1785   0.455   0.947   1.419  2.5469 -1.3815 -0.7763
  551SOL    HW2 1786   0.576   1.037   1.436  0.1528  1.7197  0.8970
  552SOL     OW 1787   0.109   2.351   3.010  0.4459  0.3143  0.2909
  552SOL    HW1 1788   0.100   2.286   2.941  3.0518  0.6062 -0.4451
  552SOL    HW2 1789   0.033   2.408   3.001 -1.1907 -1.7998  0.1084
  553SOL     OW 1790   0.791   0.716   1.461  0.0728  0.2340 -0.2839
  553SOL    HW1 1791   0.802   0.785   1.526  0.7551 -0.0694 -0.0715
  553SOL    HW2 1792   0.878   0.679   1.450 -0.1353 -0.0548 -0.9979
  554SOL     OW 1793   3.110   2.873   1.430  0.2640  0.1793 -0.2716
  554SOL    HW1 1794   3.193   2.917   1.410  1.9886 -2.9431 -0.5667
  554SOL    HW2 1795   3.060   2.877   1.348  0.4050  1.4444 -0.3137
  555SOL     OW 1796   2.294   2.210   1.043 -0.1723  0.5589 -0.2453
  555SOL    HW1 1797   2.371   2.252   1.080  0.7574 -0.5464 -0.8740
  555SOL    HW2 1798   2.278   2.135   1.100 -1.3131  1.2259  0.3715
  556SOL     OW 1799   3.552   0.819   1.816 -0.4152 -0.2084  0.1710
  556SOL    HW1 1800   3.603   0.738   1.816  0.0227  0.0652  0.0855
  556SOL    HW2 1801   3.508   0.820   1.902  0.4692  0.0137  0.6326
  557SOL     OW 1802   0.977   3.085   2.373  0.5771  0.7402 -0.1095
  557SOL    HW1 1803   1.033   3.118   2.442  1.7650  1.1635 -1.2329
  557SOL    HW2 1804   0.924   3.161   2.347  0.0316  0.5460  0.4055
  558SOL     OW 1805   1.766   2.075   1.717  0.0623  0.1524 -0.2643
  558SOL    HW1 1806   1.850   2.043   1.684  0.7711  0.9456  0.6956
  558SOL    HW2 1807   1.749   2.022   1.795  1.2268  1.9588  1.3179
  559SOL     OW 1808   3.694   0.117   1.023  0.0175 -0.0387  0.0409
  559SOL    HW1 1809   3.729   0.179   0.958  0.3131  1.2703  1.4015
  559SOL    HW2 1810   3.668   0.041   0.971  0.9795  0.6373 -1.5213
  560SOL     OW 1811   1.572   0.546   2.037 -0.3399 -0.2987 -0.2291
  560SOL    HW1 1812   1.501   0.603   2.007 -1.0445 -0.5938  0.7937
  560SOL    HW2 1813   1.534   0.499   2.112  0.6645 -1.1014 -0.2082
  561SOL     OW 1814   3.014   0.518   2.923  0.2382 -0.3045  0.7638
  561SOL    HW1 1815   3.054   0.568   2.994 -0.7038 -1.1444  1.9203
  561SOL    HW2 1816   3.078   0.449   2.902  0.2653 -0.4138  1.2048
  562SOL     OW 1817   1.912   1.757   1.501  0.8112  0.6039 -0.9310
  562SOL    HW1 1818   1.845   1.797   1.557  0.5858 -1.1221  0.0885
  562SOL    HW2 1819   1.962   1.832   1.467  2.0796  1.7460  2.9409
  563SOL     OW 1820   1.019   2.606   2.746 -0.2241  0.3673  0.6697
  563SOL    HW1 1821   1.000   2.513   2.732 -2.5729  0.4796  2.4923
  563SOL    HW2 1822   1.087   2.607   2.813  0.4494 -0.0103  0.0096
  564SOL     OW 1823   3.611   3.350   0.434 -0.4354  0.0966  0.2969
  564SOL    HW1 1824   3.688   3.364   0.490  1.1506 -1.4829 -1.3084
  564SOL    HW2 1825   3.575   3.266   0.464 -1.4271  0.7195  0.8875
  565SOL     OW 1826   0.194   0.092   0.671 -0.1392  0.5393 -0.8080
  565SOL    HW1 1827   0.144   0.023   0.716  2.8267 -0.2589  1.5758
  565SOL    HW2 1828   0.179   0.170   0.725  0.3922  0.5276 -0.6406
  566SOL     OW 1829   1.483   0.409   2.832  0.0209 -0.3859  0.8878
  566SOL    HW1 1830   1.501   0.503   2.827 -0.7781  0.1985  5.2825
  566SOL    HW2 1831   1.392   0.401   2.804  0.7348 -0.3789 -1.8098
  567SOL     OW 1832   1.519   2.359   3.382  0.1481  0.8080  0.5954
  567SOL    HW1 1833   1.495   2.269   3.406 -1.4376  1.4299  1.5339
  567SOL    HW2 1834   1.614   2.361   3.387  0.2851 -1.0741 -0.4266
  568SOL     OW 1835   2.364   0.295   3.309 -0.0649  0.1272 -0.3418
  568SOL    HW1 1836   2.432   0.352   3.344  1.7934  0.1696 -3.5827
  568SOL    HW2 1837   2.311   0.272   3.384  2.6231  1.3319  2.1233
  569SOL     OW 1838   0.045   2.883   2.663  0.1398 -0.3884  0.3778
  569SOL    HW1 1839   0.095   2.912   2.587 -0.3885 -1.4113 -0.3744
  569SOL    HW2 1840  -0.021   2.951   2.675 -1.3571 -1.3735 -1.6307
  570SOL     OW 1841   2.771   1.139   3.652 -0.5606 -0.3348  0.6365
  570SOL    HW1 1842   2.798   1.228   3.674  0.8292 -0.9890  1.7177
  570SOL    HW2 1843   2.737   1.103   3.734 -1.3437 -0.7392  0.1492
  571SOL     OW 1844   0.045   3.539   3.030 -0.2584  0.1861  0.2964
  571SOL    HW1 1845   0.007   3.583   3.106 -2.1079  0.4268 -0.7343
  571SOL    HW2 1846  -0.026   3.486   2.994  0.9686 -0.9950 -0.5048
  572SOL     OW 1847   0.277   0.583   0.819 -0.5343  0.0016  0.2728
  572SOL    HW1 1848   0.255   0.673   0.846 -1.5032  0.2843 -1.3127
  572SOL    HW2 1849   0.245   0.577   0.729 -0.2264 -1.8609  0.2547
  573SOL     OW 1850   0.023   2.712   0.878  0.2471 -0.4996  0.7995
  573SOL    HW1 1851   0.076   2.792   0.881 -1.1279  0.4025  2.2665
  573SOL    HW2 1852   0.075   2.647   0.925  0.4194  0.1594  1.5474
  574SOL     OW 1853   0.374   2.217   2.984 -0.5571  0.1958 -0.7751
  574SOL    HW1 1854   0.280   2.216   3.002 -0.3436  1.2612  0.5658
  574SOL    HW2 1855   0.390   2.302   2.943 -0.0192  0.4775  0.0044
  575SOL     OW 1856   1.580   0.447   2.522 -0.8015 -0.1626 -0.1890
  575SOL    HW1 1857   1.635   0.382   2.565 -0.6819 -0.6763 -1.0891
  575SOL    HW2 1858   1.594   0.432   2.428 -0.5148  1.3843 -0.4169
  576SOL     OW 1859   1.456   2.432   0.491 -0.2858  0.3231 -0.2326
  576SOL    HW1 1860   1.451   2.378   0.570 -2.3737 -1.5503 -1.5345
  576SOL    HW2 1861   1.549   2.456   0.484 -0.0377  0.5326  2.7099
  577SOL     OW 1862   2.470   2.395   1.157  0.0350  0.6107 -0.1014
  577SOL    HW1 1863   2.535   2.368   1.222 -1.4436 -0.5223  0.9853
  577SOL    HW2 1864   2.494   2.485   1.135 -0.2412  1.5995  3.1599
  578SOL     OW 1865   3.378   3.575   1.954  0.0383 -0.2676 -0.1790
  578SOL    HW1 1866   3.383   3.657   2.003 -2.2006  0.9525 -1.8295
  578SOL    HW2 1867   3.328   3.516   2.010  1.9318 -0.7181  1.1588
  579SOL     OW 1868   0.669   2.176   2.769 -0.4085  0.5958  0.1656
  579SOL    HW1 1869   0.576   2.158   2.781 -0.2451  0.4348  1.3963
  579SOL    HW2 1870   0.693   2.131   2.688 -1.2209 -0.0375  0.2713
  580SOL     OW 1871   3.653   0.065   2.837  0.1490 -0.3936  0.1172
  580SOL    HW1 1872   3.567   0.079   2.877 -0.3483 -2.4916 -0.0999
  580SOL    HW2 1873   3.655  -0.029   2.816  1.3799  0.1144 -2.4405
  581SOL     OW 1874   0.005   2.130   0.950  0.2900 -0.3419 -0.3144
  581SOL    HW1 1875   0.096   2.115   0.923  1.1225  0.2563  1.9053
  581SOL    HW2 1876   0.012   2.165   1.039 -2.1845 -1.9306  0.6126
  582SOL     OW 1877   0.930   1.597   0.794 -0.8271 -0.9589 -0.2499
  582SOL    HW1 1878   0.994   1.667   0.807  0.0311 -1.8508  0.4475
  582SOL    HW2 1879   0.930   1.549   0.876 -1.1103 -2.0048 -0.8435
  583SOL     OW 1880   1.284   2.007   0.795 -0.1382 -0.4980  0.5524
  583SOL    HW1 1881   1.254   1.916   0.793 -2.9916  0.3581 -0.5439
  583SOL    HW2 1882   1.314   2.024   0.706 -2.2701  0.3454 -0.0676
  584SOL     OW 1883   2.796   0.962   1.242 -0.0603 -0.5097 -0.0366
  584SOL    HW1 1884   2.836   0.992   1.160 -0.8432 -1.2648 -0.7181
  584SOL    HW2 1885   2.833   0.874   1.255 -1.1948 -1.0680 -0.4813
  585SOL     OW 1886   0.496   3.123   1.574  0.7192  0.0243 -0.5047
  585SOL    HW1 1887   0.565   3.180   1.607 -0.2795  0.3261  1.1658
  585SOL    HW2 1888   0.540   3.068   1.509  2.2178  1.0935 -0.4565
  586SOL     OW 1889   3.680   3.446   3.369  0.4162 -0.1312 -0.4417
  586SOL    HW1 1890   3.649   3.498   3.295  1.2249 -1.4389 -1.7533
  586SOL    HW2 1891   3.601   3.405   3.405 -0.1985  1.7514  0.4758
  587SOL     OW 1892   1.844   2.401   0.250  0.0178  0.3363 -0.0421
  587SOL    HW1 1893   1.906   2.463   0.211 -0.3846 -0.1244 -1.4651
  587SOL    HW2 1894   1.895   2.320   0.259  0.7010  0.9598  2.3047
  588SOL     OW 1895   2.272   0.213   2.874 -0.4184  0.4722  0.0547
  588SOL    HW1 1896   2.357   0.170   2.888  0.0229  0.7812 -1.4347
  588SOL    HW2 1897   2.280   0.296   2.920  0.9544  1.4561 -1.8331
  589SOL     OW 1898   3.652   2.125   0.694  0.4472  0.0956 -0.3766
  589SOL    HW1 1899   3.703   2.062   0.644 -1.6186 -3.3803  1.5328
  589SOL    HW2 1900   3.694   2.128   0.780 -0.0592  0.6062 -0.1388
  590SOL     OW 1901   0.138   2.403   1.587 -0.6388  0.1967 -0.9808
  590SOL    HW1 1902   0.122   2.327   1.643  3.5923  0.5085  1.0701
  590SOL    HW2 1903   0.105   2.477   1.637  0.1283  0.1430 -0.3638
  591SOL     OW 1904   2.772   2.155   1.722  0.5133  0.7148 -0.4391
  591SOL    HW1 1905   2.816   2.164   1.807 -0.8403  1.1862  0.2363
  591SOL    HW2 1906   2.753   2.244   1.695 -0.4245  0.5022 -0.5013
  592SOL     OW 1907   1.708   0.283   2.741  0.1858  0.1867  0.0539
  592SOL    HW1 1908   1.623   0.320   2.767  0.2941  1.0956 -0.7955
  592SOL    HW2 1909   1.733   0.226   2.814 -1.6055 -0.8903 -0.1119
  593SOL     OW 1910   2.410   3.560   2.812  0.3817 -0.0610  0.4982
  593SOL    HW1 1911   2.339   3.508   2.773  1.8651  0.5853 -3.5057
  593SOL    HW2 1912   2.469   3.495   2.850  0.5970 -1.1118 -1.5280
  594SOL     OW 1913   3.121   3.564   2.197  0.0755 -0.2776  0.4663
  594SOL    HW1 1914   3.029   3.588   2.205  0.0426 -0.2869  0.1283
  594SOL    HW2 1915   3.127   3.520   2.112  0.5596  0.4768  0.1031
  595SOL     OW 1916   0.925   0.963   2.722 -0.2001  0.8456 -0.1022
  595SOL    HW1 1917   1.003   0.934   2.769  0.1499 -1.2853 -1.8491
  595SOL    HW2 1918   0.954   1.042   2.676  0.2659  1.3010  0.9203
  596SOL     OW 1919   3.326   3.361   0.721 -0.4407 -0.1035  0.0230
  596SOL    HW1 1920   3.291   3.426   0.660 -1.1001  0.4568  0.9590
  596SOL    HW2 1921   3.342   3.283   0.668 -0.7559  0.4483 -0.8986
  597SOL     OW 1922   1.636   3.346   0.006  0.1311 -0.4304  0.0317
  597SOL    HW1 1923   1.700   3.389   0.062  0.9623 -1.7120  0.1079
  597SOL    HW2 1924   1.578   3.299   0.066 -0.6059  0.3342 -0.0629
  598SOL     OW 1925   3.200   1.950   1.608 -0.0502 -0.1757 -0.0050
  598SOL    HW1 1926   3.163   2.037   1.627  3.5548  1.1687  1.9734
  598SOL    HW2 1927   3.217   1.951   1.514 -3.3171 -0.3160 -0.7307
  599SOL     OW 1928   3.300   0.762   0.571  0.6659  0.2692 -0.2935
  599SOL    HW1 1929   3.325   0.817   0.496  1.7816  1.8302  1.1276
  599SOL    HW2 1930   3.381   0.753   0.621 -0.0863 -0.6095  0.8034
  600SOL     OW 1931   3.678   0.268   1.814 -0.2546  0.4089  0.1100
  600SOL    HW1 1932   3.643   0.292   1.900 -2.5281 -1.6314 -0.1194
  600SOL    HW2 1933   3.626   0.192   1.787  2.7918 -1.2928 -1.5260
  601SOL     OW 1934   0.187   1.525   1.240 -0.4857  0.3712  0.6334
  601SOL    HW1 1935   0.259   1.510   1.302 -0.7021 -1.0028  0.5617
  601SOL    HW2 1936   0.230   1.533   1.155 -0.5072 -2.3717  0.2930
  602SOL     OW 1937   1.060   1.406   2.973 -0.4122  0.1993  0.3306
  602SOL    HW1 1938   1.065   1.335   3.037  2.4612 -0.1788 -0.1782
  602SOL    HW2 1939   0.969   1.404   2.943 -0.7481 -2.4530  1.2181
  603SOL     OW 1940   0.747   2.513   1.976 -0.2358 -0.0939 -0.0835
  603SOL    HW1 1941   0.838   2.511   1.948 -0.4930 -0.1712 -0.9411
  603SOL    HW2 1942   0.727   2.607   1.984 -0.1487 -0.0742 -0.0947
  604SOL     OW 1943   1.963   1.222   2.124  0.2830  0.7133 -0.0854
  604SOL    HW1 1944   1.914   1.300   2.096 -0.3519  0.0471 -0.8926
  604SOL    HW2 1945   2.050   1.234   2.086  0.5883  1.6077  0.8334
  605SOL     OW 1946   2.004   2.293   1.020 -0.3194  0.8349  0.1109
  605SOL    HW1 1947   2.096   2.271   1.027 -0.0395  2.1763  1.0777
  605SOL    HW2 1948   1.990   2.359   1.088 -1.7663  1.3647 -0.6576
  606SOL     OW 1949   0.143   2.525   1.320  0.1225 -0.0235  0.4991
  606SOL    HW1 1950   0.191   2.503   1.399 -2.7223  1.4384  2.8003
  606SOL    HW2 1951   0.131   2.619   1.324 -0.2993  0.0659 -1.6042
  607SOL     OW 1952   2.264   1.979   1.519 -0.2967  1.0515 -0.1442
  607SOL    HW1 1953   2.341   2.018   1.560  0.7167  0.4411 -1.3732
  607SOL    HW2 1954   2.254   1.894   1.562  0.9219  0.2992 -1.2810
  608SOL     OW 1955   1.011   1.197   2.596  0.2229  0.4032 -0.2031
  608SOL    HW1 1956   1.023   1.206   2.502 -0.4088 -0.6203 -0.3926
  608SOL    HW2 1957   0.941   1.258   2.618 -1.1826 -0.9481 -0.7878
  609SOL     OW 1958   1.202   1.196   3.647  0.0826 -0.9411 -0.5145
  609SOL    HW1 1959   1.258   1.268   3.619  1.2455 -1.0528  1.3484
  609SOL    HW2 1960   1.113   1.231   3.640  0.6343  0.8795  0.7189
  610SOL     OW 1961   0.710   0.831   1.756 -0.0429  0.3560  0.4625
  610SOL    HW1 1962   0.620   0.850   1.782 -0.7517 -0.4596 -1.2773
  610SOL    HW2 1963   0.717   0.866   1.667  0.9284 -0.8222  0.0536
  611SOL     OW 1964  -0.030   1.792   3.089 -0.0388 -0.7763 -0.2928
  611SOL    HW1 1965   0.012   1.798   3.003  0.5739 -1.8531 -0.0937
  611SOL    HW2 1966   0.042   1.781   3.150 -0.5485 -1.5490  0.1870
  612SOL     OW 1967   1.157   3.379   3.628  0.7296  0.0293  0.0221
  612SOL    HW1 1968   1.090   3.430   3.582  2.0843  0.7334 -1.2397
  612SOL    HW2 1969   1.193   3.440   3.693  1.6169  0.3680 -0.7679
  613SOL     OW 1970   3.677   3.579   3.702 -0.2857  0.1290  0.4734
  613SOL    HW1 1971   3.608   3.545   3.645  0.0869  0.8072 -0.4049
  613SOL    HW2 1972   3.690   3.510   3.767 -0.9172 -0.5485 -0.0981
  614SOL     OW 1973   1.503   1.910   0.949  0.2615  0.5937 -0.0179
  614SOL    HW1 1974   1.439   1.942   0.886  0.1276  1.0212  0.3255
  614SOL    HW2 1975   1.480   1.819   0.963  1.0801  0.1110 -1.5583
  615SOL     OW 1976   2.369   2.817   2.242 -0.0602 -0.3042  0.4507
  615SOL    HW1 1977   2.329   2.859   2.166  3.7692  2.6890 -0.2508
  615SOL    HW2 1978   2.354   2.879   2.314  1.0201 -0.3662  0.7474
  616SOL     OW 1979   2.036   0.344   3.100  0.1470  0.6758  0.1377
  616SOL    HW1 1980   1.975   0.337   3.026  0.2245  0.3503  0.1014
  616SOL    HW2 1981   2.102   0.408   3.071  0.6287 -0.0463 -0.4039
  617SOL     OW 1982   1.144   2.765   3.374 -0.3950  0.1680  0.0973
  617SOL    HW1 1983   1.132   2.714   3.294 -1.6169  1.6265 -0.6974
  617SOL    HW2 1984   1.072   2.828   3.374  1.1215  2.0318  0.9079
  618SOL     OW 1985   2.759   0.107   0.802 -0.3663  0.4277 -0.1541
  618SOL    HW1 1986   2.833   0.100   0.863 -0.0106 -0.2648 -0.6514
  618SOL    HW2 1987   2.709   0.027   0.818 -0.3097  0.2795 -0.7209
  619SOL     OW 1988   1.346   2.344   0.067  0.3103 -0.8798 -0.1434
  619SOL    HW1 1989   1.309   2.364   0.153  0.6836 -0.9470  0.0358
  619SOL    HW2 1990   1.439   2.328   0.085  0.6296  0.2515 -0.7175
  620SOL     OW 1991   0.598   0.808   3.341 -0.0245 -0.1414  0.0593
  620SOL    HW1 1992   0.505   0.833   3.336  0.4434  1.7063 -0.1370
  620SOL    HW2 1993   0.604   0.756   3.421 -1.2432 -0.3381  0.0453
  621SOL     OW 1994   2.404   2.498   3.632 -0.0419 -0.0415 -0.4083
  621SOL    HW1 1995   2.311   2.475   3.641  0.2987 -1.3552  0.0963
  621SOL    HW2 1996   2.404   2.584   3.591 -1.4858 -0.0199 -0.4174
  622SOL     OW 1997   3.691   0.116   1.478 -0.3384 -0.2142 -0.5328
  622SOL    HW1 1998   3.649   0.163   1.406  1.6763  0.1618 -1.5318
  622SOL    HW2 1999   3.737   0.183   1.528 -0.1588 -0.7158 -0.0043
  623SOL     OW 2000   1.439   1.543   3.374  0.7001 -0.0413 -0.0803
  623SOL    HW1 2001   1.475   1.522   3.288 -1.2678 -1.0847 -0.7078
  623SOL    HW2 2002   1.355   1.586   3.355  0.3919  0.0299  1.3087
  624SOL     OW 2003   2.435   2.795   1.665  0.1828  0.3351  0.3815
  624SOL    HW1 2004   2.404   2.768   1.578 -1.6947  2.4862  0.2745
  624SOL    HW2 2005   2.405   2.726   1.724 -0.0439 -0.2924 -0.4476
  625SOL     OW 2006   2.492   1.443   2.518  0.2352 -0.4647 -0.2812
  625SOL    HW1 2007   2.551   1.427   2.592 -1.9483  1.8765  2.1668
  625SOL    HW2 2008   2.427   1.373   2.524  1.4039 -1.7224 -1.5998
  626SOL     OW 2009   2.184   3.388   3.533 -0.6774 -0.0510  0.6744
  626SOL    HW1 2010   2.158   3.466   3.484 -0.4463 -0.0830  0.5001
  626SOL    HW2 2011   2.187   3.417   3.624 -2.4551 -0.3224  0.8599
  627SOL     OW 2012   2.749   2.945   1.065  0.1446 -0.7188 -0.1293
  627SOL    HW1 2013   2.691   2.883   1.020 -1.8101  0.0327  1.2584
  627SOL    HW2 2014   2.804   2.981   0.995 -1.3229 -1.1641 -1.5676
  628SOL     OW 2015   1.319   3.103   1.266  0.4265 -0.0017 -0.7020
  628SOL    HW1 2016   1.282   3.077   1.182 -0.2392 -0.0844 -0.3911
  628SOL    HW2 2017   1.249   3.087   1.330  0.4860  1.1926 -0.2999
  629SOL     OW 2018   1.479   1.987   2.301 -0.1617 -0.1468 -0.1672
  629SOL    HW1 2019   1.488   2.004   2.208 -0.2544  0.4407 -0.0694
  629SOL    HW2 2020   1.505   2.069   2.344 -1.2328 -0.0295  0.2809
  630SOL     OW 2021   1.685   2.664   2.359 -0.4486  0.2951 -0.2377
  630SOL    HW1 2022   1.689   2.610   2.280 -1.2863 -0.0773 -0.0314
  630SOL    HW2 2023   1.643   2.608   2.425 -2.9687  1.7432 -0.4927
  631SOL     OW 2024   2.583   0.668   2.579 -0.9730 -0.1193  0.4013
  631SOL    HW1 2025   2.619   0.757   2.570 -2.0981  0.1736 -2.0950
  631SOL    HW2 2026   2.621   0.635   2.661  2.1634  1.4071 -0.2726
  632SOL     OW 2027   2.742   0.026   1.370 -0.3180 -0.9791 -0.6539
  632SOL    HW1 2028   2.768   0.076   1.448 -0.5439  0.0144 -1.2017
  632SOL    HW2 2029   2.814  -0.036   1.358  0.6400  0.1030 -0.7264
  633SOL     OW 2030   1.976   2.252  -0.001  0.3115  1.0802  0.2758
  633SOL    HW1 2031   1.885   2.275  -0.020  0.1029 -0.4219 -0.6408
  633SOL    HW2 2032   1.972   2.166   0.040  1.4294 -0.1604 -2.0328
  634SOL     OW 2033   3.341   0.213   0.034 -0.1992  0.4807 -0.3611
  634SOL    HW1 2034   3.265   0.264   0.005 -0.1893  0.3789 -0.5676
  634SOL    HW2 2035   3.311   0.122   0.030 -0.2212  0.4716  0.0197
  635SOL     OW 2036   2.447   1.099   3.420 -0.3991 -0.0364  0.3174
  635SOL    HW1 2037   2.489   1.015   3.440 -2.4602 -1.0234  0.7563
  635SOL    HW2 2038   2.484   1.160   3.484  1.6824 -0.3594 -0.4710
  636SOL     OW 2039   1.056   3.635   3.262 -0.8959 -0.4168 -0.2182
  636SOL    HW1 2040   1.150   3.638   3.282 -0.7547 -0.8138 -0.7987
  636SOL    HW2 2041   1.025   3.723   3.281 -0.0511  0.2287 -1.6497
  637SOL     OW 2042   2.403   2.344   1.723  0.6773  0.2218  0.7081
  637SOL    HW1 2043   2.421   2.375   1.634 -0.5936 -0.0828  0.3147
  637SOL    HW2 2044   2.424   2.251   1.721 -1.1912 -0.2230  0.1330
  638SOL     OW 2045   0.700   3.304   1.639  1.3042 -0.4873  0.6351
  638SOL    HW1 2046   0.661   3.381   1.598  0.7775 -1.4234 -0.6979
  638SOL    HW2 2047   0.783   3.292   1.592  0.3189 -2.0514 -0.8053
  639SOL     OW 2048   2.626   3.510   1.233  0.1176 -0.2637 -0.1482
  639SOL    HW1 2049   2.699   3.487   1.177  0.1624  0.6232 -0.4623
  639SOL    HW2 2050   2.551   3.462   1.196 -0.3471  1.9309 -2.3408
  640SOL     OW 2051   2.599   2.891   0.273 -0.1302  0.1906  0.0363
  640SOL    HW1 2052   2.518   2.884   0.223 -1.0195 -0.4114  1.4903
  640SOL    HW2 2053   2.637   2.975   0.246 -1.1721  0.4242 -0.7600
  641SOL     OW 2054   0.485   3.229   3.188 -0.1902 -0.2096 -0.2506
  641SOL    HW1 2055   0.503   3.143   3.150  0.4458  0.1367 -0.7644
  641SOL    HW2 2056   0.508   3.219   3.281 -0.9597 -0.8295 -0.1144
  642SOL     OW 2057   2.858   3.229   1.080 -0.0456 -0.1119  0.5999
  642SOL    HW1 2058   2.870   3.153   1.023  1.6150  0.7849 -0.3511
  642SOL    HW2 2059   2.835   3.300   1.020  1.0194  0.7002  1.1158
  643SOL     OW 2060   0.437   3.216   1.243 -0.5720  0.4810  0.2828
  643SOL    HW1 2061   0.513   3.159   1.257  0.5751  2.0565  0.8206
  643SOL    HW2 2062   0.382   3.202   1.320 -0.1055  0.3729  0.6024
  644SOL     OW 2063   2.462   1.939   0.981  0.6392 -0.1100 -0.0248
  644SOL    HW1 2064   2.532   2.003   0.973  2.4655 -1.5782  2.4698
  644SOL    HW2 2065   2.412   1.947   0.900  3.2197  1.5658 -1.6027
  645SOL     OW 2066   0.648   0.528   3.201 -0.1897 -0.5524 -0.5436
  645SOL    HW1 2067   0.715   0.577   3.154  3.0369 -1.5616  2.6089
  645SOL    HW2 2068   0.587   0.595   3.233  0.6010  0.6706 -1.5114
  646SOL     OW 2069   0.589   0.526   1.015  0.5314  0.4175  0.0444
  646SOL    HW1 2070   0.565   0.500   0.926 -1.1369 -3.8166  1.4497
  646SOL    HW2 2071   0.540   0.606   1.032  0.5946  1.1074 -2.6525
  647SOL     OW 2072   2.443   2.348   3.345 -0.9483  0.3800  0.0461
  647SOL    HW1 2073   2.500   2.418   3.377 -3.0076  1.0627  2.6015
  647SOL    HW2 2074   2.495   2.302   3.279  1.9976  1.7511  1.2614
  648SOL     OW 2075   2.378   1.014   3.704 -0.0272 -0.0123  0.2311
  648SOL    HW1 2076   2.312   0.994   3.637 -0.1748 -0.8195  0.5998
  648SOL    HW2 2077   2.355   1.102   3.734 -0.6795 -0.1065  0.0414
  649SOL     OW 2078   2.305   1.903   0.123 -0.2459 -0.5152  0.0417
  649SOL    HW1 2079   2.377   1.965   0.135 -1.9320  1.5867 -0.0691
  649SOL    HW2 2080   2.229   1.947   0.162 -1.1546 -3.4623  1.9580
  650SOL     OW 2081   3.252   0.738   1.411  0.2613  0.0572 -0.0351
  650SOL    HW1 2082   3.210   0.662   1.451  0.8469 -1.1805 -1.6614
  650SOL    HW2 2083   3.331   0.703   1.370 -0.5549  1.0927 -2.6768
  651SOL     OW 2084   0.022   2.140   3.419  0.4797 -0.4734 -0.2066
  651SOL    HW1 2085   0.058   2.205   3.480  0.9386 -0.8178 -0.1009
  651SOL    HW2 2086   0.094   2.121   3.359  0.1291 -0.3770 -0.6618
  652SOL     OW 2087   1.025   1.657   0.097  0.1727  0.1615  0.1612
  652SOL    HW1 2088   0.985   1.588   0.045 -2.0006  0.9146  0.7010
  652SOL    HW2 2089   1.031   1.620   0.186 -0.0568  0.3098  0.2400
  653SOL     OW 2090   1.849   3.635   3.468 -0.4218  0.6418  0.5225
  653SOL    HW1 2091   1.885   3.681   3.544 -1.8012 -0.9080  2.2004
  653SOL    HW2 2092   1.926   3.609   3.417  0.4742  2.8457  0.6309
  654SOL     OW 2093   1.775   1.674   0.449  0.3936  0.1271 -0.1343
  654SOL    HW1 2094   1.831   1.747   0.477  0.4466 -0.1469  0.4844
  654SOL    HW2 2095   1.727   1.649   0.528  0.1042 -0.2713 -0.4338
  655SOL     OW 2096   3.090   1.648   1.065 -0.6078 -0.2452  0.3661
  655SOL    HW1 2097   3.164   1.655   1.126  0.8976 -0.6359 -1.3386
  655SOL    HW2 2098   3.099   1.723   1.007 -1.7930 -0.0942  0.3509
  656SOL     OW 2099   1.969   0.382   0.314  0.9238  0.3595  0.1615
  656SOL    HW1 2100   1.967   0.467   0.269  0.3543  1.1940  1.6918
  656SOL    HW2 2101   2.060   0.372   0.342  1.0152  0.3982 -0.1135
  657SOL     OW 2102   2.147   0.952   3.275 -0.0654 -0.2810 -0.3016
  657SOL    HW1 2103   2.151   1.045   3.255 -0.3032 -0.1325  0.3179
  657SOL    HW2 2104   2.054   0.930   3.273 -0.0055 -0.5279 -0.5377
  658SOL     OW 2105   2.204   1.201   1.182 -0.0696 -0.0505 -0.7300
  658SOL    HW1 2106   2.269   1.183   1.250 -1.0096  0.5949  0.3808
  658SOL    HW2 2107   2.128   1.147   1.206 -0.2987 -0.0622 -1.4517
  659SOL     OW 2108   1.078   0.863   1.732  0.2893 -0.0798  0.2083
  659SOL    HW1 2109   1.152   0.884   1.675  0.2875 -0.0183  0.2282
  659SOL    HW2 2110   1.054   0.773   1.709 -0.4104  0.3089 -0.6692
  660SOL     OW 2111   0.339   3.328   0.813  0.1202  0.2188 -0.4333
  660SOL    HW1 2112   0.389   3.364   0.740  0.0543  0.2451 -0.4662
  660SOL    HW2 2113   0.335   3.400   0.876  2.0572 -0.4849  0.5711
  661SOL     OW 2114   2.708   1.090   0.187 -0.9382  0.0325  0.0987
  661SOL    HW1 2115   2.773   1.023   0.206 -0.9307 -0.8784 -2.6559
  661SOL    HW2 2116   2.629   1.062   0.234  0.4717  1.1053  3.4020
  662SOL     OW 2117   1.368   0.107   2.356  0.7696  0.7150  1.2242
  662SOL    HW1 2118   1.351   0.104   2.450  0.9301 -1.0283  1.2379
  662SOL    HW2 2119   1.291   0.064   2.317  0.6978  1.4303  0.5547
  663SOL     OW 2120   0.888   3.198   0.383 -0.4912 -0.2596 -0.5283
  663SOL    HW1 2121   0.822   3.267   0.399 -1.8316 -1.2694 -1.4578
  663SOL    HW2 2122   0.874   3.135   0.454  0.5169  0.2467  0.1365
  664SOL     OW 2123   1.764   2.723   0.134 -0.1139  0.0879 -0.7142
  664SOL    HW1 2124   1.690   2.663   0.126  0.5931 -0.8598 -0.3285
  664SOL    HW2 2125   1.778   2.732   0.228  2.9096 -3.1944 -0.6527
  665SOL     OW 2126   2.072   2.607   2.853 -0.1859 -0.0204  0.0560
  665SOL    HW1 2127   2.039   2.642   2.936 -1.2476 -1.0343  0.1041
  665SOL    HW2 2128   2.054   2.513   2.859  0.1089 -0.1660 -1.1496
  666SOL     OW 2129   3.548   3.382   2.437 -0.5101  0.2005  0.3682
  666SOL    HW1 2130   3.547   3.476   2.419  1.8830 -0.0398 -1.4801
  666SOL    HW2 2131   3.496   3.343   2.367  0.9119 -0.0162 -0.6134
  667SOL     OW 2132   3.295   2.632   0.509 -0.2159 -0.7676  0.3262
  667SOL    HW1 2133   3.299   2.537   0.495  0.3124 -1.0857  2.3100
  667SOL    HW2 2134   3.278   2.641   0.603 -1.0307  1.1160  0.0283
  668SOL     OW 2135   2.083   2.967   2.259  0.3264  0.0714 -0.0792
  668SOL    HW1 2136   2.046   2.992   2.343 -0.0946 -1.1262  0.1114
  668SOL    HW2 2137   2.047   3.031   2.197 -0.7344 -0.0645  0.3726
  669SOL     OW 2138   2.768   1.696   2.975 -0.0907  0.1549  0.4253
  669SOL    HW1 2139   2.724   1.699   3.059 -1.7479  1.5649 -0.4317
  669SOL    HW2 2140   2.724   1.625   2.927 -0.4983  0.6454  0.0643
  670SOL     OW 2141   1.105   3.690   1.668  0.0401 -0.2820 -0.3877
  670SOL    HW1 2142   1.031   3.637   1.641 -1.6632  2.0725 -0.6668
  670SOL    HW2 2143   1.121   3.748   1.593  0.6382  0.7923  0.5472
  671SOL     OW 2144   3.436   2.313   3.640 -0.1774 -0.4660  0.3546
  671SOL    HW1 2145   3.487   2.320   3.721  1.2478  0.7215 -0.6030
  671SOL    HW2 2146   3.356   2.268   3.666  1.0522 -1.8016  2.0619
  672SOL     OW 2147   3.414   1.376   2.284 -0.5281 -0.7548 -0.0299
  672SOL    HW1 2148   3.499   1.409   2.255 -1.0644 -0.5893 -1.4926
  672SOL    HW2 2149   3.358   1.453   2.284 -0.5022 -0.7080  1.7211
  673SOL     OW 2150   3.232   2.862   2.432 -0.1719 -0.8437  0.1907
  673SOL    HW1 2151   3.307   2.921   2.421 -1.2868  0.8025  0.9192
  673SOL    HW2 2152   3.174   2.883   2.359 -1.5569  0.6211  1.6025
  674SOL     OW 2153   0.099   3.416   2.377 -0.4752 -0.2117  0.5833
  674SOL    HW1 2154   0.082   3.498   2.331 -0.4263 -1.5266 -1.9269
  674SOL    HW2 2155   0.016   3.394   2.418 -0.4900  1.0472  1.2838
  675SOL     OW 2156   0.617   2.489   3.164 -0.6778 -0.5165  0.3516
  675SOL    HW1 2157   0.592   2.503   3.073  0.3328  1.0227  0.2831
  675SOL    HW2 2158   0.587   2.400   3.183 -1.3003 -0.7082 -1.3385
  676SOL     OW 2159   3.537   1.397   0.162 -0.0598 -0.4273  0.0621
  676SOL    HW1 2160   3.551   1.464   0.229 -0.3580 -0.3444  0.0392
  676SOL    HW2 2161   3.607   1.412   0.098 -0.0293 -0.2415  0.1381
  677SOL     OW 2162   2.069   1.534   0.429  0.1372  0.4683 -0.4104
  677SOL    HW1 2163   2.094   1.580   0.349  1.8623 -0.4970 -0.4631
  677SOL    HW2 2164   2.009   1.594   0.473  0.3088  1.6443 -1.7064
  678SOL     OW 2165   3.416   1.769   3.054  0.2417  0.7187  0.4410
  678SOL    HW1 2166   3.507   1.780   3.080  0.2668 -1.0452  1.2142
  678SOL    HW2 2167   3.420   1.716   2.974 -0.1438 -2.2190  2.2333
  679SOL     OW 2168   0.131   2.879   2.347 -0.0999 -0.3168  0.2098
  679SOL    HW1 2169   0.128   2.784   2.360  1.5435 -0.5510 -0.8121
  679SOL    HW2 2170   0.223   2.901   2.358 -0.1219  0.8331 -1.6023
  680SOL     OW 2171   3.419   2.490   2.244 -0.2544  0.6295 -0.2149
  680SOL    HW1 2172   3.472   2.469   2.321 -0.8308 -0.5054 -0.1054
  680SOL    HW2 2173   3.482   2.500   2.173  0.1796  0.3134  0.1222
  681SOL     OW 2174   2.536   1.796   2.415 -0.6349 -0.3007  0.4362
  681SOL    HW1 2175   2.472   1.759   2.475 -0.8062  2.9626  2.5446
  681SOL    HW2 2176   2.616   1.746   2.431 -1.6085 -1.8281  0.6967
  682SOL     OW 2177   2.745   3.523   1.620 -0.1928  0.2620 -0.1315
  682SOL    HW1 2178   2.831   3.482   1.612 -0.4001 -0.3182  0.5036
  682SOL    HW2 2179   2.683   3.455   1.593 -0.4692  0.5870 -0.3247
  683SOL     OW 2180   3.209   2.624   1.084 -0.7993  0.4865  0.1866
  683SOL    HW1 2181   3.181   2.666   1.166 -1.4125 -0.3361  0.4077
  683SOL    HW2 2182   3.304   2.625   1.088 -0.7762  2.1415  0.0365
  684SOL     OW 2183   3.559   0.072   0.698  0.2174  0.0950  0.7389
  684SOL    HW1 2184   3.554  -0.000   0.635  0.9859  0.3704  0.3506
  684SOL    HW2 2185   3.478   0.122   0.683  1.4469  1.5700 -1.8178
  685SOL     OW 2186   0.736   1.674   0.633 -0.2035 -0.0588 -0.2411
  685SOL    HW1 2187   0.674   1.609   0.665  1.9823 -2.2199 -0.1106
  685SOL    HW2 2188   0.820   1.649   0.673  1.6361  0.1440 -3.5984
  686SOL     OW 2189   1.315   1.374   1.340 -0.2678  0.4196  0.3512
  686SOL    HW1 2190   1.289   1.466   1.331 -1.7530  0.2703  2.4093
  686SOL    HW2 2191   1.342   1.366   1.432 -2.7733 -1.7400  1.0033
  687SOL     OW 2192   0.497   0.079   2.173  0.2370  0.5482  0.0965
  687SOL    HW1 2193   0.586   0.047   2.162  1.6753  3.3414  2.4120
  687SOL    HW2 2194   0.456   0.016   2.232  0.9910 -0.2501 -0.2131
  688SOL     OW 2195   0.539   2.916   2.924  0.0016  0.4189 -0.5677
  688SOL    HW1 2196   0.451   2.953   2.925  0.2962  1.2302  1.4763
  688SOL    HW2 2197   0.561   2.905   3.017  2.4093  1.1564 -0.9714
  689SOL     OW 2198   2.647   0.348   0.811  0.3251 -0.0854 -0.3148
  689SOL    HW1 2199   2.734   0.389   0.812  0.6909 -0.7273 -2.4258
  689SOL    HW2 2200   2.664   0.256   0.791 -0.8538 -0.1239 -1.2130
  690SOL     OW 2201   0.363   0.900   2.083  0.3268  0.1145 -0.1853
  690SOL    HW1 2202   0.292   0.836   2.096 -1.6372  1.6272 -2.6479
  690SOL    HW2 2203   0.335   0.977   2.133  1.8781 -0.2968  1.4162
  691SOL     OW 2204   2.284   1.077   1.668 -0.2454 -0.2015  0.2807
  691SOL    HW1 2205   2.206   1.132   1.664 -0.1075  0.0012  0.3999
  691SOL    HW2 2206   2.260   1.006   1.728 -1.1787 -1.4637 -1.4730
  692SOL     OW 2207   1.029   1.425   1.499 -0.8478 -0.2645  0.3228
  692SOL    HW1 2208   1.063   1.465   1.579 -1.8233  0.1265  0.5648
  692SOL    HW2 2209   1.006   1.336   1.525 -0.6282 -0.3168  0.3339
  693SOL     OW 2210   1.094   1.059   0.934 -0.8902 -0.9197 -0.0044
  693SOL    HW1 2211   1.093   1.129   0.999 -0.8411 -0.9702  0.0507
  693SOL    HW2 2212   1.186   1.034   0.926 -1.0010 -1.5792  0.6263
  694SOL     OW 2213   1.146   2.166  -0.000 -0.5307  0.4409  0.2484
  694SOL    HW1 2214   1.193   2.237   0.045 -0.1410  0.5829 -0.3696
  694SOL    HW2 2215   1.054   2.178   0.025 -0.0846 -0.8409  2.8383
  695SOL     OW 2216   1.875   2.195   1.970 -0.1685 -0.2185 -0.0463
  695SOL    HW1 2217   1.969   2.214   1.973 -0.3346  0.5134  1.0124
  695SOL    HW2 2218   1.854   2.191   1.876  0.6101  1.1888 -0.2946
  696SOL     OW 2219   1.553   3.353   0.657  0.2683 -0.2946 -0.2589
  696SOL    HW1 2220   1.510   3.428   0.616 -1.2068 -1.7040 -1.4431
  696SOL    HW2 2221   1.503   3.336   0.736  0.8055  0.1477  0.1841
  697SOL     OW 2222   1.158   2.059   2.524 -0.0323  0.3551 -1.0452
  697SOL    HW1 2223   1.128   2.149   2.511 -2.8643 -0.4918 -1.2565
  697SOL    HW2 2224   1.095   2.006   2.474 -0.4513 -1.9178  1.6099
  698SOL     OW 2225   1.004   3.324   0.689  1.1246 -0.6005 -0.2564
  698SOL    HW1 2226   1.013   3.343   0.596 -0.3933  0.4084 -0.2339
  698SOL    HW2 2227   0.991   3.410   0.730  2.4430 -0.9555  1.0011
  699SOL     OW 2228   2.169   2.827   3.346  0.5126  0.1039 -0.0216
  699SOL    HW1 2229   2.202   2.910   3.310 -0.2463 -0.6099 -2.5245
  699SOL    HW2 2230   2.076   2.843   3.360  0.7134  0.2265  1.3282
  700SOL     OW 2231   3.604   1.442   1.932 -0.6180 -0.0485  0.7214
  700SOL    HW1 2232   3.680   1.407   1.887 -1.7718 -0.4584 -1.0412
  700SOL    HW2 2233   3.530   1.394   1.894 -1.8230  0.9802  1.6866
  701SOL     OW 2234   0.403   0.248   0.199  0.9204 -0.0148  0.2229
  701SOL    HW1 2235   0.346   0.240   0.275  0.5963 -0.4413 -0.0618
  701SOL    HW2 2236   0.488   0.214   0.229  0.8992  0.1803  0.5050
  702SOL     OW 2237   1.946   1.842   1.955 -0.2652 -0.2680 -0.3997
  702SOL    HW1 2238   1.853   1.864   1.958 -0.1223  0.3660  2.8749
  702SOL    HW2 2239   1.947   1.746   1.946 -1.3830 -0.5649  1.8682
  703SOL     OW 2240   3.676   3.143   2.108  0.5520  0.0269  0.1568
  703SOL    HW1 2241   3.701   3.145   2.015 -0.1040  1.5311 -0.0149
  703SOL    HW2 2242   3.622   3.221   2.120  1.0482  0.1393  1.9385
  704SOL     OW 2243   0.060   3.482   1.207  0.1714  0.2074 -0.1977
  704SOL    HW1 2244   0.028   3.413   1.149 -0.2078 -1.8690  2.3046
  704SOL    HW2 2245   0.134   3.442   1.253 -0.7031  1.0380  2.0802
  705SOL     OW 2246   2.282   1.198   2.086 -0.0601 -0.2464  0.4698
  705SOL    HW1 2247   2.253   1.220   2.175  0.2437 -0.6612  0.6750
  705SOL    HW2 2248   2.310   1.282   2.049 -2.4501  0.3722 -0.1110
  706SOL     OW 2249   0.651   2.059   1.478 -0.1053 -0.0769  0.9616
  706SOL    HW1 2250   0.679   2.148   1.498 -0.8512 -0.0304  1.8791
  706SOL    HW2 2251   0.562   2.054   1.512 -0.3014 -0.9767  0.3378
  707SOL     OW 2252   1.828   0.145   0.475  0.1923  0.0169 -0.0461
  707SOL    HW1 2253   1.863   0.219   0.424  2.1695 -0.8507 -0.0517
  707SOL    HW2 2254   1.768   0.186   0.538  1.0719  1.6221 -0.1817
  708SOL     OW 2255   1.231   1.429   2.472 -0.1736  0.1320 -0.8537
  708SOL    HW1 2256   1.261   1.378   2.548  2.2824 -1.6137 -2.8034
  708SOL    HW2 2257   1.206   1.362   2.408  0.0714  1.4685 -2.3927
  709SOL     OW 2258   1.891   0.128   3.263  0.6224  0.0210 -0.3375
  709SOL    HW1 2259   1.861   0.172   3.342  1.6653 -0.1204  0.1463
  709SOL    HW2 2260   1.943   0.194   3.217 -0.4582  0.3017 -1.2291
  710SOL     OW 2261   1.545   2.922   1.273  1.0344  0.7161  0.1786
  710SOL    HW1 2262   1.542   2.875   1.356 -0.7991  0.0248 -0.2364
  710SOL    HW2 2263   1.511   3.009   1.294  1.7100  0.9436  0.3682
  711SOL     OW 2264   3.190   3.475   1.260 -0.1508  0.4172  0.5038
  711SOL    HW1 2265   3.263   3.450   1.317  0.5056 -1.4798 -1.0480
  711SOL    HW2 2266   3.232   3.502   1.178 -1.0830 -3.2905 -1.4117
  712SOL     OW 2267   1.511   1.685   1.376  0.1065  1.1125  0.7013
  712SOL    HW1 2268   1.531   1.593   1.395 -2.3134  0.8100  2.2445
  712SOL    HW2 2269   1.591   1.720   1.337  1.2093 -1.5465  0.3956
  713SOL     OW 2270   0.496   0.256   1.151 -0.4871 -0.2312 -0.4450
  713SOL    HW1 2271   0.474   0.208   1.071 -1.4047 -0.8635  0.1690
  713SOL    HW2 2272   0.511   0.346   1.123 -2.7287 -0.0086 -1.0843
  714SOL     OW 2273   0.740   1.823   1.621  0.2743 -0.3533  0.6648
  714SOL    HW1 2274   0.740   1.764   1.545 -1.9843 -1.3329  1.3519
  714SOL    HW2 2275   0.756   1.910   1.584 -1.1651 -0.7489 -1.0001
  715SOL     OW 2276   0.746   2.513   2.254  0.7878  0.6051  0.3405
  715SOL    HW1 2277   0.835   2.479   2.254  1.2663  1.7961  0.9787
  715SOL    HW2 2278   0.735   2.551   2.167  0.8028  0.2366  0.1745
  716SOL     OW 2279   3.304   2.356   2.541  0.0038  0.7971  0.0857
  716SOL    HW1 2280   3.292   2.405   2.622  2.1158 -2.2653  2.5056
  716SOL    HW2 2281   3.393   2.377   2.514 -0.1098  0.5152 -0.5206
  717SOL     OW 2282   1.677   0.510   3.106  0.0937  0.7409 -0.4449
  717SOL    HW1 2283   1.676   0.458   3.025  1.6597  1.3866 -0.9405
  717SOL    HW2 2284   1.763   0.552   3.105 -0.6714  2.4244  0.5126
  718SOL     OW 2285   0.392   1.319   2.229  0.3215  1.2082  0.0043
  718SOL    HW1 2286   0.390   1.285   2.140 -1.0062  0.1131  0.4176
  718SOL    HW2 2287   0.308   1.293   2.267  0.5495  2.3117  1.3389
  719SOL     OW 2288   1.065   1.728   2.141  0.7185  0.1402 -0.5779
  719SOL    HW1 2289   1.114   1.746   2.060  0.9224 -3.0906 -1.3110
  719SOL    HW2 2290   1.130   1.694   2.202  0.2153  0.6585  0.2777
  720SOL     OW 2291   3.494   1.773   1.444  0.0767  0.1157 -0.1967
  720SOL    HW1 2292   3.543   1.692   1.433 -0.2766  0.0456 -1.4706
  720SOL    HW2 2293   3.558   1.837   1.474  0.6895 -0.2551 -0.7053
  721SOL     OW 2294   0.318   0.280   2.143 -0.0759 -0.2013  0.2329
  721SOL    HW1 2295   0.388   0.215   2.144 -1.3418 -1.6904 -1.4994
  721SOL    HW2 2296   0.284   0.281   2.232  1.3546 -0.3273  0.7966
  722SOL     OW 2297   3.267   0.543   3.645 -0.1041 -1.0060 -0.7017
  722SOL    HW1 2298   3.353   0.549   3.605  1.1097 -0.3192  1.7943
  722SOL    HW2 2299   3.225   0.468   3.602  0.1590  0.8570 -4.6332
  723SOL     OW 2300   0.576   0.296   3.582 -0.3849 -0.1519  0.3380
  723SOL    HW1 2301   0.579   0.215   3.633  2.7148  0.2883  1.0869
  723SOL    HW2 2302   0.521   0.355   3.634 -0.1572 -0.8301  1.3890
  724SOL     OW 2303   1.633   3.105   3.317  0.2203  0.0926 -0.6939
  724SOL    HW1 2304   1.603   3.073   3.402  2.1201  0.2217  0.0641
  724SOL    HW2 2305   1.556   3.150   3.281 -0.7219 -0.2250  0.8032
  725SOL     OW 2306   2.985   1.596   3.465 -0.0119 -0.1599 -0.1818
  725SOL    HW1 2307   3.057   1.644   3.507 -0.0651 -0.6722  0.5123
  725SOL    HW2 2308   3.020   1.508   3.450 -0.4459 -0.3718  0.0304
  726SOL     OW 2309   1.767   0.095   2.954  0.3457  0.7869  0.5976
  726SOL    HW1 2310   1.760   0.019   3.013  0.7280 -2.0090 -2.6242
  726SOL    HW2 2311   1.861   0.108   2.942  0.2730  1.1547  0.4068
  727SOL     OW 2312   1.208   3.430   2.308 -0.6776 -0.4216  0.3330
  727SOL    HW1 2313   1.155   3.398   2.381 -1.0830  0.4206  0.4213
  727SOL    HW2 2314   1.187   3.523   2.303  0.2865 -0.2178 -0.0714
  728SOL     OW 2315   1.469   1.549   0.143 -0.4454  0.0266 -0.2933
  728SOL    HW1 2316   1.444   1.637   0.117 -0.6444 -0.3087 -1.2862
  728SOL    HW2 2317   1.535   1.561   0.211 -0.9497  0.9291  0.0496
  729SOL     OW 2318   3.171   2.310   2.174 -0.8470  0.5963  0.4459
  729SOL    HW1 2319   3.165   2.382   2.237  0.0021  2.1350 -1.1482
  729SOL    HW2 2320   3.191   2.352   2.091 -0.1616 -1.5071 -0.5331
  730SOL     OW 2321   2.747   3.442   1.974 -0.3499  0.5491 -0.1803
  730SOL    HW1 2322   2.700   3.526   1.968 -0.5803  0.3315 -2.0154
  730SOL    HW2 2323   2.733   3.401   1.888  1.3820 -0.5002  0.0088
  731SOL     OW 2324   2.187   2.529   1.491  0.3704 -0.2618 -0.3565
  731SOL    HW1 2325   2.159   2.553   1.579  0.1165 -3.0272  0.3759
  731SOL    HW2 2326   2.180   2.611   1.441 -0.9998  1.0149  1.7841
  732SOL     OW 2327   1.094   1.708   2.590 -0.0066  0.6770 -0.1784
  732SOL    HW1 2328   1.057   1.661   2.515 -1.3324  0.0566  0.8345
  732SOL    HW2 2329   1.132   1.787   2.552 -2.5436  1.4683 -1.2939
  733SOL     OW 2330   2.407   1.651   0.927 -0.6458 -0.2395  0.1261
  733SOL    HW1 2331   2.426   1.593   1.001  0.2497 -0.9155 -0.6037
  733SOL    HW2 2332   2.433   1.738   0.957  0.1156 -0.5710  0.4756
  734SOL     OW 2333   3.154   0.614   1.147 -0.6288  0.2710 -0.1214
  734SOL    HW1 2334   3.200   0.588   1.227 -0.5348 -0.5060 -0.4180
  734SOL    HW2 2335   3.222   0.653   1.091 -0.0340 -1.9327 -1.0359
  735SOL     OW 2336   0.573   0.652   3.576 -0.0760  0.7966 -0.0351
  735SOL    HW1 2337   0.536   0.704   3.647  0.2998  0.6235  0.2901
  735SOL    HW2 2338   0.551   0.562   3.598 -0.0949  0.7552 -0.2198
  736SOL     OW 2339   2.468   3.027   2.483  0.0742 -0.3925 -0.4588
  736SOL    HW1 2340   2.499   3.110   2.522  1.6209 -1.3140  0.3983
  736SOL    HW2 2341   2.419   3.054   2.406  0.6805  1.3235 -0.3028
  737SOL     OW 2342   3.512   1.984   2.586 -0.2055 -0.3008 -0.1217
  737SOL    HW1 2343   3.537   1.994   2.678  0.6227 -2.1537 -0.1183
  737SOL    HW2 2344   3.594   1.972   2.540 -0.5513  1.2975 -1.2622
  738SOL     OW 2345   3.605   3.286   3.002  0.2014  0.3261  0.4430
  738SOL    HW1 2346   3.554   3.273   2.922  0.5802  0.9109  0.0993
  738SOL    HW2 2347   3.597   3.203   3.049  0.4216 -0.2134 -0.4494
  739SOL     OW 2348   1.730   1.476   3.681 -0.2467 -0.0704 -0.4333
  739SOL    HW1 2349   1.682   1.393   3.690 -2.2239  0.9748 -0.7220
  739SOL    HW2 2350   1.743   1.506   3.771  1.0301 -0.9582 -0.2979
  740SOL     OW 2351   2.107   1.618   1.660  0.0772 -0.9041  0.0832
  740SOL    HW1 2352   2.176   1.684   1.663 -0.8123  0.0235  1.1228
  740SOL    HW2 2353   2.049   1.646   1.590 -1.2071  0.4199  1.5978
  741SOL     OW 2354   2.372   3.687   3.472  0.1562 -0.2520  0.1071
  741SOL    HW1 2355   2.313   3.755   3.503  0.6560 -0.1117  0.7653
  741SOL    HW2 2356   2.325   3.645   3.400 -0.4444  0.3247  0.1594
  742SOL     OW 2357   1.017   3.602   2.515 -0.1940 -0.1698  0.1594
  742SOL    HW1 2358   1.066   3.684   2.516 -1.0536  0.3789 -0.5766
  742SOL    HW2 2359   1.005   3.580   2.607  3.1539 -1.4297  0.4173
  743SOL     OW 2360   3.691   0.966   0.947 -0.7057  0.5384  0.8403
  743SOL    HW1 2361   3.664   1.057   0.933  0.8771  1.1329  1.4399
  743SOL    HW2 2362   3.735   0.967   1.032  1.3678 -0.2875 -0.1437
  744SOL     OW 2363   2.391   2.465   2.373  0.4714  0.1643  0.5052
  744SOL    HW1 2364   2.402   2.532   2.441  2.6750 -0.7403  1.1283
  744SOL    HW2 2365   2.317   2.413   2.403 -0.7504  1.7664  0.4314
  745SOL     OW 2366   2.530   1.509   1.133  0.2008 -0.0037  0.2526
  745SOL    HW1 2367   2.613   1.555   1.147 -0.5291  0.9454  1.7707
  745SOL    HW2 2368   2.535   1.434   1.191  0.8914 -1.2356 -1.3336
  746SOL     OW 2369   2.165   3.599   1.077 -0.5167  0.2279 -0.3366
  746SOL    HW1 2370   2.077   3.587   1.040 -0.0197  1.5117 -2.0297
  746SOL    HW2 2371   2.149   3.620   1.169 -1.8319 -2.1476  0.0445
  747SOL     OW 2372   2.441   2.039   1.893  0.1968 -0.3895  0.6496
  747SOL    HW1 2373   2.389   1.993   1.959  2.3457 -0.8896  2.0711
  747SOL    HW2 2374   2.486   2.108   1.941 -1.3006  1.9429 -1.0792
  748SOL     OW 2375   3.327   0.731   0.996  0.1550  0.2806 -0.1069
  748SOL    HW1 2376   3.313   0.806   0.939  0.1843  1.3321  1.2082
  748SOL    HW2 2377   3.411   0.694   0.967 -0.0348  0.5296 -0.9954
  749SOL     OW 2378   2.203   0.217   1.978 -0.0367 -0.0230  0.6816
  749SOL    HW1 2379   2.129   0.273   1.954  0.0288  0.3636  1.3409
  749SOL    HW2 2380   2.280   0.262   1.942 -0.0467 -0.0164  0.6688
  750SOL     OW 2381   1.892   1.681   1.037 -0.4946  0.2629 -0.0070
  750SOL    HW1 2382   1.855   1.630   1.109  0.9025 -0.0238  0.5375
  750SOL    HW2 2383   1.980   1.703   1.066  0.5364 -0.8280 -2.0703
  751SOL     OW 2384   1.562   0.439   0.060 -0.0033  0.3127 -0.4712
  751SOL    HW1 2385   1.587   0.506  -0.004  0.7235 -0.7597 -1.3669
  751SOL    HW2 2386   1.482   0.401   0.024 -0.3932  0.6804  0.0135
  752SOL     OW 2387   1.681   3.336   1.846 -0.2559  0.3125 -0.3685
  752SOL    HW1 2388   1.737   3.263   1.871 -2.3719 -2.3098 -2.5370
  752SOL    HW2 2389   1.629   3.355   1.924  0.7808 -0.0836  0.4272
  753SOL     OW 2390   3.551   0.884   3.540 -0.2161  0.0568 -0.0112
  753SOL    HW1 2391   3.588   0.927   3.462  0.5009 -0.4723  0.0314
  753SOL    HW2 2392   3.612   0.905   3.610  1.0197 -2.2523 -0.2853
  754SOL     OW 2393   3.493   0.790   3.187  0.2447  0.4079 -0.0694
  754SOL    HW1 2394   3.406   0.830   3.191 -0.4658 -1.1415  2.1472
  754SOL    HW2 2395   3.501   0.743   3.270  3.1483  0.3284 -0.2872
  755SOL     OW 2396   0.114   2.163   2.024  0.0239  0.3877 -0.0643
  755SOL    HW1 2397   0.113   2.213   1.942 -0.5147 -0.5130 -0.6159
  755SOL    HW2 2398   0.180   2.095   2.010 -0.6598 -0.2780 -0.0614
  756SOL     OW 2399   1.992   3.118   3.037  0.1288 -0.5568  0.3758
  756SOL    HW1 2400   1.911   3.153   2.999 -0.2302 -3.7301 -2.2278
  756SOL    HW2 2401   1.962   3.060   3.107  0.4267  0.3922  1.3333
  757SOL     OW 2402   0.162   2.644   3.700  0.1651 -0.2331  0.1310
  757SOL    HW1 2403   0.240   2.676   3.745 -0.9457  1.5771  0.8667
  757SOL    HW2 2404   0.113   2.723   3.677 -1.7692 -1.3277  0.2878
  758SOL     OW 2405   2.427   0.240   1.678 -0.2389  0.0985 -0.7164
  758SOL    HW1 2406   2.462   0.171   1.622  0.1182 -1.2128  1.0048
  758SOL    HW2 2407   2.332   0.230   1.672 -0.2343 -2.0761  1.1240
  759SOL     OW 2408   2.118   2.434   2.155 -0.0485  0.5148  0.5239
  759SOL    HW1 2409   2.166   2.351   2.151  0.9205  0.6425  4.5062
  759SOL    HW2 2410   2.185   2.501   2.147 -0.2217  0.7947  1.3040
  760SOL     OW 2411   0.960   2.969   3.471  0.8215 -0.7388 -0.0656
  760SOL    HW1 2412   0.914   3.047   3.503  1.2379 -0.0651 -1.0585
  760SOL    HW2 2413   0.890   2.913   3.436  0.6361 -0.2159 -0.5492
  761SOL     OW 2414   3.428   2.160   1.006  0.5015 -0.5775  0.3162
  761SOL    HW1 2415   3.471   2.117   1.080  0.0886 -1.6027 -0.0204
  761SOL    HW2 2416   3.500   2.186   0.948  0.8460  0.5014  1.2077
  762SOL     OW 2417   1.095   3.537   1.206 -0.6181  0.0231 -0.1487
  762SOL    HW1 2418   1.156   3.512   1.276 -1.4543 -0.9311  0.2639
  762SOL    HW2 2419   1.138   3.611   1.162  0.1961  0.2545  0.9904
  763SOL     OW 2420   1.468   2.624   3.591 -0.3618  0.0101  0.4160
  763SOL    HW1 2421   1.423   2.705   3.615 -0.8289 -0.5483  1.4889
  763SOL    HW2 2422   1.398   2.564   3.567 -0.2048 -0.7531  1.7517
  764SOL     OW 2423   1.140   0.167   1.493 -0.6083 -0.2785 -0.0669
  764SOL    HW1 2424   1.216   0.199   1.444 -1.2233  1.2121 -0.1090
  764SOL    HW2 2425   1.115   0.240   1.549 -0.8374 -1.4400  1.3947
  765SOL     OW 2426   2.302   1.785   1.739 -0.2426  0.3278 -0.1690
  765SOL    HW1 2427   2.387   1.760   1.776 -0.0610  2.5251  1.1103
  765SOL    HW2 2428   2.258   1.832   1.810 -1.0788  2.2454 -1.8418
  766SOL     OW 2429   1.651   3.529   2.074  0.5143 -0.2818  0.2703
  766SOL    HW1 2430   1.563   3.558   2.096  0.0966 -0.9806 -0.4320
  766SOL    HW2 2431   1.688   3.601   2.024 -0.1444 -0.5208 -0.5781
  767SOL     OW 2432   0.497   0.812   1.091 -0.3790  0.4744 -0.1883
  767SOL    HW1 2433   0.421   0.808   1.149  1.0504 -0.0344  1.7547
  767SOL    HW2 2434   0.563   0.857   1.143  1.3413 -1.0498 -0.9753
  768SOL     OW 2435   1.710   0.568   3.598  0.1098 -0.2247  0.6753
  768SOL    HW1 2436   1.736   0.658   3.616  4.1664 -1.3374  1.2912
  768SOL    HW2 2437   1.738   0.551   3.508  3.8156 -2.0217  1.9562
  769SOL     OW 2438   0.198   1.112   2.176  0.0909 -0.1216  0.1329
  769SOL    HW1 2439   0.202   1.087   2.084  0.3735  1.7852 -0.4104
  769SOL    HW2 2440   0.108   1.141   2.190  0.4646  1.1753 -0.0143
  770SOL     OW 2441   0.733   2.631   2.762 -0.1863  0.0121 -0.3687
  770SOL    HW1 2442   0.829   2.634   2.754 -0.0967  1.5400  0.7088
  770SOL    HW2 2443   0.706   2.723   2.754 -1.3252 -0.1023  1.5628
  771SOL     OW 2444   2.792   0.527   3.312  0.4211  0.1813 -0.7513
  771SOL    HW1 2445   2.699   0.522   3.335  0.6704  2.9287  1.3411
  771SOL    HW2 2446   2.799   0.474   3.232 -2.3700 -2.3824  0.4636
  772SOL     OW 2447   2.597   1.046   3.132  0.4493 -0.0436  0.1181
  772SOL    HW1 2448   2.510   1.006   3.136  0.1545  0.6105  0.3820
  772SOL    HW2 2449   2.624   1.054   3.223 -0.3197  2.0968  0.2076
  773SOL     OW 2450   0.216   1.664   2.260  0.0659 -0.0488 -0.3980
  773SOL    HW1 2451   0.293   1.631   2.214 -0.2506 -0.4065 -0.6796
  773SOL    HW2 2452   0.241   1.751   2.289  0.1135  0.3849 -1.6683
  774SOL     OW 2453   3.063   1.693   1.487  0.1529 -0.2128 -0.9580
  774SOL    HW1 2454   3.014   1.618   1.522  0.3259  0.1667  0.1191
  774SOL    HW2 2455   3.063   1.757   1.558  3.5904 -0.7867 -0.2565
  775SOL     OW 2456   3.690   0.596   1.228 -0.4195 -0.3398 -0.1272
  775SOL    HW1 2457   3.735   0.548   1.298  0.2870 -1.5494 -1.3633
  775SOL    HW2 2458   3.602   0.558   1.226  0.2665 -2.0309 -1.3989
  776SOL     OW 2459   0.344   0.381   2.824 -0.0624  0.0063  0.2017
  776SOL    HW1 2460   0.296   0.456   2.858  0.7179 -0.1347  1.7181
  776SOL    HW2 2461   0.276   0.321   2.793 -0.6805  1.7452 -2.1037
  777SOL     OW 2462   1.969   0.860   2.000  0.1523  0.2611 -0.4204
  777SOL    HW1 2463   1.921   0.882   2.080 -1.2581  0.6241 -1.3290
  777SOL    HW2 2464   1.912   0.798   1.955 -0.5871  2.3512 -2.5787
  778SOL     OW 2465   3.149   1.422   1.314 -0.1372 -0.2433  0.2641
  778SOL    HW1 2466   3.130   1.514   1.298 -1.3230 -0.5662 -0.3011
  778SOL    HW2 2467   3.189   1.420   1.401 -0.3156  0.7706  0.3791
  779SOL     OW 2468   1.772   2.378   3.352  0.0750 -0.5431  0.8090
  779SOL    HW1 2469   1.827   2.305   3.379 -0.2103 -0.8397  0.5938
  779SOL    HW2 2470   1.824   2.424   3.287  0.4328 -0.2968  1.2570
  780SOL     OW 2471   3.637   0.454   2.445  0.1112 -0.4542  0.3416
  780SOL    HW1 2472   3.550   0.446   2.407  1.4700 -1.4784 -2.9470
  780SOL    HW2 2473   3.642   0.384   2.510 -1.4883 -0.4505  0.4899
  781SOL     OW 2474   2.330   1.454   1.787 -0.4025  0.0173 -1.0584
  781SOL    HW1 2475   2.282   1.476   1.707 -2.1957 -0.8572 -0.2944
  781SOL    HW2 2476   2.269   1.477   1.858  1.5028  1.6967  0.1466
  782SOL     OW 2477   2.855   2.417   3.579  0.0178  0.1228 -0.1970
  782SOL    HW1 2478   2.949   2.431   3.570 -0.2257  1.1983 -1.2064
  782SOL    HW2 2479   2.837   2.438   3.671  0.9262 -1.2010  0.3108
  783SOL     OW 2480   1.615   3.519   2.944  0.1060  0.3041  0.0317
  783SOL    HW1 2481   1.687   3.500   2.884 -0.3459 -1.1924 -0.1026
  783SOL    HW2 2482   1.657   3.537   3.027  0.6724  0.3343 -0.2569
  784SOL     OW 2483   0.745   2.797   3.378  0.1768 -0.0708  0.2739
  784SOL    HW1 2484   0.747   2.750   3.294 -0.9917  0.3345  0.0033
  784SOL    HW2 2485   0.742   2.728   3.444 -1.4844 -0.4215 -0.1192
  785SOL     OW 2486   2.969   0.084   0.981 -0.6191  0.2275  0.0652
  785SOL    HW1 2487   3.032   0.035   1.034  0.2709  0.3635 -0.8453
  785SOL    HW2 2488   2.999   0.175   0.987 -1.7477  0.5585  1.0273
  786SOL     OW 2489   0.673   3.081   0.882 -1.0065 -0.1545 -0.2364
  786SOL    HW1 2490   0.718   3.055   0.963 -1.5079 -1.1897 -0.2793
  786SOL    HW2 2491   0.604   3.016   0.871 -3.7296  2.3345  0.7925
  787SOL     OW 2492   3.393   0.619   2.082  0.0534 -0.0656 -0.5095
  787SOL    HW1 2493   3.337   0.632   2.006  0.0111 -0.4720 -0.5483
  787SOL    HW2 2494   3.373   0.693   2.139  1.9620  1.7283 -2.0049
  788SOL     OW 2495   0.555   2.424   0.100 -0.3060 -0.5672 -0.4659
  788SOL    HW1 2496   0.525   2.430   0.009 -0.2346  0.4196 -0.4361
  788SOL    HW2 2497   0.538   2.333   0.125  0.1325 -0.9911 -1.6225
  789SOL     OW 2498   2.416   2.548   0.672  0.2512  0.1363 -0.1669
  789SOL    HW1 2499   2.326   2.521   0.658 -0.7358  1.5124  2.6506
  789SOL    HW2 2500   2.457   2.543   0.586 -1.8114 -2.8059 -1.1229
  790SOL     OW 2501   2.236   2.927   2.586  0.0629 -0.4535  0.4608
  790SOL    HW1 2502   2.325   2.954   2.563 -0.2852 -1.5092 -2.6005
  790SOL    HW2 2503   2.245   2.835   2.611 -0.1614 -0.5756  0.0981
  791SOL     OW 2504   0.127   1.812   0.939  0.4625  0.1216  0.1646
  791SOL    HW1 2505   0.192   1.776   0.878  0.9817 -0.1421  0.8590
  791SOL    HW2 2506   0.171   1.811   1.024 -0.7676 -0.9189  0.8226
  792SOL     OW 2507   2.488   2.427   2.932 -0.1532 -0.3130  0.1021
  792SOL    HW1 2508   2.423   2.478   2.884 -1.2522 -0.5957  1.2627
  792SOL    HW2 2509   2.533   2.492   2.986  0.0068 -0.2470 -0.1044
  793SOL     OW 2510   3.609   2.913   1.789  0.2309 -0.0371 -0.2047
  793SOL    HW1 2511   3.648   2.921   1.875 -0.4637 -0.5745  0.1727
  793SOL    HW2 2512   3.544   2.983   1.785 -1.2334 -1.3030  0.5534
  794SOL     OW 2513   3.391   1.687   0.040  0.0848 -0.7683  0.0291
  794SOL    HW1 2514   3.408   1.764  -0.014  3.3571 -1.5971 -0.3378
  794SOL    HW2 2515   3.352   1.623  -0.020 -1.3386  0.0731  0.0115
  795SOL     OW 2516   2.905   0.414   1.710 -0.0805  0.4179  0.4436
  795SOL    HW1 2517   2.822   0.366   1.715  0.2851 -0.3959 -0.7840
  795SOL    HW2 2518   2.880   0.506   1.702 -0.8605  0.1976  0.2957
  796SOL     OW 2519   2.683   3.267   1.555 -0.2838  0.7818 -0.7259
  796SOL    HW1 2520   2.773   3.240   1.533  0.9925  2.8642  1.4559
  796SOL    HW2 2521   2.635   3.185   1.563  1.9680 -0.5441  0.1524
  797SOL     OW 2522   0.871   0.071   1.109  0.7775  0.2424  0.7466
  797SOL    HW1 2523   0.811   0.018   1.058 -0.9744  1.7684  1.1184
  797SOL    HW2 2524   0.872   0.156   1.065 -0.2638  1.3902  2.8018
  798SOL     OW 2525   1.014   3.093   3.231 -0.1659  0.0319 -0.2180
  798SOL    HW1 2526   0.997   3.046   3.313 -2.4429  0.0573 -0.6110
  798SOL    HW2 2527   1.080   3.158   3.254 -1.0075  0.2827  1.7271
  799SOL     OW 2528   0.396   1.951   3.058  0.5077  0.1283  0.4013
  799SOL    HW1 2529   0.394   2.040   3.022  0.1140  0.0091  0.1264
  799SOL    HW2 2530   0.331   1.903   3.007  0.0087 -0.0708  1.1982
  800SOL     OW 2531   0.948   3.504   3.501 -0.1569 -0.1505  0.3433
  800SOL    HW1 2532   0.882   3.443   3.468 -0.3248 -0.5953  1.4605
  800SOL    HW2 2533   0.990   3.539   3.423 -2.5712  1.1332 -0.4787
  801SOL     OW 2534   2.276   0.529   0.146 -0.1050  0.7154 -0.8479
  801SOL    HW1 2535   2.293   0.448   0.099 -1.9418 -0.2846  0.1360
  801SOL    HW2 2536   2.220   0.580   0.086  1.2087  1.4123 -1.5499
  802SOL     OW 2537   1.386   3.656   3.600  0.0956 -0.5815 -0.0160
  802SOL    HW1 2538   1.473   3.672   3.635 -0.7246  1.8312  1.1514
  802SOL    HW2 2539   1.332   3.635   3.677 -1.0812  1.6905 -0.1455
  803SOL     OW 2540   1.824   0.395   2.249  0.2688 -0.3548  0.5922
  803SOL    HW1 2541   1.823   0.491   2.257  1.1949  0.1271 -3.3317
  803SOL    HW2 2542   1.916   0.371   2.259  0.3728 -0.5415 -0.7377
  804SOL     OW 2543   2.559   1.338   0.153 -0.8146  0.0364  0.5697
  804SOL    HW1 2544   2.586   1.398   0.223  1.1538 -2.4010  2.0573
  804SOL    HW2 2545   2.599   1.255   0.176 -1.5094 -1.3196 -2.6280
  805SOL     OW 2546   1.003   3.477   2.773  0.1521 -0.4946  0.8085
  805SOL    HW1 2547   0.998   3.520   2.859 -1.1558 -2.2346  1.6773
  805SOL    HW2 2548   1.085   3.427   2.777 -0.0785 -0.8517  1.2028
  806SOL     OW 2549   3.508   3.620   1.335  0.3545  0.7744 -0.0379
  806SOL    HW1 2550   3.532   3.709   1.307  0.4995  0.2905 -1.5480
  806SOL    HW2 2551   3.501   3.570   1.254  1.8195 -1.0021  0.8533
  807SOL     OW 2552   0.156   3.438   1.904 -0.9332 -0.3544  0.5128
  807SOL    HW1 2553   0.226   3.455   1.967  0.5297  1.5535 -1.4449
  807SOL    HW2 2554   0.094   3.510   1.917 -0.5274  0.1600 -0.2753
  808SOL     OW 2555   2.466   3.296   0.847 -0.3178 -0.5216 -0.2554
  808SOL    HW1 2556   2.443   3.379   0.804  0.1883 -0.7558 -1.0171
  808SOL    HW2 2557   2.474   3.318   0.939 -1.7548 -0.0582 -0.2146
  809SOL     OW 2558   2.056   2.963   1.162  0.0142 -0.0075 -0.1636
  809SOL    HW1 2559   2.022   2.874   1.176 -2.6340  0.5881 -1.9504
  809SOL    HW2 2560   2.019   3.014   1.234 -1.3154  0.2442 -0.9910
  810SOL     OW 2561   3.661   1.424   2.570 -0.1609  0.3370 -0.1500
  810SOL    HW1 2562   3.755   1.435   2.557  0.2510 -0.7258  1.7475
  810SOL    HW2 2563   3.622   1.489   2.511  1.6556 -0.5513 -2.4900
  811SOL     OW 2564   0.218   2.048   0.315  0.1089 -0.4251 -0.2305
  811SOL    HW1 2565   0.155   2.118   0.332  0.6714  0.3817 -1.4073
  811SOL    HW2 2566   0.227   2.046   0.220  2.3069 -0.1338 -0.0698
  812SOL     OW 2567   1.363   1.342   1.610 -0.0866 -0.2056 -0.4081
  812SOL    HW1 2568   1.394   1.305   1.693 -0.1643 -1.2716 -0.8322
  812SOL    HW2 2569   1.356   1.436   1.626 -2.6712 -0.6577  1.6160
  813SOL     OW 2570   0.945   0.386   3.602 -0.2863 -0.1121 -0.3284
  813SOL    HW1 2571   0.939   0.481   3.608 -0.7815 -0.1007 -0.8599
  813SOL    HW2 2572   0.995   0.370   3.522  2.4628 -0.2905  1.2907
  814SOL     OW 2573   0.228   3.225   2.129  0.4486 -0.2592 -0.3421
  814SOL    HW1 2574   0.134   3.224   2.110  0.5209 -1.7081 -0.7810
  814SOL    HW2 2575   0.251   3.318   2.134 -0.6663  0.1643 -2.0287
  815SOL     OW 2576   0.685   2.146   2.485  0.2313 -0.3739 -0.2360
  815SOL    HW1 2577   0.774   2.148   2.450  0.5702  0.2290  0.6552
  815SOL    HW2 2578   0.644   2.072   2.439  1.1528 -0.6012 -0.7241
  816SOL     OW 2579   3.318   3.715   2.366  0.3125  0.2672 -0.2067
  816SOL    HW1 2580   3.267   3.658   2.308  0.8067  0.0787 -0.4607
  816SOL    HW2 2581   3.254   3.777   2.400 -0.4441 -1.0057  0.8192
  817SOL     OW 2582   3.610   1.118   0.188 -0.2519  0.0168  0.1576
  817SOL    HW1 2583   3.599   1.211   0.170  1.6768  0.5105  1.2568
  817SOL    HW2 2584   3.540   1.076   0.138 -2.0196  2.1219  0.6792
  818SOL     OW 2585   0.087   0.270   3.728 -0.4046  0.1192  0.3898
  818SOL    HW1 2586   0.142   0.209   3.678 -0.7828  0.2487 -0.2020
  818SOL    HW2 2587  -0.002   0.247   3.703 -0.7009 -0.7401  2.0835
  819SOL     OW 2588   3.595   2.851   1.034 -0.5232  0.2633 -0.6423
  819SOL    HW1 2589   3.625   2.778   0.981  0.4546  0.4065 -0.3103
  819SOL    HW2 2590   3.676   2.891   1.069 -0.9839 -2.4041  4.5219
  820SOL     OW 2591   1.191   0.567   1.639  0.5219  0.5201  0.0517
  820SOL    HW1 2592   1.156   0.482   1.664  0.0819  0.2251 -1.5112
  820SOL    HW2 2593   1.282   0.549   1.614  1.1066  0.8904  1.7438
  821SOL     OW 2594   3.593   2.620   1.505  0.2514  0.8084 -0.1964
  821SOL    HW1 2595   3.602   2.530   1.537 -0.1927  0.3839 -1.2424
  821SOL    HW2 2596   3.683   2.650   1.496  0.4009  0.5819  0.4475
  822SOL     OW 2597   3.262   0.822   2.316  0.1361  0.1384  0.1890
  822SOL    HW1 2598   3.193   0.839   2.251  0.3697 -0.8443 -0.3516
  822SOL    HW2 2599   3.324   0.893   2.304  0.0797  0.0775 -0.5552
  823SOL     OW 2600   1.746   2.483   3.636  0.7858 -0.2149 -0.3990
  823SOL    HW1 2601   1.680   2.540   3.674  1.7087  1.2561 -0.9306
  823SOL    HW2 2602   1.727   2.483   3.542  1.9665  0.8590 -0.6663
  824SOL     OW 2603   2.070   0.950   0.245  0.5866 -0.2309  0.7950
  824SOL    HW1 2604   2.107   1.012   0.309  1.8769 -0.6005  0.4402
  824SOL    HW2 2605   2.017   0.891   0.298 -0.7463  1.1893  1.1345
  825SOL     OW 2606   1.771   0.995   2.148 -0.1887 -0.1831  0.4115
  825SOL    HW1 2607   1.716   1.006   2.070 -0.9349 -0.0251  0.9500
  825SOL    HW2 2608   1.837   1.064   2.140 -0.4206  0.0050  0.0553
  826SOL     OW 2609   3.280   1.317   1.083 -0.0566  0.2505  0.5767
  826SOL    HW1 2610   3.222   1.260   1.034  0.6517  1.1811 -1.4235
  826SOL    HW2 2611   3.225   1.353   1.153 -0.6990 -2.2249  1.4311
  827SOL     OW 2612   2.438   2.227   3.591 -0.6924  0.4657  0.1322
  827SOL    HW1 2613   2.447   2.244   3.497  1.4626  0.7183  0.3386
  827SOL    HW2 2614   2.443   2.313   3.632  2.2434  0.1546  0.6601
  828SOL     OW 2615   1.965   3.404   2.826  0.5968 -0.6112 -0.4870
  828SOL    HW1 2616   1.920   3.328   2.864  0.5992 -1.1085 -1.4575
  828SOL    HW2 2617   1.905   3.437   2.760  1.3039 -0.7851 -1.2274
  829SOL     OW 2618   1.264   1.035   2.471 -0.5316 -0.0036  0.2322
  829SOL    HW1 2619   1.260   1.100   2.541  1.1363 -0.9966  1.3021
  829SOL    HW2 2620   1.181   0.987   2.479 -0.4524  0.0312  1.3955
  830SOL     OW 2621   0.771   3.589   0.548  0.0514  0.0549 -0.0241
  830SOL    HW1 2622   0.728   3.574   0.464  0.1119  0.0549 -0.0550
  830SOL    HW2 2623   0.860   3.556   0.537 -0.1590 -0.6413  0.2824
  831SOL     OW 2624   3.355   0.986   0.054  0.5052 -0.5486  0.2138
  831SOL    HW1 2625   3.376   0.935  -0.024  1.0986 -1.0884  0.7206
  831SOL    HW2 2626   3.283   0.939   0.095  1.0005 -0.9477  0.6388
  832SOL     OW 2627   2.904   3.121   2.026  0.1625 -0.2281 -0.0492
  832SOL    HW1 2628   2.884   3.129   1.933  0.1153  0.8995  0.0507
  832SOL    HW2 2629   2.834   3.067   2.061  1.2035 -2.3126 -0.9960
  833SOL     OW 2630   0.945   0.568   2.259  0.0499  0.5903  0.1216
  833SOL    HW1 2631   0.974   0.551   2.169  0.8368  0.7471  0.3350
  833SOL    HW2 2632   0.895   0.490   2.283  1.1387 -0.1514  0.0693
  834SOL     OW 2633   2.176   3.121   0.753 -0.1253 -0.2528 -0.3916
  834SOL    HW1 2634   2.228   3.074   0.688 -0.9338  0.0763 -1.3117
  834SOL    HW2 2635   2.132   3.052   0.803  2.3692 -0.6002  1.4763
  835SOL     OW 2636   2.634   0.856   1.692 -0.4239  0.1298  1.0170
  835SOL    HW1 2637   2.662   0.948   1.690  2.6337 -0.7226 -0.5623
  835SOL    HW2 2638   2.572   0.848   1.620 -0.5847  0.9038  1.0622
  836SOL     OW 2639   0.458   1.543   1.099  0.0409 -0.2680  0.3712
  836SOL    HW1 2640   0.447   1.478   1.169  1.7932  0.5520  1.4720
  836SOL    HW2 2641   0.465   1.491   1.019 -2.3546 -1.2184  0.6911
  837SOL     OW 2642   2.989   0.109   2.370 -0.1834 -0.2518 -0.1887
  837SOL    HW1 2643   2.943   0.094   2.288 -1.3504 -1.1812  0.5910
  837SOL    HW2 2644   3.049   0.182   2.352 -2.4279  1.4857 -1.0853
  838SOL     OW 2645   1.617   3.677   0.006 -0.3311 -0.3885  0.9029
  838SOL    HW1 2646   1.686   3.637   0.059  2.0837 -0.1383 -1.8191
  838SOL    HW2 2647   1.605   3.764   0.044  1.1781 -0.2845  1.2024
  839SOL     OW 2648   0.024   1.932   2.257  0.3754 -0.3722 -0.1850
  839SOL    HW1 2649  -0.042   1.872   2.289  1.7138 -1.5447  0.5102
  839SOL    HW2 2650   0.052   1.895   2.173  0.1523  0.1181 -0.4798
  840SOL     OW 2651   0.631   1.860   3.148 -0.0584 -0.3027  0.1794
  840SOL    HW1 2652   0.687   1.918   3.097  1.0455 -0.9947  0.5816
  840SOL    HW2 2653   0.544   1.869   3.108  0.5678 -0.0688 -1.1615
  841SOL     OW 2654   1.639   0.121   1.326  0.9172 -0.4852  0.2748
  841SOL    HW1 2655   1.685   0.190   1.374 -2.7988  2.0087  0.6649
  841SOL    HW2 2656   1.608   0.061   1.394  1.0350 -0.4750  0.3369
  842SOL     OW 2657   0.189   0.707   2.090  0.5993 -0.2200 -0.6496
  842SOL    HW1 2658   0.189   0.652   2.012 -0.9560  0.9287 -1.5198
  842SOL    HW2 2659   0.128   0.664   2.149  1.7125 -1.0438 -0.0592
  843SOL     OW 2660   0.445   0.363   0.562 -0.4827  0.0440  0.3233
  843SOL    HW1 2661   0.540   0.353   0.553 -0.5771 -1.7885  0.9769
  843SOL    HW2 2662   0.424   0.320   0.645 -2.1481 -1.5600 -0.8529
  844SOL     OW 2663   2.807   0.631   2.788  0.7026  0.2699  0.3021
  844SOL    HW1 2664   2.881   0.572   2.804  0.0182 -0.4562  0.8908
  844SOL    HW2 2665   2.847   0.717   2.780  1.5277  0.0454  1.6679
  845SOL     OW 2666   0.905   1.502   2.016 -0.3935  0.3771  0.1940
  845SOL    HW1 2667   0.953   1.573   2.059  1.3023  1.1876 -2.7731
  845SOL    HW2 2668   0.882   1.442   2.087  4.2651  0.3893  2.0515
  846SOL     OW 2669   0.230   1.827   3.501 -0.1063 -0.0010 -0.2555
  846SOL    HW1 2670   0.251   1.920   3.494 -2.0540  0.5035 -0.0200
  846SOL    HW2 2671   0.136   1.825   3.517 -0.2772 -2.0639 -1.1915
  847SOL     OW 2672   0.316   3.427   2.747  0.1072  0.2097 -0.1118
  847SOL    HW1 2673   0.233   3.379   2.755  0.4681 -0.2291  1.5305
  847SOL    HW2 2674   0.307   3.499   2.810  0.8939  0.2546 -0.0478
  848SOL     OW 2675   2.186   2.555   0.309 -0.3778 -0.1617 -0.0024
  848SOL    HW1 2676   2.124   2.566   0.237 -0.0706 -0.2828 -0.2936
  848SOL    HW2 2677   2.146   2.489   0.366 -0.7687  0.1658  0.1026
  849SOL     OW 2678   3.748   3.048   1.599  0.0029  0.2779  0.1272
  849SOL    HW1 2679   3.690   3.119   1.569 -0.7234 -0.3617 -0.0305
  849SOL    HW2 2680   3.692   2.995   1.656  0.5636 -0.1168  0.3112
  850SOL     OW 2681   0.569   3.713   0.725  0.7427  0.0828  0.5792
  850SOL    HW1 2682   0.650   3.677   0.690  0.7443 -1.8265  2.3186
  850SOL    HW2 2683   0.510   3.719   0.650  1.0823 -2.7578 -0.0358
  851SOL     OW 2684   2.879   0.454   0.511 -0.2169  0.4944 -0.3220
  851SOL    HW1 2685   2.921   0.440   0.595  0.3538 -5.0373 -1.1649
  851SOL    HW2 2686   2.794   0.411   0.518 -0.2454  0.0514 -2.4481
  852SOL     OW 2687   1.733   3.057   2.288 -0.3122  0.3544  0.0110
  852SOL    HW1 2688   1.795   3.002   2.336 -0.0302  0.7013  0.0476
  852SOL    HW2 2689   1.787   3.105   2.226 -0.4200  1.3173  0.6435
  853SOL     OW 2690   2.893   0.439   0.793 -0.6486  0.5960 -0.4646
  853SOL    HW1 2691   2.970   0.390   0.824 -1.7488 -0.8381  0.0962
  853SOL    HW2 2692   2.909   0.528   0.823 -0.4368 -0.2043  2.1143
  854SOL     OW 2693   1.827   1.093   3.417 -0.2324 -0.3311 -0.7218
  854SOL    HW1 2694   1.850   1.176   3.458 -0.6927  0.1576 -1.4098
  854SOL    HW2 2695   1.774   1.047   3.482  0.0276 -0.0917 -0.3371
  855SOL     OW 2696   2.236   2.634   0.923 -0.4772  0.2216  0.1243
  855SOL    HW1 2697   2.264   2.595   0.841 -0.2343  0.0389  0.2927
  855SOL    HW2 2698   2.141   2.642   0.915 -0.3294  1.3958 -0.6837
  856SOL     OW 2699   0.426   0.079   0.957 -0.3789 -0.6254  0.6217
  856SOL    HW1 2700   0.357   0.017   0.980 -0.5835 -0.0711  1.5460
  856SOL    HW2 2701   0.467   0.041   0.879 -0.2811 -2.0884  1.3490
  857SOL     OW 2702   3.305   3.645   3.675 -0.0220  0.3936 -0.5654
  857SOL    HW1 2703   3.369   3.575   3.666  0.9316  1.3247 -1.2744
  857SOL    HW2 2704   3.280   3.666   3.585 -2.3836 -0.8614 -0.2720
  858SOL     OW 2705   0.445   2.036   2.736  0.1883  0.1328 -0.3436
  858SOL    HW1 2706   0.355   2.007   2.729  0.0403  0.5275 -0.0872
  858SOL    HW2 2707   0.494   1.976   2.679 -0.3832  0.5653 -1.3236
  859SOL     OW 2708   1.711   1.844   2.964 -0.1771 -0.1833  0.7078
  859SOL    HW1 2709   1.807   1.850   2.965 -0.2128  1.5695 -0.6976
  859SOL    HW2 2710   1.693   1.761   2.919  0.7194 -0.0423  0.0475
  860SOL     OW 2711   3.347   2.148   2.057  0.2723 -0.1770 -0.3314
  860SOL    HW1 2712   3.277   2.111   2.003 -0.2931 -1.3734  1.1427
  860SOL    HW2 2713   3.304   2.219   2.107  0.4729  0.0538 -0.4833
  861SOL     OW 2714   2.349   2.794   1.387  1.0616  0.1851 -0.2418
  861SOL    HW1 2715   2.370   2.886   1.375  3.7705  0.0559  2.3340
  861SOL    HW2 2716   2.397   2.749   1.317 -0.3967  0.6493 -1.6028
  862SOL     OW 2717   1.484   2.848   2.682 -0.1187 -0.2195  0.5686
  862SOL    HW1 2718   1.567   2.806   2.707  1.5065  0.9811 -2.3108
  862SOL    HW2 2719   1.509   2.938   2.661 -1.6547 -0.4197 -2.6046
  863SOL     OW 2720   1.941   2.727   0.484  0.0434 -0.7714 -0.8461
  863SOL    HW1 2721   2.029   2.754   0.456  0.5694  0.1891  1.5136
  863SOL    HW2 2722   1.932   2.762   0.572 -1.8727 -2.7674 -0.1573
  864SOL     OW 2723   0.959   1.070   3.356 -0.6634  0.0473  0.0396
  864SOL    HW1 2724   0.951   1.070   3.452  0.4822 -2.1242  0.1843
  864SOL    HW2 2725   0.902   0.999   3.327 -0.1568 -0.0326 -0.7959
  865SOL     OW 2726   0.035   1.957   3.713 -0.4974 -0.3023  0.2400
  865SOL    HW1 2727   0.020   1.988   3.802 -1.4914  0.7580 -0.2687
  865SOL    HW2 2728  -0.037   1.993   3.662  0.2527 -0.5715 -1.0737
  866SOL     OW 2729   1.413   2.269   1.238  0.0462 -0.1078 -0.3554
  866SOL    HW1 2730   1.375   2.209   1.174 -0.1384 -0.4007  0.0264
  866SOL    HW2 2731   1.364   2.350   1.227 -1.1955 -0.6970  0.6226
  867SOL     OW 2732   1.269   1.035   3.405  0.5321 -0.1121  0.3672
  867SOL    HW1 2733   1.211   1.083   3.463  2.3058  0.0899  2.0729
  867SOL    HW2 2734   1.240   1.060   3.317 -0.6195  1.5898  1.1680
  868SOL     OW 2735   1.068   0.032   0.678  0.6851  0.2819 -0.0215
  868SOL    HW1 2736   0.999  -0.005   0.734  0.3447 -0.3026 -0.8092
  868SOL    HW2 2737   1.113   0.094   0.734  0.5434 -0.5117  0.9973
  869SOL     OW 2738   1.450   2.962   1.544 -0.0883 -0.0173 -0.3412
  869SOL    HW1 2739   1.429   2.958   1.637  0.6588 -0.5786 -0.1869
  869SOL    HW2 2740   1.395   3.033   1.510 -2.8606 -1.9421 -0.1658
  870SOL     OW 2741   3.334   2.761   3.338  0.3441  0.2569  0.1566
  870SOL    HW1 2742   3.421   2.781   3.373  1.1339 -0.3199 -1.3962
  870SOL    HW2 2743   3.287   2.721   3.411  1.1937  1.0611  1.1742
  871SOL     OW 2744   3.400   2.300   3.377 -0.3391  0.1018  0.0995
  871SOL    HW1 2745   3.432   2.297   3.467  0.2492 -0.7055 -0.1220
  871SOL    HW2 2746   3.325   2.240   3.376 -2.6536  2.7789  0.8731
  872SOL     OW 2747   2.705   1.342   1.313 -0.8398 -0.4290  0.1476
  872SOL    HW1 2748   2.745   1.424   1.287 -2.2055  0.1641 -0.2037
  872SOL    HW2 2749   2.746   1.276   1.257  0.9603 -0.1710  1.0880
  873SOL     OW 2750   2.458   0.996   0.253 -0.1082  0.1974 -0.1831
  873SOL    HW1 2751   2.428   0.990   0.162 -1.8905  2.0010  0.2172
  873SOL    HW2 2752   2.388   1.041   0.299  0.7642 -0.6248  2.1270
  874SOL     OW 2753   0.195   0.732   2.581  0.3368  0.8603  0.0636
  874SOL    HW1 2754   0.115   0.730   2.634  0.7043  0.4691  0.6036
  874SOL    HW2 2755   0.177   0.799   2.514 -0.2309  1.1720  0.5165
  875SOL     OW 2756   3.664   1.370   1.073  0.4309  0.3703  0.0837
  875SOL    HW1 2757   3.673   1.422   1.153  0.7842  0.1635  0.1818
  875SOL    HW2 2758   3.741   1.394   1.021  0.5527  0.0045  0.0945
  876SOL     OW 2759   3.132   1.278   3.249  0.0717 -0.2241 -0.5456
  876SOL    HW1 2760   3.183   1.211   3.204 -1.7863 -0.3963 -2.5514
  876SOL    HW2 2761   3.195   1.348   3.267  1.9642 -2.2371  1.2181
  877SOL     OW 2762   3.491   3.657   0.221  0.7704  0.5611 -0.1360
  877SOL    HW1 2763   3.432   3.689   0.153  1.0095 -0.9699 -1.0979
  877SOL    HW2 2764   3.578   3.666   0.184  0.9324  0.0787  0.1211
  878SOL     OW 2765   0.556   1.577   0.222  0.0813 -0.6753  0.6842
  878SOL    HW1 2766   0.649   1.560   0.231  0.6036  1.8643  0.7072
  878SOL    HW2 2767   0.517   1.546   0.304  1.1288 -0.4492  1.2793
  879SOL     OW 2768   0.285   1.085   3.261 -1.0249  0.4340  0.6499
  879SOL    HW1 2769   0.341   1.045   3.328  2.1593  0.4377 -1.7729
  879SOL    HW2 2770   0.232   1.012   3.228  1.7119 -1.0945 -0.8145
  880SOL     OW 2771   3.304   0.221   2.070  0.4134 -0.3240  0.6756
  880SOL    HW1 2772   3.227   0.221   2.013  0.3842  0.9722  0.6879
  880SOL    HW2 2773   3.270   0.238   2.157  0.7338  0.5718  0.6347
  881SOL     OW 2774   2.997   3.732   0.639 -0.0194 -0.5007 -0.0498
  881SOL    HW1 2775   3.002   3.646   0.682 -2.1055 -0.4666  0.3528
  881SOL    HW2 2776   2.917   3.771   0.673 -0.0941  0.8364 -1.6570
  882SOL     OW 2777   3.049   2.897   1.742  0.5548  0.3357 -0.1940
  882SOL    HW1 2778   2.999   2.816   1.742  2.8074 -1.1639  0.7969
  882SOL    HW2 2779   3.100   2.894   1.660  0.7779  0.6611 -0.0708
  883SOL     OW 2780   0.780   3.048   1.666 -0.0434 -0.0401  0.4975
  883SOL    HW1 2781   0.760   3.141   1.669  1.3347  0.2961  0.1965
  883SOL    HW2 2782   0.834   3.032   1.743 -0.7655 -0.7356  0.8797
  884SOL     OW 2783   0.297   3.438   1.353  0.5324  0.3948 -0.0828
  884SOL    HW1 2784   0.311   3.416   1.445 -0.4435  1.1363  0.2649
  884SOL    HW2 2785   0.375   3.406   1.308  1.2008  0.3697  1.0634
  885SOL     OW 2786   1.567   0.931   0.374 -0.0193  0.2005  0.5180
  885SOL    HW1 2787   1.643   0.980   0.345 -0.0782 -1.1969 -2.4562
  885SOL    HW2 2788   1.600   0.872   0.442  1.3827  0.1824 -0.1518
  886SOL     OW 2789   1.618   2.181   2.661 -0.2946  0.1260  0.1909
  886SOL    HW1 2790   1.688   2.153   2.721 -0.1244  0.1791  0.0189
  886SOL    HW2 2791   1.556   2.108   2.660  1.8219 -1.8813 -2.9811
  887SOL     OW 2792   1.408   0.498   3.379 -0.2933 -0.7435 -0.2201
  887SOL    HW1 2793   1.488   0.446   3.385  0.5757  0.6482  0.9433
  887SOL    HW2 2794   1.352   0.464   3.448 -1.4523 -2.8291 -2.0790
  888SOL     OW 2795   0.172   1.820   1.350  0.0423 -0.1426 -0.2545
  888SOL    HW1 2796   0.080   1.824   1.376 -0.0184 -2.2484  0.0218
  888SOL    HW2 2797   0.197   1.728   1.364  1.4084 -0.2618 -2.8995
  889SOL     OW 2798   0.652   3.591   3.233  0.5356  0.1365 -0.1577
  889SOL    HW1 2799   0.714   3.660   3.256 -0.6019  0.7902  1.1225
  889SOL    HW2 2800   0.706   3.513   3.221  1.7169  0.9541 -0.3176
  890SOL     OW 2801   0.391   2.553   0.924  0.5903 -0.4069 -0.3343
  890SOL    HW1 2802   0.366   2.560   0.832  0.0355  0.8294 -0.1172
  890SOL    HW2 2803   0.375   2.462   0.947 -0.4056 -0.4581 -1.1600
  891SOL     OW 2804   1.627   0.720   3.315  0.1564  0.0456 -0.2609
  891SOL    HW1 2805   1.546   0.730   3.366  0.1716 -0.6409 -0.0979
  891SOL    HW2 2806   1.615   0.639   3.267  0.7313 -0.0309 -0.2743
  892SOL     OW 2807   3.526   2.881   2.905  0.0988 -0.4385  0.2330
  892SOL    HW1 2808   3.508   2.930   2.825  1.2969 -1.6720 -0.8377
  892SOL    HW2 2809   3.449   2.825   2.917  0.6887 -1.5968 -1.1332
  893SOL     OW 2810   1.747   2.991   1.585 -0.4864  0.1782  0.2919
  893SOL    HW1 2811   1.661   2.949   1.585  0.2760 -1.5719 -1.9462
  893SOL    HW2 2812   1.731   3.079   1.550 -0.9662 -1.5263 -4.5817
  894SOL     OW 2813   3.326   1.760   1.205 -0.0702  0.4117 -0.5100
  894SOL    HW1 2814   3.385   1.769   1.131  1.2925  0.8382  0.5840
  894SOL    HW2 2815   3.381   1.773   1.282 -1.5486  0.5763  0.5757
  895SOL     OW 2816   3.630   3.673   3.215  0.0720 -0.3258 -0.1661
  895SOL    HW1 2817   3.564   3.627   3.163 -0.3954 -0.2542  0.3503
  895SOL    HW2 2818   3.582   3.746   3.255  1.2643  2.2841 -3.0003
  896SOL     OW 2819   1.922   2.175   3.387 -0.2310 -0.0896  0.4463
  896SOL    HW1 2820   1.893   2.098   3.436  1.0114  0.3043  1.9114
  896SOL    HW2 2821   2.017   2.178   3.404  0.5573 -0.6977 -3.1539
  897SOL     OW 2822   3.313   1.453   2.882 -0.4039 -0.7725 -0.0769
  897SOL    HW1 2823   3.227   1.429   2.917  0.2151 -1.3102  1.1543
  897SOL    HW2 2824   3.301   1.541   2.846 -0.9066  0.2570  2.3865
  898SOL     OW 2825   1.604   1.205   0.045 -0.1486 -0.2374 -0.1755
  898SOL    HW1 2826   1.584   1.176  -0.044  0.4227  0.7730 -0.6493
  898SOL    HW2 2827   1.519   1.220   0.085 -0.4194  0.5852 -1.0059
  899SOL     OW 2828   2.622   0.692   0.079 -0.5096 -0.2182  0.0841
  899SOL    HW1 2829   2.601   0.603   0.049 -0.5009 -0.0981 -0.2806
  899SOL    HW2 2830   2.547   0.717   0.132 -1.3006  0.1863 -1.1713
  900SOL     OW 2831   0.775   0.571   1.189 -0.0503  0.2471  0.3317
  900SOL    HW1 2832   0.687   0.548   1.158  0.2896 -2.0876  0.9475
  900SOL    HW2 2833   0.760   0.627   1.265 -0.9614  0.8714 -0.2832
  901SOL     OW 2834   2.839   0.882   3.437 -0.5877 -0.1780 -0.1224
  901SOL    HW1 2835   2.765   0.830   3.466 -0.1874 -1.5500 -1.4239
  901SOL    HW2 2836   2.801   0.964   3.405 -1.5539 -0.8911 -0.8285
  902SOL     OW 2837   2.149   0.964   2.904 -0.3515  0.3566 -0.0768
  902SOL    HW1 2838   2.090   0.942   2.832 -0.9301 -2.7366  1.2026
  902SOL    HW2 2839   2.091   0.975   2.980  0.5206 -0.8750  0.8098
  903SOL     OW 2840   0.352   2.450   0.385  0.0655 -0.4508  0.3258
  903SOL    HW1 2841   0.430   2.404   0.354 -0.5877 -2.0376  0.9583
  903SOL    HW2 2842   0.279   2.400   0.349 -0.6825  0.9503 -0.1636
  904SOL     OW 2843   3.420   1.728   1.706 -0.3557 -0.1440 -0.6968
  904SOL    HW1 2844   3.415   1.738   1.611  0.9213  4.6365 -0.5130
  904SOL    HW2 2845   3.509   1.695   1.722 -0.2993 -0.2024 -1.1120
  905SOL     OW 2846   3.062   1.830   0.859 -0.2040  0.1362 -0.4199
  905SOL    HW1 2847   3.001   1.903   0.861  0.8369  1.0756 -1.2144
  905SOL    HW2 2848   3.076   1.813   0.766 -0.2066 -0.8847 -0.2444
  906SOL     OW 2849   0.540   2.362   1.858  0.3118 -0.4059 -0.1429
  906SOL    HW1 2850   0.624   2.390   1.894 -0.3040 -0.0056  1.0222
  906SOL    HW2 2851   0.481   2.435   1.875 -0.1745 -0.4768 -1.3903
  907SOL     OW 2852   3.278   3.045   1.268  0.1446 -0.6314 -0.3923
  907SOL    HW1 2853   3.269   2.998   1.185 -0.3471  1.4840 -1.6107
  907SOL    HW2 2854   3.196   3.092   1.277 -0.0812 -1.3297  1.6938
  908SOL     OW 2855   3.141   2.951   3.688  0.0261 -0.0033 -0.9328
  908SOL    HW1 2856   3.234   2.931   3.695  0.0945  0.8512  3.4795
  908SOL    HW2 2857   3.096   2.877   3.730 -1.0420  0.7578 -0.6670
  909SOL     OW 2858   0.875   0.611   0.061  0.0905 -0.0621  0.6100
  909SOL    HW1 2859   0.952   0.634   0.114  0.9388 -1.6961  0.1396
  909SOL    HW2 2860   0.846   0.527   0.097 -1.3035  0.3775  0.5654
  910SOL     OW 2861   1.448   3.244   1.661 -0.3231  0.4528 -0.5907
  910SOL    HW1 2862   1.355   3.256   1.681 -0.2399 -0.4236  0.4046
  910SOL    HW2 2863   1.485   3.205   1.740  1.1080  1.6714 -0.6050
  911SOL     OW 2864   0.988   0.441   1.350 -0.0651  0.2207 -0.3994
  911SOL    HW1 2865   0.913   0.384   1.370  0.3765  0.2860  1.6600
  911SOL    HW2 2866   0.970   0.474   1.262 -1.1182 -1.8579 -1.0265
  912SOL     OW 2867   0.143   2.877   0.268  0.4726 -0.0093 -0.2717
  912SOL    HW1 2868   0.078   2.811   0.294 -2.2727  2.4702 -0.3082
  912SOL    HW2 2869   0.187   2.838   0.193  0.2303 -2.4789  0.7722
  913SOL     OW 2870   1.343   1.085   2.935 -0.3646 -0.1452 -0.1590
  913SOL    HW1 2871   1.392   1.023   2.989 -2.5000 -1.5699  0.2522
  913SOL    HW2 2872   1.383   1.170   2.955  0.3732 -0.9080  1.9511
  914SOL     OW 2873   1.554   2.952   0.853 -0.0683  0.2767  1.1888
  914SOL    HW1 2874   1.526   2.907   0.774 -0.3793  1.3071  0.6938
  914SOL    HW2 2875   1.480   2.941   0.914 -0.0877  0.0159  1.1204
  915SOL     OW 2876   2.020   0.094   2.827 -0.1038  0.1050 -0.0817
  915SOL    HW1 2877   1.981   0.078   2.741 -0.1741  0.9280 -0.2164
  915SOL    HW2 2878   2.068   0.177   2.816  1.5367 -0.7672  0.1277
  916SOL     OW 2879   0.358   3.170   2.906 -0.3778 -0.2596  0.6101
  916SOL    HW1 2880   0.332   3.249   2.858 -1.0607 -1.2547 -0.6925
  916SOL    HW2 2881   0.316   3.179   2.991  1.2248  1.7572  1.2822
  917SOL     OW 2882   0.977   2.907   2.855  0.8373  0.0561  0.1757
  917SOL    HW1 2883   1.017   2.843   2.796  0.5091 -0.0311  0.0488
  917SOL    HW2 2884   0.997   2.992   2.815  0.6215 -0.0022 -0.0559
  918SOL     OW 2885   2.722   1.857   1.025  0.7666 -0.1918  0.2032
  918SOL    HW1 2886   2.762   1.943   1.032  0.5068 -0.0949  0.5313
  918SOL    HW2 2887   2.628   1.874   1.024  0.7069 -0.4868  0.5214
  919SOL     OW 2888   3.006   1.351   0.586  0.1662  0.8422  0.1844
  919SOL    HW1 2889   2.988   1.433   0.631 -0.3834  0.1766  1.1882
  919SOL    HW2 2890   2.964   1.361   0.500 -0.6981  1.2434  0.6484
  920SOL     OW 2891   0.323   2.121   2.482  0.2430  0.6306  0.1776
  920SOL    HW1 2892   0.392   2.185   2.501  1.6694 -0.5596 -0.6965
  920SOL    HW2 2893   0.272   2.161   2.411  2.3021  0.0997 -1.7341
  921SOL     OW 2894   1.838   3.164   0.735  0.3678 -0.5324  0.1936
  921SOL    HW1 2895   1.820   3.258   0.737  1.1554 -0.3597 -0.3707
  921SOL    HW2 2896   1.891   3.149   0.814  0.7432 -0.3845 -0.0242
  922SOL     OW 2897   2.896   1.482   1.550 -0.0350 -0.3360 -0.1153
  922SOL    HW1 2898   2.846   1.435   1.616  0.3019 -0.8608 -0.2362
  922SOL    HW2 2899   2.986   1.454   1.562 -0.0905 -1.1762 -1.4001
  923SOL     OW 2900   1.621   3.271   2.152 -0.4538 -0.4309  0.0308
  923SOL    HW1 2901   1.670   3.235   2.226 -1.2566 -0.7500  0.4221
  923SOL    HW2 2902   1.661   3.357   2.137  0.6428 -0.9494 -0.0900
  924SOL     OW 2903   3.682   1.926   1.525  0.3176  0.8458  0.3205
  924SOL    HW1 2904   3.760   1.919   1.580  0.7027  0.2015 -0.2923
  924SOL    HW2 2905   3.640   2.008   1.553  0.5155  0.5523  1.5357
  925SOL     OW 2906   1.902   3.423   0.855  0.5545  0.2255 -0.4606
  925SOL    HW1 2907   1.924   3.336   0.891  0.3137 -0.6792 -2.3526
  925SOL    HW2 2908   1.865   3.471   0.928  0.0004 -1.5415  0.4748
  926SOL     OW 2909   2.370   0.246   0.057 -0.2497  0.1303 -0.1825
  926SOL    HW1 2910   2.338   0.262   0.145  1.1607 -0.6869  0.5246
  926SOL    HW2 2911   2.423   0.166   0.065  1.6035  1.1678 -1.3204
  927SOL     OW 2912   0.030   3.666   2.027  0.7854  0.1905 -0.0910
  927SOL    HW1 2913  -0.058   3.699   2.008 -1.0345 -3.3269  1.1947
  927SOL    HW2 2914   0.051   3.704   2.113  0.8386  1.5105 -0.6636
  928SOL     OW 2915   3.221   1.213   3.649 -0.3376 -0.3634  0.4211
  928SOL    HW1 2916   3.149   1.156   3.675 -0.5796 -0.0736  0.3903
  928SOL    HW2 2917   3.298   1.156   3.651 -0.4904 -0.5617  0.9153
  929SOL     OW 2918   0.435   0.558   1.824 -0.3783 -0.0991  1.3042
  929SOL    HW1 2919   0.374   0.485   1.832  0.3641 -0.7245  1.3959
  929SOL    HW2 2920   0.381   0.636   1.838 -1.8778 -0.3560 -1.9920
  930SOL     OW 2921   0.240   1.618   0.539 -0.2691 -0.4564  0.8675
  930SOL    HW1 2922   0.261   1.653   0.626  0.1207  0.2231  0.5068
  930SOL    HW2 2923   0.190   1.538   0.557 -0.5784 -0.0832  1.7124
  931SOL     OW 2924   3.132   2.690   2.658  0.0503 -0.0401  0.2576
  931SOL    HW1 2925   3.075   2.767   2.669  1.8857  1.3829  0.3064
  931SOL    HW2 2926   3.149   2.686   2.564  0.4069 -0.0522  0.3219
  932SOL     OW 2927   1.858   0.496   3.341 -0.1702 -0.4171 -0.4509
  932SOL    HW1 2928   1.929   0.433   3.336  0.5849  0.1209  2.1911
  932SOL    HW2 2929   1.891   0.573   3.295  0.0471 -0.9193 -1.1492
  933SOL     OW 2930   1.442   1.930   1.727 -0.5067 -0.1284  0.3601
  933SOL    HW1 2931   1.523   1.880   1.740 -0.3936 -0.1050 -0.2280
  933SOL    HW2 2932   1.395   1.920   1.809 -0.5849 -1.3747  0.1835
  934SOL     OW 2933   1.615   2.481   2.599 -0.2107  0.3220  0.1574
  934SOL    HW1 2934   1.591   2.389   2.605  1.4233 -0.0578  1.5833
  934SOL    HW2 2935   1.630   2.509   2.689  1.7391  1.2725 -0.3870
  935SOL     OW 2936   2.021   2.564   0.098  0.1714  0.1483  0.6589
  935SOL    HW1 2937   1.975   2.647   0.087  2.1905  1.1423 -1.1463
  935SOL    HW2 2938   1.994   2.511   0.023  0.3263 -0.1034  0.7786
  936SOL     OW 2939   1.767   1.575   0.194  0.0654  0.8403  0.1982
  936SOL    HW1 2940   1.754   1.575   0.289  0.3755  0.1423  0.2449
  936SOL    HW2 2941   1.847   1.625   0.180  0.2873  0.5240  0.3435
  937SOL     OW 2942   3.571   1.958   3.315 -0.3132 -0.3471 -0.1736
  937SOL    HW1 2943   3.592   1.875   3.272  1.0157  0.5794 -1.4338
  937SOL    HW2 2944   3.653   1.984   3.358 -0.5997  0.4884 -0.1135
  938SOL     OW 2945   3.372   2.103   2.392  0.5231 -0.0335 -0.1131
  938SOL    HW1 2946   3.342   2.191   2.412  0.2594 -0.5765  2.1126
  938SOL    HW2 2947   3.415   2.073   2.472  0.7082 -1.8863 -0.8483
  939SOL     OW 2948   0.180   0.872   0.794  0.4537  0.2509 -0.0868
  939SOL    HW1 2949   0.103   0.918   0.827 -0.8089 -2.1641  0.5582
  939SOL    HW2 2950   0.170   0.873   0.699 -0.1844  0.2818 -0.0235
  940SOL     OW 2951   2.467   3.764   2.959 -0.3888 -0.1910  0.1009
  940SOL    HW1 2952   2.430   3.690   2.910  0.4154 -0.7820  0.3770
  940SOL    HW2 2953   2.539   3.726   3.009 -0.1106  0.7440  0.4189
  941SOL     OW 2954   3.003   3.284   0.771  0.3334 -0.0440  0.5537
  941SOL    HW1 2955   3.033   3.347   0.836  0.2432  0.7647 -0.1626
  941SOL    HW2 2956   2.907   3.292   0.773  0.2548 -1.0170  1.2820
  942SOL     OW 2957   0.102   3.159   1.862  0.0675 -0.3607 -0.2338
  942SOL    HW1 2958   0.169   3.097   1.833 -0.2642 -0.3846 -0.9748
  942SOL    HW2 2959   0.147   3.244   1.862  0.4327 -0.5427  0.4768
  943SOL     OW 2960   1.739   2.490   0.487 -0.2876  0.0687  0.2617
  943SOL    HW1 2961   1.801   2.500   0.558 -0.4909  0.3843  0.3967
  943SOL    HW2 2962   1.793   2.473   0.410 -0.0438  0.2214  0.4000
  944SOL     OW 2963   0.975   1.806   2.969 -0.1720  0.0637 -0.0772
  944SOL    HW1 2964   1.001   1.781   2.880  0.8679  1.3648 -0.1596
  944SOL    HW2 2965   0.977   1.902   2.969  1.5199  0.0890  1.8101
  945SOL     OW 2966   3.445   1.007   2.329 -0.3959  0.0020 -0.3597
  945SOL    HW1 2967   3.518   0.945   2.336  0.6896  1.1628 -0.9912
  945SOL    HW2 2968   3.484   1.085   2.290 -2.1013  0.4786 -1.1896
  946SOL     OW 2969   2.738   1.747   2.112  0.6533  0.2845 -0.2531
  946SOL    HW1 2970   2.651   1.721   2.142  1.0699  0.3197  1.0328
  946SOL    HW2 2971   2.778   1.666   2.081  1.0659 -0.2511  1.5282
  947SOL     OW 2972   2.543   3.503   0.607  0.4449  0.6468 -0.0175
  947SOL    HW1 2973   2.468   3.451   0.575  0.4901  0.8601 -0.4799
  947SOL    HW2 2974   2.521   3.593   0.583  1.0053  0.6695 -0.4574
  948SOL     OW 2975   1.981   0.419   2.853 -0.1843  0.2240  0.2149
  948SOL    HW1 2976   1.949   0.509   2.850 -0.4965  0.1713  1.3022
  948SOL    HW2 2977   2.003   0.398   2.763  2.4894  2.3040  0.2525
  949SOL     OW 2978   2.385   2.034   2.897  0.0619 -0.5756  0.0663
  949SOL    HW1 2979   2.461   1.986   2.864 -0.1999  0.1027 -1.6069
  949SOL    HW2 2980   2.421   2.088   2.968  1.1537 -0.2725 -0.6942
  950SOL     OW 2981   2.163   0.606   2.086  0.8626  0.0788 -0.2504
  950SOL    HW1 2982   2.195   0.696   2.088  0.0479  0.3659  0.3758
  950SOL    HW2 2983   2.103   0.603   2.012 -0.3788  0.5085  0.7179
  951SOL     OW 2984   1.646   2.075   3.270 -0.4468  0.5772  0.2966
  951SOL    HW1 2985   1.570   2.099   3.323 -0.4642 -0.2841  0.6900
  951SOL    HW2 2986   1.709   2.041   3.334 -0.7434 -1.1585 -0.2825
  952SOL     OW 2987   2.852   1.970   2.431  0.2264  0.2400 -0.1804
  952SOL    HW1 2988   2.928   2.008   2.386  0.3985 -0.2362 -0.3064
  952SOL    HW2 2989   2.785   2.038   2.428  0.8309  0.8669  0.4148
  953SOL     OW 2990   0.948   0.544   1.992  0.5191  0.2064 -0.3208
  953SOL    HW1 2991   0.853   0.543   2.001  0.6860 -0.1508  1.7748
  953SOL    HW2 2992   0.964   0.598   1.914 -1.3762  0.2132 -0.7522
  954SOL     OW 2993   3.066   0.295   3.233  0.3583  0.7591 -0.1278
  954SOL    HW1 2994   3.078   0.390   3.222 -1.7200  0.8572 -2.3596
  954SOL    HW2 2995   2.978   0.278   3.200  1.1780 -2.1559 -1.1215
  955SOL     OW 2996   0.202   0.401   1.364 -0.3269 -0.6161 -0.2793
  955SOL    HW1 2997   0.233   0.331   1.307  2.2427 -1.0025  1.4156
  955SOL    HW2 2998   0.155   0.356   1.434 -0.9667 -0.3816 -0.5452
  956SOL     OW 2999   1.310   0.892   0.295  0.5994  0.3101  0.1239
  956SOL    HW1 3000   1.397   0.915   0.328  2.2372 -1.5377 -2.4951
  956SOL    HW2 3001   1.263   0.976   0.289  2.4044  1.4392  1.0225
  957SOL     OW 3002   2.374   1.919   0.597 -0.5380 -0.4052  0.1299
  957SOL    HW1 3003   2.464   1.894   0.576 -0.2220  1.1875 -0.5879
  957SOL    HW2 3004   2.331   1.837   0.622  0.1596 -1.8442 -2.9003
  958SOL     OW 3005   1.455   2.105   2.007 -0.6407  0.0746 -0.5088
  958SOL    HW1 3006   1.394   2.110   1.933 -2.1961  0.4283  0.7443
  958SOL    HW2 3007   1.439   2.185   2.056 -0.6286 -0.7903  0.9582
  959SOL     OW 3008   2.379   0.704   3.456  0.2320  0.7266 -0.2189
  959SOL    HW1 3009   2.372   0.718   3.361 -1.9708  2.6764  0.1372
  959SOL    HW2 3010   2.359   0.789   3.494  1.3182  0.0394  2.0322
  960SOL     OW 3011   1.022   2.353   0.593 -0.2249  0.0975 -0.2780
  960SOL    HW1 3012   1.024   2.376   0.686  2.0918  0.1421 -0.2623
  960SOL    HW2 3013   1.039   2.259   0.591  0.2952  0.1919 -0.6562
  961SOL     OW 3014   3.551   0.151   1.258 -0.6026  0.3812  0.3585
  961SOL    HW1 3015   3.471   0.182   1.216 -0.5805  1.0589  0.7960
  961SOL    HW2 3016   3.617   0.155   1.189 -1.0420 -0.6712 -0.1450
  962SOL     OW 3017   0.861   2.867   3.102 -0.4354  0.4986  0.1979
  962SOL    HW1 3018   0.844   2.801   3.035  0.1119  0.3260  0.2217
  962SOL    HW2 3019   0.947   2.903   3.078  0.8545 -1.1130  2.0397
  963SOL     OW 3020   1.923   2.130   0.281  0.5314  0.0635 -0.2562
  963SOL    HW1 3021   1.900   2.067   0.213 -0.6033 -0.1793  0.3140
  963SOL    HW2 3022   2.009   2.102   0.313 -0.2447 -1.6340  0.4588
  964SOL     OW 3023   2.893   2.670   0.678  0.3504 -0.6670  1.1377
  964SOL    HW1 3024   2.911   2.578   0.696 -1.0022 -0.9126  1.3688
  964SOL    HW2 3025   2.949   2.692   0.603  0.3021 -1.8102  0.7484
  965SOL     OW 3026   3.334   0.469   0.430  0.1865 -0.5160 -0.2934
  965SOL    HW1 3027   3.370   0.405   0.369 -0.1076  0.4016 -1.4473
  965SOL    HW2 3028   3.296   0.537   0.375 -2.4212 -0.9077  0.8299
  966SOL     OW 3029   1.639   1.203   1.493  0.3431  0.5170 -0.2339
  966SOL    HW1 3030   1.686   1.122   1.476 -0.9623  0.0808 -2.1527
  966SOL    HW2 3031   1.586   1.184   1.570  0.1558 -0.4165 -0.5768
  967SOL     OW 3032   1.529   0.505   0.738 -0.1827  0.3360  0.3567
  967SOL    HW1 3033   1.540   0.588   0.785  1.6221 -0.9306  2.4018
  967SOL    HW2 3034   1.477   0.451   0.797  0.1470 -0.5444 -0.1410
  968SOL     OW 3035   1.939   2.771   1.514  0.1657 -0.4249  0.0660
  968SOL    HW1 3036   1.963   2.749   1.604 -0.6835 -0.5299  0.2727
  968SOL    HW2 3037   1.869   2.836   1.522 -0.3001 -0.8399 -0.5023
  969SOL     OW 3038   3.168   2.535   2.387  0.0439 -0.3868 -0.2108
  969SOL    HW1 3039   3.190   2.477   2.459 -0.8590 -0.6687 -0.1563
  969SOL    HW2 3040   3.247   2.537   2.333  0.3484 -1.0304  0.2031
  970SOL     OW 3041   0.680   3.683   2.557  0.2359  0.6752 -0.1364
  970SOL    HW1 3042   0.697   3.592   2.578  3.4648  1.1645 -0.1313
  970SOL    HW2 3043   0.618   3.712   2.624 -1.1282 -1.5333 -0.3426
  971SOL     OW 3044   2.161   1.536   2.010  0.1222 -0.0547 -0.5144
  971SOL    HW1 3045   2.131   1.609   2.063  0.3614 -0.6157  0.4206
  971SOL    HW2 3046   2.093   1.525   1.943 -1.1021 -0.4526  0.7479
  972SOL     OW 3047   2.187   0.081   2.220 -0.3015  0.0623 -0.6655
  972SOL    HW1 3048   2.187   0.131   2.139 -2.8610  1.7306  0.2511
  972SOL    HW2 3049   2.194   0.147   2.289 -1.7949 -0.9701  0.5425
  973SOL     OW 3050   1.233   2.917   2.409 -0.0244 -0.3484 -0.0599
  973SOL    HW1 3051   1.148   2.953   2.384  0.3369  0.8501  0.3441
  973SOL    HW2 3052   1.224   2.893   2.501 -0.3033 -1.4562 -0.3633
  974SOL     OW 3053   0.087   2.708   3.311 -0.2534  0.9975  0.1858
  974SOL    HW1 3054   0.029   2.710   3.236 -2.2400 -0.3660  1.5939
  974SOL    HW2 3055   0.132   2.793   3.310  0.2315  0.7887 -2.8002
  975SOL     OW 3056   1.229   3.350   3.150 -0.0624 -0.4260 -0.4393
  975SOL    HW1 3057   1.150   3.335   3.098 -0.0736  0.2548 -0.6370
  975SOL    HW2 3058   1.209   3.429   3.201  0.0318 -0.9623  0.4389
  976SOL     OW 3059   1.108   2.730   3.672  0.5768 -0.4866 -0.6820
  976SOL    HW1 3060   1.137   2.663   3.610  0.6815 -0.3353 -0.7989
  976SOL    HW2 3061   1.133   2.813   3.630  0.1511 -0.3617 -0.6916
  977SOL     OW 3062   3.686   1.700   2.738 -0.3601 -0.0982 -0.1996
  977SOL    HW1 3063   3.766   1.651   2.719  0.5289  0.5142  1.6583
  977SOL    HW2 3064   3.702   1.787   2.704  0.7505  0.6636  2.0727
  978SOL     OW 3065   1.183   2.861   2.671 -0.2546 -0.0458 -0.3708
  978SOL    HW1 3066   1.168   2.793   2.736 -1.0152  0.0730 -0.4141
  978SOL    HW2 3067   1.278   2.871   2.668 -0.1792 -0.5514  0.2021
  979SOL     OW 3068   0.487   0.087   1.376  0.2926 -0.1368 -0.4089
  979SOL    HW1 3069   0.493   0.157   1.312  0.8130  0.1210 -0.0849
  979SOL    HW2 3070   0.406   0.041   1.354 -0.5228  1.1129 -0.0606
  980SOL     OW 3071   2.794   1.615   1.234 -0.3136  0.4619 -0.1068
  980SOL    HW1 3072   2.877   1.619   1.186  0.2509 -1.8126  0.5787
  980SOL    HW2 3073   2.800   1.686   1.298  0.8494  0.6764 -0.4282
  981SOL     OW 3074   2.705   2.893   1.409 -0.0506 -0.1701 -0.1392
  981SOL    HW1 3075   2.766   2.963   1.433  1.6038 -1.7998  0.6370
  981SOL    HW2 3076   2.735   2.863   1.323 -0.4285 -0.2775 -0.2367
  982SOL     OW 3077   0.142   2.757   1.486 -0.0981  0.0449 -0.0731
  982SOL    HW1 3078   0.108   2.838   1.525 -1.5497 -1.2295  1.4473
  982SOL    HW2 3079   0.222   2.739   1.535 -0.8494 -0.4846  0.9819
  983SOL     OW 3080   0.574   3.184   3.439 -0.2105  0.3719  0.1264
  983SOL    HW1 3081   0.570   3.245   3.512  3.8925  0.6006  0.4101
  983SOL    HW2 3082   0.551   3.100   3.476  1.6187  0.5175  1.7496
  984SOL     OW 3083   2.457   1.677   0.673 -0.4267  0.3190 -0.1040
  984SOL    HW1 3084   2.539   1.632   0.690 -1.2567 -1.8655 -1.4182
  984SOL    HW2 3085   2.421   1.697   0.760 -0.0269 -1.6556  0.5559
  985SOL     OW 3086   2.231   1.190   3.260  0.6685 -0.2977 -0.0400
  985SOL    HW1 3087   2.243   1.285   3.273  0.9188 -0.1417 -1.2798
  985SOL    HW2 3088   2.306   1.151   3.304  1.1503  0.1567 -0.4369
  986SOL     OW 3089   0.840   0.863   3.236  0.2194  0.0322  0.1655
  986SOL    HW1 3090   0.752   0.899   3.242  0.3926  0.3671  0.7557
  986SOL    HW2 3091   0.836   0.803   3.161 -0.2593  0.7329 -0.3872
  987SOL     OW 3092   0.178   1.162   3.683  0.0467  0.3062 -0.0872
  987SOL    HW1 3093   0.155   1.224   3.614  0.3833  1.1141  0.5100
  987SOL    HW2 3094   0.216   1.216   3.752 -2.3371 -0.1394  1.7259
  988SOL     OW 3095   1.626   1.675   1.684 -0.0154  0.3358 -0.0766
  988SOL    HW1 3096   1.630   1.608   1.751 -0.1346 -0.3035 -0.6979
  988SOL    HW2 3097   1.669   1.635   1.608 -0.6463  0.7243 -0.6481
  989SOL     OW 3098   2.182   2.000   0.354  0.3623  0.4691  0.4889
  989SOL    HW1 3099   2.249   2.051   0.399  0.6852  0.3627  0.1372
  989SOL    HW2 3100   2.150   1.939   0.420  0.6946  0.4457  0.6304
  990SOL     OW 3101   3.696   1.580   0.319 -0.4554  0.4640 -1.0375
  990SOL    HW1 3102   3.773   1.606   0.268  0.3549  2.0181  0.8620
  990SOL    HW2 3103   3.667   1.660   0.362  0.1872 -1.0619  2.5466
  991SOL     OW 3104   3.206   0.582   2.606  0.1746 -0.0085  0.2305
  991SOL    HW1 3105   3.242   0.561   2.520  0.9000  1.6144  0.0956
  991SOL    HW2 3106   3.112   0.570   2.596  0.3022 -0.3880 -0.6202
  992SOL     OW 3107   1.634   2.985   3.546 -0.1860  0.3003  0.1367
  992SOL    HW1 3108   1.580   2.964   3.622 -1.9164  0.0558 -1.1153
  992SOL    HW2 3109   1.724   2.966   3.575 -0.9691 -1.6745  1.4735
  993SOL     OW 3110   0.593   3.558   1.600  0.9205  0.9083  0.2303
  993SOL    HW1 3111   0.598   3.645   1.640  0.5897 -0.3489  3.2293
  993SOL    HW2 3112   0.500   3.544   1.585  0.8874  0.7479  0.5710
  994SOL     OW 3113   2.663   2.553   3.396 -0.2746  0.6088 -0.1932
  994SOL    HW1 3114   2.647   2.602   3.477 -0.6857 -0.3730  0.3408
  994SOL    HW2 3115   2.728   2.486   3.421  1.5227  1.8456 -1.2938
  995SOL     OW 3116   2.877   0.431   1.366  0.2097 -0.1167  0.0917
  995SOL    HW1 3117   2.803   0.447   1.307 -0.1452 -1.0286  0.2724
  995SOL    HW2 3118   2.845   0.364   1.426  1.3951 -0.9628 -0.1925
  996SOL     OW 3119   0.325   2.670   3.118  0.2343  0.2718  0.5368
  996SOL    HW1 3120   0.272   2.740   3.080  1.4781  2.2270  2.1590
  996SOL    HW2 3121   0.380   2.640   3.046 -0.4737  0.8300 -0.2499
  997SOL     OW 3122   1.843   2.485   0.749 -0.3598  0.0055 -0.5991
  997SOL    HW1 3123   1.800   2.412   0.793 -0.9626  0.3121 -0.6654
  997SOL    HW2 3124   1.853   2.551   0.818 -1.0703  0.3865 -0.8425
  998SOL     OW 3125   0.350   2.857   1.199  0.0177 -0.4725  1.1577
  998SOL    HW1 3126   0.353   2.764   1.177  0.8325 -0.0826 -0.5480
  998SOL    HW2 3127   0.402   2.900   1.131 -0.7156  1.2969  1.6455
  999SOL     OW 3128   3.296   2.723   2.919 -0.2077 -0.3359 -0.1175
  999SOL    HW1 3129   3.267   2.658   2.983 -0.1237  1.8491  2.3154
  999SOL    HW2 3130   3.232   2.794   2.925  0.2286  0.2882 -1.9772
 1000SOL     OW 3131   2.797   1.706   2.475  0.7513  0.2234 -0.3150
 1000SOL    HW1 3132   2.811   1.689   2.568  3.3332  1.2636 -0.4183
 1000SOL    HW2 3133   2.810   1.801   2.465  0.6068  0.1209 -1.7467
 1001SOL     OW 3134   0.580   0.308   0.838  0.2196 -0.1094  0.6286
 1001SOL    HW1 3135   0.644   0.295   0.768  2.2863  2.4309  1.8761
 1001SOL    HW2 3136   0.533   0.225   0.843 -0.0927 -0.4594 -3.7240
 1002SOL     OW 3137   2.382   3.265   0.560 -0.0311 -0.2736  0.3223
 1002SOL    HW1 3138   2.462   3.229   0.521 -1.2591 -1.6520 -1.1142
 1002SOL    HW2 3139   2.398   3.264   0.654  2.0784  0.6767  0.0329
 1003SOL     OW 3140   0.022   0.872   3.726  0.7501 -0.3491 -0.7040
 1003SOL    HW1 3141   0.067   0.916   3.798 -2.0186  3.1898 -0.8565
 1003SOL    HW2 3142   0.090   0.856   3.661  2.1820  3.5628 -0.4267
 1004SOL     OW 3143   3.583   2.873   3.415  0.3131 -0.2080 -0.0784
 1004SOL    HW1 3144   3.671   2.849   3.444  0.3574  0.5270  0.4441
 1004SOL    HW2 3145   3.573   2.964   3.444 -1.5139 -0.9883  2.0479
 1005SOL     OW 3146   0.862   0.211   2.862 -0.1212 -0.1370  0.0598
 1005SOL    HW1 3147   0.954   0.184   2.856 -0.5315 -1.5294 -0.4901
 1005SOL    HW2 3148   0.836   0.187   2.951 -0.1798 -0.5478 -0.0660
 1006SOL     OW 3149   3.125   0.244   2.896 -0.0535 -0.5835  0.6003
 1006SOL    HW1 3150   3.076   0.180   2.948 -1.8021 -0.0851 -0.3623
 1006SOL    HW2 3151   3.125   0.209   2.807 -0.0521  0.2172  0.2758
 1007SOL     OW 3152   1.492   2.596   0.138  0.1398 -0.0589  0.5647
 1007SOL    HW1 3153   1.503   2.504   0.165  0.7418 -0.3594 -0.6154
 1007SOL    HW2 3154   1.482   2.591   0.043  0.1727  1.1049  0.4926
 1008SOL     OW 3155   3.045   2.518   3.243 -0.5485  0.2395 -0.0493
 1008SOL    HW1 3156   3.070   2.499   3.334 -1.3659  2.2160  0.6477
 1008SOL    HW2 3157   3.128   2.524   3.196  0.0058  0.9871  0.9773
 1009SOL     OW 3158   2.103   0.595   3.412 -0.3202  0.0688 -0.5600
 1009SOL    HW1 3159   2.197   0.603   3.427 -0.5297 -1.2699  2.1701
 1009SOL    HW2 3160   2.073   0.686   3.403  0.9705  0.6859  0.7971
 1010SOL     OW 3161   0.511   0.471   0.060 -0.4748 -0.1819 -0.3720
 1010SOL    HW1 3162   0.533   0.526   0.135 -1.7641 -0.3438  0.1687
 1010SOL    HW2 3163   0.453   0.403   0.097 -1.2578 -0.1815 -1.5342
 1011SOL     OW 3164   3.248   0.102   0.396  0.7858 -0.4767 -0.1571
 1011SOL    HW1 3165   3.187   0.173   0.376 -0.7842 -1.1130  1.9813
 1011SOL    HW2 3166   3.333   0.133   0.364 -0.7819 -0.2241 -4.8354
 1012SOL     OW 3167   1.748   1.215   2.668 -0.3864 -0.2613 -0.5183
 1012SOL    HW1 3168   1.732   1.304   2.637 -0.9220  0.2869  1.2204
 1012SOL    HW2 3169   1.842   1.212   2.685 -0.5439  0.3786  0.5456
 1013SOL     OW 3170   0.323   2.117   3.390 -0.6090  0.5853 -0.1068
 1013SOL    HW1 3171   0.332   2.206   3.356  1.3695  0.5810  0.2905
 1013SOL    HW2 3172   0.410   2.079   3.381 -2.0989 -2.6506 -3.7473
 1014SOL     OW 3173   2.123   3.586   3.024  0.0976 -0.1104 -0.1624
 1014SOL    HW1 3174   2.095   3.677   3.022  1.1712  0.2372  0.3886
 1014SOL    HW2 3175   2.152   3.568   2.934  2.4219  0.9199  0.3299
 1015SOL     OW 3176   1.887   3.712   2.320  0.5754  0.4577 -0.1886
 1015SOL    HW1 3177   1.944   3.703   2.244 -0.6805 -0.1800 -1.0800
 1015SOL    HW2 3178   1.799   3.717   2.284 -0.1895 -1.2792  1.2768
 1016SOL     OW 3179   1.027   1.173   1.586 -0.2232  0.2618  0.2101
 1016SOL    HW1 3180   1.012   1.185   1.679 -0.0638  0.0288  0.2669
 1016SOL    HW2 3181   1.112   1.130   1.580 -0.6545 -0.5916  0.0064
 1017SOL     OW 3182   2.166   3.612   0.579 -0.0178  0.3731 -0.3039
 1017SOL    HW1 3183   2.086   3.644   0.538 -1.0755  0.9425  1.9947
 1017SOL    HW2 3184   2.138   3.539   0.634  1.0133  0.6521  0.6381
 1018SOL     OW 3185   3.216   2.232   1.166 -0.3144  0.1979  0.2279
 1018SOL    HW1 3186   3.264   2.215   1.085 -0.2592 -1.3344  0.5593
 1018SOL    HW2 3187   3.281   2.271   1.225 -0.8490  3.3664 -1.0985
 1019SOL     OW 3188   3.615   1.779   1.086 -0.2934 -0.2330  0.1594
 1019SOL    HW1 3189   3.593   1.869   1.108 -1.5766 -0.5138  0.1274
 1019SOL    HW2 3190   3.668   1.786   1.006  2.0928  0.6230  1.6946
 1020SOL     OW 3191   0.292   1.108   2.990  0.0607 -0.4696  0.4379
 1020SOL    HW1 3192   0.308   1.133   3.081  2.6749  1.2817 -0.3902
 1020SOL    HW2 3193   0.344   1.029   2.976 -0.5924 -0.9261  0.4978
 1021SOL     OW 3194   2.955   0.047   1.666 -0.3122  1.1190  0.0166
 1021SOL    HW1 3195   2.962  -0.039   1.623  0.2624  0.8767  0.5786
 1021SOL    HW2 3196   2.861   0.059   1.679 -0.3577  0.1642  0.7179
 1022SOL     OW 3197   1.179   1.771   0.329 -0.0507 -0.3306  0.0937
 1022SOL    HW1 3198   1.200   1.785   0.237  1.9964  1.8618  0.7831
 1022SOL    HW2 3199   1.083   1.769   0.332 -0.3861  3.6098 -1.6718
 1023SOL     OW 3200   0.268   1.783   2.661 -0.7738 -0.2299  0.2550
 1023SOL    HW1 3201   0.214   1.740   2.594  0.0946 -0.1499 -0.5077
 1023SOL    HW2 3202   0.355   1.787   2.623 -0.4650  0.6639  1.0197
 1024SOL     OW 3203   3.534   0.402   2.024  0.1539 -0.2767 -0.0635
 1024SOL    HW1 3204   3.498   0.485   2.055 -0.1453 -0.0014 -1.1111
 1024SOL    HW2 3205   3.468   0.337   2.049  0.0664 -0.1021  0.1630
 1025SOL     OW 3206   1.657   3.534   1.239  0.0693  0.4109  0.5963
 1025SOL    HW1 3207   1.637   3.588   1.315 -1.7838 -0.1887  0.6021
 1025SOL    HW2 3208   1.577   3.482   1.225  0.4400  0.3036 -1.5781
 1026SOL     OW 3209   3.650   0.697   0.233 -0.3664 -0.6754 -0.1084
 1026SOL    HW1 3210   3.698   0.621   0.199 -1.5104 -1.8443  0.7971
 1026SOL    HW2 3211   3.558   0.676   0.219 -0.7179  0.4087  0.4454
 1027SOL     OW 3212   3.105   2.116   2.578  0.1748 -0.1555 -0.8923
 1027SOL    HW1 3213   3.017   2.115   2.617  1.0607 -2.6627  1.3471
 1027SOL    HW2 3214   3.156   2.173   2.636  0.5367 -0.5056 -0.8665
 1028SOL     OW 3215   3.317   3.074   2.889  0.2347 -0.4882  0.3010
 1028SOL    HW1 3216   3.365   3.017   2.949  0.0034 -2.6590 -1.4332
 1028SOL    HW2 3217   3.239   3.024   2.865 -1.3796  1.6775  0.6713
 1029SOL     OW 3218   3.568   0.608   0.933 -0.0695 -0.7179  0.2204
 1029SOL    HW1 3219   3.626   0.603   1.010  2.7100 -0.1031 -1.7019
 1029SOL    HW2 3220   3.586   0.527   0.885  0.7415  0.4066 -1.4223
 1030SOL     OW 3221   1.877   0.085   2.569  0.7464  0.0295  0.2549
 1030SOL    HW1 3222   1.790   0.124   2.573 -0.7851 -3.0125 -0.0395
 1030SOL    HW2 3223   1.883   0.049   2.480  2.2194 -0.0687  0.3615
 1031SOL     OW 3224   0.592   3.235   2.804 -0.3684 -0.0026 -0.1476
 1031SOL    HW1 3225   0.648   3.270   2.873  1.4415 -2.4655 -0.2211
 1031SOL    HW2 3226   0.521   3.192   2.852  0.3911 -0.9158  0.2005
 1032SOL     OW 3227   1.727   1.776   2.193 -0.7531 -0.1809 -0.1653
 1032SOL    HW1 3228   1.792   1.707   2.204 -0.5161  0.4596  3.3505
 1032SOL    HW2 3229   1.643   1.729   2.188 -0.4103 -0.8043 -0.1886
 1033SOL     OW 3230   1.018   0.373   3.319  0.2456 -0.0074  0.0507
 1033SOL    HW1 3231   1.060   0.430   3.254 -0.4206 -0.1703 -0.5362
 1033SOL    HW2 3232   0.927   0.404   3.323 -0.1529 -1.0847 -0.3540
 1034SOL     OW 3233   2.628   2.560   3.118 -0.5604 -0.0278  0.0653
 1034SOL    HW1 3234   2.713   2.602   3.111 -0.8826  0.4800 -1.0694
 1034SOL    HW2 3235   2.610   2.556   3.212  0.3772  0.5332  0.2746
 1035SOL     OW 3236   0.937   0.811   1.220 -0.6056 -0.3053  0.0480
 1035SOL    HW1 3237   0.960   0.778   1.133  0.4837  2.5384 -0.8668
 1035SOL    HW2 3238   0.991   0.760   1.280  1.2459 -0.0447 -1.2942
 1036SOL     OW 3239   0.879   1.128   1.341  0.3951 -0.2003 -0.2584
 1036SOL    HW1 3240   0.922   1.153   1.423  0.6778  1.7027 -0.9466
 1036SOL    HW2 3241   0.948   1.136   1.275 -0.4145  0.5856 -1.0314
 1037SOL     OW 3242   3.423   2.138   1.720  0.6558  0.0839 -0.2246
 1037SOL    HW1 3243   3.371   2.061   1.742  0.1838  0.4557 -0.0081
 1037SOL    HW2 3244   3.512   2.115   1.746  0.8336 -0.9897 -1.6347
 1038SOL     OW 3245   3.331   2.931   1.018 -0.4030  0.1093 -0.3974
 1038SOL    HW1 3246   3.420   2.898   1.003 -0.3930 -0.1660  0.2261
 1038SOL    HW2 3247   3.336   3.024   0.996  0.7955  0.7911  2.2724
 1039SOL     OW 3248   2.170   2.403   3.612  0.4266 -0.3860  0.4684
 1039SOL    HW1 3249   2.156   2.355   3.531 -0.0906  0.9591 -0.2691
 1039SOL    HW2 3250   2.125   2.351   3.679 -0.0702 -0.9581 -0.3003
 1040SOL     OW 3251   1.920   2.869   3.632  0.7296 -0.0326  0.4323
 1040SOL    HW1 3252   1.918   2.800   3.565 -0.4078  0.3870  0.0093
 1040SOL    HW2 3253   1.867   2.833   3.703  0.8930  0.0363  0.5882
 1041SOL     OW 3254   3.029   3.636   2.529 -0.2830  0.6864  0.2000
 1041SOL    HW1 3255   2.941   3.611   2.559 -0.1149 -1.5925 -0.9967
 1041SOL    HW2 3256   3.014   3.691   2.452 -0.7074 -0.3760 -0.5027
 1042SOL     OW 3257   0.077   0.989   1.929  0.1488 -0.7541 -0.7027
 1042SOL    HW1 3258   0.042   0.923   1.990 -3.1455  0.5945 -0.9416
 1042SOL    HW2 3259   0.065   0.950   1.843 -0.0601 -0.6013 -0.7435
 1043SOL     OW 3260   1.891   2.977   1.822 -0.3121 -0.2774 -0.6767
 1043SOL    HW1 3261   1.828   2.910   1.795 -0.6149  0.1785 -1.1218
 1043SOL    HW2 3262   1.916   3.021   1.740 -1.1067  1.0041 -0.2678
 1044SOL     OW 3263   1.004   0.372   1.651 -0.6486 -0.1964  0.7917
 1044SOL    HW1 3264   0.935   0.379   1.584 -0.9175 -1.1680  0.9532
 1044SOL    HW2 3265   0.957   0.349   1.731 -0.4522  1.9176  1.5829
 1045SOL     OW 3266   1.810   0.259   3.549 -0.4611  0.6797 -0.4856
 1045SOL    HW1 3267   1.736   0.317   3.563 -1.4053 -0.7978  0.8736
 1045SOL    HW2 3268   1.823   0.215   3.632  1.6311  0.4968 -0.8411
 1046SOL     OW 3269   3.323   3.187   0.513 -0.4646 -0.0611  0.1354
 1046SOL    HW1 3270   3.355   3.147   0.432 -0.5319  2.4247 -1.2062
 1046SOL    HW2 3271   3.235   3.152   0.524  0.1734 -1.7561  0.1302
 1047SOL     OW 3272   1.970   2.118   2.560  0.1904  0.2770  0.2482
 1047SOL    HW1 3273   1.926   2.201   2.573  0.8522  0.7527 -0.4215
 1047SOL    HW2 3274   2.007   2.096   2.646  0.9372  1.2351  0.1950
 1048SOL     OW 3275   0.937   1.199   1.864  0.1831  0.6288 -0.1159
 1048SOL    HW1 3276   0.904   1.130   1.923  0.0299  0.3710 -0.4936
 1048SOL    HW2 3277   0.864   1.261   1.857  0.6762  1.3584  1.0140
 1049SOL     OW 3278   1.673   2.539   2.846  0.6344  0.1167 -0.1932
 1049SOL    HW1 3279   1.712   2.599   2.910  0.8650  1.4937 -1.5657
 1049SOL    HW2 3280   1.588   2.517   2.883  0.9964  0.3916  0.8597
 1050SOL     OW 3281   1.241   2.403   0.338  0.1595 -0.4383  0.5166
 1050SOL    HW1 3282   1.317   2.413   0.396 -1.0233 -0.2861  2.0944
 1050SOL    HW2 3283   1.200   2.489   0.338 -0.2387 -0.6290 -0.0045
 1051SOL     OW 3284   2.513   1.804   1.324  0.1807  0.0942  0.6610
 1051SOL    HW1 3285   2.552   1.788   1.238 -0.0745 -1.0932  0.7515
 1051SOL    HW2 3286   2.585   1.840   1.376 -0.1587  2.8115 -0.5841
 1052SOL     OW 3287   3.687   1.098   3.419 -0.2587 -0.0923  0.6969
 1052SOL    HW1 3288   3.730   1.035   3.361 -2.9847 -0.4326 -1.1792
 1052SOL    HW2 3289   3.755   1.162   3.440  1.2293 -0.7130 -1.8187
 1053SOL     OW 3290   2.507   0.856   1.419  0.3325  0.7136  0.0993
 1053SOL    HW1 3291   2.578   0.794   1.404 -0.4389  0.0824 -1.0575
 1053SOL    HW2 3292   2.454   0.852   1.340  0.7605  3.5545 -0.4529
 1054SOL     OW 3293   3.386   0.660   0.142 -1.3306 -0.9117  0.3452
 1054SOL    HW1 3294   3.355   0.750   0.131  2.2505  0.3255 -1.0910
 1054SOL    HW2 3295   3.383   0.623   0.054  1.1588 -0.6453  0.0761
 1055SOL     OW 3296   1.145   3.089   0.525 -0.1302  0.6117  0.4700
 1055SOL    HW1 3297   1.130   3.144   0.448  2.1879  0.4172 -0.2107
 1055SOL    HW2 3298   1.148   2.999   0.491  1.9602  0.6050  0.5432
 1056SOL     OW 3299   1.861   2.453   1.434 -0.3612  0.1799  0.2206
 1056SOL    HW1 3300   1.812   2.372   1.451 -1.6052  0.0812 -3.1629
 1056SOL    HW2 3301   1.794   2.518   1.413  0.7914  0.7883 -1.7910
 1057SOL     OW 3302   0.731   3.118   2.588 -0.3509  0.1333  0.0324
 1057SOL    HW1 3303   0.670   3.171   2.639 -1.6664 -1.3221  0.0589
 1057SOL    HW2 3304   0.724   3.031   2.626  3.1126  0.2222  1.2041
 1058SOL     OW 3305   0.462   1.299   1.252 -0.6861 -0.0301  0.0837
 1058SOL    HW1 3306   0.440   1.211   1.282 -0.8839  0.8566  2.8069
 1058SOL    HW2 3307   0.432   1.357   1.322  1.4884  2.0305 -0.5457
 1059SOL     OW 3308   0.679   1.243   3.429  0.0026  0.3474  0.0387
 1059SOL    HW1 3309   0.705   1.157   3.393  1.1063  0.5445  0.3270
 1059SOL    HW2 3310   0.709   1.306   3.363  1.0993  0.6423  0.8024
 1060SOL     OW 3311   2.217   1.831   0.828 -0.3833  0.1473  0.5658
 1060SOL    HW1 3312   2.170   1.761   0.782 -0.2321 -0.1342  0.8374
 1060SOL    HW2 3313   2.184   1.827   0.917 -1.8597  1.7342  0.1388
 1061SOL     OW 3314   2.917   2.650   1.750  0.2233  0.2205 -0.1703
 1061SOL    HW1 3315   2.938   2.557   1.752 -1.5735 -0.2062  1.4272
 1061SOL    HW2 3316   2.870   2.662   1.667  2.0774  0.1507 -1.2863
 1062SOL     OW 3317   2.440   3.097   1.868 -0.4725  0.4824  0.3888
 1062SOL    HW1 3318   2.372   3.156   1.836 -1.4690 -1.3494 -1.1128
 1062SOL    HW2 3319   2.393   3.032   1.920 -0.0439 -1.1102 -1.0847
 1063SOL     OW 3320   2.543   0.175   2.086  0.0595  0.0589  0.1542
 1063SOL    HW1 3321   2.529   0.209   2.175  0.6738 -0.5766  0.5020
 1063SOL    HW2 3322   2.543   0.253   2.031 -0.7747  0.4250  0.6501
 1064SOL     OW 3323   1.038   3.114   0.950  0.6546 -0.7314 -0.4103
 1064SOL    HW1 3324   1.121   3.122   0.998  0.4156  0.5540 -0.1803
 1064SOL    HW2 3325   0.983   3.183   0.987 -1.3412 -2.9715  1.0699
 1065SOL     OW 3326   1.796   2.037   2.220 -0.3088 -0.0117 -0.1649
 1065SOL    HW1 3327   1.750   1.955   2.206 -2.1304  0.8132  0.6562
 1065SOL    HW2 3328   1.798   2.079   2.134 -4.7241  1.6701  0.3169
 1066SOL     OW 3329   2.480   1.679   2.087 -0.6246 -0.0972  0.4482
 1066SOL    HW1 3330   2.431   1.761   2.098 -0.5109 -0.0047  0.2656
 1066SOL    HW2 3331   2.432   1.616   2.140 -0.4431  0.1977  0.9658
 1067SOL     OW 3332   0.851   1.474   1.747 -0.6173 -0.5955  0.4982
 1067SOL    HW1 3333   0.927   1.524   1.721 -0.9087  1.0426  2.5326
 1067SOL    HW2 3334   0.848   1.482   1.843 -1.1134 -3.9171  0.8950
 1068SOL     OW 3335   3.423   1.265   1.367 -0.5172 -0.8132  0.2281
 1068SOL    HW1 3336   3.392   1.177   1.345 -0.9030 -0.1510 -2.1841
 1068SOL    HW2 3337   3.357   1.324   1.329  1.1769  0.5562 -0.7234
 1069SOL     OW 3338   1.210   1.707   3.375 -0.3358 -0.5243 -0.7344
 1069SOL    HW1 3339   1.169   1.714   3.462  0.2331 -0.9516 -0.4295
 1069SOL    HW2 3340   1.137   1.687   3.316 -0.5992 -1.1214 -0.2192
 1070SOL     OW 3341   2.880   2.431   0.153  0.0720  0.1062  0.0706
 1070SOL    HW1 3342   2.836   2.346   0.153  1.1870 -0.5051  0.7337
 1070SOL    HW2 3343   2.967   2.413   0.191  0.7727  1.3151 -0.8856
 1071SOL     OW 3344   3.704   3.428   0.185  0.0770 -0.7337 -0.0555
 1071SOL    HW1 3345   3.744   3.344   0.208  0.5374 -0.8195 -1.1433
 1071SOL    HW2 3346   3.631   3.437   0.247  0.8725 -1.2675  0.9878
 1072SOL     OW 3347   1.269   1.326   0.878 -0.2737  0.0116 -0.0857
 1072SOL    HW1 3348   1.353   1.353   0.914  1.0025 -1.7301 -1.5765
 1072SOL    HW2 3349   1.254   1.384   0.803  1.4207 -1.8425 -1.9849
 1073SOL     OW 3350   0.684   1.825   1.881 -0.2040 -0.0059  0.0251
 1073SOL    HW1 3351   0.680   1.921   1.885  2.2345  0.1051  1.6931
 1073SOL    HW2 3352   0.723   1.807   1.795  2.5453  0.7426  1.0234
 1074SOL     OW 3353   0.976   3.335   3.025  0.2047 -0.2713  0.0729
 1074SOL    HW1 3354   0.982   3.260   2.965 -0.7017  1.0437 -1.7559
 1074SOL    HW2 3355   0.885   3.363   3.019  0.3120  0.4549  1.4287
 1075SOL     OW 3356   0.964   3.553   0.170  0.1536 -0.6020 -0.0301
 1075SOL    HW1 3357   0.934   3.640   0.196 -0.6487 -0.8467 -0.1244
 1075SOL    HW2 3358   0.902   3.525   0.103  1.2884 -0.6337 -1.0914
 1076SOL     OW 3359   3.369   3.267   2.269 -0.3050 -0.3134 -0.0750
 1076SOL    HW1 3360   3.285   3.311   2.254 -0.2730  0.0631  0.7743
 1076SOL    HW2 3361   3.357   3.179   2.234 -0.4593  0.2822 -1.5786
 1077SOL     OW 3362   1.491   1.657   2.141  0.0280 -0.1384 -0.5870
 1077SOL    HW1 3363   1.480   1.562   2.130  0.0374 -0.3151  0.7236
 1077SOL    HW2 3364   1.421   1.682   2.202  1.1096  0.3695  0.4829
 1078SOL     OW 3365   2.438   0.727   0.269  0.3295 -0.0909 -0.2225
 1078SOL    HW1 3366   2.422   0.815   0.234  2.3226  1.2455  1.9581
 1078SOL    HW2 3367   2.364   0.676   0.237  0.1910  1.7784 -3.3864
 1079SOL     OW 3368   0.317   2.994   2.693  0.2121  0.0347  0.0500
 1079SOL    HW1 3369   0.342   3.049   2.768 -1.4248  0.9666 -0.0346
 1079SOL    HW2 3370   0.253   3.047   2.646 -0.1852 -1.3151 -0.9605
 1080SOL     OW 3371   2.417   2.513   0.407  0.1346 -0.5235  0.0848
 1080SOL    HW1 3372   2.344   2.568   0.377  0.6527  0.9171  1.3414
 1080SOL    HW2 3373   2.439   2.459   0.331 -2.2054 -0.9979 -0.3429
 1081SOL     OW 3374   1.227   3.430   1.748  0.0250 -0.8163  0.0681
 1081SOL    HW1 3375   1.158   3.497   1.750  1.5344  0.8552 -0.9352
 1081SOL    HW2 3376   1.246   3.412   1.840 -1.5701 -1.1694  0.3651
 1082SOL     OW 3377   0.865   0.074   3.373 -0.7604 -0.9157  0.1731
 1082SOL    HW1 3378   0.807   0.148   3.387  0.5205  0.2273 -0.3641
 1082SOL    HW2 3379   0.895   0.049   3.460  0.3475  0.5175  0.2374
 1083SOL     OW 3380   0.287   1.200   0.916 -0.1226  0.2270 -0.0897
 1083SOL    HW1 3381   0.193   1.191   0.905  0.1921 -1.2900 -2.4422
 1083SOL    HW2 3382   0.311   1.135   0.982 -0.5476 -0.7130 -0.8365
 1084SOL     OW 3383   0.574   1.090   0.607 -0.6297 -0.2932 -0.1260
 1084SOL    HW1 3384   0.545   1.059   0.692 -0.0167  0.1337  0.2520
 1084SOL    HW2 3385   0.622   1.017   0.569 -0.2506 -0.2345  0.2303
 1085SOL     OW 3386   2.483   2.093   1.638  0.3855  0.1336  0.0801
 1085SOL    HW1 3387   2.463   2.041   1.715 -0.2551 -0.4048 -0.4373
 1085SOL    HW2 3388   2.574   2.121   1.651  0.2642  0.1057  1.0474
 1086SOL     OW 3389   1.382   1.799   0.128  0.3489 -0.1041 -0.3428
 1086SOL    HW1 3390   1.327   1.811   0.051  1.0324 -1.0451 -0.9933
 1086SOL    HW2 3391   1.401   1.888   0.157  0.7044  0.2894 -1.7143
 1087SOL     OW 3392   1.187   0.361   2.456  0.1997  0.1333 -0.2578
 1087SOL    HW1 3393   1.115   0.323   2.406 -0.7204 -2.6263  2.8179
 1087SOL    HW2 3394   1.266   0.326   2.415 -0.4268 -0.3951 -1.0400
 1088SOL     OW 3395   0.693   0.959   1.214 -0.5606 -0.4836  1.1044
 1088SOL    HW1 3396   0.769   0.902   1.210 -0.0385  0.2438 -2.0505
 1088SOL    HW2 3397   0.721   1.034   1.266  0.4787 -0.7697  0.9770
 1089SOL     OW 3398   2.376   0.927   2.448  0.1757  0.6088 -0.4030
 1089SOL    HW1 3399   2.341   1.000   2.500  0.3849 -1.3323  2.7590
 1089SOL    HW2 3400   2.463   0.912   2.484 -0.1827 -1.6762 -0.3107
 1090SOL     OW 3401   3.468   3.420   3.577  0.2396  0.1438 -0.0240
 1090SOL    HW1 3402   3.476   3.347   3.639 -0.1888 -0.4116 -0.6150
 1090SOL    HW2 3403   3.389   3.400   3.527 -0.5409  1.5993  0.5777
 1091SOL     OW 3404   0.424   0.971   3.468  0.4093 -0.2694 -0.0093
 1091SOL    HW1 3405   0.517   0.983   3.484  0.3370  1.5701 -0.6843
 1091SOL    HW2 3406   0.386   0.963   3.556  0.8501  2.4643  0.5356
 1092SOL     OW 3407   1.196   1.491   0.693  0.7149  0.0047 -0.2004
 1092SOL    HW1 3408   1.102   1.504   0.700  0.7472 -0.2211  0.8370
 1092SOL    HW2 3409   1.216   1.504   0.600 -0.2794  0.4013 -0.3657
 1093SOL     OW 3410   2.871   0.731   0.667 -0.6274 -0.0243  0.5535
 1093SOL    HW1 3411   2.868   0.826   0.654  0.1561  0.0402  0.7647
 1093SOL    HW2 3412   2.893   0.695   0.581 -1.8151 -0.0888  0.2671
 1094SOL     OW 3413   3.090   2.504   2.858  0.5518 -0.1164  0.3622
 1094SOL    HW1 3414   3.060   2.594   2.869  0.4540  0.1085 -1.4574
 1094SOL    HW2 3415   3.180   2.512   2.826  0.6420 -0.6678  0.4645
 1095SOL     OW 3416   3.075   3.078   0.603 -0.4041 -0.2170  0.5421
 1095SOL    HW1 3417   3.047   3.161   0.641 -1.5236 -0.6419  0.6856
 1095SOL    HW2 3418   3.022   3.069   0.523  1.0561  0.0927 -0.4890
 1096SOL     OW 3419   3.705   3.577   1.600 -0.2534 -0.4497 -0.1779
 1096SOL    HW1 3420   3.661   3.659   1.577  1.1933 -0.0095 -1.5275
 1096SOL    HW2 3421   3.763   3.600   1.672  1.0465  0.0356 -1.3415
 1097SOL     OW 3422   1.044   2.453   0.913 -0.1776  0.2108  0.1055
 1097SOL    HW1 3423   1.091   2.380   0.954 -0.5834  0.3257  0.8076
 1097SOL    HW2 3424   1.021   2.510   0.987 -1.7507 -0.0435 -0.1542
 1098SOL     OW 3425   0.112   2.414   0.109  0.6482 -0.0462 -0.0160
 1098SOL    HW1 3426   0.107   2.504   0.077 -1.1543  0.0216  0.2959
 1098SOL    HW2 3427   0.157   2.366   0.041  0.7100  0.9067 -0.6692
 1099SOL     OW 3428   1.903   1.234   2.398 -0.3914 -0.7491  0.4290
 1099SOL    HW1 3429   1.838   1.175   2.435 -1.6712  0.6058  0.4461
 1099SOL    HW2 3430   1.886   1.233   2.304  0.1734 -1.0812  0.3262
 1100SOL     OW 3431   0.672   0.591   0.410  0.0510  0.5116 -0.3250
 1100SOL    HW1 3432   0.665   0.563   0.501 -3.5473  0.6496 -0.4280
 1100SOL    HW2 3433   0.689   0.511   0.360  0.4211  0.1926  0.3093
 1101SOL     OW 3434   2.442   0.397   0.341  0.1929  0.4973  0.6715
 1101SOL    HW1 3435   2.353   0.370   0.364 -0.0125  1.2839  0.8481
 1101SOL    HW2 3436   2.430   0.473   0.284  0.7540  0.9353  1.1279
 1102SOL     OW 3437   3.437   1.102   1.742  0.1971  0.1294  0.5510
 1102SOL    HW1 3438   3.489   1.037   1.789  1.2047 -0.0531 -0.7399
 1102SOL    HW2 3439   3.502   1.161   1.704 -0.6789  3.4858  3.7000
 1103SOL     OW 3440   3.414   0.888   0.369  0.2578  0.0849 -0.1502
 1103SOL    HW1 3441   3.504   0.858   0.355  0.7984  0.3790  2.2380
 1103SOL    HW2 3442   3.404   0.963   0.310  0.8510 -1.1750 -1.9294
 1104SOL     OW 3443   0.570   3.535   1.288 -0.2259  0.4261  0.7100
 1104SOL    HW1 3444   0.643   3.523   1.348  0.4604 -0.4219 -0.2739
 1104SOL    HW2 3445   0.527   3.615   1.319 -0.7048 -0.6608  3.1303
 1105SOL     OW 3446   0.841   1.962   2.645 -0.3175  0.5773  0.2445
 1105SOL    HW1 3447   0.911   2.008   2.691  0.2766 -0.7140  0.7077
 1105SOL    HW2 3448   0.886   1.892   2.597 -1.3272 -0.8395  1.2493
 1106SOL     OW 3449   0.527   3.377   0.610  1.2590 -0.1738 -0.6869
 1106SOL    HW1 3450   0.591   3.361   0.680  0.4310 -1.1282 -0.1133
 1106SOL    HW2 3451   0.570   3.439   0.551  1.7287  1.1899  1.0100
 1107SOL     OW 3452   2.667   2.416   1.848  0.1226 -0.0704  0.4971
 1107SOL    HW1 3453   2.637   2.344   1.905  1.5240 -0.3170  0.9608
 1107SOL    HW2 3454   2.591   2.436   1.793 -0.2272 -2.0931  0.1619
 1108SOL     OW 3455   2.357   0.938   3.097  0.1787 -0.3906  0.3702
 1108SOL    HW1 3456   2.279   0.945   3.152 -0.1829 -2.0712  0.1047
 1108SOL    HW2 3457   2.324   0.931   3.008  0.6052 -1.2312  0.2674
 1109SOL     OW 3458   2.835   3.636   3.414 -0.3249 -0.0451  0.3243
 1109SOL    HW1 3459   2.924   3.663   3.394 -0.5165  0.4020  0.0534
 1109SOL    HW2 3460   2.809   3.581   3.340 -0.4616  0.2722  0.1331
 1110SOL     OW 3461   0.891   2.120   2.302 -0.0040  0.2769  0.0875
 1110SOL    HW1 3462   0.957   2.185   2.327 -1.1527  1.2724  0.6691
 1110SOL    HW2 3463   0.906   2.105   2.209  1.6336 -0.2525  0.4026
 1111SOL     OW 3464   2.300   0.275   2.605  0.3309  0.1633 -0.0564
 1111SOL    HW1 3465   2.317   0.239   2.692 -1.8048  1.1328  0.8223
 1111SOL    HW2 3466   2.272   0.199   2.553 -1.5970  0.0504  1.0564
 1112SOL     OW 3467   1.540   0.180   2.076  0.4766 -1.0473  0.0836
 1112SOL    HW1 3468   1.479   0.110   2.101 -0.0952  0.3444  3.0758
 1112SOL    HW2 3469   1.485   0.257   2.062  1.2426 -0.7191 -1.2768
 1113SOL     OW 3470   2.352   3.615   3.177 -0.7017 -0.4776  0.0020
 1113SOL    HW1 3471   2.368   3.702   3.141 -0.9131 -0.3828  0.1268
 1113SOL    HW2 3472   2.268   3.589   3.139 -1.6365  0.2172  1.4739
 1114SOL     OW 3473   1.249   3.456   1.443  0.3401 -0.0195  0.0626
 1114SOL    HW1 3474   1.276   3.365   1.446  0.4510  0.0339  0.8411
 1114SOL    HW2 3475   1.256   3.487   1.533 -0.3304  0.5747 -0.0732
 1115SOL     OW 3476   0.491   0.898   0.303  0.5039  0.1189  0.0129
 1115SOL    HW1 3477   0.529   0.832   0.244  1.4862 -0.2925  1.0805
 1115SOL    HW2 3478   0.566   0.950   0.332 -0.2133  1.5091 -0.5194
 1116SOL     OW 3479   2.200   0.984   1.922  0.3271  0.3062  0.9268
 1116SOL    HW1 3480   2.120   0.958   1.968  0.6477  0.2872  1.4756
 1116SOL    HW2 3481   2.225   1.067   1.962  0.7326  0.1782  0.9387
 1117SOL     OW 3482   2.041   3.180   1.602  0.4269  0.3116 -0.4318
 1117SOL    HW1 3483   2.118   3.167   1.546  0.5303  0.2050 -0.2678
 1117SOL    HW2 3484   2.000   3.259   1.568  0.7783  0.5394 -0.3357
 1118SOL     OW 3485   1.636   2.303   1.710 -0.0672  0.1938 -0.5032
 1118SOL    HW1 3486   1.674   2.215   1.707  0.6180  0.4663 -0.1272
 1118SOL    HW2 3487   1.587   2.311   1.628 -1.1119 -0.9539 -0.0205
 1119SOL     OW 3488   3.088   1.439   3.033  0.2126  0.2712 -0.0566
 1119SOL    HW1 3489   3.007   1.489   3.032 -1.0457 -1.6697 -1.7299
 1119SOL    HW2 3490   3.081   1.383   3.110  0.0914  0.2949 -0.0501
 1120SOL     OW 3491   0.310   0.486   2.512  0.5482  0.4917 -0.6885
 1120SOL    HW1 3492   0.395   0.523   2.488  0.9560 -0.0483 -0.0954
 1120SOL    HW2 3493   0.266   0.556   2.559  0.6326  0.7954 -1.0527
 1121SOL     OW 3494   2.875   0.719   3.679  0.3856  0.1345 -0.2179
 1121SOL    HW1 3495   2.794   0.720   3.731  0.6646  1.9057  0.2485
 1121SOL    HW2 3496   2.891   0.811   3.660  1.6865 -0.2956 -1.2910
 1122SOL     OW 3497   2.465   3.076   3.023 -0.2421 -0.0854  0.2659
 1122SOL    HW1 3498   2.503   2.989   3.013  0.2118  0.2142 -0.8955
 1122SOL    HW2 3499   2.373   3.065   2.999 -0.4691 -0.4520  1.2520
 1123SOL     OW 3500   2.668   3.012   2.085  0.6933 -0.3883 -0.0358
 1123SOL    HW1 3501   2.609   2.957   2.136  0.7930 -0.4118  0.0554
 1123SOL    HW2 3502   2.658   2.982   1.995 -1.2580  1.2047 -0.4244
 1124SOL     OW 3503   0.539   2.114   0.125  0.3368  0.4391  0.5539
 1124SOL    HW1 3504   0.571   2.058   0.196 -1.2962  0.5408  1.4312
 1124SOL    HW2 3505   0.467   2.064   0.086 -0.1165  1.2535  0.3212
 1125SOL     OW 3506   0.187   2.933   0.879  0.2074 -0.1235 -0.4498
 1125SOL    HW1 3507   0.246   2.904   0.809 -0.9340 -0.1427 -1.4411
 1125SOL    HW2 3508   0.245   2.951   0.953  1.8150  2.3216 -2.1194
 1126SOL     OW 3509   2.644   1.950   3.172  0.0149  0.1887 -0.2923
 1126SOL    HW1 3510   2.695   2.029   3.154 -0.4336  0.6246  0.2923
 1126SOL    HW2 3511   2.697   1.902   3.236 -0.6512  1.0283  0.9251
 1127SOL     OW 3512   1.765   1.481   1.169 -0.5778 -0.2829  0.3768
 1127SOL    HW1 3513   1.721   1.398   1.189 -1.2416  0.6008  3.0232
 1127SOL    HW2 3514   1.849   1.475   1.214 -1.0158  0.8183  1.3573
 1128SOL     OW 3515   1.816   0.550   0.449 -0.0242  0.5943  0.4891
 1128SOL    HW1 3516   1.830   0.621   0.387  0.7939  0.7008  0.7826
 1128SOL    HW2 3517   1.861   0.475   0.411 -0.2283  0.4375  0.5540
 1129SOL     OW 3518   0.009   2.388   2.681 -0.5758 -0.4633 -0.5612
 1129SOL    HW1 3519  -0.032   2.472   2.703 -1.3079 -0.2797 -2.4316
 1129SOL    HW2 3520   0.076   2.410   2.616 -0.8719 -1.3416 -1.1825
 1130SOL     OW 3521   2.817   2.111   0.534  0.3544 -0.5377  0.2666
 1130SOL    HW1 3522   2.761   2.178   0.573  1.6713  0.0237  1.3010
 1130SOL    HW2 3523   2.817   2.131   0.440 -2.0353 -1.2619  0.0682
 1131SOL     OW 3524   0.483   2.651   3.350  0.5454 -0.0727 -0.1908
 1131SOL    HW1 3525   0.534   2.604   3.285  0.2772  1.0495 -1.2499
 1131SOL    HW2 3526   0.405   2.681   3.303 -0.0201  0.1221  0.8351
 1132SOL     OW 3527   2.236   3.373   0.338 -0.2090 -0.6978  0.0865
 1132SOL    HW1 3528   2.307   3.409   0.284 -1.2559 -1.3143 -1.7844
 1132SOL    HW2 3529   2.275   3.363   0.425  1.1412  1.6241 -0.1679
 1133SOL     OW 3530   2.992   0.494   3.550  0.3985  0.1306  0.9630
 1133SOL    HW1 3531   2.982   0.573   3.603 -0.6749 -0.4533  1.6896
 1133SOL    HW2 3532   2.941   0.511   3.471 -0.6249 -0.1721  1.5402
 1134SOL     OW 3533   2.858   1.623   0.947  0.1769 -0.1429  0.5189
 1134SOL    HW1 3534   2.950   1.652   0.944  0.6848 -1.6653  0.4095
 1134SOL    HW2 3535   2.810   1.699   0.980  1.5566  0.5044  1.1328
 1135SOL     OW 3536   2.075   3.302   2.130  0.2569 -0.2539  0.0458
 1135SOL    HW1 3537   2.042   3.302   2.220  0.0706 -0.2342 -0.0209
 1135SOL    HW2 3538   2.165   3.332   2.137  0.1182  0.1349  0.1817
 1136SOL     OW 3539   1.252   1.859   2.803 -0.2210 -0.5190 -0.0861
 1136SOL    HW1 3540   1.307   1.871   2.880 -0.7284 -0.9759  0.3575
 1136SOL    HW2 3541   1.263   1.766   2.781 -2.4412 -1.1816  1.2984
 1137SOL     OW 3542   2.621   3.602   2.650 -0.7294 -0.2016 -0.8206
 1137SOL    HW1 3543   2.556   3.585   2.718 -0.3557  0.4290 -0.2937
 1137SOL    HW2 3544   2.640   3.516   2.614 -0.0929 -0.7308  0.6694
 1138SOL     OW 3545   1.377   1.617   0.486 -0.1576  0.5181 -0.3715
 1138SOL    HW1 3546   1.347   1.706   0.468  0.0435  0.6407 -0.1149
 1138SOL    HW2 3547   1.420   1.623   0.572  0.2751  0.2710 -0.5701
 1139SOL     OW 3548   1.393   2.552   3.239  0.4404  0.3824  0.3946
 1139SOL    HW1 3549   1.439   2.631   3.269  0.1723  0.3329  0.9461
 1139SOL    HW2 3550   1.435   2.480   3.285  0.8665  0.1642 -0.3150
 1140SOL     OW 3551   3.473   1.176   0.968 -0.4362  0.1394 -0.2326
 1140SOL    HW1 3552   3.537   1.246   0.973  1.9447 -1.9170 -0.2694
 1140SOL    HW2 3553   3.420   1.186   1.048  2.5356 -0.4050  1.9653
 1141SOL     OW 3554   0.169   1.976   0.584  0.4126 -0.4449  0.0336
 1141SOL    HW1 3555   0.190   1.999   0.494 -1.6084 -0.9639 -0.6116
 1141SOL    HW2 3556   0.192   2.055   0.634 -0.2613  0.5816 -1.2127
 1142SOL     OW 3557   0.575   1.523   2.275  0.5562  0.0944 -0.0516
 1142SOL    HW1 3558   0.621   1.553   2.197  0.0203  0.7135 -0.1473
 1142SOL    HW2 3559   0.500   1.473   2.241 -0.0302  0.8923  0.0378
 1143SOL     OW 3560   3.593   2.540   0.502 -0.0592  0.3046 -0.3831
 1143SOL    HW1 3561   3.509   2.495   0.494 -0.0076  0.2236 -0.4833
 1143SOL    HW2 3562   3.572   2.625   0.540  0.0523 -0.5003  1.6195
 1144SOL     OW 3563   0.857   2.582   3.040 -0.0992 -1.2465 -0.2198
 1144SOL    HW1 3564   0.797   2.559   3.110 -0.7769 -0.7362 -0.6127
 1144SOL    HW2 3565   0.860   2.504   2.984 -1.2227 -0.9361 -0.7518
 1145SOL     OW 3566   0.629   0.072   0.218 -0.2933  0.0679 -0.2936
 1145SOL    HW1 3567   0.716   0.089   0.255 -0.9336  2.6560  0.1944
 1145SOL    HW2 3568   0.642   0.078   0.123 -0.1730  2.1404 -0.1951
 1146SOL     OW 3569   3.405   0.586   2.993 -0.0104 -0.0072 -0.0822
 1146SOL    HW1 3570   3.336   0.571   3.057 -0.4040  0.5925 -0.3515
 1146SOL    HW2 3571   3.437   0.675   3.012  0.3868 -0.1118 -0.2395
 1147SOL     OW 3572   1.437   2.081   3.459 -0.1146  0.1944 -0.4905
 1147SOL    HW1 3573   1.355   2.129   3.476  0.1635  0.5790 -0.2184
 1147SOL    HW2 3574   1.446   2.022   3.533  0.2349  0.6829 -0.1376
 1148SOL     OW 3575   3.624   1.574   1.273  0.3375 -0.2397 -0.5886
 1148SOL    HW1 3576   3.716   1.548   1.264  0.4782  0.1559 -0.3008
 1148SOL    HW2 3577   3.616   1.652   1.218  0.2186 -0.1624 -0.4591
 1149SOL     OW 3578   1.443   3.201   3.502  0.0542  0.1504  0.2133
 1149SOL    HW1 3579   1.524   3.223   3.547 -0.9414  0.0589  2.2148
 1149SOL    HW2 3580   1.442   3.105   3.500  0.1481  0.1554 -0.1228
 1150SOL     OW 3581   0.657   2.226   2.194  0.6773 -0.1747  0.2513
 1150SOL    HW1 3582   0.688   2.314   2.218 -0.2571 -0.0298  0.9630
 1150SOL    HW2 3583   0.709   2.167   2.248  1.3628 -0.0753 -0.2847
 1151SOL     OW 3584   1.481   2.007   0.310 -0.0571 -0.1875  0.4823
 1151SOL    HW1 3585   1.402   2.056   0.290 -0.6043 -1.2979 -0.1831
 1151SOL    HW2 3586   1.545   2.073   0.338 -0.3428  1.0504 -1.6120
 1152SOL     OW 3587   0.612   1.739   1.081 -0.8413  0.4157  0.1131
 1152SOL    HW1 3588   0.688   1.691   1.045 -0.1209 -0.0838  2.1825
 1152SOL    HW2 3589   0.548   1.671   1.100 -0.6843  0.5140  1.0128
 1153SOL     OW 3590   1.410   0.447   2.218  0.1836  0.1512 -0.2962
 1153SOL    HW1 3591   1.400   0.534   2.256  2.4536 -0.2080  1.3154
 1153SOL    HW2 3592   1.326   0.429   2.175  0.2125  3.8096 -2.2195
 1154SOL     OW 3593   2.902   2.049   0.854 -0.4800 -0.1340  0.1344
 1154SOL    HW1 3594   2.861   2.071   0.770  3.2113 -0.7238 -2.0261
 1154SOL    HW2 3595   2.984   2.098   0.854  0.4337 -1.4831  2.6469
 1155SOL     OW 3596   0.456   0.877   1.828 -0.1077 -0.0693 -0.3289
 1155SOL    HW1 3597   0.447   0.884   1.923  1.3804 -0.7624 -0.1075
 1155SOL    HW2 3598   0.373   0.910   1.794  0.1624  2.3230  1.1107
 1156SOL     OW 3599   1.098   0.345   0.099  0.8219  0.0536  0.5597
 1156SOL    HW1 3600   1.107   0.438   0.119  2.5801  0.5143 -1.9532
 1156SOL    HW2 3601   1.045   0.343   0.019 -0.0751 -1.2093  1.1531
 1157SOL     OW 3602   1.335   1.933   0.521  0.2851 -0.5809 -0.3411
 1157SOL    HW1 3603   1.275   1.890   0.460 -0.8367 -0.6151  0.7267
 1157SOL    HW2 3604   1.406   1.967   0.466 -0.1907 -1.4322 -1.5236
 1158SOL     OW 3605   1.901   1.537   1.923  0.3903 -0.0409 -0.1871
 1158SOL    HW1 3606   1.891   1.531   1.828 -0.2468  0.1667 -0.1311
 1158SOL    HW2 3607   1.841   1.472   1.958  2.0068 -1.4992  0.0269
 1159SOL     OW 3608   1.985   0.460   3.648  0.4022 -0.3912 -0.3810
 1159SOL    HW1 3609   1.997   0.502   3.563  0.7752 -2.5772 -1.4882
 1159SOL    HW2 3610   1.894   0.430   3.648 -0.0267  0.7976  0.6246
 1160SOL     OW 3611   0.292   3.445   0.441  0.3160 -0.0202  0.3567
 1160SOL    HW1 3612   0.284   3.468   0.349 -0.6661 -0.7916  0.2350
 1160SOL    HW2 3613   0.344   3.516   0.479 -0.2635  0.9204 -0.5470
 1161SOL     OW 3614   0.675   0.726   2.519  0.0549  0.4260 -0.3324
 1161SOL    HW1 3615   0.664   0.676   2.438  0.9946 -0.2405 -0.0589
 1161SOL    HW2 3616   0.588   0.762   2.537 -0.6998 -1.2755 -0.4331
 1162SOL     OW 3617   3.063   1.937   1.947  0.4547 -0.4334 -0.3568
 1162SOL    HW1 3618   3.156   1.914   1.938  1.0400  1.1820  1.0435
 1162SOL    HW2 3619   3.035   1.889   2.025  0.7659  0.8586  0.5754
 1163SOL     OW 3620   0.950   0.038   3.645  0.0341 -0.4986 -0.0815
 1163SOL    HW1 3621   1.006   0.113   3.628 -0.5802 -0.3597 -1.6472
 1163SOL    HW2 3622   1.007  -0.038   3.634  0.3182 -0.3112  0.0879
 1164SOL     OW 3623   1.873   3.568   1.101 -0.7919  0.6441  0.4580
 1164SOL    HW1 3624   1.796   3.545   1.154  0.0009 -0.5313  1.1301
 1164SOL    HW2 3625   1.873   3.664   1.100  0.0229  0.7954  3.9085
 1165SOL     OW 3626   1.985   0.235   0.068 -0.2150 -0.3557  0.5772
 1165SOL    HW1 3627   2.032   0.308   0.027  0.1550 -0.0924  1.4275
 1165SOL    HW2 3628   1.994   0.252   0.162  0.3958 -1.8329  0.7996
 1166SOL     OW 3629   3.267   0.057   1.375 -0.2583 -0.6899  0.2788
 1166SOL    HW1 3630   3.304  -0.027   1.347 -0.8484 -1.1741  0.9052
 1166SOL    HW2 3631   3.179   0.035   1.406 -0.3951  0.1532  0.5117
 1167SOL     OW 3632   0.845   0.657   3.071 -0.1751 -0.4939  0.5200
 1167SOL    HW1 3633   0.819   0.674   2.980  1.2750  2.6437  0.5734
 1167SOL    HW2 3634   0.930   0.614   3.063 -0.1957 -0.5154  0.4085
 1168SOL     OW 3635   3.350   0.497   1.623 -0.4655 -0.5228 -0.4774
 1168SOL    HW1 3636   3.410   0.424   1.606  0.9932  0.2463  1.0642
 1168SOL    HW2 3637   3.265   0.467   1.590 -0.4543 -3.8258  1.9635
 1169SOL     OW 3638   2.159   1.137   2.346  0.1145 -0.2589 -0.0791
 1169SOL    HW1 3639   2.127   1.047   2.340 -0.9371  0.1807 -1.8132
 1169SOL    HW2 3640   2.080   1.191   2.344  0.7902  0.7720 -2.1884
 1170SOL     OW 3641   3.149   2.472   0.269 -0.1419 -0.0634 -0.3740
 1170SOL    HW1 3642   3.244   2.470   0.260 -0.2375 -0.5900 -1.5804
 1170SOL    HW2 3643   3.132   2.429   0.352  0.6010 -2.0764 -1.1876
 1171SOL     OW 3644   2.269   3.216   1.441  0.5184 -0.3907  0.8960
 1171SOL    HW1 3645   2.335   3.158   1.405  0.3094  0.3133 -0.7003
 1171SOL    HW2 3646   2.306   3.304   1.431 -1.2145  0.1818 -1.5353
 1172SOL     OW 3647   0.065   3.532   0.598 -0.1906  0.2316  0.1379
 1172SOL    HW1 3648   0.067   3.609   0.541 -2.8051 -0.4953 -1.1098
 1172SOL    HW2 3649   0.146   3.485   0.578 -0.5315  0.5439 -2.2806
 1173SOL     OW 3650   0.148   0.679   1.530  0.3224 -0.2478  0.1226
 1173SOL    HW1 3651   0.073   0.619   1.534  0.6426 -1.0063 -2.9533
 1173SOL    HW2 3652   0.220   0.625   1.498  1.6277  0.9963  0.8472
 1174SOL     OW 3653   0.343   0.685   0.458 -0.3966 -0.1004 -0.0717
 1174SOL    HW1 3654   0.338   0.759   0.398  0.6845  1.2500  1.4321
 1174SOL    HW2 3655   0.432   0.688   0.493 -1.0878 -0.5937  1.8788
 1175SOL     OW 3656   3.343   3.503   1.060  0.2970 -0.2606 -0.1199
 1175SOL    HW1 3657   3.362   3.409   1.061  1.8645 -0.0334 -1.8664
 1175SOL    HW2 3658   3.404   3.539   0.995 -0.9477  1.8243 -0.2359
 1176SOL     OW 3659   0.184   1.120   1.527 -0.0664 -0.4160  0.0234
 1176SOL    HW1 3660   0.088   1.114   1.523 -0.1226  0.8448 -1.1624
 1176SOL    HW2 3661   0.213   1.102   1.438  0.7207  0.3178  0.1198
 1177SOL     OW 3662   2.650   3.038   3.549 -0.0836 -0.3536  0.6390
 1177SOL    HW1 3663   2.655   3.123   3.592  1.0818 -0.8619  1.6145
 1177SOL    HW2 3664   2.557   3.021   3.537 -0.3067  1.3566 -0.2425
 1178SOL     OW 3665   1.170   0.451   3.113 -0.0451  0.0790 -0.1047
 1178SOL    HW1 3666   1.195   0.540   3.139 -0.1407 -0.2456  1.1332
 1178SOL    HW2 3667   1.251   0.412   3.080  0.9955 -0.6459  2.9886
 1179SOL     OW 3668   1.456   3.665   0.346 -0.6070 -0.1561 -0.5465
 1179SOL    HW1 3669   1.490   3.740   0.298 -1.7904  0.5160 -0.3711
 1179SOL    HW2 3670   1.531   3.607   0.356  0.6138  1.4628  0.2164
 1180SOL     OW 3671   1.489   0.886   3.067 -0.3567  0.1282  0.4309
 1180SOL    HW1 3672   1.562   0.912   3.123 -0.3269  0.8739  0.0629
 1180SOL    HW2 3673   1.444   0.817   3.115  2.0391 -2.1742 -0.3657
 1181SOL     OW 3674   3.274   3.170   2.528  0.3281  0.0955 -0.1999
 1181SOL    HW1 3675   3.346   3.121   2.491  0.8929  1.0225 -0.3691
 1181SOL    HW2 3676   3.271   3.251   2.477  1.6097  1.7548  2.1486
 1182SOL     OW 3677   0.191   3.701   1.771 -0.2598  0.4287  0.0797
 1182SOL    HW1 3678   0.159   3.670   1.856 -0.6903  1.1018  0.1638
 1182SOL    HW2 3679   0.275   3.743   1.791 -0.4444  0.7417  0.1970
 1183SOL     OW 3680   1.721   1.388   1.729 -0.1981  0.1582  0.1542
 1183SOL    HW1 3681   1.766   1.378   1.645  0.1466  0.4914  0.2989
 1183SOL    HW2 3682   1.681   1.302   1.744 -0.8658  0.3116 -0.6947
 1184SOL     OW 3683   0.359   2.159   1.754 -0.5588 -0.2511 -0.9915
 1184SOL    HW1 3684   0.413   2.220   1.804 -0.4772 -0.0487 -1.3195
 1184SOL    HW2 3685   0.394   2.073   1.775 -0.6477 -0.1835 -0.5563
 1185SOL     OW 3686   0.649   1.709   1.361 -0.4687 -0.1791 -0.4974
 1185SOL    HW1 3687   0.690   1.769   1.300  1.4315 -1.3309 -0.4215
 1185SOL    HW2 3688   0.659   1.623   1.320 -3.7802 -0.4951 -0.9768
 1186SOL     OW 3689   1.205   0.678   0.153 -0.3106 -0.3757  0.4896
 1186SOL    HW1 3690   1.226   0.718   0.068 -0.1326 -1.6067 -0.0679
 1186SOL    HW2 3691   1.230   0.745   0.217 -0.1195  0.4434 -0.4108
 1187SOL     OW 3692   0.379   0.834   2.998 -0.2723 -0.0158 -0.1479
 1187SOL    HW1 3693   0.334   0.831   3.082  0.4443  1.1770  0.3131
 1187SOL    HW2 3694   0.372   0.745   2.964  2.1459 -1.4648  2.6439
 1188SOL     OW 3695   1.895   1.292   3.050 -0.0164 -0.1602 -0.6005
 1188SOL    HW1 3696   1.982   1.271   3.084 -0.4952 -0.2470  0.6530
 1188SOL    HW2 3697   1.908   1.372   2.999  0.6108  0.5461  0.5955
 1189SOL     OW 3698   1.726   2.056   0.052  0.3782 -0.1836  0.0056
 1189SOL    HW1 3699   1.684   1.979   0.090 -0.2819 -0.3675 -1.0464
 1189SOL    HW2 3700   1.811   2.024   0.022  0.3058 -0.3905  0.0164
 1190SOL     OW 3701   2.317   1.432   1.481 -0.0973 -0.3666  0.4946
 1190SOL    HW1 3702   2.330   1.338   1.473  0.9896 -0.3524  1.7695
 1190SOL    HW2 3703   2.405   1.468   1.487 -0.5272  0.5289  1.9236
 1191SOL     OW 3704   1.796   3.516   2.647 -0.4173 -0.5904  0.2340
 1191SOL    HW1 3705   1.759   3.457   2.581  0.4826 -0.2574 -0.5865
 1191SOL    HW2 3706   1.755   3.600   2.629 -0.0651 -0.4672  0.0049
 1192SOL     OW 3707   2.345   1.695   2.556  0.9250  0.6116 -0.8829
 1192SOL    HW1 3708   2.384   1.617   2.594 -0.1436  0.1608 -0.6805
 1192SOL    HW2 3709   2.251   1.685   2.571  0.8144  2.2303 -0.2804
 1193SOL     OW 3710   2.888   3.122   1.443 -0.0253 -0.3920 -0.0999
 1193SOL    HW1 3711   2.979   3.101   1.460  0.3802  1.8221  0.8255
 1193SOL    HW2 3712   2.890   3.178   1.365  0.0079  3.0637  2.1481
 1194SOL     OW 3713   2.011   3.046   0.118 -0.3811 -0.1963 -0.3802
 1194SOL    HW1 3714   1.989   3.000   0.037  1.2092 -1.0822 -0.3367
 1194SOL    HW2 3715   1.928   3.049   0.166 -0.8348 -1.8002 -0.9941
 1195SOL     OW 3716   1.935   0.311   1.840 -0.2113 -0.8514 -0.4150
 1195SOL    HW1 3717   1.878   0.289   1.914 -0.0483 -0.4967 -0.1767
 1195SOL    HW2 3718   1.892   0.385   1.797  1.0108  0.7254  0.9313
 1196SOL     OW 3719   2.382   1.899   3.173  0.3450  0.2847 -0.0511
 1196SOL    HW1 3720   2.475   1.920   3.183 -0.1618  2.1997  0.9725
 1196SOL    HW2 3721   2.359   1.935   3.087  0.4168  0.2209 -0.0984
 1197SOL     OW 3722   1.492   1.515   2.688 -0.6457 -0.4907 -0.2188
 1197SOL    HW1 3723   1.408   1.554   2.711 -0.3587  1.0005 -1.4794
 1197SOL    HW2 3724   1.471   1.447   2.624 -0.9157 -0.2161 -0.4252
 1198SOL     OW 3725   1.705   3.019   0.515  0.5355  0.1374  0.2922
 1198SOL    HW1 3726   1.734   3.068   0.592 -2.2889  1.5376  0.6056
 1198SOL    HW2 3727   1.612   3.040   0.507  0.3780 -1.1584 -2.6525
 1199SOL     OW 3728   2.809   3.253   2.633  0.0037 -0.6485 -0.0044
 1199SOL    HW1 3729   2.877   3.208   2.684  0.8859  0.2389 -0.3623
 1199SOL    HW2 3730   2.820   3.221   2.544 -0.9100 -1.4783  0.1741
 1200SOL     OW 3731   3.600   3.492   2.730  0.2967  0.1997 -0.1972
 1200SOL    HW1 3732   3.592   3.488   2.635 -2.4963  1.2047 -0.1084
 1200SOL    HW2 3733   3.552   3.416   2.762 -0.8294  1.1170  0.3914
 1201SOL     OW 3734   1.657   1.929   1.940 -0.0353 -0.6048 -0.6407
 1201SOL    HW1 3735   1.591   1.994   1.963 -0.9998 -1.7641 -0.0590
 1201SOL    HW2 3736   1.642   1.857   2.001  2.0939 -0.7105 -0.1384
 1202SOL     OW 3737   3.697   2.898  -0.003 -0.0411  0.0061  0.1595
 1202SOL    HW1 3738   3.711   2.949   0.077 -0.8766  0.1652  0.2163
 1202SOL    HW2 3739   3.765   2.929  -0.064 -1.3157  2.1645 -0.2586
 1203SOL     OW 3740   3.431   3.525   3.088  0.7846 -0.1987 -0.1334
 1203SOL    HW1 3741   3.481   3.455   3.047 -0.0507 -0.4070 -0.8259
 1203SOL    HW2 3742   3.362   3.481   3.137  1.4569  0.0731  1.0917
 1204SOL     OW 3743   0.363   2.958   0.465 -0.2820 -0.3176  0.7531
 1204SOL    HW1 3744   0.272   2.964   0.435 -0.4450 -0.2261  1.2584
 1204SOL    HW2 3745   0.395   2.876   0.427 -0.9085 -0.9018  1.4448
 1205SOL     OW 3746   0.718   1.560   3.230  0.2786  0.2915 -0.1859
 1205SOL    HW1 3747   0.698   1.466   3.230  0.1628  0.3151 -0.3855
 1205SOL    HW2 3748   0.649   1.599   3.177 -3.2115  1.3071  4.4450
 1206SOL     OW 3749   1.977   3.419   1.503  0.7221 -0.3852  0.4482
 1206SOL    HW1 3750   2.040   3.485   1.532 -1.4394  1.4178  1.3335
 1206SOL    HW2 3751   1.988   3.417   1.408  2.8881 -1.0135  0.6561
 1207SOL     OW 3752   0.290   2.278   3.658  0.0586  0.4074  0.0493
 1207SOL    HW1 3753   0.336   2.195   3.671 -0.5929 -0.2247 -1.4157
 1207SOL    HW2 3754   0.345   2.325   3.595 -0.5505  0.2429 -0.6216
 1208SOL     OW 3755   1.323   0.367   3.628 -0.0599 -0.0560  0.1470
 1208SOL    HW1 3756   1.308   0.280   3.591  1.3353  0.0129 -0.6650
 1208SOL    HW2 3757   1.240   0.391   3.669 -0.2970 -1.9840  0.8491
 1209SOL     OW 3758   0.465   0.853   2.664 -0.4311  0.0566 -0.5909
 1209SOL    HW1 3759   0.386   0.858   2.610 -1.6700 -0.2773  1.1353
 1209SOL    HW2 3760   0.450   0.779   2.723  1.7266 -0.8356 -1.0374
 1210SOL     OW 3761   0.919   0.353   1.017 -0.1654 -0.2631  0.1341
 1210SOL    HW1 3762   0.842   0.394   1.057 -0.6856 -1.2047  0.1193
 1210SOL    HW2 3763   0.937   0.405   0.939 -2.5463 -1.6831 -1.4669
 1211SOL     OW 3764   1.251   2.300   0.755  0.0550 -1.1600  0.1293
 1211SOL    HW1 3765   1.332   2.349   0.771  0.0643 -1.0964 -0.1041
 1211SOL    HW2 3766   1.255   2.226   0.815  0.0280 -0.8561  0.5079
 1212SOL     OW 3767   2.517   2.864   3.320 -0.2422 -0.1858  0.8541
 1212SOL    HW1 3768   2.476   2.783   3.351 -1.4328 -0.9516 -2.3214
 1212SOL    HW2 3769   2.445   2.926   3.311 -0.5603 -0.8718 -2.7409
 1213SOL     OW 3770   0.662   2.082   1.909  0.3805  0.2547 -0.0290
 1213SOL    HW1 3771   0.719   2.149   1.872  0.2602 -0.0679 -0.8217
 1213SOL    HW2 3772   0.638   2.116   1.996  0.4276  1.1647 -0.3605
 1214SOL     OW 3773   2.975   1.796   1.739  0.4494 -0.3623  0.2963
 1214SOL    HW1 3774   3.007   1.739   1.809  1.3408  0.0617  0.2371
 1214SOL    HW2 3775   3.016   1.881   1.756 -2.0616  0.7506  1.3006
 1215SOL     OW 3776   3.443   2.144   1.433 -0.2850  0.4323 -0.3441
 1215SOL    HW1 3777   3.428   2.144   1.528  1.3875  0.4939 -0.0472
 1215SOL    HW2 3778   3.427   2.234   1.406 -1.0109  0.3609 -0.1670
 1216SOL     OW 3779   2.702   3.124   0.190  0.7241 -0.1928 -0.9094
 1216SOL    HW1 3780   2.778   3.177   0.213 -0.6974  1.5080  0.1165
 1216SOL    HW2 3781   2.657   3.174   0.122 -0.6891 -0.0027  0.1291
 1217SOL     OW 3782   2.815   1.170   3.368  0.3852 -0.1849 -0.3448
 1217SOL    HW1 3783   2.820   1.200   3.459  0.6339  3.1914 -1.3274
 1217SOL    HW2 3784   2.736   1.212   3.333 -0.8400 -3.0034 -1.2749
 1218SOL     OW 3785   1.796   0.575   2.654 -0.0306 -0.0251 -0.5959
 1218SOL    HW1 3786   1.838   0.489   2.662 -0.2161 -0.0699 -0.0441
 1218SOL    HW2 3787   1.713   0.557   2.610  1.2769  0.3068 -3.4088
 1219SOL     OW 3788   2.692   0.081   1.680  0.5306  0.1107 -0.0103
 1219SOL    HW1 3789   2.676   0.091   1.774  1.4675  0.4220  0.1283
 1219SOL    HW2 3790   2.645   0.002   1.655  0.6306 -0.2159  0.8140
 1220SOL     OW 3791   0.882   0.606   3.382  0.5486 -0.5443  0.6011
 1220SOL    HW1 3792   0.870   0.693   3.343  1.3214 -1.0626 -0.8720
 1220SOL    HW2 3793   0.793   0.570   3.386  0.4456 -0.5725 -1.0020
 1221SOL     OW 3794   2.915   0.867   2.704 -0.3154 -0.4082  0.2796
 1221SOL    HW1 3795   2.976   0.925   2.748 -0.3501 -1.1194  1.2919
 1221SOL    HW2 3796   2.957   0.848   2.619  0.7156 -0.6206  0.8248
 1222SOL     OW 3797   0.771   0.744   2.791  0.0526 -0.3790 -0.1360
 1222SOL    HW1 3798   0.826   0.822   2.780 -0.1486 -0.3758 -1.2854
 1222SOL    HW2 3799   0.735   0.727   2.703 -4.3336  1.4723  1.0272
 1223SOL     OW 3800   1.613   0.162   0.202 -0.1437 -0.3430  0.0831
 1223SOL    HW1 3801   1.631   0.232   0.140  0.3739 -0.1473  0.4596
 1223SOL    HW2 3802   1.595   0.206   0.285  0.4368 -0.6620  0.3834
 1224SOL     OW 3803   2.715   1.042   2.878 -0.4446  0.0616 -0.1478
 1224SOL    HW1 3804   2.660   1.059   2.954 -0.8467  0.6063 -0.5560
 1224SOL    HW2 3805   2.741   0.950   2.888 -0.9219 -0.0239  0.3716
 1225SOL     OW 3806   2.176   1.309   3.544 -0.5423  0.4769  0.0065
 1225SOL    HW1 3807   2.225   1.289   3.624 -0.9395 -0.8061 -0.0468
 1225SOL    HW2 3808   2.240   1.353   3.488 -0.0930  0.8586  0.7974
 1226SOL     OW 3809   0.262   3.092   1.454  0.3169  0.0136  1.0612
 1226SOL    HW1 3810   0.188   3.071   1.510 -1.0937  1.6189 -0.0974
 1226SOL    HW2 3811   0.336   3.099   1.514 -0.8085  0.1307  2.4924
 1227SOL     OW 3812   1.302   0.715   3.217 -0.8342  0.3772  0.7880
 1227SOL    HW1 3813   1.343   0.653   3.278 -0.1592 -0.5402 -0.5563
 1227SOL    HW2 3814   1.281   0.791   3.272 -0.4817 -0.5021  2.2137
 1228SOL     OW 3815   0.559   2.828   0.987  0.0614  0.3372 -0.6539
 1228SOL    HW1 3816   0.592   2.740   0.969 -1.2848 -0.3457  0.0946
 1228SOL    HW2 3817   0.502   2.849   0.913 -0.8889 -0.1033 -0.0696
 1229SOL     OW 3818   3.594   3.647   2.394 -0.2361  0.1811  0.6359
 1229SOL    HW1 3819   3.636   3.722   2.435 -0.2491  0.2897  0.4512
 1229SOL    HW2 3820   3.518   3.683   2.349 -0.5940 -0.0303  1.0613
 1230SOL     OW 3821   0.285   2.069   0.941 -0.1854  0.4020 -0.0762
 1230SOL    HW1 3822   0.352   2.051   0.875  0.3825 -0.9283  0.8387
 1230SOL    HW2 3823   0.249   1.984   0.963 -0.9563  0.9239  0.7410
 1231SOL     OW 3824   2.909   0.021   2.117 -0.1075  0.3715 -0.0399
 1231SOL    HW1 3825   2.824   0.001   2.079  0.3582  0.6266 -1.2541
 1231SOL    HW2 3826   2.971   0.011   2.045  0.7016  1.6583  0.4291
 1232SOL     OW 3827   1.121   2.015   1.360  0.0579 -0.3191 -0.2407
 1232SOL    HW1 3828   1.096   2.045   1.273  1.6864  1.0272 -0.3010
 1232SOL    HW2 3829   1.173   1.936   1.343 -2.8840 -2.4029 -0.1810
 1233SOL     OW 3830   0.766   1.764   3.453 -0.2677  0.0980  0.1735
 1233SOL    HW1 3831   0.767   1.675   3.419  2.0046 -0.2453  0.9531
 1233SOL    HW2 3832   0.774   1.820   3.375 -0.4338 -0.4296 -0.2264
 1234SOL     OW 3833   2.012   3.375   1.238 -0.6956  0.2406  0.0809
 1234SOL    HW1 3834   1.979   3.451   1.189 -1.8801 -0.5976 -0.4591
 1234SOL    HW2 3835   2.079   3.338   1.181 -0.2070  0.7882  0.2861
 1235SOL     OW 3836   2.845   2.089   1.258 -0.7773  0.4255  0.1636
 1235SOL    HW1 3837   2.937   2.063   1.264 -0.4622  1.3678 -0.3821
 1235SOL    HW2 3838   2.815   2.051   1.176 -0.6225  0.8403 -0.0902
 1236SOL     OW 3839   2.726   1.866   1.725  0.7527 -0.3190 -0.8848
 1236SOL    HW1 3840   2.820   1.849   1.733  0.4563 -1.2574  1.4877
 1236SOL    HW2 3841   2.720   1.961   1.718  1.8862 -0.2561 -1.2809
 1237SOL     OW 3842   2.167   2.310   0.427 -0.9539 -0.1276  1.1677
 1237SOL    HW1 3843   2.146   2.247   0.495  1.1379 -1.5846  0.5829
 1237SOL    HW2 3844   2.262   2.321   0.434 -0.4417 -1.2711 -2.2038
 1238SOL     OW 3845   0.844   0.149   2.081 -0.0605  1.0374 -0.2717
 1238SOL    HW1 3846   0.788   0.090   2.031 -0.7443  1.6483 -0.2423
 1238SOL    HW2 3847   0.929   0.143   2.037 -0.4565  1.0051 -1.0641
 1239SOL     OW 3848   2.209   3.216   1.104 -0.2697 -0.2710  0.5264
 1239SOL    HW1 3849   2.220   3.141   1.162  0.4799 -0.3067  0.3608
 1239SOL    HW2 3850   2.216   3.179   1.016  2.6410  0.2738  0.4281
 1240SOL     OW 3851   3.671   0.867   2.356 -0.1562 -0.3839 -0.8631
 1240SOL    HW1 3852   3.752   0.917   2.372 -0.5524 -0.3592  1.5080
 1240SOL    HW2 3853   3.698   0.795   2.299  1.7910 -0.8962  0.5672
 1241SOL     OW 3854   1.195   3.189   2.544  0.0088 -0.5400 -0.0989
 1241SOL    HW1 3855   1.224   3.215   2.632  0.6714 -0.4258 -0.3407
 1241SOL    HW2 3856   1.264   3.130   2.513  0.2787  0.1843 -0.9178
 1242SOL     OW 3857   1.043   2.048   2.832  0.2652 -0.6228 -0.3581
 1242SOL    HW1 3858   1.062   2.138   2.858  0.8269 -0.9175  0.2604
 1242SOL    HW2 3859   1.125   2.015   2.796  0.1273 -0.9745 -0.3520
 1243SOL     OW 3860   3.013   0.829   2.150 -0.0754 -0.2899  0.1544
 1243SOL    HW1 3861   2.961   0.896   2.106  0.6513  0.4596  0.4180
 1243SOL    HW2 3862   2.983   0.746   2.111 -2.9818 -0.1320  1.7695
 1244SOL     OW 3863   1.227   0.057   2.615  0.4340  0.3572 -0.8104
 1244SOL    HW1 3864   1.270  -0.028   2.623  0.2504  0.1874 -1.5272
 1244SOL    HW2 3865   1.220   0.089   2.705 -1.4614 -1.3717 -0.2613
 1245SOL     OW 3866   3.573   3.095   2.659  0.0474 -0.1541  0.2394
 1245SOL    HW1 3867   3.543   3.056   2.577 -2.0447  0.0034  0.8698
 1245SOL    HW2 3868   3.520   3.174   2.670  0.2555 -0.1815  1.7496
 1246SOL     OW 3869   0.889   2.330   2.906  0.2407 -0.1794 -0.0033
 1246SOL    HW1 3870   0.836   2.261   2.866  2.2654 -1.5578 -0.4494
 1246SOL    HW2 3871   0.928   2.289   2.983  1.1132  0.5922 -0.0170
 1247SOL     OW 3872   2.305   1.251   2.535 -0.2945 -0.1207 -0.2897
 1247SOL    HW1 3873   2.310   1.200   2.616  0.7473  0.2599 -0.1072
 1247SOL    HW2 3874   2.252   1.197   2.477  2.4173 -2.4600 -0.8172
 1248SOL     OW 3875   1.508   2.920   0.071 -0.0068 -0.2935 -0.0152
 1248SOL    HW1 3876   1.467   2.841   0.106 -1.6005  0.6148  0.2299
 1248SOL    HW2 3877   1.578   2.940   0.134 -0.6628 -0.5740  0.8239
 1249SOL     OW 3878   2.699   3.664   3.107  0.4656 -0.5851  0.2697
 1249SOL    HW1 3879   2.729   3.581   3.144 -1.7984 -2.2421 -1.3108
 1249SOL    HW2 3880   2.652   3.708   3.179 -2.2073 -2.8442  0.0667
 1250SOL     OW 3881   3.126   2.187   0.725  0.9850 -0.0640 -0.0202
 1250SOL    HW1 3882   3.103   2.099   0.695  0.8780 -0.6138  1.5693
 1250SOL    HW2 3883   3.211   2.204   0.684  0.7095 -0.6275 -0.8695
 1251SOL     OW 3884   2.874   0.664   1.028  0.1433 -0.3116 -0.3600
 1251SOL    HW1 3885   2.874   0.755   1.000  0.5917  0.7664  2.7312
 1251SOL    HW2 3886   2.966   0.645   1.048  0.0482 -1.4612 -0.9278
 1252SOL     OW 3887   2.284   1.667   1.329 -0.0055 -0.2820 -0.4844
 1252SOL    HW1 3888   2.283   1.582   1.372 -1.2259 -0.8766 -1.5906
 1252SOL    HW2 3889   2.372   1.701   1.343  0.3759 -1.5464  0.3115
 1253SOL     OW 3890   1.300   0.602   0.541 -0.0886  0.2946 -0.0139
 1253SOL    HW1 3891   1.311   0.697   0.549  1.8125  0.1931 -0.8724
 1253SOL    HW2 3892   1.369   0.575   0.481  0.2151 -1.8222  1.1819
 1254SOL     OW 3893   3.332   0.248   3.103  0.3561  0.3771  0.1391
 1254SOL    HW1 3894   3.365   0.167   3.063  0.9072 -0.2781  1.8032
 1254SOL    HW2 3895   3.239   0.250   3.081  0.7803  0.5177 -1.8513
 1255SOL     OW 3896   3.696   2.861   2.092 -0.1269  0.5022 -0.5699
 1255SOL    HW1 3897   3.741   2.862   2.176 -0.8491 -1.7322 -0.0924
 1255SOL    HW2 3898   3.661   2.950   2.082  0.8884  1.1069  0.9580
 1256SOL     OW 3899   3.217   3.269   3.552  0.6645  0.5354  0.3874
 1256SOL    HW1 3900   3.227   3.180   3.518 -1.3347  1.2677 -2.4070
 1256SOL    HW2 3901   3.152   3.261   3.622 -0.6964 -0.0122 -0.9114
 1257SOL     OW 3902   0.055   2.484   1.063  0.2488  0.4726 -0.6345
 1257SOL    HW1 3903   0.117   2.414   1.041  1.3863  1.4877 -0.7917
 1257SOL    HW2 3904   0.070   2.501   1.156 -3.2895 -2.5782  0.7326
 1258SOL     OW 3905   3.510   2.024   3.575  0.7973  0.0679 -0.1982
 1258SOL    HW1 3906   3.559   2.088   3.523  0.0977  1.1691  0.4557
 1258SOL    HW2 3907   3.472   1.964   3.510  0.8551  0.7512 -0.8749
 1259SOL     OW 3908   3.081   0.960   3.638 -0.4133 -0.4984  0.3461
 1259SOL    HW1 3909   3.153   0.905   3.608 -1.5880 -3.2206  2.1257
 1259SOL    HW2 3910   3.018   0.959   3.567  0.9672  1.4579 -1.0034
 1260SOL     OW 3911   2.391   2.812   0.119  0.6716  0.2705  0.3686
 1260SOL    HW1 3912   2.348   2.895   0.097  0.4496  0.5454  1.7647
 1260SOL    HW2 3913   2.323   2.746   0.104  0.9918  0.2691 -1.2025
 1261SOL     OW 3914   1.376   2.287   2.223  0.1207 -0.0109  0.9462
 1261SOL    HW1 3915   1.467   2.284   2.253  0.3009  1.0237  0.5279
 1261SOL    HW2 3916   1.361   2.379   2.202 -1.0488 -0.1630  1.0747
 1262SOL     OW 3917   1.735   3.292   1.537  1.2422 -0.9570  0.1470
 1262SOL    HW1 3918   1.815   3.344   1.546  0.3120  0.6554 -0.5096
 1262SOL    HW2 3919   1.709   3.273   1.627  1.6482 -0.3444  0.4040
 1263SOL     OW 3920   0.127   0.261   1.635  0.2749  0.0166  0.2058
 1263SOL    HW1 3921   0.207   0.215   1.658 -0.5125 -1.0342  0.9188
 1263SOL    HW2 3922   0.073   0.258   1.714 -0.9192 -0.2731 -0.5903
 1264SOL     OW 3923   1.052   0.856   0.511  0.0832  0.7323  0.0072
 1264SOL    HW1 3924   1.147   0.854   0.525  0.2315 -0.6955 -1.0755
 1264SOL    HW2 3925   1.022   0.767   0.531 -1.3866  1.6631  2.4333
 1265SOL     OW 3926   1.465   2.636   1.088 -0.9046  0.4372  0.5745
 1265SOL    HW1 3927   1.490   2.553   1.047 -0.6279  1.1782 -0.8167
 1265SOL    HW2 3928   1.537   2.657   1.147 -0.3589  0.3162 -0.0405
 1266SOL     OW 3929   0.255   1.930   1.997 -0.5119  0.7888 -1.0051
 1266SOL    HW1 3930   0.294   1.905   2.081 -1.0140  0.5019 -0.8542
 1266SOL    HW2 3931   0.323   1.910   1.933 -0.1484  0.9492 -0.6747
 1267SOL     OW 3932   0.663   3.405   0.358 -0.1244  0.2491 -0.4309
 1267SOL    HW1 3933   0.578   3.361   0.356 -0.1758  0.3601 -0.7844
 1267SOL    HW2 3934   0.665   3.457   0.278  1.6797 -2.3711 -2.2340
 1268SOL     OW 3935   1.512   1.296   2.518  0.2715 -0.1181 -0.1831
 1268SOL    HW1 3936   1.561   1.214   2.520 -1.0144 -0.8979  0.6710
 1268SOL    HW2 3937   1.433   1.279   2.570 -0.5865  1.2983 -0.9388
 1269SOL     OW 3938   3.458   2.523   0.157 -0.1731  0.1334 -0.1556
 1269SOL    HW1 3939   3.485   2.541   0.067 -2.5551 -0.3254 -1.0246
 1269SOL    HW2 3940   3.489   2.434   0.174 -1.1351 -0.4130 -1.1501
 1270SOL     OW 3941   2.599   3.601   0.899  0.1591 -0.2683  0.5798
 1270SOL    HW1 3942   2.517   3.649   0.902  0.6636  0.6033  0.8234
 1270SOL    HW2 3943   2.594   3.550   0.818 -1.6784 -2.1939  1.8152
 1271SOL     OW 3944   1.969   2.347   1.672 -0.7094  0.0693 -0.8468
 1271SOL    HW1 3945   1.997   2.419   1.616 -1.9356  1.1235 -0.1598
 1271SOL    HW2 3946   1.913   2.293   1.615 -1.0462  0.5171 -0.9447
 1272SOL     OW 3947   1.636   2.804   1.865  0.1408 -0.0690 -0.1690
 1272SOL    HW1 3948   1.624   2.788   1.958 -2.4449  0.3465 -0.3538
 1272SOL    HW2 3949   1.652   2.717   1.827 -1.0475 -0.5588  0.4078
 1273SOL     OW 3950   1.947   2.130   3.108  0.4554 -0.2388 -0.2280
 1273SOL    HW1 3951   2.039   2.156   3.105  0.3423  0.0806 -1.2664
 1273SOL    HW2 3952   1.918   2.155   3.196  0.9925  0.9576 -0.3722
 1274SOL     OW 3953   2.397   3.028   3.612 -0.1217  0.1678  0.4108
 1274SOL    HW1 3954   2.325   3.069   3.564 -0.3505 -0.4270  0.2294
 1274SOL    HW2 3955   2.390   3.063   3.701 -0.5627  0.2155  0.3635
 1275SOL     OW 3956   0.136   0.443   0.610 -0.2726  0.4574 -0.7619
 1275SOL    HW1 3957   0.194   0.409   0.542  0.6097 -1.4386  0.8473
 1275SOL    HW2 3958   0.048   0.424   0.579 -0.0913  2.5148 -2.8012
 1276SOL     OW 3959   0.585   2.203   1.105  0.3444  0.0038 -0.2792
 1276SOL    HW1 3960   0.573   2.246   1.020 -1.7806  2.1145  0.9754
 1276SOL    HW2 3961   0.608   2.274   1.165  1.1467 -1.3260  1.0686
 1277SOL     OW 3962   1.913   0.666   3.097 -0.5257 -0.2301 -0.5344
 1277SOL    HW1 3963   1.928   0.693   3.006 -0.7502  0.1892 -0.4530
 1277SOL    HW2 3964   1.936   0.743   3.148 -3.4029  0.6746 -0.4396
 1278SOL     OW 3965   1.169   0.664   2.854 -0.4901 -0.3010 -0.4494
 1278SOL    HW1 3966   1.162   0.571   2.874  1.1803 -0.2856  0.4394
 1278SOL    HW2 3967   1.223   0.668   2.775 -1.6723 -0.1149 -1.2665
 1279SOL     OW 3968   0.220   0.434   1.919  0.0406  0.6603 -0.1251
 1279SOL    HW1 3969   0.262   0.393   1.994  0.3213  1.3170  0.0782
 1279SOL    HW2 3970   0.156   0.369   1.889 -1.3930  1.1043  1.8106
 1280SOL     OW 3971   1.208   2.481   3.570 -0.2271  0.0337  0.0676
 1280SOL    HW1 3972   1.265   2.424   3.622 -0.4605 -0.2096  0.0593
 1280SOL    HW2 3973   1.122   2.474   3.613 -1.1025 -2.2257 -1.8263
 1281SOL     OW 3974   1.844   2.859   2.450 -0.1641 -0.3777 -0.1650
 1281SOL    HW1 3975   1.777   2.794   2.429 -0.9961 -0.3297  1.9944
 1281SOL    HW2 3976   1.909   2.812   2.500  0.2738  0.0385 -0.3349
 1282SOL     OW 3977   2.683   1.416   3.002 -0.7398  0.2012  0.5540
 1282SOL    HW1 3978   2.762   1.374   2.968 -0.8437 -1.6596  2.4447
 1282SOL    HW2 3979   2.614   1.350   2.992 -1.7005  1.1722  0.5236
 1283SOL     OW 3980   0.454   1.699   3.340  0.1222  0.4549 -0.3072
 1283SOL    HW1 3981   0.379   1.743   3.379  0.1409 -0.4195  0.7547
 1283SOL    HW2 3982   0.527   1.760   3.354  0.1005  0.2124  0.9137
 1284SOL     OW 3983   2.325   2.677   2.840 -0.1703 -0.2902 -0.2859
 1284SOL    HW1 3984   2.319   2.739   2.913  0.3587 -1.2391  0.5833
 1284SOL    HW2 3985   2.234   2.654   2.821 -0.3030 -0.2184  0.2387
 1285SOL     OW 3986   2.150   1.791   1.115 -0.0850  0.3286 -0.2072
 1285SOL    HW1 3987   2.166   1.733   1.190 -0.7053 -1.3760 -1.3482
 1285SOL    HW2 3988   2.214   1.862   1.126  0.2757 -0.2231  1.5703
 1286SOL     OW 3989   1.512   0.190   3.011 -0.7327 -0.2670 -0.1603
 1286SOL    HW1 3990   1.509   0.271   2.960 -0.0747 -0.8554 -1.1436
 1286SOL    HW2 3991   1.603   0.162   3.008 -0.3887  0.3426  2.4226
 1287SOL     OW 3992   0.978   2.676   1.464 -0.1012  0.5749  0.3811
 1287SOL    HW1 3993   1.072   2.664   1.450 -0.2740  0.4434 -0.8573
 1287SOL    HW2 3994   0.937   2.621   1.397 -1.0857 -0.1228  1.5197
 1288SOL     OW 3995   0.930   3.331   1.087 -0.4056  0.2742 -0.2544
 1288SOL    HW1 3996   1.015   3.344   1.129 -0.3864 -1.9973  0.5476
 1288SOL    HW2 3997   0.886   3.415   1.096  1.3200  1.1669  0.3235
 1289SOL     OW 3998   1.190   2.294   2.726  0.5623 -0.0479  0.4847
 1289SOL    HW1 3999   1.263   2.232   2.725  0.4020 -0.2878 -1.8607
 1289SOL    HW2 4000   1.230   2.380   2.712  0.8739  0.6295  4.5473
 1290SOL     OW 4001   0.240   2.926   3.326  0.3641 -0.3008  0.3808
 1290SOL    HW1 4002   0.315   2.929   3.386  0.0997 -1.9853  0.8417
 1290SOL    HW2 4003   0.191   3.006   3.346  1.8112  0.6326  0.3500
 1291SOL     OW 4004   3.249   1.469   1.574  0.1565 -0.2459  0.1641
 1291SOL    HW1 4005   3.316   1.484   1.641  0.7935  0.6628 -0.6430
 1291SOL    HW2 4006   3.235   1.556   1.535 -2.4361 -0.1400  1.1506
 1292SOL     OW 4007   3.063   2.709   0.063 -0.1951 -0.1837  0.0379
 1292SOL    HW1 4008   2.993   2.670   0.011 -0.1188  0.0748 -0.2662
 1292SOL    HW2 4009   3.052   2.673   0.151 -1.8640  1.2945  0.4835
 1293SOL     OW 4010   1.129   2.425   1.926  0.4198 -0.5323  0.1132
 1293SOL    HW1 4011   1.215   2.393   1.895 -0.3326 -1.8195 -0.7785
 1293SOL    HW2 4012   1.109   2.498   1.868  0.9423 -0.1773  0.3730
 1294SOL     OW 4013   0.627   1.917   2.344  0.1327 -0.7648 -0.4536
 1294SOL    HW1 4014   0.602   1.836   2.387 -0.1808 -0.7425 -0.5937
 1294SOL    HW2 4015   0.667   1.889   2.261  0.4736 -0.7949 -0.2808
 1295SOL     OW 4016   2.229   2.099   2.266 -0.0422  0.2587 -0.0847
 1295SOL    HW1 4017   2.153   2.049   2.294  3.2999 -4.3145  2.2500
 1295SOL    HW2 4018   2.263   2.137   2.347  0.7366  1.3545 -0.8959
 1296SOL     OW 4019   1.720   1.446   3.399  0.3940  0.0499  0.3536
 1296SOL    HW1 4020   1.641   1.411   3.357 -0.6335  2.5477  0.0158
 1296SOL    HW2 4021   1.694   1.459   3.490  0.1802  1.4028  0.1213
 1297SOL     OW 4022   0.990   3.165   2.796 -0.1413  0.0816 -0.2964
 1297SOL    HW1 4023   0.930   3.218   2.745 -1.5930 -1.0339  0.1682
 1297SOL    HW2 4024   1.077   3.199   2.775 -0.8471  1.0357 -1.8226
 1298SOL     OW 4025   1.598   3.295   1.003  0.2427 -0.4164 -0.3825
 1298SOL    HW1 4026   1.590   3.200   0.991  0.1505 -0.3751 -0.6695
 1298SOL    HW2 4027   1.622   3.306   1.095 -1.2462 -0.6371  0.0607
 1299SOL     OW 4028   1.278   3.081   0.219  0.0558  0.0506 -0.4471
 1299SOL    HW1 4029   1.285   3.032   0.301  0.3052 -0.6483 -0.8803
 1299SOL    HW2 4030   1.257   3.015   0.153 -2.6632  0.9254 -0.5846
 1300SOL     OW 4031   0.343   3.475   1.628  0.1195  0.5842 -0.1372
 1300SOL    HW1 4032   0.371   3.425   1.705 -1.9458 -3.4210 -1.6548
 1300SOL    HW2 4033   0.258   3.512   1.653 -0.2405 -0.1597 -0.2138
 1301SOL     OW 4034   1.932   1.122   1.864 -0.6683  0.3032 -0.3571
 1301SOL    HW1 4035   1.942   1.036   1.905  0.6955  0.6779  0.1466
 1301SOL    HW2 4036   1.839   1.142   1.872 -0.7677 -0.5158  0.7499
 1302SOL     OW 4037   0.747   1.824   2.135 -0.2472 -0.4999  0.2221
 1302SOL    HW1 4038   0.842   1.828   2.139 -0.3215  1.4399  1.1004
 1302SOL    HW2 4039   0.726   1.827   2.042  0.5195  0.6418  0.0746
 1303SOL     OW 4040   1.083   1.916   0.993  0.0195 -0.7093  0.1269
 1303SOL    HW1 4041   1.051   1.924   0.903  1.5581  0.8940 -0.3254
 1303SOL    HW2 4042   1.164   1.867   0.986  0.9079  0.6659  0.4143
 1304SOL     OW 4043   2.677   1.088   1.471 -0.0614  0.2480  0.3337
 1304SOL    HW1 4044   2.682   1.171   1.424  0.2108  0.4739  0.7553
 1304SOL    HW2 4045   2.696   1.021   1.405 -1.5539  0.4158 -0.3037
 1305SOL     OW 4046   2.554   0.060   3.273 -0.5800  0.1947  0.5782
 1305SOL    HW1 4047   2.492   0.132   3.268 -0.1608  0.6680  1.8672
 1305SOL    HW2 4048   2.517   0.001   3.340  0.1252  0.2634  1.0404
 1306SOL     OW 4049   3.395   2.407   1.360  0.3386  0.1534 -0.1562
 1306SOL    HW1 4050   3.379   2.497   1.333  0.0833  0.1332 -0.0729
 1306SOL    HW2 4051   3.490   2.397   1.355  0.4666  0.7720  0.9585
 1307SOL     OW 4052   0.140   3.313   3.621  0.7638  0.5458 -0.3860
 1307SOL    HW1 4053   0.192   3.376   3.570 -0.7366  2.0084 -0.1935
 1307SOL    HW2 4054   0.052   3.322   3.586  0.2959 -0.6501  0.4404
 1308SOL     OW 4055   0.129   2.744   0.592  0.6294  0.3496  0.0170
 1308SOL    HW1 4056   0.056   2.744   0.530  0.1968  1.8434  0.4985
 1308SOL    HW2 4057   0.132   2.833   0.626  2.6545  0.3070  0.0548
 1309SOL     OW 4058   2.483   0.831   1.921 -0.7040  0.5082 -0.5032
 1309SOL    HW1 4059   2.538   0.856   1.847  0.7299  1.7077  0.8759
 1309SOL    HW2 4060   2.422   0.905   1.932 -1.2690  0.0947 -0.7886
 1310SOL     OW 4061   0.704   3.344   3.029 -0.5835 -0.0010 -0.8934
 1310SOL    HW1 4062   0.637   3.317   3.092  0.9753  1.5881  1.6206
 1310SOL    HW2 4063   0.673   3.428   2.996 -1.6716 -1.0852 -2.7976
 1311SOL     OW 4064   3.023   2.935   2.233 -0.2925 -0.3664 -0.1305
 1311SOL    HW1 4065   2.973   2.882   2.170 -2.8526  1.6119  0.0558
 1311SOL    HW2 4066   3.056   3.008   2.182 -1.3548  0.6132  0.5258
 1312SOL     OW 4067   2.916   2.698   3.007 -0.0409  0.4001 -0.1200
 1312SOL    HW1 4068   2.946   2.609   3.027 -0.4909  0.4271  0.6882
 1312SOL    HW2 4069   2.856   2.686   2.933 -0.9030 -0.0960  0.6465
 1313SOL     OW 4070   0.118   1.317   3.471 -0.8161 -0.4024 -0.5912
 1313SOL    HW1 4071   0.094   1.406   3.497  2.5034  0.2194  0.7915
 1313SOL    HW2 4072   0.178   1.329   3.397  2.2178 -1.1258  1.5678
 1314SOL     OW 4073   1.262   3.537   0.657  0.3388 -0.4302 -0.4504
 1314SOL    HW1 4074   1.184   3.591   0.643  1.9142  2.0733 -0.3656
 1314SOL    HW2 4075   1.280   3.498   0.572  1.0177  1.9804 -1.4907
 1315SOL     OW 4076   2.011   2.695   2.606  0.4331  0.9471  0.1225
 1315SOL    HW1 4077   2.042   2.677   2.517  4.0908  3.4971  0.6613
 1315SOL    HW2 4078   2.004   2.608   2.647  2.3761 -0.0934 -1.5847
 1316SOL     OW 4079   2.969   1.217   1.242  0.3491  0.0226 -0.3229
 1316SOL    HW1 4080   3.014   1.300   1.258 -1.3612  1.2393 -1.3830
 1316SOL    HW2 4081   3.012   1.155   1.300  1.4015  1.7491  0.8606
 1317SOL     OW 4082   2.243   1.362   0.952 -0.2549 -0.7391  0.4478
 1317SOL    HW1 4083   2.219   1.453   0.968 -1.1395 -1.0385  0.9234
 1317SOL    HW2 4084   2.193   1.312   1.017  0.9759 -1.4886  0.8615
 1318SOL     OW 4085   0.196   1.175   0.608 -0.3415  0.8416  0.1758
 1318SOL    HW1 4086   0.211   1.087   0.573 -0.3433  0.9529 -0.1069
 1318SOL    HW2 4087   0.150   1.221   0.539 -0.2925  1.0831  0.3030
 1319SOL     OW 4088   0.798   2.245   3.467 -0.7134  0.3897 -0.2428
 1319SOL    HW1 4089   0.791   2.183   3.539  0.3819 -0.2149 -0.6364
 1319SOL    HW2 4090   0.790   2.192   3.388 -3.7497  1.2586 -0.6533
 1320SOL     OW 4091   1.319   0.874   0.622  0.2915 -0.3873 -0.4415
 1320SOL    HW1 4092   1.325   0.927   0.543  1.0018 -1.0033 -0.8212
 1320SOL    HW2 4093   1.339   0.934   0.694 -1.7121  0.4978 -0.5840
 1321SOL     OW 4094   2.252   3.463   2.576 -1.3733  0.2809 -0.7721
 1321SOL    HW1 4095   2.316   3.395   2.555  1.3841  2.2818  0.5138
 1321SOL    HW2 4096   2.167   3.424   2.555  0.1709 -2.8483 -1.7674
 1322SOL     OW 4097   2.603   1.221   0.477  0.2716 -0.4105  0.0713
 1322SOL    HW1 4098   2.619   1.260   0.563  3.4354 -1.1770 -0.0463
 1322SOL    HW2 4099   2.515   1.184   0.484  0.6547 -1.0214  3.2201
 1323SOL     OW 4100   3.462   0.313   0.254  0.0363 -0.5893  0.2456
 1323SOL    HW1 4101   3.554   0.310   0.226  0.0364  0.8468  0.0423
 1323SOL    HW2 4102   3.412   0.290   0.176  0.1583  0.3738 -0.1212
 1324SOL     OW 4103   3.697   2.738   3.059 -0.5937  0.4668 -0.0150
 1324SOL    HW1 4104   3.645   2.778   2.989  0.5821  0.0484 -1.1852
 1324SOL    HW2 4105   3.787   2.763   3.039  0.0355 -1.5766  0.0011
 1325SOL     OW 4106   0.204   3.016   3.617 -0.0812 -0.1675 -0.1170
 1325SOL    HW1 4107   0.208   3.112   3.614  2.2512 -0.1515  1.2357
 1325SOL    HW2 4108   0.268   2.987   3.552 -0.4936 -0.8159 -0.2464
 1326SOL     OW 4109   2.844   2.498   2.049  0.0490  0.0215 -1.0521
 1326SOL    HW1 4110   2.812   2.486   1.960  1.0390 -0.6303 -1.3407
 1326SOL    HW2 4111   2.779   2.455   2.104 -1.3925  1.7984 -1.2993
 1327SOL     OW 4112   0.215   0.707   1.162 -0.4896 -0.1841 -0.0949
 1327SOL    HW1 4113   0.139   0.668   1.205 -2.0453  1.0834 -1.5216
 1327SOL    HW2 4114   0.202   0.688   1.069 -0.0205  1.5452 -0.5508
 1328SOL     OW 4115   1.393   3.015   2.051 -0.6749 -0.1671 -0.6961
 1328SOL    HW1 4116   1.361   2.926   2.060 -1.4497 -0.1242 -2.5133
 1328SOL    HW2 4117   1.430   3.037   2.136 -2.3605 -1.4730  0.4230
 1329SOL     OW 4118   1.308   3.323   2.067 -0.1762  0.2104  0.2042
 1329SOL    HW1 4119   1.275   3.373   2.142  0.5286  1.6767 -0.4306
 1329SOL    HW2 4120   1.388   3.282   2.099 -2.2789 -3.2074  1.6968
 1330SOL     OW 4121   1.339   0.594   1.903 -0.7081 -0.7804  0.8458
 1330SOL    HW1 4122   1.270   0.585   1.969 -1.5094  1.4604  0.4046
 1330SOL    HW2 4123   1.291   0.609   1.821  0.2405  1.4909  0.6395
 1331SOL     OW 4124   2.165   0.757   0.046 -0.2734  0.5041  0.3080
 1331SOL    HW1 4125   2.184   0.798  -0.038 -0.1761  2.9761  1.4313
 1331SOL    HW2 4126   2.131   0.829   0.100 -2.4920 -1.4661  1.7239
 1332SOL     OW 4127   0.228   0.480   3.117  0.7084  0.1244 -0.3364
 1332SOL    HW1 4128   0.162   0.412   3.101 -0.1820  0.6247  1.0220
 1332SOL    HW2 4129   0.205   0.551   3.057 -0.8244  0.8155  0.9812
 1333SOL     OW 4130   3.308   1.874   1.888 -0.2918 -0.3309 -0.2452
 1333SOL    HW1 4131   3.336   1.830   1.808  0.1664 -0.1165 -0.2039
 1333SOL    HW2 4132   3.349   1.825   1.959 -2.9195 -2.2768  0.0749
 1334SOL     OW 4133   3.139   2.455   3.505 -0.2897  0.5591  0.1516
 1334SOL    HW1 4134   3.183   2.529   3.545 -1.5869  0.6260  1.5158
 1334SOL    HW2 4135   3.210   2.397   3.478  0.7773  2.3818 -1.2352
 1335SOL     OW 4136   2.012   1.974   0.046  0.4187 -0.2693  0.1999
 1335SOL    HW1 4137   2.006   1.879   0.054  0.3420 -0.1151  2.5636
 1335SOL    HW2 4138   2.092   1.989  -0.006 -0.0250 -1.5980 -0.9250
 1336SOL     OW 4139   1.385   2.824   1.784 -0.7194 -0.2506 -0.6035
 1336SOL    HW1 4140   1.366   2.735   1.753  0.9559 -0.5686 -0.7987
 1336SOL    HW2 4141   1.476   2.820   1.813 -0.5756  1.4420 -0.7651
 1337SOL     OW 4142   0.895   0.650   1.724 -0.9063  0.2028 -0.7153
 1337SOL    HW1 4143   0.866   0.567   1.686 -2.7291  0.3850  0.2224
 1337SOL    HW2 4144   0.815   0.701   1.736  0.0265  1.5337  0.0906
 1338SOL     OW 4145   3.281   1.508   3.580  0.6272 -0.3738  0.4389
 1338SOL    HW1 4146   3.316   1.481   3.496  1.5686  0.1247  0.6593
 1338SOL    HW2 4147   3.236   1.430   3.614  1.9636 -1.2002  0.3753
 1339SOL     OW 4148   3.733   2.428   0.756  0.4670 -0.5860 -0.2206
 1339SOL    HW1 4149   3.698   2.486   0.824  1.1437 -0.7570  0.2916
 1339SOL    HW2 4150   3.714   2.473   0.674  3.1937  1.6944  0.2439
 1340SOL     OW 4151   1.263   3.507   0.935  0.7324 -0.4940  0.3135
 1340SOL    HW1 4152   1.293   3.504   0.844  0.4897 -2.1321  0.2621
 1340SOL    HW2 4153   1.203   3.582   0.938  1.6921  0.3504 -0.5464
 1341SOL     OW 4154   3.250   0.445   0.690 -0.3021  0.1340  0.0118
 1341SOL    HW1 4155   3.277   0.475   0.604 -0.2340  1.7351  0.5567
 1341SOL    HW2 4156   3.217   0.523   0.734 -1.5254 -0.8716  1.0033
 1342SOL     OW 4157   2.380   1.506   2.248 -0.2072  0.0157 -0.3955
 1342SOL    HW1 4158   2.379   1.522   2.343  1.2323 -0.0857 -0.3512
 1342SOL    HW2 4159   2.287   1.499   2.225 -0.5639 -0.9987  1.1754
 1343SOL     OW 4160   3.634   1.816   0.418 -0.0756 -0.0855 -0.2335
 1343SOL    HW1 4161   3.683   1.779   0.491  1.0460  0.8244 -0.5074
 1343SOL    HW2 4162   3.545   1.828   0.452  0.0392 -1.1558  0.4637
 1344SOL     OW 4163   0.468   2.730   0.353 -0.0487  0.3561 -0.2868
 1344SOL    HW1 4164   0.430   2.642   0.361 -0.4401  0.6901  2.3047
 1344SOL    HW2 4165   0.541   2.730   0.414 -0.7910  2.1736  0.6721
 1345SOL     OW 4166   2.157   3.753   0.294  0.3187 -0.8139 -0.5643
 1345SOL    HW1 4167   2.197   3.715   0.215  0.4391 -0.7814 -0.5178
 1345SOL    HW2 4168   2.098   3.684   0.326  0.7846 -1.0864 -0.2928
 1346SOL     OW 4169   0.898   3.194   3.586  0.1697  0.1895  0.2808
 1346SOL    HW1 4170   0.970   3.255   3.600 -1.3223  3.0739 -3.0818
 1346SOL    HW2 4171   0.823   3.237   3.628 -0.6972  0.1811 -1.2143
 1347SOL     OW 4172   0.064   3.198   1.310  0.2958 -0.4027 -0.1438
 1347SOL    HW1 4173   0.137   3.153   1.352 -0.0834 -0.6383  0.2783
 1347SOL    HW2 4174   0.067   3.171   1.219  1.9305  1.1327 -0.6105
 1348SOL     OW 4175   0.964   1.361   3.282  0.1427 -0.8544  0.3107
 1348SOL    HW1 4176   1.002   1.276   3.302  0.4969 -1.3164 -1.9526
 1348SOL    HW2 4177   0.885   1.342   3.232  1.1786  0.0540 -1.8288
 1349SOL     OW 4178   0.964   2.359   0.334  0.4840 -0.0984  1.2722
 1349SOL    HW1 4179   0.993   2.355   0.425  1.1911 -0.4332  1.0368
 1349SOL    HW2 4180   1.014   2.430   0.295 -0.6606  0.8241  1.4246
 1350SOL     OW 4181   3.015   1.329   3.495  0.1720 -0.0332 -0.2349
 1350SOL    HW1 4182   3.020   1.283   3.411  0.8392 -1.4574  0.5473
 1350SOL    HW2 4183   3.092   1.299   3.543 -0.9639 -0.4075  1.4368
 1351SOL     OW 4184   1.359   1.406   3.602  0.1030 -0.3225  0.1582
 1351SOL    HW1 4185   1.410   1.445   3.674  0.2146 -0.6555  0.2602
 1351SOL    HW2 4186   1.388   1.452   3.524 -0.0060  0.0323  0.3252
 1352SOL     OW 4187   1.074   0.180   1.904 -0.2559 -0.0633 -0.0571
 1352SOL    HW1 4188   1.081   0.101   1.849  0.2883  0.0177 -0.1145
 1352SOL    HW2 4189   1.161   0.219   1.899 -0.1805 -0.0949  0.9339
 1353SOL     OW 4190   1.257   1.647   2.292  0.0166  0.5438 -0.4712
 1353SOL    HW1 4191   1.271   1.730   2.337 -0.3321 -0.0707  0.8123
 1353SOL    HW2 4192   1.251   1.582   2.362 -0.4851 -0.4558 -1.4094
 1354SOL     OW 4193   0.062   0.716   0.591  0.5374 -0.0968 -0.1874
 1354SOL    HW1 4194   0.133   0.770   0.555  0.4032  0.1959 -0.0238
 1354SOL    HW2 4195   0.096   0.627   0.590  1.9072  0.3145  2.1951
 1355SOL     OW 4196   2.318   1.987   2.559  0.2248 -0.2612 -0.6445
 1355SOL    HW1 4197   2.297   1.896   2.539  0.3692 -0.3782 -0.2635
 1355SOL    HW2 4198   2.406   1.984   2.595  1.7537  0.4285 -3.9789
 1356SOL     OW 4199   0.381   1.239   1.937  0.1893 -0.0594  0.0431
 1356SOL    HW1 4200   0.476   1.227   1.938  0.0989 -0.8251 -0.0158
 1356SOL    HW2 4201   0.357   1.225   1.846  0.0045  0.0247  0.0799
 1357SOL     OW 4202   2.330   3.383   2.193  0.0927  0.1310  0.5817
 1357SOL    HW1 4203   2.355   3.438   2.267 -0.5554  0.2918  0.6845
 1357SOL    HW2 4204   2.344   3.437   2.116 -0.3167  0.3639  0.6674
 1358SOL     OW 4205   2.350   1.427   0.456 -0.3852 -0.6234 -0.1979
 1358SOL    HW1 4206   2.267   1.474   0.456 -0.0064  0.0857 -1.3848
 1358SOL    HW2 4207   2.326   1.335   0.466 -1.2251 -0.3326  0.5967
 1359SOL     OW 4208   3.088   0.669   0.420 -0.0343 -0.6903 -0.1226
 1359SOL    HW1 4209   3.170   0.688   0.466 -1.3079 -1.0310  2.5185
 1359SOL    HW2 4210   3.075   0.575   0.432 -0.7713 -0.6498 -0.5465
 1360SOL     OW 4211   2.574   1.320   3.298 -0.2196  0.4411 -0.3038
 1360SOL    HW1 4212   2.510   1.370   3.246 -0.4224 -0.6994 -1.2026
 1360SOL    HW2 4213   2.528   1.238   3.319  0.5919  0.0365 -0.0898
 1361SOL     OW 4214   0.205   1.349   2.534 -0.6708 -0.6533  0.2985
 1361SOL    HW1 4215   0.147   1.273   2.546 -4.7804  2.3966  2.4943
 1361SOL    HW2 4216   0.265   1.345   2.608 -1.2821 -1.4424  0.7735
 1362SOL     OW 4217   1.137   1.046   3.162 -0.3430  0.5945  0.3001
 1362SOL    HW1 4218   1.064   1.031   3.223 -0.6521 -2.4263 -0.6314
 1362SOL    HW2 4219   1.115   0.992   3.086  2.3418  0.4598 -0.4577
 1363SOL     OW 4220   2.020   1.162   1.588  0.2873  0.5702  0.3458
 1363SOL    HW1 4221   2.003   1.147   1.681 -0.0146 -1.2107  0.0354
 1363SOL    HW2 4222   1.960   1.104   1.543  1.8014 -0.0855 -0.9228
 1364SOL     OW 4223   2.651   1.229   2.693  0.3105 -0.1558 -0.1313
 1364SOL    HW1 4224   2.725   1.178   2.725  0.4025 -1.1271 -1.7926
 1364SOL    HW2 4225   2.586   1.224   2.763  1.5788  0.2671  1.1249
 1365SOL     OW 4226   2.236   2.244   2.507 -0.2353 -0.5540 -0.0793
 1365SOL    HW1 4227   2.141   2.231   2.515 -0.3069  0.8419  2.4156
 1365SOL    HW2 4228   2.274   2.170   2.553 -0.0865 -1.1486 -1.1373
 1366SOL     OW 4229   0.372   2.079   1.340  0.1362  0.4619  0.0859
 1366SOL    HW1 4230   0.369   2.171   1.364  1.0889  0.4411  0.2970
 1366SOL    HW2 4231   0.387   2.079   1.246 -3.9026  0.5489 -0.7440
 1367SOL     OW 4232   2.583   1.541   1.497  0.4131 -0.7349  0.0561
 1367SOL    HW1 4233   2.636   1.621   1.490 -1.6870  0.6912 -0.2448
 1367SOL    HW2 4234   2.632   1.476   1.447  1.5471  0.6963 -0.7639
 1368SOL     OW 4235   3.316   0.162   0.669 -0.2675  0.2756 -0.1645
 1368SOL    HW1 4236   3.233   0.131   0.632 -0.7590  1.0334  0.2845
 1368SOL    HW2 4237   3.307   0.257   0.673  0.8514  0.4227 -0.6387
 1369SOL     OW 4238   2.702   0.441   1.147  0.1072  0.5328  0.5027
 1369SOL    HW1 4239   2.618   0.485   1.133  0.3045  0.3890 -1.3684
 1369SOL    HW2 4240   2.766   0.498   1.104  0.6085 -0.6898 -0.3998
 1370SOL     OW 4241   1.668   1.050   3.207 -0.1787  0.6551 -0.3357
 1370SOL    HW1 4242   1.715   1.037   3.289  0.0751  0.5288 -0.4997
 1370SOL    HW2 4243   1.639   1.141   3.210 -2.3878 -0.0176  1.0549
 1371SOL     OW 4244   2.334   0.847   2.185  0.2781 -0.1192  0.0323
 1371SOL    HW1 4245   2.337   0.880   2.275  1.2196  0.9732 -0.3767
 1371SOL    HW2 4246   2.424   0.821   2.166  0.9165  2.9520 -1.7429
 1372SOL     OW 4247   2.406   0.576   1.959 -0.4228 -0.1277 -0.0199
 1372SOL    HW1 4248   2.446   0.663   1.962 -0.4577 -0.1309  0.6497
 1372SOL    HW2 4249   2.325   0.585   2.009 -0.1205 -0.6998  0.5806
 1373SOL     OW 4250   0.149   3.144   2.457 -0.2347 -0.3351  0.5609
 1373SOL    HW1 4251   0.154   3.213   2.390  1.5978 -0.0123  0.9833
 1373SOL    HW2 4252   0.138   3.063   2.407  2.4309 -0.2582 -0.2819
 1374SOL     OW 4253   2.172   3.126   3.488  0.4990  0.1033 -0.3121
 1374SOL    HW1 4254   2.166   3.220   3.507  1.4038 -0.0568  0.8658
 1374SOL    HW2 4255   2.084   3.092   3.507  0.6351  0.4284  1.0236
 1375SOL     OW 4256   2.778   2.615   2.796 -0.1805 -0.3513  0.4768
 1375SOL    HW1 4257   2.842   2.670   2.750 -1.1764  0.6275  0.2231
 1375SOL    HW2 4258   2.766   2.540   2.739 -0.1904  0.0689 -0.0852
 1376SOL     OW 4259   2.624   2.241   0.679 -0.0978  0.8932 -0.1084
 1376SOL    HW1 4260   2.621   2.298   0.755 -2.3400 -0.8830  1.2838
 1376SOL    HW2 4261   2.562   2.280   0.617  0.7841  1.6500 -0.5409
 1377SOL     OW 4262   1.918   1.273   3.620  0.1317 -0.0663  0.0125
 1377SOL    HW1 4263   1.878   1.357   3.641  0.7982  0.1028  0.6544
 1377SOL    HW2 4264   2.006   1.295   3.589  0.7354 -0.5785  1.3082
 1378SOL     OW 4265   2.459   2.590   2.600 -0.0680  0.0868  0.0074
 1378SOL    HW1 4266   2.429   2.605   2.690  1.0667  3.0185  0.0239
 1378SOL    HW2 4267   2.521   2.662   2.584 -0.9861  0.2756 -3.4543
 1379SOL     OW 4268   0.469   0.058   1.852 -0.2862 -0.6847 -0.2406
 1379SOL    HW1 4269   0.532  -0.013   1.859 -0.2886 -0.5874  0.9910
 1379SOL    HW2 4270   0.480   0.108   1.933 -0.0099  0.9529 -1.2352
 1380SOL     OW 4271   1.669   1.491   1.454 -0.5224 -0.0660 -0.4307
 1380SOL    HW1 4272   1.644   1.399   1.461  0.8322 -0.3808  1.1357
 1380SOL    HW2 4273   1.765   1.490   1.461 -0.5620  1.5474  1.2947
 1381SOL     OW 4274   0.305   2.564   0.650 -0.1660 -0.2867 -0.4352
 1381SOL    HW1 4275   0.229   2.612   0.616 -1.0654 -0.6296  1.0331
 1381SOL    HW2 4276   0.325   2.499   0.582 -0.0016  1.0087 -1.6651
 1382SOL     OW 4277   0.466  -0.011   0.471  0.0521  0.8952  0.2714
 1382SOL    HW1 4278   0.376   0.017   0.452  0.0031  0.0266 -0.9101
 1382SOL    HW2 4279   0.518   0.028   0.401  0.6559  1.5772  1.0758
 1383SOL     OW 4280   0.406   2.613   2.330  0.4205  0.6420  0.1772
 1383SOL    HW1 4281   0.409   2.544   2.264  1.4567  2.8118 -2.2338
 1383SOL    HW2 4282   0.487   2.602   2.379  2.0587  1.7165 -2.0810
 1384SOL     OW 4283   0.839   2.718   0.627 -0.0826  0.3231 -0.4846
 1384SOL    HW1 4284   0.783   2.651   0.587  0.4015 -0.5044  0.2059
 1384SOL    HW2 4285   0.907   2.734   0.561  1.3687 -1.8556  0.3688
 1385SOL     OW 4286   0.359   3.607   2.392  0.0194 -0.4059 -0.5375
 1385SOL    HW1 4287   0.365   3.674   2.460 -1.8265 -1.3816  0.6920
 1385SOL    HW2 4288   0.374   3.525   2.438 -0.2750 -1.0175 -1.5077
 1386SOL     OW 4289   0.623   1.232   2.383  0.0282  0.0209  0.1306
 1386SOL    HW1 4290   0.617   1.143   2.348 -0.9841 -1.1410  2.9035
 1386SOL    HW2 4291   0.547   1.278   2.348 -0.4355 -0.7951  0.0484
 1387SOL     OW 4292   2.201   0.249   0.431  1.0429  0.3474 -0.1117
 1387SOL    HW1 4293   2.244   0.212   0.507 -0.2591  0.7554  0.8550
 1387SOL    HW2 4294   2.176   0.174   0.378 -1.1105 -0.1972  1.5732
 1388SOL     OW 4295   0.145   1.603   2.516  0.2173 -0.2677 -0.0470
 1388SOL    HW1 4296   0.143   1.621   2.422 -1.2440 -0.2884 -0.0411
 1388SOL    HW2 4297   0.175   1.512   2.523 -1.9535 -1.1035 -0.6757
 1389SOL     OW 4298   1.608   3.679   2.492  0.6620 -0.4254 -0.0972
 1389SOL    HW1 4299   1.621   3.761   2.445  2.0182 -1.0241 -0.8387
 1389SOL    HW2 4300   1.531   3.640   2.450  0.3747  0.1821 -0.1454
 1390SOL     OW 4301   3.094   1.578   2.570 -0.3520 -0.1897 -0.5430
 1390SOL    HW1 4302   3.116   1.672   2.573 -1.8953  0.1798  0.8343
 1390SOL    HW2 4303   3.016   1.574   2.515 -0.4214 -0.6337 -0.4135
 1391SOL     OW 4304   1.484   1.385   2.219 -0.9657 -0.2880 -0.1322
 1391SOL    HW1 4305   1.430   1.306   2.224  2.1878 -2.5720  1.2709
 1391SOL    HW2 4306   1.514   1.400   2.308  0.7593  0.7997 -0.8429
 1392SOL     OW 4307   3.147   0.283   3.572 -0.4918 -0.4980  0.7023
 1392SOL    HW1 4308   3.115   0.194   3.583 -0.2200 -0.8789 -1.1426
 1392SOL    HW2 4309   3.068   0.335   3.555 -0.6271 -0.4094  1.5564
 1393SOL     OW 4310   2.624   2.209   2.016  0.0773 -0.0088  0.6425
 1393SOL    HW1 4311   2.566   2.243   2.084  0.7880 -1.1498  1.8857
 1393SOL    HW2 4312   2.675   2.141   2.061  0.3242 -1.0467 -1.1432
 1394SOL     OW 4313   1.930   1.599   0.714  0.1194  0.2696 -0.4607
 1394SOL    HW1 4314   1.845   1.596   0.757 -0.8943 -0.3476 -2.3723
 1394SOL    HW2 4315   1.967   1.512   0.730  1.8879  1.4730  3.0004
 1395SOL     OW 4316   1.175   0.706   2.455  0.4745  0.2101  0.4922
 1395SOL    HW1 4317   1.126   0.626   2.473 -0.5345  0.7861  0.3731
 1395SOL    HW2 4318   1.249   0.703   2.515  0.3238 -0.6990  0.6470
 1396SOL     OW 4319   0.860   1.359   2.230 -0.3651 -0.1927 -0.1028
 1396SOL    HW1 4320   0.785   1.366   2.289 -0.7557  0.1623 -0.6427
 1396SOL    HW2 4321   0.883   1.266   2.232  0.1748 -0.0616  1.2871
 1397SOL     OW 4322   2.805   1.369   2.115 -0.0870 -0.1143 -0.0003
 1397SOL    HW1 4323   2.850   1.288   2.137  0.7779  0.0145 -1.2326
 1397SOL    HW2 4324   2.778   1.404   2.200  2.1164 -0.2025  0.8095
 1398SOL     OW 4325   0.901   0.878   0.884 -0.2723  1.0247 -0.0137
 1398SOL    HW1 4326   0.982   0.926   0.903  0.4271  0.3813 -1.2610
 1398SOL    HW2 4327   0.831   0.940   0.906  0.4983  1.1753  2.2246
 1399SOL     OW 4328   3.263   3.622   3.413  0.3904  0.1361  0.2172
 1399SOL    HW1 4329   3.198   3.676   3.369  0.2385 -0.2868 -0.0789
 1399SOL    HW2 4330   3.257   3.537   3.369  0.6748 -0.0990  0.6342
 1400SOL     OW 4331   2.160   0.035   2.533  0.0527  0.0959  0.1332
 1400SOL    HW1 4332   2.182  -0.058   2.531 -0.9954 -0.1865 -3.1837
 1400SOL    HW2 4333   2.076   0.039   2.579 -0.7753 -0.8603 -1.2363
 1401SOL     OW 4334   0.302   3.579   2.134 -0.9933 -0.5116 -0.4283
 1401SOL    HW1 4335   0.228   3.639   2.138 -1.7732 -1.4598 -0.4680
 1401SOL    HW2 4336   0.328   3.565   2.225  0.1623  1.0403 -0.4814
 1402SOL     OW 4337   0.217   1.532   0.935  0.0854 -0.4200  0.5759
 1402SOL    HW1 4338   0.132   1.530   0.891 -1.0577 -0.3165  2.6582
 1402SOL    HW2 4339   0.279   1.554   0.865 -1.4916 -1.0738 -1.1218
 1403SOL     OW 4340   2.800   3.411   3.265 -0.2939  0.2752  0.0784
 1403SOL    HW1 4341   2.723   3.363   3.236 -0.3036  0.1242  0.3402
 1403SOL    HW2 4342   2.850   3.346   3.316 -0.4073  0.5992  0.6068
 1404SOL     OW 4343   0.417   3.442   1.042 -0.3094 -0.3351  0.6851
 1404SOL    HW1 4344   0.360   3.505   1.086 -1.1496  0.6166 -1.6197
 1404SOL    HW2 4345   0.432   3.374   1.108 -1.7314  0.8257  2.3128
 1405SOL     OW 4346   2.310   0.420   3.069 -0.3183 -0.0175  0.0789
 1405SOL    HW1 4347   2.355   0.504   3.077 -0.5569  0.2011 -0.7596
 1405SOL    HW2 4348   2.325   0.376   3.153 -1.3580  1.4393  1.0750
 1406SOL     OW 4349   0.150   1.619   1.869  0.1631  0.2138 -0.5458
 1406SOL    HW1 4350   0.197   1.571   1.801 -1.3152  0.8390 -2.0843
 1406SOL    HW2 4351   0.169   1.571   1.950  2.1916 -0.3894 -1.3245
 1407SOL     OW 4352   1.934   1.934   1.253  0.1573  0.3667  0.5846
 1407SOL    HW1 4353   1.954   1.982   1.334 -0.1388  0.7811  0.4113
 1407SOL    HW2 4354   2.019   1.922   1.211  0.2768  0.4066  0.8140
 1408SOL     OW 4355   1.352   0.030   1.783 -0.1652  0.7737 -0.2742
 1408SOL    HW1 4356   1.418  -0.003   1.723  0.6349 -2.1039  1.9603
 1408SOL    HW2 4357   1.269   0.000   1.747  0.3533 -1.4778  0.2671
 1409SOL     OW 4358   1.296   1.274   3.147 -0.6383 -0.0482 -0.8419
 1409SOL    HW1 4359   1.243   1.195   3.135 -1.7029  0.3385  0.9318
 1409SOL    HW2 4360   1.243   1.344   3.110 -0.9973  0.2103  0.1256
 1410SOL     OW 4361   1.511   2.411   1.467 -0.1113  0.1126 -0.6086
 1410SOL    HW1 4362   1.415   2.411   1.478 -0.1638 -0.5829 -1.0364
 1410SOL    HW2 4363   1.526   2.365   1.385  0.5822  0.4828 -0.6944
 1411SOL     OW 4364   1.128   0.553   1.104 -0.1281  0.6303 -0.7542
 1411SOL    HW1 4365   1.130   0.470   1.057  1.3501 -0.1424  0.5806
 1411SOL    HW2 4366   1.165   0.616   1.042 -0.1359  0.0646 -1.3500
 1412SOL     OW 4367   0.404   2.776   2.106  0.5097 -0.0370  0.0749
 1412SOL    HW1 4368   0.497   2.793   2.093  0.5779  0.9035  1.6174
 1412SOL    HW2 4369   0.399   2.728   2.189 -0.2126 -2.3722 -1.2036
 1413SOL     OW 4370   2.734   2.679   1.567 -0.6716 -0.3855 -0.2641
 1413SOL    HW1 4371   2.761   2.638   1.485 -0.8633 -0.2684 -0.3859
 1413SOL    HW2 4372   2.683   2.756   1.540  0.5279  0.5142 -0.0499
 1414SOL     OW 4373   3.418   1.589   2.500 -0.3571 -0.3504 -0.4266
 1414SOL    HW1 4374   3.353   1.632   2.444  0.2026 -0.0203 -0.8409
 1414SOL    HW2 4375   3.381   1.503   2.518 -1.1151  0.0020 -0.2802
 1415SOL     OW 4376   2.886   2.440   1.003 -0.1204 -0.0562  0.0392
 1415SOL    HW1 4377   2.869   2.369   1.066 -1.6859  0.3358  0.1033
 1415SOL    HW2 4378   2.970   2.477   1.031 -0.0813 -0.8201  1.0034
 1416SOL     OW 4379   0.654   0.321   2.216 -0.2808 -0.0034  0.0077
 1416SOL    HW1 4380   0.629   0.250   2.276 -1.9587 -1.6840 -2.5038
 1416SOL    HW2 4381   0.736   0.290   2.176 -0.1036  0.2801  0.1516
 1417SOL     OW 4382   3.073   0.335   1.018  0.2177 -0.8505 -0.5716
 1417SOL    HW1 4383   3.068   0.364   1.109 -1.3391 -0.5535 -0.7309
 1417SOL    HW2 4384   3.145   0.386   0.981 -1.7306  2.1193 -0.5522
 1418SOL     OW 4385   3.533   2.029   1.213  0.0469 -0.0408 -0.2991
 1418SOL    HW1 4386   3.481   2.070   1.282  1.8258  1.0927  0.4393
 1418SOL    HW2 4387   3.623   2.059   1.230  0.8512 -1.4097 -1.8864
 1419SOL     OW 4388   3.640   2.042   0.228 -0.9828  0.8515  0.3920
 1419SOL    HW1 4389   3.656   1.973   0.292 -0.0058  1.7622  1.1493
 1419SOL    HW2 4390   3.558   2.016   0.186 -0.8932 -0.5062  1.0071
 1420SOL     OW 4391   2.657   0.140   2.608 -0.4090  0.3036  0.3728
 1420SOL    HW1 4392   2.638   0.048   2.622  1.9810 -0.4281 -0.6696
 1420SOL    HW2 4393   2.632   0.156   2.516  1.3006  0.0268 -0.1763
 1421SOL     OW 4394   3.594   2.385   2.442  0.0370 -1.3792  0.1917
 1421SOL    HW1 4395   3.635   2.309   2.401  0.0032 -0.6037 -1.3605
 1421SOL    HW2 4396   3.668   2.438   2.473  0.1585 -1.0084 -0.6972
 1422SOL     OW 4397   0.853   3.035   0.669  0.2686 -0.3506  0.4554
 1422SOL    HW1 4398   0.808   3.103   0.718  1.5669 -1.0628  2.7775
 1422SOL    HW2 4399   0.813   2.953   0.697  1.5003 -0.8219  0.9232
 1423SOL     OW 4400   0.489   0.495   1.524  0.3401  0.1527 -0.0146
 1423SOL    HW1 4401   0.463   0.521   1.613  1.0049  0.0510  0.2100
 1423SOL    HW2 4402   0.448   0.410   1.512  1.8036 -0.7155  0.9216
 1424SOL     OW 4403   0.825   3.311   2.371  0.0817  0.2685 -1.0083
 1424SOL    HW1 4404   0.822   3.296   2.466 -0.4770 -1.3130 -1.2461
 1424SOL    HW2 4405   0.742   3.353   2.351  0.6159  1.5195 -0.6746
 1425SOL     OW 4406   0.257   0.973   0.450 -0.0310 -0.2644  0.9256
 1425SOL    HW1 4407   0.185   0.973   0.386  1.0014  0.9136 -0.2846
 1425SOL    HW2 4408   0.335   0.953   0.398  0.6502 -0.5589  2.0515
 1426SOL     OW 4409   1.231   2.588   2.895  0.1898  0.1833  0.8201
 1426SOL    HW1 4410   1.276   2.530   2.957 -1.9193 -1.2038  1.1730
 1426SOL    HW2 4411   1.280   2.578   2.813  0.3364 -1.5810  1.0693
 1427SOL     OW 4412   0.545   0.678   0.704 -0.6822  0.0576  0.0779
 1427SOL    HW1 4413   0.543   0.773   0.716  1.7557  0.0635  1.0567
 1427SOL    HW2 4414   0.460   0.647   0.736 -2.2783  2.0134 -1.9763
 1428SOL     OW 4415   2.115   2.496   0.709 -0.4873  0.0632  0.2253
 1428SOL    HW1 4416   2.163   2.436   0.767 -0.8268  0.3448  0.8016
 1428SOL    HW2 4417   2.023   2.473   0.721 -0.7639  1.7152  1.6456
 1429SOL     OW 4418   1.996   1.243   2.730 -0.6862 -0.1284  0.3962
 1429SOL    HW1 4419   2.078   1.290   2.715  0.2397 -1.1182  2.0335
 1429SOL    HW2 4420   2.014   1.154   2.698 -1.4224 -0.1258 -0.0312
 1430SOL     OW 4421   1.637   1.271   2.925  0.2236  0.3881  0.2099
 1430SOL    HW1 4422   1.663   1.256   2.834 -0.6979  1.9814 -0.3594
 1430SOL    HW2 4423   1.716   1.305   2.967  0.7980 -0.8331  0.1701
 1431SOL     OW 4424   2.712   3.292   2.218  0.2324 -0.2553  0.4150
 1431SOL    HW1 4425   2.731   3.346   2.141  5.2814 -0.0767  1.4833
 1431SOL    HW2 4426   2.661   3.218   2.183 -1.1659  1.7588 -2.2338
 1432SOL     OW 4427   2.182   2.051   3.583  0.0839 -0.0858  0.0349
 1432SOL    HW1 4428   2.188   1.964   3.545  0.1175  0.7273 -1.9359
 1432SOL    HW2 4429   2.272   2.076   3.601  0.1557 -0.0827 -0.3199
 1433SOL     OW 4430   0.208   1.584   3.628  0.3903 -0.3572 -0.3466
 1433SOL    HW1 4431   0.122   1.595   3.668  1.1667  0.8696  1.0697
 1433SOL    HW2 4432   0.222   1.665   3.579  0.9367 -0.3395 -0.1672
 1434SOL     OW 4433   1.595   1.815   2.524 -0.1633  0.4294  0.3055
 1434SOL    HW1 4434   1.506   1.807   2.488  0.0675  0.6925 -0.3454
 1434SOL    HW2 4435   1.625   1.900   2.493  0.2344  0.4361  0.7153
 1435SOL     OW 4436   0.028   1.257   0.793 -0.0666  0.0696  0.4822
 1435SOL    HW1 4437   0.099   1.246   0.730  1.9975  2.8643  2.0945
 1435SOL    HW2 4438  -0.043   1.299   0.743 -0.6171 -2.4680 -1.0673
 1436SOL     OW 4439   3.315   1.928   2.210  0.1950  0.1073  0.0978
 1436SOL    HW1 4440   3.319   1.974   2.293 -0.9618 -0.6911  0.6255
 1436SOL    HW2 4441   3.348   1.991   2.146 -0.2600  1.2552  0.9495
 1437SOL     OW 4442   3.169   0.553   3.177  0.3337  0.5020 -0.4162
 1437SOL    HW1 4443   3.087   0.601   3.189 -0.0800 -0.5792  1.3906
 1437SOL    HW2 4444   3.224   0.579   3.251  0.7213 -0.5299 -0.3226
 1438SOL     OW 4445   1.251   1.581   3.051  0.6804 -0.3365  0.3091
 1438SOL    HW1 4446   1.235   1.636   2.974  0.4475  0.2340  0.7592
 1438SOL    HW2 4447   1.175   1.525   3.056 -1.7928  2.8588  2.8721
 1439SOL     OW 4448   1.841   0.678   2.232 -0.1593 -0.2138 -0.6796
 1439SOL    HW1 4449   1.758   0.724   2.239  0.2670  0.5409 -0.5264
 1439SOL    HW2 4450   1.894   0.712   2.304  0.4365 -0.3604 -1.0382
 1440SOL     OW 4451   3.641   0.531   1.526  0.1789  0.3936 -0.2981
 1440SOL    HW1 4452   3.551   0.560   1.510  0.4762  1.0535 -0.8286
 1440SOL    HW2 4453   3.638   0.487   1.611 -0.4805  1.1651  0.0881
 1441SOL     OW 4454   1.252   1.588   1.969  0.4073 -0.3353 -0.2773
 1441SOL    HW1 4455   1.304   1.510   1.951  1.4974  0.2896  0.0821
 1441SOL    HW2 4456   1.236   1.585   2.064  0.7017  0.0268 -0.2145
 1442SOL     OW 4457   3.374   0.991   1.342  0.1761 -0.3369  1.0581
 1442SOL    HW1 4458   3.458   0.969   1.303  0.8429  0.7593  1.8122
 1442SOL    HW2 4459   3.348   0.911   1.388 -0.3407 -1.4452 -1.0305
 1443SOL     OW 4460   1.119   3.285   0.287  0.0073  0.8005  0.3069
 1443SOL    HW1 4461   1.172   3.230   0.230 -1.4507 -0.8291  0.4353
 1443SOL    HW2 4462   1.032   3.244   0.286 -0.0762  0.6159  3.7389
 1444SOL     OW 4463   3.296   0.798   3.547  0.1579 -0.0605 -0.5274
 1444SOL    HW1 4464   3.384   0.787   3.511 -0.4598 -2.8826 -1.4285
 1444SOL    HW2 4465   3.268   0.710   3.570 -1.8722  0.9494  1.2155
 1445SOL     OW 4466   3.392   0.952   0.840  1.0475 -0.0245  0.5469
 1445SOL    HW1 4467   3.454   0.923   0.773 -0.3512  1.4485 -1.5168
 1445SOL    HW2 4468   3.438   1.023   0.885  2.1508 -1.2825  1.4924
 1446SOL     OW 4469   1.367   2.898   1.040 -0.1606  0.1370  0.7348
 1446SOL    HW1 4470   1.397   2.807   1.047 -3.1514 -0.9392  1.2197
 1446SOL    HW2 4471   1.377   2.934   1.128 -0.8276 -0.4223  1.0503
 1447SOL     OW 4472   2.137   2.164   1.991 -0.1436  0.5837 -0.2008
 1447SOL    HW1 4473   2.153   2.111   2.069 -1.5562  0.0902 -0.2038
 1447SOL    HW2 4474   2.206   2.230   1.991  2.0102 -1.5268 -0.4763
 1448SOL     OW 4475   0.647   3.022   1.362  0.2837  0.0248 -0.1617
 1448SOL    HW1 4476   0.633   2.931   1.338  0.1314  0.1332 -0.4860
 1448SOL    HW2 4477   0.689   3.061   1.286 -0.2385  0.3804 -0.2726
 1449SOL     OW 4478   1.312   1.206   0.585 -0.2923 -0.6099  0.0713
 1449SOL    HW1 4479   1.233   1.256   0.566 -0.3596 -1.6640 -2.8821
 1449SOL    HW2 4480   1.375   1.272   0.616 -1.6604  0.5670  0.4718
 1450SOL     OW 4481   3.420   2.902   0.000 -0.6325  0.4582  0.1951
 1450SOL    HW1 4482   3.399   2.851   0.078 -0.4751  0.2894  0.1263
 1450SOL    HW2 4483   3.514   2.891  -0.011 -0.5544  0.9562  0.3175
 1451SOL     OW 4484   0.902   0.926   1.923 -0.7153  0.3946 -0.0092
 1451SOL    HW1 4485   0.832   0.902   1.862 -0.9079 -1.3723  0.8421
 1451SOL    HW2 4486   0.982   0.904   1.876 -0.8045  0.5728 -0.2467
 1452SOL     OW 4487   0.392   3.106   0.158 -0.5489 -0.3382 -0.2029
 1452SOL    HW1 4488   0.467   3.078   0.210 -1.7159  0.1012  1.8552
 1452SOL    HW2 4489   0.349   3.025   0.131 -1.8625 -0.7264  2.6147
 1453SOL     OW 4490   0.978   1.119   0.668  0.1481 -0.2020 -0.3982
 1453SOL    HW1 4491   0.957   1.047   0.609  0.4732 -0.1005 -0.6406
 1453SOL    HW2 4492   1.018   1.077   0.744  0.1236 -0.2949 -0.4367
 1454SOL     OW 4493   2.742   0.830   1.995  0.5729 -0.2150  0.9640
 1454SOL    HW1 4494   2.658   0.809   1.954 -0.3693  2.0735  1.5588
 1454SOL    HW2 4495   2.807   0.815   1.925 -0.7104  1.0694 -0.6048
 1455SOL     OW 4496   0.554   3.114   0.536 -0.3893 -0.4190  0.2102
 1455SOL    HW1 4497   0.524   3.204   0.546  1.6554  0.1767  1.8422
 1455SOL    HW2 4498   0.475   3.062   0.526 -1.5857  1.7152 -2.7966
 1456SOL     OW 4499  -0.002   3.179   0.763 -0.3835  0.1040 -0.8893
 1456SOL    HW1 4500   0.081   3.133   0.752  0.1985  0.3119  1.8168
 1456SOL    HW2 4501  -0.069   3.112   0.750  0.2842 -0.5122 -1.2041
 1457SOL     OW 4502   2.800   0.260   0.191  0.4140  0.2124  0.5185
 1457SOL    HW1 4503   2.888   0.222   0.185 -0.7831 -2.7879  0.2374
 1457SOL    HW2 4504   2.766   0.228   0.275 -1.3714 -1.0861 -0.6302
 1458SOL     OW 4505   3.531   2.985   1.365 -0.3575  0.4521 -0.2907
 1458SOL    HW1 4506   3.464   3.028   1.311 -0.0999  1.6132  0.2880
 1458SOL    HW2 4507   3.614   3.018   1.332 -0.0906 -0.3681 -0.4702
 1459SOL     OW 4508   1.130   1.175   1.239  0.3257  0.3429  0.1597
 1459SOL    HW1 4509   1.196   1.237   1.269  1.7370  0.1989 -2.3389
 1459SOL    HW2 4510   1.178   1.093   1.229 -1.0847 -0.7075  1.5873
 1460SOL     OW 4511   0.853   0.583   0.869 -0.3453  0.7594  0.2631
 1460SOL    HW1 4512   0.788   0.573   0.938 -1.6339 -2.4330 -1.1672
 1460SOL    HW2 4513   0.878   0.675   0.871 -3.7766  1.8126  1.9213
 1461SOL     OW 4514   3.527   1.981   2.867 -0.1781  0.0120 -0.1697
 1461SOL    HW1 4515   3.501   2.010   2.955 -0.6493  0.4097 -0.4341
 1461SOL    HW2 4516   3.485   1.896   2.856 -0.2667  0.0448 -0.0848
 1462SOL     OW 4517   3.358   2.712   1.345 -0.0344 -0.1192  0.1383
 1462SOL    HW1 4518   3.354   2.807   1.335 -1.1798 -0.2854 -1.3385
 1462SOL    HW2 4519   3.437   2.697   1.397  0.1910  1.6278  0.3615
 1463SOL     OW 4520   2.163   2.356   3.314  0.9006  0.3962 -0.1984
 1463SOL    HW1 4521   2.255   2.369   3.339  1.3433 -1.8706 -0.4346
 1463SOL    HW2 4522   2.164   2.277   3.261 -1.4140 -0.7362  1.3168
 1464SOL     OW 4523   3.718   3.587   0.869 -0.4096  0.7258  0.1073
 1464SOL    HW1 4524   3.748   3.574   0.779  1.0353  0.5611  0.5910
 1464SOL    HW2 4525   3.667   3.509   0.889  0.8693 -0.1412  0.0573
 1465SOL     OW 4526   3.655   1.514   2.183  0.3845  0.0081  0.4536
 1465SOL    HW1 4527   3.651   1.608   2.200  0.7781 -0.2459  2.1720
 1465SOL    HW2 4528   3.634   1.505   2.090  1.5526  1.8804 -0.0326
 1466SOL     OW 4529   1.023   2.218   1.138  0.8590 -0.4481 -0.1354
 1466SOL    HW1 4530   0.960   2.229   1.066  2.9190  3.8607 -1.6075
 1466SOL    HW2 4531   1.102   2.183   1.095  1.3562 -0.1366  0.5106
 1467SOL     OW 4532   1.349   1.043   0.812 -0.5527 -0.0239 -0.4712
 1467SOL    HW1 4533   1.436   1.076   0.833 -0.6761  0.3873 -0.6003
 1467SOL    HW2 4534   1.305   1.116   0.768 -1.3229  0.1347  0.5217
 1468SOL     OW 4535   0.443   3.413   1.877 -0.4212  0.0613  0.2270
 1468SOL    HW1 4536   0.421   3.447   1.963 -1.5333 -0.0484  0.0000
 1468SOL    HW2 4537   0.434   3.318   1.885 -1.5988  0.1115 -0.2752
 1469SOL     OW 4538   0.448   2.058   0.719  0.2184 -0.5541  0.4341
 1469SOL    HW1 4539   0.466   2.070   0.626  0.3179  1.7793  0.7080
 1469SOL    HW2 4540   0.531   2.026   0.755  1.8199  3.0931  0.4423
 1470SOL     OW 4541   1.977   1.013   3.698  0.3284 -0.0042  0.4350
 1470SOL    HW1 4542   2.021   1.000   3.782  0.9042 -0.6180  0.0522
 1470SOL    HW2 4543   1.957   1.106   3.694 -0.5937 -0.1254  1.6852
 1471SOL     OW 4544   1.838   1.930   3.448  0.9325 -0.2222  0.0805
 1471SOL    HW1 4545   1.831   1.882   3.531 -2.0672  0.3611  0.2527
 1471SOL    HW2 4546   1.797   1.872   3.384  0.0594  0.7936 -0.2990
 1472SOL     OW 4547   2.566   3.031   1.634 -0.0225  0.3522  0.1167
 1472SOL    HW1 4548   2.528   2.945   1.653  2.5702 -0.6767  1.2065
 1472SOL    HW2 4549   2.531   3.089   1.701  0.1847 -0.5042  0.9777
 1473SOL     OW 4550   1.238   2.126   0.275 -0.0830 -0.0970  0.0411
 1473SOL    HW1 4551   1.154   2.100   0.238  0.8519 -2.1250 -0.8406
 1473SOL    HW2 4552   1.232   2.221   0.286 -2.4748 -0.2001  0.0558
 1474SOL     OW 4553   2.132   3.404   0.744  0.1516 -0.2180 -0.0947
 1474SOL    HW1 4554   2.050   3.398   0.793  0.1362 -0.6027 -0.1669
 1474SOL    HW2 4555   2.153   3.314   0.722 -0.1370 -0.0197 -1.2692
 1475SOL     OW 4556   2.429   0.583   2.390  0.4891  0.4056  0.3488
 1475SOL    HW1 4557   2.436   0.623   2.303  0.7250 -0.0050  0.1729
 1475SOL    HW2 4558   2.502   0.621   2.439  1.8141 -1.0882 -0.3544
 1476SOL     OW 4559   3.203   0.806   2.769 -0.2067 -0.1653 -0.6641
 1476SOL    HW1 4560   3.240   0.729   2.725 -0.1429 -0.3773 -0.2444
 1476SOL    HW2 4561   3.208   0.876   2.704 -2.2244 -1.0116 -1.7900
 1477SOL     OW 4562   0.900   3.661   3.009  0.3844 -0.2486 -0.3761
 1477SOL    HW1 4563   0.850   3.737   3.037  1.5297  0.8268 -1.1098
 1477SOL    HW2 4564   0.969   3.651   3.074 -1.2750 -2.3582  1.2110
 1478SOL     OW 4565   1.513   2.665   1.504  0.3001  0.2926 -0.8301
 1478SOL    HW1 4566   1.519   2.569   1.504  1.0034  0.3336 -0.6415
 1478SOL    HW2 4567   1.528   2.690   1.595  0.2333  0.5926 -0.9001
 1479SOL     OW 4568   1.967   1.538   2.367 -0.2609  0.4347 -0.4136
 1479SOL    HW1 4569   1.975   1.442   2.365  1.9453  0.5676 -2.5855
 1479SOL    HW2 4570   1.874   1.553   2.380 -0.8984 -2.0521 -1.3881
 1480SOL     OW 4571   3.751   1.552   0.749 -0.5647 -0.1617 -0.3611
 1480SOL    HW1 4572   3.698   1.480   0.714 -0.6628  0.4459 -1.4769
 1480SOL    HW2 4573   3.695   1.629   0.740  0.7456  0.6307 -2.2479
 1481SOL     OW 4574   3.703   2.654   0.288  0.4006  0.0188 -0.4458
 1481SOL    HW1 4575   3.674   2.592   0.354  1.7682 -0.0577  0.1011
 1481SOL    HW2 4576   3.626   2.667   0.232  0.0719 -2.1295 -0.5563
 1482SOL     OW 4577   3.063   0.301   0.310 -0.7171  0.1112 -0.4185
 1482SOL    HW1 4578   3.101   0.370   0.256  0.0734 -0.7197 -0.9727
 1482SOL    HW2 4579   2.990   0.342   0.355  0.1449  1.4683 -0.2220
 1483SOL     OW 4580   3.293   2.611   0.806 -0.7103 -0.0853 -0.4112
 1483SOL    HW1 4581   3.375   2.636   0.847 -0.5431  1.4438 -1.6270
 1483SOL    HW2 4582   3.234   2.594   0.880  0.4720 -0.4856  0.4608
 1484SOL     OW 4583   1.607   2.299   0.136  0.0482  0.4461 -0.6218
 1484SOL    HW1 4584   1.648   2.223   0.096 -0.1555 -0.4126  0.7616
 1484SOL    HW2 4585   1.677   2.340   0.187 -0.6154 -0.7812  1.3983
 1485SOL     OW 4586   2.924   2.401   0.741  0.1467 -0.4252 -0.0592
 1485SOL    HW1 4587   2.917   2.405   0.837  1.0682 -1.3173  0.0636
 1485SOL    HW2 4588   2.988   2.332   0.725  0.2302 -0.0732 -1.3218
 1486SOL     OW 4589   3.533   0.768   0.709 -0.3247  0.0851 -0.2829
 1486SOL    HW1 4590   3.618   0.767   0.665  0.6963  1.4406  1.5216
 1486SOL    HW2 4591   3.549   0.721   0.791  0.5469  5.3115  2.9704
 1487SOL     OW 4592   2.947   0.722   1.333 -0.1899 -0.5280 -0.4481
 1487SOL    HW1 4593   3.026   0.756   1.375 -2.3813  0.5741  3.2853
 1487SOL    HW2 4594   2.972   0.636   1.300  2.5431 -0.2535  0.6408
 1488SOL     OW 4595   3.150   1.846   2.520 -0.6803  0.1146 -0.3214
 1488SOL    HW1 4596   3.169   1.938   2.537  0.5337 -0.0354 -0.7655
 1488SOL    HW2 4597   3.104   1.847   2.436  1.3507  0.1900 -1.5080
 1489SOL     OW 4598   1.185   0.354   2.120  0.1954 -0.3309  0.3448
 1489SOL    HW1 4599   1.092   0.352   2.142  0.5212 -0.3214  1.7954
 1489SOL    HW2 4600   1.190   0.315   2.032 -1.4597  2.0259 -0.8876
 1490SOL     OW 4601   3.207   2.204   0.012  0.0814  0.4346  0.0598
 1490SOL    HW1 4602   3.181   2.114  -0.009  0.9413  0.3292 -0.6384
 1490SOL    HW2 4603   3.128   2.256  -0.002  0.0360  0.0323 -1.3222
 1491SOL     OW 4604   1.273   0.350   1.307 -0.1768 -0.1549  0.4503
 1491SOL    HW1 4605   1.327   0.408   1.253 -0.7090 -0.1582 -0.0889
 1491SOL    HW2 4606   1.189   0.394   1.315 -0.0421 -0.0632  1.4530
 1492SOL     OW 4607   0.646   3.005   0.313  0.0595  0.2981 -0.4034
 1492SOL    HW1 4608   0.639   3.036   0.403 -1.4330 -1.5569  0.1949
 1492SOL    HW2 4609   0.705   2.930   0.317  1.1114  1.0549 -1.2456
 1493SOL     OW 4610   3.709   0.613   2.241  0.5100  0.6062  0.1724
 1493SOL    HW1 4611   3.702   0.557   2.319  2.0085 -1.2682 -0.9355
 1493SOL    HW2 4612   3.619   0.632   2.216 -0.0735 -1.4775  0.5435
 1494SOL     OW 4613   1.516   3.117   2.699  0.7113  0.9820 -0.5035
 1494SOL    HW1 4614   1.500   3.192   2.756 -0.1610  1.3608 -1.2177
 1494SOL    HW2 4615   1.590   3.144   2.644 -1.4291  2.6163 -2.8302
 1495SOL     OW 4616   1.895   2.698   3.406  0.0953  0.1488  0.0626
 1495SOL    HW1 4617   1.808   2.665   3.382 -0.1152  0.2205  0.7113
 1495SOL    HW2 4618   1.955   2.643   3.356 -0.3367  0.8756 -1.3395
 1496SOL     OW 4619   3.287   2.533   3.145  0.0044  0.5641 -0.2853
 1496SOL    HW1 4620   3.354   2.472   3.174 -0.8646 -0.6822 -0.8057
 1496SOL    HW2 4621   3.317   2.618   3.176  0.2227 -0.3684  2.2782
 1497SOL     OW 4622   1.794   3.497   0.606  0.8356 -0.0653  0.7508
 1497SOL    HW1 4623   1.845   3.484   0.687  0.6908  1.1421  1.0479
 1497SOL    HW2 4624   1.707   3.465   0.628  0.6994  0.5999  1.2015
 1498SOL     OW 4625   3.007   1.021   1.500 -0.0482 -0.1621  0.4177
 1498SOL    HW1 4626   2.924   1.022   1.453  0.4861  1.6771 -0.5767
 1498SOL    HW2 4627   3.003   1.096   1.559  0.5655 -0.5809  1.0161
 1499SOL     OW 4628   3.251   3.548   0.533  0.1663  0.3196 -0.1304
 1499SOL    HW1 4629   3.344   3.564   0.551  0.1434  1.4621 -0.9293
 1499SOL    HW2 4630   3.225   3.620   0.475 -0.7692 -0.9835 -1.3961
 1500SOL     OW 4631   0.409   3.368   0.033  0.5777 -0.5640  0.0586
 1500SOL    HW1 4632   0.348   3.423   0.081  1.4377  0.1408  0.3841
 1500SOL    HW2 4633   0.392   3.279   0.063  0.6530 -0.2096  1.1821
 1501SOL     OW 4634   3.051   3.157   2.703 -0.0696 -0.1800 -0.2728
 1501SOL    HW1 4635   3.127   3.150   2.645 -0.1506  0.3069 -0.4433
 1501SOL    HW2 4636   3.066   3.237   2.753  0.0661 -0.6736  0.4807
 1502SOL     OW 4637   2.580   0.367   1.874 -0.2758  0.6140 -0.6585
 1502SOL    HW1 4638   2.531   0.447   1.894 -2.3035 -1.0652  1.7826
 1502SOL    HW2 4639   2.531   0.325   1.804 -0.5633  0.4086 -0.3363
 1503SOL     OW 4640   0.354   2.545   1.903  0.4488  0.1301  0.6049
 1503SOL    HW1 4641   0.262   2.523   1.919  0.6396  0.1801  1.8702
 1503SOL    HW2 4642   0.367   2.628   1.948  1.2008 -0.0659  0.7674
 1504SOL     OW 4643   0.643   1.168   1.829  0.6695  0.1997 -0.0767
 1504SOL    HW1 4644   0.584   1.197   1.760 -0.0421 -0.3279  0.2981
 1504SOL    HW2 4645   0.617   1.078   1.848  1.0536  0.2297  0.6534
 1505SOL     OW 4646   1.752   1.733   3.235 -0.1666 -0.1537  0.6352
 1505SOL    HW1 4647   1.716   1.785   3.164 -2.0150 -0.7937  1.0576
 1505SOL    HW2 4648   1.685   1.668   3.255  0.6572 -0.5545  2.3835
 1506SOL     OW 4649   0.800   1.414   2.855  0.1262  0.6471 -0.2152
 1506SOL    HW1 4650   0.763   1.495   2.890 -0.5003  0.8384 -1.2823
 1506SOL    HW2 4651   0.763   1.407   2.767  1.2377 -0.0961 -0.6409
 1507SOL     OW 4652   0.220   2.463   2.483  0.1957  0.3289 -0.1742
 1507SOL    HW1 4653   0.285   2.395   2.503 -0.1419  0.5908  2.1793
 1507SOL    HW2 4654   0.272   2.542   2.467  0.5228  0.2567  0.4750
 1508SOL     OW 4655   1.893   0.978   3.065  0.0741  0.9618  0.0106
 1508SOL    HW1 4656   1.827   0.931   3.117  0.8207  0.7464  0.7832
 1508SOL    HW2 4657   1.874   1.071   3.079  1.2139  0.9424  1.9609
 1509SOL     OW 4658   1.576   0.761   2.323  0.6586  0.9332 -0.8240
 1509SOL    HW1 4659   1.592   0.854   2.341  0.0522  1.0453 -0.8460
 1509SOL    HW2 4660   1.488   0.758   2.286  0.5284  0.3078 -0.4812
 1510SOL     OW 4661   2.692   3.286   3.671 -0.0130 -0.3122 -0.0361
 1510SOL    HW1 4662   2.675   3.379   3.660  0.2808  0.1050  2.5396
 1510SOL    HW2 4663   2.767   3.268   3.614  1.2125  1.5042  0.9313
 1511SOL     OW 4664   2.279   3.620   0.058  0.6056  0.1866 -0.4396
 1511SOL    HW1 4665   2.225   3.541   0.054  0.4833  0.1758  0.9171
 1511SOL    HW2 4666   2.359   3.593   0.103 -0.0744  1.1442  1.4217
 1512SOL     OW 4667   2.940   2.808   3.307 -0.1916 -0.9724 -0.1174
 1512SOL    HW1 4668   2.880   2.850   3.245 -2.3130 -3.3478  0.1723
 1512SOL    HW2 4669   2.954   2.721   3.271  0.5292 -1.5373  1.4707
 1513SOL     OW 4670   1.558   1.262   1.224 -0.3404  0.3175 -0.2794
 1513SOL    HW1 4671   1.609   1.232   1.299 -0.6074  0.2448 -0.1263
 1513SOL    HW2 4672   1.467   1.261   1.254 -0.5263 -0.4502 -0.8414
 1514SOL     OW 4673   0.462   2.557   1.220  0.3133 -0.3609  0.1364
 1514SOL    HW1 4674   0.430   2.552   1.130 -0.3327 -2.7989  0.4432
 1514SOL    HW2 4675   0.404   2.499   1.270  1.0789  0.3922  2.0047
 1515SOL     OW 4676   0.478   0.634   2.793 -0.5239  0.3521  1.0150
 1515SOL    HW1 4677   0.549   0.676   2.842 -1.8905  2.1156  1.5859
 1515SOL    HW2 4678   0.508   0.544   2.780  2.4827  1.4127 -0.1282
 1516SOL     OW 4679   0.081   2.151   2.813  0.5833  0.1337 -0.6866
 1516SOL    HW1 4680   0.064   2.233   2.766  0.3304 -0.2684 -1.3150
 1516SOL    HW2 4681  -0.004   2.108   2.817  0.3355  0.7041  1.2474
 1517SOL     OW 4682   0.560   0.306   3.036 -0.4646  0.1990  0.2435
 1517SOL    HW1 4683   0.503   0.333   2.964  0.5196 -1.1993 -1.1491
 1517SOL    HW2 4684   0.577   0.386   3.085  0.1242  1.5973 -2.0628
 1518SOL     OW 4685   0.064   2.104   1.291 -0.5669 -0.3525  0.3247
 1518SOL    HW1 4686   0.155   2.110   1.262 -0.8502 -0.6906 -0.7023
 1518SOL    HW2 4687   0.062   2.030   1.351 -0.0248  0.1439  0.9720
 1519SOL     OW 4688   0.213   1.785   3.201  0.3911  0.7591 -0.1467
 1519SOL    HW1 4689   0.305   1.813   3.193  0.3152  1.2328  0.5856
 1519SOL    HW2 4690   0.194   1.791   3.294 -0.0588 -0.4131 -0.1477
 1520SOL     OW 4691   1.213   3.599   0.083  0.1009  0.1626 -0.6027
 1520SOL    HW1 4692   1.219   3.686   0.124  0.2512 -0.4495  0.7094
 1520SOL    HW2 4693   1.143   3.555   0.131 -0.5187 -0.1872 -1.7824
 1521SOL     OW 4694   1.489   3.723   0.697  0.4390  0.5100 -0.0532
 1521SOL    HW1 4695   1.510   3.664   0.769 -0.7924  0.2097  0.0824
 1521SOL    HW2 4696   1.399   3.701   0.673  0.7585  0.7417 -1.5598
 1522SOL     OW 4697   2.458   3.702   1.127  0.4816 -0.1363  0.3022
 1522SOL    HW1 4698   2.487   3.791   1.107  2.6512 -1.1365 -1.5322
 1522SOL    HW2 4699   2.536   3.659   1.162 -0.2385 -1.5911  0.1897
 1523SOL     OW 4700   2.459   2.503   1.484  0.4384  0.1904 -0.2973
 1523SOL    HW1 4701   2.370   2.494   1.451  0.5896  0.6753 -0.8617
 1523SOL    HW2 4702   2.511   2.529   1.408  0.5730  2.6144  0.5324
 1524SOL     OW 4703   2.652   1.607   2.720  0.3614  0.0908 -0.2793
 1524SOL    HW1 4704   2.575   1.576   2.768 -0.7024 -0.2282 -2.1098
 1524SOL    HW2 4705   2.651   1.702   2.732 -0.6314  0.1451 -0.7037
 1525SOL     OW 4706   2.295   1.998   1.245 -0.4118 -0.1532  0.3681
 1525SOL    HW1 4707   2.383   1.968   1.224  1.1439  3.5688  1.0038
 1525SOL    HW2 4708   2.287   1.986   1.339  0.6128  2.2017  0.7941
 1526SOL     OW 4709   3.429   1.756   3.464 -0.4091  0.0309  0.1498
 1526SOL    HW1 4710   3.364   1.799   3.409  0.0765 -0.5885 -0.9455
 1526SOL    HW2 4711   3.389   1.671   3.486  0.9645 -1.4993 -2.6885
 1527SOL     OW 4712   3.694   0.226   0.443  0.4773 -0.3278 -0.4339
 1527SOL    HW1 4713   3.656   0.314   0.444  1.2407  0.0271 -1.3391
 1527SOL    HW2 4714   3.628   0.171   0.485 -0.1205  0.6303 -0.0883
 1528SOL     OW 4715   2.099   2.632   2.363  0.1757  0.7207 -0.2327
 1528SOL    HW1 4716   2.167   2.674   2.311  0.3878  0.7561  0.0712
 1528SOL    HW2 4717   2.078   2.552   2.315 -0.2360  1.1686 -0.8162
 1529SOL     OW 4718   0.260   3.668   2.879 -0.3189  0.1928  0.3565
 1529SOL    HW1 4719   0.179   3.641   2.922 -0.9090  1.2483 -0.0528
 1529SOL    HW2 4720   0.322   3.682   2.951 -0.7036  0.0432  0.7209
 1530SOL     OW 4721   1.652   0.177   2.354 -0.0401  0.2049 -0.1715
 1530SOL    HW1 4722   1.564   0.200   2.323  0.1584  1.6809  0.2801
 1530SOL    HW2 4723   1.711   0.236   2.306  0.6880 -0.6055 -0.2967
 1531SOL     OW 4724   3.061   2.074   2.222 -0.4920  0.3129  0.8336
 1531SOL    HW1 4725   3.093   2.163   2.231  1.2611 -0.2443  0.5351
 1531SOL    HW2 4726   3.140   2.020   2.221 -1.2268 -0.9317 -2.8118
 1532SOL     OW 4727   1.203   2.085   2.190 -0.0162 -0.1840 -0.4329
 1532SOL    HW1 4728   1.254   2.056   2.114  0.9812 -0.2388  0.2383
 1532SOL    HW2 4729   1.257   2.153   2.231 -0.0408 -0.8591  0.7903
 1533SOL     OW 4730   2.740   2.462   0.523  0.0153  0.6378  0.1743
 1533SOL    HW1 4731   2.756   2.541   0.471  1.2793 -0.6416 -1.5023
 1533SOL    HW2 4732   2.789   2.476   0.604 -0.8043  2.0778  0.4408
 1534SOL     OW 4733   3.155   3.160   1.588  0.0172  0.0120 -0.3363
 1534SOL    HW1 4734   3.215   3.087   1.606 -0.2287 -0.2890 -0.7284
 1534SOL    HW2 4735   3.211   3.229   1.554  1.0387  1.6941  4.0973
 1535SOL     OW 4736   2.784   3.498   2.400  0.6836  0.2197  0.2769
 1535SOL    HW1 4737   2.746   3.415   2.371  0.2313  0.3684  0.4405
 1535SOL    HW2 4738   2.746   3.563   2.341  0.8018  0.3506  0.3457
 1536SOL     OW 4739   1.282   1.237   2.692 -0.2446 -0.0076  0.1567
 1536SOL    HW1 4740   1.198   1.267   2.725 -0.4915  0.1085 -0.5568
 1536SOL    HW2 4741   1.315   1.176   2.758 -0.9371 -0.1280  0.3889
 1537SOL     OW 4742   2.691   2.783   1.843 -0.4352  0.2484 -0.2436
 1537SOL    HW1 4743   2.783   2.758   1.846 -0.9635 -2.0472 -0.8179
 1537SOL    HW2 4744   2.659   2.748   1.760 -2.2400 -0.7703  0.8054
 1538SOL     OW 4745   0.025   0.443   0.198  0.8526  0.5644  0.3727
 1538SOL    HW1 4746   0.101   0.457   0.255  0.9983 -0.8281  0.5542
 1538SOL    HW2 4747   0.052   0.372   0.140  0.4638  1.5375 -1.0290
 1539SOL     OW 4748   2.340   2.836   0.436  0.1794 -0.7317 -0.0389
 1539SOL    HW1 4749   2.399   2.843   0.361  0.3512 -0.3884  0.1223
 1539SOL    HW2 4750   2.265   2.891   0.412  0.7718  0.3605  0.5300
 1540SOL     OW 4751   0.634   1.871   0.810 -0.4329  0.2711  0.0754
 1540SOL    HW1 4752   0.671   1.814   0.742 -0.4518 -0.8553  0.9804
 1540SOL    HW2 4753   0.633   1.817   0.889 -1.5844  1.1363  0.6842
 1541SOL     OW 4754   1.830   2.079   2.815  0.1519 -0.3884  0.4224
 1541SOL    HW1 4755   1.850   2.089   2.908 -0.1139  1.0299  0.3504
 1541SOL    HW2 4756   1.784   1.996   2.809 -2.2385  0.7007  1.9893
 1542SOL     OW 4757   3.027   3.414   1.586  0.1452  0.0264  0.4809
 1542SOL    HW1 4758   3.037   3.319   1.588 -1.2913 -0.1513  1.7372
 1542SOL    HW2 4759   3.079   3.445   1.660  1.7366  0.3835 -0.7529
 1543SOL     OW 4760   0.857   2.164   1.740 -0.0331 -0.3475  0.6668
 1543SOL    HW1 4761   0.872   2.257   1.722  0.6276 -0.3411  1.2299
 1543SOL    HW2 4762   0.942   2.123   1.730 -0.7475 -1.3362 -2.0161
 1544SOL     OW 4763   2.438   3.025   0.951  0.4804  0.4216 -0.8843
 1544SOL    HW1 4764   2.450   3.117   0.926  1.0072  1.1804  1.8173
 1544SOL    HW2 4765   2.484   2.975   0.884  0.3501  2.1167 -2.3063
 1545SOL     OW 4766   1.753   3.449   2.374 -0.5158  0.2730 -0.2949
 1545SOL    HW1 4767   1.793   3.534   2.356  0.8785 -0.0773  0.8881
 1545SOL    HW2 4768   1.661   3.469   2.390  0.1478  1.9746  2.2187
 1546SOL     OW 4769   1.091   0.689   3.554 -0.2504  0.1403 -0.1589
 1546SOL    HW1 4770   1.004   0.664   3.587  0.2792 -0.3723  0.8849
 1546SOL    HW2 4771   1.092   0.659   3.463 -0.2460 -2.1967  0.5600
 1547SOL     OW 4772   0.891   0.077   0.264 -0.2232  0.4794 -0.2337
 1547SOL    HW1 4773   0.879   0.101   0.355  2.8789 -1.0111  0.7169
 1547SOL    HW2 4774   0.980   0.107   0.243 -1.0121  1.2241 -2.9607
 1548SOL     OW 4775   2.962   0.729   3.212 -0.1179  0.2676  0.1712
 1548SOL    HW1 4776   2.924   0.817   3.216 -0.4818  0.1173  0.0623
 1548SOL    HW2 4777   2.897   0.674   3.255 -0.2881 -0.0832 -0.5226
 1549SOL     OW 4778   0.650   2.729   2.470 -0.4836  0.2031 -0.0135
 1549SOL    HW1 4779   0.689   2.644   2.450 -1.3211 -0.4364  0.9822
 1549SOL    HW2 4780   0.710   2.770   2.532 -0.8016 -0.2874  0.6234
 1550SOL     OW 4781   0.053   2.631   1.744  0.3093  0.1653  0.1556
 1550SOL    HW1 4782  -0.019   2.674   1.699 -0.9777 -1.9321  0.1006
 1550SOL    HW2 4783   0.098   2.702   1.790 -2.0373  1.4730  0.5580
 1551SOL     OW 4784   2.503   1.318   3.585 -0.5631 -0.1182 -0.6501
 1551SOL    HW1 4785   2.570   1.373   3.544 -0.9457  1.0243  0.1911
 1551SOL    HW2 4786   2.528   1.317   3.678 -1.2311 -0.3928 -0.4733
 1552SOL     OW 4787   0.351   0.038   2.634 -0.1804  0.0368 -0.4688
 1552SOL    HW1 4788   0.376   0.126   2.604  2.9031 -1.0127 -1.3276
 1552SOL    HW2 4789   0.347   0.046   2.730  1.3305  0.8814 -0.4393
 1553SOL     OW 4790   1.675   2.236   3.042  0.5462  0.3698  0.3379
 1553SOL    HW1 4791   1.686   2.163   3.102  1.8336  0.1277 -0.1549
 1553SOL    HW2 4792   1.752   2.232   2.985  1.4613  2.9961  1.2624
 1554SOL     OW 4793   1.166   2.556   2.383  0.5826  0.0243  0.4123
 1554SOL    HW1 4794   1.110   2.634   2.379  0.9571  0.4250  2.1553
 1554SOL    HW2 4795   1.243   2.579   2.332  0.1859  0.3493 -0.0544
 1555SOL     OW 4796   3.424   2.461   1.726 -0.5893 -0.1593  0.2764
 1555SOL    HW1 4797   3.421   2.551   1.757 -1.1419 -0.7085  1.9860
 1555SOL    HW2 4798   3.340   2.447   1.682 -0.3287  0.2671 -0.3689
 1556SOL     OW 4799   1.452   3.119   2.401 -0.1871  0.1773 -0.5166
 1556SOL    HW1 4800   1.424   3.034   2.435  1.2162  0.7887  2.5559
 1556SOL    HW2 4801   1.525   3.098   2.342 -1.3589 -0.8360 -1.6605
 1557SOL     OW 4802   3.088   2.593   1.403 -0.2607 -0.4944 -0.0706
 1557SOL    HW1 4803   3.141   2.565   1.478 -1.8813 -0.8992  0.9610
 1557SOL    HW2 4804   3.093   2.688   1.405 -1.2035 -0.4479  1.2680
 1558SOL     OW 4805   1.035   1.464   0.993  0.0684  0.1216  0.3688
 1558SOL    HW1 4806   1.077   1.389   0.952  0.0733  0.9043 -1.0953
 1558SOL    HW2 4807   1.073   1.467   1.081  0.8340 -0.9611  0.1006
 1559SOL     OW 4808   1.946   1.416   1.540 -0.0690 -0.0418 -0.1134
 1559SOL    HW1 4809   2.006   1.472   1.590 -0.2707  1.1568 -1.1528
 1559SOL    HW2 4810   1.962   1.328   1.573 -0.4967  0.7318  2.3610
 1560SOL     OW 4811   2.938   2.307   3.017  0.5292  0.1413 -0.4620
 1560SOL    HW1 4812   2.994   2.360   2.959  0.4291  0.5282 -0.2104
 1560SOL    HW2 4813   2.993   2.290   3.093 -0.4000  2.4311  0.8103
 1561SOL     OW 4814   0.966   1.805   1.200  0.1793  0.7419  0.6069
 1561SOL    HW1 4815   1.022   1.856   1.143 -1.5364 -0.6975 -2.6571
 1561SOL    HW2 4816   0.882   1.852   1.200 -0.5026 -0.4244  0.0359
 1562SOL     OW 4817   1.478   2.435   0.850 -0.3119  0.2160  0.2805
 1562SOL    HW1 4818   1.517   2.517   0.820  0.6319 -0.4246 -0.2935
 1562SOL    HW2 4819   1.552   2.375   0.859 -0.6945  0.0345  2.8385
 1563SOL     OW 4820   2.798   1.710   0.518  0.0807 -0.6124  0.0193
 1563SOL    HW1 4821   2.888   1.684   0.535  0.1831 -0.6077 -0.5066
 1563SOL    HW2 4822   2.746   1.651   0.573  0.3970 -0.6585  0.2729
 1564SOL     OW 4823   1.377   0.640   2.612  0.1758 -0.0185  0.2436
 1564SOL    HW1 4824   1.427   0.561   2.589  2.5640  1.8200 -1.3960
 1564SOL    HW2 4825   1.434   0.688   2.672 -1.4739  0.2830  1.6449
 1565SOL     OW 4826   1.068   2.038   1.651 -0.2572  0.2526  0.0227
 1565SOL    HW1 4827   1.028   2.058   1.567 -0.2033 -0.1012 -0.0882
 1565SOL    HW2 4828   1.158   2.014   1.631 -0.4479 -0.5637  0.0965
 1566SOL     OW 4829   1.386   2.555   2.182  0.1973  0.1595  0.3309
 1566SOL    HW1 4830   1.475   2.532   2.153 -0.1420 -0.6918 -0.0715
 1566SOL    HW2 4831   1.355   2.617   2.117  0.1964 -0.1847 -0.0031
 1567SOL     OW 4832   0.647   0.422   2.730 -1.3419 -0.3266  0.7460
 1567SOL    HW1 4833   0.710   0.464   2.672 -1.7159 -0.4982  0.1981
 1567SOL    HW2 4834   0.695   0.350   2.770 -1.6339 -1.5282 -0.9774
 1568SOL     OW 4835   2.793   3.434   0.250  0.4904 -0.8288 -0.0861
 1568SOL    HW1 4836   2.823   3.487   0.324  0.1554 -3.3925  1.9942
 1568SOL    HW2 4837   2.870   3.428   0.193  1.1255  0.2039  0.6155
 1569SOL     OW 4838   1.023   2.414   2.183 -0.3376 -0.8752  0.0675
 1569SOL    HW1 4839   1.098   2.472   2.197 -1.2524  0.1463  0.9078
 1569SOL    HW2 4840   1.027   2.393   2.089 -0.1353  0.7886 -0.3268
 1570SOL     OW 4841   3.653   2.350   1.342 -0.2993 -0.2124  0.2327
 1570SOL    HW1 4842   3.714   2.424   1.341  0.5761 -0.9183  0.2686
 1570SOL    HW2 4843   3.709   2.273   1.352 -1.3279 -0.7589  2.2102
 1571SOL     OW 4844   3.044   2.177   1.560  0.5157 -0.1323 -0.3983
 1571SOL    HW1 4845   3.028   2.179   1.466 -0.3001 -3.4241 -0.4515
 1571SOL    HW2 4846   2.957   2.182   1.600  0.7116 -0.3709  0.0817
 1572SOL     OW 4847   2.050   1.975   1.753  0.3582  0.0458 -0.3592
 1572SOL    HW1 4848   2.031   1.924   1.832 -0.5189  1.4731  0.3984
 1572SOL    HW2 4849   2.090   2.055   1.785  1.0638  0.1576 -1.4692
 1573SOL     OW 4850   1.501   1.557   3.094 -0.3013  0.2845  0.5610
 1573SOL    HW1 4851   1.408   1.576   3.079 -1.0803  0.4666  4.5826
 1573SOL    HW2 4852   1.502   1.465   3.120  1.0613 -0.4048 -1.6659
 1574SOL     OW 4853   3.492   0.368   2.869  0.2468  0.1832 -0.7228
 1574SOL    HW1 4854   3.477   0.461   2.888 -0.2847  0.0098 -0.2609
 1574SOL    HW2 4855   3.435   0.322   2.930  2.7955 -0.5368  1.2776
 1575SOL     OW 4856   3.279   1.317   0.806  0.3169  0.0805  0.1873
 1575SOL    HW1 4857   3.298   1.336   0.898  0.2081  1.3039 -0.0333
 1575SOL    HW2 4858   3.353   1.354   0.758  0.0894 -0.0434 -0.2664
 1576SOL     OW 4859   1.241   0.220   0.756 -0.6325 -0.5841  0.7355
 1576SOL    HW1 4860   1.321   0.236   0.806  0.4257 -1.1762 -0.6906
 1576SOL    HW2 4861   1.200   0.306   0.747 -0.0732 -0.2488  1.3620
 1577SOL     OW 4862   0.692   3.354   0.816 -0.4336  0.5155 -0.0572
 1577SOL    HW1 4863   0.661   3.265   0.835 -1.3900  1.1722  1.7186
 1577SOL    HW2 4864   0.739   3.380   0.895 -3.6457  3.0356  1.2022
 1578SOL     OW 4865   0.651   2.011   0.494  0.6086 -0.5420 -0.2502
 1578SOL    HW1 4866   0.686   1.922   0.488  1.0342 -0.4909  1.2396
 1578SOL    HW2 4867   0.597   2.020   0.416  1.1393 -1.8513 -0.7980
 1579SOL     OW 4868   3.711   1.718   3.440 -0.1823  0.6751  0.2256
 1579SOL    HW1 4869   3.620   1.746   3.434 -0.5349 -0.4366  0.1448
 1579SOL    HW2 4870   3.721   1.652   3.371  0.1930 -0.4809  1.3504
 1580SOL     OW 4871   2.203   3.701   1.801 -0.5861 -0.0825 -0.6766
 1580SOL    HW1 4872   2.198   3.784   1.752 -0.0482  0.1279 -0.3868
 1580SOL    HW2 4873   2.122   3.698   1.852 -1.2320 -0.3832 -1.6997
 1581SOL     OW 4874   1.267   1.801   1.283 -0.1932 -0.2810 -0.1646
 1581SOL    HW1 4875   1.340   1.764   1.333 -0.4299 -0.2631  0.1960
 1581SOL    HW2 4876   1.203   1.731   1.278 -0.6697  0.0917  0.5724
 1582SOL     OW 4877   1.083   2.607   0.519  0.2624 -0.3977  0.2051
 1582SOL    HW1 4878   1.152   2.617   0.585 -1.2691  1.3205  1.6293
 1582SOL    HW2 4879   1.048   2.519   0.535 -0.4635  0.1903  2.1327
 1583SOL     OW 4880   2.315   3.329   1.708  0.1070  0.0204 -0.7354
 1583SOL    HW1 4881   2.303   3.408   1.655  0.2317  0.5873  0.0662
 1583SOL    HW2 4882   2.257   3.264   1.668 -0.0412  0.5357 -1.3675
 1584SOL     OW 4883   2.756   3.040   2.821  0.4018  0.3614 -0.2832
 1584SOL    HW1 4884   2.829   2.997   2.776  1.8166  1.3329  0.9637
 1584SOL    HW2 4885   2.714   3.093   2.754  0.0951 -1.0846 -1.2932
 1585SOL     OW 4886   1.686   1.878   0.700  0.2329 -0.2065 -0.4822
 1585SOL    HW1 4887   1.756   1.885   0.764  0.4096 -2.1588 -0.4006
 1585SOL    HW2 4888   1.717   1.928   0.625  1.1333  0.0422  0.0408
 1586SOL     OW 4889   3.168   1.600   1.858 -0.3877  0.6520  0.2384
 1586SOL    HW1 4890   3.239   1.663   1.840  0.6477 -0.2459  1.0324
 1586SOL    HW2 4891   3.213   1.522   1.890 -1.5367 -0.9741 -1.8467
 1587SOL     OW 4892   0.432   1.860   1.484  0.0793  0.1497 -0.1205
 1587SOL    HW1 4893   0.407   1.928   1.421  0.5254 -0.0583 -0.5340
 1587SOL    HW2 4894   0.512   1.823   1.447  1.7704  1.6571  1.7703
 1588SOL     OW 4895   3.569   1.415   0.617  0.1155  0.5239  0.1560
 1588SOL    HW1 4896   3.489   1.419   0.565  0.4492  1.7741 -0.2990
 1588SOL    HW2 4897   3.639   1.405   0.552  0.3295 -0.9739  0.5688
 1589SOL     OW 4898   2.035   2.453   1.226 -0.0085  0.0492  0.1880
 1589SOL    HW1 4899   2.110   2.407   1.265  0.7013 -0.3398 -1.5017
 1589SOL    HW2 4900   1.972   2.461   1.297  0.8440 -1.3835  1.1722
 1590SOL     OW 4901   1.892   0.746   2.822 -0.4939  0.0525 -0.2357
 1590SOL    HW1 4902   1.847   0.831   2.827  1.1411  1.0064 -0.8603
 1590SOL    HW2 4903   1.843   0.697   2.755  0.8765  2.0816 -2.9188
 1591SOL     OW 4904   3.488   3.037   0.769  0.2851 -0.2375 -0.4093
 1591SOL    HW1 4905   3.445   3.102   0.825  0.0980  0.7694 -1.6766
 1591SOL    HW2 4906   3.419   3.009   0.708  0.9893  0.2330 -1.4535
 1592SOL     OW 4907   3.035   1.253   1.907 -0.1135 -0.1565 -0.1362
 1592SOL    HW1 4908   3.098   1.282   1.974  0.3751  0.5838 -0.8881
 1592SOL    HW2 4909   3.025   1.159   1.923  1.2760 -0.3207 -0.0576
 1593SOL     OW 4910   1.287   1.935   3.252 -0.2582  0.1479 -0.2057
 1593SOL    HW1 4911   1.262   1.855   3.298  1.1139  0.2671  0.8164
 1593SOL    HW2 4912   1.282   2.004   3.318  1.2502  0.4137 -0.3332
 1594SOL     OW 4913   3.147   0.537   2.263  0.4951 -0.0311  0.4952
 1594SOL    HW1 4914   3.077   0.510   2.323  0.9587  1.7531  1.9369
 1594SOL    HW2 4915   3.109   0.609   2.213  1.3647  1.1849  1.5341
 1595SOL     OW 4916   3.296   1.072   3.122  0.1283 -0.0327  0.0189
 1595SOL    HW1 4917   3.248   0.990   3.123  1.7639 -1.0809  2.1683
 1595SOL    HW2 4918   3.356   1.064   3.048 -0.2408 -0.4378 -0.2397
 1596SOL     OW 4919   0.835   2.763   0.352  0.0983  0.1827  0.2337
 1596SOL    HW1 4920   0.781   2.689   0.328  0.9781 -1.4198  2.7620
 1596SOL    HW2 4921   0.911   2.758   0.294  0.0166 -0.7470  0.2036
 1597SOL     OW 4922   2.978   3.171   0.283 -0.5700 -0.5341 -0.5517
 1597SOL    HW1 4923   2.946   3.092   0.326  1.1615 -0.4532  1.0213
 1597SOL    HW2 4924   2.997   3.232   0.355  1.2230  0.0919 -1.4865
 1598SOL     OW 4925   1.420   0.159   1.164 -0.8804 -0.3746  0.1148
 1598SOL    HW1 4926   1.503   0.154   1.211 -1.1693 -2.4051  0.5126
 1598SOL    HW2 4927   1.358   0.194   1.228 -0.2924  1.5176 -0.3020
 1599SOL     OW 4928   1.443   3.115   0.511  0.9093  0.0215  0.8158
 1599SOL    HW1 4929   1.364   3.108   0.564 -0.0395  0.5036 -0.4747
 1599SOL    HW2 4930   1.479   3.200   0.533  0.1814  0.4862  0.2613
 1600SOL     OW 4931   3.164   0.208   1.610 -0.1797  0.2950  0.5063
 1600SOL    HW1 4932   3.202   0.176   1.528 -1.1443  1.7503 -0.5608
 1600SOL    HW2 4933   3.081   0.161   1.618  0.4695 -0.7404  1.3070
 1601SOL     OW 4934   1.134   3.728   2.252 -0.5975  0.3803  0.4614
 1601SOL    HW1 4935   1.052   3.678   2.252 -0.4370  0.0548 -1.4359
 1601SOL    HW2 4936   1.144   3.759   2.162  0.8438  1.2948  0.9032
 1602SOL     OW 4937   0.833   1.918   0.182 -0.2818  0.1221 -0.2631
 1602SOL    HW1 4938   0.827   1.867   0.101  0.2320  1.3261 -1.0909
 1602SOL    HW2 4939   0.833   1.852   0.251 -1.5653 -0.9142 -1.1761
 1603SOL     OW 4940   2.832   1.841   0.082  0.4964  0.0775 -0.0660
 1603SOL    HW1 4941   2.765   1.883   0.135 -2.7139 -0.3867 -3.3910
 1603SOL    HW2 4942   2.862   1.767   0.134 -0.7124  0.9585  1.9819
 1604SOL     OW 4943   2.930   0.332   2.100  0.4779 -0.3041  0.7441
 1604SOL    HW1 4944   2.866   0.261   2.107 -1.5199  1.1060 -1.4585
 1604SOL    HW2 4945   3.006   0.292   2.058 -1.1090 -0.9889 -1.7024
 1605SOL     OW 4946   2.885   0.938   0.963 -0.1873 -0.0797 -0.0137
 1605SOL    HW1 4947   2.974   0.920   0.994 -0.4932  1.0685  1.6708
 1605SOL    HW2 4948   2.890   1.024   0.922  0.2152 -1.5979 -3.4138
 1606SOL     OW 4949   0.412   1.277   3.453  0.0071 -0.4912 -0.1081
 1606SOL    HW1 4950   0.501   1.240   3.456  0.7517  1.1996  0.1069
 1606SOL    HW2 4951   0.359   1.208   3.415  1.7102 -1.0395 -1.6467
 1607SOL     OW 4952   3.648   1.095   1.433  0.3676 -0.5062  0.1868
 1607SOL    HW1 4953   3.606   1.010   1.450 -0.1671 -0.4831 -0.9415
 1607SOL    HW2 4954   3.576   1.156   1.424  0.5997 -0.4791 -1.8475
 1608SOL     OW 4955   1.408   3.646   2.044 -0.6789  0.2927  0.6776
 1608SOL    HW1 4956   1.352   3.569   2.049 -0.4546  0.0721 -0.0622
 1608SOL    HW2 4957   1.372   3.698   1.972 -1.5604  1.4885  1.9424
 1609SOL     OW 4958   2.748   2.804   2.377 -0.1169  0.0424 -0.3961
 1609SOL    HW1 4959   2.678   2.799   2.311  0.1275  0.2316 -0.6687
 1609SOL    HW2 4960   2.789   2.717   2.374  0.5572  0.3744 -1.2276
 1610SOL     OW 4961   0.543   1.744   2.558 -0.8162 -0.0046  0.2336
 1610SOL    HW1 4962   0.518   1.652   2.555  0.1364 -0.3180  1.4151
 1610SOL    HW2 4963   0.595   1.753   2.638 -0.8398  1.5462  0.1081
 1611SOL     OW 4964   3.167   1.043   0.675  0.5008  0.2493  0.2017
 1611SOL    HW1 4965   3.239   0.981   0.687 -0.0466 -0.6274 -0.8654
 1611SOL    HW2 4966   3.133   1.023   0.588 -0.5121  1.2029  0.3631
 1612SOL     OW 4967   1.321   2.524   2.627  0.0470  0.5770 -0.4943
 1612SOL    HW1 4968   1.410   2.515   2.594  0.1099  0.8646 -0.4100
 1612SOL    HW2 4969   1.273   2.567   2.556 -0.7301 -2.0261 -1.6860
 1613SOL     OW 4970   1.270   2.504   1.234  0.7613  0.5793  0.3943
 1613SOL    HW1 4971   1.231   2.549   1.309  2.1695 -0.6826  1.9297
 1613SOL    HW2 4972   1.331   2.568   1.197  1.1592  0.7020  1.2411
 1614SOL     OW 4973   0.723   1.290   3.151  0.0428 -0.2471  0.1777
 1614SOL    HW1 4974   0.631   1.313   3.136 -0.5781 -1.8117  1.3130
 1614SOL    HW2 4975   0.748   1.242   3.072 -0.1791  0.0083 -0.0497
 1615SOL     OW 4976   1.612   2.822   2.119 -0.3267 -0.1384  0.3488
 1615SOL    HW1 4977   1.637   2.763   2.190 -0.9967  0.9214  1.4931
 1615SOL    HW2 4978   1.649   2.907   2.144  0.7783 -0.0552 -1.3595
 1616SOL     OW 4979   0.888   2.857   2.260  0.5645  0.1658 -0.2581
 1616SOL    HW1 4980   0.927   2.941   2.283 -0.0641 -0.0013  1.6391
 1616SOL    HW2 4981   0.901   2.803   2.338  0.8669 -1.4760 -1.4056
 1617SOL     OW 4982   2.108   0.419   2.324  0.0371  0.1470 -0.3253
 1617SOL    HW1 4983   2.101   0.506   2.362  1.3133  0.2038 -0.1849
 1617SOL    HW2 4984   2.148   0.433   2.238  0.4527 -0.3097 -0.2105
 1618SOL     OW 4985   2.595   0.418   0.032  0.1012 -0.6825 -0.2045
 1618SOL    HW1 4986   2.513   0.372   0.052  0.5800 -2.0349 -1.1886
 1618SOL    HW2 4987   2.664   0.358   0.062  0.7646 -1.2071 -2.5617
 1619SOL     OW 4988   0.204   0.635   2.848  0.0142  0.2179 -0.0892
 1619SOL    HW1 4989   0.164   0.722   2.845  0.0250  0.2017 -2.2535
 1619SOL    HW2 4990   0.292   0.647   2.814 -0.1944 -0.7338 -1.0229
 1620SOL     OW 4991   2.394   3.717   0.497  0.7442  0.7445 -0.1526
 1620SOL    HW1 4992   2.374   3.747   0.409  0.2040 -1.1845 -0.7354
 1620SOL    HW2 4993   2.309   3.695   0.535  1.1773 -1.7458 -0.4541
 1621SOL     OW 4994   2.836   0.356   3.082  1.1308  0.2740 -0.3778
 1621SOL    HW1 4995   2.752   0.312   3.064  1.4723 -0.7570  0.4190
 1621SOL    HW2 4996   2.878   0.364   2.997  0.9329 -0.7125 -0.5830
 1622SOL     OW 4997   1.113   0.162   3.085 -0.2214 -0.2594  0.0996
 1622SOL    HW1 4998   1.183   0.139   3.146 -1.1311 -2.3614  0.4369
 1622SOL    HW2 4999   1.085   0.249   3.113  0.5942 -0.4187  1.5259
 1623SOL     OW 5000   2.191   0.898   3.555  0.2795 -0.0672  0.1586
 1623SOL    HW1 5001   2.117   0.950   3.588  0.1963  1.0641 -1.6682
 1623SOL    HW2 5002   2.188   0.910   3.460  1.6570 -1.6061 -0.1177
 1624SOL     OW 5003   3.499   3.636   0.483 -0.0133  0.5609 -0.8125
 1624SOL    HW1 5004   3.490   3.665   0.392  0.6721  0.4260 -0.9342
 1624SOL    HW2 5005   3.532   3.546   0.475 -2.6944 -0.5422 -0.4616
 1625SOL     OW 5006   0.500   1.612   2.859 -0.1638 -0.0025 -0.2430
 1625SOL    HW1 5007   0.416   1.628   2.900  1.0008  0.6711  2.0349
 1625SOL    HW2 5008   0.542   1.698   2.854  0.9205 -0.4935 -0.0461
 1626SOL     OW 5009   3.707   0.596   1.854 -0.4115 -0.4485 -1.3993
 1626SOL    HW1 5010   3.788   0.546   1.842  0.0632 -0.3351  0.8643
 1626SOL    HW2 5011   3.644   0.532   1.888 -0.1083  0.1672  0.4882
 1627SOL     OW 5012   0.081   2.910   1.192  0.1621 -0.8651 -0.0350
 1627SOL    HW1 5013   0.046   2.848   1.256 -1.2819  0.9309  1.0106
 1627SOL    HW2 5014   0.176   2.904   1.203  0.0321 -2.2964  0.5738
 1628SOL     OW 5015   1.971   1.412   3.350  0.1041 -0.1229  0.2076
 1628SOL    HW1 5016   1.969   1.316   3.352  0.6879 -0.1732 -1.1239
 1628SOL    HW2 5017   1.884   1.438   3.378  0.1615 -1.0171  1.3066
 1629SOL     OW 5018   2.456   3.027   1.375  0.3812  0.3777 -0.7249
 1629SOL    HW1 5019   2.508   3.024   1.456 -0.3648 -2.1128 -0.2503
 1629SOL    HW2 5020   2.502   2.967   1.316 -1.9156 -2.1028 -0.2033
 1630SOL     OW 5021   0.596   2.764   3.676 -0.4632  0.6133 -0.1369
 1630SOL    HW1 5022   0.687   2.779   3.701  0.0885  1.0666 -2.2110
 1630SOL    HW2 5023   0.594   2.674   3.645 -0.4529  0.9377 -1.1040
 1631SOL     OW 5024   0.222   1.464   1.629  0.3274  0.6444  0.6560
 1631SOL    HW1 5025   0.290   1.483   1.564 -0.0593  0.8795  0.3186
 1631SOL    HW2 5026   0.230   1.369   1.644  0.1050  0.4963 -0.0995
 1632SOL     OW 5027   0.450   3.379   2.513 -0.1700 -0.8705  0.2288
 1632SOL    HW1 5028   0.379   3.384   2.578 -0.3567 -0.8924  0.0285
 1632SOL    HW2 5029   0.517   3.326   2.555  0.8698  1.2813  1.4859
 1633SOL     OW 5030   0.411   2.722   1.641 -0.6764 -0.0656 -0.1523
 1633SOL    HW1 5031   0.465   2.787   1.686 -1.9641  1.9542 -1.3787
 1633SOL    HW2 5032   0.394   2.656   1.707  1.4457  0.3261  0.8919
 1634SOL     OW 5033   3.666   0.514   3.575  0.4341 -0.9494 -1.1431
 1634SOL    HW1 5034   3.761   0.508   3.585  0.2879 -0.5775  0.9214
 1634SOL    HW2 5035   3.634   0.426   3.595  0.3195 -0.9840 -1.4798
 1635SOL     OW 5036   2.962   2.733   2.026 -0.8433 -0.1124  0.1513
 1635SOL    HW1 5037   2.978   2.725   1.932  0.0409 -0.7131  0.3447
 1635SOL    HW2 5038   2.934   2.646   2.053  0.5968 -0.4205  0.7446
 1636SOL     OW 5039   0.792   2.064   3.043 -0.1089  0.4229 -0.1054
 1636SOL    HW1 5040   0.801   2.100   2.955  0.0744 -0.2400 -0.3654
 1636SOL    HW2 5041   0.858   2.110   3.095  0.7504 -0.1576 -0.6399
 1637SOL     OW 5042   2.403   0.686   3.189 -0.1529 -0.0603  0.0941
 1637SOL    HW1 5043   2.497   0.672   3.187 -0.0432  0.4729  1.0377
 1637SOL    HW2 5044   2.387   0.755   3.125  0.2264  0.5059  0.6020
 1638SOL     OW 5045   3.464   0.589   3.411 -0.3789 -0.8517  0.6330
 1638SOL    HW1 5046   3.531   0.607   3.476 -0.4136 -1.7934  0.9490
 1638SOL    HW2 5047   3.457   0.493   3.410  0.2322 -0.9264 -1.3617
 1639SOL     OW 5048   3.648   1.505   3.292  0.6415 -0.1256 -0.6845
 1639SOL    HW1 5049   3.563   1.491   3.252 -0.2271 -1.5293  1.4825
 1639SOL    HW2 5050   3.710   1.459   3.235 -0.2983 -0.6180 -1.3146
 1640SOL     OW 5051   2.360   1.077   2.749 -0.7393  0.6347  0.0436
 1640SOL    HW1 5052   2.279   1.044   2.786 -0.5904  1.0429  0.7699
 1640SOL    HW2 5053   2.411   0.999   2.727 -0.2715  0.3413  1.9808
 1641SOL     OW 5054   1.252   2.740   2.039 -0.0833  0.8642  0.1969
 1641SOL    HW1 5055   1.258   2.769   1.948  0.4749 -0.9322 -0.3997
 1641SOL    HW2 5056   1.158   2.729   2.055 -0.1482  0.3350 -0.4907
 1642SOL     OW 5057   0.600   3.528   0.126  0.1454  0.4953  0.4517
 1642SOL    HW1 5058   0.518   3.491   0.094 -0.2316  1.0215  0.7886
 1642SOL    HW2 5059   0.577   3.615   0.159  0.7436  0.4654  0.9933
 1643SOL     OW 5060   2.404   1.481   2.834  0.1237 -0.1055  0.0903
 1643SOL    HW1 5061   2.432   1.472   2.925  0.0868  2.4801  0.4422
 1643SOL    HW2 5062   2.310   1.464   2.836  0.3996 -1.8426  0.1544
 1644SOL     OW 5063   1.928   2.660   0.929  0.2225  0.0773  0.1326
 1644SOL    HW1 5064   1.898   2.662   1.020  1.2710 -0.6128  0.5120
 1644SOL    HW2 5065   1.927   2.751   0.901 -0.6136  0.2387  0.6610
 1645SOL     OW 5066   3.396   2.136   0.609  0.1935 -0.1015 -0.1495
 1645SOL    HW1 5067   3.483   2.145   0.648 -0.0999 -1.1725  0.7956
 1645SOL    HW2 5068   3.381   2.041   0.607 -0.7966  0.0624 -0.6459
 1646SOL     OW 5069   0.307   1.980   3.748  0.3830 -0.3015  0.0579
 1646SOL    HW1 5070   0.346   1.901   3.711 -0.9747 -2.0470  2.1359
 1646SOL    HW2 5071   0.215   1.977   3.722  0.1458  0.1596  0.7985
 1647SOL     OW 5072   1.446   3.590   2.697  0.7031  0.1784  0.3896
 1647SOL    HW1 5073   1.498   3.574   2.775 -1.0393  1.7166  1.9531
 1647SOL    HW2 5074   1.502   3.646   2.642  1.6320 -0.2461  0.8823
 1648SOL     OW 5075   1.875   2.357   2.561  0.4639 -0.3120 -0.0496
 1648SOL    HW1 5076   1.810   2.403   2.614  0.3696 -1.2097  0.6380
 1648SOL    HW2 5077   1.861   2.391   2.472 -2.0265 -1.5802 -0.2481
 1649SOL     OW 5078   0.053   3.196   1.040 -0.4956 -0.4648  0.2789
 1649SOL    HW1 5079   0.142   3.162   1.037 -0.7742 -1.1791 -0.0524
 1649SOL    HW2 5080   0.010   3.159   0.963 -1.1340 -0.2858  0.5385
 1650SOL     OW 5081   0.320   0.271   3.281  0.3836 -0.5106 -0.2695
 1650SOL    HW1 5082   0.297   0.348   3.228  2.9891 -1.3590 -2.8802
 1650SOL    HW2 5083   0.261   0.203   3.250  0.2559 -0.3814 -0.3129
 1651SOL     OW 5084   0.726   2.549   0.245 -0.5391  0.7186  0.4605
 1651SOL    HW1 5085   0.762   2.596   0.169  0.6428 -1.3361 -0.3374
 1651SOL    HW2 5086   0.670   2.481   0.207  1.4557 -1.4955  1.2391
 1652SOL     OW 5087   3.487   3.234   3.270 -0.3198  0.1442 -0.0706
 1652SOL    HW1 5088   3.506   3.156   3.217 -0.1367  0.6836 -0.8122
 1652SOL    HW2 5089   3.477   3.304   3.206 -1.7239  0.4954  0.5046
 1653SOL     OW 5090   0.873   0.079   1.385  0.5230  0.2587 -0.0122
 1653SOL    HW1 5091   0.855   0.078   1.291  1.1572 -1.3753 -0.1403
 1653SOL    HW2 5092   0.960   0.120   1.391  0.8970 -0.4909 -0.2292
 1654SOL     OW 5093   1.031   1.789   3.585  0.1632  0.6475 -0.7825
 1654SOL    HW1 5094   0.941   1.785   3.552  0.3310 -0.1715 -1.1717
 1654SOL    HW2 5095   1.023   1.766   3.677 -0.0437  0.7203 -0.7810
 1655SOL     OW 5096   1.127   0.914   2.910 -0.4324 -0.5543  0.1299
 1655SOL    HW1 5097   1.208   0.945   2.951 -0.9167 -1.8756  2.2109
 1655SOL    HW2 5098   1.139   0.820   2.899 -1.2545 -0.5928 -0.6199
 1656SOL     OW 5099   3.105   1.917   0.044  0.7856 -0.6955 -0.5087
 1656SOL    HW1 5100   3.019   1.928   0.086  1.5758 -0.2138  1.0654
 1656SOL    HW2 5101   3.086   1.869  -0.037 -1.0718  0.1835 -0.6511
 1657SOL     OW 5102   2.231   2.129   3.188  0.3060 -1.0565 -0.0207
 1657SOL    HW1 5103   2.317   2.159   3.161  1.0051 -2.3084  0.7114
 1657SOL    HW2 5104   2.248   2.049   3.238 -1.1132 -0.3429  1.7190
 1658SOL     OW 5105   0.707   0.302   0.537 -0.5933  0.2795  0.0319
 1658SOL    HW1 5106   0.765   0.242   0.583 -0.6588  0.5640  0.4927
 1658SOL    HW2 5107   0.745   0.311   0.449 -0.6709 -0.5487 -0.0890
 1659SOL     OW 5108   2.489   1.704   0.087 -0.2213 -0.3644  0.3428
 1659SOL    HW1 5109   2.420   1.758   0.126 -0.2094 -0.2710  0.2327
 1659SOL    HW2 5110   2.520   1.649   0.160  1.1475  1.1598  0.9714
 1660SOL     OW 5111   2.298   1.238   0.094  0.4343  0.2741  0.6583
 1660SOL    HW1 5112   2.243   1.217   0.169  1.9818  0.8011  2.0195
 1660SOL    HW2 5113   2.367   1.294   0.131  0.5103  1.6352 -1.4214
 1661SOL     OW 5114   0.584   1.371   3.660 -0.4902 -0.2767  0.0670
 1661SOL    HW1 5115   0.499   1.391   3.620 -2.4728 -3.3946  2.2417
 1661SOL    HW2 5116   0.627   1.312   3.597 -0.7489 -0.1273 -0.2532
 1662SOL     OW 5117   2.631   1.938   2.773  0.3236  0.0599  0.2769
 1662SOL    HW1 5118   2.723   1.913   2.777  0.6578  0.9662 -1.2895
 1662SOL    HW2 5119   2.632   2.033   2.767 -0.7106  0.0563 -0.1515
 1663SOL     OW 5120   1.515   1.043   2.377  0.5540 -0.8603 -0.0931
 1663SOL    HW1 5121   1.494   1.078   2.290 -0.9209  3.5664  1.7678
 1663SOL    HW2 5122   1.430   1.036   2.421  1.4653  0.6481  2.0917
 1664SOL     OW 5123   2.977   2.395   1.756 -0.2440  0.0940 -0.3950
 1664SOL    HW1 5124   3.057   2.382   1.706  0.6542  1.5344  0.6016
 1664SOL    HW2 5125   2.981   2.329   1.826 -0.7039 -0.8382 -1.2226
 1665SOL     OW 5126   0.841   2.528   3.446 -0.0978 -0.5816  0.0698
 1665SOL    HW1 5127   0.819   2.435   3.455 -1.8644 -0.2665 -0.6433
 1665SOL    HW2 5128   0.866   2.539   3.354 -0.6025 -0.2225 -0.0285
 1666SOL     OW 5129   0.354   0.009   0.057  0.1812  0.5544  0.1616
 1666SOL    HW1 5130   0.292  -0.037  -0.000  1.8170  0.5016 -1.6770
 1666SOL    HW2 5131   0.375   0.090   0.010  2.3903  0.0038  0.0804
 1667SOL     OW 5132   2.147   1.723   2.244 -0.1553 -0.0115 -0.0636
 1667SOL    HW1 5133   2.111   1.799   2.288  0.0296  0.2844 -0.4226
 1667SOL    HW2 5134   2.085   1.652   2.263  0.0468  0.0486  0.8802
 1668SOL     OW 5135   1.232   2.744   1.450  0.1047  0.0592 -0.1073
 1668SOL    HW1 5136   1.211   2.816   1.509  1.1143 -1.5705  2.3796
 1668SOL    HW2 5137   1.327   2.750   1.437  0.1556 -0.6412 -0.1063
 1669SOL     OW 5138   0.188   2.821   1.918 -0.2353  0.3144 -0.2028
 1669SOL    HW1 5139   0.268   2.821   1.971 -0.3376  3.3985  0.0906
 1669SOL    HW2 5140   0.118   2.837   1.982 -0.9696 -0.9927 -0.6463
 1670SOL     OW 5141   1.932   3.637   0.425 -0.3749  0.8261 -0.4373
 1670SOL    HW1 5142   1.913   3.731   0.422 -1.0466  0.6811 -1.0496
 1670SOL    HW2 5143   1.862   3.600   0.478  1.3031  0.9638  2.0602
 1671SOL     OW 5144   0.333   0.689   3.263 -0.4803 -0.0318  0.3777
 1671SOL    HW1 5145   0.266   0.694   3.331 -1.6289  0.9051 -0.7793
 1671SOL    HW2 5146   0.313   0.609   3.214  0.0282 -0.4248  0.8001
 1672SOL     OW 5147   2.032   1.684   0.187 -0.1103  0.2663  0.1352
 1672SOL    HW1 5148   2.046   1.694   0.093 -0.8432  1.7886  0.1599
 1672SOL    HW2 5149   2.083   1.754   0.227  0.1037 -0.2979  0.8751
 1673SOL     OW 5150   3.345   2.918   1.610 -0.0993  0.0104  0.4962
 1673SOL    HW1 5151   3.376   2.854   1.675 -0.0203  0.5898  1.0433
 1673SOL    HW2 5152   3.417   2.923   1.546  0.5539  0.6425  1.2506
 1674SOL     OW 5153   0.664   1.838   2.801 -0.1451 -0.0264 -0.4581
 1674SOL    HW1 5154   0.699   1.880   2.722 -0.0785 -1.7268 -1.3992
 1674SOL    HW2 5155   0.700   1.888   2.874  0.1934  1.2890 -1.4912
 1675SOL     OW 5156   3.151   1.089   0.971 -0.2941 -0.6452  0.1898
 1675SOL    HW1 5157   3.157   1.033   1.048  2.1067 -0.4751  0.2043
 1675SOL    HW2 5158   3.183   1.034   0.899  0.1638  0.0854 -0.1681
 1676SOL     OW 5159   0.068   1.984   2.552 -0.3469  0.7555  0.1867
 1676SOL    HW1 5160   0.154   2.013   2.581 -0.4907 -0.7168  2.2794
 1676SOL    HW2 5161   0.063   2.013   2.460  1.6063  2.4505  0.5424
 1677SOL     OW 5162   3.260   1.619   2.271  0.1958  0.2412  0.0225
 1677SOL    HW1 5163   3.303   1.623   2.185  2.2348  0.9076  1.0062
 1677SOL    HW2 5164   3.200   1.694   2.272 -0.3231 -0.1441 -1.0362
 1678SOL     OW 5165   0.943   2.336   1.367 -0.3790  0.1715 -0.2636
 1678SOL    HW1 5166   0.972   2.287   1.290 -0.8638  0.0484 -0.3696
 1678SOL    HW2 5167   0.864   2.382   1.338 -1.5207 -1.1553  0.6140
 1679SOL     OW 5168   2.894   2.944   0.421  0.5586 -0.2357  0.7313
 1679SOL    HW1 5169   2.908   2.850   0.422 -0.2147 -0.5306 -2.7554
 1679SOL    HW2 5170   2.802   2.954   0.398  1.2682  1.2474 -1.8671
 1680SOL     OW 5171   3.473   3.023   2.413  0.1435 -0.3935 -0.1583
 1680SOL    HW1 5172   3.514   3.080   2.348 -1.6111 -1.1973 -2.0845
 1680SOL    HW2 5173   3.522   2.941   2.408  0.2224 -0.3407 -0.2380
 1681SOL     OW 5174   2.570   1.129   2.048 -0.5099  0.7334  0.7350
 1681SOL    HW1 5175   2.479   1.103   2.038 -0.3868  1.0528 -2.5390
 1681SOL    HW2 5176   2.569   1.224   2.033  0.6702  0.2213 -4.9916
 1682SOL     OW 5177   0.751   1.404   1.263 -0.4757 -0.8100 -0.6826
 1682SOL    HW1 5178   0.807   1.335   1.301  2.8523  0.7691 -2.2961
 1682SOL    HW2 5179   0.750   1.385   1.169 -1.5567  0.0079 -0.8533
 1683SOL     OW 5180   0.940   0.272   2.292  0.2649  0.1956 -0.4656
 1683SOL    HW1 5181   0.949   0.195   2.236  0.1535 -0.5321  0.4863
 1683SOL    HW2 5182   0.921   0.237   2.379  0.7928  1.2784  0.1149
 1684SOL     OW 5183   2.926   3.137   3.022 -0.1548 -0.1220  0.3120
 1684SOL    HW1 5184   2.896   3.070   3.083 -2.4384  0.8207  0.3169
 1684SOL    HW2 5185   2.859   3.139   2.954  0.7771  0.9501 -0.6185
 1685SOL     OW 5186   0.254   1.485   3.237 -0.2360 -0.5013  0.2342
 1685SOL    HW1 5187   0.245   1.563   3.182 -1.1737 -0.1381  0.8746
 1685SOL    HW2 5188   0.326   1.506   3.296 -0.2398 -0.2741  0.1596
 1686SOL     OW 5189   1.411   2.760   0.330 -0.3800 -0.2130  0.8418
 1686SOL    HW1 5190   1.431   2.694   0.264 -0.3785 -0.3045  0.9332
 1686SOL    HW2 5191   1.495   2.777   0.373 -0.2194  0.4431  0.2774
 1687SOL     OW 5192   1.867   0.114   1.057 -0.2078 -0.0509  0.6711
 1687SOL    HW1 5193   1.832   0.092   0.971 -1.5398 -1.2958  1.4811
 1687SOL    HW2 5194   1.793   0.157   1.102  0.2516 -0.0372  1.4308
 1688SOL     OW 5195   0.967   1.853   2.360 -0.4695  0.6280 -0.7603
 1688SOL    HW1 5196   0.959   1.782   2.297  1.4948 -0.1466 -0.2093
 1688SOL    HW2 5197   0.917   1.925   2.322 -4.4916 -1.6106 -0.2888
 1689SOL     OW 5198   3.523   1.077   2.939  0.1914 -0.5227  0.1355
 1689SOL    HW1 5199   3.548   1.089   2.848 -0.0130 -1.5665 -0.0742
 1689SOL    HW2 5200   3.602   1.045   2.982  0.4001  0.3583  0.4196
 1690SOL     OW 5201   0.088   1.254   1.913  0.1497  0.3203 -0.3880
 1690SOL    HW1 5202   0.176   1.261   1.950  0.1932 -0.0047 -0.4247
 1690SOL    HW2 5203   0.064   1.162   1.927 -1.3791  1.0350  2.3141
 1691SOL     OW 5204   3.391   1.975   0.086 -0.2978  0.4691 -0.0864
 1691SOL    HW1 5205   3.426   1.987  -0.003 -0.5121 -0.1918 -0.2665
 1691SOL    HW2 5206   3.302   1.942   0.073 -0.4350  0.6514  0.3753
 1692SOL     OW 5207   3.560   3.358   0.853 -0.0839  0.1567 -0.3500
 1692SOL    HW1 5208   3.487   3.345   0.793 -1.3964  0.4165  1.1268
 1692SOL    HW2 5209   3.623   3.290   0.829 -1.3611 -0.8839 -0.8675
 1693SOL     OW 5210   2.646   2.678   0.053  0.5026 -0.4903  0.3133
 1693SOL    HW1 5211   2.708   2.690  -0.020  0.5910  1.5321  0.6640
 1693SOL    HW2 5212   2.579   2.744   0.039 -1.0593 -1.9563  0.5385
 1694SOL     OW 5213   0.047   2.239   0.461 -0.3675  0.0799  0.0755
 1694SOL    HW1 5214   0.095   2.249   0.543 -0.1800 -0.5094  0.0386
 1694SOL    HW2 5215  -0.045   2.241   0.488 -0.3357  1.1298  0.1529
 1695SOL     OW 5216   2.228   3.300   2.829 -0.0026  0.0377  0.0539
 1695SOL    HW1 5217   2.235   3.289   2.924 -0.3284 -1.7968 -0.0995
 1695SOL    HW2 5218   2.139   3.334   2.816 -1.0068 -2.3259  0.2735
 1696SOL     OW 5219   2.105   2.907   0.898 -0.3523 -0.0959 -0.0779
 1696SOL    HW1 5220   2.195   2.878   0.911 -0.8063 -1.6533 -0.1668
 1696SOL    HW2 5221   2.071   2.919   0.987 -0.2751 -0.2251 -0.0308
 1697SOL     OW 5222   1.703   0.981   2.788  0.2089 -0.1661 -0.6135
 1697SOL    HW1 5223   1.661   0.992   2.873 -0.1267 -0.8044 -0.6935
 1697SOL    HW2 5224   1.731   1.069   2.764 -0.0709  0.0860 -0.0394
 1698SOL     OW 5225   2.508   0.046   0.209 -0.2909 -0.7372  0.0956
 1698SOL    HW1 5226   2.523  -0.046   0.185  3.0490 -0.2885 -0.0865
 1698SOL    HW2 5227   2.590   0.072   0.253 -1.6289  1.8235  1.2595
 1699SOL     OW 5228   0.718   3.401   2.633 -0.4505 -0.0848 -0.2097
 1699SOL    HW1 5229   0.670   3.356   2.701 -2.2135  0.1295 -1.2588
 1699SOL    HW2 5230   0.810   3.396   2.661 -1.2448  1.9584  3.3302
 1700SOL     OW 5231   3.087   1.418   0.265  0.1315  0.3428 -0.1187
 1700SOL    HW1 5232   3.017   1.379   0.316  0.6111  0.3728  0.5718
 1700SOL    HW2 5233   3.139   1.344   0.234  0.9121  0.4040  1.0043
 1701SOL     OW 5234   3.368   1.945   0.810  1.1487  0.1798 -0.6316
 1701SOL    HW1 5235   3.282   1.931   0.769  1.1615 -1.1043 -0.2658
 1701SOL    HW2 5236   3.352   2.011   0.877 -0.3136 -2.1879  1.5716
 1702SOL     OW 5237   2.109   2.978   0.370 -0.3767 -0.2687  0.1447
 1702SOL    HW1 5238   2.052   3.030   0.427  1.1016  1.8000 -0.1491
 1702SOL    HW2 5239   2.059   2.968   0.289 -1.8640 -1.9176  1.1818
 1703SOL     OW 5240   1.242   1.443   0.252  0.0002 -0.0629 -0.1416
 1703SOL    HW1 5241   1.269   1.494   0.328 -0.1518 -0.7268  0.3685
 1703SOL    HW2 5242   1.300   1.472   0.181  0.3258  0.3582  0.2959
 1704SOL     OW 5243   3.261   3.164   0.890 -0.1946 -0.2018  0.6309
 1704SOL    HW1 5244   3.178   3.130   0.857  0.3487  0.1486 -1.2056
 1704SOL    HW2 5245   3.273   3.247   0.842  0.3851  0.6236  2.1512
 1705SOL     OW 5246   0.327   1.319   2.770  0.4482 -0.0141  0.0582
 1705SOL    HW1 5247   0.385   1.385   2.808  0.6896  0.2576 -0.7734
 1705SOL    HW2 5248   0.323   1.250   2.837  1.4753  0.1021  0.2604
 1706SOL     OW 5249   1.671   1.750   3.635 -0.1094  0.2133  0.3029
 1706SOL    HW1 5250   1.683   1.658   3.656 -0.1011 -0.0382 -0.7463
 1706SOL    HW2 5251   1.578   1.757   3.613  0.0562  0.2915 -0.3790
 1707SOL     OW 5252   2.234   3.530   1.553 -0.3412 -0.1408  0.2478
 1707SOL    HW1 5253   2.219   3.607   1.608  0.9685  0.9109 -0.8242
 1707SOL    HW2 5254   2.317   3.546   1.510 -0.4884 -1.7421 -0.7292
 1708SOL     OW 5255   1.977   1.872   3.033 -0.1799  0.3734 -0.1632
 1708SOL    HW1 5256   1.995   1.834   3.119 -1.0948 -1.1800 -0.6042
 1708SOL    HW2 5257   1.986   1.966   3.046 -2.2107  0.3586  2.1666
 1709SOL     OW 5258   3.507   2.560   1.041  0.4354 -0.6343  0.0564
 1709SOL    HW1 5259   3.523   2.636   1.096 -0.7123  1.2010 -1.9964
 1709SOL    HW2 5260   3.586   2.507   1.048  0.6629 -0.0429  2.7073
 1710SOL     OW 5261   3.193   1.675   0.297 -0.3309 -0.2262  0.3203
 1710SOL    HW1 5262   3.226   1.676   0.207  0.1574 -0.6375  0.4848
 1710SOL    HW2 5263   3.150   1.590   0.305 -0.8056  0.0125  0.3308
 1711SOL     OW 5264   1.107   1.572   1.294  0.1537 -0.6553  1.0284
 1711SOL    HW1 5265   1.070   1.537   1.375 -0.2098  0.8755  1.5538
 1711SOL    HW2 5266   1.033   1.616   1.251  0.9054  0.7668  1.1416
 1712SOL     OW 5267   1.875   2.119   0.680  0.0005 -0.0502  0.1610
 1712SOL    HW1 5268   1.956   2.161   0.708  0.6464  0.9734 -2.8459
 1712SOL    HW2 5269   1.808   2.153   0.739  1.4993  0.2300  1.7656
 1713SOL     OW 5270   0.113   3.190   0.154  0.4268  0.2014  0.6108
 1713SOL    HW1 5271   0.196   3.148   0.175  0.2533 -0.8059 -0.5880
 1713SOL    HW2 5272   0.128   3.234   0.070 -1.3929 -3.9283 -2.2126
 1714SOL     OW 5273   1.687   2.199   0.391  0.1012  0.2402 -0.3534
 1714SOL    HW1 5274   1.769   2.159   0.359  0.0437  0.1824 -0.4290
 1714SOL    HW2 5275   1.711   2.289   0.413  0.3231  0.0555  0.1845
 1715SOL     OW 5276   2.368   3.622   2.341  0.5936  0.0734  0.5590
 1715SOL    HW1 5277   2.326   3.706   2.322  0.5868  0.0209  0.3348
 1715SOL    HW2 5278   2.380   3.621   2.436 -0.3000 -0.0990  0.6760
 1716SOL     OW 5279   2.789   1.809   1.421  0.0270 -0.2306  0.4821
 1716SOL    HW1 5280   2.839   1.745   1.472  0.0139 -1.3131 -0.7921
 1716SOL    HW2 5281   2.798   1.891   1.469  3.3470 -0.2522  0.1793
 1717SOL     OW 5282   2.768   1.346   1.739 -0.0834  0.3619  0.2101
 1717SOL    HW1 5283   2.818   1.366   1.818 -0.4550 -3.1782  1.5007
 1717SOL    HW2 5284   2.739   1.255   1.751 -2.1464  0.4509 -2.9728
 1718SOL     OW 5285   1.090   1.343   0.485  0.2373 -0.3444  0.3214
 1718SOL    HW1 5286   1.003   1.309   0.508  1.1492 -2.7768  0.5065
 1718SOL    HW2 5287   1.110   1.301   0.401  2.2417 -1.9544  1.5164
 1719SOL     OW 5288   0.217   2.236   0.699 -0.1660  0.3201  0.3369
 1719SOL    HW1 5289   0.143   2.294   0.719  0.4173  1.8430 -1.6523
 1719SOL    HW2 5290   0.288   2.269   0.753 -0.0233  1.0259 -0.2794
 1720SOL     OW 5291   1.541   1.086   3.498  0.1998 -0.0674 -0.1195
 1720SOL    HW1 5292   1.514   0.995   3.487 -0.5453  0.3002 -1.7357
 1720SOL    HW2 5293   1.464   1.137   3.474  0.2955  1.0180  1.7219
 1721SOL     OW 5294   3.030   1.241   1.633  0.7496 -0.0530 -0.6572
 1721SOL    HW1 5295   3.056   1.237   1.725  1.1773 -0.6981 -0.7989
 1721SOL    HW2 5296   3.096   1.297   1.592  1.9671 -1.7090 -1.0211
 1722SOL     OW 5297   0.601   3.460   3.523 -0.1161  0.1141 -0.3223
 1722SOL    HW1 5298   0.622   3.477   3.431 -0.5693  0.5697 -0.3444
 1722SOL    HW2 5299   0.506   3.471   3.528  0.2026  3.3354  0.8708
 1723SOL     OW 5300   3.330   0.242   1.113 -0.4643 -0.1855  0.4116
 1723SOL    HW1 5301   3.262   0.250   1.180 -0.5530  0.1200  0.2867
 1723SOL    HW2 5302   3.288   0.191   1.043 -0.6235  0.1488  0.2607
 1724SOL     OW 5303   3.456   0.050   1.743  0.0219 -0.0840  0.0763
 1724SOL    HW1 5304   3.370   0.016   1.720  1.3566 -2.5472 -1.7551
 1724SOL    HW2 5305   3.479   0.005   1.824  0.1131 -0.4450 -0.1475
 1725SOL     OW 5306   0.844   3.036   0.114 -0.1276  0.2440  0.0642
 1725SOL    HW1 5307   0.845   3.069   0.024  1.3973  1.0372  0.3320
 1725SOL    HW2 5308   0.794   3.101   0.163  1.1145  1.1223  0.2103
 1726SOL     OW 5309   3.542   1.752   2.311  0.0698 -0.3743 -0.6610
 1726SOL    HW1 5310   3.531   1.738   2.405  0.3024  1.8545 -0.2464
 1726SOL    HW2 5311   3.456   1.780   2.281  0.3260  0.2178 -0.8488
 1727SOL     OW 5312   3.049   3.321   0.485 -0.1398 -0.3102  0.2287
 1727SOL    HW1 5313   3.133   3.366   0.493  1.4690 -3.2287  1.5935
 1727SOL    HW2 5314   3.020   3.308   0.575  0.2488 -3.1323  0.0433
 1728SOL     OW 5315   3.575   1.773   0.713  0.9084  0.1178  0.1449
 1728SOL    HW1 5316   3.519   1.836   0.759 -0.4274  0.0969 -1.3705
 1728SOL    HW2 5317   3.662   1.814   0.714  0.0513  2.0786 -0.8874
 1729SOL     OW 5318   1.827   1.813   2.700 -0.5182  0.1908 -0.0426
 1729SOL    HW1 5319   1.761   1.808   2.631 -0.3305 -0.0876 -0.2012
 1729SOL    HW2 5320   1.825   1.727   2.742 -1.0200  0.5376  0.6605
 1730SOL     OW 5321   1.938   3.089   2.077  0.2930  0.2641  0.1866
 1730SOL    HW1 5322   1.954   3.182   2.093  4.1065 -0.3269  0.9069
 1730SOL    HW2 5323   1.932   3.081   1.982  2.1795  1.0618 -0.0354
 1731SOL     OW 5324   2.937   3.621   0.400  0.2271 -0.3608 -0.0269
 1731SOL    HW1 5325   2.980   3.666   0.473 -0.4364  5.6789 -2.8234
 1731SOL    HW2 5326   3.001   3.625   0.329 -2.1245  2.1995 -2.1857
 1732SOL     OW 5327   1.688   1.839   1.205  0.3445  0.1972  0.2311
 1732SOL    HW1 5328   1.687   1.798   1.119 -1.0239 -1.3379  0.9222
 1732SOL    HW2 5329   1.770   1.888   1.208  1.9213 -2.1961 -0.7985
 1733SOL     OW 5330   0.208   0.490   3.669 -0.7734 -0.3589 -0.3022
 1733SOL    HW1 5331   0.179   0.407   3.706 -2.1807 -0.0600 -0.6754
 1733SOL    HW2 5332   0.217   0.549   3.745 -2.0141 -0.2217 -0.2395
 1734SOL     OW 5333   1.428   1.910   3.000  0.6171 -1.2749  0.0977
 1734SOL    HW1 5334   1.523   1.907   3.009  0.5252 -0.8501  1.5643
 1734SOL    HW2 5335   1.396   1.916   3.090 -0.7923 -1.1139 -0.3864
 1735SOL     OW 5336   1.625   2.129   1.076  0.3223 -0.1257 -0.1203
 1735SOL    HW1 5337   1.588   2.051   1.034 -1.0548  0.4047  0.0768
 1735SOL    HW2 5338   1.559   2.157   1.138  0.7609  1.2710 -0.2507
 1736SOL     OW 5339   3.583   2.773   2.381  0.0132 -0.2654 -0.0213
 1736SOL    HW1 5340   3.652   2.743   2.322  2.3881  2.8643  0.8982
 1736SOL    HW2 5341   3.604   2.733   2.465 -1.0314 -1.5561 -0.3460
 1737SOL     OW 5342   2.073   1.662   2.604 -0.3767  0.4100  0.4304
 1737SOL    HW1 5343   2.029   1.741   2.634 -0.2666  0.8275 -0.4651
 1737SOL    HW2 5344   2.032   1.643   2.519  0.3483  0.1381  0.1326
 1738SOL     OW 5345   2.683   0.335   1.543 -0.0205 -0.3515 -0.0804
 1738SOL    HW1 5346   2.590   0.342   1.524  0.3264 -0.9075 -2.2357
 1738SOL    HW2 5347   2.692   0.248   1.583 -0.3804 -0.4516 -0.2087
 1739SOL     OW 5348   3.025   0.039   3.619 -0.3071  0.3295  0.3728
 1739SOL    HW1 5349   3.036  -0.056   3.618 -1.6674  0.1400  0.4101
 1739SOL    HW2 5350   2.931   0.051   3.635 -0.1818  1.6752  0.1825
 1740SOL     OW 5351   2.041   2.696   1.742 -0.4513  0.6024 -0.0441
 1740SOL    HW1 5352   2.122   2.679   1.790  0.6201 -0.2218 -1.9954
 1740SOL    HW2 5353   1.971   2.668   1.801  0.7382  0.2616  1.2563
 1741SOL     OW 5354   2.806   2.360   2.573 -0.5880 -0.1492  0.1182
 1741SOL    HW1 5355   2.848   2.294   2.628  0.1514 -0.0878 -0.3586
 1741SOL    HW2 5356   2.713   2.338   2.575 -0.8437  0.7995  2.7077
 1742SOL     OW 5357   1.917   0.594   0.150  0.4132  0.2828 -0.4280
 1742SOL    HW1 5358   1.975   0.592   0.074 -0.1910  1.0549 -0.9187
 1742SOL    HW2 5359   1.843   0.648   0.123  0.0728  0.3726  0.6270
 1743SOL     OW 5360   2.549   1.585   0.335  0.2992  0.7811 -0.8641
 1743SOL    HW1 5361   2.494   1.538   0.398  0.6694 -0.3467 -1.3472
 1743SOL    HW2 5362   2.578   1.663   0.382  1.8778 -0.8022  1.0276
 1744SOL     OW 5363   3.107   0.526   1.487  0.0029 -0.1446  0.1806
 1744SOL    HW1 5364   3.034   0.511   1.426  0.1854 -0.7297  0.0981
 1744SOL    HW2 5365   3.073   0.500   1.572  0.1634 -0.5779  0.1156
 1745SOL     OW 5366   3.371   1.452   3.330  0.1234  0.5553 -0.7438
 1745SOL    HW1 5367   3.389   1.484   3.241  1.6482  2.2894  0.1165
 1745SOL    HW2 5368   3.432   1.379   3.342  0.4746  0.8266 -0.8637
 1746SOL     OW 5369   2.496   2.111   0.098 -0.5932 -0.0712 -0.3920
 1746SOL    HW1 5370   2.483   2.143   0.008  1.7566  1.0456 -0.4258
 1746SOL    HW2 5371   2.443   2.170   0.152 -0.5860  0.4318 -0.9146
 1747SOL     OW 5372   3.561   2.376   2.960  0.2657 -0.0371  0.0275
 1747SOL    HW1 5373   3.571   2.282   2.971 -0.8820 -0.3396 -1.2526
 1747SOL    HW2 5374   3.561   2.411   3.049  0.2400 -1.2911  0.5349
 1748SOL     OW 5375   0.927   3.286   1.413  0.3638  0.4767  0.6399
 1748SOL    HW1 5376   0.952   3.361   1.359  0.2770  1.5830  2.0647
 1748SOL    HW2 5377   1.009   3.248   1.442  0.4079  0.8072  0.9501
 1749SOL     OW 5378   3.166   3.662   2.772 -0.8512 -0.2691 -0.1206
 1749SOL    HW1 5379   3.130   3.651   2.684 -0.0629  0.5235 -0.5578
 1749SOL    HW2 5380   3.170   3.572   2.807 -2.1764 -0.4780 -0.4632
 1750SOL     OW 5381   3.199   0.911   1.690 -0.0806  0.2724 -0.3941
 1750SOL    HW1 5382   3.247   0.993   1.685 -1.1105  0.8601 -0.7049
 1750SOL    HW2 5383   3.171   0.893   1.601 -0.7197  0.0928 -0.1598
 1751SOL     OW 5384   1.827   2.800   2.808  0.0809 -0.2715 -0.4124
 1751SOL    HW1 5385   1.917   2.770   2.797  0.0531 -0.5752  0.1585
 1751SOL    HW2 5386   1.809   2.787   2.901 -0.7681 -0.8078 -0.6433
 1752SOL     OW 5387   2.995   0.860   2.438  0.4125  0.6759 -0.0990
 1752SOL    HW1 5388   3.073   0.915   2.452  0.9148 -0.1764  0.5738
 1752SOL    HW2 5389   2.972   0.873   2.346  0.0570  2.5910  0.2095
 1753SOL     OW 5390   2.346   2.739   3.535  0.0882  0.2264 -0.1949
 1753SOL    HW1 5391   2.352   2.833   3.552 -2.3263  0.2275  1.0647
 1753SOL    HW2 5392   2.276   2.731   3.470  1.0055 -0.6703 -1.1164
 1754SOL     OW 5393   3.503   1.420   3.068 -0.6141  0.2608  0.0316
 1754SOL    HW1 5394   3.508   1.332   3.106  1.6273 -0.7579 -2.3768
 1754SOL    HW2 5395   3.434   1.414   3.002 -0.2402  0.2295 -0.3538
 1755SOL     OW 5396   0.026   0.604   3.327  0.1678  0.2713  0.1919
 1755SOL    HW1 5397   0.072   0.526   3.298 -1.1320  0.7121 -3.5449
 1755SOL    HW2 5398  -0.049   0.570   3.377  0.9051 -0.7300  0.6371
 1756SOL     OW 5399   0.257   1.699   0.272  0.0108  0.3592 -0.3117
 1756SOL    HW1 5400   0.280   1.675   0.361  3.1024  0.4160 -0.9924
 1756SOL    HW2 5401   0.195   1.772   0.282  0.1196  0.2102  1.7626
 1757SOL     OW 5402   2.561   2.261   2.523  0.4011  0.0924 -0.0253
 1757SOL    HW1 5403   2.487   2.316   2.501  0.1222 -0.6251 -0.9463
 1757SOL    HW2 5404   2.554   2.185   2.465  1.4482 -0.3379  0.3642
 1758SOL     OW 5405   0.183   3.748   3.293  0.3029  0.2561 -0.0767
 1758SOL    HW1 5406   0.254   3.725   3.234  1.5826  2.0627  0.6583
 1758SOL    HW2 5407   0.106   3.706   3.256  0.9257  1.7311 -3.3484
 1759SOL     OW 5408   1.720   3.052   0.248  0.1281  0.3005  0.2924
 1759SOL    HW1 5409   1.763   3.050   0.333 -2.4748  1.4452  1.7481
 1759SOL    HW2 5410   1.645   3.109   0.260 -0.1645  0.7961 -2.9111
 1760SOL     OW 5411   0.733   2.074   3.648  0.1360  0.7594 -0.4244
 1760SOL    HW1 5412   0.789   2.091   3.723  0.0566  2.6273 -0.7323
 1760SOL    HW2 5413   0.644   2.074   3.684 -0.0207  3.1365 -0.6680
 1761SOL     OW 5414   2.762   2.195   3.205  0.2459 -0.0152  0.2568
 1761SOL    HW1 5415   2.809   2.226   3.128  1.9708 -1.6615  0.5586
 1761SOL    HW2 5416   2.816   2.224   3.279 -1.2690  1.3559  0.8814
 1762SOL     OW 5417   0.797   0.817   2.162  0.6540  0.1406 -0.5126
 1762SOL    HW1 5418   0.831   0.738   2.202 -0.5975 -1.2076 -1.9798
 1762SOL    HW2 5419   0.839   0.821   2.076  0.2238  0.6958 -0.7082
 1763SOL     OW 5420   3.653   0.350   3.280  0.1750  0.1676  0.0658
 1763SOL    HW1 5421   3.659   0.352   3.184 -1.1655 -0.4387 -0.0536
 1763SOL    HW2 5422   3.653   0.257   3.301  3.0241  0.2788  0.8825
 1764SOL     OW 5423   1.538   1.665   0.702 -0.1587  0.0975  0.3965
 1764SOL    HW1 5424   1.579   1.751   0.709  1.6601 -0.4921 -1.8445
 1764SOL    HW2 5425   1.596   1.607   0.753  0.9661 -0.4427 -1.4039
 1765SOL     OW 5426   0.829   0.385   0.280  0.4418 -0.1984  0.4602
 1765SOL    HW1 5427   0.900   0.446   0.301  0.8235 -0.7326  0.7732
 1765SOL    HW2 5428   0.863   0.336   0.205  1.0511 -1.4629  1.5102
 1766SOL     OW 5429   1.451   1.106   2.115  0.1251 -0.0203  0.2055
 1766SOL    HW1 5430   1.382   1.065   2.062 -0.3643 -1.9728  2.2101
 1766SOL    HW2 5431   1.522   1.122   2.052 -1.7932  1.3666 -1.7713
 1767SOL     OW 5432   2.677   1.684   3.627 -1.0155 -0.6898  0.4430
 1767SOL    HW1 5433   2.731   1.729   3.692  0.8819 -1.9921 -0.1448
 1767SOL    HW2 5434   2.587   1.694   3.660 -0.3034  0.3171  2.2436
 1768SOL     OW 5435   0.441   1.222   1.662  0.1709 -0.2994  0.3411
 1768SOL    HW1 5436   0.478   1.273   1.591  0.2242  0.5588  0.9675
 1768SOL    HW2 5437   0.391   1.153   1.619  1.9251 -1.0992 -0.5325
 1769NA      NA 5438   1.064   3.081   0.731 -0.0674  0.6488 -0.1469
 1770NA      NA 5439   3.069   1.238   0.768  0.4694 -0.2735  0.0742
 1771NA      NA 5440   2.542   1.454   1.722 -0.0434 -0.4811  0.3024
   3.72820   3.72820   3.72820
