Protein in water
 5435
    0ARG      N    1   0.655   1.166   3.359 -0.1120 -0.0338  0.9189
    0ARG     H1    2   0.707   1.232   3.297 -2.8915 -0.0515 -1.6168
    0ARG     H2    3   0.639   1.225   3.444  1.3129  3.7001 -1.1654
    0ARG     H3    4   0.562   1.159   3.313  0.4750 -0.3129 -0.2546
    0ARG     CA    5   0.727   1.039   3.403 -0.3860 -0.5012  0.8618
    0ARG     HA    6   0.733   0.979   3.313 -0.2515  0.0240  0.5115
    0ARG     CB    7   0.876   1.066   3.458  0.4795 -0.0693  0.6422
    0ARG    HB1    8   0.930   1.107   3.370  0.3365  0.8157  0.9531
    0ARG    HB2    9   0.924   0.969   3.481 -2.6531 -2.1810 -0.9208
    0ARG     CG   10   0.899   1.164   3.577 -0.7162 -0.4028  0.0453
    0ARG    HG1   11   0.838   1.252   3.547 -0.5876 -0.1985  0.3841
    0ARG    HG2   12   0.840   1.128   3.664 -0.6360  2.4937  1.4164
    0ARG     CD   13   1.041   1.198   3.608 -0.6014  0.5868  0.4384
    0ARG    HD1   14   1.113   1.248   3.540 -0.1807  1.1807  1.2873
    0ARG    HD2   15   1.095   1.102   3.625 -1.1974  0.3392  0.9890
    0ARG     NE   16   1.046   1.281   3.728 -0.2413  0.3177  0.4109
    0ARG     HE   17   1.024   1.378   3.713 -0.5893  0.1026 -0.4857
    0ARG     CZ   18   1.057   1.237   3.856 -0.2495 -0.7283 -0.2489
    0ARG    NH1   19   1.050   1.109   3.885  0.4994  0.0991 -0.4357
    0ARG   HH11   20   1.055   1.042   3.810  1.3176 -1.4610  0.9557
    0ARG   HH12   21   1.048   1.074   3.978  3.5436  0.8454  0.0319
    0ARG    NH2   22   1.069   1.330   3.955  0.1588  0.0501  0.0513
    0ARG   HH21   23   1.074   1.281   4.042  3.8337 -2.0593 -1.1058
    0ARG   HH22   24   1.077   1.424   3.923  1.2154  0.1440  0.5430
    0ARG      C   25   0.644   0.967   3.510  0.4827 -1.0935  0.3129
    0ARG      O   26   0.557   1.028   3.573 -0.2402  0.1546 -0.1677
    1TYR      N   27   0.661   0.836   3.508 -0.7315 -0.2355  0.3961
    1TYR     HN   28   0.717   0.791   3.440 -2.7272 -1.7573 -0.3307
    1TYR     CA   29   0.604   0.745   3.608  0.3060  0.1338 -0.4934
    1TYR     HA   30   0.536   0.797   3.673 -0.2687 -1.0973 -0.0917
    1TYR     CB   31   0.526   0.629   3.531  0.1757  0.7602  0.0281
    1TYR    HB1   32   0.591   0.553   3.484 -0.5002 -0.0548  0.3744
    1TYR    HB2   33   0.459   0.678   3.457 -2.3804 -1.2973  0.8124
    1TYR     CG   34   0.443   0.547   3.625  0.2837  0.5838  0.4480
    1TYR    CD1   35   0.345   0.605   3.714 -0.3572  0.5345  0.7434
    1TYR    HD1   36   0.320   0.710   3.710  1.8478  1.0805 -0.0279
    1TYR    CE1   37   0.256   0.515   3.771  0.3346 -0.1249  0.7061
    1TYR    HE1   38   0.179   0.570   3.825 -0.7448  1.6089 -2.3496
    1TYR     CZ   39   0.261   0.376   3.749  1.3974 -0.6577  0.6059
    1TYR     OH   40   0.169   0.286   3.810 -0.0169 -0.3404 -0.3896
    1TYR     HH   41   0.116   0.343   3.865 -0.8318 -0.2233 -1.2759
    1TYR    CD2   42   0.459   0.403   3.612  0.3361 -0.2994 -0.7527
    1TYR    HD2   43   0.540   0.364   3.553  1.2977  2.2967 -1.2920
    1TYR    CE2   44   0.363   0.326   3.671 -0.0642  0.7536 -0.0273
    1TYR    HE2   45   0.377   0.220   3.657  4.3120  1.1757 -0.2560
    1TYR      C   46   0.705   0.683   3.702  1.0919 -0.7395  1.3500
    1TYR      O   47   0.823   0.666   3.659 -0.2402 -0.1555  0.0768
    2ASP      N   48   0.656   0.666   3.824  0.0523 -0.1167 -0.5194
    2ASP     HN   49   0.577   0.714   3.861  1.2087  1.3777  0.1294
    2ASP     CA   50   0.724   0.578   3.917  0.2792 -0.4685 -0.0703
    2ASP     HA   51   0.825   0.563   3.882 -0.2029  0.7469 -2.1548
    2ASP     CB   52   0.735   0.665   4.054 -0.2410 -0.9398 -0.1327
    2ASP    HB1   53   0.636   0.671   4.105 -0.7371 -0.4076 -1.1275
    2ASP    HB2   54   0.769   0.770   4.043 -0.3128 -0.4480  3.2168
    2ASP     CG   55   0.820   0.592   4.163  1.0348 -0.5815 -0.2630
    2ASP    OD1   56   0.791   0.470   4.183 -0.4729 -0.3992 -0.2393
    2ASP    OD2   57   0.908   0.658   4.220  0.1368  0.2390  0.0477
    2ASP      C   58   0.646   0.445   3.947  0.4613  0.1542  0.1701
    2ASP      O   59   0.539   0.448   4.008  0.0372  0.3350 -0.2235
    3PRO      N   60   0.689   0.329   3.892 -0.2991 -0.6470 -0.0762
    3PRO     CD   61   0.803   0.338   3.790 -0.2271  0.1994 -0.2519
    3PRO    HD1   62   0.794   0.405   3.703  1.3241 -1.5974 -1.8974
    3PRO    HD2   63   0.894   0.363   3.849 -1.2909  1.7742  0.7977
    3PRO     CA   64   0.603   0.213   3.874  0.2088  0.1542 -0.1710
    3PRO     HA   65   0.501   0.244   3.852 -0.5378 -0.3596  2.2252
    3PRO     CB   66   0.678   0.132   3.759  0.3133 -0.7886 -0.1536
    3PRO    HB1   67   0.619   0.152   3.667  1.8721  0.4637 -0.9241
    3PRO    HB2   68   0.687   0.022   3.755  0.6973 -0.7220 -2.0242
    3PRO     CG   69   0.818   0.196   3.745 -0.6270  0.7434  0.7691
    3PRO    HG1   70   0.841   0.190   3.636 -1.3957  0.1688  0.6311
    3PRO    HG2   71   0.886   0.133   3.806 -1.3451  0.5014  1.3291
    3PRO      C   72   0.600   0.134   4.011  0.3441 -1.2152  0.1155
    3PRO      O   73   0.516   0.045   4.031  0.8945 -0.0505  0.3681
    4GLU      N   74   0.693   0.162   4.094 -0.2525  0.5667 -0.2573
    4GLU     HN   75   0.750   0.243   4.079 -0.1612  0.7787  1.1522
    4GLU     CA   76   0.714   0.106   4.225  0.5158  0.9009 -0.6921
    4GLU     HA   77   0.691   0.001   4.229  0.7481  0.8798  0.2267
    4GLU     CB   78   0.855   0.119   4.280 -0.1055 -0.1838 -0.2162
    4GLU    HB1   79   0.851   0.094   4.388  2.8814  0.4658  0.1379
    4GLU    HB2   80   0.885   0.224   4.264 -2.0745  0.8960  2.4146
    4GLU     CG   81   0.945   0.027   4.199  0.3493  0.4578  0.2234
    4GLU    HG1   82   0.949   0.065   4.095 -0.5901  0.3456  0.1323
    4GLU    HG2   83   0.890  -0.070   4.191 -4.7062  3.1275 -3.0342
    4GLU     CD   84   1.078   0.022   4.263  0.3265  0.0073  1.0079
    4GLU    OE1   85   1.107  -0.054   4.357  0.0395 -0.0783 -0.3195
    4GLU    OE2   86   1.167   0.088   4.206  0.2415 -0.5389  0.5304
    4GLU      C   87   0.617   0.176   4.326 -0.4822  0.8575 -0.9035
    4GLU      O   88   0.538   0.111   4.397 -0.7085 -0.7026  0.0368
    5THR      N   89   0.609   0.311   4.341 -0.2434  0.3954  0.4297
    5THR     HN   90   0.671   0.364   4.283 -0.4723  1.4299  1.0841
    5THR     CA   91   0.513   0.376   4.421  0.5055  0.2493 -0.2101
    5THR     HA   92   0.497   0.321   4.512  2.2932 -2.6692 -1.4917
    5THR     CB   93   0.560   0.515   4.456 -0.3320  0.2144  0.2330
    5THR     HB   94   0.558   0.586   4.370  2.1195  0.6462  0.4342
    5THR    OG1   95   0.687   0.516   4.521 -0.1174  0.5397 -0.6499
    5THR    HG1   96   0.756   0.543   4.461  1.7025  0.8564  1.4569
    5THR    CG2   97   0.471   0.571   4.573 -0.0239  0.1397 -0.5753
    5THR   HG21   98   0.481   0.502   4.659  2.0260  1.9160  0.7150
    5THR   HG22   99   0.364   0.576   4.543 -0.6226 -1.8146  1.0453
    5THR   HG23  100   0.513   0.667   4.611  2.5347 -0.6633 -1.2200
    5THR      C  101   0.375   0.381   4.357  0.5416  0.0139  0.6558
    5THR      O  102   0.272   0.372   4.419 -0.0784  0.7865  0.3562
    6GLY      N  103   0.360   0.390   4.222 -0.7212 -0.7324  0.3118
    6GLY     HN  104   0.440   0.384   4.163 -0.8206  0.0218  0.0929
    6GLY     CA  105   0.238   0.417   4.160  1.0240 -0.8295 -0.6900
    6GLY    HA1  106   0.158   0.373   4.216  0.0823 -0.2289 -1.5365
    6GLY    HA2  107   0.249   0.374   4.061  1.0829  2.4366 -2.2415
    6GLY      C  108   0.211   0.565   4.140  0.1601  0.2465 -0.4785
    6GLY      O  109   0.101   0.611   4.119  0.2484 -0.2690  0.4147
    7THR      N  110   0.322   0.642   4.145 -0.5649  0.3402 -0.4575
    7THR     HN  111   0.413   0.607   4.163 -1.5365 -0.4985  3.9694
    7THR     CA  112   0.307   0.787   4.140  0.6866 -0.5190  0.0118
    7THR     HA  113   0.206   0.819   4.164  0.3915 -1.1457 -0.3556
    7THR     CB  114   0.400   0.856   4.228 -0.3743  0.0006 -0.1014
    7THR     HB  115   0.504   0.830   4.197 -0.6275 -0.3970 -0.6308
    7THR    OG1  116   0.382   0.829   4.366  0.2278  0.1545  0.2467
    7THR    HG1  117   0.470   0.814   4.403  0.5829  1.2011 -0.1255
    7THR    CG2  118   0.372   1.012   4.217  0.7852  0.6445 -0.2864
    7THR   HG21  119   0.408   1.067   4.307  0.8972 -1.5848  1.1066
    7THR   HG22  120   0.262   1.032   4.216  0.8312  1.1995  1.4969
    7THR   HG23  121   0.412   1.060   4.125 -0.0670  0.7423 -0.6199
    7THR      C  122   0.334   0.842   3.997  0.3942 -0.3481  0.1395
    7THR      O  123   0.431   0.805   3.933 -0.5740  0.0963 -0.0241
    8TRP      N  124   0.253   0.934   3.948  0.3788 -0.3177  1.0546
    8TRP     HN  125   0.167   0.960   3.990  0.1009  1.4616 -0.4929
    8TRP     CA  126   0.286   1.005   3.820 -0.3360  0.4755 -0.4657
    8TRP     HA  127   0.362   0.954   3.763  0.1904 -0.7563  1.2520
    8TRP     CB  128   0.164   1.009   3.721  0.0945 -0.9050  0.3212
    8TRP    HB1  129   0.198   1.068   3.633 -0.8963  1.4618  1.4273
    8TRP    HB2  130   0.084   1.062   3.777  0.2333 -1.5674  1.1601
    8TRP     CG  131   0.101   0.888   3.673 -0.4156 -0.4267 -0.7040
    8TRP    CD1  132   0.012   0.810   3.733  0.3795  0.0354 -0.7514
    8TRP    HD1  133  -0.020   0.826   3.835 -0.3521  1.3887 -1.1664
    8TRP    NE1  134  -0.011   0.704   3.660  0.0341 -0.0423  0.2721
    8TRP    HE1  135  -0.056   0.625   3.695 -1.4008  0.7077  0.2068
    8TRP    CE2  136   0.051   0.708   3.535  0.5712  0.6625  0.3668
    8TRP    CD2  137   0.130   0.821   3.541  0.3290  0.1656  0.0392
    8TRP    CE3  138   0.197   0.872   3.430 -0.4577 -0.1077  0.5088
    8TRP    HE3  139   0.241   0.970   3.423  0.5638 -0.2645  3.4587
    8TRP    CZ3  140   0.189   0.794   3.311  0.5392 -0.2995  0.6496
    8TRP    HZ3  141   0.230   0.813   3.213 -0.7566  1.8645  0.4499
    8TRP    CZ2  142   0.045   0.629   3.413 -0.8603 -0.7193  0.2543
    8TRP    HZ2  143  -0.005   0.534   3.418  0.2575 -1.2714  2.1037
    8TRP    CH2  144   0.112   0.677   3.300 -0.9013 -0.2721 -0.6813
    8TRP    HH2  145   0.100   0.622   3.208  0.3266  0.0671 -1.0762
    8TRP      C  146   0.340   1.151   3.833 -0.0255 -0.1208  0.1372
    8TRP      O  147   0.277   1.232   3.897 -0.1944  0.1225 -0.1994
    9TYR      N  148   0.454   1.183   3.767  0.4609 -0.2714  0.2663
    9TYR     HN  149   0.497   1.116   3.708 -0.4481 -2.6951  2.1932
    9TYR     CA  150   0.504   1.325   3.774  0.4718  0.6843  0.1296
    9TYR     HA  151   0.441   1.391   3.832 -1.0553 -1.1150  0.6112
    9TYR     CB  152   0.649   1.322   3.814  0.5234  0.0422  0.6298
    9TYR    HB1  153   0.680   1.428   3.807  0.8754 -0.1148 -0.2953
    9TYR    HB2  154   0.714   1.267   3.743 -0.0287  0.0020  0.1525
    9TYR     CG  155   0.686   1.258   3.942  0.5734 -0.2762 -0.3779
    9TYR    CD1  156   0.682   1.117   3.961 -0.0542 -0.3604 -0.1639
    9TYR    HD1  157   0.658   1.040   3.889 -0.5651  0.9059 -1.3705
    9TYR    CE1  158   0.711   1.068   4.092 -1.0611 -0.2222  0.3272
    9TYR    HE1  159   0.742   0.966   4.111  2.3877  0.5203 -0.5707
    9TYR     CZ  160   0.746   1.150   4.195  0.7413  0.0066 -0.3926
    9TYR     OH  161   0.795   1.080   4.308  0.2533 -0.0323  0.2798
    9TYR     HH  162   0.763   0.989   4.311 -0.1607  0.0852  3.1784
    9TYR    CD2  163   0.714   1.342   4.050  0.0973  0.0576 -0.4388
    9TYR    HD2  164   0.726   1.447   4.030 -2.3452  0.2394 -1.2494
    9TYR    CE2  165   0.733   1.292   4.181 -0.2313  0.3383  0.6845
    9TYR    HE2  166   0.763   1.360   4.259  0.5321 -1.1481  1.7324
    9TYR      C  167   0.495   1.397   3.636  0.6142 -0.2185  0.3325
    9TYR    OT1  168   0.401   1.480   3.624  0.4538 -0.8309  0.6671
    9TYR    OT2  169   0.560   1.359   3.536 -0.1525 -0.3091 -0.1621
   10SOL     OW  170   2.408   0.640   0.688 -0.5994 -0.0560  0.3001
   10SOL    HW1  171   2.386   0.622   0.597 -1.3324 -0.0262  0.4671
   10SOL    HW2  172   2.458   0.721   0.685  0.0254 -0.4465 -0.1436
   11SOL     OW  173   2.105   1.823   0.456 -0.1840 -0.1665  0.6117
   11SOL    HW1  174   2.013   1.817   0.428  0.2624 -2.7381 -0.5189
   11SOL    HW2  175   2.107   1.783   0.543 -0.0214 -0.7703  0.3316
   12SOL     OW  176   2.476   3.346   3.028 -0.1835  0.1937  0.4575
   12SOL    HW1  177   2.471   3.251   3.038  0.3614  0.3060  2.0848
   12SOL    HW2  178   2.570   3.366   3.032 -0.3600  0.9053  1.4556
   13SOL     OW  179   2.649   2.371   0.354  0.2468 -0.6183  0.5917
   13SOL    HW1  180   2.578   2.434   0.347  0.0472 -0.6447  2.0441
   13SOL    HW2  181   2.643   2.337   0.444  0.4130 -2.6408 -0.1050
   14SOL     OW  182   3.314   0.959   3.053  0.0807  0.0204  0.1652
   14SOL    HW1  183   3.322   1.039   3.105  2.0005  0.3075 -0.4946
   14SOL    HW2  184   3.220   0.941   3.051 -0.3906  2.2132  0.3705
   15SOL     OW  185   0.323   1.423   1.866  0.0785 -0.0250 -0.4079
   15SOL    HW1  186   0.372   1.505   1.866  0.3443 -0.1827 -0.0752
   15SOL    HW2  187   0.234   1.449   1.840  0.4813  0.1650 -1.6858
   16SOL     OW  188   2.036   0.170   2.610  0.0179 -0.1705 -0.0162
   16SOL    HW1  189   1.973   0.099   2.613  0.6606 -0.7268  0.7059
   16SOL    HW2  190   1.983   0.249   2.622 -0.4535 -0.6982  1.8445
   17SOL     OW  191   2.879   0.101   2.569  0.0819  0.1588 -0.5022
   17SOL    HW1  192   2.857   0.063   2.484 -0.6325  0.4625 -0.4570
   17SOL    HW2  193   2.950   0.162   2.550 -0.5650  0.7699 -1.0050
   18SOL     OW  194   2.484   2.103   1.353 -0.6901 -0.1148 -0.1508
   18SOL    HW1  195   2.517   2.014   1.339  0.6536  0.2435  0.6562
   18SOL    HW2  196   2.461   2.105   1.446 -1.4914  0.1421 -0.3496
   19SOL     OW  197   1.089   1.745   1.754  0.1480 -0.3569  0.6529
   19SOL    HW1  198   1.083   1.712   1.844  0.3918 -0.8845  0.4761
   19SOL    HW2  199   1.065   1.671   1.699 -1.8441  0.4726  0.3188
   20SOL     OW  200   0.310   2.944   2.531 -0.1630  0.1612  0.4084
   20SOL    HW1  201   0.358   2.913   2.608 -0.8869  1.9996  1.6710
   20SOL    HW2  202   0.367   3.011   2.492 -0.3870  0.1981  0.1391
   21SOL     OW  203   1.772   2.043   1.188  0.2799 -0.1883 -0.1284
   21SOL    HW1  204   1.840   2.107   1.208 -0.2010  0.7623 -1.4210
   21SOL    HW2  205   1.715   2.044   1.265  1.6444 -0.9486  0.9444
   22SOL     OW  206   0.064   3.660   2.529  0.0361 -0.3209  0.4021
   22SOL    HW1  207   0.087   3.726   2.463  1.0397 -0.2958  0.7752
   22SOL    HW2  208  -0.018   3.622   2.496  0.5563 -0.3565 -0.8996
   23SOL     OW  209   2.070   2.551   0.396 -0.0174  0.7485  0.7607
   23SOL    HW1  210   2.136   2.589   0.453  0.0923  1.8254 -0.0511
   23SOL    HW2  211   2.021   2.492   0.452  1.3810  0.2166  1.4729
   24SOL     OW  212   1.432   2.794   2.507 -0.5283  0.2214  0.0634
   24SOL    HW1  213   1.350   2.748   2.489 -0.0788 -1.4498  1.8770
   24SOL    HW2  214   1.483   2.785   2.426 -1.4079 -0.3813 -0.4384
   25SOL     OW  215   1.880   2.970   2.780  0.6614  0.2313  0.0637
   25SOL    HW1  216   1.884   2.884   2.820 -3.0093  0.3603  1.0462
   25SOL    HW2  217   1.905   3.030   2.851  0.2618  0.1166  0.3069
   26SOL     OW  218   3.634   2.560   2.635 -0.6656  0.3980  0.0071
   26SOL    HW1  219   3.619   2.596   2.722  0.0804 -0.5250  0.5429
   26SOL    HW2  220   3.699   2.618   2.596  1.2618 -0.8214  1.2317
   27SOL     OW  221   3.240   0.986   1.943 -0.0849 -0.5989 -0.4912
   27SOL    HW1  222   3.320   0.944   1.911  1.7221  0.7526  1.9142
   27SOL    HW2  223   3.233   0.959   2.035 -0.4792  1.9378  0.2967
   28SOL     OW  224   0.551   2.743   1.678 -0.2091  0.0031  0.1685
   28SOL    HW1  225   0.640   2.723   1.706 -0.5772 -0.1542  1.3112
   28SOL    HW2  226   0.534   2.683   1.605  1.9543  2.7193 -2.8334
   29SOL     OW  227   0.152   1.553   2.131 -0.7737  0.0505  0.1057
   29SOL    HW1  228   0.144   1.574   2.224  1.8122  0.3244  0.3280
   29SOL    HW2  229   0.139   1.637   2.086  1.2340  0.6112  0.4763
   30SOL     OW  230   1.080   3.110   0.634  0.6012  0.3137  0.3187
   30SOL    HW1  231   1.142   3.039   0.619  0.0104 -0.4059  1.1713
   30SOL    HW2  232   1.132   3.190   0.621  2.3097 -0.2168  2.9729
   31SOL     OW  233   2.750   3.395   0.295  0.3611 -0.3013  0.3720
   31SOL    HW1  234   2.836   3.428   0.319 -0.7407  4.0621 -0.7528
   31SOL    HW2  235   2.714   3.462   0.237 -3.8099 -1.8974  0.7498
   32SOL     OW  236   2.083   2.596   1.718 -0.0911  0.7952 -0.1582
   32SOL    HW1  237   1.999   2.589   1.673  0.3456 -2.5706 -0.6956
   32SOL    HW2  238   2.147   2.607   1.648  0.1933 -0.0405 -0.0403
   33SOL     OW  239   3.071   1.799   3.347  0.1486  0.5123 -0.3503
   33SOL    HW1  240   3.028   1.867   3.399 -0.4789  0.5891 -0.9628
   33SOL    HW2  241   3.164   1.807   3.370 -0.2276 -0.2565  1.6840
   34SOL     OW  242   3.385   2.960   1.255  0.4455 -0.0714 -0.7487
   34SOL    HW1  243   3.412   3.008   1.176 -0.5890 -0.4503 -1.3552
   34SOL    HW2  244   3.465   2.953   1.308  1.1939  0.0661 -1.8287
   35SOL     OW  245   0.806   2.648   1.712  0.3579  0.5445  0.2610
   35SOL    HW1  246   0.881   2.681   1.663  1.7626  1.3898  2.7942
   35SOL    HW2  247   0.824   2.672   1.803 -1.4672 -2.0259  1.4259
   36SOL     OW  248   3.152   2.353   2.596 -0.5167 -0.2389  0.7315
   36SOL    HW1  249   3.145   2.322   2.506 -3.0193  2.2085 -0.0659
   36SOL    HW2  250   3.133   2.276   2.650  0.5421 -1.6378 -0.7928
   37SOL     OW  251   3.263   1.787   3.113 -0.2547 -0.6235  0.1265
   37SOL    HW1  252   3.357   1.773   3.125 -0.1240  0.8957  1.0604
   37SOL    HW2  253   3.250   1.881   3.127 -1.8681 -0.7424 -0.3463
   38SOL     OW  254   2.445   2.244   1.124  0.2620 -0.0141  0.1612
   38SOL    HW1  255   2.457   2.211   1.213  0.4206 -1.0879 -0.2433
   38SOL    HW2  256   2.357   2.281   1.124  0.4462  0.4404  0.8928
   39SOL     OW  257   1.485   3.155   0.414 -0.2981 -0.1546 -0.2806
   39SOL    HW1  258   1.506   3.126   0.503 -0.5004 -0.2678 -0.2689
   39SOL    HW2  259   1.505   3.249   0.414  2.1972 -0.5996 -0.8562
   40SOL     OW  260   2.457   0.036   1.587 -0.5357  0.1516 -0.0229
   40SOL    HW1  261   2.532  -0.022   1.575 -0.0487  0.8096 -0.2607
   40SOL    HW2  262   2.435   0.028   1.680  1.2490  1.5821  0.5885
   41SOL     OW  263   2.085   1.549   0.914 -0.4205 -0.0028 -0.0390
   41SOL    HW1  264   2.089   1.457   0.888 -0.5822 -0.3886  1.2398
   41SOL    HW2  265   2.024   1.551   0.988 -2.3649  1.5206 -1.5562
   42SOL     OW  266   3.354   3.031   2.425  0.0827 -0.5065  0.0801
   42SOL    HW1  267   3.268   2.997   2.403 -0.3943  1.7601 -2.0130
   42SOL    HW2  268   3.415   2.962   2.400 -0.9903 -1.1704 -0.7694
   43SOL     OW  269   0.992   2.581   2.057  0.0222  0.3365 -1.3473
   43SOL    HW1  270   0.951   2.556   2.140  1.3814  1.0368 -0.4249
   43SOL    HW2  271   1.021   2.498   2.019  2.0086  0.1565  0.3426
   44SOL     OW  272   2.514   0.186   3.020  0.4320  0.1934  0.1079
   44SOL    HW1  273   2.553   0.101   3.003  1.2414  0.1730  1.9194
   44SOL    HW2  274   2.583   0.249   2.999 -1.0866  0.7467 -4.2933
   45SOL     OW  275   1.970  -0.010   3.102 -0.6498  0.1776  0.5509
   45SOL    HW1  276   1.921   0.019   3.179 -1.7500 -1.9598  0.7367
   45SOL    HW2  277   1.919   0.022   3.028 -1.3519 -0.4254  0.7521
   46SOL     OW  278   1.751   1.622   3.365  0.5030 -0.0487  0.3792
   46SOL    HW1  279   1.682   1.637   3.430  0.3749  0.2703  0.1762
   46SOL    HW2  280   1.762   1.708   3.323  0.3473 -0.3261 -0.2460
   47SOL     OW  281   2.547   0.069   0.116 -0.1446  0.2121 -0.4281
   47SOL    HW1  282   2.495   0.133   0.066 -2.6329 -1.8161 -0.6760
   47SOL    HW2  283   2.589   0.015   0.049 -1.8808 -1.2681 -0.4013
   48SOL     OW  284   3.148   3.122   1.656  0.0496 -0.7029 -0.1426
   48SOL    HW1  285   3.223   3.093   1.603  0.3775 -3.1055  1.4818
   48SOL    HW2  286   3.186   3.146   1.740 -0.5071  2.7229 -0.7366
   49SOL     OW  287   3.647   2.965   2.801  0.4194 -0.0336  0.5609
   49SOL    HW1  288   3.622   3.045   2.756 -0.6846 -0.7486 -0.1532
   49SOL    HW2  289   3.733   2.943   2.766  1.3264  1.5104  1.7285
   50SOL     OW  290   3.497   3.468   3.356  0.3833  0.1149 -0.3071
   50SOL    HW1  291   3.451   3.531   3.412  2.6107  2.0123 -0.4541
   50SOL    HW2  292   3.434   3.397   3.342 -2.2341  2.2655 -0.0686
   51SOL     OW  293   0.735   1.597   1.416  0.2706  0.0961  0.0176
   51SOL    HW1  294   0.722   1.692   1.419 -0.6914 -0.0380  0.4746
   51SOL    HW2  295   0.688   1.565   1.493  1.4901 -0.6547  0.4760
   52SOL     OW  296   1.198   0.056   2.335  0.5118  0.7054  0.2670
   52SOL    HW1  297   1.210   0.066   2.429 -0.0292 -0.8324  0.5200
   52SOL    HW2  298   1.111   0.091   2.317  0.9383  1.7726  0.1760
   53SOL     OW  299   0.887   1.371   3.306  0.3867  0.4688 -0.1173
   53SOL    HW1  300   0.978   1.366   3.277 -0.0130 -0.5369 -1.2964
   53SOL    HW2  301   0.871   1.464   3.321  1.7059  0.6229  0.4909
   54SOL     OW  302   3.303   3.610   0.138 -0.3058 -0.2307 -0.9074
   54SOL    HW1  303   3.275   3.542   0.077 -1.2161  1.0280 -1.9454
   54SOL    HW2  304   3.372   3.657   0.092 -2.2827  1.9453 -1.8852
   55SOL     OW  305   2.843   2.998   0.992  0.1749 -0.3889 -0.0489
   55SOL    HW1  306   2.876   2.957   0.912 -0.2216 -0.4815 -0.1651
   55SOL    HW2  307   2.857   3.092   0.979  0.4858 -0.4361 -0.0542
   56SOL     OW  308   3.314   3.110   0.234 -0.1671  0.3974 -0.2598
   56SOL    HW1  309   3.280   3.191   0.273  2.0250  0.9937  0.5757
   56SOL    HW2  310   3.238   3.052   0.231 -1.6045  2.1569 -0.0241
   57SOL     OW  311   3.575   0.401   1.018 -0.4440 -0.7683  0.5926
   57SOL    HW1  312   3.619   0.481   0.988  0.1673 -2.2613 -2.9714
   57SOL    HW2  313   3.502   0.390   0.958 -1.8782 -1.7759  2.4362
   58SOL     OW  314   1.065   2.067   1.011 -0.5306 -0.3379  0.6224
   58SOL    HW1  315   1.124   2.069   0.936 -0.8798  0.8252  0.3500
   58SOL    HW2  316   1.018   1.984   1.003 -0.8213 -0.0711 -0.6708
   59SOL     OW  317   1.019   2.246   1.189  0.8263  0.0124 -0.5415
   59SOL    HW1  318   1.056   2.178   1.133  1.3508 -1.5256  1.5201
   59SOL    HW2  319   1.095   2.289   1.229  0.4690  0.5374 -0.4118
   60SOL     OW  320   1.456   3.496   1.704  0.2110  0.1187 -0.7103
   60SOL    HW1  321   1.526   3.546   1.744  0.7834  1.1050 -2.8038
   60SOL    HW2  322   1.475   3.405   1.727  1.1062  0.5355  0.2677
   61SOL     OW  323   1.967   2.737   0.795 -0.7966  0.1942  0.0354
   61SOL    HW1  324   1.987   2.747   0.888  0.7192  1.7041 -0.4063
   61SOL    HW2  325   2.037   2.680   0.762 -1.4096 -0.4526 -0.1811
   62SOL     OW  326   1.688   0.351   2.731  0.2319  0.2276  0.2785
   62SOL    HW1  327   1.761   0.385   2.678  0.2131 -1.9502 -1.2768
   62SOL    HW2  328   1.609   0.381   2.685  0.1321  1.3124  1.1183
   63SOL     OW  329   0.698   2.918   2.801  0.0567 -0.1536  0.1829
   63SOL    HW1  330   0.774   2.860   2.797  1.5913  1.7506  0.2070
   63SOL    HW2  331   0.701   2.956   2.889 -1.1626 -0.3149  0.3175
   64SOL     OW  332   3.520   3.393   3.033  0.3765 -0.4596 -0.2633
   64SOL    HW1  333   3.539   3.310   3.076 -1.5442 -0.4740  0.6804
   64SOL    HW2  334   3.576   3.457   3.077  0.2751 -0.9045  0.5188
   65SOL     OW  335   1.484   0.348   1.036 -0.0873 -0.2954  0.0959
   65SOL    HW1  336   1.441   0.264   1.048  0.2211 -0.5740 -0.6765
   65SOL    HW2  337   1.453   0.402   1.108 -2.3292 -0.2525 -0.8256
   66SOL     OW  338   3.233   3.577   2.956 -0.1293  0.4273 -0.8183
   66SOL    HW1  339   3.162   3.622   3.000  0.6254 -0.4334  1.4387
   66SOL    HW2  340   3.233   3.612   2.867 -3.1158  0.6810 -0.8031
   67SOL     OW  341   0.288   2.047   1.999 -0.2646  0.1166  0.2353
   67SOL    HW1  342   0.374   2.045   2.039  0.3488  0.4820 -1.0211
   67SOL    HW2  343   0.227   2.055   2.073  0.7226 -0.6913  1.1723
   68SOL     OW  344   3.448   3.047   1.970  0.1820  0.0608  0.4764
   68SOL    HW1  345   3.530   3.060   2.018  0.7487 -1.0655 -0.1521
   68SOL    HW2  346   3.441   3.124   1.913  0.5275  0.4179  0.9124
   69SOL     OW  347   1.726   1.215   0.604 -0.7288  0.0581 -0.5176
   69SOL    HW1  348   1.745   1.308   0.596 -2.4372  0.5807  1.0740
   69SOL    HW2  349   1.753   1.192   0.693  0.1512 -1.1161 -1.0509
   70SOL     OW  350   0.995   3.014   3.076  0.0343  0.0476  0.0508
   70SOL    HW1  351   1.032   3.069   3.145  0.2303  0.4653 -0.3751
   70SOL    HW2  352   0.902   3.008   3.096  0.0578  0.3267  0.2462
   71SOL     OW  353   1.432   3.421   2.449  0.4453  0.2035  0.0558
   71SOL    HW1  354   1.369   3.446   2.517  0.2306  1.4283 -0.5698
   71SOL    HW2  355   1.383   3.363   2.391 -0.1686  1.2124 -0.4733
   72SOL     OW  356   2.207   2.553   3.336  0.0441  0.1350  0.6417
   72SOL    HW1  357   2.249   2.468   3.352 -1.5085 -0.6252  0.9165
   72SOL    HW2  358   2.187   2.553   3.243  0.4896  0.4268  0.5426
   73SOL     OW  359   0.137   3.235   1.390 -0.0758 -0.3875  0.5332
   73SOL    HW1  360   0.101   3.318   1.420  0.7941  0.3786 -0.4743
   73SOL    HW2  361   0.109   3.227   1.299  1.6479 -0.1074 -0.0642
   74SOL     OW  362   3.634   1.462   1.983  0.2769  0.2852  0.0471
   74SOL    HW1  363   3.724   1.490   1.999  0.1237  0.9421 -0.2405
   74SOL    HW2  364   3.635   1.368   2.001  1.2517  0.0986 -0.9098
   75SOL     OW  365   1.901   1.142   1.765  0.4671  0.2496  0.0417
   75SOL    HW1  366   1.813   1.130   1.729  0.5714  0.1454 -0.1821
   75SOL    HW2  367   1.947   1.193   1.698  0.7356 -0.1582 -0.0900
   76SOL     OW  368   2.011   0.730   1.980 -0.0282  0.2626 -0.1965
   76SOL    HW1  369   1.919   0.749   1.995 -1.5021 -2.7111 -3.7787
   76SOL    HW2  370   2.017   0.634   1.988  2.5162  0.2628 -1.1308
   77SOL     OW  371   2.785   3.147   3.258 -0.3612 -0.0010 -0.0854
   77SOL    HW1  372   2.849   3.111   3.197 -0.0655  1.0938 -0.4395
   77SOL    HW2  373   2.826   3.226   3.293 -1.2183  0.3187  0.2354
   78SOL     OW  374   3.516   1.481   1.626  0.0736 -0.0178 -0.0846
   78SOL    HW1  375   3.494   1.411   1.687  0.7339  1.2843  1.7120
   78SOL    HW2  376   3.485   1.449   1.541 -0.8822 -1.8755  0.9086
   79SOL     OW  377   0.220   3.108   0.150  0.2734  0.3213  0.2574
   79SOL    HW1  378   0.292   3.089   0.210  1.2584  1.1509 -0.6318
   79SOL    HW2  379   0.210   3.203   0.154  0.5297  0.4158 -1.0823
   80SOL     OW  380   0.021   2.399   0.144 -0.1209 -0.2863  0.2776
   80SOL    HW1  381  -0.008   2.489   0.151 -1.9729 -0.7149 -1.1330
   80SOL    HW2  382   0.057   2.378   0.230  0.9448  1.9470  0.4476
   81SOL     OW  383   1.398   1.607   3.402  0.3685  0.3908 -0.0017
   81SOL    HW1  384   1.329   1.665   3.368  1.1086 -0.3091 -2.9765
   81SOL    HW2  385   1.471   1.666   3.420  0.0064  0.7634  0.2882
   82SOL     OW  386   1.254   1.963   2.546 -1.1365  0.3099 -0.4762
   82SOL    HW1  387   1.333   1.956   2.494 -0.2634  0.1304  0.8360
   82SOL    HW2  388   1.225   2.054   2.534 -0.3972  0.5459 -0.4760
   83SOL     OW  389   0.378   3.208   1.117  0.1494 -0.1460 -0.0721
   83SOL    HW1  390   0.390   3.203   1.022 -0.6581  1.3060 -0.2834
   83SOL    HW2  391   0.285   3.191   1.130  0.3207 -0.6839  0.5101
   84SOL     OW  392   1.620   3.603   0.630  0.1182  0.1589  0.2704
   84SOL    HW1  393   1.654   3.691   0.613 -0.8986  1.4746  3.9467
   84SOL    HW2  394   1.546   3.618   0.688 -2.1211 -3.0288 -1.4962
   85SOL     OW  395   0.198   1.698   2.383  0.0732  0.1658 -0.1311
   85SOL    HW1  396   0.238   1.666   2.464  2.3793 -3.7301 -2.5001
   85SOL    HW2  397   0.104   1.681   2.394  0.7697 -4.8199  0.1934
   86SOL     OW  398   1.191   2.451   2.346 -0.0446 -0.3769  0.2135
   86SOL    HW1  399   1.115   2.415   2.302  0.9489 -1.8935 -0.3656
   86SOL    HW2  400   1.240   2.497   2.277 -0.8223  1.3563  0.7545
   87SOL     OW  401   1.559   2.981   1.929  0.0508 -0.2417 -0.2613
   87SOL    HW1  402   1.525   2.967   1.841 -1.1062  4.3020 -0.7626
   87SOL    HW2  403   1.644   3.024   1.915  0.5759 -0.8400  0.9309
   88SOL     OW  404   1.778   2.989   3.106  0.3174 -0.3810  0.2233
   88SOL    HW1  405   1.809   3.036   3.183  0.5179  1.3507 -0.8765
   88SOL    HW2  406   1.709   3.044   3.070  0.9609 -0.6142 -1.4510
   89SOL     OW  407   0.318   3.382   2.988 -0.0848  0.3805  0.4541
   89SOL    HW1  408   0.411   3.388   3.009 -0.0639  0.8023  0.2547
   89SOL    HW2  409   0.279   3.339   3.064  0.3050 -0.0058  0.4406
   90SOL     OW  410   0.393   1.652   3.105 -0.0181  0.3685  0.1849
   90SOL    HW1  411   0.433   1.632   3.190 -0.8451 -1.5703  0.1462
   90SOL    HW2  412   0.312   1.698   3.127  0.2245  0.6930  0.4085
   91SOL     OW  413   2.798   2.273   3.057 -0.0258 -0.0441 -0.5689
   91SOL    HW1  414   2.773   2.202   2.998  1.8707  0.8250 -2.5723
   91SOL    HW2  415   2.886   2.249   3.087 -0.8510 -0.3432  1.8131
   92SOL     OW  416   1.622   0.731   3.327  0.3759  0.0418  0.3510
   92SOL    HW1  417   1.602   0.736   3.421  0.0977 -2.2398  0.4770
   92SOL    HW2  418   1.682   0.656   3.320 -0.9336 -0.8954 -1.4785
   93SOL     OW  419   1.940   2.679   2.596 -0.5627  0.2402 -0.4826
   93SOL    HW1  420   1.911   2.668   2.505  0.1078  0.8263 -0.7749
   93SOL    HW2  421   1.862   2.710   2.642 -0.9547 -0.2233 -0.8114
   94SOL     OW  422   2.682   0.484   2.308  0.1594  0.0663  0.6937
   94SOL    HW1  423   2.642   0.440   2.383  0.6409 -1.9130 -0.1465
   94SOL    HW2  424   2.610   0.499   2.247  0.0827 -0.0769  0.7484
   95SOL     OW  425   2.221   2.957   2.350  0.4093  0.8958  0.0038
   95SOL    HW1  426   2.168   2.880   2.370  1.5933 -0.1527 -0.7163
   95SOL    HW2  427   2.252   2.989   2.435  2.4675 -1.3405  0.1971
   96SOL     OW  428   2.401   3.485   2.330 -0.5251  0.6272 -0.3154
   96SOL    HW1  429   2.327   3.512   2.384  0.0120 -0.3087  0.9150
   96SOL    HW2  430   2.361   3.433   2.260 -0.9716 -1.0087  1.0792
   97SOL     OW  431   2.008   1.671   3.456 -0.4205  0.2508 -1.0212
   97SOL    HW1  432   1.951   1.718   3.395 -2.1502 -1.5540 -0.9325
   97SOL    HW2  433   1.958   1.592   3.477  0.6760  0.2132  1.7711
   98SOL     OW  434   1.962   3.616   1.394  0.7002  0.0129  0.3852
   98SOL    HW1  435   2.052   3.646   1.398  0.9357 -0.0791 -2.1724
   98SOL    HW2  436   1.965   3.525   1.424  1.4350  0.0519  0.4455
   99SOL     OW  437   3.346   3.187  -0.028 -1.0548 -0.2714 -0.2176
   99SOL    HW1  438   3.359   3.092  -0.038  1.2454  0.1750 -2.1010
   99SOL    HW2  439   3.354   3.202   0.066  0.3780 -1.7324 -0.0697
  100SOL     OW  440   0.624   1.635   1.999 -0.0054 -0.3336  0.7115
  100SOL    HW1  441   0.587   1.553   2.034  0.3650  0.1821  2.4341
  100SOL    HW2  442   0.680   1.667   2.070  0.6318  0.9081 -0.3263
  101SOL     OW  443   3.059   0.545   2.390 -0.4812  0.0657  0.4548
  101SOL    HW1  444   3.110   0.467   2.416  1.1060  0.9771  0.2040
  101SOL    HW2  445   3.122   0.600   2.344 -1.7848  1.1628 -0.0705
  102SOL     OW  446   0.553   1.166   2.949 -0.0646  0.3182 -0.3864
  102SOL    HW1  447   0.645   1.139   2.947  0.1167  0.9147 -0.1814
  102SOL    HW2  448   0.514   1.121   2.874  0.2788 -0.3308 -0.1893
  103SOL     OW  449   2.744   0.691   0.382  0.0962  0.1603  0.3400
  103SOL    HW1  450   2.744   0.597   0.364  2.5618  0.1231  0.2754
  103SOL    HW2  451   2.742   0.733   0.296 -1.9281  0.2485  0.3724
  104SOL     OW  452   2.051   1.238   3.297  0.5926  0.2316 -0.5923
  104SOL    HW1  453   2.076   1.228   3.205 -0.9267 -0.1610 -0.9827
  104SOL    HW2  454   1.970   1.287   3.295  1.6699  2.2058  0.6953
  105SOL     OW  455   1.928   2.343   2.530  0.2834 -0.4023 -0.4714
  105SOL    HW1  456   1.866   2.416   2.529  0.9420  0.1574 -1.2258
  105SOL    HW2  457   1.998   2.373   2.588 -0.2208 -1.1221  0.5547
  106SOL     OW  458   2.750   2.772   3.446 -0.0996  0.5004  0.2465
  106SOL    HW1  459   2.777   2.862   3.464  2.3862  0.1025 -1.0112
  106SOL    HW2  460   2.778   2.722   3.523  0.7593  0.4467 -0.0926
  107SOL     OW  461   0.046   2.586   2.929 -0.4540  0.8717  0.1639
  107SOL    HW1  462   0.008   2.672   2.913  0.1121  1.3394  1.1933
  107SOL    HW2  463   0.099   2.598   3.008  1.6973  0.2190 -1.0921
  108SOL     OW  464   3.118   3.245   3.512 -0.5082  0.4669 -0.0960
  108SOL    HW1  465   3.183   3.192   3.558 -0.3854  1.9396  1.5193
  108SOL    HW2  466   3.102   3.198   3.431  1.3603 -0.7750  0.2019
  109SOL     OW  467   0.349   1.775   0.468  0.3431 -0.0432 -0.2059
  109SOL    HW1  468   0.316   1.780   0.378 -0.2113  2.8351  0.0824
  109SOL    HW2  469   0.326   1.859   0.507  1.9897 -0.6011  2.1662
  110SOL     OW  470   0.045   1.291   0.851 -0.4694  0.0323 -0.0422
  110SOL    HW1  471  -0.019   1.249   0.793 -0.4489  0.1222 -0.1292
  110SOL    HW2  472   0.053   1.380   0.818 -2.3221  0.8627  1.6082
  111SOL     OW  473   2.250   0.685   3.633  0.0762 -0.2223  0.5634
  111SOL    HW1  474   2.208   0.764   3.667  2.1481  0.9913  0.4399
  111SOL    HW2  475   2.334   0.715   3.598  0.1595 -2.2046 -1.1574
  112SOL     OW  476   3.669   1.702   1.702  0.5888  0.3758 -0.9432
  112SOL    HW1  477   3.672   1.757   1.623 -0.1361  0.6716 -0.7737
  112SOL    HW2  478   3.600   1.638   1.684 -0.5896  1.3248 -0.0094
  113SOL     OW  479   1.949   2.365   3.707  0.1913 -0.3320  0.1163
  113SOL    HW1  480   1.952   2.396   3.617  0.8134  0.3666  0.3735
  113SOL    HW2  481   1.856   2.361   3.728  0.0022 -1.2971 -0.8198
  114SOL     OW  482   0.955   2.857   2.806  0.0962 -0.4737  0.5309
  114SOL    HW1  483   0.981   2.856   2.898  1.2742 -0.0743  0.2259
  114SOL    HW2  484   1.033   2.887   2.760  0.0658 -2.2362 -0.7711
  115SOL     OW  485   1.842   0.566   2.209  0.1033 -0.1052 -0.1122
  115SOL    HW1  486   1.854   0.544   2.117 -1.1622 -0.8262 -0.1320
  115SOL    HW2  487   1.763   0.518   2.235 -1.4915  2.6337  0.4723
  116SOL     OW  488   2.280   3.338   3.382  0.5950  0.0701 -0.3210
  116SOL    HW1  489   2.275   3.425   3.422 -0.2979 -0.3731  0.5716
  116SOL    HW2  490   2.374   3.324   3.367  0.9930  0.2290  1.7291
  117SOL     OW  491   1.947   1.812   1.753  0.1441  0.1765 -0.3560
  117SOL    HW1  492   1.964   1.834   1.662 -0.5414 -2.0392 -1.0924
  117SOL    HW2  493   1.996   1.731   1.767 -0.5047 -0.0095  0.9637
  118SOL     OW  494   3.056   3.571   1.965  0.1510 -0.1301  0.4333
  118SOL    HW1  495   3.019   3.483   1.962  1.0947 -0.5676 -2.8481
  118SOL    HW2  496   2.985   3.626   1.999 -1.8322 -1.6212 -1.0470
  119SOL     OW  497   1.400   3.338   0.155  0.5659 -0.5565 -0.3197
  119SOL    HW1  498   1.417   3.432   0.147 -0.7824 -0.3135 -0.5817
  119SOL    HW2  499   1.487   3.298   0.156  1.2441  0.8052  1.4076
  120SOL     OW  500   1.790   3.113   3.336 -0.3330 -0.1449 -0.4683
  120SOL    HW1  501   1.870   3.141   3.380 -1.0716  2.1817 -0.4730
  120SOL    HW2  502   1.763   3.034   3.383  2.3450 -1.4749 -0.9948
  121SOL     OW  503   0.299   0.205   2.106  0.2893 -0.4306  0.5792
  121SOL    HW1  504   0.275   0.162   2.188  0.4948  2.2469  2.1440
  121SOL    HW2  505   0.362   0.146   2.065  1.0392 -1.3343  2.9001
  122SOL     OW  506   3.466   3.529   2.793 -0.3651  0.3501 -0.1116
  122SOL    HW1  507   3.487   3.481   2.873  0.4827  0.8286 -0.0351
  122SOL    HW2  508   3.383   3.573   2.813 -0.8247 -0.5598  0.0383
  123SOL     OW  509   0.513   1.544   1.583 -0.1386 -0.1987  0.8156
  123SOL    HW1  510   0.445   1.610   1.568  0.7684  0.2934 -1.8230
  123SOL    HW2  511   0.469   1.461   1.570 -1.1802 -0.1643  3.6595
  124SOL     OW  512   0.819   1.875   3.367  1.0964  0.3150 -0.4371
  124SOL    HW1  513   0.816   1.862   3.462 -0.7876 -0.0331 -0.5154
  124SOL    HW2  514   0.809   1.969   3.355  0.6182  0.2813 -0.3087
  125SOL     OW  515   2.102   3.220   2.883  0.3707 -0.5516  0.9122
  125SOL    HW1  516   2.119   3.215   2.978 -0.1224 -1.8084  0.9492
  125SOL    HW2  517   2.158   3.151   2.846  3.9559  2.6216 -0.2658
  126SOL     OW  518   3.510   3.288   1.796 -0.1674  0.0676  0.3333
  126SOL    HW1  519   3.583   3.240   1.758  0.2462 -0.7088  2.0094
  126SOL    HW2  520   3.521   3.377   1.764 -0.2125 -0.6568 -1.8100
  127SOL     OW  521   0.994   2.750   3.624  0.4416  0.5795  0.1412
  127SOL    HW1  522   1.070   2.728   3.570 -0.2480  0.2678 -0.7295
  127SOL    HW2  523   1.010   2.840   3.653  2.0061 -0.0907  1.4992
  128SOL     OW  524   0.876   2.051   1.377 -0.4402 -0.8212  0.2170
  128SOL    HW1  525   0.936   1.986   1.341  0.3497 -0.6431  1.1611
  128SOL    HW2  526   0.933   2.121   1.408 -1.2221 -0.1001  0.0457
  129SOL     OW  527   0.489   3.681   3.200 -0.2973 -0.1289 -0.4623
  129SOL    HW1  528   0.430   3.730   3.144 -0.1948 -0.1789 -0.6149
  129SOL    HW2  529   0.559   3.652   3.142 -0.1001 -0.0333 -0.2744
  130SOL     OW  530   1.315   2.445   2.083 -0.5131 -0.8722  0.3140
  130SOL    HW1  531   1.325   2.355   2.114  0.5723 -1.2665 -1.0581
  130SOL    HW2  532   1.284   2.436   1.993  0.2110  0.0955 -0.0507
  131SOL     OW  533   2.186   0.891   0.567 -0.2439 -0.5946 -0.2956
  131SOL    HW1  534   2.206   0.904   0.474  1.6219 -0.5982  0.0711
  131SOL    HW2  535   2.250   0.946   0.613 -2.3687  0.9337  0.9939
  132SOL     OW  536   1.835   0.320   1.288  0.1381  0.7732  0.7655
  132SOL    HW1  537   1.925   0.295   1.306 -0.3676 -0.2209  2.1336
  132SOL    HW2  538   1.783   0.267   1.349 -1.5760 -0.6204 -1.7266
  133SOL     OW  539   1.583   1.732   3.552 -0.1672  0.5227 -0.1390
  133SOL    HW1  540   1.611   1.693   3.635  0.3901  0.1891 -0.4770
  133SOL    HW2  541   1.578   1.825   3.570 -0.3492  0.4246  0.3518
  134SOL     OW  542   2.744   1.734   0.199  0.1931 -0.4250 -0.3060
  134SOL    HW1  543   2.803   1.667   0.163 -0.0696 -0.1877 -1.2104
  134SOL    HW2  544   2.711   1.696   0.280 -0.1243 -1.4967 -0.9142
  135SOL     OW  545   0.678   1.871   1.347 -0.0562  0.0544 -0.7946
  135SOL    HW1  546   0.742   1.917   1.401 -1.4657 -0.8747  1.9135
  135SOL    HW2  547   0.593   1.906   1.376 -1.0280 -2.4149 -0.3858
  136SOL     OW  548   2.881   1.571   2.856 -0.0096 -0.1647  0.5876
  136SOL    HW1  549   2.969   1.610   2.854  0.3618 -1.0082 -0.0849
  136SOL    HW2  550   2.888   1.494   2.801 -0.3990 -1.8961  2.8361
  137SOL     OW  551   1.414   3.567   3.666  0.4063  0.1430  0.1625
  137SOL    HW1  552   1.377   3.513   3.596  0.7025  0.9998 -0.6722
  137SOL    HW2  553   1.504   3.537   3.674  0.4415  0.2061  0.0088
  138SOL     OW  554   0.036   2.618   3.648  0.3209  0.1441  0.4425
  138SOL    HW1  555   0.026   2.661   3.732 -1.3989 -0.4105  0.5747
  138SOL    HW2  556  -0.054   2.605   3.617  0.8713 -0.8487 -0.8526
  139SOL     OW  557   2.395   3.264   1.178 -0.1459 -0.1318 -0.2481
  139SOL    HW1  558   2.340   3.211   1.121 -0.1345  1.1659 -1.5243
  139SOL    HW2  559   2.333   3.319   1.227 -0.2474 -2.0802  1.9928
  140SOL     OW  560   3.048   3.400   2.397  0.3148  0.0467 -0.1228
  140SOL    HW1  561   3.049   3.379   2.491  0.8104 -2.8418 -0.6962
  140SOL    HW2  562   3.099   3.331   2.356 -0.6084  0.7536 -2.6474
  141SOL     OW  563   1.939   3.300   2.495  0.3847  0.6315  0.0857
  141SOL    HW1  564   1.951   3.208   2.517  0.3015  0.7431  0.6098
  141SOL    HW2  565   1.869   3.301   2.430 -0.1826  0.3972  0.6919
  142SOL     OW  566   3.219   1.010   1.251  0.6336  0.7464  0.0534
  142SOL    HW1  567   3.187   1.090   1.208  1.0820  0.3457 -1.0847
  142SOL    HW2  568   3.293   1.039   1.303  1.3113  0.9682 -1.0002
  143SOL     OW  569   1.853   1.896   1.989  0.1181  0.7227 -0.1472
  143SOL    HW1  570   1.793   1.824   2.008  1.2846 -0.2349  0.0721
  143SOL    HW2  571   1.879   1.881   1.898  0.1281  1.0572 -0.1994
  144SOL     OW  572   0.617   2.288   2.368  0.2340 -0.2538  0.7763
  144SOL    HW1  573   0.695   2.343   2.379  0.9818 -0.7298 -1.4663
  144SOL    HW2  574   0.547   2.338   2.408  1.2576  1.4083  0.6080
  145SOL     OW  575   3.672   2.382   2.418 -0.3593 -0.4450  0.0112
  145SOL    HW1  576   3.714   2.465   2.396 -1.0186 -0.3750 -1.0583
  145SOL    HW2  577   3.618   2.401   2.494  1.4102 -0.5078  1.3489
  146SOL     OW  578   3.051   1.096   3.043  0.8046  0.1485  0.3709
  146SOL    HW1  579   3.018   1.138   2.963 -1.3586  1.4621  1.8263
  146SOL    HW2  580   3.116   1.157   3.077 -0.0925  0.8701  0.8600
  147SOL     OW  581   0.070   3.105   0.618  0.1743  0.0992  0.1784
  147SOL    HW1  582   0.071   3.035   0.683  1.2683  1.1897  1.3878
  147SOL    HW2  583   0.077   3.060   0.534 -1.5783 -1.3642  0.7607
  148SOL     OW  584   1.469   1.276   3.574  0.3212 -0.0199  0.1154
  148SOL    HW1  585   1.433   1.363   3.590  0.4935 -0.0739  0.8065
  148SOL    HW2  586   1.396   1.226   3.537 -0.0586  0.1286  0.6666
  149SOL     OW  587   1.454   2.532   2.689 -0.3973  0.7874  0.0819
  149SOL    HW1  588   1.483   2.481   2.765  2.2802  0.9745 -0.7146
  149SOL    HW2  589   1.485   2.483   2.613 -1.1024  1.7122 -0.8407
  150SOL     OW  590   0.513   0.380   1.202 -0.2337  0.1128  0.3340
  150SOL    HW1  591   0.485   0.290   1.221 -0.6654  0.7807  3.2186
  150SOL    HW2  592   0.446   0.413   1.142  0.2954 -1.6361 -1.3244
  151SOL     OW  593   3.444   0.765   3.462  0.2678  0.4328  0.0935
  151SOL    HW1  594   3.475   0.811   3.384 -1.3237  2.5117  0.6034
  151SOL    HW2  595   3.358   0.803   3.480 -0.3007 -1.4494  1.7016
  152SOL     OW  596   0.369   0.916   1.565 -0.4233  0.1726  0.0085
  152SOL    HW1  597   0.433   0.965   1.513  0.0070  1.8284  1.9964
  152SOL    HW2  598   0.403   0.826   1.567  1.5166  0.8696  0.4658
  153SOL     OW  599   1.939   0.674   1.404 -0.1104  0.1096 -0.3650
  153SOL    HW1  600   1.872   0.742   1.410 -1.5819 -1.3039 -0.0245
  153SOL    HW2  601   2.014   0.710   1.452 -1.9516  0.2411  2.6903
  154SOL     OW  602   1.636   0.420   2.308  0.0258  0.0260  0.0230
  154SOL    HW1  603   1.586   0.389   2.233 -0.6000  0.0263  0.4350
  154SOL    HW2  604   1.594   0.381   2.384  1.0035 -0.4292  0.3450
  155SOL     OW  605   0.199   1.459   0.579 -0.3448  0.5403 -0.1761
  155SOL    HW1  606   0.132   1.507   0.629 -3.7086 -5.1787  1.7248
  155SOL    HW2  607   0.168   1.461   0.489  0.7662  3.3082 -0.6106
  156SOL     OW  608   1.861   1.200   0.873 -0.6353  0.4989 -0.1350
  156SOL    HW1  609   1.927   1.131   0.882 -1.2088 -0.1356 -0.6583
  156SOL    HW2  610   1.911   1.281   0.868  0.0785  0.0758 -0.0415
  157SOL     OW  611   0.436   0.970   0.900  0.2345 -0.5436 -0.0627
  157SOL    HW1  612   0.399   0.966   0.811 -0.0088 -0.3843  0.0296
  157SOL    HW2  613   0.360   0.986   0.956  0.5540  0.6875  0.0505
  158SOL     OW  614   1.901   2.250   1.314  0.6781  0.0058 -0.2072
  158SOL    HW1  615   1.974   2.296   1.357  1.4174 -0.5077 -0.8669
  158SOL    HW2  616   1.823   2.294   1.346  1.3406  1.5735 -0.6235
  159SOL     OW  617   1.595   2.079   1.432  0.0840  0.2625  0.2712
  159SOL    HW1  618   1.518   2.132   1.453  0.3954  0.9321 -0.2246
  159SOL    HW2  619   1.652   2.089   1.509 -1.5490 -2.6903  2.0171
  160SOL     OW  620   1.141   0.548   0.893 -0.2484  0.7583  0.1757
  160SOL    HW1  621   1.117   0.461   0.860  0.8436  0.3948  0.3024
  160SOL    HW2  622   1.115   0.608   0.822  1.2911  0.0660 -1.0499
  161SOL     OW  623   1.385   2.171   1.023 -0.1131 -0.4528 -0.0744
  161SOL    HW1  624   1.380   2.126   1.108  1.8930  0.7570  0.7470
  161SOL    HW2  625   1.473   2.151   0.991 -1.1249 -1.6582 -2.3952
  162SOL     OW  626   0.519   2.779   0.476  0.0915  0.3803 -0.3676
  162SOL    HW1  627   0.576   2.796   0.552 -1.7585 -1.9313  1.7119
  162SOL    HW2  628   0.566   2.713   0.425 -0.3970 -1.1979  1.1109
  163SOL     OW  629   2.547   3.037   0.833 -0.0753 -0.0214  0.4853
  163SOL    HW1  630   2.546   2.977   0.908  0.5919 -1.3273 -0.5038
  163SOL    HW2  631   2.536   3.124   0.872 -2.6791 -0.8491  1.8658
  164SOL     OW  632   3.682   0.324   1.902  0.7715 -0.3902 -0.5727
  164SOL    HW1  633   3.730   0.246   1.873 -1.0705 -1.3328 -1.2661
  164SOL    HW2  634   3.606   0.328   1.844  2.2437  3.6909 -2.6134
  165SOL     OW  635   3.413   1.110   1.411 -0.5359  0.5579  0.2568
  165SOL    HW1  636   3.496   1.157   1.415 -0.4469  0.3581  0.8429
  165SOL    HW2  637   3.381   1.109   1.501 -0.1235 -1.2367  0.4212
  166SOL     OW  638   2.483   0.755   1.060  0.1063  0.1499 -0.8792
  166SOL    HW1  639   2.397   0.736   1.023 -0.2408 -1.9772  0.8214
  166SOL    HW2  640   2.543   0.749   0.986 -1.1066  1.3131 -2.0256
  167SOL     OW  641   3.515   0.810   1.520  0.6550 -0.0859  0.0096
  167SOL    HW1  642   3.503   0.716   1.530  0.2375  0.0570  1.0428
  167SOL    HW2  643   3.428   0.847   1.536  1.3319  0.6384  2.4933
  168SOL     OW  644   0.003   3.157   1.662  0.8868  0.0902 -0.0644
  168SOL    HW1  645   0.062   3.132   1.591 -0.4438 -2.2831 -0.4581
  168SOL    HW2  646   0.051   3.136   1.742  0.6101 -2.0501 -0.3854
  169SOL     OW  647   3.122   1.242   1.110  0.2722  0.2156 -0.8292
  169SOL    HW1  648   3.162   1.323   1.141 -0.5157  0.2195  0.2803
  169SOL    HW2  649   3.113   1.253   1.016 -0.2716  1.6468 -0.6401
  170SOL     OW  650   3.364   0.661   3.004  0.1995 -0.1249 -0.3089
  170SOL    HW1  651   3.414   0.678   2.924 -0.9592 -0.0188 -1.0326
  170SOL    HW2  652   3.344   0.748   3.038  1.0013 -0.1722  0.3144
  171SOL     OW  653   1.789  -0.007   2.293 -0.1837 -0.5165  0.0015
  171SOL    HW1  654   1.812   0.086   2.289 -2.8041  0.2779  0.9265
  171SOL    HW2  655   1.872  -0.053   2.298  1.2388  1.7055 -1.4526
  172SOL     OW  656   2.861   2.235   0.654 -0.2985 -0.0298  0.1028
  172SOL    HW1  657   2.889   2.218   0.743 -1.1155 -0.6686  0.2554
  172SOL    HW2  658   2.769   2.208   0.652 -0.2237 -0.2718 -0.9958
  173SOL     OW  659   0.764   2.814   3.422  0.8849 -0.1952 -0.5253
  173SOL    HW1  660   0.722   2.885   3.471 -1.7051 -1.4642 -0.7655
  173SOL    HW2  661   0.856   2.818   3.449  1.1037  3.7815 -1.1980
  174SOL     OW  662   2.812   0.862   0.583 -0.2776 -0.0048 -0.2855
  174SOL    HW1  663   2.877   0.806   0.626 -1.5016 -1.7620 -0.6396
  174SOL    HW2  664   2.792   0.817   0.501 -0.7840  1.3433 -0.9353
  175SOL     OW  665   3.150   0.044   0.576 -0.0945  0.0715  0.2056
  175SOL    HW1  666   3.204   0.121   0.562 -1.0978  0.6992 -0.2760
  175SOL    HW2  667   3.179  -0.018   0.509  0.3246  0.2267  0.2363
  176SOL     OW  668   3.091   0.679   3.495  0.0838  0.1782 -0.0172
  176SOL    HW1  669   3.131   0.764   3.511  1.3722 -0.6228  1.3547
  176SOL    HW2  670   3.048   0.656   3.577  0.2151 -0.7127 -0.1811
  177SOL     OW  671   3.109   2.530   1.745 -0.2973 -0.0822  0.0879
  177SOL    HW1  672   3.036   2.541   1.685  1.2010 -0.0954 -1.8349
  177SOL    HW2  673   3.105   2.439   1.772  1.0643 -1.1405 -2.9345
  178SOL     OW  674   0.048   0.156   0.992 -0.1786 -0.1549  0.2689
  178SOL    HW1  675   0.054   0.216   1.066  0.6636 -0.6939  0.6582
  178SOL    HW2  676  -0.022   0.191   0.938 -1.2771 -0.1024  1.6570
  179SOL     OW  677   0.913   0.462   2.366  0.3501  0.0888 -0.3030
  179SOL    HW1  678   0.971   0.538   2.369  0.3420  0.1098 -0.5840
  179SOL    HW2  679   0.870   0.468   2.280  0.7520 -0.5151 -0.5622
  180SOL     OW  680   3.701   0.971   0.364 -0.2424 -0.0646  0.0369
  180SOL    HW1  681   3.719   0.926   0.447 -1.2374  0.9209  0.8255
  180SOL    HW2  682   3.670   1.057   0.391  1.8556  1.2199 -1.4351
  181SOL     OW  683   3.473   2.872   3.330 -0.1014 -0.2603  0.3032
  181SOL    HW1  684   3.424   2.935   3.277  0.5553  0.6859  0.7853
  181SOL    HW2  685   3.505   2.807   3.267 -1.0266 -0.2795 -0.1629
  182SOL     OW  686   0.923   0.606   1.066 -0.0354 -0.2871  0.1113
  182SOL    HW1  687   0.996   0.578   1.010 -0.0157 -2.2923  1.0554
  182SOL    HW2  688   0.864   0.531   1.067 -1.6976  0.9873  0.0761
  183SOL     OW  689   3.428   3.034   0.535 -0.0590  0.1071  0.1662
  183SOL    HW1  690   3.504   2.975   0.529 -0.4242 -0.2384 -2.7410
  183SOL    HW2  691   3.356   2.983   0.498 -1.6485  0.6349  2.3455
  184SOL     OW  692   1.486   1.679   0.229 -0.2624 -0.7871 -0.1246
  184SOL    HW1  693   1.429   1.604   0.245  0.9135 -1.1207  3.1760
  184SOL    HW2  694   1.557   1.644   0.175 -0.9787 -1.3973 -0.6969
  185SOL     OW  695   3.166   3.193   2.265 -0.0029 -0.3345  0.0643
  185SOL    HW1  696   3.187   3.103   2.240 -2.3538 -0.7932 -0.4209
  185SOL    HW2  697   3.230   3.247   2.217 -1.0908 -1.5018 -2.9056
  186SOL     OW  698   3.348   1.797   3.425 -0.2097  0.3617  0.8135
  186SOL    HW1  699   3.422   1.835   3.471  0.4393  2.3548 -1.6781
  186SOL    HW2  700   3.382   1.772   3.339 -2.2624  1.0188 -0.2839
  187SOL     OW  701   1.596   0.034   2.087  0.1159  0.0700 -0.2875
  187SOL    HW1  702   1.651   0.017   2.163  0.2108 -1.5324 -0.6664
  187SOL    HW2  703   1.509   0.002   2.112  0.2342 -0.8415 -0.9492
  188SOL     OW  704   0.258   0.130   3.070 -0.0589 -0.1087 -0.1247
  188SOL    HW1  705   0.244   0.115   2.977 -4.3237 -0.3811  0.3651
  188SOL    HW2  706   0.273   0.224   3.078 -1.1783  0.1576 -0.9987
  189SOL     OW  707   1.722   0.765   2.012 -0.6894 -0.4030  0.0353
  189SOL    HW1  708   1.738   0.745   1.919  1.4003 -0.3202  0.3289
  189SOL    HW2  709   1.666   0.843   2.011  3.2219  2.7274 -1.3118
  190SOL     OW  710   3.587   0.385   0.654  0.0082 -0.6408  0.2186
  190SOL    HW1  711   3.674   0.402   0.690 -0.3705 -1.0820  1.4030
  190SOL    HW2  712   3.599   0.384   0.559  0.7296  2.3656  0.1823
  191SOL     OW  713   2.716   0.963   1.021  0.1306 -0.2393  0.0035
  191SOL    HW1  714   2.801   1.005   1.029  0.1130 -0.2677  0.3431
  191SOL    HW2  715   2.733   0.884   0.970  0.3882 -0.4921  0.4848
  192SOL     OW  716   0.991   0.898   1.434  0.5665 -0.2558 -0.4570
  192SOL    HW1  717   1.032   0.874   1.351 -1.5419  0.4325 -1.7679
  192SOL    HW2  718   0.951   0.817   1.466  1.5305 -0.5625  0.0222
  193SOL     OW  719   2.113   3.328   1.146  0.8101  0.1847  0.0207
  193SOL    HW1  720   2.078   3.249   1.104 -0.5445  1.1844 -0.8369
  193SOL    HW2  721   2.046   3.354   1.208  1.7931  0.0124  1.1838
  194SOL     OW  722   1.538   1.024   2.883 -0.1005 -0.5577  0.1611
  194SOL    HW1  723   1.558   0.951   2.824 -1.1378 -0.7952  0.0847
  194SOL    HW2  724   1.575   0.997   2.968  0.1100 -0.8707 -0.0273
  195SOL     OW  725   1.694   1.612   0.049  0.2079  0.0312  0.4023
  195SOL    HW1  726   1.776   1.662   0.051  0.4037 -0.2808  2.4531
  195SOL    HW2  727   1.722   1.521   0.053 -0.2057 -0.2104 -1.4454
  196SOL     OW  728   2.842   0.500   1.455  0.0667 -0.1344 -0.1332
  196SOL    HW1  729   2.813   0.415   1.422  0.8455 -0.4108 -0.1173
  196SOL    HW2  730   2.777   0.562   1.420  1.0388 -0.3674 -2.5233
  197SOL     OW  731   1.186   2.591   1.130  0.3224  0.3440 -0.4534
  197SOL    HW1  732   1.257   2.594   1.067  0.4619  3.4288 -0.2717
  197SOL    HW2  733   1.229   2.582   1.215  0.4459  1.0914 -0.4324
  198SOL     OW  734   2.068   0.749   2.722  0.5385  0.5987  0.4456
  198SOL    HW1  735   2.059   0.818   2.787 -0.4706 -0.0619  1.0369
  198SOL    HW2  736   2.103   0.674   2.771  1.4576  0.6150 -0.1481
  199SOL     OW  737   0.876   1.058   2.590  0.1506  0.3095  0.3413
  199SOL    HW1  738   0.951   1.046   2.648  2.9800  2.7143 -2.4009
  199SOL    HW2  739   0.859   1.152   2.592 -3.1377 -0.1870  1.0873
  200SOL     OW  740   2.051   1.661   0.678 -0.5649  1.0026  0.0532
  200SOL    HW1  741   2.095   1.620   0.753 -0.1356 -1.4484 -1.4119
  200SOL    HW2  742   1.962   1.627   0.681 -0.8115  1.6351 -0.0293
  201SOL     OW  743   0.218   1.416   3.075 -0.6338 -0.6349 -0.1350
  201SOL    HW1  744   0.277   1.491   3.065 -1.5812  0.1114 -0.2895
  201SOL    HW2  745   0.240   1.359   3.001  0.1265 -0.5396  0.0081
  202SOL     OW  746   0.842   3.696   1.495  0.0253 -0.2143 -0.0541
  202SOL    HW1  747   0.814   3.656   1.413  0.0893 -1.3284  0.4594
  202SOL    HW2  748   0.844   3.625   1.558  2.7105  0.0181  0.2648
  203SOL     OW  749   1.930   1.300   1.281  0.4920 -0.1245 -0.0817
  203SOL    HW1  750   1.869   1.265   1.216  0.2123 -0.7056  0.4839
  203SOL    HW2  751   2.005   1.330   1.230 -1.0473  2.4692 -1.0438
  204SOL     OW  752   3.147   3.339   0.228 -0.2235 -0.3685 -0.1556
  204SOL    HW1  753   3.111   3.391   0.301  0.7956  0.3687 -0.1678
  204SOL    HW2  754   3.138   3.395   0.152  1.9029  0.2829  0.0191
  205SOL     OW  755   2.563   0.564   3.263  0.0687 -0.7499 -0.3789
  205SOL    HW1  756   2.553   0.569   3.168 -0.6934  2.6473 -0.2518
  205SOL    HW2  757   2.657   0.555   3.277  0.3067 -0.2283 -1.4877
  206SOL     OW  758   0.824   0.437   2.101 -0.3367 -0.0707 -0.6368
  206SOL    HW1  759   0.890   0.496   2.063  0.5951  0.0485  1.0532
  206SOL    HW2  760   0.862   0.350   2.092  0.5009  0.0627  1.0337
  207SOL     OW  761   2.617   1.400   1.013 -0.3222 -0.4237  0.2040
  207SOL    HW1  762   2.697   1.379   0.965  0.6678  1.9161  0.6636
  207SOL    HW2  763   2.647   1.418   1.102 -1.2174  1.2473  0.2060
  208SOL     OW  764   1.356   2.127   2.149  0.2067  0.6605  0.0877
  208SOL    HW1  765   1.428   2.065   2.164  0.5096  1.0366  0.2088
  208SOL    HW2  766   1.282   2.072   2.124 -0.1554  0.0369  2.3096
  209SOL     OW  767   3.243   0.890   3.631  0.0427  0.0915 -0.7101
  209SOL    HW1  768   3.331   0.893   3.669  0.1651  4.0521 -0.8240
  209SOL    HW2  769   3.186   0.866   3.704  1.0297 -0.3416 -0.0631
  210SOL     OW  770   0.126   1.714   3.663  0.3443 -0.7647 -0.0017
  210SOL    HW1  771   0.068   1.665   3.720  0.2881  1.3281  1.8482
  210SOL    HW2  772   0.210   1.714   3.708  1.2145 -1.7654 -1.5171
  211SOL     OW  773   2.528   1.501   3.285  0.0344  0.2984 -0.0873
  211SOL    HW1  774   2.466   1.433   3.259  0.8115 -1.7932  2.9310
  211SOL    HW2  775   2.599   1.453   3.327  0.7782  2.9488  1.9359
  212SOL     OW  776   3.656   3.597   1.829  0.0485 -0.3535 -0.0664
  212SOL    HW1  777   3.726   3.588   1.893  0.1095  0.0154 -0.0734
  212SOL    HW2  778   3.576   3.574   1.876  0.1284 -0.3728  0.0597
  213SOL     OW  779   2.954   2.192   0.357  0.4829 -0.0010  0.0695
  213SOL    HW1  780   2.901   2.150   0.288  1.3447 -0.7253 -0.1752
  213SOL    HW2  781   2.892   2.208   0.428  0.3450 -3.1448  0.8059
  214SOL     OW  782   0.173   3.651   1.994  0.2053  0.3636 -0.2321
  214SOL    HW1  783   0.134   3.728   1.951 -0.1686  0.4451  0.2465
  214SOL    HW2  784   0.260   3.644   1.955  0.3097  1.1324 -0.1562
  215SOL     OW  785   0.633   2.883   0.009 -0.1017 -1.5287  0.1035
  215SOL    HW1  786   0.558   2.921   0.055  0.3429  0.8214 -0.9822
  215SOL    HW2  787   0.597   2.808  -0.038 -1.3867 -1.5230  1.0464
  216SOL     OW  788   2.769   0.647   3.547 -0.7648  0.0663  0.1835
  216SOL    HW1  789   2.720   0.579   3.500 -0.0510  0.4838 -1.2132
  216SOL    HW2  790   2.702   0.695   3.596 -1.5187 -0.4425 -0.3188
  217SOL     OW  791   1.547   1.676   1.262  0.2853 -0.4554 -0.3250
  217SOL    HW1  792   1.502   1.596   1.287 -1.5669  0.6723  0.1431
  217SOL    HW2  793   1.583   1.710   1.344 -0.5832  0.1465 -0.1795
  218SOL     OW  794   1.109   2.845   1.079  0.1893  0.3317  0.8809
  218SOL    HW1  795   1.026   2.826   1.122 -0.6283 -1.9086 -1.4205
  218SOL    HW2  796   1.158   2.763   1.086  0.9257  0.6350 -0.4429
  219SOL     OW  797   2.731   3.601   1.223 -0.6770  0.3099 -1.2154
  219SOL    HW1  798   2.756   3.663   1.292 -1.9176 -0.0171 -0.4272
  219SOL    HW2  799   2.795   3.614   1.154  1.0034  0.2066  0.2615
  220SOL     OW  800   2.347   0.317   2.814 -0.2352 -0.6637 -0.4436
  220SOL    HW1  801   2.376   0.297   2.725  0.1328 -1.2559 -0.2006
  220SOL    HW2  802   2.382   0.245   2.867 -0.8300 -0.5548  0.1069
  221SOL     OW  803   2.628   1.723   2.458  0.2270 -0.5432 -0.3535
  221SOL    HW1  804   2.657   1.651   2.402  0.0305 -0.9601  0.0784
  221SOL    HW2  805   2.537   1.702   2.480 -0.3818  0.6488 -1.5377
  222SOL     OW  806   2.267   0.137   1.809  0.3154  0.2395 -0.6557
  222SOL    HW1  807   2.206   0.064   1.824  0.9655 -0.0746  0.6304
  222SOL    HW2  808   2.217   0.215   1.833 -0.2074  0.1755 -1.5043
  223SOL     OW  809   0.518   3.064   2.402  0.4915  0.3496 -0.0184
  223SOL    HW1  810   0.605   3.089   2.373  0.1765  0.6990 -0.6886
  223SOL    HW2  811   0.469   3.146   2.405  0.3475  0.2363  0.9317
  224SOL     OW  812   0.807   2.931   1.804 -0.0969 -0.3561  0.6112
  224SOL    HW1  813   0.790   2.865   1.871  0.2923 -0.8167  0.2625
  224SOL    HW2  814   0.723   2.976   1.793  0.0147  0.2266  1.9291
  225SOL     OW  815   0.032   1.428   1.119 -0.3062 -0.4117  0.1010
  225SOL    HW1  816   0.048   1.519   1.093 -1.2662 -0.4218 -0.5551
  225SOL    HW2  817  -0.003   1.386   1.041 -3.6115 -0.3715  1.4064
  226SOL     OW  818   2.788   0.285   3.167 -0.6089  0.1056  0.6215
  226SOL    HW1  819   2.809   0.273   3.075  0.1715  1.3154  0.6288
  226SOL    HW2  820   2.803   0.378   3.184 -1.1919 -0.0061  1.8548
  227SOL     OW  821   1.630   3.189   0.136 -0.5747  0.4918 -0.2182
  227SOL    HW1  822   1.635   3.099   0.168  0.0478  0.5669 -0.0908
  227SOL    HW2  823   1.720   3.210   0.110 -0.2931  1.7334  1.5718
  228SOL     OW  824   1.769   3.242   0.828 -0.2709 -0.2129  0.4885
  228SOL    HW1  825   1.709   3.285   0.889 -1.7898 -1.0261 -0.3981
  228SOL    HW2  826   1.799   3.164   0.874 -1.6725 -1.0003  0.0964
  229SOL     OW  827   0.391   3.570   0.903 -0.2194  0.3264  0.5077
  229SOL    HW1  828   0.298   3.587   0.889  0.0960  2.1089  0.3418
  229SOL    HW2  829   0.425   3.548   0.816 -0.5947 -1.0520  0.6878
  230SOL     OW  830   0.643   2.462   1.587  0.2981  0.1687  0.4322
  230SOL    HW1  831   0.712   2.526   1.605 -2.4634  3.4829  0.1306
  230SOL    HW2  832   0.684   2.377   1.608  4.6085  1.7749 -0.3830
  231SOL     OW  833   2.443   0.278   2.265 -0.0952  0.3637 -0.0123
  231SOL    HW1  834   2.464   0.279   2.358 -0.1247  1.8180 -0.0012
  231SOL    HW2  835   2.392   0.198   2.253 -0.5815  0.4456  1.3404
  232SOL     OW  836   2.426   1.626   2.619  0.2427 -0.5146 -0.0232
  232SOL    HW1  837   2.416   1.546   2.670  0.3662 -1.2579 -1.1420
  232SOL    HW2  838   2.439   1.695   2.685  0.3924 -1.4418  0.9362
  233SOL     OW  839   2.039   2.958   3.096 -0.2432  0.8055 -0.2796
  233SOL    HW1  840   2.081   3.042   3.111 -1.1621  1.8214 -2.7412
  233SOL    HW2  841   1.945   2.977   3.097 -0.4623 -0.1271 -1.0813
  234SOL     OW  842   3.319   1.066   0.896  0.3457 -0.1935 -0.3265
  234SOL    HW1  843   3.295   1.128   0.965 -3.0421 -0.6205 -0.9482
  234SOL    HW2  844   3.383   1.008   0.938  1.6193  2.0292  1.0656
  235SOL     OW  845   0.886   2.736   1.254  0.2288 -0.6474 -0.6272
  235SOL    HW1  846   0.829   2.661   1.236 -2.0008  1.0226 -1.0492
  235SOL    HW2  847   0.826   2.810   1.258  2.3681  1.1691 -0.4608
  236SOL     OW  848   0.614   1.356   3.127 -0.1523 -0.2014 -0.2708
  236SOL    HW1  849   0.581   1.287   3.069  1.4552 -0.7523 -0.5762
  236SOL    HW2  850   0.691   1.391   3.083 -0.2148  0.9596  0.4742
  237SOL     OW  851   0.546   2.218   2.957  0.3008  0.3390  0.0035
  237SOL    HW1  852   0.454   2.212   2.933  0.6164 -3.6526 -0.9780
  237SOL    HW2  853   0.548   2.194   3.050  0.3812 -0.5845 -0.2253
  238SOL     OW  854   0.622   2.000   2.769 -0.3093  0.1069 -0.3636
  238SOL    HW1  855   0.683   1.947   2.820 -0.1857 -0.8215 -1.4436
  238SOL    HW2  856   0.586   2.062   2.832  0.3886 -0.5214  0.6833
  239SOL     OW  857   1.239   3.158   1.202  0.5875 -0.2853  0.1586
  239SOL    HW1  858   1.152   3.132   1.231  0.8322 -1.5250 -0.1630
  239SOL    HW2  859   1.237   3.148   1.107  1.0364 -0.1650  0.1301
  240SOL     OW  860   1.674   1.269   3.383 -0.6319 -0.3928 -0.2891
  240SOL    HW1  861   1.743   1.331   3.409  0.1945 -1.7466  0.8861
  240SOL    HW2  862   1.607   1.279   3.451  0.7814 -2.7358  1.6114
  241SOL     OW  863   3.490   2.180   0.730  0.3676 -0.2604  0.3514
  241SOL    HW1  864   3.501   2.269   0.697  0.9489 -0.2157  0.6442
  241SOL    HW2  865   3.524   2.183   0.819 -1.3477 -0.3313  1.0511
  242SOL     OW  866   1.003   0.145   2.838  0.2460 -0.2139 -0.2973
  242SOL    HW1  867   0.942   0.215   2.862  0.5093 -0.2125  0.3983
  242SOL    HW2  868   1.085   0.190   2.820 -0.0667 -0.1714 -1.6944
  243SOL     OW  869   0.696   0.819   1.593 -0.4588 -0.0955  0.0190
  243SOL    HW1  870   0.718   0.736   1.636 -0.6517  0.1775  0.6677
  243SOL    HW2  871   0.706   0.801   1.500  1.9263 -0.1489  0.2199
  244SOL     OW  872   1.131   0.656   2.372  0.7765  0.1169 -0.7980
  244SOL    HW1  873   1.100   0.747   2.373 -0.0387 -0.1514 -0.4370
  244SOL    HW2  874   1.206   0.657   2.313  0.0081  0.7882 -1.8035
  245SOL     OW  875   3.455   3.312   1.362 -0.1799 -0.1688 -0.3724
  245SOL    HW1  876   3.442   3.300   1.268  0.8559 -1.4139 -0.3805
  245SOL    HW2  877   3.465   3.224   1.396 -0.9775  0.2407  0.9984
  246SOL     OW  878   2.058   2.418   3.098  0.3685  0.4377  0.4947
  246SOL    HW1  879   1.977   2.434   3.050 -0.4079 -0.3221  1.5008
  246SOL    HW2  880   2.126   2.460   3.046 -0.2519 -1.2434 -1.8047
  247SOL     OW  881   0.864   0.376   2.835  0.6006 -0.0505  0.0271
  247SOL    HW1  882   0.945   0.415   2.868  2.9712 -1.3298 -3.6985
  247SOL    HW2  883   0.800   0.446   2.840  2.2205  1.4201  1.9087
  248SOL     OW  884   1.780   1.102   2.582  0.7967  0.3492 -0.1435
  248SOL    HW1  885   1.741   1.015   2.574  0.2029  0.5119  0.8436
  248SOL    HW2  886   1.735   1.142   2.656  0.8976  1.5893 -0.7265
  249SOL     OW  887   2.866   2.134   0.021  0.0372  0.3423 -0.3550
  249SOL    HW1  888   2.843   2.227   0.018 -0.6289  0.1768 -0.4908
  249SOL    HW2  889   2.813   2.098   0.091  1.7093  0.4266  1.0222
  250SOL     OW  890   0.590   3.351   3.427 -0.4207  0.4160 -0.1982
  250SOL    HW1  891   0.499   3.331   3.447 -0.7097  0.5212 -1.3084
  250SOL    HW2  892   0.639   3.274   3.457 -1.1686 -0.7182 -1.7465
  251SOL     OW  893   2.966   3.299   2.094 -0.0231 -0.1569 -0.3575
  251SOL    HW1  894   2.912   3.265   2.165  1.7076 -2.2024  0.0830
  251SOL    HW2  895   3.055   3.300   2.130  1.2220 -2.9463 -2.9546
  252SOL     OW  896   0.720   2.589   0.952 -0.1708 -0.0362  0.2054
  252SOL    HW1  897   0.789   2.561   1.012  0.8377  0.4513 -0.6803
  252SOL    HW2  898   0.746   2.678   0.926 -0.1405 -0.5061 -1.5183
  253SOL     OW  899   1.593   2.276   3.482  0.3034  0.2575  0.1255
  253SOL    HW1  900   1.497   2.271   3.477  0.2426  0.6024  0.8782
  253SOL    HW2  901   1.615   2.352   3.428  0.0769  0.7123  0.6608
  254SOL     OW  902   1.399   3.625   2.212 -0.0762  0.4415  0.3604
  254SOL    HW1  903   1.324   3.660   2.260 -0.3564 -0.2135  0.4038
  254SOL    HW2  904   1.424   3.546   2.261 -1.7083 -1.4900 -1.7542
  255SOL     OW  905   1.869   2.058   3.695  0.8044  0.3564  0.4500
  255SOL    HW1  906   1.938   2.009   3.650  1.2174  0.0072  1.4451
  255SOL    HW2  907   1.914   2.131   3.737  0.4606  0.5246  0.5271
  256SOL     OW  908   2.546   0.884   3.686 -0.2575 -0.1548 -0.3890
  256SOL    HW1  909   2.506   0.902   3.771  0.5926  0.9679 -0.2094
  256SOL    HW2  910   2.475   0.898   3.623 -0.6273 -0.0149  0.0488
  257SOL     OW  911   3.658   3.487   0.689  0.3976 -0.0048  0.7294
  257SOL    HW1  912   3.604   3.499   0.612  0.1632 -0.8446  0.7524
  257SOL    HW2  913   3.596   3.477   0.761  0.5310 -1.5340  0.6754
  258SOL     OW  914   2.365   2.551   1.116  0.2117 -0.2017 -0.2184
  258SOL    HW1  915   2.300   2.520   1.180 -1.1741  0.6158 -1.1830
  258SOL    HW2  916   2.386   2.640   1.144 -1.7128  0.8299 -1.7856
  259SOL     OW  917   3.144   0.654   1.434 -0.4116 -0.2608 -0.0077
  259SOL    HW1  918   3.211   0.708   1.476 -0.7051  0.5560 -0.5634
  259SOL    HW2  919   3.098   0.612   1.506 -0.1443  0.2001  0.4353
  260SOL     OW  920   0.736   0.010   3.064  0.2374  0.6621  0.3167
  260SOL    HW1  921   0.760  -0.034   2.983  0.4701  1.1789  0.1007
  260SOL    HW2  922   0.682   0.084   3.037 -0.0618  0.5771  0.6692
  261SOL     OW  923   3.699   0.335   3.566 -0.2737  0.0714  0.2208
  261SOL    HW1  924   3.764   0.269   3.589 -1.0244 -0.9811 -0.5840
  261SOL    HW2  925   3.679   0.379   3.648 -0.8367 -1.7004  1.0723
  262SOL     OW  926   2.270   1.217   2.394 -0.0341 -0.5522 -0.0784
  262SOL    HW1  927   2.262   1.293   2.336  1.0464 -0.2983  0.0718
  262SOL    HW2  928   2.360   1.186   2.380  0.3747 -0.2682  1.7028
  263SOL     OW  929   0.233   3.680   1.325 -0.5011  0.5412  0.0901
  263SOL    HW1  930   0.197   3.624   1.257  1.1179  0.3202 -0.6333
  263SOL    HW2  931   0.315   3.714   1.288  0.4304  0.4174  1.8888
  264SOL     OW  932   0.794   2.688   0.120  0.8351  0.4700  0.4326
  264SOL    HW1  933   0.855   2.650   0.056  0.9852 -0.8116  1.2921
  264SOL    HW2  934   0.742   2.750   0.069 -0.7521 -2.2816 -1.5600
  265SOL     OW  935   1.749   0.743   1.753 -0.1965 -0.3294 -0.1683
  265SOL    HW1  936   1.843   0.761   1.747 -0.2852  0.7552  1.1550
  265SOL    HW2  937   1.719   0.742   1.662  0.9666  0.0133 -0.5738
  266SOL     OW  938   0.469   2.001   1.792 -0.1918 -0.0495 -0.1934
  266SOL    HW1  939   0.411   2.012   1.867 -0.8455 -2.9472 -0.1608
  266SOL    HW2  940   0.414   1.960   1.725  1.3956 -1.5726 -0.6639
  267SOL     OW  941   1.576   2.417   1.198 -0.5181 -0.5023  0.3726
  267SOL    HW1  942   1.663   2.438   1.165 -0.0694 -1.6650  0.7339
  267SOL    HW2  943   1.516   2.446   1.129  0.2075 -0.3878 -0.2241
  268SOL     OW  944   1.074   1.080   2.766  0.4052  0.6550  0.5969
  268SOL    HW1  945   1.141   1.113   2.706  2.8261 -2.7280  1.1513
  268SOL    HW2  946   1.119   1.074   2.851 -0.8271 -1.0090  1.1831
  269SOL     OW  947   1.817   2.644   1.668 -0.0386  0.4221 -0.9499
  269SOL    HW1  948   1.750   2.630   1.601 -1.1377  1.1310 -0.0330
  269SOL    HW2  949   1.798   2.576   1.734  1.3409 -0.5938 -1.5503
  270SOL     OW  950   0.324   3.683   0.559  0.2945 -0.1767  0.0218
  270SOL    HW1  951   0.332   3.742   0.634 -1.3470  0.2112 -0.0709
  270SOL    HW2  952   0.391   3.617   0.574  2.0464  1.5593  0.2321
  271SOL     OW  953   0.991   2.289   3.271 -0.0576 -0.3139  0.3051
  271SOL    HW1  954   0.906   2.282   3.314 -0.7889  0.5259 -0.9505
  271SOL    HW2  955   0.990   2.375   3.231  0.4717 -1.1658 -1.6207
  272SOL     OW  956   2.889   0.890   3.597 -0.2085 -0.3176 -0.2758
  272SOL    HW1  957   2.841   0.957   3.549  2.2032  1.0373 -0.9314
  272SOL    HW2  958   2.868   0.808   3.552 -2.5196  0.0428  0.0177
  273SOL     OW  959   2.361   2.319   3.301 -0.0084  0.0766  0.5406
  273SOL    HW1  960   2.284   2.266   3.324 -0.0364 -0.6678 -1.0939
  273SOL    HW2  961   2.372   2.304   3.207 -0.2090  3.2422 -0.1012
  274SOL     OW  962   2.938   1.498   2.068 -0.7000  0.0916 -0.1058
  274SOL    HW1  963   2.988   1.467   2.143 -1.6325 -1.1898  0.0122
  274SOL    HW2  964   2.989   1.572   2.034  0.5329 -0.2987  0.8324
  275SOL     OW  965   2.728   1.901   2.678 -0.7428 -0.4436  0.0800
  275SOL    HW1  966   2.790   1.959   2.635 -1.0539 -0.8321 -0.9216
  275SOL    HW2  967   2.742   1.815   2.637  0.9536 -1.5694  2.7458
  276SOL     OW  968   0.041   0.934   1.922 -0.5874 -0.5089  0.2203
  276SOL    HW1  969  -0.005   0.863   1.967 -0.6487 -0.8791 -0.4179
  276SOL    HW2  970  -0.005   0.943   1.838  0.9989 -1.4474 -0.7920
  277SOL     OW  971   1.883   1.518   2.560 -0.1817  0.7634  0.2500
  277SOL    HW1  972   1.909   1.543   2.649  1.0398  2.0415 -0.4286
  277SOL    HW2  973   1.918   1.430   2.548  0.8320  1.1192  0.5731
  278SOL     OW  974   0.000   1.270   0.154  0.0089  0.1938 -0.1978
  278SOL    HW1  975  -0.019   1.219   0.233  0.1673  0.0012 -0.2834
  278SOL    HW2  976   0.094   1.255   0.138 -0.0625  0.0901 -0.5229
  279SOL     OW  977   0.223   0.400   2.530 -0.2056  0.1441 -0.4419
  279SOL    HW1  978   0.241   0.311   2.500 -0.6458 -0.8605  2.0055
  279SOL    HW2  979   0.304   0.448   2.515  0.2550 -0.8534 -1.2117
  280SOL     OW  980   3.596   3.598   2.354  0.2098 -0.4961 -0.0379
  280SOL    HW1  981   3.575   3.685   2.318  0.3534 -0.4201  0.0618
  280SOL    HW2  982   3.515   3.570   2.396  0.7270  0.4497  1.6753
  281SOL     OW  983   0.348   2.829   0.100  0.3631 -0.3804 -0.2127
  281SOL    HW1  984   0.325   2.743   0.136 -0.5563 -1.0125 -2.1537
  281SOL    HW2  985   0.353   2.886   0.176 -1.9752 -1.5261  0.9089
  282SOL     OW  986   0.952   2.969   2.085  0.3041  0.3854 -0.8460
  282SOL    HW1  987   0.910   3.017   2.156  1.3361  1.0756 -0.6699
  282SOL    HW2  988   0.885   2.909   2.053 -0.0301 -0.3327  1.0656
  283SOL     OW  989   2.424   2.402   2.727 -0.0142 -0.6982 -0.3383
  283SOL    HW1  990   2.493   2.361   2.674 -0.0985 -1.9293  0.4654
  283SOL    HW2  991   2.469   2.430   2.807 -0.0664  0.3578 -0.6562
  284SOL     OW  992   3.202   2.984   0.806  0.0400 -0.2446  0.5286
  284SOL    HW1  993   3.276   3.043   0.795 -0.6660  0.5816  0.1525
  284SOL    HW2  994   3.183   2.986   0.900  0.5153 -0.5110  0.6385
  285SOL     OW  995   0.797   1.682   2.237  0.1840 -0.6585  0.5642
  285SOL    HW1  996   0.866   1.644   2.183 -0.6292 -2.4018  0.6760
  285SOL    HW2  997   0.840   1.751   2.287  1.2616  0.0236 -1.2057
  286SOL     OW  998   0.915   1.671   3.207  0.3820 -0.0650 -0.6966
  286SOL    HW1  999   0.878   1.745   3.256 -1.6679 -0.1561 -1.9971
  286SOL    HW2 1000   0.864   1.668   3.126  3.1867 -0.3468 -2.5925
  287SOL     OW 1001   1.901   1.887   2.443  0.2429  0.1153 -0.2747
  287SOL    HW1 1002   1.873   1.799   2.416 -1.5550 -0.5218  3.1648
  287SOL    HW2 1003   1.970   1.872   2.507  1.4627  1.3812 -1.2177
  288SOL     OW 1004   1.486   0.322   2.519  0.0672  0.1484  0.1899
  288SOL    HW1 1005   1.454   0.405   2.555 -0.7327 -0.6942  1.5009
  288SOL    HW2 1006   1.407   0.278   2.488  0.2568 -0.8670  1.1200
  289SOL     OW 1007   2.189   0.012   2.769  0.2993  0.7007 -0.6534
  289SOL    HW1 1008   2.143   0.073   2.710  0.2135  0.4650 -0.8318
  289SOL    HW2 1009   2.129  -0.062   2.777  0.8860  0.1428 -1.3299
  290SOL     OW 1010   3.289   1.868   2.068 -0.2031  0.1478 -0.4227
  290SOL    HW1 1011   3.293   1.946   2.123  0.7728  0.0504 -0.3406
  290SOL    HW2 1012   3.378   1.857   2.035 -0.1243 -1.3789  0.1936
  291SOL     OW 1013   0.933   2.546   2.739 -0.8604 -0.0150  0.4013
  291SOL    HW1 1014   1.005   2.552   2.802 -0.2214  0.3382 -0.3385
  291SOL    HW2 1015   0.969   2.496   2.666 -1.1984  0.6185 -0.2086
  292SOL     OW 1016   3.095   0.806   0.150 -0.4471  0.5319 -0.2388
  292SOL    HW1 1017   3.124   0.832   0.237 -0.6397 -0.3950  0.1081
  292SOL    HW2 1018   3.123   0.716   0.140 -0.9027  0.4517 -0.9275
  293SOL     OW 1019   2.581   2.636   3.244 -0.4746 -0.0585  0.2053
  293SOL    HW1 1020   2.488   2.659   3.240 -0.7102 -0.8747  0.6446
  293SOL    HW2 1021   2.623   2.711   3.285 -0.6969  0.9502 -1.3202
  294SOL     OW 1022   2.146   0.900   0.257  0.1757  0.5012 -0.4601
  294SOL    HW1 1023   2.111   0.989   0.251 -0.9304  0.0434 -0.9398
  294SOL    HW2 1024   2.098   0.850   0.191 -0.7544 -0.9321  1.2008
  295SOL     OW 1025   3.161   0.197   0.997  0.2280  0.2982 -0.2466
  295SOL    HW1 1026   3.112   0.199   0.915 -0.3260  1.0423  0.0827
  295SOL    HW2 1027   3.186   0.288   1.012 -0.4067  0.3119  0.8277
  296SOL     OW 1028   2.161   2.509   0.046  0.7842  0.8589 -0.0319
  296SOL    HW1 1029   2.077   2.469   0.021  1.0945 -0.1118  0.4630
  296SOL    HW2 1030   2.206   2.522  -0.037  1.5183 -1.7153 -0.1252
  297SOL     OW 1031   1.867   0.479   1.590 -0.1933  0.0803 -0.2957
  297SOL    HW1 1032   1.912   0.396   1.573  1.3205  0.5693  0.9761
  297SOL    HW2 1033   1.880   0.530   1.510 -0.3429 -0.5820 -0.7474
  298SOL     OW 1034   1.468   0.709   3.622  0.0371  0.0486 -0.6546
  298SOL    HW1 1035   1.496   0.753   3.702 -0.2082 -1.5643  0.3756
  298SOL    HW2 1036   1.423   0.777   3.571  2.0515  1.6301 -0.4400
  299SOL     OW 1037   0.784   1.473   0.861 -0.5872  0.2399  0.5464
  299SOL    HW1 1038   0.870   1.432   0.869 -0.4498  0.6266  1.1125
  299SOL    HW2 1039   0.798   1.547   0.803 -0.7787 -0.3457 -0.2592
  300SOL     OW 1040   1.332   2.611   1.412  0.1693  0.0402  0.7239
  300SOL    HW1 1041   1.270   2.684   1.410 -0.3430 -0.3973 -0.0623
  300SOL    HW2 1042   1.406   2.641   1.358  0.2772  0.2367  0.9759
  301SOL     OW 1043   0.643   0.965   1.052  0.2002 -0.5356  0.0482
  301SOL    HW1 1044   0.575   0.989   0.989  0.8231 -0.0278 -0.4437
  301SOL    HW2 1045   0.705   1.038   1.050  1.4955 -1.6031 -0.5511
  302SOL     OW 1046   3.120   1.709   2.879 -0.5030  0.2434 -0.3927
  302SOL    HW1 1047   3.193   1.697   2.817  0.6077  0.3522  0.8487
  302SOL    HW2 1048   3.161   1.704   2.965 -2.3821 -3.1548  0.5230
  303SOL     OW 1049   1.345   2.124   0.414  0.0778  0.3011  0.4045
  303SOL    HW1 1050   1.401   2.201   0.424  3.2628 -2.0165  2.3834
  303SOL    HW2 1051   1.405   2.053   0.392 -2.2334 -2.1777  1.5047
  304SOL     OW 1052   0.578   0.201   2.955  0.6503  0.1940 -0.1136
  304SOL    HW1 1053   0.518   0.136   2.918 -1.3107  1.6298  0.3771
  304SOL    HW2 1054   0.523   0.278   2.971  2.1642  0.8620  2.4137
  305SOL     OW 1055   2.201   0.725   2.473  0.0180  0.1215  0.4543
  305SOL    HW1 1056   2.160   0.781   2.407  2.1082  0.3260 -0.7608
  305SOL    HW2 1057   2.143   0.730   2.549 -1.2942  1.6820 -0.5971
  306SOL     OW 1058   0.595   0.237   1.769  0.2389 -0.0197 -0.6270
  306SOL    HW1 1059   0.587   0.244   1.864 -0.9729 -0.1232 -0.7071
  306SOL    HW2 1060   0.669   0.294   1.747  0.5670 -0.0411  0.3772
  307SOL     OW 1061   3.205   1.396   3.739  0.8592  0.8446 -0.3714
  307SOL    HW1 1062   3.195   1.491   3.732 -0.7487  0.6332 -1.5573
  307SOL    HW2 1063   3.226   1.367   3.650  3.0960  0.2185  0.2948
  308SOL     OW 1064   2.149   3.306   0.224 -0.4525  0.0558  0.0210
  308SOL    HW1 1065   2.092   3.229   0.227  2.1859 -2.0898  3.7740
  308SOL    HW2 1066   2.233   3.273   0.194  0.2762  1.9144 -0.1349
  309SOL     OW 1067   1.719   0.350   0.323  0.2527  0.5495  0.6774
  309SOL    HW1 1068   1.720   0.408   0.399 -0.6052  2.0096 -0.3895
  309SOL    HW2 1069   1.719   0.408   0.248 -1.0137 -0.8144 -0.4359
  310SOL     OW 1070   2.603   1.307   3.629  0.5911  0.7523 -0.0645
  310SOL    HW1 1071   2.585   1.399   3.648 -2.1989  0.1351  0.7719
  310SOL    HW2 1072   2.675   1.284   3.689  0.0907  1.9315  1.0421
  311SOL     OW 1073   0.931   1.400   1.797 -0.6355  0.6937 -0.1583
  311SOL    HW1 1074   0.874   1.453   1.743  0.8166  1.0733 -1.3929
  311SOL    HW2 1075   0.996   1.365   1.736 -0.8798 -1.6055  0.8035
  312SOL     OW 1076   2.705   0.055   2.838  0.1190 -0.4178  0.1303
  312SOL    HW1 1077   2.695  -0.040   2.843  1.0394 -0.6414 -1.6536
  312SOL    HW2 1078   2.709   0.074   2.744  0.1390  1.3661  0.4606
  313SOL     OW 1079   0.277   3.287   2.174 -0.1964 -0.1435  0.2291
  313SOL    HW1 1080   0.225   3.367   2.182  0.6231  0.4523 -0.2287
  313SOL    HW2 1081   0.341   3.307   2.106  0.3469 -1.0168  0.4657
  314SOL     OW 1082   2.661   0.517   1.842 -0.3421  0.0275 -0.8265
  314SOL    HW1 1083   2.747   0.529   1.883 -0.5698  0.8020 -0.5577
  314SOL    HW2 1084   2.652   0.422   1.833  0.0659 -0.1210  0.1787
  315SOL     OW 1085   1.488   1.264   0.869  0.0446 -0.3760  0.3721
  315SOL    HW1 1086   1.394   1.258   0.854 -0.0677 -0.3259  1.0328
  315SOL    HW2 1087   1.527   1.214   0.798 -0.4492  0.2029 -0.3204
  316SOL     OW 1088   2.452   3.687   2.627 -0.2036 -0.3118  0.1880
  316SOL    HW1 1089   2.395   3.717   2.556  0.0499 -0.2071  0.0271
  316SOL    HW2 1090   2.404   3.708   2.707  0.2257  1.0733  0.1068
  317SOL     OW 1091   1.018   1.845   1.288  0.2036  0.4525 -0.1865
  317SOL    HW1 1092   0.989   1.809   1.204 -2.1810 -0.4651  0.9041
  317SOL    HW2 1093   0.977   1.788   1.353  0.3579  2.2624  1.6094
  318SOL     OW 1094   3.378   1.386   1.181  0.4076 -0.4267  0.9493
  318SOL    HW1 1095   3.411   1.468   1.145 -0.1806  1.0704  3.5110
  318SOL    HW2 1096   3.432   1.318   1.142  2.1943  1.3657  0.1651
  319SOL     OW 1097   0.093   1.270   2.644  0.1409 -0.0676 -0.8335
  319SOL    HW1 1098   0.139   1.251   2.562 -0.6029  2.3297 -1.8837
  319SOL    HW2 1099   0.000   1.274   2.619  0.0236  2.0512 -0.2105
  320SOL     OW 1100   0.372   1.754   1.918  0.4773  0.3554  0.2005
  320SOL    HW1 1101   0.460   1.724   1.944  0.7396  0.7209 -0.2678
  320SOL    HW2 1102   0.335   1.791   1.999  0.0556 -1.4030  0.8658
  321SOL     OW 1103   2.905   2.093   1.339  0.2897  0.2467  0.6570
  321SOL    HW1 1104   2.947   2.161   1.286  0.1887 -0.2158 -0.0258
  321SOL    HW2 1105   2.931   2.113   1.429  1.0879  0.5920  0.3576
  322SOL     OW 1106   3.165   2.532   1.224  0.0174 -0.3193 -0.4819
  322SOL    HW1 1107   3.251   2.574   1.222  0.1414 -0.4132  1.2883
  322SOL    HW2 1108   3.110   2.587   1.167  1.0678  0.1204 -1.0967
  323SOL     OW 1109   0.335   0.178   0.962  0.5183 -0.1141  0.0063
  323SOL    HW1 1110   0.324   0.124   0.884 -0.4234  1.5227 -1.0692
  323SOL    HW2 1111   0.247   0.215   0.977  1.3552  2.0881 -0.1109
  324SOL     OW 1112   2.574   3.138   2.521 -0.2893  0.1406  0.1286
  324SOL    HW1 1113   2.589   3.200   2.592  0.2508 -0.4085  0.5104
  324SOL    HW2 1114   2.504   3.177   2.469  1.6937  2.3018 -1.0826
  325SOL     OW 1115   2.237   1.341   3.595 -0.0720 -0.5275  0.2620
  325SOL    HW1 1116   2.284   1.394   3.660 -1.2883  0.2337  0.5434
  325SOL    HW2 1117   2.225   1.399   3.521 -0.8759 -0.6016  0.3295
  326SOL     OW 1118   1.379   3.661   0.704  0.2886  0.8838 -0.4688
  326SOL    HW1 1119   1.287   3.643   0.685 -0.0149  0.5308  1.2079
  326SOL    HW2 1120   1.397   3.743   0.659 -0.1679 -0.1731 -2.7488
  327SOL     OW 1121   2.336   2.544   2.462 -0.6884  0.1648  0.6237
  327SOL    HW1 1122   2.397   2.485   2.507  0.3363 -0.5784 -1.5794
  327SOL    HW2 1123   2.390   2.619   2.436 -1.2179  0.5239  0.5467
  328SOL     OW 1124   2.774   2.563   2.643  0.0273  0.0552  0.3461
  328SOL    HW1 1125   2.751   2.549   2.551  0.8866  1.0086 -0.0385
  328SOL    HW2 1126   2.690   2.582   2.686 -0.4182 -0.6994 -0.1710
  329SOL     OW 1127   1.946   1.075   3.601 -0.2591 -0.6146  0.0045
  329SOL    HW1 1128   1.917   1.139   3.665  0.7619  0.6039 -0.7157
  329SOL    HW2 1129   1.962   1.126   3.521 -0.6648 -1.9580 -0.9671
  330SOL     OW 1130   3.637   2.917   0.008 -0.2658  0.4435  0.2781
  330SOL    HW1 1131   3.622   3.006   0.041  0.6701  0.8258 -0.2794
  330SOL    HW2 1132   3.732   2.909   0.004 -0.3451 -0.6274  0.4149
  331SOL     OW 1133   0.777   1.834   3.630 -0.4735 -0.2293 -0.4911
  331SOL    HW1 1134   0.858   1.828   3.679 -0.0702 -1.9313 -1.3141
  331SOL    HW2 1135   0.709   1.808   3.692 -0.1556 -0.8160 -0.3878
  332SOL     OW 1136   0.071   2.012   0.910  0.0246  0.0139  0.1616
  332SOL    HW1 1137   0.077   2.026   0.815  0.3124  4.0300  0.5665
  332SOL    HW2 1138   0.064   2.101   0.946  2.3422 -1.1619  4.0670
  333SOL     OW 1139   2.630   2.994   0.578  0.2794  0.3768  1.0886
  333SOL    HW1 1140   2.594   2.989   0.667 -0.1320  1.1669  0.9669
  333SOL    HW2 1141   2.630   3.087   0.557  0.4351  0.1987  0.2795
  334SOL     OW 1142   1.465   0.438   0.182 -0.0200 -0.1315  0.2232
  334SOL    HW1 1143   1.540   0.418   0.127  1.3715  0.2327  1.8974
  334SOL    HW2 1144   1.451   0.532   0.170  0.1974 -0.0793  0.3610
  335SOL     OW 1145   2.855   1.258   2.351  0.2968 -0.1146 -0.1065
  335SOL    HW1 1146   2.848   1.180   2.405 -0.2646  0.0402  0.0486
  335SOL    HW2 1147   2.765   1.287   2.338  0.4678  0.2311 -0.5660
  336SOL     OW 1148   1.678   0.833   2.603 -0.6630 -0.2147 -0.0425
  336SOL    HW1 1149   1.632   0.778   2.539 -3.0265  0.6636  0.7872
  336SOL    HW2 1150   1.710   0.772   2.669 -1.2340 -0.8006 -0.3013
  337SOL     OW 1151   3.597   1.913   3.517  0.3326 -0.7404 -0.0881
  337SOL    HW1 1152   3.677   1.965   3.533 -0.9746  1.1652  0.6246
  337SOL    HW2 1153   3.627   1.822   3.516  2.4965 -0.0837  0.2318
  338SOL     OW 1154   1.387   3.010   1.377 -0.6070 -0.2678  0.0144
  338SOL    HW1 1155   1.351   3.085   1.329 -1.5621  0.2196  1.4359
  338SOL    HW2 1156   1.311   2.954   1.394 -0.2903 -0.4207  0.9589
  339SOL     OW 1157   0.767   2.867   0.945 -0.8085  0.0826 -0.4451
  339SOL    HW1 1158   0.818   2.947   0.932 -1.7282  0.5427 -1.4503
  339SOL    HW2 1159   0.682   2.899   0.977 -0.9814 -0.5303 -0.2957
  340SOL     OW 1160   2.215   3.500   1.661 -0.0061  0.4814  0.2687
  340SOL    HW1 1161   2.295   3.453   1.636  0.2886  1.5227 -0.8576
  340SOL    HW2 1162   2.198   3.558   1.587 -1.2744  0.9698  0.9193
  341SOL     OW 1163   2.426   0.879   0.210  0.1284  0.4298 -0.1046
  341SOL    HW1 1164   2.341   0.914   0.183  0.1200  0.8735  0.4821
  341SOL    HW2 1165   2.406   0.820   0.282  0.1836 -0.5274 -0.8470
  342SOL     OW 1166   2.937   1.845   3.097  0.5405  0.5595  0.3131
  342SOL    HW1 1167   2.960   1.809   3.183  1.0794 -1.0942 -0.4958
  342SOL    HW2 1168   2.897   1.772   3.050 -4.1173  2.4825  0.6390
  343SOL     OW 1169   1.277   2.405   1.780  0.1620 -0.4755 -0.1805
  343SOL    HW1 1170   1.279   2.309   1.780  0.6776 -0.4779  0.7463
  343SOL    HW2 1171   1.191   2.427   1.745 -0.1732 -1.2876  0.1040
  344SOL     OW 1172   0.999   2.335   1.900 -0.0714  0.8195 -0.3995
  344SOL    HW1 1173   0.904   2.336   1.912  0.0605  0.4244  0.7935
  344SOL    HW2 1174   1.012   2.351   1.807 -1.2735  1.9118 -0.3994
  345SOL     OW 1175   2.861   0.049   2.007  0.7145 -0.0429 -0.2439
  345SOL    HW1 1176   2.771   0.038   1.975  0.6022 -1.1558  0.4133
  345SOL    HW2 1177   2.858   0.132   2.056  0.5115  0.8616 -1.7393
  346SOL     OW 1178   0.062   0.518   0.807  0.3807 -0.4453  0.2731
  346SOL    HW1 1179   0.137   0.458   0.808 -0.8555 -2.1491 -1.5091
  346SOL    HW2 1180   0.082   0.582   0.876  2.4870 -2.0064  1.2415
  347SOL     OW 1181   0.408   0.649   1.553  0.1616 -0.6045  0.2703
  347SOL    HW1 1182   0.468   0.576   1.564  1.0127 -0.4185 -2.4674
  347SOL    HW2 1183   0.372   0.639   1.465  1.3059  2.9005 -0.7850
  348SOL     OW 1184   1.225   3.563   1.289 -0.2705 -0.4821  0.1566
  348SOL    HW1 1185   1.284   3.492   1.264 -1.3185 -1.1124 -0.6169
  348SOL    HW2 1186   1.164   3.570   1.215 -0.0173  1.4285  0.0775
  349SOL     OW 1187   0.194   3.246   2.440  0.5268  0.0723  0.4413
  349SOL    HW1 1188   0.247   3.300   2.382  0.1049  3.2579  2.7485
  349SOL    HW2 1189   0.110   3.236   2.394  0.2857  2.2791  0.3121
  350SOL     OW 1190   1.854   1.579   1.462 -0.4844 -0.3589 -0.8645
  350SOL    HW1 1191   1.766   1.595   1.428 -0.3897  0.7696 -0.6208
  350SOL    HW2 1192   1.849   1.493   1.504 -1.0486 -1.0149 -2.2101
  351SOL     OW 1193   1.576   3.313   3.378 -0.5549 -0.1389 -0.6154
  351SOL    HW1 1194   1.658   3.269   3.356 -0.6196  0.5097 -2.3092
  351SOL    HW2 1195   1.589   3.344   3.468  0.9689 -0.2661 -0.7635
  352SOL     OW 1196   3.004   0.301   0.780 -0.5977  0.2038 -0.1767
  352SOL    HW1 1197   3.049   0.278   0.698 -2.7318  0.2451 -1.4266
  352SOL    HW2 1198   3.015   0.396   0.788  2.3160 -0.1516  1.3437
  353SOL     OW 1199   0.299   1.290   2.850  0.3079  0.5035 -0.0494
  353SOL    HW1 1200   0.387   1.297   2.815  0.0628  3.2373 -0.3231
  353SOL    HW2 1201   0.242   1.312   2.776 -0.6370 -0.9158  0.2060
  354SOL     OW 1202   0.231   2.597   1.620 -0.2542 -0.1428 -0.1155
  354SOL    HW1 1203   0.212   2.664   1.686 -1.6791 -1.7370  1.2189
  354SOL    HW2 1204   0.218   2.640   1.536 -1.8848  1.0628  0.7136
  355SOL     OW 1205   2.156   3.204   3.177 -0.6587  0.2416 -0.0607
  355SOL    HW1 1206   2.095   3.275   3.159  1.7898  2.5530  0.0420
  355SOL    HW2 1207   2.201   3.231   3.257  1.5190 -0.5609 -0.9341
  356SOL     OW 1208   2.240   0.238   3.253 -0.2105  0.1554 -0.0638
  356SOL    HW1 1209   2.218   0.196   3.170 -0.9841  0.9875 -0.2991
  356SOL    HW2 1210   2.241   0.331   3.233  0.2191  0.3324  0.7320
  357SOL     OW 1211   0.191   3.037   0.928 -0.1645  0.2651 -0.0734
  357SOL    HW1 1212   0.173   2.947   0.955 -0.5568  0.5204  0.5320
  357SOL    HW2 1213   0.271   3.031   0.875 -2.3662 -1.0549 -3.6330
  358SOL     OW 1214   2.429   1.033   0.997 -0.2646 -0.1548 -0.0097
  358SOL    HW1 1215   2.523   1.015   1.003  0.2941  2.5530  0.6485
  358SOL    HW2 1216   2.391   0.982   1.069  0.8882 -0.1936  0.6082
  359SOL     OW 1217   3.156   2.758   2.943 -0.6435  0.3566  0.2498
  359SOL    HW1 1218   3.193   2.775   2.857 -0.4500 -0.9636  0.0654
  359SOL    HW2 1219   3.095   2.686   2.930  0.4914 -0.8746  1.4780
  360SOL     OW 1220   1.870   1.448   3.182 -0.1058 -0.0465  0.6044
  360SOL    HW1 1221   1.829   1.518   3.233 -0.0572 -0.2702  0.9504
  360SOL    HW2 1222   1.917   1.494   3.113 -1.0561  0.2162  0.1092
  361SOL     OW 1223   0.253   1.141   1.170  0.7237 -0.3727  0.5111
  361SOL    HW1 1224   0.314   1.161   1.099  1.5700 -1.1700  0.9876
  361SOL    HW2 1225   0.228   1.226   1.205 -1.0825  0.1803 -1.8265
  362SOL     OW 1226   1.819   0.114   1.480  1.1287 -0.1213  0.0743
  362SOL    HW1 1227   1.852   0.031   1.444 -1.1882 -1.0100 -0.1726
  362SOL    HW2 1228   1.797   0.094   1.571  1.5990  0.5506  0.3433
  363SOL     OW 1229   0.618   2.353   0.891 -0.0937 -0.2559  0.3502
  363SOL    HW1 1230   0.634   2.445   0.908 -2.7833  0.3579  0.0584
  363SOL    HW2 1231   0.646   2.308   0.971  0.6177  0.8730  0.7509
  364SOL     OW 1232   3.456   2.354   2.224 -0.6445 -0.0766 -0.5663
  364SOL    HW1 1233   3.525   2.349   2.291  1.7863 -1.1152 -2.9516
  364SOL    HW2 1234   3.384   2.401   2.267  0.4043 -1.3990  2.9988
  365SOL     OW 1235   2.497   0.860   2.508 -0.2228  0.3080 -0.0196
  365SOL    HW1 1236   2.429   0.820   2.454  0.0476 -1.2450  0.7236
  365SOL    HW2 1237   2.521   0.791   2.571  0.5969  1.5143  1.0332
  366SOL     OW 1238   1.640   1.626   2.462 -0.3430 -0.6612  0.5758
  366SOL    HW1 1239   1.580   1.563   2.502 -0.9285 -0.8137 -0.4821
  366SOL    HW2 1240   1.726   1.603   2.495 -0.6463 -1.5643  0.7572
  367SOL     OW 1241   0.939   1.675   2.849 -0.3171 -0.3788  0.8061
  367SOL    HW1 1242   0.875   1.700   2.782  0.8507 -1.4396 -0.7846
  367SOL    HW2 1243   1.023   1.701   2.812  0.4100 -1.5624  1.5918
  368SOL     OW 1244   0.420   1.449   0.728  0.0195 -0.3860  0.0843
  368SOL    HW1 1245   0.328   1.473   0.715 -0.1834 -1.3344 -0.3442
  368SOL    HW2 1246   0.444   1.404   0.647  1.3182  1.1742 -0.4225
  369SOL     OW 1247   2.163   2.349   0.817  0.2261  0.4290  0.2906
  369SOL    HW1 1248   2.250   2.390   0.817 -0.6238  2.3460  0.9006
  369SOL    HW2 1249   2.126   2.371   0.731  0.8039 -1.5121 -0.4965
  370SOL     OW 1250   0.772   1.714   1.156  0.1241  0.3797  0.8097
  370SOL    HW1 1251   0.757   1.641   1.215  1.5408 -0.0703  0.6592
  370SOL    HW2 1252   0.761   1.792   1.210  0.4743 -0.0035  1.4526
  371SOL     OW 1253   1.301   2.111   1.793  0.9925 -0.0685 -0.0659
  371SOL    HW1 1254   1.343   2.043   1.845  1.0238  1.4701  2.0130
  371SOL    HW2 1255   1.207   2.092   1.799  0.9891  0.1589  0.6681
  372SOL     OW 1256   0.292   3.253   1.781 -0.2749  0.2385 -0.3176
  372SOL    HW1 1257   0.210   3.209   1.806  0.5817 -0.6383  1.0825
  372SOL    HW2 1258   0.265   3.342   1.759 -1.5958  0.0264  0.3117
  373SOL     OW 1259   0.371   2.219   0.851 -0.4420  0.3915 -0.3491
  373SOL    HW1 1260   0.443   2.272   0.818  1.2794 -1.2334  0.6664
  373SOL    HW2 1261   0.395   2.199   0.942 -2.3300  0.0500  0.1259
  374SOL     OW 1262   1.775   1.526   0.675 -0.1343  0.1123 -0.4033
  374SOL    HW1 1263   1.692   1.533   0.723  0.2562  2.1380  0.0719
  374SOL    HW2 1264   1.755   1.560   0.588 -0.6346 -2.8040 -1.5698
  375SOL     OW 1265   1.308   1.550   0.993  0.4025 -0.0138  0.4276
  375SOL    HW1 1266   1.218   1.524   1.011  0.3202  0.5503  0.8575
  375SOL    HW2 1267   1.318   1.634   1.036  0.5399  0.8918 -1.2716
  376SOL     OW 1268   2.829   2.782   1.845  0.1570  0.7065  0.3317
  376SOL    HW1 1269   2.848   2.857   1.788  0.8097  0.0825 -0.2940
  376SOL    HW2 1270   2.840   2.705   1.789  0.9376  0.0608  1.3310
  377SOL     OW 1271   2.560   0.268   1.782 -0.0967 -0.4381 -0.4657
  377SOL    HW1 1272   2.480   0.251   1.733 -0.7492  1.0527  0.0267
  377SOL    HW2 1273   2.568   0.193   1.841 -0.8086 -0.8896 -0.9234
  378SOL     OW 1274   3.276   1.448   1.483  0.5765 -0.2689  0.4840
  378SOL    HW1 1275   3.239   1.536   1.471  0.8762  0.0063  1.4960
  378SOL    HW2 1276   3.279   1.412   1.394 -0.5543  0.3264  0.1744
  379SOL     OW 1277   1.100   2.015   3.386  0.3570  0.8404  0.0894
  379SOL    HW1 1278   1.041   2.087   3.363 -2.1963 -1.2761 -0.5315
  379SOL    HW2 1279   1.101   2.014   3.482 -1.4019  0.4207  0.1409
  380SOL     OW 1280   1.083   2.833   1.397 -0.6116  0.1832  0.1684
  380SOL    HW1 1281   1.017   2.798   1.336  0.2583 -0.1460 -0.6196
  380SOL    HW2 1282   1.073   2.928   1.390  0.8112  0.2619 -2.1250
  381SOL     OW 1283   2.476   3.377   1.541  0.0646 -0.1770  0.1278
  381SOL    HW1 1284   2.477   3.391   1.446 -0.4393  0.5588  0.2269
  381SOL    HW2 1285   2.568   3.363   1.563  0.2986  0.5680 -0.3385
  382SOL     OW 1286   2.392   0.350   1.240 -0.2419 -0.6471  0.0551
  382SOL    HW1 1287   2.422   0.263   1.266 -0.5591 -0.9070 -0.4300
  382SOL    HW2 1288   2.361   0.338   1.151 -2.4877 -0.5755  0.7606
  383SOL     OW 1289   2.742   3.083   3.570 -0.0549 -0.5319  0.1610
  383SOL    HW1 1290   2.656   3.120   3.549 -1.2625 -3.4761 -0.5286
  383SOL    HW2 1291   2.737   3.062   3.663  0.1756 -0.0745  0.2766
  384SOL     OW 1292   0.625   0.926   2.593  0.0357  0.0312 -0.8255
  384SOL    HW1 1293   0.630   0.876   2.512  0.3191 -0.7288 -0.3480
  384SOL    HW2 1294   0.702   0.982   2.591  1.0997 -1.3663 -0.1980
  385SOL     OW 1295   0.268   2.074   0.193 -0.0202  0.2488  0.8688
  385SOL    HW1 1296   0.203   2.127   0.148  2.0097  0.6403 -1.8516
  385SOL    HW2 1297   0.282   2.119   0.277 -1.4096  1.5713  0.4296
  386SOL     OW 1298   2.954   3.291   0.604 -0.0075 -0.1088 -0.2303
  386SOL    HW1 1299   2.873   3.343   0.599 -1.8816 -2.6980  0.6702
  386SOL    HW2 1300   2.956   3.259   0.695  0.8099 -1.8948 -0.8376
  387SOL     OW 1301   1.481   1.426   2.511 -0.1416 -0.0241 -0.4667
  387SOL    HW1 1302   1.518   1.357   2.455  3.1354  1.2084 -0.0543
  387SOL    HW2 1303   1.463   1.382   2.594  1.1378 -0.6164 -0.4705
  388SOL     OW 1304   0.687   3.026   0.385  0.2918  0.6436  0.1845
  388SOL    HW1 1305   0.707   3.003   0.476 -0.0460 -1.3369 -0.1976
  388SOL    HW2 1306   0.756   2.983   0.334 -0.7410 -0.1006 -0.6220
  389SOL     OW 1307   0.203   3.693   2.269  0.2953 -0.1782  0.1674
  389SOL    HW1 1308   0.170   3.674   2.181 -0.7115  0.5243  0.3728
  389SOL    HW2 1309   0.208   3.607   2.312  0.7971 -0.5204 -0.5690
  390SOL     OW 1310   0.201   1.051   3.039 -0.5221 -0.1269 -0.2555
  390SOL    HW1 1311   0.119   1.005   3.025  0.0008 -0.8519 -1.0241
  390SOL    HW2 1312   0.224   1.086   2.953 -0.0858  0.1814 -0.0196
  391SOL     OW 1313   2.017   1.653   3.100 -0.5843  0.5987 -0.1610
  391SOL    HW1 1314   2.109   1.666   3.121  0.0813 -0.8284 -1.8646
  391SOL    HW2 1315   1.990   1.735   3.058  0.4055  0.4584 -1.1184
  392SOL     OW 1316   2.013   0.924   2.368 -0.0931 -0.2083 -0.4264
  392SOL    HW1 1317   2.061   0.971   2.299 -0.4060  0.0656 -0.4654
  392SOL    HW2 1318   1.927   0.908   2.330  0.6110 -2.5983 -1.1647
  393SOL     OW 1319   3.639   3.189   3.212  0.1470  0.0683  0.3126
  393SOL    HW1 1320   3.659   3.120   3.149 -1.3202 -0.0144 -0.1222
  393SOL    HW2 1321   3.723   3.227   3.235  0.9869 -1.8373  0.5327
  394SOL     OW 1322   1.132   2.004   0.255 -0.0474 -0.1489 -0.0658
  394SOL    HW1 1323   1.175   2.088   0.271  1.0842 -0.5640 -0.8206
  394SOL    HW2 1324   1.195   1.939   0.286 -0.4264 -0.7546 -0.5491
  395SOL     OW 1325   2.440   1.913   0.119 -0.0004  1.1877 -0.8480
  395SOL    HW1 1326   2.503   1.922   0.047 -0.4737 -1.2493 -1.6614
  395SOL    HW2 1327   2.355   1.908   0.076 -0.5806  2.2145  0.1038
  396SOL     OW 1328   0.504   2.508   1.879  0.1697  0.3574 -0.2714
  396SOL    HW1 1329   0.422   2.518   1.831  0.1896  1.3935 -0.1064
  396SOL    HW2 1330   0.490   2.554   1.962  0.7277  0.0681 -0.0078
  397SOL     OW 1331   0.968   3.142   1.795  0.2088  0.3599 -0.4509
  397SOL    HW1 1332   1.033   3.093   1.744 -0.6548  0.3379 -1.5682
  397SOL    HW2 1333   0.899   3.079   1.813  0.3767  0.4474  0.5274
  398SOL     OW 1334   2.464   3.453   0.176 -0.0333  0.3016  0.0981
  398SOL    HW1 1335   2.559   3.467   0.173  0.1505  0.7473  3.5504
  398SOL    HW2 1336   2.427   3.540   0.160  0.0414  0.0594 -1.6400
  399SOL     OW 1337   3.533   0.660   0.699  0.2552  0.0689  0.3746
  399SOL    HW1 1338   3.467   0.647   0.766 -1.1129 -2.5143 -1.2937
  399SOL    HW2 1339   3.600   0.594   0.719 -1.2094 -2.2957 -1.8194
  400SOL     OW 1340   3.235   1.795   2.388 -0.0272 -0.2979 -0.1358
  400SOL    HW1 1341   3.197   1.826   2.306 -0.1008  0.8458  0.3162
  400SOL    HW2 1342   3.326   1.826   2.385 -0.8793  2.8090  1.6764
  401SOL     OW 1343   0.593   0.558   2.224  0.2017  0.0354 -0.0546
  401SOL    HW1 1344   0.632   0.537   2.139  0.8823  1.0209 -0.0063
  401SOL    HW2 1345   0.502   0.577   2.205 -0.0820 -1.4636 -0.2976
  402SOL     OW 1346   2.026   1.509   2.032 -0.3225  0.1284 -0.7297
  402SOL    HW1 1347   2.066   1.429   2.067 -0.3160 -0.2792 -1.6426
  402SOL    HW2 1348   2.053   1.512   1.941 -1.4788  0.4220 -1.0850
  403SOL     OW 1349   0.723   0.737   2.398 -0.6880 -0.0902  0.2667
  403SOL    HW1 1350   0.696   0.686   2.322  1.0281 -1.2276  0.3681
  403SOL    HW2 1351   0.811   0.768   2.376  0.2398 -1.2360  2.1355
  404SOL     OW 1352   2.228   1.541   3.374 -0.4160 -0.2168  0.0469
  404SOL    HW1 1353   2.225   1.566   3.282 -0.8998 -0.5319 -0.0245
  404SOL    HW2 1354   2.155   1.587   3.414  0.7515  1.2411  0.6195
  405SOL     OW 1355   2.709   2.009   3.033  0.1426 -0.2083 -0.0959
  405SOL    HW1 1356   2.781   1.969   2.984 -0.1657  0.3236 -1.0051
  405SOL    HW2 1357   2.652   2.046   2.965 -1.4262 -1.3361  0.5507
  406SOL     OW 1358   2.685   2.290   1.476 -0.5953  0.2325 -0.6305
  406SOL    HW1 1359   2.670   2.241   1.557 -0.6572 -0.2048 -0.9042
  406SOL    HW2 1360   2.669   2.227   1.407  0.4461  0.3211 -0.9737
  407SOL     OW 1361   1.639   3.407   3.612  0.1961 -0.0844  0.1381
  407SOL    HW1 1362   1.701   3.479   3.616  1.4588 -1.0764 -0.8274
  407SOL    HW2 1363   1.662   3.352   3.687 -0.6909  0.4239  0.8053
  408SOL     OW 1364   0.499   1.088   2.029 -0.0942  0.2942  0.4636
  408SOL    HW1 1365   0.445   1.061   1.954  0.9139  1.4302 -0.7254
  408SOL    HW2 1366   0.573   1.134   1.989  0.7530  0.4518  2.1526
  409SOL     OW 1367   1.521   1.252   0.175  0.5571 -0.3504  0.1647
  409SOL    HW1 1368   1.460   1.325   0.168  1.5624  0.5450  0.5029
  409SOL    HW2 1369   1.508   1.202   0.095  0.7514  0.9187 -0.6956
  410SOL     OW 1370   2.568   0.667   1.631 -0.7383  0.9189  0.1956
  410SOL    HW1 1371   2.492   0.615   1.607 -0.5492  1.3122 -1.3296
  410SOL    HW2 1372   2.620   0.609   1.686  0.6424 -1.4776 -3.2736
  411SOL     OW 1373   1.246   3.433   0.375  0.4487  0.1321  0.1129
  411SOL    HW1 1374   1.259   3.375   0.300  0.4289 -1.1849  1.0902
  411SOL    HW2 1375   1.279   3.518   0.346  0.0944 -0.2482 -1.5085
  412SOL     OW 1376   0.199   1.624   3.400 -0.4368 -0.5309 -0.1763
  412SOL    HW1 1377   0.241   1.538   3.399  1.3229  0.2392  1.2716
  412SOL    HW2 1378   0.183   1.642   3.493 -2.9048 -0.2175 -0.5828
  413SOL     OW 1379   1.386   0.113   2.820  0.0276 -0.7286  0.3439
  413SOL    HW1 1380   1.354   0.116   2.910  0.6557 -0.4137  0.5683
  413SOL    HW2 1381   1.350   0.191   2.779  0.9838 -0.0366  0.7731
  414SOL     OW 1382   0.032   2.080   1.325  0.4602  0.0195 -0.2210
  414SOL    HW1 1383  -0.021   2.146   1.370 -0.3094 -0.9416  0.3348
  414SOL    HW2 1384   0.119   2.118   1.320 -0.2728  1.6967 -1.2348
  415SOL     OW 1385   3.035   1.914   2.726  0.0943 -0.3012 -0.2534
  415SOL    HW1 1386   2.977   1.879   2.659 -1.2362  0.9431  0.1918
  415SOL    HW2 1387   3.040   1.846   2.793 -1.2848 -0.2261 -0.0576
  416SOL     OW 1388   0.074   1.246   1.815 -0.2106 -0.7207 -0.5339
  416SOL    HW1 1389   0.024   1.277   1.739  1.5306  0.7855 -1.1303
  416SOL    HW2 1390   0.123   1.171   1.783 -0.2321 -0.7014 -0.6114
  417SOL     OW 1391   0.595   1.647   0.502  0.3196 -0.0581 -0.5832
  417SOL    HW1 1392   0.503   1.643   0.475  0.3554  0.4410 -0.7865
  417SOL    HW2 1393   0.639   1.693   0.430  1.1857 -2.4297 -1.6662
  418SOL     OW 1394   1.802   0.501   3.336 -0.6007 -0.5352  0.2421
  418SOL    HW1 1395   1.857   0.550   3.398 -1.3601  0.6230  0.0329
  418SOL    HW2 1396   1.775   0.423   3.385  2.2378 -1.8488 -0.0782
  419SOL     OW 1397   2.216  -0.003   0.068 -0.9024 -0.2836  0.2711
  419SOL    HW1 1398   2.219  -0.013   0.163 -1.5706  0.9072  0.4422
  419SOL    HW2 1399   2.295   0.047   0.047 -1.0335 -0.0711  0.2769
  420SOL     OW 1400   2.123   0.489   3.470  0.4267 -0.5030 -0.7153
  420SOL    HW1 1401   2.185   0.494   3.397  3.5605  1.7191  1.8158
  420SOL    HW2 1402   2.141   0.567   3.522 -1.5879 -1.9830  2.5099
  421SOL     OW 1403   1.450   0.576   1.581  0.3462  0.5507  0.2857
  421SOL    HW1 1404   1.523   0.630   1.551  2.2475 -1.5929  0.7987
  421SOL    HW2 1405   1.480   0.540   1.664 -0.8421 -1.2377 -0.0234
  422SOL     OW 1406   3.628   2.788   2.086  0.2905 -0.3310  0.1734
  422SOL    HW1 1407   3.585   2.873   2.086  0.4949 -0.2211 -1.0881
  422SOL    HW2 1408   3.654   2.775   2.178 -0.1330  0.7519  0.4639
  423SOL     OW 1409   2.581   2.660   1.878  0.2180  0.6791  1.0529
  423SOL    HW1 1410   2.526   2.671   1.801 -0.3939 -0.2407  1.3461
  423SOL    HW2 1411   2.654   2.722   1.865 -1.4882  2.8680  1.2563
  424SOL     OW 1412   1.984   1.855   1.211  0.3158 -0.0730  0.1921
  424SOL    HW1 1413   2.041   1.930   1.195  0.2190  0.1711  0.9328
  424SOL    HW2 1414   1.897   1.884   1.184  0.2045  0.2347  0.8550
  425SOL     OW 1415   3.208   0.687   2.210 -0.4896 -0.3316 -0.0359
  425SOL    HW1 1416   3.220   0.657   2.119 -2.8271 -2.1649  0.1635
  425SOL    HW2 1417   3.296   0.712   2.238  0.4481 -0.4566 -2.5418
  426SOL     OW 1418   0.373   2.380   1.673 -0.2327 -0.6688  0.0385
  426SOL    HW1 1419   0.466   2.402   1.665 -0.4968  0.4332 -0.2419
  426SOL    HW2 1420   0.327   2.462   1.652 -1.2922 -1.4025 -0.6192
  427SOL     OW 1421   3.049   1.135   0.321 -0.1273 -0.4237 -0.5452
  427SOL    HW1 1422   3.022   1.227   0.321  0.5318 -0.2006 -2.0716
  427SOL    HW2 1423   3.070   1.117   0.230  0.2463 -1.9565 -0.1729
  428SOL     OW 1424   2.427   3.088   3.121 -0.0697  0.5768  0.3161
  428SOL    HW1 1425   2.353   3.141   3.151  0.3106  0.8692  0.7415
  428SOL    HW2 1426   2.470   3.059   3.201  1.5706  2.2126  0.0969
  429SOL     OW 1427   2.010   0.072   1.939  0.6062 -0.3753 -0.2070
  429SOL    HW1 1428   2.086   0.098   1.992 -0.3778 -0.9741  1.5919
  429SOL    HW2 1429   1.976  -0.006   1.982 -0.8817 -0.2742 -1.1223
  430SOL     OW 1430   2.255   0.716   0.896 -0.4612 -0.2947 -0.3013
  430SOL    HW1 1431   2.297   0.685   0.817 -2.5380  0.3320 -1.7425
  430SOL    HW2 1432   2.181   0.656   0.909 -0.4835 -0.0534  0.8363
  431SOL     OW 1433   1.394   2.663   3.039 -0.6027  0.1150  0.2701
  431SOL    HW1 1434   1.481   2.691   3.013  1.2622 -2.2173  3.3329
  431SOL    HW2 1435   1.368   2.727   3.106 -0.1949 -0.4743  1.0027
  432SOL     OW 1436   3.654   2.669   1.506 -0.2158 -0.3172  0.2246
  432SOL    HW1 1437   3.642   2.662   1.600  2.2125 -1.1662  0.5510
  432SOL    HW2 1438   3.584   2.726   1.476  0.4793  2.1783  2.9336
  433SOL     OW 1439   3.523   3.349   2.071 -0.4662  0.2124 -0.2963
  433SOL    HW1 1440   3.525   3.361   1.976  0.3451  1.1318 -0.1756
  433SOL    HW2 1441   3.441   3.389   2.100 -0.9354 -0.4720 -0.6466
  434SOL     OW 1442   0.817   0.787   1.933 -0.5954 -0.1659  0.7944
  434SOL    HW1 1443   0.821   0.802   1.838 -1.7408 -2.5575  0.3018
  434SOL    HW2 1444   0.906   0.807   1.963  0.1398 -0.5058 -0.9786
  435SOL     OW 1445   0.844   1.061   2.193  0.6121  0.3041 -0.1414
  435SOL    HW1 1446   0.765   1.058   2.139  0.3590  0.5365  0.2087
  435SOL    HW2 1447   0.826   1.128   2.259  0.9668  0.1176  0.1536
  436SOL     OW 1448   2.730   1.527   1.556  0.4800  0.3437 -0.2653
  436SOL    HW1 1449   2.661   1.461   1.553  0.4334  0.3990 -0.4489
  436SOL    HW2 1450   2.789   1.497   1.624  0.5719  0.0032 -0.4948
  437SOL     OW 1451   2.923   2.555   0.907 -0.6305 -0.9360  0.4655
  437SOL    HW1 1452   2.961   2.632   0.948 -1.6169 -0.3896  0.3901
  437SOL    HW2 1453   2.869   2.515   0.975 -0.9440 -0.9686  0.2008
  438SOL     OW 1454   0.279   2.780   0.989 -0.6265 -0.8379  0.4454
  438SOL    HW1 1455   0.271   2.747   1.079 -1.5872 -1.7980  0.0331
  438SOL    HW2 1456   0.312   2.705   0.939 -0.3025 -0.3768 -0.0432
  439SOL     OW 1457   1.446   0.486   0.469 -0.0593 -0.1349 -0.0459
  439SOL    HW1 1458   1.442   0.472   0.374  3.3931  2.5886 -0.8234
  439SOL    HW2 1459   1.402   0.570   0.483  2.7581  1.4924 -0.0527
  440SOL     OW 1460   0.199   3.256   3.219 -0.5615 -0.0403 -0.5250
  440SOL    HW1 1461   0.176   3.307   3.296  0.1901 -0.0579 -0.2908
  440SOL    HW2 1462   0.270   3.199   3.247  1.5526  1.7774 -1.8638
  441SOL     OW 1463   0.697   0.601   2.870  0.5095  0.3613 -0.8542
  441SOL    HW1 1464   0.739   0.681   2.899 -1.1249  0.5151  1.3687
  441SOL    HW2 1465   0.615   0.629   2.830 -0.5654 -0.1800  0.8646
  442SOL     OW 1466   3.438   2.427   1.963  0.3735  0.3516  0.0413
  442SOL    HW1 1467   3.451   2.407   2.056  0.1918  0.2993  0.0551
  442SOL    HW2 1468   3.393   2.512   1.964 -2.3900 -1.0266  0.0851
  443SOL     OW 1469   1.571   0.554   2.985 -0.3400  0.1401 -0.1701
  443SOL    HW1 1470   1.508   0.524   2.919  0.7495 -1.0931 -0.6975
  443SOL    HW2 1471   1.540   0.516   3.067 -0.0578 -0.8176 -0.5009
  444SOL     OW 1472   3.350   2.996   1.548  0.0844  0.3918  0.6731
  444SOL    HW1 1473   3.320   3.000   1.457 -1.0829  1.2028  1.0736
  444SOL    HW2 1474   3.314   2.914   1.582 -2.2820  1.6313  1.3172
  445SOL     OW 1475   1.532   2.425   3.036 -0.4020 -0.1905  1.0214
  445SOL    HW1 1476   1.480   2.491   2.990  0.9245 -0.1629 -0.5656
  445SOL    HW2 1477   1.515   2.343   2.988  1.3713 -0.0672  0.0843
  446SOL     OW 1478   1.172   2.581   2.880  0.1975  0.0704 -0.2246
  446SOL    HW1 1479   1.251   2.627   2.909  0.7008 -0.9939  0.1262
  446SOL    HW2 1480   1.180   2.493   2.917 -1.0516 -0.1242 -0.3640
  447SOL     OW 1481   1.871   0.896   0.591  1.1522  0.1487 -0.1003
  447SOL    HW1 1482   1.950   0.881   0.643  0.7183  0.9153  0.8102
  447SOL    HW2 1483   1.882   0.985   0.556  0.9186  0.0677 -0.3865
  448SOL     OW 1484   2.199   2.962   0.341 -0.0955  0.3454  0.3747
  448SOL    HW1 1485   2.159   2.981   0.425  1.3003  0.7586  0.9849
  448SOL    HW2 1486   2.271   3.025   0.334  1.4394 -1.3435  0.0799
  449SOL     OW 1487   1.347   1.451   0.164 -0.3277 -0.1334  0.2506
  449SOL    HW1 1488   1.323   1.432   0.074  0.1873 -0.7127  0.2291
  449SOL    HW2 1489   1.275   1.504   0.198 -1.3959 -1.4049  0.0475
  450SOL     OW 1490   2.165   1.190   0.127 -0.3659 -0.2376  0.3729
  450SOL    HW1 1491   2.132   1.261   0.072 -0.7166 -1.6957 -1.4059
  450SOL    HW2 1492   2.257   1.211   0.141 -0.2059  0.0365 -1.0071
  451SOL     OW 1493   1.507   0.612   1.268 -0.6118 -0.4515 -0.4906
  451SOL    HW1 1494   1.543   0.604   1.180 -1.5363  0.3201 -0.9475
  451SOL    HW2 1495   1.427   0.560   1.266 -0.6541 -0.4043 -0.1071
  452SOL     OW 1496   2.547   1.455   0.481 -0.4702 -0.0855 -0.0839
  452SOL    HW1 1497   2.494   1.390   0.527 -1.4397  0.3593 -0.5546
  452SOL    HW2 1498   2.573   1.412   0.400 -0.1494 -0.2880  0.1263
  453SOL     OW 1499   0.296   2.073   2.317  0.5169 -0.4499 -0.2779
  453SOL    HW1 1500   0.226   2.016   2.285  0.9500 -0.7243 -0.7526
  453SOL    HW2 1501   0.291   2.067   2.412 -0.1426 -0.4172 -0.3098
  454SOL     OW 1502   2.660   1.913   1.462 -0.7895 -0.0583 -0.1311
  454SOL    HW1 1503   2.665   1.982   1.528  0.1746  0.0826 -0.3416
  454SOL    HW2 1504   2.698   1.952   1.383  1.5102 -1.3774  0.2331
  455SOL     OW 1505   0.747   1.721   0.705  0.8822  0.1033 -0.4620
  455SOL    HW1 1506   0.708   1.654   0.649  1.6506 -0.7025 -0.0534
  455SOL    HW2 1507   0.706   1.803   0.676 -2.0427 -0.7952  0.7061
  456SOL     OW 1508   0.617   0.376   3.274 -0.7431  0.3168 -0.6026
  456SOL    HW1 1509   0.587   0.292   3.309  0.4831 -0.6895 -1.8555
  456SOL    HW2 1510   0.543   0.435   3.287 -0.7470 -0.2305  2.6779
  457SOL     OW 1511   3.232   2.070   1.253 -0.2494 -0.2008 -0.0644
  457SOL    HW1 1512   3.308   2.021   1.221 -0.5074  0.2145 -1.3735
  457SOL    HW2 1513   3.161   2.006   1.257  0.6155 -1.1296  3.2783
  458SOL     OW 1514   2.249   3.406   0.460  0.2131  0.1262 -0.3979
  458SOL    HW1 1515   2.224   3.394   0.368  1.7536  0.8677 -0.9337
  458SOL    HW2 1516   2.165   3.412   0.506 -0.6065 -1.3437 -1.5793
  459SOL     OW 1517   0.287   2.170   2.831 -0.3712  0.9631  0.5376
  459SOL    HW1 1518   0.202   2.209   2.815 -0.8540 -0.3621 -0.2306
  459SOL    HW2 1519   0.336   2.183   2.749 -0.7951 -0.6501  0.0041
  460SOL     OW 1520   1.532   1.929   2.347  0.5761 -0.2113  0.2164
  460SOL    HW1 1521   1.458   1.909   2.290  0.5919  2.0059 -0.6706
  460SOL    HW2 1522   1.566   1.843   2.373 -1.9970 -1.2849  0.2926
  461SOL     OW 1523   1.254   0.176   1.315  0.6172 -0.4790  0.0892
  461SOL    HW1 1524   1.230   0.120   1.241  0.8380  1.5438 -1.5988
  461SOL    HW2 1525   1.341   0.144   1.342  0.7718 -0.9182 -0.8880
  462SOL     OW 1526   2.184   3.073   2.113  0.1578  0.0318  0.0325
  462SOL    HW1 1527   2.259   3.060   2.055  0.1083  0.2678 -0.0846
  462SOL    HW2 1528   2.206   3.024   2.192  0.3066 -0.1414 -0.1145
  463SOL     OW 1529   1.150   2.954   2.545 -0.4722 -0.5997  0.4219
  463SOL    HW1 1530   1.168   2.904   2.465 -1.1348  0.1543 -0.2047
  463SOL    HW2 1531   1.216   2.923   2.607  0.6673 -0.5261 -0.7008
  464SOL     OW 1532   1.825   1.439   1.702 -0.0721  0.4149 -0.8848
  464SOL    HW1 1533   1.905   1.484   1.730 -1.0792  1.1207  1.0087
  464SOL    HW2 1534   1.771   1.508   1.663 -0.5788  0.3506 -0.3076
  465SOL     OW 1535   1.755   3.012   1.197 -0.1239 -0.7812 -0.0800
  465SOL    HW1 1536   1.706   3.042   1.273 -1.0973  0.1286 -1.0331
  465SOL    HW2 1537   1.811   3.086   1.173  0.9928 -1.4446  0.3744
  466SOL     OW 1538   1.915   0.635   2.465 -0.3689 -0.1113  0.4048
  466SOL    HW1 1539   1.893   0.613   2.375 -0.4533 -1.7464  0.7808
  466SOL    HW2 1540   1.912   0.730   2.469 -3.3089 -0.0604 -0.6109
  467SOL     OW 1541   0.601   1.198   2.286  0.3711 -0.2676  0.4596
  467SOL    HW1 1542   0.537   1.247   2.234 -1.2132 -0.4466  2.1366
  467SOL    HW2 1543   0.661   1.263   2.319 -2.9130  1.1643  4.4428
  468SOL     OW 1544   3.528   1.234   0.750 -0.0936 -0.2219 -0.0287
  468SOL    HW1 1545   3.467   1.187   0.807  0.5246 -0.1994  0.6787
  468SOL    HW2 1546   3.488   1.320   0.738  0.8099  0.6201  2.2980
  469SOL     OW 1547   3.240   0.440   1.835  0.2001 -0.3679 -0.8016
  469SOL    HW1 1548   3.214   0.416   1.924  1.7612  0.0670 -0.1858
  469SOL    HW2 1549   3.179   0.509   1.810  0.3413  0.1893  0.3258
  470SOL     OW 1550   1.629   1.451   3.016  0.7169  0.5691  0.0827
  470SOL    HW1 1551   1.642   1.546   3.018 -1.6093  0.9793  2.7268
  470SOL    HW2 1552   1.678   1.419   3.092 -1.1790  0.2116  1.2391
  471SOL     OW 1553   2.176   1.926   3.254  0.0851 -0.0255 -0.4970
  471SOL    HW1 1554   2.189   1.934   3.349 -2.4020  0.2842 -0.1209
  471SOL    HW2 1555   2.127   2.005   3.230  2.5074  1.0299 -2.5012
  472SOL     OW 1556   1.382   3.324   0.777 -0.3704 -0.9300  1.0059
  472SOL    HW1 1557   1.287   3.332   0.778 -0.8920 -3.8660 -2.6091
  472SOL    HW2 1558   1.410   3.388   0.711 -0.7040 -3.8914 -2.2860
  473SOL     OW 1559   1.170   0.921   1.189 -0.0246  0.1349  0.7528
  473SOL    HW1 1560   1.263   0.940   1.174  0.1915  0.8623  2.6762
  473SOL    HW2 1561   1.134   0.904   1.101  1.6701  0.9643 -0.1502
  474SOL     OW 1562   1.325   1.559   0.466 -0.4479  0.0669  0.2944
  474SOL    HW1 1563   1.355   1.469   0.478  0.0875  0.3382  1.0570
  474SOL    HW2 1564   1.242   1.564   0.513  0.7605  0.6347  2.5033
  475SOL     OW 1565   0.862   3.569   2.331  0.2919  0.1933 -0.3108
  475SOL    HW1 1566   0.927   3.556   2.400  0.5726  1.2032 -0.3749
  475SOL    HW2 1567   0.911   3.609   2.260 -0.2939  0.4642 -0.5627
  476SOL     OW 1568   2.642   1.206   2.838  0.1890 -0.1896  0.3948
  476SOL    HW1 1569   2.611   1.157   2.915  0.9195  0.1060  0.8976
  476SOL    HW2 1570   2.689   1.142   2.786 -1.2433 -0.6457 -0.3847
  477SOL     OW 1571   0.376   3.077   3.321 -0.0589  0.0730 -0.1500
  477SOL    HW1 1572   0.335   3.130   3.390 -0.2829 -0.3942  0.0810
  477SOL    HW2 1573   0.438   3.021   3.368 -0.6612 -0.6954 -0.2360
  478SOL     OW 1574   0.538   2.951   1.050 -0.1330  0.6559  0.4075
  478SOL    HW1 1575   0.532   3.040   1.017 -0.5926  0.7685  0.7917
  478SOL    HW2 1576   0.453   2.912   1.032  0.1364  0.2197  0.0444
  479SOL     OW 1577   3.117   1.121   0.074  0.2390 -0.4398  0.2592
  479SOL    HW1 1578   3.186   1.060   0.048  0.7639 -0.9991  2.7210
  479SOL    HW2 1579   3.158   1.207   0.066  0.9975 -0.7219  0.9706
  480SOL     OW 1580   1.867   2.319   2.087  0.2424 -0.3485 -0.1472
  480SOL    HW1 1581   1.870   2.275   2.172  0.4723  0.1293  0.0955
  480SOL    HW2 1582   1.959   2.326   2.061  0.0937 -2.8115 -1.6581
  481SOL     OW 1583   0.571   0.037   2.606  0.3763  0.1235  0.2442
  481SOL    HW1 1584   0.563  -0.038   2.664  1.6959 -0.1596  0.0876
  481SOL    HW2 1585   0.664   0.056   2.604 -0.0658  3.1963  2.0867
  482SOL     OW 1586   2.298   1.853   2.019 -0.5631  1.0682  0.2192
  482SOL    HW1 1587   2.345   1.789   2.072 -0.4076  1.2754  0.3312
  482SOL    HW2 1588   2.230   1.887   2.077 -0.6773  0.9682  0.1438
  483SOL     OW 1589   2.414   3.167   0.466 -0.0481  0.3736 -0.3325
  483SOL    HW1 1590   2.354   3.238   0.487 -0.0851  0.0181  0.8313
  483SOL    HW2 1591   2.501   3.205   0.479 -0.0754  0.0657  0.8107
  484SOL     OW 1592   0.765   3.237   1.018  0.3201 -0.4732 -0.6279
  484SOL    HW1 1593   0.696   3.257   0.954 -1.4017 -1.7182  0.7251
  484SOL    HW2 1594   0.844   3.228   0.966  0.2680  4.2730 -1.9370
  485SOL     OW 1595   0.177   0.829   0.810 -0.4030  0.6252 -0.0729
  485SOL    HW1 1596   0.120   0.893   0.767 -0.8713  0.7563  0.7124
  485SOL    HW2 1597   0.248   0.815   0.748 -0.4467  1.6901 -0.3901
  486SOL     OW 1598   1.474   1.919   1.999 -0.1848  0.0554 -0.1436
  486SOL    HW1 1599   1.543   1.985   2.010  0.2612  0.1331 -2.7001
  486SOL    HW2 1600   1.503   1.867   1.923 -0.2476 -3.4800  2.0200
  487SOL     OW 1601   0.023   1.889   0.159 -0.1235  0.5167 -0.3884
  487SOL    HW1 1602   0.026   1.866   0.066  1.1733  0.9106 -0.4588
  487SOL    HW2 1603  -0.036   1.964   0.163 -1.0078 -0.1402 -0.7368
  488SOL     OW 1604   2.318   0.267   1.496 -0.2966 -0.0858 -0.2186
  488SOL    HW1 1605   2.225   0.266   1.519 -0.3008 -0.6703 -0.2349
  488SOL    HW2 1606   2.348   0.177   1.514  0.2557  0.0889 -0.2405
  489SOL     OW 1607   0.995   0.899   0.349 -0.1372 -0.1179  0.3117
  489SOL    HW1 1608   1.089   0.889   0.359 -0.2653  0.1250  2.0742
  489SOL    HW2 1609   0.959   0.812   0.368 -0.2533 -0.3719 -0.9777
  490SOL     OW 1610   2.794   1.037   3.038 -0.2382  0.2012 -0.1983
  490SOL    HW1 1611   2.752   1.098   3.099 -1.4067 -0.2475 -0.5305
  490SOL    HW2 1612   2.883   1.071   3.028  0.4400 -0.4165  2.7388
  491SOL     OW 1613   1.957   3.079   0.241  0.3715 -0.7300 -0.4231
  491SOL    HW1 1614   1.883   3.019   0.232  0.8032 -1.4483  0.6627
  491SOL    HW2 1615   1.981   3.074   0.333 -0.1252  1.7836 -0.0761
  492SOL     OW 1616   2.686   1.669   3.126 -0.3564  0.7541 -0.1852
  492SOL    HW1 1617   2.661   1.743   3.181  0.3681 -0.7210  2.2574
  492SOL    HW2 1618   2.641   1.593   3.164  1.8257 -0.6738 -0.2432
  493SOL     OW 1619   1.746   0.875   1.104  0.1093  0.3048  0.7602
  493SOL    HW1 1620   1.839   0.882   1.127  0.2553 -0.3433  0.3687
  493SOL    HW2 1621   1.720   0.788   1.133 -0.0693  0.0259 -0.1994
  494SOL     OW 1622   1.247   1.154   0.974  0.2388  0.3040 -0.1445
  494SOL    HW1 1623   1.322   1.096   0.983  0.5191 -0.1755 -3.9797
  494SOL    HW2 1624   1.176   1.097   0.945 -0.2275  1.4373 -1.3187
  495SOL     OW 1625   1.173   3.461   2.565 -0.3132 -0.0023  0.1006
  495SOL    HW1 1626   1.079   3.446   2.560 -0.2092 -2.1121  2.6084
  495SOL    HW2 1627   1.212   3.375   2.553  1.3015  0.7261 -0.2207
  496SOL     OW 1628   0.725   1.179   1.839 -0.4365  0.1491  0.2693
  496SOL    HW1 1629   0.763   1.267   1.831 -0.2345 -0.0066 -0.5701
  496SOL    HW2 1630   0.794   1.120   1.808 -0.4519 -0.3404  1.1342
  497SOL     OW 1631   0.200   1.842   2.739 -0.2084 -0.0749 -0.4980
  497SOL    HW1 1632   0.195   1.918   2.681  2.3855 -0.4275 -1.3175
  497SOL    HW2 1633   0.112   1.834   2.776 -1.0424  2.1935 -1.7946
  498SOL     OW 1634   3.545   0.480   3.063 -0.5341 -0.0365  0.0542
  498SOL    HW1 1635   3.501   0.396   3.050  1.0572 -0.7769 -0.8292
  498SOL    HW2 1636   3.475   0.545   3.053 -2.0891 -1.2590  2.2282
  499SOL     OW 1637   3.679   1.790   2.506 -0.8560  0.2152 -0.3200
  499SOL    HW1 1638   3.663   1.867   2.452 -0.9643  1.3099  1.2007
  499SOL    HW2 1639   3.649   1.815   2.593  3.2936  0.2078  1.3618
  500SOL     OW 1640   1.281   2.279   1.335 -0.1006  0.4288  0.1775
  500SOL    HW1 1641   1.309   2.317   1.419  0.1326  5.0941 -1.6717
  500SOL    HW2 1642   1.354   2.297   1.276 -0.0047 -3.2714 -1.0649
  501SOL     OW 1643   1.118   2.831   3.256  0.2065 -0.0308  0.3750
  501SOL    HW1 1644   1.136   2.840   3.350  0.7213  1.2400  0.1733
  501SOL    HW2 1645   1.094   2.919   3.227 -0.6260 -0.5345 -0.5670
  502SOL     OW 1646   2.720   1.480   1.254 -0.2065 -0.2919  0.4453
  502SOL    HW1 1647   2.711   1.452   1.344 -1.0274 -0.2488  0.3796
  502SOL    HW2 1648   2.814   1.472   1.235 -0.0187 -0.2018  1.3253
  503SOL     OW 1649   1.112   3.507   1.523  0.1302  0.1974 -0.1457
  503SOL    HW1 1650   1.138   3.545   1.439  0.4600  0.5551  0.1139
  503SOL    HW2 1651   1.019   3.488   1.512  0.0508  0.7021 -0.4288
  504SOL     OW 1652   0.022   2.251   1.042  0.0176  0.0151 -0.4238
  504SOL    HW1 1653  -0.051   2.218   1.094 -0.8222  1.0351 -0.9090
  504SOL    HW2 1654   0.062   2.318   1.097 -0.2272  0.3621 -0.6604
  505SOL     OW 1655   0.546   2.276   0.030 -0.1009 -0.2392 -0.0968
  505SOL    HW1 1656   0.509   2.189   0.046 -1.3203 -0.0137 -1.5002
  505SOL    HW2 1657   0.535   2.289  -0.064  1.8639  0.6487 -0.2342
  506SOL     OW 1658  -0.003   1.410   3.642  0.4229 -0.3732 -0.5613
  506SOL    HW1 1659  -0.015   1.378   3.731 -2.1247 -2.5554 -1.5492
  506SOL    HW2 1660   0.071   1.360   3.608  0.2897 -0.8117 -0.2140
  507SOL     OW 1661   2.324   0.665   0.389 -0.8398 -0.2748  0.0170
  507SOL    HW1 1662   2.249   0.614   0.359 -1.5753  1.1819 -0.7115
  507SOL    HW2 1663   2.400   0.613   0.362 -1.5165 -0.1192 -2.4604
  508SOL     OW 1664   0.400   2.445   0.178 -0.0319  0.0225  0.1025
  508SOL    HW1 1665   0.467   2.482   0.236  0.4813  0.8800 -1.0113
  508SOL    HW2 1666   0.447   2.381   0.124 -0.8862 -2.3316  1.9376
  509SOL     OW 1667   0.568   0.228   2.357 -0.7218  0.4378  0.1441
  509SOL    HW1 1668   0.523   0.306   2.322 -1.2844  0.2565  0.4635
  509SOL    HW2 1669   0.620   0.261   2.431 -0.4546  0.6148 -0.1171
  510SOL     OW 1670   1.186   3.312   3.107 -0.3774  0.0234 -0.2619
  510SOL    HW1 1671   1.249   3.383   3.109 -1.3537  0.9435 -0.9899
  510SOL    HW2 1672   1.137   3.326   3.025 -1.2120 -0.9283  0.0568
  511SOL     OW 1673   3.677   0.765   2.539  0.0204 -0.3636 -1.3646
  511SOL    HW1 1674   3.678   0.711   2.460  0.2588 -2.8557  0.2279
  511SOL    HW2 1675   3.768   0.766   2.568 -0.1824 -0.0850 -0.7357
  512SOL     OW 1676   1.029   2.492   0.864 -0.4733  0.0580 -0.5753
  512SOL    HW1 1677   0.984   2.473   0.946 -0.1626 -1.7330 -0.7700
  512SOL    HW2 1678   1.091   2.420   0.854  1.2185  1.5419 -1.1844
  513SOL     OW 1679   2.377   2.316   2.996 -1.0089 -0.5596 -0.4207
  513SOL    HW1 1680   2.335   2.397   2.968  1.1550  0.1114 -1.9995
  513SOL    HW2 1681   2.385   2.265   2.915 -2.2367 -2.3517  0.5320
  514SOL     OW 1682   2.878   2.624   3.679 -0.1769 -0.4033  0.1051
  514SOL    HW1 1683   2.973   2.631   3.671  0.1798 -2.6371  1.4297
  514SOL    HW2 1684   2.855   2.681   3.753 -0.0195  0.7750 -0.7286
  515SOL     OW 1685   1.675   0.013   3.014 -0.1717 -0.4539 -0.3088
  515SOL    HW1 1686   1.588   0.030   2.978  0.5314  1.0147 -1.4645
  515SOL    HW2 1687   1.676   0.058   3.098 -0.1586  0.5636 -0.8401
  516SOL     OW 1688   2.238   3.034   3.505  0.9673 -0.5679 -0.0346
  516SOL    HW1 1689   2.185   3.002   3.433  0.3796  0.4953 -0.0979
  516SOL    HW2 1690   2.190   3.008   3.584 -0.9350  2.3148 -0.0984
  517SOL     OW 1691   2.206   0.594   1.268 -0.1947 -0.1240  0.2349
  517SOL    HW1 1692   2.270   0.524   1.277 -0.1407 -0.2288 -0.8431
  517SOL    HW2 1693   2.229   0.657   1.337 -0.0902 -1.0321  1.0458
  518SOL     OW 1694   1.300   0.703   2.170 -0.5798 -0.7127  0.2782
  518SOL    HW1 1695   1.305   0.798   2.180 -2.7660 -0.5460  0.2085
  518SOL    HW2 1696   1.343   0.685   2.086  0.3218  0.1356  0.5462
  519SOL     OW 1697   0.703   0.743   3.111 -0.8120  0.3790  0.1461
  519SOL    HW1 1698   0.625   0.789   3.139 -2.0697 -0.7979 -1.2236
  519SOL    HW2 1699   0.672   0.656   3.086  1.1372 -0.5375  0.6975
  520SOL     OW 1700  -0.007   3.673   0.272 -0.4650 -0.1809 -0.5056
  520SOL    HW1 1701   0.087   3.679   0.255 -0.3504 -1.4019 -0.3988
  520SOL    HW2 1702  -0.047   3.677   0.185 -0.2770 -0.2077 -0.5947
  521SOL     OW 1703   1.242   0.705   1.688 -0.6817 -0.5872  0.2694
  521SOL    HW1 1704   1.278   0.789   1.716 -2.8264  0.5664 -0.1397
  521SOL    HW2 1705   1.318   0.649   1.673  0.7803  0.9969  1.4002
  522SOL     OW 1706   3.348   0.052   1.147  0.2337 -0.3794 -0.1333
  522SOL    HW1 1707   3.255   0.046   1.168  0.3686  0.0011  0.5864
  522SOL    HW2 1708   3.350   0.078   1.055 -0.3707  0.3340  0.0499
  523SOL     OW 1709   3.148   0.260   2.502 -0.4396  0.0355  0.5022
  523SOL    HW1 1710   3.217   0.278   2.566 -2.5047 -1.1133  3.2465
  523SOL    HW2 1711   3.178   0.183   2.454  0.6435  0.2091  0.8879
  524SOL     OW 1712   2.084   1.882   2.646 -0.0418  0.4639  0.4004
  524SOL    HW1 1713   2.020   1.923   2.704  0.2764  1.6502 -0.0720
  524SOL    HW2 1714   2.109   1.801   2.691  0.5564  1.5728  2.1679
  525SOL     OW 1715   3.480   0.130   3.540  0.0228 -0.3305 -0.3818
  525SOL    HW1 1716   3.398   0.123   3.491 -0.3028  1.9793 -0.2660
  525SOL    HW2 1717   3.537   0.183   3.484  0.2404  0.9203  0.9669
  526SOL     OW 1718   3.469   3.155   2.674  0.3666 -0.2425 -0.3624
  526SOL    HW1 1719   3.511   3.241   2.663 -0.4986 -0.0855 -3.2147
  526SOL    HW2 1720   3.410   3.147   2.599 -1.5999 -2.2385  1.2525
  527SOL     OW 1721   0.316   2.537   3.640 -0.0765  0.4896  0.3517
  527SOL    HW1 1722   0.228   2.575   3.642 -0.5186 -0.4715 -0.0929
  527SOL    HW2 1723   0.321   2.484   3.720  0.0506  0.4400  0.3112
  528SOL     OW 1724   0.350   1.773   0.743  0.2718 -0.3052 -0.2227
  528SOL    HW1 1725   0.382   1.857   0.711  0.3525 -0.8890 -1.7684
  528SOL    HW2 1726   0.321   1.727   0.665 -0.0946 -1.5870  0.6314
  529SOL     OW 1727   2.025   0.216   3.416 -0.2997  0.5956  0.4575
  529SOL    HW1 1728   2.058   0.302   3.439 -0.1695  0.6575  0.0453
  529SOL    HW2 1729   2.099   0.171   3.375 -0.2860  0.1895  0.9149
  530SOL     OW 1730   1.460   1.910   0.610 -0.1022 -0.2425  0.1259
  530SOL    HW1 1731   1.401   1.888   0.682  1.5294  1.5682  2.1647
  530SOL    HW2 1732   1.547   1.885   0.641  1.0832  3.3102  0.2256
  531SOL     OW 1733   1.271   1.276   1.953  0.0989 -0.3813  0.0775
  531SOL    HW1 1734   1.331   1.229   2.012 -1.2680 -0.7027  1.2916
  531SOL    HW2 1735   1.191   1.287   2.005 -0.7595  0.3870 -1.3434
  532SOL     OW 1736   2.343   3.573   2.020  0.1339 -0.0149 -1.1394
  532SOL    HW1 1737   2.279   3.503   2.026  1.0443 -0.8964 -1.4249
  532SOL    HW2 1738   2.389   3.556   1.937  0.8560  0.4852 -0.8527
  533SOL     OW 1739   1.166   2.793   2.048  0.1471 -0.4445 -0.1724
  533SOL    HW1 1740   1.122   2.708   2.054  0.1042 -0.3614  0.8296
  533SOL    HW2 1741   1.095   2.857   2.046  0.1695 -0.4367 -1.2807
  534SOL     OW 1742   1.180   2.152   3.139  0.4724 -0.5942 -0.4173
  534SOL    HW1 1743   1.104   2.184   3.188 -0.7204 -2.3809 -1.0407
  534SOL    HW2 1744   1.248   2.139   3.206  0.1622  0.6906  0.1879
  535SOL     OW 1745   2.935   3.189   2.593 -0.3925  0.3939  0.0487
  535SOL    HW1 1746   2.933   3.100   2.628 -1.8769 -0.3525 -1.7646
  535SOL    HW2 1747   3.004   3.232   2.643 -1.7667 -0.7683  3.2442
  536SOL     OW 1748   3.240   1.292   2.418 -0.4233  0.0193  0.3435
  536SOL    HW1 1749   3.173   1.224   2.416 -0.4596  0.0420  0.7555
  536SOL    HW2 1750   3.271   1.298   2.327 -0.2954 -0.6715  0.3359
  537SOL     OW 1751   2.234   0.504   2.110 -0.4189  0.1058  0.0003
  537SOL    HW1 1752   2.303   0.531   2.170 -0.1180  1.0917 -0.7478
  537SOL    HW2 1753   2.266   0.530   2.024 -1.1922 -0.5364 -0.4965
  538SOL     OW 1754   0.948   0.228   0.923 -0.1106 -0.1190  0.3354
  538SOL    HW1 1755   0.940   0.270   0.837  0.7921  1.5580  1.0052
  538SOL    HW2 1756   0.896   0.284   0.981  1.0265  0.0270  1.2408
  539SOL     OW 1757   2.322   1.300   0.963 -0.7528 -0.1972  0.5336
  539SOL    HW1 1758   2.400   1.343   0.996  0.7938 -0.7331 -2.1054
  539SOL    HW2 1759   2.338   1.207   0.977 -0.1976 -0.4153 -1.2593
  540SOL     OW 1760   2.027   3.547   0.215  0.4664 -0.1557 -0.1386
  540SOL    HW1 1761   2.068   3.608   0.153  1.1132 -0.0157  0.4290
  540SOL    HW2 1762   2.070   3.463   0.199 -0.3250 -0.4494 -0.8203
  541SOL     OW 1763   0.875   0.741   3.357 -0.3408  0.0878 -0.0634
  541SOL    HW1 1764   0.953   0.692   3.385  0.3773  0.2806 -1.6235
  541SOL    HW2 1765   0.874   0.732   3.262 -0.5683  2.4925 -0.3618
  542SOL     OW 1766   1.262   3.211   2.566  0.0418  0.6742 -0.2880
  542SOL    HW1 1767   1.242   3.121   2.590  2.3776  0.2951  0.4876
  542SOL    HW2 1768   1.291   3.206   2.475  2.0297  0.2760  0.3232
  543SOL     OW 1769   0.610   2.081   3.504 -0.3091  0.3896 -0.2858
  543SOL    HW1 1770   0.573   2.030   3.432  0.3488 -0.1378 -0.2583
  543SOL    HW2 1771   0.567   2.046   3.583 -0.7058  0.6693 -0.3750
  544SOL     OW 1772   2.892   0.721   2.543  0.1901 -0.5040  0.2646
  544SOL    HW1 1773   2.837   0.686   2.613 -0.3170  2.1241  1.3054
  544SOL    HW2 1774   2.953   0.650   2.522 -0.1132 -1.6446  2.8487
  545SOL     OW 1775   2.766   0.712   0.894 -0.3767  0.9907 -0.5177
  545SOL    HW1 1776   2.751   0.629   0.940 -1.0142  0.8680 -0.9321
  545SOL    HW2 1777   2.765   0.689   0.801 -0.2116  1.4077 -0.6251
  546SOL     OW 1778   1.586   2.693   0.851 -0.2132  0.1981 -0.2490
  546SOL    HW1 1779   1.667   2.691   0.903 -0.4295  0.4592  0.1030
  546SOL    HW2 1780   1.614   2.671   0.762 -0.0532 -2.0313  0.2727
  547SOL     OW 1781   2.415   2.388   1.607  0.0896 -0.1188  0.3209
  547SOL    HW1 1782   2.510   2.395   1.596  0.1271  0.5829  1.0427
  547SOL    HW2 1783   2.403   2.342   1.690 -0.1992  0.4221  0.5818
  548SOL     OW 1784   0.343   1.238   0.946  0.0467  0.3673  0.2930
  548SOL    HW1 1785   0.425   1.233   0.897  0.7701  0.1267  1.4875
  548SOL    HW2 1786   0.313   1.328   0.934  1.4803  1.0143  1.3725
  549SOL     OW 1787   0.318   0.349   1.517  0.0398 -0.7923  0.0976
  549SOL    HW1 1788   0.239   0.365   1.466  0.6959  2.6361 -0.1031
  549SOL    HW2 1789   0.290   0.354   1.608 -0.0490  0.3624  0.0261
  550SOL     OW 1790   3.101   2.894   3.636  0.6699  0.3460 -0.0418
  550SOL    HW1 1791   3.196   2.884   3.643  0.4597 -0.7613  1.8128
  550SOL    HW2 1792   3.078   2.949   3.712  0.1693  3.7745 -2.4297
  551SOL     OW 1793   3.518   2.634   0.410  0.1892 -0.0458 -0.0153
  551SOL    HW1 1794   3.483   2.708   0.361 -1.4120  0.2786  1.5364
  551SOL    HW2 1795   3.463   2.560   0.385 -0.9296  0.2120  1.5208
  552SOL     OW 1796   1.770   2.258   0.494 -0.2103  0.3233  0.5648
  552SOL    HW1 1797   1.791   2.174   0.453 -1.0551  0.5647 -0.3752
  552SOL    HW2 1798   1.697   2.238   0.553 -0.4736  0.4216  0.2698
  553SOL     OW 1799   0.519   3.180   0.180  0.6881  0.0953 -0.3088
  553SOL    HW1 1800   0.588   3.148   0.237  0.5159  0.0084 -0.1467
  553SOL    HW2 1801   0.484   3.257   0.225  1.5070  0.8885 -0.9882
  554SOL     OW 1802   0.757   2.979   1.280 -0.6667 -0.1350 -0.1326
  554SOL    HW1 1803   0.745   3.054   1.222 -1.4639 -1.1241 -1.2961
  554SOL    HW2 1804   0.687   2.988   1.345 -0.2068  0.5894  0.2806
  555SOL     OW 1805   1.206   0.774   2.954 -0.5395  0.4402 -0.5386
  555SOL    HW1 1806   1.245   0.691   2.982  2.4686  1.6293 -0.8332
  555SOL    HW2 1807   1.164   0.808   3.032 -0.9992 -0.8848 -0.1699
  556SOL     OW 1808   1.551   2.771   1.650  0.7312 -0.1870 -0.0103
  556SOL    HW1 1809   1.549   2.694   1.593 -0.5804 -0.8109  0.8245
  556SOL    HW2 1810   1.511   2.741   1.732 -1.3991  1.7882 -0.2218
  557SOL     OW 1811   3.371   0.243   2.671  0.0212 -0.9637 -0.0444
  557SOL    HW1 1812   3.393   0.336   2.680  1.3620 -0.9494 -2.5685
  557SOL    HW2 1813   3.441   0.197   2.718 -0.5822 -0.7308  1.1119
  558SOL     OW 1814   1.321   1.523   2.297 -0.3242  0.1867 -0.6665
  558SOL    HW1 1815   1.389   1.484   2.353 -1.1966 -1.5476 -0.7698
  558SOL    HW2 1816   1.355   1.610   2.277  1.2289 -0.1166  0.4197
  559SOL     OW 1817   3.447   2.526   3.062  0.0500 -0.1181  0.0943
  559SOL    HW1 1818   3.415   2.608   3.099  0.8280 -0.3925  1.4209
  559SOL    HW2 1819   3.377   2.497   3.003 -2.3217 -0.7973  3.0040
  560SOL     OW 1820   1.273   3.255   1.872  0.1319 -0.5075  0.3976
  560SOL    HW1 1821   1.251   3.338   1.829 -1.2354 -0.3103  1.4267
  560SOL    HW2 1822   1.265   3.190   1.803 -0.9705 -0.0547  0.0747
  561SOL     OW 1823   2.790   0.126   0.492  0.2381  0.0582  0.3111
  561SOL    HW1 1824   2.769   0.166   0.577 -0.8985  0.3903 -0.1003
  561SOL    HW2 1825   2.856   0.184   0.454 -1.3679  1.5998 -0.2635
  562SOL     OW 1826   0.389   3.500   1.452 -0.6297  0.2101  0.4235
  562SOL    HW1 1827   0.369   3.587   1.418  0.9531  0.5244  0.2217
  562SOL    HW2 1828   0.322   3.484   1.519 -2.5263  0.4625 -1.3074
  563SOL     OW 1829   0.460   1.460   2.144  0.0193 -0.0435 -0.0667
  563SOL    HW1 1830   0.424   1.399   2.080  2.6520  0.1396 -1.9000
  563SOL    HW2 1831   0.386   1.513   2.172 -1.6161 -1.5386 -1.3377
  564SOL     OW 1832   1.078   2.440   1.618  0.5422 -0.5282  0.4020
  564SOL    HW1 1833   1.091   2.533   1.636  0.6685 -0.3858 -0.3751
  564SOL    HW2 1834   1.060   2.437   1.524 -0.0218 -1.2335  0.5244
  565SOL     OW 1835   3.623   3.393   2.605 -0.1120 -0.1574 -0.5545
  565SOL    HW1 1836   3.583   3.450   2.671  0.1353 -3.2833  2.5747
  565SOL    HW2 1837   3.717   3.401   2.621 -0.1003 -1.8158  0.3553
  566SOL     OW 1838   1.981   2.923   3.577  0.3164 -0.1334 -0.5107
  566SOL    HW1 1839   2.009   2.863   3.508  0.8890  1.2797 -1.5675
  566SOL    HW2 1840   2.000   2.878   3.659 -2.7255 -2.9689 -1.1797
  567SOL     OW 1841   1.629   3.438   1.992 -0.3612 -0.4289 -0.1387
  567SOL    HW1 1842   1.545   3.478   2.015 -0.7796 -1.6213  0.4910
  567SOL    HW2 1843   1.613   3.393   1.909 -0.2493 -0.3756 -0.1897
  568SOL     OW 1844   2.752   0.390   0.383 -0.0316 -0.1102  0.0648
  568SOL    HW1 1845   2.664   0.352   0.389 -0.2858  0.3998 -0.3345
  568SOL    HW2 1846   2.752   0.435   0.298  0.2526  0.8033  0.5391
  569SOL     OW 1847   3.417   0.072   0.872  0.5124 -0.2157  0.0451
  569SOL    HW1 1848   3.398   0.118   0.790 -1.2499 -0.4824  0.2661
  569SOL    HW2 1849   3.358  -0.004   0.871  0.6584 -0.3679  1.4409
  570SOL     OW 1850   1.742   3.582   0.237 -0.1188  0.4075 -0.0639
  570SOL    HW1 1851   1.704   3.539   0.314 -0.3722  1.1150  0.2149
  570SOL    HW2 1852   1.835   3.560   0.241 -0.1155  0.4944  0.4920
  571SOL     OW 1853   2.772   3.543   0.604 -0.6283 -0.4087 -0.7205
  571SOL    HW1 1854   2.776   3.591   0.522  0.1832  0.7163 -0.0484
  571SOL    HW2 1855   2.681   3.555   0.634 -0.2487  1.4202 -0.1802
  572SOL     OW 1856   0.223   1.496   0.129 -0.5599 -0.3564  0.6861
  572SOL    HW1 1857   0.282   1.488   0.054 -1.2969  2.0217 -0.2605
  572SOL    HW2 1858   0.249   1.426   0.189  0.6403 -1.7763 -1.3852
  573SOL     OW 1859   0.026   1.690   0.989  0.2460 -0.0425  0.0939
  573SOL    HW1 1860  -0.012   1.755   1.047  0.2681  2.0253 -2.0461
  573SOL    HW2 1861   0.120   1.697   1.002  0.3470  1.5388 -1.2158
  574SOL     OW 1862   3.684   1.878   0.440 -0.0163 -0.2242  0.4495
  574SOL    HW1 1863   3.701   1.904   0.349  0.3761 -0.3135  0.4975
  574SOL    HW2 1864   3.661   1.959   0.485  0.2404 -0.1128  0.3762
  575SOL     OW 1865   3.576   0.642   0.264 -0.3203 -0.1865  0.2700
  575SOL    HW1 1866   3.542   0.731   0.257  2.5073  0.8841 -2.3237
  575SOL    HW2 1867   3.641   0.647   0.334 -1.0325 -0.5831  0.9740
  576SOL     OW 1868   0.319   1.947   1.054 -0.1300  0.4698 -0.1126
  576SOL    HW1 1869   0.257   1.994   0.998  0.4807 -0.3243 -1.5139
  576SOL    HW2 1870   0.301   1.855   1.038 -0.2729  0.1993  1.4226
  577SOL     OW 1871   0.470   3.709   1.964  0.5406 -0.3669 -0.1882
  577SOL    HW1 1872   0.525   3.685   2.039 -1.9016 -2.1447  1.1754
  577SOL    HW2 1873   0.522   3.683   1.888  3.2474  1.8313  0.7526
  578SOL     OW 1874   1.565   2.408   2.489 -0.3380  0.0566 -0.5549
  578SOL    HW1 1875   1.635   2.468   2.463  1.4786 -1.2408  1.0747
  578SOL    HW2 1876   1.571   2.336   2.425  1.4216 -1.1545  0.8717
  579SOL     OW 1877   0.490   1.514   3.320 -0.3663  0.1959  0.5637
  579SOL    HW1 1878   0.509   1.489   3.410 -0.0239 -0.6802  0.2560
  579SOL    HW2 1879   0.561   1.476   3.268 -0.9316  0.0956 -0.1562
  580SOL     OW 1880   2.081   1.915   2.147 -0.2163  0.3865 -0.1670
  580SOL    HW1 1881   2.009   1.919   2.083  1.5359 -1.0353 -2.3827
  580SOL    HW2 1882   2.050   1.855   2.214 -2.0178  1.7130  0.2804
  581SOL     OW 1883   3.461   0.308   1.738 -0.9209 -0.2902  0.6140
  581SOL    HW1 1884   3.371   0.332   1.757 -0.4703  2.2624 -0.0039
  581SOL    HW2 1885   3.456   0.247   1.665 -2.1464 -1.0418  1.2958
  582SOL     OW 1886   0.491   1.614   2.853  0.1723 -0.3686  0.0668
  582SOL    HW1 1887   0.584   1.633   2.865 -0.0111  0.2049  0.6490
  582SOL    HW2 1888   0.461   1.587   2.940 -0.4910  0.7200  0.1866
  583SOL     OW 1889   1.491   1.249   1.570  0.1814 -0.5505  0.2401
  583SOL    HW1 1890   1.505   1.290   1.485  0.2448 -1.5679 -0.2468
  583SOL    HW2 1891   1.400   1.270   1.592  0.8913  1.9295  1.1624
  584SOL     OW 1892   0.717   3.260   0.600 -0.1739  0.2962 -0.7554
  584SOL    HW1 1893   0.793   3.230   0.549  0.2492 -2.3412  1.2085
  584SOL    HW2 1894   0.645   3.206   0.568 -0.7250  1.1535 -0.9931
  585SOL     OW 1895   0.659   2.551   0.615 -0.4059 -0.6052  0.2042
  585SOL    HW1 1896   0.741   2.589   0.584 -0.6809 -0.9842 -1.0181
  585SOL    HW2 1897   0.680   2.460   0.636  0.0487 -0.0796  2.3145
  586SOL     OW 1898   2.257   0.265   1.027 -0.0055 -0.2394  0.5415
  586SOL    HW1 1899   2.326   0.283   0.964 -0.1984  0.1794  0.4430
  586SOL    HW2 1900   2.229   0.176   1.008  0.5899 -0.4586  0.6659
  587SOL     OW 1901   1.648   2.964   1.457  0.1826 -0.0031  0.9854
  587SOL    HW1 1902   1.561   3.002   1.443  1.3308  2.8258  0.9254
  587SOL    HW2 1903   1.636   2.904   1.530 -2.0304 -0.5664  0.2391
  588SOL     OW 1904   2.577   0.035   1.989 -0.4819  0.7525 -0.0459
  588SOL    HW1 1905   2.483   0.053   1.995 -0.7174 -0.7909  1.5771
  588SOL    HW2 1906   2.587  -0.052   2.026  1.7473  1.3589  0.9002
  589SOL     OW 1907   3.089   2.066   2.430  0.2307  0.4734 -0.5358
  589SOL    HW1 1908   3.072   2.064   2.336  0.3470  2.2623 -0.6375
  589SOL    HW2 1909   3.177   2.032   2.439  0.2031  0.2434 -1.0712
  590SOL     OW 1910   1.206   2.444   3.410  0.2979 -0.0569 -0.1688
  590SOL    HW1 1911   1.152   2.453   3.332  2.2874 -2.5359 -2.0066
  590SOL    HW2 1912   1.283   2.498   3.392  1.1227 -1.2525 -0.3121
  591SOL     OW 1913   1.067   1.584   0.118  0.3672 -0.0254  0.4282
  591SOL    HW1 1914   0.977   1.584   0.150  0.5554 -0.4749  0.9586
  591SOL    HW2 1915   1.077   1.669   0.077 -0.2287  0.1194  0.5678
  592SOL     OW 1916   2.310   0.293   0.423 -0.1295 -1.2137 -0.1465
  592SOL    HW1 1917   2.257   0.337   0.490 -1.9196 -1.5868 -1.2495
  592SOL    HW2 1918   2.369   0.236   0.473  0.7531  0.7638  1.2134
  593SOL     OW 1919   0.105   3.078   1.926 -0.2928  0.0133  0.4831
  593SOL    HW1 1920   0.194   3.074   1.960 -0.7146 -0.0697  1.6031
  593SOL    HW2 1921   0.050   3.095   2.002 -1.3816 -1.2924  0.0329
  594SOL     OW 1922   1.038   1.516   2.395 -0.1124 -0.6678 -0.4093
  594SOL    HW1 1923   1.046   1.611   2.386 -0.5727 -0.4823  0.9028
  594SOL    HW2 1924   1.106   1.480   2.338 -0.8039  0.4016 -1.9837
  595SOL     OW 1925   1.539   3.572   1.455 -0.0751  0.4744  0.1332
  595SOL    HW1 1926   1.491   3.552   1.536  1.6430 -0.4368  0.9892
  595SOL    HW2 1927   1.486   3.639   1.412 -0.7537  1.4591  2.3305
  596SOL     OW 1928   2.438   3.363   2.694 -0.3681  0.9639  0.0277
  596SOL    HW1 1929   2.529   3.350   2.721 -1.1579 -2.9780  1.3965
  596SOL    HW2 1930   2.429   3.458   2.688  4.2938  1.5557 -2.1525
  597SOL     OW 1931   3.494   0.674   2.138  0.3154 -0.5496  0.0735
  597SOL    HW1 1932   3.533   0.647   2.055  0.8182  0.2886  0.0324
  597SOL    HW2 1933   3.568   0.701   2.192 -0.1024 -0.1100  0.4324
  598SOL     OW 1934   2.428   1.660   0.266 -0.3635  0.4711 -0.6102
  598SOL    HW1 1935   2.513   1.675   0.307 -1.6608  0.4211  2.3497
  598SOL    HW2 1936   2.406   1.744   0.224  1.9991 -0.1522 -3.4122
  599SOL     OW 1937   2.675   0.346   3.479 -0.0845 -0.9507  0.5728
  599SOL    HW1 1938   2.640   0.334   3.390  0.9001 -2.2315  0.3317
  599SOL    HW2 1939   2.626   0.283   3.532  0.6650 -1.5726  0.5463
  600SOL     OW 1940   1.435   0.923   0.748 -0.0217  0.4496  0.0107
  600SOL    HW1 1941   1.373   0.852   0.762  0.1983  0.5152  1.5088
  600SOL    HW2 1942   1.521   0.881   0.753  0.1125  0.8252  1.0560
  601SOL     OW 1943   0.959   1.354   2.601  0.9151 -0.1055  0.4611
  601SOL    HW1 1944   0.989   1.408   2.528  0.1921  1.6867  1.4356
  601SOL    HW2 1945   0.866   1.376   2.611  0.0880 -2.8430 -0.1858
  602SOL     OW 1946   3.354   0.608   1.241  0.8133  0.1214 -0.0794
  602SOL    HW1 1947   3.278   0.643   1.287  1.1399 -0.3832  0.8885
  602SOL    HW2 1948   3.324   0.526   1.203  0.7946  0.0628  0.0610
  603SOL     OW 1949   0.512   3.437   1.833  0.1630 -0.3938  0.0725
  603SOL    HW1 1950   0.438   3.378   1.848  0.8016 -1.0906  0.5274
  603SOL    HW2 1951   0.508   3.456   1.740 -0.9914  0.1273  0.2044
  604SOL     OW 1952   1.782   2.354   1.576 -0.0534  0.1751 -0.1586
  604SOL    HW1 1953   1.767   2.259   1.569 -0.6786  0.3486 -1.6692
  604SOL    HW2 1954   1.763   2.375   1.667 -1.1114 -0.9682 -0.0878
  605SOL     OW 1955   2.678   0.934   3.328 -0.8558  0.0351 -0.3552
  605SOL    HW1 1956   2.680   0.990   3.250 -2.3812 -0.8544 -1.0814
  605SOL    HW2 1957   2.690   0.995   3.401  0.9150  0.8425 -1.2661
  606SOL     OW 1958   2.236   1.991   1.203  0.5654  0.0717 -0.7726
  606SOL    HW1 1959   2.294   1.922   1.171  2.2181  0.6107  0.8501
  606SOL    HW2 1960   2.272   2.013   1.289 -0.9342  1.7888 -0.5373
  607SOL     OW 1961   2.637   1.232   2.181 -0.1257 -0.4112  0.5139
  607SOL    HW1 1962   2.581   1.178   2.125 -0.7666  0.4718  0.2745
  607SOL    HW2 1963   2.726   1.211   2.153 -0.4308  0.0996 -0.9655
  608SOL     OW 1964   1.022   2.333   0.304 -0.3131 -0.3656  0.5302
  608SOL    HW1 1965   0.995   2.298   0.389  1.5422 -1.7617  0.6024
  608SOL    HW2 1966   1.093   2.393   0.325 -1.9518  1.8081  0.1839
  609SOL     OW 1967   1.873   3.194   0.015  0.0549 -0.0060  0.1802
  609SOL    HW1 1968   1.918   3.194  -0.070  0.0240  0.3767  0.1610
  609SOL    HW2 1969   1.936   3.155   0.076 -1.0215 -3.1694 -0.5711
  610SOL     OW 1970   1.157   3.092   2.847  0.3689  0.2848  0.2024
  610SOL    HW1 1971   1.251   3.071   2.842  0.5993  0.9981  1.1829
  610SOL    HW2 1972   1.127   3.046   2.926 -0.5118 -1.3314 -1.0261
  611SOL     OW 1973   2.961   2.508   2.838 -0.4593 -0.5545  0.0454
  611SOL    HW1 1974   2.902   2.443   2.877  0.4905 -0.9755  0.8224
  611SOL    HW2 1975   2.910   2.547   2.767 -2.0506 -0.1439  1.3482
  612SOL     OW 1976   1.004   1.839   0.719  0.3629 -0.2623 -0.6060
  612SOL    HW1 1977   0.963   1.835   0.806 -0.6170 -1.2999 -1.0898
  612SOL    HW2 1978   0.953   1.778   0.666  0.9175  0.3860 -1.9306
  613SOL     OW 1979   2.778   1.205   0.486 -0.2710 -0.0744  0.8076
  613SOL    HW1 1980   2.789   1.118   0.448 -0.0489 -0.0674  0.8576
  613SOL    HW2 1981   2.757   1.261   0.411 -1.3721 -0.3467  0.8995
  614SOL     OW 1982   3.422   1.751   1.381  0.1046  0.8034 -0.2954
  614SOL    HW1 1983   3.336   1.769   1.419 -0.1648 -0.7783 -0.1002
  614SOL    HW2 1984   3.405   1.683   1.316  0.7957  2.3928 -2.2350
  615SOL     OW 1985   3.295   1.903   0.897 -0.0406 -0.9081  0.0505
  615SOL    HW1 1986   3.299   1.997   0.915 -0.1769 -0.8823 -0.0477
  615SOL    HW2 1987   3.386   1.876   0.892 -0.0030 -0.8881  0.6305
  616SOL     OW 1988   2.333   1.812   3.599 -0.0110 -0.2401 -0.4274
  616SOL    HW1 1989   2.279   1.767   3.534 -0.4446  1.7671 -1.5636
  616SOL    HW2 1990   2.420   1.818   3.558 -0.3821  1.3718 -1.0678
  617SOL     OW 1991   0.434   3.424   0.654  0.2159 -0.4153  0.7891
  617SOL    HW1 1992   0.527   3.432   0.634  0.1935  0.4044  0.9656
  617SOL    HW2 1993   0.405   3.347   0.605  0.5540  0.4803 -0.8715
  618SOL     OW 1994   2.510   3.635   3.137  0.3956  1.0303  0.1083
  618SOL    HW1 1995   2.511   3.557   3.081  0.9682  0.0982  1.3634
  618SOL    HW2 1996   2.438   3.688   3.103 -0.6079 -0.4722 -0.2187
  619SOL     OW 1997   1.522   2.080   3.161 -0.1344 -0.5380  0.0075
  619SOL    HW1 1998   1.462   2.006   3.167  0.1882 -0.7460  0.7980
  619SOL    HW2 1999   1.493   2.140   3.229 -0.9490  0.5004 -1.1999
  620SOL     OW 2000   2.906   3.638   0.995  0.5298  0.0164 -0.6317
  620SOL    HW1 2001   2.936   3.635   0.904 -1.4833  0.3561 -1.3575
  620SOL    HW2 2002   2.842   3.709   0.997  1.4583  0.8739  1.3843
  621SOL     OW 2003   0.795   3.040   2.336 -0.4837 -0.3735 -0.1330
  621SOL    HW1 2004   0.845   3.119   2.358 -1.5952  0.1330  0.6844
  621SOL    HW2 2005   0.801   2.985   2.414 -0.8463 -0.4972 -0.1917
  622SOL     OW 2006   0.258   1.344   3.466  0.3137  0.5074 -0.2298
  622SOL    HW1 2007   0.317   1.304   3.402 -0.2284  3.7551 -3.0484
  622SOL    HW2 2008   0.315   1.392   3.526  0.7001  0.3578 -0.4788
  623SOL     OW 2009   2.487   1.773   0.984 -0.1946  0.0704  0.8196
  623SOL    HW1 2010   2.392   1.776   0.982 -0.4016 -3.1352  0.1128
  623SOL    HW2 2011   2.512   1.715   0.912  2.2753  0.6643  1.0827
  624SOL     OW 2012   1.175   1.768   3.309  0.4494  1.0507 -0.3227
  624SOL    HW1 2013   1.160   1.854   3.348 -1.9585  0.4083  0.3524
  624SOL    HW2 2014   1.088   1.736   3.287  1.4293 -0.3877 -2.4620
  625SOL     OW 2015   1.191   0.359   1.998 -0.1496 -0.0422 -0.3906
  625SOL    HW1 2016   1.245   0.345   1.919 -1.4322 -0.8936 -1.1510
  625SOL    HW2 2017   1.102   0.339   1.970 -0.4656 -1.9198  1.6606
  626SOL     OW 2018   1.364   3.676   0.336  0.1272  0.3360  0.2204
  626SOL    HW1 2019   1.437   3.737   0.327  0.5592 -0.1836  0.2045
  626SOL    HW2 2020   1.299   3.725   0.388  0.7872  0.5278  0.8876
  627SOL     OW 2021   1.994   0.906   3.264 -0.1167  0.1229  0.1192
  627SOL    HW1 2022   1.978   0.936   3.353  1.0628 -0.2609  0.4813
  627SOL    HW2 2023   2.087   0.924   3.249  0.5101 -2.5927  0.1046
  628SOL     OW 2024   0.710   3.388   2.018  0.1067  0.0079 -0.1826
  628SOL    HW1 2025   0.760   3.459   2.058  1.6283 -0.3211 -1.3955
  628SOL    HW2 2026   0.659   3.430   1.950  1.6742 -0.0991 -1.4975
  629SOL     OW 2027   1.191   2.920   1.795  0.1844 -0.2419  0.2287
  629SOL    HW1 2028   1.205   2.865   1.873  0.7151 -3.3075 -1.8431
  629SOL    HW2 2029   1.274   2.966   1.784  1.2964 -2.2476 -0.2378
  630SOL     OW 2030   0.714   0.118   1.274 -0.0618 -0.0277  0.8050
  630SOL    HW1 2031   0.683   0.111   1.364  2.8046 -2.0987  1.7660
  630SOL    HW2 2032   0.793   0.172   1.279  0.4950 -0.6868 -0.3462
  631SOL     OW 2033   3.105   0.666   1.781  0.1085 -0.4392  0.0003
  631SOL    HW1 2034   3.046   0.666   1.856 -0.6740  1.1455 -0.5811
  631SOL    HW2 2035   3.168   0.736   1.799  2.0389 -2.2481  0.7224
  632SOL     OW 2036   3.527   0.145   2.236  0.6088 -0.4594 -0.3310
  632SOL    HW1 2037   3.446   0.128   2.285  0.1064  1.5021 -0.4055
  632SOL    HW2 2038   3.588   0.179   2.302  0.2459  1.2514 -0.8126
  633SOL     OW 2039   1.749   0.571   1.101  0.2152  0.1782 -0.0390
  633SOL    HW1 2040   1.762   0.503   1.035 -2.2779  0.1815 -0.6437
  633SOL    HW2 2041   1.818   0.556   1.165 -0.5858 -3.4183  0.2186
  634SOL     OW 2042   2.403   0.858   1.898  1.0632  0.7300  0.3243
  634SOL    HW1 2043   2.387   0.933   1.840  0.0181  0.5945  0.4174
  634SOL    HW2 2044   2.497   0.842   1.890  0.8495  0.2071 -1.9920
  635SOL     OW 2045   0.860   1.318   2.297  0.4682 -0.1729  0.2335
  635SOL    HW1 2046   0.951   1.293   2.279  0.1578 -0.9950 -0.2533
  635SOL    HW2 2047   0.861   1.413   2.297  1.3220 -0.1730  0.1719
  636SOL     OW 2048   1.776   2.459   1.843 -0.4748 -0.4417  0.8159
  636SOL    HW1 2049   1.682   2.473   1.857  0.0134  1.2637  3.0345
  636SOL    HW2 2050   1.804   2.410   1.920  0.4460 -1.0776  0.0857
  637SOL     OW 2051   1.800   0.569   0.761 -0.2805 -0.4083 -0.2323
  637SOL    HW1 2052   1.714   0.573   0.805 -0.7108  2.6458 -1.0863
  637SOL    HW2 2053   1.851   0.638   0.803  0.6305 -0.0307 -1.8710
  638SOL     OW 2054   1.337   1.530   1.556 -0.1770 -0.0369  0.0607
  638SOL    HW1 2055   1.283   1.455   1.579  1.1360 -0.9674  0.2549
  638SOL    HW2 2056   1.380   1.505   1.474 -0.5008  0.9334 -0.4180
  639SOL     OW 2057   2.156   0.076   0.824 -0.3105  0.2455  0.8310
  639SOL    HW1 2058   2.111   0.150   0.782  0.2328  2.2499  3.4724
  639SOL    HW2 2059   2.196   0.028   0.752 -1.6828  1.8414 -1.1241
  640SOL     OW 2060   2.808   0.785   3.147 -0.1955  0.0280  0.3604
  640SOL    HW1 2061   2.778   0.809   3.235  1.3015 -0.4606  1.0496
  640SOL    HW2 2062   2.815   0.869   3.100 -0.8453  0.3085  0.7505
  641SOL     OW 2063   0.440   2.630   0.774  0.6297 -0.1441  0.6042
  641SOL    HW1 2064   0.467   2.579   0.851  0.3516 -2.2115 -0.5848
  641SOL    HW2 2065   0.515   2.625   0.715 -0.7195 -2.4615 -1.0566
  642SOL     OW 2066   0.648   2.547   0.307  0.3620 -1.3864 -0.0768
  642SOL    HW1 2067   0.712   2.596   0.256 -0.3181 -1.4479 -1.0089
  642SOL    HW2 2068   0.687   2.460   0.318  0.1524 -1.6391 -1.2257
  643SOL     OW 2069   1.938   1.373   3.611 -0.2002 -0.5076 -0.4343
  643SOL    HW1 2070   1.951   1.399   3.702 -1.1819  0.5963 -0.5787
  643SOL    HW2 2071   2.023   1.340   3.582  0.7511  1.2217  0.2268
  644SOL     OW 2072   0.007   0.932   2.227 -0.2598 -0.5076  0.1501
  644SOL    HW1 2073   0.077   0.928   2.161 -1.5660 -1.6887 -1.2391
  644SOL    HW2 2074   0.049   0.906   2.309  0.4513 -3.8393 -1.1038
  645SOL     OW 2075   2.335   0.579   1.855  0.0258  0.1266 -0.7326
  645SOL    HW1 2076   2.424   0.544   1.849  0.2921  0.9679 -1.9069
  645SOL    HW2 2077   2.347   0.672   1.874 -0.6832 -0.3925  2.9103
  646SOL     OW 2078   2.654   2.966   2.352 -0.2382 -0.3957  0.4212
  646SOL    HW1 2079   2.587   2.898   2.344  1.4142 -1.9565 -1.1367
  646SOL    HW2 2080   2.619   3.027   2.417 -2.2540 -2.1892  1.1326
  647SOL     OW 2081   1.630   1.068   0.379  0.2268 -0.3801 -0.1219
  647SOL    HW1 2082   1.681   1.132   0.429  0.3797 -1.3997  1.0644
  647SOL    HW2 2083   1.565   1.121   0.332  0.2612  0.6326  0.9309
  648SOL     OW 2084   2.672   2.094   0.868 -0.0448  0.5121  0.1766
  648SOL    HW1 2085   2.694   2.099   0.961  2.4178  0.2599 -0.3071
  648SOL    HW2 2086   2.703   2.008   0.840 -0.0422  0.8765 -1.0204
  649SOL     OW 2087   3.418   2.292   2.527  0.1367 -0.4103 -0.1062
  649SOL    HW1 2088   3.352   2.351   2.490  1.1452 -0.0573 -1.4621
  649SOL    HW2 2089   3.404   2.295   2.621 -1.8596 -0.4669 -0.3604
  650SOL     OW 2090   3.461   1.008   0.560 -0.1567  0.0924 -0.5690
  650SOL    HW1 2091   3.541   1.061   0.553  0.2165 -0.1732  1.1616
  650SOL    HW2 2092   3.414   1.045   0.635 -0.3508 -1.4098  0.0939
  651SOL     OW 2093   2.640   1.130   0.704  0.0871  0.0825  0.6421
  651SOL    HW1 2094   2.596   1.197   0.756  1.0051 -1.1611  3.2428
  651SOL    HW2 2095   2.689   1.179   0.638 -1.5879  1.7289  0.5357
  652SOL     OW 2096   2.922   3.048   2.900 -0.3482 -0.5160 -0.4584
  652SOL    HW1 2097   2.828   3.061   2.915 -0.0695  0.2252  0.7017
  652SOL    HW2 2098   2.958   3.028   2.986  0.3878 -2.0578 -1.0818
  653SOL     OW 2099   0.244   1.229   2.404  0.7346 -0.1803  0.3454
  653SOL    HW1 2100   0.235   1.248   2.311  3.5301 -0.5552 -0.0961
  653SOL    HW2 2101   0.289   1.306   2.440 -1.0380  0.3288  1.6085
  654SOL     OW 2102   1.182   2.166   2.730 -0.3525  0.2979  0.4879
  654SOL    HW1 2103   1.229   2.084   2.714  0.2980  0.7235  0.1796
  654SOL    HW2 2104   1.094   2.138   2.758 -0.1940 -0.4975  0.2190
  655SOL     OW 2105   1.126   2.200   0.578 -0.4928 -0.5923 -0.0504
  655SOL    HW1 2106   1.147   2.136   0.646 -1.8389 -0.7987  0.2047
  655SOL    HW2 2107   1.179   2.173   0.503 -1.8753 -2.7832 -0.3361
  656SOL     OW 2108   2.140   0.574   1.603 -0.3949 -0.2297 -0.3354
  656SOL    HW1 2109   2.057   0.528   1.616 -0.2636 -0.5476 -0.5985
  656SOL    HW2 2110   2.193   0.550   1.679  0.2537 -1.8192 -1.2201
  657SOL     OW 2111   0.747   3.260   1.600  0.0939  0.0565  0.0143
  657SOL    HW1 2112   0.809   3.188   1.611 -1.1257 -1.0049  0.1426
  657SOL    HW2 2113   0.678   3.225   1.543 -1.8241  0.2268  2.0759
  658SOL     OW 2114   3.244   3.448   1.507 -0.2482 -0.0828  0.3243
  658SOL    HW1 2115   3.286   3.469   1.590  1.1330 -0.4862 -0.2414
  658SOL    HW2 2116   3.306   3.390   1.462 -1.2049 -0.3190 -0.7560
  659SOL     OW 2117   1.154   0.053   1.659  0.1419  0.5071 -0.3966
  659SOL    HW1 2118   1.068   0.076   1.622 -1.7045 -1.6933  2.1289
  659SOL    HW2 2119   1.165  -0.040   1.637  1.1624  0.3747  0.5913
  660SOL     OW 2120   2.256   2.647   0.740  0.4911  0.0437  0.1815
  660SOL    HW1 2121   2.346   2.619   0.759  0.7388 -0.7138 -1.8583
  660SOL    HW2 2122   2.266   2.727   0.688 -0.0377  0.2593  0.4036
  661SOL     OW 2123   0.594   0.126   0.952 -0.5988  0.2411  0.1880
  661SOL    HW1 2124   0.506   0.144   0.985 -0.9248 -0.7973 -0.0799
  661SOL    HW2 2125   0.590   0.147   0.859 -0.0223  1.9923  0.5315
  662SOL     OW 2126   2.684   1.915   1.875  0.6487 -0.7148 -0.1015
  662SOL    HW1 2127   2.776   1.937   1.860  0.2446  0.1643 -1.5553
  662SOL    HW2 2128   2.686   1.842   1.937  2.3702 -1.4266 -0.9352
  663SOL     OW 2129   2.651   1.034   0.282  0.3831 -0.4791 -0.3081
  663SOL    HW1 2130   2.596   0.962   0.254  0.9858 -0.2694 -2.1889
  663SOL    HW2 2131   2.737   1.014   0.246  0.6295  1.0364 -0.6365
  664SOL     OW 2132   0.508   3.210   0.852  0.3475  0.2673 -0.0957
  664SOL    HW1 2133   0.515   3.302   0.825 -1.3947  0.3893 -0.2331
  664SOL    HW2 2134   0.487   3.163   0.771 -0.1846 -0.0378  0.2150
  665SOL     OW 2135   3.454   2.242   1.186 -0.4561  0.7932  0.1180
  665SOL    HW1 2136   3.383   2.217   1.127 -0.0559 -0.0847 -0.0094
  665SOL    HW2 2137   3.413   2.255   1.271 -1.0454  2.0853 -0.3432
  666SOL     OW 2138   2.546   2.655   2.744 -0.1765 -0.2100  0.0322
  666SOL    HW1 2139   2.534   2.748   2.725 -1.2310 -0.4698 -0.6021
  666SOL    HW2 2140   2.560   2.652   2.839  0.2889  0.6241  0.0041
  667SOL     OW 2141   2.562   2.322   2.505  0.1066  0.3856  0.4753
  667SOL    HW1 2142   2.531   2.232   2.499 -3.2630  1.3518  0.9528
  667SOL    HW2 2143   2.649   2.320   2.466 -0.7315 -2.6531 -1.6702
  668SOL     OW 2144   3.454   1.435   3.080  0.1864  0.1501  1.3412
  668SOL    HW1 2145   3.499   1.468   3.003 -1.0740  1.2002  1.0043
  668SOL    HW2 2146   3.514   1.452   3.152  1.4757 -1.0546  0.5858
  669SOL     OW 2147   1.184   1.320   1.686  0.2133  0.6315  0.6397
  669SOL    HW1 2148   1.164   1.235   1.646 -0.0617  0.1528  1.7674
  669SOL    HW2 2149   1.221   1.298   1.771  2.3633  1.5779  0.0311
  670SOL     OW 2150   1.384   2.494   0.644  0.0265 -0.0493 -0.3342
  670SOL    HW1 2151   1.370   2.427   0.710 -0.8667  0.8967  0.4775
  670SOL    HW2 2152   1.373   2.577   0.691  0.4128  0.6630 -1.4516
  671SOL     OW 2153   2.890   1.740   2.451 -0.1067  0.2223  0.0356
  671SOL    HW1 2154   2.900   1.648   2.427 -0.1757 -0.5360  2.6258
  671SOL    HW2 2155   2.796   1.758   2.441  0.1105  0.4999 -1.8819
  672SOL     OW 2156   2.282   1.532   0.586 -0.3121  0.4988  0.1341
  672SOL    HW1 2157   2.199   1.564   0.621 -0.8436 -0.9028  0.1927
  672SOL    HW2 2158   2.264   1.515   0.494  0.1033  0.7907 -0.0055
  673SOL     OW 2159   1.925   0.276   2.956  0.1352  0.3733  0.5570
  673SOL    HW1 2160   1.892   0.271   2.866  3.3354  0.0493 -0.7354
  673SOL    HW2 2161   1.895   0.361   2.988  1.5019  1.9425 -2.0051
  674SOL     OW 2162   1.097   0.621   3.696 -0.2640  0.1686  0.1575
  674SOL    HW1 2163   1.009   0.598   3.666 -0.4377 -0.0065  0.7669
  674SOL    HW2 2164   1.143   0.537   3.703 -0.1334  0.2346  0.0999
  675SOL     OW 2165   3.520   2.919   0.258 -0.4104 -0.1905  0.5376
  675SOL    HW1 2166   3.472   2.852   0.210  1.4672 -0.5221 -0.9861
  675SOL    HW2 2167   3.469   2.999   0.245 -0.6253 -0.5452 -0.9408
  676SOL     OW 2168   3.211   0.380   1.451 -0.3507 -0.9260 -0.3277
  676SOL    HW1 2169   3.200   0.468   1.417 -0.2532 -0.7921 -0.0196
  676SOL    HW2 2170   3.180   0.322   1.381 -1.4714 -0.6202 -0.1071
  677SOL     OW 2171   0.176   0.435   1.093 -0.0353 -0.7057 -0.3045
  677SOL    HW1 2172   0.234   0.469   1.161 -1.2031 -1.1391  0.9567
  677SOL    HW2 2173   0.129   0.512   1.061 -0.7020 -0.7367  0.5929
  678SOL     OW 2174   0.055   0.375   2.154  0.2653 -0.4936 -0.6564
  678SOL    HW1 2175   0.143   0.338   2.145 -0.0250 -1.3273 -0.1460
  678SOL    HW2 2176   0.010   0.350   2.073  1.0945  1.6795 -1.8585
  679SOL     OW 2177   1.552   0.160   1.826  0.1577  0.2330  0.3770
  679SOL    HW1 2178   1.578   0.092   1.764  1.0112 -0.9546  1.9683
  679SOL    HW2 2179   1.529   0.113   1.906 -3.4027  1.4981  0.2957
  680SOL     OW 2180   0.450   0.062   1.228 -0.2132  0.1928  0.0410
  680SOL    HW1 2181   0.540   0.070   1.261  0.8730 -0.6862 -2.5055
  680SOL    HW2 2182   0.453  -0.011   1.167 -2.9897 -0.6706  0.7983
  681SOL     OW 2183   1.098   1.195   3.165 -0.0838  0.3218 -0.0500
  681SOL    HW1 2184   1.144   1.150   3.094 -0.5023 -1.1276  0.5548
  681SOL    HW2 2185   1.125   1.287   3.158 -0.8013  0.4200 -2.6476
  682SOL     OW 2186   2.430   0.120   3.409 -0.2684 -0.4813  0.2934
  682SOL    HW1 2187   2.462   0.050   3.351 -0.2490  0.0743 -0.3731
  682SOL    HW2 2188   2.371   0.171   3.354 -0.0281  0.2199  0.6801
  683SOL     OW 2189   0.666   2.997   3.055 -0.0980  1.1833  0.3060
  683SOL    HW1 2190   0.577   2.970   3.078 -0.3303  1.5251 -0.1742
  683SOL    HW2 2191   0.691   3.061   3.122 -0.6752  1.9927 -0.2360
  684SOL     OW 2192   2.319   1.859   1.476  0.1495  0.0799  0.2039
  684SOL    HW1 2193   2.307   1.860   1.570 -1.8488 -1.4709  0.0534
  684SOL    HW2 2194   2.361   1.774   1.458 -1.7246 -0.7772 -0.4267
  685SOL     OW 2195   1.618   0.305   2.047 -0.5302 -0.0718  0.5025
  685SOL    HW1 2196   1.611   0.213   2.074  1.5980 -0.9713 -1.7376
  685SOL    HW2 2197   1.596   0.304   1.954 -1.3211  1.8780  0.6318
  686SOL     OW 2198   1.578   0.373   1.394 -0.6363  0.5561 -0.1598
  686SOL    HW1 2199   1.532   0.405   1.471  2.3363  0.1268  1.9516
  686SOL    HW2 2200   1.602   0.451   1.345  0.0331  1.0593  0.9526
  687SOL     OW 2201   2.454   1.418   2.071 -0.2092 -0.2897  0.1497
  687SOL    HW1 2202   2.478   1.478   2.001 -1.2771  1.6366  1.3298
  687SOL    HW2 2203   2.510   1.341   2.059  1.2468  0.9641 -1.4035
  688SOL     OW 2204   1.898   0.508   3.074 -0.1431 -0.1910 -0.0173
  688SOL    HW1 2205   1.841   0.477   3.145 -0.4868 -0.3729 -0.3663
  688SOL    HW2 2206   1.952   0.575   3.114  0.0422 -0.6734  0.5548
  689SOL     OW 2207   2.624   1.708   0.438  0.0771  0.7074 -0.1459
  689SOL    HW1 2208   2.693   1.749   0.490  0.7306 -0.4908 -0.0325
  689SOL    HW2 2209   2.618   1.619   0.472 -1.8886  0.9257  0.1842
  690SOL     OW 2210   3.364   1.304   2.177  1.2182  0.8971 -0.4330
  690SOL    HW1 2211   3.404   1.218   2.192 -1.4740 -0.7312 -1.7285
  690SOL    HW2 2212   3.426   1.349   2.120  2.6420 -0.2127  0.1470
  691SOL     OW 2213   1.316   1.804   1.111 -0.6128  0.4691 -0.3423
  691SOL    HW1 2214   1.271   1.879   1.151 -1.9609 -0.8192  0.6701
  691SOL    HW2 2215   1.365   1.764   1.184  0.2909  0.4708 -0.9243
  692SOL     OW 2216   0.160   2.474   1.168 -0.0637 -0.7277  0.1386
  692SOL    HW1 2217   0.129   2.451   1.255  1.2156 -4.0245 -0.1458
  692SOL    HW2 2218   0.252   2.498   1.181 -0.1437 -0.2296 -0.1930
  693SOL     OW 2219   3.167   2.331   0.410  0.1705 -0.0651  0.4027
  693SOL    HW1 2220   3.090   2.281   0.383  0.4575 -1.0322  1.3394
  693SOL    HW2 2221   3.131   2.412   0.447 -0.2949  0.4169 -1.0158
  694SOL     OW 2222   3.175   0.447   0.621  0.2019 -0.4171  0.5860
  694SOL    HW1 2223   3.141   0.440   0.532 -2.7895  0.4353  1.5430
  694SOL    HW2 2224   3.209   0.536   0.627 -1.9880  0.4307  0.9899
  695SOL     OW 2225   0.863   0.407   3.147  0.2315  0.0582 -0.1050
  695SOL    HW1 2226   0.769   0.393   3.157  0.2128 -0.4836 -0.9607
  695SOL    HW2 2227   0.873   0.436   3.056  0.7815  1.1792  0.2858
  696SOL     OW 2228   1.035   2.269   2.164  0.2448  0.1592  0.5234
  696SOL    HW1 2229   1.020   2.175   2.175 -3.4619  0.3502 -1.5003
  696SOL    HW2 2230   1.040   2.282   2.069 -0.4788  2.1059  0.6986
  697SOL     OW 2231   1.937   1.761   0.058  0.3425  0.5902 -0.4016
  697SOL    HW1 2232   1.958   1.786  -0.032  2.6415  1.1438  0.2286
  697SOL    HW2 2233   2.019   1.772   0.106 -0.3165 -1.5177  1.3916
  698SOL     OW 2234   2.839   3.373   3.617 -0.5523  0.2330 -0.8379
  698SOL    HW1 2235   2.834   3.413   3.530 -0.0959 -0.3219 -1.1244
  698SOL    HW2 2236   2.873   3.286   3.601 -3.1182 -0.9502 -0.4280
  699SOL     OW 2237   1.284   2.192   2.409 -0.4685 -0.5201  0.2416
  699SOL    HW1 2238   1.282   2.286   2.427  0.8499 -0.6476  1.2391
  699SOL    HW2 2239   1.348   2.183   2.338 -1.6171 -0.5520 -0.8170
  700SOL     OW 2240   1.995   2.333   0.586  0.1202  0.2166 -0.0432
  700SOL    HW1 2241   1.910   2.320   0.544  0.0856  0.1616  0.0450
  700SOL    HW2 2242   2.055   2.276   0.538  0.2200  0.6712 -0.4661
  701SOL     OW 2243   3.353   2.196   2.919 -0.3262 -0.1825  0.1050
  701SOL    HW1 2244   3.349   2.188   3.015 -4.3328 -0.2641  0.1269
  701SOL    HW2 2245   3.343   2.106   2.888  1.0858 -0.1700 -0.4360
  702SOL     OW 2246   2.974   1.043   1.549  0.5116  0.1331 -0.1843
  702SOL    HW1 2247   3.022   1.125   1.536 -0.8367  1.1194  0.8167
  702SOL    HW2 2248   2.923   1.032   1.470  0.0036  0.7550  0.0521
  703SOL     OW 2249   0.516   3.355   2.389 -0.1873  0.5085 -0.7410
  703SOL    HW1 2250   0.605   3.388   2.401  0.2046  0.3053 -2.6975
  703SOL    HW2 2251   0.460   3.421   2.430  0.7927  1.4430 -0.8513
  704SOL     OW 2252   3.198   1.818   1.703  0.3471 -0.1920  0.4695
  704SOL    HW1 2253   3.282   1.862   1.709  0.7465 -1.0842  2.2529
  704SOL    HW2 2254   3.215   1.730   1.737 -1.2943 -0.3884  0.8652
  705SOL     OW 2255   2.998   2.183   2.778  0.2556 -0.0388  0.1786
  705SOL    HW1 2256   3.009   2.162   2.871  1.9928  0.0902  0.0455
  705SOL    HW2 2257   3.008   2.099   2.733  2.0912  0.2262 -0.0176
  706SOL     OW 2258   0.762   2.291   3.399 -0.3474 -0.4043  0.3189
  706SOL    HW1 2259   0.685   2.349   3.404  0.7858  1.2955 -0.7268
  706SOL    HW2 2260   0.731   2.208   3.435 -2.3061  0.5835  1.1314
  707SOL     OW 2261   1.622   2.187   2.334 -0.2197 -0.1913  0.0084
  707SOL    HW1 2262   1.712   2.166   2.310 -0.1246  0.1293  0.0812
  707SOL    HW2 2263   1.582   2.103   2.356  0.4151 -0.2079  1.1923
  708SOL     OW 2264   3.388   0.615   2.477  0.4187  0.4581  0.3303
  708SOL    HW1 2265   3.361   0.706   2.477  0.4241  0.4624  1.0664
  708SOL    HW2 2266   3.473   0.616   2.432 -0.4798  0.5179 -1.4552
  709SOL     OW 2267   2.297   3.163   2.537  0.2908  0.0940  0.2800
  709SOL    HW1 2268   2.298   3.228   2.607 -1.3565 -0.3278  0.7384
  709SOL    HW2 2269   2.221   3.186   2.484  1.3290  0.2095 -1.2104
  710SOL     OW 2270   2.890   1.635   1.739  0.0876 -0.7803 -0.1074
  710SOL    HW1 2271   2.812   1.688   1.723  0.1507 -0.4277  0.7092
  710SOL    HW2 2272   2.951   1.695   1.782  0.5734 -1.2286 -0.1571
  711SOL     OW 2273   1.368   0.811   1.377  0.4268  0.3669 -0.1149
  711SOL    HW1 2274   1.413   0.728   1.392 -0.4431 -0.1657 -0.3802
  711SOL    HW2 2275   1.277   0.795   1.403  0.2268  1.2039 -0.2579
  712SOL     OW 2276   0.883   1.979   0.376  0.0525 -0.2651 -0.5511
  712SOL    HW1 2277   0.841   2.048   0.324 -0.5974  1.0906  1.6387
  712SOL    HW2 2278   0.976   1.984   0.352  0.0598  1.5667 -0.3303
  713SOL     OW 2279   2.227   3.327   2.201 -0.7203 -0.2583  0.1734
  713SOL    HW1 2280   2.149   3.382   2.204 -0.2219  0.5510 -1.0446
  713SOL    HW2 2281   2.210   3.263   2.133  0.0136  0.5078 -0.7716
  714SOL     OW 2282   0.714   0.832   0.634 -0.3563  0.6825 -0.3855
  714SOL    HW1 2283   0.753   0.758   0.587 -0.6653  1.2697 -1.6299
  714SOL    HW2 2284   0.757   0.832   0.719 -0.3781 -0.9481 -0.3415
  715SOL     OW 2285   1.639   2.153   0.904 -0.2431 -0.1708 -0.0215
  715SOL    HW1 2286   1.680   2.209   0.971 -0.1982 -1.9689  1.5206
  715SOL    HW2 2287   1.699   2.079   0.894 -0.2527  0.0290 -2.1213
  716SOL     OW 2288   0.699   1.378   2.651  0.1315  0.1461  0.1146
  716SOL    HW1 2289   0.659   1.455   2.611  0.3618  0.0930 -0.2244
  716SOL    HW2 2290   0.633   1.309   2.642  0.2187  0.1103 -0.2616
  717SOL     OW 2291   2.999   3.024   3.144 -0.0335  0.0602  0.1098
  717SOL    HW1 2292   3.058   3.095   3.171 -1.3212  1.3268 -0.2486
  717SOL    HW2 2293   2.992   2.967   3.220  1.3174  0.1049  0.2865
  718SOL     OW 2294   3.407   3.197   3.368  0.6444 -0.0883  0.2214
  718SOL    HW1 2295   3.441   3.212   3.456  0.8128  1.4376 -0.0820
  718SOL    HW2 2296   3.485   3.195   3.312  0.4272  0.7608 -0.1228
  719SOL     OW 2297   2.983   3.499   0.406  0.3570 -0.2135 -0.0065
  719SOL    HW1 2298   2.979   3.589   0.372 -0.2959 -0.6886 -1.2524
  719SOL    HW2 2299   3.066   3.494   0.452 -0.1737  1.4147  1.2164
  720SOL     OW 2300   1.923   2.185   0.858  0.3128 -0.6820  0.1189
  720SOL    HW1 2301   1.988   2.251   0.883  0.0090 -0.7238  1.0841
  720SOL    HW2 2302   1.888   2.215   0.775 -0.9686  1.2570  1.2801
  721SOL     OW 2303   3.629   2.127   0.189  0.4676 -0.6375 -0.1434
  721SOL    HW1 2304   3.605   2.167   0.273 -0.4214 -1.3575 -0.0380
  721SOL    HW2 2305   3.633   2.199   0.127 -1.0838 -0.3701  0.0438
  722SOL     OW 2306   1.785   1.197   2.866 -0.1610 -0.1385  0.2114
  722SOL    HW1 2307   1.806   1.107   2.891  0.7030  0.5902  2.3014
  722SOL    HW2 2308   1.733   1.231   2.939  1.3761  1.7115  0.5443
  723SOL     OW 2309   0.044   0.791   1.299 -0.0433 -0.2208  0.1307
  723SOL    HW1 2310   0.012   0.701   1.291 -0.2792 -0.0546 -1.0024
  723SOL    HW2 2311  -0.006   0.828   1.371 -1.2335 -0.4780 -0.5280
  724SOL     OW 2312   2.968   2.947   3.420  0.2630  0.0654 -0.0203
  724SOL    HW1 2313   2.908   3.008   3.464  0.1442  0.9488 -1.3359
  724SOL    HW2 2314   3.034   2.926   3.486 -0.0078  1.2147  0.6405
  725SOL     OW 2315   2.561   1.758   2.824 -0.0627 -0.1292  0.1618
  725SOL    HW1 2316   2.609   1.719   2.898 -0.8579  0.7647  1.1795
  725SOL    HW2 2317   2.627   1.805   2.774  0.3890 -0.2665  0.6227
  726SOL     OW 2318   3.736   3.576   3.391  0.7164 -0.1180  0.0386
  726SOL    HW1 2319   3.751   3.511   3.459  3.0278  0.6493  0.3479
  726SOL    HW2 2320   3.649   3.556   3.358  0.0750 -1.3697  2.2662
  727SOL     OW 2321   2.215   3.105   0.986  0.3373  0.1136 -0.2585
  727SOL    HW1 2322   2.203   3.051   0.908  1.9726 -1.2404  0.3700
  727SOL    HW2 2323   2.194   3.047   1.059  1.0622  0.6435  0.3875
  728SOL     OW 2324   2.014   3.212   3.482 -0.2286 -0.7945 -0.0517
  728SOL    HW1 2325   2.099   3.253   3.470 -0.3357  0.0424  1.7739
  728SOL    HW2 2326   2.031   3.137   3.539 -0.6736 -0.8067  0.0697
  729SOL     OW 2327   0.434   3.128   3.644  0.2702  0.0998  0.2056
  729SOL    HW1 2328   0.459   3.158   3.732  0.1730 -0.5234  0.4486
  729SOL    HW2 2329   0.384   3.048   3.659  2.9069 -1.8238 -0.5338
  730SOL     OW 2330   0.111   1.602   1.392 -0.0350 -0.2153 -0.0270
  730SOL    HW1 2331   0.184   1.663   1.400  1.0520 -1.5433  0.6700
  730SOL    HW2 2332   0.043   1.651   1.346  0.4274  1.8182  1.3351
  731SOL     OW 2333   0.149   0.123   2.725 -0.0402 -0.0268  0.0885
  731SOL    HW1 2334   0.228   0.166   2.694 -0.3075 -1.5368 -3.0797
  731SOL    HW2 2335   0.146   0.040   2.677 -2.7234 -0.7501  1.3007
  732SOL     OW 2336   1.888   0.306   0.774 -0.1366  0.5578  0.0048
  732SOL    HW1 2337   1.860   0.394   0.747 -1.0088  0.1716 -0.3811
  732SOL    HW2 2338   1.848   0.294   0.860  1.1432  1.0727  0.7016
  733SOL     OW 2339   2.820   1.804   3.662 -0.3047 -0.2390 -0.2521
  733SOL    HW1 2340   2.749   1.805   3.598  0.0949  0.1245 -0.6981
  733SOL    HW2 2341   2.776   1.807   3.746 -0.8180  0.5054 -0.5310
  734SOL     OW 2342   2.294   0.518   3.260  0.3106 -1.0751 -0.5947
  734SOL    HW1 2343   2.371   0.551   3.308  0.0274 -0.7034 -0.3951
  734SOL    HW2 2344   2.302   0.556   3.173 -1.5058  1.9101  0.4172
  735SOL     OW 2345   0.670   3.510   1.366  0.1992 -0.4252  0.3884
  735SOL    HW1 2346   0.594   3.501   1.424  0.2936 -0.5117  0.4990
  735SOL    HW2 2347   0.633   3.507   1.278 -0.3242  2.6122  0.3888
  736SOL     OW 2348   1.154   1.608   1.988 -0.0614  0.0478 -0.2161
  736SOL    HW1 2349   1.248   1.601   2.008 -0.2309 -2.9303 -0.0278
  736SOL    HW2 2350   1.111   1.568   2.063 -1.6858  2.7394  0.4276
  737SOL     OW 2351   3.184   3.532   3.364  0.1503 -0.3661  0.0949
  737SOL    HW1 2352   3.242   3.571   3.299  0.0104 -1.3467 -0.6349
  737SOL    HW2 2353   3.151   3.452   3.322  0.1316 -1.0666  1.4038
  738SOL     OW 2354   1.710   1.143   3.134 -0.5589  0.2950 -0.9072
  738SOL    HW1 2355   1.696   1.209   3.201 -0.3796 -1.2413  0.7113
  738SOL    HW2 2356   1.802   1.119   3.143 -1.2285 -2.0631  0.4121
  739SOL     OW 2357   0.636   1.778   0.162 -0.3352  0.2907  0.1363
  739SOL    HW1 2358   0.588   1.782   0.080  0.6652  0.8198 -0.4463
  739SOL    HW2 2359   0.616   1.861   0.206 -0.7991  0.0465  0.3903
  740SOL     OW 2360   0.171   3.479   1.163  0.6512  0.1429 -0.0173
  740SOL    HW1 2361   0.120   3.420   1.108  0.2219 -0.3476  0.8754
  740SOL    HW2 2362   0.261   3.468   1.132  0.4246 -0.1371 -0.6002
  741SOL     OW 2363   0.633   0.569   1.856  0.0597  0.0049 -0.6358
  741SOL    HW1 2364   0.575   0.641   1.832  0.8373  0.8433 -0.0834
  741SOL    HW2 2365   0.696   0.609   1.916 -0.2310 -1.4090  0.6754
  742SOL     OW 2366   0.059   0.456   1.673 -0.1779  0.0285  0.1680
  742SOL    HW1 2367   0.026   0.389   1.733 -3.7904  1.6373  0.2276
  742SOL    HW2 2368   0.052   0.415   1.586  0.6342 -0.6978  0.4313
  743SOL     OW 2369   1.961   2.739   2.948 -0.2599  0.2233  0.0449
  743SOL    HW1 2370   1.991   2.651   2.970 -0.6594 -0.0371 -0.4287
  743SOL    HW2 2371   1.993   2.794   3.019  0.8369 -0.1454 -0.1443
  744SOL     OW 2372   0.062   0.113   1.791 -0.4899  0.1963  0.3067
  744SOL    HW1 2373   0.132   0.083   1.733  0.4104  0.7785  1.0565
  744SOL    HW2 2374  -0.005   0.045   1.785 -0.2735  0.0646 -1.1228
  745SOL     OW 2375   3.016   1.872   0.140 -0.3073 -0.5870  0.8154
  745SOL    HW1 2376   3.076   1.947   0.137  0.3716 -1.0839  1.4505
  745SOL    HW2 2377   2.960   1.883   0.064  1.4529 -0.7857 -0.5833
  746SOL     OW 2378   3.049   0.695   0.937 -0.3124  0.6331  0.1068
  746SOL    HW1 2379   2.959   0.698   0.906 -0.6342  0.7831  1.0104
  746SOL    HW2 2380   3.046   0.735   1.024  0.6264  0.6485  0.1479
  747SOL     OW 2381   0.758   0.386   1.039  0.2601  0.8035  0.0084
  747SOL    HW1 2382   0.700   0.450   0.998 -0.5704 -1.0422 -1.8507
  747SOL    HW2 2383   0.712   0.359   1.119 -1.5907 -0.7062 -1.4785
  748SOL     OW 2384   3.613   2.083   2.718 -0.1779 -0.3013 -0.2059
  748SOL    HW1 2385   3.646   2.139   2.789 -0.1190 -0.8280  0.1854
  748SOL    HW2 2386   3.585   2.145   2.650  1.8921  0.1724 -0.6894
  749SOL     OW 2387   1.646   3.069   0.672  0.7170 -0.2141  0.1561
  749SOL    HW1 2388   1.728   3.018   0.663  0.4408 -0.4232 -1.6919
  749SOL    HW2 2389   1.655   3.115   0.755  0.8169 -3.5858  2.1871
  750SOL     OW 2390   0.349   1.770   1.443 -0.2472 -0.9363 -0.5719
  750SOL    HW1 2391   0.398   1.852   1.445  0.7592 -1.5290  0.6922
  750SOL    HW2 2392   0.367   1.734   1.356 -0.6307  0.1174 -1.1086
  751SOL     OW 2393   2.127   0.302   1.291  0.0230 -0.4120  0.3303
  751SOL    HW1 2394   2.215   0.304   1.254 -0.3790  0.2374 -0.6509
  751SOL    HW2 2395   2.125   0.376   1.352 -0.4042  0.7701 -1.0661
  752SOL     OW 2396   2.244   2.194   0.461 -0.2420 -0.2738 -0.4652
  752SOL    HW1 2397   2.289   2.158   0.538 -0.7462 -2.4969 -1.1469
  752SOL    HW2 2398   2.299   2.268   0.434  0.9966 -0.6491  0.8770
  753SOL     OW 2399   2.239   3.551   3.556 -0.4495  0.2795  0.1170
  753SOL    HW1 2400   2.319   3.593   3.524 -0.5258 -0.4149 -1.0580
  753SOL    HW2 2401   2.206   3.610   3.624  0.4166  1.1827 -0.2208
  754SOL     OW 2402   2.373   2.917   1.965  0.0829  0.2585  0.5093
  754SOL    HW1 2403   2.403   2.888   1.879  1.6495  1.4607  0.6053
  754SOL    HW2 2404   2.342   2.837   2.008  0.5871 -0.5864 -0.6491
  755SOL     OW 2405   0.364   1.940   3.532 -0.6068  0.2288  0.2365
  755SOL    HW1 2406   0.364   1.916   3.439  1.1056  0.3796  0.1663
  755SOL    HW2 2407   0.272   1.950   3.554 -1.0393  0.3342 -1.4896
  756SOL     OW 2408   2.327   1.967   2.871 -0.4171 -0.4882  0.0904
  756SOL    HW1 2409   2.407   1.976   2.819 -0.2112  0.3979  0.5273
  756SOL    HW2 2410   2.266   1.921   2.814 -0.2334  0.5542 -0.9964
  757SOL     OW 2411   3.214   1.680   0.041 -0.1028  0.1641 -0.5544
  757SOL    HW1 2412   3.309   1.692   0.037 -0.1631  0.6240 -0.6327
  757SOL    HW2 2413   3.187   1.730   0.118 -0.2991  0.1407 -0.6087
  758SOL     OW 2414   1.676   2.123   1.984 -0.0700 -0.0071  0.6573
  758SOL    HW1 2415   1.744   2.056   1.985 -0.4521 -0.4432 -0.6061
  758SOL    HW2 2416   1.714   2.196   2.033  2.7011  1.0915 -2.7465
  759SOL     OW 2417   2.910   3.287   0.937  0.3364  0.0266  0.4403
  759SOL    HW1 2418   2.947   3.373   0.917 -0.9041  0.4067 -0.3987
  759SOL    HW2 2419   2.815   3.301   0.934  0.1157 -1.1548  1.2941
  760SOL     OW 2420   3.661   2.303   2.870  0.2919  1.1481  0.7069
  760SOL    HW1 2421   3.574   2.273   2.896  0.0160  1.4324  0.1165
  760SOL    HW2 2422   3.663   2.396   2.893 -1.0477  2.2198 -2.8843
  761SOL     OW 2423   1.344   0.449   2.246  0.1334 -0.1100  0.4450
  761SOL    HW1 2424   1.349   0.542   2.223  2.9014 -0.0230  1.0178
  761SOL    HW2 2425   1.313   0.407   2.166 -0.3375  1.2002 -0.1043
  762SOL     OW 2426   2.346   1.650   2.176 -0.3142  0.1198  1.1881
  762SOL    HW1 2427   2.392   1.574   2.142  0.7427  0.9431  0.7401
  762SOL    HW2 2428   2.304   1.618   2.256 -1.2600 -1.3403  0.1544
  763SOL     OW 2429   2.255   3.558   1.048  0.2224 -0.2539  0.1039
  763SOL    HW1 2430   2.205   3.486   1.009 -0.1749  0.5452 -0.9146
  763SOL    HW2 2431   2.188   3.616   1.084  0.5257 -0.2129  0.5998
  764SOL     OW 2432   0.353   2.980   0.385  0.0922 -0.1170  0.4200
  764SOL    HW1 2433   0.395   2.912   0.438 -0.0982 -0.8390 -0.3215
  764SOL    HW2 2434   0.260   2.971   0.406 -0.3189 -2.0457 -1.7297
  765SOL     OW 2435   0.067   2.314   3.591  0.0494 -0.0074  0.4676
  765SOL    HW1 2436   0.047   2.371   3.666  1.3992  0.7892  0.2444
  765SOL    HW2 2437   0.099   2.374   3.523 -1.7910 -0.6254 -1.0330
  766SOL     OW 2438   1.332   3.215   2.290 -0.0695  0.2548  0.1665
  766SOL    HW1 2439   1.403   3.151   2.284  1.9236  2.3840 -0.0470
  766SOL    HW2 2440   1.260   3.175   2.241  0.9256 -1.9815  0.4032
  767SOL     OW 2441   0.456   2.908   0.768 -0.0002  0.6253 -0.3357
  767SOL    HW1 2442   0.547   2.909   0.738  0.1840 -0.5451  0.1231
  767SOL    HW2 2443   0.434   2.815   0.772 -0.9763  0.8744  0.2822
  768SOL     OW 2444   2.516   2.928   3.323  0.3535 -0.3010  0.1213
  768SOL    HW1 2445   2.607   2.952   3.337 -0.0766  0.8133  1.2041
  768SOL    HW2 2446   2.484   2.902   3.409 -1.0642  2.0151  0.4007
  769SOL     OW 2447   3.633   1.356   1.388  0.4609  0.2989  0.2393
  769SOL    HW1 2448   3.641   1.447   1.419 -3.6934  1.3964 -1.2801
  769SOL    HW2 2449   3.695   1.350   1.315  0.4576  2.0907  0.0503
  770SOL     OW 2450   2.734   1.198   1.742 -0.2348  0.4583 -0.1999
  770SOL    HW1 2451   2.769   1.117   1.703 -3.1787 -1.4344  0.7328
  770SOL    HW2 2452   2.809   1.257   1.746  1.7697 -1.7295 -2.1751
  771SOL     OW 2453   0.109   2.056   3.557  0.6471 -0.1724 -0.1257
  771SOL    HW1 2454   0.121   2.058   3.462 -1.0286  1.3068 -0.3681
  771SOL    HW2 2455   0.076   2.143   3.578  0.7715 -0.5575  1.8006
  772SOL     OW 2456   1.359   1.614   2.678 -0.2430 -0.0695  0.2883
  772SOL    HW1 2457   1.337   1.533   2.633  0.4543 -0.6034  0.8729
  772SOL    HW2 2458   1.275   1.652   2.703 -0.5752 -0.6169  0.0086
  773SOL     OW 2459   3.400   2.383   0.323 -0.0682  0.2354  0.3192
  773SOL    HW1 2460   3.306   2.376   0.335 -0.0700 -0.6451 -0.1255
  773SOL    HW2 2461   3.414   2.366   0.229  0.6054 -0.5101  0.5462
  774SOL     OW 2462   1.731   3.629   1.233 -0.0821  0.6860  0.0749
  774SOL    HW1 2463   1.813   3.630   1.283 -0.4083  2.7325  0.6444
  774SOL    HW2 2464   1.751   3.576   1.155  1.0380 -0.8392  1.3310
  775SOL     OW 2465   0.410   2.843   2.245  0.8863  0.0542 -0.2276
  775SOL    HW1 2466   0.366   2.907   2.300  0.4167 -0.1184 -0.4036
  775SOL    HW2 2467   0.488   2.889   2.213 -0.6054  1.3525 -2.2391
  776SOL     OW 2468   3.440   2.119   2.041  0.1859  0.3293 -0.0564
  776SOL    HW1 2469   3.471   2.207   2.063  2.0514 -0.2031 -0.4009
  776SOL    HW2 2470   3.514   2.077   1.998 -0.7563 -1.3410 -0.1450
  777SOL     OW 2471   1.303   1.780   0.783 -0.3590  0.3896 -1.4014
  777SOL    HW1 2472   1.236   1.736   0.730  0.5302 -1.3624 -1.1440
  777SOL    HW2 2473   1.297   1.738   0.869  0.4480  0.8520 -1.1088
  778SOL     OW 2474   1.676   2.883   3.509 -0.0064  0.6855 -0.3426
  778SOL    HW1 2475   1.704   2.836   3.587  2.7008  1.5995 -0.6454
  778SOL    HW2 2476   1.697   2.824   3.437  0.6737  1.1625 -0.5475
  779SOL     OW 2477   1.691   3.450   2.432  0.0105 -0.5526  0.1457
  779SOL    HW1 2478   1.596   3.440   2.442 -0.2478 -0.6066 -1.8338
  779SOL    HW2 2479   1.702   3.541   2.402  0.5530 -0.6525  0.0393
  780SOL     OW 2480   2.802   1.006   2.233  0.0993 -0.0824  0.0691
  780SOL    HW1 2481   2.807   0.911   2.234  0.9510 -0.1484  3.2017
  780SOL    HW2 2482   2.893   1.035   2.247 -0.4424  1.0103  1.7985
  781SOL     OW 2483   1.441   0.385   3.172 -0.1515  0.5654 -0.0266
  781SOL    HW1 2484   1.422   0.422   3.259 -1.2245  0.6973 -0.3058
  781SOL    HW2 2485   1.529   0.350   3.181 -0.9979 -1.3572  1.8013
  782SOL     OW 2486   1.823   2.482   1.052  0.2633  0.3238 -0.1310
  782SOL    HW1 2487   1.917   2.467   1.059  0.1893  0.0192  0.2534
  782SOL    HW2 2488   1.805   2.482   0.958  0.3608 -1.4709 -0.1822
  783SOL     OW 2489   2.904   1.685   0.721  0.0680  0.8605  0.3170
  783SOL    HW1 2490   2.893   1.596   0.686 -0.1113  1.0982 -0.2375
  783SOL    HW2 2491   2.992   1.711   0.694 -0.4250  1.4174 -0.8324
  784SOL     OW 2492   0.533   1.547   0.942  0.5472  0.5431  0.0339
  784SOL    HW1 2493   0.628   1.537   0.940  0.4183 -0.6744 -0.6075
  784SOL    HW2 2494   0.503   1.513   0.858 -0.4345  1.3336  0.0417
  785SOL     OW 2495   3.367   0.400   2.186 -0.2308  0.4228  0.0501
  785SOL    HW1 2496   3.438   0.335   2.188  0.7250  1.4381  1.9475
  785SOL    HW2 2497   3.413   0.485   2.192 -1.5036  1.2565 -1.2465
  786SOL     OW 2498   2.266   1.526   2.392 -0.0693 -0.4986 -0.2265
  786SOL    HW1 2499   2.198   1.465   2.419  1.4243 -1.9714  0.3610
  786SOL    HW2 2500   2.296   1.566   2.474  0.9426 -1.1405 -0.2725
  787SOL     OW 2501   2.171   1.834   0.180 -0.7289  0.3686  0.2331
  787SOL    HW1 2502   2.163   1.793   0.266  0.4918 -0.8175 -0.1821
  787SOL    HW2 2503   2.160   1.928   0.197 -0.2418  0.1755  1.7349
  788SOL     OW 2504   3.234   3.342   2.656  0.5029  0.6748 -0.1465
  788SOL    HW1 2505   3.189   3.261   2.682  2.1231 -0.3051 -0.2873
  788SOL    HW2 2506   3.241   3.393   2.736  0.2147  0.3195  0.1064
  789SOL     OW 2507   3.617   2.972   1.404  0.3273  0.1338 -0.2532
  789SOL    HW1 2508   3.711   2.984   1.390  0.4671 -1.4075 -0.8808
  789SOL    HW2 2509   3.606   2.972   1.499  1.0791 -0.3977 -0.1578
  790SOL     OW 2510   1.615   3.291   1.421 -0.5434  0.2167  0.5026
  790SOL    HW1 2511   1.620   3.275   1.516 -2.0178  1.6172  0.8670
  790SOL    HW2 2512   1.605   3.386   1.414  0.2439  0.2073 -1.1187
  791SOL     OW 2513   1.937   1.900   2.969  0.0121 -0.1122  0.1376
  791SOL    HW1 2514   1.880   1.976   2.960  0.0529 -0.2532 -1.5904
  791SOL    HW2 2515   2.018   1.925   2.925  0.1862 -0.9798 -0.0551
  792SOL     OW 2516   3.215   2.153   1.805  0.1939 -0.0038 -0.1179
  792SOL    HW1 2517   3.225   2.060   1.828  1.9592 -0.4232 -2.2826
  792SOL    HW2 2518   3.288   2.197   1.848  1.6596 -0.3014 -2.1633
  793SOL     OW 2519   3.020   2.590   2.431  0.1830  0.2867  0.5769
  793SOL    HW1 2520   2.956   2.545   2.487  0.3771  1.0288  1.4139
  793SOL    HW2 2521   3.000   2.683   2.441 -0.5265  0.4029 -1.5176
  794SOL     OW 2522   1.750   0.684   2.789  0.4152 -0.3356 -0.1144
  794SOL    HW1 2523   1.696   0.641   2.855  2.6346 -1.3568  1.1455
  794SOL    HW2 2524   1.833   0.637   2.791  1.2421  0.8771 -2.2720
  795SOL     OW 2525   2.538   0.594   0.017 -0.1710  0.1280 -0.1090
  795SOL    HW1 2526   2.555   0.688   0.015 -0.6546  0.2367 -2.4017
  795SOL    HW2 2527   2.446   0.586   0.045  0.7576  0.0713  3.2957
  796SOL     OW 2528   3.354   1.421   0.709 -0.1066 -0.1941  0.0725
  796SOL    HW1 2529   3.369   1.491   0.646 -2.2621 -0.8792 -1.3010
  796SOL    HW2 2530   3.320   1.348   0.657  1.1042 -1.9428  1.5949
  797SOL     OW 2531   0.011   0.086   3.255 -0.6456  0.0745 -0.2010
  797SOL    HW1 2532   0.022   0.016   3.320  0.6321  0.7906  0.3973
  797SOL    HW2 2533   0.099   0.102   3.222 -1.2691 -0.2009 -2.0720
  798SOL     OW 2534   3.301   1.324   2.788 -0.6413  0.3268 -0.2763
  798SOL    HW1 2535   3.290   1.404   2.736 -1.2202 -0.7291 -1.8689
  798SOL    HW2 2536   3.345   1.353   2.868 -1.5120  2.3439 -0.4650
  799SOL     OW 2537   2.557   3.567   3.410 -0.1724  0.2573 -0.3332
  799SOL    HW1 2538   2.536   3.579   3.317  0.0170 -0.3612 -0.4600
  799SOL    HW2 2539   2.581   3.475   3.417  2.1202  0.8153 -0.1185
  800SOL     OW 2540   2.367   2.540   0.233  0.0378 -0.4620 -0.0453
  800SOL    HW1 2541   2.341   2.564   0.322  1.2121 -4.2319  1.5323
  800SOL    HW2 2542   2.288   2.555   0.180 -0.7413  1.7584  1.5823
  801SOL     OW 2543   2.199   0.401   2.389 -0.0015  0.5064  0.2306
  801SOL    HW1 2544   2.172   0.492   2.400 -0.7356  0.5566 -1.6751
  801SOL    HW2 2545   2.154   0.372   2.310  2.5014 -0.6342 -0.8787
  802SOL     OW 2546   1.810   1.055   1.390 -0.7931  0.0808 -0.7189
  802SOL    HW1 2547   1.722   1.079   1.362  0.0570  0.3155 -3.4981
  802SOL    HW2 2548   1.863   1.132   1.368  0.4722 -0.9133 -1.2159
  803SOL     OW 2549   1.968   0.359   0.470  0.0435 -0.5272  0.2864
  803SOL    HW1 2550   2.055   0.377   0.507 -0.3734 -0.0323  1.0638
  803SOL    HW2 2551   1.907   0.388   0.538 -0.7424 -0.2991 -0.4966
  804SOL     OW 2552   3.324   3.703   3.192  0.2716 -0.5927  0.2051
  804SOL    HW1 2553   3.311   3.668   3.104 -2.8293  1.1416 -0.1703
  804SOL    HW2 2554   3.395   3.766   3.183  1.3486 -1.8398 -0.5334
  805SOL     OW 2555   1.795   3.156   1.815 -0.2468 -0.5423  0.0413
  805SOL    HW1 2556   1.870   3.175   1.872 -1.0137 -2.2928  1.7403
  805SOL    HW2 2557   1.817   3.072   1.775 -0.1763  0.1929 -1.5563
  806SOL     OW 2558   0.968   3.586   3.152  0.3988 -0.5208  0.3896
  806SOL    HW1 2559   1.032   3.625   3.210 -0.1148 -0.3844  0.8743
  806SOL    HW2 2560   0.904   3.656   3.136  1.1248 -0.1902 -1.2619
  807SOL     OW 2561   0.848   3.312   1.279  0.1102  0.1394  1.0759
  807SOL    HW1 2562   0.798   3.357   1.346  0.1382 -0.2970  1.3932
  807SOL    HW2 2563   0.787   3.303   1.205  0.4070  1.5667  0.6339
  808SOL     OW 2564   0.345   0.490   2.101 -0.0143 -0.7456  0.1837
  808SOL    HW1 2565   0.366   0.397   2.087 -1.3986 -0.9533 -0.7337
  808SOL    HW2 2566   0.282   0.511   2.032  0.4772  0.9711  0.2058
  809SOL     OW 2567   0.110   2.339   3.117 -0.0070 -0.0044 -0.4404
  809SOL    HW1 2568   0.031   2.345   3.171 -0.5474  4.0214 -1.3101
  809SOL    HW2 2569   0.097   2.405   3.049  3.0056 -1.0573 -2.2464
  810SOL     OW 2570   1.503   3.021   2.188  0.2287 -0.7394  0.0537
  810SOL    HW1 2571   1.502   3.005   2.094 -1.2648 -2.2539  0.2702
  810SOL    HW2 2572   1.580   2.974   2.220  0.9500  0.0865 -0.4349
  811SOL     OW 2573   2.926   0.611   2.060  0.5121 -0.2025  0.0773
  811SOL    HW1 2574   2.987   0.540   2.081 -0.4279 -1.5196 -1.3951
  811SOL    HW2 2575   2.895   0.643   2.145  1.6820 -0.8967  0.7860
  812SOL     OW 2576   1.090   1.818   0.009  0.1391  0.3030 -0.0706
  812SOL    HW1 2577   1.057   1.878   0.076  0.1128  0.0165  0.1769
  812SOL    HW2 2578   1.179   1.848  -0.007  0.4547 -0.1567  0.7379
  813SOL     OW 2579   1.664   3.367   2.718 -0.5287 -0.1802 -0.3187
  813SOL    HW1 2580   1.605   3.442   2.710  0.6818  0.8507  0.0454
  813SOL    HW2 2581   1.717   3.371   2.639 -1.5351 -1.6653 -1.1094
  814SOL     OW 2582   3.065   1.446   0.436  0.2409 -0.7524  0.1499
  814SOL    HW1 2583   3.021   1.528   0.416 -1.1096 -1.8689 -1.7224
  814SOL    HW2 2584   3.158   1.469   0.439 -0.1410  0.9213  0.2764
  815SOL     OW 2585   3.736   1.554   0.753 -0.5143 -0.1877 -0.6595
  815SOL    HW1 2586   3.653   1.577   0.712 -0.2419  1.2319 -0.4856
  815SOL    HW2 2587   3.743   1.613   0.828  0.0798 -1.1458  0.0679
  816SOL     OW 2588   2.180   3.568   2.483  0.0499 -0.4151  0.1026
  816SOL    HW1 2589   2.161   3.512   2.559  0.5630 -0.9961 -0.1944
  816SOL    HW2 2590   2.189   3.656   2.520 -1.2293 -0.4405  0.5124
  817SOL     OW 2591   2.707   0.545   2.991 -0.0378  0.5102 -0.1850
  817SOL    HW1 2592   2.770   0.585   3.051  0.2618 -0.9921  0.5563
  817SOL    HW2 2593   2.759   0.487   2.936 -0.6281  0.1151 -0.3359
  818SOL     OW 2594   3.647   2.787   3.109  0.5160 -0.2651 -0.8339
  818SOL    HW1 2595   3.670   2.879   3.094 -0.5380 -0.1435 -1.8295
  818SOL    HW2 2596   3.712   2.757   3.172 -1.1853  2.1295  2.3666
  819SOL     OW 2597   2.494   2.845   0.192 -0.6585 -0.0009 -0.0296
  819SOL    HW1 2598   2.584   2.812   0.182 -0.7086 -0.1882  0.1248
  819SOL    HW2 2599   2.442   2.767   0.212 -0.5235  0.3538  1.9483
  820SOL     OW 2600   0.580   1.867   0.919 -0.4280 -0.5615 -0.6706
  820SOL    HW1 2601   0.581   1.782   0.875  0.4989 -2.0043  1.9399
  820SOL    HW2 2602   0.501   1.865   0.974  1.6052 -1.5809  2.4991
  821SOL     OW 2603   2.689   3.610   1.551  0.1446  0.1216 -0.5330
  821SOL    HW1 2604   2.754   3.655   1.604 -0.5291 -1.0925  1.4572
  821SOL    HW2 2605   2.734   3.531   1.520 -0.5732 -1.3012  1.7749
  822SOL     OW 2606   2.978   3.175   1.189 -0.4348 -0.0261  0.2612
  822SOL    HW1 2607   2.955   3.234   1.261  1.8756  0.8072  0.4206
  822SOL    HW2 2608   2.958   3.224   1.110 -0.9001 -0.0585  0.3554
  823SOL     OW 2609   0.309   1.606   2.670 -0.0359 -0.2624  0.0558
  823SOL    HW1 2610   0.361   1.606   2.750 -1.4734  0.2027  1.0365
  823SOL    HW2 2611   0.249   1.680   2.680 -1.4020 -1.2127 -0.6611
  824SOL     OW 2612   2.092   0.926   1.438  0.6884 -0.9758  0.0432
  824SOL    HW1 2613   2.098   0.912   1.533  0.0911 -0.4302  0.1674
  824SOL    HW2 2614   2.036   1.003   1.429 -2.4098 -3.1751 -0.8536
  825SOL     OW 2615   3.205   2.092   0.147 -0.0189  0.0825 -0.4044
  825SOL    HW1 2616   3.123   2.139   0.133  0.0673  0.7471  1.0659
  825SOL    HW2 2617   3.236   2.124   0.232  1.0522 -1.1881 -0.2867
  826SOL     OW 2618   1.926   0.430   2.621 -0.4722 -0.4339  0.0658
  826SOL    HW1 2619   1.984   0.450   2.694 -0.1175  0.5558 -0.4638
  826SOL    HW2 2620   1.936   0.505   2.562 -2.0275 -0.4093 -0.1991
  827SOL     OW 2621   3.447   2.789   2.486  0.4977  0.0441 -0.2877
  827SOL    HW1 2622   3.402   2.712   2.521 -1.0236  0.2125 -1.7198
  827SOL    HW2 2623   3.535   2.758   2.466  0.1328 -1.1367 -0.1638
  828SOL     OW 2624   3.681   0.900   3.013  0.1078  0.3288  0.3284
  828SOL    HW1 2625   3.650   0.873   3.100 -1.3500 -0.0012 -0.2735
  828SOL    HW2 2626   3.611   0.954   2.978  0.0378 -0.7039 -1.2098
  829SOL     OW 2627   3.542   2.154   1.522  0.2347  0.3338  0.0686
  829SOL    HW1 2628   3.504   2.111   1.598 -1.0729 -0.6178 -1.0706
  829SOL    HW2 2629   3.481   2.225   1.500 -1.3123 -1.5121 -2.0658
  830SOL     OW 2630   0.484   1.845   2.571  0.1718 -0.1732 -0.2487
  830SOL    HW1 2631   0.545   1.905   2.615  0.8195 -0.8640 -0.1747
  830SOL    HW2 2632   0.438   1.802   2.643  1.1812 -1.2525 -0.2044
  831SOL     OW 2633   0.806   3.675   1.084  0.4090 -0.3107 -0.4197
  831SOL    HW1 2634   0.752   3.724   1.022 -1.1692 -2.4967 -0.8922
  831SOL    HW2 2635   0.789   3.717   1.169  1.4611  1.7877 -1.1798
  832SOL     OW 2636   1.288   1.485   3.613  0.0966  0.4794 -0.2657
  832SOL    HW1 2637   1.199   1.486   3.577  0.0840  0.2065 -0.2455
  832SOL    HW2 2638   1.331   1.561   3.574 -0.0688  0.4698 -0.4680
  833SOL     OW 2639   2.542   3.283   3.365  0.1383 -0.0471 -0.4698
  833SOL    HW1 2640   2.616   3.246   3.317  1.0889  1.3791 -0.1823
  833SOL    HW2 2641   2.512   3.212   3.421  0.4857 -1.0309 -1.4829
  834SOL     OW 2642   1.884   1.465   2.864  0.5535 -0.3778  0.2933
  834SOL    HW1 2643   1.849   1.493   2.949  0.5234 -2.0755  0.8711
  834SOL    HW2 2644   1.857   1.374   2.856  1.2409 -0.4766 -1.1923
  835SOL     OW 2645   2.428   2.782   1.319  0.1456  0.1948 -0.6362
  835SOL    HW1 2646   2.457   2.718   1.383  0.3098  1.2688  0.4030
  835SOL    HW2 2647   2.508   2.810   1.274 -0.0829 -1.2782 -2.0530
  836SOL     OW 2648   1.409   2.998   1.674 -0.3724 -0.0083 -0.5038
  836SOL    HW1 2649   1.420   2.912   1.633 -2.3825 -0.3091 -0.5595
  836SOL    HW2 2650   1.380   3.055   1.602  0.4401  0.5943 -0.3629
  837SOL     OW 2651   3.525   0.144   3.089  0.2327 -0.1813  0.2123
  837SOL    HW1 2652   3.604   0.123   3.139 -0.4407 -1.0242  0.9537
  837SOL    HW2 2653   3.553   0.139   2.998  1.4605  1.2797  0.4627
  838SOL     OW 2654   1.530   1.280   2.737 -0.2364 -0.1447 -0.8163
  838SOL    HW1 2655   1.520   1.204   2.794  2.2917 -1.4338 -1.9277
  838SOL    HW2 2656   1.552   1.351   2.796  0.4427 -1.0133  0.0032
  839SOL     OW 2657   3.662   0.241   2.437  0.6445 -0.3320 -0.1246
  839SOL    HW1 2658   3.704   0.319   2.401 -1.8219  1.2027  0.0610
  839SOL    HW2 2659   3.674   0.250   2.532  3.0190 -1.8823 -0.2016
  840SOL     OW 2660   1.160   1.802   2.746 -0.4439  0.3536 -0.2959
  840SOL    HW1 2661   1.232   1.855   2.780 -1.0783  0.9909  0.0881
  840SOL    HW2 2662   1.133   1.846   2.666 -0.8588  0.5088 -0.0708
  841SOL     OW 2663   3.360   0.384   0.815  0.3028  0.0472  0.1195
  841SOL    HW1 2664   3.288   0.410   0.758  0.9849  0.6450 -0.4927
  841SOL    HW2 2665   3.436   0.380   0.758  0.9937  0.5905  0.9770
  842SOL     OW 2666   0.136   2.405   0.378 -0.4038 -0.6757  0.3912
  842SOL    HW1 2667   0.216   2.435   0.336 -1.5025 -0.1472 -1.4304
  842SOL    HW2 2668   0.134   2.451   0.462 -0.0216  1.2606 -0.6066
  843SOL     OW 2669   2.616   2.022   3.651  0.0075 -0.1906 -0.2286
  843SOL    HW1 2670   2.586   2.103   3.608  0.6082  1.9459  3.0165
  843SOL    HW2 2671   2.711   2.032   3.659 -0.0765 -0.4260  1.5468
  844SOL     OW 2672   0.196   2.971   1.408  0.2153 -0.4937  0.4829
  844SOL    HW1 2673   0.243   2.976   1.492 -2.1538  1.8299  1.8178
  844SOL    HW2 2674   0.181   3.063   1.384 -0.0210 -1.1200 -2.0588
  845SOL     OW 2675   1.420   3.356   1.195  0.2621 -0.2802  0.2201
  845SOL    HW1 2676   1.352   3.291   1.211 -0.2267  0.2677  0.4140
  845SOL    HW2 2677   1.481   3.346   1.268  0.0592 -0.3572  0.3804
  846SOL     OW 2678   1.958   2.053   0.415  0.0181 -0.3589 -0.7434
  846SOL    HW1 2679   2.046   2.024   0.439  0.0341 -0.7607 -1.2814
  846SOL    HW2 2680   1.962   2.067   0.321 -0.2439  0.5206 -0.6311
  847SOL     OW 2681   1.972   3.198   2.008 -0.3342  0.0304 -0.2995
  847SOL    HW1 2682   2.032   3.140   2.055 -1.4574  0.5985  1.9816
  847SOL    HW2 2683   2.028   3.262   1.966  0.7651 -0.8481 -0.2105
  848SOL     OW 2684   0.818   1.834   2.667 -0.0269  0.5883  0.2670
  848SOL    HW1 2685   0.833   1.840   2.573 -1.8875 -0.1480 -0.1079
  848SOL    HW2 2686   0.812   1.925   2.696 -0.1335  0.8117 -0.4380
  849SOL     OW 2687   2.815   1.707   1.027 -0.2141 -0.4856  0.5949
  849SOL    HW1 2688   2.763   1.633   1.056 -1.3903 -0.5271 -1.4481
  849SOL    HW2 2689   2.751   1.776   1.007  0.7499  0.5784  1.0465
  850SOL     OW 2690   3.049   2.283   1.209 -0.0167 -0.3706 -0.3240
  850SOL    HW1 2691   3.116   2.250   1.269 -0.7143  1.8992  1.8989
  850SOL    HW2 2692   3.069   2.377   1.202 -2.9708  0.4131  0.5440
  851SOL     OW 2693   1.701   0.874   0.822 -0.3596  0.4628 -0.4318
  851SOL    HW1 2694   1.708   0.861   0.916  0.3456 -3.5845 -0.8825
  851SOL    HW2 2695   1.791   0.889   0.793 -0.2131 -0.8803 -0.7084
  852SOL     OW 2696   1.771   0.112   0.602  0.7833 -0.1930  0.2739
  852SOL    HW1 2697   1.825   0.146   0.530  0.2764  0.8375  0.3643
  852SOL    HW2 2698   1.793   0.168   0.676 -2.3040  2.0651 -0.3232
  853SOL     OW 2699   0.163   2.454   0.682  0.1721  0.5388  0.7492
  853SOL    HW1 2700   0.138   2.481   0.770  0.1073  0.1889  0.8413
  853SOL    HW2 2701   0.204   2.368   0.695 -0.6771  0.0518  0.3422
  854SOL     OW 2702   3.021   0.895   2.816  0.0431 -0.0837 -0.3700
  854SOL    HW1 2703   3.112   0.874   2.792 -0.0558  0.0995 -0.9056
  854SOL    HW2 2704   2.973   0.890   2.734 -0.9470 -2.7778  0.2523
  855SOL     OW 2705   1.114   0.795   0.690 -0.0423 -0.4946 -0.1121
  855SOL    HW1 2706   1.025   0.777   0.659 -0.5163  0.5280  0.5626
  855SOL    HW2 2707   1.171   0.756   0.625 -0.9847 -1.4601 -0.3952
  856SOL     OW 2708   1.486   0.989   3.236  0.9145  0.4107 -0.4369
  856SOL    HW1 2709   1.516   0.907   3.275  1.2895  1.0908  0.7375
  856SOL    HW2 2710   1.564   1.023   3.190  1.2936  0.9656  0.5708
  857SOL     OW 2711   0.715   2.272   0.240  0.0524  0.0387  0.3378
  857SOL    HW1 2712   0.663   2.275   0.160 -1.2921  1.1543  1.1927
  857SOL    HW2 2713   0.801   2.240   0.212 -1.2063 -2.4462 -1.0560
  858SOL     OW 2714   0.134   3.664   0.034  0.4788 -0.7443  0.4925
  858SOL    HW1 2715   0.190   3.715   0.092  0.0585  0.9270 -0.4788
  858SOL    HW2 2716   0.181   3.661  -0.049 -0.1161 -0.7682  0.1485
  859SOL     OW 2717   0.677   2.121   1.071 -0.2497  0.3042 -0.5602
  859SOL    HW1 2718   0.683   2.054   1.003  0.6884  1.4142 -1.6230
  859SOL    HW2 2719   0.647   2.074   1.149 -0.7187 -1.1202 -1.5634
  860SOL     OW 2720   1.245   1.056   2.970 -0.0666  0.3521  0.5922
  860SOL    HW1 2721   1.265   0.963   2.954 -0.5614  0.5176 -1.2544
  860SOL    HW2 2722   1.325   1.102   2.943 -0.2634  0.5256  0.2947
  861SOL     OW 2723   0.890   0.321   1.764  0.3812 -0.6503  0.0757
  861SOL    HW1 2724   0.940   0.397   1.793  0.8071 -1.3755  1.3363
  861SOL    HW2 2725   0.952   0.248   1.771 -1.3392 -2.0077  3.9230
  862SOL     OW 2726   2.663   0.086   2.343  0.0699 -0.3335  0.0859
  862SOL    HW1 2727   2.643   0.009   2.289 -0.3544 -0.5274  0.5115
  862SOL    HW2 2728   2.726   0.136   2.291  0.5772 -1.1151 -0.0708
  863SOL     OW 2729   2.773   0.818   0.140  0.3757  0.5834  0.4143
  863SOL    HW1 2730   2.855   0.831   0.094  0.5726  1.4647  0.9914
  863SOL    HW2 2731   2.705   0.838   0.076  0.6449  1.6885  0.4635
  864SOL     OW 2732   3.427   0.236   1.487  0.1023 -0.1133 -0.2738
  864SOL    HW1 2733   3.475   0.246   1.405  0.8077  0.0343  0.1463
  864SOL    HW2 2734   3.358   0.301   1.483  0.2798  0.0550 -0.6530
  865SOL     OW 2735   2.414   1.270   0.152  0.0043  0.1278 -0.4127
  865SOL    HW1 2736   2.461   1.287   0.070 -0.3396  0.0755 -0.6232
  865SOL    HW2 2737   2.479   1.231   0.210  0.2563  0.1896 -0.6551
  866SOL     OW 2738   1.682   1.636   0.437  0.0938  0.1276 -0.4461
  866SOL    HW1 2739   1.588   1.627   0.453  0.3792 -0.8122  0.9421
  866SOL    HW2 2740   1.691   1.714   0.383 -1.2360  2.2921  2.2501
  867SOL     OW 2741   2.295   2.725   0.463  0.3662  0.1253  0.3965
  867SOL    HW1 2742   2.383   2.756   0.485  0.6180 -1.2463  1.5156
  867SOL    HW2 2743   2.259   2.792   0.406  1.8086  1.1584  0.6445
  868SOL     OW 2744   3.609   0.891   3.259  0.1303  0.2259 -0.0516
  868SOL    HW1 2745   3.688   0.852   3.297  1.0010  0.1119 -1.8760
  868SOL    HW2 2746   3.630   0.984   3.251 -0.3387  0.3763  0.4527
  869SOL     OW 2747   0.954   3.647   0.836 -0.0538  0.2438 -0.2758
  869SOL    HW1 2748   0.912   3.730   0.858 -0.5838  0.1015 -0.7121
  869SOL    HW2 2749   1.009   3.668   0.760  0.3303  0.3331  0.0218
  870SOL     OW 2750   1.207   2.645   2.600 -0.0634 -0.1893  0.7710
  870SOL    HW1 2751   1.299   2.622   2.612 -0.6069 -3.3162 -0.4180
  870SOL    HW2 2752   1.163   2.607   2.676 -0.8674 -2.5868 -0.7911
  871SOL     OW 2753   1.688   2.747   2.671 -0.2737 -0.4993  0.0450
  871SOL    HW1 2754   1.705   2.838   2.646  0.5726 -1.0912 -1.7487
  871SOL    HW2 2755   1.601   2.729   2.634 -1.1909  0.0126  1.8233
  872SOL     OW 2756   3.182   3.717   1.386 -0.1893 -0.0055 -0.5016
  872SOL    HW1 2757   3.243   3.714   1.459 -0.6771 -0.3784 -0.0964
  872SOL    HW2 2758   3.194   3.634   1.341 -0.9118 -0.4079  0.0213
  873SOL     OW 2759   3.504   1.062   3.570  0.3485 -0.0498  0.0983
  873SOL    HW1 2760   3.475   1.068   3.661 -0.3570 -2.2345  0.0876
  873SOL    HW2 2761   3.557   0.982   3.567  1.7396  0.8754 -1.0938
  874SOL     OW 2762   0.042   1.591   0.342 -0.3299  0.1780 -0.9728
  874SOL    HW1 2763   0.112   1.584   0.277 -0.3728  1.0915 -1.1272
  874SOL    HW2 2764   0.038   1.684   0.363 -0.1563 -0.1373  0.5300
  875SOL     OW 2765   2.849   1.920   0.503  0.4662  0.2711 -0.2819
  875SOL    HW1 2766   2.885   1.945   0.588  1.2235 -0.0484 -0.5019
  875SOL    HW2 2767   2.800   1.997   0.474  3.8867  2.1391 -1.6055
  876SOL     OW 2768   2.667   3.040   2.970  0.3409  0.4751 -0.6161
  876SOL    HW1 2769   2.597   3.083   3.019  1.2985  1.1279  0.2274
  876SOL    HW2 2770   2.687   2.962   3.021 -1.9162 -1.4999 -2.5407
  877SOL     OW 2771   2.141   2.833   3.351 -0.2815 -0.6391  0.6101
  877SOL    HW1 2772   2.169   2.867   3.266 -2.7062  0.1678  0.0566
  877SOL    HW2 2773   2.173   2.743   3.352 -0.2202 -0.6759 -1.1659
  878SOL     OW 2774   0.814   3.140   3.269  0.4539 -0.3846  0.4660
  878SOL    HW1 2775   0.752   3.109   3.335  0.6604 -1.4599  0.1856
  878SOL    HW2 2776   0.857   3.215   3.309 -0.4471 -0.1384  0.9857
  879SOL     OW 2777   1.334   3.077   0.064 -0.1975 -0.5342 -0.1577
  879SOL    HW1 2778   1.338   3.148   0.128 -1.5788 -0.3537 -0.2295
  879SOL    HW2 2779   1.380   3.111  -0.012 -0.7540  0.2641 -0.1568
  880SOL     OW 2780   2.624   3.519   2.473  0.1900  0.5947 -0.7357
  880SOL    HW1 2781   2.550   3.494   2.418 -0.5006 -2.0151  1.1861
  880SOL    HW2 2782   2.590   3.589   2.529 -1.0046 -0.8481  0.3996
  881SOL     OW 2783   1.774   0.217   3.502 -0.0893 -0.0136 -0.4648
  881SOL    HW1 2784   1.762   0.224   3.597  0.7256  3.0286 -0.4782
  881SOL    HW2 2785   1.868   0.215   3.490 -0.1982 -1.0936 -1.2105
  882SOL     OW 2786   2.251   3.663   1.444  0.2773  0.0026  0.4718
  882SOL    HW1 2787   2.311   3.641   1.373  0.4800 -0.5802  0.8183
  882SOL    HW2 2788   2.305   3.710   1.507  0.5343 -1.0789  1.0797
  883SOL     OW 2789   1.317   1.978   3.664 -0.0136  0.1349 -0.5038
  883SOL    HW1 2790   1.411   1.961   3.669  0.3566  0.8523 -3.3738
  883SOL    HW2 2791   1.310   2.073   3.656 -0.9237  0.0497 -0.8261
  884SOL     OW 2792   2.802   0.286   1.243  0.1955  0.4462 -0.0172
  884SOL    HW1 2793   2.851   0.330   1.173  0.6827 -0.5639 -0.3222
  884SOL    HW2 2794   2.870   0.257   1.305 -0.0805 -0.2552 -0.0352
  885SOL     OW 2795   2.751   2.697   0.728  0.0063  0.1417  0.2688
  885SOL    HW1 2796   2.800   2.775   0.700  0.8007 -0.5013 -0.1766
  885SOL    HW2 2797   2.818   2.632   0.748 -0.6630 -0.8366 -0.5570
  886SOL     OW 2798   2.822   0.815   1.664 -0.1532  0.3814 -0.0201
  886SOL    HW1 2799   2.755   0.819   1.596  0.0341 -1.1902 -0.3243
  886SOL    HW2 2800   2.870   0.898   1.655 -1.6321  1.2565 -0.2011
  887SOL     OW 2801   0.459   3.391   0.384 -0.4000 -0.2400  0.9448
  887SOL    HW1 2802   0.382   3.369   0.437 -0.8877  0.4051  0.5066
  887SOL    HW2 2803   0.444   3.480   0.354 -0.3252 -0.7283 -0.6339
  888SOL     OW 2804   2.168   3.363   1.911 -0.1073 -0.1517 -0.3686
  888SOL    HW1 2805   2.163   3.422   1.836  0.8367 -0.0419 -0.3540
  888SOL    HW2 2806   2.238   3.302   1.889  0.5574  0.2250  0.6612
  889SOL     OW 2807   1.288   1.015   1.643  0.3454  0.2837 -0.6489
  889SOL    HW1 2808   1.319   1.009   1.552  2.5350  1.4503 -0.0678
  889SOL    HW2 2809   1.367   1.005   1.696 -0.8323 -0.0479  1.1353
  890SOL     OW 2810   0.605   3.707   2.220 -0.3080  0.7983  0.1362
  890SOL    HW1 2811   0.582   3.762   2.295  0.2484 -0.5721  1.3804
  890SOL    HW2 2812   0.693   3.674   2.241 -0.3972 -0.0979 -0.8181
  891SOL     OW 2813   2.990   3.691   0.192 -0.6428  0.3763  0.3122
  891SOL    HW1 2814   2.934   3.619   0.163 -2.7003  2.0502 -0.1197
  891SOL    HW2 2815   3.043   3.712   0.115  1.9551 -2.2756  1.1864
  892SOL     OW 2816   1.117   0.026   2.034  0.4669 -0.0922 -0.0250
  892SOL    HW1 2817   1.141  -0.064   2.056  0.1518 -0.4561 -1.0988
  892SOL    HW2 2818   1.154   0.079   2.104  0.0358 -1.1246  1.0106
  893SOL     OW 2819   3.630   2.267   0.454 -1.1986 -0.7528 -0.1265
  893SOL    HW1 2820   3.561   2.323   0.418 -0.6209  0.3015  0.3719
  893SOL    HW2 2821   3.709   2.294   0.407 -1.0532 -1.7359 -0.4709
  894SOL     OW 2822   0.517   0.119   1.531  0.4941  0.1941 -0.4897
  894SOL    HW1 2823   0.544   0.163   1.611  0.3502  2.4328 -1.5849
  894SOL    HW2 2824   0.455   0.180   1.490  0.6016 -0.8459 -2.3094
  895SOL     OW 2825   2.626   2.107   1.676  0.5570  0.2385 -0.2076
  895SOL    HW1 2826   2.612   2.178   1.739 -1.4271  0.0071 -0.3126
  895SOL    HW2 2827   2.628   2.028   1.729 -1.4415  0.0103 -0.3881
  896SOL     OW 2828   1.424   2.527   1.014  0.0436  0.2201  0.4645
  896SOL    HW1 2829   1.372   2.457   0.974  0.1413 -2.0088  3.8862
  896SOL    HW2 2830   1.479   2.559   0.942  0.1535 -3.3561 -1.2738
  897SOL     OW 2831   0.838   1.890   0.972  0.3026  0.9086 -0.1194
  897SOL    HW1 2832   0.766   1.888   0.909 -0.6769  0.8017  0.9761
  897SOL    HW2 2833   0.820   1.817   1.032  2.2657 -0.2382 -0.8141
  898SOL     OW 2834   0.759   2.209   1.648 -0.0170 -0.1485 -0.2056
  898SOL    HW1 2835   0.768   2.234   1.740 -0.0253 -1.2769  0.1214
  898SOL    HW2 2836   0.728   2.118   1.651  0.8320 -0.4904 -1.3219
  899SOL     OW 2837   3.110   0.243   1.252 -0.0874  0.7357 -0.1158
  899SOL    HW1 2838   3.117   0.226   1.158  0.6799 -1.3251  0.2632
  899SOL    HW2 2839   3.135   0.161   1.293 -0.2392  1.6459  1.9167
  900SOL     OW 2840   2.424   1.118   3.528 -0.0911 -0.4775  0.0878
  900SOL    HW1 2841   2.374   1.200   3.531 -0.6592 -0.8486  2.7711
  900SOL    HW2 2842   2.511   1.141   3.559  0.0451 -0.7164 -0.1104
  901SOL     OW 2843   3.086   1.562   0.946  0.0374 -0.6006  0.2850
  901SOL    HW1 2844   3.012   1.565   1.006 -1.0296 -1.3834 -0.9307
  901SOL    HW2 2845   3.051   1.593   0.863  1.1143 -0.8271 -0.2744
  902SOL     OW 2846   2.846   2.904   0.439 -1.5212 -0.4463  0.2150
  902SOL    HW1 2847   2.826   2.820   0.399 -1.6881 -0.9164  1.2551
  902SOL    HW2 2848   2.765   2.931   0.482 -1.4676  0.2443 -0.0937
  903SOL     OW 2849   1.594   2.023   3.602 -0.5520  0.3855  0.3627
  903SOL    HW1 2850   1.671   2.031   3.658 -2.7263 -0.0999  3.7098
  903SOL    HW2 2851   1.592   2.105   3.552  0.5673  1.7283  2.3799
  904SOL     OW 2852   2.960   0.459   1.097 -0.2041 -0.5573  0.1649
  904SOL    HW1 2853   3.036   0.465   1.039 -0.5519 -0.5111 -0.2923
  904SOL    HW2 2854   2.994   0.482   1.183  0.0031  0.8586 -0.2730
  905SOL     OW 2855   0.576   2.614   2.391  0.0342 -0.1645  0.0145
  905SOL    HW1 2856   0.528   2.687   2.353  0.8080  0.3463 -0.0082
  905SOL    HW2 2857   0.509   2.551   2.417 -0.5596 -0.1864 -1.4807
  906SOL     OW 2858   2.347   3.129   1.632  0.2417  0.5809  0.3768
  906SOL    HW1 2859   2.377   3.220   1.624 -0.1056  0.7634  1.1200
  906SOL    HW2 2860   2.421   3.077   1.600  0.3669  1.1288 -0.2524
  907SOL     OW 2861   0.957   3.043   0.881  0.5757  0.3004  0.2296
  907SOL    HW1 2862   1.040   3.062   0.925  0.2195  3.2165 -0.1402
  907SOL    HW2 2863   0.976   3.051   0.788 -0.3743  2.6096  0.1752
  908SOL     OW 2864   0.033   3.028   3.050  1.0019  0.4857 -0.0547
  908SOL    HW1 2865   0.123   3.050   3.025  1.3456  0.2483  0.9329
  908SOL    HW2 2866  -0.015   3.026   2.967  2.2674 -0.9872 -0.8004
  909SOL     OW 2867   0.984   3.401   3.637  0.0140  0.0880 -0.3876
  909SOL    HW1 2868   0.956   3.476   3.585  1.8808 -0.2311 -1.9510
  909SOL    HW2 2869   1.054   3.361   3.587  2.7650  0.3731  2.8357
  910SOL     OW 2870   1.285   2.765   0.463  0.0164  0.3627 -0.8577
  910SOL    HW1 2871   1.315   2.850   0.494 -0.8589  0.3354  0.1186
  910SOL    HW2 2872   1.247   2.723   0.540 -1.2647 -0.1416 -1.7297
  911SOL     OW 2873   3.128   0.170   2.818  0.9324  0.0302  0.0572
  911SOL    HW1 2874   3.179   0.247   2.793  0.3584  0.1312 -0.8538
  911SOL    HW2 2875   3.115   0.179   2.913  1.1035  0.9163  0.0049
  912SOL     OW 2876   1.417   0.459   3.526  0.4957  0.1976  0.5233
  912SOL    HW1 2877   1.391   0.540   3.570 -1.2345  1.6779 -2.8515
  912SOL    HW2 2878   1.512   0.463   3.524  0.5118  3.8375 -2.0737
  913SOL     OW 2879   1.317   1.949   2.910 -0.2186  0.3831  0.1174
  913SOL    HW1 2880   1.322   1.894   2.988 -0.0574  0.1730 -0.0378
  913SOL    HW2 2881   1.402   1.994   2.907  0.5101 -0.9824 -0.9255
  914SOL     OW 2882   1.136   3.112   3.286  0.2596 -0.0237 -1.0722
  914SOL    HW1 2883   1.167   3.173   3.219  2.7305  0.6825  0.5827
  914SOL    HW2 2884   1.124   3.166   3.364 -0.1919 -1.2108 -0.2850
  915SOL     OW 2885   0.859   2.595   2.301  0.3290  0.2379  0.1213
  915SOL    HW1 2886   0.770   2.563   2.319  0.5938 -1.1421 -0.9031
  915SOL    HW2 2887   0.875   2.659   2.370 -1.4236  0.4468  0.3880
  916SOL     OW 2888   2.913   1.265   1.963  0.2962  0.8981 -0.0030
  916SOL    HW1 2889   2.923   1.352   2.002  2.1218  1.4145 -1.4746
  916SOL    HW2 2890   3.002   1.236   1.944 -0.1524 -1.9526  1.6609
  917SOL     OW 2891   0.569   0.432   1.461 -0.0895 -0.1875 -0.5062
  917SOL    HW1 2892   0.492   0.385   1.492  0.8363 -0.8164  0.9201
  917SOL    HW2 2893   0.555   0.441   1.367 -1.8633 -0.3399 -0.2849
  918SOL     OW 2894   1.897   0.272   2.318 -0.4876  0.4267  0.1587
  918SOL    HW1 2895   1.905   0.315   2.403 -0.4821 -1.2871  1.0737
  918SOL    HW2 2896   1.804   0.274   2.299 -0.7899 -1.0691  1.2868
  919SOL     OW 2897   2.093   0.501   0.271  0.1859  0.6426  0.5614
  919SOL    HW1 2898   2.019   0.562   0.261  0.8641  1.5555  1.0424
  919SOL    HW2 2899   2.060   0.434   0.331 -0.7031  0.2797 -0.2822
  920SOL     OW 2900   1.553   2.173   0.646  0.0365 -0.1849  0.1591
  920SOL    HW1 2901   1.498   2.104   0.610 -1.0131  0.9969 -0.5548
  920SOL    HW2 2902   1.566   2.148   0.738 -1.9847 -0.3168  0.4443
  921SOL     OW 2903   3.629   1.900   1.145  0.3176  0.4203  0.2142
  921SOL    HW1 2904   3.624   1.985   1.102 -2.3230  1.1110  1.6621
  921SOL    HW2 2905   3.657   1.920   1.235 -0.1521 -0.2584  0.5237
  922SOL     OW 2906   2.950   1.288   1.410  0.5588 -0.1699  0.3196
  922SOL    HW1 2907   2.950   1.314   1.503  1.9314  1.4844 -0.1026
  922SOL    HW2 2908   2.972   1.368   1.363  0.5399 -1.1448 -1.4128
  923SOL     OW 2909   2.849   1.395   3.087  0.6065 -0.2401 -0.0379
  923SOL    HW1 2910   2.944   1.394   3.099  0.9450 -1.5236 -2.3671
  923SOL    HW2 2911   2.829   1.486   3.064  1.4022 -0.1833 -0.5356
  924SOL     OW 2912   0.765   2.089   3.164  1.0198 -0.6972  0.2587
  924SOL    HW1 2913   0.850   2.070   3.124  1.5695  1.0103  0.5044
  924SOL    HW2 2914   0.749   2.181   3.143  0.0754 -0.4877  1.7298
  925SOL     OW 2915   1.879   0.692   3.512  0.2875 -0.0801 -0.0053
  925SOL    HW1 2916   1.874   0.767   3.452  0.6817 -1.3047 -1.6379
  925SOL    HW2 2917   1.925   0.726   3.589 -1.8766  2.0454  0.4685
  926SOL     OW 2918   0.002   1.456   3.239  0.4258 -1.0821 -0.2852
  926SOL    HW1 2919   0.077   1.500   3.199  0.3882  1.3567  2.0704
  926SOL    HW2 2920   0.030   1.364   3.247  3.6469 -0.1033  1.3913
  927SOL     OW 2921   1.635   2.567   2.105 -0.6339  0.1665  0.3677
  927SOL    HW1 2922   1.561   2.517   2.071 -0.9581  1.1875 -0.4584
  927SOL    HW2 2923   1.658   2.627   2.035  0.0014  0.9068  1.1925
  928SOL     OW 2924   1.229   0.345   0.602  0.5146  0.0753 -0.1672
  928SOL    HW1 2925   1.320   0.357   0.574  0.7697 -1.9551 -0.3447
  928SOL    HW2 2926   1.198   0.270   0.551 -0.2524 -1.2711  2.1570
  929SOL     OW 2927   3.499   3.380   1.090  0.3653 -0.1901  0.0235
  929SOL    HW1 2928   3.536   3.456   1.046  0.7719 -0.0180  0.6435
  929SOL    HW2 2929   3.502   3.310   1.025 -0.4951  0.4484 -0.7225
  930SOL     OW 2930   0.935   2.124   2.524 -0.0088 -0.2293  0.3244
  930SOL    HW1 2931   0.888   2.124   2.607  0.1669 -0.3555  0.4247
  930SOL    HW2 2932   0.971   2.212   2.516  1.3576 -0.6660  1.1738
  931SOL     OW 2933   0.463   2.034   0.043  0.3641 -0.1609 -0.2134
  931SOL    HW1 2934   0.380   2.031   0.091 -0.5459  0.3370 -1.7010
  931SOL    HW2 2935   0.441   2.004  -0.045  1.7230  0.1912 -0.6997
  932SOL     OW 2936   0.257   0.707   2.223 -0.0333 -0.2689 -1.0266
  932SOL    HW1 2937   0.289   0.622   2.192 -0.3970 -1.0413  0.5932
  932SOL    HW2 2938   0.335   0.761   2.230  0.1634 -0.3349 -2.3995
  933SOL     OW 2939   0.904   3.085   2.606  0.0052  0.3927  0.5362
  933SOL    HW1 2940   0.983   3.033   2.592 -0.1825  0.1344  0.4460
  933SOL    HW2 2941   0.850   3.033   2.666  0.9251  1.6143  2.5442
  934SOL     OW 2942   0.257   2.739   1.262 -0.2031 -0.1702 -0.8523
  934SOL    HW1 2943   0.258   2.825   1.305  1.0683  1.7451 -4.2657
  934SOL    HW2 2944   0.349   2.722   1.243 -0.2882 -3.0113  0.8020
  935SOL     OW 2945   0.753   2.361   3.055 -0.0165 -0.2251  0.3606
  935SOL    HW1 2946   0.664   2.341   3.028  0.1145 -0.3401  0.0075
  935SOL    HW2 2947   0.743   2.425   3.125 -0.4022 -0.7913  0.8310
  936SOL     OW 2948   2.171   1.418   1.195 -0.8938  0.4490  0.5093
  936SOL    HW1 2949   2.230   1.442   1.125 -0.8123 -0.2686  0.3267
  936SOL    HW2 2950   2.173   1.492   1.255 -0.8844  1.0222 -0.1876
  937SOL     OW 2951   0.905   1.497   2.074 -0.0788  0.7292  0.3984
  937SOL    HW1 2952   0.955   1.513   1.994 -1.5160  1.3569 -0.4110
  937SOL    HW2 2953   0.930   1.408   2.100  0.6151  0.6175 -0.5872
  938SOL     OW 2954   3.573   3.211   2.402 -0.2392  0.0481  0.1899
  938SOL    HW1 2955   3.577   3.297   2.444 -1.5886  0.1084  0.2277
  938SOL    HW2 2956   3.481   3.186   2.407  0.0182 -1.0963 -0.4474
  939SOL     OW 2957   1.847   3.268   1.259 -0.4967 -0.5382 -0.2380
  939SOL    HW1 2958   1.837   3.354   1.218 -0.6849 -0.3493  0.1976
  939SOL    HW2 2959   1.770   3.259   1.315 -1.4719 -1.8018 -1.7157
  940SOL     OW 2960   2.703   1.537   2.251  0.5806 -0.5283 -0.6025
  940SOL    HW1 2961   2.783   1.520   2.200 -0.0936 -1.4613 -1.3787
  940SOL    HW2 2962   2.639   1.475   2.217 -0.7623  0.7878 -0.5952
  941SOL     OW 2963   2.523   3.449   0.746 -0.1001  0.4252 -0.3928
  941SOL    HW1 2964   2.446   3.392   0.754 -0.4247  0.9748  0.6076
  941SOL    HW2 2965   2.497   3.516   0.682 -0.3352  0.4211 -0.3028
  942SOL     OW 2966   1.148   3.404   0.630 -0.3597  0.1021  0.4652
  942SOL    HW1 2967   1.152   3.499   0.641  1.4783  0.1154  0.0426
  942SOL    HW2 2968   1.155   3.390   0.535 -0.7815 -0.4682  0.5068
  943SOL     OW 2969   2.300   0.986   1.266  0.0350 -0.1743 -0.2428
  943SOL    HW1 2970   2.243   0.956   1.336 -1.5272  1.3254 -0.7822
  943SOL    HW2 2971   2.383   1.008   1.309 -1.7840  3.5653  1.8062
  944SOL     OW 2972  -0.035   0.414   2.690 -0.3810 -0.1486 -0.4434
  944SOL    HW1 2973   0.008   0.432   2.774 -2.2771 -2.7650  1.2941
  944SOL    HW2 2974   0.035   0.417   2.626  1.2433  1.5581  1.2808
  945SOL     OW 2975   3.679   2.531   2.147 -0.2334  0.0602  0.1814
  945SOL    HW1 2976   3.717   2.589   2.214  2.2228  1.5383 -2.2541
  945SOL    HW2 2977   3.639   2.591   2.084  1.7588 -0.7893 -2.0643
  946SOL     OW 2978   2.479   1.542   3.686  0.1576 -0.2586 -0.0745
  946SOL    HW1 2979   2.468   1.602   3.760  1.0742 -0.4424  0.2272
  946SOL    HW2 2980   2.472   1.598   3.609 -0.0177  0.0672  0.1745
  947SOL     OW 2981   0.173   2.067   2.581  0.2068 -0.4608 -0.5158
  947SOL    HW1 2982   0.188   2.160   2.602 -0.5289 -0.4940  0.1967
  947SOL    HW2 2983   0.088   2.066   2.536 -0.4027 -0.9317  0.6201
  948SOL     OW 2984   0.394   0.870   2.741 -0.1024 -0.2992  0.0679
  948SOL    HW1 2985   0.351   0.931   2.681  1.2781  1.0991  0.4530
  948SOL    HW2 2986   0.487   0.882   2.725  0.2670 -3.6046 -1.1030
  949SOL     OW 2987   0.309   1.689   0.998 -0.1319 -0.3372  0.2657
  949SOL    HW1 2988   0.319   1.696   0.903 -1.7571  2.1312  0.1795
  949SOL    HW2 2989   0.373   1.623   1.024 -0.5283 -2.0554 -2.6695
  950SOL     OW 2990   2.468   2.309   0.877 -0.1954 -0.6432 -0.0626
  950SOL    HW1 2991   2.472   2.301   0.972  3.5203 -2.7605 -0.1711
  950SOL    HW2 2992   2.507   2.227   0.845 -0.4157  0.3942 -3.3677
  951SOL     OW 2993   3.324   0.956   2.464  0.3936  0.0371  0.0014
  951SOL    HW1 2994   3.235   0.933   2.438  0.9902 -0.4252 -1.8132
  951SOL    HW2 2995   3.314   1.022   2.532 -1.3300 -0.8403  0.6472
  952SOL     OW 2996   0.831   0.823   0.893 -0.1755  0.1352  0.4499
  952SOL    HW1 2997   0.858   0.746   0.943  0.6723  0.2506  0.1717
  952SOL    HW2 2998   0.783   0.877   0.957  0.8183  0.2414  1.1289
  953SOL     OW 2999   2.035   2.767   1.062  0.2974  0.2676 -1.1090
  953SOL    HW1 3000   2.072   2.814   1.137  0.9881 -2.1836  0.1878
  953SOL    HW2 3001   2.059   2.676   1.077 -0.2265 -0.4239 -3.9479
  954SOL     OW 3002   0.024   1.141   3.373 -0.0035 -0.4557 -0.3395
  954SOL    HW1 3003  -0.038   1.155   3.445  0.5888 -2.2337  0.5823
  954SOL    HW2 3004   0.103   1.188   3.399  1.6618 -4.1868  2.2947
  955SOL     OW 3005   3.140   1.680   1.487 -0.3807  0.1771  0.0339
  955SOL    HW1 3006   3.161   1.728   1.567 -1.5689  0.4448  0.1942
  955SOL    HW2 3007   3.055   1.714   1.460  0.3507  0.6404 -1.7845
  956SOL     OW 3008   1.526   1.522   0.797 -0.2469  0.0337  0.8539
  956SOL    HW1 3009   1.544   1.440   0.843  0.8224  0.3903  1.0824
  956SOL    HW2 3010   1.469   1.571   0.856  1.3575  0.6214  1.9802
  957SOL     OW 3011   0.813   3.182   3.673  0.1510  0.1790 -0.5256
  957SOL    HW1 3012   0.862   3.264   3.681  1.2420 -0.4104 -0.9464
  957SOL    HW2 3013   0.826   3.138   3.757 -0.8481  0.6377 -0.1129
  958SOL     OW 3014   1.878   2.923   2.311 -0.6415 -0.1362  0.0955
  958SOL    HW1 3015   1.928   2.951   2.388 -1.1345 -0.0827  0.3977
  958SOL    HW2 3016   1.838   3.003   2.278 -0.6422 -0.2035 -0.0666
  959SOL     OW 3017   0.147   3.648   0.811  0.0842 -0.8790 -0.1707
  959SOL    HW1 3018   0.117   3.729   0.854 -1.4141 -0.7614 -1.3530
  959SOL    HW2 3019   0.082   3.632   0.743  0.3435 -3.1234  0.0498
  960SOL     OW 3020   2.206   0.383   0.649  0.4028  0.5537 -0.7642
  960SOL    HW1 3021   2.160   0.465   0.667  1.1479  0.9585 -0.6941
  960SOL    HW2 3022   2.228   0.348   0.736 -2.0036 -0.9637 -0.6540
  961SOL     OW 3023   0.434   0.586   3.221 -0.0187  1.1817 -1.0556
  961SOL    HW1 3024   0.372   0.545   3.161  1.3653  2.3611 -3.4018
  961SOL    HW2 3025   0.398   0.673   3.237 -1.6496  0.1084  1.9310
  962SOL     OW 3026   0.467   1.650   1.233 -0.2138  0.7002  0.1789
  962SOL    HW1 3027   0.505   1.579   1.286  0.5361  0.9809  0.0266
  962SOL    HW2 3028   0.500   1.634   1.145 -0.5221  0.9016  0.0266
  963SOL     OW 3029   1.569   0.041   2.616  0.5447  0.5299 -0.1443
  963SOL    HW1 3030   1.518   0.080   2.687 -1.0939 -0.4295 -0.7162
  963SOL    HW2 3031   1.562   0.103   2.544 -1.3658 -0.3573 -0.7870
  964SOL     OW 3032   1.494   0.197   0.603  0.5323  0.0521  0.0064
  964SOL    HW1 3033   1.510   0.212   0.510  1.0294  0.7569  0.1964
  964SOL    HW2 3034   1.581   0.189   0.642  0.3185 -1.3470  0.2564
  965SOL     OW 3035   3.167   2.824   1.423 -0.1882 -0.1388  0.5957
  965SOL    HW1 3036   3.185   2.772   1.500 -0.6218 -1.4159 -0.1404
  965SOL    HW2 3037   3.243   2.812   1.367  0.8189  1.9866  1.4079
  966SOL     OW 3038   2.573   3.024   1.520  0.1928 -0.1393 -0.0453
  966SOL    HW1 3039   2.596   3.042   1.428 -0.2626 -0.5088 -0.2381
  966SOL    HW2 3040   2.647   3.058   1.570 -0.3870  1.7530 -0.4184
  967SOL     OW 3041   2.550   0.130   1.259 -1.0748 -0.4071  0.5599
  967SOL    HW1 3042   2.541   0.078   1.339 -2.0396 -0.4185  0.4600
  967SOL    HW2 3043   2.638   0.167   1.264 -0.3439 -2.0697  0.6126
  968SOL     OW 3044   2.797   2.784   2.225  1.0049 -0.5036 -0.2710
  968SOL    HW1 3045   2.859   2.833   2.171  0.0258 -1.3795 -2.2939
  968SOL    HW2 3046   2.752   2.851   2.276  1.1003  0.5181 -1.4686
  969SOL     OW 3047   1.578   3.509   3.184  0.4103  0.2663  0.0510
  969SOL    HW1 3048   1.569   3.436   3.245 -0.4858 -0.0290 -0.4085
  969SOL    HW2 3049   1.660   3.491   3.137 -0.7003 -1.4862 -1.3533
  970SOL     OW 3050   0.635   1.216   0.792  0.6885 -0.4576  0.2228
  970SOL    HW1 3051   0.715   1.179   0.754  0.5256 -0.7584  0.1717
  970SOL    HW2 3052   0.662   1.246   0.878  0.6818 -1.2706  0.5188
  971SOL     OW 3053   2.535   0.892   0.606 -0.2428  0.2673 -0.0903
  971SOL    HW1 3054   2.590   0.950   0.660 -0.6546 -0.4927  1.1880
  971SOL    HW2 3055   2.596   0.830   0.568 -0.0278  0.3751  0.0764
  972SOL     OW 3056   0.927   2.737   2.532  0.3108  0.3161  0.2808
  972SOL    HW1 3057   1.022   2.742   2.539  0.4342 -0.7312 -0.4815
  972SOL    HW2 3058   0.899   2.711   2.620  0.5816  2.0882  0.9285
  973SOL     OW 3059   0.350   1.951   3.003  0.6044  0.0715 -0.6534
  973SOL    HW1 3060   0.334   2.016   2.935 -0.9307  0.2086 -0.2028
  973SOL    HW2 3061   0.348   1.867   2.957 -1.3240  0.0892 -0.7128
  974SOL     OW 3062   0.568   0.732   1.242  0.4578  0.3314 -0.0503
  974SOL    HW1 3063   0.577   0.817   1.200  0.5453  0.4817  0.2707
  974SOL    HW2 3064   0.655   0.692   1.235  0.6681  0.6603  0.6374
  975SOL     OW 3065   2.962   2.189   2.080  0.3502 -0.8043  0.8290
  975SOL    HW1 3066   2.936   2.097   2.084 -0.7830 -0.7324 -2.1241
  975SOL    HW2 3067   2.933   2.218   1.993  0.8143  2.3153  1.6023
  976SOL     OW 3068   1.958   3.508   2.320  0.0668 -0.2291 -0.1049
  976SOL    HW1 3069   2.034   3.544   2.365 -1.2615  2.8788 -0.0551
  976SOL    HW2 3070   1.929   3.436   2.375  0.9497  0.7714  1.7718
  977SOL     OW 3071   2.856   0.089   1.690 -0.0459  0.3615  0.1515
  977SOL    HW1 3072   2.876   0.169   1.643 -0.1209  1.5456  2.0480
  977SOL    HW2 3073   2.801   0.117   1.763  1.1886 -1.1671  1.7476
  978SOL     OW 3074   1.526   0.108   1.321  0.6655 -0.8643 -0.3173
  978SOL    HW1 3075   1.545   0.200   1.336 -2.2410  0.2025 -2.3328
  978SOL    HW2 3076   1.612   0.066   1.315  2.0527  1.4140  1.8474
  979SOL     OW 3077   2.452   3.576   0.505 -0.4239  0.3012 -0.0581
  979SOL    HW1 3078   2.382   3.512   0.493 -1.5245  1.4656 -0.1078
  979SOL    HW2 3079   2.494   3.582   0.419  0.6262 -1.3518  0.2942
  980SOL     OW 3080   0.588   1.945   2.261  0.0615 -0.4276  0.5235
  980SOL    HW1 3081   0.548   2.025   2.226  0.6360 -0.1895  0.4107
  980SOL    HW2 3082   0.546   1.933   2.346  1.4417  1.1480  1.4929
  981SOL     OW 3083   2.544   1.119   2.531 -0.7356  0.1005  0.6699
  981SOL    HW1 3084   2.573   1.125   2.622 -0.2532 -1.4817  0.6397
  981SOL    HW2 3085   2.521   1.027   2.518  1.3643 -0.2300 -1.4215
  982SOL     OW 3086   2.440   1.257   3.170  0.2947 -0.0413 -0.0556
  982SOL    HW1 3087   2.367   1.306   3.132  0.4797  0.2601 -0.0302
  982SOL    HW2 3088   2.458   1.187   3.108 -0.3418 -0.4175  0.1813
  983SOL     OW 3089   1.140   0.267   0.301  0.2939 -0.2194  0.7823
  983SOL    HW1 3090   1.103   0.188   0.342  0.3120  0.5432  2.3531
  983SOL    HW2 3091   1.203   0.233   0.238 -0.8081 -1.4882  0.3062
  984SOL     OW 3092   1.710   2.527   0.366  0.1864 -0.2793 -0.2575
  984SOL    HW1 3093   1.759   2.560   0.290 -1.1403 -2.1130 -2.0346
  984SOL    HW2 3094   1.759   2.450   0.394  0.1255 -0.1859  0.1073
  985SOL     OW 3095   3.274   3.595   0.418  0.2696  0.0214  0.0413
  985SOL    HW1 3096   3.279   3.599   0.322  1.1995 -0.5742  0.0495
  985SOL    HW2 3097   3.365   3.583   0.446 -0.0876 -0.6422  0.9567
  986SOL     OW 3098   1.333   2.827   0.916 -0.2043 -0.6809 -0.4182
  986SOL    HW1 3099   1.260   2.833   0.977  0.3637  0.7371  0.1791
  986SOL    HW2 3100   1.407   2.798   0.969  0.5981  1.7609 -0.0638
  987SOL     OW 3101   0.433   2.842   2.783 -0.4993 -0.6023 -0.0459
  987SOL    HW1 3102   0.453   2.852   2.876 -1.9719  3.4441  0.0035
  987SOL    HW2 3103   0.518   2.849   2.739  0.1152 -1.7610  0.8891
  988SOL     OW 3104   1.004   2.898   0.411 -0.1782  0.1407  0.4423
  988SOL    HW1 3105   1.071   2.833   0.388 -0.8495  0.2567 -2.1736
  988SOL    HW2 3106   1.051   2.981   0.415  0.1296 -0.0337  0.5208
  989SOL     OW 3107   1.175   2.477   0.042  0.2458 -0.4594 -0.0845
  989SOL    HW1 3108   1.167   2.532   0.120 -0.7784 -1.4526  0.5426
  989SOL    HW2 3109   1.088   2.440   0.029  0.7698 -1.5146 -0.7993
  990SOL     OW 3110   1.688   1.058   1.615  0.5026 -0.0086  0.3178
  990SOL    HW1 3111   1.744   1.067   1.538  0.8066 -0.3598  0.4934
  990SOL    HW2 3112   1.616   1.120   1.600  0.3821 -0.3139 -0.3975
  991SOL     OW 3113   0.733   3.470   0.832  0.1301  0.8065 -0.3718
  991SOL    HW1 3114   0.739   3.415   0.754  1.8490 -1.4571  1.2165
  991SOL    HW2 3115   0.794   3.541   0.817  0.7276  0.1794 -0.9751
  992SOL     OW 3116   2.054   0.752   3.026  1.0034 -0.3042  0.7325
  992SOL    HW1 3117   2.143   0.782   3.042  0.1338  1.2214  3.1708
  992SOL    HW2 3118   2.007   0.772   3.106 -1.6143 -0.8387 -0.5632
  993SOL     OW 3119   2.279   1.475   3.008  0.5554 -0.5802  0.2022
  993SOL    HW1 3120   2.326   1.547   3.050 -0.0228 -0.2684  0.3287
  993SOL    HW2 3121   2.198   1.514   2.977  0.2145 -1.1868  0.3069
  994SOL     OW 3122   2.780   3.371   1.378  0.5688  0.6246 -0.1782
  994SOL    HW1 3123   2.771   3.427   1.301  0.3404  0.8930  0.0406
  994SOL    HW2 3124   2.853   3.410   1.427  0.3308  0.8088  0.0354
  995SOL     OW 3125   2.901   0.049   1.413  0.2681  0.1684  0.5225
  995SOL    HW1 3126   2.996   0.050   1.399  0.3274 -0.7719  0.8079
  995SOL    HW2 3127   2.891   0.037   1.508 -0.1406  0.4200  0.5129
  996SOL     OW 3128   1.141   0.965   1.878 -0.0363  0.1533 -0.0506
  996SOL    HW1 3129   1.191   0.958   1.797 -1.8402 -0.6588 -1.1575
  996SOL    HW2 3130   1.053   0.990   1.850 -0.5832  0.3105  1.6984
  997SOL     OW 3131   0.988   2.084   3.625  0.0412  0.6091 -0.3490
  997SOL    HW1 3132   0.897   2.061   3.605  0.0705  2.5441 -3.4604
  997SOL    HW2 3133   0.985   2.178   3.642  1.3751  0.5375  0.3693
  998SOL     OW 3134   0.230   0.300   3.388 -0.4437  0.0192  0.3385
  998SOL    HW1 3135   0.253   0.366   3.322 -0.0272  1.5229  1.9014
  998SOL    HW2 3136   0.146   0.331   3.424 -1.0811 -1.2262 -0.0148
  999SOL     OW 3137   0.102   1.733   1.931  0.1460  0.6482 -0.4176
  999SOL    HW1 3138   0.195   1.751   1.920  0.0837  1.4049  0.2335
  999SOL    HW2 3139   0.072   1.708   1.844  0.4217  2.9493 -1.2359
 1000SOL     OW 3140   3.002   2.466   0.657  0.4224  0.2272  0.4119
 1000SOL    HW1 3141   2.987   2.498   0.746 -2.3437 -0.4747  0.3004
 1000SOL    HW2 3142   2.954   2.384   0.652  0.3315  0.3407 -1.7923
 1001SOL     OW 3143   0.405   1.457   2.485 -0.3463  0.3187 -0.5777
 1001SOL    HW1 3144   0.372   1.473   2.573 -1.8081  1.0525 -1.2266
 1001SOL    HW2 3145   0.472   1.523   2.471  1.1012 -0.8400  0.5564
 1002SOL     OW 3146   0.823   1.445   2.913  0.8295 -0.8213 -0.5102
 1002SOL    HW1 3147   0.787   1.401   2.836 -1.5657  0.3916 -0.1980
 1002SOL    HW2 3148   0.855   1.528   2.880 -0.2663 -0.2692 -0.2401
 1003SOL     OW 3149   0.931   0.198   1.999  0.6056 -0.1759 -0.2152
 1003SOL    HW1 3150   1.001   0.137   2.023 -1.5574 -2.6449  0.2897
 1003SOL    HW2 3151   0.875   0.148   1.939 -0.2730  1.9985 -1.3038
 1004SOL     OW 3152   3.362   2.694   0.164  0.1397  0.6240 -0.3340
 1004SOL    HW1 3153   3.385   2.656   0.079 -0.0771 -0.5876  0.1321
 1004SOL    HW2 3154   3.275   2.661   0.183 -0.8091  2.7560 -0.6777
 1005SOL     OW 3155   1.070   1.445   3.031  0.1512  0.4370 -0.2828
 1005SOL    HW1 3156   1.091   1.534   3.004 -0.2867  0.4394 -0.6316
 1005SOL    HW2 3157   0.985   1.427   2.991  0.4351 -0.2907 -0.5824
 1006SOL     OW 3158   2.830   2.931   2.657 -0.5106  0.5858  0.0085
 1006SOL    HW1 3159   2.740   2.900   2.668  0.6753 -4.1278 -1.2872
 1006SOL    HW2 3160   2.864   2.940   2.746 -1.7477  0.8000  0.4698
 1007SOL     OW 3161   0.054   2.030   2.150 -0.0974  0.5419 -0.6114
 1007SOL    HW1 3162  -0.022   1.981   2.119 -1.1870  1.7767 -0.0099
 1007SOL    HW2 3163   0.042   2.117   2.112  0.3542  1.0971  0.4717
 1008SOL     OW 3164   1.833   2.151   3.412 -0.5794 -0.2482 -0.0082
 1008SOL    HW1 3165   1.879   2.148   3.495  0.9195  0.0229 -0.8036
 1008SOL    HW2 3166   1.755   2.203   3.430 -0.4435 -0.4593  1.2917
 1009SOL     OW 3167   1.993   1.254   2.512 -0.5795  0.0301  0.0432
 1009SOL    HW1 3168   1.927   1.188   2.531 -1.5490  1.1966  0.9001
 1009SOL    HW2 3169   2.060   1.208   2.462 -0.8521 -1.7601  1.2496
 1010SOL     OW 3170   1.844   3.673   2.616 -0.0944 -0.3925  0.6828
 1010SOL    HW1 3171   1.750   3.690   2.619  0.0590  0.6628  0.0537
 1010SOL    HW2 3172   1.856   3.611   2.544 -0.4037 -1.3414  1.4277
 1011SOL     OW 3173   3.659   3.093   2.145 -0.0077 -0.0833  1.1862
 1011SOL    HW1 3174   3.631   3.182   2.162  1.9291  0.6358  0.9187
 1011SOL    HW2 3175   3.695   3.062   2.228  1.0511  0.1029  0.8180
 1012SOL     OW 3176   0.080   2.968   0.369  0.4333  0.3765  0.0684
 1012SOL    HW1 3177  -0.014   2.952   0.365  0.7209 -1.3700 -0.4750
 1012SOL    HW2 3178   0.099   3.022   0.292 -0.1494  1.0245  0.3677
 1013SOL     OW 3179   1.027   3.336   2.856 -0.1406 -0.4337 -0.0217
 1013SOL    HW1 3180   1.078   3.405   2.814 -0.1529 -0.5275 -0.1930
 1013SOL    HW2 3181   1.080   3.257   2.845  0.2792 -0.2972  0.9333
 1014SOL     OW 3182   3.310   1.974   2.748 -0.7233  0.5195  0.4920
 1014SOL    HW1 3183   3.357   1.991   2.666 -0.9787 -2.0561 -0.2865
 1014SOL    HW2 3184   3.219   1.965   2.721 -1.1833  2.0320  1.4668
 1015SOL     OW 3185   1.704   0.034   0.916  0.4615 -0.3505 -0.0573
 1015SOL    HW1 3186   1.766  -0.032   0.885  1.8154  1.1009 -0.5570
 1015SOL    HW2 3187   1.754   0.116   0.917 -1.4194  0.8684 -0.3726
 1016SOL     OW 3188   0.306   2.035   0.631 -0.6308 -0.0090 -0.0057
 1016SOL    HW1 3189   0.326   2.068   0.719  2.2815 -0.4120 -0.4117
 1016SOL    HW2 3190   0.364   2.084   0.573 -0.2508 -1.8594 -1.2940
 1017SOL     OW 3191   2.327   1.036   0.734 -0.7763 -0.3210  0.0883
 1017SOL    HW1 3192   2.304   0.984   0.811 -1.4143 -0.6507 -0.3187
 1017SOL    HW2 3193   2.421   1.018   0.721 -0.7936 -0.6990  0.4598
 1018SOL     OW 3194   2.425   2.533   3.582 -0.3547  0.4549 -0.1978
 1018SOL    HW1 3195   2.442   2.624   3.607 -1.0643  0.5640 -0.0792
 1018SOL    HW2 3196   2.474   2.520   3.501  1.6418  0.2410  0.9785
 1019SOL     OW 3197   2.645   1.727   2.056  0.2058  0.8998  0.7534
 1019SOL    HW1 3198   2.667   1.660   1.992  0.1462  2.5970 -1.1627
 1019SOL    HW2 3199   2.603   1.680   2.127 -1.3068 -0.9163 -1.2099
 1020SOL     OW 3200   2.923   2.022   3.459  0.2478 -0.7157 -0.1673
 1020SOL    HW1 3201   2.940   2.018   3.553 -1.8300 -0.9550  0.2580
 1020SOL    HW2 3202   2.922   2.116   3.439  2.1401 -0.6888 -0.2930
 1021SOL     OW 3203   2.116   1.236   3.012  0.2689 -0.1548  0.4994
 1021SOL    HW1 3204   2.172   1.302   2.970  0.5256 -0.1890  0.7870
 1021SOL    HW2 3205   2.085   1.182   2.940  0.8599 -0.3280  0.3683
 1022SOL     OW 3206   2.607   1.381   2.524  0.1406 -0.8323  0.4294
 1022SOL    HW1 3207   2.555   1.417   2.596  0.5707  0.5152  0.0998
 1022SOL    HW2 3208   2.563   1.300   2.501 -1.1855 -0.2721  0.8820
 1023SOL     OW 3209   0.148   3.399   2.767 -0.1755 -0.5041 -0.2270
 1023SOL    HW1 3210   0.096   3.466   2.810 -1.2741 -0.2885 -1.8418
 1023SOL    HW2 3211   0.208   3.369   2.835  0.0233  1.7494  0.6769
 1024SOL     OW 3212   0.977   0.614   2.996  0.9389 -0.0409 -0.2762
 1024SOL    HW1 3213   1.035   0.648   2.928  1.3748 -1.4735 -0.6630
 1024SOL    HW2 3214   0.952   0.691   3.047  1.4883  0.9051 -1.3840
 1025SOL     OW 3215   3.148   2.414   2.093 -0.0358 -0.6122 -0.0911
 1025SOL    HW1 3216   3.137   2.465   2.013 -1.2561  1.5413  1.3448
 1025SOL    HW2 3217   3.084   2.343   2.086 -2.0872  1.1400  0.1003
 1026SOL     OW 3218   0.427   2.485   1.292 -0.3206  0.2921  0.1840
 1026SOL    HW1 3219   0.486   2.556   1.265  0.7971 -1.4356 -2.2327
 1026SOL    HW2 3220   0.486   2.413   1.316 -1.3565 -1.2463 -1.6127
 1027SOL     OW 3221   2.230   1.052   3.351 -0.3223  0.5371 -0.0855
 1027SOL    HW1 3222   2.291   1.075   3.422  0.9865  1.0202 -1.3270
 1027SOL    HW2 3223   2.186   1.135   3.330 -1.4440  0.2019  0.7717
 1028SOL     OW 3224   3.683   3.439   1.496  0.0796  0.1026 -0.0181
 1028SOL    HW1 3225   3.655   3.519   1.452 -0.3872 -0.6682 -1.1727
 1028SOL    HW2 3226   3.610   3.379   1.486  0.8856 -0.8770 -0.2542
 1029SOL     OW 3227   2.980   3.641   0.743  0.4434  0.1545 -0.0568
 1029SOL    HW1 3228   3.040   3.676   0.678 -0.6647  3.9098  0.6457
 1029SOL    HW2 3229   2.915   3.592   0.693  0.8945  0.9846 -1.5020
 1030SOL     OW 3230   2.951   2.173   0.920  0.4363 -0.2824  0.7254
 1030SOL    HW1 3231   2.895   2.184   0.997 -2.0928 -1.4533 -0.8056
 1030SOL    HW2 3232   2.974   2.081   0.919 -0.4867 -0.5317 -0.4404
 1031SOL     OW 3233   3.369   3.529   1.763  0.3953  0.5617 -0.0364
 1031SOL    HW1 3234   3.341   3.581   1.839 -0.9625  0.0628 -0.1588
 1031SOL    HW2 3235   3.420   3.590   1.710 -0.7332  1.6502  0.0692
 1032SOL     OW 3236   3.035   1.867   1.190 -0.0109  0.2250 -0.3983
 1032SOL    HW1 3237   2.967   1.917   1.234  1.1982  0.2105  1.6325
 1032SOL    HW2 3238   3.002   1.854   1.101 -2.0140  1.3703  0.1147
 1033SOL     OW 3239   1.415   3.262   2.796  0.3031 -0.1282 -0.6038
 1033SOL    HW1 3240   1.366   3.263   2.714  1.0459 -1.3201 -1.0914
 1033SOL    HW2 3241   1.447   3.351   2.806  2.2169 -0.4636 -2.8904
 1034SOL     OW 3242   2.095   3.093   1.334 -0.2709 -0.4067  0.3747
 1034SOL    HW1 3243   2.095   3.058   1.424 -2.2428 -2.5624 -0.3556
 1034SOL    HW2 3244   2.029   3.162   1.336 -0.6661 -0.7779  0.5038
 1035SOL     OW 3245   3.366   1.547   2.035 -1.2142 -0.8142 -0.0058
 1035SOL    HW1 3246   3.339   1.613   2.098 -1.4677 -0.1773 -0.7609
 1035SOL    HW2 3247   3.461   1.542   2.046 -1.3359 -1.2516  0.9300
 1036SOL     OW 3248   3.389   0.523   3.637  0.3767 -0.0346 -0.3017
 1036SOL    HW1 3249   3.465   0.488   3.684  0.8130  0.9827 -0.2286
 1036SOL    HW2 3250   3.422   0.601   3.593 -0.7730  0.7974  0.2601
 1037SOL     OW 3251   3.497   1.637   2.296  0.3685  0.3956  0.1474
 1037SOL    HW1 3252   3.575   1.606   2.342 -0.0115 -0.8735 -0.0374
 1037SOL    HW2 3253   3.424   1.610   2.351 -0.0801 -0.9504 -1.0455
 1038SOL     OW 3254   1.900   0.113   0.360  0.1396  0.3739 -0.3046
 1038SOL    HW1 3255   1.979   0.094   0.309 -1.6670  0.1754 -3.3369
 1038SOL    HW2 3256   1.883   0.206   0.343 -0.4477  0.3233 -0.0143
 1039SOL     OW 3257   0.408   2.866   1.890 -0.1093 -0.1233  0.0573
 1039SOL    HW1 3258   0.431   2.876   1.982 -1.1791 -0.2275  0.3568
 1039SOL    HW2 3259   0.489   2.840   1.847  0.6385  0.9229  0.7876
 1040SOL     OW 3260   0.044   0.716   1.006 -0.0753  0.5330 -0.2531
 1040SOL    HW1 3261   0.028   0.770   1.084  0.2315  3.0018 -1.7821
 1040SOL    HW2 3262   0.094   0.773   0.948 -0.6777 -1.0760 -2.4672
 1041SOL     OW 3263   3.134   2.943   0.387  0.2090  0.2855  0.8863
 1041SOL    HW1 3264   3.166   3.018   0.437  0.3966  0.2210  0.8637
 1041SOL    HW2 3265   3.040   2.940   0.405  0.2750  0.2647  1.2300
 1042SOL     OW 3266   0.394   2.916   3.088 -0.0799  0.4922  0.0471
 1042SOL    HW1 3267   0.364   2.988   3.034 -1.6858  1.7650  2.4763
 1042SOL    HW2 3268   0.382   2.946   3.178  0.1136 -2.4266  1.1688
 1043SOL     OW 3269   0.114   1.049   2.767 -0.0016  0.4217 -0.0218
 1043SOL    HW1 3270   0.094   1.140   2.745 -1.2220  0.3695  0.7599
 1043SOL    HW2 3271   0.133   1.008   2.683 -0.3552  1.1871 -0.4901
 1044SOL     OW 3272   3.419   3.190   0.797  0.0112 -0.6945 -1.1155
 1044SOL    HW1 3273   3.367   3.265   0.767  2.0217  0.6650 -1.4603
 1044SOL    HW2 3274   3.457   3.154   0.717  1.2463 -0.3202 -0.7269
 1045SOL     OW 3275   0.966   0.420   0.689 -0.1504  0.5011 -0.1759
 1045SOL    HW1 3276   1.048   0.407   0.643  0.5428  1.7596  0.6447
 1045SOL    HW2 3277   0.902   0.439   0.620  0.1939 -0.5813 -0.8254
 1046SOL     OW 3278   3.546   3.376   3.633 -0.3199  0.3798  0.1136
 1046SOL    HW1 3279   3.471   3.317   3.637  0.4325 -0.6371 -0.1705
 1046SOL    HW2 3280   3.508   3.463   3.632 -1.5332 -0.1223 -0.8185
 1047SOL     OW 3281   2.688   1.908   3.330 -0.3025  0.2473 -0.5340
 1047SOL    HW1 3282   2.693   1.944   3.241 -0.5670 -0.5714 -0.8916
 1047SOL    HW2 3283   2.767   1.941   3.374 -0.2464  0.7821 -1.0228
 1048SOL     OW 3284   0.031   2.425   1.406 -0.4773 -0.1827  0.0455
 1048SOL    HW1 3285   0.016   2.382   1.491  0.5694 -1.4256 -0.3645
 1048SOL    HW2 3286   0.011   2.517   1.422  1.9933  0.0945  2.3520
 1049SOL     OW 3287   2.606   2.087   2.820  0.7025 -0.0482  0.1681
 1049SOL    HW1 3288   2.650   2.159   2.775 -3.0905  1.2721 -1.9187
 1049SOL    HW2 3289   2.624   2.010   2.766  0.8264  0.3825 -0.4155
 1050SOL     OW 3290   2.187   1.265   0.492 -0.6679  0.0560 -0.1786
 1050SOL    HW1 3291   2.275   1.228   0.499 -0.8361 -0.0265  2.2447
 1050SOL    HW2 3292   2.195   1.330   0.422  1.2095 -0.2043 -0.2778
 1051SOL     OW 3293   1.980   2.711   2.141 -0.0578  0.3698  0.0737
 1051SOL    HW1 3294   1.985   2.728   2.047 -0.6966  1.6742  0.2542
 1051SOL    HW2 3295   1.933   2.786   2.176 -0.6842 -0.5691  1.3132
 1052SOL     OW 3296   1.551   3.359   0.966 -0.0076  0.1600  0.0877
 1052SOL    HW1 3297   1.492   3.360   1.042 -1.0769  1.7434 -0.7076
 1052SOL    HW2 3298   1.492   3.355   0.890  0.8908  1.5136 -0.7241
 1053SOL     OW 3299   1.636   2.794   2.297  0.1953  0.1437 -0.7027
 1053SOL    HW1 3300   1.723   2.832   2.314  0.2420  0.0685 -0.7701
 1053SOL    HW2 3301   1.651   2.700   2.298  0.1498  0.1345 -0.9001
 1054SOL     OW 3302   3.263   2.097   2.229 -0.5680 -0.1127 -0.1477
 1054SOL    HW1 3303   3.198   2.166   2.219 -1.0612 -0.4952  0.3781
 1054SOL    HW2 3304   3.321   2.107   2.153 -2.1241 -0.7259 -1.4598
 1055SOL     OW 3305   0.141   1.502   1.658  0.0179  0.2404  0.2865
 1055SOL    HW1 3306   0.145   1.507   1.562 -0.5594 -0.3161  0.2335
 1055SOL    HW2 3307   0.069   1.560   1.682 -1.1002 -1.0901  0.2439
 1056SOL     OW 3308   1.296   0.113   3.082 -0.5664  0.3106  0.6025
 1056SOL    HW1 3309   1.216   0.156   3.112 -0.0469  1.3557  0.5176
 1056SOL    HW2 3310   1.357   0.121   3.155 -1.0402 -1.9516  1.3202
 1057SOL     OW 3311   0.415   0.866   3.032 -0.0789 -0.0357 -0.8510
 1057SOL    HW1 3312   0.439   0.885   2.941 -0.9503  2.2060 -0.6695
 1057SOL    HW2 3313   0.391   0.951   3.069 -0.9130 -1.0734  1.1426
 1058SOL     OW 3314   1.056   0.880   0.022 -0.2266  0.3417  0.0048
 1058SOL    HW1 3315   1.098   0.845   0.101  0.5102  0.5383 -0.2929
 1058SOL    HW2 3316   1.033   0.804  -0.030 -1.8153  0.1303  0.9298
 1059SOL     OW 3317   3.424   1.001   0.103 -0.6029 -0.3635 -0.2267
 1059SOL    HW1 3318   3.415   0.949   0.183 -1.1023  1.6315  1.0800
 1059SOL    HW2 3319   3.418   1.092   0.132 -1.5705  0.4239 -2.6443
 1060SOL     OW 3320   2.100   2.082   1.729  0.4398  0.1119 -0.0453
 1060SOL    HW1 3321   2.015   2.115   1.758  0.3349 -0.4672  0.3285
 1060SOL    HW2 3322   2.098   1.988   1.750  0.9267 -0.0350 -0.6140
 1061SOL     OW 3323   2.707   3.534   0.068 -0.1535 -0.3864  0.1368
 1061SOL    HW1 3324   2.767   3.464   0.043  0.9966  0.0344  1.5793
 1061SOL    HW2 3325   2.713   3.598  -0.004 -0.8510 -1.5020 -0.9526
 1062SOL     OW 3326   0.060   3.185   1.127 -0.6264 -0.2361 -0.1510
 1062SOL    HW1 3327   0.071   3.245   1.052  1.1608 -2.1091 -1.5055
 1062SOL    HW2 3328   0.019   3.107   1.090 -0.9671 -0.6836  1.1211
 1063SOL     OW 3329   3.232   1.176   1.644 -0.1173 -0.1556 -0.1989
 1063SOL    HW1 3330   3.245   1.260   1.600  0.1954 -1.0137 -1.8177
 1063SOL    HW2 3331   3.203   1.200   1.732  3.5308  1.7426  0.6876
 1064SOL     OW 3332   2.417   0.515   1.454  0.5449 -0.3861  0.7560
 1064SOL    HW1 3333   2.386   0.453   1.520  1.6463 -1.2266  0.4944
 1064SOL    HW2 3334   2.436   0.462   1.377 -0.0533  0.4979 -0.0302
 1065SOL     OW 3335   0.139   2.341   2.666 -0.2342  0.3193 -0.6241
 1065SOL    HW1 3336   0.133   2.408   2.598 -0.8274 -0.8781 -1.8033
 1065SOL    HW2 3337   0.075   2.367   2.732 -1.2616  0.3565 -1.5984
 1066SOL     OW 3338   0.512   0.845   2.116 -0.1971  0.6918  0.1757
 1066SOL    HW1 3339   0.548   0.829   2.029  2.4530  1.1737  1.0785
 1066SOL    HW2 3340   0.484   0.937   2.114 -0.4239  0.6163 -0.2318
 1067SOL     OW 3341   2.915   2.941   1.383  0.4774  0.6715  0.2047
 1067SOL    HW1 3342   3.008   2.924   1.401  1.2385  4.0099 -0.0466
 1067SOL    HW2 3343   2.914   2.975   1.293 -0.8194  1.7784  0.6124
 1068SOL     OW 3344   1.342   2.203   3.363  0.0571 -0.4478  0.0958
 1068SOL    HW1 3345   1.346   2.220   3.457  0.1237  0.1273 -0.0119
 1068SOL    HW2 3346   1.255   2.231   3.336  0.0303 -0.6311 -0.0099
 1069SOL     OW 3347   0.913   3.365   2.581  0.2679  0.0801 -0.1435
 1069SOL    HW1 3348   0.922   3.271   2.568  1.2248  0.0789  0.4763
 1069SOL    HW2 3349   0.871   3.374   2.666  0.1389  0.2146 -0.2204
 1070SOL     OW 3350   1.757   1.912   0.512  0.0689 -0.3084  0.1694
 1070SOL    HW1 3351   1.746   1.879   0.602 -1.4947 -0.1875  0.0580
 1070SOL    HW2 3352   1.830   1.973   0.517 -1.8243  2.0349  2.0865
 1071SOL     OW 3353   2.210   1.397   2.683  0.2200  0.2063 -0.6264
 1071SOL    HW1 3354   2.284   1.341   2.708  0.9790  0.7882 -1.4980
 1071SOL    HW2 3355   2.150   1.338   2.638 -0.5546 -0.5795  1.2888
 1072SOL     OW 3356   2.509   0.278   0.892  0.4648 -0.0531 -0.1084
 1072SOL    HW1 3357   2.558   0.316   0.820 -1.5207  0.8415 -1.0676
 1072SOL    HW2 3358   2.567   0.211   0.928  1.6935 -0.2319 -2.2528
 1073SOL     OW 3359   2.069   3.455   2.699  0.4084  0.2599  0.7616
 1073SOL    HW1 3360   2.000   3.412   2.648 -0.8664  2.0682  0.8566
 1073SOL    HW2 3361   2.090   3.392   2.768  1.6761 -1.9475 -1.4845
 1074SOL     OW 3362   3.476   2.418   1.705 -0.1195  0.6488  1.2010
 1074SOL    HW1 3363   3.467   2.414   1.800  0.3021  1.1735  1.2663
 1074SOL    HW2 3364   3.570   2.418   1.690 -0.1840  0.6334  0.7838
 1075SOL     OW 3365   0.064   2.073   1.656  0.2669  0.4289 -0.0756
 1075SOL    HW1 3366  -0.018   2.085   1.608  0.8263  2.0774 -0.6713
 1075SOL    HW2 3367   0.117   2.018   1.598 -0.4845 -0.8818  0.4343
 1076SOL     OW 3368   0.272   1.210   2.118 -0.8185 -0.1455  0.5950
 1076SOL    HW1 3369   0.347   1.151   2.112  0.8703  1.9963 -0.5569
 1076SOL    HW2 3370   0.249   1.229   2.027 -1.9601  0.2477  0.9431
 1077SOL     OW 3371   1.204  -0.023   3.316 -0.1231  0.6846  0.2556
 1077SOL    HW1 3372   1.169   0.061   3.343  0.0085  0.5101  0.9760
 1077SOL    HW2 3373   1.299  -0.015   3.328  0.0300  0.8693 -0.8993
 1078SOL     OW 3374   2.886   1.329   1.001  0.0081 -0.1800 -0.1581
 1078SOL    HW1 3375   2.961   1.314   1.058 -0.0342 -3.6530 -0.8354
 1078SOL    HW2 3376   2.922   1.329   0.913 -0.2068  3.2427 -0.4004
 1079SOL     OW 3377   0.488   0.803   1.794 -0.0298  0.5118  0.3123
 1079SOL    HW1 3378   0.425   0.874   1.790 -0.0523  0.4660 -0.3440
 1079SOL    HW2 3379   0.538   0.810   1.712 -1.4277 -1.4896 -0.8058
 1080SOL     OW 3380   2.651   3.669   0.334  0.0623  0.3771 -0.2319
 1080SOL    HW1 3381   2.593   3.714   0.273 -0.8428  0.3588  0.5775
 1080SOL    HW2 3382   2.702   3.738   0.375 -0.1549  0.4998 -0.1711
 1081SOL     OW 3383   3.126   0.339   2.106  0.1038 -0.0036 -0.0278
 1081SOL    HW1 3384   3.211   0.356   2.147 -1.0820 -0.1455  2.6508
 1081SOL    HW2 3385   3.139   0.259   2.056  2.0375  1.0474 -1.3606
 1082SOL     OW 3386   0.936   0.896   2.375 -0.5356  0.1778  0.5898
 1082SOL    HW1 3387   0.928   0.948   2.455 -4.6136 -1.1980  1.3020
 1082SOL    HW2 3388   0.917   0.958   2.305 -0.2434  0.7145  0.9742
 1083SOL     OW 3389   0.164   1.787   3.180  0.2685 -0.3750 -0.1301
 1083SOL    HW1 3390   0.123   1.768   3.264 -2.6341 -0.8320 -1.5271
 1083SOL    HW2 3391   0.182   1.881   3.182 -1.2920 -0.0637  0.4196
 1084SOL     OW 3392   1.810   1.553   1.023 -0.4688 -0.2656  0.0766
 1084SOL    HW1 3393   1.794   1.645   1.045  0.2451 -0.3559  1.0323
 1084SOL    HW2 3394   1.731   1.507   1.052 -0.3975 -0.0917  0.5527
 1085SOL     OW 3395   0.461   1.252   1.698 -0.6304  0.4218  0.4375
 1085SOL    HW1 3396   0.532   1.219   1.754  0.1685  1.0173 -0.1904
 1085SOL    HW2 3397   0.389   1.268   1.758 -0.4474 -0.7603  1.0110
 1086SOL     OW 3398   2.785   2.433   3.278 -0.3058 -0.5083 -0.3086
 1086SOL    HW1 3399   2.793   2.391   3.192  0.5432  0.7092 -0.8536
 1086SOL    HW2 3400   2.709   2.489   3.270  1.7082  2.2649 -1.5092
 1087SOL     OW 3401   3.717   1.498   2.419 -0.7228  0.0202 -0.1778
 1087SOL    HW1 3402   3.695   1.415   2.376  1.5973 -0.8076  0.0622
 1087SOL    HW2 3403   3.715   1.477   2.513 -2.1134  0.8267  0.0019
 1088SOL     OW 3404   0.802   1.000   2.899 -0.0977 -0.1056 -0.4230
 1088SOL    HW1 3405   0.824   0.988   2.991 -0.3136  0.0975 -0.3438
 1088SOL    HW2 3406   0.884   0.986   2.852  0.7040  2.5420  0.0000
 1089SOL     OW 3407   1.564   1.809   1.506 -0.0092  0.0042  0.3294
 1089SOL    HW1 3408   1.510   1.810   1.584  0.8415 -1.0365  0.9586
 1089SOL    HW2 3409   1.570   1.900   1.478  0.6928  0.5616  2.1993
 1090SOL     OW 3410   2.093   2.132   2.897 -0.0780  0.3860 -0.8340
 1090SOL    HW1 3411   2.183   2.099   2.905 -0.3749 -0.1552  0.5594
 1090SOL    HW2 3412   2.077   2.177   2.980 -0.8684  1.0845 -1.3481
 1091SOL     OW 3413   0.302   1.799   0.182  0.6664 -0.2096  0.6247
 1091SOL    HW1 3414   0.262   1.883   0.161  1.1337 -0.9304 -4.1919
 1091SOL    HW2 3415   0.396   1.815   0.176  0.7683 -0.9415  0.1260
 1092SOL     OW 3416   1.166   1.930   1.988  0.3299 -0.0911 -0.0091
 1092SOL    HW1 3417   1.078   1.962   2.009  0.9802  0.7964  1.4633
 1092SOL    HW2 3418   1.164   1.837   2.010 -0.7472 -0.5342 -1.7208
 1093SOL     OW 3419   3.031   1.113   2.544  0.5075  0.6006 -0.2512
 1093SOL    HW1 3420   3.034   1.017   2.534  0.1101  0.4931  0.5432
 1093SOL    HW2 3421   3.033   1.126   2.639 -1.5566  1.3082 -0.2647
 1094SOL     OW 3422   0.980   3.498   0.172 -0.2048 -0.3240 -0.2345
 1094SOL    HW1 3423   1.003   3.463   0.086  2.7066  0.7793 -0.0178
 1094SOL    HW2 3424   0.971   3.593   0.158  0.3739 -0.1192  0.6739
 1095SOL     OW 3425   2.017   1.864   1.508 -0.3395 -0.1626 -0.6828
 1095SOL    HW1 3426   1.989   1.858   1.416 -0.7158  1.7789 -0.7264
 1095SOL    HW2 3427   2.105   1.902   1.503 -0.6441  0.6294 -0.2328
 1096SOL     OW 3428   3.497   2.448   0.989 -0.2790  0.6032  0.3799
 1096SOL    HW1 3429   3.402   2.447   0.983 -0.2617 -0.5815  0.1339
 1096SOL    HW2 3430   3.521   2.359   1.015  0.8055  0.6502 -0.3727
 1097SOL     OW 3431   1.382   0.536   2.651 -0.1479  0.4975 -0.5936
 1097SOL    HW1 3432   1.419   0.624   2.657 -0.1109  0.5852 -1.8721
 1097SOL    HW2 3433   1.288   0.549   2.666  0.1999  0.2973  2.4579
 1098SOL     OW 3434   2.733   2.304   2.735  0.0238  0.3388  0.3443
 1098SOL    HW1 3435   2.736   2.393   2.700 -1.9752  1.2465  2.2883
 1098SOL    HW2 3436   2.815   2.264   2.705  0.1380  2.1782 -2.1583
 1099SOL     OW 3437   3.628   0.979   1.692  0.2056 -0.2064 -0.3780
 1099SOL    HW1 3438   3.610   0.897   1.645  0.0155 -0.2424 -0.2456
 1099SOL    HW2 3439   3.684   1.029   1.633  1.0434 -0.7929 -0.1032
 1100SOL     OW 3440   3.325   2.376   1.460 -0.4668  0.0118 -0.1745
 1100SOL    HW1 3441   3.340   2.458   1.412  1.1550 -0.1099  0.0614
 1100SOL    HW2 3442   3.344   2.398   1.551 -0.7764 -0.4398  0.0021
 1101SOL     OW 3443   2.115   1.308   0.787 -0.1779  0.4101  0.4070
 1101SOL    HW1 3444   2.136   1.290   0.695 -1.6630  2.4569 -0.4160
 1101SOL    HW2 3445   2.189   1.273   0.836  0.3917 -1.2616 -1.5026
 1102SOL     OW 3446   1.180   3.509   0.903  0.4236 -0.4490  0.2468
 1102SOL    HW1 3447   1.142   3.508   0.815 -1.6146 -0.1648  1.0636
 1102SOL    HW2 3448   1.110   3.477   0.960  2.5436 -3.3176  1.5164
 1103SOL     OW 3449   0.838   1.896   2.387  0.4202 -1.0761 -0.9448
 1103SOL    HW1 3450   0.764   1.906   2.327 -1.6487 -2.6042  1.1716
 1103SOL    HW2 3451   0.855   1.985   2.418 -3.6249 -0.9604  1.8228
 1104SOL     OW 3452   2.435   1.590   1.715  0.1066 -0.8637 -0.0031
 1104SOL    HW1 3453   2.486   1.647   1.657 -1.3456 -0.7403 -1.2318
 1104SOL    HW2 3454   2.459   1.501   1.689  2.3051 -0.8986  1.8522
 1105SOL     OW 3455   1.250   0.371   0.049 -0.0746  0.2184 -0.8884
 1105SOL    HW1 3456   1.271   0.281   0.024 -0.2145  0.2136 -0.9889
 1105SOL    HW2 3457   1.318   0.395   0.112 -0.7809 -0.4076  0.1340
 1106SOL     OW 3458   1.563   3.268   1.755  0.1284  0.6207 -0.0308
 1106SOL    HW1 3459   1.501   3.211   1.800 -2.0709 -0.4880 -3.9630
 1106SOL    HW2 3460   1.649   3.228   1.771 -1.1030 -2.5513 -0.7129
 1107SOL     OW 3461   2.672   0.013   3.586 -0.3584 -0.2943  0.3116
 1107SOL    HW1 3462   2.634  -0.026   3.507  0.4380  1.0590 -0.7902
 1107SOL    HW2 3463   2.756   0.049   3.557  0.0178  0.1119  1.8190
 1108SOL     OW 3464   0.238   0.972   2.487 -0.4983  0.2361  0.0464
 1108SOL    HW1 3465   0.307   0.916   2.453  0.2803  0.5281  1.0931
 1108SOL    HW2 3466   0.248   1.055   2.440 -0.7610 -0.0423 -0.5012
 1109SOL     OW 3467   2.718   3.345   2.662 -0.1166  0.1363  0.0176
 1109SOL    HW1 3468   2.776   3.278   2.623 -0.5660 -0.4626  0.3565
 1109SOL    HW2 3469   2.737   3.424   2.612  1.4964  0.1380  0.5604
 1110SOL     OW 3470   3.329   2.778   0.662  0.2827 -0.7590  0.5217
 1110SOL    HW1 3471   3.271   2.827   0.720  1.1160  1.1365 -0.1682
 1110SOL    HW2 3472   3.413   2.824   0.667  0.6263 -1.0836 -1.4506
 1111SOL     OW 3473   2.966   3.578   2.682 -0.3849  1.1289  0.7143
 1111SOL    HW1 3474   2.936   3.664   2.652 -0.6806  1.3776  1.7021
 1111SOL    HW2 3475   3.058   3.592   2.704 -0.3404  1.1029  0.5489
 1112SOL     OW 3476   0.108   2.802   2.676  0.2054  1.2423 -0.0471
 1112SOL    HW1 3477   0.180   2.823   2.617  1.2234  1.0464  1.0980
 1112SOL    HW2 3478   0.136   2.723   2.722 -0.9409  0.9005  0.1049
 1113SOL     OW 3479   1.566   2.151   1.743  0.2280 -0.3110 -0.3583
 1113SOL    HW1 3480   1.475   2.123   1.755 -0.4511  2.4568  2.2685
 1113SOL    HW2 3481   1.608   2.134   1.828  1.5104  0.5646 -0.7847
 1114SOL     OW 3482   1.931   2.678   1.353  0.1194  0.4775  0.1898
 1114SOL    HW1 3483   1.898   2.764   1.377 -0.9321 -0.4950  2.4640
 1114SOL    HW2 3484   1.858   2.618   1.368  0.6707 -0.8098 -1.7729
 1115SOL     OW 3485   0.837   3.012   0.169 -0.4479  0.0478 -0.0394
 1115SOL    HW1 3486   0.886   2.936   0.200  2.7408  2.0223  0.1728
 1115SOL    HW2 3487   0.785   2.979   0.096 -0.9744 -2.7548  1.4787
 1116SOL     OW 3488   1.939   2.641   0.162  0.3661  0.5856  0.2688
 1116SOL    HW1 3489   2.001   2.588   0.112 -0.0222  0.0966  0.2984
 1116SOL    HW2 3490   1.970   2.635   0.252 -0.5137 -0.8117  0.4986
 1117SOL     OW 3491   1.922   0.681   0.404  0.0277 -0.4484  0.6165
 1117SOL    HW1 3492   1.878   0.616   0.460 -3.0660 -1.1440 -2.2382
 1117SOL    HW2 3493   1.922   0.761   0.456  0.8882 -1.8816  2.9978
 1118SOL     OW 3494   0.540   2.619   2.945  0.3471  0.9749  0.4679
 1118SOL    HW1 3495   0.594   2.592   2.870 -1.3993 -0.8272 -0.2136
 1118SOL    HW2 3496   0.589   2.588   3.022  0.0811 -1.1092 -0.1591
 1119SOL     OW 3497   3.183   3.225   3.208 -0.1224 -0.0784  0.2773
 1119SOL    HW1 3498   3.257   3.206   3.264 -0.1127 -0.7877  0.0330
 1119SOL    HW2 3499   3.220   3.230   3.120 -0.2967 -0.0189  0.2059
 1120SOL     OW 3500   2.296   0.180   2.501 -0.2840  0.2062  0.1709
 1120SOL    HW1 3501   2.268   0.226   2.422 -1.9631 -1.5375 -0.3046
 1120SOL    HW2 3502   2.232   0.205   2.567  0.1951  0.4065  0.5668
 1121SOL     OW 3503   2.855   1.716   1.442  0.9662 -0.0124 -0.2974
 1121SOL    HW1 3504   2.810   1.645   1.487  1.1384 -0.2408 -0.4861
 1121SOL    HW2 3505   2.789   1.786   1.437  0.5993 -0.3736 -0.6468
 1122SOL     OW 3506   1.090   2.995   3.664 -0.3309 -0.2035 -0.9391
 1122SOL    HW1 3507   1.179   3.001   3.699 -0.4278 -3.3016  0.0679
 1122SOL    HW2 3508   1.074   3.081   3.625  2.4990  0.9632  0.2362
 1123SOL     OW 3509   3.379   2.115   3.657  0.0183 -0.2515 -0.3099
 1123SOL    HW1 3510   3.426   2.033   3.644  1.0828 -0.0816  2.0275
 1123SOL    HW2 3511   3.316   2.096   3.727 -0.1079  0.7680 -0.1288
 1124SOL     OW 3512   2.993   1.882   2.224 -0.4871 -0.1949 -0.1574
 1124SOL    HW1 3513   2.905   1.906   2.196 -0.6463 -1.1965 -0.5593
 1124SOL    HW2 3514   2.980   1.835   2.306 -0.4363 -1.2761 -0.7538
 1125SOL     OW 3515   2.281   2.656   1.532  0.2250  0.0188  0.5230
 1125SOL    HW1 3516   2.349   2.599   1.566  0.5214  0.8847  1.4458
 1125SOL    HW2 3517   2.261   2.621   1.445 -0.2608 -2.0039  1.3942
 1126SOL     OW 3518   3.411   1.547   0.944 -0.3350 -0.3021  0.9720
 1126SOL    HW1 3519   3.484   1.492   0.916 -0.8751 -0.5957  0.0725
 1126SOL    HW2 3520   3.343   1.532   0.877 -1.1180  0.1574  1.6425
 1127SOL     OW 3521   0.829   3.512   1.690 -0.4668 -0.1440  0.5151
 1127SOL    HW1 3522   0.895   3.492   1.755 -1.2270 -0.1631  1.2965
 1127SOL    HW2 3523   0.792   3.427   1.665 -0.3046 -0.1217  0.1847
 1128SOL     OW 3524   1.838   0.227   1.786 -0.1260  0.2091  0.4814
 1128SOL    HW1 3525   1.893   0.173   1.842 -0.1867 -1.4513 -0.9782
 1128SOL    HW2 3526   1.748   0.207   1.814 -0.2256 -1.6263 -0.9909
 1129SOL     OW 3527   1.907   3.534   1.797 -0.2577 -0.0357  0.2283
 1129SOL    HW1 3528   1.909   3.537   1.892  1.4191  0.3918  0.2056
 1129SOL    HW2 3529   1.998   3.547   1.770 -0.9673  1.9631 -1.4916
 1130SOL     OW 3530   1.732   1.708   2.983 -0.1378 -0.7134  0.9857
 1130SOL    HW1 3531   1.692   1.714   2.896  0.5203 -0.5101  0.6896
 1130SOL    HW2 3532   1.790   1.784   2.987 -0.0233 -0.8308  1.5294
 1131SOL     OW 3533   2.506   0.825   1.402  0.1763  0.4358 -0.4721
 1131SOL    HW1 3534   2.502   0.759   1.470 -0.0058  0.7674 -0.1604
 1131SOL    HW2 3535   2.531   0.777   1.323 -0.9907 -0.1678 -0.4792
 1132SOL     OW 3536   3.112   2.358   3.711  0.1476  0.1357 -0.0844
 1132SOL    HW1 3537   3.046   2.361   3.780 -0.0012 -0.6592 -0.1795
 1132SOL    HW2 3538   3.062   2.348   3.630  0.3422  0.5699 -0.2589
 1133SOL     OW 3539   2.844   2.475   1.627 -0.9067  0.0903 -0.9102
 1133SOL    HW1 3540   2.809   2.400   1.580 -1.6829  0.5378 -1.0753
 1133SOL    HW2 3541   2.849   2.544   1.561  2.0842 -0.4299 -1.3734
 1134SOL     OW 3542   2.983   1.595   3.604 -0.5649 -0.0760  0.6402
 1134SOL    HW1 3543   3.077   1.614   3.616 -0.3988 -0.0244 -0.5902
 1134SOL    HW2 3544   2.941   1.681   3.610 -0.9845 -0.3846  4.4019
 1135SOL     OW 3545   2.496   1.054   2.983 -0.3721  0.3250 -0.2295
 1135SOL    HW1 3546   2.448   1.008   2.914 -1.5565  0.6982  0.3246
 1135SOL    HW2 3547   2.500   0.990   3.055  1.6599 -0.4028 -0.9207
 1136SOL     OW 3548   2.548   1.326   1.577  0.1142  0.5138  0.2198
 1136SOL    HW1 3549   2.613   1.291   1.637  0.4962 -1.6249 -1.3294
 1136SOL    HW2 3550   2.520   1.251   1.525 -1.8616  1.8378 -0.7649
 1137SOL     OW 3551   2.858   1.469   3.386  0.0049  0.4448  0.3464
 1137SOL    HW1 3552   2.929   1.451   3.325 -0.1394 -1.7859  0.7469
 1137SOL    HW2 3553   2.896   1.529   3.450  1.0780  0.4146 -0.2455
 1138SOL     OW 3554   2.462   2.449   0.544 -0.1492 -0.3728 -0.6632
 1138SOL    HW1 3555   2.492   2.540   0.551 -3.9980  1.0393  0.3228
 1138SOL    HW2 3556   2.467   2.416   0.634 -0.1781 -0.5790 -0.7384
 1139SOL     OW 3557   0.570   3.351   3.117  0.3253  0.2531 -0.7441
 1139SOL    HW1 3558   0.586   3.287   3.188 -0.7020 -0.4479 -1.1135
 1139SOL    HW2 3559   0.650   3.350   3.066  0.1094 -1.2750 -1.1210
 1140SOL     OW 3560   1.784   3.353   0.568 -0.1143  0.1515  0.1804
 1140SOL    HW1 3561   1.757   3.305   0.646 -0.0082  0.2944  0.3078
 1140SOL    HW2 3562   1.710   3.348   0.508 -0.3518  0.3907  0.4552
 1141SOL     OW 3563   1.078   2.379   2.569  0.1778 -0.4809  0.0684
 1141SOL    HW1 3564   1.127   2.404   2.491 -0.5508  0.4190 -0.1191
 1141SOL    HW2 3565   1.135   2.316   2.614  0.9674 -0.3737 -0.7496
 1142SOL     OW 3566   1.790   2.136   3.078 -0.3400 -0.4649  0.0307
 1142SOL    HW1 3567   1.802   2.230   3.070  0.2025 -0.4128  1.2358
 1142SOL    HW2 3568   1.695   2.123   3.071 -0.2406 -0.1644 -2.9562
 1143SOL     OW 3569   3.665   1.196   2.051 -0.2041  0.1423  0.4525
 1143SOL    HW1 3570   3.725   1.206   1.977  0.4060 -0.9066  0.7814
 1143SOL    HW2 3571   3.665   1.102   2.070 -1.3038  0.2356  1.0051
 1144SOL     OW 3572   2.578   2.737   0.494  0.1420 -0.5288  0.2567
 1144SOL    HW1 3573   2.649   2.682   0.525 -0.4364 -1.1060  0.5806
 1144SOL    HW2 3574   2.614   2.826   0.494  0.6099 -0.7122  1.1855
 1145SOL     OW 3575   2.119   0.366   1.858  0.3485 -0.4557  0.5879
 1145SOL    HW1 3576   2.078   0.343   1.941  0.4592 -1.3316  0.4123
 1145SOL    HW2 3577   2.150   0.456   1.870 -1.2502  0.0822  0.8562
 1146SOL     OW 3578   0.911   1.022   3.143 -0.5839  0.3795 -0.2761
 1146SOL    HW1 3579   0.980   0.963   3.174 -0.1034  0.4953 -1.1137
 1146SOL    HW2 3580   0.949   1.110   3.155 -0.3963  0.4247 -1.1806
 1147SOL     OW 3581   2.479   1.092   1.481  0.0821 -0.1900 -0.1072
 1147SOL    HW1 3582   2.484   1.001   1.451  0.4592 -1.2066  2.7009
 1147SOL    HW2 3583   2.429   1.087   1.563 -1.3748  2.4131 -0.7142
 1148SOL     OW 3584   1.469   3.670   1.057 -0.4318  0.3134  0.7189
 1148SOL    HW1 3585   1.560   3.671   1.028 -0.1648  0.7470  1.5340
 1148SOL    HW2 3586   1.474   3.682   1.152 -1.2012 -2.4527  1.1969
 1149SOL     OW 3587   1.693   2.922   0.222  0.1719  0.1134 -0.1045
 1149SOL    HW1 3588   1.645   2.929   0.304  1.3587  2.9331  0.4743
 1149SOL    HW2 3589   1.651   2.851   0.175 -1.1472 -0.9619  2.5368
 1150SOL     OW 3590   2.600   2.593   0.111 -0.2059  0.6831  0.2400
 1150SOL    HW1 3591   2.602   2.540   0.031 -0.6722  0.5284  0.3282
 1150SOL    HW2 3592   2.517   2.569   0.153 -1.1135  2.4877 -0.3983
 1151SOL     OW 3593   1.569   3.442   0.405 -0.1054  0.4729  0.0715
 1151SOL    HW1 3594   1.489   3.472   0.362  0.0752  1.2755  0.2804
 1151SOL    HW2 3595   1.581   3.504   0.478  0.9442  0.6225 -0.2220
 1152SOL     OW 3596   2.211   1.789   0.985  0.3143 -0.3681  0.6235
 1152SOL    HW1 3597   2.205   1.701   0.948 -1.6062  0.2651 -0.7064
 1152SOL    HW2 3598   2.122   1.823   0.982  0.9147  1.4570  1.5886
 1153SOL     OW 3599   3.054   0.869   2.374  0.6679 -0.2963 -0.0193
 1153SOL    HW1 3600   3.086   0.804   2.312 -2.7638 -0.5431 -1.7646
 1153SOL    HW2 3601   2.977   0.829   2.413 -0.1131  1.7828  0.6952
 1154SOL     OW 3602   3.132   3.116   2.769 -0.4047 -0.3508  0.3223
 1154SOL    HW1 3603   3.061   3.078   2.820  0.2112 -2.1964 -0.1047
 1154SOL    HW2 3604   3.179   3.041   2.734 -1.6943  0.6677 -4.3418
 1155SOL     OW 3605   2.815   0.281   2.899  0.2467  0.0574  0.0158
 1155SOL    HW1 3606   2.866   0.312   2.824 -1.2428  1.1146 -0.5835
 1155SOL    HW2 3607   2.770   0.203   2.867 -0.9741  0.9326 -0.4441
 1156SOL     OW 3608   2.788   2.278   2.304 -0.2860 -0.4053 -0.2575
 1156SOL    HW1 3609   2.876   2.241   2.300 -1.1547 -2.6209 -0.5883
 1156SOL    HW2 3610   2.751   2.262   2.217 -1.4911 -0.8932  0.3136
 1157SOL     OW 3611   0.061   0.347   1.419  0.3974 -0.2604 -0.1028
 1157SOL    HW1 3612   0.029   0.278   1.361 -1.5495  0.1850  0.3441
 1157SOL    HW2 3613   0.068   0.424   1.362 -1.2443  0.1065  0.1258
 1158SOL     OW 3614   2.237   1.052   2.612 -0.3350  0.6072 -0.0709
 1158SOL    HW1 3615   2.248   0.970   2.564  1.3125  1.3088 -1.0156
 1158SOL    HW2 3616   2.235   1.119   2.543 -1.4827  1.3897  0.6871
 1159SOL     OW 3617   2.433   2.807   1.675  0.2732  0.0252 -0.2802
 1159SOL    HW1 3618   2.374   2.775   1.607 -1.2995  3.5933 -0.8177
 1159SOL    HW2 3619   2.486   2.873   1.630  2.0059 -0.3338  1.1328
 1160SOL     OW 3620   2.981   1.938   1.779  0.3263  0.2735  0.3359
 1160SOL    HW1 3621   3.059   1.895   1.745 -0.2795 -0.6500  0.0842
 1160SOL    HW2 3622   2.969   2.015   1.723  1.1053  0.4873  0.4464
 1161SOL     OW 3623   1.114   0.537   0.316  0.3123 -0.1756 -0.2947
 1161SOL    HW1 3624   1.049   0.538   0.387  0.3668 -1.6497 -0.1796
 1161SOL    HW2 3625   1.126   0.444   0.297 -1.0506  0.1986 -3.5292
 1162SOL     OW 3626   2.093   3.021   1.606  0.0604 -0.1728  0.2803
 1162SOL    HW1 3627   2.085   2.951   1.671  0.8871 -0.6364 -0.0960
 1162SOL    HW2 3628   2.174   3.065   1.630  0.6381 -0.6614 -0.7191
 1163SOL     OW 3629   0.949   3.361   3.337  0.3944 -0.8489 -0.1453
 1163SOL    HW1 3630   0.921   3.437   3.388 -2.2437 -2.1377  0.4921
 1163SOL    HW2 3631   0.966   3.397   3.249  0.9735  0.7215  0.5623
 1164SOL     OW 3632   1.724   1.298   2.086  0.1281  0.4806  0.0624
 1164SOL    HW1 3633   1.701   1.300   1.993 -0.8836 -1.4922  0.2189
 1164SOL    HW2 3634   1.813   1.263   2.087 -0.5719 -1.4230 -0.1244
 1165SOL     OW 3635   2.233   1.462   1.508 -0.1706 -0.4909  0.8707
 1165SOL    HW1 3636   2.207   1.519   1.436 -1.1317 -1.7434  0.1785
 1165SOL    HW2 3637   2.325   1.442   1.491 -1.2473 -3.8148 -2.2992
 1166SOL     OW 3638   1.371   2.934   2.734  0.4858 -0.5274  0.4468
 1166SOL    HW1 3639   1.425   2.870   2.688  1.0246 -1.1131  1.8170
 1166SOL    HW2 3640   1.423   3.014   2.732 -0.3400  0.0083 -1.5683
 1167SOL     OW 3641   0.468   1.127   1.398 -0.4769 -0.3926 -0.3609
 1167SOL    HW1 3642   0.443   1.168   1.481  1.6612  0.6004 -0.1585
 1167SOL    HW2 3643   0.406   1.164   1.335  2.1198  4.5455 -0.4965
 1168SOL     OW 3644   2.384   2.660   2.098 -0.3267  0.3282  0.3727
 1168SOL    HW1 3645   2.328   2.584   2.085  0.7157 -0.6126  1.1788
 1168SOL    HW2 3646   2.454   2.650   2.033 -0.7398  1.1841 -0.2323
 1169SOL     OW 3647   3.312   3.559   3.597  0.6927  0.5272 -0.3632
 1169SOL    HW1 3648   3.247   3.501   3.558  1.1331  0.3439 -0.8378
 1169SOL    HW2 3649   3.274   3.646   3.588  0.7303  0.4712 -1.0820
 1170SOL     OW 3650   0.635   3.150   1.843  0.2313  0.3051 -0.5222
 1170SOL    HW1 3651   0.633   3.213   1.915  2.7560 -0.4748  0.3045
 1170SOL    HW2 3652   0.672   3.199   1.769 -0.9054  0.6659 -0.8762
 1171SOL     OW 3653   3.424   1.871   0.289 -0.0688 -0.5150  0.1133
 1171SOL    HW1 3654   3.399   1.932   0.358  0.7804 -1.6913  1.5230
 1171SOL    HW2 3655   3.518   1.857   0.302 -0.2780 -2.2791 -0.0027
 1172SOL     OW 3656   0.349   0.469   1.786  1.2318 -0.2024 -0.1911
 1172SOL    HW1 3657   0.378   0.542   1.732  1.0571  0.0889  0.1068
 1172SOL    HW2 3658   0.430   0.433   1.824  1.1402  1.5896  1.9029
 1173SOL     OW 3659   1.680   0.773   1.456 -0.1571  0.0301  0.2602
 1173SOL    HW1 3660   1.681   0.862   1.421  0.4170  0.4893  1.3846
 1173SOL    HW2 3661   1.665   0.717   1.380 -0.3792  1.0759 -0.4840
 1174SOL     OW 3662   1.989   1.472   0.138 -0.7241  0.3953  0.0788
 1174SOL    HW1 3663   2.068   1.489   0.189 -0.9245 -0.3298  0.6612
 1174SOL    HW2 3664   1.919   1.466   0.204 -0.5797 -3.2286  0.1026
 1175SOL     OW 3665   2.026   3.045   2.582  0.1592 -0.3705  0.4530
 1175SOL    HW1 3666   2.115   3.014   2.601  0.1412 -0.8921 -0.2579
 1175SOL    HW2 3667   1.975   3.021   2.659  0.1726 -2.0510 -0.0211
 1176SOL     OW 3668   1.639   1.284   1.836  0.9322 -0.0565 -0.3371
 1176SOL    HW1 3669   1.693   1.356   1.804  0.2067  1.1318  1.0029
 1176SOL    HW2 3670   1.591   1.255   1.759 -0.1362  2.1567 -0.5909
 1177SOL     OW 3671   1.852   3.150   1.525 -0.2769  0.6433 -0.0303
 1177SOL    HW1 3672   1.787   3.083   1.506 -0.1579 -0.6029  3.2775
 1177SOL    HW2 3673   1.933   3.102   1.539  0.6035  1.8497 -0.7870
 1178SOL     OW 3674   0.819   0.579   1.632  0.3927  0.2500 -0.5740
 1178SOL    HW1 3675   0.772   0.497   1.646  0.8756 -0.1749 -1.3523
 1178SOL    HW2 3676   0.895   0.575   1.690 -1.2696  1.6139  1.8462
 1179SOL     OW 3677   3.411   2.001   2.497 -0.3279 -0.0060 -0.4049
 1179SOL    HW1 3678   3.370   2.043   2.421  1.2257 -1.0116 -1.8781
 1179SOL    HW2 3679   3.497   2.043   2.503 -1.2222  1.6651  2.2617
 1180SOL     OW 3680   1.611   3.068   2.705 -0.3720 -0.1776  0.2521
 1180SOL    HW1 3681   1.701   3.046   2.727  0.5675 -0.5504 -3.2725
 1180SOL    HW2 3682   1.600   3.158   2.734  1.1554 -0.1236  0.7409
 1181SOL     OW 3683   2.534   2.927   2.711  0.1472  0.3633  0.3719
 1181SOL    HW1 3684   2.569   2.985   2.778 -0.9072  1.7119 -0.1927
 1181SOL    HW2 3685   2.549   2.973   2.628 -0.9030 -0.0416 -0.0715
 1182SOL     OW 3686   0.224   2.293   1.894  0.4888 -0.4260 -0.0857
 1182SOL    HW1 3687   0.245   2.204   1.922 -0.3944 -0.8817 -0.7849
 1182SOL    HW2 3688   0.292   2.315   1.830 -0.2612 -1.3170 -1.2456
 1183SOL     OW 3689   0.353   1.808   2.186 -0.4878  0.0319  0.0243
 1183SOL    HW1 3690   0.298   1.766   2.252 -2.1578  1.9596 -0.0663
 1183SOL    HW2 3691   0.437   1.823   2.230 -1.3135  0.5438  1.4610
 1184SOL     OW 3692   2.761   2.122   1.130 -0.0111 -0.5876 -0.2626
 1184SOL    HW1 3693   2.685   2.174   1.153 -0.4611 -1.0543 -0.6623
 1184SOL    HW2 3694   2.805   2.104   1.213 -0.7917 -1.0000  0.0673
 1185SOL     OW 3695   2.384   3.188   0.170 -0.0332 -0.5355  0.2824
 1185SOL    HW1 3696   2.411   3.279   0.163  1.1984 -0.6014  2.8756
 1185SOL    HW2 3697   2.458   3.144   0.212 -0.9393 -2.5576 -0.0975
 1186SOL     OW 3698   0.860   2.993   1.553 -0.0750  0.3074  0.0193
 1186SOL    HW1 3699   0.841   2.959   1.640  1.3477 -1.0063 -0.1401
 1186SOL    HW2 3700   0.777   2.989   1.506 -1.2953  2.6748  1.7782
 1187SOL     OW 3701   3.652   1.850   1.480 -0.0058  0.4611 -0.1833
 1187SOL    HW1 3702   3.674   1.928   1.430  2.2294 -0.8931 -1.5098
 1187SOL    HW2 3703   3.574   1.815   1.437  0.7402  0.3943 -1.5678
 1188SOL     OW 3704   2.039   0.262   1.595 -0.1332 -0.3439 -0.2470
 1188SOL    HW1 3705   2.035   0.279   1.689  0.1584  1.1337 -0.4812
 1188SOL    HW2 3706   1.961   0.209   1.577  0.2049 -1.2879  0.9320
 1189SOL     OW 3707   3.648   1.672   3.394  0.3329  1.1536 -0.3915
 1189SOL    HW1 3708   3.651   1.601   3.329 -1.6310  0.1437  0.5396
 1189SOL    HW2 3709   3.720   1.653   3.454 -0.9287 -0.8605  0.5782
 1190SOL     OW 3710   1.955   1.130   2.111 -0.2376 -0.9552  0.1738
 1190SOL    HW1 3711   2.050   1.126   2.098 -0.2317 -0.7886  0.1665
 1190SOL    HW2 3712   1.918   1.113   2.024 -0.1947  0.4833 -0.1626
 1191SOL     OW 3713   2.842   1.178   3.494 -0.2588 -0.7390 -0.2846
 1191SOL    HW1 3714   2.810   1.255   3.449 -0.2582 -0.5789 -0.0108
 1191SOL    HW2 3715   2.932   1.167   3.463 -0.2614 -0.6332 -0.3270
 1192SOL     OW 3716   2.448   0.501   3.001  0.0608 -0.4566 -0.2411
 1192SOL    HW1 3717   2.428   0.417   2.959  1.2216 -0.0391 -1.7139
 1192SOL    HW2 3718   2.544   0.504   3.005  0.0104 -0.1269  1.7972
 1193SOL     OW 3719   1.559   0.128   0.247 -0.1047  0.2556  0.0089
 1193SOL    HW1 3720   1.614   0.052   0.227 -0.1518 -0.4632  2.2736
 1193SOL    HW2 3721   1.621   0.194   0.279 -0.1680  0.8557 -1.0775
 1194SOL     OW 3722   3.570   1.872   0.786  0.2292 -0.3983  0.1456
 1194SOL    HW1 3723   3.548   1.943   0.726 -0.2864  1.4598  2.4002
 1194SOL    HW2 3724   3.655   1.898   0.823 -0.7917  0.0199  2.3030
 1195SOL     OW 3725   2.173   2.856   0.051 -0.0710  0.5991 -0.1553
 1195SOL    HW1 3726   2.102   2.808   0.093  1.4360 -0.2658  1.5365
 1195SOL    HW2 3727   2.201   2.920   0.116  2.3831 -0.8229  0.3036
 1196SOL     OW 3728   1.337   1.017   0.458 -0.4789 -0.4059 -0.2220
 1196SOL    HW1 3729   1.337   0.996   0.552 -2.9090 -0.9308 -0.2730
 1196SOL    HW2 3730   1.395   0.952   0.419 -0.7711 -1.2696  0.7311
 1197SOL     OW 3731   3.600   3.598   0.986  0.1053  0.6747  0.5592
 1197SOL    HW1 3732   3.553   3.679   0.968 -0.6471  0.4290  1.3655
 1197SOL    HW2 3733   3.691   3.618   0.963 -0.3389  1.2097 -0.8477
 1198SOL     OW 3734   2.236   2.918   1.205  1.4667 -0.4640 -0.3793
 1198SOL    HW1 3735   2.196   2.991   1.253  0.1850  0.2949 -2.5000
 1198SOL    HW2 3736   2.314   2.897   1.256  2.0868  2.6258  0.1336
 1199SOL     OW 3737   3.295   2.083   3.200 -0.5341  0.0722 -0.7161
 1199SOL    HW1 3738   3.388   2.097   3.178 -0.5899 -0.8983 -1.6864
 1199SOL    HW2 3739   3.279   2.140   3.275  0.0830  2.4933 -2.2921
 1200SOL     OW 3740   1.369   0.117   3.659  0.1981 -0.3788  0.4798
 1200SOL    HW1 3741   1.403   0.031   3.683  0.9814  0.0181  0.8027
 1200SOL    HW2 3742   1.382   0.123   3.564 -1.4299 -1.2947  0.1548
 1201SOL     OW 3743   1.317   0.176   0.831 -0.4984  0.6038  0.6259
 1201SOL    HW1 3744   1.395   0.202   0.784  0.4869 -0.8564  1.3780
 1201SOL    HW2 3745   1.244   0.209   0.778  0.6075  1.2610 -0.5191
 1202SOL     OW 3746   1.069   1.398   0.667 -0.3403  0.6058  0.1144
 1202SOL    HW1 3747   1.063   1.328   0.602  2.1910 -0.6666  1.1272
 1202SOL    HW2 3748   1.054   1.479   0.617 -4.5333 -0.5286 -0.8909
 1203SOL     OW 3749   2.469   3.558   1.280  0.3447  0.1036 -0.0330
 1203SOL    HW1 3750   2.428   3.577   1.195 -0.0708 -0.4665  0.0351
 1203SOL    HW2 3751   2.563   3.567   1.263  0.2336  0.5940 -0.4029
 1204SOL     OW 3752   1.394   0.672   0.928  0.1207 -0.6676 -0.2424
 1204SOL    HW1 3753   1.456   0.639   0.863 -0.1493 -3.8844  0.9507
 1204SOL    HW2 3754   1.317   0.615   0.918 -3.0193  3.3386 -1.8912
 1205SOL     OW 3755   2.767   3.412   2.924 -0.3844  0.1126  1.0340
 1205SOL    HW1 3756   2.763   3.376   2.836 -0.1121  0.1466  1.0062
 1205SOL    HW2 3757   2.860   3.406   2.948 -0.7082 -1.6848  2.0577
 1206SOL     OW 3758   2.150   0.840   1.709 -0.0059 -0.2462  0.0481
 1206SOL    HW1 3759   2.157   0.842   1.804  0.8571 -1.4706  0.0347
 1206SOL    HW2 3760   2.125   0.750   1.689  0.0458 -0.0593 -0.8931
 1207SOL     OW 3761   3.182   3.064   2.005  0.5942  0.7175 -0.2886
 1207SOL    HW1 3762   3.204   3.147   1.962  1.8440  1.8597  2.3609
 1207SOL    HW2 3763   3.263   3.014   2.003  0.2395  0.1366 -0.5645
 1208SOL     OW 3764   2.077   2.838   1.851 -0.2461 -0.2637 -0.2655
 1208SOL    HW1 3765   2.159   2.875   1.884 -0.9474  1.1014  0.0023
 1208SOL    HW2 3766   2.101   2.749   1.823  1.4528  0.2976 -0.7563
 1209SOL     OW 3767   3.026   0.698   3.008  0.7138 -0.1979  0.0707
 1209SOL    HW1 3768   3.004   0.768   2.946 -0.1064  0.6263  1.2276
 1209SOL    HW2 3769   2.990   0.729   3.092 -1.2349 -2.7843  0.3163
 1210SOL     OW 3770   2.305   2.998   0.680  0.2391  0.2062 -0.3731
 1210SOL    HW1 3771   2.373   3.037   0.625 -0.9077  2.3479 -0.3707
 1210SOL    HW2 3772   2.353   2.949   0.747  1.8385  2.5814  0.3223
 1211SOL     OW 3773   3.604   2.691   1.765  0.5260  0.0210 -0.4916
 1211SOL    HW1 3774   3.639   2.738   1.841 -0.3404  0.9844 -0.6747
 1211SOL    HW2 3775   3.642   2.603   1.773  0.1839 -0.0120  1.2485
 1212SOL     OW 3776   3.409   0.231   0.120  0.4961  0.5112 -0.2188
 1212SOL    HW1 3777   3.383   0.192   0.036 -0.1280  0.2493  0.0910
 1212SOL    HW2 3778   3.344   0.199   0.183  0.7378  1.0062  0.2934
 1213SOL     OW 3779   3.503   3.048   1.040  0.6069  0.0655 -0.4768
 1213SOL    HW1 3780   3.559   2.972   1.022 -1.1284 -0.9325 -1.9974
 1213SOL    HW2 3781   3.489   3.088   0.955 -0.8119  0.4093 -0.1112
 1214SOL     OW 3782   0.821   0.364   1.382  0.0944  0.6310 -0.3463
 1214SOL    HW1 3783   0.884   0.362   1.454  0.7856  0.4863 -0.9468
 1214SOL    HW2 3784   0.745   0.411   1.418  0.7024  1.1659  0.2581
 1215SOL     OW 3785   3.416   2.474   0.648 -1.0530  0.0663  0.3732
 1215SOL    HW1 3786   3.425   2.488   0.554 -0.0318 -0.4266  0.3825
 1215SOL    HW2 3787   3.366   2.549   0.679 -1.9137 -0.0602 -0.6424
 1216SOL     OW 3788   2.454   0.785   3.421  0.4299  0.2367  0.6366
 1216SOL    HW1 3789   2.523   0.841   3.384  1.3506 -1.5068 -0.4270
 1216SOL    HW2 3790   2.400   0.762   3.346 -1.3779  1.5516  1.4519
 1217SOL     OW 3791   3.273   2.585   3.438 -0.8264  0.1687 -0.4290
 1217SOL    HW1 3792   3.178   2.577   3.446 -0.8185  1.0610  0.9296
 1217SOL    HW2 3793   3.290   2.679   3.441 -0.0070  0.1587 -2.6455
 1218SOL     OW 3794   1.781   3.185   2.248  0.0214 -0.3299 -0.4796
 1218SOL    HW1 3795   1.822   3.210   2.165  1.1784  2.1193  0.7248
 1218SOL    HW2 3796   1.692   3.219   2.241 -1.0309 -3.0703 -1.9323
 1219SOL     OW 3797   2.822   2.546   2.026  0.0850  0.3283  0.2316
 1219SOL    HW1 3798   2.847   2.564   2.116  1.5095  0.4602 -0.1525
 1219SOL    HW2 3799   2.814   2.633   1.985  0.3897  0.2509  0.0035
 1220SOL     OW 3800   2.733   1.351   0.261 -0.3486  0.2618 -0.3600
 1220SOL    HW1 3801   2.742   1.269   0.213 -0.2759  0.0612 -0.0129
 1220SOL    HW2 3802   2.799   1.409   0.224 -0.1950  0.0597 -0.4007
 1221SOL     OW 3803   2.902   1.424   0.687  0.1560 -0.0924  0.2309
 1221SOL    HW1 3804   2.838   1.353   0.696 -2.5200  2.0001 -0.7975
 1221SOL    HW2 3805   2.962   1.393   0.618 -0.9143 -1.3856 -0.1661
 1222SOL     OW 3806   2.592   1.882   1.206 -0.0793 -0.3281 -0.1521
 1222SOL    HW1 3807   2.536   1.829   1.149 -0.8870  0.5613 -0.2016
 1222SOL    HW2 3808   2.655   1.922   1.146 -1.6256  1.5104 -0.6374
 1223SOL     OW 3809   1.206   2.052   0.781  0.0959 -0.0598  0.2365
 1223SOL    HW1 3810   1.154   1.975   0.756  0.3910 -0.7651  1.6461
 1223SOL    HW2 3811   1.272   2.017   0.842  1.0290  1.1166 -0.0636
 1224SOL     OW 3812   0.701   2.315   1.910 -0.5951  0.0521  0.1272
 1224SOL    HW1 3813   0.627   2.260   1.883  0.1928  0.4556 -3.3010
 1224SOL    HW2 3814   0.668   2.405   1.902 -0.3383  0.1991  0.6515
 1225SOL     OW 3815   3.270   3.438   2.174 -0.2383  0.5464 -0.1394
 1225SOL    HW1 3816   3.272   3.476   2.261 -1.1156  0.7885 -0.2199
 1225SOL    HW2 3817   3.241   3.509   2.117  1.2575  0.6707 -0.7865
 1226SOL     OW 3818   1.206   0.773   0.228  0.0373 -0.2468 -0.4050
 1226SOL    HW1 3819   1.169   0.684   0.224  0.3102 -0.3799 -0.0323
 1226SOL    HW2 3820   1.300   0.760   0.214 -0.0359  0.0847 -1.3073
 1227SOL     OW 3821   1.495   0.904   1.767  0.0491 -0.0671 -0.3598
 1227SOL    HW1 3822   1.582   0.919   1.730 -0.0369 -0.6025 -0.7878
 1227SOL    HW2 3823   1.512   0.866   1.853  0.2365 -0.1142 -0.4176
 1228SOL     OW 3824   0.518   1.190   2.592 -0.1910 -0.2116 -0.2186
 1228SOL    HW1 3825   0.544   1.099   2.579  0.8796 -0.2518  1.7787
 1228SOL    HW2 3826   0.516   1.227   2.504  1.1378 -1.7048 -0.9328
 1229SOL     OW 3827   0.508   1.730   3.612 -0.6190  0.9002  0.4604
 1229SOL    HW1 3828   0.437   1.785   3.577 -1.6229 -1.0070 -0.6331
 1229SOL    HW2 3829   0.472   1.641   3.612  1.7422 -0.1299  0.0048
 1230SOL     OW 3830   0.408   1.147   3.234  1.0511  0.3508  0.0085
 1230SOL    HW1 3831   0.413   1.208   3.161 -0.1897  0.8080  0.2754
 1230SOL    HW2 3832   0.321   1.107   3.226  0.5977  0.9195  1.5909
 1231SOL     OW 3833   2.070   0.830   1.144  0.4174  0.4555 -0.2652
 1231SOL    HW1 3834   2.116   0.751   1.171  0.3608  0.8162  0.9323
 1231SOL    HW2 3835   2.121   0.901   1.181  0.4766  0.9902 -1.3456
 1232SOL     OW 3836   1.364   3.447   3.420  0.4274 -0.5376  0.0415
 1232SOL    HW1 3837   1.448   3.417   3.384  1.5608  1.8057  0.5381
 1232SOL    HW2 3838   1.315   3.478   3.343  0.8454 -0.0951 -0.0562
 1233SOL     OW 3839   1.089   2.016   2.298 -0.6531  0.0946  0.2475
 1233SOL    HW1 3840   1.036   2.013   2.378  0.6432  1.7137  1.2179
 1233SOL    HW2 3841   1.164   2.070   2.320  0.7712 -1.0382 -1.4960
 1234SOL     OW 3842   3.058   2.201   1.574 -0.3451  1.2064 -0.4313
 1234SOL    HW1 3843   3.100   2.272   1.527  0.5627 -0.2328 -1.8933
 1234SOL    HW2 3844   3.113   2.187   1.651 -0.8650  2.4327  0.1904
 1235SOL     OW 3845   3.030   2.123   3.056 -0.5829  0.1246  0.3057
 1235SOL    HW1 3846   3.123   2.142   3.070 -0.3420  2.0355 -2.8891
 1235SOL    HW2 3847   3.017   2.036   3.094  2.2650  0.1451  1.5952
 1236SOL     OW 3848  -0.031   2.752   2.344 -0.3188  0.3095  0.4117
 1236SOL    HW1 3849  -0.018   2.845   2.364  1.7324  0.5820 -1.7900
 1236SOL    HW2 3850   0.052   2.711   2.367 -0.6093 -0.6736 -0.2470
 1237SOL     OW 3851   1.348   1.338   3.212  0.1742 -0.4179 -0.2239
 1237SOL    HW1 3852   1.429   1.291   3.231  0.9335  0.5222 -1.0311
 1237SOL    HW2 3853   1.374   1.430   3.209 -1.3691  0.1708  1.8955
 1238SOL     OW 3854   3.420   1.077   2.696 -0.1270  0.3282 -0.0493
 1238SOL    HW1 3855   3.478   1.141   2.655 -0.3326  0.8594  0.4753
 1238SOL    HW2 3856   3.409   1.109   2.785 -1.2551  0.2525 -0.1489
 1239SOL     OW 3857   2.582   1.581   0.781  0.4624 -0.4905 -0.3058
 1239SOL    HW1 3858   2.536   1.519   0.725 -1.0441  0.2173  0.0706
 1239SOL    HW2 3859   2.582   1.540   0.868 -0.7483  0.0930 -0.0044
 1240SOL     OW 3860   3.217  -0.036   2.699  0.2972 -0.1045 -0.7640
 1240SOL    HW1 3861   3.191   0.034   2.759 -0.4237 -0.4555 -0.6464
 1240SOL    HW2 3862   3.256   0.009   2.624  1.8036  0.3091  0.2258
 1241SOL     OW 3863   1.007   3.475   1.115 -0.0522  0.5853  0.4629
 1241SOL    HW1 3864   0.931   3.530   1.093  0.0188  0.4822 -0.0497
 1241SOL    HW2 3865   0.974   3.412   1.179 -0.1252  1.2533  1.0970
 1242SOL     OW 3866   1.249   1.260   1.245 -0.0906 -0.0369 -0.2061
 1242SOL    HW1 3867   1.209   1.216   1.320 -0.0416 -0.0853 -0.2086
 1242SOL    HW2 3868   1.236   1.201   1.172  0.1871 -0.1563 -0.1602
 1243SOL     OW 3869   1.315   2.257   3.645  0.1942 -0.0617  0.4415
 1243SOL    HW1 3870   1.256   2.329   3.666  0.4540  0.2878 -0.0208
 1243SOL    HW2 3871   1.382   2.261   3.714 -0.1396 -0.2686  0.7879
 1244SOL     OW 3872   0.851   3.617   2.059  0.6789 -0.0817 -0.1506
 1244SOL    HW1 3873   0.814   3.693   2.015  3.8917  2.1332  0.6362
 1244SOL    HW2 3874   0.944   3.618   2.034  1.0950 -3.0571  0.9024
 1245SOL     OW 3875   3.651   2.031   1.880 -0.1610 -0.4006 -0.0599
 1245SOL    HW1 3876   3.718   1.973   1.917 -1.1172 -0.9873  0.8053
 1245SOL    HW2 3877   3.687   2.058   1.795  1.6950  0.2536  0.8773
 1246SOL     OW 3878   3.324   0.331   3.243 -0.1425  0.5683  0.0893
 1246SOL    HW1 3879   3.312   0.423   3.264  0.0775  0.3182  1.3582
 1246SOL    HW2 3880   3.412   0.310   3.275 -0.0270  0.0162 -0.5668
 1247SOL     OW 3881   1.842   0.946   2.940 -0.1833  0.5477  0.2648
 1247SOL    HW1 3882   1.812   0.865   2.900  1.2545 -1.1448  2.3788
 1247SOL    HW2 3883   1.900   0.918   3.011  0.8914  3.4533  0.6827
 1248SOL     OW 3884   3.192   0.343   3.642  0.7301  0.5051 -0.1458
 1248SOL    HW1 3885   3.256   0.414   3.634  1.4634 -0.1103  0.1292
 1248SOL    HW2 3886   3.161   0.348   3.733 -0.0852  1.1873 -0.4493
 1249SOL     OW 3887   3.576   0.287   3.334 -0.0188 -0.1981  0.2460
 1249SOL    HW1 3888   3.626   0.349   3.385  1.4650  0.0122 -1.3611
 1249SOL    HW2 3889   3.641   0.228   3.296 -0.8012  0.6582 -2.6897
 1250SOL     OW 3890   0.554   1.387   1.294 -0.2630 -0.1669  0.2191
 1250SOL    HW1 3891   0.574   1.309   1.347 -0.5718 -1.2881 -1.2428
 1250SOL    HW2 3892   0.624   1.388   1.229 -1.1685 -0.1595 -0.7595
 1251SOL     OW 3893   2.288   1.711   3.139  0.3869 -0.2194  0.1100
 1251SOL    HW1 3894   2.255   1.779   3.198 -0.0699 -1.4703  1.3489
 1251SOL    HW2 3895   2.374   1.742   3.112  0.3925  0.6194  1.0408
 1252SOL     OW 3896   1.064   1.632   0.515  0.5020  0.1179 -0.0284
 1252SOL    HW1 3897   0.985   1.628   0.461 -1.0262  1.2790  1.9964
 1252SOL    HW2 3898   1.120   1.695   0.470  0.5987 -1.1575 -1.8100
 1253SOL     OW 3899   2.501   3.570   0.975  0.0280 -0.0936 -0.0213
 1253SOL    HW1 3900   2.409   3.592   0.988  0.1714  1.3716 -1.2249
 1253SOL    HW2 3901   2.500   3.514   0.896  0.1173 -0.6682  0.3775
 1254SOL     OW 3902   3.567   2.058   3.121 -0.2229  0.4448  0.0544
 1254SOL    HW1 3903   3.611   2.014   3.048  0.4283  1.6167 -0.2930
 1254SOL    HW2 3904   3.628   2.127   3.147 -0.5504  0.1929  1.5708
 1255SOL     OW 3905   0.564   2.195   2.132 -0.4434  0.1977  0.6439
 1255SOL    HW1 3906   0.570   2.218   2.224  0.0651  0.0573  0.6481
 1255SOL    HW2 3907   0.635   2.244   2.090  1.6895 -2.4638  0.8755
 1256SOL     OW 3908   1.697   3.657   1.687  0.0280  0.1035  0.5392
 1256SOL    HW1 3909   1.750   3.597   1.740 -0.9944 -1.7782 -0.4601
 1256SOL    HW2 3910   1.695   3.617   1.600 -2.1102  0.6781  0.2639
 1257SOL     OW 3911   2.541   0.965   2.240 -0.0842 -0.1510  0.3530
 1257SOL    HW1 3912   2.533   0.964   2.335  0.0486 -0.6481  0.3574
 1257SOL    HW2 3913   2.634   0.984   2.224 -0.2091  0.4649  0.3156
 1258SOL     OW 3914   0.929   1.027   1.708  0.2289 -0.8023  0.0649
 1258SOL    HW1 3915   1.010   1.038   1.657  0.7113 -1.1696  0.7237
 1258SOL    HW2 3916   0.860   1.018   1.643  0.4479  1.2731 -0.5340
 1259SOL     OW 3917   1.118   0.596   3.386  0.4580 -0.3332 -0.1965
 1259SOL    HW1 3918   1.133   0.620   3.478 -1.6990 -0.5899  0.3013
 1259SOL    HW2 3919   1.104   0.501   3.389  0.3411 -0.3363 -0.7872
 1260SOL     OW 3920   2.118   2.413   1.975  0.5578  0.3982 -0.3228
 1260SOL    HW1 3921   2.098   2.456   1.892  3.2454  1.3147 -0.5877
 1260SOL    HW2 3922   2.195   2.359   1.956 -0.8380 -2.1628  0.7842
 1261SOL     OW 3923   3.229   1.282   3.138  0.1686 -0.0956 -0.4046
 1261SOL    HW1 3924   3.223   1.288   3.233 -0.5566 -0.8988 -0.3828
 1261SOL    HW2 3925   3.295   1.346   3.113  0.5495 -0.0604  0.6678
 1262SOL     OW 3926   3.272   2.647   1.965  0.7542  0.7944  0.2918
 1262SOL    HW1 3927   3.237   2.704   2.034  1.3252  1.6429 -0.1115
 1262SOL    HW2 3928   3.196   2.628   1.909  1.0236  3.2511 -1.0199
 1263SOL     OW 3929   1.088   0.044   1.077  0.1899  0.0577 -0.0469
 1263SOL    HW1 3930   1.026   0.113   1.053  0.6108  0.1634 -0.8557
 1263SOL    HW2 3931   1.036  -0.036   1.077 -0.0761  0.2299 -0.1347
 1264SOL     OW 3932   2.910   2.351   1.874 -0.2659  0.6727 -0.6058
 1264SOL    HW1 3933   2.887   2.378   1.785 -1.1801  0.2846 -0.4987
 1264SOL    HW2 3934   2.860   2.409   1.931 -2.4119 -1.2649 -0.3750
 1265SOL     OW 3935   0.161   2.702   3.412 -0.2663 -0.1830 -0.0615
 1265SOL    HW1 3936   0.111   2.687   3.492 -0.6980  1.7450  0.0941
 1265SOL    HW2 3937   0.238   2.751   3.440  1.4866 -2.6074 -0.3855
 1266SOL     OW 3938   1.994   1.659   2.274 -0.2461 -0.1448 -0.0333
 1266SOL    HW1 3939   2.000   1.602   2.350  0.7524  0.7074  0.5553
 1266SOL    HW2 3940   2.007   1.601   2.199  1.5418 -0.6207  0.5871
 1267SOL     OW 3941   1.586   0.300   3.694 -0.2635  0.1299 -0.2141
 1267SOL    HW1 3942   1.504   0.257   3.672  0.0868 -0.0562 -1.1774
 1267SOL    HW2 3943   1.631   0.239   3.753 -0.1392 -0.4686 -0.9132
 1268SOL     OW 3944   0.271   2.236   1.380 -0.2879 -0.2127  0.1715
 1268SOL    HW1 3945   0.316   2.221   1.463 -1.1323  1.1551  0.9326
 1268SOL    HW2 3946   0.257   2.331   1.378  0.7070 -0.0611 -2.0902
 1269SOL     OW 3947   0.261  -0.000   0.305  0.2991  0.6229  0.1986
 1269SOL    HW1 3948   0.349   0.022   0.276 -0.8557  1.1337 -3.4969
 1269SOL    HW2 3949   0.268  -0.010   0.400  4.3441  0.2942  0.0291
 1270SOL     OW 3950   2.734   0.150   0.760 -0.0657 -0.4421 -0.8509
 1270SOL    HW1 3951   2.707   0.098   0.836  0.9240 -2.6650 -1.9221
 1270SOL    HW2 3952   2.817   0.189   0.787  1.2018 -2.6564 -1.2896
 1271SOL     OW 3953   1.259   2.719   3.546 -0.0595 -0.0506 -0.6190
 1271SOL    HW1 3954   1.309   2.779   3.602 -1.4965 -0.6418  1.4007
 1271SOL    HW2 3955   1.272   2.633   3.585  2.7840 -1.4327 -4.0233
 1272SOL     OW 3956   2.982   1.387   1.682 -0.7240  0.8958 -0.2748
 1272SOL    HW1 3957   3.047   1.341   1.735 -0.9291  1.6170  0.6401
 1272SOL    HW2 3958   2.990   1.479   1.709 -2.2663  0.9656  0.0495
 1273SOL     OW 3959   1.057   2.724   1.648  0.3476 -0.1956  0.5166
 1273SOL    HW1 3960   1.037   2.764   1.563 -1.1867 -0.1649  0.8599
 1273SOL    HW2 3961   1.097   2.795   1.699  1.5199 -0.2885 -0.2492
 1274SOL     OW 3962   1.892   2.164   2.330  0.9870  0.1130 -0.0486
 1274SOL    HW1 3963   1.931   2.220   2.396 -0.2941  0.7712  0.1898
 1274SOL    HW2 3964   1.882   2.079   2.374  0.3874  0.4739  0.5478
 1275SOL     OW 3965   2.089   2.499   1.030 -0.1538 -0.2962  0.0256
 1275SOL    HW1 3966   2.134   2.450   1.098  0.0444 -0.7981 -0.4576
 1275SOL    HW2 3967   2.121   2.461   0.948 -0.5968  0.1114 -0.3436
 1276SOL     OW 3968   2.759   1.066   1.396  0.8487  0.3249  0.4061
 1276SOL    HW1 3969   2.786   1.152   1.364  0.1892  1.2657  2.2596
 1276SOL    HW2 3970   2.665   1.063   1.381  0.9588 -0.3618 -0.2264
 1277SOL     OW 3971   3.270   1.623   0.380  0.3047  0.9089 -0.6259
 1277SOL    HW1 3972   3.200   1.687   0.394  0.8772  1.2060  1.0868
 1277SOL    HW2 3973   3.330   1.665   0.318  0.4355  1.8497  0.1218
 1278SOL     OW 3974   0.319   0.148   2.468  0.2893  0.6445 -0.7069
 1278SOL    HW1 3975   0.281   0.079   2.414  0.4275 -0.6298  0.7564
 1278SOL    HW2 3976   0.414   0.137   2.458  0.3097  0.7867 -0.6720
 1279SOL     OW 3977   0.888   2.686   0.589  0.1330 -0.3357 -0.4947
 1279SOL    HW1 3978   0.934   2.725   0.515  1.8527  0.6545  1.0340
 1279SOL    HW2 3979   0.957   2.647   0.643 -1.1493 -1.7108  0.2398
 1280SOL     OW 3980   0.452   2.013   1.379 -0.3876  0.2618  0.0733
 1280SOL    HW1 3981   0.374   2.000   1.325 -0.0216 -1.5074 -0.0871
 1280SOL    HW2 3982   0.468   2.107   1.376 -2.5731  0.6823  0.2038
 1281SOL     OW 3983   2.706   2.555   2.368  0.1230 -0.7771  0.0641
 1281SOL    HW1 3984   2.705   2.624   2.301  0.6601 -1.3176 -0.5114
 1281SOL    HW2 3985   2.693   2.474   2.318  0.4406 -1.1755  0.6330
 1282SOL     OW 3986   0.606   3.601   3.423 -0.2001  0.1082 -0.0523
 1282SOL    HW1 3987   0.565   3.614   3.338  0.3666  0.5153 -0.2687
 1282SOL    HW2 3988   0.620   3.506   3.429 -0.0013  0.1058 -0.5276
 1283SOL     OW 3989   2.500   1.185   1.900 -0.2519  0.8935  0.2437
 1283SOL    HW1 3990   2.429   1.200   1.837  0.3326 -0.1277 -0.6748
 1283SOL    HW2 3991   2.580   1.193   1.849  0.2917  1.3891  1.1465
 1284SOL     OW 3992   0.088   1.124   1.531 -0.0989  0.0822  0.1972
 1284SOL    HW1 3993   0.147   1.070   1.478 -0.8405 -1.4383  0.8426
 1284SOL    HW2 3994   0.121   1.213   1.521  1.2231 -0.4904 -0.8654
 1285SOL     OW 3995   2.897   0.148   3.469 -0.6146  0.6038  0.4993
 1285SOL    HW1 3996   2.966   0.155   3.403 -1.0417  1.6195  0.1392
 1285SOL    HW2 3997   2.857   0.235   3.470 -1.9070  0.0182  0.6788
 1286SOL     OW 3998   3.025   0.494   0.401  0.1888 -0.4097  0.1414
 1286SOL    HW1 3999   3.054   0.540   0.322 -0.2328  0.8326  0.6800
 1286SOL    HW2 4000   2.932   0.480   0.387 -0.2162  1.1471  1.0043
 1287SOL     OW 4001   1.215   3.099   0.406 -0.3064 -0.1716 -0.2080
 1287SOL    HW1 4002   1.305   3.133   0.400 -0.3460 -0.1736 -0.8736
 1287SOL    HW2 4003   1.166   3.150   0.342 -0.5893 -0.7857 -0.4794
 1288SOL     OW 4004   3.605   3.281   0.368 -0.1208  0.1473  0.4186
 1288SOL    HW1 4005   3.603   3.252   0.277 -2.4205  2.3977 -0.3905
 1288SOL    HW2 4006   3.549   3.219   0.415  0.3592 -0.5160  0.1142
 1289SOL     OW 4007   0.915   2.492   1.132 -0.2741  0.6238 -0.0168
 1289SOL    HW1 4008   0.991   2.547   1.150 -0.6138  1.1972 -0.3009
 1289SOL    HW2 4009   0.936   2.408   1.173  0.3512  0.8881  0.2208
 1290SOL     OW 4010   3.295   0.053   2.351 -0.3902 -0.2491 -0.2170
 1290SOL    HW1 4011   3.205   0.044   2.319 -1.0064  2.1408  0.5946
 1290SOL    HW2 4012   3.309  -0.025   2.405 -3.8966  1.4360  3.7336
 1291SOL     OW 4013   3.546   0.718   2.786 -0.6809 -0.7833  0.1736
 1291SOL    HW1 4014   3.631   0.755   2.813  0.0232 -1.1777 -1.4121
 1291SOL    HW2 4015   3.551   0.714   2.691 -3.0473  0.5182 -0.0818
 1292SOL     OW 4016   1.385   1.785   1.719 -0.4708 -0.1172 -0.6899
 1292SOL    HW1 4017   1.353   1.734   1.644  0.3431 -1.5711 -0.0996
 1292SOL    HW2 4018   1.315   1.778   1.784 -0.7106  0.2162 -0.9115
 1293SOL     OW 4019   2.484   3.153   3.611  0.5232  0.0728  0.9004
 1293SOL    HW1 4020   2.389   3.148   3.606  0.6059 -0.4888 -0.6484
 1293SOL    HW2 4021   2.501   3.222   3.675 -0.9554  1.8958 -0.5507
 1294SOL     OW 4022   1.894   2.084   2.706  0.0527 -0.6144  0.2019
 1294SOL    HW1 4023   1.939   2.133   2.775 -0.4253  0.5441 -0.2749
 1294SOL    HW2 4024   1.927   2.122   2.625 -1.3711 -0.0943 -0.1669
 1295SOL     OW 4025   3.535   1.185   1.072  0.6019  0.6858 -0.6123
 1295SOL    HW1 4026   3.600   1.132   1.026  0.7092  1.1384 -0.9986
 1295SOL    HW2 4027   3.525   1.143   1.157  1.4685  0.6576 -0.5159
 1296SOL     OW 4028   2.691   3.288   1.668  0.3097 -0.2315  0.3642
 1296SOL    HW1 4029   2.784   3.308   1.660  0.5299 -0.9617  0.9562
 1296SOL    HW2 4030   2.677   3.282   1.763 -0.0638 -1.3622  0.2449
 1297SOL     OW 4031   2.067   0.219   0.131  0.2907 -0.4673  0.0967
 1297SOL    HW1 4032   2.123   0.169   0.072  0.6164 -1.9265  1.5814
 1297SOL    HW2 4033   2.084   0.311   0.108  0.4231 -0.9803 -2.0131
 1298SOL     OW 4034   1.086   1.529   1.331 -0.2865  0.0338 -0.2728
 1298SOL    HW1 4035   1.064   1.446   1.373  0.1739 -0.1494 -0.4014
 1298SOL    HW2 4036   1.146   1.572   1.392 -0.6699  0.3638 -0.1145
 1299SOL     OW 4037   1.228   2.015   1.283  0.0135 -0.2829 -0.2357
 1299SOL    HW1 4038   1.145   1.968   1.287  0.6319 -1.3366  2.4756
 1299SOL    HW2 4039   1.213   2.095   1.333  0.7157 -0.7243  0.7248
 1300SOL     OW 4040   0.776   1.093   1.450  0.0607 -0.6471  0.1628
 1300SOL    HW1 4041   0.848   1.034   1.426  0.5563  0.4759 -1.3138
 1300SOL    HW2 4042   0.697   1.046   1.425  0.4753 -0.4855 -1.5918
 1301SOL     OW 4043   2.679   0.258   2.121 -0.7416 -0.0041  0.8807
 1301SOL    HW1 4044   2.635   0.235   2.039  0.7518 -1.1859  0.3738
 1301SOL    HW2 4045   2.607   0.267   2.184 -1.9295  0.9653 -0.5161
 1302SOL     OW 4046   3.177   3.198   0.518 -0.6110  0.3278 -0.7422
 1302SOL    HW1 4047   3.248   3.248   0.559  0.3279 -1.7096  0.3228
 1302SOL    HW2 4048   3.097   3.236   0.554  0.0546  1.0449  0.0474
 1303SOL     OW 4049   2.473   1.407   2.793 -0.1399 -0.6037 -0.5100
 1303SOL    HW1 4050   2.439   1.424   2.881  4.5850  1.4255  1.2185
 1303SOL    HW2 4051   2.538   1.338   2.805 -1.3768 -2.4040 -3.1010
 1304SOL     OW 4052   2.034   0.975   0.829 -0.1509 -0.0594 -0.0532
 1304SOL    HW1 4053   2.086   0.999   0.753 -1.2497  1.2869 -0.4133
 1304SOL    HW2 4054   2.076   0.895   0.862  0.5602 -0.4800 -1.8464
 1305SOL     OW 4055   2.110   1.648   2.787  0.2520  0.2822 -0.0658
 1305SOL    HW1 4056   2.162   1.573   2.759 -0.6172  0.1412 -1.4300
 1305SOL    HW2 4057   2.030   1.610   2.823 -0.4532  0.5303 -1.3148
 1306SOL     OW 4058   3.121   0.895   0.425 -0.6181 -0.0649  0.1862
 1306SOL    HW1 4059   3.124   0.893   0.521  1.4990  0.2668  0.1773
 1306SOL    HW2 4060   3.072   0.975   0.404 -0.7999  0.0412  0.9919
 1307SOL     OW 4061   2.182   2.711   2.673  0.6749  0.5239 -0.0263
 1307SOL    HW1 4062   2.089   2.690   2.665  1.0570 -1.1826 -0.3609
 1307SOL    HW2 4063   2.213   2.718   2.583  0.8462  1.3188  0.0824
 1308SOL     OW 4064   2.848   1.187   0.058 -0.0331 -0.1287  0.1730
 1308SOL    HW1 4065   2.927   1.136   0.075  0.4631  0.8165  0.8030
 1308SOL    HW2 4066   2.844   1.195  -0.037  0.3385 -0.6325  0.1140
 1309SOL     OW 4067   0.574   2.001   0.290 -0.2328 -0.2944 -0.0624
 1309SOL    HW1 4068   0.558   2.051   0.210 -1.5791  0.5942  0.7314
 1309SOL    HW2 4069   0.535   2.054   0.360  0.8927 -1.0507  1.1996
 1310SOL     OW 4070   0.197   3.468   1.654 -0.6821  0.9248  0.1997
 1310SOL    HW1 4071   0.116   3.439   1.611 -0.2248  1.3548 -0.9824
 1310SOL    HW2 4072   0.200   3.562   1.639  0.9727  0.6687 -1.4611
 1311SOL     OW 4073   2.024   0.499   1.068 -0.3769  0.8047  0.7252
 1311SOL    HW1 4074   2.094   0.516   1.130  0.2983  1.1361 -0.1095
 1311SOL    HW2 4075   2.015   0.403   1.068  0.9033  0.6604 -0.0331
 1312SOL     OW 4076   1.069   0.728   2.015  0.7455  0.4213 -0.3403
 1312SOL    HW1 4077   1.108   0.667   2.078  2.4447  0.8166 -0.9713
 1312SOL    HW2 4078   1.122   0.807   2.021 -0.5639  1.3592 -0.5603
 1313SOL     OW 4079   1.266   2.328   2.926 -0.6064 -0.5990  0.4018
 1313SOL    HW1 4080   1.238   2.273   2.999 -3.3009  2.0640  1.6035
 1313SOL    HW2 4081   1.239   2.279   2.848  0.1795 -2.4511  1.2421
 1314SOL     OW 4082   3.328   3.410   0.672  0.6772 -0.0855  0.4039
 1314SOL    HW1 4083   3.317   3.452   0.587  6.4965  2.6459  0.5555
 1314SOL    HW2 4084   3.295   3.475   0.735 -0.2376 -0.5302  0.4021
 1315SOL     OW 4085   0.843   3.314   3.037  0.7251 -0.5201  0.0943
 1315SOL    HW1 4086   0.911   3.322   2.970  1.9282 -1.7245  1.1159
 1315SOL    HW2 4087   0.871   3.241   3.092 -0.8701 -0.3796  1.1781
 1316SOL     OW 4088   3.057   0.798   1.200 -0.6222  0.4006 -0.1385
 1316SOL    HW1 4089   2.994   0.799   1.272  0.1833  0.4739  0.5915
 1316SOL    HW2 4090   3.130   0.851   1.232  0.4320 -0.8495 -0.3790
 1317SOL     OW 4091   0.520   3.258   1.374  0.3024  0.5715  0.3849
 1317SOL    HW1 4092   0.484   3.237   1.289  3.2626 -0.8166 -0.6746
 1317SOL    HW2 4093   0.477   3.340   1.400 -2.5903 -0.3606 -1.1556
 1318SOL     OW 4094   1.565   1.782   2.693 -0.3734 -0.5545  0.6087
 1318SOL    HW1 4095   1.562   1.796   2.599 -0.7323  0.2287  0.7328
 1318SOL    HW2 4096   1.499   1.715   2.710 -0.9089 -0.0768  0.4145
 1319SOL     OW 4097   3.102   1.291   0.840  0.4923  0.4099  0.0088
 1319SOL    HW1 4098   3.151   1.331   0.769 -0.4645  2.2854  0.3498
 1319SOL    HW2 4099   3.057   1.216   0.800 -0.6262  1.8718 -1.5677
 1320SOL     OW 4100   1.052   3.405   1.791 -0.0346  0.2125  0.0481
 1320SOL    HW1 4101   1.090   3.387   1.705  0.5681 -0.5296  0.4632
 1320SOL    HW2 4102   0.996   3.329   1.809  0.1240  0.1948  0.4693
 1321SOL     OW 4103   1.125   2.165   1.535  0.0158  0.2259 -0.8165
 1321SOL    HW1 4104   1.124   2.094   1.599  0.4022  0.8372 -0.1214
 1321SOL    HW2 4105   1.112   2.244   1.586  2.2760  0.9276 -1.2261
 1322SOL     OW 4106   3.282   3.517   2.457 -0.0175 -0.3732  0.3131
 1322SOL    HW1 4107   3.188   3.505   2.448 -0.3736  2.1427 -0.1234
 1322SOL    HW2 4108   3.308   3.456   2.526 -1.9216 -1.2000  0.3661
 1323SOL     OW 4109   0.413   3.676   3.673 -0.2485 -0.4063  0.0621
 1323SOL    HW1 4110   0.460   3.651   3.594 -0.3132 -1.5071  0.3499
 1323SOL    HW2 4111   0.454   3.625   3.743 -0.6189  0.0570  0.6324
 1324SOL     OW 4112   1.833   0.874   0.214  0.1515 -0.7905 -0.2155
 1324SOL    HW1 4113   1.820   0.782   0.236 -1.9608 -0.8577 -1.4517
 1324SOL    HW2 4114   1.812   0.921   0.295  1.3890 -1.3778  0.4641
 1325SOL     OW 4115   2.928   2.964   1.652  0.0963 -0.9843 -0.3941
 1325SOL    HW1 4116   2.987   3.040   1.649  0.9053 -1.5208  0.9576
 1325SOL    HW2 4117   2.886   2.963   1.567 -0.2304  1.2195 -0.3157
 1326SOL     OW 4118   1.889   3.555   2.065  0.6123 -0.0379 -0.3483
 1326SOL    HW1 4119   1.920   3.533   2.153 -1.6231  0.1153  0.5263
 1326SOL    HW2 4120   1.799   3.523   2.062  0.4332  0.5348 -2.3727
 1327SOL     OW 4121   0.203   2.066   3.243  0.5946 -0.4991  0.6830
 1327SOL    HW1 4122   0.291   2.037   3.218  0.5394  0.5274 -0.8384
 1327SOL    HW2 4123   0.195   2.154   3.206 -1.4603 -0.9929 -0.2137
 1328SOL     OW 4124   1.037   0.558   1.790 -0.6866 -0.2674 -0.3292
 1328SOL    HW1 4125   1.101   0.612   1.745 -1.9234  0.6086 -1.0884
 1328SOL    HW2 4126   1.012   0.608   1.868 -0.1936 -0.7775  0.1714
 1329SOL     OW 4127   0.512   2.341   2.709 -0.6701  0.2171 -0.1155
 1329SOL    HW1 4128   0.546   2.295   2.785  0.1989 -0.1766 -0.7219
 1329SOL    HW2 4129   0.566   2.419   2.701 -0.8661  0.3422 -0.2225
 1330SOL     OW 4130   3.319   2.927   3.090  0.1791  0.2162  0.1012
 1330SOL    HW1 4131   3.251   2.896   3.030 -0.0487  1.7075 -0.4769
 1330SOL    HW2 4132   3.333   3.018   3.064  2.7655 -0.1763 -0.1127
 1331SOL     OW 4133   1.106   0.230   3.208  0.4002 -0.3139 -0.4688
 1331SOL    HW1 4134   1.043   0.301   3.193  0.5083 -0.2258 -0.5023
 1331SOL    HW2 4135   1.145   0.251   3.293  0.6167 -0.1984 -0.5987
 1332SOL     OW 4136   2.785   2.801   3.132  0.6713 -0.1319  0.4006
 1332SOL    HW1 4137   2.879   2.790   3.149  0.5733 -1.8306 -0.0055
 1332SOL    HW2 4138   2.759   2.721   3.086 -0.7304  0.8550 -0.6216
 1333SOL     OW 4139   1.994   1.138   0.321 -0.1401  0.9590  0.3321
 1333SOL    HW1 4140   2.048   1.169   0.394  0.6753 -0.7798  0.5128
 1333SOL    HW2 4141   2.042   1.163   0.243 -0.5219  1.9409  0.3950
 1334SOL     OW 4142   1.436   3.107   3.213  0.7481 -0.4274 -0.8189
 1334SOL    HW1 4143   1.512   3.144   3.168  0.5833  1.8291  0.5752
 1334SOL    HW2 4144   1.362   3.158   3.180  0.3995  0.0631  0.6297
 1335SOL     OW 4145   1.250   0.258   3.452 -0.0579  0.2431 -0.7387
 1335SOL    HW1 4146   1.309   0.325   3.485 -0.3819  1.4545 -2.4500
 1335SOL    HW2 4147   1.173   0.263   3.509  0.1465  0.9747 -0.5200
 1336SOL     OW 4148   1.813   2.070   1.602  0.7708 -0.1525 -0.3176
 1336SOL    HW1 4149   1.769   2.051   1.685 -0.8078  2.0222 -0.5516
 1336SOL    HW2 4150   1.869   1.994   1.586 -0.5790 -1.6507  1.5943
 1337SOL     OW 4151   2.303   3.303   0.800 -0.1720 -0.2809 -0.1738
 1337SOL    HW1 4152   2.220   3.308   0.752 -1.3110 -0.7280  1.6376
 1337SOL    HW2 4153   2.286   3.240   0.871  2.3857 -2.0484 -0.9773
 1338SOL     OW 4154   2.069   1.231   1.537 -0.2925 -0.5367  0.2566
 1338SOL    HW1 4155   2.099   1.320   1.556 -2.9965  0.1600  1.7711
 1338SOL    HW2 4156   2.049   1.231   1.444 -1.3661  0.8627  0.4482
 1339SOL     OW 4157   2.616   2.303   1.891 -0.0847 -0.1020  0.2315
 1339SOL    HW1 4158   2.597   2.394   1.917 -1.0668  0.0153 -0.8027
 1339SOL    HW2 4159   2.617   2.255   1.973 -0.7630  0.6474  0.6998
 1340SOL     OW 4160   0.197   2.643   2.436 -0.5218  0.0777  0.6134
 1340SOL    HW1 4161   0.221   2.659   2.527 -1.1078  1.6114  0.5360
 1340SOL    HW2 4162   0.261   2.580   2.404  1.2436  1.3992  1.3981
 1341SOL     OW 4163   0.235   2.632   3.139 -0.7237 -0.0705 -0.2160
 1341SOL    HW1 4164   0.330   2.628   3.134 -0.6616  0.2741  0.6387
 1341SOL    HW2 4165   0.217   2.688   3.214 -1.5932  2.2409 -1.9970
 1342SOL     OW 4166   0.858   1.456   1.171 -0.0193  0.3462 -0.2357
 1342SOL    HW1 4167   0.835   1.526   1.110  2.8181  1.8675  0.2676
 1342SOL    HW2 4168   0.936   1.488   1.216  0.7958 -2.7127  0.7745
 1343SOL     OW 4169   1.635   2.547   1.447 -0.2784 -0.2847 -0.5012
 1343SOL    HW1 4170   1.658   2.473   1.503  0.0820  1.1758  1.3782
 1343SOL    HW2 4171   1.588   2.508   1.373  2.0608 -2.6475 -0.8786
 1344SOL     OW 4172   1.517   2.551   1.833  0.1152  1.1239 -0.0053
 1344SOL    HW1 4173   1.472   2.622   1.879  0.2302  1.4073 -0.3266
 1344SOL    HW2 4174   1.447   2.492   1.805  0.0936  0.5591  1.1664
 1345SOL     OW 4175   1.996   1.934   0.873  0.1250  0.1159 -0.4342
 1345SOL    HW1 4176   1.953   2.018   0.886 -2.2433 -1.1729  0.9613
 1345SOL    HW2 4177   1.995   1.920   0.778 -1.9292  0.5408 -0.5272
 1346SOL     OW 4178   0.318   3.312   3.485  0.3460 -0.5999  0.5165
 1346SOL    HW1 4179   0.343   3.248   3.550  2.1002  0.4101  0.8962
 1346SOL    HW2 4180   0.261   3.373   3.532  0.6538 -0.5297  0.8028
 1347SOL     OW 4181   3.034   3.377   2.958 -0.1513  0.1937 -0.1838
 1347SOL    HW1 4182   3.008   3.288   2.982 -0.3093  0.5893  1.1812
 1347SOL    HW2 4183   3.103   3.400   3.020 -2.2139  2.1419  1.5737
 1348SOL     OW 4184   2.941   0.447   3.614  0.7208 -0.0696 -0.1586
 1348SOL    HW1 4185   2.890   0.525   3.590  1.2459  0.3957  0.2098
 1348SOL    HW2 4186   2.991   0.426   3.535 -0.6897 -1.0652 -0.8170
 1349SOL     OW 4187   2.158   2.230   1.119 -0.7080 -0.6160 -0.2425
 1349SOL    HW1 4188   2.078   2.228   1.172 -0.0602 -1.7907  0.7258
 1349SOL    HW2 4189   2.190   2.140   1.120  1.3009  0.0455  0.4297
 1350SOL     OW 4190   0.696   1.974   0.592 -0.7913 -0.1865  0.3314
 1350SOL    HW1 4191   0.670   2.065   0.601 -0.7461 -0.2577  1.3481
 1350SOL    HW2 4192   0.733   1.968   0.504 -0.4360  0.8651  0.3943
 1351SOL     OW 4193   2.509   1.683   1.399  0.4956 -0.2486  0.1376
 1351SOL    HW1 4194   2.562   1.761   1.382  2.5767 -0.9545  2.6656
 1351SOL    HW2 4195   2.569   1.610   1.387 -0.5205 -1.2381  0.8990
 1352SOL     OW 4196   2.843   3.196   2.306 -0.1538 -0.9499 -0.2729
 1352SOL    HW1 4197   2.906   3.222   2.373 -0.2481  0.7079 -0.7727
 1352SOL    HW2 4198   2.789   3.129   2.347  1.9010 -2.4270  0.1812
 1353SOL     OW 4199   1.260   2.335   0.858 -0.0477  0.3263  0.2926
 1353SOL    HW1 4200   1.212   2.281   0.796 -1.0360  1.8938 -0.3785
 1353SOL    HW2 4201   1.306   2.273   0.914  0.1048 -1.1608 -1.3881
 1354SOL     OW 4202   3.036   3.081   0.132  0.2037 -0.0627  0.4823
 1354SOL    HW1 4203   3.063   3.157   0.184 -1.1547 -0.6920  2.1981
 1354SOL    HW2 4204   2.942   3.075   0.146  0.2206 -1.8219  0.0070
 1355SOL     OW 4205   1.033   2.000   1.740 -0.2829  0.3586 -0.0955
 1355SOL    HW1 4206   1.066   1.910   1.737 -0.4522  0.3235 -1.2347
 1355SOL    HW2 4207   0.942   1.994   1.713  0.0156  1.0038 -1.3146
 1356SOL     OW 4208   3.492   2.529   3.641  0.0323 -0.4590  0.0692
 1356SOL    HW1 4209   3.451   2.455   3.686 -1.3794 -0.1797 -0.7170
 1356SOL    HW2 4210   3.443   2.539   3.560 -2.8566  3.9992  1.9191
 1357SOL     OW 4211   0.356   3.024   1.631 -0.1873 -0.2654  0.0140
 1357SOL    HW1 4212   0.364   2.961   1.703  1.5856 -0.5401 -0.3824
 1357SOL    HW2 4213   0.344   3.109   1.675  2.5347 -0.1647  0.7849
 1358SOL     OW 4214   3.431   0.645   0.979 -0.1570  0.6839 -0.1003
 1358SOL    HW1 4215   3.453   0.734   0.950  2.0855  0.2092 -0.0426
 1358SOL    HW2 4216   3.432   0.649   1.074  0.0830  0.5668 -0.0974
 1359SOL     OW 4217   1.584   1.583   1.710  0.3551 -0.2720  0.1204
 1359SOL    HW1 4218   1.607   1.673   1.686  0.0545 -0.2076  0.0630
 1359SOL    HW2 4219   1.494   1.573   1.679 -0.0998 -0.1320  1.3647
 1360SOL     OW 4220   0.758   1.927   1.739 -0.9427 -0.2217 -0.5052
 1360SOL    HW1 4221   0.748   1.832   1.728  0.3704 -0.8032  2.4209
 1360SOL    HW2 4222   0.679   1.954   1.787  0.6350 -0.7694  2.6637
 1361SOL     OW 4223   3.265   3.482   1.167 -0.0108  0.3025  0.1909
 1361SOL    HW1 4224   3.217   3.419   1.222 -1.1193  0.1102 -0.9459
 1361SOL    HW2 4225   3.351   3.443   1.156 -0.9076 -1.4377 -1.0928
 1362SOL     OW 4226   3.440   3.696   1.536 -0.4654 -0.5549 -0.3838
 1362SOL    HW1 4227   3.424   3.789   1.518 -0.0583 -0.6863 -1.4720
 1362SOL    HW2 4228   3.473   3.661   1.453  0.9153 -1.3321  0.4639
 1363SOL     OW 4229   1.492   2.753   1.244  0.0634 -0.4527  0.1080
 1363SOL    HW1 4230   1.509   2.843   1.273 -0.1519  0.0271 -1.1855
 1363SOL    HW2 4231   1.556   2.738   1.175  0.5596 -1.5618  0.7792
 1364SOL     OW 4232   0.650   3.072   3.497  0.5616  0.0720 -0.6870
 1364SOL    HW1 4233   0.715   3.098   3.562 -0.4561  1.6956 -0.2453
 1364SOL    HW2 4234   0.567   3.077   3.544 -0.0051 -0.6917 -1.5815
 1365SOL     OW 4235   0.539   2.691   1.153 -0.0766 -0.3911 -0.0916
 1365SOL    HW1 4236   0.551   2.786   1.154  1.4096 -0.5678 -0.1656
 1365SOL    HW2 4237   0.592   2.660   1.081 -2.0698 -1.1332 -1.3194
 1366SOL     OW 4238   2.040   3.297   0.737  0.1421 -0.1367 -0.1616
 1366SOL    HW1 4239   2.002   3.352   0.669 -0.7638  1.3041  1.4307
 1366SOL    HW2 4240   1.983   3.309   0.813  1.6735 -0.8674  1.1787
 1367SOL     OW 4241   1.659   1.008   3.536 -0.3729  0.2224  0.2143
 1367SOL    HW1 4242   1.631   1.085   3.486  0.6229 -0.6812 -1.8923
 1367SOL    HW2 4243   1.754   1.019   3.546 -0.2204 -0.6880 -0.1142
 1368SOL     OW 4244   1.713   1.801   1.087  0.4661 -0.4071 -0.0189
 1368SOL    HW1 4245   1.722   1.895   1.100  1.0820 -0.8167  3.1558
 1368SOL    HW2 4246   1.645   1.774   1.148 -0.1004 -1.9763 -1.2688
 1369SOL     OW 4247   2.686   1.197   3.229  0.6372  0.2196  0.3583
 1369SOL    HW1 4248   2.734   1.277   3.207  0.4324  0.6684  1.4559
 1369SOL    HW2 4249   2.594   1.221   3.221  0.4593  1.0886  3.6640
 1370SOL     OW 4250   3.669   2.837   0.992  0.3856 -0.2946  0.3042
 1370SOL    HW1 4251   3.631   2.771   0.933  1.2600 -0.1883 -0.3939
 1370SOL    HW2 4252   3.686   2.789   1.073 -0.7663 -0.4607  0.4690
 1371SOL     OW 4253   2.000   0.850   0.004  0.0376 -0.2530 -0.4182
 1371SOL    HW1 4254   1.983   0.916  -0.063 -0.4532 -1.7308 -1.8254
 1371SOL    HW2 4255   1.945   0.875   0.078 -1.4208  0.0031 -1.5550
 1372SOL     OW 4256   1.714   3.662   3.504  0.0865 -0.0549 -0.5912
 1372SOL    HW1 4257   1.727   3.756   3.494  0.4590  0.0099  0.3753
 1372SOL    HW2 4258   1.803   3.626   3.502  0.0727 -0.2018  0.6359
 1373SOL     OW 4259   2.630   0.311   2.528 -0.1988  0.1177 -0.5555
 1373SOL    HW1 4260   2.652   0.224   2.495 -0.2186 -1.0932  2.2888
 1373SOL    HW2 4261   2.703   0.334   2.585 -1.6799  0.4288  1.3127
 1374SOL     OW 4262   1.785   0.102   0.076 -0.8414 -0.8943  0.1577
 1374SOL    HW1 4263   1.761   0.015   0.108  0.6163 -1.0288  0.9446
 1374SOL    HW2 4264   1.876   0.113   0.102 -0.8043  0.6112 -0.5221
 1375SOL     OW 4265   2.098   0.489   2.864 -0.4575  0.4907 -0.2914
 1375SOL    HW1 4266   2.156   0.415   2.884 -1.0337  0.5757  1.8887
 1375SOL    HW2 4267   2.056   0.510   2.947  0.5683  4.0530 -0.4837
 1376SOL     OW 4268   2.669   0.669   2.716 -0.5358  0.1564  0.1330
 1376SOL    HW1 4269   2.595   0.622   2.676  1.4822 -2.4869 -0.8055
 1376SOL    HW2 4270   2.684   0.623   2.799  0.6624 -0.0749 -0.1861
 1377SOL     OW 4271   1.755   2.735   3.231  0.0321  0.1156  0.1126
 1377SOL    HW1 4272   1.719   2.821   3.210 -1.3192 -0.1648  1.0728
 1377SOL    HW2 4273   1.785   2.700   3.147  0.1648  1.3223 -0.3632
 1378SOL     OW 4274   2.656   0.079   1.014 -0.1197 -0.2306 -0.2399
 1378SOL    HW1 4275   2.613   0.126   1.085  2.7747 -0.1778  1.6631
 1378SOL    HW2 4276   2.611  -0.005   1.009 -1.9045  0.6721 -0.0296
 1379SOL     OW 4277   0.744   2.599   3.261 -0.4478 -0.5084  0.1814
 1379SOL    HW1 4278   0.822   2.628   3.214 -1.1045  1.5271  0.2392
 1379SOL    HW2 4279   0.747   2.645   3.345 -2.6441  1.2534 -0.5849
 1380SOL     OW 4280   0.325   0.603   1.251  0.0176  0.1759  0.8398
 1380SOL    HW1 4281   0.416   0.626   1.236  0.4855 -1.9069  0.0977
 1380SOL    HW2 4282   0.275   0.681   1.229  1.5049  0.7586 -0.5659
 1381SOL     OW 4283   3.598   1.815   2.106 -0.0049  0.2142  0.2670
 1381SOL    HW1 4284   3.568   1.748   2.167 -0.0721 -1.0295 -1.0857
 1381SOL    HW2 4285   3.616   1.768   2.025 -0.4463  1.8901 -0.8630
 1382SOL     OW 4286   1.317   0.805   2.632 -0.0753  0.0320 -0.4920
 1382SOL    HW1 4287   1.297   0.899   2.624  0.2736  0.4564  2.6580
 1382SOL    HW2 4288   1.255   0.772   2.697  0.0714 -1.8786 -1.2465
 1383SOL     OW 4289   1.061   2.587   3.214  0.2339  0.3866  0.5551
 1383SOL    HW1 4290   1.092   2.670   3.249 -1.2928  1.6576 -0.9155
 1383SOL    HW2 4291   1.077   2.593   3.120  2.0093 -1.9095  0.6084
 1384SOL     OW 4292   1.763   0.864   2.274  0.1284  0.0699  0.7256
 1384SOL    HW1 4293   1.758   0.804   2.199 -0.8960  0.7140  0.2533
 1384SOL    HW2 4294   1.700   0.830   2.337  0.7830 -0.3064  1.1927
 1385SOL     OW 4295  -0.012   2.681   1.207  0.0220  0.2834 -1.3089
 1385SOL    HW1 4296   0.082   2.700   1.217  0.1182 -0.7370 -0.0520
 1385SOL    HW2 4297  -0.031   2.619   1.277 -2.1232  2.2883  0.0236
 1386SOL     OW 4298   3.442   2.609   1.225 -0.3511 -0.1632 -0.4229
 1386SOL    HW1 4299   3.500   2.556   1.170 -0.0777 -0.8406  0.5000
 1386SOL    HW2 4300   3.448   2.697   1.188  1.0992 -0.2570 -0.4870
 1387SOL     OW 4301   3.346   2.265   3.413 -0.3489 -0.5389 -0.3656
 1387SOL    HW1 4302   3.316   2.347   3.452  0.0119 -0.4061 -0.3593
 1387SOL    HW2 4303   3.355   2.205   3.487  0.5086 -0.2337 -0.2130
 1388SOL     OW 4304   3.554   2.337   3.231  0.3112 -0.4171 -0.1557
 1388SOL    HW1 4305   3.511   2.313   3.314  1.6830 -1.0655  0.4097
 1388SOL    HW2 4306   3.495   2.399   3.190 -0.8208 -0.7498  0.9119
 1389SOL     OW 4307   3.082   3.451   3.712 -0.1641  0.1127 -0.1003
 1389SOL    HW1 4308   3.041   3.516   3.656  2.9311  0.0700 -2.6918
 1389SOL    HW2 4309   3.087   3.372   3.658  1.5282 -0.4168  0.7571
 1390SOL     OW 4310   1.807   2.527   2.293 -0.3864  0.1586  0.1564
 1390SOL    HW1 4311   1.885   2.549   2.242  0.2065 -0.3704  0.8253
 1390SOL    HW2 4312   1.735   2.538   2.231  0.0991  1.7246 -0.1795
 1391SOL     OW 4313   0.095   0.507   2.978 -0.2131  0.3259 -0.4709
 1391SOL    HW1 4314   0.074   0.587   2.930 -2.3897 -0.8204 -1.5955
 1391SOL    HW2 4315   0.016   0.489   3.029  0.5271 -0.7201  0.3463
 1392SOL     OW 4316   0.293   2.592   2.699  0.3424 -0.1178 -0.2601
 1392SOL    HW1 4317   0.339   2.526   2.751 -0.9311  0.7265  2.1088
 1392SOL    HW2 4318   0.328   2.676   2.731 -0.5452  0.4298 -0.6880
 1393SOL     OW 4319   1.198   2.543   0.340 -0.1542 -0.0856  0.2917
 1393SOL    HW1 4320   1.264   2.490   0.386  0.4377  0.3746 -0.0172
 1393SOL    HW2 4321   1.209   2.631   0.375 -0.2075  0.1133 -0.1893
 1394SOL     OW 4322   0.057   2.541   0.919 -0.4298  0.0419 -0.7271
 1394SOL    HW1 4323  -0.035   2.518   0.923  0.1583 -3.2543 -2.7390
 1394SOL    HW2 4324   0.092   2.515   1.004 -1.1594  0.4770 -0.2846
 1395SOL     OW 4325   1.300   0.451   1.261 -0.0153 -0.1211 -0.0981
 1395SOL    HW1 4326   1.277   0.364   1.293  0.5975 -0.2996 -0.1275
 1395SOL    HW2 4327   1.240   0.510   1.306  1.8763 -0.1484  2.7264
 1396SOL     OW 4328   0.182   3.385   0.470 -1.0308  0.1787 -0.2236
 1396SOL    HW1 4329   0.091   3.359   0.487 -2.3475  3.7591 -1.0145
 1396SOL    HW2 4330   0.190   3.472   0.509  1.8489  0.2936 -0.8776
 1397SOL     OW 4331   0.847   0.076   2.613  0.4165  0.6684  0.1240
 1397SOL    HW1 4332   0.842   0.162   2.654 -0.7897  1.1959 -1.0571
 1397SOL    HW2 4333   0.898   0.023   2.675 -0.3815  1.7145  1.7622
 1398SOL     OW 4334   1.632   0.482   1.762 -0.0031 -1.0050 -0.1988
 1398SOL    HW1 4335   1.693   0.555   1.769  1.5951 -2.4036  1.4049
 1398SOL    HW2 4336   1.680   0.415   1.715 -1.0756 -1.4209 -0.7317
 1399SOL     OW 4337   0.537   3.510   0.120 -0.0937 -0.0750 -0.4376
 1399SOL    HW1 4338   0.524   3.417   0.138 -4.7718  0.8638  2.6492
 1399SOL    HW2 4339   0.596   3.540   0.188 -0.7628 -0.3626  0.2876
 1400SOL     OW 4340   3.511   1.235   1.754  0.4179  0.1887 -0.3058
 1400SOL    HW1 4341   3.515   1.141   1.735 -2.7189 -0.4568  1.3944
 1400SOL    HW2 4342   3.505   1.239   1.850  0.2583  2.0943 -0.3620
 1401SOL     OW 4343   3.326   2.736   1.639  0.0039  0.2959  0.1810
 1401SOL    HW1 4344   3.270   2.683   1.695  0.3407 -2.6554 -2.0194
 1401SOL    HW2 4345   3.415   2.709   1.661  0.2147  0.3226 -0.5991
 1402SOL     OW 4346   1.400   1.268   0.495  0.4533  0.5159 -0.5607
 1402SOL    HW1 4347   1.366   1.179   0.484  0.0445  0.8764 -2.8843
 1402SOL    HW2 4348   1.494   1.257   0.508  0.0872 -0.3204  1.8582
 1403SOL     OW 4349   2.698   1.476   1.931  0.2182 -0.2394  0.0244
 1403SOL    HW1 4350   2.682   1.383   1.915  0.1945 -0.2045 -0.1563
 1403SOL    HW2 4351   2.793   1.484   1.935  0.2189 -0.2805  0.0949
 1404SOL     OW 4352   1.857   0.461   1.962  0.2458 -0.5745  0.0354
 1404SOL    HW1 4353   1.769   0.432   1.986  0.5204 -0.2099  1.6105
 1404SOL    HW2 4354   1.879   0.410   1.884 -2.6658  1.7616 -2.5325
 1405SOL     OW 4355   3.421   0.538   0.457 -0.0277 -0.5904  0.0494
 1405SOL    HW1 4356   3.442   0.607   0.520  1.0139 -1.2021  0.4062
 1405SOL    HW2 4357   3.459   0.568   0.375  1.4343 -1.2053  0.4548
 1406SOL     OW 4358   2.108   0.628   0.660  0.0947  0.3860  0.1285
 1406SOL    HW1 4359   2.128   0.701   0.601 -1.1578 -1.9272 -3.4501
 1406SOL    HW2 4360   2.031   0.658   0.708 -1.2619  1.0229 -2.2675
 1407SOL     OW 4361   3.654   0.261   0.310 -0.3783  0.3769  0.2874
 1407SOL    HW1 4362   3.710   0.186   0.329 -0.8451 -0.1726 -0.4221
 1407SOL    HW2 4363   3.580   0.224   0.262 -0.8968  1.2179  0.4129
 1408SOL     OW 4364   0.589   2.271   1.275  0.0800 -0.3830 -0.2152
 1408SOL    HW1 4365   0.615   2.240   1.189  1.1352  0.1574 -0.1112
 1408SOL    HW2 4366   0.667   2.261   1.329  0.6109  2.6338 -0.2403
 1409SOL     OW 4367   3.035   1.472   2.331  0.7864  0.0092 -0.3719
 1409SOL    HW1 4368   2.968   1.406   2.350 -1.3352  2.1747  0.0314
 1409SOL    HW2 4369   3.117   1.430   2.357 -0.5298 -2.2040  0.5037
 1410SOL     OW 4370   0.729   3.524   0.300 -0.1123 -0.2007  0.1394
 1410SOL    HW1 4371   0.809   3.476   0.281 -0.0451 -0.1538  0.3046
 1410SOL    HW2 4372   0.740   3.555   0.389  0.0044  0.4431 -0.0940
 1411SOL     OW 4373   1.994   3.532   0.559  0.3783 -0.5153 -0.1420
 1411SOL    HW1 4374   1.999   3.607   0.498 -0.3227  0.1405  0.5887
 1411SOL    HW2 4375   1.916   3.484   0.531 -1.0351  0.8194  1.3581
 1412SOL     OW 4376   2.576   0.403   0.664  0.5250  0.2199  0.9104
 1412SOL    HW1 4377   2.669   0.427   0.670  0.3810  0.7813  0.9256
 1412SOL    HW2 4378   2.530   0.487   0.663  0.1183  0.0117 -0.9979
 1413SOL     OW 4379   2.760   0.963   2.734  0.8064 -0.2480  0.5232
 1413SOL    HW1 4380   2.781   0.958   2.827  3.0302 -0.8703  0.0371
 1413SOL    HW2 4381   2.743   0.872   2.708 -2.1777  0.1290  0.7306
 1414SOL     OW 4382   3.120   2.923   2.351 -0.1757 -0.7828 -0.1072
 1414SOL    HW1 4383   3.069   2.953   2.276  0.6275  1.0036  0.0061
 1414SOL    HW2 4384   3.069   2.952   2.427  0.2415 -0.3402  0.0094
 1415SOL     OW 4385   1.306   0.924   3.560 -0.9916 -0.4504 -0.0142
 1415SOL    HW1 4386   1.219   0.887   3.575 -0.3239 -2.0657  0.1274
 1415SOL    HW2 4387   1.303   0.955   3.469 -0.9922 -2.8394 -0.9210
 1416SOL     OW 4388   0.746   1.813   2.981  0.4560  0.2216  0.8656
 1416SOL    HW1 4389   0.832   1.778   2.956 -0.0586 -0.8192  0.4789
 1416SOL    HW2 4390   0.766   1.883   3.042  1.6286  0.6605  0.0241
 1417SOL     OW 4391   3.241   3.299   1.854 -0.1765 -0.2352 -0.0446
 1417SOL    HW1 4392   3.197   3.377   1.821  0.6277 -0.0612 -0.7373
 1417SOL    HW2 4393   3.334   3.318   1.845  0.0515 -0.8310  0.8403
 1418SOL     OW 4394   0.029   1.790   2.939 -0.1867  0.1048 -0.2283
 1418SOL    HW1 4395   0.004   1.698   2.943  2.6108 -0.9303 -2.9143
 1418SOL    HW2 4396   0.073   1.807   3.022 -0.6135 -1.0139  0.2393
 1419SOL     OW 4397   2.417   1.977   3.376 -0.2809  0.2154  0.1644
 1419SOL    HW1 4398   2.406   1.937   3.290 -0.9187 -0.5518  0.5757
 1419SOL    HW2 4399   2.511   1.983   3.389 -0.1295 -1.6719  0.2782
 1420SOL     OW 4400   1.567   2.281   2.810 -0.1674 -0.2649  0.6058
 1420SOL    HW1 4401   1.484   2.292   2.764  0.9629  0.4788 -1.3897
 1420SOL    HW2 4402   1.591   2.189   2.794 -1.4362 -1.0271  2.7600
 1421SOL     OW 4403   0.601   0.260   2.037 -0.1981  0.3422 -0.6058
 1421SOL    HW1 4404   0.666   0.328   2.048 -0.1626  0.2650 -0.3444
 1421SOL    HW2 4405   0.595   0.217   2.122  1.1737 -1.2405 -1.2407
 1422SOL     OW 4406   3.014   1.521   1.265 -1.1837  0.4862 -0.4576
 1422SOL    HW1 4407   3.096   1.556   1.230 -1.5738  0.9914 -0.8792
 1422SOL    HW2 4408   2.980   1.589   1.321 -0.2496 -0.5681  1.4801
 1423SOL     OW 4409   1.268   0.687   0.487 -0.4481 -0.0175  0.9589
 1423SOL    HW1 4410   1.199   0.628   0.456 -0.5622 -0.5548  2.1977
 1423SOL    HW2 4411   1.274   0.754   0.418 -2.3872  0.2023  0.9312
 1424SOL     OW 4412   1.431   2.642   0.059 -0.2348  0.4636  0.2592
 1424SOL    HW1 4413   1.402   2.711   0.119  1.4869  0.5585  1.0222
 1424SOL    HW2 4414   1.526   2.645   0.062 -0.1099 -0.4075 -1.5034
 1425SOL     OW 4415   1.454   1.435   1.342 -0.0521  0.5801  0.3791
 1425SOL    HW1 4416   1.522   1.437   1.275  1.0502 -0.6052  1.4050
 1425SOL    HW2 4417   1.384   1.382   1.304  1.1188 -1.2162  0.6091
 1426SOL     OW 4418   2.762   0.493   0.142  0.1987 -0.2066 -0.1724
 1426SOL    HW1 4419   2.681   0.526   0.104  1.3059  1.5182 -1.2036
 1426SOL    HW2 4420   2.815   0.467   0.066  0.5310 -1.5407  0.4908
 1427SOL     OW 4421   3.488   1.451   0.403  0.1436  0.3627 -0.3736
 1427SOL    HW1 4422   3.531   1.525   0.446 -0.7118 -0.3124  1.7356
 1427SOL    HW2 4423   3.404   1.487   0.374 -0.0153  0.3718  0.0966
 1428SOL     OW 4424   1.101   3.608   2.871  0.4146 -0.3142  0.2994
 1428SOL    HW1 4425   1.149   3.598   2.953 -1.9602 -0.9485  1.6996
 1428SOL    HW2 4426   1.068   3.698   2.872  0.5074 -0.2709 -0.0637
 1429SOL     OW 4427   2.157   2.526   1.308  0.5677 -0.2114 -0.0764
 1429SOL    HW1 4428   2.102   2.604   1.320  1.8134  1.0099 -1.7618
 1429SOL    HW2 4429   2.113   2.458   1.359 -1.6635  1.0859 -0.1097
 1430SOL     OW 4430   3.129   0.489   2.862 -0.1580 -0.1747 -0.2761
 1430SOL    HW1 4431   3.215   0.511   2.827  0.2514 -0.2795  0.6320
 1430SOL    HW2 4432   3.116   0.550   2.935  0.5196 -2.1139  1.5768
 1431SOL     OW 4433   1.207   1.363   2.770  0.2275  0.3642  0.2819
 1431SOL    HW1 4434   1.128   1.346   2.719  0.5741  0.0381 -0.1586
 1431SOL    HW2 4435   1.180   1.352   2.861 -0.7227  2.2675  0.2758
 1432SOL     OW 4436   3.033   1.723   1.983 -0.5577 -0.1768  0.5080
 1432SOL    HW1 4437   2.976   1.783   2.030 -0.9016 -1.5090  1.8511
 1432SOL    HW2 4438   3.122   1.755   1.999 -0.8202  1.3614 -0.8273
 1433SOL     OW 4439   1.819   1.881   3.313 -0.2822  0.1700  0.5142
 1433SOL    HW1 4440   1.849   1.934   3.239  1.2004 -1.4771 -0.1424
 1433SOL    HW2 4441   1.769   1.941   3.367 -0.9042  1.5947 -1.5055
 1434SOL     OW 4442   2.624   2.931   1.163  0.1272 -0.0987 -0.0368
 1434SOL    HW1 4443   2.708   2.964   1.131  0.9151 -0.8632  1.1630
 1434SOL    HW2 4444   2.591   2.999   1.222 -0.1279  0.2122 -0.5269
 1435SOL     OW 4445   0.366   3.205   2.664  0.2899 -1.0360 -0.6299
 1435SOL    HW1 4446   0.283   3.228   2.621  0.7851  0.6291 -0.7368
 1435SOL    HW2 4447   0.433   3.228   2.600  0.9115 -0.9160  0.0539
 1436SOL     OW 4448   0.276   2.373   2.208 -0.1631  0.1152 -0.0708
 1436SOL    HW1 4449   0.187   2.382   2.176 -0.4770  1.5850  1.1077
 1436SOL    HW2 4450   0.286   2.279   2.225 -1.0009 -0.2569 -1.4510
 1437SOL     OW 4451   0.052   1.064   0.976  0.4979 -0.0669  0.5994
 1437SOL    HW1 4452   0.095   1.065   1.061 -1.8096  0.6839  1.8654
 1437SOL    HW2 4453   0.060   1.154   0.944  1.0270 -0.2561  0.1825
 1438SOL     OW 4454   3.660   1.239   0.474 -0.1593  0.2599 -0.3138
 1438SOL    HW1 4455   3.699   1.243   0.562 -0.9054 -0.8366  0.0872
 1438SOL    HW2 4456   3.625   1.326   0.459 -0.0958  0.4365  0.5236
 1439SOL     OW 4457   1.061   0.989   0.891  0.2379  0.0264 -0.6090
 1439SOL    HW1 4458   0.977   0.944   0.907  0.3013 -0.0809 -0.5781
 1439SOL    HW2 4459   1.100   0.939   0.819  1.3134 -1.3208  0.8533
 1440SOL     OW 4460   0.821   0.152   3.384 -0.0559 -0.0456 -0.1670
 1440SOL    HW1 4461   0.737   0.138   3.427  0.4902 -0.1217  0.9275
 1440SOL    HW2 4462   0.800   0.167   3.292 -1.4564  1.9853  0.4208
 1441SOL     OW 4463   1.520   0.482   0.798 -0.2581  0.3559 -0.1944
 1441SOL    HW1 4464   1.460   0.437   0.738 -0.3015 -0.1534  0.2238
 1441SOL    HW2 4465   1.516   0.431   0.879  1.0168  0.0885 -0.2724
 1442SOL     OW 4466   1.265   1.811   0.376 -0.8324 -0.4284 -0.3125
 1442SOL    HW1 4467   1.329   1.863   0.425 -0.1230  1.1792 -2.7588
 1442SOL    HW2 4468   1.318   1.755   0.320 -1.6258 -1.8369  0.2814
 1443SOL     OW 4469   3.259   0.835   2.712  0.8259 -0.0534  0.0518
 1443SOL    HW1 4470   3.315   0.912   2.705  1.0035 -0.2809 -1.6217
 1443SOL    HW2 4471   3.317   0.766   2.744  1.1174  0.0923 -0.1535
 1444SOL     OW 4472   3.613   0.451   0.090 -0.3977 -0.4416  0.0888
 1444SOL    HW1 4473   3.591   0.524   0.148 -2.3025  0.8388 -2.0605
 1444SOL    HW2 4474   3.563   0.377   0.125  0.6409 -0.4603  1.6176
 1445SOL     OW 4475   3.152   0.219   0.249  0.1197  0.0935  0.0776
 1445SOL    HW1 4476   3.123   0.129   0.265  0.8286 -0.0300  0.7538
 1445SOL    HW2 4477   3.071   0.268   0.232 -0.2277 -0.7773 -0.9220
 1446SOL     OW 4478   3.520   1.796   3.181  0.0364  0.2186  0.4360
 1446SOL    HW1 4479   3.517   1.891   3.172  1.2377  0.1848 -0.5459
 1446SOL    HW2 4480   3.601   1.778   3.230 -0.6495 -0.2731  1.4496
 1447SOL     OW 4481   3.254   1.639   1.184 -0.5291  0.4117  0.0604
 1447SOL    HW1 4482   3.202   1.714   1.154  0.8746  0.6069 -2.0852
 1447SOL    HW2 4483   3.269   1.587   1.105  0.0543 -1.2008  1.1762
 1448SOL     OW 4484   3.214   0.480   1.006  0.3804 -0.4515  0.3253
 1448SOL    HW1 4485   3.204   0.573   0.984  2.0817 -0.3999 -0.3612
 1448SOL    HW2 4486   3.289   0.451   0.955 -1.3446 -2.7649 -1.1274
 1449SOL     OW 4487   3.245   0.886   1.520 -0.2272 -1.0329  0.0732
 1449SOL    HW1 4488   3.178   0.942   1.561  0.4321  0.4261 -0.7699
 1449SOL    HW2 4489   3.242   0.910   1.427 -0.0348 -2.5395 -0.3370
 1450SOL     OW 4490   3.005   3.694   3.061 -0.2566  0.6660 -0.2368
 1450SOL    HW1 4491   2.936   3.704   3.127 -0.3486  0.0383 -0.2317
 1450SOL    HW2 4492   2.958   3.670   2.981 -0.1041  0.9502 -0.4108
 1451SOL     OW 4493   2.210   0.072   3.029  0.2634  0.5989  0.1711
 1451SOL    HW1 4494   2.205   0.043   2.938 -1.8957  1.4793 -0.0671
 1451SOL    HW2 4495   2.121   0.061   3.062  0.8306  1.0228  1.9518
 1452SOL     OW 4496   2.563   1.704   3.474 -0.5682 -0.1402  0.9843
 1452SOL    HW1 4497   2.572   1.614   3.442 -1.8951  0.0713 -0.0568
 1452SOL    HW2 4498   2.610   1.757   3.410 -0.1437 -0.0323  1.3732
 1453SOL     OW 4499   1.709   1.826   0.754  0.5232  0.2545 -0.2779
 1453SOL    HW1 4500   1.772   1.818   0.825 -0.6135  0.5037  0.7845
 1453SOL    HW2 4501   1.646   1.756   0.769 -1.0195  1.7005  0.3317
 1454SOL     OW 4502   3.470   0.542   1.594 -0.3851  0.3215 -0.9832
 1454SOL    HW1 4503   3.560   0.514   1.577 -0.6044  0.0411 -1.7196
 1454SOL    HW2 4504   3.444   0.493   1.672  0.5967  1.5221  0.1527
 1455SOL     OW 4505   2.229   2.581   2.937  0.1036  0.2548  0.0067
 1455SOL    HW1 4506   2.208   2.604   2.846  2.7014 -0.4107 -0.8308
 1455SOL    HW2 4507   2.256   2.664   2.977 -0.2069  0.3898 -0.0547
 1456SOL     OW 4508   1.428   2.844   0.234 -0.4494 -0.3387  0.1063
 1456SOL    HW1 4509   1.364   2.821   0.302 -0.2719  0.2411  0.4803
 1456SOL    HW2 4510   1.398   2.930   0.203  0.2331  0.0064  0.3917
 1457SOL     OW 4511   2.348   2.840   0.921  0.7359  0.0823 -0.2003
 1457SOL    HW1 4512   2.305   2.843   1.006  1.9779  1.4136  0.4331
 1457SOL    HW2 4513   2.322   2.756   0.883  1.7527 -1.5154  2.3481
 1458SOL     OW 4514   2.821   3.500   2.298 -0.2074  0.1996  0.6064
 1458SOL    HW1 4515   2.754   3.473   2.361 -0.3867 -0.5200  0.1265
 1458SOL    HW2 4516   2.899   3.449   2.323 -0.0991  0.3764  0.6288
 1459SOL     OW 4517   0.000   0.619   2.307  0.4173 -0.2013  0.1417
 1459SOL    HW1 4518   0.074   0.663   2.266 -0.4878  0.8781 -0.3929
 1459SOL    HW2 4519  -0.004   0.534   2.264  2.0704 -0.7855  1.0420
 1460SOL     OW 4520   0.082   3.414   3.617 -0.4421 -0.5294 -0.6899
 1460SOL    HW1 4521   0.089   3.494   3.669  0.4727 -0.2990 -1.1456
 1460SOL    HW2 4522  -0.011   3.393   3.616 -0.4997 -0.4669  0.9332
 1461SOL     OW 4523   0.021   2.275   2.067  0.0988 -0.0812  0.5271
 1461SOL    HW1 4524   0.083   2.304   2.000 -0.5747  1.4193  0.4991
 1461SOL    HW2 4525  -0.028   2.355   2.090 -1.9649 -1.2245  0.3781
 1462SOL     OW 4526   2.748   2.054   0.225  0.0044  0.5149  0.0443
 1462SOL    HW1 4527   2.657   2.082   0.236 -0.2110 -0.1345 -0.0509
 1462SOL    HW2 4528   2.745   1.959   0.236  0.5251  0.3769 -0.8884
 1463SOL     OW 4529   1.428   3.026   3.499 -0.6031  0.0459  0.7476
 1463SOL    HW1 4530   1.506   2.986   3.538 -0.7203  1.1774  2.2518
 1463SOL    HW2 4531   1.462   3.080   3.428 -0.2847 -1.3229 -0.1818
 1464SOL     OW 4532   1.274   2.892   2.305  0.0277  0.0703  0.4020
 1464SOL    HW1 4533   1.233   2.862   2.224 -0.7365  0.4274  0.6499
 1464SOL    HW2 4534   1.351   2.940   2.276 -0.4958  0.5970 -0.1409
 1465SOL     OW 4535   0.897   2.044   2.006 -0.0800  0.1046  0.6053
 1465SOL    HW1 4536   0.807   2.059   1.978  0.0089 -0.1975  0.1527
 1465SOL    HW2 4537   0.948   2.044   1.925 -0.1662 -3.3658  0.4156
 1466SOL     OW 4538   1.737   0.517   3.741  1.2075  0.3370 -0.0793
 1466SOL    HW1 4539   1.687   0.445   3.701 -2.4693  2.9488 -0.7364
 1466SOL    HW2 4540   1.810   0.532   3.681  0.3456 -0.9148 -1.5318
 1467SOL     OW 4541   2.276   0.098   2.135  0.3153 -0.0781  0.0743
 1467SOL    HW1 4542   2.182   0.109   2.145  0.5105  0.4918  1.4906
 1467SOL    HW2 4543   2.287   0.007   2.107 -0.6444 -0.1435 -0.1184
 1468SOL     OW 4544   0.460   0.567   2.748  0.4112 -0.5009  0.0946
 1468SOL    HW1 4545   0.411   0.649   2.740  2.5238  0.7010 -1.3456
 1468SOL    HW2 4546   0.484   0.544   2.658 -0.5121 -3.0172  0.3985
 1469SOL     OW 4547   2.545   2.250   2.183 -0.2622  0.5477 -0.1345
 1469SOL    HW1 4548   2.483   2.184   2.215 -0.9656  0.8038 -0.9255
 1469SOL    HW2 4549   2.492   2.328   2.170  0.5399  1.2356  0.6554
 1470SOL     OW 4550   1.537   1.081   1.309 -0.1380  0.1981 -0.7148
 1470SOL    HW1 4551   1.476   1.041   1.372 -0.2201  0.0551 -0.8844
 1470SOL    HW2 4552   1.493   1.073   1.224 -1.5067  3.2539 -0.4326
 1471SOL     OW 4553   0.384   3.164   0.584 -0.8105 -0.6071  0.8820
 1471SOL    HW1 4554   0.297   3.141   0.617 -1.5849  0.4120 -0.3673
 1471SOL    HW2 4555   0.396   3.107   0.508 -1.9372  1.6226 -1.0835
 1472SOL     OW 4556   1.706   1.403   0.278 -0.1701 -0.2099 -0.5168
 1472SOL    HW1 4557   1.627   1.353   0.259 -0.3623 -1.5901  3.1864
 1472SOL    HW2 4558   1.693   1.438   0.366  2.2608  1.8265 -0.8373
 1473SOL     OW 4559   3.389   0.871   0.340  0.5325 -0.2235 -0.1027
 1473SOL    HW1 4560   3.412   0.930   0.412 -1.1175  0.3610 -0.0152
 1473SOL    HW2 4561   3.295   0.859   0.349  0.4271 -0.7406 -1.7288
 1474SOL     OW 4562   2.245   0.836   2.187 -0.1355  0.2057 -0.0894
 1474SOL    HW1 4563   2.199   0.788   2.117 -2.7219 -0.5071  1.9205
 1474SOL    HW2 4564   2.316   0.778   2.212 -1.9336 -1.7526  0.8565
 1475SOL     OW 4565   2.115   2.713   2.360  0.1881  0.1657  0.0688
 1475SOL    HW1 4566   2.161   2.634   2.389  0.3194 -0.2298 -1.1340
 1475SOL    HW2 4567   2.064   2.684   2.284 -0.1351  1.1372 -0.1025
 1476SOL     OW 4568   3.211   0.559   0.200 -0.5137  0.3592  0.1106
 1476SOL    HW1 4569   3.210   0.506   0.279 -0.2463  1.7069  1.0552
 1476SOL    HW2 4570   3.299   0.549   0.164 -0.5658 -0.0775  0.1099
 1477SOL     OW 4571   1.119   3.438   2.134 -0.6944  0.1295  0.0777
 1477SOL    HW1 4572   1.187   3.374   2.156 -0.8543 -0.7733 -1.8334
 1477SOL    HW2 4573   1.039   3.387   2.127 -0.5437  0.1315 -3.1197
 1478SOL     OW 4574   1.752   0.286   1.007  0.3836  0.2549  0.4049
 1478SOL    HW1 4575   1.660   0.312   1.003  1.5197  4.7936 -1.3685
 1478SOL    HW2 4576   1.775   0.296   1.099 -0.4124  1.0768  0.5320
 1479SOL     OW 4577   1.597   1.221   2.327  0.0640  0.4769 -0.3828
 1479SOL    HW1 4578   1.669   1.203   2.387  0.4680 -0.3886 -1.1006
 1479SOL    HW2 4579   1.639   1.232   2.242 -0.5822  0.7460 -0.6737
 1480SOL     OW 4580   2.315   1.849   1.756  1.0731 -0.1572  0.6262
 1480SOL    HW1 4581   2.307   1.878   1.847 -1.2628 -0.4171  0.5602
 1480SOL    HW2 4582   2.338   1.756   1.762 -0.9418 -0.6724  1.0422
 1481SOL     OW 4583   1.165   3.108   2.085 -0.1162 -0.3848  0.2397
 1481SOL    HW1 4584   1.080   3.064   2.076  0.4439 -1.6432  0.9011
 1481SOL    HW2 4585   1.181   3.148   1.999 -0.6779 -1.4195 -0.3623
 1482SOL     OW 4586   0.038   2.082   0.616  0.0627  0.5370  0.0049
 1482SOL    HW1 4587   0.132   2.091   0.600  0.0038  0.1505 -0.5780
 1482SOL    HW2 4588  -0.000   2.161   0.577 -0.1355 -0.6561 -2.3364
 1483SOL     OW 4589   0.587   3.015   1.485 -0.4036 -0.7759  0.3891
 1483SOL    HW1 4590   0.560   3.100   1.449  0.0745 -1.1027 -0.7673
 1483SOL    HW2 4591   0.514   2.989   1.541 -0.3460  0.6268  1.1618
 1484SOL     OW 4592   0.799   2.746   2.010 -0.2864  0.2868  0.3474
 1484SOL    HW1 4593   0.743   2.739   2.087  1.0677  0.4334  1.3667
 1484SOL    HW2 4594   0.869   2.683   2.025 -0.2252  0.0049 -0.9782
 1485SOL     OW 4595   2.478   1.891   3.105  0.0585  0.0444  0.1405
 1485SOL    HW1 4596   2.420   1.932   3.041 -1.0179  0.5704  1.3944
 1485SOL    HW2 4597   2.563   1.935   3.093  0.3288 -0.9611 -1.9355
 1486SOL     OW 4598   1.381   1.757   2.176 -0.0234  0.0301 -0.1756
 1486SOL    HW1 4599   1.452   1.694   2.166 -0.9595 -0.7712 -2.1295
 1486SOL    HW2 4600   1.401   1.825   2.111  0.0349  0.8726  0.7018
 1487SOL     OW 4601   0.622   2.989   2.094 -0.2908 -0.0400  0.2627
 1487SOL    HW1 4602   0.630   3.044   2.016  1.2161  1.2141  1.2345
 1487SOL    HW2 4603   0.666   3.039   2.163 -2.2435 -0.7405  2.1273
 1488SOL     OW 4604   2.987   1.897   0.913 -0.8060  0.5532  0.4867
 1488SOL    HW1 4605   3.076   1.874   0.939 -1.7281 -0.5594  2.9437
 1488SOL    HW2 4606   2.943   1.814   0.899 -1.4696  1.0900 -0.8396
 1489SOL     OW 4607   1.700   0.535   0.526  0.5133  0.4570  0.4021
 1489SOL    HW1 4608   1.698   0.568   0.616 -0.5075  1.6905 -0.0427
 1489SOL    HW2 4609   1.608   0.520   0.505  0.7953 -0.4228 -0.2320
 1490SOL     OW 4610   2.879   2.850   0.156 -0.2539  0.6350  0.0603
 1490SOL    HW1 4611   2.967   2.822   0.179 -1.5871 -3.3593  1.0421
 1490SOL    HW2 4612   2.845   2.890   0.236 -0.2081 -0.2523  0.5254
 1491SOL     OW 4613   0.244   0.044   1.611  0.0825  0.1917 -0.3903
 1491SOL    HW1 4614   0.338   0.035   1.598  0.0254  1.9343 -2.4650
 1491SOL    HW2 4615   0.210   0.071   1.526 -2.0744  1.2469  0.7234
 1492SOL     OW 4616   1.578   0.891   0.050  0.1412 -0.2669  0.0342
 1492SOL    HW1 4617   1.579   0.923  -0.041 -0.6863 -2.7344 -0.9283
 1492SOL    HW2 4618   1.649   0.939   0.093  0.7787  0.7363 -1.9986
 1493SOL     OW 4619   2.853   0.524   3.240  0.0533 -0.3920  0.9195
 1493SOL    HW1 4620   2.931   0.494   3.287 -0.1684 -0.7357  1.0799
 1493SOL    HW2 4621   2.870   0.616   3.221  0.4199 -0.4161  1.1116
 1494SOL     OW 4622   2.537   1.999   2.389  0.0886  0.3383 -0.2125
 1494SOL    HW1 4623   2.550   1.907   2.415 -0.8181  0.4735  0.7653
 1494SOL    HW2 4624   2.443   2.007   2.373  0.2547  0.9451 -0.9317
 1495SOL     OW 4625   3.341   1.999   0.538  0.4806 -0.1567 -0.0367
 1495SOL    HW1 4626   3.289   1.987   0.617 -2.1415 -0.4188 -1.6912
 1495SOL    HW2 4627   3.399   2.073   0.558 -0.1945 -0.1315  2.0402
 1496SOL     OW 4628   0.854   1.687   0.285 -0.5087 -0.0604  0.4121
 1496SOL    HW1 4629   0.851   1.768   0.335  0.4707  0.5787 -0.5165
 1496SOL    HW2 4630   0.791   1.700   0.213  1.4350  0.9592 -1.2154
 1497SOL     OW 4631   2.135   1.652   1.312  0.5949 -0.2354  0.3274
 1497SOL    HW1 4632   2.132   1.723   1.248  0.6556  0.9422  1.5947
 1497SOL    HW2 4633   2.050   1.655   1.356  0.6410 -0.8876  0.4766
 1498SOL     OW 4634   2.262   0.461   0.047 -0.3342 -0.0331  0.0536
 1498SOL    HW1 4635   2.222   0.508  -0.026 -1.2729 -1.6076 -0.4981
 1498SOL    HW2 4636   2.197   0.466   0.118 -1.4454 -2.2392 -0.7087
 1499SOL     OW 4637   3.032   1.201   2.803  0.2248  0.1552 -0.0630
 1499SOL    HW1 4638   2.986   1.274   2.762 -0.1124  1.5177  2.5188
 1499SOL    HW2 4639   3.124   1.228   2.805 -0.1044  1.3855  2.3529
 1500SOL     OW 4640   2.973   1.029   1.043 -0.2179  0.0306 -0.7474
 1500SOL    HW1 4641   3.026   1.100   1.080 -1.0306 -0.1525  0.8591
 1500SOL    HW2 4642   3.019   0.949   1.071 -0.4477 -0.1011 -0.7440
 1501SOL     OW 4643   0.716   2.875   0.681  0.0381 -0.2930 -0.3038
 1501SOL    HW1 4644   0.764   2.799   0.649  1.2619  0.0118  0.7298
 1501SOL    HW2 4645   0.742   2.884   0.773  0.3570  1.6610 -0.5324
 1502SOL     OW 4646   2.256   0.963  -0.001 -0.2558 -0.3203 -0.2759
 1502SOL    HW1 4647   2.311   1.026  -0.047  0.6813  0.5647  1.9055
 1502SOL    HW2 4648   2.194   1.017   0.049 -1.4199 -1.2391 -0.6592
 1503SOL     OW 4649   2.990   2.700   1.127 -0.5100  0.0925  0.4034
 1503SOL    HW1 4650   3.036   2.783   1.135 -0.3604 -0.0199  0.7369
 1503SOL    HW2 4651   2.898   2.725   1.116 -0.1062  0.4098 -3.1664
 1504SOL     OW 4652   1.793   3.438   1.062 -0.4797 -0.5391  0.3639
 1504SOL    HW1 4653   1.707   3.409   1.031 -0.7340 -0.0212  0.5761
 1504SOL    HW2 4654   1.838   3.469   0.983 -0.7904 -0.0603  0.3722
 1505SOL     OW 4655   1.949   3.600   0.901  0.6438  0.9467 -0.3732
 1505SOL    HW1 4656   2.021   3.638   0.950  1.2216  1.2605 -1.4259
 1505SOL    HW2 4657   1.972   3.614   0.809 -1.2149  1.9152 -0.7481
 1506SOL     OW 4658   0.412   2.454   0.500 -0.3339  0.1716 -0.3457
 1506SOL    HW1 4659   0.389   2.491   0.585 -1.4928 -1.6694  0.2097
 1506SOL    HW2 4660   0.492   2.500   0.474 -0.5852  1.5594  1.2016
 1507SOL     OW 4661   1.140   0.601   1.433 -0.3300  0.4800 -0.8811
 1507SOL    HW1 4662   1.099   0.519   1.462 -0.7895  1.2098  0.6189
 1507SOL    HW2 4663   1.186   0.634   1.511  0.9314  1.0164 -1.8109
 1508SOL     OW 4664   1.158   1.346   2.188 -0.9251  0.4371  0.1478
 1508SOL    HW1 4665   1.178   1.271   2.242 -1.7807  1.8553  2.5908
 1508SOL    HW2 4666   1.227   1.410   2.209 -0.4960  0.5555 -1.4946
 1509SOL     OW 4667   3.105   2.683   0.255  0.1876  0.2450 -0.6714
 1509SOL    HW1 4668   3.133   2.767   0.292  1.8260 -0.8214  0.6585
 1509SOL    HW2 4669   3.089   2.627   0.331  0.0482 -0.9375 -1.5332
 1510SOL     OW 4670   3.577   3.654   3.724 -0.1548 -0.3633  0.3036
 1510SOL    HW1 4671   3.673   3.655   3.718 -0.0432 -2.3986  1.0807
 1510SOL    HW2 4672   3.549   3.715   3.656  1.6943  0.8498  0.5487
 1511SOL     OW 4673   3.068   0.403   3.360 -1.0636  0.6807  0.3223
 1511SOL    HW1 4674   3.099   0.326   3.408 -1.8146  1.1435  1.5923
 1511SOL    HW2 4675   3.147   0.442   3.324 -0.4424  0.4273  1.3589
 1512SOL     OW 4676   2.471   1.984   0.384  0.0128 -0.0110  0.3393
 1512SOL    HW1 4677   2.446   1.965   0.294  0.0191 -2.3445  0.7657
 1512SOL    HW2 4678   2.398   1.949   0.436  1.8331 -2.5300  1.3782
 1513SOL     OW 4679   1.208   0.341   2.469 -0.3462  0.2640  0.0210
 1513SOL    HW1 4680   1.253   0.361   2.387 -2.3656  1.0473 -0.9517
 1513SOL    HW2 4681   1.115   0.342   2.447 -1.1526  2.9857  2.7801
 1514SOL     OW 4682   0.991   1.570   3.552 -0.1520 -0.0215  0.5862
 1514SOL    HW1 4683   1.011   1.662   3.536 -0.9564 -0.2188 -1.9674
 1514SOL    HW2 4684   0.898   1.561   3.532  0.6342 -2.0098 -3.1398
 1515SOL     OW 4685   2.583   2.534   1.252  0.7198 -1.3923 -0.0518
 1515SOL    HW1 4686   2.623   2.588   1.184 -0.9305  0.6793  0.5296
 1515SOL    HW2 4687   2.508   2.493   1.209 -0.2916 -0.1262  0.4679
 1516SOL     OW 4688   0.654   2.238   0.662  0.2937 -0.6833  0.3725
 1516SOL    HW1 4689   0.654   2.269   0.753 -0.5623  0.7769 -0.0807
 1516SOL    HW2 4690   0.741   2.261   0.630  0.3019 -0.4055  0.5830
 1517SOL     OW 4691   2.201   1.345   2.146  0.1200  0.1324 -0.0501
 1517SOL    HW1 4692   2.283   1.391   2.127  1.6944 -1.9353  1.3466
 1517SOL    HW2 4693   2.216   1.256   2.116 -1.5031 -0.3724  0.5345
 1518SOL     OW 4694   2.329   0.900   2.831 -0.2726 -0.3952 -0.4518
 1518SOL    HW1 4695   2.269   0.948   2.773  1.7560  0.2898 -2.1418
 1518SOL    HW2 4696   2.337   0.814   2.791 -0.2155 -0.5174 -0.1780
 1519SOL     OW 4697   2.522   0.691   2.162  0.5968  0.0625 -0.7078
 1519SOL    HW1 4698   2.561   0.683   2.075  1.6937 -0.2172 -0.2139
 1519SOL    HW2 4699   2.511   0.785   2.175 -2.5420  0.0487 -2.3734
 1520SOL     OW 4700   0.491   0.496   2.490  0.2466  0.6026 -0.7005
 1520SOL    HW1 4701   0.570   0.464   2.533 -0.9472  0.7436  1.8229
 1520SOL    HW2 4702   0.512   0.496   2.397  2.3630 -1.6695 -0.3239
 1521SOL     OW 4703   3.398   1.264   0.204  0.6796  0.1242 -0.4208
 1521SOL    HW1 4704   3.314   1.308   0.193 -0.1677 -1.3576 -0.1276
 1521SOL    HW2 4705   3.445   1.319   0.267 -0.9045 -0.1155  1.0488
 1522SOL     OW 4706   2.949   3.327   1.812 -0.0489 -0.4325 -0.1458
 1522SOL    HW1 4707   3.009   3.260   1.780 -1.0357 -1.0397 -0.7672
 1522SOL    HW2 4708   2.938   3.308   1.905  2.9791  1.4468  0.7184
 1523SOL     OW 4709   1.941   0.718   0.929  0.1453 -0.0999  0.3945
 1523SOL    HW1 4710   1.977   0.787   0.985 -0.8816 -0.1953  1.2109
 1523SOL    HW2 4711   1.960   0.637   0.977 -1.0205 -0.1588  0.7939
 1524SOL     OW 4712   0.876   2.363   0.567  0.5962  0.8830  0.7417
 1524SOL    HW1 4713   0.971   2.367   0.572  0.5631  0.8229  1.4871
 1524SOL    HW2 4714   0.857   2.357   0.473  1.3942 -0.9332  0.6575
 1525SOL     OW 4715   1.684   2.427   0.778 -0.1082  0.5444 -0.2189
 1525SOL    HW1 4716   1.691   2.505   0.724 -1.3898  1.3057  0.6575
 1525SOL    HW2 4717   1.645   2.361   0.721 -0.5898  1.0613 -0.4950
 1526SOL     OW 4718   0.151   0.750   2.827 -0.5150 -0.9121 -0.9022
 1526SOL    HW1 4719   0.238   0.780   2.802 -0.1955 -1.1847 -0.1625
 1526SOL    HW2 4720   0.116   0.821   2.880 -1.7598  0.2962 -3.2049
 1527SOL     OW 4721   3.181   1.735   0.696  0.1447 -0.2810 -0.1559
 1527SOL    HW1 4722   3.235   1.750   0.774  1.9180 -0.5081 -1.2799
 1527SOL    HW2 4723   3.241   1.749   0.623 -1.3863 -0.4191 -1.4844
 1528SOL     OW 4724   0.393   2.422   2.437 -0.3223  0.2209 -0.2892
 1528SOL    HW1 4725   0.347   2.394   2.358 -0.6711 -0.6642  0.2174
 1528SOL    HW2 4726   0.383   2.349   2.498  2.4929 -0.3903 -0.4371
 1529SOL     OW 4727   0.116   3.332   0.914 -0.2253  0.6187 -0.4073
 1529SOL    HW1 4728   0.103   3.414   0.867 -0.0303 -0.1616 -1.8737
 1529SOL    HW2 4729   0.097   3.264   0.849 -0.3761 -0.4994  0.7729
 1530SOL     OW 4730   2.896   2.651   1.452 -0.3413  0.0657 -0.8986
 1530SOL    HW1 4731   2.923   2.742   1.436  0.6381 -0.1310 -0.4369
 1530SOL    HW2 4732   2.904   2.609   1.366  0.8133  0.0237 -0.7788
 1531SOL     OW 4733   1.041   3.125   1.394  0.0571 -1.0050 -0.0572
 1531SOL    HW1 4734   0.970   3.178   1.357 -0.9668  0.3821  3.4818
 1531SOL    HW2 4735   0.998   3.066   1.456  1.8760  0.1464  2.5200
 1532SOL     OW 4736   0.911   1.343   1.443  0.1199  0.5063 -0.0410
 1532SOL    HW1 4737   0.867   1.403   1.383  0.2045 -0.2822 -0.9086
 1532SOL    HW2 4738   0.843   1.283   1.472 -0.1678  1.5269  1.5366
 1533SOL     OW 4739   1.825   2.397   2.950  0.3511  0.2499 -0.3515
 1533SOL    HW1 4740   1.729   2.391   2.943 -0.0283  3.2878  0.9086
 1533SOL    HW2 4741   1.857   2.360   2.868 -1.9998  0.8014 -1.6110
 1534SOL     OW 4742   1.730   3.449   2.968  0.6346 -0.1658 -0.1235
 1534SOL    HW1 4743   1.739   3.416   2.878  1.9291 -1.0795  0.3109
 1534SOL    HW2 4744   1.761   3.540   2.962  0.3602 -0.1007 -0.6630
 1535SOL     OW 4745   2.511   2.596   0.784  0.2378 -0.2251  0.0768
 1535SOL    HW1 4746   2.535   2.526   0.845  2.5299 -1.8816 -2.4828
 1535SOL    HW2 4747   2.594   2.641   0.766 -0.6809  1.2701 -0.6009
 1536SOL     OW 4748   3.128   0.965   0.693  0.1347 -0.2191  0.1640
 1536SOL    HW1 4749   3.187   1.003   0.758 -0.2516  0.5641  0.0627
 1536SOL    HW2 4750   3.041   0.994   0.720 -0.2986 -1.8776  0.6776
 1537SOL     OW 4751   2.125   2.075   3.562 -0.4236 -0.3860  0.4087
 1537SOL    HW1 4752   2.175   2.120   3.494 -1.9511 -1.0314 -1.2201
 1537SOL    HW2 4753   2.188   2.016   3.603  0.7335  0.6374  0.1513
 1538SOL     OW 4754   2.291   2.219   1.869 -0.5880 -0.2407 -0.5045
 1538SOL    HW1 4755   2.292   2.167   1.949  0.1500 -1.1247 -1.0489
 1538SOL    HW2 4756   2.215   2.186   1.820 -1.4945  0.8306  0.1365
 1539SOL     OW 4757   2.875   2.403   0.156  0.1821  0.0460  0.0098
 1539SOL    HW1 4758   2.804   2.404   0.220  0.2749  0.0619  0.1128
 1539SOL    HW2 4759   2.860   2.480   0.102  0.3178  0.2398  0.2471
 1540SOL     OW 4760   2.073   0.010   1.158  0.3272 -0.2550 -0.5819
 1540SOL    HW1 4761   2.105   0.094   1.189  3.1882 -1.5681  0.3674
 1540SOL    HW2 4762   2.017  -0.023   1.229  0.0879  0.3423 -0.4917
 1541SOL     OW 4763   1.652   1.551   2.203  0.8777  0.2708 -0.4669
 1541SOL    HW1 4764   1.657   1.565   2.297 -0.8194 -0.8328 -0.1588
 1541SOL    HW2 4765   1.714   1.480   2.186  3.1518  2.2081 -0.6610
 1542SOL     OW 4766   1.153   2.696   0.693  0.1475 -0.4226  0.1260
 1542SOL    HW1 4767   1.176   2.762   0.759 -3.2238 -0.0520  1.1330
 1542SOL    HW2 4768   1.138   2.616   0.744 -0.8051 -0.5797 -0.3787
 1543SOL     OW 4769   2.849   2.088   2.529 -0.0391 -0.1632 -0.2509
 1543SOL    HW1 4770   2.940   2.088   2.501 -0.2708  0.7757 -1.0577
 1543SOL    HW2 4771   2.799   2.110   2.450 -1.0102 -1.1345  0.0570
 1544SOL     OW 4772   0.344   0.383   3.005 -0.1284  0.8260 -0.2762
 1544SOL    HW1 4773   0.261   0.430   2.994 -0.3596  0.1907 -1.5008
 1544SOL    HW2 4774   0.405   0.430   2.948  0.0791  0.6785 -0.1741
 1545SOL     OW 4775   1.691   2.637   0.607 -0.2236 -0.2182 -0.1167
 1545SOL    HW1 4776   1.731   2.721   0.588  1.5773 -1.2467 -1.1502
 1545SOL    HW2 4777   1.685   2.593   0.522 -2.2529 -0.7118  0.2192
 1546SOL     OW 4778   2.744   1.989   2.180  0.3974 -0.2525 -0.6987
 1546SOL    HW1 4779   2.681   1.923   2.152  2.3488 -1.8761 -1.4622
 1546SOL    HW2 4780   2.702   2.032   2.255 -0.7256 -2.7573  0.2111
 1547SOL     OW 4781   2.686   0.654   1.255 -0.2799 -0.5247  0.0525
 1547SOL    HW1 4782   2.720   0.742   1.239 -1.6406  0.2296  1.0602
 1547SOL    HW2 4783   2.644   0.629   1.173 -1.5231  0.5822  0.3154
 1548SOL     OW 4784   3.630   2.852   0.583 -0.3021  0.3691 -0.3656
 1548SOL    HW1 4785   3.723   2.835   0.602 -0.4324 -0.1610 -0.1727
 1548SOL    HW2 4786   3.599   2.770   0.544 -1.4587 -0.6452  2.4017
 1549SOL     OW 4787   1.124   3.678   3.676  0.3263  0.0623  0.2869
 1549SOL    HW1 4788   1.141   3.628   3.756  1.8093 -1.8483 -1.1176
 1549SOL    HW2 4789   1.205   3.725   3.659 -0.2633  1.1194  0.3046
 1550SOL     OW 4790   1.489   0.719   0.273  0.5482  0.8046 -0.3577
 1550SOL    HW1 4791   1.530   0.775   0.207  1.0213  1.4649  0.4714
 1550SOL    HW2 4792   1.526   0.749   0.356  1.7639 -1.5877  0.0308
 1551SOL     OW 4793   3.291   1.579   1.773  0.2367 -0.5894 -0.2505
 1551SOL    HW1 4794   3.307   1.555   1.864  1.4574 -1.0095 -0.5605
 1551SOL    HW2 4795   3.370   1.552   1.726 -1.1065 -2.1086 -1.7689
 1552SOL     OW 4796   0.194   2.772   0.640  0.1149 -0.0572 -0.1794
 1552SOL    HW1 4797   0.253   2.788   0.714  1.9253  2.6789 -2.0178
 1552SOL    HW2 4798   0.216   2.683   0.611  0.7424 -0.4366  1.3665
 1553SOL     OW 4799   3.167   2.619   0.510  0.3512 -0.6284  0.1469
 1553SOL    HW1 4800   3.238   2.661   0.560 -2.2536  2.7009  1.4260
 1553SOL    HW2 4801   3.104   2.591   0.576 -0.8938 -0.7827 -1.0662
 1554SOL     OW 4802   3.316   2.189   0.952  0.7217  0.8901  0.5894
 1554SOL    HW1 4803   3.320   2.216   0.861  1.3419 -0.4605  0.1864
 1554SOL    HW2 4804   3.224   2.201   0.977  0.3337  0.3298 -0.5182
 1555SOL     OW 4805   2.945   2.956   2.109  0.1983  0.7670 -0.5170
 1555SOL    HW1 4806   2.880   3.019   2.078  0.6337 -0.2002 -3.7151
 1555SOL    HW2 4807   3.019   2.967   2.050  0.9775 -1.5387 -0.0651
 1556SOL     OW 4808   3.026   1.043   3.350  0.2243  0.3481 -0.4051
 1556SOL    HW1 4809   3.043   0.994   3.270  0.3869 -0.7584  0.2936
 1556SOL    HW2 4810   3.111   1.052   3.392  0.1119  0.7657 -0.2588
 1557SOL     OW 4811   1.427   0.977   1.080 -0.5824 -0.8200  0.1114
 1557SOL    HW1 4812   1.481   0.972   1.001 -0.8937  0.5478 -0.2169
 1557SOL    HW2 4813   1.435   0.891   1.120 -0.3050 -1.4909 -1.3335
 1558SOL     OW 4814   2.640   2.116   0.540 -0.5835 -0.0032  0.1825
 1558SOL    HW1 4815   2.590   2.059   0.481 -0.3217 -0.3271  0.2661
 1558SOL    HW2 4816   2.608   2.094   0.627  0.2521 -0.7930  0.3093
 1559SOL     OW 4817   2.446   2.803   2.320 -0.3152 -0.1888  0.1709
 1559SOL    HW1 4818   2.437   2.752   2.239 -1.6956  0.1723  0.0602
 1559SOL    HW2 4819   2.374   2.866   2.316  0.7653  1.1345  0.7723
 1560SOL     OW 4820   2.449   1.165   0.447  0.0728 -0.0426 -0.3746
 1560SOL    HW1 4821   2.506   1.182   0.522 -1.1107 -0.7571  0.7271
 1560SOL    HW2 4822   2.492   1.093   0.401 -0.3559 -1.2169  0.9653
 1561SOL     OW 4823   2.925   1.501   0.145 -0.5524 -0.2540  0.5617
 1561SOL    HW1 4824   2.922   1.482   0.051 -0.7949  1.7089  0.1265
 1561SOL    HW2 4825   3.018   1.495   0.167 -0.5401 -1.1342  0.2983
 1562SOL     OW 4826   3.221   3.601   0.878  1.2015 -0.0148  0.2965
 1562SOL    HW1 4827   3.199   3.561   0.963 -0.1404  0.6886  0.3110
 1562SOL    HW2 4828   3.137   3.629   0.843  1.7910  0.0328 -1.1178
 1563SOL     OW 4829   2.301   0.888   3.138  0.3814 -0.0391  0.4048
 1563SOL    HW1 4830   2.313   0.946   3.213  1.1655  0.8472 -0.3923
 1563SOL    HW2 4831   2.309   0.945   3.062 -3.5816 -0.2393 -0.4057
 1564SOL     OW 4832   0.534   1.982   3.250  0.6945 -0.2507  0.8492
 1564SOL    HW1 4833   0.499   1.932   3.176  0.5568 -0.9764  1.3979
 1564SOL    HW2 4834   0.622   2.007   3.222  0.6322 -0.4892  0.4230
 1565SOL     OW 4835   3.499   2.722   2.852  0.0862  0.1195 -1.0936
 1565SOL    HW1 4836   3.525   2.687   2.937 -1.2128 -0.8544 -1.0560
 1565SOL    HW2 4837   3.518   2.815   2.857  1.3763 -0.1677 -0.2746
 1566SOL     OW 4838   0.496   0.943   2.359 -0.1072 -0.3834 -0.2329
 1566SOL    HW1 4839   0.520   1.032   2.332 -1.8373 -0.1923 -1.3061
 1566SOL    HW2 4840   0.536   0.887   2.293  0.0483 -0.3108 -0.2007
 1567SOL     OW 4841   2.143   2.123   0.208  0.9166  0.2226 -0.6609
 1567SOL    HW1 4842   2.192   2.137   0.289  2.9349 -2.1138 -1.3587
 1567SOL    HW2 4843   2.185   2.181   0.144  2.7398 -1.5603 -1.1837
 1568SOL     OW 4844   2.613   3.018   2.056  0.2341  0.8430 -0.3713
 1568SOL    HW1 4845   2.625   3.006   2.150 -0.0369 -0.1009 -0.4455
 1568SOL    HW2 4846   2.580   2.934   2.025 -2.9960  2.1277 -0.7909
 1569SOL     OW 4847   1.295   0.465   2.955  0.8384  0.4398 -0.0299
 1569SOL    HW1 4848   1.353   0.427   3.020  1.1877  0.6120 -0.2396
 1569SOL    HW2 4849   1.207   0.441   2.984  1.0564 -0.6455 -0.2258
 1570SOL     OW 4850   0.644   1.599   2.469 -0.8361  0.0525  0.4084
 1570SOL    HW1 4851   0.689   1.597   2.384  2.3562  0.1281  1.9770
 1570SOL    HW2 4852   0.625   1.692   2.483 -0.4530  0.1653  0.2059
 1571SOL     OW 4853   2.242   0.006   0.354 -0.5802 -0.0598 -0.2356
 1571SOL    HW1 4854   2.242  -0.038   0.438 -1.1118  1.0551  0.3686
 1571SOL    HW2 4855   2.226   0.098   0.375 -2.3119  0.0184 -1.6507
 1572SOL     OW 4856   1.839   2.853   0.591 -0.3071  0.3923 -0.1734
 1572SOL    HW1 4857   1.881   2.826   0.673 -0.0934  0.6011 -0.2141
 1572SOL    HW2 4858   1.901   2.914   0.551 -0.3860  0.2475 -0.5189
 1573SOL     OW 4859   2.724   2.708   1.061  0.0443  0.0219  0.0129
 1573SOL    HW1 4860   2.731   2.727   0.968  0.7268  0.7401  0.1970
 1573SOL    HW2 4861   2.676   2.783   1.097  3.8500  2.2747  0.9522
 1574SOL     OW 4862   2.983   2.643   3.349 -0.2810  0.3691  0.0732
 1574SOL    HW1 4863   2.927   2.707   3.393 -0.2382  0.9308 -0.6539
 1574SOL    HW2 4864   2.923   2.585   3.303 -0.2886  1.0314 -0.7881
 1575SOL     OW 4865   0.817   1.217   1.029 -0.1559  0.4889 -0.0870
 1575SOL    HW1 4866   0.820   1.285   1.096 -0.3772  0.0372  0.3912
 1575SOL    HW2 4867   0.894   1.234   0.974 -0.1831  1.0912  0.0529
 1576SOL     OW 4868   2.525   3.515   1.812 -0.1477  0.0384  0.3530
 1576SOL    HW1 4869   2.577   3.448   1.856 -0.4409  0.3862  1.2403
 1576SOL    HW2 4870   2.512   3.481   1.723  0.9655 -0.3819  0.3473
 1577SOL     OW 4871   0.259   3.066   2.881 -0.3587 -0.2845  0.4808
 1577SOL    HW1 4872   0.291   3.133   2.821  1.6367  0.2748  2.0418
 1577SOL    HW2 4873   0.296   2.984   2.847 -0.2837 -0.1508  0.2407
 1578SOL     OW 4874   1.728   2.672  -0.004 -0.6502 -0.2860  0.2149
 1578SOL    HW1 4875   1.803   2.685   0.053  0.6031 -0.7847 -1.2429
 1578SOL    HW2 4876   1.739   2.584  -0.040 -1.1626  0.1536 -1.0963
 1579SOL     OW 4877   2.622   2.481   2.985 -0.1480 -0.0060 -0.8497
 1579SOL    HW1 4878   2.574   2.495   3.067 -2.8888 -0.5728 -2.2297
 1579SOL    HW2 4879   2.684   2.410   3.006 -1.5850 -0.9455  0.4646
 1580SOL     OW 4880   1.404   2.949   0.630 -0.5430 -0.4451  0.3049
 1580SOL    HW1 4881   1.393   2.926   0.722  0.8807 -0.5283  0.4804
 1580SOL    HW2 4882   1.494   2.981   0.624 -0.6328 -0.3863 -1.0506
 1581SOL     OW 4883   2.613   3.162   1.285  0.2662  0.7390  0.0583
 1581SOL    HW1 4884   2.681   3.222   1.314 -0.7468  0.4826  3.3436
 1581SOL    HW2 4885   2.535   3.216   1.275  0.1106  0.4685 -0.2236
 1582SOL     OW 4886   2.835   3.512   3.376 -0.1624 -0.5713 -0.0112
 1582SOL    HW1 4887   2.792   3.591   3.343 -1.3206 -1.7314 -1.4402
 1582SOL    HW2 4888   2.919   3.510   3.329  0.3540  0.3253  0.8268
 1583SOL     OW 4889   2.279   1.090   2.077 -0.2311 -0.2940  0.3124
 1583SOL    HW1 4890   2.366   1.118   2.049 -0.3118  1.3132  1.5320
 1583SOL    HW2 4891   2.295   1.012   2.131  0.1076 -1.9952 -2.0878
 1584SOL     OW 4892   0.979   2.373   3.588 -0.4398 -0.0704 -0.2622
 1584SOL    HW1 4893   1.056   2.400   3.537 -2.0337 -0.7488 -3.2774
 1584SOL    HW2 4894   0.906   2.418   3.545 -1.9821 -1.2410  1.0492
 1585SOL     OW 4895   2.580   2.619   1.502 -0.6319  0.5031 -0.2464
 1585SOL    HW1 4896   2.600   2.548   1.440  0.8839 -0.3139  1.0732
 1585SOL    HW2 4897   2.666   2.655   1.524 -1.2460  1.5509  0.4908
 1586SOL     OW 4898   0.960   0.367   3.437 -0.1323 -0.3878 -0.0775
 1586SOL    HW1 4899   0.891   0.433   3.428 -0.9570 -1.3138 -0.8056
 1586SOL    HW2 4900   0.916   0.284   3.418  1.2692 -0.9592 -0.9508
 1587SOL     OW 4901   3.669   3.188   0.088 -0.0451  0.4017  0.0708
 1587SOL    HW1 4902   3.676   3.274   0.048  0.5240 -0.4279 -1.7189
 1587SOL    HW2 4903   3.747   3.141   0.058  0.2968 -0.3638  2.0059
 1588SOL     OW 4904   0.434   2.757   3.441 -0.1549 -0.9727 -0.8534
 1588SOL    HW1 4905   0.494   2.749   3.367  0.8439 -2.3032  0.0438
 1588SOL    HW2 4906   0.448   2.677   3.492  1.0208  0.9152  2.0722
 1589SOL     OW 4907   2.711   0.464   1.010  0.6685 -0.2977 -0.3182
 1589SOL    HW1 4908   2.651   0.390   1.022 -0.2325  0.5971  0.9499
 1589SOL    HW2 4909   2.795   0.432   1.045 -0.1087 -0.2252  1.7939
 1590SOL     OW 4910   1.450   2.408   0.387  0.1420 -0.0770 -0.0420
 1590SOL    HW1 4911   1.451   2.424   0.481 -0.7735 -1.3878  0.2149
 1590SOL    HW2 4912   1.523   2.461   0.353  0.3669  0.5667  1.3565
 1591SOL     OW 4913   1.083   1.150   1.479  0.0596  0.4494  0.0068
 1591SOL    HW1 4914   1.055   1.063   1.451  0.2452  0.5514 -0.4982
 1591SOL    HW2 4915   1.009   1.206   1.459 -1.5407 -0.1319  3.5777
 1592SOL     OW 4916   3.227   2.440   2.911 -0.1947  0.6704  0.0928
 1592SOL    HW1 4917   3.240   2.346   2.896  0.2787  0.9228 -1.2157
 1592SOL    HW2 4918   3.133   2.453   2.908 -0.2759  0.1911  0.5645
 1593SOL     OW 4919   0.824   3.537   2.848  0.0451  0.1616  0.0029
 1593SOL    HW1 4920   0.820   3.499   2.936  1.9985 -0.1806 -0.0249
 1593SOL    HW2 4921   0.916   3.556   2.833 -0.3638  1.0992 -1.6238
 1594SOL     OW 4922   0.064   3.591   2.970 -0.3289 -0.0757 -0.2245
 1594SOL    HW1 4923   0.106   3.539   3.038 -0.8227 -1.2284 -0.7568
 1594SOL    HW2 4924   0.063   3.680   3.003 -1.0305 -0.6876  1.5115
 1595SOL     OW 4925   2.798   0.742   2.281  0.7025  0.1399  0.4350
 1595SOL    HW1 4926   2.806   0.733   2.376 -3.9277  1.2849  1.1820
 1595SOL    HW2 4927   2.718   0.694   2.259  0.0594  2.2298 -2.3939
 1596SOL     OW 4928   1.304   1.126   2.609  0.3381  0.8009 -0.1225
 1596SOL    HW1 4929   1.354   1.185   2.665 -1.3638  3.4335 -1.1185
 1596SOL    HW2 4930   1.369   1.080   2.557  1.7770  1.7624  0.7736
 1597SOL     OW 4931   3.147   1.562   3.224  0.3016  0.1523  0.0759
 1597SOL    HW1 4932   3.221   1.585   3.168  1.3499 -0.2957  1.2272
 1597SOL    HW2 4933   3.137   1.637   3.283 -0.1615  0.2107 -0.0731
 1598SOL     OW 4934   3.298   3.186   2.980 -0.2975 -0.0508 -0.3829
 1598SOL    HW1 4935   3.359   3.237   2.928 -0.1358 -1.5905 -1.7947
 1598SOL    HW2 4936   3.242   3.141   2.916 -1.2171 -0.6840  0.8093
 1599SOL     OW 4937   1.124   0.338   1.513  0.7619 -0.0274 -0.1064
 1599SOL    HW1 4938   1.145   0.275   1.444  1.8845 -0.4826  0.6287
 1599SOL    HW2 4939   1.155   0.297   1.593 -2.1415 -0.3134  0.9738
 1600SOL     OW 4940   1.078   3.224   0.231  0.5023 -0.0440 -0.3827
 1600SOL    HW1 4941   0.997   3.176   0.213  1.0538 -0.4886 -1.8426
 1600SOL    HW2 4942   1.051   3.315   0.240 -0.2886 -0.3325  0.2998
 1601SOL     OW 4943   1.451   1.528   1.965 -0.0837 -0.3277 -0.2062
 1601SOL    HW1 4944   1.527   1.517   2.022  1.6350  0.5210 -2.1872
 1601SOL    HW2 4945   1.465   1.465   1.894  0.4649  1.9026 -2.2034
 1602SOL     OW 4946   1.064   1.363   0.940 -0.0900 -0.4720  0.0166
 1602SOL    HW1 4947   1.137   1.311   0.973 -0.3784  0.3398  2.0490
 1602SOL    HW2 4948   1.081   1.371   0.846  1.6289 -1.5464  0.2024
 1603SOL     OW 4949   3.140   1.633   2.599  0.0420 -0.4654 -0.0914
 1603SOL    HW1 4950   3.162   1.679   2.518 -1.3025 -1.0854 -0.8376
 1603SOL    HW2 4951   3.048   1.610   2.590 -1.2740  2.4866  3.0891
 1604SOL     OW 4952   3.547   0.931   0.877 -0.2353 -0.2101  0.2902
 1604SOL    HW1 4953   3.569   0.917   0.785  0.0709  2.0534 -0.0314
 1604SOL    HW2 4954   3.620   0.983   0.911 -0.4777 -0.7794  1.7591
 1605SOL     OW 4955   3.423   0.815   1.838  0.2209  0.5956 -0.3545
 1605SOL    HW1 4956   3.462   0.730   1.821 -0.3237  0.7257 -2.5040
 1605SOL    HW2 4957   3.465   0.874   1.775 -0.1844  1.6973  0.3665
 1606SOL     OW 4958   3.392   1.535   2.650 -0.8972 -0.3868  0.6147
 1606SOL    HW1 4959   3.431   1.622   2.650 -0.9752 -0.3514  0.5351
 1606SOL    HW2 4960   3.299   1.550   2.633 -1.0155 -0.4437  1.1926
 1607SOL     OW 4961   3.176   2.706   2.219  0.5540 -0.2809 -0.8166
 1607SOL    HW1 4962   3.126   2.638   2.264  1.8879 -0.7813 -0.0018
 1607SOL    HW2 4963   3.193   2.772   2.286 -0.7185  0.8738 -1.6059
 1608SOL     OW 4964   3.292   2.913   2.690  0.0102 -0.0698 -0.0272
 1608SOL    HW1 4965   3.365   2.974   2.674  0.2646 -0.8529 -2.2298
 1608SOL    HW2 4966   3.319   2.832   2.646 -2.1163 -0.4193 -0.7961
 1609SOL     OW 4967   2.385   3.214   1.910 -0.0442 -0.5874  0.1169
 1609SOL    HW1 4968   2.480   3.219   1.917 -0.1212 -1.4644  5.0147
 1609SOL    HW2 4969   2.363   3.124   1.931 -2.0176 -0.2461 -0.2520
 1610SOL     OW 4970   3.201   2.480   0.899 -0.6755  0.4066  0.0747
 1610SOL    HW1 4971   3.182   2.413   0.833  0.5529  0.7680 -0.6753
 1610SOL    HW2 4972   3.127   2.475   0.959 -0.4017 -1.9753  0.3415
 1611SOL     OW 4973   1.490   0.608   1.993  0.2653 -0.3795 -0.5287
 1611SOL    HW1 4974   1.568   0.617   2.049  0.1502 -2.2956  0.0217
 1611SOL    HW2 4975   1.521   0.558   1.917 -0.2707 -0.5360 -0.6498
 1612SOL     OW 4976   2.260   3.021   2.795  0.1742 -0.3047  0.2028
 1612SOL    HW1 4977   2.239   2.927   2.799  1.5375 -0.5987  0.8557
 1612SOL    HW2 4978   2.353   3.024   2.771  0.0208  0.9040 -0.3221
 1613SOL     OW 4979   0.863   3.290   2.249  0.3112 -0.5238  0.0776
 1613SOL    HW1 4980   0.787   3.297   2.191 -0.8286 -2.4848  1.2112
 1613SOL    HW2 4981   0.856   3.367   2.306 -0.7635 -0.6000  0.0801
 1614SOL     OW 4982   1.608   0.819   0.472  0.2489 -0.2875  0.1539
 1614SOL    HW1 4983   1.628   0.913   0.471  0.2673 -0.2649  1.4268
 1614SOL    HW2 4984   1.665   0.783   0.540 -0.4824 -1.0612  0.3699
 1615SOL     OW 4985   0.902   2.226   2.849  0.3624  0.2931 -0.5865
 1615SOL    HW1 4986   0.925   2.157   2.911 -2.6676  0.1161  0.4995
 1615SOL    HW2 4987   0.845   2.285   2.898 -1.5454  0.5768 -2.9511
 1616SOL     OW 4988   0.873   3.589   3.493  0.2107 -0.8444  0.1858
 1616SOL    HW1 4989   0.779   3.603   3.484 -0.0838 -0.7390  2.6341
 1616SOL    HW2 4990   0.911   3.676   3.492 -0.0374 -0.6879  1.5099
 1617SOL     OW 4991   2.881   1.361   2.657  0.6506  0.6250 -0.3242
 1617SOL    HW1 4992   2.800   1.394   2.619 -0.1105 -0.1484  0.5833
 1617SOL    HW2 4993   2.900   1.282   2.608 -0.1272 -0.1658  0.6082
 1618SOL     OW 4994   3.472   1.463   3.481  0.0234 -0.1688 -0.6374
 1618SOL    HW1 4995   3.497   1.394   3.542 -1.3581 -0.5529 -0.4679
 1618SOL    HW2 4996   3.528   1.537   3.503 -0.9106 -0.0640  1.5965
 1619SOL     OW 4997   1.222   3.732   2.599  0.3214 -0.0064  0.1596
 1619SOL    HW1 4998   1.214   3.637   2.596  1.1972 -0.0731 -2.5007
 1619SOL    HW2 4999   1.265   3.750   2.682 -0.3128 -1.8752  0.9347
 1620SOL     OW 5000   3.108   0.137   3.309  0.6024 -0.6425  0.0502
 1620SOL    HW1 5001   3.164   0.205   3.272  0.8120 -2.2191 -2.8119
 1620SOL    HW2 5002   3.130   0.058   3.260 -4.1331 -1.4028 -1.3800
 1621SOL     OW 5003   0.235   3.378   0.187 -0.3462 -0.2621 -0.8373
 1621SOL    HW1 5004   0.213   3.384   0.280  2.0912 -0.3662 -0.1831
 1621SOL    HW2 5005   0.221   3.466   0.152  1.0678  0.4241  0.2428
 1622SOL     OW 5006   1.196   1.155   2.365 -0.3342 -0.7096  0.1620
 1622SOL    HW1 5007   1.128   1.149   2.432  0.2615 -1.1363  0.7375
 1622SOL    HW2 5008   1.276   1.125   2.408  0.6245  1.4184  0.0191
 1623SOL     OW 5009   1.806   2.991   0.899  0.1689 -0.1925  0.2316
 1623SOL    HW1 5010   1.804   2.977   0.993 -0.3892 -1.6952  0.0223
 1623SOL    HW2 5011   1.800   2.903   0.861  1.5409  0.2732 -1.2059
 1624SOL     OW 5012   2.298   2.851   3.023 -0.5983 -0.0119  0.2537
 1624SOL    HW1 5013   2.368   2.896   3.070  0.1129 -0.5627 -0.2611
 1624SOL    HW2 5014   2.222   2.908   3.033  0.1956  1.1466 -0.1029
 1625SOL     OW 5015   1.629   3.198   3.015 -0.2045 -0.0340  0.0155
 1625SOL    HW1 5016   1.576   3.206   2.936 -0.1937  0.4374  0.0545
 1625SOL    HW2 5017   1.655   3.288   3.036 -2.7266  0.2769  2.3134
 1626SOL     OW 5018   1.971   3.524   3.470  0.1780 -0.1351  0.0017
 1626SOL    HW1 5019   1.964   3.433   3.443 -0.1686 -0.8790  2.3603
 1626SOL    HW2 5020   2.065   3.537   3.487  0.3093  0.1444 -0.9009
 1627SOL     OW 5021   2.807   0.530   0.621  0.1018  0.1198  0.0544
 1627SOL    HW1 5022   2.899   0.507   0.609  0.5978  2.2495 -0.7262
 1627SOL    HW2 5023   2.768   0.520   0.534 -0.2421 -0.0805  0.2262
 1628SOL     OW 5024   1.965   3.397   3.101 -0.5063 -0.4287  0.5075
 1628SOL    HW1 5025   1.908   3.402   3.024  0.4053 -1.6925 -0.2841
 1628SOL    HW2 5026   1.937   3.470   3.156 -0.3278  1.3107 -1.6007
 1629SOL     OW 5027   1.238   0.300   2.727 -0.2439  0.2393 -0.0304
 1629SOL    HW1 5028   1.228   0.309   2.632  1.9047  1.0507 -0.2260
 1629SOL    HW2 5029   1.259   0.388   2.757 -0.7054 -0.0528  1.2046
 1630SOL     OW 5030   2.254   1.452   0.299 -0.0072  0.0649  0.1178
 1630SOL    HW1 5031   2.329   1.404   0.266  0.1235  1.3533 -1.6141
 1630SOL    HW2 5032   2.287   1.541   0.315 -0.9416  0.4132  0.2066
 1631SOL     OW 5033   3.424   3.660   2.030  0.0235 -0.2651  0.3568
 1631SOL    HW1 5034   3.492   3.689   2.091  0.5486 -0.9023  0.0896
 1631SOL    HW2 5035   3.391   3.740   1.990  1.9594 -0.0414 -0.9328
 1632SOL     OW 5036   0.502   0.159   3.421 -0.2207  0.0487 -0.7263
 1632SOL    HW1 5037   0.417   0.203   3.431 -1.2100 -1.7445 -0.8262
 1632SOL    HW2 5038   0.480   0.067   3.409  1.7715 -0.4914 -0.5815
 1633SOL     OW 5039   2.063   3.003   0.580 -0.2230  0.1138  0.0542
 1633SOL    HW1 5040   2.018   3.081   0.613 -0.9563 -0.3558  0.1917
 1633SOL    HW2 5041   2.153   3.012   0.612  0.2137  1.8137 -1.4762
 1634SOL     OW 5042   3.244   1.383   3.401  0.0396 -0.2373 -0.4966
 1634SOL    HW1 5043   3.329   1.420   3.424  0.0768 -1.4846  1.6189
 1634SOL    HW2 5044   3.206   1.448   3.341  1.4200  1.6245  0.5108
 1635SOL     OW 5045   3.366   2.329   0.068  0.2413 -0.0103  0.0973
 1635SOL    HW1 5046   3.379   2.260   0.003  0.3712  0.3515 -0.2669
 1635SOL    HW2 5047   3.271   2.343   0.068  0.0879 -0.9735  1.0012
 1636SOL     OW 5048   1.092   1.170   0.479  0.4655  0.2158 -1.0064
 1636SOL    HW1 5049   1.025   1.127   0.532  1.3645  0.3398  0.2867
 1636SOL    HW2 5050   1.158   1.102   0.465 -0.1198 -0.0590 -2.7060
 1637SOL     OW 5051   3.286   2.630   2.660 -0.2862 -0.0023  0.2355
 1637SOL    HW1 5052   3.232   2.551   2.660 -0.4929  0.1294  0.8874
 1637SOL    HW2 5053   3.309   2.643   2.752 -0.2477  0.6868  0.1361
 1638SOL     OW 5054   3.447   1.912   1.744  0.4179  0.1126  0.2887
 1638SOL    HW1 5055   3.520   1.851   1.735 -0.0024 -0.1834 -1.6842
 1638SOL    HW2 5056   3.486   1.991   1.781  1.6363 -0.2298 -0.2003
 1639SOL     OW 5057   3.535   1.298   2.588  0.8735 -0.1887  0.7633
 1639SOL    HW1 5058   3.511   1.245   2.512  0.8805  0.7330  0.1001
 1639SOL    HW2 5059   3.456   1.350   2.605  1.6581  1.3531 -0.1317
 1640SOL     OW 5060   3.167   1.252   1.903  0.0812 -0.0704 -0.1381
 1640SOL    HW1 5061   3.233   1.309   1.942  0.3668  0.6941 -1.6773
 1640SOL    HW2 5062   3.200   1.163   1.919  0.9965  0.2705 -0.0713
 1641SOL     OW 5063   1.920   2.459   3.448  0.4843  0.3998  0.6781
 1641SOL    HW1 5064   1.862   2.412   3.388  0.6738 -0.5853  1.2377
 1641SOL    HW2 5065   1.982   2.505   3.391  0.2945 -0.0326  0.1143
 1642SOL     OW 5066   2.275   1.078   1.663 -0.6684 -0.6676  0.0818
 1642SOL    HW1 5067   2.226   1.150   1.623  0.9800  0.5249  0.0965
 1642SOL    HW2 5068   2.209   1.011   1.682 -2.3989  1.1553  0.8113
 1643SOL     OW 5069   2.919   0.382   2.683  0.2732 -0.4564 -0.3299
 1643SOL    HW1 5070   2.949   0.389   2.592  0.6723  1.1640 -0.1036
 1643SOL    HW2 5071   2.993   0.413   2.735 -0.2880 -0.4722  0.5028
 1644SOL     OW 5072   3.656   0.618   1.910 -0.3101  0.0656  0.0537
 1644SOL    HW1 5073   3.727   0.656   1.858  0.7800 -0.0928  1.3693
 1644SOL    HW2 5074   3.678   0.525   1.916 -0.4772  0.0638  0.6921
 1645SOL     OW 5075   1.292   0.267   1.760 -0.3637  0.7737  0.7413
 1645SOL    HW1 5076   1.386   0.246   1.766 -0.4078  0.3081 -0.0521
 1645SOL    HW2 5077   1.249   0.182   1.750 -0.9813  0.8954  2.1575
 1646SOL     OW 5078   1.404   2.761   1.937 -0.3365 -0.7507  0.0817
 1646SOL    HW1 5079   1.462   2.829   1.971 -1.0320  0.1517 -0.4965
 1646SOL    HW2 5080   1.321   2.774   1.983 -1.2745  0.4530 -1.8378
 1647SOL     OW 5081   1.918   3.409   1.534  0.5727  0.3005  0.1407
 1647SOL    HW1 5082   1.892   3.318   1.516  0.8062  0.1701  0.4489
 1647SOL    HW2 5083   1.936   3.410   1.628  2.7866  0.1150 -0.2298
 1648SOL     OW 5084   3.677   2.124   2.410 -0.0774  0.4647 -0.7378
 1648SOL    HW1 5085   3.672   2.103   2.317 -3.4784  0.3666 -0.6503
 1648SOL    HW2 5086   3.666   2.219   2.414 -1.2788  0.3324 -0.4313
 1649SOL     OW 5087   1.809   1.171   0.106 -0.4763 -0.3751  0.0273
 1649SOL    HW1 5088   1.751   1.241   0.138 -0.5846  0.0868 -1.1295
 1649SOL    HW2 5089   1.852   1.138   0.185  0.7545  2.0447  0.4502
 1650SOL     OW 5090   3.502   1.685   0.609  0.0619 -0.2213 -0.3425
 1650SOL    HW1 5091   3.547   1.743   0.548 -1.0306  0.0703 -0.8947
 1650SOL    HW2 5092   3.492   1.737   0.689  1.3236 -0.5376  0.0314
 1651SOL     OW 5093   2.453   1.345   0.715  0.1772  0.2160  0.1305
 1651SOL    HW1 5094   2.412   1.300   0.789  0.9130  0.3273  0.6254
 1651SOL    HW2 5095   2.382   1.391   0.671 -0.4370 -0.7081  0.1475
 1652SOL     OW 5096   0.147   0.723   1.709  0.1056 -0.0269  0.2835
 1652SOL    HW1 5097   0.228   0.730   1.659 -0.9863 -0.2746 -1.6078
 1652SOL    HW2 5098   0.121   0.631   1.700 -0.1015 -0.0883  1.3639
 1653SOL     OW 5099   1.640   2.760   2.943 -0.7779  0.1307  0.5542
 1653SOL    HW1 5100   1.642   2.725   2.854 -2.2186 -1.3592  1.0347
 1653SOL    HW2 5101   1.721   2.810   2.951 -0.5728  0.2426 -1.5513
 1654SOL     OW 5102   2.892   0.251   2.293 -0.3929 -0.1492 -0.0720
 1654SOL    HW1 5103   2.824   0.315   2.273 -1.3443 -1.9140 -3.1759
 1654SOL    HW2 5104   2.973   0.302   2.294 -1.3631  1.4767  0.3532
 1655SOL     OW 5105   0.298   1.031   1.834  0.2710  0.0482  0.3895
 1655SOL    HW1 5106   0.222   0.973   1.840  0.1160 -0.0713 -1.9476
 1655SOL    HW2 5107   0.319   1.034   1.741  2.4219  1.0302  0.8436
 1656SOL     OW 5108   0.464   2.178   0.466  0.7150  0.3250 -0.0754
 1656SOL    HW1 5109   0.448   2.267   0.436  0.2770 -0.2144 -1.5345
 1656SOL    HW2 5110   0.536   2.186   0.529  1.3481  1.5780 -0.9267
 1657SOL     OW 5111   1.729   1.666   1.964 -0.2742  0.4155  0.2517
 1657SOL    HW1 5112   1.724   1.611   2.042  1.1138 -0.4767 -0.2379
 1657SOL    HW2 5113   1.689   1.613   1.895  0.9714  0.0232 -0.2006
 1658SOL     OW 5114   1.444   2.381   0.115 -0.2802 -0.0062 -0.4189
 1658SOL    HW1 5115   1.398   2.460   0.088  0.9831  0.6751 -0.7004
 1658SOL    HW2 5116   1.410   2.360   0.201  0.3588  1.6861  0.2804
 1659SOL     OW 5117   1.541   0.972   2.047  0.5685  0.2860  0.2587
 1659SOL    HW1 5118   1.573   1.062   2.039 -0.5045  0.5484 -1.7135
 1659SOL    HW2 5119   1.453   0.981   2.084 -0.0332  0.2091 -1.0675
 1660SOL     OW 5120   0.259   1.379   1.339 -0.4886  0.1604  0.0888
 1660SOL    HW1 5121   0.195   1.450   1.337 -0.6080  0.2039  2.6094
 1660SOL    HW2 5122   0.343   1.422   1.319 -0.8014  0.6559 -0.1912
 1661SOL     OW 5123   1.456   0.980   2.377  0.3924 -0.0866 -0.0886
 1661SOL    HW1 5124   1.512   1.011   2.306  0.4586  0.4192  0.1799
 1661SOL    HW2 5125   1.514   0.927   2.432  0.1460 -1.1770 -0.8542
 1662SOL     OW 5126   3.452   1.021   2.239  0.2058  0.1465  0.6842
 1662SOL    HW1 5127   3.538   0.986   2.258 -0.4083 -1.7563  0.1496
 1662SOL    HW2 5128   3.408   1.024   2.324  1.1983  2.4507  1.1904
 1663SOL     OW 5129   3.394   2.925   3.581 -0.3776  0.3240  0.4563
 1663SOL    HW1 5130   3.480   2.916   3.620 -0.6657 -1.5044  0.7615
 1663SOL    HW2 5131   3.407   2.908   3.488 -0.1727  1.6546  0.2284
 1664SOL     OW 5132   0.021   2.390   1.707  0.0380 -0.1115 -0.3441
 1664SOL    HW1 5133   0.026   2.307   1.756 -2.6106 -1.2365 -1.7684
 1664SOL    HW2 5134   0.107   2.431   1.721  0.8817 -2.3233  1.7197
 1665SOL     OW 5135   1.685   2.452   3.288  0.0503  0.4865 -0.0221
 1665SOL    HW1 5136   1.664   2.447   3.194 -0.1992  0.3436  0.0419
 1665SOL    HW2 5137   1.721   2.540   3.300 -0.7142  0.8082 -0.0867
 1666SOL     OW 5138   0.478   2.415   3.411  0.5315  0.4196  0.1030
 1666SOL    HW1 5139   0.404   2.431   3.470  1.5074 -1.4735  1.9622
 1666SOL    HW2 5140   0.439   2.367   3.337 -0.3769  0.9936  0.1910
 1667SOL     OW 5141   1.685   2.375   3.716  0.0589 -0.3222  0.3229
 1667SOL    HW1 5142   1.604   2.344   3.756  0.0502 -1.1518 -0.2966
 1667SOL    HW2 5143   1.667   2.373   3.622  0.3653  0.7605  0.2252
 1668SOL     OW 5144   3.681   1.232   2.332 -0.1524 -0.0298 -0.2255
 1668SOL    HW1 5145   3.764   1.185   2.333  0.0291  0.1834  3.1843
 1668SOL    HW2 5146   3.653   1.228   2.240  2.8468 -1.3845 -1.1965
 1669SOL     OW 5147   3.011   0.009   2.292  0.2401  0.0051 -0.4396
 1669SOL    HW1 5148   2.967  -0.065   2.251  0.4670 -0.8620  0.8360
 1669SOL    HW2 5149   2.953   0.083   2.275 -0.5748 -0.6857 -0.7377
 1670SOL     OW 5150   0.934   0.140   2.356 -0.4643  0.3936  0.4320
 1670SOL    HW1 5151   0.863   0.200   2.331  0.8755  2.0790  0.4782
 1670SOL    HW2 5152   0.892   0.076   2.413 -2.2390  0.4201 -0.7446
 1671SOL     OW 5153   1.471   3.532   2.777  0.3391 -0.0701 -0.3065
 1671SOL    HW1 5154   1.395   3.557   2.830  2.6284  0.6977  2.9757
 1671SOL    HW2 5155   1.490   3.610   2.724  0.1992  0.6250  0.6307
 1672SOL     OW 5156   0.385   2.363   3.145 -0.4330  0.5862 -0.0898
 1672SOL    HW1 5157   0.429   2.416   3.078 -0.6601 -0.9033 -1.4966
 1672SOL    HW2 5158   0.293   2.386   3.137 -0.6481 -0.5752 -1.2966
 1673SOL     OW 5159   1.098   0.575   2.685  0.0045  0.4304  0.3363
 1673SOL    HW1 5160   1.078   0.502   2.625 -0.5886  0.5550  0.3709
 1673SOL    HW2 5161   1.018   0.627   2.684 -0.8659 -0.7172  2.9302
 1674SOL     OW 5162   0.735   1.633   1.732 -0.2006  0.3749 -0.0836
 1674SOL    HW1 5163   0.660   1.601   1.682 -1.3645 -0.8180  2.2109
 1674SOL    HW2 5164   0.700   1.645   1.821  2.2188  0.1756  0.9648
 1675SOL     OW 5165   1.740   1.175   1.110  0.0059  0.3887  0.4204
 1675SOL    HW1 5166   1.724   1.082   1.129  1.3351  0.5074  2.2864
 1675SOL    HW2 5167   1.778   1.174   1.022 -0.3730 -0.7903  0.2450
 1676SOL     OW 5168   0.309   3.518   2.497  0.0174 -0.0090  0.3548
 1676SOL    HW1 5169   0.218   3.542   2.513  0.7126  2.9397  0.3512
 1676SOL    HW2 5170   0.357   3.547   2.574  1.3070  0.9614 -0.7501
 1677SOL     OW 5171  -0.006   1.498   2.910 -0.2429 -0.1806  0.0836
 1677SOL    HW1 5172   0.074   1.471   2.954 -0.0468  0.6548  0.2638
 1677SOL    HW2 5173   0.016   1.498   2.817  0.6345  2.0297  0.2316
 1678SOL     OW 5174   0.831   2.337   1.391  0.2221  0.7141 -0.0260
 1678SOL    HW1 5175   0.872   2.281   1.326 -0.2560  0.9105 -0.5048
 1678SOL    HW2 5176   0.816   2.280   1.466 -3.6244 -0.8834 -1.7414
 1679SOL     OW 5177   3.619   0.554   1.281 -0.4623 -0.5648 -0.1105
 1679SOL    HW1 5178   3.554   0.622   1.267  0.3077  0.1091 -0.4540
 1679SOL    HW2 5179   3.567   0.473   1.289 -1.4124  0.1229  0.8691
 1680SOL     OW 5180   0.406   2.636   2.076  0.1711  0.5613 -0.3542
 1680SOL    HW1 5181   0.341   2.572   2.104 -0.0462 -0.3398 -2.6840
 1680SOL    HW2 5182   0.403   2.705   2.142 -1.0483 -0.8609  1.1358
 1681SOL     OW 5183   2.955   3.465   1.562  0.0645  0.1630  0.6645
 1681SOL    HW1 5184   3.047   3.484   1.546  0.0814 -0.4842 -0.0323
 1681SOL    HW2 5185   2.954   3.417   1.645  0.4756 -0.8333  0.1088
 1682SOL     OW 5186   3.379   0.532   2.728 -0.2268 -0.1480 -0.9084
 1682SOL    HW1 5187   3.374   0.555   2.636  1.2096  1.3744 -0.6606
 1682SOL    HW2 5188   3.457   0.578   2.760 -0.6847 -0.6395  1.0586
 1683SOL     OW 5189   2.913   1.108   0.793 -0.2969  0.7381 -0.6444
 1683SOL    HW1 5190   2.823   1.096   0.763 -0.1665 -0.4367 -0.6137
 1683SOL    HW2 5191   2.908   1.095   0.888  0.2434 -1.7950 -0.8831
 1684SOL     OW 5192   2.190   2.298   2.367  0.7765  0.1777  0.0023
 1684SOL    HW1 5193   2.120   2.285   2.431  2.9193 -2.6594  2.0582
 1684SOL    HW2 5194   2.247   2.364   2.407  1.5340 -0.7929  0.5924
 1685SOL     OW 5195   1.417   2.564   3.314 -0.0878 -0.2334 -0.1861
 1685SOL    HW1 5196   1.460   2.526   3.237  1.4727  0.0783  0.4792
 1685SOL    HW2 5197   1.443   2.656   3.313 -1.2558  0.1102 -0.0684
 1686SOL     OW 5198   0.576   3.505   1.095 -0.6201  0.1900  0.5753
 1686SOL    HW1 5199   0.660   3.545   1.072 -0.2438 -0.1481  1.3478
 1686SOL    HW2 5200   0.523   3.514   1.016 -0.3066  1.5846  0.5050
 1687SOL     OW 5201   2.090   2.211   3.308  0.9217 -0.4040  0.6508
 1687SOL    HW1 5202   2.076   2.296   3.266  1.1512  0.0082  1.3920
 1687SOL    HW2 5203   2.002   2.180   3.329  0.8384 -0.3326  0.4146
 1688SOL     OW 5204   1.353   3.553   3.036  0.5187  0.0919 -0.2505
 1688SOL    HW1 5205   1.440   3.539   3.075 -0.2792 -1.9997  0.9631
 1688SOL    HW2 5206   1.316   3.626   3.086  1.7715  1.4430 -1.2131
 1689SOL     OW 5207   2.649   3.289   0.504 -0.1002 -0.2496  0.2217
 1689SOL    HW1 5208   2.664   3.365   0.560 -0.1482  0.3103 -0.5027
 1689SOL    HW2 5209   2.703   3.305   0.427 -0.2493 -0.8673 -0.0212
 1690SOL     OW 5210   0.728   0.389   2.548 -0.0166 -0.5672 -0.4705
 1690SOL    HW1 5211   0.768   0.388   2.635 -1.1555  2.8081  0.2821
 1690SOL    HW2 5212   0.801   0.405   2.488  0.6292 -1.7486 -0.0229
 1691SOL     OW 5213   1.258   3.103   0.928  0.5897 -0.1596 -0.1619
 1691SOL    HW1 5214   1.312   3.167   0.881  0.0375 -0.0475 -0.6502
 1691SOL    HW2 5215   1.288   3.018   0.897  1.4049 -0.1609  0.5725
 1692SOL     OW 5216   1.243   1.040   3.331  0.1351  0.9543  0.2069
 1692SOL    HW1 5217   1.189   1.108   3.289  2.0191  1.0545 -2.2300
 1692SOL    HW2 5218   1.325   1.040   3.282  0.9633 -1.7603  1.3964
 1693SOL     OW 5219   3.287   1.119   3.424  0.0282  0.1647 -0.1565
 1693SOL    HW1 5220   3.373   1.096   3.459 -0.8110 -0.7424  1.4005
 1693SOL    HW2 5221   3.269   1.206   3.459  0.3117  0.3685 -0.5095
 1694SOL     OW 5222   3.519   3.591   1.301  0.3550 -0.2639  0.2844
 1694SOL    HW1 5223   3.478   3.645   1.234 -1.6790  1.8470  3.0133
 1694SOL    HW2 5224   3.522   3.503   1.262 -0.0714  0.9363 -2.7518
 1695SOL     OW 5225   1.734   0.173   3.211 -0.4779 -0.6914  0.5524
 1695SOL    HW1 5226   1.769   0.228   3.141 -2.5666  1.0619  0.7907
 1695SOL    HW2 5227   1.790   0.192   3.286 -0.3635  0.0916  0.2815
 1696SOL     OW 5228   2.064   0.292   2.113  0.2741  0.7071 -0.3526
 1696SOL    HW1 5229   1.998   0.301   2.183  1.1384  0.6107  0.4986
 1696SOL    HW2 5230   2.114   0.374   2.117 -2.6190  2.9538 -4.0895
 1697SOL     OW 5231   3.279   0.593   3.314  0.3202 -0.4229  0.3582
 1697SOL    HW1 5232   3.358   0.647   3.316 -0.3244  0.7356 -2.0209
 1697SOL    HW2 5233   3.226   0.624   3.387  0.8410  0.7633  0.2428
 1698SOL     OW 5234   2.071   1.062   2.835 -0.7282  0.1521  0.0363
 1698SOL    HW1 5235   1.984   1.026   2.825 -0.7616  0.5931 -1.5900
 1698SOL    HW2 5236   2.107   1.063   2.746  1.1767 -0.6149  0.7510
 1699SOL     OW 5237   3.260   1.205   0.566 -0.0341 -0.0581  0.2815
 1699SOL    HW1 5238   3.172   1.187   0.533 -0.8050  0.7524  1.7618
 1699SOL    HW2 5239   3.319   1.171   0.498 -1.4576 -1.3921 -0.3631
 1700SOL     OW 5240   1.622   2.010   2.815  0.6505 -0.2351  0.9505
 1700SOL    HW1 5241   1.582   1.930   2.782 -2.1812  0.9273  1.2747
 1700SOL    HW2 5242   1.704   2.018   2.766 -0.2961 -1.8795 -1.0513
 1701SOL     OW 5243   0.602   3.252   2.847  0.6038  0.5542 -0.1392
 1701SOL    HW1 5244   0.523   3.205   2.873 -0.5252  1.8529 -1.0658
 1701SOL    HW2 5245   0.660   3.184   2.813  1.0673 -0.8252  3.0139
 1702SOL     OW 5246   2.670   0.795   1.921 -0.2415  0.0388 -0.2292
 1702SOL    HW1 5247   2.751   0.781   1.969  0.3360  0.5516 -1.0300
 1702SOL    HW2 5248   2.698   0.814   1.832 -1.3365 -2.1500 -1.0967
 1703SOL     OW 5249   0.171   2.701   1.876  0.6544  0.2789 -0.6514
 1703SOL    HW1 5250   0.178   2.667   1.965 -1.2260  0.9063 -0.2123
 1703SOL    HW2 5251   0.193   2.794   1.884  0.7284  0.2825 -0.8843
 1704SOL     OW 5252   1.119   1.752   2.288  0.2229 -0.4278  0.2813
 1704SOL    HW1 5253   1.206   1.725   2.262  0.6742 -1.3167  2.4760
 1704SOL    HW2 5254   1.113   1.844   2.262  0.6793 -1.1129 -2.4816
 1705SOL     OW 5255   2.249   1.927   2.394  0.1324 -0.1875  0.2657
 1705SOL    HW1 5256   2.217   1.895   2.478 -0.0055  2.0151  1.1247
 1705SOL    HW2 5257   2.171   1.931   2.339  0.1491 -1.2297  0.1480
 1706SOL     OW 5258   2.625   3.487   2.106 -0.2852 -0.1956 -0.3278
 1706SOL    HW1 5259   2.552   3.507   2.165 -1.1860  2.2794 -2.1016
 1706SOL    HW2 5260   2.703   3.499   2.160 -1.1065 -1.5070  1.2399
 1707SOL     OW 5261   3.240   0.717   0.740 -0.4121  0.8565 -0.1752
 1707SOL    HW1 5262   3.189   0.703   0.820 -0.2648  1.4147  0.0200
 1707SOL    HW2 5263   3.217   0.805   0.711  1.0577  1.4689  0.3963
 1708SOL     OW 5264   2.249   2.168   2.132  0.1672  0.1836  0.0656
 1708SOL    HW1 5265   2.233   2.231   2.202  0.6056  1.0708 -0.6038
 1708SOL    HW2 5266   2.186   2.098   2.147  1.2742 -0.4291  2.2356
 1709SOL     OW 5267   1.822   2.911   1.747 -0.2690  0.0351 -0.0321
 1709SOL    HW1 5268   1.894   2.900   1.809  0.7049 -0.6896 -1.2376
 1709SOL    HW2 5269   1.814   2.826   1.704 -2.1602 -0.0284  0.3737
 1710SOL     OW 5270   2.982   1.725   0.374 -0.3646 -0.4150  0.2191
 1710SOL    HW1 5271   2.941   1.781   0.440  0.3274 -1.5825  1.7002
 1710SOL    HW2 5272   2.965   1.770   0.291 -0.1350  1.8152  1.2880
 1711SOL     OW 5273   2.953   0.443   1.714  0.3116  0.7108  0.3954
 1711SOL    HW1 5274   2.933   0.453   1.621 -0.6140  2.5197  0.7334
 1711SOL    HW2 5275   2.982   0.531   1.741  1.4103 -0.0051  1.6304
 1712SOL     OW 5276   1.562   1.983   0.344  0.5624 -0.0234 -0.1959
 1712SOL    HW1 5277   1.609   1.972   0.427 -1.2728 -1.8244  0.6892
 1712SOL    HW2 5278   1.568   1.897   0.302 -1.1047 -0.0181 -0.4829
 1713SOL     OW 5279   0.041   3.432   2.202  0.1406  0.0556 -0.2695
 1713SOL    HW1 5280  -0.017   3.386   2.142  2.0213 -1.4357 -1.0560
 1713SOL    HW2 5281  -0.018   3.476   2.264 -1.8040 -0.1016 -1.9067
 1714SOL     OW 5282   3.220   0.127   1.920 -0.4707  0.5766  0.3458
 1714SOL    HW1 5283   3.183   0.144   1.834 -1.4703 -0.4204  0.5491
 1714SOL    HW2 5284   3.176   0.047   1.949  0.2270  0.6134  1.5609
 1715SOL     OW 5285   2.844   2.594   0.422  0.2078  0.1191 -0.3942
 1715SOL    HW1 5286   2.873   2.566   0.335  1.3762  1.7011 -0.5750
 1715SOL    HW2 5287   2.892   2.538   0.483 -0.9273 -1.2798 -0.7220
 1716SOL     OW 5288   0.840   0.721   2.653  0.5332 -0.8562 -0.4949
 1716SOL    HW1 5289   0.825   0.814   2.666  2.1402 -0.8401  1.6989
 1716SOL    HW2 5290   0.795   0.701   2.570  0.7673  1.9692 -1.4109
 1717SOL     OW 5291   3.142   2.933   1.137  0.4484  0.0927 -0.2450
 1717SOL    HW1 5292   3.225   2.945   1.183  1.6023  1.4117 -2.4678
 1717SOL    HW2 5293   3.109   3.022   1.124  0.2708 -0.1998 -2.0307
 1718SOL     OW 5294   2.131   2.303   1.471  0.0742  0.2075  0.2310
 1718SOL    HW1 5295   2.227   2.309   1.472  0.0839  0.4466 -0.8139
 1718SOL    HW2 5296   2.111   2.232   1.531  0.9985 -0.7479 -0.5476
 1719SOL     OW 5297   2.389   2.024   0.713 -0.1675 -0.3459 -0.4172
 1719SOL    HW1 5298   2.417   1.943   0.671  0.9439 -1.3218  2.0044
 1719SOL    HW2 5299   2.318   1.997   0.772 -0.9969  0.7791 -0.8635
 1720SOL     OW 5300   1.418   2.843   3.263 -0.2362 -0.4560 -1.0078
 1720SOL    HW1 5301   1.377   2.836   3.349 -0.9952 -2.2651 -1.4651
 1720SOL    HW2 5302   1.428   2.937   3.248  1.8161 -0.0672  1.8943
 1721SOL     OW 5303   2.938   2.364   3.501  0.1288  0.4681 -0.2692
 1721SOL    HW1 5304   2.876   2.431   3.530  0.1317  0.1390  0.5115
 1721SOL    HW2 5305   2.905   2.337   3.416  0.0150  1.3185 -0.5076
 1722SOL     OW 5306   1.733   2.751   1.095  0.1353 -0.0222 -0.6102
 1722SOL    HW1 5307   1.815   2.709   1.070 -0.2921 -0.6752 -0.9466
 1722SOL    HW2 5308   1.758   2.814   1.163  0.7800 -0.8914 -0.0208
 1723SOL     OW 5309   2.742   3.165   0.133 -0.2831 -0.8214 -0.1533
 1723SOL    HW1 5310   2.773   3.204   0.051 -0.3276 -1.0387 -0.2754
 1723SOL    HW2 5311   2.728   3.239   0.191 -0.1062 -0.6759 -0.2944
 1724SOL     OW 5312   2.933   2.980   0.734  0.3623  0.2385  0.0485
 1724SOL    HW1 5313   2.921   3.017   0.646  1.5686  1.0656  0.2105
 1724SOL    HW2 5314   3.025   2.953   0.737 -0.3576 -2.5023  0.0833
 1725SOL     OW 5315   1.547   0.706   2.388 -0.4586 -0.1565 -0.0584
 1725SOL    HW1 5316   1.453   0.712   2.401 -0.9866 -0.9251 -2.8124
 1725SOL    HW2 5317   1.561   0.617   2.355  1.0380  0.3590 -0.9407
 1726SOL     OW 5318   3.205   2.241   0.687 -0.3000  0.1060  0.3896
 1726SOL    HW1 5319   3.274   2.289   0.641  0.4493 -0.8278  0.4982
 1726SOL    HW2 5320   3.140   2.222   0.619  0.7056 -1.0919 -0.2707
 1727SOL     OW 5321   1.486   3.732   3.324  0.3457  0.5805  0.0366
 1727SOL    HW1 5322   1.521   3.649   3.292  0.5598 -0.1536  2.0693
 1727SOL    HW2 5323   1.546   3.758   3.394  0.1557  2.3626 -0.4168
 1728SOL     OW 5324   2.388   0.620   2.714 -0.8426 -0.2996 -0.0901
 1728SOL    HW1 5325   2.378   0.600   2.808 -2.0137 -1.2749 -0.3802
 1728SOL    HW2 5326   2.341   0.549   2.670 -1.0722  0.6219 -1.3955
 1729SOL     OW 5327   3.488   0.286   1.228  0.2112 -0.0363  0.2926
 1729SOL    HW1 5328   3.429   0.217   1.197  0.2567 -0.4455  1.0900
 1729SOL    HW2 5329   3.500   0.343   1.152 -2.9994  1.3360  0.6306
 1730SOL     OW 5330   0.551   3.494   2.743 -0.0112 -0.6240  0.0753
 1730SOL    HW1 5331   0.532   3.405   2.770  0.6233 -0.6762  0.3699
 1730SOL    HW2 5332   0.643   3.507   2.766  0.2484 -0.3046 -1.0818
 1731SOL     OW 5333   2.350   0.176   3.645 -0.5186 -0.1414 -1.0060
 1731SOL    HW1 5334   2.377   0.149   3.557  0.3169 -0.6120 -0.6088
 1731SOL    HW2 5335   2.346   0.271   3.641 -3.4119 -0.2010 -2.4090
 1732SOL     OW 5336   2.392   1.781   0.590  0.0933 -0.1390  0.1014
 1732SOL    HW1 5337   2.342   1.700   0.581  1.1403 -0.8000  0.1228
 1732SOL    HW2 5338   2.478   1.761   0.555  0.1273  1.2244 -0.6645
 1733SOL     OW 5339   3.405   0.189   0.565  0.3234 -0.4944 -0.4892
 1733SOL    HW1 5340   3.483   0.243   0.572  0.9819 -1.4588 -0.2462
 1733SOL    HW2 5341   3.351   0.234   0.500  1.4411 -0.2550 -1.2796
 1734SOL     OW 5342   3.224   2.430   2.345  0.1084  0.0688  0.0481
 1734SOL    HW1 5343   3.159   2.480   2.394 -1.1287 -1.9244  0.5619
 1734SOL    HW2 5344   3.195   2.436   2.254  0.1772  0.5513  0.0535
 1735SOL     OW 5345   2.091   1.562   1.762  0.1773 -0.4837 -0.4794
 1735SOL    HW1 5346   2.134   1.511   1.694 -1.1374 -1.3566 -0.7109
 1735SOL    HW2 5347   2.154   1.629   1.787  0.7931 -0.3235 -2.3522
 1736SOL     OW 5348   2.589   2.220   3.438  0.6568 -0.0749 -0.3620
 1736SOL    HW1 5349   2.624   2.306   3.415  0.3578 -0.0802 -0.8536
 1736SOL    HW2 5350   2.514   2.208   3.379 -0.0575 -0.1399  0.5242
 1737SOL     OW 5351   0.646   2.560   2.687  0.2646  0.9150 -0.1890
 1737SOL    HW1 5352   0.661   2.623   2.617  1.8945  1.4962  0.6318
 1737SOL    HW2 5353   0.733   2.540   2.720 -0.5117  2.0079  2.8434
 1738SOL     OW 5354   3.561   1.582   0.116 -0.8513  0.3490 -0.1107
 1738SOL    HW1 5355   3.601   1.530   0.046  0.0368  1.6881 -0.6305
 1738SOL    HW2 5356   3.618   1.568   0.191 -0.1366  1.1854 -0.4783
 1739SOL     OW 5357   3.535   1.790   2.767  0.3048 -0.3533 -0.4876
 1739SOL    HW1 5358   3.595   1.846   2.816 -0.4064 -0.1777  0.2096
 1739SOL    HW2 5359   3.459   1.846   2.749 -0.5790 -1.1761  0.5456
 1740SOL     OW 5360   0.816   0.045   1.831 -0.2513  0.1939 -0.5327
 1740SOL    HW1 5361   0.742   0.099   1.803  0.4733  1.1641 -0.6384
 1740SOL    HW2 5362   0.824  -0.023   1.765 -0.1173  0.9803 -1.3429
 1741SOL     OW 5363   3.181   0.083   3.597  0.1791  0.4992  0.4873
 1741SOL    HW1 5364   3.154   0.094   3.506  2.8919 -0.1353 -0.4674
 1741SOL    HW2 5365   3.190   0.173   3.630 -1.2860  0.7306  0.3375
 1742SOL     OW 5366   2.703   1.838   0.781  0.2868  0.5220  0.3853
 1742SOL    HW1 5367   2.772   1.775   0.764 -0.0438  0.2961 -0.1549
 1742SOL    HW2 5368   2.634   1.815   0.719  0.7740  2.3876 -0.9093
 1743SOL     OW 5369   0.849   0.662   1.335  0.1263 -0.2886 -0.1729
 1743SOL    HW1 5370   0.854   0.575   1.374  1.5548  0.2250  0.8482
 1743SOL    HW2 5371   0.902   0.656   1.255  1.1383 -0.0946  0.4632
 1744SOL     OW 5372   3.682   2.691   0.182 -0.4433 -0.7724 -0.1260
 1744SOL    HW1 5373   3.646   2.671   0.269 -0.9008 -0.8926 -0.3405
 1744SOL    HW2 5374   3.652   2.780   0.164 -0.8007 -0.9441 -0.3884
 1745SOL     OW 5375   0.981   2.001   3.033  0.0934  0.3400  0.2236
 1745SOL    HW1 5376   1.006   1.912   3.008 -0.1544  0.1049  0.7894
 1745SOL    HW2 5377   1.064   2.044   3.054  0.1115 -0.2426  1.4672
 1746SOL     OW 5378   1.279   0.973   2.114 -0.0144  0.5814 -0.3853
 1746SOL    HW1 5379   1.247   0.973   2.024 -1.5728  1.4614  0.1296
 1746SOL    HW2 5380   1.234   1.046   2.155  0.7878  0.2887  1.0850
 1747SOL     OW 5381   1.575   1.389   1.127 -0.5868  0.2546  0.1604
 1747SOL    HW1 5382   1.619   1.304   1.127 -1.2873 -0.1369  1.2614
 1747SOL    HW2 5383   1.526   1.391   1.045  2.0942  1.0746 -1.5296
 1748SOL     OW 5384   0.745   1.542   3.506 -0.0037  0.2460 -0.3968
 1748SOL    HW1 5385   0.693   1.616   3.538 -1.2577 -0.3715 -0.9179
 1748SOL    HW2 5386   0.694   1.465   3.531  1.3445 -0.4793  0.2656
 1749SOL     OW 5387   3.629   0.095   2.846  0.0026 -0.3328  0.6260
 1749SOL    HW1 5388   3.704   0.137   2.805 -1.6314  2.5449  0.3102
 1749SOL    HW2 5389   3.617   0.014   2.798  3.4937 -1.4739  1.4032
 1750SOL     OW 5390   0.030   2.987   2.417 -0.3250  0.1735 -0.2587
 1750SOL    HW1 5391  -0.016   3.045   2.478 -0.3078  0.2396 -0.3077
 1750SOL    HW2 5392   0.121   2.988   2.447 -0.3955 -0.1281 -0.0318
 1751SOL     OW 5393   2.146   2.420   2.665  0.0233 -0.2096 -0.3205
 1751SOL    HW1 5394   2.154   2.515   2.661  1.9170 -0.3067  0.4266
 1751SOL    HW2 5395   2.232   2.389   2.692 -1.1323 -2.0123  1.6394
 1752SOL     OW 5396   2.653   3.351   1.014  0.1724  0.0611  0.5428
 1752SOL    HW1 5397   2.595   3.426   1.000 -1.2829 -1.2520 -0.8213
 1752SOL    HW2 5398   2.627   3.316   1.099 -0.5255 -0.0842  0.2685
 1753SOL     OW 5399   1.219   3.224   1.569  0.0982  0.0358  0.1794
 1753SOL    HW1 5400   1.185   3.179   1.492  2.7216 -0.0233 -1.0362
 1753SOL    HW2 5401   1.239   3.313   1.539 -0.3958  0.5382  1.2606
 1754SOL     OW 5402   1.399   1.826   3.151 -0.4069 -0.1057 -0.2042
 1754SOL    HW1 5403   1.332   1.805   3.216 -0.0448  0.7679  0.4732
 1754SOL    HW2 5404   1.451   1.746   3.144 -1.2223 -0.6322 -0.3832
 1755SOL     OW 5405   2.653   3.277   1.944 -0.0805  0.1320  0.2789
 1755SOL    HW1 5406   2.654   3.355   1.999  0.3774 -1.1434  2.1539
 1755SOL    HW2 5407   2.662   3.204   2.005  0.9810 -1.3322 -1.5130
 1756SOL     OW 5408   1.202   3.259   3.524 -0.1891  0.2243  0.2158
 1756SOL    HW1 5409   1.247   3.176   3.509  0.1520  0.6693 -1.4426
 1756SOL    HW2 5410   1.266   3.325   3.500 -1.2279  0.9030 -0.7802
 1757SOL     OW 5411   0.010   0.832   0.592  0.1341  0.2008 -0.1255
 1757SOL    HW1 5412  -0.066   0.779   0.617  1.3991 -0.8722  1.7814
 1757SOL    HW2 5413   0.083   0.770   0.591  0.7643  0.8076 -3.8061
 1758SOL     OW 5414   3.543   3.548   0.441 -0.4800  0.0726 -0.8975
 1758SOL    HW1 5415   3.579   3.463   0.416  0.1711  0.4564 -1.2878
 1758SOL    HW2 5416   3.593   3.611   0.390 -1.0161  0.6884 -0.6733
 1759SOL     OW 5417   2.479   0.464   0.304 -0.1386  0.0895  0.3737
 1759SOL    HW1 5418   2.410   0.419   0.353 -2.0675  1.8747 -0.5256
 1759SOL    HW2 5419   2.446   0.468   0.214  1.3645  0.5923 -0.1810
 1760SOL     OW 5420   2.426   0.111   0.616 -0.8358  0.5221 -0.0782
 1760SOL    HW1 5421   2.501   0.162   0.648 -0.7750 -0.4601  1.4618
 1760SOL    HW2 5422   2.465   0.039   0.568 -0.8761  1.1157 -1.0194
 1761SOL     OW 5423   2.769   0.018   3.232  0.3839  0.1716  0.6366
 1761SOL    HW1 5424   2.786   0.112   3.235  0.6062  0.1272  0.7950
 1761SOL    HW2 5425   2.677   0.011   3.207  1.4069  0.3971 -4.2848
 1762SOL     OW 5426   2.399   2.817   3.638 -0.5475 -0.0657 -0.0265
 1762SOL    HW1 5427   2.310   2.852   3.648 -1.1326 -1.8566  1.6130
 1762SOL    HW2 5428   2.445   2.847   3.717  0.7860  1.9392 -1.4469
 1763SOL     OW 5429   0.404   3.665   2.921  0.1941  0.0390 -0.6204
 1763SOL    HW1 5430   0.349   3.596   2.959 -1.8405  1.4102 -0.8643
 1763SOL    HW2 5431   0.455   3.621   2.854 -0.5524 -1.3449 -0.3285
 1764SOL     OW 5432   1.108   0.838   3.221  0.5416 -0.2666 -0.0441
 1764SOL    HW1 5433   1.184   0.876   3.265  1.4388 -1.7435 -0.2526
 1764SOL    HW2 5434   1.085   0.761   3.273  0.6300 -1.1359 -1.2277
 1765NA      NA 5435   1.282   3.704   0.954  0.1019 -0.0415  0.1924
   3.71620   3.71620   3.71620
